/*--------------------------------*- C++ -*----------------------------------*\
| =========                 |                                                 |
| \\      /  F ield         | OpenFOAM: The Open Source CFD Toolbox           |
|  \\    /   O peration     | Version:  2112                                  |
|   \\  /    A nd           | Website:  www.openfoam.com                      |
|    \\/     M anipulation  |                                                 |
\*---------------------------------------------------------------------------*/
FoamFile
{
    version     2.0;
    format      ascii;
    arch        "LSB;label=32;scalar=64";
    class       volScalarField;
    location    "0.00406";
    object      p;
}
// * * * * * * * * * * * * * * * * * * * * * * * * * * * * * * * * * * * * * //

dimensions      [1 -1 -2 0 0 0 0];

internalField   nonuniform List<scalar> 
13875
(
951598
984289
973630
975815
973367
973867
973908
974421
974523
974917
974830
975078
974828
974857
974894
974576
974468
974544
973793
973830
973081
975635
972402
982644
945234
733823
659568
672308
677373
670394
668546
668756
670869
670989
677877
678826
678402
670400
669221
670431
677755
678587
677050
670194
668173
669238
676984
672296
657418
730639
736915
635559
664420
653518
648185
645744
644665
644899
645616
647229
645610
648571
645872
645682
645437
648539
645124
647750
646072
646196
647599
651820
661909
632201
733358
743563
636204
665299
653663
648460
645926
644781
644992
645685
645333
643815
645596
645948
645797
645503
645575
643838
645927
646165
646403
647881
651938
662656
632800
739041
757406
639210
667840
654342
649307
646475
645146
645259
645914
645423
643976
645676
646202
646092
645739
645646
644021
646023
646481
646967
648688
652520
664943
635429
750238
759102
647864
673591
656267
651123
647647
645940
645837
646404
645714
644468
645949
646739
646687
646259
645909
644542
646365
647194
648139
650439
654387
670531
643150
751779
765138
668369
685802
661145
654870
650047
647590
647066
647436
646461
645545
646709
647816
647853
647321
646581
645681
647348
648766
650616
654300
660058
682101
665861
756008
791375
718398
711758
674591
663066
655226
651076
649612
649586
648308
647728
648427
649963
650200
649516
648270
648009
649612
651990
655557
662217
673063
707228
715474
782284
909013
827974
766873
704805
679810
665634
658164
654858
654003
652448
652141
652318
654342
654933
654017
652201
652758
654596
658527
665347
678153
701528
760777
823633
910845
1.5252e+06
1.02958e+06
835177
742396
701555
680400
669776
664752
662734
661187
661011
660799
663265
664317
663239
661008
662058
664285
669545
680061
700226
739786
831257
1.02666e+06
1.52103e+06
2.91027e+06
1.39401e+06
964210
806025
738421
706656
691515
684300
680962
679485
679072
678583
681170
682820
681907
679789
680830
683576
690152
704643
734703
798300
947286
1.35404e+06
2.87113e+06
5.62091e+06
2.34961e+06
1.31666e+06
967230
822537
764704
739254
727546
722262
720213
719325
718740
720948
723218
722818
721816
723083
727181
737553
761750
817552
954265
1.28054e+06
2.28384e+06
5.59883e+06
5.41339e+06
4.83353e+06
2.43251e+06
1.49922e+06
1.06141e+06
922988
866248
840887
830135
825787
824029
823460
824785
827414
828327
829984
833700
843173
867753
925751
1.06412e+06
1.47136e+06
2.30711e+06
4.88566e+06
5.37054e+06
4.89336e+06
4.69464e+06
4.93093e+06
4.34392e+06
1.8367e+06
1.43322e+06
1.27871e+06
1.21148e+06
1.18608e+06
1.17597e+06
1.17239e+06
1.17154e+06
1.17186e+06
1.17442e+06
1.17839e+06
1.18524e+06
1.19856e+06
1.22807e+06
1.307e+06
1.49539e+06
1.9872e+06
4.40775e+06
4.90649e+06
4.75925e+06
4.80454e+06
4.12955e+06
4.27335e+06
4.79508e+06
4.77205e+06
4.50518e+06
3.35244e+06
3.00034e+06
2.69322e+06
2.56113e+06
2.51217e+06
2.49253e+06
2.48445e+06
2.48133e+06
2.48561e+06
2.49813e+06
2.52384e+06
2.57844e+06
2.7118e+06
3.06682e+06
3.4409e+06
4.47839e+06
4.75315e+06
4.80368e+06
4.42808e+06
4.37051e+06
3.74992e+06
3.79603e+06
4.42412e+06
5.01469e+06
6.28863e+06
7.3153e+06
7.83359e+06
7.78082e+06
7.82467e+06
7.74498e+06
7.72972e+06
7.68392e+06
7.68692e+06
7.69094e+06
7.72698e+06
7.75214e+06
7.83396e+06
7.79551e+06
7.92007e+06
7.42616e+06
6.3459e+06
5.07302e+06
4.53507e+06
3.94967e+06
3.98332e+06
2.9409e+06
3.27922e+06
4.30119e+06
5.13411e+06
6.2748e+06
7.13614e+06
7.58438e+06
7.50989e+06
7.40779e+06
7.32562e+06
7.28635e+06
7.25671e+06
7.25466e+06
7.25632e+06
7.29444e+06
7.33505e+06
7.42256e+06
7.49907e+06
7.58061e+06
7.19574e+06
6.38569e+06
5.20377e+06
4.38191e+06
3.40342e+06
3.11416e+06
2.17899e+06
2.84399e+06
4.15239e+06
4.98862e+06
5.58389e+06
6.14715e+06
6.42107e+06
6.41253e+06
6.3772e+06
6.35885e+06
6.34592e+06
6.33691e+06
6.33325e+06
6.33558e+06
6.34637e+06
6.35791e+06
6.3786e+06
6.39818e+06
6.36338e+06
6.11487e+06
5.66373e+06
5.13864e+06
4.16604e+06
2.69386e+06
2.00714e+06
1.09631e+06
1.83364e+06
3.48979e+06
4.11758e+06
4.54387e+06
4.86568e+06
5.06224e+06
5.22144e+06
5.37635e+06
5.51137e+06
5.59608e+06
5.63645e+06
5.64828e+06
5.63158e+06
5.58483e+06
5.49698e+06
5.37648e+06
5.22694e+06
5.06789e+06
4.86889e+06
4.55919e+06
4.1578e+06
3.52967e+06
1.85226e+06
1.08525e+06
519844
1.15605e+06
2.58652e+06
3.13839e+06
3.45077e+06
3.82094e+06
4.20066e+06
4.47901e+06
4.70549e+06
4.86526e+06
4.95907e+06
5.01055e+06
5.02932e+06
5.01183e+06
4.95994e+06
4.86543e+06
4.71965e+06
4.50247e+06
4.21286e+06
3.82123e+06
3.45909e+06
3.14373e+06
2.56873e+06
1.16525e+06
517561
613972
1.06203e+06
1.70026e+06
2.2357e+06
2.63951e+06
3.08649e+06
3.532e+06
3.8682e+06
4.12109e+06
4.28264e+06
4.37937e+06
4.43671e+06
4.45758e+06
4.44056e+06
4.38601e+06
4.28913e+06
4.1333e+06
3.88133e+06
3.5275e+06
3.05889e+06
2.60994e+06
2.19524e+06
1.65258e+06
1.00745e+06
602062
989920
1.01483e+06
1.18407e+06
1.70906e+06
2.07962e+06
2.58119e+06
3.00249e+06
3.3288e+06
3.57961e+06
3.74058e+06
3.84095e+06
3.89953e+06
3.92106e+06
3.90138e+06
3.84436e+06
3.74384e+06
3.58499e+06
3.33179e+06
2.99076e+06
2.55267e+06
2.03955e+06
1.66801e+06
1.14517e+06
980462
987238
1.32554e+06
1.03977e+06
1.06022e+06
1.36807e+06
1.70546e+06
2.21164e+06
2.5737e+06
2.86703e+06
3.10221e+06
3.25693e+06
3.35537e+06
3.41388e+06
3.43441e+06
3.41205e+06
3.35384e+06
3.25311e+06
3.0954e+06
2.8581e+06
2.55659e+06
2.18911e+06
1.67069e+06
1.33258e+06
1.03837e+06
1.00914e+06
1.32141e+06
1.40233e+06
1.0711e+06
1.06646e+06
1.21346e+06
1.48926e+06
1.89248e+06
2.20437e+06
2.47796e+06
2.68744e+06
2.82539e+06
2.92068e+06
2.97759e+06
2.99914e+06
2.97533e+06
2.91747e+06
2.81679e+06
2.67236e+06
2.45998e+06
2.17336e+06
1.86744e+06
1.46734e+06
1.18463e+06
1.04321e+06
1.04692e+06
1.33244e+06
1.40129e+06
1.12253e+06
1.08385e+06
1.14139e+06
1.3424e+06
1.63667e+06
1.90014e+06
2.14583e+06
2.33084e+06
2.45724e+06
2.5455e+06
2.60131e+06
2.61731e+06
2.59878e+06
2.54316e+06
2.44766e+06
2.31723e+06
2.1268e+06
1.87101e+06
1.60707e+06
1.32329e+06
1.11575e+06
1.06019e+06
1.10868e+06
1.34661e+06
1.40788e+06
1.20828e+06
1.11982e+06
1.11321e+06
1.23556e+06
1.43902e+06
1.65802e+06
1.86861e+06
2.02727e+06
2.14098e+06
2.22363e+06
2.26768e+06
2.28522e+06
2.2653e+06
2.21763e+06
2.1294e+06
2.01e+06
1.84634e+06
1.63045e+06
1.41486e+06
1.22159e+06
1.09229e+06
1.09597e+06
1.20754e+06
1.37309e+06
1.43111e+06
1.36285e+06
1.16565e+06
1.11395e+06
1.16153e+06
1.29226e+06
1.46649e+06
1.63831e+06
1.7743e+06
1.87586e+06
1.9474e+06
1.98716e+06
1.99891e+06
1.98412e+06
1.93806e+06
1.86312e+06
1.75673e+06
1.61602e+06
1.44139e+06
1.26323e+06
1.141e+06
1.09318e+06
1.14356e+06
1.35369e+06
1.4168e+06
1.48801e+06
1.47823e+06
1.19398e+06
1.11346e+06
1.10966e+06
1.17788e+06
1.30689e+06
1.44327e+06
1.55596e+06
1.6446e+06
1.70946e+06
1.74157e+06
1.75488e+06
1.73839e+06
1.70213e+06
1.63515e+06
1.54305e+06
1.42707e+06
1.28871e+06
1.15965e+06
1.0909e+06
1.09328e+06
1.16622e+06
1.44298e+06
1.50605e+06
1.60637e+06
1.52221e+06
1.21838e+06
1.10771e+06
1.07651e+06
1.09771e+06
1.18463e+06
1.28749e+06
1.37964e+06
1.45427e+06
1.50642e+06
1.53768e+06
1.54628e+06
1.53381e+06
1.5e+06
1.44431e+06
1.36583e+06
1.2704e+06
1.16668e+06
1.07902e+06
1.05802e+06
1.08688e+06
1.18987e+06
1.48252e+06
1.66734e+06
1.8335e+06
1.5779e+06
1.2331e+06
1.09126e+06
1.0414e+06
1.03876e+06
1.0852e+06
1.15671e+06
1.22743e+06
1.28829e+06
1.33519e+06
1.35849e+06
1.36791e+06
1.35368e+06
1.32767e+06
1.27891e+06
1.21457e+06
1.14068e+06
1.0675e+06
1.02016e+06
1.02179e+06
1.07231e+06
1.21956e+06
1.5676e+06
1.77153e+06
1.85101e+06
1.64351e+06
1.26002e+06
1.07625e+06
1.00229e+06
984472
1.00466e+06
1.05179e+06
1.10355e+06
1.15198e+06
1.18733e+06
1.20975e+06
1.21572e+06
1.2066e+06
1.1816e+06
1.14386e+06
1.09372e+06
1.04008e+06
992064
970386
986871
1.06098e+06
1.24637e+06
1.65221e+06
1.83097e+06
1.84882e+06
1.6849e+06
1.307e+06
1.07439e+06
969707
938892
937220
965340
998963
1.03256e+06
1.06292e+06
1.07832e+06
1.08568e+06
1.07655e+06
1.05788e+06
1.02564e+06
988716
953665
924138
925579
955286
1.06044e+06
1.28866e+06
1.709e+06
1.83142e+06
1.83779e+06
1.68776e+06
1.36612e+06
1.07665e+06
940396
891870
881489
892238
914116
937440
957112
970895
974895
969201
951691
930330
904825
882280
868167
878792
927459
1.06501e+06
1.36702e+06
1.71271e+06
1.82801e+06
1.8154e+06
1.68689e+06
1.48822e+06
1.0893e+06
919938
851119
829674
827113
838459
851379
867042
875173
879657
873899
862915
845936
831420
819305
821410
841263
908881
1.07472e+06
1.47026e+06
1.70434e+06
1.816e+06
1.77173e+06
1.68286e+06
1.5814e+06
1.11897e+06
912821
816987
782268
774264
776939
783127
791034
797643
799293
796199
787140
778463
770927
766323
773011
807769
906366
1.10075e+06
1.5985e+06
1.68809e+06
1.79015e+06
1.74059e+06
1.66372e+06
1.57944e+06
1.15064e+06
914790
790129
740790
724238
721220
721695
725378
728371
729891
726203
722172
717480
715483
718280
734442
782828
910664
1.15046e+06
1.6e+06
1.65281e+06
1.73844e+06
1.70773e+06
1.62367e+06
1.57424e+06
1.21639e+06
925429
772793
705474
681574
673746
671601
670682
671873
671437
670038
667931
668408
669940
676219
699104
767216
918349
1.22225e+06
1.58645e+06
1.59104e+06
1.69879e+06
1.6714e+06
1.56356e+06
1.55976e+06
1.34804e+06
951990
772970
680760
643944
629973
624004
621511
620101
620096
619165
619841
621589
626437
639901
675594
767791
940742
1.36735e+06
1.56003e+06
1.53311e+06
1.65985e+06
1.64439e+06
1.51386e+06
1.52075e+06
1.35576e+06
984680
776075
665591
615239
595023
586487
580521
578153
577010
577848
578803
584125
591945
609861
658500
775096
988083
1.37165e+06
1.50708e+06
1.49034e+06
1.62185e+06
1.60907e+06
1.47136e+06
1.44305e+06
1.35213e+06
1.05395e+06
789557
665781
592539
563017
549372
543161
539139
538540
538992
541887
547679
560327
589183
657036
785474
1.06275e+06
1.36157e+06
1.41444e+06
1.45896e+06
1.59187e+06
1.56462e+06
1.43353e+06
1.36261e+06
1.33909e+06
1.19328e+06
818617
669486
580671
540048
522828
512115
508256
506063
507522
510849
520949
537614
576392
660003
809576
1.21447e+06
1.33972e+06
1.34116e+06
1.43096e+06
1.55065e+06
1.53034e+06
1.40414e+06
1.30063e+06
1.30409e+06
1.19276e+06
860530
675450
580793
523744
496031
484197
478407
477095
477471
483062
493917
519829
576596
672969
861118
1.2141e+06
1.29516e+06
1.28848e+06
1.40118e+06
1.50232e+06
1.47954e+06
1.37783e+06
1.25325e+06
1.23441e+06
1.18491e+06
948840
694319
584078
518077
481823
461864
455266
452244
454542
460349
479494
512473
578746
694982
949361
1.19781e+06
1.22627e+06
1.24344e+06
1.37243e+06
1.46645e+06
1.4252e+06
1.34848e+06
1.21875e+06
1.16875e+06
1.16318e+06
1.05091e+06
732309
593608
518722
466792
443290
432702
430176
432058
441837
463565
512975
586027
739303
1.05923e+06
1.16312e+06
1.16197e+06
1.21112e+06
1.34599e+06
1.42334e+06
1.3851e+06
1.31475e+06
1.19178e+06
1.1169e+06
1.1143e+06
1.04646e+06
798285
610492
520753
466531
433369
418176
412457
417231
431264
463579
517334
605937
833474
1.05381e+06
1.09498e+06
1.10921e+06
1.18649e+06
1.3098e+06
1.37388e+06
1.34326e+06
1.28088e+06
1.17323e+06
1.07362e+06
1.0481e+06
1.0325e+06
935703
647292
529675
467843
432471
408001
400570
406932
428334
464514
527215
640114
935537
1.03229e+06
1.03229e+06
1.06565e+06
1.16844e+06
1.27523e+06
1.34146e+06
1.2969e+06
1.23773e+06
1.15306e+06
1.04792e+06
999373
999928
935084
722482
551197
472414
433066
407290
395112
406388
428790
468070
550531
708841
932173
986320
984314
1.03904e+06
1.15025e+06
1.23793e+06
1.29903e+06
1.25647e+06
1.20207e+06
1.13308e+06
1.02846e+06
958792
941652
923784
843611
592749
482403
434716
407678
395572
406880
431723
479561
603360
847029
921277
931767
947907
1.02298e+06
1.13059e+06
1.1996e+06
1.25095e+06
1.17557e+06
1.14928e+06
1.10316e+06
1.01422e+06
934023
895824
897911
841870
680579
505663
441338
409773
397588
408726
439193
503201
707997
845457
894716
891216
927381
1.00983e+06
1.10057e+06
1.14675e+06
1.16917e+06
1.045e+06
1.0785e+06
1.06108e+06
992030
914033
856118
849192
831335
765331
556247
459162
415873
402974
414471
457588
554145
766870
834073
848761
854517
911694
990395
1.05917e+06
1.07762e+06
1.0414e+06
76301.9
76970.1
77161.3
77505.9
77714.2
77789.7
77846.1
78150.1
78450.9
78972.6
79454.6
79905.2
80213.3
80478.8
80786.6
81102.7
81001.1
80813.7
80840.7
81785.9
89037.8
131652
162071
164730
164334
163577
162828
162591
163711
164827
76768.7
77349.4
77510.6
77984.1
78263
78399.2
78497.3
78820.8
79201
79754
80273
80731.4
81097
81436.5
81643.8
81574.4
81416.4
81534.6
82186.8
86968.5
116788
149105
158725
161170
161344
160649
159843
159567
160356
160609
77217.1
77772.2
77930.8
78532.4
78823.3
78998.1
79159.6
79561.4
79917.8
80325.6
80699.7
81165
81619.8
81906.5
82034.5
81798
81712.9
82060.4
84570.4
99504.7
143249
153323
156346
156744
156648
156384
156288
156339
157028
157513
77729.1
78308
78503.8
79159.7
79426.7
79664.4
79912.3
80223.5
80401.8
80715.6
81095.3
81537.1
81905.6
82116.9
82185.8
81930
81976.9
83023.1
89911.8
131283
151177
153653
154176
153898
153265
153014
152919
153071
153775
154433
78339.9
78999
79211.5
79833
80043.4
80281.3
80402.1
80590.4
80806.9
81066.8
81286.7
81696.7
82005.2
82173.1
82216.2
82092.3
82520.6
85624
107733
147013
153504
153564
153070
151870
151181
150826
150703
151009
151800
152398
78983.9
79839.3
79986.4
80492.1
80603.4
80699.5
80772.2
80927.2
81091.4
81230.2
81346.6
81733.8
82009.6
82107.7
81898.1
82354.8
83801
93217
139087
153375
154384
153419
151994
150397
149622
149257
149127
149290
150056
150369
79769.1
80766.7
80726.7
81029.8
81015
81046.1
81138.3
81262.8
81231.2
81271.2
81340.6
81566.4
81650.7
81504.3
81782.7
82758.1
87223.6
115795
151848
156567
154591
152823
150639
149084
148281
147911
147773
147868
148217
148266
80686.3
81615.7
81399.5
81456.7
81378.8
81460.2
81503.9
81479.6
81282.5
81166.8
81107.3
81078.5
80909.2
80929.8
81777.5
84201.1
97323.3
145887
159980
158970
154613
151622
148953
147557
146764
146281
146072
146071
146292
146148
81634
82257.8
81938.9
81807
81800.9
81894.9
81812.1
81519.6
81282.5
80948.1
80599.8
80271.6
80250.1
80775.5
82231.4
89340.8
129789
164978
166635
160033
154548
149873
147303
145619
144764
144122
143822
143757
143878
143539
82391.4
82722.3
82319.7
82150.4
82099.3
81996.7
81840.1
81508.9
80888.3
80369.4
80069.7
79930.5
80014.2
80870.4
84878.5
109534
164320
174446
169204
160462
154073
148331
145343
143460
142301
141443
140981
140864
140915
140467
82934.6
83078.3
82639.1
82391.6
82157.9
82024.9
81770.9
81249.6
80664.4
80147.8
79895.9
79828.6
80041.1
82388.5
96237
158929
178960
178675
170145
160598
152653
146735
143263
141064
139611
138482
137933
137820
137848
137328
83283.5
83321.9
82830.4
82512.2
82154.2
81877.6
81617.3
81212.4
80594.8
80118.9
79931.9
79980.9
81286.6
90460.8
144423
180552
185449
179916
170435
160621
150590
144807
140911
138411
136654
135437
134884
134798
134809
134275
83520
83441.6
82888.4
82579.7
82085.3
81842.5
81623.8
81251.2
80825.5
80740.8
80974.5
82070.8
88919.2
133466
180689
188949
187888
180123
170481
159996
148553
142512
138187
135512
133531
132331
131818
131747
131723
131181
83623.7
83471.8
82888.6
82579.2
82085.9
81881.4
81952.5
82450.5
83475.7
84842.2
87249.5
93112.7
132706
179697
190878
191907
188244
179642
169450
157974
146213
139713
135208
132441
130304
129190
128724
128631
128519
128013
83633.8
83471.6
82885
82546.3
82413.9
83116.1
85435.8
89784.5
95412.2
106433
121234
144237
178679
190634
192762
192435
187543
175746
165728
155534
143408
136430
132091
129223
127075
126011
125579
125483
125191
124764
83648
83474.4
82957.8
83163.4
84981.3
90741.2
104605
128410
147137
154519
159448
172192
186856
191861
192701
191138
181998
168760
161427
152461
140061
132934
128840
125887
123807
122804
122413
122319
121842
121480
83685.5
83512.1
83657.8
86600.2
97568.4
133176
160893
167375
167986
167214
167366
176903
186867
188540
187776
183547
172450
161571
156153
148187
136284
129300
125459
122383
120492
119604
119271
119185
118553
118212
84156.6
84459.8
88257.6
107174
158603
174621
178011
176700
172940
169136
168215
176367
179452
179619
177916
172769
160870
153534
148942
142628
132049
125563
121841
118787
117211
116478
116187
116079
115372
115038
84179.7
87477
110048
169657
182755
184203
182413
178600
173912
168935
165797
168668
168371
166536
163687
158746
148114
143733
140346
135955
127202
121616
117939
115342
114043
113423
113137
112997
112294
111971
87842.8
104225
171814
186786
187305
186320
183156
177784
170600
162551
159449
159093
155658
151266
147884
141923
135997
133197
131482
128557
122002
117366
113965
111881
110853
110371
110141
109964
109273
108958
95382.9
164734
187965
188612
187311
184638
180180
172774
165387
156223
152550
149880
142953
136809
133429
127561
124479
123282
122625
120875
116542
112725
109853
108409
107694
107352
107183
107010
106300
105971
142379
190214
190778
187589
184463
181884
178766
170108
161228
152626
147858
142828
136432
126626
121579
117174
115220
114257
113786
113437
110696
107595
105823
104956
104542
104358
104227
104113
103417
103081
179890
191849
182692
184027
179934
177667
170784
162653
154507
149176
141820
136458
133880
119291
112509
109415
107820
107120
106849
106752
104129
102651
101945
101646
101523
101471
101390
101358
100742
100411
248202
188608
179333
176867
171556
169568
165754
157671
151206
144851
137504
133719
132287
115840
108108
104264
102043
100959
100441
100213
99144.9
98676.4
98536.2
98513.4
98596.6
98632.7
98646.6
98720.1
98242.8
97953.6
191077
169062
172486
172096
166476
163726
159193
152093
148805
141726
136060
133109
131927
113236
104573
100247
97924.7
96306.5
95512.4
95111.7
94868.2
94800.8
95014.1
95413.7
95701.9
95909.5
96132.8
96290.9
95941.5
95719.6
164960
163871
162733
162964
163706
164457
164850
162195
131717
89107.3
81926.6
81037.4
81048
81245
81433.4
81172.8
80889.5
80699.4
80282.4
79794.8
79294.9
78755.1
78471.9
78143.7
78096.5
78007.9
77781.3
77403.5
77203.2
76463.5
160668
160418
159637
159918
160730
161434
161262
158802
149020
116367
87117.5
82454.7
81871.3
81852.5
82131
82171.2
81885.6
81442.9
81055.5
80537.3
80124.6
79594.2
79220.9
78868.4
78746.5
78570.8
78253.7
77743.4
77574.5
76947.3
157590
157074
156381
156329
156433
156700
156806
156397
153390
143020
99391.3
84804.2
82437.2
82241.6
82437.2
82627.4
82426.6
82021.5
81514.9
80965.6
80691.9
80346.6
80028.9
79623.2
79395.9
79150.5
78817.5
78162.7
78002.7
77404.7
154423
153739
153046
152905
153003
153284
153981
154332
153969
151474
130519
90181.1
83431.1
82530.8
82616.1
82811.7
82673
82347.4
81913
81467.7
81151.1
80864
80693.6
80445.6
80196.7
79817.8
79475.4
78759.3
78573.3
77961.2
152327
151698
150900
150632
150777
151190
151991
153345
154061
154314
147519
107967
86189.4
83169.2
82771.9
82845.3
82739.3
82468.4
82080.9
81718.4
81531.5
81311.9
81096.9
80804.1
80735.6
80517.3
80209.9
79504.4
79310.9
78621.6
150238
149939
149207
149070
149231
149669
150570
152345
153972
155513
154828
140185
93911
84500.4
83032.3
82493.9
82687.6
82483.1
82117.3
81800.6
81701.6
81545.8
81432.4
81203.9
81037.6
80966.3
80902.4
80339.4
80209.3
79321.5
148145
148117
147812
147743
147919
148379
149360
151100
153589
155837
158590
153547
116844
88078.6
83417.1
82290.2
82046.6
82119.9
81949.6
81798.9
81738.4
81627.6
81596.1
81541.5
81395.6
81368.7
81407.9
81123.2
81198.6
80145.4
146056
146238
146026
146055
146330
146961
147923
149507
152606
155891
160752
162165
147860
98442.1
84885.1
82268
81310.7
81278.5
81450.9
81504.4
81541.9
81630
81681.8
81782.1
81753.9
81692.2
81790
81797.3
82075
81094.2
143471
143843
143752
143864
144273
145037
146053
147939
150967
155876
161732
168252
166786
131790
90010.2
82728.9
81113.9
80512.9
80536.1
80808.5
81164.5
81472.2
81741.8
81991
81997.2
81960.4
82087.6
82289.1
82705.7
82060.8
140452
140937
140914
141078
141660
142665
143986
146032
149396
155551
162114
170704
175789
165604
110707
85410.1
81196.5
80253.3
80181.7
80307.9
80592.2
81070.1
81672.6
82009
82250.8
82219.4
82322.8
82634
83102.5
82774.4
137371
137931
137933
138095
138756
140079
141647
144017
147755
154208
162222
171515
179775
180033
160638
97217.8
82757.2
80291.1
80088
80155.6
80387.7
80874.2
81439.9
81875
82262.4
82436.7
82529.5
82875
83375.8
83219.4
134383
134952
134975
135116
135782
137192
139045
141737
145840
152003
162210
171720
180940
186374
181715
147097
91371.9
81675.2
80301.3
80219
80375.2
80824.2
81397.4
81828.4
82163.4
82470.3
82687.4
83039.4
83544.7
83470.1
131371
131923
131982
132121
132745
134129
136203
139071
143557
149781
161314
171722
181138
188721
189788
182036
137338
90105.6
82825.3
81554.6
81206.7
81191.3
81503.9
81863.4
82129.6
82443.5
82843
83123.5
83618.9
83645.5
128273
128769
128926
129072
129649
130956
133156
136083
140815
147468
159020
170301
180568
189058
192590
191609
181168
137492
95616.7
89158.6
86339.7
84576
83213.5
82452.2
82261.1
82440.1
82913.4
83166.6
83640.9
83757.8
125063
125491
125833
125956
126466
127675
129990
132933
137493
144621
156525
166219
176426
188259
193071
193242
191187
180017
149483
128335
113978
100785
92337.6
87073.9
83983.9
82907.2
82916.3
83224.4
83682.6
83789.4
121801
122162
122686
122799
123253
124372
126642
129639
133839
141280
153235
161790
169251
182409
191498
193027
192213
186906
171963
160695
157297
152979
137745
113031
93551.5
86238.2
83744.5
83362.6
83762.8
83863.6
118559
118885
119556
119656
120040
121039
123129
126182
130085
137276
148689
156349
161751
172712
183539
187425
188143
186600
175860
167289
167528
169186
169773
165218
143610
103827
88242.1
84271.4
83918.1
84015.8
115406
115738
116460
116563
116882
117712
119484
122509
126246
132740
142813
148927
153460
160756
172459
177242
178679
178670
175160
168001
168883
172771
177348
179413
177293
165782
116665
90168.6
85125
84649.7
112368
112688
113400
113515
113793
114455
115859
118624
122211
127664
135860
140111
143401
147665
158123
162568
165188
167435
167727
165519
168531
173467
178863
182939
185333
184741
174881
119863
89149.1
84880.1
109360
109677
110370
110494
110725
111235
112329
114537
117866
122152
128200
131079
132609
135398
141324
146798
149988
154737
158237
159245
162771
170884
178304
183461
187106
188372
188591
177343
111678
89218
106348
106674
107379
107512
107673
108012
108759
110304
113229
116338
120309
122111
122740
123892
126900
132378
135962
142413
149012
151589
156673
165806
173235
180756
184877
187222
189935
190606
174004
100213
103399
103730
104429
104532
104623
104809
105220
106083
107841
110430
112913
113244
113731
114684
116566
121130
126244
136629
141181
145956
153529
161039
169557
179419
182804
184854
187556
193287
193747
153032
100672
101000
101605
101617
101659
101685
101783
102045
102676
104037
106366
106437
106681
107407
109088
112570
119134
133903
135728
139708
148478
153515
162397
169851
176933
179746
185100
184060
194588
190618
98163.9
98456.6
98890.9
98813.5
98769.3
98679.8
98500.8
98529
98661.3
99096.2
100089
100266
100713
101719
103865
107719
115369
131908
133393
136795
143357
150443
155350
164395
168842
170936
176265
179501
190106
258090
95876.8
96100.5
96421.3
96246.9
95979.7
95730.3
95345
94926.4
94616.5
94688.1
94939.4
95321.3
96124.5
97476.9
99869.7
104266
112911
131275
132682
135632
141022
148923
151849
157303
162285
165317
171385
173484
172678
196198
70637
70639.7
70868.1
77523.6
228407
751239
1.08134e+06
1.16229e+06
1.17365e+06
1.16639e+06
1.15477e+06
1.15071e+06
1.15533e+06
1.20114e+06
1.26195e+06
1.33465e+06
1.41158e+06
1.44762e+06
1.46267e+06
1.4668e+06
1.46692e+06
1.4463e+06
1.41701e+06
1.39228e+06
1.34615e+06
1.30687e+06
1.27274e+06
1.23474e+06
1.19473e+06
1.15676e+06
1.12183e+06
1.09359e+06
1.07533e+06
1.05853e+06
1.04327e+06
1.0293e+06
1.01423e+06
998570
984271
973096
961886
949612
933364
911300
882456
847279
806736
761171
713758
664735
616952
571891
530693
493166
458087
424996
394840
366822
341021
318169
298212
280437
264583
250697
238759
228596
219731
211795
204388
197189
189982
182756
175733
169075
162858
157043
151634
146587
141839
137314
133023
129005
125245
121678
118244
114950
111845
108997
106418
104102
102022
100131
98399
96812.8
95365.1
94032.2
92783.7
91588.9
90431.6
89313.8
88269.1
87332.7
86522.4
85831
85238.4
84728.7
84272.1
83853.9
83495.9
83196.7
83002.2
82913.2
82894.4
82901
82939.6
83082.2
83466
84296.3
85472.1
86319.7
87416.5
88755.6
90265.1
91946.5
93805.5
70637
70640.1
70834.4
76536.8
212420
718907
1.06393e+06
1.14959e+06
1.16113e+06
1.15114e+06
1.14e+06
1.1346e+06
1.13335e+06
1.14684e+06
1.21658e+06
1.29304e+06
1.36133e+06
1.39229e+06
1.40538e+06
1.41015e+06
1.41135e+06
1.40975e+06
1.38998e+06
1.34037e+06
1.31958e+06
1.29296e+06
1.25689e+06
1.21165e+06
1.16827e+06
1.13681e+06
1.11061e+06
1.08702e+06
1.06846e+06
1.05182e+06
1.0369e+06
1.02291e+06
1.00786e+06
992212
976326
960574
945942
932835
916992
895104
865948
831158
789095
741078
692122
646169
602674
559668
520102
483054
447425
413838
383994
357599
333541
312491
294915
279241
264628
251266
239563
229474
220568
212509
204921
197547
190218
182891
175796
169102
162845
156994
151548
146462
141672
137101
132774
128719
124935
121367
117960
114715
111669
108885
106369
104091
102028
100153
98427.7
96841.5
95390.9
94056.2
92803.5
91594.9
90417.9
89253.7
88104.8
87036.2
86117.2
85372.7
84768.2
84253.6
83795.5
83380.5
83028.6
82738.3
82546.2
82460.2
82437.1
82443.6
82489.7
82671.3
83138.1
84105.5
85167.1
86046.2
87218.6
88623.6
90216.8
91980.7
93918.3
70637
70638.8
70736.4
74008.7
163334
626709
1.01774e+06
1.11996e+06
1.13325e+06
1.12501e+06
1.11944e+06
1.1183e+06
1.12816e+06
1.15642e+06
1.20036e+06
1.26645e+06
1.31353e+06
1.33914e+06
1.35332e+06
1.35945e+06
1.36131e+06
1.3589e+06
1.33251e+06
1.31722e+06
1.30437e+06
1.28356e+06
1.24939e+06
1.20551e+06
1.16322e+06
1.13348e+06
1.10911e+06
1.08802e+06
1.0689e+06
1.05273e+06
1.03846e+06
1.02555e+06
1.01132e+06
996962
985701
978343
970200
957005
938435
916382
884201
847758
800964
742099
680719
624535
582085
539580
500590
462330
428454
399098
373598
350975
330789
312198
295443
279923
266204
253744
242485
232502
223517
215283
207548
200007
192552
185140
177932
171150
164810
158868
153312
148118
143212
138556
134155
130021
126159
122508
119016
115677
112534
109649
107037
104665
102521
100609
98860.6
97255.2
95784.8
94421.3
93132
91888.9
90666.4
89470.4
88340
87281.7
86303.4
85441.8
84730.1
84133.2
83622.1
83179.1
82802
82493
82294.5
82203.6
82170.6
82180.3
82239.5
82441.2
82924.4
83920.4
84927
85848.6
87081.7
88528.1
90189.6
92068.7
94154.9
70637
70637.7
70667.8
71989
111554
473844
957773
1.09932e+06
1.11745e+06
1.11708e+06
1.11152e+06
1.12566e+06
1.13138e+06
1.14385e+06
1.18459e+06
1.25837e+06
1.29058e+06
1.31836e+06
1.33413e+06
1.3412e+06
1.34377e+06
1.34105e+06
1.31316e+06
1.28462e+06
1.26093e+06
1.23693e+06
1.2169e+06
1.1912e+06
1.16361e+06
1.13896e+06
1.11708e+06
1.09734e+06
1.07853e+06
1.06416e+06
1.05207e+06
1.04272e+06
1.03391e+06
1.02577e+06
1.01656e+06
1.00264e+06
986783
964329
931632
890997
844718
802580
755729
713107
667766
619566
559596
517082
482088
446361
417155
389922
364471
342899
325614
310403
294822
280646
267778
257087
247084
237589
228885
220736
212743
204844
197220
189666
182250
175306
168820
162695
156913
151526
146418
141572
136999
132675
128627
124795
121129
117615
114291
111216
108410
105846
103529
101457
99580.1
97866.2
96289.8
94835.7
93466.9
92142.9
90843.9
89628.4
88477.1
87374
86333.9
85364.7
84483.7
83717.3
83061.4
82528.3
82091.1
81734.4
81495.5
81358.2
81296.5
81306.1
81367.9
81596.5
82153.6
83281.7
84170.7
85150.5
86466.1
87971.4
89730.9
91695.9
93879.9
70637
70637.2
70644.7
71046.1
82005.1
289810
846952
1.07795e+06
1.12047e+06
1.12541e+06
1.12506e+06
1.12789e+06
1.12618e+06
1.12629e+06
1.17499e+06
1.25402e+06
1.28786e+06
1.32044e+06
1.33441e+06
1.33934e+06
1.33974e+06
1.32966e+06
1.30259e+06
1.2744e+06
1.24044e+06
1.20114e+06
1.16797e+06
1.15206e+06
1.13851e+06
1.12944e+06
1.11717e+06
1.10244e+06
1.09042e+06
1.07939e+06
1.06778e+06
1.05448e+06
1.03885e+06
1.02245e+06
1.00202e+06
978660
953998
922048
893582
856043
808057
756244
697932
639803
594765
568746
524653
479300
444748
414353
391286
372498
352207
335038
320223
307089
294974
283006
270872
259969
250276
241761
234281
227273
220559
213755
206316
198263
190361
183174
176437
170073
164073
158357
152869
147498
142456
137693
133184
128881
124734
120825
117170
113794
110726
107972
105480
103148
101032
99082.5
97293.2
95666.7
94133.3
92663.5
91270.5
89986.7
88809
87623.7
86491.6
85474.7
84567.3
83819
83171.9
82526.9
81928.1
81458
81155.9
80920.4
80757.4
80678.2
80701.9
80856.7
81285.2
82167.3
82969.1
84037.4
85362
86939.4
88803.1
90942.8
93367.4
70637
70637
70639
70742
74226
170435
657944
1.03619e+06
1.12906e+06
1.14676e+06
1.14913e+06
1.14289e+06
1.14128e+06
1.15499e+06
1.22085e+06
1.28119e+06
1.31615e+06
1.33276e+06
1.33791e+06
1.33841e+06
1.33571e+06
1.33261e+06
1.31384e+06
1.27521e+06
1.23258e+06
1.19142e+06
1.14839e+06
1.12542e+06
1.11103e+06
1.10367e+06
1.09998e+06
1.09413e+06
1.08769e+06
1.0797e+06
1.0692e+06
1.05359e+06
1.04013e+06
1.03155e+06
1.00736e+06
985879
955821
931240
898268
852503
795577
738916
685836
620299
552957
510164
473363
440045
411204
388090
369397
349305
336767
327040
315422
302929
294534
283760
273445
264444
255198
247026
240321
234776
229762
224498
218655
212749
206313
199241
192044
185120
178486
172011
165619
159399
153470
147817
142379
137104
132025
127171
122569
118352
114634
111306
108355
105706
103331
101245
99299.8
97371.8
95497.4
93739.5
92182.2
90763.5
89372.6
88099.3
86917.8
85771.5
84833.6
84055.5
83310.7
82607.7
81998.8
81508.6
80947.9
80435.6