/*--------------------------------*- C++ -*----------------------------------*\
| =========                 |                                                 |
| \\      /  F ield         | OpenFOAM: The Open Source CFD Toolbox           |
|  \\    /   O peration     | Version:  2112                                  |
|   \\  /    A nd           | Website:  www.openfoam.com                      |
|    \\/     M anipulation  |                                                 |
\*---------------------------------------------------------------------------*/
FoamFile
{
    version     2.0;
    format      ascii;
    arch        "LSB;label=32;scalar=64";
    class       volScalarField;
    location    "0.00743";
    object      epsilon;
}
// * * * * * * * * * * * * * * * * * * * * * * * * * * * * * * * * * * * * * //

dimensions      [0 2 -3 0 0 0 0];

internalField   nonuniform List<scalar> 
13875
(
1.16002e+06
2.94627e+07
3.28239e+07
3.28363e+07
3.29013e+07
3.28522e+07
3.29038e+07
3.29613e+07
3.29241e+07
3.28821e+07
3.28978e+07
3.29108e+07
3.28761e+07
3.28448e+07
3.28618e+07
3.29104e+07
3.29484e+07
3.29132e+07
3.28932e+07
3.28607e+07
3.28995e+07
3.28306e+07
3.28054e+07
2.94916e+07
1.17769e+06
1.31389e+06
2.27475e+07
2.53554e+07
2.52368e+07
2.52759e+07
2.52205e+07
2.52306e+07
2.5268e+07
2.52313e+07
2.52089e+07
2.52336e+07
2.52508e+07
2.52147e+07
2.51941e+07
2.52011e+07
2.52501e+07
2.52461e+07
2.52363e+07
2.52252e+07
2.52291e+07
2.52698e+07
2.52197e+07
2.53286e+07
2.27569e+07
1.34203e+06
1.57303e+06
1.97066e+07
2.18297e+07
2.16259e+07
2.16935e+07
2.16352e+07
2.15638e+07
2.15709e+07
2.15226e+07
2.1505e+07
2.15115e+07
2.15478e+07
2.16121e+07
2.16029e+07
2.15976e+07
2.15472e+07
2.15319e+07
2.153e+07
2.15486e+07
2.1641e+07
2.16834e+07
2.16018e+07
2.17902e+07
1.96867e+07
1.58468e+06
1.81371e+06
1.73852e+07
1.9038e+07
1.88791e+07
1.89628e+07
1.89092e+07
1.88272e+07
1.88286e+07
1.87841e+07
1.87581e+07
1.87636e+07
1.87876e+07
1.88884e+07
1.88808e+07
1.88768e+07
1.87875e+07
1.87941e+07
1.878e+07
1.88065e+07
1.89151e+07
1.89521e+07
1.8858e+07
1.90145e+07
1.73605e+07
1.82078e+06
2.02277e+06
1.54525e+07
1.67721e+07
1.66206e+07
1.67001e+07
1.6652e+07
1.65684e+07
1.65734e+07
1.65344e+07
1.65114e+07
1.65231e+07
1.65328e+07
1.663e+07
1.66278e+07
1.66199e+07
1.65336e+07
1.65475e+07
1.65308e+07
1.65526e+07
1.66548e+07
1.66901e+07
1.66052e+07
1.67441e+07
1.54268e+07
2.03693e+06
2.20644e+06
1.37124e+07
1.4928e+07
1.47387e+07
1.48288e+07
1.47714e+07
1.46794e+07
1.46876e+07
1.4651e+07
1.46292e+07
1.46462e+07
1.4646e+07
1.47407e+07
1.47429e+07
1.4732e+07
1.46466e+07
1.46677e+07
1.46477e+07
1.46667e+07
1.47745e+07
1.48193e+07
1.47293e+07
1.49033e+07
1.38478e+07
2.22352e+06
2.42252e+06
1.22514e+07
1.34779e+07
1.32079e+07
1.32686e+07
1.3199e+07
1.30928e+07
1.30997e+07
1.30643e+07
1.30392e+07
1.30619e+07
1.30546e+07
1.31479e+07
1.31522e+07
1.31381e+07
1.30551e+07
1.30837e+07
1.30616e+07
1.30853e+07
1.32004e+07
1.3257e+07
1.32015e+07
1.34211e+07
1.19525e+07
2.42995e+06
2.66593e+06
1.06159e+07
1.23131e+07
1.19756e+07
1.19981e+07
1.18858e+07
1.176e+07
1.17581e+07
1.17204e+07
1.16912e+07
1.17202e+07
1.17051e+07
1.17978e+07
1.18052e+07
1.17882e+07
1.17051e+07
1.1743e+07
1.17209e+07
1.17513e+07
1.1884e+07
1.19811e+07
1.19652e+07
1.22639e+07
1.0545e+07
2.69487e+06
3.49636e+06
1.02132e+07
1.1483e+07
1.10301e+07
1.09381e+07
1.07864e+07
1.06364e+07
1.06257e+07
1.05855e+07
1.05493e+07
1.05849e+07
1.05643e+07
1.06555e+07
1.06659e+07
1.06477e+07
1.05661e+07
1.06088e+07
1.05868e+07
1.06248e+07
1.07796e+07
1.09224e+07
1.10212e+07
1.14741e+07
1.03378e+07
3.57387e+06
6.83612e+06
1.22214e+07
1.11983e+07
1.04283e+07
1.01644e+07
9.93049e+06
9.76622e+06
9.73967e+06
9.69586e+06
9.6607e+06
9.69625e+06
9.67311e+06
9.75895e+06
9.77164e+06
9.75395e+06
9.68371e+06
9.71997e+06
9.70872e+06
9.74541e+06
9.91455e+06
1.01427e+07
1.03592e+07
1.11601e+07
1.21283e+07
6.89234e+06
1.4917e+07
1.8686e+07
1.20472e+07
1.03198e+07
9.61366e+06
9.32346e+06
9.14372e+06
9.0776e+06
9.02592e+06
8.99471e+06
9.02329e+06
8.99991e+06
9.0765e+06
9.09193e+06
9.07995e+06
9.02956e+06
9.05677e+06
9.06237e+06
9.12384e+06
9.28638e+06
9.60826e+06
1.02663e+07
1.18757e+07
1.79341e+07
1.49965e+07
2.54751e+07
6.87636e+07
1.81713e+07
1.07051e+07
9.70323e+06
9.0165e+06
8.7239e+06
8.61432e+06
8.54616e+06
8.51728e+06
8.53174e+06
8.51078e+06
8.57173e+06
8.59023e+06
8.58715e+06
8.55815e+06
8.58187e+06
8.61223e+06
8.70208e+06
9.01589e+06
9.65025e+06
1.05449e+07
1.75642e+07
6.72388e+07
2.50292e+07
2.65962e+07
7.58784e+07
8.69451e+07
2.4097e+07
1.09467e+07
9.13392e+06
8.74472e+06
8.4599e+06
8.33794e+06
8.2885e+06
8.27844e+06
8.25474e+06
8.29632e+06
8.31727e+06
8.32785e+06
8.32921e+06
8.3825e+06
8.49249e+06
8.76264e+06
9.15998e+06
1.12938e+07
2.2584e+07
8.07997e+07
7.65006e+07
2.60789e+07
2.63679e+07
5.51507e+07
7.98587e+07
1.04704e+08
5.80462e+07
1.3066e+07
9.64238e+06
8.83432e+06
8.58731e+06
8.56564e+06
8.55534e+06
8.53471e+06
8.56609e+06
8.5863e+06
8.60585e+06
8.62536e+06
8.66121e+06
8.88868e+06
9.93488e+06
1.4432e+07
6.6004e+07
9.09612e+07
7.53295e+07
5.44785e+07
2.57483e+07
2.53557e+07
4.25923e+07
5.81468e+07
7.25491e+07
7.5627e+07
7.47905e+07
2.31914e+07
1.31291e+07
1.11314e+07
1.04228e+07
1.01351e+07
1.00269e+07
1.00227e+07
1.0053e+07
1.01367e+07
1.03698e+07
1.10481e+07
1.31686e+07
2.56269e+07
7.71936e+07
7.55263e+07
6.60208e+07
5.65889e+07
4.22392e+07
2.64085e+07
2.47331e+07
3.35727e+07
4.34088e+07
5.43612e+07
5.94462e+07
6.80473e+07
5.12388e+07
4.52288e+07
4.18347e+07
3.30542e+07
3.49791e+07
3.61005e+07
3.69372e+07
3.66758e+07
3.55052e+07
3.35082e+07
4.05685e+07
4.91759e+07
5.20073e+07
6.90043e+07
5.84417e+07
5.04834e+07
4.26299e+07
3.34288e+07
2.57912e+07
2.00917e+07
2.53057e+07
3.23503e+07
4.20666e+07
4.98376e+07
6.24858e+07
7.14415e+07
7.15335e+07
5.80365e+07
4.97297e+07
5.25564e+07
5.52389e+07
5.68779e+07
5.62966e+07
5.35359e+07
5.35112e+07
5.82982e+07
7.15716e+07
7.21478e+07
6.24875e+07
4.77413e+07
3.91146e+07
3.09816e+07
2.45565e+07
1.99574e+07
1.48486e+07
1.91234e+07
2.6469e+07
3.74038e+07
4.57318e+07
5.33663e+07
6.4568e+07
6.98321e+07
5.12295e+07
3.79776e+07
3.54397e+07
3.57404e+07
3.6449e+07
3.61399e+07
3.60097e+07
4.11556e+07
5.13302e+07
6.59692e+07
6.44822e+07
5.46304e+07
4.55569e+07
3.61656e+07
2.54843e+07
1.85813e+07
1.45295e+07
1.21656e+07
1.66066e+07
2.38594e+07
3.77149e+07
4.82846e+07
4.61818e+07
4.95969e+07
5.54846e+07
4.54487e+07
3.39127e+07
2.88296e+07
2.74117e+07
2.72447e+07
2.77248e+07
2.95247e+07
3.51319e+07
4.36801e+07
5.22108e+07
4.9782e+07
4.73204e+07
5.05273e+07
3.81911e+07
2.38421e+07
1.64231e+07
1.20131e+07
1.14793e+07
1.78005e+07
2.4811e+07
3.8037e+07
4.40489e+07
3.91588e+07
3.88388e+07
4.27951e+07
3.90292e+07
3.12499e+07
2.55399e+07
2.24953e+07
2.15384e+07
2.29704e+07
2.65331e+07
3.19084e+07
3.7114e+07
4.04318e+07
3.89581e+07
4.0097e+07
4.50547e+07
3.75561e+07
2.514e+07
1.81628e+07
1.16489e+07
2.87579e+07
5.24867e+07
4.043e+07
3.23959e+07
3.49624e+07
3.16507e+07
3.10801e+07
3.4263e+07
3.31541e+07
2.76767e+07
2.21617e+07
1.85194e+07
1.73318e+07
1.92466e+07
2.33962e+07
2.81999e+07
3.14758e+07
3.25571e+07
3.12282e+07
3.23784e+07
3.5629e+07
3.28777e+07
4.49999e+07
5.8048e+07
3.57482e+07
9.08726e+07
2.91008e+08
5.32236e+07
2.60283e+07
2.76809e+07
2.57842e+07
2.54728e+07
2.80768e+07
2.79808e+07
2.39367e+07
1.89462e+07
1.52897e+07
1.40835e+07
1.60184e+07
2.00654e+07
2.42401e+07
2.64922e+07
2.68703e+07
2.5571e+07
2.62534e+07
2.80054e+07
2.65788e+07
5.96054e+07
2.83913e+08
1.03764e+08
9.78955e+07
1.8918e+08
4.39695e+07
2.16571e+07
2.24338e+07
2.13573e+07
2.11102e+07
2.33021e+07
2.3518e+07
2.03427e+07
1.60005e+07
1.26819e+07
1.15358e+07
1.3247e+07
1.68742e+07
2.04877e+07
2.21769e+07
2.23848e+07
2.11743e+07
2.15716e+07
2.25215e+07
2.19756e+07
4.58885e+07
1.8586e+08
9.70115e+07
8.28117e+07
1.82121e+08
3.45224e+07
1.85453e+07
1.84657e+07
1.77485e+07
1.75899e+07
1.93895e+07
1.97329e+07
1.71048e+07
1.3344e+07
1.04954e+07
9.55021e+06
1.10283e+07
1.41723e+07
1.72902e+07
1.86172e+07
1.86653e+07
1.77135e+07
1.79649e+07
1.85807e+07
1.89143e+07
3.64394e+07
1.9267e+08
8.42306e+07
7.47667e+07
1.71673e+08
2.89097e+07
1.62269e+07
1.55629e+07
1.49304e+07
1.48655e+07
1.62844e+07
1.66029e+07
1.44148e+07
1.12169e+07
8.79079e+06
8.0033e+06
9.25433e+06
1.19619e+07
1.46203e+07
1.56957e+07
1.56815e+07
1.49654e+07
1.51475e+07
1.57317e+07
1.6589e+07
3.11119e+07
1.89656e+08
7.68053e+07
6.8132e+07
1.69577e+08
2.51836e+07
1.42027e+07
1.33416e+07
1.26845e+07
1.27271e+07
1.37992e+07
1.40324e+07
1.21959e+07
9.50045e+06
7.44275e+06
6.77855e+06
7.8263e+06
1.01127e+07
1.23553e+07
1.32653e+07
1.32477e+07
1.27321e+07
1.28387e+07
1.35001e+07
1.44774e+07
2.68643e+07
1.83456e+08
7.07273e+07
6.39622e+07
1.53485e+08
2.16315e+07
1.24803e+07
1.15844e+07
1.08986e+07
1.09878e+07
1.1764e+07
1.1853e+07
1.02927e+07
8.06046e+06
6.35454e+06
5.80456e+06
6.70428e+06
8.64819e+06
1.05272e+07
1.13176e+07
1.1329e+07
1.09618e+07
1.10555e+07
1.18076e+07
1.27844e+07
2.34038e+07
1.69041e+08
6.69468e+07
6.05456e+07
1.42841e+08
1.93334e+07
1.1106e+07
1.0217e+07
9.50966e+06
9.59049e+06
1.01392e+07
1.01187e+07
8.7797e+06
6.91906e+06
5.48621e+06
5.017e+06
5.78088e+06
7.41446e+06
8.99044e+06
9.69642e+06
9.75229e+06
9.52231e+06
9.63545e+06
1.04094e+07
1.13475e+07
2.09397e+07
1.59747e+08
6.28357e+07
5.62918e+07
1.36095e+08
1.7701e+07
9.96952e+06
9.11043e+06
8.43656e+06
8.44738e+06
8.80349e+06
8.69116e+06
7.54228e+06
5.99349e+06
4.78235e+06
4.3756e+06
5.02174e+06
6.38721e+06
7.69953e+06
8.34518e+06
8.45546e+06
8.34032e+06
8.50044e+06
9.23985e+06
1.01455e+07
1.87461e+07
1.42976e+08
5.93321e+07
5.22829e+07
1.22676e+08
1.6299e+07
9.03504e+06
8.13303e+06
7.54947e+06
7.5086e+06
7.6807e+06
7.47585e+06
6.47564e+06
5.19379e+06
4.18956e+06
3.84694e+06
4.41259e+06
5.57976e+06
6.68434e+06
7.26153e+06
7.4073e+06
7.39385e+06
7.58823e+06
8.26447e+06
9.1965e+06
1.72812e+07
1.3021e+08
5.58803e+07
4.86952e+07
1.07276e+08
1.51045e+07
8.29375e+06
7.32955e+06
6.80004e+06
6.7318e+06
6.76608e+06
6.50181e+06
5.63315e+06
4.56091e+06
3.70807e+06
3.40942e+06
3.89493e+06
4.88147e+06
5.80776e+06
6.34095e+06
6.53055e+06
6.6053e+06
6.80524e+06
7.40716e+06
8.41791e+06
1.58397e+07
1.15167e+08
5.19487e+07
4.55044e+07
9.6918e+07
1.421e+07
7.72898e+06
6.63357e+06
6.14838e+06
6.07078e+06
6.0134e+06
5.71257e+06
4.94672e+06
4.03644e+06
3.30589e+06
3.04346e+06
3.46063e+06
4.30431e+06
5.09609e+06
5.5843e+06
5.80239e+06
5.93684e+06
6.12797e+06
6.67637e+06
7.80839e+06
1.46706e+07
1.00903e+08
4.86836e+07
4.25608e+07
8.35308e+07
1.32322e+07
7.29121e+06
6.05358e+06
5.59401e+06
5.48498e+06
5.36187e+06
5.02426e+06
4.35062e+06
3.58399e+06
2.9621e+06
2.73612e+06
3.10491e+06
3.83586e+06
4.51156e+06
4.96123e+06
5.19977e+06
5.35849e+06
5.55845e+06
6.07726e+06
7.33614e+06
1.37451e+07
8.92234e+07
4.5814e+07
4.01736e+07
7.32773e+07
1.22912e+07
6.95147e+06
5.59956e+06
5.12073e+06
4.96542e+06
4.8171e+06
4.46867e+06
3.87171e+06
3.2127e+06
2.67379e+06
2.47398e+06
2.79387e+06
3.4276e+06
4.01333e+06
4.42558e+06
4.67977e+06
4.84606e+06
5.06798e+06
5.59099e+06
6.94604e+06
1.28471e+07
7.74436e+07
4.28289e+07
3.80058e+07
6.5645e+07
1.13555e+07
6.672e+06
5.28076e+06
4.70621e+06
4.52115e+06
4.34666e+06
3.999e+06
3.467e+06
2.89977e+06
2.42804e+06
2.25132e+06
2.53116e+06
3.08202e+06
3.59144e+06
3.97359e+06
4.22682e+06
4.40389e+06
4.64553e+06
5.2413e+06
6.66775e+06
1.18783e+07
6.89193e+07
4.04545e+07
3.57297e+07
5.83346e+07
1.04773e+07
6.42577e+06
5.04239e+06
4.35586e+06
4.12571e+06
3.92473e+06
3.59319e+06
3.11733e+06
2.62255e+06
2.21277e+06
2.05806e+06
2.30761e+06
2.79706e+06
3.24537e+06
3.59275e+06
3.83204e+06
4.02642e+06
4.29082e+06
4.98486e+06
6.44077e+06
1.10394e+07
6.33163e+07
3.81657e+07
3.39464e+07
5.29372e+07
9.7166e+06
6.33655e+06
4.87936e+06
4.07244e+06
3.79442e+06
3.56734e+06
3.2467e+06
2.82534e+06
2.39278e+06
2.0299e+06
1.89146e+06
2.11073e+06
2.54183e+06
2.93755e+06
3.25425e+06
3.48605e+06
3.69934e+06
3.99471e+06
4.7977e+06
6.32023e+06
1.01747e+07
5.67782e+07
3.58601e+07
3.22016e+07
4.92918e+07
9.02534e+06
6.17892e+06
4.78015e+06
3.86566e+06
3.50146e+06
3.25502e+06
2.95132e+06
2.57641e+06
2.19335e+06
1.86988e+06
1.74558e+06
1.93935e+06
2.32374e+06
2.67479e+06
2.96102e+06
3.18833e+06
3.41199e+06
3.77912e+06
4.68771e+06
6.18085e+06
9.34681e+06
5.16353e+07
3.40577e+07
3.03203e+07
4.49978e+07
8.27185e+06
5.86024e+06
4.74624e+06
3.71613e+06
3.25817e+06
2.98407e+06
2.68777e+06
2.35245e+06
2.01508e+06
1.72847e+06
1.61837e+06
1.79357e+06
2.13774e+06
2.44945e+06
2.71073e+06
2.93404e+06
3.1723e+06
3.61669e+06
4.6507e+06
5.92662e+06
8.57512e+06
4.77407e+07
3.23996e+07
2.88231e+07
4.19136e+07
7.60265e+06
5.53444e+06
4.80682e+06
3.62054e+06
3.06805e+06
2.75714e+06
2.46878e+06
2.16491e+06
1.86166e+06
1.60414e+06
1.50523e+06
1.66091e+06
1.97015e+06
2.24925e+06
2.48978e+06
2.71665e+06
2.98449e+06
3.50941e+06
4.62934e+06
5.56967e+06
7.8738e+06
4.41982e+07
3.07445e+07
2.76275e+07
3.9368e+07
7.16381e+06
5.20487e+06
4.8452e+06
3.58993e+06
2.92513e+06
2.57369e+06
2.28105e+06
2.00062e+06
1.7269e+06
1.49421e+06
1.40528e+06
1.54482e+06
1.82196e+06
2.07446e+06
2.30108e+06
2.53719e+06
2.84764e+06
3.44554e+06
4.7555e+06
5.24446e+06
7.30666e+06
4.18344e+07
2.91066e+07
2.64655e+07
3.69081e+07
6.65249e+06
4.82534e+06
4.67704e+06
3.59919e+06
2.81447e+06
2.43393e+06
2.12248e+06
1.85392e+06
1.60409e+06
1.39469e+06
1.31528e+06
1.44217e+06
1.69595e+06
1.92638e+06
2.14595e+06
2.40096e+06
2.74006e+06
3.44826e+06
4.73283e+06
4.94329e+06
7.37896e+06
3.95428e+07
2.76583e+07
2.55128e+07
3.48134e+07
6.26059e+06
4.47074e+06
4.42465e+06
3.74513e+06
2.74958e+06
2.32477e+06
1.99733e+06
1.73209e+06
1.4986e+06
1.30739e+06
1.23497e+06
1.34909e+06
1.57971e+06
1.79418e+06
2.01509e+06
2.29626e+06
2.66555e+06
3.51028e+06
4.50376e+06
4.58182e+06
6.92944e+06
3.72098e+07
2.64163e+07
2.47243e+07
3.27599e+07
6.37578e+06
4.16973e+06
4.13294e+06
3.82393e+06
2.75853e+06
2.23737e+06
1.904e+06
1.63009e+06
1.40632e+06
1.22892e+06
1.16223e+06
1.2657e+06
1.47858e+06
1.68347e+06
1.91374e+06
2.21421e+06
2.66197e+06
3.72363e+06
4.22125e+06
4.26034e+06
6.76865e+06
3.49303e+07
2.54908e+07
2.39066e+07
3.10261e+07
5.9984e+06
3.87778e+06
3.82016e+06
3.71053e+06
2.84538e+06
2.18106e+06
1.82328e+06
1.54726e+06
1.32682e+06
1.15948e+06
1.09771e+06
1.19378e+06
1.39444e+06
1.59655e+06
1.83363e+06
2.1603e+06
2.78174e+06
3.76854e+06
3.91991e+06
4.01683e+06
6.81626e+06
3.28798e+07
2.47814e+07
2.31931e+07
2.92308e+07
6.06644e+06
3.6621e+06
3.52231e+06
3.48984e+06
3.07897e+06
2.19848e+06
1.76503e+06
1.48726e+06
1.26638e+06
1.10177e+06
1.04176e+06
1.13209e+06
1.32734e+06
1.52931e+06
1.7695e+06
2.15974e+06
3.01817e+06
3.55866e+06
3.62041e+06
3.76172e+06
6.5324e+06
3.11481e+07
2.4107e+07
2.25061e+07
2.76214e+07
6.19576e+06
3.51268e+06
3.27361e+06
3.26016e+06
3.13225e+06
2.35719e+06
1.73438e+06
1.43354e+06
1.21968e+06
1.05797e+06
994268
1.08494e+06
1.27535e+06
1.47271e+06
1.72549e+06
2.29933e+06
3.10587e+06
3.32602e+06
3.35897e+06
3.56705e+06
6.39204e+06
2.95606e+07
2.34043e+07
2.15013e+07
2.59586e+07
6.04321e+06
3.36024e+06
3.0629e+06
3.03626e+06
2.9579e+06
2.60923e+06
1.78368e+06
1.38997e+06
1.17805e+06
1.02278e+06
957791
1.04826e+06
1.23206e+06
1.42783e+06
1.76207e+06
2.56043e+06
2.94953e+06
3.08545e+06
3.14041e+06
3.45161e+06
6.48705e+06
2.77033e+07
2.23616e+07
2.02958e+07
2.41132e+07
5.95609e+06
3.25444e+06
2.88671e+06
2.82254e+06
2.78021e+06
2.68941e+06
1.98907e+06
1.38349e+06
1.14454e+06
992891
930132
1.01673e+06
1.19354e+06
1.40487e+06
1.90755e+06
2.69638e+06
2.78022e+06
2.85504e+06
2.94852e+06
3.33424e+06
6.25453e+06
2.57027e+07
2.10776e+07
1.76703e+07
2.14509e+07
5.80202e+06
3.16019e+06
2.73667e+06
2.64066e+06
2.59767e+06
2.54313e+06
2.21862e+06
1.47449e+06
1.12907e+06
966519
905062
988000
1.16973e+06
1.45917e+06
2.1778e+06
2.58246e+06
2.60598e+06
2.65988e+06
2.7829e+06
3.22027e+06
5.96666e+06
2.28272e+07
1.8319e+07
915565
1.28966e+06
1.39441e+06
1.14912e+06
879477
690063
568260
509104
505435
537650
575105
572370
487088
368524
265203
190765
148339
126651
118339
122729
163389
276701
337531
342867
342471
337417
339882
326402
311047
347038
1.23135e+06
1.41889e+06
1.39086e+06
1.08184e+06
802870
625059
522777
476658
478336
501868
528401
538890
477764
361337
255998
184383
144851
125373
120951
143696
246149
325525
338310
334432
328093
323797
325143
311422
298434
345253
1.36866e+06
1.49751e+06
1.35943e+06
1.00831e+06
735973
573899
488478
454763
465263
487004
505460
515134
449719
332239
234695
172991
139694
125495
133526
199219
297515
316920
314983
311546
306072
306083
306414
293124
283337
339988
1.55163e+06
1.58388e+06
1.31976e+06
937609
669342
526564
461626
440179
456817
477071
489751
498592
426244
307886
219399
165554
138497
135007
175396
266409
301201
303248
298597
293665
289716
290412
289302
276762
269110
334458
1.76103e+06
1.64011e+06
1.27499e+06
872705
617741
493113
445842
434654
454833
478439
489764
491634
401604
284965
205245
161427
147376
171941
244485
278662
289561
288804
283538
277300
275590
275952
273313
261630
255695
328275
1.97415e+06
1.69e+06
1.23288e+06
815290
574155
466936
433024
428299
458544
493723
502805
489686
374943
267379
198886
172791
188421
239281
261788
273091
277941
275831
270464
263867
263423
262619
259887
249306
244371
322095
2.16644e+06
1.72821e+06
1.19172e+06
765281
541356
450609
420452
422745
468064
521681
527596
487689
363829
266977
217796
224220
252556
257674
259994
265975
267959
264450
258752
252514
252563
251075
248267
238137
233551
316021
2.35277e+06
1.76629e+06
1.16261e+06
729142
522945
439952
410554
424439
487092
554537
567562
498537
386427
304476
280038
276979
266737
257659
257198
260186
259535
254538
248372
243011
243119
241025
237779
227396
222569
309031
2.54848e+06
1.80791e+06
1.14823e+06
722541
525211
444380
423393
447264
517789
596690
612351
535302
439371
357531
314228
287050
266350
256912
255780
255499
252218
245725
239061
234049
234370
231653
227359
216257
211473
301524
2.7767e+06
1.86966e+06
1.16486e+06
743419
553859
488095
473346
505046
578026
631615
616303
538883
441995
375805
328257
293349
270555
259240
255159
251637
245675
237367
229424
226372
226000
222095
216124
204830
200843
294271
3.0238e+06
1.96621e+06
1.21838e+06
802942
628145
572091
554194
578600
616403
620814
590443
540335
472173
414386
358879
314027
283579
265762
256474
248761
239263
228922
221444
219200
217697
212500
205550
194582
191617
287160
3.31489e+06
2.11109e+06
1.32488e+06
908315
744244
680644
668613
678254
692986
692902
677219
642650
580175
503630
421798
354639
307157
277477
260186
246397
233390
221670
215224
212684
209986
203931
196090
185258
183242
280333
3.68683e+06
2.32891e+06
1.4904e+06
1.05751e+06
897651
851729
862803
884684
907324
924418
917140
870810
774269
653171
525692
418967
342693
294964
266178
244672
228262
215776
210325
206861
203156
195901
187492
176868
175845
273482
4.18762e+06
2.63494e+06
1.71245e+06
1.25704e+06
1.11912e+06
1.11616e+06
1.16278e+06
1.22254e+06
1.27888e+06
1.31456e+06
1.29876e+06
1.21745e+06
1.06717e+06
876899
677777
509844
390730
318046
273459
244430
223890
212207
206508
201899
196388
188350
179591
169344
168954
266549
4.86964e+06
3.02857e+06
1.99199e+06
1.54125e+06
1.44925e+06
1.50226e+06
1.61343e+06
1.73195e+06
1.83201e+06
1.88521e+06
1.84932e+06
1.71081e+06
1.47355e+06
1.17932e+06
877986
626614
451722
346596
283017
245603
222053
210345
203522
196672
189846
181311
172349
162462
162471
259587
5.76636e+06
3.51523e+06
2.37527e+06
1.94783e+06
1.9105e+06
2.04067e+06
2.24133e+06
2.43159e+06
2.58242e+06
2.64532e+06
2.56801e+06
2.33452e+06
1.96859e+06
1.53724e+06
1.11316e+06
765729
525554
378053
294759
248239
222589
209531
200131
191346
183708
174905
165650
156028
156449
252617
6.86365e+06
4.13862e+06
2.88822e+06
2.46634e+06
2.50002e+06
2.73813e+06
3.03015e+06
3.28011e+06
3.45632e+06
3.48829e+06
3.32513e+06
2.95995e+06
2.45471e+06
1.89793e+06
1.36785e+06
924283
608668
414459
309324
253620
224882
208622
195920
186161
178019
169093
159572
149880
150821
245560
8.18779e+06
4.91612e+06
3.5107e+06
3.09758e+06
3.19332e+06
3.50503e+06
3.84048e+06
4.11508e+06
4.26317e+06
4.21277e+06
3.93374e+06
3.45925e+06
2.87118e+06
2.23769e+06
1.62493e+06
1.09486e+06
704762
460879
328891
261873
227286
206194
191658
181333
172873
163749
153941
144112
145624
238964
9.74346e+06
5.79215e+06
4.24653e+06
3.80532e+06
3.90262e+06
4.21839e+06
4.55687e+06
4.81804e+06
4.90369e+06
4.75638e+06
4.3763e+06
3.8326e+06
3.20111e+06
2.53077e+06
1.86974e+06
1.27771e+06
818850
520838
354005
270160
228369
203097
187649
176933
168145
158728
148710
138868
141017
232982
1.15455e+07
6.80796e+06
5.0776e+06
4.55449e+06
4.59523e+06
4.87783e+06
5.19549e+06
5.41411e+06
5.41586e+06
5.1636e+06
4.69939e+06
4.10862e+06
3.45468e+06
2.77334e+06
2.09486e+06
1.46903e+06
952396
589752
381449
278593
228790
200532
184091
172886
163734
154006
143798
134141
136911
227232
1.35467e+07
7.9439e+06
5.99695e+06
5.33469e+06
5.31778e+06
5.56728e+06
5.83636e+06
5.98514e+06
5.89188e+06
5.54143e+06
5.00005e+06
4.35705e+06
3.67774e+06
2.98678e+06
2.30492e+06
1.6622e+06
1.09346e+06
666540
413528
289566
230559
198937
180999
169137
159602
149545
139220
129717
133073
221533
1.56986e+07
9.46677e+06
7.04541e+06
6.26119e+06
6.20594e+06
6.43334e+06
6.6392e+06
6.68367e+06
6.46266e+06
6.00798e+06
5.3676e+06
4.64418e+06
3.91198e+06
3.18581e+06
2.49172e+06
1.838e+06
1.23522e+06
757922
457714
305769
234420
198266
178413
165676
155616
145179
134814
125496
129414
216152
1.77736e+07
1.09279e+07
8.40027e+06
7.53367e+06
7.40959e+06
7.58018e+06
7.69822e+06
7.6248e+06
7.24538e+06
6.64543e+06
5.86143e+06
5.01012e+06
4.179e+06
3.38457e+06
2.66429e+06
2.00561e+06
1.39449e+06
876655
518511
328510
240643
198487
176307
162420
151767
141014
130484
121463
125825
210987
1.93577e+07
1.46048e+07
1.10691e+07
9.62352e+06
9.16571e+06
9.14472e+06
9.11341e+06
8.87961e+06
8.3103e+06
7.50509e+06
6.52089e+06
5.49184e+06
4.52033e+06
3.63528e+06
2.8728e+06
2.2003e+06
1.57874e+06
1.02096e+06
598007
358614
249255
199767
174754
159604
148213
136978
126396
117751
122331
206075
1.91998e+07
2.10789e+07
1.78456e+07
1.36502e+07
1.19048e+07
1.13512e+07
1.10286e+07
1.05591e+07
9.72818e+06
8.65064e+06
7.39534e+06
6.1416e+06
4.98644e+06
3.97811e+06
3.14162e+06
2.42753e+06
1.77896e+06
1.18137e+06
697108
399101
262048
202656
173918
157331
144875
133123
122811
114495
119783
202045
347319
312987
328335
342486
341944
346697
346846
339478
271362
159974
122370
119048
128466
151938
197529
276582
385329
504939
585173
584782
546602
512701
518146
581598
707696
903297
1.18394e+06
1.44503e+06
1.33884e+06
954074
345535
299980
312643
326792
327023
330785
338827
340951
326465
241221
142341
121437
127155
148417
190931
267045
378109
493792
549373
538019
510816
485755
485293
534057
638849
824270
1.11471e+06
1.44186e+06
1.47074e+06
1.28059e+06
340330
284571
293647
306683
306903
308124
314069
317499
319624
297751
197643
133700
127147
142955
178987
244707
347511
464756
526264
515707
496560
472805
462321
498222
585398
755068
1.03904e+06
1.40808e+06
1.55516e+06
1.42361e+06
334844
269645
276544
289106
290879
290960
293886
299965
305702
303302
267507
176056
136986
141672
170993
228596
322497
441807
511642
500935
487119
464048
446646
470148
537491
686641
966585
1.36489e+06
1.64508e+06
1.6107e+06
328883
255940
261046
272661
276421
276309
277334
284063
290195
291265
280051
246616
176678
151558
167020
214073
300128
419121
509192
501930
488605
462207
440602
453056
503073
634012
899531
1.31776e+06
1.70058e+06
1.83094e+06
322858
244292
248468
258929
262793
263889
263880
270463
276178
278677
274111
264267
244012
197809
180988
208949
284103
396448
511897
517642
504314
465353
434579
440911
477182
589420
840777
1.27428e+06
1.75143e+06
2.05451e+06
316902
233433
237301
247216
251016
253154
252977
258405
264137
267735
266150
262104
259498
258728
237947
233345
288307
395125
516507
548966
535890
476501
429986
429135
460846
555956
790111
1.23245e+06
1.79118e+06
2.25287e+06
310082
222559
226749
236896
240923
243661
242825
247924
253973
258743
259453
258176
258666
269444
284807
299775
333431
429010
544340
605441
582492
505075
438509
423700
451662
538320
755003
1.20409e+06
1.83186e+06
2.45221e+06
302933
211729
215976
226821
231738
235081
234160
238699
245199
251235
254222
255726
258431
268430
292919
325993
376370
476881
585540
661868
639729
550924
475541
447298
464559
544770
750973
1.19238e+06
1.87695e+06
2.65934e+06
295826
201297
204887
216013
222580
227052
226396
229716
237325
244792
250264
255300
261675
274335
301787
340481
392950
467555
566698
649649
664958
610282
534986
502040
517163
582445
779321
1.21451e+06
1.94655e+06
2.90346e+06
288746
192312
194863
205595
212873
218884
219604
222076
229600
239075
247777
257263
269625
290442
327646
378071
437421
500801
570190
621313
649773
638514
603820
583734
603745
666100
848846
1.27947e+06
2.0549e+06
3.17284e+06
281684
184133
185647
196220
204049
210951
213531
216313
223190
234506
246808
261973
282995
317859
375698
452949
542060
624402
689746
723177
736633
731773
716745
709200
720856
786845
962593
1.40155e+06
2.21853e+06
3.49551e+06
274385
176863
177400
187834
196189
203918
208290
211795
217566
230772
247663
269755
302587
358419
450168
573481
714009
843739
944685
991858
995256
971722
943104
919161
907305
950069
1.11859e+06
1.58157e+06
2.46431e+06
3.91739e+06
267076
170015
169988
180321
189292
197591
203499
208412
214522
227966
249691
281111
329425
413903
553993
746758
967813
1.17334e+06
1.32983e+06
1.41087e+06
1.42163e+06
1.37675e+06
1.31083e+06
1.24188e+06
1.19123e+06
1.18954e+06
1.32955e+06
1.81271e+06
2.79926e+06
4.49142e+06
259873
163546
163199
173421
182708
191326
198192
205813
213244
226419
252777
294309
363523
484403
686280
971665
1.30572e+06
1.62477e+06
1.87401e+06
2.01354e+06
2.04395e+06
1.97731e+06
1.86181e+06
1.72843e+06
1.60516e+06
1.54618e+06
1.63726e+06
2.10674e+06
3.21621e+06
5.26901e+06
252709
157578
156824
166919
176489
185252
192904
202274
213010
227729
257118
309089
402950
568733
843436
1.23251e+06
1.69851e+06
2.16428e+06
2.54996e+06
2.78836e+06
2.86281e+06
2.78474e+06
2.61288e+06
2.40019e+06
2.18001e+06
2.03557e+06
2.07002e+06
2.52222e+06
3.7359e+06
6.25635e+06
245639
152021
150777
160888
170702
179566
187800
198112
212123
230274
262802
325991
445728
664960
1.01922e+06
1.51043e+06
2.08652e+06
2.6795e+06
3.2085e+06
3.5848e+06
3.75003e+06
3.70663e+06
3.50924e+06
3.23363e+06
2.92009e+06
2.66304e+06
2.61927e+06
3.06224e+06
4.40662e+06
7.45729e+06
239070
146843
145123
155242
165268
174337
182950
193855
209584
233205
270577
345904
494580
770761
1.20264e+06
1.77878e+06
2.43477e+06
3.10334e+06
3.71629e+06
4.20417e+06
4.48809e+06
4.53493e+06
4.37101e+06
4.07205e+06
3.71604e+06
3.38935e+06
3.28827e+06
3.73021e+06
5.22971e+06
8.89194e+06
232863
142205
139902
149912
160110
169550
178332
189646
206459
234566
280429
370895
554166
887743
1.38776e+06
2.0188e+06
2.71356e+06
3.4143e+06
4.0719e+06
4.63498e+06
5.02721e+06
5.17815e+06
5.08383e+06
4.80271e+06
4.44339e+06
4.11777e+06
4.02731e+06
4.51592e+06
6.17617e+06
1.05711e+07
226681
137912
135094
144935
155297
165113
174229
185819
203690
234506
289565
399016
623940
1.01616e+06
1.56694e+06
2.22231e+06
2.92648e+06
3.63525e+06
4.31785e+06
4.93441e+06
5.41855e+06
5.68318e+06
5.67973e+06
5.4486e+06
5.11214e+06
4.82162e+06
4.79604e+06
5.39316e+06
7.26329e+06
1.25066e+07
220828
133949
130674
140320
150806
161029
170620
182754
201834
235642
299798
431466
699744
1.15068e+06
1.74225e+06
2.40619e+06
3.11e+06
3.82909e+06
4.54061e+06
5.21544e+06
5.78521e+06
6.15588e+06
6.2555e+06
6.10532e+06
5.81998e+06
5.56193e+06
5.59453e+06
6.3489e+06
8.47568e+06
1.45984e+07
215615
130370
126547
135965
146471
157216
167398
180376
201119
239084
314914
474566
788665
1.28536e+06
1.90468e+06
2.57417e+06
3.28892e+06
4.04612e+06
4.81568e+06
5.5779e+06
6.25418e+06
6.73558e+06
6.96959e+06
6.92592e+06
6.70458e+06
6.46647e+06
6.53704e+06
7.42568e+06
1.00919e+07
1.68387e+07
210871
127057
122694
131784
142371
153468
164391
178512
201432
244922
335925
533847
902701
1.43389e+06
2.05628e+06
2.72765e+06
3.46921e+06
4.29999e+06
5.17721e+06
6.078e+06
6.90558e+06
7.53823e+06
7.93447e+06
8.00974e+06
7.87347e+06
7.69172e+06
7.83014e+06
8.81196e+06
1.16203e+07
1.90384e+07
206546
124051
119129
127797
138445
149904
161627
176978
202527
253206
364831
611817
1.04244e+06
1.6074e+06
2.23446e+06
2.917e+06
3.7012e+06
4.62885e+06
5.65707e+06
6.74872e+06
7.78563e+06
8.62841e+06
9.22106e+06
9.45643e+06
9.46193e+06
9.47297e+06
9.9508e+06
1.15542e+07
1.54046e+07
2.06846e+07
202809
121527
116004
124156
134468
146703
159239
176075
205111
265345
404597
709797
1.20055e+06
1.79959e+06
2.44781e+06
3.16977e+06
4.02947e+06
5.08827e+06
6.31095e+06
7.64206e+06
8.96307e+06
1.0084e+07
1.09371e+07
1.14097e+07
1.16947e+07
1.22394e+07
1.40177e+07
1.85301e+07
2.205e+07
2.04131e+07
4.38989e+06
3.5832e+06
2.82451e+06
2.18839e+06
1.7163e+06
1.36916e+06
1.1224e+06
948406
827162
745520
699418
679268
683405
714805
779432
898474
1.09749e+06
1.40587e+06
1.86518e+06
2.5131e+06
3.37838e+06
4.44606e+06
5.6842e+06
7.03105e+06
8.38199e+06
9.68397e+06
1.08845e+07
1.19577e+07
1.29238e+07
1.37825e+07
1.44517e+07
1.49399e+07
1.5243e+07
1.54044e+07
1.54868e+07
1.5473e+07
1.5341e+07
1.50615e+07
1.46241e+07
1.40284e+07
1.32854e+07
1.24142e+07
1.14382e+07
1.03796e+07
9.2801e+06
8.17872e+06
7.11563e+06
6.10712e+06
5.17179e+06
4.32421e+06
3.57492e+06
2.92985e+06
2.38754e+06
1.94098e+06
1.57926e+06
1.29014e+06
1.06082e+06
879568
736463
623460
534374
463827
407804
363370
328107
299949
277211
258665
243488
231132
221220
213417
207298
202394
198341
194939
192060
189551
187256
185084
183041
181203
179660
178456
177587
177005
176645
176428
176281
176110
175862
175526
175161
174784
174416
174081
173818
173653
173594
173666
173875
174571
175435
176623
178100
179645
181165
182685
184348
186536
189791
193884
195631
196064
196243
196994
198994
199239
197560
196263
195447
195781
196804
197919
199406
6.30671e+06
5.55379e+06
4.66443e+06
3.85032e+06
3.19165e+06
2.66082e+06
2.25313e+06
1.94274e+06
1.7083e+06
1.53622e+06
1.42402e+06
1.35809e+06
1.33709e+06
1.36649e+06
1.45527e+06
1.62087e+06
1.88815e+06
2.28591e+06
2.85115e+06
3.60918e+06
4.57091e+06
5.71798e+06
6.99028e+06
8.33424e+06
9.68363e+06
1.09885e+07
1.22061e+07
1.33158e+07
1.43117e+07