/*--------------------------------*- C++ -*----------------------------------*\
| =========                 |                                                 |
| \\      /  F ield         | OpenFOAM: The Open Source CFD Toolbox           |
|  \\    /   O peration     | Version:  2112                                  |
|   \\  /    A nd           | Website:  www.openfoam.com                      |
|    \\/     M anipulation  |                                                 |
\*---------------------------------------------------------------------------*/
FoamFile
{
    version     2.0;
    format      ascii;
    arch        "LSB;label=32;scalar=64";
    class       volVectorField;
    location    "0.00743";
    object      U;
}
// * * * * * * * * * * * * * * * * * * * * * * * * * * * * * * * * * * * * * //

dimensions      [0 1 -1 0 0 0 0];

internalField   nonuniform List<vector> 
13875
(
(2204.17 109.695 1.81271e-18)
(2142.47 5.62936 -9.38739e-19)
(2170.24 -2.16403 -9.41115e-19)
(2167.89 -0.781266 0)
(2170.32 -0.00307055 0)
(2169.7 -1.51154 9.364e-19)
(2169.4 -1.38076 -9.36898e-19)
(2170 -0.240823 -4.68494e-19)
(2169.43 0.362625 4.68254e-19)
(2169.03 0.476148 0)
(2169.31 0.255469 -3.88388e-22)
(2169.44 0.870859 -3.88111e-22)
(2169.65 0.901959 0)
(2169.41 -0.0391037 -4.68214e-19)
(2169.46 -0.922851 4.68583e-19)
(2169.6 -1.29028 0)
(2169.87 -0.269187 9.37055e-19)
(2169.22 0.347289 -9.37801e-19)
(2169.13 0.948438 3.87944e-22)
(2169.81 1.18858 -3.85756e-22)
(2170.45 -0.166147 -9.36291e-19)
(2167.84 0.294875 9.37165e-19)
(2171.09 2.5001 -1.87795e-18)
(2143.69 -8.63859 1.91633e-18)
(2210.22 -106.666 1.76407e-18)
(2253.4 91.9332 -1.63244e-18)
(2228.47 -1.16349 1.88335e-18)
(2247.39 0.651434 8.71803e-19)
(2245.5 0.937301 -8.6717e-19)
(2248.43 -0.605107 4.1691e-22)
(2247.76 2.09668 5.2005e-22)
(2245.88 1.66676 4.15802e-22)
(2245.7 0.348397 -4.35863e-19)
(2245.15 0.0933385 4.35807e-19)
(2244.95 -0.488202 2.17647e-19)
(2245.12 -0.477924 -1.63103e-19)
(2245.41 -1.17926 -5.31721e-20)
(2247.76 -1.13861 0)
(2247.86 0.105516 -4.34971e-19)
(2247.57 1.04799 4.33445e-19)
(2245.59 1.43275 4.36029e-19)
(2245.51 0.503456 -4.35307e-19)
(2245.2 -0.242982 5.18486e-22)
(2245.69 -1.57091 -5.18687e-22)
(2247.84 -1.96866 5.19787e-22)
(2248.4 0.752305 -8.71466e-19)
(2245.58 -0.688823 2.59981e-18)
(2247.27 -1.58483 -1.74253e-18)
(2228.91 3.6825 5.42872e-22)
(2256.38 -97.1615 -1.7141e-18)
(2252.4 78.1207 0)
(2236.34 -18.2396 0)
(2249.48 4.41357 0)
(2250.6 -1.87199 0)
(2253.51 -2.65458 -1.63894e-18)
(2253.34 1.46829 1.6422e-18)
(2253.42 2.01367 1.72004e-18)
(2254.09 0.607402 -2.57996e-18)
(2253.56 0.446791 8.61086e-19)
(2252.99 0.494076 4.30818e-22)
(2253.14 -0.0655458 -4.30896e-19)
(2253.07 -2.5832 4.30425e-19)
(2254.12 -2.56694 0)
(2253.98 0.0412846 0)
(2254.05 2.37182 4.08171e-22)
(2253.18 2.00699 0)
(2254.06 0.21758 8.38098e-22)
(2253.13 -0.292965 4.30563e-19)
(2253.09 -2.51243 -4.30673e-19)
(2253.54 -1.75782 0)
(2253.72 2.35106 0)
(2250.92 1.3198 0)
(2250.71 -4.79153 0)
(2237.94 13.8606 0)
(2257.09 -74.5942 0)
(2247.86 51.3557 0)
(2235.05 -28.6755 1.81425e-18)
(2249.27 7.20346 -3.41702e-18)
(2251.58 -4.7791 3.46583e-18)
(2253.28 -3.18196 -1.63424e-18)
(2253.22 1.18321 0)
(2253.89 1.25328 -8.41911e-22)
(2254.61 0.114001 0)
(2253.96 0.560645 0)
(2253.8 0.183649 0)
(2254.42 -0.133842 0)
(2254.1 -2.33173 -8.44137e-22)
(2254.09 -2.51045 -5.08099e-20)
(2253.96 0.00535231 5.07076e-20)
(2254.01 2.28331 0)
(2254.26 1.80569 0)
(2254.74 0.256282 7.99414e-22)
(2254.18 0.391914 -8.57187e-19)
(2253.82 -1.74287 8.56188e-19)
(2253.42 -1.49252 -1.62418e-18)
(2253.56 2.74158 1.62359e-18)
(2251.99 4.31323 1.74093e-18)
(2249.76 -8.85364 -1.72063e-18)
(2235.75 31.3202 0)
(2251.85 -58.2856 0)
(2244.88 39.2795 1.74898e-18)
(2235.45 -47.8511 0)
(2248.73 10.4893 0)
(2250.32 -7.68822 0)
(2253.5 -4.40318 0)
(2253.25 0.525829 1.67983e-21)
(2253.76 0.733712 1.68711e-21)
(2254.49 -0.0610185 4.29602e-19)
(2253.89 0.606022 -4.09815e-19)
(2253.72 0.0229358 2.04001e-19)
(2254.39 -0.156473 -2.03808e-19)
(2254.16 -1.90874 0)
(2254.1 -2.37449 0)
(2253.88 -0.0124344 -1.65627e-21)
(2254.06 2.08103 0)
(2254.3 1.35583 -1.68505e-21)
(2254.71 0.265002 8.07298e-19)
(2254.01 0.727469 -8.50765e-19)
(2253.5 -1.22049 1.71559e-18)
(2253.53 -0.843823 -1.6924e-18)
(2253.61 3.74833 1.65331e-21)
(2250.68 6.43992 0)
(2250.04 -11.5279 0)
(2237.3 42.8206 0)
(2250.63 -35.3988 0)
(2241.5 6.7518 0)
(2231.55 -63.5935 9.12433e-19)
(2247.2 12.313 -8.47571e-19)
(2250.88 -11.2423 0)
(2252.5 -5.15657 8.5949e-19)
(2252.95 -0.242701 -4.37282e-19)
(2253.77 -0.00698122 -3.07148e-21)
(2254.39 -0.480549 -2.1721e-19)
(2253.78 0.636705 -4.28614e-19)
(2253.73 -0.244846 1.63781e-19)
(2254.37 -0.246047 1.63199e-21)
(2254.06 -1.67068 2.68003e-19)
(2253.98 -2.25032 -2.15255e-19)
(2253.76 -0.111923 3.36039e-21)
(2253.89 1.88413 -4.27525e-19)
(2254.21 1.1561 4.33245e-19)
(2254.64 0.320247 1.63674e-21)
(2254.12 1.3372 -1.68371e-21)
(2253.74 -0.330451 -1.67972e-21)
(2252.96 -0.373745 -8.60071e-19)
(2252.77 4.11789 8.46081e-19)
(2251.44 10.6601 0)
(2247.38 -15.1773 0)
(2232.45 65.3113 -1.9333e-18)
(2246.1 -18.9203 -1.26439e-19)
(2254.03 2.89626 -4.95251e-20)
(2227.5 -79.3214 6.02415e-20)
(2243.05 12.2869 0)
(2248.5 -15.6711 -2.69177e-23)
(2252.17 -7.08691 -2.62449e-23)
(2252.45 -1.45005 0)
(2253.47 -0.898509 0)
(2254.01 -0.568718 -8.62682e-19)
(2253.48 0.753045 8.42854e-19)
(2253.52 -0.369086 0)
(2254.24 -0.310372 1.69131e-18)
(2254.04 -1.1967 4.27028e-21)
(2253.86 -1.89736 -1.72109e-18)
(2253.61 -0.132105 -1.71207e-21)
(2253.87 1.43673 0)
(2254.19 0.690853 3.44584e-18)
(2254.42 0.366492 1.7509e-21)
(2253.76 1.72302 -6.90575e-18)
(2253.09 0.322666 3.45197e-18)
(2252.82 0.936273 2.64347e-23)
(2252.27 6.07927 0)
(2248.52 12.9448 3.52718e-18)
(2244.19 -12.5184 -3.30813e-18)
(2228.92 72.876 3.81532e-18)
(2247.18 2.84924 -3.18241e-18)
(2218.37 -22.845 -3.16867e-19)
(2214.71 -87.4584 -7.49621e-18)
(2235.67 3.55661 8.70625e-22)
(2246.12 -22.5191 2.61138e-23)
(2248.84 -9.3134 -8.10291e-22)
(2251.39 -3.32433 0)
(2252.92 -1.98806 -3.44245e-18)
(2253.58 -1.02485 3.45e-18)
(2253.15 0.493281 0)
(2253.36 -0.771938 -8.30625e-22)
(2253.99 -0.587273 -8.22985e-22)
(2253.78 -0.940099 0)
(2253.54 -1.69931 0)
(2253.31 -0.159811 -1.66032e-21)
(2253.47 1.24917 -8.38925e-22)
(2253.93 0.534717 2.60052e-23)
(2254.13 0.676085 -8.56057e-22)
(2253.53 2.46107 -2.62938e-23)
(2252.91 1.77834 -1.73317e-18)
(2251.41 2.39245 -1.6222e-20)
(2249.26 8.02977 1.68891e-18)
(2246.4 19.3767 8.85442e-22)
(2236.72 -4.79092 3.45891e-18)
(2216.56 81.4951 -3.53779e-18)
(2222.27 18.1447 2.50382e-23)
(2113.28 -37.861 9.42626e-19)
(2168.62 -98.5965 0)
(2217.15 -20.1491 -8.31497e-22)
(2234.99 -32.4051 -8.6591e-19)
(2245.83 -17.7518 1.71411e-18)
(2248.71 -7.26061 -1.72952e-18)
(2251.44 -3.98524 9.05101e-21)
(2252.49 -1.61024 8.60421e-19)
(2252.21 0.485989 0)
(2252.75 -0.944163 -8.4414e-19)
(2253.36 -0.585434 8.46372e-19)
(2253.28 -0.28152 0)
(2252.97 -1.20215 0)
(2252.71 -0.312902 2.10402e-21)
(2252.95 0.529135 8.34331e-22)
(2253.3 0.0412833 8.42191e-19)
(2253.33 0.8803 -8.44316e-19)
(2252.54 3.27308 0)
(2251.26 3.41054 8.60931e-19)
(2249.47 6.02116 -1.72877e-18)
(2246.23 15.114 8.45025e-19)
(2236.19 28.8658 -8.40903e-22)
(2219.04 16.6733 0)
(2171.36 93.9414 0)
(2117.1 35.3274 0)
(1873.57 -142.218 -6.57089e-17)
(2125.72 -161.355 8.42516e-17)
(2198.89 -54.7366 0)
(2229.39 -54.2048 -2.99332e-17)
(2239.89 -22.5309 3.08845e-17)
(2246.74 -12.0356 0)
(2249.37 -7.22928 -2.94685e-20)
(2250.89 -2.7248 -1.46326e-17)
(2251.07 -0.739246 1.44168e-17)
(2251.58 -1.9039 -2.90487e-20)
(2252.13 -1.09321 0)
(2252.1 -0.201826 -3.70663e-18)
(2251.77 -0.864438 5.58914e-18)
(2251.51 -0.3555 -1.9017e-18)
(2251.69 0.405437 -2.92961e-20)
(2252 0.370923 0)
(2251.89 1.74923 0)
(2250.94 5.02795 -2.94725e-17)
(2249.43 7.58673 2.90875e-17)
(2246.69 10.2864 -3.05981e-17)
(2240.49 20.4592 2.91812e-17)
(2229.43 52.9544 3.2202e-17)
(2199.88 52.4957 -2.92245e-17)
(2128.73 161.838 -8.33789e-17)
(1884.77 138.326 -1.25723e-17)
(1652.95 -215.491 -9.08567e-17)
(2011.44 -307.442 1.37613e-16)
(2159.69 -104.798 0)
(2210.97 -65.3456 6.83168e-17)
(2232.83 -30.3357 -7.11083e-17)
(2241.83 -15.4874 -3.4084e-17)
(2245.1 -6.80038 3.36633e-17)
(2247.47 -2.38849 -3.27747e-17)
(2248.25 -0.903551 3.27972e-17)
(2249.04 -1.63246 3.21177e-20)
(2249.73 -0.546989 0)
(2249.76 0.518561 -2.11581e-18)
(2249.45 -0.245058 2.16799e-18)
(2249.15 -0.511798 3.29672e-20)
(2249.24 -0.471454 3.28607e-20)
(2249.35 -0.429306 3.3078e-20)
(2249.11 0.848557 0)
(2248.01 4.52563 0)
(2245.09 7.61851 -6.77039e-17)
(2242.29 15.3612 6.82381e-17)
(2233.72 26.9075 -7.13678e-17)
(2211.61 58.9942 1.4708e-16)
(2166.13 99.4015 -6.9941e-17)
(2016.81 298.588 -3.86829e-20)
(1698.07 205.993 8.75067e-20)
(1281.47 -592.644 -1.08958e-16)
(1742.82 -591.256 1.18937e-16)
(2045.99 -181.133 2.16821e-16)
(2173.83 -107.826 -9.36977e-17)
(2208.2 -36.8248 0)
(2229.98 -20.1358 7.42311e-17)
(2238.11 -11.6715 -7.48249e-17)
(2241.25 -6.07172 0)
(2242.58 -4.05456 3.53984e-20)
(2243.83 -3.6779 0)
(2244.58 -1.37256 0)
(2244.7 0.244426 0)
(2244.5 0.109089 4.6788e-18)
(2244.17 -0.289438 -4.64286e-18)
(2244.14 -0.0374255 -3.72348e-20)
(2243.9 0.802803 -3.55647e-20)
(2243.3 2.80369 0)
(2241.72 7.15484 0)
(2237.98 13.9381 0)
(2228.64 19.1327 -7.89062e-17)
(2211.62 37.2279 1.5686e-16)
(2176.57 102.577 -7.22962e-17)
(2052.93 161.804 -1.33631e-16)
(1750.21 592.242 1.00478e-16)
(1286.39 543.515 -5.99281e-20)
(1301.75 -610.791 1.60812e-16)
(1113.51 -1085.44 0)
(1698.9 -457.104 0)
(1927.71 -131.146 -1.0812e-16)
(2150.81 -84.9392 1.09188e-16)
(2201.48 -41.283 0)
(2215.14 -12.0536 1.12482e-20)
(2223.92 -5.04565 4.04235e-17)
(2227.76 -2.00864 -4.09021e-17)
(2230.67 -1.5457 0)
(2231.9 0.41363 -1.00548e-17)
(2232.27 1.14294 1.01259e-17)
(2232.31 0.794047 -5.09052e-18)
(2231.95 -0.143118 5.09381e-18)
(2231.6 -0.774999 3.8595e-20)
(2230.48 -1.17101 -4.05869e-17)
(2228.03 -0.235901 8.05071e-17)
(2223.72 4.27157 1.03252e-18)
(2213.88 13.1475 -4.03917e-17)
(2198.09 44.5407 -9.08831e-17)
(2134.44 72.0794 8.435e-17)
(1912.72 109.468 8.25709e-20)
(1759.31 455.157 2.60511e-20)
(1103.66 1071.37 1.67445e-16)
(1319.75 612.352 7.17862e-18)
(1358.68 -629.79 0)
(1142.54 -1057.9 0)
(1290.31 -752.881 0)
(1196.79 -814.259 0)
(1953.48 -256.015 0)
(2053.98 -61.4958 1.01127e-16)
(2156.96 -47.2641 -1.03957e-16)
(2175.07 -29.4489 1.15381e-19)
(2184.47 -19.5491 -1.03168e-20)
(2191.58 -11.2271 2.2606e-17)
(2194.04 -4.8402 -2.28534e-17)
(2194.89 -1.15933 -2.26006e-19)
(2195.13 0.467213 -7.08011e-19)
(2194.72 1.36761 8.0324e-19)
(2193.95 3.47163 -2.26783e-17)
(2191.5 8.27929 2.24606e-17)
(2184.74 17.5387 9.93302e-20)
(2174.23 31.3236 0)
(2150.04 52.5967 0)
(2020.96 86.733 0)
(1917.72 323.174 -2.11162e-16)
(1172.38 815.091 -6.14634e-17)
(1297.03 702.738 1.63939e-16)
(1135.43 1023.18 2.05616e-20)
(1369.25 618.989 2.08592e-20)
(1436.72 -621.363 0)
(1273.38 -926.326 3.94303e-20)
(1320.33 -785.21 0)
(1236.03 -858.57 -1.67443e-16)
(1334.06 -809.65 3.16548e-16)
(1652.87 -548.42 -2.05258e-16)
(1937.22 -114.281 0)
(1959.22 -12.3019 -1.02483e-19)
(2006.75 14.9296 0)
(2043.49 9.12346 0)
(2055.35 6.89164 -1.41035e-17)
(2059.15 3.11286 1.44299e-17)
(2060.19 2.0073 1.42511e-17)
(2059.62 1.10782 -1.43246e-17)
(2057.27 -0.612409 0)
(2048.5 -4.72587 -5.86992e-17)
(2015.89 -11.0165 5.92802e-17)
(1961.13 16.1634 7.11592e-17)
(1937.03 138.126 -5.97743e-17)
(1606.76 581.883 0)
(1308.24 797.916 0)
(1204.96 849.751 -1.70795e-19)
(1331.16 779.678 -1.70801e-16)
(1266.97 919.254 3.66668e-16)
(1425.64 619.007 -1.69383e-16)
(1519.15 -631.258 -1.69283e-16)
(1386.75 -853.238 1.87235e-16)
(1382.77 -758.253 0)
(1281.75 -817.515 -1.90525e-16)
(1306.96 -785.924 -6.4427e-18)
(1307.1 -744.95 2.76914e-16)
(1253.05 -590.218 -2.00549e-16)
(1315.96 -516.662 1.18287e-16)
(1535.77 -272.417 0)
(1559.03 -122.965 0)
(1543.84 -61.7359 -4.10529e-20)
(1539.75 -22.9017 2.75302e-19)
(1536.43 -4.18927 0)
(1537.76 12.0364 0)
(1541.73 42.4641 5.83581e-17)
(1551.35 110.616 -5.55375e-17)
(1570.69 232.402 -1.11176e-16)
(1331.17 521.678 2.2486e-16)
(1240.77 592.3 1.82803e-17)
(1285.92 744.653 -9.02001e-17)
(1301.6 780.065 0)
(1252.93 821.936 0)
(1381.66 760.199 -1.74038e-16)
(1351.87 886.199 2.0301e-16)
(1502.49 640.924 -4.59366e-20)
(1659.47 -610.058 1.57352e-16)
(1562.01 -749.998 -9.69855e-20)
(1527.25 -689.925 9.47725e-17)
(1467.48 -725.143 -8.48583e-17)
(1397.1 -680.786 -4.48982e-20)
(1337.15 -596.58 8.74804e-20)
(1183.91 -444.766 1.15974e-16)
(858.091 -233.727 -1.80968e-16)
(679.109 -121.617 6.40559e-17)
(526.891 -54.1691 0)
(401.395 -17.9599 -3.37291e-17)
(360.363 -5.00223 3.36364e-17)
(342.448 1.85412 0)
(348.931 9.35664 6.29505e-20)
(379.287 16.3611 -3.35808e-17)
(484.863 46.3401 3.38369e-17)
(719.995 118.034 0)
(853.831 242.47 -1.17202e-16)
(1164.67 431.312 1.17457e-16)
(1322.43 590.474 8.88633e-17)
(1389.4 683.106 -1.87099e-16)
(1432.68 747.497 9.92559e-17)
(1519.67 711.725 0)
(1546.88 778.425 1.6877e-16)
(1649.78 625.25 -3.24007e-18)
(1814.61 -551.813 -3.30549e-18)
(1744.42 -599.774 8.03053e-17)
(1688.45 -544.4 -3.64164e-17)
(1541.12 -417.225 -5.73499e-17)
(1423.49 -350.47 7.30447e-17)
(1386.39 -270.899 -5.11878e-17)
(1286.09 -254.414 5.30781e-17)
(934.727 -191.663 -5.87956e-17)
(721.894 -101.71 -4.46863e-19)
(595.788 -57.4938 3.30312e-17)
(499.429 -31.3851 1.65038e-17)
(466.844 -16.7 -1.59935e-19)
(453.652 1.35821 -1.66861e-17)
(460.547 22.503 -6.07701e-20)
(491.519 33.9545 -7.54169e-20)
(582.195 54.4973 -2.07304e-18)
(779.935 97.7223 1.73906e-20)
(948.779 181.977 5.41423e-18)
(1279.11 227.669 -3.52971e-18)
(1375.64 300.924 0)
(1415.29 399.293 1.08553e-17)
(1546.87 463.816 -3.47463e-17)
(1689.13 585.887 4.14752e-17)
(1741.6 630.695 -5.66702e-17)
(1809.93 569.283 5.3173e-17)
(1993.45 -508.541 -8.60302e-20)
(1955.7 -333.797 -1.03929e-19)
(1882.5 -320.52 1.21306e-19)
(1786.27 -212.03 -5.53977e-21)
(1521.22 -57.6235 -1.8497e-19)
(1418.28 -25.3713 -1.99967e-19)
(1375.42 -73.5402 -7.18045e-21)
(1192.44 -93.3495 0)
(959.199 -108.027 0)
(821.47 -121.925 6.5639e-17)
(744.067 -103.019 -6.7044e-17)
(701.857 -48.8044 -8.86685e-21)
(687.248 2.54353 8.84519e-21)
(692.505 51.7945 -8.63114e-18)
(727.126 115.115 8.36822e-18)
(810.465 147.919 0)
(976.963 130.231 0)
(1164.61 108.322 -5.66065e-17)
(1345.01 78.6928 5.60971e-17)
(1378.65 13.6122 -1.94169e-19)
(1512.66 47.1236 0)
(1791.32 215.664 0)
(1884.66 321.997 -1.24916e-19)
(1953.38 336.04 -1.07417e-19)
(1996.37 525.054 1.22929e-16)
(1534.16 -194.808 -1.85934e-16)
(1753.82 -118.766 -2.3827e-16)
(1860.74 98.5184 1.21519e-16)
(1804.02 146.959 0)
(1637.07 200.65 1.99769e-19)
(1519.56 140.662 1.07691e-16)
(1507.56 28.083 -2.08495e-16)
(1406.61 -21.2497 1.06388e-16)
(1220.53 -59.6931 -1.21069e-16)
(1061.67 -85.4817 1.25252e-16)
(938.295 -73.3234 3.29668e-17)
(868.107 -29.2084 -4.10356e-17)
(843.963 5.63975 -8.30901e-18)
(860.734 39.1713 1.68054e-17)
(929.938 88.9331 0)
(1066.72 109.667 0)
(1237.94 78.9728 1.16773e-16)
(1387.41 37.7592 -2.20853e-16)
(1494.38 -27.4885 1.09273e-16)
(1503.85 -152.401 2.27994e-19)
(1640.75 -209.813 1.55607e-16)
(1790.19 -160.884 -9.61153e-17)
(1839.57 -137.673 -4.87681e-16)
(1745.27 129.182 6.22982e-16)
(1512.33 186.936 -2.50264e-16)
(10.7596 -80.2955 1.14846e-19)
(555.478 -92.5927 -2.58248e-16)
(1421.34 316.523 1.70267e-16)
(1676.51 504.576 0)
(1666.09 426.297 0)
(1612.55 271.083 0)
(1604.21 132.355 0)
(1530.18 63.5389 0)
(1368.4 16.8987 -5.17493e-17)
(1207.07 -20.4534 1.08452e-16)
(1079.36 -27.1578 -8.4642e-17)
(1001.95 -6.33719 3.21615e-17)
(980.699 8.48563 -3.62373e-18)
(1001.35 20.7076 1.57311e-20)
(1085.15 45.2623 -5.58562e-17)
(1230.16 41.1109 5.55298e-17)
(1395.34 -0.632955 0)
(1525.79 -51.8696 0)
(1607.97 -129.959 -1.72606e-16)
(1605.55 -290.197 1.85855e-16)
(1668.5 -433.363 -1.63248e-19)
(1661.67 -507.047 7.22419e-20)
(1378.13 -300.025 -9.51341e-20)
(472.887 127.32 -1.15602e-19)
(-69.2273 80.2094 0)
(-333.198 -60.1971 -2.24959e-16)
(427.897 291.97 2.29846e-16)
(1277.59 673.267 -1.68492e-19)
(1635.87 750.162 1.62596e-16)
(1722.96 580.904 -1.21126e-16)
(1691.5 380.644 0)
(1675.54 229.279 -8.18565e-17)
(1613.46 157.263 7.46415e-17)
(1473.35 92.1438 -4.46015e-17)
(1323.52 36.6361 9.35265e-17)
(1195.48 11.5669 -4.81889e-17)
(1123.14 9.41743 1.83042e-19)
(1101.82 6.47415 0)
(1127.5 2.2624 2.4896e-17)
(1211.45 -0.195483 2.31506e-17)
(1353.69 -28.0277 -4.74595e-17)
(1499.5 -89.2417 -8.15986e-17)
(1609.33 -152.241 8.39406e-17)
(1683.93 -231.24 -7.1663e-17)
(1688.75 -406.49 7.99096e-17)
(1720.32 -598.932 7.99965e-20)
(1608.55 -765.2 -7.54204e-20)
(1225.57 -664.691 0)
(370.705 -289.622 1.1185e-19)
(-314.983 18.1483 0)
(316.524 325.74 1.89153e-16)
(896.326 768.67 -1.85922e-16)
(1421.37 888.115 6.12056e-20)
(1682.47 872.071 0)
(1774.34 677.671 0)
(1739.41 503.474 -7.30682e-21)
(1717.04 351.456 0)
(1668.05 247.302 7.41244e-20)
(1549.71 166.588 0)
(1414.81 95.865 4.16125e-17)
(1300.94 49.1482 -6.39839e-17)
(1229.42 24.6063 3.26351e-17)
(1210.4 5.84342 -1.10012e-17)
(1234.13 -15.4602 0)
(1315.01 -39.9071 0)
(1441.16 -88.8167 3.88963e-17)
(1570.53 -161.224 -1.09411e-16)
(1662.64 -247.707 7.30838e-17)
(1735.14 -343.228 -6.05097e-17)
(1742.27 -507.493 7.03355e-17)
(1779.61 -681.123 0)
(1674.63 -884.224 0)
(1416.3 -892.727 0)
(924.645 -790.936 -1.13693e-20)
(322.95 -293.177 -1.99129e-16)
(377.67 148.607 -3.58773e-20)
(1145.69 756.164 1.53741e-16)
(1548.68 951.441 -1.16497e-16)
(1746.55 912.645 0)
(1804.68 740.447 0)
(1763.79 590.934 7.54772e-21)
(1754.78 441.985 6.4405e-17)
(1714.84 325.657 -5.70809e-17)
(1611.52 223.138 3.03578e-20)
(1492.73 138.597 3.30077e-20)
(1388.31 78.0166 3.48667e-20)
(1326.46 36.8553 -1.03329e-20)
(1306.12 3.49301 -1.03812e-20)
(1330.44 -30.8438 1.92745e-17)
(1401.86 -73.4477 -1.93506e-17)
(1517.07 -136.648 4.23099e-20)
(1631.03 -220.466 3.89371e-20)
(1707.47 -329.042 0)
(1767.79 -434.847 -5.38795e-17)
(1773.92 -587.688 6.25772e-17)
(1814.95 -738.788 0)
(1745.43 -918.337 -9.80511e-17)
(1540.42 -948.229 1.2016e-16)
(1131.32 -744.48 8.86069e-21)
(380.912 -122.488 -1.86537e-16)
(572.925 160.627 4.1377e-20)
(1295.43 780.613 0)
(1639.78 953.155 0)
(1789.12 918.74 -4.71967e-17)
(1814.58 781.333 4.59858e-17)
(1779.4 650.916 0)
(1784.74 510.245 5.85577e-17)
(1750.74 385.484 -5.26437e-17)
(1659.78 274.247 3.18913e-17)
(1554.36 178.534 -3.21565e-17)
(1466.05 102.651 1.76982e-17)
(1407.94 48.2066 -1.78161e-17)
(1392.66 1.64284 0)
(1413.84 -46.7625 -1.76421e-17)
(1480.65 -103.543 1.76986e-17)
(1579.3 -182.782 -3.47714e-20)
(1680.31 -273.286 -3.21162e-20)
(1745.31 -395.252 5.17499e-20)
(1795.79 -509.722 4.94222e-17)
(1787.42 -654.553 -5.75125e-17)
(1826.52 -782.951 -4.59378e-20)
(1787.7 -925.557 -4.38656e-20)
(1634.45 -940.21 0)
(1258.98 -757.753 -7.1298e-20)
(539.927 -137.42 4.19323e-20)
(607.412 157.945 1.58614e-22)
(1362.76 713.375 0)
(1706.9 890.75 9.11011e-23)
(1788.86 915.089 3.96906e-20)
(1818.55 812.559 -8.50465e-23)
(1794.8 699.444 -5.17682e-17)
(1812.67 562.15 4.5895e-17)
(1786.46 436.28 0)
(1706.41 314.01 -5.91475e-20)
(1615.78 211.667 -1.08103e-22)
(1533.82 125.539 -1.13776e-22)
(1485.87 57.4347 6.87782e-20)
(1468.61 0.150865 0)
(1489.26 -57.0177 0)
(1545.64 -126.483 -1.13101e-22)
(1636.07 -216.239 -1.07053e-22)
(1724.46 -313.558 -2.63655e-17)
(1778.43 -443.77 7.52403e-17)
(1818.03 -560.52 -5.31937e-17)
(1803.3 -699.162 0)
(1832.89 -803.038 -4.40158e-17)
(1789.88 -914.941 4.35687e-17)
(1707.19 -880.162 9.1498e-23)
(1352.09 -689.212 6.09798e-20)
(600.749 -153.778 1.58801e-22)
(722.539 206.136 3.48349e-18)
(1476.18 690.997 1.37137e-17)
(1752.41 860.858 9.70645e-17)
(1796.08 902.429 -4.06092e-17)
(1830.56 812.238 4.20858e-17)
(1811.81 714.525 -4.778e-17)
(1838.42 591.164 4.27095e-17)
(1811.79 470.013 -2.52275e-17)
(1740.76 347.233 2.47204e-17)
(1662.19 240.26 1.14986e-22)
(1596.39 143.646 1.20723e-22)
(1550.81 66.9148 -1.23293e-22)
(1538.09 0.418997 7.42656e-18)
(1554.6 -67.5758 7.2549e-18)
(1606.79 -146.37 -1.4857e-17)
(1681.43 -246.101 1.14013e-22)
(1760.41 -342.292 4.89789e-17)
(1807.5 -474.491 -9.53772e-17)
(1846.09 -587.017 4.87268e-17)
(1816.75 -719.541 0)
(1841.94 -806.544 -8.42021e-23)
(1799.3 -900.99 7.79305e-23)
(1749.22 -856.437 -8.31906e-23)
(1464 -682.704 -1.2048e-16)
(706.019 -207.506 1.48742e-16)
(760.932 222.269 1.39992e-19)
(1522.01 639.798 0)
(1772.76 803.404 0)
(1800.89 874.829 3.89915e-20)
(1836.18 800.473 8.09918e-20)
(1832.91 726.736 0)
(1865.05 610.159 4.49072e-17)
(1840.26 491.025 -4.23045e-17)
(1776.05 363.768 4.43999e-20)
(1710.08 255.577 -4.76782e-20)
(1648.92 154.921 -1.3747e-17)
(1613.22 70.2765 1.37156e-17)
(1599.26 -3.69061 3.56916e-18)
(1616.51 -77.9209 -3.46648e-18)
(1659.83 -164.432 1.32498e-17)
(1728.28 -271.107 -3.79577e-17)
(1795.74 -372.268 2.47066e-17)
(1832.71 -506.451 -4.636e-20)
(1865.09 -615.244 3.94718e-20)
(1836.44 -734.42 -4.03818e-17)
(1847.35 -799.306 9.23589e-19)
(1806.53 -869.441 -1.96231e-18)
(1774.48 -788.796 4.09e-17)
(1490.94 -609.802 5.65561e-20)
(697.498 -210.154 6.86583e-20)
(756.667 209.557 1.35226e-16)
(1555.39 583.377 -1.08167e-16)
(1798.21 759.574 0)
(1816.18 847.882 -3.79016e-17)
(1853.09 788.952 3.44367e-19)
(1852.53 720.867 3.92834e-17)
(1887.85 618.378 4.1698e-17)
(1860 509.829 -3.9996e-17)
(1804.57 387.367 -4.71e-20)
(1747.96 278.283 -2.45862e-17)
(1701.22 170.97 1.19244e-17)
(1665.86 81.5142 1.2633e-17)
(1655.69 0.815043 -5.38301e-20)
(1667.71 -81.078 0)
(1707.43 -172.022 0)
(1761.42 -283.845 0)
(1823.45 -379.47 4.65789e-20)
(1856.26 -510.949 9.68146e-21)
(1891.15 -611.565 -4.97129e-20)
(1855.79 -721.803 0)
(1861.89 -783.712 3.85532e-20)
(1821.49 -843.676 9.34677e-21)
(1801.61 -756.996 -4.84124e-20)
(1564.2 -578.571 -1.0626e-16)
(788.505 -233.592 1.36717e-16)
(798.899 237.565 6.58246e-17)
(1578.66 520.101 -9.59245e-17)
(1814.85 675.081 8.22473e-17)
(1828.91 790.408 -4.10269e-17)
(1863.11 757.006 -3.7621e-17)
(1871.7 709.724 3.7334e-17)
(1909.77 621.268 1.92653e-17)
(1883.02 516.541 -1.8983e-17)
(1833.37 391.304 1.08368e-17)
(1787.71 283.231 -2.24147e-17)
(1742.63 175.59 1.73848e-17)
(1716.78 82.7253 -7.3772e-18)
(1705.4 -2.1851 1.48868e-18)
(1718.62 -87.6979 -4.36821e-20)
(1750.9 -181.176 2.28568e-17)
(1801.52 -297.101 -2.28877e-17)
(1853.24 -396.322 3.87912e-20)
(1876.84 -525.286 3.79217e-17)
(1908.74 -618.742 -1.895e-18)
(1870.71 -714.284 -3.80984e-17)
(1873.19 -756.621 0)
(1833.83 -790.978 4.12772e-17)
(1817.26 -681.37 -3.65538e-17)
(1582.49 -525.84 -1.02795e-16)
(821.485 -262.023 -8.62087e-19)
(920.057 268.552 -6.2562e-17)
(1643.86 477.706 4.80398e-17)
(1839.03 630.736 1.9072e-20)
(1842.74 749.549 -5.39338e-20)
(1886.28 740.308 1.82455e-20)
(1893.29 687.831 3.58484e-17)
(1931.72 601.576 -1.72299e-17)
(1897.61 509.845 -1.83659e-17)
(1855.93 394.731 4.1644e-20)
(1816.7 290.551 -4.41946e-20)
(1784.5 179.644 2.02705e-20)
(1758.22 85.2351 -2.0608e-20)
(1751.66 -3.18316 0)
(1760.53 -93.609 5.27628e-21)
(1790.71 -189.338 -1.07098e-17)
(1828.7 -305.751 1.07748e-17)
(1877.24 -396.935 -1.93243e-17)
(1896.68 -521.798 9.90999e-19)
(1931.93 -602.006 1.80752e-17)
(1890.86 -692.042 -5.30356e-20)
(1891.15 -741.548 -3.69541e-17)
(1851.4 -748.846 3.48467e-17)
(1842.4 -632.879 0)
(1633.36 -472.327 -4.86818e-17)
(855.977 -256.128 6.27394e-17)
(933.305 269.876 0)
(1658.84 428.318 -4.25008e-17)
(1842.38 549.036 4.24356e-17)
(1864.35 668.673 1.7766e-20)
(1898.27 699.862 1.71539e-20)
(1913.28 667.055 -3.42594e-17)
(1945.74 598.142 3.41756e-17)
(1917.02 513.399 1.8353e-17)
(1881.64 397.381 8.14405e-19)
(1852.06 294.175 -1.97195e-17)
(1819.07 184.725 -2.14832e-20)
(1800.86 89.4844 2.41662e-20)
(1791.89 -0.671877 0)
(1801.49 -91.6057 4.34571e-20)
(1824.63 -185.638 -2.13941e-20)
(1861.53 -305.334 9.77351e-18)
(1901.36 -398.817 -9.65515e-18)
(1911.8 -518.474 -1.83026e-20)
(1943.03 -593.708 -1.92166e-20)
(1910.8 -668.688 1.73529e-20)
(1901.09 -702.996 -3.66394e-17)
(1869.37 -679.275 -6.81405e-18)
(1849.19 -566.168 3.36874e-17)
(1666.56 -432.267 0)
(955.431 -267.161 6.04611e-17)
(1033.8 285.952 -1.14353e-16)
(1695.54 396.262 4.469e-17)
(1856.6 487.831 3.24257e-17)
(1886.86 622.868 -4.10846e-17)
(1916.29 672.325 0)
(1935.27 646.875 -2.05771e-21)
(1964.48 574.639 0)
(1929.18 495.758 -2.20455e-21)
(1900.44 392.056 -2.34015e-21)
(1874.42 294.971 0)
(1853.26 184.306 0)
(1833.71 89.285 -2.56771e-21)
(1829.62 -1.97368 0)
(1835.4 -95.6184 0)
(1857.62 -190.543 -9.63239e-18)
(1883.01 -306.926 9.62664e-18)
(1922.89 -390.46 -2.31476e-21)
(1931.02 -505.101 -1.71747e-17)
(1962.86 -573.828 1.63711e-17)
(1931.73 -647.936 0)
(1918.5 -677.427 3.5829e-17)
(1890.88 -631.999 -7.3436e-17)
(1863.73 -505.827 7.23976e-17)
(1696.89 -394.565 3.73035e-18)
(1038.73 -289.769 -5.71071e-17)
(1087.13 277.375 1.35649e-20)
(1714.6 365.283 -1.03733e-20)
(1863.43 425.611 0)
(1905.74 533.159 0)
(1926.97 616.053 0)
(1953.84 616.159 7.64523e-21)
(1974.92 561.447 0)
(1944.48 487.387 -7.87983e-21)
(1923.44 384.364 0)
(1906.05 287.635 -8.50217e-21)
(1881.17 179.558 0)
(1868.97 87.1653 -2.35071e-18)
(1862.09 -3.54129 2.34494e-18)
(1869.45 -95.1576 0)
(1885.98 -185.654 9.19006e-18)
(1912.23 -305.211 -1.80685e-17)
(1943.04 -391.219 8.73824e-18)
(1943.54 -496.494 0)
(1973.09 -562.124 1.60196e-17)
(1949.22 -620.7 -1.57624e-17)
(1929.32 -622.251 3.58646e-17)
(1910.28 -548.188 -3.17457e-17)
(1862.06 -444.098 0)
(1712.33 -363.488 0)
(1089.25 -278.967 0)
(1134.67 270.406 -1.31646e-20)
(1739.24 344.224 1.02657e-20)
(1880.04 362.165 0)
(1921.1 464.52 0)
(1944.59 579.593 0)
(1971.46 597.197 -7.60963e-21)
(1994.03 538.257 0)
(1956.67 466.119 8.22941e-21)
(1941.09 375.042 0)
(1924.27 288.444 -8.80903e-18)
(1910.4 181.752 8.81225e-18)
(1895.39 89.9748 -8.40955e-21)
(1892.91 -0.222882 9.25425e-21)
(1896.09 -93.0972 8.4022e-21)
(1912.59 -182.982 0)
(1928.8 -295.91 0)
(1962.81 -371.06 8.51315e-21)
(1960.92 -473.737 -1.62493e-17)
(1993.39 -535.816 1.51486e-17)
(1967.37 -598.209 0)
(1943.85 -588.7 7.75487e-21)
(1926.18 -478.031 0)
(1878.03 -384.26 0)
(1739.54 -343.866 0)
(1127.14 -252.226 0)
(1164.06 240.284 -5.04558e-17)
(1752.07 312.202 4.17121e-17)
(1888.83 313.779 0)
(1932.6 377.191 -1.68767e-20)
(1956.52 516.641 0)
(1983.22 551.982 -1.44749e-17)
(2002.92 517.874 3.0237e-17)
(1970.92 455.275 -1.58537e-17)
(1960.84 364.228 -8.12805e-18)
(1952.29 276.991 8.342e-18)
(1933.01 173.16 4.34991e-21)
(1924.91 86.0097 1.11114e-18)
(1919.16 -2.56536 -1.07321e-18)
(1924.78 -92.2346 8.47425e-18)
(1937.13 -176.822 -8.53035e-18)
(1955.2 -292.778 0)
(1979.35 -369.144 -1.51974e-20)
(1972.16 -463.391 0)
(2001.08 -522.051 0)
(1979.08 -559.131 -1.62863e-17)
(1955.43 -523.309 1.46032e-17)
(1935.64 -390.958 0)
(1885.75 -326.565 3.66094e-17)
(1735.82 -316.576 2.21586e-18)
(1121.17 -224.462 -1.0356e-16)
(1225.19 224.189 5.05644e-17)
(1777.86 291.059 1.92062e-20)
(1902.36 263.09 3.10119e-17)
(1931.78 317.808 -2.32481e-17)
(1967.77 474.387 -1.77832e-17)
(1996.7 521.551 0)
(2019.44 492.113 7.5791e-21)
(1983.06 427.718 1.5212e-17)
(1976.9 346.314 -1.58616e-17)
(1966.1 269.502 0)
(1957.01 170.061 0)
(1945.51 84.5821 -2.59506e-20)
(1944.58 -2.38321 3.21272e-20)
(1946.19 -92.8918 1.69424e-20)
(1958.92 -175.624 4.07189e-18)
(1968.53 -281.086 -4.04191e-18)
(1998.35 -348.237 8.41915e-21)
(1990.75 -440.883 1.55596e-17)
(2020.32 -493.474 -2.91701e-17)
(1994.08 -525.664 1.40219e-17)
(1968.13 -482.741 -1.48542e-20)
(1938.46 -313.54 0)
(1902.73 -273.104 1.69269e-20)
(1758.52 -294.513 4.05537e-17)
(1183.31 -223.639 -1.00639e-16)
(1228.23 186.095 -4.97059e-17)
(1778.33 259.367 -3.80552e-17)
(1904.45 230.987 3.48026e-17)
(1920.97 237.63 1.4529e-17)
(1977.28 388.973 -1.84495e-17)
(2004.73 461.151 0)
(2025.92 463.591 3.67936e-21)
(1996.15 416.775 -1.10387e-20)
(1995.51 338.823 7.57957e-18)
(1991.58 260.069 -1.55942e-17)
(1975.94 163.669 7.90386e-18)
(1970.59 83.3911 1.97357e-18)
(1965.99 -1.06766 -1.85924e-18)
(1970.26 -86.656 1.83552e-18)
(1979.12 -163.601 -1.97843e-18)
(1991.32 -273.044 0)
(2012.17 -340.437 1.12529e-20)
(1999.75 -422.775 -3.57409e-21)
(2025.12 -471.624 -1.49777e-17)
(2001.67 -472.94 1.36867e-17)
(1976.79 -398.385 0)
(1927.4 -250.522 0)
(1907.57 -228.404 -4.09918e-21)
(1777.47 -263.148 -3.99327e-17)
(1236.37 -202.952 -1.66539e-18)
(1268.99 169.364 -2.33584e-17)
(1793.04 243.131 1.94715e-17)
(1918.1 208.647 4.10431e-21)
(1922.33 179.486 0)
(1984.73 313.173 1.34853e-17)
(2017.07 420.047 -1.62546e-17)
(2037.16 435.523 3.43517e-21)
(2008.54 384.744 3.66881e-21)
(2010.44 317.743 1.4098e-20)
(2001.9 250.296 -1.89411e-18)
(1995.43 159.398 9.51258e-19)
(1986.59 80.9217 1.88384e-18)
(1986.79 -1.66532 -9.6096e-19)
(1987.09 -87.8107 3.84404e-18)
(1997.18 -162.101 -3.80013e-18)
(2002.5 -259.897 0)
(2031.05 -320.163 1.02151e-20)
(2017.98 -398.95 -1.51349e-17)
(2038.66 -438.924 1.33006e-17)
(2015.35 -429.254 3.47368e-21)
(1984.75 -336.094 0)
(1925.69 -171.859 0)
(1925.37 -208.57 4.11885e-21)
(1794.37 -247.344 -3.91195e-17)
(1271.9 -187.05 4.68686e-17)
(1302 142.848 2.33764e-20)
(1801.3 210.275 0)
(1929.17 184.389 -7.80526e-21)
(1929.35 119.46 -1.45221e-17)
(1980.56 235.466 1.77206e-17)
(2017.85 347.876 -1.31419e-17)
(2038.48 390.488 1.5322e-17)
(2017.64 368.266 -7.01406e-18)
(2026.1 307.471 7.35518e-18)
(2024.83 238.568 -3.63421e-18)
(2010.97 149.594 3.70754e-18)
(2007.84 75.9031 -1.81427e-18)
(2004.4 -3.28138 2.08872e-18)
(2007.51 -83.6538 -2.45587e-19)
(2014.65 -153.4 3.69949e-18)
(2023.22 -254.61 -7.29823e-18)
(2041.93 -310.951 -3.77706e-18)
(2025.16 -376.667 7.01832e-18)
(2041.25 -405.956 1.35764e-20)
(2018.55 -361.397 -7.02566e-21)
(1985.38 -236.597 0)
(1933.53 -130.815 0)
(1937.35 -185.139 0)
(1803.94 -214.601 -1.92947e-17)
(1295.83 -158.23 2.26191e-17)
(1323.26 139.566 -2.78435e-21)
(1809.01 193.347 0)
(1946.66 167.436 9.82263e-21)
(1932.43 88.1963 -7.98051e-21)
(1959.24 153.511 -7.25301e-21)
(2026.59 288.888 0)
(2045.38 351.787 -6.6738e-21)
(2029.17 331.697 6.84733e-18)
(2038.94 285.478 -7.30413e-18)
(2032.11 229.179 0)
(2027.71 147.884 1.69899e-21)
(2020.78 76.1913 0)
(2021.51 -0.602255 0)
(2020.76 -81.2979 1.80567e-18)
(2029.02 -147.562 -1.79364e-18)
(2030.97 -236.861 -7.23828e-21)
(2059.22 -287.466 -1.65817e-21)
(2040.32 -347.014 6.99443e-21)
(2047.24 -358.934 -7.5502e-18)
(2028.61 -314.347 6.38136e-18)
(1975.12 -179.877 -1.73084e-17)