/*--------------------------------*- C++ -*----------------------------------*\
| =========                 |                                                 |
| \\      /  F ield         | OpenFOAM: The Open Source CFD Toolbox           |
|  \\    /   O peration     | Version:  2112                                  |
|   \\  /    A nd           | Website:  www.openfoam.com                      |
|    \\/     M anipulation  |                                                 |
\*---------------------------------------------------------------------------*/
FoamFile
{
    version     2.0;
    format      ascii;
    arch        "LSB;label=32;scalar=64";
    class       volScalarField;
    location    "0.00512";
    object      T;
}
// * * * * * * * * * * * * * * * * * * * * * * * * * * * * * * * * * * * * * //

dimensions      [0 0 0 1 0 0 0];

internalField   nonuniform List<scalar> 
13875
(
1411.99
1535.56
1482.32
1487.95
1481.99
1483.95
1483.99
1483.56
1484.45
1484.51
1484.3
1484.28
1483.44
1484.06
1483.53
1483.48
1484.3
1484.3
1483.73
1483.45
1481.56
1487.87
1480.72
1533.39
1398.59
1307.01
1356.16
1318.85
1322.11
1316.57
1317.98
1321.86
1322.77
1323.65
1323.53
1323.41
1323.18
1317.9
1317.68
1317.82
1322.22
1323.67
1323.36
1321.49
1318
1316.56
1322.13
1319.61
1356.59
1303.28
1307.22
1340.06
1314.27
1311.98
1305.32
1305.85
1305.5
1305.88
1306.25
1305.71
1305.96
1306.01
1303.83
1304.13
1303.7
1305.38
1305.59
1306.03
1305.24
1305.41
1304.79
1311.44
1311.67
1336.37
1296.52
1317.36
1344.79
1314.6
1308.62
1305.93
1306.04
1305.1
1304.26
1304.14
1303.6
1303.07
1303.71
1303.96
1304.18
1303.85
1303.29
1303.49
1303.89
1304.42
1306
1305.34
1308.24
1314.2
1343.61
1311.69
1329.52
1342.11
1315.78
1312.45
1304.95
1306.01
1305.6
1304.41
1304.31
1303.61
1303.16
1303.42
1303.89
1304.33
1303.86
1303.26
1303.64
1304.34
1305.29
1305.61
1304.9
1312.15
1312.28
1338.75
1316.3
1332.22
1351.16
1318.87
1309.93
1307.87
1307.24
1305.41
1304.35
1304.23
1303.76
1303.14
1303.79
1304.3
1304.64
1304.26
1303.55
1303.55
1304.04
1304.64
1307.26
1307.35
1308.87
1319.06
1349.3
1326.85
1339.01
1360.48
1329.09
1317.52
1308.06
1307.53
1306.63
1304.94
1304.54
1304.26
1303.45
1303.95
1304.53
1305.06
1304.44
1303.79
1304.09
1304.9
1306.24
1307.01
1307.9
1318.18
1326.16
1358.52
1322.01
1359.78
1384.75
1344.2
1321.32
1316.62
1311.17
1306.96
1305.67
1305.15
1304.88
1304.17
1304.78
1305.34
1305.87
1305.46
1304.57
1304.64
1305.31
1306.72
1310.71
1315.04
1320.56
1341.24
1381.24
1350.53
1537.32
1508.37
1387.24
1350.92
1322.15
1315.64
1311.52
1307.68
1307.35
1306.62
1305.86
1305.74
1306.8
1307.48
1306.9
1306.1
1306.57
1307.97
1311.2
1315.25
1321.88
1350.26
1384.53
1508.27
1522.86
1835.04
1574.53
1427.16
1358.76
1338.63
1321.87
1314.86
1311.78
1310.97
1309.89
1308.95
1308.8
1309.84
1310.61
1310.26
1309.67
1310.57
1311.55
1315.09
1321.42
1334.85
1355.23
1422.93
1566.09
1827.77
2508.01
1803.48
1518.81
1411.04
1351.57
1333.17
1327.7
1319.85
1318.28
1316.73
1315.21
1314.99
1315.98
1316.95
1316.93
1316.83
1318.1
1319.5
1327.84
1332.2
1351.05
1404.14
1508.87
1806.83
2441.33
2811.63
2297.87
1737.89
1462.91
1419.29
1366.93
1344.27
1336.1
1333.19
1331.14
1329.13
1328.91
1329.65
1330.65
1330.99
1331.73
1334.04
1336.8
1344.09
1373.92
1411.07
1454.52
1709.46
2289.56
2835.29
2786.17
2658.92
2361.03
2235.52
1539.42
1424.37
1408.11
1383.18
1374.17
1368.74
1364.5
1363.59
1363.78
1364.87
1366.22
1369.87
1376.46
1386.41
1411.24
1430.02
1575.74
2264.16
2314.29
2677.77
2776.97
2720.53
2655.05
2756.18
2750.56
2055.9
1882.95
1549.57
1518.13
1498.11
1487.35
1479.01
1477.39
1477.45
1478.52
1480.53
1487.15
1500.25
1521.86
1568.78
1954.32
2110.72
2767.75
2768.1
2694.2
2692.16
2589.64
2649.69
2700
2709.63
2657.81
2440.81
2155.99
2045.26
1974.74
1894.51
1854.86
1841.09
1838.48
1841.48
1850.14
1883.21
1969.53
2040.44
2094.45
2477.42
2670.5
2725.12
2713.79
2650.09
2635.32
2490.56
2530.59
2671.36
2731.28
2735.54
2777.89
2926.6
3175.36
3466.85
3507.39
3565.6
3562.3
3569.01
3568.65
3552.13
3488.91
3406.75
3233.6
2970.78
2801.35
2717.44
2729.18
2679.68
2551.89
2521.31
2338.28
2433.98
2458.56
2547.49
2725.22
2857.48
3142.9
3449.89
3630.29
3675.16
3655.65
3635.41
3626.9
3633.3
3653.61
3687.4
3651.79
3495.08
3168.4
2895.77
2763.16
2579
2481.09
2427.68
2353.73
2043.06
2163.98
2450.14
2686.01
2804.1
2941.87
3136.28
3446.56
3621
3654.19
3632.57
3612.94
3604.82
3612.38
3633.5
3660.65
3620.16
3447.48
3144.49
2949.34
2780.83
2668.55
2372.78
2146.37
2036.54
1850.48
1939.5
2048.61
2540.49
2819.34
2931.53
2968.24
3125.49
3340.38
3443.71
3479.83
3480.73
3479.7
3481.22
3483.64
3453.24
3348.53
3169.77
3000.78
2957.21
2848.75
2566.29
2036.16
1937.84
1854.29
2176.06
2165.53
2104.12
2383.7
2660.75
2722.28
2719.71
2869.64
3084.06
3253.22
3326.87
3344.55
3346.05
3345.48
3328.19
3257.38
3097.05
2897.39
2735.66
2751.36
2636.66
2378.37
2070.08
2205.4
2199.31
3900.2
2845.68
2255.34
2263.04
2458.53
2542.2
2556.93
2690.82
2913.52
3089.77
3182.51
3206.8
3212.71
3204.22
3178.64
3084.77
2909.2
2689.81
2552.81
2551.33
2429.74
2237.59
2283.93
2979.8
3857.56
3912.49
2779.83
2125.89
2034.5
2281.46
2375.77
2429.02
2547.49
2771.85
2952.35
3041.1
3074.36
3078.93
3068.72
3030.6
2939.49
2766.39
2541.12
2422.15
2375.08
2248.22
2019.56
2111.65
2888.59
3895.64
3564.85
2587.26
2046.21
1903.56
2141.55
2239.8
2320.49
2437.79
2648.55
2810.04
2911.08
2944.79
2953.7
2938.52
2901.13
2803.26
2640.94
2430.61
2313.53
2229.63
2116.98
1884.36
2067.44
2648.9
3613.72
3288.36
2399.63
1959.89
1828.78
2043.14
2132.09
2226.33
2341.46
2539.19
2698.78
2793.69
2834.09
2837.61
2827.15
2783.62
2693.61
2539.95
2334.13
2217.19
2124.51
2023.84
1809.49
1957.81
2395.55
3235.45
3073.34
2235.87
1916.06
1823.57
1989.49
2060.22
2139.63
2257.34
2442.33
2591.62
2697.05
2726.22
2731.78
2720.33
2686.07
2589.02
2439.11
2245.38
2135.51
2059.02
1981.84
1805.46
1914.56
2276.63
3152.24
3019.64
2219.35
1919.98
1831.79
1949.52
1998.44
2073.5
2178.17
2355.67
2512.19
2603.32
2633.78
2632.85
2628.18
2593.18
2512.34
2367.79
2174.54
2069.03
1997.09
1950.12
1819.75
1896.16
2212.61
3049.51
2947.82
2177.24
1915.28
1857.3
1933.53
1953.26
2003.14
2115.93
2289.22
2433.88
2525.97
2540.52
2543.01
2535.51
2515.03
2431
2300.25
2114.05
2007.16
1959.21
1937.28
1848.84
1909.6
2189.54
2979.74
2915.25
2203.73
1945.96
1873.58
1906.71
1902.48
1957.88
2068.48
2236.27
2376.91
2444.04
2461.37
2458.87
2457.52
2433.54
2370.17
2248.34
2069.63
1951.76
1920.14
1913.91
1864.07
1918.53
2205.6
2951.83
2928.09
2238.2
1952.21
1885.25
1901.53
1872.06
1911.33
2027.34
2187.28
2304.96
2375.37
2380.13
2383.35
2376.64
2368.07
2298.94
2200.71
2040.19
1915.81
1884.05
1914.26
1882.86
1934.94
2178.99
2912.39
2922.06
2258.88
1983.41
1893.26
1878.37
1843.84
1893.58
2005.16
2149.99
2257.64
2302.03
2312.32
2311.09
2308.9
2292.82
2246.65
2154.94
2014.48
1889.39
1856.67
1886.44
1881.31
1956.53
2238.59
2924.13
2894.52
2234.48
1971.68
1904.26
1858.73
1831.38
1876.9
1982.68
2114.04
2189.65
2242.32
2240.15
2245.56
2238.18
2234.9
2177.6
2109.55
1990.5
1877.45
1827.46
1876.34
1901.25
1965.89
2233.89
2912.46
2891.75
2236.07
2004.14
1913.02
1842.1
1812.95
1866.17
1965.7
2073.6
2148.09
2174.88
2181.53
2181.57
2180.7
2168.03
2136.46
2071.03
1974.92
1871.76
1803.74
1849.47
1908.44
1981.61
2222.52
2887.14
2866.85
2228.29
2027.04
1911.64
1854.78
1793.05
1859.96
1942.83
2040.33
2086.01
2122.44
2117.95
2124.16
2117.07
2116.58
2073.2
2027.62
1947.19
1865.63
1782.82
1855.1
1915.21
2014
2219.04
2876.73
2823.61
2210.17
2058.14
1937.78
1835.76
1782.69
1853.58
1928.7
1997.69
2053.34
2062.77
2067.27
2067.09
2067.08
2057.26
2040.31
1990.62
1927.59
1859.37
1770.4
1831.65
1931.9
2040.87
2213.49
2854.93
2817.29
2206.3
2059.21
1937.71
1846.4
1784.44
1838.66
1899.92
1961.63
1994.34
2016.54
2010.73
2016.19
2010.39
2013.67
1984.36
1948.86
1902.49
1853.26
1780.86
1849.11
1932.45
2065.53
2193.52
2820.13
2785.82
2186.98
2056.34
1964.85
1845.61
1779.9
1824.87
1885.35
1923.76
1965.75
1963.45
1967.42
1965.63
1966.97
1959.62
1955.78
1917.58
1879.95
1836.05
1767.77
1841.6
1970.06
2061.7
2181.55
2803.78
2745.22
2168.69
2050.96
1974.87
1861.15
1797.86
1817.8
1854.75
1891.69
1910.1
1923.97
1916.82
1921.11
1916.18
1923.17
1902.62
1878.66
1852.46
1833.68
1791.13
1859.98
1985.29
2057.72
2164.26
2775.07
2720.35
2157.29
2044.7
2043.33
1872.16
1803.32
1800.73
1836.59
1856.78
1887.6
1878.97
1880.72
1877.39
1880.89
1876.17
1882.46
1853.67
1831.27
1813.34
1802.42
1863.53
2060.95
2048.19
2152.08
2736.39
2696.67
2150.31
2026.74
2027.04
1889.49
1830.68
1806.94
1814.32
1829.19
1835.29
1845.69
1837.09
1840.72
1836.64
1846.07
1830.69
1818.68
1812.42
1825.78
1837.9
1897.61
2043.88
2025.28
2148.57
2714.87
2662.22
2133.38
2002.62
2028.22
1931.48
1836.04
1810.92
1800.03
1804.5
1821.89
1809.47
1808.53
1804.31
1809.05
1806.56
1816.84
1800.66
1794.17
1804.15
1848.82
1937.95
2043.63
1996.32
2144.41
2684.84
2650.31
2134.2
1977.86
2006.89
1994.96
1876.67
1824.89
1797.06
1783.62
1774.73
1781.66
1771.73
1774.62
1771.14
1782.63
1769.83
1774.9
1796.48
1839.04
1876.44
2013.97
2021.11
1970.95
2130.86
2655.61
2623.55
2125.03
1956.3
1995.25
1998.7
1893.41
1828.86
1797.73
1769.78
1771.64
1753.84
1750.13
1744.83
1749.59
1750.56
1769.01
1767.51
1782.59
1829.91
1926
2013.09
1997.33
1952.71
2129.86
2630.19
2604.11
2116.69
1938.09
1954.69
1984.72
1960.75
1858.71
1809.3
1769.14
1735.13
1731.05
1718.83
1720.63
1717.61
1732.02
1726.79
1759.74
1803.24
1870.15
1988.84
1993.91
1956.73
1936.27
2122.5
2611.66
2574.44
2112.17
1925.34
1933.18
1970.48
2014.17
1881.83
1815.81
1765.49
1748.86
1712.27
1702.59
1695.78
1702.04
1709.1
1747.18
1763.3
1794.26
1890.3
2030.97
1979.67
1940.03
1924.02
2104.39
2581.41
2558.33
2107.17
1920.06
1900.24
1940.99
1997.63
1942.47
1833.86
1781.88
1719.3
1699.61
1677.69
1677.02
1676.43
1699.1
1706.81
1774.9
1834.76
1963.09
2007.26
1935.53
1905.32
1919.4
2102.3
2564.73
2525.42
2087.52
1909.01
1888.95
1909.62
1986.5
2034.14
1862.78
1781.81
1751.87
1699.36
1673.16
1661.68
1671.92
1693.34
1750.54
1782.01
1847.42
2039.04
1991.84
1902.11
1898.45
1912.14
2086.88
2535.97
2510.85
2086.87
1908.74
1864.73
1878.84
1960.34
2012.42
1929.36
1813.97
1727.85
1697.07
1660.92
1655.53
1659.85
1693.32
1713.76
1809.05
1930.28
2017.95
1962.39
1871.55
1874.47
1906.9
2076.83
2521.22
2471.78
2065.98
1895.17
1866.32
1854.79
1918.45
2000.22
2026.17
1841.25
1772.19
1704.27
1673.1
1656.65
1672.79
1700.1
1768.94
1854.84
2020.67
2005.38
1921.01
1853.02
1877.58
1896.21
2062.35
2476.52
2435.13
2055.44
1889.59
1842.45
1836.88
1884.11
1981.54
1999.18
1938
1766.35
1709.98
1663.59
1659.46
1662.58
1707.56
1746.85
1952.12
2000.34
1987.13
1889.02
1833.59
1852.43
1886.48
2051.73
2444.08
2304.27
2006.54
1863.44
1841.89
1825.79
1846.11
1940
1992.86
2002.51
1858.84
1735.77
1685.38
1666.64
1684.99
1731.83
1853.22
2007.07
1989.14
1946.4
1854.92
1827.81
1853.25
1862.39
2001.03
2311.36
357.575
371.225
378.256
382.815
385.864
384.276
381.333
381.835
377.955
366.824
359.391
354.641
349.662
344.942
339.863
334.488
330.505
328.391
326.984
324.666
321.951
319.941
317.628
313.854
310.045
307.209
305.612
304.908
306.059
307.125
366.163
375.131
379.797
381.021
380.335
381.059
383.768
384.696
381.528
370.2
359.851
353.02
347.977
342.933
337.759
332.289
328.196
326.21
324.884
322.348
319.479
317.594
316.301
312.607
308.381
305.141
303.254
302.24
302.689
302.848
369.57
376.595
378.265
376.578
378.458
381.204
384.823
384.525
381.861
371.839
360.588
351.514
346.659
341.904
336.89
331.573
327.347
325.306
323.857
321.167
318.256
316.374
315.387
311.944
307.547
304.177
302.283
301.237
301.472
301.459
376.649
376.85
375.306
375.428
379.033
384.876
387.044
385.525
382.907
375.036
361.968
352.353
344.594
340.579
335.67
330.537
326.059
323.896
322.331
319.647
316.731
314.975
314.09
310.885
306.229
302.608
300.407
299.208
298.886
298.431
377.85
376.078
374.205
377.047
384.632
391.523
391.278
387.963
384.445
377.919
363.452
354.129
345.1
339.74
334.189
329.534
325.028
322.735
321.21
318.329
315.472
313.977
312.974
310.229
305.578
301.81
299.32
297.704
297.454
297.039
376.515
374.819
375.366
384.587
396.561
403.787
399.763
392.558
386.675
380.375
365.72
356.267
346.703
339.537
333.444
328.027
324.063
321.477
319.962
317.032
314.203
312.76
311.707
309.182
304.327
300.146
297.235
294.94
293.983
292.962
375.628
374.953
382.142
401.808
419.494
424.935
418.425
404.163
392.088
384.093
372.181
359.797
349.119
340.019
334.258
327.822
323.286
320.132
318.307
315.062
312.019
310.497
309.237
306.819
301.802
297.607
294.48
292.001
291.008
290.072
376.565
378.601
401.922
436.198
464.802
470.836
456.549
427.732
404.727
391.313
382.818
365.478
352.538
342.266
336.209
329.285
322.874
318.96
316.316
312.35
308.921
307.01
305.18
302.884
298.474
294.745
292.072
290.27
289.523
288.662
380.443
390.458
442.716
501.893
549.912
561.125
530.917
471.91
428.727
404.386
391.105
373.732
358.199
345.644
339.12
331.785
322.926
318.553
314.501
309.829
306.38
304.423
302.457
300.602
296.68
293.322
290.959
289.385
288.721
287.909
388.533
415.918
521.235
632.033
724.897
734.144
675.125
555.274
472.021
426.493
402.651
386.926
364.21
350.002
342.716
334.902
324.937
318.774
313.147
308.027
304.669
302.653
300.59
298.868
295.421
292.429
290.315
288.828
288.039
287.044
401.881
463.064
668.705
889.566
1054.25
1043.78
944.99
709.675
548.794
463.924
421.117
398.704
371.387
355.622
347.313
338.637
327.871
319.517
312.543
306.976
303.591
301.532
299.305
297.538
294.49
291.869
289.973
288.547
287.704
286.645
422.912
545.751
938.208
1304.76
1329.93
1267.04
1201.91
973.083
677.364
523.598
448.944
412.167
381.47
362.72
353.577
343.355
331.258
320.908
312.652
306.633
303.067
300.907
298.448
296.56
293.836
291.602
289.85
288.457
287.58
286.415
454.174
686.296
1333.51
1467.16
1370.68
1286.27
1241.97
1161.48
863.457
611.963
489.241
430.379
395.142
371.896
359.244
349.029
335.646
323.5
313.376
306.763
302.971
300.664
297.941
295.941
293.46
291.541
289.895
288.511
287.591
286.325
501.5
912.251
1523.41
1473.06
1323.44
1223.98
1198.73
1181.44
1042.41
726.264
541.837
453.599
408.443
380.471
365.275
355.401
341.163
326.493
314.579
307.363
303.211
300.666
297.754
295.658
293.329
291.625
289.993
288.558
287.493
286.008
570.158
1203.1
1552.29
1425.57
1218.5
1105.7
1091.54
1130.81
1097.17
852.948
601.994
479.554
422.339
389.091
371.67
362.651
347.706
330.009
316.538
308.329
303.809
300.915
297.787
295.592
293.343
291.694
289.955
288.431
287.198
285.605
661.373
1421.95
1549.61
1374
1158.2
1007.56
966.233
1039.33
1083.88
942.581
657.234
504.585
436.397
397.898
378.852
371.918
355.356
334.56
319.005
309.633
304.533
301.337
298.057
295.704
293.497
291.685
289.711
288.047
286.578
284.834
767.934
1516.18
1548.48
1362.34
1137.88
958.599
892.846
954.052
1043.36
963.106
696.342
526.998
449.365
407.261
386.811
378.153
364.392
340.45
321.834
311.069
305.224
301.728
298.439
295.752
293.611
291.534
289.314
287.523
285.821
283.938
876.893
1560.04
1550.9
1361.47
1123.56
922.193
853.568
882.931
987.15
941.405
708.685
541.788
458.899
416.208
394.728
383.27
379.869
348.265
325.454
313.004
306.054
302.211
298.788
295.908
293.635
291.326
288.927
287.071
285.18
283.273
975.006
1587.56
1564.38
1374.2
1117.67
896.236
820.473
824.348
921.744
897.439
704.087
547.745
465.848
425.05
402.163
388.219
391.854
359.766
330.825
315.55
307.25
302.751
298.944
296.227
293.593
291.181
288.577
286.702
284.659
282.696
1064.2
1614.83
1591.93
1403.7
1126.36
886.985
788.212
781.097
847.018
844.137
681.619
547.12
472.926
433.587
408.799
392.934
397.03
382.534
339.332
319.23
308.706
303.404
298.987
296.543
293.392
290.951
288.14
286.308
284.112
282.176
1146.39
1643.58
1622.35
1432.76
1144.91
892.048
773.624
743.351
781.022
787.276
657.037
544.875
478.033
440.758
413.956
398.857
399.556
397.892
353.883
325.48
310.976
303.983
299.192
296.681
293.077
290.543
287.675
285.838
283.548
281.63
1200.66
1673.23
1650.98
1462.59
1178.99
926.27
769.966
717.692
725.985
730.486
637.304
541
479.99
443.665
418.707
405.29
401.193
402.556
383.323
335.753
314.792
305.316
299.101
296.547
292.833
290.202
287.321
285.407
283.184
281.317
1356.04
1707.04
1672.21
1507.52
1236.79
972.915
786.929
707.185
683.824
683.911
621.964
534.274
479.275
445.814
424.96
411.464
405.883
403.973
397.605
352.638
321.91
307.269
299.459
296.262
292.759
290.127
287.238
285.213
283.061
281.266
1376.58
1728.08
1706.69
1572.69
1316.67
1044.62
827.015
709.712
664.193
645.821
601.58
530.274
482.822
452.754
433.212
417.953
411.012
402.305
402.193
384.397
332.958
311.68
301.21
295.982
292.769
290.216
287.319
285.204
283.116
281.388
1410.92
1762.57
1742.85
1632.81
1402.43
1128
894.85
737.955
661.601
632.619
592.782
531.677
489.593
466.582
444.866
426.581
415.944
405.432
405.204
397.944
349.976
318.841
304.234
297.235
292.532
290.363
287.563
285.373
283.308
281.629
307.697
306.61
305.475
306.202
307.787
310.598
314.243
317.677
319.952
322.082
324.751
326.937
328.408
330.613
334.649
340.046
345.086
349.844
354.875
359.623
367.867
379.34
381.941
381.102
383.373
384.524
382.097
378.04
371.514
358.498
303.46
303.293
302.85
303.865
305.742
308.917
312.881
316.145
317.534
319.571
322.376
324.758
326.164
328.254
332.434
337.9
343.013
348.12
353.068
360.881
371.59
382.401
384.854
383.355
380.46
379.674
380.196
379.194
375.043
366.656
302.054
302.077
301.848
302.883
304.783
308.072
312.145
315.188
316.323
318.361
321.211
323.721
325.231
327.391
331.737
337.035
341.994
346.774
352.27
361.858
374.25
382.496
384.791
384.994
381.127
377.978
376.079
377.502
375.885
369.561
299.03
299.491
299.783
300.967
303.172
306.704
310.973
313.798
314.862
316.83
319.677
322.175
323.762
326.062
330.675
335.802
340.694
345.002
353.352
363.216
377.053
383.508
385.826
387.402
385.08
378.755
375.222
374.593
375.995
375.931
297.593
297.999
298.247
299.898
302.315
305.98
310.224
312.581
313.715
315.488
318.496
321.115
322.617
325.061
329.593
334.345
339.979
345.768
355.245
364.593
378.798
384.832
388.371
391.742
392.179
384.766
377.061
373.731
375.135
376.777
293.532
294.571
295.533
297.792
300.649
304.684
309.094
311.242
312.448
314.19
317.212
319.898
321.368
324.135
328.031
333.677
339.759
347.577
357.529
367.39
381.111
387.097
393.597
401.626
405.947
398.166
385.437
375.334
374.103
375.489
290.724
291.658
292.614
295.049
298.093
302.166
306.689
308.762
310.137
311.871
315.086
318.183
320.015
323.361
328.113
334.488
340.455
350.057
361.274
376.571
385.002
393.397
407.072
422.786
429.918
423.669
404.418
383.219
374.52
375.134
289.271
290.144
290.878
292.661
295.248
298.778
302.797
304.897
306.79
308.812
312.378
316.169
318.871
322.849
329.663
336.467
342.872
353.822
367.384
384.138
393.039
407.845
433.459
465.2
480.786
473.424
441.758
404.823
378.822
376.069
288.491
289.304
289.935
291.482
293.76
296.916
300.403
302.208
304.257
306.312
309.912
314.397
318.496
323.153
332.163
339.419
346.362
359.753
377.472
392.264
407.327
434.838
483.102
547.572
580.101
566.53
512.656
449.672
392.149
380.343
287.557
288.57
289.313
290.76
292.793
295.558
298.627
300.385
302.526
304.655
308.126
313.139
318.742
325.308
335.289
343.074
350.92
365.794
389.974
405.102
432.036
483.543
576.893
707.473
768.101
755.423
654.766
534.339
419.917
389.34
287.102
288.16
288.956
290.332
292.137
294.541
297.282
299.115
301.415
303.626
307.079
312.636
319.418
328.301
339.064
348.208
356.838
373.785
400.764
425.367
473.59
569.616
750.641
1000.89
1090.57
1101.14
932.167
692.899
470.834
403.549
286.797
287.972
288.818
290.154
291.785
293.827
296.319
298.271
300.79
303.138
306.731
312.807
321.13
331.777
343.841
353.725
364.564
385.262
415.118
456.346
539.847
712.673
1032.51
1221.34
1281.03
1347.63
1338.52
976.713
559.627
426.106
286.658
287.936
288.822
290.138
291.67
293.413
295.733
297.788
300.547
303.047
306.861
313.569
323.874
336.269
349.528
359.319
373.419
398.852
434.884
500.84
637.683
914.505
1181.87
1244.13
1289.13
1375.75
1474.25
1365.11
709.074
459.539
286.261
287.771
288.814
290.189
291.708
293.261
295.485
297.614
300.545
303.247
307.482
314.822
326.984
341.827
355.845
365.266
381.918
412.366
459.91
559.164
762.901
1075.85
1184.16
1191.52
1217.8
1322.64
1476.67
1530.09
946.748
509.852
285.752
287.392
288.632
290.107
291.75
293.261
295.426
297.648
300.793
303.812
308.525
316.901
330.734
348.393
363.253
371.7
390.551
426.628
487.116
624.374
897.052
1111.85
1123.6
1079.74
1100.48
1221.9
1427.96
1555.04
1237.12
580.837
284.908
286.694
288.194
289.818
291.707
293.369
295.518
297.924
301.185
304.507
309.814
319.467
335.545
355.967
371.498
378.914
399.687
441.25
514.075
683.914
975.16
1089.67
1027.57
959.047
1009.8
1170.35
1385.04
1555.1
1439.55
674.81
283.958
285.881
287.626
289.383
291.549
293.479
295.583
298.27
301.567
305.179
311.242
322.4
341.663
364.95
377.29
386.761
408.909
454.395
537.066
723.944
985.528
1041.86
941.207
891.618
964.107
1151.99
1376.19
1556.34
1525.43
781.354
283.255
285.218
287.134
288.967
291.314
293.499
295.723
298.597
302.087
306.084
313.209
326.146
349.666
380.502
382.528
394.457
417.662
463.802
550.516
732.248
957.27
983.348
872.416
854.3
926.906
1137.25
1376.06
1561.03
1567.45
889.233
282.711
284.685
286.757
288.628
291.143
293.471
296.007
298.75
302.68
307.366
315.827
331.693
361.34
390.087
387.67
401.665
425.859
469.635
555.99
721.879
907.917
915.197
818.299
819.116
902.034
1131.33
1390.52
1577.33
1594.79
982.599
282.171
284.11
286.344
288.22
290.947
293.336
296.378
298.817
303.316
308.91
319.671
340.568
384.355
394.826
392.677
408.142
433.894
476.102
554.853
695.135
853.41
840.991
776.872
788.838
893.999
1141.01
1420.25
1606.19
1622.49
1068.69
281.553
283.484
285.837
287.719
290.587
293.082
296.559
299.013
303.948
311.173
326.216
355.407
396.7
396.956
398.517
413.364
440.512
480.28
551.998
669.024
793.157
777.84
741.046
776.643
902.272
1160.62
1448.27
1635.76
1651.27
1151.52
281.221
283.099
285.366
287.325
290.196
292.844
296.49
298.907
305.426
315.246
336.789
384.738
400.887
399.314
404.418
418.373
443.169
481.305
547.458
647.014
733.729
723.409
719.057
774.469
938.48
1194.7
1478.5
1664.68
1681.32
1204.06
281.15
282.974
285.161
287.212
290.06
292.751
296.173
299.385
307.502
322.581
354.224
396.222
401.367
404.394
410.156
424.624
445.598
480.448
540.147
628.128
685.162
684.093
709.575
794.933
985.815
1251.79
1521.6
1686.03
1713.78
1354.58
281.299
283.042
285.163
287.287
290.097
292.797
295.936
301.17
312.119
334.029
385.669
400.653
400.423
409.518
416.71
432.228
453.126
484.71
535.292
605.844
646.774
666.07
714.154
836.414
1056.45
1330.72
1584.29
1717.44
1733.75
1376.33
281.593
283.284
285.373
287.578
290.217
292.599
297.204
304.273
319.526
351.769
396.487
402.807
403.949
414.154
426.072
444.347
466.963
491.436
536.117
595.99
633.479
664.18
744.819
906.472
1140.88
1417.63
1643.58
1751.45
1765.74
1410.97
849.424
853.754
853.788
854.397
855.639
855.67
855.326
853.339
851.239
848.289
845.489
841.083
837.421
831.978
824.316
816.663
805.502
796.537
786.052
774.948
763.656
751.571
740.885
730.26
720.041
710.107
701.12
692.258
683.004
674.321
666.75
659.552
652.738
646.244
639.536
633.098
626.906
621.35
615.797
609.687
603.222
597.1
593.072
588.646
583.882
579.043
574.472
570.199
566.108
562.955
561.202
559.267
558.529
558.893
559.84
561.509
564.725
569.434
577.745
594.783
617.401
634.618
646.277
654.325
660.525
665.444
668.927
670.637
670.403
669.175
667.604
665.449
661.289
656.172
650.564
644.126
637.801
632.649
627.853
621.589
614.075
605.835
597.288
588.676
580.432
572.907
566.459
561.306
557.176
553.497
549.786
545.852
541.527
536.712
531.238
524.956
517.725
509.784
501.681
493.229
483.939
472.782
458.675
440.963
420.64
396.501
369.589
344.117
328.921
318.552
311.347
306.163
302.075
298.581
295.608
292.929
290.915
288.923
287.005
285.582
284.569
283.624
282.779
282.364
281.989
847.338
852.997
852.481
854.059
855.403
855.849
856.03
855.553
854.698
852.771
850.627
847.825
843.986
839.419
833.187
827.302
819.917
813.322
806.465
798.533
790.969
782.666
776.692
771.296
767.109
764.043
762.354
761.055
759.329
757.434
756.925
757.476
758.931
759.432
758.26
754.759
749.092
742.875
736.434
728.246
719.715
709.769
700.477
691.435
682.736
673.124
662.601
651.201
639.267
627.431
615.901
606.245
599.564
595.629
594.879
595.816
600.503
611.798
625.47
635.336
636.864
637.244
639.483
642.393
645.095
648.073
650.351
651.152
652.182
653.555
654.824
656.06
657.526
658.378
657.633
655.616
652.536
648.337
641.83
636.522
630.599
624.098
617.307
610.354
603.381
596.65
590.185
583.678
576.772
569.31
561.278
552.702
543.61
534.02
523.993
513.725
503.368
492.863
481.736
470.593
459.835
449.01
437.812
426.175
414.902
405.214
396.476
385.171
364.359
339.918
321.974
312.237
305.674
300.985
297.351
294.27
292.116
290.194
288.311
286.813
285.863
285.034
284.334
283.98
283.642
868.068
873.386
871.904
872.85
873.308
873.467
873.656
873.446
873.36
872.881
871.549
869.512
866.598
863.834
859.856
857.577
855.588
855.014
855.279
857.577
861.193
865.026
869.987
876.571
887.009
902.361
923.407
947.193
968.767
986.057
1001.99
1019.13
1037.81
1053.46
1064.86
1069.42
1070.95
1066.86
1057.7
1045.36
1031.08
1012.59
992.097
970.023
948.847
928.096
902.816
875.447
846.163
814.76
780.448
748.615
721.632
703.403
696.515
694.105
688.024
679.073
669.866
663.317
657.802
654.028
651.875
651.021
650.221
649.819
648.712
647.431
646.222
644.973
644.453
644.704
645.576
645.507
644.893
642.985
638.883
633.599
628.716
623.026
616.714
610.321
603.941
597.369
590.372
582.709
574.998
567.26
559.032
550.737
542.399
534.064
525.628
516.972
508.112
499.246
490.575
481.743
472.863
464.004
454.438
445.223
436.083
427.189
418.364
411.021
404.266
397.466
391.089
383.2
369.238
340.094
321.11
310.63
303.665
298.93
295.77
293.68
291.51
289.674
288.119
287.183
286.414
286.027
285.698
882.222
888.593
888.856
893.349
895.172
896.346
898.829
899.651
901.118
901.967
903.552
904.39
906.018
910.903
914.902
926.094
937.663
955.176
977.695
1003.3
1036
1071.48
1109.02
1145.49
1183.37
1224.42
1271.03
1322.36
1371.51
1408.84
1432.28
1445.6
1462.7
1473.87
1477.76
1478.42
1476.21
1470.25
1460.69
1446.82
1431.25
1413.47
1394.04
1373.12
1351.54
1332.15
1311.72
1289.31
1264.71
1231.14
1194.01
1145.63
1082.41
1024.77
973.042
904.298
837.658
782.775
740.241
712.305
694.349
682.258
675.634
671.252
668.622
665.887
663.858
661.474
657.808
654.613
653.404
653.263
652.481
651.93
648.805
643.904
638.222
632.537
626.706
620.274
613.362
606.136
598.385
590.603
582.96
575.652
567.669
559.57
551.314
542.799
534.697
526.874
519.231
511.778
504.428
497
489.487
482.466
475.406
468.027
460.637
452.144
443.438
434.981
427.503
420.769
414.742
409.064
403.401
397.78
391.384
383.243
369.925
340.544
321.133
310.355
303.571
299.558
296.795
294.437
292.377
290.509
289.041
288.491
288.054
899.066
913.15
916.724
924.097
926.496
929.959
936.289
939.368
945.709
950.612
960.127
970.374
986.644
1011.4
1039.69
1085.14
1133.75
1196.45
1266.27
1340.55
1418.46
1491.95
1558.12
1609.94
1647.99
1672.67
1688.19
1699.1
1707.64
1715.38
1715.36
1711.73
1706.08
1699.48
1691.52
1683.04
1674.69
1666.87
1658.62
1649.61
1640.46
1630.99
1621.6
1613.4
1607.98
1601.04
1592.57
1582.88
1571.97
1563.84
1551.28
1542.84
1539.15
1532.56
1476.03
1347.42
1177.51
1016.24
891.376
811.158
763.778
735.203
714.619
700.108
691.02
685.547
683.235
680.763
677.638
675.901
675.557
675.504
674.973
674.087
669.906
662.5
655.065
647.936
640.693
633.035
625.033
616.181
607.2
598.331
589.629
581.286
572.82
563.886
555.254
546.319
537.547
529.239
521.216
513.403
505.819
498.593
491.43
484.451
478.161
471.829
465.254
459.087
452.357
445.172
437.835
430.632
423.778
417.219
411.262
405.713
400.361
395.304
389.681
383.147
372.24
341.868
321.598
311.356
305.268
300.819
297.388
294.713
292.458
290.92
290.192
927.054
948.813
954.594
965.671
970.013
978.825
988.362
996.559
1011.79
1028.14
1055.08
1094.59
1146.86
1221.71
1307.61
1421.1
1541.84
1659.06
1754.21
1818.96
1857.68
1873.9
1876.63
1872.64
1865.67
1854.32
1845.3
1835.4
1823.59
1812.6
1801.69
1790.09
1778.77
1768.24
1757.91
1747.8
1738.62
1731.13
1725.12
1720.07
1716.19
1713.52
1713.04
1715.24
1716.91
1717.97
1719.32
1721.63
1722.3
1727.38
1738.49
1760.21
1788.61
1785.27
1762.93
1718.02
1631.64
1434.54
1202.16
1020.14
908.071
839.232
790.251
757.711
737.76
726.224
720.885
718.054
716.629
717.136
718.828
723.096
724.222
722.696
716.648
706.535
695.239
684.296
673.421
662.182
650.407
638.058
626.267
614.88
604.297
594.582
585.249
575.702
565.877
556.503
546.881
537.508
528.683
520.425
512.66
505.283
498.297
491.435
484.713
478.525
472.915
467.43
462.005
455.896
448.995
441.688
434.344
427.182
420.34
413.899
408.195
403.341
398.648
394.053
389.062
383.689
375.483
345.148
323.636
312.385
305.481
300.877
297.853
295.653
293.726
956.837
988.865
998.623
1021.4
1033.32
1059.11
1077.36
1103.75
1141.7
1194.39
1266.98
1368.56
1493.02
1646.97
1793.1
1914.32
1983.97
2008.72
2009.82
1998.64
1981.76
1962.39
1941.71
1920.92
1907.22
1894.25
1880.32
1866.63
1852.53
1839.23
1827.4
1816.94
1807.77
1800.26
1793.37
1786.57
1780.87
1776.41
1773.44
1771.67
1771.69
1774.56
1780.3
1786.25
1790.92
1795.34
1800.76
1806.8
1813.18
1824.96
1847.14
1871.72
1891.03
1895.38
1887.55
1869.12
1835.65
1762.99
1597.92
1368.38
1173.36
1036.28
932.547
863.802
824.639
802.231
792.16
789.187
789.774
793
801.759
810.682
813.692
812.447
805.084
790.947
773.953
756.08
738.326
720.129
700.514
680.131
660.773
643.033
627.728
614.816
603.471
592.839
582.25
571.978
561.779
551.755
542.159
533.068
524.421
516.126
508.277
501.335
495.008
488.636
482.355
476.261
470.512
465.267
459.717
453.421
446.505
439.222
431.835
424.576
417.645
411.496
406.359
402.256
397.873
393.551
389.415
385.507
378.003
346.651
325.003
313.686
306.771
301.903
299.256
987.825
1038.01
1056.5
1102.71
1129.68
1185.98
1234.36
1310.73
1401.76
1531.39
1675.92
1855.93
2002.46
2090.38
2116.09
2114.35
2098.45
2077.47
2056.68
2036.45
2014.34
1989.18
1965.28
1948.61
1933.34
1919.6
1907.5
1896.66
1886.77
1877.29
1868.95
1862.08
1857.14
1853.64
1851.25
1850.08
1849.32
1849.56
1850.6
1852.9
1856.49
1863.4
1870.31
1877.51
1884.96
1890.32
1895.37
1901.58
1910.46
1922.1
1936.72
1949.21
1959.55
1961.64
1960.33
1956.31
1944.89
1919.08
1852.01
1683.53
1484.18
1312.41