/*--------------------------------*- C++ -*----------------------------------*\
| =========                 |                                                 |
| \\      /  F ield         | OpenFOAM: The Open Source CFD Toolbox           |
|  \\    /   O peration     | Version:  2112                                  |
|   \\  /    A nd           | Website:  www.openfoam.com                      |
|    \\/     M anipulation  |                                                 |
\*---------------------------------------------------------------------------*/
FoamFile
{
    version     2.0;
    format      ascii;
    arch        "LSB;label=32;scalar=64";
    class       volScalarField;
    location    "7e-05";
    object      alphat;
}
// * * * * * * * * * * * * * * * * * * * * * * * * * * * * * * * * * * * * * //

dimensions      [1 -1 -1 0 0 0 0];

internalField   nonuniform List<scalar> 
13875
(
0.837907
4.53913
6.22354
7.36433
8.04236
8.4292
8.63219
8.72944
8.77207
8.78929
8.79573
8.79794
8.79845
8.79797
8.79586
8.78958
8.77252
8.73005
8.63302
8.4302
8.04352
7.36574
6.2248
4.53736
0.8406
1.33928
6.93899
9.03229
10.2995
11.0519
11.4744
11.6921
11.7946
11.8388
11.8564
11.8629
11.8651
11.8656
11.8651
11.8629
11.8563
11.8389
11.7951
11.6931
11.476
11.054
10.3025
9.03619
6.94149
1.3524
1.56571
7.82491
9.89446
11.0921
11.8122
12.2169
12.4234
12.5188
12.559
12.5746
12.5802
12.5821
12.5824
12.5819
12.58
12.5742
12.5586
12.5186
12.4234
12.217
11.8122
11.0929
9.89752
7.82852
1.56679
1.60911
8.94791
12.0341
13.6232
14.5637
15.0894
15.3497
15.4661
15.5136
15.5311
15.5368
15.5385
15.5388
15.5383
15.5365
15.5309
15.5136
15.4663
15.3504
15.0906
14.5652
13.6244
12.0375
8.92564
1.60196
1.80104
12.1
16.299
17.8204
18.6073
19.0131
19.2083
19.2932
19.3268
19.3391
19.3432
19.3444
19.3446
19.3442
19.3429
19.3389
19.3268
19.2933
19.2087
19.0136
18.6069
17.8213
16.3012
12.0865
1.79533
1.37906
9.52715
12.8144
13.9805
14.5474
14.8139
14.9324
14.9808
14.9992
15.0056
15.0078
15.0084
15.0083
15.0081
15.0073
15.0051
14.9986
14.9803
14.932
14.8139
14.5473
13.9834
12.8204
9.53298
1.37584
0.815493
5.06674
6.70549
7.33838
7.61714
7.73138
7.77785
7.79571
7.80221
7.80447
7.8052
7.80542
7.80543
7.80532
7.80501
7.80415
7.80173
7.79504
7.77696
7.7301
7.61442
7.33792
6.69414
5.04351
0.808131
0.302463
1.04858
1.38281
1.50491
1.5563
1.57696
1.58509
1.58816
1.58927
1.58966
1.58978
1.58983
1.58983
1.5898
1.58973
1.58956
1.58911
1.58793
1.58479
1.57658
1.55576
1.5048
1.38154
1.045
0.301069
0.0653911
0.0750075
0.0836731
0.0854765
0.086187
0.0864606
0.0865769
0.0866256
0.0866464
0.0866554
0.086659
0.0866606
0.086661
0.0866601
0.0866579
0.0866528
0.0866421
0.0866188
0.0865668
0.0864477
0.0861716
0.0854882
0.0836692
0.0749781
0.0652105
0.0450809
0.232523
0.27542
0.275171
0.273841
0.273231
0.272978
0.272882
0.27285
0.272842
0.272843
0.272848
0.272854
0.272861
0.272869
0.272881
0.272903
0.272949
0.273059
0.273326
0.27395
0.275261
0.275548
0.232813
0.0452511
0.0396119
0.231476
0.298069
0.302608
0.302684
0.302665
0.302661
0.30266
0.30266
0.30266
0.30266
0.30266
0.302659
0.302659
0.302659
0.302659
0.302659
0.302659
0.30266
0.302664
0.302684
0.3026
0.297812
0.229714
0.0391019
0.0358141
0.220461
0.296307
0.302625
0.302774
0.302747
0.302742
0.302741
0.302741
0.302741
0.302741
0.302741
0.302741
0.302741
0.302741
0.302741
0.302741
0.302741
0.302741
0.302747
0.302773
0.302628
0.29637
0.220698
0.0357402
0.0328942
0.210111
0.294241
0.302525
0.302785
0.30275
0.302742
0.30274
0.30274
0.30274
0.30274
0.30274
0.30274
0.30274
0.30274
0.30274
0.30274
0.30274
0.302742
0.302749
0.302782
0.302537
0.294573
0.211661
0.0330424
0.0307738
0.202054
0.292361
0.302395
0.302791
0.302753
0.302742
0.302741
0.30274
0.30274
0.30274
0.30274
0.30274
0.30274
0.30274
0.30274
0.30274
0.302741
0.302742
0.302752
0.302788
0.30243
0.29301
0.20472
0.0315838
0.029686
0.195721
0.2907
0.302242
0.30279
0.302756
0.302743
0.302741
0.30274
0.30274
0.30274
0.30274
0.30274
0.30274
0.30274
0.30274
0.30274
0.302741
0.302744
0.302759
0.3028
0.302174
0.289625
0.192194
0.0291725
0.0271538
0.184301
0.287033
0.301875
0.302783
0.30276
0.302744
0.302741
0.30274
0.30274
0.30274
0.30274
0.30274
0.30274
0.30274
0.30274
0.30274
0.302741
0.302745
0.302762
0.302787
0.301819
0.28632
0.18224
0.0266488
0.0268817
0.184146
0.287097
0.301764
0.302745
0.302752
0.302743
0.302741
0.30274
0.30274
0.30274
0.30274
0.30274
0.30274
0.30274
0.30274
0.30274
0.302741
0.302743
0.302751
0.302744
0.301801
0.2875
0.185262
0.0269351
0.0268019
0.18589
0.287284
0.301616
0.302691
0.302741
0.302741
0.30274
0.30274
0.30274
0.30274
0.30274
0.30274
0.30274
0.30274
0.30274
0.30274
0.30274
0.302741
0.30274
0.302688
0.301592
0.287143
0.185612
0.0268246
0.0254457
0.173143
0.281381
0.300658
0.302558
0.302721
0.302738
0.30274
0.30274
0.30274
0.30274
0.30274
0.30274
0.30274
0.30274
0.30274
0.30274
0.30274
0.302738
0.302724
0.302584
0.300881
0.282851
0.176371
0.0258938
0.0247075
0.163514
0.275817
0.299627
0.30241
0.3027
0.302735
0.302739
0.30274
0.30274
0.30274
0.30274
0.30274
0.30274
0.30274
0.30274
0.30274
0.302739
0.302734
0.302699
0.302404
0.299565
0.275411
0.162622
0.0244167
0.027502
0.175386
0.280963
0.300407
0.302498
0.302711
0.302736
0.30274
0.30274
0.30274
0.30274
0.30274
0.30274
0.30274
0.30274
0.30274
0.30274
0.30274
0.302736
0.302707
0.302466
0.300159
0.279448
0.172093
0.0269628
0.0305287
0.189752
0.28671
0.301265
0.302602
0.302725
0.302738
0.30274
0.30274
0.30274
0.30274
0.30274
0.30274
0.30274
0.30274
0.30274
0.30274
0.30274
0.302738
0.302723
0.302591
0.301178
0.286177
0.18855
0.0304368
0.0336361
0.203194
0.291064
0.301826
0.302665
0.302732
0.302739
0.30274
0.30274
0.30274
0.30274
0.30274
0.30274
0.30274
0.30274
0.30274
0.30274
0.30274
0.302739
0.302733
0.302668
0.301873
0.291518
0.204945
0.0339829
0.0367541
0.216564
0.294479
0.302197
0.302701
0.302737
0.30274
0.30274
0.30274
0.30274
0.30274
0.30274
0.30274
0.30274
0.30274
0.30274
0.30274
0.30274
0.30274
0.302737
0.302701
0.302198
0.294462
0.21638
0.0366479
0.0387512
0.22397
0.296045
0.302348
0.302715
0.302738
0.30274
0.30274
0.30274
0.30274
0.30274
0.30274
0.30274
0.30274
0.30274
0.30274
0.30274
0.30274
0.30274
0.302738
0.302714
0.302338
0.295932
0.223394
0.0386804
0.0409857
0.230777
0.297255
0.302447
0.302723
0.302739
0.30274
0.30274
0.30274
0.30274
0.30274
0.30274
0.30274
0.30274
0.30274
0.30274
0.30274
0.30274
0.30274
0.302739
0.302723
0.302461
0.297438
0.231898
0.0412104
0.0433794
0.238369
0.298426
0.302534
0.302729
0.302739
0.30274
0.30274
0.30274
0.30274
0.30274
0.30274
0.30274
0.30274
0.30274
0.30274
0.30274
0.30274
0.30274
0.302739
0.302728
0.302523
0.298253
0.23714
0.0430511
0.0451518
0.243056
0.299067
0.302578
0.302732
0.30274
0.30274
0.30274
0.30274
0.30274
0.30274
0.30274
0.30274
0.30274
0.30274
0.30274
0.30274
0.30274
0.30274
0.30274
0.302732
0.302576
0.299045
0.24295
0.0452533
0.0471193
0.247386
0.299596
0.30261
0.302734
0.30274
0.30274
0.30274
0.30274
0.30274
0.30274
0.30274
0.30274
0.30274
0.30274
0.30274
0.30274
0.30274
0.30274
0.30274
0.302734
0.302622
0.299794
0.249069
0.0474797
0.0495169
0.253757
0.3003
0.30265
0.302736
0.30274
0.30274
0.30274
0.30274
0.30274
0.30274
0.30274
0.30274
0.30274
0.30274
0.30274
0.30274
0.30274
0.30274
0.30274
0.302736
0.302642
0.300145
0.252233
0.0490521
0.0509648
0.256972
0.30062
0.302667
0.302737
0.30274
0.30274
0.30274
0.30274
0.30274
0.30274
0.30274
0.30274
0.30274
0.30274
0.30274
0.30274
0.30274
0.30274
0.30274
0.302737
0.302667
0.300627
0.257088
0.0511372
0.0524295
0.2593
0.300829
0.302678
0.302738
0.30274
0.30274
0.30274
0.30274
0.30274
0.30274
0.30274
0.30274
0.30274
0.30274
0.30274
0.30274
0.30274
0.30274
0.30274
0.302738
0.302682
0.300925
0.260372
0.052656
0.054319
0.263457
0.30118
0.302694
0.302738
0.30274
0.30274
0.30274
0.30274
0.30274
0.30274
0.30274
0.30274
0.30274
0.30274
0.30274
0.30274
0.30274
0.30274
0.30274
0.302738
0.302691
0.301108
0.262556
0.0540414
0.0554754
0.265569
0.301344
0.302701
0.302739
0.30274
0.30274
0.30274
0.30274
0.30274
0.30274
0.30274
0.30274
0.30274
0.30274
0.30274
0.30274
0.30274
0.30274
0.30274
0.302739
0.302702
0.301363
0.265816
0.0556427
0.0566027
0.266898
0.301439
0.302705
0.302739
0.30274
0.30274
0.30274
0.30274
0.30274
0.30274
0.30274
0.30274
0.30274
0.30274
0.30274
0.30274
0.30274
0.30274
0.30274
0.302739
0.302707
0.301495
0.267675
0.056742
0.0581002
0.269806
0.301641
0.302713
0.302739
0.30274
0.30274
0.30274
0.30274
0.30274
0.30274
0.30274
0.30274
0.30274
0.30274
0.30274
0.30274
0.30274
0.30274
0.30274
0.302739
0.30271
0.301582
0.268929
0.0578407
0.05903
0.27125
0.301734
0.302716
0.302739
0.30274
0.30274
0.30274
0.30274
0.30274
0.30274
0.30274
0.30274
0.30274
0.30274
0.30274
0.30274
0.30274
0.30274
0.30274
0.302739
0.302716
0.301744
0.271396
0.0591561
0.0599199
0.272082
0.301785
0.302718
0.30274
0.30274
0.30274
0.30274
0.30274
0.30274
0.30274
0.30274
0.30274
0.30274
0.30274
0.30274
0.30274
0.30274
0.30274
0.30274
0.30274
0.302719
0.301825
0.272735
0.0600284
0.0610738
0.274189
0.301912
0.302722
0.30274
0.30274
0.30274
0.30274
0.30274
0.30274
0.30274
0.30274
0.30274
0.30274
0.30274
0.30274
0.30274
0.30274
0.30274
0.30274
0.30274
0.302721
0.301867
0.273431
0.0608648
0.0617914
0.275192
0.301968
0.302724
0.30274
0.30274
0.30274
0.30274
0.30274
0.30274
0.30274
0.30274
0.30274
0.30274
0.30274
0.30274
0.30274
0.30274
0.30274
0.30274
0.30274
0.302724
0.301974
0.275291
0.0618857
0.0624623
0.27568
0.301995
0.302725
0.30274
0.30274
0.30274
0.30274
0.30274
0.30274
0.30274
0.30274
0.30274
0.30274
0.30274
0.30274
0.30274
0.30274
0.30274
0.30274
0.30274
0.302726
0.302026
0.276259
0.0625495
0.0633143
0.277239
0.302079
0.302728
0.30274
0.30274
0.30274
0.30274
0.30274
0.30274
0.30274
0.30274
0.30274
0.30274
0.30274
0.30274
0.30274
0.30274
0.30274
0.30274
0.30274
0.302727
0.302046
0.276624
0.0631646
0.0638387
0.277942
0.302114
0.302729
0.30274
0.30274
0.30274
0.30274
0.30274
0.30274
0.30274
0.30274
0.30274
0.30274
0.30274
0.30274
0.30274
0.30274
0.30274
0.30274
0.30274
0.302729
0.302117
0.277984
0.0638977
0.0643149
0.278195
0.302127
0.302729
0.30274
0.30274
0.30274
0.30274
0.30274
0.30274
0.30274
0.30274
0.30274
0.30274
0.30274
0.30274
0.30274
0.30274
0.30274
0.30274
0.30274
0.30273
0.302151
0.27869
0.0643792
0.0648985
0.279344
0.302184
0.302731
0.30274
0.30274
0.30274
0.30274
0.30274
0.30274
0.30274
0.30274
0.30274
0.30274
0.30274
0.30274
0.30274
0.30274
0.30274
0.30274
0.30274
0.30273
0.302162
0.27889
0.0648081
0.0652502
0.279829
0.302207
0.302731
0.30274
0.30274
0.30274
0.30274
0.30274
0.30274
0.30274
0.30274
0.30274
0.30274
0.30274
0.30274
0.30274
0.30274
0.30274
0.30274
0.30274
0.302731
0.302207
0.279811
0.065278
0.0655577
0.279923
0.302213
0.302732
0.30274
0.30274
0.30274
0.30274
0.30274
0.30274
0.30274
0.30274
0.30274
0.30274
0.30274
0.30274
0.30274
0.30274
0.30274
0.30274
0.30274
0.302732
0.302231
0.280332
0.0655991
0.0659117
0.280756
0.302252
0.302733
0.30274
0.30274
0.30274
0.30274
0.30274
0.30274
0.30274
0.30274
0.30274
0.30274
0.30274
0.30274
0.30274
0.30274
0.30274
0.30274
0.30274
0.302732
0.302237
0.280444
0.0658619
0.066117
0.281081
0.302266
0.302733
0.30274
0.30274
0.30274
0.30274
0.30274
0.30274
0.30274
0.30274
0.30274
0.30274
0.30274
0.30274
0.30274
0.30274
0.30274
0.30274
0.30274
0.302733
0.302261
0.280971
0.0661142
0.0663026
0.281289
0.302272
0.302733
0.30274
0.30274
0.30274
0.30274
0.30274
0.30274
0.30274
0.30274
0.30274
0.30274
0.30274
0.30274
0.30274
0.30274
0.30274
0.30274
0.30274
0.302733
0.302278
0.281437
0.0663165
0.137787
0.298471
0.302813
0.302838
0.302836
0.302834
0.302833
0.302831
0.302829
0.302828
0.302826
0.302825
0.302824
0.302822
0.302821
0.30282
0.302818
0.302817
0.302816
0.302815
0.302813
0.302812
0.302811
0.30281
0.302809
0.302808
0.302807
0.3028
0.301299
0.155414
0.130256
0.300053
0.302739
0.302744
0.302743
0.302743
0.302743
0.302743
0.302743
0.302743
0.302743
0.302743
0.302743
0.302743
0.302742
0.302742
0.302742
0.302742
0.302742
0.302742
0.302742
0.302742
0.302742
0.302742
0.302742
0.302742
0.302742
0.302735
0.301077
0.153733
0.136303
0.30078
0.302737
0.302741
0.30274
0.30274
0.30274
0.30274
0.30274
0.30274
0.30274
0.30274
0.30274
0.30274
0.30274
0.30274
0.30274
0.30274
0.30274
0.30274
0.30274
0.30274
0.30274
0.30274
0.30274
0.30274
0.30274
0.302733
0.301021
0.15225
0.139655
0.300733
0.302735
0.30274
0.30274
0.30274
0.30274
0.30274
0.30274
0.30274
0.30274
0.30274
0.30274
0.30274
0.30274
0.30274
0.30274
0.30274
0.30274
0.30274
0.30274
0.30274
0.30274
0.30274
0.30274
0.30274
0.30274
0.302733
0.30098
0.150994
0.139422
0.300599
0.302734
0.30274
0.30274
0.30274
0.30274
0.30274
0.30274
0.30274
0.30274
0.30274
0.30274
0.30274
0.30274
0.30274
0.30274
0.30274
0.30274
0.30274
0.30274
0.30274
0.30274
0.30274
0.30274
0.30274
0.30274
0.302733
0.300936
0.149852
0.139087
0.300579
0.302734
0.30274
0.30274
0.30274
0.30274
0.30274
0.30274
0.30274
0.30274
0.30274
0.30274
0.30274
0.30274
0.30274
0.30274
0.30274
0.30274
0.30274
0.30274
0.30274
0.30274
0.30274
0.30274
0.30274
0.30274
0.302733
0.300891
0.148761
0.139075
0.300591
0.302734
0.30274
0.30274
0.30274
0.30274
0.30274
0.30274
0.30274
0.30274
0.30274
0.30274
0.30274
0.30274
0.30274
0.30274
0.30274
0.30274
0.30274
0.30274
0.30274
0.30274
0.30274
0.30274
0.30274
0.30274
0.302732
0.300847
0.147727
0.139425
0.300611
0.302734
0.30274
0.30274
0.30274
0.30274
0.30274
0.30274
0.30274
0.30274
0.30274
0.30274
0.30274
0.30274
0.30274
0.30274
0.30274
0.30274
0.30274
0.30274
0.30274
0.30274
0.30274
0.30274
0.30274
0.30274
0.302732
0.300807
0.146771
0.139778
0.300616
0.302734
0.30274
0.30274
0.30274
0.30274
0.30274
0.30274
0.30274
0.30274
0.30274
0.30274
0.30274
0.30274
0.30274
0.30274
0.30274
0.30274
0.30274
0.30274
0.30274
0.30274
0.30274
0.30274
0.30274
0.30274
0.302732
0.30077
0.145903
0.139991
0.300608
0.302734
0.30274
0.30274
0.30274
0.30274
0.30274
0.30274
0.30274
0.30274
0.30274
0.30274
0.30274
0.30274
0.30274
0.30274
0.30274
0.30274
0.30274
0.30274
0.30274
0.30274
0.30274
0.30274
0.30274
0.30274
0.302732
0.300737
0.145118
0.140045
0.300594
0.302733
0.30274
0.30274
0.30274
0.30274
0.30274
0.30274
0.30274
0.30274
0.30274
0.30274
0.30274
0.30274
0.30274
0.30274
0.30274
0.30274
0.30274
0.30274
0.30274
0.30274
0.30274
0.30274
0.30274
0.30274
0.302731
0.300705
0.144406
0.14
0.30058
0.302733
0.30274
0.30274
0.30274
0.30274
0.30274
0.30274
0.30274
0.30274
0.30274
0.30274
0.30274
0.30274
0.30274
0.30274
0.30274
0.30274
0.30274
0.30274
0.30274
0.30274
0.30274
0.30274
0.30274
0.30274
0.302731
0.300676
0.143757
0.139932
0.300568
0.302733
0.30274
0.30274
0.30274
0.30274
0.30274
0.30274
0.30274
0.30274
0.30274
0.30274
0.30274
0.30274
0.30274
0.30274
0.30274
0.30274
0.30274
0.30274
0.30274
0.30274
0.30274
0.30274
0.30274
0.30274
0.302731
0.300649
0.143166
0.139822
0.300558
0.302732
0.30274
0.30274
0.30274
0.30274
0.30274
0.30274
0.30274
0.30274
0.30274
0.30274
0.30274
0.30274
0.30274
0.30274
0.30274
0.30274
0.30274
0.30274
0.30274
0.30274
0.30274
0.30274
0.30274
0.30274
0.302731
0.300624
0.142627
0.1398
0.300551
0.302732
0.30274
0.30274
0.30274
0.30274
0.30274
0.30274
0.30274
0.30274
0.30274
0.30274
0.30274
0.30274
0.30274
0.30274
0.30274
0.30274
0.30274
0.30274
0.30274
0.30274
0.30274
0.30274
0.30274
0.30274
0.302731
0.300602
0.142141
0.1397
0.300539
0.302732
0.30274
0.30274
0.30274
0.30274
0.30274
0.30274
0.30274
0.30274
0.30274
0.30274
0.30274
0.30274
0.30274
0.30274
0.30274
0.30274
0.30274
0.30274
0.30274
0.30274
0.30274
0.30274
0.30274
0.30274
0.302731
0.300581
0.141705
0.139639
0.300533
0.302732
0.30274
0.30274
0.30274
0.30274
0.30274
0.30274
0.30274
0.30274
0.30274
0.30274
0.30274
0.30274
0.30274
0.30274
0.30274
0.30274
0.30274
0.30274
0.30274
0.30274
0.30274
0.30274
0.30274
0.30274
0.30273
0.300563
0.141316
0.13961
0.300526
0.302731
0.30274
0.30274
0.30274
0.30274
0.30274
0.30274
0.30274
0.30274
0.30274
0.30274
0.30274
0.30274
0.30274
0.30274
0.30274
0.30274
0.30274
0.30274
0.30274
0.30274
0.30274
0.30274
0.30274
0.30274
0.30273
0.300547
0.140973
0.139548
0.300518
0.302731
0.30274
0.30274
0.30274
0.30274
0.30274
0.30274
0.30274
0.30274
0.30274
0.30274
0.30274
0.30274
0.30274
0.30274
0.30274
0.30274
0.30274
0.30274
0.30274
0.30274
0.30274
0.30274
0.30274
0.30274
0.30273
0.300533
0.140674
0.139532
0.300515
0.302731
0.30274
0.30274
0.30274
0.30274
0.30274
0.30274
0.30274
0.30274
0.30274
0.30274
0.30274
0.30274
0.30274
0.30274
0.30274
0.30274
0.30274
0.30274
0.30274
0.30274
0.30274
0.30274
0.30274
0.30274
0.30273
0.300521
0.140415
0.139524
0.300509
0.302731
0.30274
0.30274
0.30274
0.30274
0.30274
0.30274
0.30274
0.30274
0.30274
0.30274
0.30274
0.30274
0.30274
0.30274
0.30274
0.30274
0.30274
0.30274
0.30274
0.30274
0.30274
0.30274
0.30274
0.30274
0.30273
0.300511
0.140197
0.13951
0.300506
0.302731
0.30274
0.30274
0.30274
0.30274
0.30274
0.30274
0.30274
0.30274
0.30274
0.30274
0.30274
0.30274
0.30274
0.30274
0.30274
0.30274
0.30274
0.30274
0.30274
0.30274
0.30274
0.30274
0.30274
0.30274
0.30273
0.300502
0.140015
0.139541
0.300505
0.30273
0.30274
0.30274
0.30274
0.30274
0.30274
0.30274
0.30274
0.30274
0.30274
0.30274
0.30274
0.30274
0.30274
0.30274
0.30274
0.30274
0.30274
0.30274
0.30274
0.30274
0.30274
0.30274
0.30274
0.30274
0.30273
0.300496
0.139868
0.139568
0.300503
0.30273
0.30274
0.30274
0.30274
0.30274
0.30274
0.30274
0.30274
0.30274
0.30274
0.30274
0.30274
0.30274
0.30274
0.30274
0.30274
0.30274
0.30274
0.30274
0.30274
0.30274
0.30274
0.30274
0.30274
0.30274
0.30273
0.300492
0.139756
0.139597
0.300695
0.302732
0.30274
0.30274
0.30274
0.30274
0.30274
0.30274
0.30274
0.30274
0.30274
0.30274
0.30274
0.30274
0.30274
0.30274
0.30274
0.30274
0.30274
0.30274
0.30274
0.30274
0.30274
0.30274
0.30274
0.30274
0.30273
0.300489
0.139672
0.155413
0.301299
0.3028
0.302807
0.302808
0.302809
0.30281
0.302811
0.302812
0.302814
0.302815
0.302816
0.302817
0.302818
0.30282
0.302821
0.302822
0.302824
0.302825
0.302827
0.302828
0.30283
0.302831
0.302833
0.302834
0.302836
0.302838
0.302813
0.298467
0.13775
0.153732
0.301077
0.302735
0.302742
0.302742
0.302742
0.302742
0.302742
0.302742
0.302742
0.302742
0.302742
0.302742
0.302742
0.302742
0.302742
0.302743
0.302743
0.302743
0.302743
0.302743
0.302743
0.302743
0.302743
0.302743
0.302743
0.302744
0.302739
0.300054
0.130274
0.152248
0.301021
0.302733
0.30274
0.30274
0.30274
0.30274
0.30274
0.30274
0.30274
0.30274
0.30274
0.30274
0.30274
0.30274
0.30274
0.30274
0.30274
0.30274
0.30274
0.30274
0.30274
0.30274
0.30274
0.30274
0.30274
0.302741
0.302737
0.30078
0.136271
0.150993
0.30098
0.302733
0.30274
0.30274
0.30274
0.30274
0.30274
0.30274
0.30274
0.30274
0.30274
0.30274
0.30274
0.30274
0.30274
0.30274
0.30274
0.30274
0.30274
0.30274
0.30274
0.30274
0.30274
0.30274
0.30274
0.30274
0.302735
0.300736
0.1397
0.149852
0.300936
0.302733
0.30274
0.30274
0.30274
0.30274
0.30274
0.30274
0.30274
0.30274
0.30274
0.30274
0.30274
0.30274
0.30274
0.30274
0.30274
0.30274
0.30274
0.30274
0.30274
0.30274
0.30274
0.30274
0.30274
0.30274
0.302734
0.300597
0.13944
0.14876
0.300891
0.302733
0.30274
0.30274
0.30274
0.30274
0.30274
0.30274
0.30274
0.30274
0.30274
0.30274
0.30274
0.30274
0.30274
0.30274
0.30274
0.30274
0.30274
0.30274
0.30274
0.30274
0.30274
0.30274
0.30274
0.30274
0.302734
0.300578
0.139023
0.147728
0.300848
0.302732
0.30274
0.30274
0.30274
0.30274
0.30274
0.30274
0.30274
0.30274
0.30274
0.30274
0.30274
0.30274
0.30274
0.30274
0.30274
0.30274
0.30274
0.30274
0.30274
0.30274
0.30274
0.30274
0.30274
0.30274
0.302734
0.300595
0.139159
0.146772
0.300807
0.302732
0.30274
0.30274
0.30274
0.30274
0.30274
0.30274
0.30274
0.30274
0.30274
0.30274
0.30274
0.30274
0.30274
0.30274
0.30274
0.30274
0.30274
0.30274
0.30274
0.30274
0.30274
0.30274
0.30274
0.30274
0.302734
0.300607
0.139379
0.145903
0.30077
0.302732
0.30274
0.30274
0.30274
0.30274
0.30274
0.30274
0.30274
0.30274
0.30274
0.30274
0.30274
0.30274
0.30274
0.30274
0.30274
0.30274
0.30274
0.30274
0.30274
0.30274
0.30274
0.30274
0.30274
0.30274
0.302734
0.300618
0.139784
0.145118
0.300737
0.302732
0.30274
0.30274
0.30274
0.30274
0.30274
0.30274
0.30274
0.30274
0.30274
0.30274
0.30274
0.30274
0.30274
0.30274
0.30274
0.30274
0.30274
0.30274
0.30274
0.30274
0.30274
0.30274
0.30274
0.30274
0.302734
0.300607
0.140011
0.144405
0.300705
0.302731
0.30274
0.30274
0.30274
0.30274
0.30274
0.30274
0.30274
0.30274
0.30274
0.30274
0.30274
0.30274
0.30274
0.30274
0.30274
0.30274
0.30274
0.30274
0.30274
0.30274
0.30274
0.30274
0.30274
0.30274
0.302733
0.300593
0.14
0.143757
0.300676
0.302731
0.30274
0.30274
0.30274
0.30274
0.30274
0.30274
0.30274
0.30274
0.30274
0.30274
0.30274
0.30274
0.30274
0.30274
0.30274
0.30274
0.30274
0.30274
0.30274
0.30274
0.30274
0.30274
0.30274
0.30274
0.302733
0.300583
0.140036
0.143166
0.300649
0.302731
0.30274
0.30274
0.30274
0.30274
0.30274
0.30274
0.30274
0.30274
0.30274
0.30274
0.30274
0.30274
0.30274
0.30274
0.30274
0.30274
0.30274
0.30274
0.30274
0.30274
0.30274
0.30274
0.30274
0.30274
0.302733
0.300566
0.139926
0.142627
0.300624
0.302731
0.30274
0.30274
0.30274
0.30274
0.30274
0.30274
0.30274
0.30274
0.30274
0.30274
0.30274
0.30274
0.30274
0.30274
0.30274
0.30274
0.30274
0.30274
0.30274
0.30274
0.30274
0.30274
0.30274
0.30274
0.302732
0.300558
0.139818
0.142141
0.300601
0.302731
0.30274
0.30274
0.30274
0.30274
0.30274
0.30274
0.30274
0.30274
0.30274
0.30274
0.30274
0.30274
0.30274
0.30274
0.30274
0.30274
0.30274
0.30274
0.30274
0.30274
0.30274
0.30274
0.30274
0.30274
0.302732
0.300551
0.139796
0.141706
0.300581
0.302731
0.30274
0.30274
0.30274
0.30274
0.30274
0.30274
0.30274
0.30274
0.30274
0.30274
0.30274
0.30274
0.30274
0.30274
0.30274
0.30274
0.30274
0.30274
0.30274
0.30274
0.30274
0.30274
0.30274
0.30274
0.302732
0.300539
0.139712
0.141316
0.300563
0.30273
0.30274
0.30274
0.30274
0.30274
0.30274
0.30274
0.30274
0.30274
0.30274
0.30274
0.30274
0.30274
0.30274
0.30274
0.30274
0.30274
0.30274
0.30274
0.30274
0.30274
0.30274
0.30274
0.30274
0.30274
0.302732
0.300532
0.139629
0.140973
0.300547
0.30273
0.30274
0.30274
0.30274
0.30274
0.30274
0.30274
0.30274
0.30274
0.30274
0.30274
0.30274
0.30274
0.30274
0.30274
0.30274
0.30274
0.30274
0.30274
0.30274
0.30274
0.30274
0.30274
0.30274
0.30274
0.302731
0.300527
0.139607
0.140674
0.300533
0.30273
0.30274
0.30274
0.30274
0.30274
0.30274
0.30274
0.30274
0.30274
0.30274
0.30274
0.30274
0.30274
0.30274
0.30274
0.30274
0.30274
0.30274
0.30274
0.30274
0.30274
0.30274
0.30274
0.30274
0.30274
0.302731
0.300518
0.139563
0.140416
0.300521
0.30273
0.30274
0.30274
0.30274
0.30274
0.30274
0.30274
0.30274
0.30274
0.30274
0.30274
0.30274
0.30274
0.30274
0.30274
0.30274
0.30274
0.30274
0.30274
0.30274
0.30274
0.30274
0.30274
0.30274
0.30274
0.302731
0.300513
0.13952
0.140196
0.300511
0.30273
0.30274
0.30274
0.30274
0.30274
0.30274
0.30274
0.30274
0.30274
0.30274
0.30274
0.30274
0.30274
0.30274
0.30274
0.30274
0.30274
0.30274
0.30274
0.30274
0.30274
0.30274
0.30274
0.30274
0.30274
0.302731
0.300511
0.139522
0.140016
0.300503
0.30273
0.30274
0.30274
0.30274
0.30274
0.30274
0.30274
0.30274
0.30274
0.30274
0.30274
0.30274
0.30274
0.30274
0.30274
0.30274
0.30274
0.30274
0.30274
0.30274
0.30274
0.30274
0.30274
0.30274
0.30274
0.302731
0.300506
0.139524
0.139869
0.300496
0.30273
0.30274
0.30274
0.30274
0.30274
0.30274
0.30274
0.30274
0.30274
0.30274
0.30274
0.30274
0.30274
0.30274
0.30274
0.30274
0.30274
0.30274
0.30274
0.30274
0.30274
0.30274
0.30274
0.30274
0.30274
0.30273
0.300504
0.139529
0.139755
0.300491
0.30273
0.30274
0.30274
0.30274
0.30274
0.30274
0.30274
0.30274
0.30274
0.30274
0.30274
0.30274
0.30274
0.30274
0.30274
0.30274
0.30274
0.30274
0.30274
0.30274
0.30274
0.30274
0.30274
0.30274
0.30274
0.30273
0.300505
0.139569
0.139672
0.300489
0.30273
0.30274
0.30274
0.30274
0.30274
0.30274
0.30274
0.30274
0.30274
0.30274
0.30274
0.30274
0.30274
0.30274
0.30274
0.30274
0.30274
0.30274
0.30274
0.30274
0.30274
0.30274
0.30274
0.30274
0.30274
0.302732
0.300695
0.139599
0.113582
0.113793
0.114003
0.114213
0.114423
0.114634
0.114844
0.115054
0.115264
0.115475
0.115685
0.115895
0.116105
0.116316
0.116526
0.116736
0.116946
0.117157
0.117367
0.117577
0.117788
0.117998
0.118208
0.118418
0.118629
0.118839
0.119049
0.119259
0.11947
0.11968
0.11989
0.1201
0.120311
0.120521
0.120731
0.120941
0.121152
0.121362
0.121572
0.121783
0.121993
0.122203
0.122413
0.122624
0.122834
0.123044
0.123254
0.123465
0.123675
0.123885
0.124096
0.124306
0.124516
0.124726
0.124937
0.125147
0.125357
0.125568
0.125778
0.125988
0.126198
0.126409
0.126619
0.126829
0.12704
0.12725
0.12746
0.12767
0.127881
0.128091
0.128301
0.128512
0.128722
0.128932
0.129142
0.129353
0.129563
0.129773
0.129984
0.130194
0.130404
0.130614
0.130825
0.131035
0.131245
0.131456
0.131666
0.131876
0.132086
0.132297
0.132507
0.132717
0.132928
0.133138
0.133348
0.133559
0.133769
0.133979
0.134189
0.1344
0.13461
0.13482
0.135031
0.135241
0.135451
0.135662
0.135872
0.136082
0.136292
0.136503
0.136713
0.136923
0.137134
0.137344
0.137554
0.137765
0.137975
0.138185
0.138395
0.138606
0.138816
0.139026
0.139237
0.139447
0.139657
0.298277
0.298312
0.298338
0.298364
0.298389
0.298414
0.298439
0.298464
0.298489
0.298513
0.298537
0.298561
0.298585
0.298609
0.298633
0.298656
0.298679
0.298703
0.298726
0.298748
0.298771
0.298794
0.298816
0.298838
0.29886
0.298882
0.298904
0.298926
0.298947
0.298968
0.298989
0.299011
0.299031
0.299052
0.299073
0.299093
0.299114
0.299134
0.299154
0.299174
0.299194
0.299213
0.299233
0.299252
0.299272
0.299291
0.29931
0.299329
0.299347
0.299366
0.299385
0.299403
0.299421
0.29944
0.299458
0.299476
0.299493
0.299511
0.299529
0.299546
0.299564
0.299581
0.299598
0.299615
0.299632
0.299649
0.299666
0.299682
0.299699
0.299715
0.299731
0.299748
0.299764
0.29978
0.299796
0.299811
0.299827
0.299843
0.299858
0.299873
0.299889
0.299904
0.299919
0.299934
0.299949
0.299964
0.299979
0.299993
0.300008
0.300022
0.300037
0.300051
0.300065
0.300079
0.300093
0.300107
0.300121
0.300135
0.300148
0.300162
0.300175
0.300189
0.300202
0.300215
0.300229
0.300242
0.300255
0.300268
0.300281
0.300293
0.300306
0.300319
0.300331
0.300344
0.300356
0.300369
0.300381
0.300393
0.300405
0.300417
0.300429
0.300441
0.300453
0.300465
0.300479
0.302709
0.302709
0.302709
0.30271
0.30271
0.30271
0.30271
0.302711
0.302711
0.302711
0.302712
0.302712
0.302712
0.302712
0.302713
0.302713
0.302713
0.302713
0.302714
0.302714
0.302714
0.302714
0.302715
0.302715
0.302715
0.302715
0.302716
0.302716
0.302716
0.302716
0.302716
0.302717
0.302717
0.302717
0.302717
0.302718
0.302718
0.302718
0.302718
0.302718
0.302719
0.302719
0.302719
0.302719
0.302719
0.302719
0.30272
0.30272
0.30272
0.30272
0.30272
0.302721
0.302721
0.302721
0.302721
0.302721
0.302721
0.302722
0.302722
0.302722
0.302722
0.302722
0.302722
0.302723
0.302723
0.302723
0.302723
0.302723
0.302723
0.302723
0.302724
0.302724
0.302724
0.302724
0.302724
0.302724
0.302724
0.302725
0.302725
0.302725
0.302725
0.302725
0.302725
0.302725
0.302726
0.302726
0.302726
0.302726
0.302726
0.302726
0.302726
0.302726
0.302727
0.302727
0.302727
0.302727
0.302727
0.302727
0.302727
0.302727
0.302727
0.302728
0.302728
0.302728
0.302728
0.302728
0.302728
0.302728
0.302728
0.302728
0.302728
0.302729
0.302729
0.302729
0.302729
0.302729
0.302729
0.302729
0.302729
0.302729
0.302729
0.30273
0.30273
0.30273
0.30273
0.30274
0.30274
0.30274
0.30274
0.30274
0.30274
0.30274
0.30274
0.30274
0.30274
0.30274
0.30274
0.30274
0.30274
0.30274
0.30274
0.30274
0.30274
0.30274
0.30274
0.30274
0.30274
0.30274
0.30274
0.30274
0.30274
0.30274
0.30274
0.30274
0.30274
0.30274
0.30274
0.30274
0.30274
0.30274
0.30274
0.30274
0.30274
0.30274
0.30274
0.30274
0.30274
0.30274
0.30274
0.30274
0.30274
0.30274
0.30274
0.30274
0.30274
0.30274
0.30274
0.30274
0.30274
0.30274
0.30274
0.30274
0.30274
0.30274
0.30274
0.30274
0.30274
0.30274
0.30274
0.30274
0.30274
0.30274
0.30274
0.30274
0.30274
0.30274
0.30274
0.30274
0.30274
0.30274
0.30274
0.30274
0.30274
0.30274
0.30274
0.30274
0.30274
0.30274
0.30274
0.30274
0.30274
0.30274
0.30274
0.30274
0.30274
0.30274
0.30274
0.30274
0.30274
0.30274
0.30274
0.30274
0.30274
0.30274
0.30274
0.30274
0.30274
0.30274
0.30274
0.30274
0.30274
0.30274
0.30274
0.30274
0.30274
0.30274
0.30274
0.30274
0.30274
0.30274
0.30274
0.30274
0.30274
0.30274
0.30274
0.30274
0.30274
0.30274
0.30274
0.30274
0.30274
0.30274
0.30274
0.30274
0.30274
0.30274
0.30274
0.30274
0.30274
0.30274
0.30274
0.30274
0.30274
0.30274
0.30274
0.30274
0.30274
0.30274
0.30274
0.30274
0.30274
0.30274
0.30274
0.30274
0.30274
0.30274
0.30274
0.30274
0.30274
0.30274
0.30274
0.30274
0.30274
0.30274
0.30274
0.30274
0.30274
0.30274
0.30274
0.30274
0.30274
0.30274
0.30274
0.30274
0.30274
0.30274
0.30274
0.30274
0.30274
0.30274
0.30274
0.30274
0.30274
0.30274
0.30274
0.30274
0.30274
0.30274
0.30274
0.30274
0.30274
0.30274
0.30274
0.30274
0.30274
0.30274
0.30274
0.30274
0.30274
0.30274
0.30274
0.30274
0.30274
0.30274
0.30274
0.30274
0.30274
0.30274
0.30274
0.30274
0.30274
0.30274
0.30274
0.30274
0.30274
0.30274
0.30274
0.30274
0.30274
0.30274
0.30274
0.30274
0.30274
0.30274
0.30274
0.30274
0.30274
0.30274
0.30274
0.30274
0.30274
0.30274
0.30274
0.30274
0.30274
0.30274
0.30274
0.30274
0.30274
0.30274
0.30274
0.30274
0.30274
0.30274
0.30274
0.30274
0.30274
0.30274
0.30274
0.30274
0.30274
0.30274
0.30274
0.30274
0.30274
0.30274
0.30274
0.30274
0.30274
0.30274
0.30274
0.30274
0.30274
0.30274
0.30274
0.30274
0.30274
0.30274
0.30274
0.30274
0.30274
0.30274
0.30274
0.30274
0.30274
0.30274
0.30274
0.30274
0.30274
0.30274
0.30274
0.30274
0.30274
0.30274
0.30274
0.30274
0.30274
0.30274
0.30274
0.30274
0.30274
0.30274
0.30274
0.30274
0.30274
0.30274
0.30274
0.30274
0.30274
0.30274
0.30274
0.30274
0.30274
0.30274
0.30274
0.30274
0.30274
0.30274
0.30274
0.30274
0.30274
0.30274
0.30274
0.30274
0.30274
0.30274
0.30274
0.30274
0.30274
0.30274
0.30274
0.30274
0.30274
0.30274
0.30274
0.30274
0.30274
0.30274
0.30274
0.30274
0.30274
0.30274
0.30274
0.30274
0.30274
0.30274
0.30274
0.30274
0.30274
0.30274
0.30274
0.30274
0.30274
0.30274
0.30274
0.30274
0.30274
0.30274
0.30274
0.30274
0.30274
0.30274
0.30274
0.30274
0.30274
0.30274
0.30274
0.30274
0.30274
0.30274
0.30274
0.30274
0.30274