/*--------------------------------*- C++ -*----------------------------------*\
| =========                 |                                                 |
| \\      /  F ield         | OpenFOAM: The Open Source CFD Toolbox           |
|  \\    /   O peration     | Version:  2112                                  |
|   \\  /    A nd           | Website:  www.openfoam.com                      |
|    \\/     M anipulation  |                                                 |
\*---------------------------------------------------------------------------*/
FoamFile
{
    version     2.0;
    format      ascii;
    arch        "LSB;label=32;scalar=64";
    class       volScalarField;
    location    "7e-05";
    object      epsilon;
}
// * * * * * * * * * * * * * * * * * * * * * * * * * * * * * * * * * * * * * //

dimensions      [0 2 -3 0 0 0 0];

internalField   nonuniform List<scalar> 
13875
(
5.51983e+08
3.1261e+09
4.35612e+09
5.32804e+09
5.92436e+09
6.26684e+09
6.44525e+09
6.52984e+09
6.56643e+09
6.58088e+09
6.58606e+09
6.58774e+09
6.58811e+09
6.58768e+09
6.58611e+09
6.58126e+09
6.56709e+09
6.5306e+09
6.44612e+09
6.26778e+09
5.92534e+09
5.32903e+09
4.35703e+09
3.12515e+09
5.58981e+08
1.7268e+09
3.18599e+09
4.19786e+09
4.97863e+09
5.46473e+09
5.73822e+09
5.87708e+09
5.94103e+09
5.96789e+09
5.97817e+09
5.98173e+09
5.98282e+09
5.98302e+09
5.98272e+09
5.98162e+09
5.97819e+09
5.96813e+09
5.9415e+09
5.87777e+09
5.73913e+09
5.4659e+09
4.98017e+09
4.19995e+09
3.18845e+09
1.74554e+09
2.35479e+09
2.95437e+09
3.72898e+09
4.34289e+09
4.72851e+09
4.94259e+09
5.04951e+09
5.0979e+09
5.11781e+09
5.12526e+09
5.12777e+09
5.12849e+09
5.1286e+09
5.12836e+09
5.12758e+09
5.12514e+09
5.11783e+09
5.09806e+09
5.04977e+09
4.94285e+09
4.72858e+09
4.34252e+09
3.72769e+09
2.95079e+09
2.33487e+09
1.84382e+09
2.20688e+09
2.70474e+09
3.1194e+09
3.37578e+09
3.51465e+09
3.58213e+09
3.61183e+09
3.62375e+09
3.6281e+09
3.62951e+09
3.62988e+09
3.62991e+09
3.62975e+09
3.6293e+09
3.6279e+09
3.62361e+09
3.61174e+09
3.58209e+09
3.51459e+09
3.37552e+09
3.1187e+09
2.70228e+09
2.20108e+09
1.82228e+09
1.19344e+09
1.60465e+09
1.98379e+09
2.27779e+09
2.4441e+09
2.52931e+09
2.56903e+09
2.58582e+09
2.5923e+09
2.59457e+09
2.59527e+09
2.59544e+09
2.59544e+09
2.59535e+09
2.59511e+09
2.59438e+09
2.59212e+09
2.58567e+09
2.56892e+09
2.52919e+09
2.44386e+09
2.2776e+09
1.98346e+09
1.60188e+09
1.18463e+09
5.57003e+08
9.6459e+08
1.21048e+09
1.38153e+09
1.47535e+09
1.52193e+09
1.54259e+09
1.55092e+09
1.554e+09
1.55503e+09
1.55533e+09
1.55539e+09
1.55538e+09
1.55533e+09
1.55522e+09
1.55489e+09
1.55385e+09
1.55078e+09
1.54248e+09
1.52185e+09
1.47533e+09
1.38182e+09
1.21071e+09
9.63984e+08
5.53514e+08
2.05262e+08
5.41732e+08
6.9057e+08
7.84401e+08
8.33125e+08
8.55919e+08
8.65504e+08
8.69197e+08
8.70509e+08
8.70936e+08
8.71058e+08
8.71081e+08
8.71072e+08
8.71052e+08
8.71004e+08
8.70862e+08
8.70416e+08
8.69086e+08
8.6537e+08
8.55729e+08
8.32784e+08
7.84048e+08
6.89777e+08
5.39553e+08
2.03969e+08
3.35265e+07
1.66697e+08
2.16049e+08
2.44066e+08
2.5808e+08
2.64377e+08
2.66954e+08
2.6793e+08
2.68274e+08
2.68386e+08
2.68417e+08
2.68424e+08
2.68422e+08
2.68415e+08
2.684e+08
2.68358e+08
2.68235e+08
2.67881e+08
2.66895e+08
2.64305e+08
2.57975e+08
2.44039e+08
2.1586e+08
1.66132e+08
3.31373e+07
1.81024e+06
6.3705e+06
8.55366e+06
9.59397e+06
1.01314e+07
1.03774e+07
1.04822e+07
1.05235e+07
1.05388e+07
1.05443e+07
1.0546e+07
1.05465e+07
1.05465e+07
1.05461e+07
1.05452e+07
1.05429e+07
1.05368e+07
1.05207e+07
1.04785e+07
1.03732e+07
1.01261e+07
9.59824e+06
8.55106e+06
6.34958e+06
1.8046e+06
1.47637e+06
339095
288702
288792
290256
290969
291271
291387
291426
291435
291433
291427
291419
291410
291399
291384
291357
291300
291166
290847
290117
288680
288557
338710
1.4716e+06
1.65065e+06
336056
261982
257156
256865
256844
256842
256842
256842
256842
256842
256843
256843
256843
256843
256843
256843
256843
256843
256845
256867
257180
262263
338665
1.66913e+06
1.79549e+06
352876
263983
257249
256782
256743
256739
256738
256738
256738
256738
256738
256738
256738
256738
256738
256738
256738
256739
256743
256780
257240
263907
352419
1.79847e+06
1.91764e+06
369725
266158
257463
256803
256745
256738
256737
256737
256737
256737
256737
256737
256737
256737
256737
256737
256737
256738
256744
256798
257417
265758
366846
1.90935e+06
2.01147e+06
383464
267974
257650
256823
256747
256739
256737
256737
256737
256737
256737
256737
256737
256737
256737
256737
256737
256739
256747
256816
257580
267286
378577
1.97194e+06
2.0587e+06
394819
269451
257811
256840
256750
256739
256738
256737
256737
256737
256737
256737
256737
256737
256737
256737
256738
256739
256753
256860
257969
270669
402281
2.08742e+06
2.18614e+06
417218
272775
258189
256878
256755
256740
256738
256737
256737
256737
256737
256737
256737
256737
256737
256737
256738
256740
256757
256892
258301
273621
422035
2.21891e+06
2.18039e+06
415194
271846
258020
256848
256750
256739
256738
256737
256737
256737
256737
256737
256737
256737
256737
256737
256738
256739
256749
256842
257970
271453
412685
2.17712e+06
2.15096e+06
408877
270349
257771
256805
256742
256738
256737
256737
256737
256737
256737
256737
256737
256737
256737
256737
256737
256738
256742
256803
257759
270324
409114
2.14374e+06
2.16976e+06
432406
273716
257987
256784
256733
256736
256737
256737
256737
256737
256737
256737
256737
256737
256737
256737
256737
256736
256734
256776
257854
272510
425336
2.14743e+06
2.18034e+06
451540
277560
258346
256778
256725
256734
256737
256737
256737
256737
256737
256737
256737
256737
256737
256737
256737
256734
256726
256781
258385
277921
453909
2.19832e+06
2.013e+06
422318
272766
257794
256744
256727
256735
256737
256737
256737
256737
256737
256737
256737
256737
256737
256737
256737
256735
256725
256748
257919
273986
429361
2.0392e+06
1.86857e+06
393418
268186
257360
256734
256731
256736
256737
256737
256737
256737
256737
256737
256737
256737
256737
256737
256737
256736
256730
256734
257393
268557
395457
1.87115e+06
1.74497e+06
370102
264931
257107
256733
256734
256737
256737
256737
256737
256737
256737
256737
256737
256737
256737
256737
256737
256737
256734
256733
257084
264591
367266
1.73252e+06
1.63766e+06
349632
262473
256951
256734
256736
256737
256737
256737
256737
256737
256737
256737
256737
256737
256737
256737
256737
256737
256736
256734
256952
262490
349937
1.64134e+06
1.57472e+06
339198
261362
256891
256735
256736
256737
256737
256737
256737
256737
256737
256737
256737
256737
256737
256737
256737
256737
256736
256735
256895
261442
339973
1.57666e+06
1.5094e+06
330051
260503
256850
256735
256737
256737
256737
256737
256737
256737
256737
256737
256737
256737
256737
256737
256737
256737
256737
256735
256844
260375
328616
1.5034e+06
1.44613e+06
320477
259686
256815
256736
256737
256737
256737
256737
256737
256737
256737
256737
256737
256737
256737
256737
256737
256737
256737
256736
256820
259803
321975
1.45407e+06
1.40208e+06
314814
259239
256798
256736
256737
256737
256737
256737
256737
256737
256737
256737
256737
256737
256737
256737
256737
256737
256737
256736
256798
259253
314921
1.39964e+06
1.3567e+06
309746
258875
256785
256736
256737
256737
256737
256737
256737
256737
256737
256737
256737
256737
256737
256737
256737
256737
256737
256736
256781
258743
307868
1.34943e+06
1.3068e+06
302674
258404
256771
256737
256737
256737
256737
256737
256737
256737
256737
256737
256737
256737
256737
256737
256737
256737
256737
256737
256774
258506
304329
1.3158e+06
1.27768e+06
299209
258187
256765
256737
256737
256737
256737
256737
256737
256737
256737
256737
256737
256737
256737
256737
256737
256737
256737
256737
256764
258183
299078
1.27432e+06
1.24946e+06
296726
258046
256761
256737
256737
256737
256737
256737
256737
256737
256737
256737
256737
256737
256737
256737
256737
256737
256737
256737
256759
257983
295626
1.24569e+06
1.2159e+06
292451
257814
256755
256737
256737
256737
256737
256737
256737
256737
256737
256737
256737
256737
256737
256737
256737
256737
256737
256737
256756
257861
293361
1.22045e+06
1.19576e+06
290312
257703
256753
256737
256737
256737
256737
256737
256737
256737
256737
256737
256737
256737
256737
256737
256737
256737
256737
256737
256752
257693
290072
1.19322e+06
1.17669e+06
288970
257640
256751
256737
256737
256737
256737
256737
256737
256737
256737
256737
256737
256737
256737
256737
256737
256737
256737
256737
256750
257602
288210
1.17463e+06
1.15301e+06
286120
257507
256749
256737
256737
256737
256737
256737
256737
256737
256737
256737
256737
256737
256737
256737
256737
256737
256737
256737
256749
257545
286965
1.15674e+06
1.13853e+06
284715
257445
256747
256737
256737
256737
256737
256737
256737
256737
256737
256737
256737
256737
256737
256737
256737
256737
256737
256737
256747
257440
284580
1.13677e+06
1.12495e+06
283909
257412
256747
256737
256737
256737
256737
256737
256737
256737
256737
256737
256737
256737
256737
256737
256737
256737
256737
256737
256746
257385
283288
1.1235e+06
1.10838e+06
281912
257330
256745
256737
256737
256737
256737
256737
256737
256737
256737
256737
256737
256737
256737
256737
256737
256737
256737
256737
256746
257358
282620
1.11109e+06
1.09812e+06
280962
257292
256745
256737
256737
256737
256737
256737
256737
256737
256737
256737
256737
256737
256737
256737
256737
256737
256737
256737
256745
257290
280876
1.09691e+06
1.08867e+06
280503
257275
256744
256737
256737
256737
256737
256737
256737
256737
256737
256737
256737
256737
256737
256737
256737
256737
256737
256737
256744
257255
279965
1.08763e+06
1.07737e+06
279062
257222
256744
256737
256737
256737
256737
256737
256737
256737
256737
256737
256737
256737
256737
256737
256737
256737
256737
256737
256744
257243
279624
1.07914e+06
1.07038e+06
278410
257199
256743
256737
256737
256737
256737
256737
256737
256737
256737
256737
256737
256737
256737
256737
256737
256737
256737
256737
256743
257198
278378
1.06967e+06
1.06409e+06
278179
257191
256743
256737
256737
256737
256737
256737
256737
256737
256737
256737
256737
256737
256737
256737
256737
256737
256737
256737
256743
257175
277726
1.06342e+06
1.05687e+06
277136
257156
256743
256737
256737
256737
256737
256737
256737
256737
256737
256737
256737
256737
256737
256737
256737
256737
256737
256737
256743
257170
277545
1.05783e+06
1.05248e+06
276692
257141
256742
256737
256737
256737
256737
256737
256737
256737
256737
256737
256737
256737
256737
256737
256737
256737
256737
256737
256742
257142
276715
1.05216e+06
1.04865e+06
276613
257139
256742
256737
256737
256737
256737
256737
256737
256737
256737
256737
256737
256737
256737
256737
256737
256737
256737
256737
256742
257127
276241
1.04829e+06
1.04462e+06
275868
257116
256742
256737
256737
256737
256737
256737
256737
256737
256737
256737
256737
256737
256737
256737
256737
256737
256737
256737
256742
257124
276142
1.04501e+06
1.04225e+06
275569
257107
256742
256737
256737
256737
256737
256737
256737
256737
256737
256737
256737
256737
256737
256737
256737
256737
256737
256737
256742
257110
275670
1.04215e+06
1.04097e+06
275335
257101
256742
256737
256737
256737
256737
256737
256737
256737
256737
256737
256737
256737
256737
256737
256737
256737
256737
256737
256742
257097
275202
1.04092e+06
551191
261020
257142
257094
257088
257082
257077
257072
257067
257062
257057
257052
257048
257043
257039
257035
257030
257026
257022
257019
257015
257011
257007
257004
257001
256997
256994
256995
258208
485284
580305
259248
256772
256744
256744
256743
256743
256743
256743
256743
256743
256742
256742
256742
256742
256742
256742
256742
256741
256741
256741
256741
256741
256741
256741
256741
256741
256746
258100
489163
555533
258553
256757
256738
256737
256737
256737
256737
256737
256737
256737
256737
256737
256737
256737
256737
256737
256737
256737
256737
256737
256737
256737
256737
256737
256737
256737
256743
258142
493588
541721
258554
256755
256738
256737
256737
256737
256737
256737
256737
256737
256737
256737
256737
256737
256737
256737
256737
256737
256737
256737
256737
256737
256737
256737
256737
256737
256743
258176
497411
542127
258660
256755
256738
256737
256737
256737
256737
256737
256737
256737
256737
256737
256737
256737
256737
256737
256737
256737
256737
256737
256737
256737
256737
256737
256737
256737
256743
258212
500938
543041
258668
256754
256738
256737
256737
256737
256737
256737
256737
256737
256737
256737
256737
256737
256737
256737
256737
256737
256737
256737
256737
256737
256737
256737
256737
256737
256743
258250
504357
542703
258644
256753
256737
256737
256737
256737
256737
256737
256737
256737
256737
256737
256737
256737
256737
256737
256737
256737
256737
256737
256737
256737
256737
256737
256737
256737
256744
258286
507637
540946
258611
256752
256737
256737
256737
256737
256737
256737
256737
256737
256737
256737
256737
256737
256737
256737
256737
256737
256737
256737
256737
256737
256737
256737
256737
256737
256744
258319
510709
539168
258592
256751
256737
256737
256737
256737
256737
256737
256737
256737
256737
256737
256737
256737
256737
256737
256737
256737
256737
256737
256737
256737
256737
256737
256737
256737
256744
258349
513533
537944
258586
256750
256737
256737
256737
256737
256737
256737
256737
256737
256737
256737
256737
256737
256737
256737
256737
256737
256737
256737
256737
256737
256737
256737
256737
256737
256744
258377
516114
537356
258587
256750
256737
256737
256737
256737
256737
256737
256737
256737
256737
256737
256737
256737
256737
256737
256737
256737
256737
256737
256737
256737
256737
256737
256737
256737
256744
258402
518475
537174
258589
256749
256737
256737
256737
256737
256737
256737
256737
256737
256737
256737
256737
256737
256737
256737
256737
256737
256737
256737
256737
256737
256737
256737
256737
256737
256745
258426
520646
537096
258591
256749
256737
256737
256737
256737
256737
256737
256737
256737
256737
256737
256737
256737
256737
256737
256737
256737
256737
256737
256737
256737
256737
256737
256737
256737
256745
258449
522641
537194
258591
256749
256737
256737
256737
256737
256737
256737
256737
256737
256737
256737
256737
256737
256737
256737
256737
256737
256737
256737
256737
256737
256737
256737
256737
256737
256745
258469
524473
536962
258589
256748
256737
256737
256737
256737
256737
256737
256737
256737
256737
256737
256737
256737
256737
256737
256737
256737
256737
256737
256737
256737
256737
256737
256737
256737
256745
258488
526134
537048
258593
256748
256737
256737
256737
256737
256737
256737
256737
256737
256737
256737
256737
256737
256737
256737
256737
256737
256737
256737
256737
256737
256737
256737
256737
256737
256745
258505
527633
536996
258591
256748
256737
256737
256737
256737
256737
256737
256737
256737
256737
256737
256737
256737
256737
256737
256737
256737
256737
256737
256737
256737
256737
256737
256737
256737
256745
258520
528981
536834
258590
256747
256737
256737
256737
256737
256737
256737
256737
256737
256737
256737
256737
256737
256737
256737
256737
256737
256737
256737
256737
256737
256737
256737
256737
256737
256745
258533
530172
536818
258591
256747
256737
256737
256737
256737
256737
256737
256737
256737
256737
256737
256737
256737
256737
256737
256737
256737
256737
256737
256737
256737
256737
256737
256737
256737
256745
258545
531217
536637
258588
256747
256737
256737
256737
256737
256737
256737
256737
256737
256737
256737
256737
256737
256737
256737
256737
256737
256737
256737
256737
256737
256737
256737
256737
256737
256746
258555
532123
536440
258588
256747
256737
256737
256737
256737
256737
256737
256737
256737
256737
256737
256737
256737
256737
256737
256737
256737
256737
256737
256737
256737
256737
256737
256737
256737
256746
258563
532890
536289
258586
256747
256737
256737
256737
256737
256737
256737
256737
256737
256737
256737
256737
256737
256737
256737
256737
256737
256737
256737
256737
256737
256737
256737
256737
256737
256746
258570
533532
535968
258582
256746
256737
256737
256737
256737
256737
256737
256737
256737
256737
256737
256737
256737
256737
256737
256737
256737
256737
256737
256737
256737
256737
256737
256737
256737
256746
258575
534050
535681
258578
256746
256737
256737
256737
256737
256737
256737
256737
256737
256737
256737
256737
256737
256737
256737
256737
256737
256737
256737
256737
256737
256737
256737
256737
256737
256746
258578
534449
535450
258402
256744
256737
256737
256737
256737
256737
256737
256737
256737
256737
256737
256737
256737
256737
256737
256737
256737
256737
256737
256737
256737
256737
256737
256737
256737
256746
258580
534744
485287
258208
256995
256994
256997
257001
257004
257008
257011
257015
257019
257023
257026
257031
257035
257039
257043
257048
257052
257057
257062
257067
257072
257077
257082
257088
257094
257142
261024
551337
489165
258100
256746
256741
256741
256741
256741
256741
256741
256741
256741
256741
256742
256742
256742
256742
256742
256742
256742
256743
256743
256743
256743
256743
256743
256744
256744
256772
259247
580231
493594
258143
256743
256737
256737
256737
256737
256737
256737
256737
256737
256737
256737
256737
256737
256737
256737
256737
256737
256737
256737
256737
256737
256737
256737
256737
256738
256757
258553
555655
497413
258176
256743
256737
256737
256737
256737
256737
256737
256737
256737
256737
256737
256737
256737
256737
256737
256737
256737
256737
256737
256737
256737
256737
256737
256737
256738
256754
258550
541549
500937
258212
256743
256737
256737
256737
256737
256737
256737
256737
256737
256737
256737
256737
256737
256737
256737
256737
256737
256737
256737
256737
256737
256737
256737
256737
256738
256755
258662
542058
504360
258250
256743
256737
256737
256737
256737
256737
256737
256737
256737
256737
256737
256737
256737
256737
256737
256737
256737
256737
256737
256737
256737
256737
256737
256737
256738
256754
258669
543283
507635
258285
256744
256737
256737
256737
256737
256737
256737
256737
256737
256737
256737
256737
256737
256737
256737
256737
256737
256737
256737
256737
256737
256737
256737
256737
256737
256753
258640
542380
510706
258319
256744
256737
256737
256737
256737
256737
256737
256737
256737
256737
256737
256737
256737
256737
256737
256737
256737
256737
256737
256737
256737
256737
256737
256737
256737
256752
258615
541122
513534
258349
256744
256737
256737
256737
256737
256737
256737
256737
256737
256737
256737
256737
256737
256737
256737
256737
256737
256737
256737
256737
256737
256737
256737
256737
256737
256751
258590
539145
516111
258376
256744
256737
256737
256737
256737
256737
256737
256737
256737
256737
256737
256737
256737
256737
256737
256737
256737
256737
256737
256737
256737
256737
256737
256737
256737
256750
258587
537870
518477
258403
256744
256737
256737
256737
256737
256737
256737
256737
256737
256737
256737
256737
256737
256737
256737
256737
256737
256737
256737
256737
256737
256737
256737
256737
256737
256750
258588
537530
520648
258426
256745
256737
256737
256737
256737
256737
256737
256737
256737
256737
256737
256737
256737
256737
256737
256737
256737
256737
256737
256737
256737
256737
256737
256737
256737
256749
258586
537032
522639
258449
256745
256737
256737
256737
256737
256737
256737
256737
256737
256737
256737
256737
256737
256737
256737
256737
256737
256737
256737
256737
256737
256737
256737
256737
256737
256749
258593
537118
524472
258469
256745
256737
256737
256737
256737
256737
256737
256737
256737
256737
256737
256737
256737
256737
256737
256737
256737
256737
256737
256737
256737
256737
256737
256737
256737
256749
258591
537213
526135
258488
256745
256737
256737
256737
256737
256737
256737
256737
256737
256737
256737
256737
256737
256737
256737
256737
256737
256737
256737
256737
256737
256737
256737
256737
256737
256748
258589
536976
527632
258505
256745
256737
256737
256737
256737
256737
256737
256737
256737
256737
256737
256737
256737
256737
256737
256737
256737
256737
256737
256737
256737
256737
256737
256737
256737
256748
258592
537000
528980
258520
256745
256737
256737
256737
256737
256737
256737
256737
256737
256737
256737
256737
256737
256737
256737
256737
256737
256737
256737
256737
256737
256737
256737
256737
256737
256748
258592
537039
530173
258533
256745
256737
256737
256737
256737
256737
256737
256737
256737
256737
256737
256737
256737
256737
256737
256737
256737
256737
256737
256737
256737
256737
256737
256737
256737
256747
258589
536845
531216
258545
256745
256737
256737
256737
256737
256737
256737
256737
256737
256737
256737
256737
256737
256737
256737
256737
256737
256737
256737
256737
256737
256737
256737
256737
256737
256747
258591
536757
532122
258555
256746
256737
256737
256737
256737
256737
256737
256737
256737
256737
256737
256737
256737
256737
256737
256737
256737
256737
256737
256737
256737
256737
256737
256737
256737
256747
258589
536687
532893
258563
256746
256737
256737
256737
256737
256737
256737
256737
256737
256737
256737
256737
256737
256737
256737
256737
256737
256737
256737
256737
256737
256737
256737
256737
256737
256747
258586
536449
533530
258569
256746
256737
256737
256737
256737
256737
256737
256737
256737
256737
256737
256737
256737
256737
256737
256737
256737
256737
256737
256737
256737
256737
256737
256737
256737
256747
258586
536228
534049
258575
256746
256737
256737
256737
256737
256737
256737
256737
256737
256737
256737
256737
256737
256737
256737
256737
256737
256737
256737
256737
256737
256737
256737
256737
256737
256746
258583
536020
534451
258579
256746
256737
256737
256737
256737
256737
256737
256737
256737
256737
256737
256737
256737
256737
256737
256737
256737
256737
256737
256737
256737
256737
256737
256737
256737
256746
258577
535678
534745
258580
256746
256737
256737
256737
256737
256737
256737
256737
256737
256737
256737
256737
256737
256737
256737
256737
256737
256737
256737
256737
256737
256737
256737
256737
256737
256744
258403
535442
646595
645507
644422
643341
642264
641191
640121
639054
637991
636932
635876
634824
633775
632729
631687
630649
629614
628582
627553
626528
625507
624488
623473
622461
621453
620448
619446
618447
617451
616459
615470
614484
613501
612521
611545
610571
609601
608633
607669
606708
605750
604795
603843
602893
601947
601004
600064
599126
598192
597261
596332
595406
594483
593563
592646
591732
590820
589912
589006
588103
587202
586305
585410
584518
583628
582741
581857
580976
580097
579221
578348
577477
576609
575743
574880
574020
573162
572307
571454
570604
569756
568911
568068
567228
566390
565555
564722
563892
563064
562239
561416
560595
559777
558961
558148
557337
556528
555721
554917
554116
553316
552519
551724
550932
550141
549353
548567
547784
547003
546224
545447
544672
543900
543129
542361
541595
540831
540070
539310
538553
537798
537045
536294
535545
534797
260417
260387
260366
260345
260323
260302
260282
260261
260240
260220
260200
260180
260160
260140
260120
260100
260081
260062
260043
260024
260005
259986
259967
259949
259930
259912
259894
259876
259858
259840
259823
259805
259788
259771
259753
259736
259719
259703
259686
259669
259653
259637
259620
259604
259588
259572
259556
259541
259525
259510
259494
259479
259464
259449
259434
259419
259404
259389
259375
259360
259346
259331
259317
259303
259289
259275
259261
259247
259234
259220
259207
259193
259180
259167
259154
259141
259128
259115
259102
259089
259076
259064
259051
259039
259027
259014
259002
258990
258978
258966
258954
258942
258931
258919
258907
258896
258884
258873
258862
258850
258839
258828
258817
258806
258795
258785
258774
258763
258753
258742
258731
258721
258711
258700
258690
258680
258670
258660
258650
258640
258630
258620
258610
258601
258589
256763
256763
256762
256762
256762
256762
256761
256761
256761
256761
256760
256760
256760
256760
256760
256759
256759
256759
256759
256759
256758
256758
256758
256758
256758
256757
256757
256757
256757
256757
256757
256756
256756
256756
256756
256756
256756
256755
256755
256755
256755
256755
256755
256754
256754
256754
256754
256754
256754
256753
256753
256753
256753
256753
256753
256753
256752
256752
256752
256752
256752
256752
256752
256752
256751
256751
256751
256751
256751
256751
256751
256751
256750
256750
256750
256750
256750
256750
256750
256750
256750
256750
256749
256749
256749
256749
256749
256749
256749
256749
256749
256748
256748
256748
256748
256748
256748
256748
256748
256748
256748
256748
256747
256747
256747
256747
256747
256747
256747
256747
256747
256747
256747
256747
256747
256746
256746
256746
256746
256746
256746
256746
256746
256746
256746
256737
256737
256737
256737
256737
256737
256737
256737
256737
256737
256737
256737
256737
256737
256737
256737
256737
256737
256737
256737
256737
256737
256737
256737
256737
256737
256737
256737
256737
256737
256737
256737
256737
256737
256737
256737
256737
256737
256737
256737
256737
256737
256737
256737
256737
256737
256737
256737
256737
256737
256737
256737
256737
256737
256737
256737
256737
256737
256737
256737
256737
256737
256737
256737
256737
256737
256737
256737
256737
256737
256737
256737
256737
256737
256737
256737
256737
256737
256737
256737
256737
256737
256737
256737
256737
256737
256737
256737
256737
256737
256737
256737
256737
256737
256737
256737
256737
256737
256737
256737
256737
256737
256737
256737
256737
256737
256737
256737
256737
256737
256737
256737
256737
256737
256737
256737
256737
256737
256737
256737
256737
256737
256737
256737
256737
256737
256737
256737
256737
256737
256737
256737
256737
256737
256737
256737
256737
256737
256737
256737
256737
256737
256737
256737
256737
256737
256737
256737
256737
256737
256737
256737
256737
256737
256737
256737
256737
256737
256737
256737
256737
256737
256737
256737
256737
256737
256737
256737
256737
256737
256737
256737
256737
256737
256737
256737
256737
256737
256737
256737
256737
256737
256737
256737
256737
256737
256737
256737
256737
256737
256737
256737
256737
256737
256737
256737
256737
256737
256737
256737
256737
256737
256737
256737
256737
256737
256737
256737
256737
256737
256737
256737
256737
256737
256737
256737
256737
256737
256737
256737
256737
256737
256737
256737
256737
256737
256737
256737
256737
256737
256737
256737
256737
256737
256737
256737
256737
256737
256737
256737
256737
256737
256737
256737
256737
256737
256737
256737
256737
256737
256737
256737
256737
256737
256737
256737
256737
256737
256737
256737
256737
256737
256737
256737
256737
256737
256737
256737
256737
256737
256737
256737
256737
256737
256737
256737
256737
256737
256737
256737
256737
256737
256737
256737
256737
256737
256737
256737
256737
256737
256737
256737
256737
256737
256737
256737
256737
256737
256737
256737
256737
256737
256737
256737
256737
256737
256737
256737
256737
256737
256737
256737
256737
256737
256737
256737
256737
256737
256737
256737
256737
256737
256737
256737
256737
256737
256737
256737
256737
256737
256737
256737
256737
256737
256737
256737
256737
256737
256737
256737
256737
256737
256737
256737
256737
256737
256737
256737
256737
256737
256737
256737
256737
256737
256737
256737
256737
256737
256737
256737
256737
256737
256737
256737
256737
256737
256737
256737
256737
256737
256737
256737
256737
256737
256737
256737
256737
256737
256737
256737
256737
256737
256737
256737
256737
256737
256737
256737
256737
256737
256737
256737
256737
256737
256737
256737
256737
256737
256737
256737
256737
256737
256737
256737
256737
256737
256737
256737
256737
256737
256737
256737
256737
256737
256737
256737
256737
256737
256737
256737
256737
256737
256737
256737
256737
256737
256737
256737
256737
256737
256737
256737
256737
256737
256737
256737
256737
256737
256737
256737
256737
256737
256737
256737
256737
256737
256737
256737
256737
256737
256737
256737
256737
256737
256737
256737
256737
256737
256737
256737
256737
256737
256737
256737
256737
256737
256737
256737
256737
256737
256737
256737
256737
256737
256737
256737
256737
256737
256737
256737
256737
256737
256737
256737
256737
256737
256737
256737
256737
256737
256737
256737
256737
256737
256737
256737
256737
256737
256737
256737
256737
256737
256737
256737
256737
256737
256737
256737
256737
256737
256737
256737
256737
256737
256737
256737
256737
256737
256737
256737
256737
256737
256737
256737
256737
256737
256737
256737
256737
256737
256737
256737
256737
256737
256737
256737
256737
256737
256737
256737
256737
256737
256737
256737
256737
256737
256737
256737
256737
256737
256737
256737
256737
256737
256737
256737
256737
256737
256737
256737
256737
256737
256737
256737
256737
256737
256737
256737
256737
256737
256737
256737
256737
256737
256737
256737
256737
256737
256737
256737
256737
256737
256737
256737
256737
256737
256737
256737
256737
256737
256737
256737
256737
256737
256737
256737
256737
256737
256737
256737
256737
256737
256737
256737
256737
256737
256737
256737
256737
256737
256737
256737
256737
256737
256737
256737
256737
256737
256737
256737
256737
256737
256737
256737
256737
256737
256737
256737
256737
256737
256737
256737
256737
256737
256737
256737
256737
256737
256737
256737
256737
256737
256737
256737
256737
256737
256737
256737
256737
256737
256737
256737
256737
256737
256737
256737
256737
256737
256737
256737
256737
256737
256737
256737
256737
256737
256737
256737
256737
256737
256737
256737
256737
256737
256737
256737
256737
256737
256737
256737
256737
256737
256737
256737
256737
256737
256737
256737
256737
256737
256737
256737
256737
256737
256737
256737
256737
256737
256737
256737
256737
256737
256737
256737
256737
256737
256737
256737
256737
256737
256737
256737
256737
256737
256737
256737
256737
256737
256737
256737
256737
256737
256737
256737
256737
256737
256737
256737
256737
256737
256737
256737
256737
256737
256737
256737
256737
256737
256737
256737
256737
256737
256737
256737
256737
256737
256737
256737
256737
256737
256737
256737
256737
256737
256737
256737
256737
256737
256737
256737
256737
256737
256737
256737
256737
256737
256737
256737
256737
256737
256737
256737
256737
256737
256737
256737
256737
256737
256737
256737
256737
256737
256737
256737
256737
256737
256737
256737
256737
256737
256737
256737
256737
256737
256737
256737
256737
256737
256737
256737
256737
256737
256737
256737
256737
256737
256737
256737
256737
256737
256737
256737
256737
256737
256737
256737
256737