/*--------------------------------*- C++ -*----------------------------------*\
| =========                 |                                                 |
| \\      /  F ield         | OpenFOAM: The Open Source CFD Toolbox           |
|  \\    /   O peration     | Version:  2112                                  |
|   \\  /    A nd           | Website:  www.openfoam.com                      |
|    \\/     M anipulation  |                                                 |
\*---------------------------------------------------------------------------*/
FoamFile
{
    version     2.0;
    format      ascii;
    arch        "LSB;label=32;scalar=64";
    class       volScalarField;
    location    "7e-05";
    object      k;
}
// * * * * * * * * * * * * * * * * * * * * * * * * * * * * * * * * * * * * * //

dimensions      [0 2 -2 0 0 0 0];

internalField   nonuniform List<scalar> 
13875
(
47020.1
274856
378222
453002
498254
524019
537406
543745
546486
547570
547962
548091
548121
548090
547972
547604
546539
543806
537475
524096
498335
453086
378295
274775
47425.7
103627
345725
454174
527455
571904
596637
609153
614913
617333
618263
618589
618691
618712
618686
618585
618271
617359
614958
609219
596726
572022
527614
454385
345949
104408
129925
368331
472379
539923
580424
602534
613503
618452
620488
621252
621513
621590
621602
621580
621498
621244
620492
618469
613529
602560
580429
539880
472229
367909
129197
112586
324213
410555
465431
497197
513959
521999
525514
526920
527433
527600
527646
527651
527633
527580
527413
526906
525505
521993
513945
497152
465315
410207
323408
111673
86064.7
266191
341341
385529
408733
420226
425488
427689
428534
428830
428922
428946
428945
428934
428904
428808
428513
427670
425470
420205
408694
385488
341296
265999
85609.3
52672.1
182400
235668
264776
279450
286425
289452
290657
291098
291245
291289
291299
291297
291290
291275
291227
291077
290635
289433
286411
279445
264822
235739
182501
52445.9
27744.5
111305
144121
161001
169090
172712
174201
174767
174966
175031
175050
175054
175053
175050
175043
175021
174952
174749
174178
172679
169030
160924
143951
110862
27626.2
8836
36683.4
47856.3
53110.2
55548.9
56597
57017
57174.3
57229.7
57248
57253.3
57254.6
57254.4
57253.1
57250.5
57243.4
57223.2
57165.6
57006
56583.3
55528.7
53102.5
47813.9
36562.8
8769.6
1182.75
2373.6
2902.43
3107.38
3206.42
3250.16
3268.63
3275.93
3278.69
3279.69
3280.02
3280.13
3280.14
3280.06
3279.88
3279.43
3278.3
3275.38
3267.89
3249.27
3205.32
3108.24
2901.85
2369.23
1179.19
902.588
986.185
991.442
991.63
991.823
991.943
992
992.022
992.029
992.031
992.03
992.028
992.026
992.023
992.02
992.016
992.01
991.997
991.97
991.908
991.783
991.599
991.415
986.204
902.862
892.311
979.39
982.94
982.076
981.821
981.778
981.773
981.772
981.772
981.772
981.772
981.772
981.772
981.772
981.772
981.772
981.772
981.772
981.773
981.779
981.825
982.096
982.995
979.336
891.275
883.502
978.845
983.362
982.185
981.801
981.73
981.719
981.718
981.718
981.718
981.718
981.718
981.718
981.718
981.718
981.718
981.718
981.718
981.719
981.729
981.799
982.176
983.341
978.794
883.306
874.689
977.869
983.652
982.328
981.837
981.735
981.719
981.717
981.717
981.717
981.717
981.717
981.717
981.717
981.717
981.717
981.717
981.717
981.719
981.733
981.827
982.288
983.55
977.825
874.999
866.866
976.653
983.703
982.411
981.865
981.741
981.72
981.717
981.717
981.716
981.716
981.716
981.716
981.716
981.716
981.716
981.717
981.717
981.72
981.739
981.854
982.368
983.617
976.894
869.631
861.992
975.494
983.579
982.442
981.884
981.746
981.721
981.717
981.717
981.716
981.716
981.716
981.716
981.716
981.716
981.716
981.717
981.717
981.722
981.753
981.916
982.553
983.787
975.403
860.188
850.595
973.32
983.326
982.501
981.92
981.756
981.723
981.717
981.717
981.716
981.716
981.716
981.716
981.716
981.716
981.716
981.717
981.718
981.724
981.761
981.941
982.572
983.486
973.239
848.609
847.466
971.748
982.372
982.195
981.847
981.743
981.721
981.717
981.717
981.716
981.716
981.716
981.716
981.716
981.716
981.716
981.717
981.717
981.721
981.741
981.84
982.176
982.371
971.844
847.697
844.131
970.264
980.98
981.762
981.744
981.723
981.718
981.717
981.717
981.716
981.716
981.716
981.716
981.716
981.716
981.716
981.717
981.717
981.717
981.722
981.737
981.725
980.813
969.969
843.654
832.392
965.189
978.558
981.059
981.587
981.693
981.712
981.716
981.716
981.716
981.716
981.716
981.716
981.716
981.716
981.716
981.716
981.716
981.713
981.696
981.604
981.13
978.806
965.973
834.851
825.434
960.595
976.79
980.452
981.435
981.663
981.707
981.715
981.716
981.716
981.716
981.716
981.716
981.716
981.716
981.716
981.716
981.715
981.707
981.662
981.432
980.437
976.745
960.459
824.038
837.213
962.438
977.197
980.603
981.482
981.674
981.71
981.716
981.716
981.716
981.716
981.716
981.716
981.716
981.716
981.716
981.716
981.715
981.709
981.669
981.455
980.501
976.904
961.539
834.652
849.324
965.6
978.253
980.96
981.575
981.694
981.713
981.716
981.716
981.716
981.716
981.716
981.716
981.716
981.716
981.716
981.716
981.716
981.713
981.691
981.562
980.91
978.105
965.203
848.789
860.499
968.452
979.159
981.228
981.636
981.705
981.715
981.716
981.716
981.716
981.716
981.716
981.716
981.716
981.716
981.716
981.716
981.716
981.715
981.705
981.639
981.248
979.245
968.792
861.67
870.369
971.065
979.905
981.419
981.673
981.711
981.716
981.716
981.716
981.716
981.716
981.716
981.716
981.716
981.716
981.716
981.716
981.716
981.716
981.711
981.674
981.421
979.907
971.061
870.105
875.936
972.368
980.25
981.501
981.688
981.713
981.716
981.716
981.716
981.716
981.716
981.716
981.716
981.716
981.716
981.716
981.716
981.716
981.716
981.713
981.687
981.496
980.225
972.26
875.717
881.528
973.42
980.505
981.553
981.696
981.714
981.716
981.716
981.716
981.716
981.716
981.716
981.716
981.716
981.716
981.716
981.716
981.716
981.716
981.714
981.697
981.56
980.543
973.603
882.096
887.143
974.576
980.759
981.599
981.703
981.715
981.716
981.716
981.716
981.716
981.716
981.716
981.716
981.716
981.716
981.716
981.716
981.716
981.716
981.715
981.702
981.593
980.719
974.385
886.356
890.923
975.241
980.897
981.623
981.707
981.715
981.716
981.716
981.716
981.716
981.716
981.716
981.716
981.716
981.716
981.716
981.716
981.716
981.716
981.715
981.706
981.622
980.892
975.209
891.118
894.895
975.823
981.016
981.641
981.709
981.716
981.716
981.716
981.716
981.716
981.716
981.716
981.716
981.716
981.716
981.716
981.716
981.716
981.716
981.716
981.71
981.648
981.063
976.083
895.712
899.654
976.726
981.183
981.665
981.712
981.716
981.716
981.716
981.716
981.716
981.716
981.716
981.716
981.716
981.716
981.716
981.716
981.716
981.716
981.716
981.711
981.66
981.146
976.512
898.716
902.251
977.155
981.256
981.675
981.713
981.716
981.716
981.716
981.716
981.716
981.716
981.716
981.716
981.716
981.716
981.716
981.716
981.716
981.716
981.716
981.713
981.675
981.259
977.161
902.535
904.719
977.439
981.305
981.681
981.713
981.716
981.716
981.716
981.716
981.716
981.716
981.716
981.716
981.716
981.716
981.716
981.716
981.716
981.716
981.716
981.714
981.683
981.328
977.591
905.18
907.93
977.979
981.39
981.69
981.714
981.716
981.716
981.716
981.716
981.716
981.716
981.716
981.716
981.716
981.716
981.716
981.716
981.716
981.716
981.716
981.714
981.688
981.372
977.86
907.43
909.737
978.239
981.428
981.695
981.715
981.716
981.716
981.716
981.716
981.716
981.716
981.716
981.716
981.716
981.716
981.716
981.716
981.716
981.716
981.716
981.715
981.695
981.435
978.275
910.04
911.407
978.39
981.451
981.697
981.715
981.716
981.716
981.716
981.716
981.716
981.716
981.716
981.716
981.716
981.716
981.716
981.716
981.716
981.716
981.716
981.715
981.698
981.463
978.492
911.662
913.681
978.749
981.5
981.702
981.715
981.716
981.716
981.716
981.716
981.716
981.716
981.716
981.716
981.716
981.716
981.716
981.716
981.716
981.716
981.716
981.715
981.7
981.485
978.634
913.24
915.011
978.917
981.522
981.704
981.716
981.716
981.716
981.716
981.716
981.716
981.716
981.716
981.716
981.716
981.716
981.716
981.716
981.716
981.716
981.716
981.716
981.704
981.526
978.939
915.213
916.227
979.011
981.535
981.705
981.716
981.716
981.716
981.716
981.716
981.716
981.716
981.716
981.716
981.716
981.716
981.716
981.716
981.716
981.716
981.716
981.716
981.706
981.544
979.09
916.413
917.874
979.265
981.567
981.708
981.716
981.716
981.716
981.716
981.716
981.716
981.716
981.716
981.716
981.716
981.716
981.716
981.716
981.716
981.716
981.716
981.716
981.707
981.555
979.169
917.531
918.842
979.378
981.58
981.709
981.716
981.716
981.716
981.716
981.716
981.716
981.716
981.716
981.716
981.716
981.716
981.716
981.716
981.716
981.716
981.716
981.716
981.709
981.583
979.395
918.986
919.715
979.435
981.588
981.709
981.716
981.716
981.716
981.716
981.716
981.716
981.716
981.716
981.716
981.716
981.716
981.716
981.716
981.716
981.716
981.716
981.716
981.71
981.595
979.502
919.868
920.9
979.622
981.61
981.711
981.716
981.716
981.716
981.716
981.716
981.716
981.716
981.716
981.716
981.716
981.716
981.716
981.716
981.716
981.716
981.716
981.716
981.71
981.601
979.546
920.654
921.594
979.7
981.619
981.712
981.716
981.716
981.716
981.716
981.716
981.716
981.716
981.716
981.716
981.716
981.716
981.716
981.716
981.716
981.716
981.716
981.716
981.712
981.621
979.711
921.681
922.204
979.733
981.623
981.712
981.716
981.716
981.716
981.716
981.716
981.716
981.716
981.716
981.716
981.716
981.716
981.716
981.716
981.716
981.716
981.716
981.716
981.712
981.629
979.789
922.325
923.027
979.872
981.639
981.713
981.716
981.716
981.716
981.716
981.716
981.716
981.716
981.716
981.716
981.716
981.716
981.716
981.716
981.716
981.716
981.716
981.716
981.713
981.633
979.815
922.869
923.504
979.925
981.645
981.713
981.716
981.716
981.716
981.716
981.716
981.716
981.716
981.716
981.716
981.716
981.716
981.716
981.716
981.716
981.716
981.716
981.716
981.714
981.646
979.929
923.543
923.909
979.942
981.648
981.714
981.716
981.716
981.716
981.716
981.716
981.716
981.716
981.716
981.716
981.716
981.716
981.716
981.716
981.716
981.716
981.716
981.716
981.714
981.653
979.988
923.998
924.446
980.045
981.66
981.714
981.716
981.716
981.716
981.716
981.716
981.716
981.716
981.716
981.716
981.716
981.716
981.716
981.716
981.716
981.716
981.716
981.716
981.714
981.655
980.004
924.335
924.754
980.077
981.664
981.715
981.716
981.716
981.716
981.716
981.716
981.716
981.716
981.716
981.716
981.716
981.716
981.716
981.716
981.716
981.716
981.716
981.716
981.715
981.663
980.066
924.716
925.444
980.057
981.663
981.715
981.716
981.716
981.716
981.716
981.716
981.716
981.716
981.716
981.716
981.716
981.716
981.716
981.716
981.716
981.716
981.716
981.716
981.715
981.665
980.073
925.488
967.33
982.638
982.591
982.556
982.541
982.528
982.515
982.503
982.491
982.479
982.467
982.456
982.445
982.434
982.424
982.413
982.403
982.394
982.384
982.375
982.366
982.357
982.348
982.34
982.331
982.323
982.315
982.306
982.188
967.041
964.413
981.882
981.761
981.735
981.734
981.733
981.732
981.732
981.731
981.731
981.731
981.73
981.73
981.729
981.729
981.729
981.728
981.728
981.728
981.727
981.727
981.727
981.726
981.726
981.726
981.726
981.725
981.725
981.611
965.642
965.602
981.819
981.735
981.717
981.717
981.717
981.717
981.717
981.717
981.717
981.717
981.717
981.717
981.717
981.717
981.717
981.717
981.717
981.717
981.717
981.717
981.717
981.717
981.717
981.717
981.717
981.717
981.716
981.601
965.311
965.772
981.774
981.731
981.717
981.717
981.716
981.716
981.716
981.716
981.716
981.716
981.716
981.716
981.716
981.716
981.716
981.716
981.716
981.716
981.716
981.716
981.716
981.716
981.716
981.716
981.716
981.716
981.716
981.598
965.036
965.503
981.761
981.73
981.717
981.716
981.716
981.716
981.716
981.716
981.716
981.716
981.716
981.716
981.716
981.716
981.716
981.716
981.716
981.716
981.716
981.716
981.716
981.716
981.716
981.716
981.716
981.716
981.716
981.595
964.783
965.272
981.75
981.729
981.717
981.716
981.716
981.716
981.716
981.716
981.716
981.716
981.716
981.716
981.716
981.716
981.716
981.716
981.716
981.716
981.716
981.716
981.716
981.716
981.716
981.716
981.716
981.716
981.716
981.592
964.538
965.082
981.735
981.728
981.717
981.716
981.716
981.716
981.716
981.716
981.716
981.716
981.716
981.716
981.716
981.716
981.716
981.716
981.716
981.716
981.716
981.716
981.716
981.716
981.716
981.716
981.716
981.716
981.716
981.589
964.303
964.927
981.718
981.727
981.717
981.716
981.716
981.716
981.716
981.716
981.716
981.716
981.716
981.716
981.716
981.716
981.716
981.716
981.716
981.716
981.716
981.716
981.716
981.716
981.716
981.716
981.716
981.716
981.716
981.586
964.082
964.765
981.702
981.725
981.717
981.716
981.716
981.716
981.716
981.716
981.716
981.716
981.716
981.716
981.716
981.716
981.716
981.716
981.716
981.716
981.716
981.716
981.716
981.716
981.716
981.716
981.716
981.716
981.716
981.584
963.879
964.589
981.687
981.724
981.717
981.716
981.716
981.716
981.716
981.716
981.716
981.716
981.716
981.716
981.716
981.716
981.716
981.716
981.716
981.716
981.716
981.716
981.716
981.716
981.716
981.716
981.716
981.716
981.716
981.581
963.694
964.406
981.675
981.723
981.717
981.716
981.716
981.716
981.716
981.716
981.716
981.716
981.716
981.716
981.716
981.716
981.716
981.716
981.716
981.716
981.716
981.716
981.716
981.716
981.716
981.716
981.716
981.716
981.716
981.579
963.524
964.224
981.663
981.723
981.717
981.716
981.716
981.716
981.716
981.716
981.716
981.716
981.716
981.716
981.716
981.716
981.716
981.716
981.716
981.716
981.716
981.716
981.716
981.716
981.716
981.716
981.716
981.716
981.716
981.577
963.368
964.049
981.653
981.722
981.717
981.716
981.716
981.716
981.716
981.716
981.716
981.716
981.716
981.716
981.716
981.716
981.716
981.716
981.716
981.716
981.716
981.716
981.716
981.716
981.716
981.716
981.716
981.716
981.716
981.575
963.225
963.876
981.644
981.721
981.717
981.716
981.716
981.716
981.716
981.716
981.716
981.716
981.716
981.716
981.716
981.716
981.716
981.716
981.716
981.716
981.716
981.716
981.716
981.716
981.716
981.716
981.716
981.716
981.716
981.574
963.093
963.715
981.635
981.721
981.717
981.716
981.716
981.716
981.716
981.716
981.716
981.716
981.716
981.716
981.716
981.716
981.716
981.716
981.716
981.716
981.716
981.716
981.716
981.716
981.716
981.716
981.716
981.716
981.716
981.572
962.973
963.556
981.626
981.72
981.717
981.716
981.716
981.716
981.716
981.716
981.716
981.716
981.716
981.716
981.716
981.716
981.716
981.716
981.716
981.716
981.716
981.716
981.716
981.716
981.716
981.716
981.716
981.716
981.716
981.571
962.866
963.408
981.618
981.72
981.717
981.716
981.716
981.716
981.716
981.716
981.716
981.716
981.716
981.716
981.716
981.716
981.716
981.716
981.716
981.716
981.716
981.716
981.716
981.716
981.716
981.716
981.716
981.716
981.716
981.569
962.769
963.267
981.611
981.719
981.717
981.716
981.716
981.716
981.716
981.716
981.716
981.716
981.716
981.716
981.716
981.716
981.716
981.716
981.716
981.716
981.716
981.716
981.716
981.716
981.716
981.716
981.716
981.716
981.716
981.568
962.683
963.135
981.604
981.719
981.717
981.716
981.716
981.716
981.716
981.716
981.716
981.716
981.716
981.716
981.716
981.716
981.716
981.716
981.716
981.716
981.716
981.716
981.716
981.716
981.716
981.716
981.716
981.716
981.716
981.567
962.608
963.011
981.598
981.718
981.717
981.716
981.716
981.716
981.716
981.716
981.716
981.716
981.716
981.716
981.716
981.716
981.716
981.716
981.716
981.716
981.716
981.716
981.716
981.716
981.716
981.716
981.716
981.716
981.716
981.566
962.543
962.897
981.592
981.718
981.717
981.716
981.716
981.716
981.716
981.716
981.716
981.716
981.716
981.716
981.716
981.716
981.716
981.716
981.716
981.716
981.716
981.716
981.716
981.716
981.716
981.716
981.716
981.716
981.716
981.566
962.487
962.794
981.587
981.717
981.717
981.716
981.716
981.716
981.716
981.716
981.716
981.716
981.716
981.716
981.716
981.716
981.716
981.716
981.716
981.716
981.716
981.716
981.716
981.716
981.716
981.716
981.716
981.716
981.716
981.565
962.441
962.698
981.582
981.717
981.717
981.716
981.716
981.716
981.716
981.716
981.716
981.716
981.716
981.716
981.716
981.716
981.716
981.716
981.716
981.716
981.716
981.716
981.716
981.716
981.716
981.716
981.716
981.716
981.716
981.565
962.404
962.61
981.576
981.717
981.716
981.716
981.716
981.716
981.716
981.716
981.716
981.716
981.716
981.716
981.716
981.716
981.716
981.716
981.716
981.716
981.716
981.716
981.716
981.716
981.716
981.716
981.716
981.716
981.716
981.564
962.375
962.619
981.57
981.716
981.716
981.716
981.716
981.716
981.716
981.716
981.716
981.716
981.716
981.716
981.716
981.716
981.716
981.716
981.716
981.716
981.716
981.716
981.716
981.716
981.716
981.716
981.716
981.716
981.716
981.564
962.354
967.041
982.188
982.306
982.315
982.323
982.331
982.34
982.348
982.357
982.366
982.375
982.384
982.394
982.404
982.414
982.424
982.434
982.445
982.456
982.468
982.479
982.491
982.503
982.516
982.529
982.542
982.556
982.592
982.639
967.325
965.642
981.611
981.725
981.725
981.726
981.726
981.726
981.726
981.727
981.727
981.727
981.728
981.728
981.728
981.729
981.729
981.729
981.73
981.73
981.731
981.731
981.731
981.732
981.732
981.733
981.734
981.735
981.761
981.882
964.418
965.311
981.601
981.716
981.717
981.717
981.717
981.717
981.717
981.717
981.717
981.717
981.717
981.717
981.717
981.717
981.717
981.717
981.717
981.717
981.717
981.717
981.717
981.717
981.717
981.717
981.717
981.717
981.735
981.819
965.596
965.036
981.598
981.716
981.716
981.716
981.716
981.716
981.716
981.716
981.716
981.716
981.716
981.716
981.716
981.716
981.716
981.716
981.716
981.716
981.716
981.716
981.716
981.716
981.716
981.716
981.717
981.717
981.731
981.774
965.778
964.783
981.595
981.716
981.716
981.716
981.716
981.716
981.716
981.716
981.716
981.716
981.716
981.716
981.716
981.716
981.716
981.716
981.716
981.716
981.716
981.716
981.716
981.716
981.716
981.716
981.716
981.717
981.73
981.76
965.506
964.538
981.592
981.716
981.716
981.716
981.716
981.716
981.716
981.716
981.716
981.716
981.716
981.716
981.716
981.716
981.716
981.716
981.716
981.716
981.716
981.716
981.716
981.716
981.716
981.716
981.716
981.717
981.729
981.75
965.262
964.303
981.589
981.716
981.716
981.716
981.716
981.716
981.716
981.716
981.716
981.716
981.716
981.716
981.716
981.716
981.716
981.716
981.716
981.716
981.716
981.716
981.716
981.716
981.716
981.716
981.716
981.717
981.728
981.735
965.093
964.082
981.586
981.716
981.716
981.716
981.716
981.716
981.716
981.716
981.716
981.716
981.716
981.716
981.716
981.716
981.716
981.716
981.716
981.716
981.716
981.716
981.716
981.716
981.716
981.716
981.716
981.717
981.727
981.718
964.921
963.879
981.584
981.716
981.716
981.716
981.716
981.716
981.716
981.716
981.716
981.716
981.716
981.716
981.716
981.716
981.716
981.716
981.716
981.716
981.716
981.716
981.716
981.716
981.716
981.716
981.716
981.717
981.725
981.702
964.766
963.694
981.581
981.716
981.716
981.716
981.716
981.716
981.716
981.716
981.716
981.716
981.716
981.716
981.716
981.716
981.716
981.716
981.716
981.716
981.716
981.716
981.716
981.716
981.716
981.716
981.716
981.717
981.724
981.687
964.592
963.524
981.579
981.716
981.716
981.716
981.716
981.716
981.716
981.716
981.716
981.716
981.716
981.716
981.716
981.716
981.716
981.716
981.716
981.716
981.716
981.716
981.716
981.716
981.716
981.716
981.716
981.717
981.723
981.675
964.402
963.368
981.577
981.716
981.716
981.716
981.716
981.716
981.716
981.716
981.716
981.716
981.716
981.716
981.716
981.716
981.716
981.716
981.716
981.716
981.716
981.716
981.716
981.716
981.716
981.716
981.716
981.717
981.723
981.663
964.227
963.225
981.575
981.716
981.716
981.716
981.716
981.716
981.716
981.716
981.716
981.716
981.716
981.716
981.716
981.716
981.716
981.716
981.716
981.716
981.716
981.716
981.716
981.716
981.716
981.716
981.716
981.717
981.722
981.653
964.048
963.093
981.574
981.716
981.716
981.716
981.716
981.716
981.716
981.716
981.716
981.716
981.716
981.716
981.716
981.716
981.716
981.716
981.716
981.716
981.716
981.716
981.716
981.716
981.716
981.716
981.716
981.717
981.721
981.644
963.876
962.973
981.572
981.716
981.716
981.716
981.716
981.716
981.716
981.716
981.716
981.716
981.716
981.716
981.716
981.716
981.716
981.716
981.716
981.716
981.716
981.716
981.716
981.716
981.716
981.716
981.716
981.717
981.721
981.635
963.714
962.866
981.571
981.716
981.716
981.716
981.716
981.716
981.716
981.716
981.716
981.716
981.716
981.716
981.716
981.716
981.716
981.716
981.716
981.716
981.716
981.716
981.716
981.716
981.716
981.716
981.716
981.717
981.72
981.626
963.557
962.769
981.569
981.716
981.716
981.716
981.716
981.716
981.716
981.716
981.716
981.716
981.716
981.716
981.716
981.716
981.716
981.716
981.716
981.716
981.716
981.716
981.716
981.716
981.716
981.716
981.716
981.717
981.72
981.619
963.408
962.683
981.568
981.716
981.716
981.716
981.716
981.716
981.716
981.716
981.716
981.716
981.716
981.716
981.716
981.716
981.716
981.716
981.716
981.716
981.716
981.716
981.716
981.716
981.716
981.716
981.716
981.717
981.719
981.611
963.267
962.608
981.567
981.716
981.716
981.716
981.716
981.716
981.716
981.716
981.716
981.716
981.716
981.716
981.716
981.716
981.716
981.716
981.716
981.716
981.716
981.716
981.716
981.716
981.716
981.716
981.716
981.717
981.719
981.604
963.134
962.543
981.566
981.716
981.716
981.716
981.716
981.716
981.716
981.716
981.716
981.716
981.716
981.716
981.716
981.716
981.716
981.716
981.716
981.716
981.716
981.716
981.716
981.716
981.716
981.716
981.716
981.717
981.718
981.598
963.012
962.487
981.566
981.716
981.716
981.716
981.716
981.716
981.716
981.716
981.716
981.716
981.716
981.716
981.716
981.716
981.716
981.716
981.716
981.716
981.716
981.716
981.716
981.716
981.716
981.716
981.716
981.717
981.718
981.592
962.897
962.441
981.565
981.716
981.716
981.716
981.716
981.716
981.716
981.716
981.716
981.716
981.716
981.716
981.716
981.716
981.716
981.716
981.716
981.716
981.716
981.716
981.716
981.716
981.716
981.716
981.716
981.717
981.717
981.587
962.793
962.404
981.565
981.716
981.716
981.716
981.716
981.716
981.716
981.716
981.716
981.716
981.716
981.716
981.716
981.716
981.716
981.716
981.716
981.716
981.716
981.716
981.716
981.716
981.716
981.716
981.716
981.717
981.717
981.582
962.699
962.375
981.564
981.716
981.716
981.716
981.716
981.716
981.716
981.716
981.716
981.716
981.716
981.716
981.716
981.716
981.716
981.716
981.716
981.716
981.716
981.716
981.716
981.716
981.716
981.716
981.716
981.716
981.717
981.576
962.611
962.354
981.564
981.716
981.716
981.716
981.716
981.716
981.716
981.716
981.716
981.716
981.716
981.716
981.716
981.716
981.716
981.716
981.716
981.716
981.716
981.716
981.716
981.716
981.716
981.716
981.716
981.716
981.716
981.57
962.619
954.285
954.364
954.442
954.521
954.599
954.676
954.754
954.831
954.908
954.985
955.061
955.137
955.213
955.289
955.364
955.439
955.514
955.589
955.663
955.737
955.811
955.885
955.958
956.031
956.104
956.177
956.249
956.321
956.393
956.465
956.537
956.608
956.679
956.75
956.82
956.891
956.961
957.031
957.1
957.17
957.239
957.308
957.377
957.445
957.513
957.581
957.649
957.717
957.784
957.852
957.919
957.986
958.052
958.119
958.185
958.251
958.316
958.382
958.447
958.512
958.577
958.642
958.707
958.771
958.835
958.899
958.963
959.026
959.09
959.153
959.216
959.279
959.341
959.404
959.466
959.528
959.59
959.651
959.713
959.774
959.835
959.896
959.957
960.017
960.077
960.138
960.198
960.257
960.317
960.376
960.436
960.495
960.554
960.612
960.671
960.729
960.788
960.846
960.903
960.961
961.019
961.076
961.133
961.19
961.247
961.304
961.36
961.417
961.473
961.529
961.585
961.641
961.696
961.751
961.807
961.862
961.917
961.971
962.026
962.08
962.135
962.189
962.243
962.297
962.35
981.411
981.414
981.416
981.417
981.419
981.421
981.423
981.424
981.426
981.428
981.43
981.431
981.433
981.435
981.436
981.438
981.439
981.441
981.443
981.444
981.446
981.447
981.449
981.45
981.452
981.453
981.455
981.457
981.458
981.459
981.461
981.462
981.464
981.465
981.467
981.468
981.47
981.471
981.472
981.474
981.475
981.476
981.478
981.479
981.48
981.482
981.483
981.484
981.486
981.487
981.488
981.49
981.491
981.492
981.493
981.495
981.496
981.497
981.498
981.499
981.501
981.502
981.503
981.504
981.505
981.506
981.508
981.509
981.51
981.511
981.512
981.513
981.514
981.516
981.517
981.518
981.519
981.52
981.521
981.522
981.523
981.524
981.525
981.526
981.527
981.528
981.529
981.53
981.531
981.532
981.533
981.534
981.535
981.536
981.537
981.538
981.539
981.54
981.541
981.542
981.543
981.544
981.545
981.545
981.546
981.547
981.548
981.549
981.55
981.551
981.552
981.553
981.553
981.554
981.555
981.556
981.557
981.558
981.558
981.559
981.56
981.561
981.562
981.563
981.564
981.714
981.714
981.714
981.714
981.714
981.714
981.714
981.714
981.714
981.714
981.714
981.714
981.714
981.714
981.714
981.714
981.714
981.714
981.714
981.714
981.714
981.714
981.714
981.714
981.714
981.714
981.715
981.715
981.715
981.715
981.715
981.715
981.715
981.715
981.715
981.715
981.715
981.715
981.715
981.715
981.715
981.715
981.715
981.715
981.715
981.715
981.715
981.715
981.715
981.715
981.715
981.715
981.715
981.715
981.715
981.715
981.715
981.715
981.715
981.715
981.715
981.715
981.715
981.715
981.715
981.715
981.715
981.715
981.715
981.715
981.715
981.715
981.715
981.715
981.715
981.715
981.715
981.715
981.715
981.715
981.715
981.715
981.715
981.715
981.715
981.715
981.715
981.715
981.715
981.715
981.715
981.715
981.715
981.715
981.715
981.715
981.715
981.715
981.715
981.715
981.715
981.715
981.715
981.715
981.715
981.715
981.716
981.716
981.716
981.716
981.716
981.716
981.716
981.716
981.716
981.716
981.716
981.716
981.716
981.716
981.716
981.716
981.716
981.716
981.716
981.716
981.716
981.716
981.716
981.716
981.716
981.716
981.716
981.716
981.716
981.716
981.716
981.716
981.716
981.716
981.716
981.716
981.716
981.716
981.716
981.716
981.716
981.716
981.716
981.716
981.716
981.716
981.716
981.716
981.716
981.716
981.716
981.716
981.716
981.716
981.716
981.716
981.716
981.716
981.716
981.716
981.716
981.716
981.716
981.716
981.716
981.716
981.716
981.716
981.716
981.716
981.716
981.716
981.716
981.716
981.716
981.716
981.716
981.716
981.716
981.716
981.716
981.716
981.716
981.716
981.716
981.716
981.716
981.716
981.716
981.716
981.716
981.716
981.716
981.716
981.716
981.716
981.716
981.716
981.716
981.716
981.716
981.716
981.716
981.716
981.716
981.716
981.716
981.716
981.716
981.716
981.716
981.716
981.716
981.716
981.716
981.716
981.716
981.716
981.716
981.716
981.716
981.716
981.716
981.716
981.716
981.716
981.716
981.716
981.716
981.716
981.716
981.716
981.716
981.716
981.716
981.716
981.716
981.716
981.716
981.716
981.716
981.716
981.716
981.716
981.716
981.716
981.716
981.716
981.716
981.716
981.716
981.716
981.716
981.716
981.716
981.716
981.716
981.716
981.716
981.716
981.716
981.716
981.716
981.716
981.716
981.716
981.716
981.716
981.716
981.716
981.716
981.716
981.716
981.716
981.716
981.716
981.716
981.716
981.716
981.716
981.716
981.716
981.716
981.716
981.716
981.716
981.716
981.716
981.716
981.716
981.716
981.716
981.716
981.716
981.716
981.716
981.716
981.716
981.716
981.716
981.716
981.716
981.716
981.716
981.716
981.716
981.716
981.716
981.716
981.716
981.716
981.716
981.716
981.716
981.716
981.716
981.716
981.716
981.716
981.716
981.716
981.716
981.716
981.716
981.716
981.716
981.716
981.716
981.716
981.716
981.716
981.716
981.716
981.716
981.716
981.716
981.716
981.716
981.716
981.716
981.716
981.716
981.716
981.716
981.716
981.716
981.716
981.716
981.716
981.716
981.716
981.716
981.716
981.716
981.716
981.716
981.716
981.716
981.716
981.716
981.716
981.716
981.716
981.716
981.716
981.716
981.716
981.716
981.716
981.716
981.716
981.716
981.716
981.716
981.716
981.716
981.716
981.716
981.716
981.716
981.716
981.716
981.716
981.716
981.716
981.716
981.716
981.716
981.716
981.716
981.716
981.716
981.716
981.716
981.716
981.716
981.716
981.716
981.716
981.716
981.716
981.716
981.716
981.716
981.716
981.716
981.716
981.716
981.716
981.716
981.716
981.716
981.716
981.716
981.716
981.716
981.716
981.716
981.716
981.716
981.716
981.716
981.716
981.716
981.716
981.716
981.716
981.716
981.716
981.716
981.716
981.716
981.716
981.716
981.716
981.716
981.716
981.716
981.716
981.716
981.716
981.716
981.716
981.716
981.716
981.716
981.716
981.716
981.716
981.716
981.716
981.716
981.716
981.716
981.716
981.716
981.716
981.716
981.716
981.716
981.716
981.716
981.716
981.716
981.716
981.716
981.716
981.716
981.716
981.716
981.716
981.716
981.716
981.716
981.716
981.716
981.716
981.716
981.716
981.716
981.716
981.716
981.716
981.716
981.716
981.716
981.716
981.716
981.716
981.716
981.716
981.716
981.716
981.716
981.716
981.716
981.716
981.716
981.716
981.716
981.716
981.716
981.716
981.716
981.716
981.716
981.716
981.716
981.716
981.716
981.716
981.716
981.716
981.716
981.716
981.716
981.716
981.716
981.716
981.716
981.716
981.716
981.716
981.716
981.716
981.716
981.716
981.716
981.716
981.716
981.716
981.716
981.716
981.716
981.716
981.716
981.716
981.716
981.716
981.716
981.716
981.716
981.716
981.716
981.716
981.716
981.716
981.716
981.716
981.716
981.716
981.716
981.716
981.716
981.716
981.716
981.716
981.716
981.716
981.716
981.716
981.716
981.716
981.716
981.716
981.716
981.716
981.716
981.716
981.716
981.716
981.716
981.716
981.716
981.716
981.716
981.716
981.716
981.716
981.716
981.716
981.716
981.716
981.716
981.716
981.716
981.716
981.716
981.716
981.716
981.716
981.716
981.716
981.716
981.716
981.716
981.716
981.716
981.716
981.716
981.716
981.716
981.716
981.716
981.716
981.716
981.716
981.716
981.716
981.716
981.716
981.716
981.716
981.716
981.716
981.716
981.716
981.716
981.716
981.716
981.716
981.716
981.716
981.716
981.716
981.716
981.716
981.716
981.716
981.716
981.716
981.716
981.716
981.716
981.716
981.716
981.716
981.716
981.716
981.716
981.716
981.716
981.716
981.716
981.716
981.716
981.716
981.716
981.716
981.716
981.716
981.716
981.716
981.716
981.716
981.716
981.716
981.716
981.716
981.716
981.716
981.716
981.716
981.716
981.716
981.716