/*--------------------------------*- C++ -*----------------------------------*\
| =========                 |                                                 |
| \\      /  F ield         | OpenFOAM: The Open Source CFD Toolbox           |
|  \\    /   O peration     | Version:  2112                                  |
|   \\  /    A nd           | Website:  www.openfoam.com                      |
|    \\/     M anipulation  |                                                 |
\*---------------------------------------------------------------------------*/
FoamFile
{
    version     2.0;
    format      ascii;
    arch        "LSB;label=32;scalar=64";
    class       volScalarField;
    location    "7e-05";
    object      nut;
}
// * * * * * * * * * * * * * * * * * * * * * * * * * * * * * * * * * * * * * //

dimensions      [0 2 -1 0 0 0 0];

internalField   nonuniform List<scalar> 
13875
(
0.360482
2.17496
2.95554
3.46637
3.7714
3.94356
4.0328
4.07502
4.09328
4.10052
4.10316
4.10404
4.10425
4.10407
4.10327
4.10079
4.09367
4.07547
4.03331
3.94412
3.77201
3.46702
2.95606
2.17433
0.362137
0.559691
3.37644
4.4224
5.02925
5.38667
5.58324
5.68242
5.72806
5.74727
5.75469
5.75733
5.75818
5.75836
5.75817
5.75736
5.7548
5.74751
5.72845
5.68298
5.58402
5.38773
5.03072
4.42433
3.37821
0.56206
0.64517
4.1329
5.38561
6.04125
6.41224
6.61076
6.70852
6.75249
6.77057
6.77739
6.77975
6.78048
6.78062
6.78043
6.7797
6.77738
6.77063
6.75264
6.70875
6.61097
6.41224
6.0408
5.38404
4.12843
0.643403
0.618714
4.2867
5.60866
6.25004
6.59059
6.7642
6.84606
6.88152
6.89562
6.90077
6.90247
6.90296
6.90303
6.90288
6.90234
6.90064
6.89551
6.88143
6.84597
6.76397
6.58992
6.24831
5.60424
4.2767
0.615919
0.558587
3.97418
5.28596
5.87277
6.15182
6.28358
6.3423
6.3665
6.3757
6.37892
6.37995
6.38021
6.38023
6.38012
6.37979
6.37873
6.37549
6.36628
6.34206
6.28325
6.15122
5.87202
5.28543
3.97532
0.556802
0.448276
3.10418
4.1294
4.5671
4.76382
4.85144
4.88815
4.90245
4.90762
4.90934
4.90986
4.90997
4.90996
4.90989
4.90971
4.90914
4.90737
4.90217
4.88788
4.85118
4.76369
4.56769
4.1311
3.10958
0.447236
0.33751
2.05819
2.70702
2.97414
3.08865
3.13657
3.15554
3.16258
3.16503
3.16584
3.16608
3.16613
3.16613
3.16609
3.166
3.16572
3.16487
3.16235
3.15522
3.13607
3.0877
2.97265
2.70374
2.05008
0.33676
0.209587
0.726531
0.954044
1.04014
1.07607
1.09045
1.09601
1.09805
1.09877
1.09902
1.09909
1.09911
1.09911
1.09909
1.09905
1.09895
1.09868
1.09792
1.09583
1.09022
1.07572
1.03995
0.953187
0.724214
0.208874
0.069549
0.0795947
0.0886371
0.09058
0.0913304
0.0916141
0.0917323
0.0917811
0.0918016
0.0918105
0.091814
0.0918156
0.091816
0.0918151
0.091813
0.0918081
0.0917975
0.0917745
0.0917224
0.0916015
0.091315
0.0905902
0.0886283
0.0795634
0.0693478
0.0496623
0.258129
0.306427
0.306448
0.30502
0.304347
0.304066
0.303959
0.303923
0.303914
0.303916
0.303921
0.303928
0.303936
0.303945
0.303959
0.303983
0.304034
0.304157
0.304454
0.305142
0.306548
0.306565
0.258433
0.0498534
0.043413
0.256887
0.331914
0.337549
0.337756
0.337754
0.337752
0.337752
0.337751
0.337751
0.337751
0.337751
0.337751
0.337751
0.337751
0.337751
0.337751
0.337751
0.337751
0.337753
0.337755
0.337531
0.331595
0.25488
0.0428327
0.0391269
0.24437
0.329681
0.337501
0.337851
0.337853
0.337852
0.337851
0.337851
0.337851
0.337851
0.337851
0.337851
0.337851
0.337851
0.337851
0.337851
0.337851
0.337852
0.337853
0.337851
0.337508
0.329762
0.244661
0.0390447
0.0359073
0.232769
0.327179
0.337319
0.337848
0.337854
0.337852
0.337851
0.337851
0.337851
0.337851
0.337851
0.337851
0.337851
0.337851
0.337851
0.337851
0.337851
0.337852
0.337854
0.337848
0.337352
0.327604
0.234575
0.0360888
0.0336228
0.223872
0.324996
0.337131
0.337841
0.337855
0.337852
0.337851
0.337851
0.337851
0.337851
0.337851
0.337851
0.337851
0.337851
0.337851
0.337851
0.337851
0.337852
0.337855
0.337843
0.337193
0.325776
0.226873
0.0345159
0.032483
0.216917
0.323134
0.336941
0.337832
0.337855
0.337852
0.337851
0.337851
0.337851
0.337851
0.337851
0.337851
0.337851
0.337851
0.337851
0.337851
0.337852
0.337853
0.337856
0.337828
0.336812
0.321815
0.212854
0.0319022
0.0297859
0.204358
0.319031
0.336489
0.337806
0.337856
0.337853
0.337852
0.337851
0.337851
0.337851
0.337851
0.337851
0.337851
0.337851
0.337851
0.337851
0.337852
0.337853
0.337856
0.337802
0.336392
0.318149
0.201992
0.0292091
0.0296451
0.204691
0.319501
0.3365
0.337795
0.337853
0.337852
0.337852
0.337851
0.337851
0.337851
0.337851
0.337851
0.337851
0.337851
0.337851
0.337851
0.337852
0.337852
0.337853
0.337798
0.336552
0.319963
0.205976
0.0297058
0.0298147
0.207219
0.32036
0.336528
0.337781
0.337849
0.337851
0.337851
0.337851
0.337851
0.337851
0.337851
0.337851
0.337851
0.337851
0.337851
0.337851
0.337851
0.337851
0.337849
0.33778
0.336518
0.320281
0.206973
0.0298813
0.0287399
0.193899
0.314858
0.335765
0.337702
0.33784
0.33785
0.337851
0.337851
0.337851
0.337851
0.337851
0.337851
0.337851
0.337851
0.337851
0.337851
0.337851
0.33785
0.337842
0.337723
0.335987
0.316413
0.197442
0.0292106
0.0281243
0.183919
0.309377
0.334884
0.337604
0.33783
0.337849
0.337851
0.337851
0.337851
0.337851
0.337851
0.337851
0.337851
0.337851
0.337851
0.337851
0.337851
0.337849
0.337829
0.337598
0.334822
0.308947
0.182907
0.0278
0.031338
0.1974
0.315076
0.335704
0.337681
0.337837
0.33785
0.337851
0.337851
0.337851
0.337851
0.337851
0.337851
0.337851
0.337851
0.337851
0.337851
0.337851
0.337849
0.337834
0.337658
0.335471
0.313486
0.1938
0.0307464
0.034744
0.213296
0.32115
0.336514
0.337758
0.337844
0.337851
0.337851
0.337851
0.337851
0.337851
0.337851
0.337851
0.337851
0.337851
0.337851
0.337851
0.337851
0.33785
0.337843
0.33775
0.336438
0.32061
0.212022
0.0346525
0.0381904
0.228074
0.325699
0.33703
0.337801
0.337848
0.337851
0.337851
0.337851
0.337851
0.337851
0.337851
0.337851
0.337851
0.337851
0.337851
0.337851
0.337851
0.337851
0.337848
0.337804
0.337073
0.326175
0.229997
0.0385696
0.0416317
0.242732
0.32925
0.337365
0.337826
0.33785
0.337851
0.337851
0.337851
0.337851
0.337851
0.337851
0.337851
0.337851
0.337851
0.337851
0.337851
0.337851
0.337851
0.33785
0.337826
0.337366
0.32923
0.242519
0.0415133
0.0438515
0.250871
0.330883
0.337501
0.337835
0.33785
0.337851
0.337851
0.337851
0.337851
0.337851
0.337851
0.337851
0.337851
0.337851
0.337851
0.337851
0.337851
0.337851
0.33785
0.337835
0.337492
0.330765
0.250244
0.0437755
0.0463352
0.258382
0.332146
0.337591
0.33784
0.337851
0.337851
0.337851
0.337851
0.337851
0.337851
0.337851
0.337851
0.337851
0.337851
0.337851
0.337851
0.337851
0.337851
0.337851
0.337841
0.337603
0.332336
0.259608
0.0465799
0.0489804
0.266733
0.333364
0.337668
0.337844
0.337851
0.337851
0.337851
0.337851
0.337851
0.337851
0.337851
0.337851
0.337851
0.337851
0.337851
0.337851
0.337851
0.337851
0.337851
0.337844
0.337658
0.333187
0.265388
0.0486264
0.0509508
0.271902
0.334033
0.337708
0.337846
0.337851
0.337851
0.337851
0.337851
0.337851
0.337851
0.337851
0.337851
0.337851
0.337851
0.337851
0.337851
0.337851
0.337851
0.337851
0.337846
0.337706
0.334011
0.271792
0.0510619
0.0531256
0.276681
0.334583
0.337737
0.337847
0.337851
0.337851
0.337851
0.337851
0.337851
0.337851
0.337851
0.337851
0.337851
0.337851
0.337851
0.337851
0.337851
0.337851
0.337851
0.337848
0.337747
0.334786
0.278517
0.0535091
0.0557422
0.283669
0.335308
0.337772
0.337849
0.337851
0.337851
0.337851
0.337851
0.337851
0.337851
0.337851
0.337851
0.337851
0.337851
0.337851
0.337851
0.337851
0.337851
0.337851
0.337849
0.337765
0.335149
0.282003
0.0552453
0.0573423
0.287207
0.33564
0.337787
0.337849
0.337851
0.337851
0.337851
0.337851
0.337851
0.337851
0.337851
0.337851
0.337851
0.337851
0.337851
0.337851
0.337851
0.337851
0.337851
0.337849
0.337787
0.335647
0.287336
0.0575299
0.0589586
0.289778
0.335856
0.337796
0.33785
0.337851
0.337851
0.337851
0.337851
0.337851
0.337851
0.337851
0.337851
0.337851
0.337851
0.337851
0.337851
0.337851
0.337851
0.337851
0.33785
0.3378
0.335954
0.290947
0.0591972
0.0610167
0.294339
0.336217
0.33781
0.33785
0.337851
0.337851
0.337851
0.337851
0.337851
0.337851
0.337851
0.337851
0.337851
0.337851
0.337851
0.337851
0.337851
0.337851
0.337851
0.33785
0.337807
0.336144
0.293355
0.0607223
0.0622916
0.296665
0.336387
0.337816
0.33785
0.337851
0.337851
0.337851
0.337851
0.337851
0.337851
0.337851
0.337851
0.337851
0.337851
0.337851
0.337851
0.337851
0.337851
0.337851
0.337851
0.337817
0.336405
0.296933
0.0624662
0.0635338
0.298135
0.336485
0.33782
0.337851
0.337851
0.337851
0.337851
0.337851
0.337851
0.337851
0.337851
0.337851
0.337851
0.337851
0.337851
0.337851
0.337851
0.337851
0.337851
0.337851
0.337822
0.336543
0.298984
0.0636808
0.0651627
0.301326
0.336693
0.337826
0.337851
0.337851
0.337851
0.337851
0.337851
0.337851
0.337851
0.337851
0.337851
0.337851
0.337851
0.337851
0.337851
0.337851
0.337851
0.337851
0.337851
0.337824
0.336632
0.300369
0.0648898
0.0661837
0.302917
0.336789
0.337829
0.337851
0.337851
0.337851
0.337851
0.337851
0.337851
0.337851
0.337851
0.337851
0.337851
0.337851
0.337851
0.337851
0.337851
0.337851
0.337851
0.337851
0.33783
0.336798
0.303074
0.0663156
0.0671609
0.303836
0.336842
0.337831
0.337851
0.337851
0.337851
0.337851
0.337851
0.337851
0.337851
0.337851
0.337851
0.337851
0.337851
0.337851
0.337851
0.337851
0.337851
0.337851
0.337851
0.337832
0.336883
0.304551
0.0672748
0.0684099
0.306147
0.336971
0.337835
0.337851
0.337851
0.337851
0.337851
0.337851
0.337851
0.337851
0.337851
0.337851
0.337851
0.337851
0.337851
0.337851
0.337851
0.337851
0.337851
0.337851
0.337833
0.336926
0.30532
0.0681921
0.0691948
0.307253
0.337029
0.337836
0.337851
0.337851
0.337851
0.337851
0.337851
0.337851
0.337851
0.337851
0.337851
0.337851
0.337851
0.337851
0.337851
0.337851
0.337851
0.337851
0.337851
0.337837
0.337035
0.307358
0.0692927
0.0699282
0.307791
0.337056
0.337837
0.337851
0.337851
0.337851
0.337851
0.337851
0.337851
0.337851
0.337851
0.337851
0.337851
0.337851
0.337851
0.337851
0.337851
0.337851
0.337851
0.337851
0.337838
0.337088
0.308426
0.0700181
0.0708439
0.309499
0.337141
0.337839
0.337851
0.337851
0.337851
0.337851
0.337851
0.337851
0.337851
0.337851
0.337851
0.337851
0.337851
0.337851
0.337851
0.337851
0.337851
0.337851
0.337851
0.337838
0.337109
0.308828
0.0706903
0.071414
0.310273
0.337178
0.33784
0.337851
0.337851
0.337851
0.337851
0.337851
0.337851
0.337851
0.337851
0.337851
0.337851
0.337851
0.337851
0.337851
0.337851
0.337851
0.337851
0.337851
0.33784
0.33718
0.310316
0.0714747
0.0719313
0.310551
0.337191
0.337841
0.337851
0.337851
0.337851
0.337851
0.337851
0.337851
0.337851
0.337851
0.337851
0.337851
0.337851
0.337851
0.337851
0.337851
0.337851
0.337851
0.337851
0.337841
0.337216
0.311094
0.0719956
0.0725517
0.311808
0.337248
0.337842
0.337851
0.337851
0.337851
0.337851
0.337851
0.337851
0.337851
0.337851
0.337851
0.337851
0.337851
0.337851
0.337851
0.337851
0.337851
0.337851
0.337851
0.337841
0.337226
0.311313
0.0724614
0.07293
0.312343
0.337272
0.337843
0.337851
0.337851
0.337851
0.337851
0.337851
0.337851
0.337851
0.337851
0.337851
0.337851
0.337851
0.337851
0.337851
0.337851
0.337851
0.337851
0.337851
0.337843
0.337271
0.31232
0.0729582
0.0732605
0.312443
0.337276
0.337843
0.337851
0.337851
0.337851
0.337851
0.337851
0.337851
0.337851
0.337851
0.337851
0.337851
0.337851
0.337851
0.337851
0.337851
0.337851
0.337851
0.337851
0.337843
0.337295
0.312892
0.0732999
0.0736289
0.313353
0.337315
0.337844
0.337851
0.337851
0.337851
0.337851
0.337851
0.337851
0.337851
0.337851
0.337851
0.337851
0.337851
0.337851
0.337851
0.337851
0.337851
0.337851
0.337851
0.337843
0.337301
0.313015
0.0735834
0.0738452
0.313713
0.33733
0.337844
0.337851
0.337851
0.337851
0.337851
0.337851
0.337851
0.337851
0.337851
0.337851
0.337851
0.337851
0.337851
0.337851
0.337851
0.337851
0.337851
0.337851
0.337844
0.337325
0.313591
0.0738463
0.0740464
0.313967
0.337337
0.337844
0.337851
0.337851
0.337851
0.337851
0.337851
0.337851
0.337851
0.337851
0.337851
0.337851
0.337851
0.337851
0.337851
0.337851
0.337851
0.337851
0.337851
0.337844
0.337343
0.314129
0.0740571
0.152788
0.332932
0.337921
0.33796
0.337958
0.337956
0.337954
0.337953
0.337951
0.337949
0.337948
0.337946
0.337944
0.337943
0.337941
0.33794
0.337938
0.337937
0.337936
0.337934
0.337933
0.337932
0.337931
0.337929
0.337928
0.337927
0.337926
0.337919
0.33625
0.173435
0.144249
0.334692
0.337836
0.337855
0.337855
0.337855
0.337855
0.337854
0.337854
0.337854
0.337854
0.337854
0.337854
0.337854
0.337854
0.337854
0.337854
0.337854
0.337854
0.337853
0.337853
0.337853
0.337853
0.337853
0.337853
0.337853
0.337853
0.337846
0.335996
0.171562
0.151053
0.335549
0.337838
0.337851
0.337851
0.337851
0.337851
0.337851
0.337851
0.337851
0.337851
0.337851
0.337851
0.337851
0.337851
0.337851
0.337851
0.337851
0.337851
0.337851
0.337851
0.337851
0.337851
0.337851
0.337851
0.337851
0.337851
0.337844
0.335933
0.169908
0.154959
0.335517
0.337838
0.337851
0.337851
0.337851
0.337851
0.337851
0.337851
0.337851
0.337851
0.337851
0.337851
0.337851
0.337851
0.337851
0.337851
0.337851
0.337851
0.337851
0.337851
0.337851
0.337851
0.337851
0.337851
0.337851
0.337851
0.337843
0.335887
0.168506
0.154756
0.33537
0.337838
0.337851
0.337851
0.337851
0.337851
0.337851
0.337851
0.337851
0.337851
0.337851
0.337851
0.337851
0.337851
0.337851
0.337851
0.337851
0.337851
0.337851
0.337851
0.337851
0.337851
0.337851
0.337851
0.337851
0.337851
0.337843
0.335838
0.167231
0.154422
0.335352
0.337838
0.337851
0.337851
0.337851
0.337851
0.337851
0.337851
0.337851
0.337851
0.337851
0.337851
0.337851
0.337851
0.337851
0.337851
0.337851
0.337851
0.337851
0.337851
0.337851
0.337851
0.337851
0.337851
0.337851
0.337851
0.337843
0.335788
0.166013
0.154457
0.335373
0.337839
0.337851
0.337851
0.337851
0.337851
0.337851
0.337851
0.337851
0.337851
0.337851
0.337851
0.337851
0.337851
0.337851
0.337851
0.337851
0.337851
0.337851
0.337851
0.337851
0.337851
0.337851
0.337851
0.337851
0.337851
0.337843
0.335739
0.16486
0.154909
0.335404
0.337839
0.337851
0.337851
0.337851
0.337851
0.337851
0.337851
0.337851
0.337851
0.337851
0.337851
0.337851
0.337851
0.337851
0.337851
0.337851
0.337851
0.337851
0.337851
0.337851
0.337851
0.337851
0.337851
0.337851
0.337851
0.337842
0.335694
0.163794
0.155368
0.335418
0.337839
0.337851
0.337851
0.337851
0.337851
0.337851
0.337851
0.337851
0.337851
0.337851
0.337851
0.337851
0.337851
0.337851
0.337851
0.337851
0.337851
0.337851
0.337851
0.337851
0.337851
0.337851
0.337851
0.337851
0.337851
0.337842
0.335653
0.162824
0.155665
0.335416
0.33784
0.337851
0.337851
0.337851
0.337851
0.337851
0.337851
0.337851
0.337851
0.337851
0.337851
0.337851
0.337851
0.337851
0.337851
0.337851
0.337851
0.337851
0.337851
0.337851
0.337851
0.337851
0.337851
0.337851
0.337851
0.337842
0.335615
0.161948
0.155776
0.335406
0.33784
0.337851
0.337851
0.337851
0.337851
0.337851
0.337851
0.337851
0.337851
0.337851
0.337851
0.337851
0.337851
0.337851
0.337851
0.337851
0.337851
0.337851
0.337851
0.337851
0.337851
0.337851
0.337851
0.337851
0.337851
0.337842
0.335581
0.161153
0.15577
0.335396
0.33784
0.337851
0.337851
0.337851
0.337851
0.337851
0.337851
0.337851
0.337851
0.337851
0.337851
0.337851
0.337851
0.337851
0.337851
0.337851
0.337851
0.337851
0.337851
0.337851
0.337851
0.337851
0.337851
0.337851
0.337851
0.337841
0.335548
0.160429
0.155736
0.335386
0.33784
0.337851
0.337851
0.337851
0.337851
0.337851
0.337851
0.337851
0.337851
0.337851
0.337851
0.337851
0.337851
0.337851
0.337851
0.337851
0.337851
0.337851
0.337851
0.337851
0.337851
0.337851
0.337851
0.337851
0.337851
0.337841
0.335518
0.15977
0.155651
0.33538
0.33784
0.337851
0.337851
0.337851
0.337851
0.337851
0.337851
0.337851
0.337851
0.337851
0.337851
0.337851
0.337851
0.337851
0.337851
0.337851
0.337851
0.337851
0.337851
0.337851
0.337851
0.337851
0.337851
0.337851
0.337851
0.337841
0.33549
0.159168
0.155667
0.335376
0.33784
0.337851
0.337851
0.337851
0.337851
0.337851
0.337851
0.337851
0.337851
0.337851
0.337851
0.337851
0.337851
0.337851
0.337851
0.337851
0.337851
0.337851
0.337851
0.337851
0.337851
0.337851
0.337851
0.337851
0.337851
0.337841
0.335465
0.158626
0.155591
0.335366
0.33784
0.337851
0.337851
0.337851
0.337851
0.337851
0.337851
0.337851
0.337851
0.337851
0.337851
0.337851
0.337851
0.337851
0.337851
0.337851
0.337851
0.337851
0.337851
0.337851
0.337851
0.337851
0.337851
0.337851
0.337851
0.337841
0.335442
0.15814
0.155558
0.335363
0.33784
0.337851
0.337851
0.337851
0.337851
0.337851
0.337851
0.337851
0.337851
0.337851
0.337851
0.337851
0.337851
0.337851
0.337851
0.337851
0.337851
0.337851
0.337851
0.337851
0.337851
0.337851
0.337851
0.337851
0.337851
0.33784
0.335421
0.157705
0.155559
0.335358
0.33784
0.337851
0.337851
0.337851
0.337851
0.337851
0.337851
0.337851
0.337851
0.337851
0.337851
0.337851
0.337851
0.337851
0.337851
0.337851
0.337851
0.337851
0.337851
0.337851
0.337851
0.337851
0.337851
0.337851
0.337851
0.33784
0.335403
0.157323
0.155521
0.335353
0.33784
0.337851
0.337851
0.337851
0.337851
0.337851
0.337851
0.337851
0.337851
0.337851
0.337851
0.337851
0.337851
0.337851
0.337851
0.337851
0.337851
0.337851
0.337851
0.337851
0.337851
0.337851
0.337851
0.337851
0.337851
0.33784
0.335388
0.156989
0.155534
0.335352
0.33784
0.337851
0.337851
0.337851
0.337851
0.337851
0.337851
0.337851
0.337851
0.337851
0.337851
0.337851
0.337851
0.337851
0.337851
0.337851
0.337851
0.337851
0.337851
0.337851
0.337851
0.337851
0.337851
0.337851
0.337851
0.33784
0.335374
0.1567
0.155554
0.335349
0.33784
0.337851
0.337851
0.337851
0.337851
0.337851
0.337851
0.337851
0.337851
0.337851
0.337851
0.337851
0.337851
0.337851
0.337851
0.337851
0.337851
0.337851
0.337851
0.337851
0.337851
0.337851
0.337851
0.337851
0.337851
0.33784
0.335363
0.156457
0.155564
0.335348
0.33784
0.337851
0.337851
0.337851
0.337851
0.337851
0.337851
0.337851
0.337851
0.337851
0.337851
0.337851
0.337851
0.337851
0.337851
0.337851
0.337851
0.337851
0.337851
0.337851
0.337851
0.337851
0.337851
0.337851
0.337851
0.33784
0.335354
0.156254
0.155627
0.335349
0.33784
0.337851
0.337851
0.337851
0.337851
0.337851
0.337851
0.337851
0.337851
0.337851
0.337851
0.337851
0.337851
0.337851
0.337851
0.337851
0.337851
0.337851
0.337851
0.337851
0.337851
0.337851
0.337851
0.337851
0.337851
0.33784
0.335347
0.15609
0.155682
0.33535
0.33784
0.337851
0.337851
0.337851
0.337851
0.337851
0.337851
0.337851
0.337851
0.337851
0.337851
0.337851
0.337851
0.337851
0.337851
0.337851
0.337851
0.337851
0.337851
0.337851
0.337851
0.337851
0.337851
0.337851
0.337851
0.33784
0.335342
0.155964
0.155751
0.335574
0.337842
0.337851
0.337851
0.337851
0.337851
0.337851
0.337851
0.337851
0.337851
0.337851
0.337851
0.337851
0.337851
0.337851
0.337851
0.337851
0.337851
0.337851
0.337851
0.337851
0.337851
0.337851
0.337851
0.337851
0.337851
0.33784
0.335339
0.155871
0.173434
0.33625
0.337919
0.337926
0.337927
0.337928
0.337929
0.337931
0.337932
0.337933
0.337934
0.337936
0.337937
0.337938
0.33794
0.337941
0.337943
0.337944
0.337946
0.337948
0.337949
0.337951
0.337953
0.337955
0.337956
0.337958
0.33796
0.337921
0.332928
0.152746
0.171561
0.335996
0.337846
0.337853
0.337853
0.337853
0.337853
0.337853
0.337853
0.337853
0.337853
0.337854
0.337854
0.337854
0.337854
0.337854
0.337854
0.337854
0.337854
0.337854
0.337854
0.337854
0.337854
0.337855
0.337855
0.337855
0.337855
0.337836
0.334693
0.144269
0.169905
0.335933
0.337844
0.337851
0.337851
0.337851
0.337851
0.337851
0.337851
0.337851
0.337851
0.337851
0.337851
0.337851
0.337851
0.337851
0.337851
0.337851
0.337851
0.337851
0.337851
0.337851
0.337851
0.337851
0.337851
0.337851
0.337851
0.337838
0.335549
0.151018
0.168505
0.335887
0.337843
0.337851
0.337851
0.337851
0.337851
0.337851
0.337851
0.337851
0.337851
0.337851
0.337851
0.337851
0.337851
0.337851
0.337851
0.337851
0.337851
0.337851
0.337851
0.337851
0.337851
0.337851
0.337851
0.337851
0.337851
0.337839
0.335521
0.15501
0.167232
0.335838
0.337843
0.337851
0.337851
0.337851
0.337851
0.337851
0.337851
0.337851
0.337851
0.337851
0.337851
0.337851
0.337851
0.337851
0.337851
0.337851
0.337851
0.337851
0.337851
0.337851
0.337851
0.337851
0.337851
0.337851
0.337851
0.337838
0.335368
0.154777
0.166012
0.335788
0.337843
0.337851
0.337851
0.337851
0.337851
0.337851
0.337851
0.337851
0.337851
0.337851
0.337851
0.337851
0.337851
0.337851
0.337851
0.337851
0.337851
0.337851
0.337851
0.337851
0.337851
0.337851
0.337851
0.337851
0.337851
0.337838
0.335351
0.15435
0.164861
0.335739
0.337843
0.337851
0.337851
0.337851
0.337851
0.337851
0.337851
0.337851
0.337851
0.337851
0.337851
0.337851
0.337851
0.337851
0.337851
0.337851
0.337851
0.337851
0.337851
0.337851
0.337851
0.337851
0.337851
0.337851
0.337851
0.337839
0.335378
0.154553
0.163795
0.335694
0.337842
0.337851
0.337851
0.337851
0.337851
0.337851
0.337851
0.337851
0.337851
0.337851
0.337851
0.337851
0.337851
0.337851
0.337851
0.337851
0.337851
0.337851
0.337851
0.337851
0.337851
0.337851
0.337851
0.337851
0.337851
0.337839
0.335399
0.154857
0.162824
0.335653
0.337842
0.337851
0.337851
0.337851
0.337851
0.337851
0.337851
0.337851
0.337851
0.337851
0.337851
0.337851
0.337851
0.337851
0.337851
0.337851
0.337851
0.337851
0.337851
0.337851
0.337851
0.337851
0.337851
0.337851
0.337851
0.337839
0.33542
0.155375
0.161949
0.335616
0.337842
0.337851
0.337851
0.337851
0.337851
0.337851
0.337851
0.337851
0.337851
0.337851
0.337851
0.337851
0.337851
0.337851
0.337851
0.337851
0.337851
0.337851
0.337851
0.337851
0.337851
0.337851
0.337851
0.337851
0.337851
0.33784
0.335415
0.155687
0.161153
0.33558
0.337842
0.337851
0.337851
0.337851
0.337851
0.337851
0.337851
0.337851
0.337851
0.337851
0.337851
0.337851
0.337851
0.337851
0.337851
0.337851
0.337851
0.337851
0.337851
0.337851
0.337851
0.337851
0.337851
0.337851
0.337851
0.33784
0.335404
0.155724
0.160429
0.335548
0.337841
0.337851
0.337851
0.337851
0.337851
0.337851
0.337851
0.337851
0.337851
0.337851
0.337851
0.337851
0.337851
0.337851
0.337851
0.337851
0.337851
0.337851
0.337851
0.337851
0.337851
0.337851
0.337851
0.337851
0.337851
0.33784
0.335399
0.155812
0.15977
0.335518
0.337841
0.337851
0.337851
0.337851
0.337851
0.337851
0.337851
0.337851
0.337851
0.337851
0.337851
0.337851
0.337851
0.337851
0.337851
0.337851
0.337851
0.337851
0.337851
0.337851
0.337851
0.337851
0.337851
0.337851
0.337851
0.33784
0.335384
0.155729
0.159168
0.33549
0.337841
0.337851
0.337851
0.337851
0.337851
0.337851
0.337851
0.337851
0.337851
0.337851
0.337851
0.337851
0.337851
0.337851
0.337851
0.337851
0.337851
0.337851
0.337851
0.337851
0.337851
0.337851
0.337851
0.337851
0.337851
0.33784
0.335379
0.155646
0.158626
0.335465
0.337841
0.337851
0.337851
0.337851
0.337851
0.337851
0.337851
0.337851
0.337851
0.337851
0.337851
0.337851
0.337851
0.337851
0.337851
0.337851
0.337851
0.337851
0.337851
0.337851
0.337851
0.337851
0.337851
0.337851
0.337851
0.33784
0.335376
0.155663
0.15814
0.335442
0.337841
0.337851
0.337851
0.337851
0.337851
0.337851
0.337851
0.337851
0.337851
0.337851
0.337851
0.337851
0.337851
0.337851
0.337851
0.337851
0.337851
0.337851
0.337851
0.337851
0.337851
0.337851
0.337851
0.337851
0.337851
0.33784
0.335366
0.155605
0.157706
0.335421
0.33784
0.337851
0.337851
0.337851
0.337851
0.337851
0.337851
0.337851
0.337851
0.337851
0.337851
0.337851
0.337851
0.337851
0.337851
0.337851
0.337851
0.337851
0.337851
0.337851
0.337851
0.337851
0.337851
0.337851
0.337851
0.33784
0.335362
0.155545
0.157323
0.335403
0.33784
0.337851
0.337851
0.337851
0.337851
0.337851
0.337851
0.337851
0.337851
0.337851
0.337851
0.337851
0.337851
0.337851
0.337851
0.337851
0.337851
0.337851
0.337851
0.337851
0.337851
0.337851
0.337851
0.337851
0.337851
0.33784
0.33536
0.155556
0.156989
0.335388
0.33784
0.337851
0.337851
0.337851
0.337851
0.337851
0.337851
0.337851
0.337851
0.337851
0.337851
0.337851
0.337851
0.337851
0.337851
0.337851
0.337851
0.337851
0.337851
0.337851
0.337851
0.337851
0.337851
0.337851
0.337851
0.33784
0.335353
0.155539
0.156701
0.335374
0.33784
0.337851
0.337851
0.337851
0.337851
0.337851
0.337851
0.337851
0.337851
0.337851
0.337851
0.337851
0.337851
0.337851
0.337851
0.337851
0.337851
0.337851
0.337851
0.337851
0.337851
0.337851
0.337851
0.337851
0.337851
0.33784
0.33535
0.155519
0.156456
0.335363
0.33784
0.337851
0.337851
0.337851
0.337851
0.337851
0.337851
0.337851
0.337851
0.337851
0.337851
0.337851
0.337851
0.337851
0.337851
0.337851
0.337851
0.337851
0.337851
0.337851
0.337851
0.337851
0.337851
0.337851
0.337851
0.33784
0.33535
0.155551
0.156254
0.335354
0.33784
0.337851
0.337851
0.337851
0.337851
0.337851
0.337851
0.337851
0.337851
0.337851
0.337851
0.337851
0.337851
0.337851
0.337851
0.337851
0.337851
0.337851
0.337851
0.337851
0.337851
0.337851
0.337851
0.337851
0.337851
0.33784
0.335348
0.155582
0.15609
0.335347
0.33784
0.337851
0.337851
0.337851
0.337851
0.337851
0.337851
0.337851
0.337851
0.337851
0.337851
0.337851
0.337851
0.337851
0.337851
0.337851
0.337851
0.337851
0.337851
0.337851
0.337851
0.337851
0.337851
0.337851
0.337851
0.33784
0.335348
0.155612
0.155964
0.335342
0.33784
0.337851
0.337851
0.337851
0.337851
0.337851
0.337851
0.337851
0.337851
0.337851
0.337851
0.337851
0.337851
0.337851
0.337851
0.337851
0.337851
0.337851
0.337851
0.337851
0.337851
0.337851
0.337851
0.337851
0.337851
0.33784
0.335351
0.155683
0.155871
0.335339
0.33784
0.337851
0.337851
0.337851
0.337851
0.337851
0.337851
0.337851
0.337851
0.337851
0.337851
0.337851
0.337851
0.337851
0.337851
0.337851
0.337851
0.337851
0.337851
0.337851
0.337851
0.337851
0.337851
0.337851
0.337851
0.337842
0.335574
0.155754
0.126755
0.12699
0.127225
0.127459
0.127694
0.127929
0.128163
0.128398
0.128633
0.128867
0.129102
0.129336
0.129571
0.129806
0.13004
0.130275
0.13051
0.130744
0.130979
0.131214
0.131448
0.131683
0.131918
0.132152
0.132387
0.132621
0.132856
0.133091
0.133325
0.13356
0.133795
0.134029
0.134264
0.134499
0.134733
0.134968
0.135203
0.135437
0.135672
0.135907
0.136141
0.136376
0.136611
0.136845
0.13708
0.137315
0.137549
0.137784
0.138019
0.138253
0.138488
0.138723
0.138957
0.139192
0.139427
0.139661
0.139896
0.140131
0.140365
0.1406
0.140835
0.141069
0.141304
0.141539
0.141773
0.142008
0.142243
0.142477
0.142712
0.142947
0.143181
0.143416
0.143651
0.143885
0.14412
0.144355
0.144589
0.144824
0.145059
0.145293
0.145528
0.145763
0.145997
0.146232
0.146467
0.146701
0.146936
0.147171
0.147406
0.14764
0.147875
0.14811
0.148344
0.148579
0.148814
0.149048
0.149283
0.149518
0.149752
0.149987
0.150222
0.150456
0.150691
0.150926
0.151161
0.151395
0.15163
0.151865
0.152099
0.152334
0.152569
0.152803
0.153038
0.153273
0.153507
0.153742
0.153977
0.154212
0.154446
0.154681
0.154916
0.15515
0.155385
0.15562
0.155854
0.33287
0.33291
0.332939
0.332967
0.332995
0.333024
0.333051
0.333079
0.333107
0.333134
0.333161
0.333188
0.333215
0.333241
0.333267
0.333294
0.33332
0.333345
0.333371
0.333397
0.333422
0.333447
0.333472
0.333497
0.333521
0.333546
0.33357
0.333594
0.333618
0.333642
0.333666
0.333689
0.333712
0.333736
0.333759
0.333781
0.333804
0.333827
0.333849
0.333871
0.333893
0.333915
0.333937
0.333959
0.33398
0.334002
0.334023
0.334044
0.334065
0.334086
0.334107
0.334127
0.334148
0.334168
0.334188
0.334208
0.334228
0.334248
0.334267
0.334287
0.334306
0.334326
0.334345
0.334364
0.334383
0.334401
0.33442
0.334439
0.334457
0.334475
0.334493
0.334512
0.33453
0.334547
0.334565
0.334583
0.3346
0.334618
0.334635
0.334652
0.334669
0.334686
0.334703
0.33472
0.334736
0.334753
0.334769
0.334786
0.334802
0.334818
0.334834
0.33485
0.334866
0.334882
0.334897
0.334913
0.334928
0.334944
0.334959
0.334974
0.334989
0.335004
0.335019
0.335034
0.335048
0.335063
0.335078
0.335092
0.335106
0.335121
0.335135
0.335149
0.335163
0.335177
0.335191
0.335205
0.335218
0.335232
0.335245
0.335259
0.335272
0.335285
0.335299
0.335312
0.335328
0.337816
0.337816
0.337817
0.337817
0.337817
0.337818
0.337818
0.337818
0.337819
0.337819
0.337819
0.33782
0.33782
0.33782
0.33782
0.337821
0.337821
0.337821
0.337822
0.337822
0.337822
0.337822
0.337823
0.337823
0.337823
0.337824
0.337824
0.337824
0.337824
0.337825
0.337825
0.337825
0.337825
0.337825
0.337826
0.337826
0.337826
0.337826
0.337827
0.337827
0.337827
0.337827
0.337828
0.337828
0.337828
0.337828
0.337828
0.337829
0.337829
0.337829
0.337829
0.337829
0.33783
0.33783
0.33783
0.33783
0.33783
0.337831
0.337831
0.337831
0.337831
0.337831
0.337831
0.337832
0.337832
0.337832
0.337832
0.337832
0.337832
0.337833
0.337833
0.337833
0.337833
0.337833
0.337833
0.337834
0.337834
0.337834
0.337834
0.337834
0.337834
0.337834
0.337835
0.337835
0.337835
0.337835
0.337835
0.337835
0.337835
0.337836
0.337836
0.337836
0.337836
0.337836
0.337836
0.337836
0.337837
0.337837
0.337837
0.337837
0.337837
0.337837
0.337837
0.337837
0.337838
0.337838
0.337838
0.337838
0.337838
0.337838
0.337838
0.337838
0.337838
0.337839
0.337839
0.337839
0.337839
0.337839
0.337839
0.337839
0.337839
0.337839
0.337839
0.33784
0.33784
0.337851
0.337851
0.337851
0.337851
0.337851
0.337851
0.337851
0.337851
0.337851
0.337851
0.337851
0.337851
0.337851
0.337851
0.337851
0.337851
0.337851
0.337851
0.337851
0.337851
0.337851
0.337851
0.337851
0.337851
0.337851
0.337851
0.337851
0.337851
0.337851
0.337851
0.337851
0.337851
0.337851
0.337851
0.337851
0.337851
0.337851
0.337851
0.337851
0.337851
0.337851
0.337851
0.337851
0.337851
0.337851
0.337851
0.337851
0.337851
0.337851
0.337851
0.337851
0.337851
0.337851
0.337851
0.337851
0.337851
0.337851
0.337851
0.337851
0.337851
0.337851
0.337851
0.337851
0.337851
0.337851
0.337851
0.337851
0.337851
0.337851
0.337851
0.337851
0.337851
0.337851
0.337851
0.337851
0.337851
0.337851
0.337851
0.337851
0.337851
0.337851
0.337851
0.337851
0.337851
0.337851
0.337851
0.337851
0.337851
0.337851
0.337851
0.337851
0.337851
0.337851
0.337851
0.337851
0.337851
0.337851
0.337851
0.337851
0.337851
0.337851
0.337851
0.337851
0.337851
0.337851
0.337851
0.337851
0.337851
0.337851
0.337851
0.337851
0.337851
0.337851
0.337851
0.337851
0.337851
0.337851
0.337851
0.337851
0.337851
0.337851
0.337851
0.337851
0.337851
0.337851
0.337851
0.337851
0.337851
0.337851
0.337851
0.337851
0.337851
0.337851
0.337851
0.337851
0.337851
0.337851
0.337851