/*--------------------------------*- C++ -*----------------------------------*\
| =========                 |                                                 |
| \\      /  F ield         | OpenFOAM: The Open Source CFD Toolbox           |
|  \\    /   O peration     | Version:  2112                                  |
|   \\  /    A nd           | Website:  www.openfoam.com                      |
|    \\/     M anipulation  |                                                 |
\*---------------------------------------------------------------------------*/
FoamFile
{
    version     2.0;
    format      ascii;
    arch        "LSB;label=32;scalar=64";
    class       surfaceScalarField;
    location    "7e-05";
    object      phi;
}
// * * * * * * * * * * * * * * * * * * * * * * * * * * * * * * * * * * * * * //

dimensions      [1 0 -1 0 0 0 0];

oriented        oriented;

internalField   nonuniform List<scalar> 
27436
(
-0.832624
8.75928
-0.500938
7.90297
-0.305591
7.97383
-0.199796
8.03253
-0.13205
8.06527
-0.0886953
8.08739
-0.0606153
8.10046
-0.0415022
8.10748
-0.027125
8.11089
-0.0149974
8.11242
-0.00381757
8.11304
0.0069838
8.11327
0.0176836
8.11332
0.0285113
8.11328
0.039702
8.11302
0.0517252
8.11233
0.0659714
8.11084
0.0849819
8.10751
0.112926
8.10057
0.156088
8.08752
0.22346
8.0654
0.3286
8.0325
0.522798
7.9733
0.850925
7.90113
8.76794
-0.784399
9.82646
-0.535199
7.68878
-0.331502
7.5664
-0.206446
7.6636
-0.131146
7.72788
-0.0855674
7.77107
-0.0576099
7.79681
-0.0392612
7.81065
-0.0256699
7.81725
-0.0142135
7.82013
-0.00361423
7.82127
0.00666193
7.82169
0.016857
7.82179
0.0271624
7.82166
0.0377778
7.82124
0.0491512
7.82019
0.0626049
7.81736
0.0807998
7.81074
0.108545
7.797
0.153786
7.77143
0.228559
7.72846
0.352875
7.6643
0.556083
7.56684
0.807884
7.69178
9.85818
-0.636215
10.0468
-0.50611
7.09682
-0.35202
7.11711
-0.2373
7.28128
-0.168399
7.38605
-0.126138
7.45158
-0.0996607
7.48882
-0.0814253
7.50722
-0.0670315
7.51543
-0.0542819
7.51874
-0.0421749
7.51995
-0.0302911
7.52038
-0.0184539
7.52048
-0.00654263
7.52031
0.00559413
7.5199
0.0183346
7.51884
0.0326822
7.51557
0.0508658
7.50731
0.0772893
7.48901
0.119522
7.45202
0.18836
7.38693
0.301247
7.28405
0.453182
7.12169
0.58092
7.10089
10.0126
-0.215068
11.7828
-0.251097
8.6258
-0.273715
9.23732
-0.225872
9.66584
-0.175261
9.79606
-0.137279
9.83288
-0.109544
9.85826
-0.087921
9.87141
-0.0694381
9.87734
-0.0523984
9.87975
-0.036008
9.8807
-0.0198564
9.88107
-0.00372805
9.88114
0.0124534
9.88106
0.0288578
9.88077
0.045892
9.87993
0.0643587
9.87758
0.0859033
9.87171
0.113514
9.85865
0.151298
9.83341
0.201429
9.79664
0.24772
9.67248
0.219879
9.25995
0.183145
8.63134
11.7213
0.476759
10.0275
0.238774
9.03069
0.00736401
9.24144
-0.0762242
9.19038
-0.0904406
9.21091
-0.0811767
9.23838
-0.0657893
9.2561
-0.049774
9.26503
-0.0342785
9.269
-0.0192714
9.27063
-0.0045367
9.27129
0.010074
9.27155
0.0246479
9.27159
0.0392597
9.27151
0.0540021
9.27126
0.0690199
9.2706
0.0844844
9.26897
0.100371
9.26506
0.11545
9.25631
0.124215
9.23898
0.109413
9.21228
0.0252512
9.1935
-0.206168
9.24768
-0.431521
9.02358
10.0157
0.559387
7.38575
0.333462
7.63321
0.11726
7.62687
0.0135656
7.5656
-0.0224709
7.58076
-0.0282734
7.59131
-0.0241817
7.5981
-0.017441
7.60164
-0.0102423
7.60332
-0.00308805
7.60408
0.00399413
7.60441
0.0110126
7.60456
0.0179911
7.60459
0.024991
7.60451
0.0320579
7.60432
0.0392234
7.60388
0.0464192
7.60303
0.0531061
7.6013
0.0570461
7.59784
0.051132
7.59138
0.0157816
7.581
-0.0860901
7.56852
-0.301947
7.62693
-0.522847
7.62571
7.40418
0.189728
3.45547
0.138794
3.41202
0.0573108
3.43033
0.0117335
3.41864
-0.0119217
3.41921
-0.0231023
3.41997
-0.0296635
3.421
-0.0349545
3.42178
-0.0400072
3.42225
-0.0450636
3.42251
-0.0501519
3.42263
-0.0552656
3.42273
-0.0603966
3.42279
-0.0655169
3.42279
-0.0706006
3.42274
-0.0756383
3.42262
-0.0806566
3.42237
-0.0858923
3.4219
-0.092463
3.42116
-0.103558
3.42021
-0.126692
3.41949
-0.174904
3.42068
-0.247849
3.42992
-0.294481
3.40951
3.43411
0.0370919
0.477515
0.0424568
0.512928
0.0394614
0.536985
0.0317495
0.533476
0.0267642
0.534071
0.0233931
0.535118
0.0205419
0.535977
0.0177857
0.536464
0.0150209
0.536704
0.0122382
0.536814
0.00944106
0.536859
0.00663752
0.536879
0.00383204
0.536884
0.00102712
0.536872
-0.00176882
0.536845
-0.00455101
0.536783
-0.00731348
0.536653
-0.0100718
0.536386
-0.0129438
0.535868
-0.0163711
0.534993
-0.0215174
0.533938
-0.0287095
0.533789
-0.0315797
0.537201
-0.0260712
0.512631
0.474013
5.48734e-05
0.0332297
0.000722083
0.0371363
0.000832931
0.038909
0.000763306
0.0389868
0.000732005
0.039058
0.000736372
0.0391026
0.00074745
0.0391328
0.000757716
0.03915
0.000766174
0.0391595
0.000773533
0.039165
0.000780263
0.0391685
0.000786695
0.0391712
0.00079302
0.0391736
0.000799399
0.0391755
0.000806117
0.0391768
0.0008134
0.039177
0.000821734
0.039175
0.000831506
0.0391689
0.0008412
0.0391547
0.000842202
0.0391282
0.000804454
0.0390881
0.000740076
0.039037
0.000785743
0.0389611
0.00134891
0.0371796
0.0331669
-0.00369974
0.01322
-0.00576678
0.0153659
-0.00675422
0.0170213
-0.00643843
0.0174754
-0.00575976
0.0175758
-0.00501806
0.0175898
-0.00426768
0.0175914
-0.00351616
0.0175914
-0.00276445
0.0175913
-0.00201272
0.0175911
-0.00126098
0.0175909
-0.000509255
0.0175908
0.000242458
0.0175907
0.000994152
0.0175906
0.00174582
0.0175906
0.00249746
0.0175905
0.00324903
0.0175905
0.00400037
0.0175904
0.00475049
0.0175901
0.00549158
0.0175881
0.00616938
0.0175726
0.00648352
0.0174634
0.00550938
0.0169644
0.00352334
0.0151888
0.0129552
-0.00343161
0.0129001
-0.00664546
0.0135833
-0.00858943
0.015601
-0.00838561
0.0161157
-0.00750403
0.0162775
-0.00648858
0.0163061
-0.00545295
0.0163097
-0.0044147
0.0163101
-0.00337616
0.0163102
-0.00233758
0.0163102
-0.00129901
0.0163102
-0.000260433
0.0163102
0.000778144
0.0163102
0.00181672
0.0163102
0.0028553
0.0163102
0.00389387
0.0163102
0.00493242
0.0163102
0.00597065
0.0163102
0.00700603
0.0163098
0.00801951
0.0163063
0.00888901
0.0162787
0.00904307
0.0161209
0.00696864
0.015613
0.00354869
0.01355
0.0129631
-0.00298462
0.0121223
-0.00658756
0.0121861
-0.00913331
0.0144269
-0.00917189
0.0149582
-0.00830144
0.0151417
-0.00722452
0.0151756
-0.00611348
0.0151813
-0.00499766
0.015182
-0.00388127
0.0151821
-0.00276482
0.0151821
-0.00164836
0.0151821
-0.000531895
0.0151821
0.000584566
0.0151821
0.00170103
0.0151821
0.00281749
0.0151821
0.00393394
0.0151821
0.00505034
0.0151821
0.00616618
0.015182
0.0072774
0.0151814
0.00835541
0.0151762
0.00923083
0.0151448
0.0092047
0.0149722
0.00667057
0.0144761
0.00306269
0.0122923
0.0123727
-0.00236823
0.0117754
-0.00607965
0.0112619
-0.00898995
0.0133465
-0.00925979
0.0138215
-0.00846217
0.0140106
-0.00739442
0.0140489
-0.00627747
0.0140552
-0.00515298
0.014056
-0.00402752
0.0140561
-0.00290195
0.0140561
-0.00177636
0.0140561
-0.000650774
0.0140561
0.000474813
0.0140561
0.0016004
0.0140561
0.00272599
0.0140561
0.00385156
0.0140561
0.00497704
0.0140561
0.00610163
0.014056
0.00721936
0.0140553
0.00829173
0.0140499
0.00911066
0.0140163
0.00890603
0.0138478
0.00612624
0.0134233
0.00250209
0.0114724
0.0121072
-0.00183872
0.0116287
-0.00542891
0.0107861
-0.00843817
0.0124368
-0.0089037
0.0128007
-0.00823951
0.0129639
-0.00726319
0.0129992
-0.0062253
0.0130054
-0.00517722
0.0130062
-0.00412769
0.0130064
-0.00307798
0.0130064
-0.00202825
0.0130064
-0.000978523
0.0130064
7.12079e-05
0.0130064
0.00112094
0.0130064
0.00217067
0.0130064
0.00322038
0.0130064
0.00426993
0.0130063
0.00531816
0.0130062
0.00635713
0.0130051
0.00733979
0.0129978
0.00803339
0.0129566
0.0076613
0.0127709
0.00478589
0.0123367
0.00142825
0.0105685
0.0108902
-0.000792871
0.0107074
-0.00387734
0.0101916
-0.00677888
0.0115212
-0.00732415
0.0118407
-0.00676782
0.0119939
-0.00588301
0.0120297
-0.00492882
0.0120365
-0.00396233
0.0120375
-0.00299396
0.0120377
-0.00202533
0.0120377
-0.00105667
0.0120377
-8.80127e-05
0.0120377
0.00088065
0.0120377
0.00184931
0.0120377
0.00281797
0.0120377
0.00378659
0.0120377
0.00475487
0.0120377
0.00572077
0.0120375
0.00667147
0.0120362
0.00753898
0.0120279
0.00802985
0.011985
0.00731911
0.0118068
0.00418411
0.0114425
0.000906119
0.0100058
0.0103802
-0.000996425
0.0118013
-0.00389663
0.0104799
-0.00660828
0.0110575
-0.00722764
0.0110281
-0.00673658
0.0110588
-0.00587482
0.011067
-0.00492637
0.0110688
-0.00396112
0.0110691
-0.00299307
0.0110692
-0.0020246
0.0110692
-0.00105608
0.0110692
-8.75462e-05
0.0110692
0.000880986
0.0110692
0.00184952
0.0110692
0.00281804
0.0110692
0.0037865
0.0110692
0.00475448
0.0110692
0.00571929
0.0110691
0.0066653
0.0110689
0.00751552
0.0110677
0.00796281
0.0110624
0.00722144
0.0110426
0.00429149
0.0111021
0.00113616
0.0104809
0.0120254
-0.000450942
0.0127348
-0.00244651
0.0109512
-0.00437404
0.0107392
-0.00484821
0.0105414
-0.00456317
0.0104768
-0.00402684
0.0104633
-0.00343217
0.010461
-0.00282591
0.0104606
-0.00221763
0.0104605
-0.00160903
0.0104605
-0.00100038
0.0104605
-0.000391735
0.0104605
0.000216916
0.0104605
0.000825566
0.0104605
0.00143421
0.0104605
0.00204281
0.0104605
0.00265113
0.0104605
0.00325758
0.0104606
0.00385322
0.010461
0.00439378
0.0104635
0.00469224
0.0104784
0.0042477
0.0105506
0.00236085
0.0107285
0.000393672
0.0109888
0.0128722
-0.000294608
0.0130411
-0.00084882
0.0108947
-0.00137737
0.0106433
-0.00153411
0.0104293
-0.00148634
0.0103499
-0.00137428
0.0103336
-0.00124751
0.0103307
-0.00111777
0.0103302
-0.000987493
0.0103302
-0.000857133
0.0103301
-0.00072676
0.0103301
-0.000596386
0.0103301
-0.000466011
0.0103301
-0.000335637
0.0103301
-0.000205263
0.0103301
-7.49004e-05
0.0103301
5.53947e-05
0.0103302
0.000185271
0.0103302
0.000312817
0.0103304
0.000428844
0.010332
0.000497619
0.0103409
0.000446629
0.0103835
0.00018427
0.0105651
1.38189e-05
0.0107485
0.0128242
0.00128734
0.0109898
0.00336408
0.00992127
0.00518376
0.0107367
0.00558934
0.0108486
0.00524992
0.0109369
0.00467966
0.0109584
0.00405835
0.0109628
0.00342696
0.0109635
0.00279382
0.0109636
0.00216039
0.0109636
0.00152693
0.0109636
0.000893463
0.0109636
0.000259993
0.0109636
-0.000373475
0.0109636
-0.00100694
0.0109636
-0.00164037
0.0109636
-0.00227358
0.0109636
-0.00290533
0.0109635
-0.00352862
0.010963
-0.00410795
0.0109594
-0.00448379
0.0109417
-0.00420565
0.010869
-0.002644
0.0107994
-0.000910135
0.0100286
0.011345
0.000897852
0.00947546
0.00407177
0.00946419
0.00731781
0.0111153
0.00821011
0.0116942
0.00773944
0.0119599
0.00679829
0.0120258
0.00574674
0.0120387
0.00467354
0.0120408
0.00359665
0.0120411
0.00251921
0.0120411
0.00144169
0.0120411
0.000364161
0.0120411
-0.000713367
0.0120411
-0.00179089
0.0120411
-0.00286841
0.0120411
-0.00394585
0.0120411
-0.00502273
0.0120411
-0.00609587
0.0120408
-0.00714707
0.0120386
-0.00808651
0.0120252
-0.00854914
0.0119573
-0.00762766
0.0116858
-0.004332
0.0111057
-0.00105745
0.00935945
0.00941751
0.000687116
0.00984712
0.00381751
0.0104098
0.00713796
0.0121881
0.00792558
0.0127921
0.00740235
0.0130271
0.00646275
0.0130798
0.00543267
0.0130892
0.00438608
0.0130905
0.00333689
0.0130907
0.00228735
0.0130907
0.00123775
0.0130907
0.000188154
0.0130907
-0.000861445
0.0130907
-0.00191104
0.0130907
-0.00296064
0.0130907
-0.00401018
0.0130907
-0.00505929
0.0130907
-0.00610542
0.0130905
-0.0071328
0.0130889
-0.00805875
0.0130779
-0.00852699
0.0130174
-0.00758792
0.0127533
-0.00403368
0.0120691
-0.000717257
0.0101512
0.00948515
0.00132997
0.0111878
0.00437931
0.011789
0.00726471
0.0133542
0.00770414
0.0138471
0.00709074
0.0140158
0.00619183
0.0140492
0.00523781
0.0140546
0.00427465
0.0140553
0.00331017
0.0140554
0.00234552
0.0140554
0.00138086
0.0140554
0.000416188
0.0140554
-0.000548479
0.0140554
-0.00151315
0.0140554
-0.00247781
0.0140554
-0.00344246
0.0140554
-0.00440691
0.0140554
-0.00536991
0.0140553
-0.00632285
0.0140545
-0.00721602
0.0140487
-0.00780509
0.0140133
-0.00729705
0.0138368
-0.00430308
0.0133174
-0.00120926
0.0117212
0.0109878
0.00194636
0.0124597
0.00472574
0.0131199
0.00706242
0.0144093
0.00722464
0.0147769
0.00659214
0.014887
0.00577546
0.0149062
0.00492707
0.0149089
0.00407389
0.0149093
0.00322009
0.0149093
0.00236622
0.0149093
0.00151233
0.0149093
0.000658451
0.0149093
-0.000195432
0.0149093
-0.00104931
0.0149093
-0.0019032
0.0149093
-0.00275707
0.0149093
-0.00361088
0.0149093
-0.00446408
0.0149093
-0.00531273
0.0149089
-0.00613116
0.0149063
-0.00677408
0.0148883
-0.00665768
0.0147843
-0.00443529
0.0144408
-0.00179634
0.0132138
0.0127003
0.0022264
0.0140217
0.00457536
0.01433
0.00633139
0.0153456
0.00625677
0.0155928
0.00562299
0.0156616
0.00487843
0.0156721
0.00411679
0.0156734
0.00335281
0.0156736
0.00258855
0.0156736
0.00182425
0.0156736
0.00105995
0.0156736
0.000295657
0.0156736
-0.00046864
0.0156736
-0.00123294
0.0156736
-0.00199723
0.0156736
-0.00276153
0.0156736
-0.00352579
0.0156736
-0.00428978
0.0156736
-0.00505144
0.0156734
-0.00579614
0.015672
-0.00643048
0.0156615
-0.00650412
0.0155921
-0.00473333
0.0153428
-0.00234481
0.0143163
0.013994
0.00279657
0.0147932
0.00503677
0.0152237
0.00652456
0.0161618
0.00631292
0.0163737
0.00564385
0.0164272
0.00489478
0.0164346
0.00413442
0.0164355
0.00337262
0.0164356
0.00261066
0.0164356
0.00184869
0.0164356
0.00108672
0.0164356
0.000324746
0.0164356
-0.000437227
0.0164356
-0.0011992
0.0164356
-0.00196117
0.0164356
-0.00272315
0.0164356
-0.0034851
0.0164356
-0.00424689
0.0164356
-0.0050072
0.0164355
-0.00575589
0.0164346
-0.00642247
0.0164271
-0.00662214
0.016373
-0.00510348
0.0161556
-0.00282569
0.0152041
0.0146889
0.00298735
0.0155521
0.00508733
0.016076
0.0063724
0.0169183
0.00611073
0.0170976
0.00547111
0.0171388
0.00477108
0.017144
0.00406304
0.0171446
0.00335403
0.0171447
0.00264492
0.0171447
0.0019358
0.0171447
0.00122668
0.0171447
0.000517562
0.0171447
-0.000191556
0.0171447
-0.000900675
0.0171447
-0.00160979
0.0171447
-0.00231891
0.0171447
-0.00302802
0.0171447
-0.00373704
0.0171447
-0.00444515
0.0171446
-0.00514565
0.0171441
-0.00578864
0.0171391
-0.00606925
0.0170993
-0.00484462
0.016931
-0.00283558
0.0161187
0.0158004
0.0029471
0.016632
0.00476662
0.0169374
0.00577604
0.017649
0.00544137
0.0177866
0.00481393
0.0178169
0.00414382
0.0178204
0.00346838
0.0178208
0.00279234
0.0178208
0.00211623
0.0178208
0.00144013
0.0178208
0.000764023
0.0178208
8.79173e-05
0.0178208
-0.000588189
0.0178208
-0.00126429
0.0178208
-0.0019404
0.0178208
-0.00261651
0.0178208
-0.00329261
0.0178208
-0.00396864
0.0178208
-0.00464404
0.0178208
-0.00531378
0.0178203
-0.00593838
0.0178165
-0.00625413
0.017784
-0.00516777
0.0176335
-0.00322051
0.0168764
0.0163683
0.00327398
0.0171978
0.00502928
0.0176557
0.00591846
0.0183191
0.00555628
0.018443
0.00494407
0.0184682
0.00429811
0.0184709
0.00364813
0.0184712
0.00299773
0.0184712
0.00234728
0.0184712
0.00169683
0.0184712
0.00104638
0.0184712
0.00039593
0.0184712
-0.00025452
0.0184712
-0.00090497
0.0184712
-0.00155542
0.0184712
-0.00220587
0.0184712
-0.00285632
0.0184712
-0.00350672
0.0184712
-0.00415669
0.0184712
-0.00480256
0.0184709
-0.00541416
0.0184683
-0.00577416
0.0184437
-0.00488896
0.0183204
-0.00314984
0.0176677
0.0171203
0.00328097
0.0176818
0.00492705
0.0183574
0.00570227
0.0189427
0.00534484
0.0190497
0.00477514
0.0190693
0.0041783
0.0190713
0.00357835
0.0190715
0.00297808
0.0190715
0.00237778
0.0190715
0.00177747
0.0190715
0.00117717
0.0190715
0.000576864
0.0190715
-2.34399e-05
0.0190715
-0.000623744
0.0190715
-0.00122405
0.0190715
-0.00182435
0.0190715
-0.00242465
0.0190715
-0.00302493
0.0190715
-0.00362492
0.0190715
-0.00422213
0.0190714
-0.00479485
0.0190695
-0.00517351
0.0190516
-0.00448867
0.0189587
-0.0029996
0.0184274
0.018094
0.00278033
0.0188163
0.00406156
0.0191015
0.00460077
0.0195326
0.004229
0.0196038
0.00370303
0.0196168
0.00315863
0.0196181
0.00261221
0.0196182
0.0020656
0.0196182
0.00151897
0.0196182
0.000972335
0.0196182
0.000425704
0.0196182
-0.000120928
0.0196182
-0.00066756
0.0196182
-0.00121419
0.0196182
-0.00176082
0.0196182
-0.00230745
0.0196182
-0.00285408
0.0196182
-0.0034007
0.0196182
-0.00394709
0.0196182
-0.00449125
0.019618
-0.00501518
0.0196166
-0.00537019
0.0196018
-0.00474182
0.0195179
-0.00328135
0.0190268
0.0184138
0.00303285
0.0193185
0.00427753
0.0196524
0.00476331
0.0200468
0.00440848
0.0201092
0.00392205
0.02012
0.00342083
0.020121
0.00291804
0.0201211
0.00241511
0.0201211
0.00191216
0.0201211
0.00140921
0.0201211
0.000906263
0.0201211
0.000403315
0.0201211
-9.96336e-05
0.0201211
-0.000602582
0.0201211
-0.00110553
0.0201211
-0.00160848
0.0201211
-0.00211143
0.0201211
-0.00261436
0.0201211
-0.00311715
0.0201211
-0.00361837
0.020121
-0.00410479
0.0201201
-0.00446081
0.0201098
-0.00399145
0.0200493
-0.00279281
0.0196701
0.0193067
0.00306254
0.0195712
0.00423851
0.0201758
0.0046603
0.020539
0.004306
0.0205964
0.00383503
0.0206054
0.00335137
0.0206062
0.00286639
0.0206062
0.0023813
0.0206062
0.00189619
0.0206062
0.00141109
0.0206062
0.000925981
0.0206062
0.000440876
0.0206062
-4.42295e-05
0.0206062
-0.000529335
0.0206062
-0.00101444
0.0206062
-0.00149955
0.0206062
-0.00198465
0.0206062
-0.00246975
0.0206062
-0.00295473
0.0206062
-0.00343853
0.0206062
-0.00391068
0.0206054
-0.00427464
0.0205972
-0.0039025
0.0205471
-0.0028264
0.0202196
0.0198957
0.00247428
0.0204815
0.00339989
0.0207282
0.00369995
0.0209914
0.00336771
0.0210299
0.00294754
0.021036
0.00251821
0.0210365
0.00208798
0.0210366
0.00165766
0.0210366
0.00122734
0.0210366
0.000797014
0.0210366
0.000366691
0.0210366
-6.36319e-05
0.0210366
-0.000493955
0.0210366
-0.000924278
0.0210366
-0.0013546
0.0210366
-0.00178492
0.0210366
-0.00221525
0.0210366
-0.00264556
0.0210366
-0.00307579
0.0210365
-0.00350503
0.0210365
-0.00392438
0.0210359
-0.00424898
0.0210291
-0.00390016
0.0209842
-0.00285899
0.020686
0.0201875
0.00264276
0.0208905
0.00354603
0.0211503
0.00382275
0.0213912
0.00351372
0.0214251
0.00312791
0.0214304
0.00273443
0.0214308
0.0023402
0.0214308
0.0019459
0.0214309
0.0015516
0.0214309
0.00115731
0.0214309
0.000763006
0.0214309
0.000368708
0.0214309
-2.55911e-05
0.0214309
-0.00041989
0.0214309
-0.000814189
0.0214309
-0.00120849
0.0214309
-0.00160279
0.0214309
-0.00199708
0.0214309
-0.00239131
0.0214308
-0.00278482
0.0214308
-0.00317089
0.0214304
-0.00348291
0.0214256
-0.00323309
0.0213943
-0.00239599
0.0211707
0.0209474
0.00269544
0.0209909
0.00355004
0.0215539
0.00378405
0.0217851
0.00346972
0.0218181
0.00308517
0.0218226
0.00269373
0.021823
0.00230163
0.021823
0.00190948
0.021823
0.00151732
0.021823
0.00112516
0.021823
0.000733006
0.021823
0.000340849
0.021823
-5.13089e-05
0.021823
-0.000443466
0.021823
-0.000835624
0.021823
-0.00122778
0.021823
-0.00161994
0.021823
-0.00201209
0.021823
-0.00240419
0.021823
-0.00279569
0.021823
-0.00318083
0.0218227
-0.00350025
0.0218184
-0.00329427
0.0217898
-0.00250391
0.0215831
0.0213123
0.00208087
0.0217615
0.00274941
0.0219815
0.00291333
0.0221434
0.00262733
0.0221653
0.00228733
0.0221684
0.0019422
0.0221686
0.0015966
0.0221687
0.00125096
0.0221687
0.000905315
0.0221687
0.000559671
0.0221687
0.000214027
0.0221687
-0.000131617
0.0221687
-0.00047726
0.0221687
-0.000822904
0.0221687
-0.00116855
0.0221687
-0.00151419
0.0221687
-0.00185984
0.0221687
-0.00220548
0.0221687
-0.00255107
0.0221687
-0.00289614
0.0221686
-0.00323552
0.0221683
-0.00351532
0.0221647
-0.00330755
0.0221373
-0.00252494
0.0219408
0.0214299
0.00221202
0.0220842
0.00287257
0.0223074
0.00303264
0.0224548
0.00277677
0.0224742
0.00247311
0.0224769
0.00216505
0.0224771
0.00185657
0.0224772
0.00154807
0.0224772
0.00123956
0.0224772
0.000931052
0.0224772
0.000622544
0.0224772
0.000314036
0.0224772
5.52865e-06
0.0224772
-0.000302979
0.0224772
-0.000611487
0.0224772
-0.000919995
0.0224772
-0.0012285
0.0224772
-0.00153701
0.0224772
-0.00184548
0.0224772
-0.00215356
0.0224771
-0.00245737
0.022477
-0.00271501
0.0224745
-0.00257296
0.0224565
-0.00196496
0.02232
0.0221192
0.00224511
0.0221036
0.00286694
0.0226164
0.00299835
0.0227617
0.00274024
0.0227813
0.00243792
0.0227837
0.00213157
0.0227839
0.00182486
0.0227839
0.00151811
0.0227839
0.00121137
0.0227839
0.00090462
0.0227839
0.000597874
0.0227839
0.000291127
0.0227839
-1.56196e-05
0.0227839
-0.000322366
0.0227839
-0.000629113
0.0227839
-0.000935859
0.0227839
-0.00124261
0.0227839
-0.00154935
0.0227839
-0.00185607
0.0227839
-0.00216245
0.0227839
-0.00246512
0.0227837
-0.00272656
0.0227816
-0.00261596
0.0227653
-0.00204737
0.0226413
0.0224258
0.00164633
0.0227539
0.00211718
0.0229429
0.00220242
0.0230377
0.0019718
0.0230501
0.00170725
0.0230516
0.00143968
0.0230518
0.00117184
0.0230518
0.000903983
0.0230518
0.000636125
0.0230518
0.000368266
0.0230518
0.000100408
0.0230518
-0.000167451
0.0230518
-0.00043531
0.0230518
-0.000703168
0.0230518
-0.000971027
0.0230518
-0.00123889
0.0230518
-0.00150674
0.0230518
-0.0017746
0.0230518
-0.00204243
0.0230518
-0.00230996
0.0230518
-0.00257407
0.0230516
-0.0028001
0.0230496
-0.00267905
0.023033
-0.00210608
0.0229083
0.0224073
0.00175014
0.0229975
0.00222327
0.0231852
0.0023161
0.0232708
0.0021178
0.0232817
0.00188922
0.0232831
0.001658
0.0232832
0.00142654
0.0232832
0.00119507
0.0232832
0.000963597
0.0232832
0.000732124
0.0232832
0.00050065
0.0232832
0.000269177
0.0232832
3.77037e-05
0.0232832
-0.00019377
0.0232832
-0.000425243
0.0232832
-0.000656716
0.0232832
-0.00088819
0.0232832
-0.00111966
0.0232832
-0.00135112
0.0232832
-0.00158235
0.0232832
-0.00181104
0.0232831
-0.00201068
0.0232819
-0.00193182
0.0232718
-0.00150435
0.0231936
0.0230153
0.00177909
0.0229411
0.00222196
0.0234114
0.00229478
0.0235005
0.00209531
0.0235122
0.00186761
0.0235135
0.00163745
0.0235136
0.00140708
0.0235136
0.00117668
0.0235136
0.000946292
0.0235136
0.0007159
0.0235136
0.000485508
0.0235136
0.000255116
0.0235136
2.47237e-05
0.0235136
-0.000205669
0.0235136
-0.000436061
0.0235136
-0.000666453
0.0235136
-0.000896845
0.0235136
-0.00112724
0.0235136
-0.00135761
0.0235136
-0.0015878
0.0235136
-0.00181575
0.0235136
-0.00201771
0.0235125
-0.00196278
0.0235035
-0.00156909
0.0234343
0.0232622
0.0012036
0.0234892
0.00152158
0.0236511
0.00156313
0.0237027
0.0013896
0.0237095
0.00119483
0.0237103
0.000998242
0.0237104
0.000801505
0.0237104
0.000604756
0.0237104
0.000408007
0.0237104
0.000211257
0.0237104
1.45076e-05
0.0237104
-0.000182242
0.0237104
-0.000378992
0.0237104
-0.000575741
0.0237104
-0.000772491
0.0237104
-0.00096924
0.0237104
-0.00116599
0.0237104
-0.00136274
0.0237104
-0.00155947
0.0237104
-0.00175603
0.0237104
-0.00195049
0.0237103
-0.00212066
0.0237092
-0.0020508
0.0236993
-0.00164569
0.0236236
0.0231576
0.00128769
0.0236663
0.00161172
0.0238217
0.00166484
0.0238675
0.00152177
0.0238734
0.00135973
0.0238741
0.00119611
0.0238742
0.00103235
0.0238742
0.000868573
0.0238742
0.000704801
0.0238742
0.000541028
0.0238742
0.000377255
0.0238742
0.000213482
0.0238742
4.97095e-05
0.0238742
-0.000114063
0.0238742
-0.000277836
0.0238742
-0.000441609
0.0238742
-0.000605381
0.0238742
-0.000769154
0.0238742
-0.000932916
0.0238742
-0.00109655
0.0238742
-0.00125866
0.0238741
-0.00140269
0.0238735
-0.00135944
0.0238679
-0.00107116
0.0238258
0.0236631
0.0013184
0.0235501
0.00161951
0.023976
0.00165891
0.0240287
0.00151595
0.0240358
0.00135524
0.0240364
0.00119305
0.0240365
0.00103072
0.0240365
0.000868389
0.0240365
0.000706056
0.0240365
0.000543722
0.0240365
0.000381388
0.0240365
0.000219055
0.0240365
5.6721e-05
0.0240365
-0.000105613
0.0240365
-0.000267946
0.0240365
-0.00043028
0.0240365
-0.000592614
0.0240365
-0.000754947
0.0240365
-0.000917272
0.0240365
-0.00107948
0.0240365
-0.00124037
0.0240365
-0.00138525
0.0240359
-0.00136139
0.0240312
-0.0011052
0.023996
0.0238546
0.000784215
0.024002
0.00098316
0.0241395
0.00100195
0.0241647
0.000883619
0.0241683
0.000752564
0.0241687
0.00062046
0.0241687
0.000488269
0.0241687
0.000356072
0.0241687
0.000223875
0.0241687
9.16773e-05
0.0241687
-4.052e-05
0.0241687
-0.000172717
0.0241687
-0.000304915
0.0241687
-0.000437112
0.0241687
-0.00056931
0.0241687
-0.000701507
0.0241687
-0.000833704
0.0241687
-0.000965901
0.0241687
-0.00109809
0.0241687
-0.00123017
0.0241687
-0.00136101
0.0241686
-0.00147697
0.0241681
-0.00143688
0.0241623
-0.00116877
0.0241195
0.0237278
0.000851056
0.0241216
0.00105471
0.0242492
0.00108365
0.0242709
0.000990309
0.0242739
0.000885751
0.0242742
0.00078027
0.0242742
0.000674714
0.0242742
0.000569152
0.0242742
0.000463589
0.0242742
0.000358027
0.0242742
0.000252464
0.0242742
0.000146902
0.0242742
4.13391e-05
0.0242742
-6.42235e-05
0.0242742
-0.000169786
0.0242742
-0.000275349
0.0242742
-0.000380911
0.0242742
-0.000486473
0.0242742
-0.00059203
0.0242742
-0.000697515
0.0242742
-0.000802122
0.0242742
-0.000896032
0.0242739
-0.000872898
0.0242708
-0.000692365
0.0242494
0.0240977
0.000883482
0.0239637
0.00107082
0.0243407
0.00109137
0.0243718
0.00100025
0.0243763
0.000898719
0.0243767
0.000796327
0.0243767
0.000693863
0.0243767
0.000591394
0.0243767
0.000488924
0.0243767
0.000386455
0.0243767
0.000283985
0.0243767
0.000181516
0.0243767
7.90466e-05
0.0243767
-2.34229e-05
0.0243767
-0.000125892
0.0243767
-0.000228362
0.0243767
-0.000330831
0.0243767
-0.0004333
0.0243767
-0.000535765
0.0243767
-0.000638169
0.0243767
-0.000739834
0.0243767
-0.000832425
0.0243765
-0.000824974
0.0243742
-0.000677215
0.0243589
0.0242491
0.000404382
0.0243252
0.000508062
0.0244414
0.00051471
0.0244509
0.000445921
0.0244526
0.000370452
0.0244528
0.000294444
0.0244528
0.000218393
0.0244528
0.000142339
0.0244528
6.62846e-05
0.0244528
-9.76989e-06
0.0244528
-8.58244e-05
0.0244528
-0.000161879
0.0244528
-0.000237933
0.0244528
-0.000313988
0.0244528
-0.000390042
0.0244528
-0.000466097
0.0244528
-0.000542151
0.0244528
-0.000618205
0.0244528
-0.000694256
0.0244528
-0.000770249
0.0244528
-0.000845555
0.0244528
-0.000912511
0.0244525
-0.000888253
0.0244495
-0.000726876
0.0244285
0.0241466
0.000454549
0.0244036
0.00055613
0.0245315
0.000567873
0.0245112
0.000515513
0.0245115
0.00045735
0.0245114
0.000398715
0.0245114
0.000340042
0.0245114
0.000281366
0.0245114
0.00022269
0.0245114
0.000164014
0.0245114
0.000105338
0.0245114
4.66617e-05
0.0245114
-1.20144e-05
0.0245114
-7.06905e-05
0.0245114
-0.000129367
0.0245114
-0.000188043
0.0245114
-0.000246719
0.0245114
-0.000305395
0.0245114
-0.000364068
0.0245114
-0.000422701
0.0245114
-0.000480849
0.0245114
-0.000532981
0.0245114
-0.000517923
0.0245104
-0.000412535
0.0245244
0.0243527
0.000425164
0.0245613
0.000561725
0.0247819
0.000577148
0.0245741
0.000529041
0.0245673
0.000474336
0.0245667
0.000419107
0.0245667
0.000363835
0.0245667
0.000308559
0.0245667
0.000253283
0.0245667
0.000198007
0.0245667
0.00014273
0.0245667
8.74544e-05
0.0245667
3.21783e-05
0.0245667
-2.30978e-05
0.0245667
-7.83739e-05
0.0245667
-0.00013365
0.0245667
-0.000188926
0.0245667
-0.000244202
0.0245667
-0.000299475
0.0245667
-0.000354708
0.0245667
-0.000409458
0.0245667
-0.000458053
0.0245674
-0.000449135
0.0245759
-0.000331997
0.0247926
0.0246256
-0.0127578
0.0537338
-0.0142309
0.0550434
-0.0140055
0.0559239
-0.0135
0.0559641
-0.0129813
0.0559662
-0.0124621
0.0559662
-0.0119428
0.0559662
-0.0114236
0.0559662
-0.0109043
0.0559662
-0.0103851
0.0559662
-0.00986583
0.0559662
-0.00934658
0.0559662
-0.00882732
0.0559662
-0.00830807
0.0559662
-0.00778881
0.0559662
-0.00726956
0.0559662
-0.00675031
0.0559662
-0.00623105
0.0559662
-0.0057118
0.0559662
-0.00519254
0.0559662
-0.00467329
0.0559662
-0.00415403
0.0559662
-0.00363478
0.0559662
-0.00311553
0.0559662
-0.00259627
0.0559662
-0.00207701
0.0559662
-0.00155762
0.0559662
-0.00103324
0.0559658
-0.000398301
0.0559401
0.0559501
-0.0146984
0.056509
-0.0161089
0.0546918
-0.0158475
0.0553577
-0.0152738
0.0553773
-0.0146869
0.0553787
-0.0140994
0.0553788
-0.013512
0.0553788
-0.0129245
0.0553788
-0.012337
0.0553788
-0.0117495
0.0553788
-0.011162
0.0553788
-0.0105746
0.0553788
-0.0099871
0.0553788
-0.00939962
0.0553788
-0.00881214
0.0553788
-0.00822467
0.0553788
-0.00763719
0.0553788
-0.00704972
0.0553788
-0.00646224
0.0553788
-0.00587476
0.0553788
-0.00528729
0.0553788
-0.00469981
0.0553788
-0.00411233
0.0553788
-0.00352486
0.0553788
-0.00293738
0.0553788
-0.0023499
0.0553788
-0.00176238
0.0553788
-0.00117371
0.0553787
-0.000584817
0.0553778
0.0553361
-0.01247
0.0555923
-0.0135352
0.0543442
-0.0132871
0.0548704
-0.0128028
0.0548853
-0.0123107
0.0548863
-0.0118183
0.0548863
-0.0113258
0.0548863
-0.0108334
0.0548863
-0.010341
0.0548863
-0.00984855
0.0548863
-0.00935613
0.0548863
-0.0088637
0.0548863
-0.00837127
0.0548863
-0.00787884
0.0548863
-0.00738641
0.0548863
-0.00689399
0.0548863
-0.00640156
0.0548863
-0.00590913
0.0548863
-0.0054167
0.0548863
-0.00492428
0.0548863
-0.00443185
0.0548863
-0.00393942
0.0548863
-0.00344699
0.0548863
-0.00295457
0.0548863
-0.00246214
0.0548863
-0.00196971
0.0548863
-0.00147725
0.0548863
-0.000984212
0.0548863
-0.000491128
0.0548862
0.0548424
-0.0106241
0.0545098
-0.0114871
0.0539822
-0.0112637
0.0544535
-0.0108526
0.054468
-0.0104355
0.0544689
-0.0100181
0.0544689
-0.00960067
0.0544689
-0.00918325
0.0544689
-0.00876583
0.0544689
-0.00834841
0.0544689
-0.00793099
0.0544689
-0.00751357
0.0544689
-0.00709615
0.0544689
-0.00667873
0.0544689
-0.00626131
0.0544689
-0.00584389
0.0544689
-0.00542647
0.0544689
-0.00500905
0.0544689
-0.00459162
0.0544689
-0.0041742
0.0544689
-0.00375678
0.0544689
-0.00333936
0.0544689
-0.00292194
0.0544689
-0.00250452
0.0544689
-0.0020871
0.0544689
-0.00166968
0.0544689
-0.00125223
0.0544689
-0.000834301
0.0544689
-0.000416331
0.0544688
0.0544249
-0.0101086
0.0540465
-0.0109515
0.0536401
-0.0107385
0.0540572
-0.0103467
0.0540702
-0.00994905
0.0540709
-0.0095511
0.0540709
-0.00915313
0.0540709
-0.00875517
0.0540709
-0.00835721
0.0540709
-0.00795925
0.0540709
-0.00756128
0.0540709
-0.00716332
0.0540709
-0.00676536
0.0540709
-0.0063674
0.0540709
-0.00596944
0.0540709
-0.00557147
0.0540709
-0.00517351
0.0540709
-0.00477555
0.0540709
-0.00437759
0.0540709
-0.00397962
0.0540709
-0.00358166
0.0540709
-0.0031837
0.0540709
-0.00278574
0.0540709
-0.00238777
0.0540709
-0.00198981
0.0540709
-0.00159185
0.0540709
-0.00119386
0.0540709
-0.000795408
0.0540709
-0.000396939
0.0540708
0.0540269
-0.00967734
0.0537517
-0.010479
0.0533123
-0.0102737
0.0536785
-0.00989878