/*--------------------------------*- C++ -*----------------------------------*\
| =========                 |                                                 |
| \\      /  F ield         | OpenFOAM: The Open Source CFD Toolbox           |
|  \\    /   O peration     | Version:  2112                                  |
|   \\  /    A nd           | Website:  www.openfoam.com                      |
|    \\/     M anipulation  |                                                 |
\*---------------------------------------------------------------------------*/
FoamFile
{
    version     2.0;
    format      ascii;
    arch        "LSB;label=32;scalar=64";
    class       volVectorField;
    location    "7e-05";
    object      U;
}
// * * * * * * * * * * * * * * * * * * * * * * * * * * * * * * * * * * * * * //

dimensions      [0 1 -1 0 0 0 0];

internalField   nonuniform List<vector> 
13875
(
(2283.02 159.108 1.49524e-18)
(2220.04 87.7814 -8.24538e-19)
(2250.76 45.5232 -7.96887e-19)
(2276.66 26.0688 0)
(2291.34 14.0059 0)
(2299.51 7.13443 7.25503e-19)
(2303.77 3.36281 -7.24233e-19)
(2305.8 1.46792 -3.59054e-19)
(2306.68 0.599674 3.58495e-19)
(2307.01 0.233857 0)
(2307.12 0.0870443 -3.54735e-22)
(2307.15 0.0264623 -3.54709e-22)
(2307.16 -0.00428154 0)
(2307.16 -0.0372553 -3.57803e-19)
(2307.16 -0.101764 3.5816e-19)
(2307.1 -0.246145 0)
(2306.78 -0.600874 7.17498e-19)
(2305.89 -1.45618 -7.18286e-19)
(2303.84 -3.33822 3.57104e-22)
(2299.56 -7.0925 -3.5995e-22)
(2291.36 -13.9361 -7.4686e-19)
(2276.64 -25.952 7.51329e-19)
(2250.61 -45.3236 -1.59433e-18)
(2219.33 -87.257 1.61644e-18)
(2280.35 -158.121 1.50481e-18)
(2258.38 161.418 -1.49052e-18)
(2219.14 92.0391 1.6839e-18)
(2239.55 54.4854 8.11188e-19)
(2258.75 30.0765 -8.06998e-19)
(2269.91 15.4125 4.05462e-22)
(2275.96 7.46337 3.75861e-22)
(2279 3.36849 4.00557e-22)
(2280.41 1.42186 -3.85604e-19)
(2281 0.570248 3.85403e-19)
(2281.22 0.223665 1.92089e-19)
(2281.28 0.0858641 -1.43988e-19)
(2281.3 0.0265802 -4.6945e-20)
(2281.31 -0.0064553 0)
(2281.31 -0.0423647 -3.85256e-19)
(2281.31 -0.106747 3.84497e-19)
(2281.28 -0.24236 3.85002e-19)
(2281.08 -0.575151 -3.85065e-19)
(2280.5 -1.40641 3.7164e-22)
(2279.08 -3.327 -3.73058e-22)
(2276.03 -7.38376 3.75823e-22)
(2269.96 -15.2752 -7.93105e-19)
(2258.77 -29.8576 2.41112e-18)
(2239.42 -54.1926 -1.62224e-18)
(2218.65 -91.3772 4.00897e-22)
(2262.84 -164.056 -1.55189e-18)
(2205.54 138.709 0)
(2170.82 68.1132 0)
(2170 51.3956 0)
(2178.4 29.1766 0)
(2184.25 14.6621 -1.97199e-18)
(2187.38 6.8465 1.96452e-18)
(2188.88 2.98404 1.95617e-18)
(2189.54 1.22679 -2.92961e-18)
(2189.8 0.486943 9.76197e-19)
(2189.88 0.192309 4.50294e-22)
(2189.91 0.0756082 -4.87654e-19)
(2189.91 0.0239677 4.87848e-19)
(2189.91 -0.00771327 0)
(2189.91 -0.0423456 0)
(2189.92 -0.0996634 4.50246e-22)
(2189.91 -0.217089 0)
(2189.85 -0.503048 1.0941e-21)
(2189.6 -1.22662 4.88359e-19)
(2188.93 -2.96157 -4.88871e-19)
(2187.41 -6.79352 0)
(2184.24 -14.5602 0)
(2178.31 -28.9909 0)
(2169.75 -51.0601 0)
(2170.72 -66.8034 0)
(2204.22 -136.462 0)
(2070.38 38.003 0)
(1983.04 -9.92522 2.16304e-18)
(1953.86 22.5719 -4.22421e-18)
(1948.49 16.4633 4.23024e-18)
(1948.79 9.4709 -2.09917e-18)
(1949.66 4.82343 0)
(1950.16 2.2488 -9.13181e-22)
(1950.37 0.981269 0)
(1950.45 0.406983 0)
(1950.47 0.161556 0)
(1950.48 0.0613184 0)
(1950.48 0.0200727 -9.10487e-22)
(1950.48 -0.00425116 -6.58065e-20)
(1950.47 -0.0309797 6.58072e-20)
(1950.47 -0.0765564 0)
(1950.46 -0.178556 0)
(1950.43 -0.421218 1.52657e-21)
(1950.36 -0.985181 -1.05481e-18)
(1950.15 -2.23001 1.05506e-18)
(1949.63 -4.76118 -2.1027e-18)
(1948.71 -9.3197 2.12461e-18)
(1948.34 -16.096 2.09631e-18)
(1953.64 -21.9557 -2.13787e-18)
(1982.96 11.673 0)
(2063.94 -35.1877 0)
(1607.58 -38.1053 2.44724e-18)
(1512.65 -72.9472 0)
(1501.38 -20.7102 0)
(1511.41 -6.66519 0)
(1519.75 -0.798044 0)
(1524.45 0.491318 2.12723e-21)
(1526.64 0.515646 2.1231e-21)
(1527.55 0.320051 5.54726e-19)
(1527.9 0.166593 -5.5027e-19)
(1528.03 0.0798535 2.74073e-19)
(1528.07 0.0363878 -2.78305e-19)
(1528.08 0.0140945 0)
(1528.08 -0.000475857 0)
(1528.07 -0.0153643 -2.12055e-21)
(1528.05 -0.0387645 0)
(1528 -0.0839872 -2.12047e-21)
(1527.87 -0.170997 1.10075e-18)
(1527.51 -0.318763 -1.10116e-18)
(1526.59 -0.497318 2.21453e-18)
(1524.39 -0.438774 -2.21588e-18)
(1519.69 0.917288 2.13517e-21)
(1511.35 6.85465 0)
(1501.38 20.733 0)
(1512.32 73.0314 0)
(1608.51 38.3214 0)
(1075.06 -45.4921 0)
(1068.98 -69.7322 1.12775e-18)
(1082.36 -24.6146 -1.10409e-18)
(1093.42 -10.5269 0)
(1099.87 -2.96477 1.08353e-18)
(1103.29 -0.596649 -5.43999e-19)
(1104.82 0.0243093 -2.25505e-21)
(1105.45 0.112667 -2.72017e-19)
(1105.69 0.0848475 -5.41835e-19)
(1105.77 0.0506015 2.04516e-19)
(1105.8 0.0267785 2.14377e-21)
(1105.8 0.0111734 3.35511e-19)
(1105.8 0.00124665 -2.69844e-19)
(1105.8 -0.00764794 3.93797e-21)
(1105.78 -0.0213993 -5.39672e-19)
(1105.75 -0.0453156 5.41827e-19)
(1105.65 -0.081129 2.14574e-21)
(1105.41 -0.107793 -2.146e-21)
(1104.78 -0.0118694 -2.14695e-21)
(1103.25 0.621981 -1.0824e-18)
(1099.86 3.01851 1.08138e-18)
(1093.46 10.5676 0)
(1082.56 24.2574 0)
(1068.79 69.3313 -2.33977e-18)
(1073.38 45.4089 -8.55817e-20)
(676.452 -14.9428 -6.66224e-20)
(691.659 -31.1496 6.44664e-20)
(705.57 -11.3816 0)
(710.369 -5.83991 -1.90256e-23)
(713.281 -1.71029 -1.89391e-23)
(714.951 -0.389466 0)
(715.731 -0.00184966 0)
(716.063 0.0607772 -9.67162e-19)
(716.197 0.0496362 9.6711e-19)
(716.251 0.0315262 0)
(716.272 0.0177217 1.93442e-18)
(716.278 0.00833928 2.31968e-21)
(716.278 0.00257786 -1.93461e-18)
(716.274 -0.00261465 -2.31245e-21)
(716.264 -0.011117 0)
(716.241 -0.0253458 3.86906e-18)
(716.184 -0.045307 -3.63415e-22)
(716.044 -0.0571574 -7.73823e-18)
(715.707 0.0110424 3.86955e-18)
(714.927 0.414102 1.89188e-23)
(713.262 1.82051 0)
(710.361 5.91747 3.92705e-18)
(705.655 11.2939 -3.92583e-18)
(691.158 30.0536 4.11477e-18)
(676.297 14.0884 -4.27751e-18)
(281.265 1.81016 9.7634e-21)
(291.614 -3.30119 -3.80119e-18)
(298.351 -1.2385 2.95925e-22)
(298.71 -1.19839 3.31269e-23)
(299.288 -0.260182 -2.60727e-22)
(299.654 -0.00760371 0)
(299.871 0.0427919 -1.89604e-18)
(299.983 0.0341587 1.8958e-18)
(300.036 0.0205939 0)
(300.061 0.0114283 -2.94017e-22)
(300.072 0.00595594 -2.94021e-22)
(300.077 0.00280552 0)
(300.078 0.000778492 0)
(300.076 -0.00107569 -5.55068e-22)
(300.072 -0.0041636 -2.94007e-22)
(300.059 -0.00991664 3.29591e-23)
(300.033 -0.0198295 -3.26927e-22)
(299.976 -0.0342676 -3.29543e-23)
(299.861 -0.0419316 -9.47421e-19)
(299.643 0.0128202 3.46739e-22)
(299.277 0.294888 9.47469e-19)
(298.816 1.23064 3.27238e-22)
(298.388 1.19706 1.90154e-18)
(291.471 2.99088 -1.91628e-18)
(279.811 -2.02218 3.50269e-23)
(39.4588 0.428466 1.92467e-19)
(42.7634 -0.0482052 0)
(44.3188 0.0140896 -4.50883e-22)
(44.2007 -0.0305553 -1.94806e-19)
(44.2346 0.00183276 3.90088e-19)
(44.2786 0.00564612 -3.8971e-19)
(44.3139 0.00451728 6.03935e-23)
(44.3341 0.00272075 1.94893e-19)
(44.3442 0.00157561 0)
(44.349 0.000958105 -1.9438e-19)
(44.351 0.000624819 1.95366e-19)
(44.3518 0.000445275 0)
(44.352 0.000335005 0)
(44.3513 0.000233321 9.85806e-22)
(44.3501 5.29813e-05 4.48077e-22)
(44.3473 -0.000298567 1.94918e-19)
(44.3415 -0.000963168 -1.94474e-19)
(44.3301 -0.00217715 0)
(44.3082 -0.00395198 1.94879e-19)
(44.2718 -0.00489738 -3.89646e-19)
(44.2279 0.000911647 1.94413e-19)
(44.2157 0.0350763 -4.48181e-22)
(44.3286 -0.0116892 0)
(42.7494 0.0776557 0)
(39.3124 -0.38748 0)
(8.56674 -1.24388 -1.25948e-17)
(10.1387 -1.46287 1.26637e-17)
(10.8199 -0.340649 0)
(10.9771 -0.0805221 -6.2772e-18)
(11.0125 -0.0120348 6.27703e-18)
(11.0186 -0.00143814 0)
(11.0201 -0.000120882 -6.21953e-21)
(11.0206 6.49058e-06 -3.13647e-18)
(11.0208 1.10559e-05 3.12981e-18)
(11.0209 8.78105e-06 -6.21649e-21)
(11.0208 7.22661e-06 0)
(11.0207 5.95097e-06 -7.83577e-19)
(11.0206 5.29433e-06 1.16901e-18)
(11.0205 4.68877e-06 -3.97836e-19)
(11.0203 3.4232e-06 -6.10881e-21)
(11.0201 1.06386e-06 0)
(11.0199 -2.31234e-06 0)
(11.0194 2.80356e-06 -6.26041e-18)
(11.0186 0.000133873 6.25286e-18)
(11.0168 0.00147362 -6.25749e-18)
(11.0103 0.0122226 6.24931e-18)
(10.9749 0.081332 6.25897e-18)
(10.8159 0.343033 -6.24617e-18)
(10.1423 1.44338 -1.25924e-17)
(8.54334 1.2187 -6.33905e-20)
(7.65997 -2.20532 -1.42262e-17)
(8.47575 -2.52129 1.43812e-17)
(9.64802 -0.598061 0)
(9.93954 -0.161502 1.42213e-17)
(10.0167 -0.0270625 -1.42271e-17)
(10.029 -0.00375842 -7.11553e-18)
(10.0306 -0.000443452 7.1269e-18)
(10.0308 -4.54051e-05 -7.12428e-18)
(10.0309 -3.94289e-06 7.12831e-18)
(10.0309 -4.3732e-09 6.97417e-21)
(10.0309 3.96134e-07 0)
(10.0309 4.34326e-07 -4.46201e-19)
(10.0309 4.62534e-07 4.53402e-19)
(10.0309 4.98938e-07 6.98786e-21)
(10.0309 5.98736e-07 6.99076e-21)
(10.0309 1.00186e-06 6.98402e-21)
(10.0309 5.12314e-06 0)
(10.0309 5.03002e-05 0)
(10.0307 0.000481284 -1.43137e-17)
(10.0289 0.00404641 1.43263e-17)
(10.0154 0.0289316 -1.43364e-17)
(9.93198 0.170174 2.87035e-17)
(9.62078 0.62501 -1.43508e-17)
(8.36526 2.60886 -7.03522e-21)
(7.52048 2.28335 7.10488e-21)
(7.78969 -2.77488 -1.56822e-17)
(8.01632 -3.14453 1.90789e-19)
(9.49733 -0.787482 3.13342e-17)
(9.86092 -0.241531 -1.56737e-17)
(9.97678 -0.0448797 0)
(9.99744 -0.00680316 1.56403e-17)
(10.0004 -0.000874229 -1.56438e-17)
(10.0007 -9.87753e-05 0)
(10.0008 -9.61644e-06 7.6416e-21)
(10.0008 -6.03429e-07 0)
(10.0008 2.214e-07 0)
(10.0008 2.91541e-07 0)
(10.0008 2.99108e-07 9.78649e-19)
(10.0008 3.07283e-07 -9.78714e-19)
(10.0008 3.77008e-07 -7.64634e-21)
(10.0008 1.16181e-06 -7.64629e-21)
(10.0008 9.75914e-06 0)
(10.0007 9.54078e-05 0)
(10.0004 0.000846106 0)
(9.99762 0.00662986 -1.5658e-17)
(9.97782 0.0440356 3.13338e-17)
(9.8657 0.239024 -1.567e-17)
(9.5162 0.779106 -1.57241e-17)
(8.04391 3.15953 1.57003e-17)
(7.90344 2.80299 -7.73194e-21)
(7.95154 -3.16153 1.71652e-17)
(7.82927 -3.54906 0)
(9.43798 -0.935438 0)
(9.82455 -0.31673 -1.69202e-17)
(9.96712 -0.0642273 1.69296e-17)
(9.99502 -0.0106371 0)
(9.9994 -0.00148258 2.06517e-21)
(9.99996 -0.000181083 8.45841e-18)
(10 -1.96955e-05 -8.45567e-18)
(10 -1.95583e-06 0)
(10 -1.83288e-07 -2.11396e-18)
(10 -2.1902e-08 2.11573e-18)
(10 -7.30994e-09 -1.05666e-18)
(10 5.84043e-09 1.05849e-18)
(10 1.48725e-07 8.25113e-21)
(10 1.72605e-06 -8.44668e-18)
(10 1.76213e-05 1.68902e-17)
(9.99997 0.000163486 1.8209e-23)
(9.99947 0.00135037 -8.43842e-18)
(9.99556 0.00980488 -1.68726e-17)
(9.97028 0.0600282 1.68541e-17)
(9.83864 0.301475 1.0294e-20)
(9.48436 0.891818 2.06194e-21)
(7.93705 3.47297 1.71004e-17)
(8.13349 3.11 1.64307e-19)
(8.31472 -3.34021 0)
(7.94111 -3.70584 0)
(9.46592 -1.00988 0)
(9.81509 -0.371586 0)
(9.9628 -0.0805458 0)
(9.99389 -0.0143146 1.79022e-17)
(9.99917 -0.00214595 -1.78893e-17)
(9.9999 -0.000283719 1.74521e-20)
(9.99999 -3.33267e-05 -2.17955e-21)
(10 -3.56314e-06 4.45964e-18)
(10 -3.517e-07 -4.47289e-18)
(10 -3.21929e-08 -3.69494e-20)
(10 -5.7413e-10 -1.38969e-19)
(10 2.89337e-08 1.54008e-19)
(10 3.23081e-07 -4.43762e-18)
(10 3.26283e-06 4.43278e-18)
(9.99999 3.0439e-05 1.51343e-20)
(9.99991 0.000259244 0)
(9.99925 0.00196483 0)
(9.9945 0.01316 0)
(9.96641 0.0745876 -1.764e-17)
(9.83158 0.349546 -2.95574e-20)
(9.50261 0.962322 1.75945e-17)
(8.10659 3.58009 2.1572e-21)
(8.39816 3.20534 2.17342e-21)
(8.74046 -3.28681 0)
(8.33784 -3.65277 4.56112e-21)
(9.5502 -1.03944 0)
(9.83435 -0.404159 -1.86025e-17)
(9.96464 -0.0925315 3.72505e-17)
(9.99381 -0.0175027 -1.86341e-17)
(9.99909 -0.00280264 0)
(9.99988 -0.000397511 -1.82232e-20)
(9.99999 -5.03869e-05 0)
(10 -5.83366e-06 0)
(10 -6.21433e-07 -2.31502e-18)
(10 -6.08349e-08 2.37152e-18)
(10 1.95198e-09 2.34114e-18)
(10 8.13293e-08 -2.3609e-18)
(10 8.18938e-07 0)
(10 7.60316e-06 -9.38138e-18)
(9.99998 6.47432e-05 9.36837e-18)
(9.99983 0.000501037 9.39651e-18)
(9.99873 0.00345456 -9.3969e-18)
(9.99155 0.0209591 0)
(9.9532 0.107209 0)
(9.78964 0.448792 -1.83923e-20)
(9.42617 1.14616 -1.8923e-17)
(8.05313 3.79257 3.80492e-17)
(8.3136 3.37827 -1.89632e-17)
(9.11987 -3.35026 -2.02054e-17)
(8.50967 -3.6534 2.03835e-17)
(9.59815 -1.10226 0)
(9.83367 -0.464576 -2.01216e-17)
(9.96147 -0.116404 1.18333e-20)
(9.99272 -0.0239894 3.02407e-17)
(9.99886 -0.00417844 -2.01822e-17)
(9.99985 -0.000644435 1.00996e-17)
(9.99998 -8.89361e-05 0)
(10 -1.1228e-05 0)
(10 -1.31027e-06 -4.9435e-21)
(10 -1.40636e-07 1.4842e-20)
(10 2.36509e-09 0)
(10 1.63433e-07 0)
(10 1.50881e-06 5.07641e-18)
(10 1.28498e-05 -5.07958e-18)
(9.99998 0.00010107 -1.01653e-17)
(9.99981 0.000726269 2.03277e-17)
(9.99863 0.00466433 4.35242e-22)
(9.9914 0.0264899 -1.01727e-17)
(9.95522 0.127093 0)
(9.80993 0.500072 0)
(9.54747 1.17619 -2.04981e-17)
(8.32456 3.86169 2.05254e-17)
(8.98377 3.55642 -5.06699e-21)
(10.8026 -2.58982 2.04149e-17)
(9.6201 -2.72517 -9.93005e-21)
(9.97699 -0.752218 1.00961e-17)
(9.96585 -0.335224 -1.01158e-17)
(9.99206 -0.0818569 -4.92377e-21)
(9.99842 -0.0168683 9.84628e-21)
(9.99975 -0.00297994 1.00807e-17)
(9.99996 -0.000475596 -1.51187e-17)
(10 -6.87814e-05 5.04365e-18)
(10 -9.21534e-06 0)
(10 -1.15337e-06 -2.51356e-18)
(10 -1.34161e-07 2.51311e-18)
(10 -1.55386e-09 0)
(10 1.20236e-07 4.91588e-21)
(10 1.03963e-06 -2.51137e-18)
(10 8.34587e-06 2.51563e-18)
(10 6.26957e-05 0)
(9.99998 0.000437223 -1.00473e-17)
(9.99986 0.00276589 1.00543e-17)
(9.99907 0.0158654 1.00428e-17)
(9.99525 0.0780321 -2.01073e-17)
(9.97838 0.326007 1.00531e-17)
(10.0204 0.718629 0)
(9.70597 2.70839 2.03055e-17)
(11.1082 2.59712 1.09547e-19)
(12.6291 -0.767448 1.14554e-20)
(10.5167 -0.757001 1.00756e-17)
(10.2525 -0.205593 -5.01811e-18)
(10.061 -0.0923938 -5.00951e-18)
(10.0126 -0.0217561 7.51678e-18)
(10.0022 -0.00444253 -5.00626e-18)
(10.0004 -0.000789455 5.00637e-18)
(10.0001 -0.000128237 -5.00473e-18)
(10 -1.89957e-05 -4.88599e-21)
(10 -2.62748e-06 2.50136e-18)
(10 -3.41035e-07 1.24555e-18)
(10 -4.133e-08 -4.27314e-21)
(10 -1.0995e-09 -1.25064e-18)
(10 3.17942e-08 -4.27166e-21)
(10 2.64467e-07 -5.49096e-21)
(10 2.04004e-06 -1.56154e-19)
(10 1.47431e-05 -2.29e-26)
(10 9.92397e-05 4.68259e-19)
(10.0003 0.000609321 -3.12104e-19)
(10.0021 0.00338285 0)
(10.0123 0.0158631 1.25289e-18)
(10.0597 0.0617179 -3.74944e-18)
(10.2427 0.135631 4.99617e-18)
(10.5098 0.422401 -7.52359e-18)
(12.4849 0.416367 7.5406e-18)
(11.7702 2.77201 -1.95364e-20)
(9.80497 2.79095 -2.01867e-20)
(10.0943 0.72639 2.01494e-20)
(9.99257 0.331275 -6.30706e-22)
(9.99864 0.0774368 -1.95254e-20)
(9.99968 0.0155591 -2.07763e-20)
(9.99996 0.00271571 -6.29222e-22)
(9.99999 0.000433625 0)
(10 6.30517e-05 0)
(10 8.57004e-06 5.12462e-18)
(10 1.09415e-06 -5.14136e-18)
(10 1.30337e-07 -6.27193e-22)
(10 3.22928e-09 6.26666e-22)
(10 -1.01974e-07 -6.62077e-19)
(10 -8.65537e-07 6.41581e-19)
(10 -6.83282e-06 0)
(10 -5.08326e-05 0)
(10 -0.000354768 -5.11652e-18)
(10.0002 -0.00226122 5.09278e-18)
(10.0009 -0.0132322 -1.99557e-20)
(10.0045 -0.0670581 0)
(10.0174 -0.291479 0)
(10.1488 -0.640025 -2.04958e-20)
(10.0116 -2.4866 -2.05045e-20)
(11.8955 -2.4472 2.04575e-17)
(8.69844 3.85062 -2.09404e-17)
(8.07073 4.17959 -2.0989e-17)
(9.42989 1.38254 2.08914e-17)
(9.75833 0.596001 0)
(9.94255 0.153293 2.04946e-20)
(9.98896 0.0321601 1.05208e-17)
(9.99825 0.00569391 -2.1013e-17)
(9.99976 0.000891733 1.05128e-17)
(9.99997 0.00012502 -1.05291e-17)
(10 1.60366e-05 1.05449e-17)
(10 1.90035e-06 2.62216e-18)
(10 2.07452e-07 -3.28203e-18)
(10 -1.50324e-10 -6.58868e-19)
(10 -2.09355e-07 1.32823e-18)
(10 -1.92192e-06 0)
(10 -1.62406e-05 0)
(9.99997 -0.000126683 1.05544e-17)
(9.99975 -0.000904002 -2.11147e-17)
(9.99821 -0.00577218 1.05807e-17)
(9.98873 -0.0326187 2.06296e-20)
(9.94152 -0.155549 2.11176e-17)
(9.75416 -0.605885 -7.1112e-20)
(9.43872 -1.39018 -6.33051e-17)
(8.02331 -4.26575 6.34388e-17)
(8.84226 -3.96915 -2.13698e-17)
(7.86042 3.41077 9.25411e-21)
(7.88651 3.86502 -1.9012e-17)
(9.30153 1.28547 1.89137e-17)
(9.74915 0.50527 0)
(9.9441 0.121858 0)
(9.98998 0.0238665 0)
(9.9985 0.00394233 0)
(9.99981 0.000572528 0)
(9.99998 7.41903e-05 -4.76068e-18)
(10 8.74976e-06 9.53807e-18)
(10 9.45623e-07 -7.16603e-18)
(10 9.33407e-08 2.68005e-18)
(10 -1.82565e-09 -2.99079e-19)
(10 -1.11849e-07 -2.26115e-30)
(10 -1.11685e-06 -4.79055e-18)
(10 -1.02334e-05 4.7936e-18)
(9.99997 -8.59919e-05 0)
(9.99976 -0.000657086 0)
(9.9982 -0.00447503 -1.91979e-17)
(9.98813 -0.0267395 1.92186e-17)
(9.93484 -0.134506 -1.87755e-20)
(9.71355 -0.54631 9.39136e-21)
(9.2125 -1.3756 -9.38862e-21)
(7.6692 -4.0296 -9.4106e-21)
(7.62207 -3.54928 0)
(8.00922 2.90114 -1.73536e-17)
(8.19753 3.29411 1.70812e-17)
(9.44183 0.994811 -1.68135e-20)
(9.82191 0.350262 1.72427e-17)
(9.96435 0.0749159 -1.72329e-17)
(9.99419 0.0131749 0)
(9.9992 0.0019745 -8.6254e-18)
(9.9999 0.000261372 8.61847e-18)
(9.99999 3.09408e-05 -4.31416e-18)
(10 3.34184e-06 8.64641e-18)
(10 3.31102e-07 -4.3069e-18)
(10 3.00442e-08 1.68586e-20)
(10 -4.19625e-10 0)
(10 -3.47647e-08 2.16671e-18)
(10 -3.79388e-07 2.15841e-18)
(10 -3.79709e-06 -4.30859e-18)
(9.99999 -3.48306e-05 -8.64273e-18)
(9.99989 -0.000291069 8.64285e-18)
(9.99908 -0.0021733 -8.64261e-18)
(9.9934 -0.0143043 8.63424e-18)
(9.96007 -0.0800833 8.42982e-21)
(9.80402 -0.367168 -8.42438e-21)
(9.3861 -1.03702 0)
(8.08033 -3.34357 8.41545e-21)
(7.78679 -2.92197 0)
(8.33869 2.40261 1.5903e-17)
(8.62068 2.72086 -1.56716e-17)
(9.60992 0.743036 6.7363e-21)
(9.88888 0.235463 0)
(9.98024 0.044473 0)
(9.99709 0.00700865 -9.63094e-22)
(9.99963 0.000951463 0)
(9.99996 0.000114733 7.6997e-21)
(10 1.24248e-05 0)
(10 1.23481e-06 3.93179e-18)
(10 1.12929e-07 -5.90706e-18)
(10 9.50688e-09 2.938e-18)
(10 2.57145e-11 -9.82797e-19)
(10 -9.1831e-09 0)
(10 -1.09034e-07 0)
(10 -1.19018e-06 3.92158e-18)
(10 -1.19468e-05 -1.17789e-17)
(9.99996 -0.000110008 7.84592e-18)
(9.99965 -0.00090999 -7.85093e-18)
(9.99721 -0.00669241 7.84549e-18)
(9.98117 -0.0424242 0)
(9.89443 -0.225375 0)
(9.62802 -0.712329 0)
(8.69251 -2.63438 -9.56527e-22)
(8.40948 -2.32248 -1.56334e-17)
(8.87941 1.96236 -2.66953e-21)
(9.06009 2.19932 1.46029e-17)
(9.76528 0.525907 -1.45463e-17)
(9.93915 0.151896 0)
(9.99045 0.02511 0)
(9.99873 0.00355608 8.90419e-22)
(9.99985 0.000438019 7.29907e-18)
(9.99999 4.82554e-05 -7.293e-18)
(10 4.79484e-06 3.56327e-21)
(10 4.40559e-07 3.56374e-21)
(10 3.73734e-08 3.56419e-21)
(10 2.93012e-09 -8.9115e-22)
(10 3.11563e-12 -8.91248e-22)
(10 -2.88814e-09 1.8219e-18)
(10 -3.68487e-08 -1.8292e-18)
(10 -4.34481e-07 4.45751e-21)
(10 -4.73103e-06 4.45786e-21)
(9.99999 -4.76758e-05 0)
(9.99986 -0.000433426 -7.30027e-18)
(9.99874 -0.00352676 7.30252e-18)
(9.99054 -0.0249849 0)
(9.93957 -0.152006 -1.45937e-17)
(9.76901 -0.526087 1.462e-17)
(9.05958 -2.21877 8.90945e-22)
(8.93242 -1.98742 -1.4599e-17)
(9.12532 1.79827 3.38415e-21)
(9.21221 1.99089 0)
(9.8266 0.433528 0)
(9.95784 0.116468 -6.95358e-18)
(9.9941 0.0173198 6.94598e-18)
(9.99929 0.00224896 0)
(9.99993 0.000255236 6.94536e-18)
(9.99999 2.59776e-05 -6.95283e-18)
(10 2.38857e-06 3.47843e-18)
(10 2.04495e-07 -3.47873e-18)
(10 1.61956e-08 1.73441e-18)
(10 1.18896e-09 -1.74472e-18)
(10 -3.33573e-12 0)
(10 -1.23334e-09 -1.73475e-18)
(10 -1.67817e-08 1.74163e-18)
(10 -2.11698e-07 -3.39514e-21)
(10 -2.47048e-06 -3.39527e-21)
(9.99999 -2.68311e-05 6.79077e-21)
(9.99992 -0.000263241 6.9505e-18)
(9.99925 -0.00231411 -6.95066e-18)
(9.99384 -0.0177762 -6.79109e-21)
(9.95616 -0.118787 -6.7908e-21)
(9.81878 -0.442344 0)
(9.18624 -2.00857 -6.7933e-21)
(9.05971 -1.81075 3.38924e-21)
(9.16436 1.59905 1.25756e-23)
(9.32451 1.76957 0)
(9.85945 0.363567 1.25734e-23)
(9.96854 0.0910925 6.42447e-21)
(9.99594 0.0125468 -1.25718e-23)
(9.99954 0.00152788 -6.59019e-18)
(9.99996 0.000163004 6.58902e-18)
(10 1.55985e-05 0)
(10 1.35061e-06 -6.43225e-21)
(10 1.09324e-07 -1.25606e-23)
(10 8.18902e-09 -1.25581e-23)
(10 5.69992e-10 6.44102e-21)
(10 2.78424e-12 0)
(10 -5.32355e-10 0)
(10 -7.66826e-09 -1.25476e-23)
(10 -1.02564e-07 -1.25449e-23)
(10 -1.26948e-06 -3.28783e-18)
(10 -1.46974e-05 9.85474e-18)
(9.99996 -0.000153987 -6.57254e-18)
(9.99958 -0.00144917 0)
(9.99627 -0.0119455 -6.56203e-18)
(9.9709 -0.0874817 6.57434e-18)
(9.86997 -0.349248 1.25205e-23)
(9.36829 -1.72669 6.40702e-21)
(9.24094 -1.56106 1.25087e-23)
(9.35278 1.38079 -8.36191e-20)
(9.47706 1.52186 -9.24162e-20)
(9.89985 0.286975 1.25114e-17)
(9.97899 0.0677094 -6.27382e-18)
(9.99751 0.00855229 6.26269e-18)
(9.99974 0.000978736 -6.27132e-18)
(9.99998 9.8154e-05 6.27317e-18)
(10 8.85676e-06 -3.13751e-18)
(10 7.24106e-07 3.13842e-18)
(10 5.56408e-08 1.19755e-23)
(10 3.95515e-09 1.19789e-23)
(10 2.61449e-10 -1.19822e-23)
(10 -1.04607e-12 7.79341e-19)
(10 -2.81291e-10 7.85688e-19)
(10 -4.24069e-09 -1.57792e-18)
(10 -5.95272e-08 1.19949e-23)
(10 -7.73136e-07 6.29041e-18)
(10 -9.43877e-06 -1.25778e-17)
(9.99997 -0.000104403 6.29351e-18)
(9.99971 -0.0010377 0)
(9.99727 -0.00904493 -1.20095e-23)
(9.97704 -0.0712612 1.20114e-23)
(9.89181 -0.301918 -1.20097e-23)
(9.43383 -1.585 -1.25219e-17)
(9.32376 -1.44115 1.26643e-17)
(9.44185 1.28237 1.17703e-20)
(9.53558 1.40516 0)
(9.91753 0.249435 0)
(9.98347 0.0556806 5.8908e-21)
(9.99818 0.00655341 1.17818e-20)
(9.99982 0.000712532 0)
(9.99998 6.78714e-05 6.02587e-18)
(10 5.82027e-06 -6.03733e-18)
(10 4.52739e-07 5.88974e-21)
(10 3.32785e-08 -5.88937e-21)
(10 2.26087e-09 -1.50758e-18)
(10 1.43095e-10 1.51337e-18)
(10 2.65862e-14 3.88619e-19)
(10 -1.4757e-10 -3.76814e-19)
(10 -2.32865e-09 1.51302e-18)
(10 -3.42333e-08 -4.52103e-18)
(10 -4.6534e-07 3.00787e-18)
(10 -5.96639e-06 -5.88572e-21)
(9.99998 -6.94025e-05 5.88517e-21)
(9.99981 -0.000726015 -6.02577e-18)
(9.9981 -0.00665618 -5.38267e-21)
(9.98298 -0.0559665 3.60736e-21)
(9.91317 -0.251193 6.03126e-18)
(9.52536 -1.39188 5.88361e-21)
(9.34435 -1.26499 5.87147e-21)
(9.37763 1.14586 1.165e-17)
(9.58482 1.2565 -1.15354e-17)
(9.92768 0.216131 0)
(9.98662 0.0456403 -5.79695e-18)
(9.99859 0.00511485 -6.04317e-21)
(9.99986 0.000534094 5.7952e-18)
(9.99999 4.88357e-05 5.79655e-18)
(10 4.01616e-06 -5.78511e-18)
(10 3.00099e-07 -5.65352e-21)
(10 2.12407e-08 -2.88816e-18)
(10 1.3887e-09 1.44792e-18)
(10 8.44385e-11 1.44187e-18)
(10 8.99266e-13 -5.64728e-21)
(10 -7.31029e-11 0)
(10 -1.20927e-09 0)
(10 -1.85759e-08 0)
(10 -2.63471e-07 5.6408e-21)
(10 -3.54646e-06 1.40978e-21)
(9.99999 -4.33547e-05 -7.04683e-21)
(9.99989 -0.000478363 0)
(9.99883 -0.00461178 5.63403e-21)
(9.98872 -0.0419032 1.40805e-21)
(9.93932 -0.197831 -7.03604e-21)
(9.64215 -1.18792 -1.14724e-17)
(9.505 -1.08432 1.1579e-17)
(9.54496 0.925555 5.56287e-18)
(9.71515 1.01438 -1.10744e-17)
(9.95349 0.160327 1.10945e-17)
(9.99192 0.032457 -5.54418e-18)
(9.99921 0.00337766 -5.55902e-18)
(9.99993 0.000337021 5.55415e-18)
(9.99999 2.92919e-05 2.77466e-18)
(10 2.30262e-06 -2.78512e-18)
(10 1.64567e-07 1.38489e-18)
(10 1.12046e-08 -2.77617e-18)
(10 7.03545e-10 2.08555e-18)
(10 4.10773e-11 -8.71199e-19)
(10 -2.93507e-13 1.74026e-19)
(10 -4.59637e-11 -5.44014e-21)
(10 -7.88555e-10 2.78628e-18)
(10 -1.25173e-08 -2.79264e-18)
(10 -1.83274e-07 5.44552e-21)
(10 -2.55781e-06 5.58211e-18)
(9.99999 -3.24718e-05 6.80851e-21)
(9.99991 -0.000371717 -5.57617e-18)
(9.99907 -0.00371161 0)
(9.99056 -0.0354458 5.58705e-18)
(9.94704 -0.175761 -5.58648e-18)
(9.67285 -1.09414 -1.11162e-17)
(9.52927 -1.00238 5.51648e-20)
(9.68735 0.867564 -5.41501e-18)
(9.75909 0.94194 5.37414e-18)
(9.96421 0.13957 2.63526e-21)
(9.99379 0.0271362 -7.90566e-21)
(9.99943 0.00264929 2.63498e-21)
(9.99995 0.000255237 5.39848e-18)
(10 2.13092e-05 -2.69497e-18)
(10 1.61239e-06 -2.69202e-18)
(10 1.11014e-07 5.26751e-21)
(10 7.33844e-09 -5.26687e-21)
(10 4.46115e-10 2.63311e-21)
(10 2.53452e-11 -2.63278e-21)
(10 -1.6749e-13 0)
(10 -2.54837e-11 -1.9846e-34)
(10 -4.50102e-10 -1.34483e-18)
(10 -7.4022e-09 1.35255e-18)
(10 -1.12e-07 -2.69947e-18)
(10 -1.62232e-06 -2.63063e-21)
(10 -2.13903e-05 2.69085e-18)
(9.99995 -0.00025545 -7.88994e-21)
(9.99942 -0.00264903 -5.38525e-18)
(9.99375 -0.026841 5.37686e-18)
(9.96257 -0.138187 0)
(9.75757 -0.919202 -5.36471e-18)
(9.59813 -0.842274 5.40459e-18)
(9.6221 0.797202 0)
(9.77437 0.865737 -5.26249e-18)
(9.96674 0.126348 5.25032e-18)
(9.99462 0.023558 2.56669e-21)
(9.99952 0.00222929 2.56637e-21)
(9.99996 0.000209171 -5.25742e-18)
(10 1.69807e-05 5.25696e-18)
(10 1.24728e-06 2.62713e-18)
(10 8.35008e-08 3.20611e-22)
(10 5.37604e-09 -2.62601e-18)
(10 3.17902e-10 -2.56407e-21)
(10 1.73262e-11 2.88413e-21)
(10 8.60122e-14 0)
(10 -1.53381e-11 5.12572e-21)
(10 -2.82998e-10 -2.56245e-21)
(10 -4.80325e-09 1.31176e-18)
(10 -7.48069e-08 -1.31123e-18)
(10 -1.12323e-06 -2.5612e-21)
(10 -1.53521e-05 -2.88087e-21)
(9.99997 -0.000190629 2.56035e-21)
(9.9996 -0.00204092 -5.24255e-18)
(9.9954 -0.0219255 3.993e-21)
(9.97197 -0.116824 5.24151e-18)
(9.80401 -0.825378 0)
(9.70777 -0.760767 5.23675e-18)
(9.70622 0.651702 -1.02028e-17)
(9.84258 0.708258 5.0748e-18)
(9.97781 0.0963654 5.09446e-18)
(9.9966 0.0175278 -5.09382e-18)
(9.99971 0.00156967 0)
(9.99998 0.000142861 -3.11088e-22)
(10 1.11611e-05 0)
(10 7.94312e-07 -3.11205e-22)
(10 5.1482e-08 -3.11263e-22)
(10 3.22505e-09 0)
(10 1.85086e-10 0)
(10 9.64026e-12 -3.11434e-22)
(10 1.49408e-13 0)
(10 -1.07901e-11 0)
(10 -2.03607e-10 -1.27633e-18)
(10 -3.53463e-09 1.27655e-18)
(10 -5.6293e-08 -3.11714e-22)
(10 -8.66672e-07 -2.55401e-18)
(10 -1.21672e-05 2.55477e-18)
(9.99997 -0.000155036 0)
(9.99967 -0.00169798 5.11056e-18)
(9.99609 -0.0188497 -1.0222e-17)
(9.97498 -0.104443 1.02216e-17)
(9.82198 -0.755004 -2.29786e-20)
(9.68932 -0.697105 -5.13245e-18)
(9.8099 0.614613 1.21907e-21)
(9.86758 0.662971 -1.21908e-21)
(9.98282 0.0858126 0)
(9.99731 0.0151444 0)
(9.99978 0.00129228 0)
(9.99998 0.000115177 1.21833e-21)
(10 8.73725e-06 0)
(10 6.05097e-07 -1.21807e-21)
(10 3.81808e-08 0)
(10 2.34602e-09 -1.21781e-21)
(10 1.31584e-10 0)
(10 6.55907e-12 -3.11692e-19)
(10 1.85722e-13 3.10375e-19)
(10 -6.35741e-12 0)
(10 -1.27888e-10 1.24636e-18)
(10 -2.27876e-09 -2.49243e-18)
(10 -3.71314e-08 1.24486e-18)
(10 -5.87647e-07 0)
(10 -8.47338e-06 2.49158e-18)
(9.99998 -0.000111568 -2.49129e-18)
(9.99979 -0.00125308 4.98069e-18)
(9.99741 -0.0145855 -4.98145e-18)
(9.98273 -0.0825092 0)
(9.87125 -0.632621 0)
(9.75905 -0.583869 0)
(9.75135 0.574392 -1.19595e-21)
(9.87021 0.619617 1.19636e-21)
(9.98306 0.079984 0)
(9.99752 0.0136611 0)
(9.9998 0.00114466 0)
(9.99998 0.000100265 -1.19585e-21)
(10 7.46498e-06 0)
(10 5.0617e-07 1.19564e-21)
(10 3.13229e-08 0)
(10 1.8884e-09 -1.22292e-18)
(10 1.03793e-10 1.22341e-18)
(10 5.22488e-12 -1.19522e-21)
(10 4.91548e-14 1.19484e-21)
(10 -4.62267e-12 1.195e-21)
(10 -9.32598e-11 0)
(10 -1.70227e-09 0)
(10 -2.82876e-08 1.19466e-21)
(10 -4.59621e-07 -2.44644e-18)
(10 -6.80183e-06 2.4462e-18)
(9.99999 -9.21375e-05 0)
(9.99984 -0.00105551 1.1942e-21)
(9.99791 -0.0128292 0)
(9.98622 -0.0744333 0)
(9.88944 -0.596579 0)
(9.83249 -0.554027 0)
(9.7953 0.471363 -4.7981e-18)
(9.9092 0.509292 4.77007e-18)
(9.9885 0.0616202 0)
(9.9984 0.0104121 -2.3374e-21)
(9.99988 0.00083452 0)
(9.99999 7.14429e-05 -2.39428e-18)
(10 5.15423e-06 4.78699e-18)
(10 3.41521e-07 -2.39271e-18)
(10 2.06041e-08 -1.20005e-18)
(10 1.2163e-09 1.1979e-18)
(10 6.53094e-11 5.85006e-22)
(10 3.33273e-12 1.55636e-19)
(10 -6.83932e-14 -1.49781e-19)
(10 -3.86915e-12 1.1928e-18)
(10 -7.4297e-11 -1.19884e-18)
(10 -1.38022e-09 0)
(10 -2.33066e-08 -2.34221e-21)
(10 -3.84945e-07 0)
(10 -5.80422e-06 0)
(9.99999 -7.9902e-05 -2.39952e-18)
(9.99985 -0.000928602 2.40223e-18)
(9.99806 -0.0114686 0)
(9.98632 -0.0688402 4.79634e-18)
(9.89238 -0.553565 -1.91525e-20)
(9.77654 -0.513998 -9.61831e-18)
(9.8716 0.44404 4.71308e-18)
(9.92487 0.476825 2.30213e-21)
(9.99114 0.0556548 4.71386e-18)
(9.99872 0.0091637 -2.35372e-18)
(9.99991 0.000708293 -2.35641e-18)
(9.99999 5.99319e-05 0)
(10 4.23001e-06 1.15043e-21)
(10 2.74652e-07 2.35475e-18)
(10 1.62472e-08 -2.35342e-18)
(10 9.47146e-10 0)
(10 4.98564e-11 0)
(10 2.39906e-12 -3.44995e-21)
(10 1.54009e-13 4.5988e-21)
(10 -2.42521e-12 2.2996e-21)
(10 -4.84625e-11 5.898e-19)
(10 -9.20648e-10 -5.88603e-19)
(10 -1.58184e-08 1.14952e-21)
(10 -2.66924e-07 2.35403e-18)
(10 -4.10218e-06 -4.70767e-18)
(9.99999 -5.80302e-05 2.35364e-18)
(9.99991 -0.000687447 -2.29828e-21)
(9.99874 -0.00882806 0)
(9.99073 -0.0533809 2.2977e-21)
(9.92467 -0.454693 4.69654e-18)
(9.81927 -0.421423 -9.43124e-18)
(9.82132 0.415877 -4.6512e-18)
(9.92446 0.446468 -4.6519e-18)
(9.99093 0.0523551 4.64607e-18)
(9.99878 0.00839423 2.32414e-18)
(9.99991 0.000642455 -2.32453e-18)
(9.99999 5.37307e-05 0)
(10 3.74637e-06 5.67306e-22)
(10 2.39593e-07 -1.70181e-21)
(10 1.39874e-08 1.16169e-18)
(10 8.04418e-10 -2.32323e-18)
(10 4.17228e-11 1.16154e-18)
(10 1.82251e-12 2.89797e-19)
(10 2.11416e-13 -2.71571e-19)
(10 -1.59189e-12 2.69912e-19)
(10 -3.75822e-11 -2.91439e-19)
(10 -7.23082e-10 0)
(10 -1.25917e-08 1.70077e-21)
(10 -2.16885e-07 -5.66884e-22)
(10 -3.40038e-06 -2.32179e-18)
(9.99999 -4.92055e-05 2.32106e-18)
(9.99993 -0.000590019 0)
(9.99901 -0.0078539 0)
(9.99295 -0.0484004 -5.66658e-22)
(9.93825 -0.427776 -4.63142e-18)
(9.88814 -0.398963 1.2233e-20)
(9.84898 0.335947 -2.2929e-18)
(9.94837 0.361547 2.28083e-18)
(9.99389 0.0398758 5.57845e-22)
(9.99923 0.00640326 0)
(9.99994 0.000472205 2.28619e-18)
(10 3.87834e-05 -2.28367e-18)
(10 2.63376e-06 5.58148e-22)
(10 1.65717e-07 5.58215e-22)
(10 9.48103e-09 2.23313e-21)
(10 5.36719e-10 -2.85874e-19)
(10 2.767e-11 1.42954e-19)
(10 1.03112e-12 2.80897e-19)
(10 -3.57653e-13 -1.43483e-19)
(10 -1.40842e-12 5.74252e-19)
(10 -3.18462e-11 -5.72084e-19)
(10 -6.23829e-10 0)
(10 -1.09875e-08 1.67642e-21)
(10 -1.91225e-07 -2.28634e-18)
(10 -3.03859e-06 2.28716e-18)
(9.99999 -4.43769e-05 5.59e-22)
(9.99993 -0.000536695 0)
(9.99902 -0.00718587 0)
(9.9925 -0.0456855 5.5916e-22)
(9.93672 -0.399966 -4.57165e-18)
(9.83616 -0.373042 4.59516e-18)
(9.91135 0.316025 2.2077e-21)
(9.95903 0.338182 0)
(9.99548 0.0363517 -1.10326e-21)
(9.99939 0.00570364 -2.25832e-18)
(9.99996 0.000409281 2.26039e-18)
(10 3.3448e-05 -2.26138e-18)
(10 2.23492e-06 2.26015e-18)
(10 1.38492e-07 -1.12946e-18)
(10 7.81116e-09 1.12719e-18)
(10 4.38544e-10 -5.64665e-19)
(10 2.23873e-11 5.64633e-19)
(10 1.08831e-12 -2.7781e-19)
(10 7.4986e-14 3.17431e-19)
(10 -8.89033e-13 -3.74887e-20)
(10 -2.14101e-11 5.65605e-19)
(10 -4.21496e-10 -1.12784e-18)