/*--------------------------------*- C++ -*----------------------------------*\
| =========                 |                                                 |
| \\      /  F ield         | OpenFOAM: The Open Source CFD Toolbox           |
|  \\    /   O peration     | Version:  2112                                  |
|   \\  /    A nd           | Website:  www.openfoam.com                      |
|    \\/     M anipulation  |                                                 |
\*---------------------------------------------------------------------------*/
FoamFile
{
    version     2.0;
    format      ascii;
    arch        "LSB;label=32;scalar=64";
    class       volVectorField;
    location    "0.00202";
    object      U;
}
// * * * * * * * * * * * * * * * * * * * * * * * * * * * * * * * * * * * * * //

dimensions      [0 1 -1 0 0 0 0];

internalField   nonuniform List<vector> 
13875
(
(2204.27 109.719 1.81232e-18)
(2142.72 5.65111 -9.38368e-19)
(2170.11 -2.22327 -9.41126e-19)
(2168.28 -1.22951 0)
(2170.84 0.0741684 0)
(2169.61 -0.0636292 9.364e-19)
(2169.59 -0.351765 -9.368e-19)
(2169.81 -1.07131 -4.68381e-19)
(2169.58 -1.24654 4.68058e-19)
(2169.96 -0.027625 0)
(2169.35 1.20204 -3.88109e-22)
(2169.55 0.97144 -3.8603e-22)
(2169.52 -0.0120122 0)
(2169.46 -0.28906 -4.68081e-19)
(2169.74 -1.37045 4.68359e-19)
(2169.95 -0.611253 0)
(2169.71 1.05996 9.36442e-19)
(2170.17 1.0162 -9.36581e-19)
(2169.67 0.46769 3.85562e-22)
(2169.59 0.0595339 -3.85508e-22)
(2170.96 -0.221986 -9.35759e-19)
(2167.9 0.439505 9.36943e-19)
(2171 2.52918 -1.87808e-18)
(2143.61 -8.69518 1.91661e-18)
(2210.47 -106.823 1.76323e-18)
(2253.43 91.8876 -1.63214e-18)
(2228.58 -1.13656 1.88352e-18)
(2247.29 0.675981 8.71854e-19)
(2245.6 1.37873 -8.67198e-19)
(2248.51 -0.437399 4.16365e-22)
(2248.16 0.460133 5.20307e-22)
(2248.15 0.385873 4.16163e-22)
(2247.81 1.30706 -4.36424e-19)
(2245.7 1.58715 4.33324e-19)
(2245.74 0.130875 2.17344e-19)
(2245.45 -1.39635 -1.63296e-19)
(2247.74 -1.23178 -5.32565e-20)
(2247.95 0.00929091 0)
(2247.87 0.337008 -4.35199e-19)
(2247.73 1.61135 4.33178e-19)
(2246.02 0.63972 4.35383e-19)
(2245.81 -1.56355 -4.35441e-19)
(2247.96 -1.26912 5.19532e-22)
(2248.17 -0.408017 -5.20341e-22)
(2248.13 -0.495247 5.20191e-22)
(2248.67 0.681902 -8.7103e-19)
(2245.54 -0.740906 2.6e-18)
(2247.19 -1.60633 -1.74276e-18)
(2229 3.56075 5.42716e-22)
(2256.64 -96.8539 -1.71219e-18)
(2252.5 78.0813 0)
(2236.49 -18.1903 0)
(2249.31 4.42194 0)
(2250.89 -1.96209 0)
(2254.12 -3.05034 -1.6549e-18)
(2253.9 -0.718229 1.64363e-18)
(2254.16 0.309049 1.64017e-18)
(2254.14 2.31023 -2.45865e-18)
(2253.48 1.90361 8.5974e-19)
(2254.28 0.274072 4.30461e-22)
(2253.14 -2.04015 -4.29538e-19)
(2254.08 -2.45922 4.10893e-19)
(2254.16 -0.299131 0)
(2254.24 0.225853 0)
(2254.42 1.6313 4.15415e-22)
(2254.65 1.9639 0)
(2253.61 -1.51297 8.38488e-22)
(2254.43 -2.30733 4.09501e-19)
(2254.29 -0.336629 -4.09966e-19)
(2253.96 0.547173 0)
(2254.33 2.9691 0)
(2250.99 1.41236 0)
(2250.6 -4.79875 0)
(2237.98 13.7723 0)
(2257 -74.6065 0)
(2247.89 51.355 0)
(2235.02 -28.4805 1.81471e-18)
(2249.08 7.2047 -3.41752e-18)
(2251.63 -4.73787 3.46524e-18)
(2253.76 -3.84473 -1.65688e-18)
(2253.75 -1.02901 0)
(2254.11 0.28931 -7.85826e-22)
(2254.11 2.29043 0)
(2254.15 1.63267 0)
(2254.85 0.299161 0)
(2254.05 -1.57497 0)
(2254.06 -2.45664 -7.85549e-22)
(2254.15 -0.379704 -5.12796e-20)
(2254.21 0.181713 5.05379e-20)
(2254.42 1.42613 0)
(2254.89 1.69124 0)
(2254.45 -1.16579 8.38705e-22)
(2254.4 -2.24441 -8.09139e-19)
(2254.24 -0.316763 8.02313e-19)
(2253.85 0.821752 -1.6261e-18)
(2254.09 3.59302 1.63265e-18)
(2252.02 4.70007 1.74115e-18)
(2249.7 -8.83496 -1.72045e-18)
(2235.66 31.2674 0)
(2251.44 -58.6641 0)
(2244.99 39.3598 1.74888e-18)
(2235.58 -47.6366 0)
(2248.55 10.4491 0)
(2250.61 -8.20574 0)
(2254.13 -5.48164 0)
(2253.85 -1.80079 1.66129e-21)
(2254.03 0.136384 1.62615e-21)
(2254.08 2.17325 4.15931e-19)
(2254.19 1.03073 -4.30099e-19)
(2254.81 0.299604 1.99635e-19)
(2253.96 -1.31904 -2.16459e-19)
(2253.99 -2.44533 0)
(2254.06 -0.521379 0)
(2254.12 0.182366 -1.64106e-21)
(2254.28 1.28013 0)
(2254.8 1.61441 -1.58328e-21)
(2254.44 -0.672122 8.59847e-19)
(2254.39 -2.04421 -8.35327e-19)
(2254.15 -0.180815 1.65517e-18)
(2253.9 1.53669 -1.68949e-18)
(2254.32 5.02626 1.66539e-21)
(2250.77 6.92794 0)
(2249.94 -11.4406 0)
(2237.18 42.8036 0)
(2250.52 -35.1554 0)
(2241.47 6.87826 0)
(2231.46 -63.197 9.12789e-19)
(2246.97 12.2418 -8.48233e-19)
(2250.89 -11.6139 0)
(2252.95 -6.41014 8.61395e-19)
(2253.16 -2.30742 -4.31538e-19)
(2253.68 0.0344566 -2.1653e-21)
(2253.84 2.07177 -2.10814e-19)
(2254.04 0.736463 -4.3081e-19)
(2254.67 0.382616 1.57393e-19)
(2253.95 -0.757928 1.5913e-21)
(2253.86 -2.34384 2.65115e-19)
(2253.9 -0.660545 -2.16156e-19)
(2253.94 0.0822142 3.32154e-21)
(2254.17 0.922263 -4.30562e-19)
(2254.68 1.3274 4.26354e-19)
(2254.33 -0.421629 1.67881e-21)
(2254.15 -1.9105 -1.64649e-21)
(2253.81 -0.146828 -1.62753e-21)
(2253.27 1.88282 -8.50599e-19)
(2253.32 5.63364 8.5248e-19)
(2251.49 11.4309 0)
(2247.33 -15.0346 0)
(2232.4 65.3836 -1.93358e-18)
(2246.2 -19.0299 -1.26468e-19)
(2254.41 3.0401 -4.95381e-20)
(2227.48 -78.9858 6.0235e-20)
(2242.76 12.1838 0)
(2248.69 -16.6227 -2.69235e-23)
(2252.56 -8.76488 -2.62366e-23)
(2252.84 -3.81311 0)
(2253.32 -0.584941 0)
(2253.6 1.54511 -8.38318e-19)
(2253.87 -0.00728056 8.50523e-19)
(2254.35 0.283922 0)
(2253.67 -0.547313 1.72346e-18)
(2253.55 -2.22919 3.0328e-21)
(2253.56 -0.761246 -1.72934e-18)
(2253.59 0.145674 -1.69927e-21)
(2253.82 0.848733 0)
(2254.28 1.207 3.43185e-18)
(2254.07 0.0297271 5.25133e-21)
(2253.91 -1.33066 -6.74225e-18)
(2253.46 0.533697 3.35341e-18)
(2252.95 3.36778 2.59227e-23)
(2252.81 8.00497 0)
(2248.62 13.802 3.5314e-18)
(2244.05 -12.3853 -3.31184e-18)
(2228.78 72.8445 3.81555e-18)
(2247.21 2.78295 -3.18117e-18)
(2217.58 -22.6777 -3.16107e-19)
(2214.29 -86.9819 -7.50408e-18)
(2235.01 3.49141 8.73537e-22)
(2245.8 -23.3015 2.61589e-23)
(2248.76 -10.8631 -8.10724e-22)
(2250.48 -4.89094 0)
(2251.82 -0.986578 -3.34568e-18)
(2252.63 1.29518 3.37843e-18)
(2253.11 -0.153679 0)
(2253.63 0.559307 -8.23718e-22)
(2253.18 0.0670526 -8.39091e-22)
(2252.94 -1.93378 0)
(2252.88 -0.785087 0)
(2252.91 -0.00869735 -1.66142e-21)
(2253.21 0.452086 -8.42496e-22)
(2253.63 0.696798 2.61409e-23)
(2253.35 0.0556718 -8.54643e-22)
(2252.99 -1.0911 -2.57679e-23)
(2252.1 0.869514 -1.68496e-18)
(2250.84 4.30809 -1.37539e-20)
(2249.47 9.87726 1.69019e-18)
(2246.33 20.2782 8.88264e-22)
(2236.62 -4.51849 3.46063e-18)
(2216.35 81.4603 -3.53739e-18)
(2222 18.1046 2.50274e-23)
(2109.56 -37.9121 9.41257e-19)
(2167.51 -98.2203 0)
(2215.98 -20.3993 -8.31711e-22)
(2234.68 -33.282 -8.65218e-19)
(2245.03 -20.0637 1.70826e-18)
(2248.21 -10.0139 -1.7055e-18)
(2250 -3.98005 7.732e-21)
(2251.24 -0.348633 8.50835e-19)
(2251.72 -1.35084 0)
(2252.28 0.0179223 -8.47561e-19)
(2251.92 0.263936 8.57216e-19)
(2251.61 -1.55126 0)
(2251.45 -0.831775 0)
(2251.47 -0.0227755 2.10246e-21)
(2251.85 0.314913 8.37151e-22)
(2252.22 0.636679 8.59298e-19)
(2251.95 0.867871 -8.49411e-19)
(2251.62 0.376407 0)
(2250.4 3.28585 8.50974e-19)
(2248.73 8.59827 -1.70674e-18)
(2245.99 17.175 8.46513e-19)
(2236.14 29.6503 -8.40119e-22)
(2218.42 16.8015 0)
(2170.76 93.9113 0)
(2115.77 35.4552 0)
(1861.12 -143.584 -6.64151e-17)
(2120.77 -160.578 8.50764e-17)
(2194.69 -55.5326 0)
(2225.12 -57.9524 -2.96974e-17)
(2236.83 -23.5516 3.09379e-17)
(2243.08 -11.6973 0)
(2246.11 -4.22294 -2.96041e-20)
(2247.87 -0.966447 -1.45833e-17)
(2248.68 -1.2067 1.4693e-17)
(2249.36 0.416868 -2.96794e-20)
(2249.11 0.860462 0)
(2248.79 -0.916097 -3.7359e-18)
(2248.51 -0.654359 5.58777e-18)
(2248.52 -0.326842 -1.90117e-18)
(2248.97 -0.262134 -2.96493e-20)
(2249.27 0.126478 0)
(2248.9 0.792763 0)
(2248.33 0.908675 -2.95368e-17)
(2246.68 3.80488 2.92053e-17)
(2243.77 10.3838 -3.02111e-17)
(2238.81 21.8654 2.95495e-17)
(2227.2 54.5142 3.21868e-17)
(2198.66 53.486 -2.93135e-17)
(2127.46 162.717 -8.35507e-17)
(1880.79 139.231 -1.26576e-17)
(1641.58 -226.254 -9.14823e-17)
(2006.39 -312.046 1.38117e-16)
(2146.57 -114.969 0)
(2199.1 -65.1594 6.92698e-17)
(2225.92 -32.1471 -7.20148e-17)
(2234.44 -17.3231 -3.34189e-17)
(2238.96 -8.04736 3.40564e-17)
(2241.02 -4.38001 -3.37095e-17)
(2242.29 -2.92755 3.40002e-17)
(2243.07 -0.598309 3.24068e-20)
(2242.9 0.571416 0)
(2242.69 -0.250801 -2.13592e-18)
(2242.28 -0.474835 2.16311e-18)
(2242.3 -0.432333 3.2691e-20)
(2242.71 -0.435453 3.25342e-20)
(2242.93 0.305352 3.43714e-20)
(2242.45 1.88723 0)
(2241.56 3.5348 0)
(2239.75 6.95627 -6.84094e-17)
(2235.53 15.2884 6.71771e-17)
(2228.4 27.668 -7.21281e-17)
(2206.38 58.8397 1.47471e-16)
(2160.58 99.672 -7.06773e-17)
(2011.94 299.574 -3.8918e-20)
(1690.19 206.698 8.82852e-20)
(1234.32 -573.877 -1.1559e-16)
(1736.47 -574.26 1.18339e-16)
(1958.45 -163.981 2.39693e-16)
(2145.53 -121.917 -9.81387e-17)
(2192.91 -39.8716 0)
(2209.29 -15.2416 7.51287e-17)
(2219.96 -6.89111 -7.69214e-17)
(2223.63 -2.24793 0)
(2226.49 -1.44177 3.54969e-20)
(2227.52 0.879271 0)
(2227.54 1.58744 0)
(2227.73 0.505998 0)
(2227.11 0.0376761 4.73944e-18)
(2227.25 -0.844691 -4.74366e-18)
(2227.52 -1.01142 -4.00518e-20)
(2227.53 -0.641719 -3.51907e-20)
(2226.72 0.335657 0)
(2224.53 1.15378 0)
(2221.39 5.43174 0)
(2211.14 12.1832 -7.88013e-17)
(2198.64 35.6322 1.59871e-16)
(2161.47 103.851 -7.45591e-17)
(2034.76 162.903 -1.33171e-16)
(1746.6 589.733 1.01693e-16)
(1272.09 551.098 -6.01329e-20)
(1248.58 -641.43 1.71484e-16)
(1149.9 -999.844 0)
(1406.89 -645.405 0)
(1845.72 -183.922 -1.15416e-16)
(2090.75 -82.9513 1.22467e-16)
(2144.51 -57.9063 0)
(2160.09 -29.489 1.42919e-20)
(2170.55 -18.2078 4.3867e-17)
(2177.09 -8.74867 -4.43178e-17)
(2179.33 -3.99228 0)
(2179.19 -1.05507 -1.0909e-17)
(2181.09 0.836555 1.09163e-17)
(2179.06 0.366089 -5.47083e-18)
(2180.46 -0.282407 5.46737e-18)
(2180.3 0.0576498 3.91617e-20)
(2179.96 2.21574 -4.37216e-17)
(2178.07 6.50413 8.79972e-17)
(2172.77 14.4823 9.52516e-19)
(2162.92 25.3025 -4.37784e-17)
(2147.39 53.1406 -9.60685e-17)
(2090.65 60.4938 9.00766e-17)
(1862.15 99.7273 8.73415e-20)
(1626.12 501.73 2.77826e-20)
(1104.47 1052.36 1.69633e-16)
(1304.83 616.056 7.54872e-18)
(1311.85 -645.727 0)
(1165.26 -999.698 0)
(1180.76 -757.526 0)
(1062.07 -859.073 0)
(1889.08 -284.753 0)
(1872.66 -22.8829 1.30351e-16)
(1917.86 19.2888 -1.33594e-16)
(1967.06 20.9854 2.00905e-19)
(1987.35 7.81105 -1.17199e-20)
(2004.72 7.72011 2.83017e-17)
(1996.59 6.00864 -2.88546e-17)
(2013.03 1.14608 -3.76161e-19)
(1998.81 1.60698 -8.98842e-19)
(2009.26 -2.24468 1.07061e-18)
(2005.76 -1.30188 -2.84715e-17)
(2005.03 -4.222 2.82889e-17)
(1996.29 -7.40402 1.77098e-19)
(1973.76 -15.4523 0)
(1920.4 -18.8752 0)
(1876.05 27.8416 0)
(1866.29 330.491 -2.13976e-16)
(1090.06 819.342 -5.56309e-17)
(1241.59 702.036 1.68023e-16)
(1136.13 989.081 2.07126e-20)
(1347.97 622.095 2.0899e-20)
(1390.01 -632.224 0)
(1251.84 -881.107 4.17111e-20)
(1229.58 -737.991 0)
(1095.99 -826.522 -1.80551e-16)
(1190.36 -674.787 3.4922e-16)
(1015.78 -556.66 -2.30021e-16)
(1055.1 -486.602 0)
(1313.49 -265.897 -1.57747e-19)
(1245.06 -134.479 0)
(1369.45 -49.2679 0)
(1241.06 -46.4039 -2.97462e-17)
(1380.02 -0.488082 3.07093e-17)
(1249.41 -0.50153 3.03457e-17)
(1340.88 -3.97021 -3.05102e-17)
(1303.23 13.8751 0)
(1340.03 41.6562 -1.2109e-16)
(1308.79 103.139 1.1964e-16)
(1338.52 210.936 1.22672e-16)
(1140.55 428.572 -1.12294e-16)
(1060.13 583.234 0)
(1173.34 675.457 0)
(1092.75 809.464 -1.73664e-19)
(1267.27 695.033 -1.73914e-16)
(1256.72 872.057 3.78339e-16)
(1389.05 616.208 -1.73936e-16)
(1462.04 -624.155 -1.76374e-16)
(1351.92 -802.145 1.9157e-16)
(1291.48 -631.082 0)
(1145.69 -629.646 -2.41628e-16)
(1164 -531.142 -4.06277e-17)
(936.321 -400.486 3.50117e-16)
(458.826 -108.928 -2.52273e-16)
(441.21 -91.0906 1.35684e-16)
(208.219 -21.5285 0)
(283.366 -27.9186 0)
(76.9831 1.77226 -4.34997e-20)
(232.34 -19.8908 1.60028e-19)
(69.0929 17.7435 0)
(182.166 -21.2817 0)
(139.255 8.98712 6.64432e-17)
(213.584 6.13429 -6.80812e-17)
(226.67 9.6257 -1.34066e-16)
(410.568 82.0861 2.75665e-16)
(433.098 86.6796 -6.7159e-18)
(801.441 301.518 -1.34145e-16)
(1140.8 501.678 0)
(1136.39 644.137 0)
(1301.08 605.073 -1.89234e-16)
(1308.52 802.708 2.18638e-16)
(1445.37 618.24 -4.57735e-20)
(1568.7 -548.78 1.69786e-16)
(1483.85 -602.165 -9.73347e-20)
(1457.37 -431.493 1.08322e-16)
(1291.7 -332.498 -1.01207e-16)
(1229.33 -251.122 -5.07733e-20)
(967.454 -143.842 1.23041e-19)
(605.415 -56.3178 1.28777e-16)
(574.249 -132.726 -1.99635e-16)
(473.367 -76.3974 6.75953e-17)
(489.55 -94.5995 0)
(454.066 -43.0942 -3.3211e-17)
(480.199 -41.3164 3.2596e-17)
(454.795 -8.54485 0)
(463.728 15.2096 5.87593e-20)
(454.493 31.3866 -3.31874e-17)
(463.728 59.5285 3.29504e-17)
(461.109 72.348 0)
(553.856 108.196 -1.34466e-16)
(564.62 77.3846 1.31709e-16)
(843.35 104.998 1.2099e-16)
(1178.85 207.557 -2.223e-16)
(1246.16 315.82 1.22649e-16)
(1421.41 427.029 0)
(1462.37 638.194 1.78614e-16)
(1555.03 562.074 -1.07111e-17)
(1703.95 -396.523 -6.46755e-18)
(1602.02 -234.35 9.70344e-17)
(1446.99 -169.394 -4.46821e-17)
(1319.25 -47.3207 -5.71387e-17)
(1320.91 -104.438 7.91593e-17)
(1133.9 -160.773 -5.74765e-17)
(898.198 -170.729 6.25974e-17)
(884.647 -159.775 -6.34857e-17)
(828.409 -116.688 -1.50182e-19)
(806.854 -106.727 3.21168e-17)
(749.54 -49.9699 1.60225e-17)
(777.929 -40.4516 -3.72403e-20)
(729.967 -1.18373 -1.60694e-17)
(760.983 28.5484 -6.24822e-20)
(758.167 51.5827 -7.73243e-20)
(786.398 88.2364 -2.01323e-18)
(832.442 122.905 9.83357e-22)
(892.187 141.243 5.98513e-18)
(904.617 160.282 -3.90208e-18)
(1083 156.197 0)
(1267.86 104.137 1.32209e-17)
(1266.37 63.3279 -4.04181e-17)
(1437.28 141.791 4.94035e-17)
(1578.5 246.426 -6.92864e-17)
(1690.36 404.693 6.58373e-17)
(1805.26 -279.768 -1.0452e-19)
(1754.9 41.7909 -1.39378e-19)
(1612.69 101.717 1.63931e-19)
(1463.2 1.58752 -7.13496e-21)
(1461 -63.1477 -1.69813e-19)
(1382.68 -117.587 -1.95992e-19)
(1172.88 -146.913 -7.95119e-21)
(1048.53 -139.037 0)
(971.288 -86.6341 0)
(942.378 -82.0361 6.44628e-17)
(885.422 -43.4236 -6.37692e-17)
(892.495 -31.8761 -8.22932e-21)
(855.564 -4.93449 8.22997e-21)
(877.361 22.7911 -8.28045e-18)
(878.873 42.358 8.0528e-18)
(918.377 70.9589 0)
(961.639 89.6879 0)
(1019.2 125.204 -6.25607e-17)
(1114.2 164.269 6.06495e-17)
(1327.22 148.176 -1.89899e-19)
(1418.77 107.229 0)
(1418.11 17.0138 0)
(1587.53 -111.052 -1.69477e-19)
(1725.56 -57.2235 -1.44932e-19)
(1789.58 276.319 1.55789e-16)
(1782.07 174.84 -1.69152e-16)
(1709.03 391.497 -2.22898e-16)
(1681.61 358.516 1.39966e-16)
(1615.3 216.085 0)
(1597.56 59.4687 2.22147e-19)
(1545.81 -22.0181 1.06597e-16)
(1394.57 -51.8882 -2.185e-16)
(1227.1 -69.0201 1.14783e-16)
(1105.24 -46.4266 -1.2719e-16)
(1051.42 -48.9456 1.26424e-16)
(994.014 -25.5299 3.20728e-17)
(985.914 -18.9413 -3.98251e-17)
(956.029 0.28783 -8.03995e-18)
(972.51 20.3356 1.62236e-17)
(985.386 32.3908 0)
(1028.61 48.5056 0)
(1092.11 59.6942 1.24976e-16)
(1193.96 73.2227 -2.4289e-16)
(1350.75 82.3118 1.16232e-16)
(1516.7 54.2032 2.28517e-19)
(1578.97 -26.6989 1.95557e-16)
(1597.72 -206.466 -2.01084e-17)
(1679.18 -348.247 -4.82525e-16)
(1690.75 -402.604 5.52435e-16)
(1756.19 -249.083 -3.0524e-16)
(1502.89 535.146 1.12739e-19)
(1537.81 839.477 -1.98352e-16)
(1717.51 592.937 1.25766e-16)
(1708.02 377.945 0)
(1685.92 204.818 0)
(1642.81 112.371 0)
(1515.08 73.3204 0)
(1360.77 21.7399 0)
(1230.31 12.2013 -5.48561e-17)
(1163.1 -12.5836 1.11136e-16)
(1095.88 -1.644 -8.39596e-17)
(1083.84 -4.68468 3.14227e-17)
(1054.11 4.49718 -3.51794e-18)
(1072.75 13.6128 1.28135e-20)
(1089.06 14.8915 -5.59516e-17)
(1147.75 21.4441 5.67886e-17)
(1223.52 6.89126 0)
(1336.45 -13.0884 0)
(1490.49 -44.5659 -1.75967e-16)
(1629.25 -91.4789 1.90645e-16)
(1677.94 -182.016 -1.72576e-19)
(1701.49 -375.231 7.08399e-20)
(1712.46 -597.547 -9.32898e-20)
(1567.32 -815.834 -7.13529e-20)
(1470.07 -623.861 0)
(1192.43 847.93 -1.83977e-16)
(1579.94 992.703 1.17224e-16)
(1774.55 746.801 -1.31666e-19)
(1758.98 532.236 1.51641e-16)
(1741.15 343.195 -1.30566e-16)
(1696.97 240.882 0)
(1594.66 186.408 -8.44519e-17)
(1458.99 110.033 8.27583e-17)
(1330.84 71.4658 -4.77235e-17)
(1257.73 33.6448 9.69155e-17)
(1194.43 25.215 -4.82319e-17)
(1174.58 10.0629 1.80834e-19)
(1150.85 6.60389 0)
(1167.02 2.95155 2.45501e-17)
(1192.84 -8.59644 2.37352e-17)
(1251.62 -22.6763 -4.92117e-17)
(1333.4 -52.6153 -9.15663e-17)
(1446.63 -104.855 9.07731e-17)
(1578.77 -167.559 -7.44193e-17)
(1688.14 -229.868 8.23653e-17)
(1738.84 -330.567 8.03151e-20)
(1758.2 -536.524 -7.9005e-20)
(1755.88 -757.985 0)
(1593.35 -974.079 6.50203e-20)
(1191.11 -857.804 0)
(1158.14 793.029 1.44085e-16)
(1622.74 947.824 -1.30761e-16)
(1797.41 820.379 5.10622e-20)
(1775.41 675.904 0)
(1763.19 494.032 0)
(1724.63 377.502 -7.48504e-21)
(1648.75 289.939 0)
(1538.19 190.785 8.00736e-20)
(1420.75 134.63 0)
(1349.47 74.2217 4.31441e-17)
(1283.33 52.8206 -6.43364e-17)
(1266.95 24.0434 3.21509e-17)
(1241.44 7.69451 -1.07814e-17)
(1260.92 -9.88867 0)
(1283.01 -35.7013 0)
(1346.49 -60.358 4.14802e-17)
(1424.81 -114.109 -1.20871e-16)
(1524.77 -184.569 7.87717e-17)
(1633.79 -269.657 -6.49253e-17)
(1716.16 -371.959 7.17308e-17)
(1761.47 -481.012 0)
(1780.69 -658.016 0)
(1796.05 -815.155 0)
(1637.8 -910.99 -6.96889e-21)
(1147.65 -764.286 -1.6602e-16)
(1267.73 688.767 -2.77742e-20)
(1707 833.202 1.07465e-16)
(1783.63 860.142 -9.86594e-17)
(1782.52 743.455 0)
(1773.34 599.454 0)
(1748.03 477.832 7.71895e-21)
(1690.34 366.523 6.58533e-17)
(1592.17 256.211 -6.39992e-17)
(1487.78 188.111 3.31618e-20)
(1424.79 118.531 3.47075e-20)
(1366.81 78.2345 3.5248e-20)
(1346.37 37.403 -1.01545e-20)
(1326.16 7.88277 -1.01474e-20)
(1341.11 -22.4589 1.91504e-17)
(1368.41 -59.7823 -1.94755e-17)
(1424.08 -104.304 4.47971e-20)
(1495.02 -166.059 4.30334e-20)
(1585.44 -247.837 0)
(1680.94 -345.171 -5.79765e-17)
(1744.21 -471.649 6.4026e-17)
(1772.9 -587.805 0)
(1790.33 -724.703 -1.01246e-16)
(1782.41 -849.443 1.03738e-16)
(1711.7 -826.542 6.41692e-21)
(1306.93 -698.744 -1.48473e-16)
(1358.49 582.739 3.41312e-20)
(1736.93 773.903 0)
(1768.88 860.939 0)
(1781.93 786.46 -5.44224e-17)
(1779.08 675.817 4.7741e-17)
(1771.24 553.983 0)
(1724.95 430.559 6.04907e-17)
(1640.17 310.421 -5.86694e-17)
(1549.6 230.959 3.41647e-17)
(1494.77 148.166 -3.39679e-17)
(1438.01 102.097 1.78567e-17)
(1424.6 47.8606 -1.76563e-17)
(1402.44 7.15255 0)
(1420.77 -36.0834 -1.75354e-17)
(1440.92 -87.0023 1.79314e-17)
(1496.76 -137.9 -3.65978e-20)
(1561.49 -215.938 -3.51384e-20)
(1636.51 -310.192 5.67282e-20)
(1717.46 -416.722 5.32831e-17)
(1768.11 -552.465 -5.83696e-17)
(1773.7 -669.298 -4.9193e-20)
(1785.79 -771.134 -4.87124e-20)
(1774.59 -847.391 0)
(1738.24 -754.894 -5.11721e-20)
(1364.71 -581.806 3.42461e-20)
(1397.96 515.921 1.26344e-22)
(1749.46 710.152 0)
(1764.53 849.264 8.51955e-23)
(1783.13 806.398 4.47441e-20)
(1786.93 722.769 -8.81928e-23)
(1791.94 603.788 -5.29126e-17)
(1753.06 479.338 4.90886e-17)
(1677.46 359.301 0)
(1599.65 272.121 -6.39426e-20)
(1553.81 183.552 -1.13933e-22)
(1506.82 121.963 -1.15539e-22)
(1490.64 58.5711 6.8185e-20)
(1473.08 7.10178 0)
(1486.42 -46.6835 0)
(1510.07 -106.183 -1.15117e-22)
(1556.27 -174.503 -1.13731e-22)
(1610.91 -255.733 -2.94129e-17)
(1676.54 -354.149 8.34519e-17)
(1747.09 -460.838 -5.53718e-17)
(1791.15 -596.778 0)
(1785.98 -711.164 -4.56343e-17)
(1787.99 -789.656 4.80496e-17)
(1771.6 -837.83 8.37468e-23)
(1756.22 -712.716 4.61727e-20)
(1422.33 -538.447 1.23844e-22)
(1442.36 453.831 6.8619e-18)
(1741.16 687.615 1.0565e-17)
(1761.64 827.761 9.05805e-17)
(1785.94 801.213 -4.33325e-17)
(1798.69 743.616 4.33723e-17)
(1812.13 636.473 -4.859e-17)
(1775.88 518.464 4.57252e-17)
(1712.79 393.957 -2.73042e-17)
(1647.91 300.31 2.70137e-17)
(1609.84 203.578 1.19515e-22)
(1564.41 139.539 1.21697e-22)
(1556.58 67.0241 -1.21876e-22)
(1537.08 7.74022 7.3911e-18)
(1552.97 -56.561 7.25268e-18)
(1568.25 -125.334 -1.51088e-17)
(1613.31 -195.156 1.19789e-22)
(1661.94 -286.584 5.42951e-17)
(1713.36 -393.141 -1.04873e-16)
(1770.68 -501.395 5.14031e-17)
(1812.25 -625.116 0)
(1796.67 -729.736 -8.9414e-23)
(1789 -785.3 8.2895e-23)
(1769.61 -816.109 -8.1352e-23)
(1748.15 -681.193 -1.00484e-16)
(1452.89 -465.252 1.13286e-16)
(1433.56 461.274 1.10439e-19)
(1715.25 661.571 0)
(1764.28 776.311 0)
(1792.15 785.629 4.11451e-20)
(1814.83 740.993 8.26275e-20)
(1830.66 646.066 0)
(1796.27 535.177 4.79342e-17)
(1740.5 417.926 -4.70863e-17)
(1686.57 324.029 4.83472e-20)
(1656.64 225.304 -5.00375e-20)
(1620.78 149.593 -1.38869e-17)
(1609.85 70.0918 1.37655e-17)
(1595.56 4.18166 3.55114e-18)
(1607 -66.8849 -3.4745e-18)
(1625.19 -142.623 1.35117e-17)
(1660.56 -225.397 -4.02168e-17)
(1699.61 -317.003 2.69568e-17)
(1744.25 -421.67 -5.12388e-20)
(1791.7 -527.019 4.22869e-20)
(1829.36 -643.912 -4.19847e-17)
(1814.32 -732.378 1.08007e-18)
(1798.02 -774.147 -1.45098e-18)
(1774.38 -773.542 4.15005e-17)
(1726.83 -655.09 4.6238e-20)
(1450.29 -469.435 5.3798e-20)
(1403.19 463.208 1.07595e-16)
(1720.98 628.156 -9.23268e-17)
(1787.56 722.155 0)
(1803.77 763.256 -4.00784e-17)
(1827.65 731.799 6.92152e-20)
(1845.43 655 4.01535e-17)
(1814.22 560.099 4.46714e-17)
(1770.75 441.664 -4.41662e-17)
(1728.24 344.004 -5.05264e-20)
(1704.06 240.057 -2.55927e-17)
(1668.44 164.387 1.22476e-17)
(1665.5 78.9551 1.26396e-17)
(1647.99 7.32832 -5.35242e-20)
(1661.99 -70.5138 0)
(1671.25 -150.272 0)
(1706.37 -232.151 0)
(1741.58 -329.539 5.06584e-20)
(1773.35 -439.168 1.06683e-20)
(1808.55 -540.921 -5.40306e-20)
(1843.69 -639.504 0)
(1826.44 -714.495 3.99745e-20)
(1808.09 -744.848 9.87652e-21)
(1789.12 -713.367 -5.06978e-20)
(1737.6 -627.835 -9.01181e-17)
(1440.19 -474.602 1.04912e-16)
(1391.45 447.344 5.14681e-17)
(1736.22 566.47 -8.55995e-17)
(1806.56 651.981 8.40991e-17)
(1816.59 724.753 -4.14599e-17)
(1843.64 712.111 -3.81509e-17)
(1858.78 643.074 3.85586e-17)
(1829.54 555.214 2.09433e-17)
(1793.07 447.655 -2.10757e-17)
(1758.68 355.942 1.16411e-17)
(1741.91 253.318 -2.33966e-17)
(1715.2 169.841 1.76437e-17)
(1708.73 80.1922 -7.4317e-18)
(1696.51 4.61765 1.48752e-18)
(1706.13 -76.6623 -4.41138e-20)
(1718.55 -161.793 2.32845e-17)
(1743.9 -252.385 -2.399e-17)
(1771.2 -345.963 4.26562e-20)
(1800.44 -447.663 4.23468e-17)
(1827.05 -544.038 -1.99928e-18)
(1857.45 -634.966 -3.959e-17)
(1843.28 -702.556 0)
(1820.07 -717.216 4.22345e-17)
(1808.26 -660.357 -3.8171e-17)
(1740.67 -580.829 -9.12231e-17)
(1418.89 -455.094 -3.83582e-18)
(1417.86 417.566 -5.0909e-17)
(1756.31 492.69 4.57177e-17)
(1825.33 601.406 1.94615e-20)
(1830.06 690.587 -5.54094e-20)
(1861.45 691.619 1.88045e-20)
(1871.16 628.758 3.7578e-17)
(1844.56 554.342 -1.86589e-17)
(1818.29 450.689 -2.01187e-17)
(1794.91 358.171 4.4349e-20)
(1781.57 253.932 -4.56041e-20)
(1753.54 173.57 2.07496e-20)
(1755.22 81.0315 -2.06463e-20)
(1739.49 2.31807 0)
(1751.83 -82.6543 4.98392e-21)
(1756.44 -167.923 -1.09732e-17)
(1783.12 -255.871 1.1223e-17)
(1806.9 -353.207 -2.11084e-17)
(1822.97 -457.656 8.76236e-19)
(1840.37 -544.198 1.97914e-17)
(1868.76 -618.349 -5.49292e-20)
(1858.85 -676.838 -3.79647e-17)
(1836.76 -670.936 3.64697e-17)
(1828.95 -586.901 0)
(1762.88 -509.695 -4.55395e-17)
(1417.05 -433.567 4.85913e-17)
(1435.3 379.749 0)
(1774.05 421.432 -3.76863e-17)
(1834.69 522.452 4.3847e-17)
(1847.64 634.346 1.79855e-20)
(1874.92 664.239 1.75362e-20)
(1884.04 612.362 -3.59029e-17)
(1859.43 541.694 3.76363e-17)
(1838.15 448.273 2.00854e-17)
(1818.91 364.805 6.55544e-19)
(1812.16 265.108 -2.05884e-17)
(1792.99 180.041 -2.1781e-20)
(1790.57 85.4469 2.43562e-20)
(1779.29 5.05917 0)
(1786.92 -81.6372 4.37395e-20)
(1794.99 -170.438 -2.16804e-20)
(1811.71 -262.145 1.02752e-17)
(1829.79 -350.576 -1.0454e-17)
(1847.93 -445.775 -2.02254e-20)
(1857.84 -530.936 -2.11322e-20)
(1881.68 -603.63 1.79867e-20)
(1871.36 -655.37 -3.73511e-17)
(1851.41 -632.61 -5.33212e-18)
(1842.13 -528.497 3.53673e-17)
(1782.14 -429.895 0)
(1456.8 -395.577 5.15717e-17)
(1455.1 351.366 -9.84567e-17)
(1786.68 361.859 4.27754e-17)
(1839.3 462.564 3.40177e-17)
(1862.38 595.25 -4.0147e-17)
(1888.77 630.31 0)
(1897.81 590.501 -2.17231e-21)
(1873.55 532.278 0)
(1860.55 443.973 -2.38939e-21)
(1850.34 358.364 -2.47784e-21)
(1845.85 258.848 0)
(1824.02 178.839 0)
(1829.29 84.4134 -2.56234e-21)
(1814.36 3.00731 0)
(1825.31 -85.4185 0)
(1825.97 -171.785 -9.87278e-18)
(1845.62 -259.538 9.9565e-18)
(1859.94 -351.661 -2.4857e-21)
(1867.01 -447.598 -1.88591e-17)
(1871.15 -520.722 1.81719e-17)
(1896.13 -578.333 0)
(1886.61 -616.452 3.70164e-17)
(1864.05 -579.649 -7.42814e-17)
(1848.64 -457.481 7.66406e-17)
(1796.73 -369.737 6.15681e-18)
(1469.18 -357.742 -4.7428e-17)
(1485.2 316.942 1.1844e-20)
(1799.31 313.819 -9.69991e-21)
(1825.34 403.041 0)
(1878.94 510.044 0)
(1899.81 586.617 0)
(1910.46 567.2 8.09158e-21)
(1886.92 508.934 0)
(1879.17 426.643 -8.62486e-21)
(1869.57 351.89 0)
(1869.08 259.08 -8.84486e-21)
(1856.65 178.224 0)
(1857.52 83.1786 -2.37876e-18)
(1847.13 2.20485 2.35507e-18)
(1853.49 -86.5057 0)
(1857.86 -174.302 9.3498e-18)
(1867.71 -261.609 -1.88686e-17)
(1878.92 -342.383 9.41236e-18)
(1890.32 -429.807 0)
(1886.68 -505.156 1.77281e-17)
(1908.04 -562.728 -1.65851e-17)
(1897.68 -580.533 3.64349e-17)
(1881.28 -517.888 -3.25815e-17)
(1842.33 -397.598 0)
(1808.15 -304.743 0)
(1492.55 -324.958 0)
(1489.49 298.7 -1.18347e-20)
(1800.58 290.423 9.57452e-21)
(1830.16 332.036 0)
(1893.84 442.586 0)
(1909.23 537.959 0)
(1923.38 539.333 -8.15006e-21)
(1902.97 496.745 0)
(1899.48 421.432 8.85465e-21)
(1897.74 345.043 0)
(1898.8 252.239 -9.03491e-18)
(1881.66 176.117 9.06667e-18)
(1889.77 84.35 -8.44522e-21)
(1875.6 4.44487 9.30823e-21)
(1885.33 -83.6304 8.44603e-21)
(1882.19 -167.305 0)
(1896.92 -250.95 0)
(1904.15 -335.252 9.0763e-21)
(1907.17 -420.754 -1.77972e-17)
(1902.6 -483.948 1.70001e-17)
(1921.1 -527.347 0)
(1904.18 -528.941 8.06615e-21)
(1892.78 -448.439 0)
(1828.64 -333.301 0)
(1816.04 -276.55 0)
(1514.04 -291.594 0)
(1511.06 277.504 -4.47558e-17)
(1810.97 263.351 3.94074e-17)
(1839.01 281.894 0)
(1901.84 344.656 -1.72393e-20)
(1920.31 476.905 0)
(1932.78 506.514 -1.54503e-17)
(1916.37 469.404 3.3541e-17)
(1916.95 399.169 -1.72007e-17)
(1912.88 332.331 -8.64789e-18)
(1915.54 248.229 8.65846e-18)
(1908.63 173.683 4.42604e-21)
(1911.91 81.2252 1.12654e-18)
(1902.23 2.90494 -1.08069e-18)
(1907.74 -84.1045 8.61343e-18)
(1909.17 -168.483 -8.65728e-18)
(1913.13 -248.996 0)
(1920.82 -321.203 -1.63791e-20)
(1928.69 -402.113 0)
(1916.85 -466.446 0)
(1929.21 -501.249 -1.73134e-17)
(1915.13 -474.329 1.52211e-17)
(1899.59 -347.033 0)
(1836.34 -278.231 3.79216e-17)
(1820.49 -251.986 1.77981e-18)
(1530.77 -270.644 -9.07183e-17)
(1532.59 258.103 4.513e-17)
(1821.34 245.609 1.84516e-20)
(1851.12 225.741 3.24384e-17)
(1900.36 284.199 -2.36825e-17)
(1923.08 425.721 -1.86352e-17)
(1940.4 460.797 0)
(1930.22 447.63 8.39311e-21)
(1935.92 389.145 1.63252e-17)
(1937.96 321.94 -1.66648e-17)
(1942.15 235.211 0)
(1928.51 163.558 0)
(1938.75 77.5311 -2.5915e-20)
(1925.03 1.89812 3.24959e-20)
(1934.38 -82.5328 1.68964e-20)
(1928.06 -160.407 4.19097e-18)
(1939 -239.083 -4.13939e-18)
(1942.61 -315.638 8.90283e-21)
(1944.86 -390.107 1.68884e-17)
(1932.94 -437.821 -3.30098e-17)
(1940.18 -449.958 1.49981e-17)
(1920.84 -414.066 -1.57287e-20)
(1897.92 -279.282 0)
(1850.16 -226.285 1.78332e-20)
(1828.95 -242.03 3.81522e-17)
(1547.48 -255.168 -8.79693e-17)
(1547.39 238.074 -4.42016e-17)
(1833.24 226.598 -3.64751e-17)
(1853.86 199.282 3.58746e-17)
(1880.69 195.943 1.49469e-17)
(1932.83 338.468 -1.93481e-17)
(1944.45 414.259 0)
(1941.82 414.717 4.04991e-21)
(1951.47 363.979 -1.19323e-20)
(1951.12 308.036 8.04039e-18)
(1955 232.063 -1.61707e-17)
(1950.99 164.069 8.081e-18)
(1955.94 77.0658 2.00565e-18)
(1946.76 4.21831 -1.87601e-18)
(1951.17 -77.8206 1.87012e-18)
(1951.17 -156.401 -2.0133e-18)
(1951.04 -231.149 0)
(1956.72 -295.463 1.20139e-20)
(1962.87 -365.791 -3.85571e-21)
(1943.38 -411.984 -1.70628e-17)
(1940.02 -409.1 1.46324e-17)
(1930.44 -340.075 0)
(1878.32 -198.024 0)
(1854.9 -196.543 -4.32799e-21)
(1842.42 -222.718 -3.74427e-17)
(1572.24 -235.745 -1.39299e-18)
(1558.53 221.228 -2.07564e-17)
(1840.77 216.585 1.8566e-17)
(1866.8 181.602 4.30532e-21)
(1890.08 138.168 0)
(1930.61 256.364 1.45012e-17)
(1948.21 347.579 -1.75864e-17)
(1952.04 379.203 3.82513e-21)
(1966.86 349.44 3.88454e-21)
(1972.71 297.259 1.47621e-20)
(1979.27 218.849 -1.9259e-18)
(1967.4 152.089 9.90146e-19)
(1978.39 72.255 1.89804e-18)
(1964.99 2.93594 -9.73981e-19)
(1973.88 -76.2654 3.88408e-18)
(1966.71 -147.621 -3.89708e-18)
(1974.67 -221.24 0)
(1974.71 -289.258 1.09173e-20)
(1975.82 -348.157 -1.6356e-17)
(1955.07 -369.203 1.5051e-17)
(1946.79 -341.979 3.78854e-21)
(1924.88 -249.59 0)
(1886.85 -134.764 0)
(1869.11 -183.747 4.33976e-21)
(1850.96 -217.899 -3.6711e-17)
(1579.47 -220.869 4.12932e-17)
(1582.07 197.7 2.08563e-20)
(1854.49 193.197 0)
(1880.05 162.86 -8.11045e-21)
(1892.94 73.7221 -1.50853e-17)
(1922.17 176.844 1.84088e-17)
(1948.2 299.934 -1.42643e-17)
(1953.15 332.552 1.70209e-17)
(1977.83 313.879 -7.4485e-18)
(1982.47 275.557 7.82816e-18)
(1987.99 209.792 -3.77233e-18)
(1986.23 149.635 3.7992e-18)
(1991.93 69.2027 -1.84798e-18)
(1982.86 2.56498 2.11134e-18)
(1986.87 -74.0013 -2.50143e-19)
(1986.22 -145.181 3.79355e-18)
(1983.6 -212.579 -7.59287e-18)
(1985.98 -266.841 -4.09422e-18)
(1988.16 -319.372 7.45127e-18)
(1956.8 -328.77 1.52256e-20)
(1947.33 -287.919 -7.71165e-21)
(1919.29 -174.516 0)
(1891.53 -76.6453 0)
(1885.64 -165.917 0)
(1860.09 -196.524 -1.80817e-17)
(1595.74 -200.652 2.00557e-17)
(1588.45 179.5 -2.51526e-21)
(1860.12 176.686 0)
(1899.86 155.801 1.02862e-20)
(1900.58 52.3205 -8.11394e-21)
(1892.24 100.615 -7.67787e-21)
(1944.07 196.112 0)
(1958.24 279.618 -7.50819e-21)
(1986.32 290.5 7.20624e-18)
(1999.73 263.593 -7.69973e-18)
(2009.56 198.867 0)
(1999.41 139.707 1.75787e-21)
(2011.13 66.5017 0)
(1997.96 4.5207 0)
(2006.51 -68.8711 1.82682e-18)
(1998.67 -132.893 -1.84119e-18)
(2004.55 -198.744 -7.32595e-21)
(1999.18 -253.542 -1.78309e-21)
(1993.47 -287.298 7.39628e-21)
(1962.21 -270.655 -8.65773e-18)
(1947.27 -205.449 7.13356e-18)
(1887.05 -100.896 -1.74905e-17)
(1899.55 -53.5901 3.26124e-17)