/*--------------------------------*- C++ -*----------------------------------*\
| =========                 |                                                 |
| \\      /  F ield         | OpenFOAM: The Open Source CFD Toolbox           |
|  \\    /   O peration     | Version:  2112                                  |
|   \\  /    A nd           | Website:  www.openfoam.com                      |
|    \\/     M anipulation  |                                                 |
\*---------------------------------------------------------------------------*/
FoamFile
{
    version     2.0;
    format      ascii;
    arch        "LSB;label=32;scalar=64";
    class       volScalarField;
    location    "0.01106";
    object      p;
}
// * * * * * * * * * * * * * * * * * * * * * * * * * * * * * * * * * * * * * //

dimensions      [1 -1 -2 0 0 0 0];

internalField   nonuniform List<scalar> 
13875
(
951601
984299
973573
975923
973643
974589
974959
974789
975059
975146
975115
975068
974726
974808
974833
974699
974631
975334
975175
973968
973383
975635
972315
982332
944836
733800
659577
672181
677256
669322
670834
677210
678909
679065
679238
679299
678603
670352
669183
670410
678029
679294
679307
677540
669950
669574
676905
672209
657261
730586
736889
635515
664280
653603
649248
648061
648505
648801
647928
646419
646450
649086
645428
645324
645245
648902
646253
648259
647926
647642
648549
652167
661985
632112
733383
743531
636158
665162
653761
649554
648229
647422
645709
644397
643669
643022
644374
645460
645426
645274
644554
643523
644645
646120
647791
648832
652292
662738
632715
739200
757360
639162
667714
654466
650409
648732
647526
645769
644443
643757
643092
644401
645578
645692
645396
644586
643621
644725
646242
648225
649614
652885
665033
635352
750652
759039
647816
673476
656432
652197
649835
647877
645986
644620
644008
643308
644513
645827
646224
645657
644713
643905
644990
646643
649150
651287
654757
670627
643078
751961
765042
668318
685692
661333
655827
651824
648736
646525
645084
644528
643814
644867
646369
646797
646161
645020
644532
645695
647723
651205
654922
660364
682162
665774
756064
791218
718341
711591
674648
663556
656029
650884
647912
646256
645654
644898
645657
647438
647954
647230
645834
645816
647183
649968
655316
662293
673158
707149
715289
782002
908633
827877
766412
704238
679000
664383
655496
650969
648822
648003
647176
647491
649621
650286
649448
647822
648433
650304
654583
663390
676941
700916
760254
823130
909811
1.52404e+06
1.02934e+06
833362
739131
697290
674484
662119
656210
653690
652567
651739
651602
654011
654858
654032
652374
653402
655841
661574
673907
695743
736809
829411
1.02528e+06
1.51728e+06
2.90504e+06
1.39225e+06
956950
796082
725433
690957
674362
666635
663253
661583
660610
660056
662407
663507
662994
661838
663042
666242
673651
689618
722286
789326
941056
1.35122e+06
2.86054e+06
5.60259e+06
2.34271e+06
1.28637e+06
936429
789407
727823
701049
688843
683141
680276
678764
677958
679688
681076
681224
681488
683433
688686
700718
727067
786923
925915
1.25225e+06
2.27425e+06
5.57376e+06
5.38761e+06
4.83369e+06
2.31204e+06
1.40187e+06
980305
828708
766971
741127
729068
723228
720437
719264
719711
721337
722765
725472
730804
742535
769280
834811
990111
1.38704e+06
2.1827e+06
4.87513e+06
5.34246e+06
4.83639e+06
4.64236e+06
4.70806e+06
3.99679e+06
1.64376e+06
1.13973e+06
956200
885373
853063
837625
830677
827679
826526
828272
832153
840482
857946
894348
975896
1.20198e+06
1.83525e+06
4.03236e+06
4.68855e+06
4.71745e+06
4.76306e+06
4.02537e+06
4.12427e+06
4.49462e+06
4.25972e+06
4.01755e+06
2.53164e+06
1.66528e+06
1.37681e+06
1.26388e+06
1.21622e+06
1.19691e+06
1.18907e+06
1.18622e+06
1.1881e+06
1.19558e+06
1.21552e+06
1.2648e+06
1.38419e+06
1.6948e+06
2.68802e+06
4.11542e+06
4.24517e+06
4.51107e+06
4.28551e+06
4.26736e+06
3.52972e+06
3.45776e+06
3.92559e+06
4.06119e+06
4.2746e+06
4.34487e+06
3.70222e+06
3.05877e+06
2.84847e+06
2.6805e+06
2.57459e+06
2.53392e+06
2.51857e+06
2.52388e+06
2.55334e+06
2.63637e+06
2.84604e+06
3.04522e+06
3.75578e+06
4.39112e+06
4.23702e+06
4.07921e+06
4.0539e+06
3.57167e+06
3.74856e+06
2.54882e+06
2.69149e+06
3.06022e+06
3.50066e+06
4.20897e+06
5.14717e+06
6.79538e+06
7.61238e+06
7.96506e+06
8.06465e+06
8.12613e+06
8.13488e+06
8.14575e+06
8.13679e+06
8.1345e+06
8.0784e+06
7.98138e+06
7.6778e+06
6.81338e+06
5.10234e+06
4.19945e+06
3.56068e+06
3.15012e+06
2.81771e+06
2.70437e+06
1.43363e+06
1.72079e+06
2.31589e+06
3.00712e+06
4.17936e+06
5.58743e+06
6.77792e+06
7.42699e+06
7.668e+06
7.64068e+06
7.56055e+06
7.49368e+06
7.47535e+06
7.49111e+06
7.55942e+06
7.66167e+06
7.72305e+06
7.4887e+06
6.81248e+06
5.57892e+06
4.11803e+06
2.93565e+06
2.19325e+06
1.62243e+06
1.34501e+06
694890
1.02743e+06
1.70726e+06
2.61709e+06
4.09053e+06
5.15054e+06
5.83276e+06
6.33651e+06
6.50441e+06
6.4786e+06
6.43731e+06
6.45097e+06
6.47055e+06
6.47002e+06
6.45879e+06
6.51982e+06
6.59414e+06
6.47646e+06
6.05776e+06
5.40068e+06
4.12054e+06
2.67691e+06
1.72888e+06
1.04285e+06
705075
383440
618595
1.13969e+06
2.21698e+06
3.63791e+06
4.34614e+06
4.68092e+06
5.01757e+06
5.23877e+06
5.39563e+06
5.54201e+06
5.65578e+06
5.69519e+06
5.669e+06
5.55955e+06
5.40279e+06
5.23437e+06
5.01424e+06
4.73708e+06
4.43436e+06
3.67235e+06
2.20269e+06
1.13461e+06
609194
375347
958365
981695
1.17338e+06
1.8933e+06
2.89445e+06
3.3821e+06
3.71574e+06
4.10354e+06
4.42505e+06
4.65712e+06
4.8341e+06
4.94133e+06
4.96616e+06
4.9428e+06
4.83027e+06
4.63256e+06
4.36628e+06
4.02833e+06
3.68109e+06
3.40614e+06
2.87803e+06
1.86321e+06
1.1497e+06
974267
964278
1.01727e+06
979416
1.15832e+06
1.60651e+06
2.16791e+06
2.61609e+06
3.02119e+06
3.45681e+06
3.79349e+06
4.03054e+06
4.19995e+06
4.28937e+06
4.30472e+06
4.28293e+06
4.186e+06
3.99606e+06
3.72641e+06
3.37139e+06
2.93551e+06
2.60353e+06
2.12895e+06
1.56141e+06
1.12584e+06
949440
989411
1.12557e+06
1.01876e+06
1.13285e+06
1.34311e+06
1.69082e+06
2.0816e+06
2.52589e+06
2.95623e+06
3.26349e+06
3.48313e+06
3.62923e+06
3.70302e+06
3.71688e+06
3.69235e+06
3.60673e+06
3.44134e+06
3.19945e+06
2.89247e+06
2.42122e+06
2.0597e+06
1.65538e+06
1.31086e+06
1.10432e+06
1.00988e+06
1.14206e+06
1.3199e+06
1.14999e+06
1.13534e+06
1.18917e+06
1.43881e+06
1.7753e+06
2.13281e+06
2.53008e+06
2.80215e+06
3.00416e+06
3.12676e+06
3.19242e+06
3.20623e+06
3.18106e+06
3.10553e+06
2.96171e+06
2.74476e+06
2.47274e+06
2.05947e+06
1.73567e+06
1.39422e+06
1.15343e+06
1.11078e+06
1.16019e+06
1.30915e+06
1.37606e+06
1.28025e+06
1.14301e+06
1.13005e+06
1.2939e+06
1.55545e+06
1.8372e+06
2.16728e+06
2.40145e+06
2.58178e+06
2.69644e+06
2.75521e+06
2.76914e+06
2.74571e+06
2.67861e+06
2.55176e+06
2.35695e+06
2.12261e+06
1.78808e+06
1.51502e+06
1.24728e+06
1.10916e+06
1.12319e+06
1.28733e+06
1.36354e+06
1.4348e+06
1.38158e+06
1.15941e+06
1.13061e+06
1.20346e+06
1.39552e+06
1.60668e+06
1.87512e+06
2.07234e+06
2.229e+06
2.33217e+06
2.38318e+06
2.39565e+06
2.37503e+06
2.31706e+06
2.20281e+06
2.03455e+06
1.83646e+06
1.57455e+06
1.36736e+06
1.1658e+06
1.10958e+06
1.13871e+06
1.36989e+06
1.40757e+06
1.47886e+06
1.4162e+06
1.1785e+06
1.13068e+06
1.1495e+06
1.27104e+06
1.42785e+06
1.63629e+06
1.79893e+06
1.93137e+06
2.02187e+06
2.06655e+06
2.07943e+06
2.06015e+06
2.00754e+06
1.9092e+06
1.76507e+06
1.60352e+06
1.3973e+06
1.24469e+06
1.11981e+06
1.10972e+06
1.16521e+06
1.40752e+06
1.4509e+06
1.56625e+06
1.49391e+06
1.2133e+06
1.12752e+06
1.10912e+06
1.17441e+06
1.27979e+06
1.43979e+06
1.56958e+06
1.68139e+06
1.75838e+06
1.7979e+06
1.81139e+06
1.79459e+06
1.75175e+06
1.66985e+06
1.55057e+06
1.41689e+06
1.25879e+06
1.15372e+06
1.08869e+06
1.10793e+06
1.20246e+06
1.48272e+06
1.54018e+06
1.67212e+06
1.59932e+06
1.2549e+06
1.11681e+06
1.08026e+06
1.09774e+06
1.16049e+06
1.28019e+06
1.385e+06
1.47573e+06
1.53873e+06
1.57383e+06
1.58523e+06
1.57e+06
1.52988e+06
1.46304e+06
1.3652e+06
1.26143e+06
1.14497e+06
1.08502e+06
1.065e+06
1.09858e+06
1.23013e+06
1.54237e+06
1.58593e+06
1.72931e+06
1.70725e+06
1.29931e+06
1.10912e+06
1.04877e+06
1.04476e+06
1.0668e+06
1.15013e+06
1.2293e+06
1.3032e+06
1.35447e+06
1.38298e+06
1.39341e+06
1.37873e+06
1.34657e+06
1.29307e+06
1.21531e+06
1.13274e+06
1.04988e+06
1.02819e+06
1.03384e+06
1.09107e+06
1.27531e+06
1.63637e+06
1.66044e+06
1.7305e+06
1.72572e+06
1.33787e+06
1.10588e+06
1.01552e+06
993135
991942
1.03963e+06
1.09884e+06
1.15666e+06
1.19763e+06
1.22293e+06
1.23086e+06
1.22057e+06
1.19228e+06
1.14964e+06
1.08921e+06
1.03019e+06
980782
982134
1.00286e+06
1.08429e+06
1.30364e+06
1.66171e+06
1.69727e+06
1.73606e+06
1.72531e+06
1.40858e+06
1.10652e+06
979873
938162
929559
954772
994618
1.03792e+06
1.06875e+06
1.0866e+06
1.09321e+06
1.08474e+06
1.06368e+06
1.03053e+06
985598
944936
920213
927062
965827
1.08239e+06
1.35125e+06
1.6613e+06
1.7087e+06
1.74875e+06
1.71316e+06
1.47002e+06
1.10876e+06
953334
892538
879002
880266
905275
936356
959022
973385
977658
971890
954019
929972
898158
873221
869453
882042
936547
1.0841e+06
1.41263e+06
1.66056e+06
1.72467e+06
1.74878e+06
1.69388e+06
1.54147e+06
1.1179e+06
928043
849568
823370
818419
827875
849595
865791
875617
879190
874548
862961
847296
825435
812686
817294
839245
912086
1.09104e+06
1.51497e+06
1.65974e+06
1.72324e+06
1.74818e+06
1.66971e+06
1.54879e+06
1.13991e+06
917466
818734
778585
765317
764648
775168
786282
794491
796644
793663
783285
771972
761648
761775
771791
806317
898653
1.10673e+06
1.53978e+06
1.6564e+06
1.71798e+06
1.74427e+06
1.64774e+06
1.54369e+06
1.16065e+06
918097
787623
733485
715091
709542
713236
719173
723683
725157
722445
715969
711984
707329
711253
728913
779600
899410
1.13956e+06
1.53981e+06
1.64492e+06
1.70741e+06
1.73405e+06
1.61969e+06
1.53731e+06
1.20565e+06
924618
768460
700511
670922
660928
658213
660521
664456
665028
663553
658105
656583
659944
670004
696337
758396
902569
1.18062e+06
1.52422e+06
1.61269e+06
1.69999e+06
1.7107e+06
1.58497e+06
1.52543e+06
1.29483e+06
942147
753273
668446
631834
617022
612371
611015
612213
612117
611528
609281
611194
615463
627784
662842
741715
913645
1.26329e+06
1.49551e+06
1.57451e+06
1.69286e+06
1.66516e+06
1.56043e+06
1.49197e+06
1.3442e+06
960742
753683
647582
599459
579136
570042
567812
568292
567496
568514
565706
567769
577753
597012
640835
742131
940450
1.32127e+06
1.44407e+06
1.55403e+06
1.68268e+06
1.61118e+06
1.53255e+06
1.42715e+06
1.34265e+06
1.00111e+06
759420
628514
570507
545299
534819
530265
529026
528264
528893
529425
534093
543748
566473
621817
745170
973710
1.31975e+06
1.39608e+06
1.5416e+06
1.65578e+06
1.56382e+06
1.50088e+06
1.36504e+06
1.33808e+06
1.08121e+06
774536
628343
551477
518272
502274
497036
496376
494308
496220
496037
500184
515951
547553
621551
755262
1.03983e+06
1.31556e+06
1.35312e+06
1.51791e+06
1.59622e+06
1.52874e+06
1.47077e+06
1.31141e+06
1.31894e+06
1.18226e+06
793027
630361
538358
494996
476771
468824
465801
464213
465441
468211
475994
492385
531699
624648
780826
1.1774e+06
1.30625e+06
1.31921e+06
1.47075e+06
1.50788e+06
1.48526e+06
1.44254e+06
1.27733e+06
1.27992e+06
1.18116e+06
832654
639617
538567
480111
452888
443316
440739
437917
440603
442499
451163
477072
528175
630034
815310
1.17652e+06
1.28108e+06
1.27993e+06
1.40904e+06
1.45405e+06
1.43706e+06
1.40027e+06
1.25082e+06
1.21855e+06
1.17363e+06
912049
660302
540976
470895
436502
422541
417060
414511
416584
421914
434754
465630
529283
644451
884023
1.16982e+06
1.22991e+06
1.24902e+06
1.37319e+06
1.40998e+06
1.40262e+06
1.3603e+06
1.23024e+06
1.16175e+06
1.14818e+06
1.03186e+06
692649
545341
471107
424721
404642
397857
394055
397995
402324
419466
465785
536123
678136
1.02687e+06
1.15302e+06
1.17336e+06
1.22587e+06
1.34851e+06
1.37055e+06
1.36166e+06
1.32177e+06
1.21199e+06
1.11973e+06
1.09731e+06
1.02896e+06
761419
560522
473857
421800
393495
381123
376090
380215
391507
414831
467200
548846
736136
1.02545e+06
1.11323e+06
1.12336e+06
1.2168e+06
1.33148e+06
1.34413e+06
1.31495e+06
1.2758e+06
1.19201e+06
1.0835e+06
1.04345e+06
1.01869e+06
901906
592912
481218
422487
387945
371823
362505
370422
384196
415027
472194
575172
853559
1.01561e+06
1.05485e+06
1.08753e+06
1.20889e+06
1.29715e+06
1.31269e+06
1.26727e+06
1.23668e+06
1.16942e+06
1.05787e+06
998875
991809
900815
651163
494107
424337
388136
367773
356076
364882
384393
417528
486395
632050
892975
993032
1.00862e+06
1.0663e+06
1.19321e+06
1.24893e+06
1.26461e+06
1.1715e+06
1.1779e+06
1.13675e+06
1.0382e+06
962935
940719
894540
772975
521283
432186
389849
368022
356131
365048
385398
423956
513134
743632
889394
946196
971581
1.05205e+06
1.1583e+06
1.17756e+06
1.17601e+06
1.03524e+06
1.10234e+06
1.08185e+06
1.014e+06
932821
893099
875421
795230
577189
451726
395619
369539
356921
366163
389718
440038
567802
798819
875136
894618
938033
1.02272e+06
1.08756e+06
1.09405e+06
1.04066e+06
95047.4
96539.7
96291.1
96576.3
95710.2
95294.6
93944.8
93333.4
93035.8
92927.8
92880.4
92878.6
92901.7
92714.1
92468.6
92023.9
91584.4
91142.9
90654.5
90287.9
89945.7
89579.6
89122.2
88759.1
88291.3
87775.6
87523.7
87362.8
86954.6
86822.1
94707.7
96378.2
95636
95871.1
94833.4
94333.3
93327.7
92816.7
92521.3
92409.2
92397.1
92520.8
92581.2
92539.2
92293.3
91908.7
91532.9
91128.7
90622.5
90142.3
89668.2
89252.7
88821.6
88316.3
88163.4
87809
87450.2
87232.2
87278.3
87065.1
94744.4
96338.7
95286.3
95350
94171.2
93624.3
92728.1
92311.2
92118.4
92073.3
92161.6
92355.9
92439.2
92465.3
92212.9
91853.2
91505.8
91115.5
90601.3
90050.5
89389.2
88867.1
88468.3
87959.8
87888.6
87740.1
87320.6
87211.5
87244
87080.9
95278.1
96314.2
95054.9
94907.9
93687.9
93116.1
92273.8
91867.4
91673.9
91613.2
91636.1
91763.2
91819.2
91846.7
91659.1
91386.7
91098.4
90693.3
90185.8
89586
88989.1
88427.8
88083
87742.3
87655.3
87446.2
87324
87264.4
86965
86816.4
95758.8
96230.2
94858.3
94519.3
93278.9
92686.6
91858
91431.6
91230.3
91165.2
91171.1
91326.5
91444.4
91495.3
91385.9
91158.9
90901.6
90488.7
89927.1
89348.8
88801.3
88203.2
87823.4
87548.5
87383.7
87369.4
87294.9
87139.2
86798.8
86767.3
96076.3
96089.1
94613.8
94097.3
92871.6
92234.1
91395
90969.6
90785.2
90727.6
90724.2
90849.5
90945.9
90987.2
90836.7
90580
90250
89805.5
89321
88826.1
88330.1
87927.8
87637.5
87369.2
87235.9
87266.2
87223.7
86901.8
86912.5
86883.2
96224.5
95835.4
94295.4
93622.5
92403.2
91663.9
90873
90485.8
90320.9
90270.2
90261.6
90345.1
90383.6
90402.6
90192.4
89888.1
89526.4
89182.1
88835.8
88490.5
88088.9
87792.4
87551.8
87318.9
87150.4
87089.5
87060.6
86924.7
86899.3
86777.3
96274.2
95535
93890.9
93077.7
91848.7
90998.4
90283.4
89948.7
89792
89716.7
89667.7
89640.4
89588
89413.3
89108.6
88790.6
88569.5
88392.1
88176.3
88009.7
87855.5
87695.1
87506.8
87291.6
87091.5
87030.3
87015.7
86943
86700.8
86462.1
96284.9
95102.6
93403.5
92431.1
91214.3
90292.9
89576.7
89251.7
89101.2
89026.3
88865.7
88602
88314.6
87959.7
87747
87654.2
87627.5
87578.7
87546.8
87588.1
87641.1
87643.4
87488
87283.8
87067.9
87013.1
86996
86955.9
86539.3
86603.8
96044
94544.3
92804.2
91658.2
90495.2
89586.3
88736.1
88361.2
88190.9
88076.1
87674.7
87157.6
86706.3
86486.6
86397.5
86384.1
86551.5
86646.5
86750.2
86937.4
87150.7
87312.3
87383.8
87266.7
87058.5
87004.3
86988.6
86879.8
86726.3
86892
95605.9
93831.2
92039.4
90734.9
89642
88735.7
87823.7
87355.3
87104.8
86821.8
86071.1
85499.6
85223.4
85109
85074.7
85142.9
85438.7
85651.4
85945.3
86319.6
86579.5
86850
87025.4
87066.8
86955.1
86939.2
86941.9
86694.8
86716
86793.4
94977.5
92915.4
91193.1
89695.3
88626.6
87694.6
86817.8
86288.1
85838.8
85248.1
84395.5
84007.7
83833.6
83770.2
83754.9
83942.5
84318.6
84610
85030.9
85530.2
85931.5
86218.7
86473.5
86713.2
86794.9
86822
86727.9
86642.1
86629
86665.6
94165.3
91733.5
90158.2
88624.5
87447.9
86517
85680.2
85100.1
84439.8
83639.5
82949.6
82640.7
82506.5
82463.9
82456.2
82758.3
83180.5
83557.8
84109.6
84731.4
85249.4
85688
86125.5
86501.9
86680.9
86716.1
86431.7
86393.2
86462.7
86356.1
92929.5
90613.8
88985.9
87409.2
86231.1
85209.5
84434.7
83806.4
82978.6
82190.8
81592.7
81309.7
81206.5
81168.6
81165.4
81573
82034.2
82505.7
83187.6
83929.1
84578.4
85133.8
85696.9
86226.9
86454.3
86469.4
86295.5
86298.1
86357.6
86300.3
91597
88935.2
87729.9
86098
84944.5
83849
83108.8
82450.3
81535.8
80796.2
80236.8
79996.7
79910.3
79883.6
79888.5
80391.4
80899.2
81480.2
82297
83167.2
83954.7
84673.6
85404.6
85937.9
86150.9
86077.9
86182.4
86265.9
86307.7
86260.3
90132.2
87642.2
86319.7
84751
83592.4
82468.6
81717.4
81048.1
80111.5
79369.4
78913.7
78710.1
78627.7
78606.4
78629.5
79227.7
79787.4
80485.5
81429.3
82422.4
83339.9
84199.5
85034.1
85584
85818.2
85882.5
86136.5
86260.1
86291.5
86257.7
88424.3
86086.6
84844.5
83366.1
82210.7
81063.5
80318.6
79625.5
78722.2
78029.3
77587.6
77425.4
77355.6
77337.3
77402.2
78084.9
78717.6
79525
80581
81680.7
82706.8
83669.9
84524.5
85139.6
85454.5
85787.4
86120.4
86261.9
86287.4
86254.1
86814.1
84559.1
83434.8
81851.2
80835.9
79672.3
78936.3
78212
77359
76740.8
76305.9
76151.7
76096.3
76084.2
76233
76972.5
77694.7
78594
79736.7
80909
82001.9
83021.1
83902.2
84578.3
85090.4
85740.5
86095.1
86023.4
86113.5
86233.9
84803.7
82839.7
81875.2
80384.9
79457.2
78310.2
77585
76836.9
76017.3
75457.8
75097.2
74922
74878.4
74868.2
75111.1
75905.6
76719.7
77694
78896.4
80109.2
81236.1
82287.3
83218.7
84004.6
84770
85535.8
85823.7
85783.6
85871.4
86023.3
83038.1
81232.1
80331.5
79043.9
78208.1
77002.7
76294.9
75523.8
74732.9
74177.6
73910
73776.9
73717.3
73710.5
74054.5
74901.2
75790.7
76837.6
78072.5
79313.4
80466.8
81554.6
82571.1
83491.7
84396.4
85123
85428.6
85666.3
85756.9
85777.7
80757.1
79449.3
78745.3
77683.5
76691.3
75764.4
75076.5
74286.1
73525.5
72992.4
72739.3
72641
72615.3
72660.2
73072.1
73959.3
74928.8
76025.8
77280
78545.8
79726.2
80856.3
81966.6
83019.6
84010
84782.4
85233.2
85625.9
85717.5
85660.9
78909.3
77883.1
77318.1
76420.8
75577.9
74600.7
73949.4
73130.3
72375.9
71887
71664.3
71577.8
71556.1
71699.2
72177.2
73088.9
74125
75258.7
76519.6
77796.5
79007.3
80189.9
81386.5
82546.1
83624.3
84440.4
85139.6
85619.9
85713.9
85609.7
76254.8
76189.2
75966.3
75275.7
74491.9
73597.5
72917.4
72062.5
71286.9
70880.5
70675.6
70600.7
70583.9
70817.4
71370.2
72284.3
73349
74479.8
75699
76953.6
78201.8
79486.2
80786.9
82036.8
83200.5
84172.3
85091.5
85594.6
85712.5
85586
74851
75144.9
75162.8
74374
73494
72426.4
71941.2
71089.6
70303.4
69922
69760.8
69713.6
69700.8
70014
70611.6
71500.3
72505.8
73542.9
74644
75857.1
77153.6
78622.9
80109
81462.1
82722.8
83817.7
84803.6
85269.4
85392.2
85132
66909.4
74023.8
74774.2
73765.6
72695.1
71603.3
71114.5
70227.6
69433.4
69057.9
68904.4
68865.8
68918.3
69262
69835.7
70657
71520.4
72440.3
73668.5
75009.5
76403.9
77871.3
79351.4
80807.6
82135.2
83250.6
84137.7
84664.5
84833.7
84798.2
86687.9
86837.6
86902.7
87255.3
87911.3
88296.9
88684.6
89012.4
89298.2
89444.7
89677.6
90037.6
90672.7
91100.1
91514.5
92025
92369.2
92571.1
92512.7
92462.1
92392.8
92401.6
92537.1
92890.5
93690.2
94040.2
94696.2
94274.1
94466.1
92944
86700.7
86841.2
87010.3
87327.9
87698.8
88027.5
88335.4
88655.6
88934.4
89329.1
89665.6
90029.8
90623.2
91077
91453.6
91884.2
92213.6
92249.7
92178.8
92006.2
91833
91875.6
92000.4
92285.5
92938.9
93254.4
93971.4
93641.8
94324.8
92618.5
86766.1
86839.7
87055.4
87263.3
87422.8
87608.1
87809.8
88218.5
88627.5
89228.4
89650.1
90018.6
90596.8
91061.8
91424.5
91820.8
92148.7
92114
92028.4
91790.8
91490.7
91459.7
91543.9
91763.9
92290.6
92659.4
93469.6
93310.9
94301.9
92724.3
86754.9
86774.2
86915.2
87046.7
87089.8
87325.6
87552.7
87787.3
88269.8
88808.4
89311.4
89750.6
90148.7
90665.7
91062.3
91408.8
91661.8
91633.8
91525.8
91311.6
91056.2
91061.6
91143.5
91349.1
91828
92231.2
93095.4
93125.6
94288.5
93275.4
86585.7
86743.6
86785.5
86844.8
86932.9
87196.9
87257.9
87570.7
88092.7
88604.7
89081.5
89462.4
89924
90477.7
90890.7
91210.6
91422
91365.2
91196.7
90943.8
90650.1
90668.7
90756.3
90971.7
91460.4
91889.2
92773.5
92992.4
94269.1
93766.3
86502.5
86587.5
86696.7
86768.3
86860.9
87046.3
87138.7
87259.3
87604.2
88092.4
88511.1
88856.7
89266.2
89752.2
90226.1
90610.8
90908.9
90874.4
90775.5
90596.2
90256.8
90273.5
90350.4
90562.2
91055
91553.9
92422.9
92810
94190.9
94219.5
86489.8
86512.1
86659.2
86743.8
86828.7
86989.6
87045.4
87098.5
87307.2
87769.4
88130
88397
88633.8
88922.5
89341.4
89772.9
90144.3
90240.1
90206.7
90097.3
89844.4
89845.2
89895.4
90090.4
90547.2
91159.1
92018.9
92544.5
93953.8
94446.2
86505.8
86510.3
86658.7
86736.9
86820.7
86957.6
87001.5
87017.2
87098.6
87297.1
87499.5
87644.2
87807.1
87924.5
88108
88453.7
88865.9
89181
89331.3
89335.6
89294.1
89294.8
89331
89493.1
89918.8
90666.7
91535.8
92195.5
93687.8
94542.6
86674.3
86678.9
86731
86766.5
86817.4
86943
86984.4
86976.5
86988.2
87003.5
86980.9
86939.2
86957.9
86986.8
86986.6
87055.2
87252.4
87660.2
88063.3
88367.3
88464.6
88485.5
88547.3
88744
89243.7
90081.6
90959.6
91736.3
93325.6
94564.7
86749.6
86743.2
86760.2
86797.3
86834.7
86935.2
86970.5
86935
86840.2
86661.5
86421.5
86173.7
86047.2
85971.7
85786.2
85785.7
85850.9
86041.5
86451.9
86987.9
87370.4
87440.3
87561.2
87848.6
88543.8
89408.5
90275.8
91154.6
92851.6
94484.1
86770.2
86760.9
86756.2
86806.3
86838.8
86908.1
86896.9
86802.6
86572.2
86228.4
85864.3
85420.3
85120.4
84952.8
84661
84532.2
84560.2
84656
84886.2
85338.1
86009.7
86227.6
86416.8
86827.9
87803.3
88610.3
89457.1
90426.2
92193.2
94077.2
86757
86642.7
86586.3
86679.7
86780.2
86712.3
86570.9
86300.7
85968.8
85616.5
85139.9
84580.6
84142.6
83898.6
83549.2
83312.5
83322
83371.5
83509
83808.4
84510.7
84974.1
85260.8
85807.5
86810.5
87661.7
88496.9
89567.8
91422.9
93550.5
86663.6
86616.5
86517
86448.7
86504.4
86469
86289.1
85900.2
85513.8
84980.8
84363.1
83698.3
83135.2
82807.7
82426.5
82095.3
82096
82127.7
82239.2
82489.9
83095.5
83723.1
84105.3
84687.6
85666.4
86559.2
87448.1
88655.8
90321.5
92800.2
86637
86603.3
86491.2
86326.1
86354.9
86318.7
86059.8
85531.6
84969.7
84314
83580
82809.3
82122.6
81699.6
81292.1
80881.3
80875.7
80904.6
81003.6
81230.3
81781.4
82464.6
82900.3
83504
84424.4
85365.8
86315.7
87610.4
89243.6
91695.7
86631.3
86592
86466.5
86266.3
86030.7
85998.3
85743.8
85172.8
84471.7
83676.6
82820.2
81940
81129.4
80598.5
80153.1
79671.5
79653
79682.4
79768.3
79975.9
80488.1
81197.3
81646.3
82274.3
83107.8
84142.1
85063.5
86426.8
87784.7
90523
86619.2
86565.9
86457.7
86244.8
85877.1
85696.2
85356.5
84754
83955.1
83041.2
82077.8
81095.8
80170.1
79524.4
79032.1
78469.4
78427.1
78451.2
78526.5
78720.7
79175.3
79901.3
80353.1
80992.7
81784.9
82836.7
83768.3
85259.9
86533.6
89202.3
86617.4
86555.6
86455.2
86240
85808.7
85382.2
84968.6
84285.7
83409.6
82405.5
81355.7
80285.2
79257.7
78497.6
77945.7
77290.2
77207.4
77225.1
77291.1
77474.1
77872.4
78589.5
79036.7
79689.3
80450
81482.7
82407.6
83722.1
85100.4
87564.7
86599.4
86402.5
86286
86223.8
85776.6
85080.6
84504.4
83741.5
82807.4
81747.9
80641.8
79503.1
78391.3
77533.3
76897.6
76169.2
75990
76003.1
76059.2
76225.6
76625.8
77272.2
77714.4
78399.6
79121
80133.8
81077.9
82457.3
83688.8
86030.7
86110.6
86005.2
85917.9
86055.6
85663.2
84813.6
84035.6
83176.1
82182.1
81081.7
79937.3
78748.6
77570.1
76628.9
75897.9
75106.1
74796.4
74804.4
74856.2
75006.7
75411.3
75952.4
76404.7
77137.9
77804.1
78799.9
79565.4
81014.4
82081.9
84092.1
85834.8
85817.1
85740.8
85585.2
85304.8
84559.9
83617.5
82644.8
81571.7
80424.3
79245.2
78019.4
76792.1
75782.1
74958.2
74094.9
73658.7
73662.9
73707.8
73862.3
74193
74637.6
75140.6
75914.4
76532.9
77519.5
78320.4
79578.7
80572.2
82407.4
85705.1
85745.7
85676
85364.5
84999.8
84252.2
83239.3
82150.2
80988.2
79786.6
78569.8
77313.1
76060.2
74990
74080
73146.5
72611.9
72602
72632.2
72748.9
72989.2
73348.3
73952.8
74751.1
75318
76188.2
77016.8
78083.8
78876
80208.4
85647.9
85735.6
85665.6
85262.9
84661.8
83903.6
82838.4
81649.3
80409
79155.9
77903.5
76623.5
75368.9
74256.7
73256.6
72280.3
71699.5
71559.6
71589.1
71686
71848.3
72167.8
72811.6
73654.3
74178.7
75017.4
75816.9
76722.5
77370.8
78412.6
85621.9
85738
85661
85214.7
84433.2
83520.7
82383.3
81095.9
79768.2
78440.1
77156.5
75885.3
74664.1
73548.2
72494.5
71503.9
70859.8
70600.8
70615.6
70654.9
70786.3
71100.4
71735.2
72640.1
73146.9
73975.3
74715.2
75405.4
75686.3
75777
85390.5
85474.1
85400.1
85030.3
84125.9
83073.9
81834.6
80406.7
78917.1
77444.1
76132.8
74921.9
73799.2
72764.5
71738.4
70769.9
70079.4
69745
69671.6
69703.6
69824.5
70124.8
70744.9
71689.9
72104.2
73006.3
73828.3
74601.5
74580.8
74313.1
84989.5
85055
84933.3
84497.5
83613.9
82496.8
81156.1
79727.9
78243.9
76757.6
75347.8
73998.6
72749.1
71815.4
70911.1
70007.1
69334.4
68955.4
68801.9
68829.1
68942.3
69237.7
69865.3
70843
71246
72198
73243.4
74013.7
73233.4
66430.1
307193
308645
310628
312446
314344
316150
317968
319717
321439
323119
324784
326449
328121
329805
331502
333216
334945
336677
338357
339943
341436
342849
344154
345304
346385
347320
347774
347964
348028
348042
348023
347773
347317
346653
345787
344722
343455
341990
340330
338476
336423
334164
331693
329005
326098
322965
319589
315994
312203
308203
303857
299490
294563
289509
284233
278781
273166
267354
261365
255215
248955
242610
236180
229689
223165
216635
210128
203671
197297
191035
184919
178969
173205
167649
162340
157287
152480
147959
143690
139686
135954
132483
129258
126265
123484
120895
118481
116218
114096
112090
110195
108397
106679
105019
103449
101934
100377
98900.6
97600.8
96457.6
95385.4
94302.2
93286.3
92341.1
91478.8
90676
89955.1
89283.6
88665.7
88097.2
87538
87010.3
86495.1
85998.9
85554.5
85190.9
84927.7
84781.3
84675.7
84667.2
84667.7
84671.7
84685.5
84720.6
84804.6
309139
309625
311540
313265
315033
316732
318415
320041
321644
323222
324804
326394
327998
329616
331249
332894
334532
336130
337659
339107
340466
341724
342917
344100
344922
345315
345480
345535
345546
345489
345254
344832
344221
343410
342391
341162
339721
338066
336193
334096
331771
329215
326430
323423
320201
316764
313114
309269
305231
300998
296580
291985
287103
282082
276866
271471
266021
260323
254275
248337
242320
236250
230101
223881
217632
211395
205199
199063
193014
187083
181297
175674
170233
165001
159970
155158
150587
146245
142192
138389
134865
131573
128495
125618
122930
120418
118068
115860
113776
111809
109941
108152
106440
104812
103258
101749
100288
98906.8
97611.2
96419.3
95310
94236.8
93233.3
92301
91446.9
90660.6
89941.6
89273.7
88655.9
88081.3
87523.7
86995.3
86489.6
86013.7
85579.7
85233.5
84985.4
84816.9
84711.9
84708
84709.1
84713.1
84726
84762
84851.6
310470
310431
312191
313807
315437
317017
318577
320114
321646
323178
324731
326295
327878
329477
331086
332690
334278
335816
337276
338641
339902
341070
342191
343145
343619
343837
343920
343941
343933
343684
343287
342719
341964
341010
339852
338484
336900
335090
333044
330755
328223
325454
322459
319252
315845
312245
308470
304524
300414
296143
291718
287134
282349
277415
272323
267088
261738
256259
250619
244862
239064
233007
226733
220742
214719
208710
202708
196733
190827
185027
179374
173888
168582
163476
158589
153936
149523
145355
141430
137755
134279
131033
128041
125254
122637
120182
117871
115685
113613
111646
109772
107979
106264
104621
103051
101535
100077
98699.2
97393.2
96176.5
95032.5
93962.4
92966.6
92028.8
91168.7
90364.5
89626
88947.2
88319.5
87737.1
87186.4
86669
86184.4
85733.4
85331.7
85006.6
84767
84615.8
84533.9
84533.3
84535.2
84541.9
84559
84601.9
84704.1
311419
311311
312695
314162
315601
317058
318540
320027
321522
323032
324570
326132
327717
329317
330923
332505
334071
335569
336959
338262
339449
340536
341526
342167
342480
342621
342673
342684
342572
342243
341746
341066
340192
339119
337844
336358
334646
332689
330471
327993
325264
322300
319119
315744
312187
308471
304607
300598
296447
292155
287723
283150
278434
273595
268631
263541
258313
252925
247402
241768
236057
230267
224385
218456
212534
206329
200125
194268
188489
182825
177293
171895
166662
161622
156811
152240
147917
143849
140042
136490
133179
130098
127187
124468
121930
119587
117372
115255
113227
111279
109408
107610
105880
104215
102621
101091
99631.1
98243.1
96929.7
95690.9
94523.8
93429
92409.1
91448.4
90552
89721.1
88950.8
88246.6
87596.4
86995.8
86441.2
85931.5
85465.6
85044.1
84676.4
84373.6
84147.1
84010.8
83964.3
83965.6
83971.6
83986.7
84017.9
84082
84216.1
312457
312301
313077
314332
315551
316873
318243
319653
321101
322590
324116
325673
327249
328836
330420
331979
333493
334928
336270
337431
338502
339463
340267
340734
340963
341068
341107
341116
340949
340581
340023
339265
338308
337152
335794
334218
332399
330304
327918
325257
322354
319235
315920
312429
308776
304996
301095
297068
292913
288624
284204
279654
274982
270214
265360
260414
255340
250088
244697
239177
233539
227797
221976
216105
210217
204318
198402
192535
186790
180780
175125
169827
164713
159795
155098
150612
146369
142384
138677
135236
132043
129078
126320
123735
121299
118947
116711
114574
112590
110695
108865
107094
105383
103733
102140
100603
99121.3
97701.2
96353.4
95080.9
93883.4
92759.6
91708.5
90725.2
89807.2
88951.8
88154.9
87417.3
86735.7
86101.6
85531
84999.5
84522.5
84087.7
83715.2
83409.1
83177.7
83033
82984.7
82986.2
82992.9
83010.7
83048.9
83126.5
83284.7
314585
314033
313906
314575
315346
316386
317574
318887
320286
321739
323231
324750
326284
327821
329344
330828
332245
333566
334776
335885
336794
337486
338040
338426
338638
338737
338777
338786
338622
338245
337635
336806
335777
334552
333128
331473
329549
327314
324760
321937
318917
315731
312367
308839
305164
301395
297540
293579
289485
285243
280847
276273
271498
266586
261606
256670
251729
246568
241294
235903
230383
224754
219031
213234
207384
201505
195635
189825
184124
178564
173131
167866
162825
157495
152825
148456
144340
140485
136923
133624
130578
127759
125137
122685
120376
118188
116094
114086
112082
110132
108238
106472
104785
103144
101549
100010
98535.6
97128.1
95781.3
94494
93265.2
92095.1
90991.1
89956.3
88991
88093.4
87263.8
86494.8
85784
85123.4
84515.6
83943.2
83453.8
82994.4
82621
82297.8
82050.8
81891.4
81831.7
81833
81839.2
81856.9
81896.5
81978.6
82146
319481
317070
315962
315467
315340
315767
316650
317764
319017
320357
321748
323170
324602
326024
327412
328738
329975
331112
332149
333071
333834
334430
334768
334979
335156
335234