/*--------------------------------*- C++ -*----------------------------------*\
| =========                 |                                                 |
| \\      /  F ield         | OpenFOAM: The Open Source CFD Toolbox           |
|  \\    /   O peration     | Version:  2112                                  |
|   \\  /    A nd           | Website:  www.openfoam.com                      |
|    \\/     M anipulation  |                                                 |
\*---------------------------------------------------------------------------*/
FoamFile
{
    version     2.0;
    format      ascii;
    arch        "LSB;label=32;scalar=64";
    class       volScalarField;
    location    "0.0062";
    object      alphat;
}
// * * * * * * * * * * * * * * * * * * * * * * * * * * * * * * * * * * * * * //

dimensions      [1 -1 -1 0 0 0 0];

internalField   nonuniform List<scalar> 
13875
(
0.119861
0.0816026
0.0784492
0.0782853
0.0783218
0.0783889
0.0782768
0.0782907
0.0782998
0.0782811
0.0782884
0.0783106
0.0783877
0.0784123
0.0783947
0.0782954
0.078255
0.0782992
0.0783076
0.0783551
0.0783208
0.0782654
0.0784836
0.0814628
0.120936
0.103938
0.0576793
0.0570799
0.0571659
0.0566496
0.0566629
0.0570417
0.0571515
0.0571668
0.0571363
0.0571116
0.0571204
0.0566601
0.0566152
0.0566686
0.0570957
0.0571183
0.0571563
0.0570747
0.0566795
0.0566751
0.0571383
0.0570638
0.0573822
0.104576
0.110619
0.0553246
0.055873
0.0547193
0.0545768
0.0544741
0.0542918
0.0543879
0.0543841
0.0543041
0.0541975
0.054341
0.0542501
0.0542765
0.0542408
0.0543493
0.054109
0.0542514
0.0542812
0.0544502
0.0545318
0.0546023
0.0557857
0.0550857
0.111137
0.115884
0.054644
0.0553795
0.0543121
0.0540433
0.0539353
0.0536865
0.0536329
0.0535611
0.053468
0.0533975
0.0534769
0.0537017
0.0537396
0.0536932
0.0534849
0.0533699
0.0534608
0.0536329
0.0539056
0.0540012
0.0542025
0.0551989
0.0542823
0.115773
0.121031
0.0546331
0.055118
0.0537404
0.0536754
0.0535034
0.0531864
0.0531317
0.0530617
0.0529777
0.0529078
0.0529851
0.053224
0.0532645
0.0532154
0.052997
0.0528819
0.0529539
0.0531093
0.0534747
0.0536092
0.053613
0.0550228
0.0543166
0.121394
0.124407
0.0547435
0.055185
0.0535995
0.0533015
0.053094
0.052803
0.052698
0.0526258
0.0525501
0.0524659
0.0525319
0.0527748
0.0528489
0.0527665
0.0525411
0.0524544
0.0525459
0.0527309
0.0530529
0.0532406
0.0535051
0.0548899
0.0543885
0.124127
0.128745
0.0564732
0.0557809
0.05345
0.0532727
0.0528909
0.05243
0.0523171
0.0522323
0.0521623
0.0520836
0.0521481
0.0524125
0.0524752
0.0523972
0.052153
0.052084
0.0521624
0.0523562
0.0528636
0.0531974
0.0533648
0.0556476
0.0563483
0.129026
0.135703
0.0611954
0.057836
0.0544061
0.0534122
0.0528447
0.0523024
0.0520569
0.0519578
0.051872
0.0517913
0.0518197
0.0521076
0.0521857
0.0520846
0.0518268
0.0518167
0.0519282
0.0522182
0.0527918
0.0533305
0.0542798
0.0575206
0.0610287
0.135629
0.151307
0.0692418
0.0615407
0.0559271
0.0544105
0.0531797
0.0522632
0.051918
0.0517864
0.0517017
0.051625
0.0516317
0.051951
0.0520337
0.0519264
0.0516325
0.0516703
0.0518096
0.0521696
0.0530996
0.054232
0.0556246
0.0610286
0.0684061
0.154187
0.239318
0.08744
0.0664687
0.0589979
0.0554112
0.0537432
0.0525987
0.0520816
0.0518563
0.0517745
0.0517207
0.0516873
0.0520278
0.0521321
0.0520143
0.0517331
0.05179
0.0519765
0.0524668
0.0536294
0.0552828
0.0586733
0.0660253
0.0866959
0.241137
0.365369
0.1184
0.0759674
0.0629415
0.0576515
0.0548572
0.0532191
0.0526702
0.0523734
0.0522711
0.052227
0.0521646
0.0524976
0.0526231
0.0525369
0.0523109
0.0523652
0.0526084
0.0530877
0.0546658
0.0573513
0.0617159
0.0747993
0.112973
0.365618
0.658305
0.193247
0.104087
0.0745765
0.0616809
0.0574416
0.0552842
0.0542807
0.053799
0.0536183
0.0535318
0.053462
0.0537345
0.0538937
0.0538887
0.05379
0.0538733
0.0542789
0.055218
0.0569673
0.0619597
0.073462
0.100386
0.182959
0.643609
0.582155
0.436999
0.176173
0.0921513
0.076941
0.0652567
0.0599406
0.0580838
0.0571654
0.0568135
0.0566608
0.0565926
0.0567585
0.0569354
0.0570543
0.0571347
0.0573877
0.0582097
0.0600337
0.0655093
0.0764613
0.0893268
0.171137
0.434213
0.581295
0.491842
0.401432
0.347151
0.32903
0.117779
0.0811364
0.074247
0.0683494
0.0657875
0.0648843
0.0645088
0.0643303
0.0643812
0.064581
0.0648882
0.0653706
0.0663025
0.0689956
0.0755946
0.083773
0.132177
0.332049
0.338226
0.401194
0.500172
0.408443
0.3501
0.330713
0.337691
0.301441
0.204314
0.128103
0.0997016
0.0898382
0.0878968
0.0874653
0.0871905
0.0872768
0.0874681
0.0878881
0.0886205
0.0896434
0.0977786
0.134573
0.215241
0.305546
0.334091
0.331619
0.360977
0.421502
0.330993
0.295502
0.284524
0.306024
0.318538
0.327691
0.259175
0.19544
0.171482
0.15112
0.138482
0.134434
0.132475
0.133597
0.136689
0.14702
0.173627
0.195369
0.253822
0.32923
0.314182
0.307105
0.292913
0.299776
0.343042
0.241358
0.229997
0.231279
0.275359
0.329612
0.410867
0.540112
0.629456
0.618663
0.573517
0.601451
0.612538
0.623654
0.61925
0.605773
0.585589
0.592625
0.629259
0.576433
0.415817
0.327416
0.277056
0.23429
0.237383
0.254078
0.144293
0.157565
0.191906
0.233537
0.334097
0.462657
0.599955
0.671831
0.566396
0.499911
0.49476
0.494719
0.50047
0.499197
0.499041
0.51673
0.567719
0.651752
0.617743
0.471174
0.344995
0.244702
0.185738
0.147471
0.134627
0.0695747
0.105416
0.170688
0.264409
0.377876
0.425534
0.494197
0.544584
0.480811
0.427616
0.417967
0.416533
0.419938
0.422033
0.423441
0.432108
0.47305
0.534081
0.502552
0.437997
0.399867
0.289235
0.176692
0.106283
0.0709793
0.0267468
0.0534777
0.122297
0.257498
0.366648
0.366114
0.38656
0.428145
0.421997
0.394581
0.382081
0.373895
0.372459
0.378141
0.382864
0.388371
0.405372
0.415846
0.387615
0.373212
0.382218
0.272909
0.128239
0.053537
0.0256658
0.0690101
0.0818813
0.113918
0.198973
0.284343
0.287404
0.307845
0.35371
0.372565
0.359259
0.343766
0.330196
0.326814
0.334641
0.343938
0.350768
0.355713
0.342081
0.305835
0.29015
0.288472
0.197638
0.113328
0.079796
0.0657528
0.119554
0.126367
0.128536
0.161625
0.21105
0.222955
0.254499
0.30296
0.328269
0.319629
0.3028
0.28753
0.283067
0.292069
0.303626
0.311919
0.313652
0.292221
0.248845
0.223249
0.213964
0.15756
0.133624
0.13328
0.120453
0.1572
0.135094
0.13123
0.137794
0.16483
0.180321
0.214928
0.261342
0.286843
0.280226
0.263394
0.248015
0.243397
0.251593
0.263825
0.272653
0.272952
0.252389
0.210715
0.178209
0.166267
0.137325
0.132525
0.140007
0.160893
0.198981
0.15525
0.130561
0.124445
0.137679
0.154925
0.184993
0.225196
0.248586
0.242581
0.226932
0.213311
0.20894
0.216793
0.22797
0.236115
0.236673
0.217207
0.180583
0.153813
0.138309
0.123423
0.129303
0.150615
0.196802
0.220405
0.180171
0.132997
0.119291
0.121899
0.136613
0.160173
0.193408
0.213334
0.208973
0.195661
0.183254
0.179774
0.186323
0.197175
0.204845
0.204216
0.186723
0.157907
0.134582
0.12217
0.118338
0.130918
0.175195
0.220471
0.243142
0.203435
0.132233
0.115264
0.111344
0.122637
0.142209
0.168349
0.184516
0.180372
0.16921
0.158613
0.155138
0.161204
0.170038
0.176232
0.176466
0.162335
0.139431
0.122021
0.111115
0.114492
0.12927
0.189052
0.245286
0.267628
0.217173
0.132671
0.112309
0.105201
0.111792
0.126749
0.147031
0.159201
0.155581
0.146252
0.137055
0.134568
0.139463
0.147443
0.152834
0.152496
0.141661
0.124537
0.109854
0.104603
0.111714
0.130143
0.204973
0.265026
0.290001
0.232355
0.131308
0.107944
0.0998379
0.102893
0.115161
0.129857
0.138295
0.134492
0.126917
0.119748
0.117217
0.121979
0.128341
0.132767
0.133738
0.12571
0.112576
0.101633
0.0989671
0.107565
0.128568
0.218238
0.292485
0.321077
0.252923
0.134391
0.105697
0.0968767
0.0967026
0.104619
0.115112
0.121185
0.117835
0.11128
0.104615
0.102755
0.106362
0.112011
0.115692
0.11611
0.111153
0.102564
0.0943639
0.0954047
0.105028
0.12953
0.231109
0.319214
0.349284
0.269224
0.134412
0.1011
0.0924091
0.0918203
0.0969568
0.103566
0.106571
0.102893
0.0975363
0.0925299
0.0904848
0.0941382
0.0985086
0.101691
0.103199
0.0996659
0.0939961
0.0890527
0.0909598
0.100301
0.131093
0.252877
0.347054
0.363287
0.280046
0.138432
0.0995308
0.0893914
0.0878764
0.0899957
0.0925772
0.0940369
0.0909349
0.0864897
0.0817214
0.0802289
0.0830449
0.0872798
0.0899946
0.0910456
0.0898823
0.0875165
0.0853217
0.0874751
0.0991908
0.135326
0.276736
0.375926
0.374381
0.283298
0.141834
0.0972564
0.0855786
0.0828109
0.0840476
0.0851106
0.0847886
0.0812347
0.0769925
0.0732954
0.0715241
0.0743591
0.0774766
0.080089
0.082024
0.0816515
0.0815994
0.0808702
0.0835549
0.0959388
0.139258
0.286833
0.386688
0.388498
0.282124
0.148121
0.0979501
0.0835612
0.0792835
0.0794671
0.0772943
0.0759493
0.0727811
0.0692609
0.0655181
0.0642415
0.066441
0.0697439
0.0719217
0.0736698
0.074899
0.076821
0.0771381
0.0818141
0.0965388
0.147268
0.290387
0.396246
0.396193
0.283107
0.157522
0.0983115
0.0797578
0.0752079
0.0738203
0.0714848
0.0692599
0.0657806
0.062361
0.0595074
0.0580141
0.0603349
0.0627907
0.0652031
0.0675541
0.0688685
0.0719873
0.0733654
0.0777717
0.0963612
0.156238
0.288294
0.405355
0.401225
0.28397
0.16328
0.10093
0.0797169
0.0731398
0.0700015
0.0659966
0.063041
0.0597642
0.0569234
0.0538796
0.0527707
0.0545557
0.0572389
0.0590843
0.0611652
0.0639073
0.0676091
0.0711284
0.0775667
0.0985804
0.16529
0.288497
0.412319
0.407974
0.280703
0.162182
0.1037
0.0797437
0.0691568
0.064926
0.0613392
0.0583512
0.054884
0.05183
0.0495158
0.048257
0.0501839
0.0521427
0.0544895
0.0569775
0.0590601
0.0630377
0.0674047
0.0771493
0.102539
0.166922
0.284132
0.412959
0.412545
0.278401
0.162039
0.108865
0.0814752
0.0679072
0.0622518
0.0568894
0.0536243
0.0502399
0.0478416
0.0453354
0.0443897
0.0458887
0.0481538
0.0498669
0.0524127
0.0554423
0.0600048
0.0660322
0.0791933
0.1076
0.166724
0.278041
0.413329
0.409349
0.273147
0.161401
0.118371
0.08364
0.0654558
0.0582412
0.0533126
0.0500258
0.0469942
0.0441311
0.0421696
0.0410503
0.0426456
0.044338
0.0466926
0.0489933
0.0512664
0.0564169
0.0634736
0.08042
0.11721
0.165376
0.271121
0.404034
0.404589
0.269345
0.158602
0.128915
0.0867963
0.0663054
0.0569119
0.0502426
0.0463454
0.043243
0.0411673
0.0389983
0.0381607
0.0393998
0.0414389
0.0429947
0.0455228
0.0488157
0.0549412
0.0639066
0.0856957
0.133083
0.164137
0.266857
0.396586
0.394333
0.268314
0.152873
0.129633
0.0924838
0.0660144
0.0539826
0.0471848
0.0435396
0.040935
0.0383287
0.0366521
0.0356351
0.037047
0.038532
0.0407583
0.04284
0.045433
0.0524369
0.0638395
0.0900803
0.133096
0.158441
0.262791
0.395007
0.383135
0.266531
0.14624
0.129152
0.101401
0.0689007
0.0545453
0.0456563
0.0410747
0.0379723
0.0360527
0.0341482
0.0334227
0.0345148
0.0362421
0.0377473
0.0404795
0.0442484
0.0524323
0.0659814
0.10021
0.132567
0.150546
0.264289
0.391168
0.378684
0.264312
0.13875
0.126651
0.115084
0.0709213
0.0534637
0.0438022
0.0390978
0.0364292
0.0338532
0.0323784
0.0314754
0.032748
0.0340685
0.0362759
0.0384303
0.0422156
0.0520345
0.0689469
0.114883
0.13003
0.143465
0.264253
0.384592
0.371723
0.264093
0.134843
0.121774
0.114595
0.077073
0.0550485
0.0441231
0.0377661
0.0340664
0.0321046
0.0303971
0.0297617
0.0307354
0.032303
0.0339544
0.0373661
0.0425988
0.0530361
0.0747505
0.115583
0.124703
0.137346
0.263528
0.380436
0.364891
0.261155
0.132116
0.115815
0.113983
0.0868435
0.0563956
0.043553
0.0369782
0.0333615
0.0304942
0.0291069
0.0282452
0.0294006
0.0306823
0.0331943
0.03632
0.0418862
0.0546666
0.084359
0.114169
0.116682
0.132586
0.263679
0.374423
0.359543
0.25802
0.129484
0.110072
0.109806
0.0972468
0.0613083
0.0447608
0.0370175
0.0319872
0.0293353
0.0275559
0.0269323
0.0278294
0.0294487
0.0316828
0.0366068
0.0435354
0.0600957
0.0991256
0.11144
0.111249
0.130853
0.261583
0.365382
0.353844
0.256574
0.129176
0.105968
0.104215
0.0973109
0.0691898
0.046083
0.0368182
0.0324209
0.028484
0.0267514
0.0258336
0.0269948
0.028635
0.03194
0.0362094
0.044675
0.0685608
0.0991791
0.106016
0.106378
0.129591
0.259495
0.36029
0.343054
0.250818
0.129664
0.102542
0.0982727
0.0951539
0.081903
0.0512947
0.0380787
0.0319316
0.0282734
0.025914
0.0250699
0.0261186
0.0283236
0.0314349
0.0373228
0.049962
0.0812862
0.0962463
0.0998583
0.103208
0.130252
0.256426
0.350205
0.334762
0.24706
0.128866
0.100513
0.0945215
0.0917352
0.0822607
0.0581725
0.0396842
0.0326427
0.0281877
0.0259778
0.024608
0.0261674
0.028336
0.0322173
0.0390272
0.0576095
0.0820471
0.0923573
0.0955419
0.10125
0.131788
0.251121
0.33897
0.311054
0.236836
0.127948
0.098863
0.0904648
0.0870213
0.0811339
0.0699066
0.0451477
0.0329271
0.0283674
0.0257333
0.0246053
0.0259213
0.0283753
0.0325274
0.0444197
0.0697365
0.0804874
0.0867647
0.0916087
0.100067
0.130797
0.239632
0.31267
0.282741
0.222084
0.124416
0.0975179
0.0887146
0.0830453
0.0790469
0.0703107
0.0523365
0.0361463
0.0288749
0.0261486
0.0247117
0.0263033
0.0289113
0.0355815
0.0514723
0.0701199
0.0780833
0.0826998
0.0890937
0.0985352
0.126842
0.224807
0.285448
0.153255
0.301738
0.287769
0.286521
0.277322
0.279705
0.27544
0.283314
0.327911
0.372592
0.427287
0.483092
0.53729
0.586839
0.627791
0.656453
0.673421
0.685187
0.694376
0.69913
0.681082
0.573325
0.449362
0.381869
0.345883
0.319611
0.286698
0.241634
0.177273
0.0819916
0.137199
0.262966
0.222604
0.229768
0.251513
0.263664
0.26258
0.244819
0.257271
0.313565
0.379
0.443188
0.50346
0.557096
0.601347
0.633889
0.654293
0.668501
0.681325
0.688377
0.683122
0.634201
0.480073
0.387615
0.338456
0.307559
0.274241
0.230104
0.168806
0.0791919
0.14092
0.248688
0.219526
0.250883
0.277341
0.290197
0.290719
0.270271
0.256199
0.295105
0.349976
0.410594
0.470876
0.526899
0.573567
0.609996
0.634215
0.651837
0.667153
0.678729
0.680651
0.651783
0.525372
0.394756
0.331041
0.292188
0.259717
0.21702
0.159055
0.0762581
0.138585
0.233326
0.236476
0.275295
0.294476
0.308071
0.309187
0.293162
0.266636
0.259075
0.312731
0.374393
0.435947
0.494898
0.543773
0.583248
0.611509
0.632435
0.649741
0.663603
0.66877
0.65573
0.590329
0.415606
0.326916
0.280747
0.246273
0.205266
0.150778
0.0739634
0.132762
0.228623
0.259435
0.294781
0.31288
0.333317
0.336878
0.31624
0.282031
0.248757
0.282168
0.342359
0.40231
0.460861
0.513908
0.555427
0.588069
0.611356
0.631221
0.645889
0.652863
0.645711
0.607273
0.465233
0.331828
0.271876
0.233082
0.194256
0.143242
0.0719921
0.125517
0.227017
0.283351
0.312852
0.335873
0.359202
0.36419
0.342743
0.296837
0.255285
0.256513
0.315393
0.37156
0.427359
0.481893
0.527715
0.562976
0.589024
0.610093
0.627641
0.636904
0.62723
0.608833
0.537282
0.356915
0.267593
0.22296
0.18289
0.134323
0.0685194
0.118568
0.238702
0.307038
0.330081
0.359589
0.378258
0.376612
0.359951
0.310535
0.25835
0.241536
0.293377
0.344183
0.397048
0.45092
0.49922
0.537052
0.566733
0.589239
0.608438
0.618837
0.611318
0.597689
0.558925
0.420784
0.276176
0.214878
0.171966
0.125638
0.0657247
0.113715
0.262087
0.329436
0.347924
0.374137
0.378524
0.365887
0.344517
0.306852
0.255845
0.233821
0.272049
0.319009
0.3701
0.42396
0.4715
0.512273
0.543612
0.568448
0.588793
0.601738
0.601075
0.576156
0.556559
0.497005
0.31542
0.213427
0.163926
0.119539
0.0640298
0.110695
0.287865
0.353172
0.371202
0.389792
0.377705
0.351398
0.328618
0.295334
0.250266
0.229706
0.253097
0.297129
0.346103
0.39861
0.445941
0.486887
0.52131
0.547918
0.569808
0.584943
0.588281
0.56732
0.538515
0.506689
0.415035
0.234158
0.159875
0.114897
0.0629491
0.109329
0.313043
0.374852
0.395603
0.407883
0.380781
0.339399
0.311902
0.28096
0.24322
0.2235
0.238842
0.278401
0.325939
0.375668
0.422783
0.464247
0.499066
0.528119
0.550698
0.565097
0.570157
0.561498
0.520817
0.493966
0.447557
0.317275
0.170393
0.11256
0.0622769
0.110358
0.337965
0.39651
0.416264
0.419868
0.378913
0.327545
0.290763
0.265312
0.235575
0.216743
0.231015
0.266366
0.309994
0.357906
0.403546
0.445692
0.481015
0.509925
0.531998
0.546878
0.553443
0.548376
0.520194
0.479392
0.441417
0.374711
0.217726
0.117578
0.0616499
0.112764
0.362641
0.416113
0.433957
0.424754
0.37598
0.319036
0.271611
0.253065
0.230549
0.213627
0.227914
0.261213
0.302334
0.344983
0.387178
0.427486
0.461834
0.489709
0.510905
0.524835
0.531405
0.528179
0.5048
0.460258
0.4224
0.377493
0.284404
0.132448
0.0612856
0.11666
0.38628
0.432406
0.44505
0.430859
0.375442
0.314714
0.263622
0.246305
0.230852
0.216152
0.231924
0.262298
0.299801
0.337075
0.375188
0.412795
0.445004
0.470904
0.490471
0.502988
0.508629
0.505363
0.483536
0.438044
0.401347
0.363703
0.304059
0.174067
0.0635231
0.121348
0.40585
0.444389
0.452578
0.439682
0.381606
0.321192
0.262184
0.247853
0.234849
0.227745
0.24313
0.270419
0.30185
0.333886
0.367717
0.401855
0.430899
0.454042
0.471349
0.482405
0.486908
0.482246
0.460171
0.415454
0.379728
0.346364
0.307141
0.233228
0.07818
0.12671
0.42472
0.453419
0.456067
0.44835
0.393801
0.337848
0.279075
0.261168
0.248818
0.251004
0.263233
0.283582
0.30855
0.33502
0.363865
0.393837
0.41906
0.438978
0.454094
0.463441
0.466449
0.459166
0.434451
0.392795
0.360254
0.330334
0.302767
0.262934
0.132307
0.132117
0.439688
0.458812
0.457598
0.45427
0.411452
0.36651
0.312668
0.288556
0.276405
0.28399
0.289377
0.299991
0.317963
0.339198
0.363371
0.388259
0.408971
0.426043
0.438679
0.44581
0.445946
0.437224
0.411054
0.372053
0.342611
0.321691
0.301525
0.290072
0.203566
0.13782
0.452315
0.462331
0.457615
0.458807
0.426298
0.393485
0.353024
0.324124
0.313028
0.316581
0.31531
0.317225
0.328071
0.34529
0.364604
0.384048
0.400991
0.414503
0.423951
0.428015
0.425304
0.414788
0.388295
0.353162
0.331677
0.316111
0.30833
0.324022
0.227062
0.143598
0.463259
0.463899
0.452585
0.457441
0.440871
0.416805
0.380968
0.351505
0.337382
0.335623
0.334985
0.332255
0.336975
0.351016
0.366025
0.380794
0.392832
0.401869
0.407937
0.409338
0.405352
0.39382
0.3676
0.339033
0.326346
0.314589
0.323816
0.379103
0.231794
0.148056
0.470807
0.461924
0.446154
0.44934
0.452055
0.44363
0.408807
0.375535
0.353267
0.348544
0.346839
0.344124
0.345673
0.356168
0.366731
0.377118
0.384183
0.388955
0.391816
0.391321
0.386528
0.375065
0.350567
0.331858
0.321648
0.318969
0.353058
0.446133
0.230113
0.1526
0.476181
0.457868
0.433899
0.438867
0.456038
0.46629
0.445142
0.408125
0.37754
0.365392
0.35913
0.356416
0.354859
0.360024
0.365523
0.371305
0.374382
0.376187
0.376325
0.374479
0.3696
0.35913
0.336804
0.327376
0.320996
0.331662
0.401104
0.459969
0.226058
0.158262
0.471446
0.446607
0.415578
0.425031
0.449573
0.474029
0.477055
0.447516
0.412996
0.390088
0.376242
0.369145
0.361677
0.360699
0.360555
0.36329
0.364153
0.363616
0.361956
0.359531
0.354928
0.345622
0.33049
0.324051
0.325163
0.357465
0.476454
0.451946
0.22357
0.162431
0.466869
0.431401
0.394727
0.406278
0.436463
0.466369
0.490288
0.480338
0.452769
0.422492
0.397002
0.380823
0.366626
0.359224
0.353803
0.354367
0.35397
0.352138
0.349569
0.346607
0.342643
0.335446
0.327235
0.323959
0.336409
0.392914
0.495887
0.438404
0.220535
0.158896
0.444449
0.405082
0.372413
0.387133
0.420629
0.452791
0.48437
0.498334
0.491119
0.463534
0.428177
0.400683
0.373324
0.358752
0.348936
0.346692
0.34464
0.342152
0.338354
0.335194
0.333194
0.329026
0.324817
0.32744
0.35653
0.456779
0.491113
0.419186
0.216826
0.158512
0.419576
0.377759
0.355122
0.371149
0.405736
0.438766
0.470381
0.500123
0.518988
0.50781
0.473668
0.436027
0.390029
0.363505
0.3487
0.340806
0.335963
0.332628
0.328871
0.326742
0.324976
0.324928
0.324969
0.336756
0.385558
0.492157
0.478004
0.395677
0.212805
0.139277
0.332052
0.343688
0.342795
0.360312
0.392398
0.424343
0.454796
0.488178
0.526517
0.538273
0.520286
0.483313
0.422124
0.376203
0.353556
0.337746
0.329552
0.324938
0.32151
0.319533
0.318316
0.320264
0.327122
0.351773
0.4307
0.496196
0.460819
0.379174
0.20837
0.0815049
0.176805
0.241575
0.287123
0.320059
0.347
0.384777
0.455774
0.587263
0.679857
0.693506
0.687505
0.678513
0.667283
0.649588
0.619174
0.576791
0.526602
0.471831
0.415522
0.361918
0.31889
0.277513
0.274647
0.277191
0.272135
0.277417
0.280616
0.295961
0.151646
0.0786442
0.16818
0.230022
0.274706
0.308131
0.340209
0.391491
0.48876
0.639793
0.680212
0.682596
0.674737
0.661791
0.64796
0.62686
0.592799
0.547148
0.492758
0.431909
0.36716
0.302833
0.251521
0.250566
0.267909
0.267034
0.253949
0.230239
0.217009
0.256382
0.135168
0.075621
0.158321
0.216877
0.260137
0.292893
0.333156
0.399631
0.535461
0.651578
0.675852
0.672648
0.660383
0.645245
0.627773
0.602696
0.564952
0.517311
0.46085
0.400371
0.340004
0.287226
0.257255
0.277197
0.294847
0.293087
0.280191
0.253502
0.218967
0.243129
0.138689
0.0732705
0.149946
0.20509
0.246674
0.281575
0.329433
0.420968
0.593379
0.653647
0.664129
0.657411
0.642989
0.625792
0.604677
0.575793
0.535184
0.485413
0.426653
0.364894
0.30396
0.254949
0.272653
0.298372
0.314277
0.311409
0.297804
0.278132
0.238655
0.229206
0.13611
0.0713344
0.142458
0.193999
0.233378
0.2728
0.334458
0.469767
0.606544
0.643571
0.648613
0.639907
0.624902
0.60503
0.581356
0.547833
0.505333
0.451378
0.393333
0.334445
0.275395
0.251448
0.28888
0.323746
0.342808
0.336721
0.317064
0.298355
0.262438
0.226488
0.129997
0.0679799
0.133749
0.182719
0.223185
0.268477
0.358349
0.53702
0.606759
0.62507
0.632156
0.622457
0.604722
0.583196
0.556596
0.520648
0.473226
0.418783
0.363558
0.308942
0.252842
0.260334
0.305964
0.350717
0.369251
0.362349
0.340031
0.317042
0.286673
0.22662
0.122747
0.0652017
0.125079
0.171847
0.215065
0.276126
0.418421
0.557509
0.596826
0.609554
0.615097
0.603843
0.584233
0.560996
0.531642
0.492061
0.443393
0.389321
0.33728
0.287749
0.240558
0.26305
0.319339
0.365313
0.380077
0.380997
0.36307
0.334403
0.310848
0.240617
0.116192
0.0635174
0.119006
0.163802
0.213
0.311853
0.493755
0.555694
0.575678
0.599201
0.598561
0.584942
0.564085
0.538921
0.506343
0.464947
0.41705
0.363147
0.313047
0.26665
0.23518
0.260218
0.313563
0.34795
0.368863
0.381709
0.376945
0.352283
0.334034
0.26474
0.111676
0.0624503
0.114415
0.159363
0.231081
0.405803
0.505265
0.538998
0.56677
0.586164
0.582056
0.566639
0.544569
0.516309
0.481855
0.440453
0.39301
0.340594
0.291782
0.248427
0.231938
0.254216
0.301333
0.331425
0.355277
0.383013
0.393562
0.375563
0.358417
0.291121
0.108944
0.0617759
0.111899
0.168081
0.306779
0.444988
0.495362
0.522134
0.562153
0.569802
0.562962
0.547034
0.523947
0.494861
0.459579
0.418164
0.371177
0.321833
0.273547
0.234631
0.226161
0.247004
0.28633
0.314617
0.343392
0.386354
0.412076
0.400266
0.380733
0.317307
0.108201
0.0611498
0.115999
0.209296
0.370718
0.440964
0.478211
0.524182
0.548422
0.550464
0.542162
0.526672
0.504091
0.475083
0.44
0.398714
0.353925
0.307404
0.262914
0.227299
0.219157
0.239316
0.26976
0.293459
0.33184
0.38389
0.42338
0.420024
0.402821
0.343003
0.109584
0.0606053
0.12915
0.278054
0.375611
0.422509
0.462442
0.511143
0.53077
0.531988
0.523415
0.50822
0.486314
0.458223
0.423173
0.383661
0.34118
0.299246
0.257813
0.224593
0.214925
0.233836
0.256369
0.274919
0.323736
0.381029
0.428373
0.436668
0.421723
0.368144
0.11252
0.0625242
0.167773
0.300463
0.36266
0.401893
0.443271
0.490729
0.507823
0.509325
0.502649
0.489833
0.470374
0.444442
0.4109
0.372501
0.33414
0.296862
0.259258
0.22882
0.216772
0.232842
0.248545
0.26708
0.319681
0.381151
0.435272
0.447373
0.437102
0.391064
0.116752
0.0754986
0.227275
0.30499
0.34591
0.381366
0.421244
0.467573
0.484408
0.487021
0.482181
0.470947
0.453546
0.430419
0.400702
0.365866
0.331952
0.299306
0.26804
0.240821
0.227208
0.23574
0.248526
0.265609
0.325987
0.386994
0.444297
0.454813
0.448962
0.410022
0.121592
0.126854
0.259587
0.301424
0.330328
0.362145
0.399405
0.443732
0.46101
0.465762
0.462892
0.453376
0.438181
0.418347
0.392899
0.362679
0.333892
0.306688
0.282128
0.262989
0.248998
0.248705
0.261603
0.282559
0.342763
0.3994
0.452574
0.457919
0.457833
0.428496
0.12707
0.199265
0.28737
0.301061
0.322185
0.345253
0.377581
0.416338
0.438384
0.445474
0.444615
0.437165
0.424408
0.407705
0.387156
0.362162
0.338643
0.316783
0.298296
0.28932
0.28251
0.275411
0.289223
0.316138
0.371566
0.417151
0.459261
0.459513
0.463006
0.443382
0.132629
0.223253
0.321171
0.308546
0.318454
0.333905
0.35817
0.394287
0.416992
0.425749
0.426879
0.421925
0.412063
0.398505
0.382458
0.363478
0.344654
0.327938
0.316258
0.315086
0.316532
0.312025
0.32529
0.356848
0.398493
0.431616
0.463349
0.460605
0.466593
0.455904
0.13811
0.228244
0.375471
0.324042
0.316701
0.329101
0.34299
0.374206
0.396158
0.405559
0.408488
0.406276
0.400102
0.390515
0.378244
0.364842
0.350725
0.337134
0.333132
0.334999
0.336442
0.337827
0.353303
0.385265
0.42176
0.446028
0.461933
0.456781
0.468861
0.466879
0.143747
0.226672
0.443482
0.353036
0.320997
0.324571
0.334847
0.356684
0.377505
0.386832
0.390589
0.390377
0.387333
0.382489
0.375259
0.365601
0.356077
0.345705
0.345215
0.347477
0.350119
0.355148
0.378335
0.413657
0.448462
0.456432
0.453192
0.451609
0.467521
0.4747
0.148187
0.2232
0.457833
0.399698
0.333156
0.323687
0.330567
0.34143
0.36101
0.369465
0.373649
0.375201
0.374909
0.373376
0.370056
0.364578
0.360082
0.355132
0.356892
0.359652
0.367095
0.380457
0.410635
0.4492
0.469779
0.459444
0.443018
0.440443
0.464107
0.480609
0.152511
0.221362
0.450184
0.476407
0.358582
0.327795
0.327064
0.33361
0.347881
0.354909
0.358072
0.360911
0.362833
0.363591
0.362448
0.360211
0.361105
0.362533
0.369716
0.377093
0.39298
0.417433
0.450478
0.479675
0.475753
0.452219
0.42946
0.423477
0.453906
0.476633
0.157532
0.218551
0.436867
0.496906
0.393733
0.33842
0.326554
0.330118
0.33786
0.342956
0.34612
0.348437
0.351371
0.353459
0.354242
0.353555
0.36019
0.368305
0.383575
0.400017
0.427119
0.459078
0.48375
0.493117
0.468168
0.43857
0.410226
0.403485
0.439092
0.473155
0.161415
0.215531
0.416841
0.493266
0.457027
0.358391
0.329474
0.326694
0.330848
0.334094
0.336131
0.33829
0.341313
0.343767
0.346772
0.349211
0.360109
0.376181
0.40582
0.434178
0.46906
0.498584
0.502285
0.486951
0.455149
0.423078
0.390738
0.380293
0.412986
0.45079
0.15778
0.212104
0.395046
0.480668
0.495745
0.387199
0.338482
0.326626
0.325876
0.326274
0.328276
0.329959
0.333033
0.335926
0.341276
0.349877
0.365933
0.395533
0.443674
0.481791
0.51321
0.52593
0.505758
0.473246
0.441683
0.408853
0.374966
0.362063
0.385082
0.426488
0.157428
0.207839
0.37882
0.463622
0.501469
0.429703
0.35324
0.328289
0.32133
0.319703
0.3209
0.322981
0.326379
0.331325
0.340234
0.357166
0.382042
0.43161
0.493074
0.529256
0.542335
0.532268
0.494967
0.459311
0.427911
0.395347
0.364396
0.349757
0.349464
0.337523
0.138532
0.238063
0.237839
0.239438
0.241342
0.242001
0.243799
0.244801
0.24445
0.243894
0.241519
0.242681
0.245116
0.248265
0.251476
0.255816
0.261124
0.268541
0.278078
0.288333
0.300484
0.312458
0.324631
0.336907
0.34873
0.361529
0.373797
0.384886
0.394676
0.402621
0.408612
0.412865
0.414557
0.414503
0.411833
0.406755
0.400695
0.392698
0.382423
0.371512
0.359823
0.347489
0.335299
0.323884
0.314879
0.306871
0.299709
0.292387
0.284329
0.275597
0.267368
0.260501
0.255429
0.251125
0.246896
0.242561
0.238235
0.234131
0.22978
0.225079
0.22014
0.215356
0.21018
0.204572
0.19897
0.19369
0.188819
0.184682
0.181355
0.178449
0.176096
0.17432
0.172824
0.171705
0.170336
0.168958
0.167808
0.167085
0.166704
0.166143
0.16502
0.163392
0.161511
0.159538
0.157522
0.155507
0.153547
0.151708
0.150063
0.148666
0.14755
0.146697
0.146088
0.145671
0.145434
0.145419
0.145689
0.146335
0.147341
0.148361
0.149549
0.15085
0.152576
0.153995
0.155217
0.156439
0.157452
0.15818
0.156048
0.15462
0.153925
0.154121
0.154629
0.155136
0.155773
0.157186
0.15894
0.161301
0.164121
0.167854
0.172362
0.178297
0.185734
0.192141
0.197937
0.203256
0.453563
0.455859
0.454724
0.456373
0.457641
0.458823
0.461073
0.464659
0.47041
0.475429
0.481414
0.492529
0.506193
0.520801
0.539753
0.561298
0.586518
0.62302
0.66869
0.727211
0.798789
0.876572
0.958023
1.0381
1.11735
1.19816
1.26259
1.3218
1.3768
1.42331
1.46179
1.49388
1.52466
1.55035
1.56519
1.56456
1.54761
1.51288
1.45816
1.39787
1.33656
1.27837
1.22754
1.18239
1.13966
1.0967
1.05137
1.00395
0.957126
0.914227
0.876632
0.843994
0.814594
0.783584
0.751611
0.719408
0.688656
0.658198
0.63036
0.602335
0.57102
0.539465
0.50921
0.482209
0.45986
0.442072
0.428018
0.415791
0.405375
0.396819
0.389803
0.383821
0.378093
0.372304
0.366604
0.361506
0.357194
0.353389
0.349108
0.343762
0.337467
0.330547
0.32324
0.315709
0.308143
0.300744
0.293725
0.287273
0.281483
0.276383
0.271926
0.268056
0.264704
0.261877
0.259629
0.258099
0.257289
0.257262
0.257617
0.258491
0.259519
0.26053
0.261287
0.261708
0.261675
0.261043
0.259992
0.258853
0.257998
0.258425
0.259964
0.261927
0.264855
0.26905
0.275397
0.286274
0.295122
0.303206
0.311745
0.321281
0.329414
0.336828
0.344768
0.354285
0.365821
0.557985
0.557966
0.55631
0.557291
0.559624
0.56308
0.56919
0.578351
0.589848
0.603486
0.616407
0.634541
0.659782
0.684944
0.711969
0.741329
0.771363
0.808813
0.850033
0.900558
0.970253
1.04745
1.14386
1.25496
1.37338
1.5006
1.61895
1.72691
1.81569
1.88735
1.94304
1.99511
2.04201
2.08297
2.11442
2.13039
2.12505
2.09373
2.03355
1.94461
1.84698
1.74781
1.65578
1.5717
1.49172
1.41153
1.33103
1.25164
1.17647
1.1092
1.05227
1.00464
0.963873
0.924532
0.888111
0.856522
0.830527
0.809036
0.790929
0.771744
0.750665
0.725004
0.692729
0.657682
0.624562
0.596259
0.573025
0.554066
0.53728
0.522884
0.510484
0.499652
0.489758
0.480986
0.47313
0.466195
0.459601
0.452541
0.444428
0.435338
0.425805
0.41618
0.40659
0.397077
0.38768
0.378469
0.369567
0.361099
0.353189
0.345913
0.339304
0.333398
0.328259
0.323918
0.320466
0.317872
0.316137
0.315288
0.314954
0.314791
0.314958
0.315271
0.316038
0.316713
0.317412
0.318508
0.319999
0.322058
0.324174
0.32655
0.329285
0.33258
0.337376
0.342966
0.348853
0.354987
0.359779
0.36432
0.370739
0.378332
0.387187
0.396664
0.407742
0.421676
0.438617
0.681789
0.689001
0.699498
0.713125
0.733378
0.755643
0.777771
0.802359
0.826476
0.851385
0.872366
0.892139
0.914199
0.932433
0.946697
0.96194
0.973221
0.986644
1.00754
1.03033
1.07409
1.13943
1.2335
1.3656
1.53104
1.74374
1.98608
2.23507
2.47239
2.66944
2.8254
2.94251
3.01803
3.06809
3.09697
3.10366
3.08359
3.03359
2.95183
2.83809
2.70372
2.5607
2.41488
2.27184
2.13118
1.99069
1.84905
1.70799
1.5712
1.44356
1.32788
1.22525
1.13634
1.05854
0.989132
0.928365
0.877587
0.832947
0.795812
0.774751
0.777426
0.79421
0.80084
0.790337
0.76749
0.737628
0.707713
0.680685
0.657743
0.636892
0.618185
0.600864
0.585068
0.570579
0.557965
0.546521
0.534842
0.523242
0.511173
0.498659
0.48602
0.473542