/*--------------------------------*- C++ -*----------------------------------*\
| =========                 |                                                 |
| \\      /  F ield         | OpenFOAM: The Open Source CFD Toolbox           |
|  \\    /   O peration     | Version:  2112                                  |
|   \\  /    A nd           | Website:  www.openfoam.com                      |
|    \\/     M anipulation  |                                                 |
\*---------------------------------------------------------------------------*/
FoamFile
{
    version     2.0;
    format      ascii;
    arch        "LSB;label=32;scalar=64";
    class       volScalarField;
    location    "0.00637";
    object      p;
}
// * * * * * * * * * * * * * * * * * * * * * * * * * * * * * * * * * * * * * //

dimensions      [1 -1 -2 0 0 0 0];

internalField   nonuniform List<scalar> 
13875
(
951599
984298
973571
975930
973657
974571
975036
974898
975177
975179
975139
975040
974707
974795
974836
974689
974629
975352
975188
973968
973387
975637
972343
982739
945746
733801
659575
672186
677246
669254
670349
677100
678924
679270
679438
679539
678582
670310
669176
670414
678018
679285
679312
677550
669945
669563
676901
672236
657268
731005
736890
635522
664281
653572
649198
648054
648406
648597
647275
646228
646637
649114
645406
645306
645228
648885
646244
648422
647965
647673
648553
652154
661917
632224
733679
743534
636165
665163
653730
649505
648227
647358
645631
644323
643738
643003
644461
645439
645408
645257
644569
643572
644769
646186
647824
648836
652279
662664
632831
739209
757364
639170
667714
654436
650365
648688
647465
645701
644369
643846
643071
644490
645562
645670
645378
644601
643672
644847
646310
648261
649620
652871
664947
635472
750090
759045
647825
673477
656404
652171
649652
647828
645940
644555
644144
643302
644608
645823
646190
645640
644729
643960
645109
646719
649193
651297
654742
670527
643203
751653
765053
668331
685697
661313
655832
651692
648717
646520
645053
644710
643850
644969
646387
646781
646147
645041
644599
645817
647812
651259
654939
660345
682067
665889
755745
791235
718359
711614
674653
663602
656113
650918
647981
646278
645888
645007
645776
647504
647972
647227
645868
645908
647320
650083
655391
662324
673144
707091
715383
781738
908667
827914
766491
704307
679078
664741
655632
651160
648956
648301
647386
647667
649782
650380
649484
647896
648580
650487
654750
663510
677001
700926
760265
823210
909698
1.52408e+06
1.02948e+06
833607
739362
697472
675066
662434
656618
654056
652978
652093
651927
654353
655118
654177
652535
653658
656144
661868
674146
695892
736869
829495
1.02545e+06
1.51743e+06
2.90526e+06
1.39276e+06
957598
796538
725850
691611
675042
667416
664011
662226
661235
660698
663082
664114
663475
662275
663563
666813
674215
690114
722650
789496
941104
1.35141e+06
2.86107e+06
5.6035e+06
2.3444e+06
1.28805e+06
937324
790203
728926
702492
690399
684649
681533
680026
679291
681049
682431
682568
682749
684658
689896
701870
728087
787737
926512
1.2525e+06
2.27479e+06
5.57499e+06
5.3886e+06
4.83744e+06
2.31481e+06
1.40313e+06
982832
832075
770601
744719
732420
726271
723439
722330
722771
724528
726129
728807
734043
745584
771952
837170
992037
1.38649e+06
2.1832e+06
4.87854e+06
5.34343e+06
4.8379e+06
4.64595e+06
4.71253e+06
3.99903e+06
1.65251e+06
1.15228e+06
967940
895341
862345
846430
839214
836061
834868
836987
841312
849982
867578
903371
983071
1.20848e+06
1.84465e+06
4.03919e+06
4.69133e+06
4.71787e+06
4.76356e+06
4.02602e+06
4.12762e+06
4.51052e+06
4.30952e+06
4.04458e+06
2.60193e+06
1.71869e+06
1.41993e+06
1.30288e+06
1.24966e+06
1.22834e+06
1.21941e+06
1.21669e+06
1.21879e+06
1.22717e+06
1.24861e+06
1.29976e+06
1.41678e+06
1.71078e+06
2.71778e+06
4.14621e+06
4.27911e+06
4.52603e+06
4.28369e+06
4.26392e+06
3.53885e+06
3.47556e+06
3.9594e+06
4.11958e+06
4.35058e+06
4.42589e+06
3.85876e+06
3.18256e+06
2.98382e+06
2.79017e+06
2.69177e+06
2.64515e+06
2.63026e+06
2.63621e+06
2.6685e+06
2.75984e+06
2.94766e+06
3.16046e+06
3.77438e+06
4.44389e+06
4.31496e+06
4.12107e+06
4.08697e+06
3.58704e+06
3.75717e+06
2.56759e+06
2.71569e+06
3.11288e+06
3.58854e+06
4.29695e+06
5.24514e+06
6.86997e+06
7.89001e+06
8.44821e+06
8.4842e+06
8.63147e+06
8.60471e+06
8.65463e+06
8.61883e+06
8.61176e+06
8.52657e+06
8.38477e+06
8.02962e+06
7.15697e+06
5.3172e+06
4.30326e+06
3.63059e+06
3.18808e+06
2.83805e+06
2.72354e+06
1.46439e+06
1.76209e+06
2.38157e+06
3.10565e+06
4.30947e+06
5.75538e+06
6.98697e+06
7.58171e+06
7.72613e+06
7.67645e+06
7.57042e+06
7.50776e+06
7.49022e+06
7.51377e+06
7.59056e+06
7.75232e+06
7.84668e+06
7.68922e+06
7.09066e+06
5.77536e+06
4.34024e+06
3.1221e+06
2.27112e+06
1.66927e+06
1.37854e+06
703353
1.03684e+06
1.7213e+06
2.74153e+06
4.33372e+06
5.30878e+06
6.00079e+06
6.25088e+06
6.1799e+06
6.15567e+06
6.18227e+06
6.22253e+06
6.24647e+06
6.24943e+06
6.23047e+06
6.23774e+06
6.32471e+06
6.34296e+06
6.07956e+06
5.50368e+06
4.41895e+06
2.88593e+06
1.7619e+06
1.05639e+06
712567
377875
622046
1.16945e+06
2.35475e+06
3.83719e+06
4.3667e+06
4.62613e+06
4.905e+06
5.09755e+06
5.28575e+06
5.44027e+06
5.52716e+06
5.54594e+06
5.52854e+06
5.42761e+06
5.26597e+06
5.08047e+06
4.8872e+06
4.62475e+06
4.39503e+06
3.88448e+06
2.46119e+06
1.21608e+06
627059
372989
901847
931639
1.19139e+06
1.96573e+06
2.99889e+06
3.35532e+06
3.64848e+06
4.02948e+06
4.35446e+06
4.6147e+06
4.78758e+06
4.86832e+06
4.88319e+06
4.85766e+06
4.75246e+06
4.55684e+06
4.28826e+06
3.9532e+06
3.58749e+06
3.32887e+06
2.93841e+06
1.90728e+06
1.18948e+06
938955
903118
990483
949226
1.17648e+06
1.61465e+06
2.19758e+06
2.55796e+06
2.97902e+06
3.4179e+06
3.75975e+06
4.00979e+06
4.1656e+06
4.23855e+06
4.2539e+06
4.22608e+06
4.13274e+06
3.95099e+06
3.68745e+06
3.33217e+06
2.8853e+06
2.50333e+06
2.15963e+06
1.54299e+06
1.16826e+06
957327
996712
1.09853e+06
987195
1.13455e+06
1.32615e+06
1.68605e+06
2.02807e+06
2.51072e+06
2.9345e+06
3.24371e+06
3.46208e+06
3.59848e+06
3.66462e+06
3.68088e+06
3.65177e+06
3.5685e+06
3.40684e+06
3.17396e+06
2.8665e+06
2.42304e+06
1.9711e+06
1.6632e+06
1.29239e+06
1.13259e+06
971163
1.09004e+06
1.32946e+06
1.10097e+06
1.11129e+06
1.16354e+06
1.42219e+06
1.73698e+06
2.13549e+06
2.52027e+06
2.78886e+06
2.98406e+06
3.1006e+06
3.16454e+06
3.17969e+06
3.15195e+06
3.07633e+06
2.93525e+06
2.72939e+06
2.45564e+06
2.06902e+06
1.68028e+06
1.39061e+06
1.12676e+06
1.09032e+06
1.0427e+06
1.25701e+06
1.37978e+06
1.21415e+06
1.1157e+06
1.10364e+06
1.27425e+06
1.5319e+06
1.83885e+06
2.15646e+06
2.38806e+06
2.56367e+06
2.67507e+06
2.73143e+06
2.74672e+06
2.71957e+06
2.65616e+06
2.53156e+06
2.34805e+06
2.10648e+06
1.79621e+06
1.48243e+06
1.24031e+06
1.07004e+06
1.08361e+06
1.17309e+06
1.32673e+06
1.43877e+06
1.34213e+06
1.12874e+06
1.10039e+06
1.18661e+06
1.38089e+06
1.60754e+06
1.86567e+06
2.06223e+06
2.21496e+06
2.31476e+06
2.3651e+06
2.37838e+06
2.35526e+06
2.29665e+06
2.18834e+06
2.03009e+06
1.82388e+06
1.57756e+06
1.34523e+06
1.15464e+06
1.06485e+06
1.09151e+06
1.27619e+06
1.39993e+06
1.47261e+06
1.38512e+06
1.14364e+06
1.1006e+06
1.1326e+06
1.25938e+06
1.42324e+06
1.62559e+06
1.78925e+06
1.91809e+06
2.00598e+06
2.04939e+06
2.06444e+06
2.04149e+06
1.99052e+06
1.89721e+06
1.76205e+06
1.59144e+06
1.39779e+06
1.22681e+06
1.09914e+06
1.06489e+06
1.1087e+06
1.34098e+06
1.43799e+06
1.54512e+06
1.46012e+06
1.17071e+06
1.09789e+06
1.08698e+06
1.15891e+06
1.27413e+06
1.43213e+06
1.56253e+06
1.67043e+06
1.74414e+06
1.78522e+06
1.7991e+06
1.7821e+06
1.73733e+06
1.65912e+06
1.54837e+06
1.4087e+06
1.25467e+06
1.13563e+06
1.06034e+06
1.06496e+06
1.13196e+06
1.42316e+06
1.51669e+06
1.66084e+06
1.54765e+06
1.2112e+06
1.08866e+06
1.05869e+06
1.07781e+06
1.15111e+06
1.27111e+06
1.37674e+06
1.46472e+06
1.5265e+06
1.55959e+06
1.57369e+06
1.55758e+06
1.52007e+06
1.45331e+06
1.36083e+06
1.25259e+06
1.13651e+06
1.0587e+06
1.0325e+06
1.05933e+06
1.15756e+06
1.47511e+06
1.5847e+06
1.74717e+06
1.70096e+06
1.25493e+06
1.07748e+06
1.0239e+06
1.02121e+06
1.05604e+06
1.14345e+06
1.22247e+06
1.29381e+06
1.34417e+06
1.37347e+06
1.38352e+06
1.37106e+06
1.33802e+06
1.28467e+06
1.2113e+06
1.1254e+06
1.0377e+06
999288
1.00035e+06
1.04665e+06
1.20531e+06
1.58934e+06
1.67995e+06
1.75806e+06
1.74153e+06
1.28782e+06
1.06952e+06
988724
972371
978466
1.03108e+06
1.09059e+06
1.14761e+06
1.18926e+06
1.21219e+06
1.22172e+06
1.2107e+06
1.18546e+06
1.14109e+06
1.08215e+06
1.02084e+06
961909
954339
965760
1.03655e+06
1.23662e+06
1.7027e+06
1.75524e+06
1.77033e+06
1.74527e+06
1.34458e+06
1.06966e+06
954719
919800
913942
947244
987745
1.03103e+06
1.06055e+06
1.08008e+06
1.08598e+06
1.07821e+06
1.05635e+06
1.02303e+06
978314
936168
898968
903220
930854
1.03496e+06
1.28547e+06
1.75311e+06
1.77138e+06
1.77039e+06
1.73731e+06
1.40036e+06
1.07164e+06
928603
874947
863171
871268
896771
929104
951989
965145
970394
962703
946837
921241
888959
862899
847972
859091
906862
1.03722e+06
1.34754e+06
1.75188e+06
1.77673e+06
1.76949e+06
1.7274e+06
1.51635e+06
1.08164e+06
902523
831278
809862
808947
820717
843393
859456
870420
873357
868798
856463
838728
815646
800103
800140
816646
878618
1.04274e+06
1.44205e+06
1.73772e+06
1.78901e+06
1.76753e+06
1.70886e+06
1.55359e+06
1.10471e+06
891667
802400
766318
755529
755316
768777
780139
787248
790058
785795
776863
764193
748625
747554
754768
785638
865950
1.05895e+06
1.52192e+06
1.72434e+06
1.78612e+06
1.761e+06
1.66331e+06
1.55214e+06
1.12495e+06
892003
768820
720221
706652
702172
707643
713414
718697
720067
717394
710173
703608
696101
697618
709642
753926
866077
1.09352e+06
1.55228e+06
1.69852e+06
1.77349e+06
1.74606e+06
1.61547e+06
1.5485e+06
1.16766e+06
897774
750803
688183
662004
652954
651597
654530
657711
658802
656607
651915
648213
648654
656495
677431
734610
869258
1.1349e+06
1.54919e+06
1.64991e+06
1.74098e+06
1.71498e+06
1.56825e+06
1.54101e+06
1.25136e+06
914014
733394
654087
623685
610970
607089
605608
607479
607335
606046
603215
603965
606469
615348
642914
716279
880804
1.21705e+06
1.54253e+06
1.57842e+06
1.68233e+06
1.67033e+06
1.54111e+06
1.515e+06
1.37388e+06
932943
733679
635645
591789
571698
563806
562642
562313
561751
560272
560357
560919
567924
585997
623910
716707
912470
1.38616e+06
1.52721e+06
1.52e+06
1.6218e+06
1.60898e+06
1.51567e+06
1.46358e+06
1.37239e+06
974101
738954
614267
561774
539063
529910
525368
524795
523119
523226
523585
527304
535209
554696
603708
720189
952953
1.38489e+06
1.48953e+06
1.48003e+06
1.58611e+06
1.54955e+06
1.48754e+06
1.38856e+06
1.3664e+06
1.0558e+06
754347
613118
544227
511183
496345
491823
489436
488528
488624
490313
493901
507268
537571
603589
732851
1.0339e+06
1.37754e+06
1.41372e+06
1.45636e+06
1.54972e+06
1.5102e+06
1.45876e+06
1.32166e+06
1.3423e+06
1.20195e+06
774757
615178
529291
488589
471865
463560
460894
459034
460339
462161
469161
483617
520646
607446
763995
1.20345e+06
1.35758e+06
1.33801e+06
1.43415e+06
1.50589e+06
1.47029e+06
1.42971e+06
1.27342e+06
1.29307e+06
1.20086e+06
818389
624866
529543
472148
446458
437877
433612
432470
433123
436853
444501
468198
519654
614498
808124
1.20293e+06
1.31056e+06
1.27367e+06
1.40971e+06
1.47647e+06
1.42764e+06
1.38995e+06
1.23754e+06
1.22365e+06
1.19098e+06
906054
647481
532153
463861
431785
416966
412223
409556
411449
415708
428881
458549
521295
634035
895657
1.19326e+06
1.22016e+06
1.22264e+06
1.3843e+06
1.44298e+06
1.39716e+06
1.35077e+06
1.20974e+06
1.15806e+06
1.15994e+06
1.04649e+06
683556
537487
464066
419018
399508
391246
389056
390352
398031
415012
458858
530023
678420
1.07534e+06
1.16924e+06
1.1497e+06
1.1913e+06
1.35265e+06
1.40466e+06
1.35877e+06
1.31561e+06
1.18951e+06
1.11052e+06
1.09756e+06
1.04179e+06
760707
555227
466974
418259
388445
376669
372210
375653
386654
411380
460717
547681
758337
1.06897e+06
1.11675e+06
1.09819e+06
1.17199e+06
1.32413e+06
1.37412e+06
1.31268e+06
1.27006e+06
1.17213e+06
1.06894e+06
1.03645e+06
1.02637e+06
918017
592760
475857
419157
384117
365422
359929
364227
382527
411971
467590
583287
921863
1.04693e+06
1.04703e+06
1.05857e+06
1.16398e+06
1.28885e+06
1.33125e+06
1.26698e+06
1.23226e+06
1.15213e+06
1.04397e+06
990760
989610
915858
661586
493309
421425
384384
362990
352004
361569
382913
415825
487289
660406
921061
999084
998421
1.03625e+06
1.1516e+06
1.24333e+06
1.27495e+06
1.17508e+06
1.17485e+06
1.12574e+06
1.0229e+06
948886
935025
906380
804598
530903
430264
386473
363341
352321
361888
384502
425659
526223
812286
909567
936512
953331
1.0188e+06
1.12851e+06
1.18094e+06
1.17571e+06
1.04151e+06
1.0991e+06
1.07359e+06
1.00272e+06
922813
885571
881156
805316
609014
451619
393406
365292
354150
363672
390718
448224
606073
811691
880757
880980
926132
1.00126e+06
1.08153e+06
1.10494e+06
1.0436e+06
113337
122262
124929
128718
127840
125710
122600
120997
118690
113826
111761
111804
111995
112035
111929
111330
110066
108566
107317
106266
105030
102908
98311.6
82136.9
66994.2
61134.6
59408.8
59225.3
59374.1
59576
112165
120575
122406
125254
124342
123262
121189
118409
115017
111533
111816
112003
112050
112061
111869
111355
110509
109360
108276
107456
106484
104676
101386
94341.4
72057.2
62349.8
58867.5
58044.7
58063.5
58131.5
112114
119675
120299
123838
122795
122326
120603
117036
113702
111191
111279
111443
111793
111853
111765
111598
111082
110455
109790
109228
108490
107473
105378
100451
81275.3
64273.3
58889.8
56853.2
56792.9
56715.7
112647
119078
118826
121063
120170
118554
115231
112669
111693
109235
110159
111162
111690
111790
111836
111904
111734
111616
111560
111199
110753
109957
108348
104767
93152.1
68414.6
59541
56467.5
55734.9
55602.6
113343
118834
118050
119557
118945
116781
112120
110518
109291
107712
108870
110938
111243
111743
112088
112495
112567
112683
112752
113271
113340
112881
111439
108778
102545
79499.6
61988.6
56623.1
55140.1
55015.7
113542
118219
117574
117569
116147
113479
109665
106760
105981
106308
108064
110874
111043
111798
113055
113661
113611
113778
114147
114909
115329
115576
115222
113505
108224
97437.5
69092.8
58068.2
55024.3
54312.5
114540
117998
117215
116624
114354
111358
108108
104105
103777
105097
108332
110667
110780
111955
113761
114342
114891
114968
115257
116115
116979
117166
116922
115603
112468
104728
88430.4
62698.8
55418.3
53182.3
115409
117952
117028
116212
113088
109677
106045
102358
102429
104556
108170
109774
110742
113406
114141
114783
115860
116256
116554
116857
117700
117862
117782
116944
114502
108207
99464.8
77178.4
57528.3
52982.4
115806
118143
116977
116058
112554
108916
104824
101558
101821
104510
107827
109513
111064
114051
114710
115397
116351
116996
117378
117670
118076
118186
118197
117852
116081
110940
104951
94159.2
65799.8
54881.4
116639
118598
116998
115964
112403
108732
104335
101340
101737
104957
107711
109723
111523
114338
114982
115781
116789
117498
117880
118115
118275
118442
118529
118389
117224
113770
107412
101329
86168
65028.2
117682
119378
117028
115988
112433
108971
104307
101816
102531
105587
108088
110557
112093
114546
115303
116208
117227
118280
118759
118863
118940
119096
119138
119051
118341
115973
110011
108356
108467
117860
118712
120044
117723
116728
114036
109807
105277
103217
103835
106944
108911
111592
112599
114673
115505
116705
117860
119132
119637
119652
119656
119752
119973
119986
119562
117503
113770
116225
128838
190699
119664
120711
118702
117771
114897
110147
106021
104520
105687
108310
110726
112068
113210
114771
115826
116928
118283
119475
120111
120210
120297
120378
120580
120622
120218
118292
117656
122944
147251
206346
120419
121429
119697
118246
115259
110221
107074
106095
107365
109559
111385
112595
113427
114938
116131
117121
118494
119658
120400
120513
120582
120734
120991
121033
120860
120088
121290
131951
184800
206365
121169
122514
120261
118408
115328
110236
107720
107152
108196
110050
111576
112756
113476
114944
116258
117181
118567
119727
120529
120713
120803
120951
121187
121551
122240
123848
127226
146550
199980
203345
121971
123062
120468
118452
114927
110170
108070
107693
108531
110103
111690
112731
113538
114997
116287
117194
118578
119736
120617
120943
120963
121126
121515
122412
124447
128448
137291
183978
202738
202367
122701
123205
120512
118487
114182
109798
108175
107914
108610
110063
111231
112039
113577
114984
116274
117065
118346
119681
120646
121054
121159
121392
122159
124016
127902
134838
150976
203932
202696
202269
122980
123218
120547
118466
112736
109220
108100
107897
108197
109220
110326
111128
113456
114777
115987
116692
117959
119629
120623
121067
121412
122004
123263
126077
132025
144250
176240
208993
202591
202935
122683
123042
120352
117257
110993
108137
107085
106814
107420
108825
109534
110189
112834
114214
115029
116247
118030
119458
120339
121083
121681
122831
125039
129281
137987
157088
201465
208910
206007
207473
122669
122587
119373
114921
109455
107165
106244
106064
106882
108196
108773
109736
112208
113627
114904
115904
117951
119137
120421
121084
122045
123851
127008
133235
146174
179239
208973
208803
207578
212029
120831
120910
116905
112099
107687
105823
105094
104992
106159
107464
108118
109389
111840
113267
114527
115717
117860
119194
120401
121274
122582
124833
129058
137915
157501
204638
209866
209112
209217
214223
119480
118659
114065
109080
105561
104135
103651
103739
105053
106290
107182
109157
111384
112706
113795
115655
117801
119170
120464
121572
123418
126303
132143
144266
172608
212606
208733
209249
211519
215141
115320
114057
110270
105522
103151
102245
101986
102476
103782
104742
106011
108592
110568
112201
113530
115649
117812
119207
120671
122173
124783
128509
136343
154156
199484
213636
208241
209338
214006
215370
112512
111193
106130
102440
100683
100184
100022
100963
101834
102724
104479
107686
109737
111935
113436
116006
117985
119635
121379
123485
126231
131374
142079
166372
208698
213405
208116
209557
214953
215108
100161
103375
100272
98833.1
98185.8
98092.8
98040.7
99283.4
99933.7
100657
103164
106774
109144
111801
113416
116394
118760
120379
122186
124415
127649
134457
149856
192377
210428
209646
207856
210586
215244
210879
59168.6
59071.3
59071.6
59385.9
61284.3
67507.9
83436
98038.4
102287
104260
105446
106515
107854
109273
110443
111047
111124
111053
110952
110928
113673
118587
120528
121907
125059
127215
128125
124229
121447
112552
57704.3
57740.6
57894.5
58834.8
62532.1
72754.1
94338.1
100851
103961
105700
106586
107471
108587
109684
110485
110979
111122
111163
111206
110910
110441
115242
117991
120518
122467
123488
124436
121983
119705
111409
56278.8
56456.1
56682.4
58859.8
64471
81873
99945.2
104624
106646
107625
108341
108917
109567
110194
110711
110890
110939
110836
110768
110767
109827
113683
116518
119875
121383
121795
122840
119498
119010
111371
55121.7
55373
56254.8
59482.8
68468
93194.4
104102
107519
109064
109846
110279
110523
110699
110925
110986
110940
110882
110714
110435
109290
108464
110694
111849
114140
117405
118969
119991
117866
118502
112350
54516.2
54767.9
56372.4
61771.5
78832.6
101980
108040
110566
111933
112348
112286
111781
111678
111552
111428
111118
110836
110425
110243
107774
106771
107835
109629
111012
115532
117646
118343
117020
118299
113031
53868.8
54606.9
57642.9
68181.2
96239.4
107503
112174
113934
114356
114361
113850
113172
112807
112503
112222
111926
110859
110292
110198
107176
105347
104948
105978
108686
112195
114781
116444
116427
117635
113210
52719.3
54924.1
61825.5
86890
105043
112783
115389
116312
116402
116054
115119
114395
113923
113542
113157
112823
111309
109960
109882
107452
104126
102885
103553
107194
110530
113132
115538
116166
117401
114269
52476.3
56735.8
74223.5
99554.7
109713
114976
116954
117474
117521
116921
116169
115664
115205
114843
114066
113137
112588
109940
108925
107322
103509
101466
101780
105237
108949
112115
115146
116052
117353
115311
54089.5
63982.8
93081.1
105259
112074
116237
117797
118085
118050
117811
117449
116991
116655
115925
114733
113646
113099
110592
108659
106828
103443
100821
100972
104195
108249
111727
115018
116029
117411
115811
63051.9
83032.3
100684
107692
114369
117439
118459
118598
118560
118330
118108
117894
117369
116463
115374
114201
113558
111183
108926
106675
103771
100717
100757
103795
108106
111651
114998
116163
117935
116534
108840
106201
107848
110579
116642
118707
119262
119339
119329
119166
119053
118927
118013
116928
115941
114688
113912
111433
109903
107113
104479
101566
101330
103796
108539
111767
115177
116270
118711
117371
185920
126896
115835
114156
118483
119792
119939
119883
119685
119494
119384
119265
118632
117475
116363
114963
114299
112331
110728
108199
105847
102959
102843
104768
109323
113516
116364
117100
119497
118313
203843
145465
122679
117980
120005
120533
120515
120348
119978
119824
119735
119564
118897
117735
116702
115442
114500
112880
111056
109999
107471
104944
104126
105557
109648
114489
117137
118275
120272
119196
204385
182259
131965
122758
121374
121100
120878
120626
120212
120060
119985
119787
119004
117899
116870
115834
114563
113078
111817
110597
108767
106503
105548
106518
109720
114906
117528
119490
121139
119956
201794
199112
146970
128961
124851
122345
121264
120836
120461
120274
120125
119878
119028
117932
116935
116027
114690
113126
112046
110736
109327
107363
106445
107040
109724
114991
117669
120052
122326
120679
201097
202598
183354
139716
129374
124513
122199
121197
120732
120429
120268
119891
119012
117753
116947
116087
114728
113143
112020
110862
109448
107720
106932
107336
109546
114500
117699
120235
122908
121424
201113
202797
204330
153714
135981
127708
123743
121870
120979
120566
120384
119945
118985
117707
116780
116086
114729
113193
111359
110524
109456
107779
107126
107424
109154
113832
117728
120264
123079
122113
201910
203189
209625
178544
144924
132076
125998
123006
121526
120815
120466
120028
118876
117668
116271
115827
114451
113118
110491
109515
108668
107311
107118
107352
108621
112564
117587
120275
123092
122383
207802
206793
209603
203133
157767
138124
129134
124847
122474
121247
120646
120040
118857
117639
115893
115080
113913
112449
109777
108738
108256
107167
106360
106634
107691
110581
116539
119850
122863
122159
212500
207623
209416
210308
178997
146214
133147
126937
123771
121874
120802
120050
118909
117615
115710
114520
113238
111763
109260
108012
107586
106756
105899
106092
106999
109195
114217
118751
122329
122200
214819
209454
209817
211106
205543
157416
137555
128856
124854
122518
121103
120072
119058
117606
115597
113861
112921
111323
108898
107234
106698
106015
104974
105062
105742
107482
111480
116180
120371
120933
215786
211600
209958
210015
213923
171370
143765
131861
126173
123424
121750
120301
119146
117613
115553
113392
112417
110796
108596
106332
105298
104833
103897
103635
104093
105399
108531
113273
117555
119714
216003
214423
210210
209144
215073
199149
153390
136033
128480
124852
122442
120870
119324
117874
115591
113179
111967
109906
108149
105391
103681
103225
102662
102071
102290
103040
105108
109419
112950
115509
215140
215443
210378
208993
214944
209963
165266
141825
131447
126479
123576
121529
119623
118087
115908
113115
111723
109080
107227
104185
101854
101014
100805
100359
100418
100662
102082
105291
110081
112567
211937
215833
211277
208704
212420
212376
189533
149169
134593
127934
124695
122367
120412
118731
116296
113105
111599
108551
106342
103256
100306
99148.9
98916.5
98422.6
98416.1
98227.7
98622.9
99710.2
102378
100190
448087
453226
462292
469756
478600
487236
501203
515262
530992
546588
560377
571598
582097
597922
603174
604092
603592
603898
604756
606935
609693
610494
610704
608706
604219
596526
586267
573779
559390
543512
526416
508667
490939
474039
457898
441002
423943
407560
392575
379534
369676
361595
353356
345181
337218
329754
323189
318184
315126
313866
313340
313153
312930
312724
312785
312799
312778
312632
312185
311405
310226
307611
304980
301940
297756
292523
286356
279459
272506
265725
259004
252478
246181
240230
234780
229801
225245
221218
217769
214888
212394
209923
207122
204071
200846
197524
194154
190766
187415
184178
181151
178409
176002
173962
172334
171249
170706
170188
170029
170039
170113
170359
170955
172228
173918
176639
179057
181320
183397
185443
187683
190016
191730
193184
194354
194849
196799
197837
198872
200609
203932
207049
207771
208905
210932
462941
466829
471589
475250
480607
483638
489068
494088
500331
505402
510733
516200
521704
529272
540201
554051
568672
583328
585730
585321
582088
581376
580921
580317
578976
574095
566021
556617
545878
533462
518561
501355
483707
465523
447448
430855
415285
400929
388075
376825
367377
359400
352026
344831
337837
331464
325907
321468
318591
317283
316739
316114
315179
314293
313717
313379
313088
312999
312867
312625
311949
310346
307607
303651
298562
292575
285859
278934
272329
266238
260459
254804
249158
243641
238292
233172
228457
224247
220592
217484
214685
211840
208769
205448
201960
198414
194881
191403
188022
184792
181781
179050
176646
174594
172917
171726
171139
170831
170785
170805
170893
171144
171684
172932
175103
177585
179721
181706
183530
185244
186586
187500
189074
190569
190795
191022
191698
193284
198505
204125
208562
211164
212225
215056
215899
468188
470419
472008
473117
473569
471513
468435
465588
463786
461926
461845
462303
464416
468172
474529
484677
498329
515388
534120
549755
560097
563521
560757
554959
548971
542808
535814
527848
519154
509617
498639
485769
471288
455705
439701
423680
408523
394738
382711
372524
363985
356786
350253
344069
338105
332707
328088
324448
322100
321098
320726
320212
319364
318415
317510
316809
316265
315748
314925
313404
311084
308654
305914
302537
298129
292621
286384
280014
273902
268244
262960
257938
253059
248213
243416
238720
234282
230279
226711
223399
220121
216681
213008
209049
204978
200956
197076
193384
189903
186647
183633
180882
178421
176263
174418
172952
171933
171333
171185
171170
171202
171341
171761
172680
174843
176588
177919
179113
180144
182252
184531
186419
188324
190308
193466
197434
200121
203542
206548
209323
211930
212766
212792
212758
212407
467809
464978
464119
461458
457842
453059
447426
442434
436951
432657
429840
428109
428091
429029
431436
435813
443605
456182
470998
486993
502941
516311
525129
527566
525154
521062
514149
505213
495127
484881
474486
463527
451562
438473
424494
410510
397003
384527
373572
364413
356997
351012
345952
341399
337178
333308
329963
327392
325748
325014
324814
324717
324498
324002
323212
322349
321521
320485
318986
316975
314510
311461
307635
303125
297646
291766
285911
280032
274537
269338
264522
260138
256124
252134
247851
243190
238464
234233
230520
227064
223562
219789
215695
211378
206995
202681
198545
194663
191067
187731
184624
181739
179104
176759
174780
173211
172004
171243
170668
170080
169963
169989
170118
170451
171209
172095
173450
175772
178636
181706
184999
188301
191032
193228
198332
202517
205479
207979
209481
209844
209709
209651
208737
208816
208616
465166
459083
456797
452585
447533
442625
435302
429859
424320
419205
415303
412829
411821
412208
413297
415541
420042
428578
438463
449743
461267
472666
483517
492326
497505
497418
494049
486921
476450
464849
453018
441324
429722
418029
406066
394251
383028
372755
363761
356302
350486
346111
342742
339934
337328
334715
332723
331505
330829
330646
330637
330602
330443
329933
329136
327655
326063
324325
322413
320230
317648
314664
311388
307555
302878
297290
291204
285098
279176
273443
267809
262686
258308
254453
250675
246652
242375
237879
233329
228983
224753
220543
216268
211916
207554
203263
199133
195211
191524
188080
184867
181865
179086
176568
174397
172679
171312
170191
169307
168336
167621
167613
167675
167911
168490
169784
171770
175060
178593
182526
186649
190569
194264
197330
199798
201674
202817
203101
203227
202899
202215
202299
203145
205303
206935
461924
454037
450303
445573
440459
435109
428478
422480
416800
411621
407394
404795
403461
403533
403997
405500
408832
414709
421457
428614
435503
442752
450535
458691
466093
470446
470029
466022
458663
448370
436625
424560
412678
401065
390070
379751
370203
361718
354523
348739
344354
341307
339234
337715
336638
335788
334707
333879
333498
333453
333477
333560
333727
333637
333374
332871
331831
329934
327444
324352
320805
316973
312872
308531
303947
299190
294172
289045
283838
278552
273065
267294
261485
256067
251235
246771
242467
238028
233466
228918
224488
220126
215808
211504
207233
203024
198978
195087
191374
187926
184776
181896
179176
176698
174506
172721
171328
170215
169423
168588
167858
167747
167786
167964
168443
169476
171369
174832
178397
182060
185691
188869
191257
192688
193841
195142
195756
195780
195985
196337
197463
200045
206998
210527
212460
462252
453427
448916
444047
438768
432897
426511
420324
414253
408864
404542
401158
399366
398786
398891
400015
402802
407195
412092
416836
421606
426638
432347
439215
445978
447823
447994
446150
440636
431812
421068
409528
397916
386823
376649
367416
359366
352660
347373
343489
340750
339089
338223
337774
337517
337469
337551
337671
337842
337986
338181
338090
337869
337469
336782
335618
333850
331609
328935
326012
322810
319361
315703
311782
307517
302550
296984
291578
286293
280997
275608
270211
264944
259477
253865
248412
243264
238263
233313
228369
223483
218802
214419
210234
206154
202235
198375
194697
191211
187996
184975
182080
179466
177140
174998
173221
171866
170815
170068
169472
168800
168490
168495
168556
168784
169402
170820
173791
176930
179052
179953
180184
180366
180621
181190
182432
185077
191406
198608
204366
208244
210838
211710
211314
206523
465695
456214
450374
444616
438614
432466
426093
419860
413610
408133
403441
399408
397485
396786
396728
397808
400253
403593
407318
411235
414984
418722
423375
429254
431901
432623
432491
430135
424512
416174
406157
395352
384517
374346
365164
357280
350851
345875
342011
339753
338654
338185
338046
338031
338342
338959
339707
340512
341361
341535
341495
341428
341254
340848
340029
338691
336808
334411
331576
328392
324894
321164
317319
313494
309761
306185
302621
298583
294041
289015
283301
277178
271020
264861
258783
252764
246784
240867
235012
229272
223793
218601
213577
208896
204608
200706
197056
193821
190678