/*--------------------------------*- C++ -*----------------------------------*\
| =========                 |                                                 |
| \\      /  F ield         | OpenFOAM: The Open Source CFD Toolbox           |
|  \\    /   O peration     | Version:  2112                                  |
|   \\  /    A nd           | Website:  www.openfoam.com                      |
|    \\/     M anipulation  |                                                 |
\*---------------------------------------------------------------------------*/
FoamFile
{
    version     2.0;
    format      ascii;
    arch        "LSB;label=32;scalar=64";
    class       volVectorField;
    location    "0.0018";
    object      U;
}
// * * * * * * * * * * * * * * * * * * * * * * * * * * * * * * * * * * * * * //

dimensions      [0 1 -1 0 0 0 0];

internalField   nonuniform List<vector> 
13875
(
(2204.29 109.723 1.81225e-18)
(2142.76 5.65788 -9.38315e-19)
(2170.11 -2.22288 -9.41111e-19)
(2168.28 -1.22753 0)
(2170.84 0.0733057 0)
(2169.61 -0.0616288 9.36406e-19)
(2169.59 -0.354683 -9.36807e-19)
(2169.81 -1.08226 -4.68386e-19)
(2169.59 -1.2502 4.68063e-19)
(2169.94 -0.0255655 0)
(2169.35 1.19672 -3.88112e-22)
(2169.55 0.973873 -3.86031e-22)
(2169.51 -0.0160012 0)
(2169.55 -0.21393 -4.6801e-19)
(2169.91 -1.26032 4.68277e-19)
(2170.03 -0.681628 0)
(2169.77 0.995703 9.36454e-19)
(2170.07 1.04925 -9.3666e-19)
(2169.76 0.463841 3.8553e-22)
(2169.55 0.0861961 -3.85513e-22)
(2170.96 -0.225591 -9.3574e-19)
(2167.94 0.425489 9.36913e-19)
(2171.01 2.53765 -1.87811e-18)
(2143.62 -8.65374 1.91653e-18)
(2210.28 -106.721 1.76384e-18)
(2253.44 91.882 -1.6321e-18)
(2228.59 -1.13913 1.88354e-18)
(2247.29 0.686111 8.71858e-19)
(2245.61 1.37492 -8.67186e-19)
(2248.5 -0.432605 4.16374e-22)
(2248.14 0.462289 5.20318e-22)
(2248.14 0.383776 4.16176e-22)
(2247.81 1.30683 -4.36425e-19)
(2245.72 1.59145 4.33316e-19)
(2245.73 0.133413 2.17346e-19)
(2245.46 -1.39836 -1.63295e-19)
(2247.74 -1.22262 -5.32559e-20)
(2247.95 -0.0217919 0)
(2247.93 0.0749487 -4.34767e-19)
(2247.91 1.42297 4.33264e-19)
(2246.14 0.847817 4.35274e-19)
(2245.87 -1.33693 -4.35369e-19)
(2247.88 -1.29288 5.19615e-22)
(2248.23 -0.435038 -5.2027e-22)
(2248.1 -0.507802 5.20232e-22)
(2248.7 0.665643 -8.71021e-19)
(2245.58 -0.719568 2.59992e-18)
(2247.21 -1.5785 -1.74269e-18)
(2228.92 3.62998 5.42834e-22)
(2256.47 -97.0525 -1.71324e-18)
(2252.52 78.0775 0)
(2236.51 -18.1819 0)
(2249.3 4.43619 0)
(2250.88 -1.9491 0)
(2254.11 -3.04665 -1.65514e-18)
(2253.89 -0.72276 1.64368e-18)
(2254.15 0.300388 1.64018e-18)
(2254.14 2.29245 -2.45876e-18)
(2253.51 1.89785 8.59748e-19)
(2254.28 0.279343 4.30464e-22)
(2253.19 -2.03553 -4.29498e-19)
(2254.1 -2.44078 4.10876e-19)
(2254.16 -0.326117 0)
(2254.28 0.0976663 0)
(2254.33 1.71987 4.07984e-22)
(2254.47 2.06835 0)
(2253.64 -1.48895 8.3845e-22)
(2254.29 -2.26642 4.09564e-19)
(2254.33 -0.398826 -4.09929e-19)
(2253.9 0.512195 0)
(2254.33 2.93882 0)
(2251.03 1.41326 0)
(2250.61 -4.76128 0)
(2237.93 13.8037 0)
(2257.05 -74.5355 0)
(2247.9 51.3587 0)
(2235.01 -28.4618 1.81477e-18)
(2249.07 7.21545 -3.41758e-18)
(2251.62 -4.74265 3.46529e-18)
(2253.75 -3.8424 -1.65717e-18)
(2253.74 -1.03507 0)
(2254.1 0.278585 -7.85738e-22)
(2254.12 2.27518 0)
(2254.15 1.62918 0)
(2254.86 0.282134 0)
(2254.06 -1.57239 0)
(2254.08 -2.4398 -7.84443e-22)
(2254.14 -0.421082 -5.13098e-20)
(2254.25 0.0929988 5.03119e-20)
(2254.33 1.62676 0)
(2254.78 1.76693 0)
(2254.48 -1.20819 8.38621e-22)
(2254.24 -2.19222 -8.10044e-19)
(2254.28 -0.387831 8.01108e-19)
(2253.78 0.782766 -1.62592e-18)
(2254.09 3.55282 1.63163e-18)
(2252.05 4.69678 1.74103e-18)
(2249.7 -8.80775 -1.72051e-18)
(2235.71 31.2589 0)
(2251.7 -58.5334 0)
(2245.01 39.3804 1.74886e-18)
(2235.59 -47.6058 0)
(2248.54 10.4608 0)
(2250.6 -8.19065 0)
(2254.12 -5.48316 0)
(2253.84 -1.81125 1.66125e-21)
(2254.02 0.122905 1.62561e-21)
(2254.08 2.16199 4.15326e-19)
(2254.18 1.03144 -4.30086e-19)
(2254.81 0.277173 1.99417e-19)
(2253.97 -1.3362 -2.14425e-19)
(2254 -2.43934 0)
(2254.05 -0.530029 0)
(2254.17 0.116158 -1.62494e-21)
(2254.24 1.54923 0)
(2254.68 1.66735 -1.5892e-21)
(2254.52 -0.829115 8.59856e-19)
(2254.22 -1.96163 -8.36571e-19)
(2254.19 -0.258763 1.65192e-18)
(2253.83 1.48936 -1.68952e-18)
(2254.31 4.97503 1.66476e-21)
(2250.8 6.91267 0)
(2249.93 -11.4194 0)
(2237.21 42.7496 0)
(2250.59 -35.2812 0)
(2241.46 6.90579 0)
(2231.44 -63.1508 9.12835e-19)
(2246.95 12.249 -8.48248e-19)
(2250.88 -11.6234 0)
(2252.94 -6.41119 8.61402e-19)
(2253.15 -2.31835 -4.31537e-19)
(2253.67 0.0193514 -2.16963e-21)
(2253.85 2.06259 -2.10672e-19)
(2254.02 0.73446 -4.30835e-19)
(2254.67 0.353892 1.57132e-19)
(2253.97 -0.795109 1.59139e-21)
(2253.87 -2.32444 2.63471e-19)
(2253.87 -0.710693 -2.1616e-19)
(2253.99 0.0212153 3.29482e-21)
(2254.11 1.35463 -4.30159e-19)
(2254.6 1.33145 4.26478e-19)
(2254.48 -0.59153 1.67368e-21)
(2253.95 -1.79431 -1.64802e-21)
(2253.85 -0.218983 -1.62671e-21)
(2253.21 1.83696 -8.50625e-19)
(2253.3 5.57139 8.52127e-19)
(2251.5 11.4057 0)
(2247.31 -15.03 0)
(2232.4 65.2605 -1.93337e-18)
(2246.11 -19.1023 -1.26424e-19)
(2254.48 3.0762 -4.95414e-20)
(2227.47 -78.9453 6.02353e-20)
(2242.72 12.1911 0)
(2248.66 -16.6125 -2.69266e-23)
(2252.54 -8.77176 -2.62386e-23)
(2252.83 -3.8313 0)
(2253.31 -0.606964 0)
(2253.6 1.53595 -8.38268e-19)
(2253.85 -0.0209418 8.51111e-19)
(2254.35 0.246959 0)
(2253.69 -0.586656 1.72258e-18)
(2253.54 -2.24831 2.91308e-21)
(2253.53 -0.77593 -1.72996e-18)
(2253.65 0.111519 -1.69049e-21)
(2253.78 1.27441 0)
(2254.19 1.17283 3.43046e-18)
(2254.23 -0.233636 4.76546e-21)
(2253.73 -1.12059 -6.74874e-18)
(2253.5 0.468659 3.35504e-18)
(2252.89 3.32787 2.59189e-23)
(2252.79 7.93217 0)
(2248.64 13.7677 3.53141e-18)
(2244.03 -12.3847 -3.31194e-18)
(2228.79 72.7876 3.81561e-18)
(2247.12 2.77894 -3.18293e-18)
(2217.4 -22.657 -3.16173e-19)
(2214.2 -86.9437 -7.50581e-18)
(2234.94 3.47756 8.73881e-22)
(2245.77 -23.3326 2.6157e-23)
(2248.72 -10.8716 -8.10949e-22)
(2250.44 -4.90773 0)
(2251.79 -1.00876 -3.3456e-18)
(2252.62 1.28664 3.37924e-18)
(2253.08 -0.174715 0)
(2253.62 0.520063 -8.23704e-22)
(2253.19 0.0251154 -8.38313e-22)
(2252.93 -1.91528 0)
(2252.82 -0.826093 0)
(2252.95 -0.0365587 -1.65845e-21)
(2253.13 1.01339 -8.44713e-22)
(2253.57 0.561366 2.61189e-23)
(2253.55 -0.215323 -8.53922e-22)
(2252.77 -0.825889 -2.57671e-23)
(2252.15 0.821654 -1.68884e-18)
(2250.78 4.26308 -1.36542e-20)
(2249.44 9.79576 1.69002e-18)
(2246.31 20.2157 8.88421e-22)
(2236.59 -4.52755 3.46077e-18)
(2216.33 81.4581 -3.53787e-18)
(2221.91 18.1111 2.50361e-23)
(2108.93 -37.9422 9.41777e-19)
(2167.26 -98.2322 0)
(2215.78 -20.4487 -8.31796e-22)
(2234.54 -33.3405 -8.65334e-19)
(2244.96 -20.0821 1.70903e-18)
(2248.15 -10.0639 -1.70529e-18)
(2249.95 -4.02693 7.75976e-21)
(2251.21 -0.356807 8.51157e-19)
(2251.67 -1.3663 0)
(2252.23 -0.0342435 -8.47654e-19)
(2251.91 0.221204 8.56496e-19)
(2251.56 -1.58577 0)
(2251.37 -0.826221 0)
(2251.49 -0.0191009 2.10117e-21)
(2251.73 0.775177 8.38255e-22)
(2252.13 0.393491 8.59091e-19)
(2252.17 0.50288 -8.48622e-19)
(2251.38 0.82914 0)
(2250.46 3.13219 8.53638e-19)
(2248.64 8.56856 -1.70602e-18)
(2245.96 17.0866 8.46502e-19)
(2236.13 29.6058 -8.40065e-22)
(2218.37 16.7931 0)
(2170.69 93.9107 0)
(2115.66 35.4574 0)
(1859.33 -143.862 -6.65604e-17)
(2119.9 -160.737 8.52447e-17)
(2194.26 -55.811 0)
(2224.93 -58.0664 -2.97182e-17)
(2236.72 -23.6392 3.09624e-17)
(2242.94 -11.7459 0)
(2246.02 -4.26449 -2.96164e-20)
(2247.79 -0.985066 -1.45753e-17)
(2248.57 -1.24444 1.46972e-17)
(2249.26 0.367211 -2.97074e-20)
(2249.04 0.850767 0)
(2248.69 -0.908301 -3.73292e-18)
(2248.38 -0.67112 5.58404e-18)
(2248.5 -0.30509 -1.90409e-18)
(2248.79 0.261452 -2.96289e-20)
(2249.06 -0.186916 0)
(2249.12 0.464161 0)
(2248.14 1.25287 -2.96059e-17)
(2246.7 3.98767 2.94445e-17)
(2243.64 10.2839 -3.01704e-17)
(2238.76 21.7812 2.95512e-17)
(2227.14 54.5112 3.21821e-17)
(2198.55 53.4678 -2.93134e-17)
(2127.3 162.734 -8.35695e-17)
(1880.54 139.254 -1.26578e-17)
(1640.05 -226.959 -9.16739e-17)
(2005.59 -312.552 1.37882e-16)
(2144.4 -115.92 0)
(2198.7 -65.5563 6.922e-17)
(2225.55 -32.2529 -7.21371e-17)
(2234.16 -17.5044 -3.34203e-17)
(2238.74 -8.09388 3.40595e-17)
(2240.81 -4.37237 -3.37236e-17)
(2242.05 -2.90849 3.40357e-17)
(2242.84 -0.639678 3.24126e-20)
(2242.68 0.530572 0)
(2242.45 -0.31484 -2.13417e-18)
(2242.01 -0.443172 2.16321e-18)
(2242.17 -0.440868 3.27569e-20)
(2242.43 -0.0927092 3.28303e-20)
(2242.49 0.111107 3.44629e-20)
(2242.56 1.39929 0)
(2241.38 3.61533 0)
(2239.61 7.18365 -6.87061e-17)
(2235.33 15.3031 6.72399e-17)
(2228.28 27.6101 -7.21236e-17)
(2206.24 58.7823 1.47462e-16)
(2160.41 99.7587 -7.06692e-17)
(2011.66 299.643 -3.89224e-20)
(1689.73 206.709 8.83381e-20)
(1236.18 -570.164 -1.15537e-16)
(1734.43 -572.864 1.18652e-16)
(1943.56 -162.159 2.45319e-16)
(2142.71 -123.442 -9.88846e-17)
(2192.08 -40.6081 0)
(2208.55 -15.2918 7.51635e-17)
(2219.35 -6.82162 -7.6929e-17)
(2223.03 -2.23246 0)
(2225.85 -1.53666 3.55175e-20)
(2226.89 0.852784 0)
(2226.86 1.60546 0)
(2227.11 0.514513 0)
(2226.42 -0.0455381 4.735e-18)
(2226.78 -0.821468 -4.71447e-18)
(2226.9 -0.629041 -3.99316e-20)
(2226.63 -0.66434 -3.51163e-20)
(2226.33 -0.0306063 0)
(2224.27 1.11317 0)
(2221.03 5.5999 0)
(2210.67 12.1745 -7.88783e-17)
(2198.37 35.6897 1.59903e-16)
(2161.13 104.033 -7.45921e-17)
(2034.08 162.91 -1.33232e-16)
(1746.25 589.611 1.01739e-16)
(1271.2 551.48 -6.01555e-20)
(1244.65 -646.789 1.7144e-16)
(1154.49 -985.19 0)
(1365.84 -673.151 0)
(1838.82 -198.952 -1.15605e-16)
(2086.56 -84.4774 1.24155e-16)
(2142.39 -58.7635 0)
(2158.2 -29.8064 1.43812e-20)
(2168.47 -18.3376 4.4014e-17)
(2174.85 -8.55472 -4.43615e-17)
(2177.19 -3.9212 0)
(2176.73 -1.21025 -1.09365e-17)
(2179.11 0.516841 1.09573e-17)
(2176.64 0.408609 -5.48891e-18)
(2178.66 -0.65957 5.48447e-18)
(2178.29 0.0527254 3.9382e-20)
(2177.56 2.07897 -4.41258e-17)
(2176.18 6.10323 8.83332e-17)
(2171.56 13.9237 9.41438e-19)
(2161.61 25.1999 -4.39245e-17)
(2145.93 53.4894 -9.62713e-17)
(2089.1 60.2963 9.04634e-17)
(1860.23 99.9611 8.75131e-20)
(1623.31 504.31 2.77849e-20)
(1104.07 1051.82 1.69668e-16)
(1304.03 616.04 7.55041e-18)
(1306.89 -655.384 0)
(1167.79 -988.947 0)
(1172.24 -761.428 0)
(1054.18 -864.091 0)
(1884.83 -292.228 0)
(1863.85 -21.934 1.31393e-16)
(1912.22 20.4283 -1.34249e-16)
(1960.5 22.2039 2.02288e-19)
(1977.96 7.90405 -1.18097e-20)
(1997.91 7.33686 2.85641e-17)
(1985.97 5.91205 -2.92136e-17)
(2006.58 1.73384 -3.8072e-19)
(1989.02 1.19097 -9.08607e-19)
(2002.47 -2.11452 1.08165e-18)
(1997.95 -0.957676 -2.87975e-17)
(1996.96 -3.9618 2.8651e-17)
(1989.16 -7.36162 1.79849e-19)
(1968.9 -15.8704 0)
(1916.44 -20.7751 0)
(1871.59 26.0387 0)
(1863.11 333.549 -2.139e-16)
(1087.23 819.834 -5.5544e-17)
(1240 701.681 1.68151e-16)
(1135.61 987.675 2.07295e-20)
(1347.02 622.03 2.09106e-20)
(1387.51 -641.259 0)
(1250.9 -878.415 4.18286e-20)
(1222.25 -739.157 0)
(1091.69 -827.211 -1.81223e-16)
(1186.08 -673.461 3.50288e-16)
(1009.86 -562.269 -2.30515e-16)
(1035.29 -491.315 0)
(1289.19 -262.494 -1.58397e-19)
(1202.66 -135.68 0)
(1344.34 -45.9819 0)
(1186.83 -50.1774 -2.97773e-17)
(1356.06 -3.99615 3.11371e-17)
(1202.99 1.04407 3.04271e-17)
(1310.73 -9.62842 -3.08389e-17)
(1269.64 12.8963 0)
(1304.26 40.4313 -1.22305e-16)
(1275.21 99.8619 1.20872e-16)
(1312.19 206.768 1.23419e-16)
(1126.79 427.086 -1.12975e-16)
(1048.36 579.833 0)
(1166.16 673.996 0)
(1089.37 808.808 -1.7389e-19)
(1264.75 694.085 -1.7402e-16)
(1255.85 872.404 3.7777e-16)
(1387.6 616.157 -1.7409e-16)
(1460.08 -630.896 -1.76509e-16)
(1349.33 -798.382 1.92254e-16)
(1284.24 -627.637 0)
(1143.08 -625.811 -2.41939e-16)
(1162.55 -529.579 -4.06844e-17)
(935.49 -400.839 3.50543e-16)
(454.519 -102.833 -2.51656e-16)
(430.699 -89.0435 1.35825e-16)
(192.72 -18.6861 0)
(278.679 -27.3327 0)
(51.7507 3.7302 -4.36863e-20)
(229.671 -21.543 1.59616e-19)
(52.2135 19.5367 0)
(173.316 -23.1582 0)
(127.794 9.65631 6.65153e-17)
(199.591 2.52046 -6.80258e-17)
(210.922 8.26372 -1.34024e-16)
(396.299 74.8822 2.752e-16)
(424.069 80.2404 -6.68948e-18)
(782.113 288.447 -1.34418e-16)
(1135.78 496.029 0)
(1134.95 641.367 0)
(1297.39 602.285 -1.89224e-16)
(1306.83 799.705 2.20178e-16)
(1442.96 618.048 -4.58185e-20)
(1565.82 -550.688 1.69932e-16)
(1482.93 -593.898 -9.73588e-20)
(1453.15 -422.021 1.08497e-16)
(1283.63 -324.809 -1.01714e-16)
(1223.53 -244.753 -5.08633e-20)
(966.393 -137.588 1.23264e-19)
(605.575 -54.1213 1.28641e-16)
(567.82 -134.539 -1.99716e-16)
(474.555 -75.257 6.75828e-17)
(492.456 -99.3235 0)
(457.897 -42.6546 -3.33008e-17)
(483.872 -40.4987 3.24851e-17)
(459.551 -9.28211 0)
(465.808 17.2237 5.86825e-20)
(458.645 32.1134 -3.32301e-17)
(465.487 59.4539 3.29015e-17)
(461.021 74.9085 0)
(545.831 106.994 -1.34595e-16)
(562.205 80.29 1.31568e-16)
(830.115 101.006 1.21571e-16)
(1171.05 192.393 -2.22901e-16)
(1239.16 304.027 1.22945e-16)
(1416.79 421.747 0)
(1461.05 631.594 1.78406e-16)
(1551.57 560.466 -1.09304e-17)
(1699.74 -394.957 -6.5513e-18)
(1595.07 -222.796 9.75064e-17)
(1438.74 -162.192 -4.49918e-17)
(1315.54 -44.2971 -5.71454e-17)
(1317.86 -100.519 7.92898e-17)
(1132.6 -158.584 -5.75139e-17)
(900.706 -171.832 6.2635e-17)
(883.937 -162.178 -6.34802e-17)
(826.107 -114.429 -1.47985e-19)
(808.22 -108.386 3.20937e-17)
(750.83 -49.4979 1.60311e-17)
(784.267 -40.4015 -3.84046e-20)
(732.07 -3.68486 -1.60784e-17)
(764.178 28.7817 -6.25092e-20)
(759.558 49.4966 -7.73646e-20)
(785.409 84.7296 -2.01288e-18)
(829.872 120.598 2.10395e-21)
(892.406 138.091 5.98191e-18)
(904.576 155.269 -3.90475e-18)
(1079.03 158.028 0)
(1262.11 103.935 1.32939e-17)
(1257.64 65.3884 -4.0449e-17)
(1433.25 133.816 4.95843e-17)
(1569.72 237.931 -6.95679e-17)
(1686 399.473 6.62792e-17)
(1799.97 -274.128 -1.05245e-19)
(1748.17 48.4026 -1.40358e-19)
(1607.46 103.422 1.6472e-19)
(1457.05 3.47995 -7.15285e-21)
(1457.32 -60.9301 -1.6994e-19)
(1381.16 -115.827 -1.95903e-19)
(1175.24 -146.463 -7.95958e-21)
(1050.37 -140.6 0)
(972.192 -86.3 0)
(943.38 -83.8284 6.44028e-17)
(887.184 -44.9202 -6.37036e-17)
(895.541 -32.1174 -8.22288e-21)
(857.92 -6.23305 8.23567e-21)
(878.514 22.8049 -8.28502e-18)
(879.641 42.1844 8.05883e-18)
(917.892 69.1213 0)
(959.371 88.7325 0)
(1016.5 122.766 -6.26373e-17)
(1111.65 165.693 6.07378e-17)
(1323.28 154.241 -1.90012e-19)
(1414.69 111.448 0)
(1411.21 18.1701 0)
(1582.5 -113.814 -1.69693e-19)
(1718.39 -61.6378 -1.45529e-19)
(1784.53 267.348 1.56666e-16)
(1777.06 181.492 -1.70185e-16)
(1704.43 392.318 -2.21087e-16)
(1679.41 356.156 1.41405e-16)
(1610.47 214.879 0)
(1593.79 59.2773 2.22541e-19)
(1543.21 -22.216 1.06561e-16)
(1394.53 -51.7088 -2.18562e-16)
(1227.84 -70.016 1.1482e-16)
(1102.73 -45.1984 -1.27244e-16)
(1051.2 -48.5456 1.26382e-16)
(995.775 -25.5559 3.20932e-17)
(989.929 -19.1368 -3.98348e-17)
(957.86 -1.6924 -8.05155e-18)
(973.132 19.9546 1.62318e-17)
(983.81 31.2524 0)
(1024.88 46.7324 0)
(1084.82 58.9584 1.25194e-16)
(1190.44 73.8975 -2.43204e-16)
(1348.24 84.8244 1.16339e-16)
(1513.28 58.9963 2.29007e-19)
(1575.75 -23.7503 1.96172e-16)
(1595.02 -204.257 -1.9713e-17)
(1676.93 -348.261 -4.84816e-16)
(1687.2 -404.198 5.51386e-16)
(1753.1 -251.311 -3.05853e-16)
(1500.66 546.366 1.11809e-19)
(1549.92 827.22 -1.97558e-16)
(1715.26 590.561 1.25951e-16)
(1704.12 375.823 0)
(1682.76 203.947 0)
(1640.56 111.209 0)
(1514.8 73.1172 0)
(1362.61 20.8798 0)
(1230.38 12.0827 -5.48811e-17)
(1161.73 -12.7 1.11136e-16)
(1095.97 -2.03438 -8.40099e-17)
(1084.92 -3.64898 3.14455e-17)
(1055.55 4.33831 -3.5202e-18)
(1072.49 13.8418 1.27634e-20)
(1086.37 15.4983 -5.60131e-17)
(1143.35 21.8923 5.68308e-17)
(1220.03 8.33437 0)
(1335.81 -12.0688 0)
(1488.76 -42.1591 -1.76059e-16)
(1626.71 -87.1594 1.911e-16)
(1676.51 -179.248 -1.72847e-19)
(1699.99 -372.857 7.09728e-20)
(1711.95 -594.102 -9.33614e-20)
(1571.23 -806.602 -7.10492e-20)
(1470.12 -634.755 0)
(1201.21 847.996 -1.82986e-16)
(1586.09 985.695 1.17033e-16)
(1771.13 744.909 -1.31927e-19)
(1757.07 527.422 1.52023e-16)
(1738.1 340.567 -1.3096e-16)
(1694.03 238.769 0)
(1593.08 185.928 -8.44815e-17)
(1459.47 109.555 8.27781e-17)
(1329.12 72.1093 -4.77439e-17)
(1256.42 34.4489 9.69054e-17)
(1194.48 25.5883 -4.82407e-17)
(1176.42 10.5028 1.80854e-19)
(1151.4 6.00916 0)
(1165.83 3.1862 2.45651e-17)
(1189.99 -8.04541 2.37708e-17)
(1247.7 -22.7726 -4.92613e-17)
(1328.6 -52.008 -9.16676e-17)
(1445.42 -103.549 9.08408e-17)
(1576.73 -164.998 -7.44336e-17)
(1685.79 -226.194 8.2545e-17)
(1737.49 -328.228 8.04479e-20)
(1757.8 -531.255 -7.9216e-20)
(1755 -753.72 0)
(1597.35 -966.462 6.53525e-20)
(1197.13 -856.621 0)
(1162.12 793.519 1.43675e-16)
(1626.84 942.106 -1.30413e-16)
(1796.2 817.767 5.13395e-20)
(1774.13 671.792 0)
(1761.31 492.346 0)
(1722.94 374.83 -7.49573e-21)
(1647.36 289.026 0)
(1539.2 189.989 8.00364e-20)
(1420.78 134.169 0)
(1347.91 74.4962 4.31592e-17)
(1283 52.9519 -6.43738e-17)
(1267.5 25.2661 3.21611e-17)
(1241.99 8.12121 -1.07815e-17)
(1259.51 -9.02663 0)
(1280.26 -34.3417 0)
(1342.2 -59.1913 4.15385e-17)
(1423.34 -112.024 -1.21006e-16)
(1525.86 -183.16 7.87519e-17)
(1633 -268.111 -6.49011e-17)
(1715.03 -369.183 7.19198e-17)
(1760.22 -478.553 0)
(1781.16 -652.611 0)
(1796.22 -810.508 0)
(1639.55 -906.648 -6.97188e-21)
(1155.1 -764.971 -1.65679e-16)
(1273.51 691.702 -2.76763e-20)
(1707.38 831.078 1.07547e-16)
(1782.82 856.803 -9.88348e-17)
(1780.91 739.198 0)
(1770.73 596.837 0)
(1745.89 475.421 7.73453e-21)
(1688.47 366.231 6.5883e-17)
(1592.34 255.77 -6.40322e-17)
(1486.5 188.5 3.31815e-20)
(1423.45 118.942 3.47105e-20)
(1365.78 79.0905 3.5269e-20)
(1346.83 38.1285 -1.01493e-20)
(1326.35 8.32528 -1.01447e-20)
(1340.25 -21.7572 1.91497e-17)
(1365.9 -59.0226 -1.94938e-17)
(1420.67 -103.907 4.48472e-20)
(1491.83 -165.653 4.30809e-20)
(1585.62 -247.013 0)
(1678.95 -344.315 -5.80153e-17)
(1742.24 -468.102 6.42118e-17)
(1771.79 -584.745 0)
(1790.48 -719.927 -1.01534e-16)
(1784.56 -844.539 1.04192e-16)
(1712.35 -822.97 6.43279e-21)
(1306.43 -694.844 -1.48849e-16)
(1370.99 593.954 3.39702e-20)
(1737.69 774.29 0)
(1768.42 857.712 0)
(1780.48 782.737 -5.45674e-17)
(1778.04 674.116 4.78633e-17)
(1769.7 551.338 0)
(1723.33 429.814 6.05081e-17)
(1640.51 309.479 -5.86765e-17)
(1549.15 230.418 3.41783e-17)
(1493.32 148.142 -3.39679e-17)
(1437.1 102.289 1.78564e-17)
(1424.37 48.8042 -1.76527e-17)
(1402.64 7.54338 0)
(1418.58 -35.4224 -1.75356e-17)
(1438.29 -85.4217 1.79362e-17)
(1492.78 -136.445 -3.66383e-20)
(1560.06 -213.84 -3.51671e-20)
(1637.93 -308.41 5.66936e-20)
(1717.1 -415.361 5.32615e-17)
(1766.54 -550.553 -5.84837e-17)
(1772.49 -666.884 -4.92737e-20)
(1785.36 -767.002 -4.88389e-20)
(1775.84 -842.862 0)
(1738.2 -753.76 -5.11782e-20)
(1368.72 -583.695 3.43299e-20)
(1402.07 523.237 1.25921e-22)
(1749.72 709.522 0)
(1764.25 846.284 8.51836e-23)
(1781.47 803.117 4.49122e-20)
(1784.84 720.123 -8.84985e-23)
(1789.97 601.745 -5.30137e-17)
(1751.5 479.214 4.91261e-17)
(1677.78 358.849 0)
(1598.87 272.429 -6.39578e-20)
(1553.27 183.958 -1.1391e-22)
(1506.57 122.623 -1.15562e-22)
(1491.24 59.0503 6.81578e-20)
(1473.45 7.78222 0)
(1486.19 -45.9888 0)
(1508.2 -105.522 -1.15183e-22)
(1553.58 -173.61 -1.13808e-22)
(1608.72 -255.281 -2.9428e-17)
(1677.49 -353.984 8.34601e-17)
(1745.69 -460.738 -5.54132e-17)
(1789.07 -593.013 0)
(1784.92 -707.842 -4.57655e-17)
(1787.11 -786.046 4.81294e-17)
(1772.61 -833.755 8.38332e-23)
(1757.39 -711.722 4.62271e-20)
(1427.5 -548.594 1.23479e-22)
(1444.26 456.169 6.97728e-18)
(1741.47 686.178 1.05833e-17)
(1760.67 825.029 9.06211e-17)
(1784.13 798.208 -4.34763e-17)
(1797.7 742.066 4.34122e-17)
(1810.71 634.376 -4.86135e-17)
(1774.37 517.633 4.57716e-17)
(1712.95 392.825 -2.73032e-17)
(1647.04 300.027 2.7028e-17)
(1608.17 203.118 1.19492e-22)
(1562.8 140.265 1.21743e-22)
(1555.85 67.8632 -1.21862e-22)
(1536.74 8.12969 7.38597e-18)
(1550.95 -56.3435 7.25276e-18)
(1565.76 -124.235 -1.5111e-17)
(1609.81 -193.587 1.19912e-22)
(1660.07 -284.717 5.43619e-17)
(1714.47 -390.912 -1.04844e-16)
(1771.09 -499.826 5.13049e-17)
(1810.44 -624.2 0)
(1795.2 -727.232 -8.95808e-23)
(1788.08 -781.926 8.30282e-23)
(1770.27 -812.986 -8.14869e-23)
(1750.35 -679.634 -1.00449e-16)
(1456.7 -471.778 1.12686e-16)
(1437.24 462.061 1.10213e-19)
(1715.69 658.787 0)
(1763.49 774.944 0)
(1790.9 783.576 4.12476e-20)
(1813.59 738.729 8.27516e-20)
(1828.71 644.074 0)
(1795.12 534.997 4.79486e-17)
(1741.17 417.683 -4.71207e-17)
(1686.52 324.521 4.83638e-20)
(1656.94 225.687 -5.00113e-20)
(1621.7 149.888 -1.38828e-17)
(1610.38 69.9766 1.37616e-17)
(1595.33 4.57846 3.54964e-18)
(1606.48 -66.2963 -3.47277e-18)
(1624.21 -141.859 1.35155e-17)
(1658.59 -224.607 -4.02488e-17)
(1698.02 -316.407 2.69678e-17)
(1745.02 -421.923 -5.12346e-20)
(1790.89 -526.6 4.233e-20)
(1827.63 -639.675 -4.21056e-17)
(1812.99 -729.565 1.05141e-18)
(1797.02 -771.054 -1.41376e-18)
(1774.24 -772.674 4.1539e-17)
(1728.83 -654.198 4.61302e-20)
(1454.49 -472.962 5.35514e-20)
(1410.88 463.902 1.07519e-16)
(1721.32 625.918 -9.25565e-17)
(1785.54 718.562 0)
(1801.84 759.818 -4.02424e-17)
(1826.21 729.797 7.3449e-20)
(1844.09 653.282 4.01181e-17)
(1813.02 559.18 4.46836e-17)
(1771.39 440.499 -4.419e-17)
(1727.16 343.766 -5.05618e-20)
(1703.04 239.498 -2.55947e-17)
(1666.9 165.289 1.22598e-17)
(1664.26 80.1962 1.26375e-17)
(1647.28 7.80544 -5.34809e-20)
(1660.57 -70.4198 0)
(1668.96 -150.228 0)
(1703.16 -230.484 0)
(1739.37 -327.816 5.07398e-20)
(1774.05 -436.545 1.06655e-20)
(1809.52 -539.879 -5.38858e-20)
(1842.49 -638.765 0)
(1824.24 -712.219 4.01454e-20)
(1807.07 -741.613 9.88742e-21)
(1788.55 -711.185 -5.07277e-20)
(1738.62 -624.875 -9.01738e-17)
(1446.18 -476.353 1.0444e-16)
(1402.33 450.478 5.13698e-17)
(1737.97 566.62 -8.56747e-17)
(1804.8 651.727 8.41659e-17)
(1815.65 722.282 -4.15734e-17)
(1842.7 710.59 -3.81951e-17)
(1857.65 640.606 3.85533e-17)
(1828.91 554.828 2.0952e-17)
(1794.19 447.756 -2.10927e-17)
(1759.27 356.365 1.1644e-17)
(1742.64 253.697 -2.33947e-17)
(1716.64 169.746 1.76313e-17)
(1709.14 79.6213 -7.42594e-18)
(1695.45 4.75924 1.48671e-18)
(1705.26 -76.0918 -4.40626e-20)
(1718.62 -160.528 2.32771e-17)
(1743.08 -251.939 -2.40013e-17)
(1770.38 -345.393 4.26929e-20)
(1800.81 -448.042 4.23505e-17)
(1826.48 -542.61 -1.97926e-18)
(1856.54 -630.656 -3.9604e-17)
(1842.52 -700.087 0)
(1818.79 -716.11 4.22732e-17)
(1807.42 -661.433 -3.81944e-17)
(1742.39 -581.087 -9.11009e-17)
(1425.84 -458.005 -3.7797e-18)
(1424.53 420.665 -5.07969e-17)
(1758.13 496.051 4.56667e-17)
(1824.6 602.383 1.94837e-20)
(1830.66 687.9 -5.54837e-20)
(1860.1 689.339 1.88593e-20)
(1869.7 627.652 3.76025e-17)
(1843.73 554.094 -1.86847e-17)
(1819.77 449.951 -2.01337e-17)
(1794.06 358.056 4.44052e-20)
(1781.69 253.411 -4.56505e-20)
(1752.65 174.121 2.07748e-20)
(1753.66 82.1067 -2.06621e-20)
(1738.38 2.83266 0)
(1750.45 -82.4764 4.98956e-21)
(1754 -168.711 -1.09751e-17)
(1779.99 -254.256 1.12325e-17)
(1804.97 -351.578 -2.11612e-17)
(1823.73 -455.257 8.72651e-19)
(1842.41 -544.188 1.97076e-17)
(1867.83 -617.782 -5.49298e-20)
(1857.58 -673.734 -3.80363e-17)
(1836.59 -667.408 3.65612e-17)
(1828.24 -586.574 0)
(1764.96 -512.519 -4.54974e-17)
(1424.59 -437.228 4.84951e-17)
(1441.38 382.084 0)
(1774.52 423.229 -3.77057e-17)
(1835.15 521.815 4.38828e-17)
(1847.36 633.142 1.80355e-20)
(1873.82 663.655 1.75792e-20)
(1883.62 610.812 -3.59323e-17)
(1859.79 541.448 3.76394e-17)
(1839.4 448.393 2.01023e-17)
(1819.74 364.935 6.53463e-19)
(1813.05 265.363 -2.05942e-17)
(1794.11 179.743 -2.17563e-20)
(1790.49 84.5809 2.43171e-20)
(1778.05 5.32545 0)
(1786.17 -80.7832 4.36803e-20)
(1795.32 -168.675 -2.16526e-20)
(1810.98 -261.599 1.02733e-17)
(1829 -349.952 -1.04605e-17)
(1847.23 -446.185 -2.02623e-20)
(1858.45 -528.122 -2.1058e-20)
(1881.95 -600.153 1.80029e-20)
(1870.74 -654.793 -3.72793e-17)
(1850.51 -633.777 -5.26738e-18)
(1841.64 -531.352 3.53896e-17)
(1783.36 -433.176 0)
(1460.98 -398.092 5.14774e-17)
(1462.02 355.344 -9.80516e-17)
(1787.83 363.483 4.27472e-17)
(1841.71 463.078 3.4028e-17)
(1862.67 594.912 -4.01634e-17)
(1888.61 629.008 0)
(1896.96 589.777 -2.17319e-21)
(1872.87 532.55 0)
(1862.45 443.729 -2.39153e-21)
(1849.85 358.313 -2.48086e-21)
(1846.62 258.566 0)
(1823.49 179.334 0)
(1828.29 85.1195 -2.56591e-21)
(1813.65 3.23385 0)
(1824.16 -85.2627 0)
(1823.82 -172.525 -9.87757e-18)
(1842.79 -257.921 9.96195e-18)
(1858.83 -349.657 -2.49001e-21)
(1868.31 -446.139 -1.88851e-17)
(1871.65 -523.188 1.81252e-17)
(1895.26 -577.671 0)
(1886.37 -614.035 3.69873e-17)
(1865.09 -576.451 -7.42905e-17)
(1850.68 -458.816 7.66403e-17)
(1798.78 -373.218 6.2561e-18)
(1478.95 -361.656 -4.72224e-17)
(1489.95 319.443 1.18141e-20)
(1800.28 312.533 -9.69059e-21)
(1827.96 404.256 0)
(1878.42 513.514 0)
(1899.41 587.308 0)
(1910.14 566.907 8.08839e-21)
(1888.31 508.997 0)
(1880.49 426.679 -8.62714e-21)
(1870.79 352.062 0)
(1870.21 259.059 -8.84753e-21)
(1857.42 177.647 0)
(1856.88 82.4673 -2.37771e-18)
(1846.15 2.43821 2.35611e-18)
(1852.79 -85.5244 0)
(1858.04 -172.449 9.34699e-18)
(1866.17 -260.708 -1.88624e-17)
(1877.67 -341.755 9.41551e-18)
(1889.82 -428.973 0)
(1889.22 -501.266 1.7657e-17)
(1908.96 -560.686 -1.66057e-17)
(1897.89 -582.809 3.63657e-17)
(1880.53 -524.922 -3.25784e-17)
(1847.26 -401.2 0)
(1811.12 -306.527 0)
(1500.74 -328.849 0)
(1495.67 300.057 -1.18195e-20)
(1800.1 287.173 9.57955e-21)
(1827.22 332.356 0)
(1891.83 444.114 0)
(1908.24 537.683 0)
(1922.65 539.107 -8.1529e-21)
(1902 497.673 0)
(1901.27 421.514 8.85898e-21)
(1897.52 345.265 0)
(1899.69 252.142 -9.04329e-18)
(1881.07 177.051 9.07924e-18)
(1889.69 84.4249 -8.45533e-21)
(1875.47 4.45713 9.31544e-21)
(1884.77 -83.5177 8.45693e-21)
(1880.52 -167.978 0)
(1894.45 -249.499 0)
(1903.2 -333.774 9.08796e-21)
(1907.64 -420.526 -1.78144e-17)
(1901.2 -488.054 1.69826e-17)
(1920.22 -526.848 0)
(1904.27 -527.028 8.08172e-21)
(1890.4 -450.656 0)
(1828.17 -336.845 0)
(1818.79 -274.322 0)
(1520.66 -292.382 0)
(1517.76 279.705 -4.47149e-17)
(1810.54 261.907 3.94073e-17)
(1837.11 280.925 0)
(1902.92 345.551 -1.71954e-20)
(1920.31 478.443 0)
(1932.6 506.954 -1.54423e-17)
(1918.41 469.635 3.3468e-17)
(1918.35 399.228 -1.72077e-17)
(1914.72 332.71 -8.649e-18)
(1916.71 248.534 8.66623e-18)
(1909.3 172.805 4.42712e-21)
(1911.02 80.8153 1.12785e-18)
(1902.07 3.16059 -1.08206e-18)
(1907.11 -83.2958 8.62195e-18)
(1909.58 -167.059 -8.66086e-18)
(1911.46 -248.168 0)
(1919.88 -320.636 -1.63696e-20)
(1929.3 -400.424 0)
(1920.57 -462.79 0)
(1931.1 -501.09 -1.72409e-17)
(1916.73 -480.104 1.51538e-17)
(1902.21 -352.953 0)
(1836.83 -281.481 3.79484e-17)
(1821.11 -248.919 1.83381e-18)
(1537.7 -271.416 -9.05446e-17)
(1536.83 260.701 4.50939e-17)
(1820.91 242.787 1.84541e-20)
(1849.4 223.701 3.2492e-17)
(1898.91 285.565 -2.37261e-17)
(1921.32 425.85 -1.86366e-17)
(1940 461.029 0)
(1929.37 448.751 8.40745e-21)
(1937.22 389.44 1.63326e-17)
(1937.85 322.68 -1.66917e-17)
(1943.14 235.353 0)
(1927.9 164.763 0)
(1938.91 77.3509 -2.59571e-20)
(1925 1.72176 3.2545e-20)
(1934.11 -82.5892 1.6938e-20)
(1926.85 -161.545 4.19655e-18)
(1937.01 -238.271 -4.14349e-18)
(1941.26 -315.146 8.92078e-21)
(1944.34 -390.977 1.69011e-17)
(1931.11 -442.662 -3.29985e-17)
(1940.25 -450.682 1.50057e-17)
(1920.65 -410.806 -1.57603e-20)
(1897.35 -283.242 0)
(1849.56 -227.998 1.78567e-20)
(1829.92 -237.574 3.8164e-17)
(1554.1 -258.963 -8.78907e-17)
(1552.56 238.976 -4.41312e-17)
(1834.47 224.434 -3.6468e-17)
(1852.58 197.552 3.59442e-17)
(1879.71 196.855 1.4965e-17)
(1932.51 339.972 -1.92971e-17)
(1944.31 414.81 0)
(1944.3 415.231 4.03885e-21)
(1953.29 364.256 -1.19306e-20)
(1953.63 308.536 8.03724e-18)
(1956.2 232.564 -1.6189e-17)
(1951.72 163.138 8.0877e-18)
(1955.22 76.7096 2.01018e-18)
(1947.01 4.2759 -1.87969e-18)
(1950.62 -77.394 1.87377e-18)
(1951.89 -155.639 -2.01563e-18)
(1949.78 -231.006 0)
(1956.75 -295.287 1.20008e-20)
(1964.34 -364.041 -3.83526e-21)
(1947.28 -409.649 -1.70869e-17)
(1941.78 -411.273 1.46878e-17)
(1931.49 -349.199 0)
(1882.31 -199.655 0)
(1854.96 -198.283 -4.33505e-21)
(1844 -219.164 -3.74391e-17)
(1577.25 -237.696 -1.39417e-18)
(1564.31 220.572 -2.07196e-17)
(1841.9 215.007 1.85788e-17)
(1865.79 181.08 4.31568e-21)
(1890.24 140.073 0)
(1931.16 256.264 1.44759e-17)
(1949.17 348.747 -1.75458e-17)
(1951.63 380.811 3.83521e-21)
(1968.17 349.846 3.89059e-21)
(1972.82 298.375 1.48076e-20)
(1980.27 219.087 -1.92892e-18)
(1966.54 153.474 9.92178e-19)
(1978.17 72.3449 1.90172e-18)
(1964.86 2.48519 -9.7597e-19)
(1973.44 -76.548 3.89182e-18)
(1965.74 -149.414 -3.90547e-18)
(1973.13 -220.934 0)
(1973.47 -289.651 1.09433e-20)
(1975.04 -350.614 -1.63882e-17)
(1954.99 -375.843 1.50516e-17)
(1948.06 -343.147 3.79089e-21)
(1927.01 -251.821 0)
(1890.63 -139.33 0)
(1869.36 -183.005 4.34218e-21)
(1852.26 -215.069 -3.66377e-17)
(1584.95 -222.545 4.12987e-17)
(1586.65 198.113 2.08152e-20)
(1855.19 193.092 0)
(1879.46 162.441 -8.12657e-21)
(1893.03 75.1764 -1.51029e-17)
(1922.37 179.387 1.83774e-17)
(1948.85 301.519 -1.42614e-17)
(1956.7 333.899 1.69476e-17)
(1980.44 314.635 -7.45056e-18)
(1985.74 276.384 7.81819e-18)
(1989.18 210.43 -3.77778e-18)
(1987.13 148.688 3.8021e-18)
(1991.15 68.7507 -1.85291e-18)
(1982.86 2.24749 2.1163e-18)
(1986 -73.6994 -2.5079e-19)
(1987.48 -144.671 3.79879e-18)
(1983.07 -213.478 -7.60462e-18)
(1986.9 -268.196 -4.08465e-18)
(1991.08 -317.055 7.42476e-18)
(1962.16 -328.395 1.51499e-20)
(1951.1 -294.781 -7.65023e-21)
(1921.28 -186.077 0)
(1894.45 -77.8988 0)
(1886.59 -163.098 0)
(1861.87 -194.594 -1.80707e-17)
(1600.12 -201.305 2.00461e-17)
(1592.14 180.643 -2.51035e-21)
(1861.63 176.825 0)
(1900.16 155.582 1.02892e-20)
(1901.69 53.5906 -8.11295e-21)
(1894.06 100.879 -7.66348e-21)
(1946.9 197.902 0)
(1958.45 281.905 -7.53017e-21)
(1988.29 291.568 7.21568e-18)
(2000.19 265.065 -7.72193e-18)
(2010.55 199.098 0)
(1998.79 140.919 1.76253e-21)
(2011.03 66.8767 0)
(1997.89 3.68973 0)
(2006.14 -69.3279 1.83064e-18)
(1997.46 -135.527 -1.84655e-18)
(2003.42 -198.526 -7.35996e-21)
(1998.18 -255.374 -1.78815e-21)
(1993.45 -293.516 7.43894e-21)
(1962.79 -281.076 -8.60379e-18)
(1952.1 -204.456 7.1421e-18)
(1889.96 -105.286 -1.74777e-17)
(1901.68 -55.6 3.26351e-17)