/*--------------------------------*- C++ -*----------------------------------*\
| =========                 |                                                 |
| \\      /  F ield         | OpenFOAM: The Open Source CFD Toolbox           |
|  \\    /   O peration     | Version:  2112                                  |
|   \\  /    A nd           | Website:  www.openfoam.com                      |
|    \\/     M anipulation  |                                                 |
\*---------------------------------------------------------------------------*/
FoamFile
{
    version     2.0;
    format      ascii;
    arch        "LSB;label=32;scalar=64";
    class       volScalarField;
    location    "0.00018";
    object      k;
}
// * * * * * * * * * * * * * * * * * * * * * * * * * * * * * * * * * * * * * //

dimensions      [0 2 -2 0 0 0 0];

internalField   nonuniform List<scalar> 
13875
(
810.963
2908.4
3129.37
3239.06
3277.03
3311.57
3328.07
3337.5
3341.69
3343.57
3344.27
3344.35
3344.72
3344.33
3344.06
3343.58
3341.71
3337.5
3328.23
3312.15
3277.35
3239.79
3132.36
2908.12
814.598
1013.07
2794.72
3363.48
3598.67
3710.05
3787.02
3827.64
3850.2
3861.09
3865.89
3867.84
3868.48
3868.94
3868.51
3867.66
3865.79
3861.1
3850.32
3828.21
3788.39
3711.14
3601.18
3369.45
2804.23
1024.69
1730.78
3733.62
4961.81
5489.17
5789.13
5980.75
6088.94
6148.59
6178.11
6191.11
6196.52
6198.54
6199.26
6198.6
6196.36
6190.88
6178.12
6148.69
6089.49
5981.93
5789.11
5490.19
4969.1
3739.05
1732.1
3450.78
6402.65
8759.4
9880.65
10589.9
11032.9
11291.3
11433.6
11505
11536.8
11550.2
11555.3
11556.7
11555.5
11550.2
11536.8
11505.4
11434.1
11291.9
11033.4
10587.5
9879.6
8763.21
6411.26
3463.42
6823.13
12242.6
16489.8
18740.4
20250
21182.1
21733.3
22036.7
22190.5
22260.4
22290.1
22301.6
22304.5
22302.1
22290.9
22261.3
22192.2
22039.1
21736.2
21184.8
20248.5
18748.7
16493.9
12319.2
6760
12629.2
22789.9
30355.6
34717.4
37597.5
39369
40413.7
40987.9
41281.6
41418.3
41476.9
41499.5
41505.1
41500.3
41478.3
41420.1
41284.8
40992.5
40418.1
39369.5
37589.9
34738
30392.2
23041.4
12575.3
23091
41514
54137
62174.5
67121.7
70192.3
71981.9
72963
73467
73705.8
73808.9
73848.7
73858.2
73847.7
73804.7
73695.1
73446.2
72924.5
71908.6
70050.6
66865.4
61762.4
53384.2
40392.1
22219.1
37653.7
71941.6
94978
110179
118506
123400
126106
127550
128289
128643
128797
128856
128871
128857
128796
128639
128277
127524
126043
123249
118230
109734
94471.5
71184.2
37348.4
62017.6
120210
154974
177180
189164
195773
199317
201164
202088
202513
202701
202777
202793
202778
202711
202539
202111
201181
199310
195710
189028
177083
154996
121870
62649.8
114104
185619
207780
225400
237549
244881
248942
251205
252401
252995
253273
253397
253433
253409
253301
253039
252456
251256
248973
244876
237492
225423
208078
186897
113874
137342
232345
253149
257931
262476
266438
269258
271157
272314
272919
273208
273339
273377
273342
273210
272918
272317
271163
269312
266568
262764
258632
254604
234502
138602
138907
249564
274615
270031
268325
269391
271063
272483
273500
274073
274366
274503
274543
274504
274367
274071
273492
272481
271101
269541
268722
270980
276488
251452
139130
127007
244209
278501
268077
262110
261291
262180
263248
264094
264593
264854
264978
265014
264977
264849
264581
264074
263241
262247
261576
262862
269590
280993
246024
126798
113539
230324
269639
258199
250171
248186
248446
249147
249771
250158
250365
250461
250485
250451
250339
250108
249693
249052
248364
248191
250387
258232
268285
224149
111585
100599
203927
246285
240673
234962
232941
232899
233376
233847
234160
234335
234425
234453
234439
234365
234198
233896
233449
232992
233003
234908
240448
245640
207148
101933
88310.6
185224
216624
215605
213558
212709
212827
213269
213683
213971
214147
214247
214294
214309
214267
214140
213903
213545
213127
212904
213410
215114
216077
185773
90526.6
60128.2
114784
139934
140205
136033
134354
134045
134123
134265
134380
134462
134532
134581
134584
134563
134541
134502
134425
134370
134600
135886
139119
137678
113389
60675.3
28534.3
41091.8
47269.7
41167.5
36862.8
34971.6
34213.9
33924.1
33826
33792.3
33786.3
33810.4
33837.5
33827.4
33813.2
33846
33920.9
34050
34343.9
35067.3
36809.2
40646.3
46109.3
39511.5
28323
4215.65
2902.45
2497
1880.89
1648.31
1559.32
1523.92
1509.76
1504.33
1502.09
1501.32
1501.83
1502.46
1501.75
1500.82
1501.83
1504.89
1510.75
1524.44
1558.09
1641.17
1851.04
2391.76
2667.62
3976.25
684.951
902.182
944.262
951.22
952.62
953.527
954.559
955.406
955.9
956.118
956.195
956.221
956.228
956.22
956.193
956.117
955.903
955.42
954.596
953.598
952.731
951.257
943.936
900.888
680.198
679.793
897.777
936.913
945.373
948.341
950.467
952.189
953.329
953.918
954.157
954.235
954.255
954.259
954.255
954.232
954.15
953.897
953.281
952.105
950.364
948.274
945.308
936.561
896.331
675.924
699.061
903.309
937.442
945.02
948.121
950.529
952.404
953.521
954.018
954.187
954.235
954.246
954.248
954.245
954.233
954.181
953.995
953.46
952.283
950.353
947.914
944.766
937.119
902.654
698.288
716.187
908.545
938.657
945.773
948.984
951.436
953.033
953.827
954.13
954.22
954.243
954.247
954.248
954.247
954.242
954.22
954.127
953.819
953.014
951.395
948.893
945.647
938.648
909.008
717.893
731.669
914.017
940.724
947.415
950.323
952.381
953.537
954.033
954.195
954.237
954.246
954.248
954.248
954.248
954.246
954.237
954.195
954.034
953.54
952.388
950.335
947.437
940.726
913.988
731.208
740.861
917.972
942.638
948.813
951.329
952.991
953.821
954.134
954.223
954.244
954.248
954.248
954.248
954.248
954.248
954.243
954.223
954.133
953.817
952.983
951.319
948.803
942.609
917.802
740.533
750.194
921.276
944.107
949.749
951.978
953.351
953.972
954.182
954.235
954.246
954.248
954.248
954.248
954.248
954.248
954.246
954.235
954.183
953.977
953.363
951.994
949.77
944.14
921.556
751.129
759.447
924.524
945.373
950.495
952.475
953.607
954.069
954.209
954.241
954.247
954.248
954.248
954.248
954.248
954.248
954.247
954.241
954.208
954.066
953.598
952.461
950.464
945.35
924.269
758.279
765.937
926.973
946.427
951.068
952.835
953.773
954.126
954.224
954.244
954.248
954.248
954.248
954.248
954.248
954.248
954.248
954.244
954.223
954.123
953.764
952.817
951.041
946.383
926.86
766.179
772.595
929.07
947.303
951.527
953.098
953.885
954.161
954.232
954.246
954.248
954.248
954.248
954.248
954.248
954.248
954.248
954.246
954.233
954.165
953.899
953.128
951.582
947.379
929.49
773.762
780.234
931.59
948.211
952.014
953.357
953.987
954.19
954.238
954.247
954.248
954.248
954.248
954.248
954.248
954.248
954.248
954.247
954.238
954.19
953.984
953.351
951.996
948.198
931.342
778.935
784.983
933.452
948.985
952.39
953.546
954.055
954.208
954.242
954.247
954.248
954.248
954.248
954.248
954.248
954.248
954.248
954.247
954.241
954.207
954.051
953.535
952.372
948.949
933.366
785.385
789.389
934.778
949.557
952.649
953.667
954.096
954.218
954.244
954.248
954.248
954.248
954.248
954.248
954.248
954.248
954.248
954.248
954.244
954.219
954.101
953.681
952.682
949.607
935.056
790.047
794.742
936.406
950.112
952.911
953.782
954.133
954.227
954.245
954.248
954.248
954.248
954.248
954.248
954.248
954.248
954.248
954.248
954.245
954.227
954.132
953.781
952.906
950.124
936.293
794.086
798.172
937.634
950.585
953.109
953.868
954.159
954.232
954.246
954.248
954.248
954.248
954.248
954.248
954.248
954.248
954.248
954.248
954.246
954.232
954.159
953.868
953.113
950.583
937.63
798.509
801.26
938.449
950.939
953.247
953.924
954.174
954.236
954.247
954.248
954.248
954.248
954.248
954.248
954.248
954.248
954.248
954.248
954.247
954.236
954.177
953.933
953.271
950.98
938.685
801.674
805.172
939.565
951.286
953.396
953.98
954.19
954.239
954.247
954.248
954.248
954.248
954.248
954.248
954.248
954.248
954.248
954.248
954.247
954.239
954.189
953.977
953.384
951.286
939.417
804.592
807.726
940.414
951.604
953.511
954.025
954.202
954.241
954.247
954.248
954.248
954.248
954.248
954.248
954.248
954.248
954.248
954.248
954.247
954.241
954.201
954.023
953.509
951.583
940.375
807.942
810.017
940.964
951.845
953.595
954.055
954.209
954.242
954.248
954.248
954.248
954.248
954.248
954.248
954.248
954.248
954.248
954.248
954.248
954.242
954.21
954.059
953.609
951.867
941.146
810.308
812.866
941.77
952.084
953.692
954.087
954.216
954.244
954.248
954.248
954.248
954.248
954.248
954.248
954.248
954.248
954.248
954.248
954.248
954.243
954.216
954.085
953.68
952.081
941.631
812.42
814.762
942.382
952.311
953.765
954.113
954.222
954.245
954.248
954.248
954.248
954.248
954.248
954.248
954.248
954.248
954.248
954.248
954.248
954.244
954.222
954.111
953.764
952.293
942.34
814.912
816.434
942.755
952.483
953.819
954.13
954.226
954.245
954.248
954.248
954.248
954.248
954.248
954.248
954.248
954.248
954.248
954.248
954.248
954.245
954.227
954.133
953.83
952.5
942.915
816.652
818.473
943.348
952.656
953.885
954.15
954.23
954.246
954.248
954.248
954.248
954.248
954.248
954.248
954.248
954.248
954.248
954.248
954.248
954.246
954.23
954.149
953.876
952.656
943.237
818.172
819.839
943.799
952.824
953.934
954.166
954.234
954.246
954.248
954.248
954.248
954.248
954.248
954.248
954.248
954.248
954.248
954.248
954.248
954.246
954.233
954.165
953.934
952.809
943.755
819.93
821.021
944.047
952.951
953.972
954.177
954.236
954.247
954.248
954.248
954.248
954.248
954.248
954.248
954.248
954.248
954.248
954.248
954.248
954.247
954.236
954.179
953.979
952.964
944.183
821.169
822.413
944.482
953.079
954.018
954.189
954.238
954.247
954.248
954.248
954.248
954.248
954.248
954.248
954.248
954.248
954.248
954.248
954.248
954.247
954.238
954.189
954.013
953.082
944.407
822.242
823.343
944.815
953.206
954.053
954.2
954.24
954.247
954.248
954.248
954.248
954.248
954.248
954.248
954.248
954.248
954.248
954.248
954.248
954.247
954.24
954.199
954.052
953.194
944.767
823.378
824.127
944.963
953.302
954.08
954.208
954.241
954.247
954.248
954.248
954.248
954.248
954.248
954.248
954.248
954.248
954.248
954.248
954.248
954.247
954.242
954.209
954.084
953.306
945.07
824.198
824.959
945.199
953.384
954.109
954.215
954.243
954.248
954.248
954.248
954.248
954.248
954.248
954.248
954.248
954.248
954.248
954.248
954.248
954.248
954.243
954.215
954.103
953.38
945.147
824.865
825.309
945.23
953.404
954.104
954.217
954.243
954.248
954.248
954.248
954.248
954.248
954.248
954.248
954.248
954.248
954.248
954.248
954.248
954.248
954.243
954.215
954.099
953.391
945.173
825.324
827.894
945.236
953.373
954.059
954.208
954.241
954.248
954.248
954.248
954.248
954.248
954.248
954.248
954.248
954.248
954.248
954.248
954.248
954.248
954.241
954.207
954.057
953.37
945.256
827.902
922.257
959.439
959.797
959.323
959.168
959.086
959.014
958.944
958.876
958.809
958.744
958.68
958.618
958.557
958.497
958.439
958.382
958.327
958.272
958.219
958.167
958.116
958.066
958.017
957.969
957.922
957.875
957.821
957.181
922.53
909.346
954.999
955.084
954.603
954.511
954.494
954.486
954.479
954.472
954.465
954.459
954.453
954.447
954.441
954.436
954.43
954.425
954.421
954.416
954.411
954.407
954.403
954.399
954.395
954.391
954.387
954.383
954.369
953.675
915.547
912.884
954.79
954.796
954.335
954.265
954.258
954.257
954.257
954.256
954.256
954.256
954.255
954.255
954.255
954.255
954.254
954.254
954.254
954.254
954.253
954.253
954.253
954.253
954.253
954.253
954.252
954.252
954.243
953.548
914.607
915.102
954.636
954.732
954.31
954.254
954.249
954.249
954.249
954.249
954.249
954.249
954.249
954.249
954.249
954.249
954.249
954.249
954.249
954.249
954.249
954.249
954.249
954.249
954.249
954.249
954.248
954.248
954.239
953.532
913.953
914.416
954.464
954.68
954.304
954.253
954.249
954.248
954.248
954.248
954.248
954.248
954.248
954.248
954.248
954.248
954.248
954.248
954.248
954.248
954.248
954.248
954.248
954.248
954.248
954.248
954.248
954.248
954.239
953.514
913.358
913.623
954.392
954.653
954.3
954.253
954.249
954.248
954.248
954.248
954.248
954.248
954.248
954.248
954.248
954.248
954.248
954.248
954.248
954.248
954.248
954.248
954.248
954.248
954.248
954.248
954.248
954.248
954.239
953.496
912.784
913.176
954.327
954.626
954.296
954.252
954.249
954.248
954.248
954.248
954.248
954.248
954.248
954.248
954.248
954.248
954.248
954.248
954.248
954.248
954.248
954.248
954.248
954.248
954.248
954.248
954.248
954.248
954.239
953.478
912.233
912.937
954.251
954.595
954.29
954.252
954.249
954.248
954.248
954.248
954.248
954.248
954.248
954.248
954.248
954.248
954.248
954.248
954.248
954.248
954.248
954.248
954.248
954.248
954.248
954.248
954.248
954.248
954.238
953.462
911.717
912.684
954.173
954.56
954.285
954.251
954.249
954.248
954.248
954.248
954.248
954.248
954.248
954.248
954.248
954.248
954.248
954.248
954.248
954.248
954.248
954.248
954.248
954.248
954.248
954.248
954.248
954.248
954.238
953.447
911.242
912.363
954.098
954.53
954.281
954.251
954.249
954.248
954.248
954.248
954.248
954.248
954.248
954.248
954.248
954.248
954.248
954.248
954.248
954.248
954.248
954.248
954.248
954.248
954.248
954.248
954.248
954.248
954.238
953.433
910.809
911.987
954.029
954.503
954.277
954.251
954.249
954.248
954.248
954.248
954.248
954.248
954.248
954.248
954.248
954.248
954.248
954.248
954.248
954.248
954.248
954.248
954.248
954.248
954.248
954.248
954.248
954.248
954.238
953.42
910.412
911.595
953.966
954.48
954.274
954.25
954.249
954.248
954.248
954.248
954.248
954.248
954.248
954.248
954.248
954.248
954.248
954.248
954.248
954.248
954.248
954.248
954.248
954.248
954.248
954.248
954.248
954.248
954.237
953.408
910.048
911.223
953.908
954.459
954.271
954.25
954.249
954.248
954.248
954.248
954.248
954.248
954.248
954.248
954.248
954.248
954.248
954.248
954.248
954.248
954.248
954.248
954.248
954.248
954.248
954.248
954.248
954.248
954.237
953.397
909.713
910.841
953.852
954.438
954.269
954.25
954.248
954.248
954.248
954.248
954.248
954.248
954.248
954.248
954.248
954.248
954.248
954.248
954.248
954.248
954.248
954.248
954.248
954.248
954.248
954.248
954.248
954.248
954.237
953.387
909.406
910.532
953.8
954.419
954.267
954.25
954.248
954.248
954.248
954.248
954.248
954.248
954.248
954.248
954.248
954.248
954.248
954.248
954.248
954.248
954.248
954.248
954.248
954.248
954.248
954.248
954.248
954.248
954.237
953.378
909.127
910.183
953.747
954.4
954.264
954.25
954.248
954.248
954.248
954.248
954.248
954.248
954.248
954.248
954.248
954.248
954.248
954.248
954.248
954.248
954.248
954.248
954.248
954.248
954.248
954.248
954.248
954.248
954.237
953.37
908.876
909.871
953.698
954.381
954.262
954.249
954.248
954.248
954.248
954.248
954.248
954.248
954.248
954.248
954.248
954.248
954.248
954.248
954.248
954.248
954.248
954.248
954.248
954.248
954.248
954.248
954.248
954.248
954.236
953.362
908.649
909.592
953.652
954.364
954.26
954.249
954.248
954.248
954.248
954.248
954.248
954.248
954.248
954.248
954.248
954.248
954.248
954.248
954.248
954.248
954.248
954.248
954.248
954.248
954.248
954.248
954.248
954.248
954.236
953.356
908.45
909.301
953.607
954.347
954.259
954.249
954.248
954.248
954.248
954.248
954.248
954.248
954.248
954.248
954.248
954.248
954.248
954.248
954.248
954.248
954.248
954.248
954.248
954.248
954.248
954.248
954.248
954.248
954.236
953.35
908.274
909.052
953.566
954.331
954.257
954.249
954.248
954.248
954.248
954.248
954.248
954.248
954.248
954.248
954.248
954.248
954.248
954.248
954.248
954.248
954.248
954.248
954.248
954.248
954.248
954.248
954.248
954.248
954.236
953.345
908.122
908.82
953.526
954.316
954.255
954.249
954.248
954.248
954.248
954.248
954.248
954.248
954.248
954.248
954.248
954.248
954.248
954.248
954.248
954.248
954.248
954.248
954.248
954.248
954.248
954.248
954.248
954.248
954.236
953.341
907.993
908.591
953.488
954.301
954.254
954.249
954.248
954.248
954.248
954.248
954.248
954.248
954.248
954.248
954.248
954.248
954.248
954.248
954.248
954.248
954.248
954.248
954.248
954.248
954.248
954.248
954.248
954.248
954.236
953.337
907.885
908.391
953.439
954.286
954.252
954.249
954.248
954.248
954.248
954.248
954.248
954.248
954.248
954.248
954.248
954.248
954.248
954.248
954.248
954.248
954.248
954.248
954.248
954.248
954.248
954.248
954.248
954.248
954.236
953.335
907.798
908.122
953.333
954.262
954.25
954.249
954.248
954.248
954.248
954.248
954.248
954.248
954.248
954.248
954.248
954.248
954.248
954.248
954.248
954.248
954.248
954.248
954.248
954.248
954.248
954.248
954.248
954.248
954.236
953.333
907.731
908.579
953.209
954.221
954.244
954.248
954.248
954.248
954.248
954.248
954.248
954.248
954.248
954.248
954.248
954.248
954.248
954.248
954.248
954.248
954.248
954.248
954.248
954.248
954.248
954.248
954.248
954.248
954.236
953.332
907.682
922.53
957.181
957.821
957.876
957.922
957.969
958.017
958.066
958.116
958.167
958.22
958.273
958.327
958.383
958.44
958.499
958.558
958.619
958.681
958.745
958.811
958.878
958.946
959.016
959.089
959.171
959.326
959.8
959.441
922.247
915.546
953.675
954.369
954.383
954.387
954.391
954.395
954.399
954.403
954.407
954.411
954.416
954.421
954.425
954.43
954.436
954.441
954.447
954.453
954.459
954.465
954.472
954.479
954.486
954.494
954.511
954.603
955.084
954.998
909.356
914.606
953.548
954.243
954.252
954.252
954.253
954.253
954.253
954.253
954.253
954.253
954.254
954.254
954.254
954.254
954.255
954.255
954.255
954.255
954.256
954.256
954.256
954.257
954.257
954.258
954.265
954.335
954.796
954.788
912.866
913.952
953.532
954.239
954.248
954.248
954.249
954.249
954.249
954.249
954.249
954.249
954.249
954.249
954.249
954.249
954.249
954.249
954.249
954.249
954.249
954.249
954.249
954.249
954.249
954.249
954.254
954.31
954.732
954.637
915.125
913.358
953.514
954.239
954.248
954.248
954.248
954.248
954.248
954.248
954.248
954.248
954.248
954.248
954.248
954.248
954.248
954.248
954.248
954.248
954.248
954.248
954.248
954.248
954.248
954.249
954.253
954.304
954.68
954.464
914.425
912.783
953.496
954.239
954.248
954.248
954.248
954.248
954.248
954.248
954.248
954.248
954.248
954.248
954.248
954.248
954.248
954.248
954.248
954.248
954.248
954.248
954.248
954.248
954.248
954.249
954.253
954.3
954.653
954.391
913.583
912.233
953.478
954.239
954.248
954.248
954.248
954.248
954.248
954.248
954.248
954.248
954.248
954.248
954.248
954.248
954.248
954.248
954.248
954.248
954.248
954.248
954.248
954.248
954.248
954.249
954.252
954.296
954.626
954.329
913.227
911.717
953.462
954.238
954.248
954.248
954.248
954.248
954.248
954.248
954.248
954.248
954.248
954.248
954.248
954.248
954.248
954.248
954.248
954.248
954.248
954.248
954.248
954.248
954.248
954.249
954.252
954.29
954.594
954.249
912.909
911.242
953.447
954.238
954.248
954.248
954.248
954.248
954.248
954.248
954.248
954.248
954.248
954.248
954.248
954.248
954.248
954.248
954.248
954.248
954.248
954.248
954.248
954.248
954.248
954.249
954.251
954.285
954.561
954.174
912.688
910.809
953.433
954.238
954.248
954.248
954.248
954.248
954.248
954.248
954.248
954.248
954.248
954.248
954.248
954.248
954.248
954.248
954.248
954.248
954.248
954.248
954.248
954.248
954.248
954.249
954.251
954.281
954.53
954.099
912.377
910.412
953.42
954.238
954.248
954.248
954.248
954.248
954.248
954.248
954.248
954.248
954.248
954.248
954.248
954.248
954.248
954.248
954.248
954.248
954.248
954.248
954.248
954.248
954.248
954.249
954.251
954.277
954.503
954.027
911.959
910.048
953.408
954.237
954.248
954.248
954.248
954.248
954.248
954.248
954.248
954.248
954.248
954.248
954.248
954.248
954.248
954.248
954.248
954.248
954.248
954.248
954.248
954.248
954.248
954.249
954.25
954.274
954.48
953.968
911.618
909.713
953.397
954.237
954.248
954.248
954.248
954.248
954.248
954.248
954.248
954.248
954.248
954.248
954.248
954.248
954.248
954.248
954.248
954.248
954.248
954.248
954.248
954.248
954.248
954.249
954.25
954.271
954.459
953.908
911.218
909.406
953.387
954.237
954.248
954.248
954.248
954.248
954.248
954.248
954.248
954.248
954.248
954.248
954.248
954.248
954.248
954.248
954.248
954.248
954.248
954.248
954.248
954.248
954.248
954.248
954.25
954.269
954.438
953.851
910.838
909.127
953.378
954.237
954.248
954.248
954.248
954.248
954.248
954.248
954.248
954.248
954.248
954.248
954.248
954.248
954.248
954.248
954.248
954.248
954.248
954.248
954.248
954.248
954.248
954.248
954.25
954.267
954.419
953.801
910.53
908.876
953.37
954.237
954.248
954.248
954.248
954.248
954.248
954.248
954.248
954.248
954.248
954.248
954.248
954.248
954.248
954.248
954.248
954.248
954.248
954.248
954.248
954.248
954.248
954.248
954.25
954.264
954.4
953.748
910.192
908.65
953.362
954.236
954.248
954.248
954.248
954.248
954.248
954.248
954.248
954.248
954.248
954.248
954.248
954.248
954.248
954.248
954.248
954.248
954.248
954.248
954.248
954.248
954.248
954.248
954.249
954.262
954.381
953.697
909.864
908.449
953.356
954.236
954.248
954.248
954.248
954.248
954.248
954.248
954.248
954.248
954.248
954.248
954.248
954.248
954.248
954.248
954.248
954.248
954.248
954.248
954.248
954.248
954.248
954.248
954.249
954.26
954.364
953.653
909.59
908.274
953.35
954.236
954.248
954.248
954.248
954.248
954.248
954.248
954.248
954.248
954.248
954.248
954.248
954.248
954.248
954.248
954.248
954.248
954.248
954.248
954.248
954.248
954.248
954.248
954.249
954.258
954.347
953.607
909.311
908.122
953.345
954.236
954.248
954.248
954.248
954.248
954.248
954.248
954.248
954.248
954.248
954.248
954.248
954.248
954.248
954.248
954.248
954.248
954.248
954.248
954.248
954.248
954.248
954.248
954.249
954.257
954.331
953.565
909.043
907.993
953.341
954.236
954.248
954.248
954.248
954.248
954.248
954.248
954.248
954.248
954.248
954.248
954.248
954.248
954.248
954.248
954.248
954.248
954.248
954.248
954.248
954.248
954.248
954.248
954.249
954.255
954.316
953.527
908.818
907.886
953.337
954.236
954.248
954.248
954.248
954.248
954.248
954.248
954.248
954.248
954.248
954.248
954.248
954.248
954.248
954.248
954.248
954.248
954.248
954.248
954.248
954.248
954.248
954.248
954.249
954.254
954.301
953.488
908.601
907.798
953.335
954.236
954.248
954.248
954.248
954.248
954.248
954.248
954.248
954.248
954.248
954.248
954.248
954.248
954.248
954.248
954.248
954.248
954.248
954.248
954.248
954.248
954.248
954.248
954.249
954.252
954.286
953.438
908.382
907.731
953.333
954.236
954.248
954.248
954.248
954.248
954.248
954.248
954.248
954.248
954.248
954.248
954.248
954.248
954.248
954.248
954.248
954.248
954.248
954.248
954.248
954.248
954.248
954.248
954.249
954.25
954.262
953.334
908.124
907.682
953.332
954.236
954.248
954.248
954.248
954.248
954.248
954.248
954.248
954.248
954.248
954.248
954.248
954.248
954.248
954.248
954.248
954.248
954.248
954.248
954.248
954.248
954.248
954.248
954.248
954.244
954.221
953.209
908.58
889.162
889.339
889.517
889.694
889.871
890.048
890.223
890.399
890.573
890.748
890.921
891.094
891.267
891.439
891.61
891.781
891.952
892.121
892.291
892.46
892.628
892.796
892.963
893.13
893.296
893.461
893.627
893.791
893.955
894.119
894.282
894.445
894.607
894.769
894.93
895.091
895.251
895.411
895.57
895.729
895.887
896.045
896.202
896.359
896.516
896.672
896.827
896.982
897.137
897.291
897.444
897.598
897.75
897.903
898.055
898.206
898.357
898.507
898.657
898.807
898.956
899.105
899.253
899.401
899.549
899.696
899.842
899.989
900.134
900.28
900.425
900.569
900.713
900.857
901
901.143
901.286
901.428
901.569
901.71
901.851
901.992
902.132
902.271
902.411
902.549
902.688
902.826
902.964
903.101
903.238
903.374
903.511
903.646
903.782
903.917
904.051
904.186
904.32
904.453
904.586
904.719
904.852
904.984
905.115
905.247
905.378
905.508
905.638
905.768
905.898
906.027
906.156
906.284
906.413
906.54
906.668
906.795
906.922
907.048
907.174
907.3
907.425
907.551
907.671
952.449
952.463
952.473
952.483
952.493
952.503
952.513
952.523
952.533
952.543
952.552
952.562
952.571
952.581
952.59
952.599
952.609
952.618
952.627
952.636
952.645
952.654
952.663
952.672
952.681
952.689
952.698
952.707
952.715
952.724
952.732
952.74
952.749
952.757
952.765
952.773
952.781
952.79
952.798
952.805
952.813
952.821
952.829
952.837
952.844
952.852
952.86
952.867
952.875
952.882
952.89
952.897
952.904
952.911
952.919
952.926
952.933
952.94
952.947
952.954
952.961
952.968
952.975
952.982
952.988
952.995
953.002
953.008
953.015
953.022
953.028
953.035
953.041
953.047
953.054
953.06
953.066
953.073
953.079
953.085
953.091
953.097
953.103
953.109
953.115
953.121
953.127
953.133
953.139
953.145
953.15
953.156
953.162
953.167
953.173
953.179
953.184
953.19
953.195
953.201
953.206
953.211
953.217
953.222
953.227
953.233
953.238
953.243
953.248
953.253
953.259
953.264
953.269
953.274
953.279
953.284
953.289
953.293
953.298
953.303
953.308
953.313
953.318
953.322
953.328
954.211
954.212
954.212
954.213
954.213
954.213
954.214
954.214
954.214
954.215
954.215
954.215
954.215
954.216
954.216
954.216
954.217
954.217
954.217
954.218
954.218
954.218
954.218
954.219
954.219
954.219
954.219
954.22
954.22
954.22
954.22
954.221
954.221
954.221
954.221
954.222
954.222
954.222
954.222
954.223
954.223
954.223
954.223
954.223
954.224
954.224
954.224
954.224
954.225
954.225
954.225
954.225
954.225
954.226
954.226
954.226
954.226
954.226
954.227
954.227
954.227
954.227
954.227
954.227
954.228
954.228
954.228
954.228
954.228
954.228
954.229
954.229
954.229
954.229
954.229
954.229
954.23
954.23
954.23
954.23
954.23
954.23
954.231
954.231
954.231
954.231
954.231
954.231
954.231
954.232
954.232
954.232
954.232
954.232
954.232
954.232
954.233
954.233
954.233
954.233
954.233
954.233
954.233
954.233
954.234
954.234
954.234
954.234
954.234
954.234
954.234
954.234
954.234
954.235
954.235
954.235
954.235
954.235
954.235
954.235
954.235
954.235
954.236
954.236
954.236
954.248
954.248
954.248
954.248
954.248
954.248
954.248
954.248
954.248
954.248
954.248
954.248
954.248
954.248
954.248
954.248
954.248
954.248
954.248
954.248
954.248
954.248
954.248
954.248
954.248
954.248
954.248
954.248
954.248
954.248
954.248
954.248
954.248
954.248
954.248
954.248
954.248
954.248
954.248
954.248
954.248
954.248
954.248
954.248
954.248
954.248
954.248
954.248
954.248
954.248
954.248
954.248
954.248
954.248
954.248
954.248
954.248
954.248
954.248
954.248
954.248
954.248
954.248
954.248
954.248
954.248
954.248
954.248
954.248
954.248
954.248
954.248
954.248
954.248
954.248
954.248
954.248
954.248
954.248
954.248
954.248
954.248
954.248
954.248
954.248
954.248
954.248
954.248
954.248
954.248
954.248
954.248
954.248
954.248
954.248
954.248
954.248
954.248
954.248
954.248
954.248
954.248
954.248
954.248
954.248
954.248
954.248
954.248
954.248
954.248
954.248
954.248
954.248
954.248
954.248
954.248
954.248
954.248
954.248
954.248
954.248
954.248
954.248
954.248
954.248
954.248
954.248
954.248
954.248
954.248
954.248
954.248
954.248
954.248
954.248
954.248
954.248
954.248
954.248
954.248
954.248
954.248
954.248
954.248
954.248
954.248
954.248
954.248
954.248
954.248
954.248
954.248
954.248
954.248
954.248
954.248
954.248
954.248
954.248
954.248
954.248
954.248
954.248
954.248
954.248
954.248
954.248
954.248
954.248
954.248
954.248
954.248
954.248
954.248
954.248
954.248
954.248
954.248
954.248
954.248
954.248
954.248
954.248
954.248
954.248
954.248
954.248
954.248
954.248
954.248
954.248
954.248
954.248
954.248
954.248
954.248
954.248
954.248
954.248
954.248
954.248
954.248
954.248
954.248
954.248
954.248
954.248
954.248
954.248
954.248
954.248
954.248
954.248
954.248
954.248
954.248
954.248
954.248
954.248
954.248
954.248
954.248
954.248
954.248
954.248
954.248
954.248
954.248
954.248
954.248
954.248
954.248
954.248
954.248
954.248
954.248
954.248
954.248
954.248
954.248
954.248
954.248
954.248
954.248
954.248
954.248
954.248
954.248
954.248
954.248
954.248
954.248
954.248
954.248
954.248
954.248
954.248
954.248
954.248
954.248
954.248
954.248
954.248
954.248
954.248
954.248
954.248
954.248
954.248
954.248
954.248
954.248
954.248
954.248
954.248
954.248
954.248
954.248
954.248
954.248
954.248
954.248
954.248
954.248
954.248
954.248
954.248
954.248
954.248
954.248
954.248
954.248
954.248
954.248
954.248
954.248
954.248
954.248
954.248
954.248
954.248
954.248
954.248
954.248
954.248
954.248
954.248
954.248
954.248
954.248
954.248
954.248
954.248
954.248
954.248
954.248
954.248
954.248
954.248
954.248
954.248
954.248
954.248
954.248
954.248
954.248
954.248
954.248
954.248
954.248
954.248
954.248
954.248
954.248
954.248
954.248
954.248
954.248
954.248
954.248
954.248
954.248
954.248
954.248
954.248
954.248
954.248
954.248
954.248
954.248
954.248
954.248
954.248
954.248
954.248
954.248
954.248
954.248
954.248
954.248
954.248
954.248
954.248
954.248
954.248
954.248
954.248
954.248
954.248
954.248
954.248
954.248
954.248
954.248
954.248
954.248
954.248
954.248
954.248
954.248
954.248
954.248
954.248
954.248
954.248
954.248
954.248
954.248
954.248
954.248
954.248
954.248
954.248
954.248
954.248
954.248
954.248
954.248
954.248
954.248
954.248
954.248
954.248
954.248
954.248
954.248
954.248
954.248
954.248
954.248
954.248
954.248
954.248
954.248
954.248
954.248
954.248
954.248
954.248
954.248
954.248
954.248
954.248
954.248
954.248
954.248
954.248
954.248
954.248
954.248
954.248
954.248
954.248
954.248
954.248
954.248
954.248
954.248
954.248
954.248
954.248
954.248
954.248
954.248
954.248
954.248
954.248
954.248
954.248
954.248
954.248
954.248
954.248
954.248
954.248
954.248
954.248
954.248
954.248
954.248
954.248
954.248
954.248
954.248
954.248
954.248
954.248
954.248
954.248
954.248
954.248
954.248
954.248
954.248
954.248
954.248
954.248
954.248
954.248
954.248
954.248
954.248
954.248
954.248
954.248
954.248
954.248
954.248
954.248
954.248
954.248
954.248
954.248
954.248
954.248
954.248
954.248
954.248
954.248
954.248
954.248
954.248
954.248
954.248
954.248
954.248
954.248
954.248
954.248
954.248
954.248
954.248
954.248
954.248
954.248
954.248
954.248
954.248
954.248
954.248
954.248
954.248
954.248
954.248
954.248
954.248
954.248
954.248
954.248
954.248
954.248
954.248
954.248
954.248
954.248
954.248
954.248
954.248
954.248
954.248
954.248
954.248
954.248
954.248
954.248
954.248
954.248
954.248
954.248
954.248
954.248
954.248
954.248
954.248
954.248
954.248
954.248
954.248
954.248
954.248
954.248
954.248
954.248
954.248
954.248