/*--------------------------------*- C++ -*----------------------------------*\
| =========                 |                                                 |
| \\      /  F ield         | OpenFOAM: The Open Source CFD Toolbox           |
|  \\    /   O peration     | Version:  2112                                  |
|   \\  /    A nd           | Website:  www.openfoam.com                      |
|    \\/     M anipulation  |                                                 |
\*---------------------------------------------------------------------------*/
FoamFile
{
    version     2.0;
    format      ascii;
    arch        "LSB;label=32;scalar=64";
    class       volVectorField;
    location    "0.00492";
    object      U;
}
// * * * * * * * * * * * * * * * * * * * * * * * * * * * * * * * * * * * * * //

dimensions      [0 1 -1 0 0 0 0];

internalField   nonuniform List<vector> 
13875
(
(2204.15 109.689 1.81275e-18)
(2142.46 5.59724 -9.38759e-19)
(2170.24 -2.20388 -9.41116e-19)
(2167.95 -0.895929 0)
(2170.71 0.203861 0)
(2169.49 -0.289456 9.36297e-19)
(2169.8 -1.30678 -9.36453e-19)
(2169.39 -1.10825 -4.68577e-19)
(2169.77 -0.0340755 4.68081e-19)
(2169.08 0.36809 0)
(2169.36 0.298321 -3.88368e-22)
(2169.48 0.761539 -3.88077e-22)
(2169.65 0.892294 0)
(2169.41 -0.0434822 -4.68223e-19)
(2169.39 -0.962892 4.68613e-19)
(2169.73 -1.36458 0)
(2169.89 -0.288726 9.3706e-19)
(2169.13 0.270471 -9.37858e-19)
(2169.28 1.10681 3.87798e-22)
(2169.39 1.14999 -3.86021e-22)
(2170.59 -0.130971 -9.36205e-19)
(2167.75 0.428896 9.37204e-19)
(2170.99 2.5429 -1.87838e-18)
(2143.49 -8.5965 1.91678e-18)
(2209.96 -106.697 1.76525e-18)
(2253.38 91.9367 -1.63249e-18)
(2228.45 -1.12804 1.88338e-18)
(2247.36 0.686589 8.7187e-19)
(2245.5 1.04774 -8.6717e-19)
(2248.73 -0.766124 4.16589e-22)
(2248.11 0.595702 5.20588e-22)
(2247.93 1.77786 4.16181e-22)
(2245.83 1.46121 -4.36044e-19)
(2245.65 0.252353 4.35329e-19)
(2245.08 -0.314541 2.17659e-19)
(2245.25 -0.553512 -1.6308e-19)
(2245.44 -1.03887 -5.31712e-20)
(2247.79 -1.11678 0)
(2247.88 0.117779 -4.34958e-19)
(2247.52 1.05528 4.33473e-19)
(2245.67 1.47171 4.35987e-19)
(2245.55 0.639091 -4.35269e-19)
(2245.33 -0.00443013 5.18594e-22)
(2246.22 -1.67465 -5.18698e-22)
(2247.64 -2.08738 5.20191e-22)
(2248.28 0.62118 -8.71322e-19)
(2245.5 -0.811549 2.60029e-18)
(2247.21 -1.61685 -1.74274e-18)
(2228.75 3.63694 5.43042e-22)
(2256.39 -97.3597 -1.71441e-18)
(2252.38 78.1199 0)
(2236.34 -18.2513 0)
(2249.49 4.39813 0)
(2250.77 -2.03617 0)
(2254.07 -3.12912 -1.64431e-18)
(2253.63 -0.0387288 1.64268e-18)
(2253.99 2.02591 1.6403e-18)
(2253.52 2.09518 -2.5787e-18)
(2253.85 0.600502 8.60895e-19)
(2253.33 0.48144 4.31016e-22)
(2252.98 0.0246276 -4.3086e-19)
(2253.12 -2.5161 4.30501e-19)
(2254.09 -2.54867 0)
(2253.96 0.0602424 0)
(2253.97 2.30226 4.08193e-22)
(2253.31 1.91031 0)
(2254.24 -0.0889089 8.38026e-22)
(2253.72 -0.800975 4.30379e-19)
(2254.17 -2.12639 -4.30073e-19)
(2253.64 -1.04674 0)
(2254.02 2.52241 0)
(2250.88 1.24795 0)
(2250.62 -4.79575 0)
(2237.94 13.7313 0)
(2257.36 -74.3421 0)
(2247.85 51.3448 0)
(2235.05 -28.6728 1.81416e-18)
(2249.27 7.09258 -3.41657e-18)
(2251.7 -4.9969 3.46511e-18)
(2253.79 -3.76591 -1.64303e-18)
(2253.52 -0.204185 0)
(2253.99 1.85943 -7.93834e-22)
(2254.02 1.62012 0)
(2254.43 0.260348 0)
(2254.01 0.559651 0)
(2254.06 0.190645 0)
(2254.09 -2.38787 -8.04791e-22)
(2254.06 -2.49989 -5.08733e-20)
(2253.92 0.0488754 5.06289e-20)
(2253.93 2.22474 0)
(2254.26 1.62562 0)
(2254.99 -0.35358 8.38229e-22)
(2254.29 -0.25738 -8.40121e-19)
(2254.53 -1.4121 8.59206e-19)
(2253.55 -0.706113 -1.6299e-18)
(2253.85 3.05374 1.63597e-18)
(2252.03 4.39065 1.74096e-18)
(2249.72 -8.85951 -1.72059e-18)
(2235.83 31.2073 0)
(2251.92 -58.3668 0)
(2244.87 39.2601 1.74901e-18)
(2235.45 -47.917 0)
(2248.74 10.3166 0)
(2250.48 -8.18517 0)
(2254.05 -5.17045 0)
(2253.51 -0.695472 1.65422e-21)
(2253.78 1.69079 1.6593e-21)
(2253.86 1.39251 4.2485e-19)
(2254.38 0.163908 -4.23929e-19)
(2253.95 0.602643 2.03197e-19)
(2254.01 0.235063 -2.07272e-19)
(2254.07 -2.29296 0)
(2254.03 -2.37491 0)
(2253.85 -0.0310013 -1.65499e-21)
(2253.96 2.0254 0)
(2254.34 1.00151 -1.68495e-21)
(2254.96 -0.538863 8.58723e-19)
(2254.15 -0.0854398 -8.28137e-19)
(2254.33 -1.03281 1.72722e-18)
(2253.72 0.0649246 -1.70703e-18)
(2254.07 4.29371 1.6627e-21)
(2250.7 6.64416 0)
(2249.98 -11.4744 0)
(2237.25 42.687 0)
(2250.38 -35.5768 0)
(2241.5 6.72135 0)
(2231.55 -63.6469 9.12383e-19)
(2247.19 12.0418 -8.47622e-19)
(2250.96 -11.7659 0)
(2252.98 -5.95594 8.61197e-19)
(2252.95 -1.06435 -4.32415e-19)
(2253.72 1.23366 -2.48006e-21)
(2253.92 0.931488 -2.16959e-19)
(2254.31 -0.0579327 -4.26525e-19)
(2253.85 0.576186 1.6159e-19)
(2253.94 0.274446 1.65929e-21)
(2253.91 -2.18143 2.61627e-19)
(2253.87 -2.30517 -2.14758e-19)
(2253.69 -0.0407224 3.33781e-21)
(2253.78 1.85924 -4.26301e-19)
(2254.17 0.724626 4.32667e-19)
(2254.87 -0.556569 1.65696e-21)
(2254.09 0.36382 -1.66347e-21)
(2254.39 -0.298699 -1.68325e-21)
(2253.25 0.555884 -8.66584e-19)
(2253.21 4.82249 8.52751e-19)
(2251.56 11.0561 0)
(2247.39 -15.0541 0)
(2232.42 65.2987 -1.93282e-18)
(2245.92 -18.8521 -1.26236e-19)
(2254.01 2.86828 -4.95221e-20)
(2227.51 -79.4127 6.02427e-20)
(2243.04 11.9659 0)
(2248.63 -16.4327 -2.6912e-23)
(2252.59 -7.97679 -2.62566e-23)
(2252.64 -2.09579 0)
(2253.19 0.892337 0)
(2253.55 0.644663 -8.60566e-19)
(2254.03 -0.108914 8.43986e-19)
(2253.61 0.591698 0)
(2253.79 0.325699 1.69228e-18)
(2253.84 -1.84508 3.76194e-21)
(2253.68 -2.01531 -1.72211e-18)
(2253.45 -0.196488 -1.6797e-21)
(2253.67 1.37703 0)
(2254.16 0.058844 3.43989e-18)
(2254.55 -0.578204 7.29614e-23)
(2253.63 0.544067 -6.82813e-18)
(2253.76 0.124657 3.44061e-18)
(2252.82 1.9162 2.65275e-23)
(2252.75 6.92755 0)
(2248.58 13.4228 3.5275e-18)
(2244.12 -12.4033 -3.31081e-18)
(2228.88 72.9195 3.81577e-18)
(2247.06 2.90857 -3.18296e-18)
(2218.39 -22.8936 -3.1724e-19)
(2214.73 -87.5157 -7.49679e-18)
(2235.65 3.20855 8.70948e-22)
(2246.12 -23.2012 2.61221e-23)
(2249.12 -10.0797 -8.10268e-22)
(2251.02 -3.41581 0)
(2252.61 -0.194704 -3.42478e-18)
(2253.2 -0.149481 3.43384e-18)
(2253.61 -0.550649 0)
(2253.24 0.231033 -8.19664e-22)
(2253.46 0.185048 -8.1249e-22)
(2253.39 -1.66241 0)
(2253.2 -1.86938 0)
(2252.93 -0.0898889 -1.62399e-21)
(2253.13 1.22964 -8.28688e-22)
(2253.75 -0.110711 2.5951e-23)
(2254.13 -0.175292 -8.49308e-22)
(2253.18 1.30797 -2.5947e-23)
(2253.23 1.33787 -1.7208e-18)
(2251.6 3.49349 -1.60278e-20)
(2249.91 9.00815 1.70071e-18)
(2246.52 20.0411 8.85298e-22)
(2236.84 -4.44929 3.45905e-18)
(2216.51 81.669 -3.53759e-18)
(2222.22 18.1841 2.50345e-23)
(2113.36 -37.9322 9.42398e-19)
(2168.81 -98.6539 0)
(2217.09 -20.4238 -8.31529e-22)
(2235.03 -32.9778 -8.64911e-19)
(2245.78 -18.516 1.71494e-18)
(2248.38 -7.26742 -1.72366e-18)
(2250.67 -1.93339 8.17422e-21)
(2251.87 -0.828084 8.5492e-19)
(2252.5 -0.606597 0)
(2252.29 0.27771 -8.40025e-19)
(2252.63 0.493141 8.35043e-19)
(2252.61 -0.753503 0)
(2252.34 -1.38313 0)
(2251.98 -0.639713 2.06238e-21)
(2252.27 0.265432 8.22849e-22)
(2252.79 -0.828118 8.38571e-19)
(2252.96 -0.0200363 -8.40697e-19)
(2251.74 1.8048 0)
(2251.2 2.62261 8.57142e-19)
(2248.95 6.78821 -1.72559e-18)
(2246.15 15.6126 8.49966e-19)
(2236.1 29.4541 -8.40259e-22)
(2218.71 16.8427 0)
(2171 94.0666 0)
(2116.87 35.4167 0)
(1873.5 -142.224 -6.57021e-17)
(2125.75 -161.087 8.42313e-17)
(2198.44 -55.1277 0)
(2228.26 -55.9119 -2.98023e-17)
(2239.48 -22.8827 3.10592e-17)
(2245.48 -11.2359 0)
(2248.36 -5.37784 -2.95416e-20)
(2249.82 -2.94772 -1.47231e-17)
(2250.5 -1.91498 1.46401e-17)
(2250.43 -0.751879 -2.91175e-20)
(2250.83 -0.230245 0)
(2250.79 -0.849326 -3.68067e-18)
(2250.55 -1.06924 5.5914e-18)
(2250.11 -0.197732 -1.87413e-18)
(2250.32 0.439192 -2.88986e-20)
(2250.79 -0.154239 0)
(2250.82 1.35507 0)
(2249.57 3.74169 -2.95571e-17)
(2248.57 6.04188 2.91298e-17)
(2245.94 11.2328 -3.04497e-17)
(2240.67 22.0799 2.94993e-17)
(2229.22 53.6879 3.22565e-17)
(2200.1 53.7645 -2.92675e-17)
(2128.81 163.089 -8.33522e-17)
(1884.08 138.865 -1.25959e-17)
(1652.64 -215.872 -9.08871e-17)
(2011.17 -307.978 1.37682e-16)
(2158.24 -105.771 0)
(2207.88 -64.547 6.88063e-17)
(2230.86 -28.9388 -7.17513e-17)
(2239.31 -13.6204 -3.3773e-17)
(2242.75 -5.59629 3.39787e-17)
(2245.4 -2.76343 -3.36084e-17)
(2246.3 -0.957496 3.35604e-17)
(2246.55 0.257008 3.21039e-20)
(2247.04 0.944438 0)
(2247.21 0.760066 -2.10917e-18)
(2247.09 -0.313235 2.17173e-18)
(2246.43 -1.28315 3.27762e-20)
(2246.42 -1.3499 3.23653e-20)
(2246.61 -1.63107 3.28706e-20)
(2246.61 -0.0203438 0)
(2245.22 3.29458 0)
(2242.68 5.67586 -6.78052e-17)
(2239.85 13.1588 6.78004e-17)
(2231.72 26.1075 -7.21128e-17)
(2210.99 59.7603 1.46839e-16)
(2163.54 97.2845 -7.04938e-17)
(2014.36 297.941 -3.88745e-20)
(1695.43 205.934 8.78564e-20)
(1279.06 -593.693 -1.09016e-16)
(1741.08 -588.709 1.1844e-16)
(2038.69 -178.256 2.18146e-16)
(2169 -107.182 -9.38177e-17)
(2206.04 -37.0282 0)
(2224.53 -18.9325 7.45843e-17)
(2232.25 -12.7201 -7.54762e-17)
(2236.13 -6.9225 0)
(2237.47 -4.58562 3.5439e-20)
(2238.15 -2.82541 0)
(2238.91 -1.68364 0)
(2239.42 -0.781388 0)
(2239.58 0.182547 4.6995e-18)
(2238.81 0.631183 -4.66054e-18)
(2238.39 0.913128 -3.79373e-20)
(2237.82 1.3488 -3.5271e-20)
(2237.51 3.19482 0)
(2235.73 6.88553 0)
(2231.69 13.408 0)
(2223.85 17.6047 -7.86881e-17)
(2207.64 36.2624 1.57313e-16)
(2171.99 100.882 -7.31288e-17)
(2052.95 167.37 -1.32469e-16)
(1751.85 593.465 1.0025e-16)
(1281.77 547.067 -5.99721e-20)
(1298.03 -611.76 1.61071e-16)
(1112.82 -1079.13 0)
(1668.97 -471.01 0)
(1910.4 -123.54 -1.10575e-16)
(2135.32 -75.6057 1.11304e-16)
(2186.06 -39.4439 0)
(2198.17 -9.89414 1.19395e-20)
(2209.98 -4.53768 4.12352e-17)
(2213.31 0.509646 -4.17845e-17)
(2215.65 2.44641 0)
(2217.76 3.3362 -1.02883e-17)
(2219.45 3.19899 1.03386e-17)
(2220.34 1.22163 -5.18312e-18)
(2219.12 -1.88297 5.16655e-18)
(2217.28 -3.419 3.86345e-20)
(2214.75 -4.14323 -4.14877e-17)
(2212.61 -2.45717 8.26815e-17)
(2208.6 3.06807 1.08992e-18)
(2195.44 8.99579 -4.11867e-17)
(2182.12 40.1254 -9.26912e-17)
(2119.95 65.0307 8.56944e-17)
(1896.82 101.14 8.4669e-20)
(1701.48 444.682 2.71345e-20)
(1107.73 1065.98 1.68079e-16)
(1315.44 613.435 7.40685e-18)
(1353.64 -631.116 0)
(1146.33 -1052.72 0)
(1273.29 -740.865 0)
(1182.22 -824.908 0)
(1954.59 -255.128 0)
(2000.03 -63.0171 1.07628e-16)
(2103.88 -64.7285 -1.09505e-16)
(2129.53 -33.596 1.32127e-19)
(2140.99 -24.8331 -1.05816e-20)
(2147.92 -19.311 2.37466e-17)
(2154 -14.5442 -2.40616e-17)
(2158.59 -8.05449 -2.53005e-19)
(2160.44 0.712591 -7.4184e-19)
(2158.52 8.70358 8.48611e-19)
(2154.14 14.9675 -2.38991e-17)
(2146.86 18.9734 2.35729e-17)
(2139.22 24.4808 1.15693e-19)
(2125.65 35.9191 0)
(2096.79 69.7865 0)
(1977.39 81.3763 0)
(1905.99 323.141 -2.13923e-16)
(1150.49 822.407 -5.76122e-17)
(1284.3 718.458 1.61044e-16)
(1145.42 1015.31 2.04898e-20)
(1363.2 620.472 2.08024e-20)
(1428.94 -619.241 0)
(1256.91 -909.408 4.10295e-20)
(1305.18 -752.453 0)
(1194.73 -833.12 -1.66482e-16)
(1273.57 -739.179 3.30504e-16)
(1447.59 -644.253 -2.18706e-16)
(1773.53 -75.6156 0)
(1827.19 -17.1237 -1.22479e-19)
(1871.51 17.1298 0)
(1896.24 23.5147 0)
(1915.49 25.8087 -1.69769e-17)
(1932.89 19.2828 1.69534e-17)
(1938.56 5.54106 1.66e-17)
(1934.77 -9.58543 -1.67232e-17)
(1919.6 -19.2752 0)
(1897.3 -21.2203 -7.41527e-17)
(1870.07 -16.1328 7.41478e-17)
(1822.86 18.2193 9.03388e-17)
(1773.41 100.306 -7.44489e-17)
(1436.73 623.556 0)
(1250.66 764.97 0)
(1170.43 828.015 -1.67288e-19)
(1309.69 731.676 -1.69202e-16)
(1255.47 898.99 3.72895e-16)
(1414.39 617.477 -1.71268e-16)
(1505.17 -619.275 -1.71117e-16)
(1392.3 -826.253 1.86546e-16)
(1361.73 -706.766 0)
(1229.81 -738.099 -2.11745e-16)
(1232.28 -638.754 -2.40256e-17)
(1125.09 -629.167 2.98405e-16)
(1053.3 -494.218 -2.19879e-16)
(896.124 -509.251 1.26965e-16)
(926.439 -420.324 0)
(974.813 -286.265 0)
(1032.32 -223.448 -4.05405e-20)
(1079.7 -120.936 2.49412e-19)
(1081.61 -10.7429 0)
(1082.87 96.1225 0)
(1055.11 213.95 5.90979e-17)
(1002.81 302.531 -5.64068e-17)
(915.964 438.861 -1.1806e-16)
(846.02 500.292 2.38226e-16)
(1029.32 496.585 1.7669e-17)
(1117.95 615.155 -1.01774e-16)
(1218.34 661.952 0)
(1203.38 743.168 0)
(1355.69 693.303 -1.81436e-16)
(1349.83 852.869 2.05292e-16)
(1485.29 628.08 -4.54843e-20)
(1624.3 -587.755 1.6231e-16)
(1511.93 -710.849 -9.87216e-20)
(1504.59 -597.059 1.03196e-16)
(1409.38 -570.865 -8.91296e-17)
(1337.72 -485.758 -4.9542e-20)
(1186.27 -489.416 9.9458e-20)
(1035.42 -330.917 1.25668e-16)
(659.177 -174.664 -1.89594e-16)
(372.591 -66.8813 6.451e-17)
(286.483 -81.5909 0)
(291.906 -55.5041 -3.30091e-17)
(316.581 -29.0598 3.25369e-17)
(311.025 2.32881 0)
(311.988 32.1426 5.77753e-20)
(297.913 54.5223 -3.24212e-17)
(304.912 81.2619 3.3346e-17)
(360.318 66.851 0)
(612.905 153.703 -1.22787e-16)
(988.681 329.209 1.28644e-16)
(1178.24 478.548 9.84684e-17)
(1319.17 498.667 -2.0288e-16)
(1382.47 581.364 1.08654e-16)
(1492.25 609.71 0)
(1498.81 742.421 1.74321e-16)
(1615.27 603.082 -4.99227e-18)
(1774.13 -495.157 -4.48436e-18)
(1719.18 -457.091 8.68519e-17)
(1587.88 -341.487 -4.03307e-17)
(1399.85 -226.934 -5.80141e-17)
(1351.65 -155.194 7.75278e-17)
(1224.63 -161.498 -5.5371e-17)
(1078.36 -68.0085 5.8522e-17)
(765.379 -65.0996 -6.39708e-17)
(541.003 -49.094 2.01016e-20)
(499.138 -45.7682 3.31777e-17)
(508.134 -13.1053 1.64599e-17)
(521.643 -8.1099 7.35291e-21)
(520.284 2.41033 -1.64097e-17)
(517.831 13.3674 -6.51356e-20)
(507.78 21.1174 -7.92046e-20)
(510.659 48.7344 -2.06175e-18)
(552.829 43.6016 -1.43557e-20)
(761.268 53.6934 5.89372e-18)
(1074.85 81.326 -3.80769e-18)
(1243.2 170.742 0)
(1344.11 161.922 1.22158e-17)
(1393.59 225.684 -3.73301e-17)
(1599.06 387.49 4.67372e-17)
(1710.19 499.101 -6.10929e-17)
(1770.9 512.067 5.7397e-17)
(1890.45 -434.786 -9.03667e-20)
(1852.1 -192.08 -1.17992e-19)
(1755.32 -12.8907 1.45465e-19)
(1567.62 -30.7164 -6.4173e-21)
(1449.8 8.58344 -1.7618e-19)
(1344.11 -14.054 -1.9841e-19)
(1272.3 -26.1767 -7.90317e-21)
(1105.72 -87.6379 0)
(904.408 -73.6952 0)
(833.761 -47.7668 6.62559e-17)
(834.884 -14.4162 -6.61304e-17)
(848.497 -5.08111 -9.22992e-21)
(848.262 4.29639 9.23753e-21)
(845.887 16.4064 -8.50466e-18)
(834.16 24.8587 8.28168e-18)
(836.577 61.9112 0)
(886.401 84.5589 0)
(1060.98 100.425 -6.20577e-17)
(1253.14 40.6655 5.80491e-17)
(1342.45 19.0877 -1.89788e-19)
(1423.59 -1.39465 0)
(1555.61 31.7673 0)
(1764.23 29.172 -1.45823e-19)
(1849.45 183.025 -1.21209e-19)
(1887.13 442.531 1.35593e-16)
(1835.11 37.4357 -1.56523e-16)
(1817.28 174.393 -2.61477e-16)
(1719.95 326.033 1.22196e-16)
(1656.18 269.394 0)
(1579.72 175.07 2.2018e-19)
(1493.72 94.4177 1.08492e-16)
(1448.46 44.3671 -2.14893e-16)
(1331.29 -29.178 1.13235e-16)
(1134.73 -48.8474 -1.26099e-16)
(1005.58 -35.4539 1.27956e-16)
(973.066 -12.1119 3.25963e-17)
(973.775 -3.7099 -4.06707e-17)
(974.586 5.50097 -8.18459e-18)
(971.807 16.5329 1.65417e-17)
(972.38 23.8804 0)
(1005.17 50.2395 0)
(1121.67 62.8034 1.23191e-16)
(1310.83 44.8219 -2.34934e-16)
(1444.54 -28.7907 1.11662e-16)
(1490.93 -91.6145 2.33201e-19)
(1562.96 -179.663 1.83444e-16)
(1671.13 -268.011 -5.35453e-17)
(1737.32 -315.392 -4.57405e-16)
(1814.67 -194.624 6.43554e-16)
(1839.79 -29.9734 -2.4816e-16)
(1249.07 548.71 1.58894e-19)
(1395.77 823.044 -2.28256e-16)
(1672.26 677.841 1.20378e-16)
(1696.38 493.107 0)
(1666.08 330.97 0)
(1591.02 216.221 0)
(1558.36 139.852 0)
(1465.38 56.9878 0)
(1287.33 15.4402 -5.41602e-17)
(1144.78 1.35942 1.10955e-16)
(1084.17 4.83575 -8.4842e-17)
(1074.87 4.42298 3.18933e-17)
(1071.84 6.25112 -3.57639e-18)
(1074.12 9.50651 1.44076e-20)
(1086.54 7.37457 -5.6254e-17)
(1151.92 13.9519 5.64936e-17)
(1292.26 -1.44576 0)
(1465.12 -44.4173 0)
(1560.92 -135.032 -1.75576e-16)
(1591.89 -213.748 1.87199e-16)
(1658.46 -339.609 -1.72193e-19)
(1704.77 -508.55 6.81142e-20)
(1666.12 -682.338 -8.95997e-20)
(1384.42 -828.856 -8.98735e-20)
(1197.81 -520.5 0)
(816.723 622.138 -1.98088e-16)
(1436.36 943.541 1.4908e-16)
(1680.38 863.625 -1.30208e-19)
(1726.38 683.764 1.54036e-16)
(1724.6 475.122 -1.25998e-16)
(1664.46 320.304 0)
(1632.26 226.09 -8.25557e-17)
(1557.21 139.789 7.98611e-17)
(1397.87 79.0957 -4.68066e-17)
(1253.03 44.3738 9.61349e-17)
(1186.67 28.5301 -4.85165e-17)
(1168.82 14.9961 1.8185e-19)
(1167.55 4.96232 0)
(1169.62 -4.3738 2.47586e-17)
(1193.15 -20.1831 2.36405e-17)
(1266.68 -37.2509 -4.86252e-17)
(1409.34 -75.4039 -8.7603e-17)
(1561.29 -135.946 8.80287e-17)
(1632.73 -226.458 -7.34468e-17)
(1666.91 -321.667 8.05408e-17)
(1717.68 -498.486 8.1211e-20)
(1727.89 -707.199 -7.58241e-20)
(1658.84 -890.114 0)
(1405.07 -940.74 6.79556e-20)
(739.167 -566.7 0)
(858.325 549.328 1.70109e-16)
(1498.05 909.899 -1.4537e-16)
(1686.41 948.398 4.67618e-20)
(1749.65 791.937 0)
(1760.94 602.185 0)
(1706.97 442.872 -7.38686e-21)
(1685.31 322.221 0)
(1622.72 220.343 7.7787e-20)
(1485.42 147.399 0)
(1353.43 88.3671 4.25878e-17)
(1280.06 53.2529 -6.43435e-17)
(1261.42 26.3405 3.23399e-17)
(1257.19 4.06191 -1.08768e-17)
(1262.97 -17.8941 0)
(1286.18 -47.3276 0)
(1364.12 -81.0652 4.05279e-17)
(1495.37 -141.005 -1.16343e-16)
(1628.52 -212.625 7.66822e-17)
(1683.48 -327.854 -6.25132e-17)
(1710.4 -440.632 7.08992e-17)
(1760.8 -606.568 0)
(1754.56 -805.608 0)
(1680.75 -952.618 0)
(1480.94 -899.373 -8.20227e-21)
(783.856 -486.765 -1.9572e-16)
(1000.12 482.197 -3.19551e-20)
(1566.7 854.521 1.15894e-16)
(1696.08 940.497 -9.92227e-17)
(1776.31 833.226 0)
(1782.17 681.629 0)
(1742.95 522.301 7.74677e-21)
(1726.8 397.548 6.48009e-17)
(1671.51 288.806 -6.11432e-17)
(1548.62 197.145 3.21487e-20)
(1429.36 126.885 3.41227e-20)
(1365.03 77.971 3.50767e-20)
(1343.04 38.2793 -1.02401e-20)
(1341 2.89078 -1.02472e-20)
(1344.27 -31.7145 1.91976e-17)
(1370.43 -72.7836 -1.94168e-17)
(1439.29 -122.92 4.38716e-20)
(1557.75 -197.744 4.15534e-20)
(1678.87 -282.142 0)
(1725.52 -400.67 -5.58369e-17)
(1745.65 -518.51 6.28349e-17)
(1786 -682.273 0)
(1785.31 -840.388 -9.91091e-17)
(1693.79 -945.995 1.00195e-16)
(1563.73 -861.258 6.98017e-21)
(1029.14 -484.44 -1.72462e-16)
(1161.65 457.785 3.77682e-20)
(1616.24 819.871 0)
(1707.73 918.426 0)
(1790.54 846.376 -5.20086e-17)
(1792.92 732.993 4.70651e-17)
(1767.17 588.808 0)
(1762.67 463.921 5.93981e-17)
(1712.31 345.426 -5.62561e-17)
(1604.24 243.922 3.33745e-17)
(1499.46 156.432 -3.32912e-17)
(1437.51 97.9732 1.77875e-17)
(1420.66 48.0524 -1.76776e-17)
(1416.58 1.58023 0)
(1422.07 -45.3501 -1.75299e-17)
(1444.25 -97.2914 1.78331e-17)
(1512.12 -155.469 -3.59002e-20)
(1617.83 -248.922 -3.40511e-20)
(1722.47 -345.261 5.47896e-20)
(1761.81 -474.409 5.11294e-17)
(1764.1 -593.312 -5.75439e-17)
(1794.2 -738.596 -4.76448e-20)
(1797.12 -857.826 -4.63059e-20)
(1712.82 -921.081 0)
(1591.58 -828.153 -5.60959e-20)
(1104.43 -450.713 3.84485e-20)
(1172.62 425.996 1.42555e-22)
(1616.45 766.058 0)
(1730.44 867.381 9.00274e-23)
(1801.7 844.743 4.3863e-20)
(1802.58 764.403 -8.68556e-23)
(1791.84 629.836 -5.24166e-17)
(1789.98 513.547 4.72849e-17)
(1747.37 392.232 0)
(1650.95 281.251 -6.23005e-20)
(1556.66 189.345 -1.11856e-22)
(1506.11 119.151 -1.14826e-22)
(1488.2 58.252 6.84382e-20)
(1486.84 1.42294 0)
(1489.13 -55.6894 0)
(1511.04 -118.088 -1.14252e-22)
(1568.1 -188.688 -1.11113e-22)
(1661.76 -288.253 -2.81908e-17)
(1755 -391.041 8.03985e-17)
(1789.14 -517.612 -5.437e-17)
(1790.14 -628.921 0)
(1803.17 -764.828 -4.49939e-17)
(1809.44 -851.23 4.55511e-17)
(1737.78 -880.917 8.91522e-23)
(1635.81 -773.677 4.96198e-20)
(1174.64 -452.109 1.41491e-22)
(1236.36 450.139 5.6682e-18)
(1660.21 730.823 1.32117e-17)
(1761.54 824.456 9.8081e-17)
(1803.38 832.78 -4.27159e-17)
(1812.75 765.905 4.3312e-17)
(1808.4 659.773 -4.80635e-17)
(1816.58 553.398 4.4202e-17)
(1777.21 426.237 -2.65677e-17)
(1691.71 313.447 2.61749e-17)
(1611.8 210.532 1.17607e-22)
(1563.99 134.194 1.21196e-22)
(1553.12 65.9102 -1.2212e-22)
(1549.71 1.68719 7.3996e-18)
(1554.41 -63.7563 7.24341e-18)
(1569.76 -134.834 -1.49949e-17)
(1623.19 -208.932 1.17338e-22)
(1704.8 -317.409 5.21255e-17)
(1787.71 -424.876 -1.01498e-16)
(1817.67 -559.051 5.01799e-17)
(1806.54 -658.404 0)
(1810.43 -768.374 -8.71081e-23)
(1808.18 -839.756 8.0318e-23)
(1765.18 -828.032 -8.41326e-23)
(1658.24 -736.621 -1.04666e-16)
(1233.5 -427.891 1.28445e-16)
(1276.91 427.267 1.23261e-19)
(1682.9 667.017 0)
(1783.14 768.073 0)
(1810.8 811.031 4.03043e-20)
(1824.89 757.281 8.14589e-20)
(1832.88 666.13 0)
(1841.05 567.288 4.65865e-17)
(1802.97 445.049 -4.53321e-17)
(1725.03 331.299 4.69115e-20)
(1654.57 230.536 -4.92359e-20)
(1620.15 147.201 -1.38259e-17)
(1608.45 69.679 1.37556e-17)
(1608.04 -1.62731 3.55368e-18)
(1609.2 -74.2224 -3.4704e-18)
(1625.14 -153.878 1.33783e-17)
(1667.49 -236.988 -3.93806e-17)
(1738.75 -346.943 2.60767e-17)
(1812.38 -452.944 -4.94797e-20)
(1839.11 -580.662 4.12821e-20)
(1829.65 -671.556 -4.09817e-17)
(1821.84 -762.903 7.35915e-19)
(1815.69 -822.93 -1.71663e-18)
(1791.57 -780.645 4.0999e-17)
(1683.82 -666.562 4.78629e-20)
(1232.01 -417.278 6.07454e-20)
(1277.6 403.031 1.12804e-16)
(1701.25 623.342 -9.70767e-17)
(1806.22 725.287 0)
(1823.25 783.847 -3.89414e-17)
(1836.99 739.908 3.2466e-19)
(1846.44 671.755 3.96869e-17)
(1861.46 589.889 4.34096e-17)
(1827.06 468.43 -4.2722e-17)
(1759.67 355.774 -4.94201e-20)
(1701.46 247.423 -2.51557e-17)
(1668.07 160.069 1.2129e-17)
(1662.58 78.2799 1.26156e-17)
(1659.73 1.99557 -5.35757e-20)
(1663.42 -75.8078 0)
(1671.54 -160.182 0)
(1710.13 -242.97 0)
(1770.77 -357.063 4.91165e-20)
(1837.68 -464.407 1.03012e-20)
(1863.79 -594.413 -5.23839e-20)
(1844.66 -668.721 0)
(1833.24 -739.041 3.94697e-20)
(1824.14 -788.678 9.52028e-21)
(1810.21 -729.649 -4.96149e-20)
(1712.03 -618.768 -9.62983e-17)
(1288.73 -390.53 1.16199e-16)
(1278.93 382.312 5.50034e-17)
(1714.56 547.313 -8.74021e-17)
(1828.18 653.356 8.31441e-17)
(1837.74 743.284 -4.05539e-17)
(1851.8 722.163 -3.77629e-17)
(1869.47 660.433 3.7827e-17)
(1881.92 581.677 2.02855e-17)
(1846.78 469.682 -2.03672e-17)
(1785.53 361.191 1.13561e-17)
(1734.65 258.685 -2.30878e-17)
(1713.91 168.652 1.75371e-17)
(1707.35 80.8206 -7.41944e-18)
(1708.15 -0.595428 1.48629e-18)
(1708.35 -82.653 -4.39889e-20)
(1717.93 -173.407 2.30529e-17)
(1745.45 -261.732 -2.35809e-17)
(1797.22 -372.635 4.12199e-20)
(1856.24 -471.09 4.07394e-17)
(1883.23 -592.422 -2.00705e-18)
(1868.16 -663.744 -3.84446e-17)
(1848.39 -725.42 0)
(1837.34 -757.961 4.08654e-17)
(1828.8 -675.313 -3.69628e-17)
(1715.88 -550.162 -9.36357e-17)
(1285.89 -369.302 -3.73145e-18)
(1330.21 367.816 -5.45115e-17)
(1741.56 482.245 4.55256e-17)
(1850.31 601.378 1.9094e-20)
(1849.54 704.096 -5.43279e-20)
(1870.1 696.638 1.87832e-20)
(1883.36 644.296 3.67797e-17)
(1898.48 579.114 -1.81826e-17)
(1864.16 471.99 -1.95494e-17)
(1812.84 367.314 4.35131e-20)
(1773.84 261.66 -4.4941e-20)
(1753.06 170.027 2.05685e-20)
(1752.84 81.0449 -2.05983e-20)
(1750.71 -2.75565 0)
(1753.07 -87.3267 5.07039e-21)
(1755.6 -178.493 -1.0853e-17)
(1782.33 -264.737 1.10251e-17)
(1825.27 -378.502 -2.03909e-17)
(1876.52 -476.911 9.57224e-19)
(1901.52 -592.41 1.92723e-17)
(1879.52 -648.814 -5.38283e-20)
(1865.03 -696.595 -3.79334e-17)
(1848.53 -705.282 3.54236e-17)
(1849.12 -597.192 0)
(1729.42 -493.466 -4.51955e-17)
(1302.93 -360.109 5.57027e-17)
(1341.31 336.5 0)
(1758.5 416.11 -3.81581e-17)
(1861.01 521.391 4.33132e-17)
(1865.38 645.86 1.75618e-20)
(1885.88 673.061 1.73143e-20)
(1906.42 630.329 -3.49968e-17)
(1916.3 564.978 3.6432e-17)
(1881.46 466.391 1.95235e-17)
(1835.89 368.076 6.82336e-19)
(1800.83 270.587 -2.03492e-17)
(1791.39 179.497 -2.1681e-20)
(1789.06 87.1034 2.43398e-20)
(1790.61 0.242846 0)
(1789.09 -86.5492 4.36943e-20)
(1793.69 -182.711 -2.15659e-20)
(1809.03 -269.953 1.00845e-17)
(1844.77 -375.55 -1.01425e-17)
(1888.84 -462.541 -1.95113e-20)
(1920.3 -572.989 -2.05757e-20)
(1904.68 -636.303 1.74604e-20)
(1880.46 -676.059 -3.6914e-17)
(1860.13 -658.135 -5.94842e-18)
(1860.11 -537.047 3.42019e-17)
(1751.3 -423.563 0)
(1333.38 -341.336 5.50643e-17)
(1366.45 320.174 -1.03652e-16)
(1774.5 361.453 4.26808e-17)
(1868.21 461.223 3.30596e-17)
(1880.99 603.613 -3.96012e-17)
(1901.59 635.275 0)
(1920.59 606.148 -2.12619e-21)
(1928.92 554.904 0)
(1896.64 461.421 -2.3347e-21)
(1858.8 365.795 -2.43653e-21)
(1834.64 266.711 0)
(1823.1 175.775 0)
(1826.78 85.0086 -2.56107e-21)
(1825.3 -1.82146 0)
(1826.7 -89.2464 0)
(1824.69 -183.182 -9.77009e-18)
(1841.06 -267.436 9.79708e-18)
(1869.67 -374.948 -2.41945e-21)
(1906.9 -462.836 -1.81342e-17)
(1933.31 -563.281 1.77175e-17)
(1918.22 -609.96 0)
(1895.74 -634.923 3.67001e-17)
(1876.83 -597.302 -7.32e-17)
(1866.18 -459.735 7.49465e-17)
(1766.96 -376.951 4.97422e-18)
(1353.62 -330.388 -5.21655e-17)
(1396.79 293.176 1.23594e-20)
(1789.41 318.381 -9.81878e-21)
(1857.17 403.123 0)
(1894.08 520.294 0)
(1914.57 595.922 0)
(1942.21 588.251 7.8374e-21)
(1945.31 531.867 0)
(1912.02 441.11 -8.36447e-21)
(1878.74 354.475 0)
(1855.08 264.057 -8.76584e-21)
(1855.06 176.957 0)
(1855.82 85.247 -2.37267e-18)
(1858 -2.77238 2.34945e-18)
(1855.39 -90.6319 0)
(1856.3 -186.819 9.27589e-18)
(1861.57 -268.694 -1.8573e-17)
(1886.56 -366.677 9.16385e-18)
(1919.65 -442.382 0)
(1950.73 -544.064 1.72691e-17)
(1941.21 -597.339 -1.60461e-17)
(1910.3 -600.042 3.62831e-17)
(1891.09 -526.373 -3.19015e-17)
(1862.14 -395.016 0)
(1782.01 -323.641 0)
(1372.55 -308.927 0)
(1401.18 283.089 -1.23193e-20)
(1789.03 295.988 9.72539e-21)
(1860.79 329.507 0)
(1911.34 447.409 0)
(1927.27 544.472 0)
(1953.84 557.057 -7.9374e-21)
(1957.4 516.8 0)
(1926.05 435.447 8.6609e-21)
(1899.83 352.544 0)
(1886.29 260.809 -8.94921e-18)
(1880.94 172.936 8.98577e-18)
(1886.82 85.0422 -8.42853e-21)
(1886 -0.619479 9.28261e-21)
(1886.65 -86.6742 8.416e-21)
(1881.37 -178.423 0)
(1889.87 -258.584 0)
(1908.48 -359.38 8.85987e-21)
(1933.62 -434.52 -1.71423e-17)
(1961.52 -521.129 1.65683e-17)
(1952.7 -561.228 0)
(1920.72 -548.592 8.00057e-21)
(1905.09 -452.525 0)
(1855.13 -322.984 0)
(1795.56 -301.261 0)
(1403.23 -295.121 0)
(1420.54 268.76 -4.72443e-17)
(1800.61 273.193 3.93921e-17)
(1870.3 280.145 0)
(1917.21 348.835 -1.70575e-20)
(1941.38 493.597 0)
(1968.14 528.883 -1.49498e-17)
(1973.1 491.672 3.24566e-17)
(1941.03 410.945 -1.67162e-17)
(1916.73 335.368 -8.46e-18)
(1901.88 253.437 8.60191e-18)
(1907.53 171.716 4.40225e-21)
(1909.56 83.3797 1.12345e-18)
(1912.42 -2.37762 -1.07777e-18)
(1909.47 -87.5541 8.57882e-18)
(1908.33 -180.69 -8.60418e-18)
(1906.11 -256.806 0)
(1923.26 -346.28 -1.59447e-20)
(1947.01 -412.406 0)
(1978.85 -502.911 0)
(1967.67 -536.639 -1.68113e-17)
(1936.56 -501.279 1.49205e-17)
(1910.35 -349.855 0)
(1863.69 -268.66 3.68252e-17)
(1807.49 -274.472 1.98663e-18)
(1409.95 -267.933 -9.5997e-17)
(1447.34 257.153 4.69668e-17)
(1813.29 255.612 1.86933e-20)
(1879.4 221.12 3.16982e-17)
(1916.45 289.782 -2.35518e-17)
(1948.7 436.77 -1.85289e-17)
(1975.02 480.422 0)
(1982.06 465.981 8.20723e-21)
(1952.53 400.734 1.59798e-17)
(1934.88 328.414 -1.64198e-17)
(1930.02 243.335 0)
(1929.08 160.926 0)
(1935.62 78.3996 -2.59262e-20)
(1934.97 -3.73587 3.2355e-20)
(1935.22 -85.5885 1.68608e-20)
(1928.8 -171.474 4.14894e-18)
(1932.24 -246.625 -4.09612e-18)
(1943 -340.507 8.70675e-21)
(1960.15 -402.812 1.62149e-17)
(1987.46 -472.117 -3.21733e-17)
(1976.07 -483.36 1.46359e-17)
(1946.4 -433.418 -1.5485e-20)
(1908.39 -280.454 0)
(1873.08 -217.825 1.74478e-20)
(1820.59 -257.773 3.9093e-17)
(1432.77 -245.802 -9.28306e-17)
(1458.66 233.393 -4.60736e-17)
(1827.46 237.733 -3.68397e-17)
(1883.39 197.025 3.49763e-17)
(1894.1 196.89 1.4661e-17)
(1957.19 354.661 -1.93052e-17)
(1983.32 438.304 0)
(1995.21 438.291 3.90737e-21)
(1967.26 375.304 -1.15911e-20)
(1951.85 311.667 7.87383e-18)
(1942.28 237.098 -1.60887e-17)
(1950.89 161.768 8.01701e-18)
(1953.34 79.5259 1.9998e-18)
(1956.52 -1.44859 -1.86955e-18)
(1953.07 -81.4857 1.86153e-18)
(1951.35 -168.604 -2.00049e-18)
(1944.8 -237.756 0)
(1955.95 -320.466 1.17404e-20)
(1972.17 -374.961 -3.6979e-21)
(2000.47 -449.037 -1.63719e-17)
(1982.29 -447.772 1.42193e-17)
(1956.56 -364.968 0)
(1883.47 -193.875 0)
(1879.82 -191.392 -4.20118e-21)
(1832.68 -235.559 -3.82243e-17)
(1465.08 -217.283 -1.85793e-18)
(1474.93 214.255 -2.15312e-17)
(1835.83 226.095 1.88054e-17)
(1892.04 180.214 4.22374e-21)
(1903.76 143.833 0)
(1961.44 263.695 1.41005e-17)
(1986.88 370.612 -1.72874e-17)
(1998.3 399.785 3.73348e-21)
(1976.05 359.554 3.80986e-21)
(1967.14 302.561 1.4597e-20)
(1967.91 225.709 -1.91615e-18)
(1969 149.492 9.77872e-19)
(1975.37 73.6056 1.89425e-18)
(1974.6 -3.22102 -9.6958e-19)
(1974.68 -79.4657 3.87056e-18)
(1968.44 -158.791 -3.86268e-18)
(1969.62 -228.291 0)
(1973.75 -314.532 1.06643e-20)
(1981.32 -362.214 -1.57616e-17)
(2002.81 -402.944 1.46617e-17)
(1988.08 -373.879 3.71593e-21)
(1956.83 -257.874 0)
(1892.6 -133.741 0)
(1889.82 -182.459 4.25067e-21)
(1840.04 -227.696 -3.74255e-17)
(1478.87 -198.484 4.34755e-17)
(1502.36 185.462 2.16641e-20)
(1849.51 203.804 0)
(1908.67 164.242 -7.91695e-21)
(1906.69 74.5602 -1.48289e-17)
(1948.35 187.452 1.83103e-17)
(1990.1 322.891 -1.38132e-17)
(2002.37 359.18 1.64213e-17)
(1987.5 324.837 -7.27212e-18)
(1981.76 279.933 7.66269e-18)
(1976.63 214.709 -3.7556e-18)
(1987.06 146.895 3.76644e-18)
(1989.48 71.708 -1.84255e-18)
(1992.58 -3.46248 2.10198e-18)
(1988.84 -77.899 -2.49243e-19)
(1987.09 -157.964 3.75895e-18)
(1978.77 -218.881 -7.52881e-18)
(1985.39 -292.314 -3.99326e-18)
(1993.4 -329.664 7.18138e-18)
(2011.72 -369.116 1.45233e-20)
(1991.93 -325.422 -7.52899e-21)
(1943.65 -183.469 0)
(1897.06 -70.603 0)
(1908.75 -166.624 0)
(1846.14 -206.586 -1.83606e-17)
(1498.61 -174.716 2.11917e-17)
(1511.93 167.713 -2.60414e-21)
(1853.91 183.196 0)
(1924.64 157.356 1.00887e-20)
(1914.63 58.3865 -8.02665e-21)
(1920.79 102.7 -7.51723e-21)
(1985.74 214.76 0)
(2000.27 304.042 -7.29011e-21)
(1991.32 302.401 7.10631e-18)
(1993.4 269.04 -7.58618e-18)
(1999.29 204.705 0)
(2002.31 136.835 1.73357e-21)
(2008.28 68.4104 0)
(2007.57 -2.11168 0)
(2007.55 -72.1032 1.82048e-18)
(2001.43 -144.501 -1.82423e-18)
(2001.19 -206.058 -7.26966e-21)
(1998.37 -280.035 -1.74403e-21)
(1994.12 -307.358 7.23108e-21)
(2003.89 -305.017 -8.3979e-18)
(1992.36 -224.33 6.91092e-18)
(1910.64 -98.794 -1.73531e-17)
(1905.53 -53.844 3.21522e-17)