/*--------------------------------*- C++ -*----------------------------------*\
| =========                 |                                                 |
| \\      /  F ield         | OpenFOAM: The Open Source CFD Toolbox           |
|  \\    /   O peration     | Version:  2112                                  |
|   \\  /    A nd           | Website:  www.openfoam.com                      |
|    \\/     M anipulation  |                                                 |
\*---------------------------------------------------------------------------*/
FoamFile
{
    version     2.0;
    format      ascii;
    arch        "LSB;label=32;scalar=64";
    class       volScalarField;
    location    "0.00463";
    object      T;
}
// * * * * * * * * * * * * * * * * * * * * * * * * * * * * * * * * * * * * * //

dimensions      [0 0 0 1 0 0 0];

internalField   nonuniform List<scalar> 
13875
(
1412.03
1535.6
1482.56
1487.56
1481.04
1483.49
1483.49
1483.11
1483.81
1484.45
1484.5
1483.95
1483.49
1484.1
1484.01
1483.59
1482.8
1484.59
1482.6
1483.49
1480.99
1487.71
1480.73
1533.45
1398.63
1307.06
1356.21
1319.14
1322.28
1316.55
1317.18
1317.14
1317.67
1322.3
1323.75
1323.96
1323.09
1317.99
1317.88
1318.48
1322.49
1322.18
1322.37
1317.49
1317.1
1315.83
1321.89
1319.64
1356.6
1302.84
1307.27
1340.09
1314.42
1311.58
1303.79
1304.21
1303.65
1303.55
1303.46
1305.21
1306.13
1304.08
1303.88
1304.2
1304.1
1305.41
1302.83
1305.77
1304.07
1304.7
1303.61
1310.82
1311.5
1336.06
1296.44
1317.41
1344.82
1314.85
1308.5
1304.92
1304.67
1303.81
1303.66
1302.98
1303.37
1303.66
1303.32
1303.9
1304.23
1304.22
1303.73
1302.06
1303.98
1303.97
1304.96
1304.21
1307.4
1313.9
1343.51
1311.98
1329.57
1342.16
1315.87
1312.17
1303.3
1304.01
1303.85
1303.81
1303.18
1303.47
1303.73
1303.42
1304.02
1304.36
1304.23
1303.53
1302.19
1304.5
1304.36
1305
1303.41
1311.51
1312.09
1338.61
1316.53
1332.25
1351.17
1319
1309.69
1306.71
1306.02
1304.62
1304.09
1303.38
1303.67
1303.98
1303.71
1304.33
1304.66
1304.68
1303.92
1302.44
1304.11
1304.49
1306.36
1306.13
1308.11
1318.84
1349.16
1326.8
1339.02
1360.48
1329.19
1317.22
1306.58
1306.04
1305.1
1304.88
1304.19
1304.09
1304.38
1304.31
1304.98
1305.29
1305.06
1304.11
1303.22
1305.34
1305.67
1306.76
1306.72
1317.24
1325.83
1358.29
1321.81
1359.79
1384.7
1344.17
1321.01
1315.69
1311.43
1308
1306.4
1305.26
1305.17
1305.61
1305.63
1306.23
1306.6
1306.43
1305.25
1304.42
1306.13
1307.05
1311.29
1314.6
1320.33
1341.12
1380.97
1350.23
1536.83
1507.87
1387.19
1350.79
1322.01
1315.31
1311.56
1309.78
1308.22
1307.85
1307.84
1308.02
1308.78
1309.19
1308.77
1307.66
1307.31
1309.67
1311.41
1315.31
1321.44
1348.13
1383.97
1507.45
1521.87
1835.15
1574.53
1428.15
1361.5
1341.24
1325.59
1318.28
1315.28
1313.59
1313.07
1313.17
1313.28
1314.07
1314.55
1314.12
1313.06
1312.81
1315.34
1317.32
1324.59
1337.3
1360.48
1424.97
1565.72
1827.79
2509.19
1803.73
1521.95
1429.75
1358.01
1340.13
1331.34
1327.39
1325.16
1324.38
1324.28
1324.29
1325.14
1325.8
1325.48
1324.76
1324.34
1327.35
1330.61
1338.43
1355.66
1419.19
1511.73
1807.09
2440.69
2814.66
2301.89
1769.06
1482.07
1425.86
1385.48
1362.92
1355.32
1351.98
1350.79
1350.46
1350.23
1350.85
1351.72
1351.71
1351.74
1351.62
1355.62
1362.27
1387.28
1415.62
1469.74
1732.4
2292.36
2840.69
2792.1
2678.02
2424.08
2271.41
1577.41
1475.82
1452.19
1438.06
1432.49
1430.03
1429.14
1428.6
1428.48
1429.51
1430.14
1431.53
1432.91
1439.91
1454.39
1482.16
1618.39
2317.42
2376.24
2698.76
2780.44
2709.46
2661.89
2803.94
2792.32
2045.18
2003.23
1805.47
1711.57
1691.31
1682.99
1679.07
1677.18
1675.4
1676.72
1678.95
1683.81
1691.89
1715.5
1818.62
2080.28
2028.04
2814.52
2812.76
2698.67
2697.12
2635.41
2705.95
2767.31
2772.45
2775.59
2901.62
2761.36
2872.21
2932.38
2915.13
2909.09
2896.66
2892.65
2894.55
2901.23
2907.28
2915.82
2875.51
2760.76
2956.54
2794.52
2799.69
2798.43
2695.29
2649.5
2507.66
2570.61
2754.95
2883.61
2928.26
3230.24
3458.64
3646.85
3655.7
3643.59
3638.83
3633.13
3631.5
3631.42
3633.56
3635.62
3644.94
3648.29
3467.02
3265.49
2939.93
2904.56
2760.91
2590.75
2550.67
2410.37
2534.74
2646.29
2763.48
2885.27
3139.46
3307.35
3526.6
3613.82
3627.42
3627.31
3624.87
3625.24
3625.26
3625.94
3625.08
3615.49
3523.32
3343.99
3202.45
2921.06
2802.65
2666.36
2535.27
2417.52
2167.9
2333.46
2658.37
2864.25
2853.96
3076.99
3297.64
3485.8
3556.19
3563.12
3577.71
3586.87
3589.81
3587.25
3570.45
3543.99
3530.4
3454.99
3289.26
3049.42
2875.86
2887.43
2633.29
2319.31
2167.13
2026.78
2138.62
2426.09
2644.26
2708.04
2854.93
3055.51
3281.06
3429.5
3488.42
3502.46
3504.56
3507.66
3504.35
3494.75
3475.72
3424.9
3299.2
3089.13
2872.25
2741.28
2674.21
2421.48
2129.76
2033.2
2175.76
2071.32
2342.13
2456.81
2526.96
2641.96
2811.41
3039.63
3225.37
3328.34
3353.67
3357.69
3357.27
3355.38
3345.37
3322.05
3228.71
3061.39
2834.66
2651.14
2546.16
2433.81
2279.98
2086.78
2172.7
3215.15
2394.09
2169.38
2289.64
2379.46
2494.88
2634.95
2849.63
3051.57
3176.54
3226.39
3235.08
3238.68
3232.68
3221.3
3169.99
3046.22
2856.62
2642.07
2496.47
2388.04
2264.87
2158.02
2410.73
3278.73
3216.32
2199.19
1995.44
2146.78
2243.1
2368.72
2493.12
2695.28
2903.5
3046
3104.2
3126.11
3128.09
3123.78
3097.21
3036.08
2894.71
2696.2
2496.16
2367.89
2247.02
2118.77
1994.53
2221.18
3291.15
3179.73
2178.66
1909.07
2027.61
2126.54
2266.73
2376.02
2566.15
2769.46
2916.26
2990.49
3011.52
3019.25
3008.69
2984.83
2909.78
2764.19
2568.67
2377.33
2262.89
2135.43
2006.3
1898.85
2198.98
3281.98
3046.05
2142.32
1902.62
1960.48
2046.18
2164.34
2276.94
2466.98
2662.57
2806.42
2874.64
2906.07
2910.47
2904.21
2868.53
2799.57
2659.31
2468.6
2278.97
2161.09
2049.89
1932.95
1895.92
2145.82
3050.61
2946.33
2110.96
1915.08
1919.98
1982.41
2078.66
2191.89
2378.49
2562.18
2698.02
2772.9
2796.67
2805.66
2793.56
2766.32
2689.23
2554.29
2373.13
2184.89
2078.36
1991.26
1901.17
1912.62
2145.25
3015.17
2923.87
2159.12
1952.94
1893.67
1932.48
2007.7
2121.9
2300.45
2473.59
2603.82
2667.46
2699.13
2702.93
2697.35
2660.96
2595.11
2469.8
2301.51
2123.09
2004.93
1940.68
1872.59
1940.39
2121.26
2924.79
2862.6
2133.54
1960.47
1882.3
1897.89
1954.22
2063.17
2232.68
2391.67
2509.32
2578.45
2597.64
2606.94
2595.02
2571.05
2500.61
2384.84
2229.77
2058.09
1953.6
1910.55
1875.18
1956.83
2126.16
2898.34
2858.97
2155.2
1977.53
1884.1
1875.08
1912.12
2018.12
2176.31
2322.29
2431.2
2483.35
2511.21
2514.11
2509.29
2475.09
2419.24
2313.78
2172.78
2015.82
1903.9
1881.45
1872.97
1955.92
2154.76
2897.52
2877.15
2167.7
1968.27
1878.04
1861.41
1882.58
1973.78
2118.48
2250.54
2344.66
2404.4
2419.58
2428.89
2417.45
2399.33
2339.26
2245.53
2119.77
1973.7
1882.88
1870.03
1878.51
1961.28
2148.17
2862.05
2905.86
2208.3
1978.13
1877.47
1849.95
1858.84
1948.03
2078.62
2194.61
2281.18
2320.52
2344.74
2346.24
2342.73
2312.35
2269.79
2187.61
2077.04
1947.72
1850.11
1854.49
1868.8
1962.51
2193.49
2881.66
2840.91
2213.65
1961.97
1882.2
1834.13
1850.19
1924.32
2037.54
2138.58
2204.49
2253.65
2263.15
2271.65
2260.91
2248.06
2198.72
2127.4
2032.54
1920.05
1845.52
1840.55
1883.81
1973.69
2230.91
2872.12
2837.35
2224.86
1993.71
1890.94
1820.95
1828.61
1902.12
2005.58
2089.2
2153.02
2179.4
2198.77
2199.35
2198.34
2172.67
2143.91
2084.5
2007.13
1905.45
1822.24
1828.51
1892.44
1986.6
2236.65
2849.22
2805.82
2219.15
2004.07
1883.78
1818.74
1823.22
1887.28
1971.27
2044.94
2085.82
2123.98
2127.69
2135.37
2126.31
2118.57
2080.54
2033.55
1966.21
1887.13
1818.68
1828.19
1895.23
2011.14
2231.93
2831.39
2775.27
2207.4
2055.08
1910.88
1822.24
1802.75
1872.07
1946.9
2003.1
2048.6
2060.93
2074.24
2073.3
2074.09
2053.57
2038.5
1997.85
1945.74
1873
1793.99
1829.13
1909.85
2049.69
2224.14
2809.65
2766.52
2216.39
2078.48
1906.32
1834.33
1799.69
1858.45
1915.6
1963.97
1986.84
2014.78
2013.26
2019.59
2012.42
2010.56
1982.51
1955.29
1910.74
1864.47
1795.99
1845.42
1915.78
2088.17
2209.42
2774.72
2742.77
2204.01
2075.34
1941.31
1841.45
1790.46
1841.43
1894.63
1928.83
1960.02
1961.39
1970.35
1967.52
1969.55
1954.71
1951.38
1925.04
1892.52
1842.4
1786.62
1846.41
1953.7
2086.91
2194.85
2765.42
2709.38
2186.47
2071.28
1960.14
1858.14
1804.41
1836.99
1867.17
1896.14
1905.74
1923.42
1918.18
1923.05
1916.93
1920.29
1901.14
1886.15
1861.12
1841.04
1797.69
1862.37
1980.45
2084.26
2174.85
2735.87
2694.55
2166.98
2067.94
2031.92
1878.87
1809.42
1819.51
1846.98
1862.06
1884.48
1878.83
1883.76
1879.42
1883.55
1873.62
1878.23
1862.48
1841.69
1819.07
1820.6
1875
2051.29
2074
2155.55
2694.68
2674.73
2154.46
2054.53
2018.64
1894.21
1839.86
1828.44
1826.45
1835.18
1834.9
1846.94
1838.51
1842.92
1838.27
1845.06
1831.6
1825.38
1824.06
1832.64
1843.05
1907.58
2043.04
2060.98
2147.96
2673.56
2642.44
2134.84
2026.05
2023.02
1945.04
1851.39
1830.38
1814.06
1807.48
1821.99
1809.68
1811.37
1806.28
1811.74
1804.71
1815.31
1808.3
1806.21
1816.72
1862.92
1953.68
2041.55
2023.05
2142.88
2644.89
2627.66
2130.79
1995.05
2004.49
2004.2
1892.54
1850.03
1806.8
1789.43
1776.56
1782.37
1772.16
1775.74
1772.07
1781.62
1772.4
1779.04
1806.04
1855.73
1888.74
2029.99
2024.05
1993.41
2127.48
2619.16
2597.92
2121.44
1970.22
1994.98
2012.04
1913.5
1850.82
1805.95
1770.97
1772.6
1752.19
1751.2
1745.22
1750.81
1747.6
1768.51
1772.62
1800.16
1854.51
1942.43
2026.42
2005.28
1968.97
2127.85
2597.56
2574.31
2111.16
1950.34
1953.88
1993.01
1978.64
1881.41
1820.15
1773.14
1733.06
1729.61
1717
1719.57
1716.76
1729.4
1727.46
1759.12
1817.09
1893.81
2006.63
2005.93
1964.56
1952.08
2121.46
2580.48
2540.41
2106.72
1935.56
1929.89
1983.63
2031.16
1901.59
1823.59
1764.05
1747.18
1708.8
1701.68
1694.09
1701.42
1704.71
1745.88
1765.26
1821.84
1919.83
2048.53
1990.58
1942.79
1935.65
2103.34
2551.39
2523.8
2101.92
1928.79
1894.94
1948.92
2013.14
1962.48
1844.36
1783.29
1716.21
1696.7
1674.33
1674.27
1674.28
1696.08
1708.91
1774.28
1847.78
2007.23
2025.73
1940.91
1906.69
1932.44
2101.34
2535.48
2490.61
2080.4
1917.06
1882.37
1917.3
2001.22
2051.92
1868.97
1776.12
1749.22
1695.98
1671.81
1658.9
1671.3
1689.31
1750.33
1784.92
1875.51
2051.58
2007.94
1909.68
1893.74
1920.69
2085.08
2503.78
2476.68
2078.79
1916.86
1858.72
1882.45
1972.3
2026.95
1940.96
1817.53
1722.05
1695.01
1657.36
1650.99
1657.9
1692.15
1712.5
1812.72
1956.02
2037.03
1970.92
1874.13
1871.42
1918.58
2074.33
2488.94
2439.24
2057.87
1903.39
1858
1860.78
1928.22
2014.61
2034.4
1842.46
1765.22
1699.52
1672.64
1651.94
1673.16
1694.6
1769.38
1873.09
2038.2
2016.09
1928.47
1856.98
1869.16
1903.96
2058.71
2442.32
2404.98
2045.87
1898.23
1840.73
1840.89
1895.3
1990.54
2011.75
1949.89
1753.39
1705.83
1658.81
1654.63
1659.23
1705.28
1743.97
1981.77
2018.76
1996.07
1896.23
1835.43
1852.07
1899.69
2046.51
2411.85
2274.56
1999.5
1872.02
1838.87
1831.22
1857.09
1949.69
2000.08
2001.06
1850.31
1728.03
1683.74
1661.98
1684.2
1726.67
1852.48
2004.15
2006.01
1955.06
1863.35
1833.19
1850.78
1871.01
1997.41
2278.32
282.071
282.625
283.234
283.638
283.928
284.126
284.295
284.274
284.125
284.143
284.706
288.535
311.028
348.594
353.271
352.432
350.101
348.144
346.52
344.41
340.524
336.284
332.558
329.579
327.409
326.071
325.641
326.229
328.913
333.207
283.006
283.654
284.076
284.346
284.508
284.503
284.658
284.64
284.743
285.579
290.258
315.665
355.214
359.092
359.113
355.934
352.993
350.815
348.72
346.017
341.486
336.364
331.714
328.122
325.656
324.023
323.181
323.288
325.435
327.383
283.673
284.688
284.743
284.912
284.933
284.933
285.134
285.563
286.763
292.379
320.984
361.624
365.683
364.098
360.467
356.319
353.434
351.17
348.769
346.424
341.817
336.291
331.328
327.667
325.094
323.277
322.114
321.904
323.835
324.936
284.577
285.173
285.204
285.3
285.371
285.829
286.927
289.279
296.349
330.297
365.805
370.702
370.13
366.46
361.553
357.232
353.747
350.987
348.782
346.378
342.073
336.128
331.011
326.861
323.726
321.455
319.936
319.361
320.387
320.159
285.202
285.483
285.475
285.82
286.74
289.315
294.417
304.429
340.479
367.733
373.877
374.569
372.374
367.956
362.703
357.46
352.959
349.871
347.587
345.107
341.158
334.167
328.836
324.631
321.469
319.328
317.778
317.119
317.987
317.719
285.458
285.838
286.047
287.721
292.028
301.791
322.664
347.364
365.061
373.832
376.665
376.794
374.013
369.087
362.417
356.112
351.613
348.788
346.221
343.537
340.08
332.626
327.048
322.601
319.287
317.102
315.512
314.919
315.693
315.501
286.27
287.29
288.689
294.928
308.967
336.056
349.234
360.428
369.696
375.103
378.201
378.506
374.964
368.201
360.641
354.885
350.521
347.662
345.016
342.193
338.985
332.042
325.822
321.214
317.791
315.549
314.13
313.694
314.665
314.565
292.689
297.56
301.14
316.338
342.5
352.812
359.576
366.592
371.905
375.692
379.225
379.266
373.89
366.285
359.138
353.548
349.291
346.586
344
341.29
338.275
331.951
325.225
320.54
317.026
314.764
313.454
313.042
313.895
313.587
344.836
365.362
355.631
353.443
358.989
362.455
365.763
370.393
374.034
376.659
379.228
377.946
372.138
364.839
357.593
351.939
347.876
345.426
343.049
340.409
337.491
332.162
324.992
320.197
316.606
314.332
313.076
312.658
313.468
313.152
403.162
408.825
390.171
373.393
370.266
370.612
372.026
375.203
377.539
377.827
378.567
376.784
371.213
363.519
356.163
350.343
346.432
344.239
342.087
339.37
336.584
332.385
324.936
320.035
316.39
314.11
312.896
312.487
313.131
312.638
410.414
407.524
397.894
391.987
383.52
381.877
383.188
384.78
384.433
382.555
379.949
376.474
370.857
363.048
355.555
349.2
345.099
343.156
341.08
338.168
335.665
332.399
324.92
319.953
316.263
313.982
312.751
312.345
312.755
312.033
409.201
405.709
406.914
416.294
410.788
407.203
406.846
403.808
399.703
392.479
384.587
377.084
371.121
363.183
355.62
348.836
344.212
342.233
340.054
337.034
334.656
332.152
324.835
319.799
316.036
313.758
312.41
311.951
312.088
311.115
407.286
412.733
428.385
454.077
470.037
463.999
455.238
440.443
426.86
410.443
394.56
380.52
373.264
364.587
356.789
348.979
343.999
341.469
339.089
336.135
333.503
331.605
324.534
319.363
315.552
313.239
311.746
311.236
311.214
310.132
407.079
427.151
476.001
534.12
579.714
582.315
551.351
509.049
474.181
440.611
412.228
388.348
377.691
370.322
359.643
350.014
344.277
341.065
338.322
335.318
332.315
330.748
323.946
318.703
314.812
312.458
310.93
310.382
310.204
308.925
410.92
456.35
571.788
699.35
799.778
803.149
728.195
630.547
553.13
487.881
439.937
401.987
386.391
378.761
363.942
351.959
345.107
340.989
337.794
334.404
331.153
329.442
322.974
317.823
313.923
311.608
310.161
309.575
309.283
307.84
425.746
516.599
764.033
1022.25
1195.2
1170.64
1022.67
834.66
678.523
558.008
478.023
422.149
399.402
388.668
369.506
355.019
346.587
341.379
337.552
333.506
330.057
327.765
321.662
316.696
312.95
310.781
309.451
308.864
308.467
306.928
453.816
638.397
1114.9
1480.89
1477.44
1369.41
1227.52
1072.89
864.4
650.852
525.367
448.712
415.673
400.504
377.109
358.925
348.384
342.127
337.554
332.908
329.037
325.973
320.227
315.396
311.96
309.964
308.751
308.167
307.605
305.901
496.279
860.086
1532.19
1638.26
1509.16
1375.92
1248.84
1141.44
1006.13
765.582
579.275
479.858
434.879
413.763
385.909
363.514
350.612
343.266
337.576
332.489
327.969
324.251
318.819
314.175
311.009
309.172
308.071
307.483
306.687
304.824
566.173
1188.25
1667.99
1650.57
1461.89
1308.49
1200.83
1127.21
1032.48
864.68
638.701
514.568
456.706
426.654
395.209
369.168
353.384
344.824
337.795
332.301
327.148
322.786
317.554
312.99
310.163
308.463
307.437
306.81
305.755
303.779
670.906
1502.63
1708.06
1648.36
1413.59
1215.67
1103.25
1062.02
1016.65
893.604
698.361
545.834
476.959
440.916
405.177
374.97
356.632
346.858
338.282
332.34
326.547
321.885
316.199
312.061
309.456
307.9
306.885
306.201
304.909
302.897
798.908
1640.84
1730.55
1653.54
1403.27
1183.92
1026.23
973.842
957.977
891.052
725.839
568.243
493.072
453.545
415.279
380.221
360.166
348.794
338.843
332.757
325.895
321.503
315.036
311.652
309.033
307.614
306.529
305.719
304.25
302.208
932.711
1705.55
1756.88
1681.63
1424.86
1184
997.143
906.292
881.633
857.312
727.712
585.364
504.764
463.965
426.025
385.962
364.125
350.756
339.8
333.405
325.712
321.359
314.738
311.575
308.814
307.373
306.212
305.262
303.729
301.601
1125.21
1778.01
1782.57
1733.77
1493.81
1205.82
990.723
868.358
819.775
808.456
724.463
596.347
514.424
469.204
441.194
392.725
368.182
352.309
340.776
334.28
326.239
321.431
314.829
311.589
308.696
307.195
305.866
304.838
303.245
301.013
1116.95
1802.72
1812.22
1785.21
1568.6
1256.58
999.425
852.985
777.659
755.716
712.269
600.587
519.241
474.537
454.188
400.386
372.817
355.018
342.229
334.324
327.005
321.317
314.833
311.702
308.643
307.163
305.704
304.409
302.736
300.581
1149.42
1862.31
1832.92
1820.52
1637.89
1324.71
1036.91
850.458
757.281
712.988
687.049
600.986
518.03
475.974
459.339
413.044
379.763
357.626
343.035
334.639
327.143
321.791
315.177
312.21
308.864
307.326
305.664
304.034
302.277
300.146
333.422
329.047
326.369
325.835
326.348
327.761
330.011
333.105
336.886
341.188
344.912
347.104
348.857
350.786
353.075
353.982
349.859
314.126
289.332
285.024
284.331
284.258
284.357
284.464
284.267
284.084
283.841
283.466
282.85
282.285
327.653
325.66
323.532
323.489
324.41
326.104
328.652
332.359
337.027
342.084
346.367
349.067
351.398
353.589
356.479
359.677
359.862
356.258
320.015
291.37
285.98
284.967
284.817
284.784
284.708
284.677
284.472
284.205
283.796
283.247
325.235
324.093
322.194
322.475
323.717
325.579
328.239
331.986
337.046
342.357
346.695
349.076
351.607
353.952
356.812
360.888
364.618
366.374
362.753
326.292
293.889
287.356
285.985
285.396
285.177
285.145
285.027
284.781
284.581
283.855
320.537
320.731
319.738
320.384
321.985
324.28
327.499
331.756
336.775
342.497
346.504
349.021
351.307
354.127
357.661
361.96
366.864
370.671
371.326
366.901
336.007
298.523
290.529
287.669
286.294
285.654
285.469
285.216
285.154
284.605
318.14
318.39
317.57
318.283
319.901
322.069
325.305
329.578
334.964
341.388
345.072
347.629
350.036
353.158
357.751
363.072
368.37
372.828
375.017
374.329
368.348
344.875
308.886
296.759
290.538
287.287
286.094
285.565
285.536
285.181
315.925
316.12
315.393
316.064
317.73
319.955
323.355
327.838
333.417
340.152
343.51
346.23
348.794
351.716
356.315
362.661
369.455
374.484
377.132
376.881
373.62
364.872
349.464
328.491
305.085
293.622
288.419
286.332
285.998
285.587
314.989
315.099
314.169
314.684
316.178
318.459
321.971
326.642
332.768
339.027
342.26
345.083
347.634
350.561
355.069
360.869
368.468
375.358
378.781
378.159
374.73
369.483
360.671
350.206
339.906
312.758
297.089
289.892
288.262
286.853
314.029
314.341
313.527
314.023
315.375
317.674
321.278
326.003
332.628
338.251
341.326
344.041
346.508
349.249
353.632
359.329
366.588
374.207
379.338
379.021
375.357
371.911
366.535
359.701
354.216
345.803
321.288
306.783
303.697
296.48
313.607
313.951
313.163
313.648
314.924
317.24
320.893
325.705
332.72
337.382
340.411
343.016
345.289
347.752
351.919
357.726
365.128
372.495
377.815
378.809
376.447
374.181
370.409
365.91
363.271
361.01
358.586
371.47
383.937
362.902
313.123
313.64
313.005
313.468
314.697
317.007
320.687
325.587
332.786
336.392
339.353
341.994
344.035
346.24
350.295
356.301
363.842
371.533
376.671
378.334
377.981
378.043
375.624
372.699
371.616
372.173
377.167
392.284
408.961
404.537
312.533
313.279
312.871
313.327
314.568
316.854
320.561
325.522
332.67
335.403
338.099
340.938
342.896
344.84
349.146
355.724
363.441
371.108
376.349
380.262
383.521
385.785
386.192
385.151
384.387
387.227
397.733
398.753
406.408
409.755
311.578
312.588
312.472
312.979
314.341
316.593
320.335
325.366
332.285
334.415
336.844
339.869
341.967
343.935
348.75
355.823
363.584
371.238
377.179
385.732
394.423
402.301
407.053
411.358
413.408
420.696
420.968
408.46
405.788
408.217
310.557
311.678
311.731
312.283
313.809
316.072
319.836
324.986
331.596
333.3
335.851
338.877
341.285
343.734
348.897
357.065
365.334
373.166
381.231
396.914
413.974
431.69
447.252
465.289
477.636
482.832
462.148
432.559
413.524
406.632
309.338
310.637
310.841
311.417
312.99
315.301
319.105
324.317
330.594
332.145
335.037
338.102
340.876
343.995
349.966
360.006
371.332
377.558
389.932
416.323
446.458
483.154
522.478
570.545
607.082
602.984
550.553
484.549
429.188
406.531
308.208
309.677
309.993
310.597
312.081
314.388
318.178
323.258
329.184
331.036
334.206
337.557
340.821
344.795
351.942
364.414
380.002
387.067
404.358
446.212
497.508
569.383
655.145
762.747
847.686
842.928
730.37
589.975
461.494
412.327
307.243
308.816
309.241
309.84
311.201
313.388
317.023
321.901
327.511
329.984
333.414
337.353
341.132
346.304
355.167
370.035
390.139
400.612
425.631
486.906
573.387
706.038
876.082
1072.94
1226.51
1254.59
1078.33
797.852
527.876
429.099
306.194
307.912
308.51
309.093
310.335
312.347
315.692
320.355
325.817
329.013
332.889
337.428
341.865
348.103
359.145
377.609
402.284
417.475
453.791
537.323
673.561
904.083
1103.44
1249.64
1386.87
1491.79
1515.76
1168.66
661.258
458.752
305.06
306.938
307.786
308.363
309.488
311.334
314.417
318.922
324.154
327.981
332.497
337.52
343.044
350.311
364.132
386.268
415.743
437.849
486.227
595.817
797.997
1031.72
1158.71
1261.46
1384.23
1511.2
1641.38
1559.28
900.863
504.437
303.975
305.957
307.057
307.66
308.697
310.412
313.225
317.683
322.865
327.187
332.242
337.805
344.662
353.222
370.085
395.447
428.87
460.018
522.303
659.467
891.638
1049.24
1136.25
1204.1
1309.67
1461.22
1649.31
1672.35
1236.22
578.088
303.055
305.069
306.38
307.034
308.023
309.615
312.231
316.419
322.089
326.581
332.259
338.356
346.697
356.659
376.241
405.617
441.324
479.376
551.961
716.689
911.483
1024.49
1062.58
1103.94
1223.99
1420.72
1650.01
1710.08
1529.51
687.481
302.33
304.364
305.835
306.613
307.681
309.121
311.764
315.243
321.681
325.996
332.717
339.031
348.668
360.261
381.902
416.287
453.066
495.201
574.947
738.34
902.171
957.93
973.727
1034.62
1199.67
1414.08
1656.38
1733.22
1653.76
815.728
301.661
303.763
305.335
306.311
307.447
308.902
311.637
314.865
321.551
325.851
333.501
340.017
350.845
364.25
387.652
427.749
463.006
506.978
592.499
737.219
861.401
880.415
909.128
1008.57
1201.12
1441.27
1690.98
1760.26
1713.14
945.948
301.096
303.302
304.901
305.969
307.282
308.803
311.62
314.921
321.684
326.381
334.397
341.014
352.564
368.276
394.288
444.451
468.842
517.841
602.376
729.553
807.554
819.67
873.089
1003.73
1226.1
1510.88
1744.18
1788.87
1783.92
1138.58
300.597
302.79
304.47
305.784
307.246
308.773
311.666
314.87
321.723
327.101
334.573
342.362
355.232
373.245
401.815
453.974
473.777
521.557
606.833
713.303
753.941
779.103
859.347
1014.07
1282.37
1585.21
1793.37
1817.53
1808.6
1130.37
300.133
302.288
304.069
305.735
307.38
309.058
312.073
315.29
322.309
327.33
334.794
343.25
358.039
380.85
415.23
457.762
475.094
519.708
606.667
688.237
714.341
760.921
857.467
1053.91
1353.47
1658.44
1830.16
1838.51
1864.32
1160.81
920.67
906.683
902.897
894.306
893.527
890.353
885.024
879.864
876.82
874.032
872.362
871.312
869.083
866.093
863.089
858.763
853.945
850.099
847.769
845.902
842.909
838.891
835.22
831.817
826.95
821.206
815.69
809.37
802.659
797.406
791.572
785.454
778.535
771.471
764.621
757.501
749.926
742.157
734.235
726.01
716.73
706.552
695.892
684.369
672.424
659.71
645.652
633.774
623.96
614.775
605.356
596.768
589.485
582.298
575.461
569.559
564.037
558.736
553.841
549.245
545.147
541.366
537.981
534.817
532.162
529.691
527.172
524.485
521.546
518.489
515.432
512.528
509.743
507.068
504.565
502.151
499.588
496.867
493.419
488.743
482.651
475.279
467.415
459.214
450.724
441.847
432.795
423.86
415.292
407.184
399.49
392.174
385.283
378.875
373.004
367.685
362.896
358.556
354.591
350.919
347.48
344.226
341.12
338.118
335.242
332.415
329.557
326.734
323.918
321.09
318.303
315.676
313.216
310.976
308.817
306.829
305.03
303.592
302.801
301.538
300.564
300.052
299.696
299.687
299.807
889.555
884.587
882.727
878.932
875.379
875.509
873.457
872.53
870.607
869.936
869.01
867.246
865.32
863.178
860.446
857.227
854.607
852.769
851.723
850.881
849.026
846.432
844.856
843.969
842.29
840.335
838.372
836.487
835.335
835.167
836.409
839.451
842.954
848.073
855.781
865.864
876.649
881.8
882.707
879.318
868.777
852.212
833.222
812.01
788.112
759.449
730.934
702.776
677.022
654.342
635.769
620.817
609.353
598.881
589.712
581.798
574.885
568.589
562.765
557.407
552.848
549.081
545.602
542.391
539.817
537.779
535.917
534.154
532.38
530.645
528.744
526.81
524.77
522.743
520.934
519.633
519.715
518.638
517.05
514.813
510.454
504.114
497.288
489.95
481.868
472.638
462.222
450.551
437.709
424.858
414.117
404.217
394.87
386.421
378.997
372.6
367.006
362.06
357.636
353.588
349.825
346.287
342.944
339.747
336.709
333.749
330.794
327.896
325.019
322.166
319.367
316.733
314.299
312.082
309.933
308.077
306.401
305.118
304.421
303.308
302.51
302.102
301.815
301.811
301.939
896.042
892.854
895.15
891.307
891.875
898.936
899.35
896.377
894.25
892.614
889.836
886.847
884.495
880.554
876.631
873.784
872.158
870.45
869.343
868.869
868.563
868.475
868.892
869.855
871.626
875.073
880.359
888.107
900.665
921.725
952.743
992.202
1037.54
1089.37
1144.64
1200.09
1249.42
1289.66
1310.74
1312.17
1297.51
1266.09
1223.4
1176.32
1123.41
1058.02
984.9
910.825
838.397
774.145
722.234
684.259
656.383
634.861
618.358
606.196
596.115
587.328
580.261
574.39
568.96
564.218
560.433
557.174
555.434
554.854
555.049
555.662
555.488
554.324
551.936
549.619
547.022
544.636
542.415
540.017
536.402
532.346
528.378
524.077
519.786
514.832
509.652
504.384
499.149
493.861
488.494
483.083
477.199
469.655
458.609
444.292
427.029
410.467
398.279
387.824
379.087
371.903
365.965
360.768
356.118
351.839
347.848
344.069
340.515
337.122
333.821
330.66
327.596
324.693
321.943
319.43
316.966
314.786
312.666
310.803
308.824
307.391
306.668
305.474
304.617
304.133
303.779
303.772
303.872
887.435
884.495
897.985
900.943
907.365
909.586
909.801
908.835
908.119
905.195
901.288
899.676
898.835
896.862
894.358
892.834
892.446
892.428
892.615
893.68
895.826
899.274
904.41
912.549
925.987
946.924
977.595
1020.52
1079.62
1163.05
1281.89
1431.4
1576.21
1698.68
1790.3
1845.69
1871.65
1877.76
1868.63
1847.75
1822.55
1786.35
1746.29
1700.29
1646.12
1583.68
1507.95
1415.73
1299.04
1170.8
1028.59
890.535
789.007
721.438
677.104
647.848
627.485
613.491
603.296
595.995
590.761
587.285
585.958
584.248
583.382
583.131
583.127
583.703
583.432
582.432
580.705
577.198
571.216
566.259
561.134
555.853
550.138
544.997
540.096
535.528
531.074
526.331
521.486
516.622
511.779
506.84
501.734
496.54
491.453
486.472
481.629
477.035
471.543
461.449
444.406
423.885
405.095
392.584
382.155
373.716
366.937
361.017
355.801
351.165
347.054
343.236
339.567
336.051
332.627
329.221
326.08
323.321
320.755
318.493
316.149
314.21
312.2
310.757
309.838
308.509
307.578
306.838
306.262
305.907
305.807
877.329
880.226
897.44
903.964
910.033
909.934
909.51
909.949
913.085
914.616
915.955
918.045
918.647
919.104
920.241
922.702
926.038
930.071
934.329
939.183
945.601
956.245
974.356
1002.38
1043.68
1108.27
1209.47
1356.61
1545.32
1739.02
1913.83
2033.76
2080.76
2090.46
2085.4
2072.44
2054.49
2035.57
2015.25
1989.38
1961.27
1930.65
1899.68
1867.41
1834.64
1799.87
1760.95
1713.46
1656.19
1572.45
1465.2
1322.02
1152.12
973.571
832.381
744.94
692.988
660.701
639.327
628.386
621.315
618.798
621.186
623.076
624.471
626.602
625.816
623.828
621.009
616.877
611.63
606.392
600.088
593.413
586.565
579.472
572.612
565.979
559.392
552.947
546.69
540.632
534.775
529.051
523.507
518.096
512.812
507.768
502.839
498.024
493.171
488.207
483.478
478.963
474.727
469.685
460.223
439.512
417.191
398.587
385.941
375.982
368.318
361.697
355.84
350.533
345.733
341.532
337.656
334.08
330.906
327.876
325.099
322.357
320.018
318.163
315.927
313.891
312.563
311.147
309.983
309.101
308.434
307.965
307.632
867.944
882
899.309
906.053
913.068
912.509
914.403
918.434
926.343
933.717
940.202
944.726
948.462
952.255
956.953
961.868
967.604
973.629
982.249
995.319
1015.68
1046.37
1096.99
1180.67
1310.86
1501.79
1745.14
1992.92
2131.33
2167.82
2168.48
2157.43
2142.63
2125.77
2105.77
2081.99
2064.69
2044.16
2024.66
2006.96
1986.92
1962.56
1935.4
1908.73
1882.85
1858.34
1834.87
1809.35
1784.88
1751.11
1703.81
1630.96
1518.51
1365.21
1169.09
983.754
846.274
763.227
712.546
684.311
671.948
668.55
671.072
672.988
669.737
663.797
655.033
648.739
643.397
639.539
635.751
630.7
624.901
618.419
611.642
605.077
598.722
592.182
585.188
578.237
571.317
564.299
557.176
549.9
542.563
535.273
528.181
521.424
514.981
508.812
502.811
497.209
492.061
487.4
483.043
479.249
475.997
472.972
468.31
458.295
432.493
408.902
391.71
378.975
369.545
361.994
355.567
349.969
344.974
340.584
336.633
333.052
330.13
327.212
324.576
322.169
319.703
317.803
316.044
314.501
313.27
312.306
311.393
310.499
309.65
864.408
883.926
899.6
906.315
915.061
916.69
923.842
933.397
944.284
954.127
965.305
976.631
988.451
999.943
1011.96
1023.61
1036.37
1052.48
1072.68
1102.43
1151.13
1235.94
1377.35
1587.87
1870.32
2125.31
2210.53
2221.45
2215.3
2201.78
2186.14
2170.62
2155.19
2137.96
2116.79
2105.49
2087.65
2063.55
2038.88
2017.07
1996.79
1980.29
1962.44
1940.7
1915.59
1891.87
1870.56
1851.72
1837.37
1819.61
1800.45
1769.49
1723.66
1645.37
1515.92
1342.21
1158.36
989.728
873.069
807.333
773.462
747.687
731.384
719.151
706.589
695.05
686.194
678.537
672.968
670.547
668.899
664.101
657.663
651.058
644.198
637.068
629.722
622.023
613.886
605.696
597.605
589.802
582.288
574.738
566.935
558.845
550.571
542.321
534.054
525.963
518.1
510.713
503.834
497.556
492.091
487.365
483.142
479.176
475.636
472.552
469.491
465.054
449.896
419.465
398.626
383.545
372.285
363.499
356.233
350.163
345.021
340.345
336.2
332.469
328.972
326.722
324.565
322.457
320.673
318.99
317.148
315.393
314.172
313.392
312.799
865.264
887.389
895.866
905.893
915.833
919.711
931.024
944.369
959.136
973.259
989.139
1008.69
1032.06
1057.26
1084.8
1118.83
1154.51
1192.22
1240.68
1315.72
1431.8
1603.22
1850.9
2120.23
2233.22
2250.79
2241.89
2234.9
2223.9
2210.98
2200.78
2191.47
2179.75
2156.62
2145.33
2139.7
2131.95
2119.22
2097.6
2069.57
2043.15
2019.8
2000.34
1982.54
1962.54
1940.27
1918.17
1899.6
1883.28
1869.51
1856.12
1842.97
1829.51
1802.1
1739.14
1627.72
1481.58
1314.47