/*--------------------------------*- C++ -*----------------------------------*\
| =========                 |                                                 |
| \\      /  F ield         | OpenFOAM: The Open Source CFD Toolbox           |
|  \\    /   O peration     | Version:  2112                                  |
|   \\  /    A nd           | Website:  www.openfoam.com                      |
|    \\/     M anipulation  |                                                 |
\*---------------------------------------------------------------------------*/
FoamFile
{
    version     2.0;
    format      ascii;
    arch        "LSB;label=32;scalar=64";
    class       volScalarField;
    location    "0.00742";
    object      alphat;
}
// * * * * * * * * * * * * * * * * * * * * * * * * * * * * * * * * * * * * * //

dimensions      [1 -1 -1 0 0 0 0];

internalField   nonuniform List<scalar> 
13875
(
0.11986
0.081601
0.0784514
0.0782794
0.0783257
0.0783825
0.0782651
0.0782501
0.0783422
0.0783313
0.0782842
0.0783013
0.0783762
0.0784124
0.0783946
0.0782977
0.0782559
0.0782943
0.078303
0.0783546
0.078321
0.0782651
0.0784877
0.0814785
0.120899
0.103938
0.0576786
0.0570819
0.0571604
0.0566533
0.0566641
0.0570223
0.0570918
0.0571898
0.0572261
0.0571653
0.057118
0.0566507
0.0566123
0.0566674
0.0570979
0.0571187
0.0571517
0.0570743
0.05668
0.0566742
0.057139
0.0570688
0.05734
0.104514
0.110618
0.0553239
0.0558751
0.0547241
0.0545705
0.0544523
0.0542338
0.0541822
0.0541858
0.0542675
0.0543054
0.0543588
0.0542533
0.054277
0.0542404
0.0543494
0.054108
0.0542513
0.0542811
0.054452
0.0545302
0.0546028
0.0557828
0.0550679
0.111299
0.115884
0.0546439
0.0553811
0.0543158
0.0540318
0.0539061
0.0536421
0.0534966
0.0534562
0.0534606
0.0533861
0.0534933
0.0537089
0.0537411
0.0536926
0.0534825
0.0533636
0.053462
0.0536345
0.0539068
0.0539992
0.0542024
0.055192
0.0542968
0.115913
0.121031
0.0546334
0.0551202
0.0537434
0.0536705
0.0534779
0.0531329
0.0529991
0.052964
0.052963
0.0528917
0.0530042
0.05323
0.0532669
0.0532158
0.0529939
0.052876
0.0529537
0.0531091
0.0534758
0.0536069
0.053612
0.0550169
0.0543289
0.12143
0.124407
0.054745
0.0551863
0.0536067
0.0532904
0.0530864
0.0527303
0.0525652
0.0525262
0.0525289
0.0524564
0.0525468
0.052791
0.0528543
0.0527671
0.0525385
0.052447
0.0525449
0.0527334
0.0530543
0.053238
0.0535046
0.0548792
0.054393
0.124046
0.128745
0.0564749
0.0557825
0.0534518
0.0532702
0.0528532
0.0523752
0.0521919
0.0521404
0.0521412
0.0520665
0.0521694
0.0524271
0.0524827
0.0523996
0.0521489
0.0520761
0.0521604
0.0523577
0.052861
0.0531941
0.053363
0.0556405
0.0563581
0.128915
0.135703
0.0611974
0.057835
0.0544131
0.053411
0.0528434
0.0521996
0.0519436
0.0518613
0.0518627
0.0517616
0.0518399
0.0521302
0.0521934
0.0520862
0.0518227
0.0518057
0.0519224
0.0522183
0.0527881
0.0533242
0.0542753
0.0575109
0.0610287
0.135503
0.151307
0.0692463
0.0615445
0.0559152
0.0544068
0.0531133
0.0522023
0.0518319
0.0516946
0.0516791
0.0515889
0.0516474
0.0519705
0.0520382
0.0519285
0.0516268
0.0516553
0.0518013
0.0521611
0.0530903
0.0542229
0.055613
0.0610271
0.0684076
0.154171
0.239334
0.0874431
0.0664648
0.0590102
0.0553898
0.0537127
0.0524631
0.0520029
0.0518217
0.0517215
0.0516674
0.0517038
0.0520507
0.0521243
0.0520125
0.0517233
0.0517685
0.0519483
0.0524365
0.0536024
0.0552554
0.0586497
0.0660042
0.0866756
0.241185
0.365409
0.118427
0.0760123
0.0629397
0.0575399
0.0547598
0.0531489
0.0525907
0.0523325
0.0521725
0.0521612
0.052174
0.0525128
0.0525948
0.0525143
0.0522847
0.0523255
0.0525583
0.0530352
0.0546129
0.0573143
0.0616103
0.0748135
0.113005
0.365637
0.658298
0.193062
0.104078
0.0743657
0.0612242
0.0573752
0.0552217
0.0542092
0.0537231
0.0534748
0.0534371
0.0534378
0.0537168
0.0538273
0.053808
0.0537062
0.0537838
0.0541805
0.0551146
0.0568568
0.0618672
0.0733543
0.100137
0.182852
0.643574
0.582134
0.43595
0.176382
0.0924186
0.0767874
0.0649867
0.0597074
0.057882
0.0569753
0.0566082
0.0564908
0.0564671
0.0566321
0.0567775
0.0568601
0.0569271
0.0571717
0.0579795
0.0598116
0.06528
0.0762469
0.0895033
0.171871
0.433624
0.581255
0.491736
0.40055
0.347824
0.326835
0.115979
0.0810598
0.0734658
0.0676203
0.0652152
0.064445
0.0640656
0.0638987
0.0639377
0.0641165
0.0643967
0.0648639
0.0657606
0.0684054
0.0749641
0.0834056
0.13094
0.328453
0.337206
0.401301
0.500085
0.408575
0.350025
0.330124
0.333489
0.303918
0.195434
0.125117
0.0948329
0.0868032
0.0862108
0.0856737
0.0853843
0.0854117
0.0856105
0.0860754
0.0869946
0.0877754
0.0954182
0.133392
0.210124
0.303265
0.33018
0.331361
0.360182
0.421478
0.330107
0.293384
0.282049
0.300793
0.315045
0.32233
0.241649
0.191456
0.170897
0.148569
0.136399
0.132348
0.130827
0.131563
0.13436
0.143077
0.171514
0.195463
0.247922
0.325031
0.308201
0.303445
0.291235
0.298339
0.341857
0.239444
0.227598
0.226083
0.26523
0.321256
0.406888
0.535004
0.571577
0.54587
0.541563
0.563234
0.577138
0.584764
0.581522
0.568458
0.55745
0.545622
0.575747
0.538501
0.405421
0.314985
0.266827
0.230712
0.234583
0.252012
0.141086
0.152583
0.185981
0.228574
0.317469
0.438953
0.570333
0.623771
0.56065
0.510035
0.495058
0.492201
0.495369
0.494165
0.498692
0.528231
0.564576
0.61477
0.578956
0.448389
0.318116
0.230652
0.178824
0.143631
0.131658
0.0683471
0.102448
0.16332
0.249728
0.353628
0.410469
0.475578
0.534583
0.49723
0.448136
0.430587
0.428773
0.43046
0.433385
0.438296
0.456947
0.491233
0.530748
0.491641
0.424899
0.37341
0.269295
0.167879
0.104156
0.0701301
0.0260384
0.0515101
0.112764
0.234167
0.352368
0.362361
0.384644
0.426613
0.424305
0.40058
0.388901
0.383994
0.381402
0.388894
0.395983
0.402703
0.412764
0.415775
0.387948
0.37301
0.36667
0.240141
0.115172
0.0519284
0.0255969
0.0727562
0.0820005
0.110894
0.188508
0.276503
0.28534
0.307261
0.352176
0.370082
0.360234
0.348075
0.337739
0.332659
0.343299
0.354552
0.359836
0.357177
0.339385
0.306377
0.291689
0.283795
0.188648
0.111624
0.0841963
0.0782738
0.119053
0.133909
0.123206
0.156384
0.208293
0.224328
0.252607
0.299346
0.323802
0.319711
0.307111
0.293867
0.287395
0.299245
0.313014
0.318253
0.311288
0.287457
0.247564
0.225922
0.211236
0.154473
0.123283
0.135962
0.121198
0.160357
0.138448
0.126373
0.13389
0.162891
0.180203
0.212753
0.256415
0.281767
0.280416
0.267388
0.253169
0.246813
0.257546
0.271866
0.27773
0.269599
0.247593
0.206965
0.180256
0.164912
0.134526
0.126289
0.142301
0.163713
0.202908
0.165381
0.129279
0.123396
0.138374
0.154761
0.180856
0.220614
0.243832
0.243401
0.230775
0.217711
0.211867
0.221758
0.23511
0.240871
0.232391
0.212453
0.176824
0.153514
0.138512
0.12311
0.129354
0.175955
0.202447
0.223759
0.199283
0.132768
0.1184
0.121338
0.134435
0.157131
0.188771
0.208967
0.209483
0.198728
0.186798
0.182209
0.190681
0.20329
0.20866
0.200454
0.182581
0.154584
0.133265
0.121761
0.120102
0.134024
0.214056
0.222016
0.245889
0.230727
0.133893
0.114853
0.111214
0.121484
0.138613
0.164689
0.180774
0.180898
0.171893
0.161619
0.157292
0.16484
0.175589
0.179831
0.173206
0.158653
0.136363
0.120314
0.111481
0.11598
0.135238
0.241578
0.244108
0.271329
0.249257
0.135477
0.111792
0.104315
0.109065
0.124263
0.143426
0.155794
0.15569
0.148299
0.139506
0.136391
0.142654
0.152099
0.155694
0.150203
0.13851
0.122025
0.108328
0.104985
0.113317
0.138508
0.264367
0.266365
0.299208
0.27067
0.135904
0.107663
0.0985286
0.10168
0.112445
0.126942
0.13554
0.134695
0.128737
0.121835
0.118846
0.124622
0.132527
0.135766
0.132024
0.123045
0.110278
0.100962
0.099999
0.109152
0.139239
0.286577
0.294877
0.328576
0.300244
0.141332
0.105373
0.0963461
0.0944536
0.102437
0.112364
0.118645
0.11772
0.112667
0.106365
0.104135
0.108661
0.115349
0.118057
0.115427
0.109088
0.100914
0.0941228
0.0968829
0.106267
0.142858
0.304397
0.322493
0.35568
0.314869
0.143249
0.101829
0.0918908
0.0905194
0.0949974
0.101269
0.104689
0.103005
0.0988084
0.0940081
0.091723
0.096103
0.101669
0.104161
0.102751
0.098227
0.0927527
0.0894025
0.0925761
0.102488
0.145381
0.320707
0.346878
0.369546
0.321367
0.149
0.10063
0.0899861
0.0860908
0.0883526
0.0904511
0.0923446
0.0908102
0.0874637
0.0829569
0.0813159
0.0848209
0.0898501
0.0920149
0.0914102
0.0889151
0.0870156
0.085169
0.0902426
0.101183
0.149407
0.326339
0.367458
0.378135
0.322424
0.154028
0.0990848
0.0858743
0.0816526
0.0829792
0.0833365
0.0835469
0.0813087
0.0780007
0.0744327
0.0725266
0.0758804
0.0800398
0.0821885
0.0824827
0.0812298
0.0812746
0.0804851
0.0855282
0.0991505
0.152435
0.325106
0.381369
0.39546
0.318019
0.159994
0.100438
0.0839875
0.0780433
0.078343
0.0757561
0.0748787
0.07274
0.0700539
0.0664752
0.0651502
0.0678709
0.0718768
0.0737746
0.0746219
0.0747535
0.077064
0.0767879
0.083434
0.0998644
0.1594
0.326324
0.395217
0.403299
0.312981
0.163913
0.100949
0.0807819
0.0744111
0.0730976
0.070348
0.0685523
0.0659443
0.0631933
0.0604279
0.0588823
0.0615893
0.0649933
0.0671024
0.0684902
0.0692061
0.0719444
0.0732025
0.0800015
0.0999493
0.164785
0.319063
0.406958
0.410651
0.310289
0.164301
0.104333
0.0809975
0.0721046
0.0691345
0.0649426
0.0624248
0.0598511
0.0576318
0.0546628
0.0535717
0.0557114
0.05901
0.0607345
0.0626444
0.064433
0.0681806
0.0707039
0.0795824
0.102183
0.168173
0.322569
0.412719
0.417127
0.302388
0.162432
0.106784
0.0810969
0.0687891
0.064719
0.0606108
0.0580622
0.0551357
0.0525799
0.0503069
0.0490351
0.0512482
0.0540569
0.0561696
0.0581522
0.0595958
0.0637606
0.0676271
0.0793995
0.105644
0.167193
0.32132
0.415348
0.422031
0.304095
0.162115
0.112609
0.0830772
0.0674622
0.0618315
0.0560481
0.0532844
0.0504479
0.0485266
0.0460328
0.0451223
0.0468747
0.0497249
0.0514125
0.0539272
0.0558705
0.0613741
0.0661887
0.0810451
0.110628
0.165645
0.318225
0.423032
0.41722
0.303109
0.159738
0.121774
0.08545
0.0658318
0.0585421
0.052776
0.0500205
0.0472977
0.0448629
0.0429144
0.0417748
0.0435842
0.0460653
0.048123
0.0501343
0.0517864
0.0577557
0.0643261
0.0822676
0.119161
0.16086
0.311665
0.421081
0.413966
0.302254
0.156265
0.123797
0.0890664
0.0668576
0.0567691
0.0494122
0.0462938
0.0435178
0.0418683
0.0396673
0.038878
0.040342
0.0428266
0.0443256
0.0470491
0.0492529
0.0560573
0.0651683
0.0866545
0.122793
0.156521
0.310445
0.418062
0.404865
0.302914
0.148905
0.123974
0.0953111
0.0670656
0.0545583
0.0468833
0.0438119
0.0413024
0.0390699
0.0373681
0.0363542
0.0379405
0.0401145
0.0419933
0.0440581
0.0462553
0.0538058
0.0651448
0.0904686
0.122944
0.148715
0.307062
0.418743
0.395175
0.303098
0.144359
0.122977
0.105123
0.0703733
0.0547977
0.0450998
0.041271
0.0383288
0.0367713
0.0348157
0.0341551
0.0353758
0.0375453
0.0389319
0.0419876
0.0448532
0.0537165
0.0675385
0.098069
0.12188
0.144896
0.316222
0.409556
0.391357
0.300845
0.13858
0.120568
0.109346
0.072766
0.0542032
0.0439466
0.0396426
0.0368994
0.0346252
0.0330721
0.0321972
0.0336051
0.0355435
0.0373337
0.0397544
0.0432048
0.053437
0.0695635
0.109648
0.12118
0.142657
0.315506
0.392169
0.38442
0.302287
0.136187
0.115724
0.108867
0.0794539
0.0554574
0.0438969
0.0382491
0.0344713
0.0328328
0.031055
0.0304852
0.0315447
0.0335422
0.035047
0.0389518
0.0434315
0.0543568
0.0746471
0.10941
0.117375
0.140486
0.315977
0.382357
0.37668
0.29855
0.134938
0.111174
0.107727
0.089146
0.057201
0.0438744
0.037769
0.0339848
0.0312987
0.0297811
0.0289512
0.0301769
0.0320523
0.0340488
0.0375745
0.0430654
0.0557652
0.0820297
0.108499
0.112892
0.13889
0.311378
0.372778
0.370892
0.295885
0.133592
0.106042
0.104235
0.0926706
0.0614713
0.0446929
0.0377015
0.0323262
0.0300487
0.0281931
0.0276221
0.0285834
0.0306028
0.0326367
0.0380269
0.0442706
0.0604098
0.0944243
0.1058
0.107841
0.13898
0.304515
0.364137
0.36421
0.294106
0.133697
0.103073
0.0989792
0.0921425
0.0684389
0.0463833
0.0377399
0.0328791
0.0292919
0.0274086
0.0265059
0.0277044
0.0298847
0.0326827
0.0375204
0.0453502
0.0673551
0.093972
0.101231
0.104308
0.136564
0.301672
0.360418
0.352337
0.287663
0.135353
0.100239
0.0938671
0.0908685
0.0795665
0.0508275
0.0387551
0.0322296
0.0290118
0.0265295
0.0256976
0.0267948
0.0294099
0.0322512
0.0386644
0.0494404
0.078261
0.0926848
0.0959655
0.100608
0.137915
0.299715
0.353091
0.342731
0.283345
0.134008
0.0987928
0.0903288
0.0876533
0.0798163
0.0573848
0.0405865
0.0330719
0.0290021
0.0266167
0.0251557
0.0268031
0.0295254
0.0328403
0.0395742
0.0559814
0.078604
0.089306
0.092123
0.0997281
0.138657
0.293846
0.342552
0.316751
0.272006
0.133592
0.0972768
0.0874009
0.0842292
0.0787169
0.0677746
0.0452962
0.0332301
0.0291075
0.0263383
0.0251593
0.0265508
0.0294539
0.0330963
0.0438267
0.0661705
0.0781844
0.0851159
0.0888199
0.0979608
0.137579
0.282297
0.318368
0.287567
0.254242
0.129024
0.0960214
0.0854276
0.0801505
0.0770444
0.0683617
0.0521958
0.036488
0.0296928
0.0267854
0.0252517
0.0269199
0.0300051
0.0354944
0.0489273
0.0682831
0.0765063
0.0803516
0.0861376
0.0969129
0.131989
0.263802
0.291051
0.0601726
0.145235
0.192425
0.214318
0.244636
0.260731
0.249243
0.231532
0.225599
0.226848
0.218406
0.209725
0.197102
0.226065
0.260911
0.285667
0.311924
0.34222
0.376722
0.424689
0.528114
0.815908
1.08411
1.11574
1.10243
1.05444
1.00639
0.886694
0.683496
0.260795
0.0537702
0.146394
0.198646
0.23605
0.271571
0.268169
0.244814
0.2201
0.212414
0.213007
0.205897
0.201946
0.196773
0.226034
0.254418
0.274697
0.299049
0.328833
0.369577
0.445232
0.659396
0.941837
1.02364
1.03836
1.01785
0.984179
0.936141
0.824096
0.641956
0.255924
0.0574879
0.156853
0.211339
0.258751
0.281267
0.263945
0.234
0.201418
0.197289
0.199752
0.195495
0.195186
0.19584
0.22418
0.246852
0.266082
0.290568
0.324889
0.382308
0.521829
0.830738
0.937752
0.962474
0.969762
0.94937
0.928236
0.880078
0.77193
0.605364
0.251719
0.0598404
0.167712
0.228114
0.276905
0.286645
0.257718
0.219342
0.187026
0.185739
0.189632
0.187461
0.188946
0.195146
0.218863
0.238842
0.256986
0.284247
0.329768
0.430517
0.691912
0.853038
0.898364
0.903722
0.901484
0.881265
0.865126
0.817963
0.71883
0.568286
0.248071
0.0615491
0.178526
0.245587
0.289621
0.2874
0.253108
0.207036
0.180277
0.178442
0.18327
0.184708
0.187515
0.199472
0.216894
0.23473
0.255481
0.292855
0.372319
0.573845
0.739029
0.824352
0.851678
0.851053
0.838981
0.824879
0.814092
0.767734
0.67997
0.54268
0.244561
0.0633283
0.193598
0.26618
0.301935
0.289626
0.248612
0.202297
0.17826
0.177331
0.182997
0.186138
0.192005
0.203414
0.218074
0.237505
0.267752
0.335063
0.496301
0.640667
0.732114
0.786542
0.803161
0.798291
0.782764
0.773221
0.762747
0.717712
0.6399
0.51458
0.238284
0.065949
0.211086
0.282942
0.312285
0.291931
0.248178
0.200758
0.178681
0.179693
0.188719
0.194519
0.204457
0.216954
0.23432
0.262833
0.326389
0.462413
0.568485
0.646906
0.710927
0.748663
0.758115
0.750317
0.733303
0.728195
0.7183
0.67673
0.60644
0.488789
0.232929
0.0690935
0.230247
0.299521
0.322684
0.298323
0.254139
0.20702
0.187872
0.19271
0.203627
0.215973
0.230724
0.251926
0.280397
0.344061
0.445899
0.523479
0.584268
0.637478
0.68484
0.711245
0.715269
0.705466
0.690103
0.686773
0.676537
0.639337
0.574881
0.463419
0.227991
0.0727588
0.248629
0.313552
0.334696
0.312297
0.274789
0.23528
0.217316
0.223865
0.241522
0.268318
0.295864
0.340313
0.389363
0.439917
0.49579
0.540919
0.582529
0.623207
0.65772
0.67566
0.675382
0.664652
0.651012
0.649672
0.639729
0.606095
0.545333
0.438939
0.222076
0.0771521
0.264649
0.329738
0.351986
0.337749
0.321674
0.299255
0.282744
0.298727
0.331601
0.374503
0.406623
0.429724
0.452877
0.484216
0.513879
0.543821
0.57318
0.605626
0.629789
0.641094
0.637212
0.624785
0.615103
0.614606
0.604572
0.571517
0.515155
0.417473
0.216751
0.0819969
0.283262
0.350926
0.381612
0.380996
0.387351
0.382936
0.390693
0.416195
0.440821
0.464205
0.47694
0.483387
0.492966
0.508909
0.523832
0.541517
0.56021
0.584235
0.601812
0.605638
0.59682
0.583227
0.584157
0.582745
0.569608
0.538598
0.488602
0.398898
0.210986
0.0877322
0.307009
0.383252
0.425074
0.441669
0.449845
0.455041
0.46945
0.490139
0.50985
0.525234
0.531828
0.535007
0.535832
0.532892
0.532586
0.537091
0.545818
0.562591
0.572907
0.569164
0.559155
0.552572
0.555967
0.553817
0.539367
0.510095
0.464439
0.379462
0.204225
0.0950584
0.339754
0.427548
0.475353
0.49769
0.509726
0.52947
0.548857
0.569554
0.592229
0.610603
0.616687
0.605866
0.585664
0.562749
0.543358
0.533336
0.533583
0.541458
0.541062
0.533512
0.52394
0.527155
0.531218
0.528387
0.511384
0.483715
0.440816
0.359837
0.197491
0.104707
0.383623
0.478149
0.522803
0.548769
0.575563
0.606214
0.636017
0.666499
0.693254
0.707942
0.704269
0.681917
0.645301
0.600786
0.558975
0.531792
0.521759
0.518958
0.510398
0.500897
0.498454
0.506293
0.510376
0.503952
0.485217
0.458331
0.418651
0.341762
0.19031
0.117409
0.437133
0.527055
0.56691
0.601437
0.643058
0.681146
0.718715
0.753084
0.783282
0.798851
0.791339
0.7606
0.708728
0.644484
0.581074
0.533503
0.513345
0.495767
0.482503
0.471878
0.478962
0.48938
0.490699
0.480095
0.460753
0.435223
0.397946
0.324083
0.182578
0.133077
0.492747
0.571726
0.615452
0.657779
0.702285
0.744198
0.788841
0.828649
0.860922
0.87571
0.863659
0.826859
0.765794
0.687223
0.605845
0.543233
0.504552
0.47621
0.459688
0.454015
0.463915
0.473543
0.469857
0.458344
0.439212
0.414195
0.37804
0.306519
0.175145
0.150197
0.548894
0.623092
0.658528
0.699614
0.747065
0.792359
0.839933
0.88179
0.911835
0.924385
0.909426
0.868911
0.805602
0.724962
0.636225
0.556275
0.498532
0.462044
0.4433
0.441934
0.452272
0.455856
0.450541
0.438532
0.42
0.395416
0.359801
0.289793
0.168126
0.167748
0.606999
0.662001
0.687976
0.726462
0.774224
0.818201
0.866158
0.906713
0.932821
0.939837
0.924197
0.891229
0.838501
0.761643
0.666984
0.573626
0.500046
0.455649
0.435146
0.433606
0.439881
0.439016
0.432845
0.420974
0.403013
0.378664
0.342603
0.274478
0.161732
0.185011
0.650886
0.686552
0.701942
0.737565
0.780401
0.820602
0.866215
0.90404
0.929772
0.938277
0.929895
0.907115
0.864201
0.79238
0.697305
0.595741
0.512968
0.456036
0.429743
0.426549
0.426912
0.424242
0.417392
0.405417
0.38778
0.363391
0.326712
0.260514
0.155851
0.202303
0.678623
0.694362
0.703009
0.732757
0.768952
0.807826
0.849137
0.887058
0.915081
0.927764
0.927806
0.916424
0.885079
0.821503
0.730406
0.625357
0.526515
0.458527
0.426984
0.419489
0.415577
0.411383
0.403996
0.39164
0.373853
0.349262
0.31259
0.247909
0.150274
0.217799
0.689231
0.684399
0.685748
0.712942
0.74771
0.786884
0.82603
0.86642
0.897644
0.915795
0.923837
0.923511
0.903287
0.84942
0.765287
0.654618
0.542733
0.465901
0.427556
0.413924
0.406258
0.400162
0.391829
0.379415
0.36145
0.336391
0.29951
0.236005
0.144938
0.22872
0.681487
0.651723
0.654363
0.686585
0.727148
0.768655
0.807638
0.848214
0.881198
0.903695
0.915901
0.921935
0.907569
0.862083
0.788065
0.680923
0.567518
0.47998
0.431738
0.410077
0.398145
0.390315
0.381226
0.368563
0.349731
0.324181
0.28696
0.224948
0.139976
0.225794
0.636646
0.591177
0.610072
0.655249
0.705725
0.751881
0.795621
0.832614
0.866111
0.890021
0.903368
0.911201
0.899403
0.864413
0.807405
0.715257
0.602464
0.501339
0.439255
0.407431
0.391351
0.381879
0.37184
0.358415
0.33897
0.312566
0.27531
0.214748
0.135406
0.230332
0.563935
0.505861
0.555412
0.620569
0.682105
0.734502
0.783581
0.823631
0.854072
0.878522
0.892811
0.901811
0.893129
0.870309
0.830656
0.754217
0.644008
0.528972
0.449345
0.406565
0.385904
0.374356
0.363221
0.349031
0.328835
0.301963
0.264719
0.205268
0.131274
0.190442
0.360783
0.408203
0.495572
0.58347
0.656479
0.717405
0.775419
0.819471
0.852714
0.874789
0.892064
0.902527
0.896642
0.882655
0.854996
0.791957
0.687782
0.562803
0.4631
0.408002
0.381906
0.36778
0.355739
0.339862
0.318132
0.29197
0.255107
0.196908
0.127591
0.259781
0.682691
0.888771
1.01554
1.07143
1.11432
1.12738
1.07982
0.792701
0.519538
0.421576
0.374724
0.34059
0.3108
0.284991
0.259291
0.224213
0.198931
0.212341
0.222126
0.229328
0.227148
0.234196
0.253302
0.264493
0.247791
0.215702
0.194119
0.145819
0.0595277
0.255132
0.64353
0.827783
0.94453
1.00136
1.0321
1.05354
1.03027
0.938321
0.643338
0.439948
0.367031
0.327303
0.298189
0.274251
0.253373
0.225551
0.198163
0.20441
0.209135
0.215117
0.213111
0.222121
0.248403
0.272087
0.274818
0.238403
0.200921
0.14751
0.0536688
0.251574
0.60838
0.775577
0.886728
0.939577
0.963235
0.98461
0.971409
0.941344
0.823961
0.514568
0.379098
0.323301
0.289766
0.265787
0.246032
0.224202
0.196266
0.197607
0.198323
0.202056
0.197776
0.202707
0.237219
0.267666
0.284333
0.261441
0.213995
0.158445
0.0575007
0.248063
0.570553
0.721595
0.822317
0.87483
0.894556
0.909692
0.912419
0.903609
0.851839
0.688631
0.427427
0.328457
0.283417
0.256431
0.238227
0.219585
0.195132
0.191504
0.190339
0.191989
0.186147
0.187804
0.222023
0.261788
0.29091
0.280359
0.231121
0.169934
0.0599993
0.245261
0.545892
0.682307
0.771927
0.821825
0.836235
0.846348
0.857359
0.85625
0.824937
0.739286
0.573546
0.372601
0.292728
0.255187
0.234504
0.218627
0.200011
0.190476
0.187321
0.185317
0.178982
0.180934
0.209135
0.256862
0.291591
0.292758
0.248474
0.181232
0.0618658
0.239325
0.518097
0.642365
0.721117
0.769742
0.783478
0.789399
0.80407
0.807237
0.787051
0.731727
0.641679
0.503883
0.339647
0.269797
0.238599
0.221239
0.205284
0.195435
0.188933
0.184838
0.177782
0.178835
0.204215
0.252457
0.294361
0.305603
0.268395
0.196506
0.0636263
0.233874
0.491983
0.608789
0.67978
0.724582
0.739902
0.742131
0.755833
0.761369
0.748214
0.709105
0.648182
0.569678
0.47315
0.33772
0.268496
0.240314
0.222409
0.208214
0.197792
0.190857
0.180364
0.179327
0.202895
0.252332
0.296881
0.316721
0.28543
0.214211
0.0664971
0.229029
0.466571
0.57702
0.64185
0.682406
0.697599
0.698679
0.710572
0.717742
0.709674
0.680949
0.637323
0.581403
0.527116
0.451999
0.358972
0.293255
0.263298
0.238442
0.222027
0.208236
0.195749
0.190478
0.21105
0.259177
0.303899
0.32785
0.30185
0.233182
0.0697124
0.223504
0.442029
0.547465
0.608046
0.645242
0.659685
0.658715
0.669549
0.677987
0.67398
0.652544
0.620475
0.579879
0.53972
0.498221
0.446475
0.400826
0.358932
0.312426
0.280367
0.252533
0.233585
0.227071
0.246234
0.28399
0.319371
0.34147
0.317213
0.251806
0.073527
0.218265
0.42033
0.51767
0.57419
0.610302
0.624477
0.622722
0.630825
0.640279
0.639423
0.62418
0.600592
0.571816
0.541154
0.515081
0.48776
0.460801
0.440672
0.419732
0.390374
0.349698
0.318172
0.301004
0.31729
0.338133
0.349175
0.361703
0.334931
0.268329
0.0780443
0.212605
0.401142
0.491177
0.54154
0.574247
0.591352
0.590793
0.590453
0.601868
0.604557
0.596513
0.57986
0.559745
0.539904
0.525964
0.513962
0.500257
0.493643
0.489286
0.477999
0.45294
0.429429
0.406517
0.399334
0.405628
0.397673
0.395908
0.359182
0.288465
0.0830626
0.205591
0.381291
0.46742
0.513092
0.54275
0.560415
0.563066
0.560126
0.565513
0.570971
0.569036
0.559854
0.546606
0.537628
0.537101
0.541982
0.548581
0.550245
0.547823
0.540354
0.523916
0.503808
0.484576
0.471714
0.466536
0.459748
0.442804
0.396175
0.314766
0.0893035
0.198375
0.361213
0.444036
0.486852
0.515171
0.534072
0.538995
0.53416
0.532223
0.538722
0.542687
0.539869
0.533744
0.535599
0.551698
0.577604
0.605218
0.628438
0.640597
0.633358
0.612952
0.588035
0.567106
0.548493
0.528858
0.514753
0.493487
0.444566
0.351242
0.0972924
0.191032
0.342827
0.421608
0.462228
0.490348
0.509764
0.517677
0.513068
0.504884
0.508856
0.51657
0.521557
0.523723
0.537685
0.571937
0.62176
0.671806
0.710714
0.73316
0.735925
0.720326
0.691218
0.657462
0.626451
0.595687
0.566322
0.539956
0.497356
0.399581
0.108059
0.183037
0.324766
0.400635
0.439602
0.466275
0.48571
0.496189
0.495862
0.484838
0.481561
0.491603
0.504241
0.518239
0.545778
0.59861
0.669933
0.739338
0.792991
0.822666
0.828941
0.812089
0.780484
0.743931
0.704113
0.664867
0.621963
0.586292
0.545083
0.456016
0.122199
0.175503
0.30677
0.38032
0.418267
0.444008
0.46304
0.47428
0.478506
0.470241
0.46243
0.470247
0.487357
0.516466
0.558836
0.627633
0.714234
0.796702
0.85827
0.893838
0.904585
0.889498
0.856567
0.815352
0.768629
0.725093
0.679578
0.637013
0.592758
0.512739
0.139044
0.168411
0.28977
0.361562
0.398529
0.423773
0.442223
0.453931
0.459476
0.457824
0.449366
0.454
0.47501
0.515429
0.577161
0.661245
0.752814
0.834297
0.89575
0.934675
0.948782
0.936378
0.906357
0.86432
0.816144
0.769813
0.721454
0.679531
0.64439
0.571569
0.156876
0.161791
0.274085
0.343742
0.380511
0.405533
0.423367
0.435219
0.441697
0.444153
0.440839
0.442303
0.46761
0.517391
0.596483
0.693227
0.788512
0.864457
0.915082
0.945205
0.9588
0.950791
0.926452
0.885886
0.838883
0.795148
0.746678
0.708132
0.684156
0.630154
0.175047
0.155469
0.259712
0.327183
0.364307
0.389206
0.40677
0.418431
0.425748
0.42999
0.433555
0.438023
0.465293
0.525385
0.617339
0.722713
0.817269
0.886814
0.927522
0.948005
0.954466
0.944356
0.919877
0.882437
0.838205
0.798629
0.755985
0.721285
0.708458
0.673234
0.192775
0.149378
0.246332
0.312262
0.349683
0.37472
0.392477
0.404463
0.412191
0.417955
0.425034
0.435831
0.468366
0.538979
0.642528
0.751824
0.843099
0.904665
0.934282
0.94412
0.94248
0.928378
0.900383
0.863702
0.823559
0.785533
0.75018
0.721953
0.715721
0.700528
0.210686
0.143834
0.233993
0.298846
0.336262
0.361944
0.380247
0.392832
0.401206
0.408115
0.418064
0.435798
0.476187
0.556098
0.671078
0.783685
0.868465
0.920993
0.93999
0.939209
0.929926
0.910819
0.879452
0.840035
0.80262
0.763786
0.729493
0.702999
0.703153
0.710892
0.225366
0.13896
0.223161
0.286315
0.323888
0.350078
0.369537
0.382638
0.391942
0.40042
0.41368
0.439298
0.490188
0.58062
0.696117
0.804625
0.878901
0.923263
0.936742
0.929907
0.916893
0.893753
0.860892
0.821908
0.784416
0.743084
0.702522
0.670873
0.669309
0.701827
0.236013
0.134694
0.213548
0.274792
0.312351
0.339036
0.359337
0.373342
0.383966
0.394328
0.411401
0.445457
0.511157
0.614228
0.727738
0.820337
0.877967
0.912146
0.92381
0.915709
0.901999
0.877526
0.844975
0.809475
0.767487
0.72165
0.670949
0.626083
0.606557
0.653945
0.23199
0.130813
0.204829
0.264356
0.301827
0.329025
0.349645
0.364827
0.376403
0.388973
0.410629
0.455201
0.539329
0.654943
0.764594
0.841164
0.881624
0.903361
0.912712
0.903841
0.889321
0.864971
0.835282
0.79658
0.749603
0.697628
0.635961
0.571176
0.519307
0.578302
0.236391
0.127675
0.197424
0.255147
0.291928
0.318783
0.340743
0.357052
0.369688
0.385039
0.412221
0.469267
0.573851
0.699391
0.80234
0.864272
0.892204
0.904834
0.912184
0.90241
0.885341
0.863887
0.831059
0.787756
0.732168
0.671644
0.598608
0.511571
0.421099
0.373188
0.195174
0.392433
0.368414
0.335841
0.304543
0.276426
0.252332
0.232755
0.216893
0.204633
0.195206
0.190124
0.188082
0.188388
0.191486
0.197549
0.207924
0.223325
0.2441
0.268911
0.29701
0.326682
0.356245
0.384312
0.409033
0.430477
0.447961
0.461549
0.472183
0.480427
0.485792
0.488956
0.489288
0.487499
0.484262
0.48048
0.475766
0.470535
0.464473
0.45734
0.449142
0.43976
0.429546
0.418823
0.407596
0.396028
0.383951
0.371363
0.358045
0.343911
0.329319
0.314612
0.299713
0.284866
0.270461
0.256676
0.243628
0.23146
0.220174
0.20987
0.200625
0.192379
0.185018
0.178394
0.172433
0.167094
0.162309
0.158032
0.154227
0.150834
0.147822
0.145184
0.142883
0.140804
0.138821
0.136897
0.135052
0.133278
0.131512
0.129683
0.127792
0.125881
0.124043
0.122327
0.120768
0.119338
0.118014
0.116705
0.1154
0.11399
0.112462
0.110804
0.109037
0.10729
0.105595
0.104004
0.102537
0.101087
0.0998268
0.098705
0.0977837
0.0971174
0.0967985
0.0968091
0.0972498
0.0978091
0.0984249
0.0992322
0.100054
0.100978
0.102285
0.104179
0.106934
0.110626
0.111845
0.112693
0.113738
0.115623
0.118621
0.118745
0.118911
0.119242
0.11992
0.120906
0.12258
0.124799
3.09999
2.9383
2.70816
2.43322
2.16905
1.92328
1.7115
1.53149
1.38289
1.26256
1.17752
1.12221
1.09439
1.09781
1.13707
1.218
1.34552
1.52703
1.76188
2.04167
2.35071
2.67059
2.97828
3.26092
3.51379
3.73324
3.9191
4.07251
4.19513
4.28937
4.35822
4.40016
4.42149
4.41888
4.3848
4.33486
4.26581
4.17823
4.07499
3.96158
3.83901
3.7107
3.57937
3.44677
3.31467
3.18275
3.05001
2.9136
2.77365
2.63091
2.48655
2.34042
2.19232
2.04294
1.89334
1.74425
1.59694
1.45313
1.31466
1.18419
1.06447
0.957244
0.861731
0.776885
0.703094
0.640417
0.587935
0.544186
0.507646
0.47697
0.451001
0.429021
0.410476
0.394659
0.380723
0.367782
0.355237
0.342792
0.330457
0.318392
0.306792
0.295836
0.285602
0.27606
0.267039
0.258378
0.249831
0.241353
0.232873
0.224507
0.216364
0.208516
0.201099
0.194045
0.187272
0.180901
0.174933
0.16942
0.164374
0.159971
0.15621
0.153548
0.1514
0.14998
0.149192
0.148704
0.14837
0.148377
0.148611
0.149595
0.152054
0.156868
0.16297
0.163673
0.164413
0.16652
0.171457
0.176256
0.176364
0.176723
0.177445
0.179163
0.181866
0.185738
0.190972
4.57862
4.35443
4.0781
3.75447
3.42951
3.12444
2.85377
2.62164
2.42738
2.26934
2.14867
2.06774
2.02986
2.03936
2.10571
2.24012
2.4478
2.72415
3.05515
3.4222
3.80704
4.19109
4.5582
4.89417
5.19803
5.46661
5.69982
5.89469
6.05164
6.1712
6.25585
6.30599
6.32643
6.32157
6.28768
6.21768
6.13096
6.02989
5.91279
5.77939
5.63082
5.46784
5.296
5.11972
4.93928
4.75557
4.56848
4.37781
4.18394
3.98774
3.79012
3.59212
3.39509
3.19977
3.00669
2.81624
2.62886
2.44526
2.26626
2.09299
1.9274
1.77091
1.62376
1.48658
1.35831
1.23936
1.13073
1.03156
0.940394
0.857735
0.78471
0.721965
0.669418
0.625523
0.587929
0.554822
0.525501
0.49977
0.477126
0.456829
0.438168
0.420658
0.404044
0.388178
0.372996
0.358468
0.344586
0.331385
0.318793
0.306743
0.295315
0.284496
0.274382
0.264874
0.255772
0.247045
0.238879
0.231324
0.224293
0.217956
0.212409
0.20808
0.204623
0.201883
0.199899
0.198595
0.19752
0.196849
0.196597
0.197048
0.199217
0.203689
0.210407
0.212231
0.213859
0.216807
0.222883
0.229467
0.229731
0.2296
0.230502
0.232752
0.236144
0.240693
0.246834
5.70494
5.4402
5.14454
4.80936
4.46877
4.14465
3.85258
3.60065
3.39113
3.22719
3.11255
3.05345
3.04974
3.11453
3.25757
3.47892
3.77002
4.11381
4.48998
4.88075
5.27397
5.65441
6.01022
6.33529
6.61648
6.86245
7.07368
7.25095
7.39694
7.50756
7.5808
7.61796
7.62666
7.60722
7.5607
7.48888
7.38448
7.26117
7.12543
6.97815
6.82175
6.66007
6.49133
6.31396
6.12943
5.93807
5.74155
5.54119
5.33802
5.13286
4.92662
4.72048
4.51446
4.30908
4.10516
3.90334
3.70384
3.50699
3.31314
3.12283
2.93685
2.75604
2.58029
2.40905
2.2434
2.08331
1.93025
1.78622
1.65373
1.53198
1.41941
1.31519
1.21764
1.12532
1.0375
0.956134
0.884329
0.823124
0.770431
0.723587
0.680892
0.641594
0.605427
0.572291
0.541974
0.514144
0.488331
0.464122
0.441479
0.420236