/*--------------------------------*- C++ -*----------------------------------*\
| =========                 |                                                 |
| \\      /  F ield         | OpenFOAM: The Open Source CFD Toolbox           |
|  \\    /   O peration     | Version:  2112                                  |
|   \\  /    A nd           | Website:  www.openfoam.com                      |
|    \\/     M anipulation  |                                                 |
\*---------------------------------------------------------------------------*/
FoamFile
{
    version     2.0;
    format      ascii;
    arch        "LSB;label=32;scalar=64";
    class       volScalarField;
    location    "0.01034";
    object      p;
}
// * * * * * * * * * * * * * * * * * * * * * * * * * * * * * * * * * * * * * //

dimensions      [1 -1 -2 0 0 0 0];

internalField   nonuniform List<scalar> 
13875
(
951599
984302
973564
975873
973635
974548
975063
974547
974921
975087
975039
975078
974668
974772
974833
974697
974632
975330
975173
973974
973385
975650
972332
982616
945663
733802
659563
672143
677142
669242
669711
677263
678767
679219
679173
678804
678500
670249
669175
670411
678028
679296
679307
677534
669947
669573
676916
672255
657208
731032
736893
635536
664303
653641
649263
648099
648131
649501
649861
649157
648003
648962
645361
645298
645232
648909
646254
648215
647928
647642
648541
652165
661934
632193
733725
743538
636181
665187
653802
649569
648283
647238
646634
645893
644885
643943
644618
645398
645399
645261
644547
643514
644606
646116
647791
648824
652290
662681
632801
739316
757374
639189
667742
654514
650425
648792
647384
646704
645938
644927
643974
644650
645529
645661
645380
644577
643611
644688
646236
648225
649605
652883
664963
635447
750354
759057
647849
673512
656495
652222
649841
647844
646929
646115
645086
644107
644779
645802
646187
645638
644703
643894
644958
646635
649151
651278
654753
670537
643181
751784
765067
668363
685742
661420
655869
651856
648867
647479
646549
645486
644506
645158
646375
646762
646135
645004
644519
645670
647713
651207
654914
660353
682060
665872
755823
791247
718397
711671
674768
663621
656160
651179
648857
647592
646497
645488
646000
647487
647921
647192
645807
645799
647167
649958
655320
662289
673138
707058
715360
781680
908651
827955
766546
704404
679081
664648
655950
651866
649895
648724
647652
647892
649716
650252
649386
647771
648407
650297
654578
663398
676945
700893
760199
823143
909476
1.52406e+06
1.02955e+06
833602
739310
697398
674934
662745
657046
654383
653098
652074
652031
654136
654818
653926
652260
653347
655834
661577
673919
695768
736821
829419
1.02529e+06
1.51706e+06
2.90536e+06
1.39285e+06
957219
796152
725622
691468
674958
667141
663568
661925
660825
660467
662540
663470
662881
661654
662930
666199
673646
689633
722334
789405
941161
1.35134e+06
2.86065e+06
5.6037e+06
2.34498e+06
1.28639e+06
936194
789431
728035
701170
688810
683149
680441
678889
678283
679769
680968
681142
681317
683245
688550
700657
727075
786991
926037
1.25246e+06
2.27461e+06
5.57486e+06
5.38929e+06
4.84273e+06
2.31142e+06
1.39976e+06
979052
827787
766219
740625
728912
723244
720460
719397
719633
721000
722566
725306
730574
742286
769085
834703
990121
1.38727e+06
2.18309e+06
4.87603e+06
5.3436e+06
4.83969e+06
4.65017e+06
4.71535e+06
3.98725e+06
1.63732e+06
1.13625e+06
954632
884667
852824
837545
830559
827472
826166
827761
831723
840162
857655
894034
975541
1.20153e+06
1.83497e+06
4.03242e+06
4.68965e+06
4.71845e+06
4.76421e+06
4.02897e+06
4.12848e+06
4.50085e+06
4.25671e+06
4.00028e+06
2.51008e+06
1.66269e+06
1.37589e+06
1.2635e+06
1.21585e+06
1.19648e+06
1.18854e+06
1.18567e+06
1.18757e+06
1.19512e+06
1.21513e+06
1.26443e+06
1.38368e+06
1.694e+06
2.68519e+06
4.11463e+06
4.24443e+06
4.51177e+06
4.28654e+06
4.2684e+06
3.53277e+06
3.46066e+06
3.92953e+06
4.05811e+06
4.2676e+06
4.33983e+06
3.69628e+06
3.05419e+06
2.8462e+06
2.68005e+06
2.57421e+06
2.53375e+06
2.51853e+06
2.52398e+06
2.5535e+06
2.63649e+06
2.84633e+06
3.04438e+06
3.75437e+06
4.38978e+06
4.23674e+06
4.07887e+06
4.054e+06
3.57208e+06
3.74934e+06
2.55081e+06
2.69344e+06
3.0629e+06
3.49778e+06
4.20215e+06
5.13503e+06
6.78869e+06
7.59591e+06
7.95873e+06
8.05544e+06
8.12263e+06
8.13759e+06
8.15204e+06
8.14373e+06
8.14339e+06
8.08587e+06
7.98444e+06
7.67687e+06
6.80779e+06
5.10585e+06
4.19961e+06
3.56126e+06
3.15086e+06
2.81833e+06
2.70488e+06
1.43458e+06
1.72136e+06
2.31536e+06
2.99943e+06
4.17501e+06
5.58715e+06
6.77152e+06
7.41895e+06
7.66061e+06
7.63149e+06
7.55341e+06
7.48778e+06
7.47158e+06
7.49039e+06
7.56039e+06
7.66556e+06
7.72841e+06
7.4911e+06
6.80598e+06
5.57501e+06
4.11589e+06
2.93241e+06
2.19362e+06
1.6229e+06
1.34546e+06
696102
1.02979e+06
1.71133e+06
2.60644e+06
4.08624e+06
5.15483e+06
5.83095e+06
6.33727e+06
6.50055e+06
6.47338e+06
6.43038e+06
6.44563e+06
6.46627e+06
6.46752e+06
6.45742e+06
6.51988e+06
6.59767e+06
6.47888e+06
6.0517e+06
5.38818e+06
4.11589e+06
2.66911e+06
1.72948e+06
1.04343e+06
705424
384845
620122
1.14086e+06
2.20989e+06
3.63519e+06
4.35021e+06
4.68164e+06
5.01658e+06
5.2404e+06
5.39645e+06
5.54172e+06
5.65445e+06
5.69278e+06
5.66627e+06
5.55741e+06
5.40224e+06
5.23593e+06
5.01736e+06
4.74101e+06
4.4361e+06
3.66798e+06
2.19868e+06
1.13324e+06
608666
375097
959904
983635
1.17525e+06
1.89044e+06
2.89493e+06
3.38642e+06
3.71614e+06
4.10471e+06
4.42751e+06
4.65888e+06
4.83438e+06
4.94018e+06
4.96379e+06
4.93996e+06
4.82772e+06
4.63115e+06
4.36675e+06
4.03136e+06
3.68469e+06
3.40832e+06
2.87435e+06
1.85934e+06
1.1476e+06
972095
962153
1.01823e+06
981130
1.15981e+06
1.60636e+06
2.17161e+06
2.61867e+06
3.02319e+06
3.45964e+06
3.79579e+06
4.03197e+06
4.20009e+06
4.28811e+06
4.30247e+06
4.28015e+06
4.1834e+06
3.99454e+06
3.72691e+06
3.37343e+06
2.93825e+06
2.60651e+06
2.12913e+06
1.56056e+06
1.12431e+06
947365
988143
1.12615e+06
1.02008e+06
1.13389e+06
1.34529e+06
1.69472e+06
2.08326e+06
2.52891e+06
2.95821e+06
3.26441e+06
3.48363e+06
3.62875e+06
3.70147e+06
3.71472e+06
3.69005e+06
3.60466e+06
3.43956e+06
3.19866e+06
2.8935e+06
2.42263e+06
2.06042e+06
1.65579e+06
1.31024e+06
1.10299e+06
1.00816e+06
1.14109e+06
1.31891e+06
1.15044e+06
1.13641e+06
1.19196e+06
1.4421e+06
1.77787e+06
2.13623e+06
2.53136e+06
2.8022e+06
3.00417e+06
3.12642e+06
3.1906e+06
3.20441e+06
3.17885e+06
3.10329e+06
2.96004e+06
2.74305e+06
2.47309e+06
2.06046e+06
1.73689e+06
1.39579e+06
1.15376e+06
1.10969e+06
1.15952e+06
1.3107e+06
1.37703e+06
1.27991e+06
1.1442e+06
1.1315e+06
1.29686e+06
1.55743e+06
1.83943e+06
2.1677e+06
2.40092e+06
2.58092e+06
2.69556e+06
2.75368e+06
2.76731e+06
2.74363e+06
2.67664e+06
2.54996e+06
2.35565e+06
2.1222e+06
1.7885e+06
1.51489e+06
1.24687e+06
1.10941e+06
1.12278e+06
1.28929e+06
1.36483e+06
1.43664e+06
1.38464e+06
1.16077e+06
1.13202e+06
1.20574e+06
1.39691e+06
1.60816e+06
1.87544e+06
2.0721e+06
2.22807e+06
2.33093e+06
2.38152e+06
2.394e+06
2.37312e+06
2.31501e+06
2.20123e+06
2.03293e+06
1.83579e+06
1.57459e+06
1.36834e+06
1.16651e+06
1.10981e+06
1.13888e+06
1.37159e+06
1.40884e+06
1.47573e+06
1.4179e+06
1.17988e+06
1.13208e+06
1.15119e+06
1.27165e+06
1.42854e+06
1.63612e+06
1.79828e+06
1.93015e+06
2.02045e+06
2.06514e+06
2.07775e+06
2.05851e+06
2.0058e+06
1.90776e+06
1.76432e+06
1.603e+06
1.39702e+06
1.24448e+06
1.11988e+06
1.10991e+06
1.16612e+06
1.40932e+06
1.45212e+06
1.55934e+06
1.49013e+06
1.21441e+06
1.12877e+06
1.1103e+06
1.17427e+06
1.27987e+06
1.43938e+06
1.56902e+06
1.68027e+06
1.75699e+06
1.79631e+06
1.80996e+06
1.79311e+06
1.75038e+06
1.66876e+06
1.5494e+06
1.41643e+06
1.25891e+06
1.15447e+06
1.08931e+06
1.1086e+06
1.20453e+06
1.48469e+06
1.54162e+06
1.67217e+06
1.59663e+06
1.2553e+06
1.1177e+06
1.0809e+06
1.0977e+06
1.16047e+06
1.27951e+06
1.38412e+06
1.4745e+06
1.53744e+06
1.57274e+06
1.58388e+06
1.56879e+06
1.52876e+06
1.46219e+06
1.36492e+06
1.26118e+06
1.145e+06
1.08488e+06
1.06496e+06
1.09858e+06
1.23068e+06
1.54357e+06
1.58629e+06
1.73069e+06
1.70578e+06
1.29859e+06
1.10901e+06
1.04865e+06
1.0445e+06
1.06653e+06
1.1493e+06
1.22846e+06
1.3021e+06
1.35336e+06
1.38178e+06
1.39236e+06
1.37784e+06
1.34585e+06
1.29246e+06
1.21463e+06
1.13254e+06
1.04985e+06
1.02818e+06
1.03391e+06
1.09106e+06
1.2753e+06
1.63721e+06
1.66387e+06
1.73147e+06
1.72515e+06
1.33755e+06
1.10574e+06
1.01528e+06
992738
991649
1.039e+06
1.09809e+06
1.1557e+06
1.19675e+06
1.22223e+06
1.23004e+06
1.21988e+06
1.19174e+06
1.14928e+06
1.08918e+06
1.02994e+06
980289
981685
1.00226e+06
1.08393e+06
1.30532e+06
1.66086e+06
1.69527e+06
1.73596e+06
1.72474e+06
1.40918e+06
1.10642e+06
979524
937738
929220
953965
993878
1.03719e+06
1.06805e+06
1.08581e+06
1.0927e+06
1.08432e+06
1.06339e+06
1.03035e+06
985520
944571
919824
926785
965921
1.08367e+06
1.35689e+06
1.65999e+06
1.69793e+06
1.74672e+06
1.71245e+06
1.46951e+06
1.10862e+06
953041
891999
878385
879910
904862
935760
958607
973080
977304
971574
953818
929927
898214
872639
869222
881802
936650
1.08522e+06
1.4139e+06
1.65845e+06
1.70727e+06
1.74739e+06
1.69252e+06
1.54261e+06
1.11784e+06
927782
849240
823243
818150
827584
849167
865257
875172
879007
874437
862924
847075
825047
812470
817117
839133
912519
1.09167e+06
1.50712e+06
1.65681e+06
1.73215e+06
1.74691e+06
1.66731e+06
1.54977e+06
1.14001e+06
917505
818428
778334
765298
764669
774875
785938
794419
796484
793508
783183
771910
761346
761406
771613
806309
898585
1.10709e+06
1.54375e+06
1.65647e+06
1.73186e+06
1.74334e+06
1.64544e+06
1.54459e+06
1.16104e+06
918204
787799
733811
715209
709546
713032
718802
723443
725031
722398
715952
711662
707167
711229
728615
779164
899311
1.14002e+06
1.5438e+06
1.65302e+06
1.72507e+06
1.73427e+06
1.61988e+06
1.53827e+06
1.20662e+06
924971
768712
700691
671015
660952
658072
660408
664544
664868
663373
657942
656459
659644
669483
696263
758725
902717
1.18147e+06
1.52744e+06
1.63493e+06
1.70252e+06
1.7141e+06
1.58713e+06
1.52638e+06
1.29714e+06
943292
754341
668992
632169
617090
612304
610889
612048
611989
611435
609186
610962
615392
627932
662786
742192
914057
1.26477e+06
1.49736e+06
1.59624e+06
1.69197e+06
1.67069e+06
1.56486e+06
1.49257e+06
1.34305e+06
963526
754830
648019
599607
579224
570030
567859
568456
567384
568269
565524
567754
577470
596873
641263
742716
941208
1.32265e+06
1.44787e+06
1.55078e+06
1.67529e+06
1.61324e+06
1.53731e+06
1.42607e+06
1.34154e+06
1.00742e+06
760850
629264
570942
545494
534905
530262
528896
528099
528753
529321
533927
543798
566696
622239
745894
975129
1.32114e+06
1.3861e+06
1.51319e+06
1.65491e+06
1.56263e+06
1.50353e+06
1.36563e+06
1.33696e+06
1.09475e+06
776636
629274
551771
518421
502290
497175
496648
494118
495996
495853
500234
515725
547380
622242
756298
1.04255e+06
1.31683e+06
1.34437e+06
1.50332e+06
1.61238e+06
1.52634e+06
1.47018e+06
1.31206e+06
1.31776e+06
1.1812e+06
796010
631363
538970
495314
476933
468822
465631
464067
465344
468107
475818
492492
532326
626018
782401
1.18268e+06
1.30755e+06
1.31977e+06
1.485e+06
1.52506e+06
1.483e+06
1.44072e+06
1.27778e+06
1.27842e+06
1.17999e+06
837573
640752
539199
480379
452962
443468
440982
437768
440430
442345
451249
477253
529478
631876
817727
1.18156e+06
1.28364e+06
1.29207e+06
1.45055e+06
1.45644e+06
1.43503e+06
1.39815e+06
1.25044e+06
1.21659e+06
1.17214e+06
921184
661642
541682
471354
436844
422606
416821
414387
416508
421852
434759
466161
530765
647186
888106
1.17428e+06
1.23588e+06
1.26819e+06
1.39248e+06
1.40305e+06
1.40065e+06
1.35859e+06
1.22976e+06
1.16003e+06
1.14624e+06
1.02979e+06
693914
546172
471569
424774
404759
398117
394114
397869
402311
420052
466387
537939
682563
1.03414e+06
1.1573e+06
1.18215e+06
1.24019e+06
1.34133e+06
1.36527e+06
1.35994e+06
1.32031e+06
1.21138e+06
1.11816e+06
1.09448e+06
1.02678e+06
762575
561488
474330
422074
393571
381057
376943
380572
391804
415552
467866
551407
744021
1.03238e+06
1.11757e+06
1.13108e+06
1.21348e+06
1.30689e+06
1.34045e+06
1.31385e+06
1.27453e+06
1.19113e+06
1.08239e+06
1.04079e+06
1.0166e+06
902631
594046
481696
422773
388025
372129
364265
371041
385130
415810
473055
579144
868671
1.02195e+06
1.0594e+06
1.09111e+06
1.2021e+06
1.27802e+06
1.30837e+06
1.26636e+06
1.23586e+06
1.16835e+06
1.05711e+06
996790
989938
901342
652498
494569
424635
388215
367538
353272
365814
385384
418527
487489
639131
897115
997599
1.01021e+06
1.06255e+06
1.18067e+06
1.23894e+06
1.25887e+06
1.17097e+06
1.177e+06
1.13608e+06
1.03794e+06
961431
939557
894724
774595
521748
432501
389904
367787
353393
365992
386478
425650
514453
757028
892968
947146
969989
1.04318e+06
1.14761e+06
1.17892e+06
1.17117e+06
1.03562e+06
1.10007e+06
1.08005e+06
1.01329e+06
931926
892404
875217
795138
577589
452011
395600
369310
354538
367199
391054
443317
569337
798877
876718
892940
935522
1.0175e+06
1.08575e+06
1.0988e+06
1.03876e+06
100256
103586
103303
104608
104777
105781
106050
105397
103663
102770
101326
100595
99906.4
99291
98559.8
97577
96303.7
94922.8
93530.3
91716.8
90121.9
88818.7
87880
87243
86700.5
86189.9
85730
85308.3
84935.6
84523.3
99906.4
104073
103187
104595
104814
105953
106148
105396
103735
102830
101372
100594
99899.9
99285.7
98555.1
97551.7
96298.9
94923.5
93451.1
91658.3
90116.1
88819.3
87888.5
87264.8
86787
86364.3
86011.4
85613.5
85261.1
85010.7
100604
104576
103171
104774
105502
106084
106182
105349
103716
102823
101355
100568
99864.1
99241.3
98480.9
97513.2
96261.6
94911.3
93321.1
91666.8
90129.8
88892.1
88034.9
87491.9
87112.6
86815.2
86617.7
86255.1
85970.4
85756.5
102412
105114
103581
105121
105797
106122
106180
105037
103495
102666
101069
100260
99600.3
99015.8
98256.1
97300.1
96126.1
94841.7
93123.7
91538.6
90137
89001.6
88246.8
87763.2
87513.5
87332.6
87256.9
87004
86731.2
86550
104148
105784
104370
105641
105919
106118
106096
104704
103246
102375
100711
99890.8
99223.9
98619
97834.3
96926.2
95831.1
94442.6
92684.5
91507.6
90370.6
89307.9
88654.8
88286.9
88082.8
88015.9
87964.4
87902.5
87750.9
87729
105756
106590
105305
105880
105958
106114
105836
104187
102983
102001
100177
99283.3
98545.5
97911.7
97056.3
96082.9
94911.3
93449.5
92456.6
91509.7
90514.7
89628.9
89044.3
88776
88609.9
88581.4
88601
88780.6
88832.6
88927.8
107187
107458
105990
105975
105963
106060
105347
103519
102489
101298
99213.3
98166.9
97261.9
96536.5
95680.5
94838.9
93878.1
92957.2
92361.6
91585
90678.1
89932.1
89482.3
89250.5
89198.2
89273.5
89473.1
89942.1
90228.2
90579.8
108656
108168
106316
105999
105855
105810
104732
102769
101728
100372
98090.7
96960
95964.1
95231.5
94501.2
93848.9
93203.6
92717.7
92323.4
91612.5
90829.9
90197.3
89904.8
89840.7
89830.7
90027.4
90496
91111.7
91450.9
91804.9
109929
108527
106451
105985
105537
105318
104039
101873
100807
99343.3
97005.8
95839.9
94808.5
94139.1
93568.7
93124.5
92791.7
92585.9
92263.2
91621.2
91046.2
90851.7
90630.7
90538.2
90616.1
91177.8
91720.7
92185.1
92558.2
92709.5
111164
108679
106499
105772
105086
104644
103193
100993
99879.8
98351.2
95988.7
94810.3
93798.8
93248.9
92840.4
92610.9
92506.9
92455.6
92222.7
91786.9
91640.6
91367.6
91262.7
91244.2
91536.2
92164.2
92602.9
92944
93479.5
94254.1
111797
108737
106432
105371
104497
103779
102187
100135
98945.5
97346.1
94920
93706.1
92822.8
92396.2
92208.1
92150.5
92224.8
92273.2
92214.6
92084.2
91928.7
91900.4
91853
92003.9
92368.6
92650.5
93490.5
94441.2
94964.4
95602.6
112059
108599
106030
104767
103689
102720
101044
99262.3
97945.4
96171.8
93745.1
92519.7
91872.1
91608.8
91534.8
91535.7
91795.6
92035.8
92176.2
92237.4
92396.5
92403
92358
92593.3
92848.6
93180.5
94087.1
95124.6
95895.4
96281.2
112095
108171
105371
103947
102665
101480
99787.4
98336.3
96750.8
94622.1
92462.6
91428.9
90963.5
90790.6
90748.5
90894.2
91311.1
91700.3
92102.5
92290
92633.8
92991.1
93285.1
93445.9
93480.3
93853.8
94688.2
95727.1
96521.1
96863.8
111581
107621
104492
102905
101447
100086
98433.4
97293.9
95331.6
92871.3
91156.1
90354.8
90009.8
89890.6
89864.4
90193.6
90768.8
91256.4
91863.7
92298.4
92725.7
93268.8
93734.1
94034
94417
94728.8
95566.7
96416.1
96940.3
97199.8
110678
106602
103497
101619
100070
98583.4
97014.2
96058.3
93644.3
91199.5
89868.5
89264.5
89014.4
88940.9
88934.3
89479.2
90157.8
90782.8
91528.2
92217.5
92743.7
93372.9
93936.2
94304.4
94859.3
95437.6
96175
96750.1
97157.6
97373.7
109329
105466
102297
100285
98488.4
96988.9
95491.5
94541
91876.3
89692.6
88640.4
88177.1
87995.8
87948.1
87984.4
88716.6
89484.2
90201.9
91103.7
91942.6
92729.8
93396.5
94004.2
94412.3
95055.1
95774.6
96450.5
96895.8
97277.4
97464.5
107599
103544
100855
98795.3
96784.6
95305.6
93857.2
92814
90167.9
88339.2
87460.9
87089
86947.2
86910.6
87036.2
87920.6
88774.4
89591.6
90624.3
91633.9
92568
93398.3
94022.4
94450.5
95134.7
95923.3
96558.5
96952.5
97340.6
97529.6
105825
102024
99271.8
97142.5
95068
93532.9
92133.2
90976.9
88594.5
87042.3
86303.8
86002.4
85888.7
85861.9
86084.3
87096.2
88030.4
88935.4
90070.8
91216.6
92297.6
93247.1
94023.7
94460.4
95166.4
95978
96598.6
96973.9
97373.7
97690.1
103444
99983.9
97330.5
95287.2
93325.2
91673.4
90344.6
89111.5
87111.5
85777.5
85147.2
84901.7
84812.8
84793
85160.9
86270.2
87277.8
88266.3
89487.7
90753.6
91947
92969.8
93871.6
94365.9
95175.2
95998.6
96621.9
96981.5
97485.8
97876.1
101357
98006
95590.5
93486.7
91520.8
89846
88522.9
87287.9
85647.2
84540.8
84023.1
83836.1
83768
83752.9
84272.2
85460.7
86531.7
87586.7
88869.5
90221.4
91480.5
92529.1
93315.6
94158.3
95159.1
96008.1
96632.3
96983.9
97536.2
97714.4
98432.5
95627.4
93622.2
91355.7
89717.8
88032.7
86719.7
85543.6
84144.6
83392.5
82960.3
82790.7
82762
82749.6
83408.8
84673.9
85786
86874.6
88176.4
89558.8
90815.5
91787.3
92686.9
94071.5
95101.9
96014.5
96630.9
96996
97409.1
97398.1
96020.8
93407.3
91703.6
89594.2
87916.7
86300.6
84972.1
83873.1
82769.2
82209
81920.2
81808.6
81790.4
81788.1
82562.1
83891.7
85015.1
86087.1
87340.2
88686
89931.2
91009.7
92374.1
94042.5
95085.7
96079.3
96706
97270.1
97410.2
97423.9
92372.3
90859.9
89739.6
87821
86291.4
84694.9
83326.4
82359.6
81465.7
81023.2
80847.9
80810.6
80855.3
80962.2
81725.6
83095.7
84209.7
85221.9
86402.4
87735.2
89087
90473.6
92218.1
94037.6
95280.4
96366.2
97092.2
97496.9
97593.1
97652.3
90130.8
88619
88220.9
86280.8
84634
83201.1
81797.5
80936.6
80240.2
79905.8
79783.8
79763.2
80003.4
80186.4
80909.3
82267.3
83373.5
84318.8
85462.8
86854.7
88400.3
90090.8
92091.2
94037.3
95365.5
96524.8
97277.8
97602.3
97699.3
97709.4
81599.6
85951.1
86994.8
85088.5
83467.2
82053.9
80480.3
79579.8
79079.1
78848.5
78781.9
78785.8
79148.1
79467.3
80111.9
81377.7
82440.3
83361
84566.7
86102.2
87849.6
89750.8
91852.6
93861.4
95386.3
96581.5
97346.8
97639.6
97727.2
97746.2
83497.5
83573.7
83603.1
84050.7
84665.1
85292.9
86170.9
87380.5
88291.5
89103.7
90871.3
93132.4
94801.6
96233.4
97232.2
97806.4
98211.7
98545.3
98966.4
99605.1
100906
101832
103502
104513
104400
103414
103293
101974
102327
98763
83948.7
83905.9
83961.3
84353.5
84806.3
85305.5
86353.3
87085.7
87926.6
89565.7
90924
93081.5
94795.7
96196.8
97184.7
97803.4
98211.6
98545.8
98991.7
99646.1
100951
101911
103529
104600
104513
103455
103284
101872
102808
98421.3
84614.1
84624.9
84755.3
85003.8
85223.1
85561.3
86396.3
87033.7
87857.9
89597.5
90989.7
92958
94794.6
96157.8
97143
97780.4
98201.3
98539.3
98990.5
99633.8
100934
101897
103492
104623
104901
104256
103520
101857
103299
99187.7
85207.5
85521.9
85595.2
85647.6
85738.5
85994.4
86400.6
87009.7
88095.5
89446.9
90762.5
92198.5
94359.7
95733.6
96854.1
97583.4
98006.2
98321.6
98764
99433.7
100795
101710
103123
104619
105107
104803
103975
102284
103866
101062
85834.5
86406.3
86459.5
86416
86373.6
86406.9
86665.6
87122.2
88209.5
89486
90603.5
91660.1
92883.7
94607.3
95739.8
96609.3
97185.7
97635.1
98172.8
98920.7
100443
101475
102629
104470
105196
105050
104647
103140
104607
102832
86818.1
87126.8
87140.1
87033.5
86896.6
86884.8
86912.6
87264.5
88266.5
89390
90474.9
91277.6
92127.3
93377.1
94436.1
95277
95902.6
96488.8
97219
98112.4
99940.2
101163
102166
104220
105217
105139
104991
104094
105436
104470
88087.9
88091
88000.8
87779.3
87586.9
87630.4
87655.8
87724.7
88298.7
89400.2
90530.2
91111.9
91758.3
92470.9
93261.7
93945.8
94537.1
95197
96099.6
97147.2
99276.3
100706
101681
103754
105217
105159
105152
104919
106281
105928
89375.9
89204.4
88977.1
88622.6
88386.4
88302
88350.4
88534.3
88740.4
89489
90531
91126.5
91580.7
91954.7
92523.2
93075.8
93580
94200.1
95154.8
96287.3
98551.7
100153
101145
103161
105088
105143
105214
105302
107003
107428
91161.6
90734.5
90294.6
89755.6
89370.4
89166.6
89171.1
89318.8
89642.9
90061.4
90570.2
91135.3
91413.5
91615.8
91956.6
92385.7
92819.4
93393.9
94361.6
95516.3
97801.7
99558.8
100571
102394
104692
104904
105227
105457
107378
108838
92832.1
92326.3
92144.2
91542.7
90352.5
89962.6
89907.3
89951.2
90188.7
90252.4
90673.2
91141
91288.8
91358.8
91494.7
91776.3
92118.9
92646.1
93605.1
94742.3
97018.2
98839.5
99839.9
101615
104060
104532
105074
105511
107543
110159
94525.5
94023.6
93626.2
92990.8
91555.4
90906.3
90673.1
90631.7
90536.8
90658.7
90878.9
91115.5
91133.7
91099.4
91097.6
91166.9
91368.4
91804.7
92727.9
93870.2
96143.2
98016.4
98990.1
100750
103208
103995
104711
105506
107605
110955
95635.1
94876.6
94514
93805.3
92713.4
91880.7
91450.8
91260.9
91119.4
91079.8
91147.1
91101.8
90956
90741.2
90534.8
90552.3
90656.3
90953.3
91627.3
92800.7
95129.3
97092.5
98025.7
99810.5
102176
103245
104167
105189
107519
111314
96383.1
95757.6
95456.8
94716.6
93823.7
92919.1
92446.4
92090
91932.5
91751.6
91357.5
91085
90696.7
90314.6
89924.4
89846.1
89896.9
90080.3
90557.1
91598.9
93762.4
95944.3
96885.1
98904.1
100976
102274
103395
104619
107113
111389
97046.2
96737.6
96302.7
95547.6
94790.2
93775.5
93510.8
93046.4
92643.3
92087.1
91443.6
91064.3
90414
89838
89265.3
88992.1
89027
89157.9
89521
90353.5
92115.7
94502.4
95923
97691.1
99613.2
101083
102391
103805
106613
111038
97452
97318.1
96750
96098.9
95469.4
94498.3
94173.9
93602.3
92988.8
92239.7
91464.6
90881.5
90053.9
89310.3
88603.8
88073.4
88086.3
88168.9
88436.1
89076.6
90461.5
92804
94832.4
96364.5
98119.7
99693.9
101132
102755
105821
110109
97654.8
97491.6
96954.3
96372.6
95832.2
95242.8
94480.1
93859.9
93132.5
92287.3
91457.3
90551.3
89589.6
88737.3
87920.4
87143.3
87110.9
87160.8
87350.2
87845
88939.9
91093.8
93439.9
94882
96507.3
98111.2
99771.5
101654
104696
108828
97716.4
97533.7
97041.9
96499.7
96105.9
95481.2
94608.5
93955.3
93171.2
92292.5
91260.4
90148
89068.5
88132
87229.7
86249.3
86090
86131.5
86280.4
86664.6
87550.3
89469.5
91739.9
93236.8
94795.7
96347.3
98332.6
100222
102848
107071
97730.2
97548.1
97080.3
96555.2
96220.9
95586.5
94650.5
93977.4
93173.3
92187.6
90979.4
89675.9
88496.2
87497.2
86528
85390.2
85076
85105.3
85225.5
85546
86279.4
87903.8
89902.5
91494.7
93004.5
94594.5
96696.9
98784
101303
105288
97746.4
97569.5
97099.6
96581.5
96273
95630.4
94659
93976.6
93032.3
91947
90614.6
89164.9
87903.6
86852.9
85821
84573.9
84073.5
84087.7
84168.7
84419.9
85012.3
86424.4
88088
89703.7
91151.1
92815.6
94880.5
96771.6
99319.3
102814
97916.2
97638.5
97182.9
96631.4
96307.1
95646.9
94636.6
93732.5
92738.9
91625.1
90200.8
88637.7
87310.2
86220
85120.6
83805.6
83099.6
83102.7
83149.1
83316.1
83804
85004.2
86344.2
87907.9
89320.1
90976.1
93181.5
95101.3
97365.7
100665
98355.3
97780.4
97282.5
96712.3
96326
95654.5
94614.5
93284.7
92276.9
91129.7
89670.3
88056
86695.9
85588.6
84430.6
83049.5
82159.5
82147
82168.7
82268
82643.9
83603.9
84703.3
86153
87506.6
89138.5
90802
93088.7
94979.8
97664
98274.4
98235.3
97888.5
97209.5
96473.1
95723.5
94607.3
93044.1
91653.3
90411.1
88941.8
87343.9
86004.9
84918.5
83726.9
82294.3
81264.3
81205.9
81219
81301.2
81567.9
82176.3
83166.4
84470.8
85766.1
87325.6
89104.8
91177.4
92745.6
95208.3
98281.7
98483.3
98255.9
97767.8
97051.1
96056.5
94660.4
92924.4
91158.9
89664.4
88125.6
86542.1
85243
84203.7
83009.6
81517.1
80428.8
80270.7
80281.6
80318.1
80477.3
80938.8
81716.6
82877
84116.8
85724.3
87347.7
89166.2
90130.2
91520.5
98265.1
98595.9
98415.7
98040.2
97327
96202.2
94679.8
92859.6
90801.2
89035.5
87356.4
85736.1
84452.3
83469.4
82277.3
80744.2
79655.9
79431.1
79324.7
79347.6
79464.2
79764.3
80362
81377.4
82561.7
83834
85763.9
87562.2
87857.8
89265.3
98547.3
98632.3
98457.6
98130.9
97421.2
96238.2
94665.5
92632.3
90464.4
88515
86669.9
84920.5
83565
82622.5
81458.2
79982.9
78960.6
78651.7
78441.6
78390.9
78447.3
78662.1
79127.2
80025.3
81295.5
82684.5
84547.2
86193.5
85234.3
80790.6
322722
324593
326953
328853
330847
332615
334375
336068
337730
339365
340993
342628
344259
345865
347427
348933
350353
351674
352876
353964
354970
355732
356094
356241
356287
356293
356161
355860
355346
354622
353702
352585
351266
349744
348020
346097
343980
341671
339173
336486
333602
330523
327284
323877
320204
316500
312391
308148
303750
299242
294610
289876
284977
280025
274960
269810
264585
259258
253839
248334
242750
237090
231376
225619
219839
214056
208297
202583
196934
191371
185931
180617
175461
170477
165663
161049
156646
152467
148512
144784
141295
138037
135017
132264
129689
127314
125089
122875
120897
119436
118187
116817
115477
114198
112958
111747
110555
109385
108217
107075
105941
104829
103767
102759
101892
101099
100491
99923.2
99391.8
98927.9
98592
98251.7
97838.2
97614.2
97613.6
97621.2
97646.3
97719.4
97812.1
97962.1
98078.9
98129.9
98217.7
98391.2
98541.8
325171
325771
327777
329616
331426
333122
334785
336397
337979
339540
341084
342614
344119
345585
347001
348334
349579
350715
351794
352950
353897
354352
354539
354597
354607
354511
354231
353757
353093
352237
351189
349945
348504
346868
345040
343022
340815
338420
335839
333072
330119
326975
323649
320144
316465
312620
308526
304305
299929
295418
290817
286257
281046
276131
271062
265911
260686
255354
249924
244410
238838
233212
227564
221899
216235
210595
204994
199452
193987
188619
183364
178249
173267
168442
163830
159422
155237
151236
147438
143848
140491
137374
134487
131799
129315
127037
124909
122927
121141
119502
118085
116724
115402
114123
112874
111645
110447
109264
108078
106911
105744
104602
103506
102468
101555
100730
100097
99557
99116.1
98763.7
98451.5
98128.6
97858.9
97668.7
97649
97651.2
97663
97701.1
97789.7
97962.7
98174.1
98191
98203.1
98246.5
98373.7
326252
326203
327884
329702
331455
333126
334763
336357
337916
339459
340980
342474
343933
345347
346697
347968
349135
350219
351276
352386
353080
353401
353522
353552
353547
353298
352872
352267
351481
350508
349347
347999
346467
344752
342859
340787
338537
336109
333501
330715
327750
324606
321277
317779
314114
310281
306250
302068
297737
293275
288699
284024
279198
274248
269186
264057
258762
253123
247732
242230
236694
231120
225517
219886
214261
208667
203128
197660
192280
187003
181848
176832
171970
167276
162753
158392
154201
150262
146584
143131
139855
136787
133948
131326
128907
126684
124619
122702
120940
119333
117863
116470
115132
113822
112539
111285
110042
108832
107666
106493
105320
104172
103067
102029
101094
100261
99596.7
99061.2
98628.3
98292.1
97995.4
97728.1
97497.4
97361.7
97360.7
97365.9
97386.6
97448.7
97592.9
97883.7
98124.5
98231.8
98226.6
98234.6
98282.9
326449
326344
327798
329635
331371
333045
334684
336290
337871
339434
340971
342475
343930
345336
346668
347915
349073
350136
351195
352190
352677
352892
352968
352984
352896
352524
351976
351251
350345
349259
347997
346560
344953
343180
341241
339135
336859
334408
331782
328981
326009
322868
319550
316057
312405
308589
304605
300469
296186
291764
287207
282514
277671
272696
267599
262403
257104
251692
246197
240662
235144
229116
223471
217859
212279
206745
201253
195814
190448
185184
180048
175062
170235
165578
161108
156839
152778
148888
145190
141827
138750
135873
133169
130639
128281
126089
124061
122185
120448
118840
117328
115895
114518
113177
111855
110569
109296
108056
106851
105663
104422
103161
102047
101054
100130
99293.5
98591.9
98029.2
97586.7
97258.3
97000
96815.9
96653.4
96608.5
96611.7
96626.9
96666.6
96762.8
96969.8
97311.6
97576.6
97811.7
97854.5
97941.3
98129.4
326085
325991
327420
329333
331079
332779
334449
336090
337707
339300
340863
342385
343858
345271
346607
347862
349045
350185
351278
351979
352313
352450
352490
352492
352256
351764
351093
350246
349227
348041
346694
345188
343527
341713
339742
337607
335299
332813
330150
327316
324324
321180
317876
314398
310771
306998
303077
299011
294800
290446
285943
281286
276467
271494
266374
261123
255754
250285
244740
239145
233529
227884
222223
216588
211014
205255
199545
194163
188862
183673
178592
173636
168822
164171
159714
155464
151433
147637
144092
140690
137484
134642
132077
129700
127491
125437
123512
121697
119977
118340
116770
115262
113809
112399
111027
109694
108396
107129
105872
104624
103383
102186
101082
100053
99030.1
98130.6
97437.9
96861.8
96383.9
96017.4
95745.4
95564.6
95431.9
95403.7
95406.9
95423.8
95470.3
95577.9
95805.4
96217.6
96524.4
96965.3
97077.9
97187.9
97421.6
325165
325065
326659
328695
330491
332254
333985
335683
337351
338985
340578
342126
343617
345043
346392
347665
348873
350075
351047
351521
351728
351799
351814
351734
351316
350713
349924
348968
347854
346590
345182
343630
341927
340077
338065
335873
333493
330920
328167
325253
322204
319031
315719
312245
308624
304883
301015
297014
292873
288587
284144
279538
274768
269835
264744
259511
254152
248682
243128
237511
231851
226170
220506
214875
209301
203779
198298
192889
187578
182198
176850
171957
167211
162633
158226
154000
149985
146206
142696
139462
136498
133645
130982
128612
126505
124545
122687
120919
119240
117647
116125
114649
113201
111770
110349
108935
107532
106159
104826
103538
102299
101109
99972.8
98898.5
97893.6
96997.1
96240.9
95593.9
95051.6
94620.8
94298.7
94081
93950.3
93920.7
93922.7
93935.2
93972.9
94064.7
94269.8
94686.5
95036.2
95432.5
95602
95712.7
95939.7
323655
323568
325638
327747
329627
331464
333252
334998
336706
338375
339998
341566
343069
344501
345854
347121
348314
349461
350205
350563
350718
350769
350774
350495
349906
349173
348277
347237
346059
344746
343306
341728
339971
338054
335952
333631
331094
328340
325408
322343
319180
315920
312519
308984
305339
301615
297835
293973
290011
285933
281698
277289
272676
267825
262728
257421
251959
246429
240887
235312
229707
224098