/*--------------------------------*- C++ -*----------------------------------*\
| =========                 |                                                 |
| \\      /  F ield         | OpenFOAM: The Open Source CFD Toolbox           |
|  \\    /   O peration     | Version:  2112                                  |
|   \\  /    A nd           | Website:  www.openfoam.com                      |
|    \\/     M anipulation  |                                                 |
\*---------------------------------------------------------------------------*/
FoamFile
{
    version     2.0;
    format      ascii;
    arch        "LSB;label=32;scalar=64";
    class       surfaceScalarField;
    location    "0.00474";
    object      phi;
}
// * * * * * * * * * * * * * * * * * * * * * * * * * * * * * * * * * * * * * //

dimensions      [1 0 -1 0 0 0 0];

oriented        oriented;

internalField   nonuniform List<scalar> 
27436
(
-0.533363
8.19276
-0.0931458
7.47162
-0.0836309
7.78638
-0.0694908
7.78662
-0.0693014
7.79269
-0.0520302
7.78072
-0.0387604
7.78362
-0.0308097
7.78913
-0.0221773
7.78857
-0.0140078
7.79006
-0.00814158
7.79129
-0.000330405
7.78881
0.0136695
7.78307
0.0311738
7.78045
0.0467892
7.78197
0.0547109
7.78875
0.0543629
7.79497
0.0645453
7.78758
0.0746601
7.78567
0.0944145
7.7779
0.0962796
7.7911
0.11152
7.78584
0.123977
7.78247
0.574025
7.46273
8.21701
-0.247261
8.44002
-0.0963503
7.32069
-0.0819206
7.77194
-0.0562506
7.76097
-0.0555594
7.7923
-0.0484987
7.77372
-0.0469034
7.77999
-0.0346623
7.76884
-0.0186283
7.77039
-0.00969372
7.78038
0.000340235
7.7803
0.0155904
7.77267
0.0153484
7.78367
0.0213803
7.7745
0.0208748
7.78252
0.0381648
7.7714
0.0496307
7.78346
0.0722601
7.76488
0.0680462
7.78984
0.0749984
7.77093
0.0718947
7.79424
0.102964
7.75473
0.114481
7.77123
0.26771
7.30864
8.47827
-0.22727
8.66727
-0.141253
7.23466
-0.120724
7.75143
-0.107042
7.74735
-0.0984582
7.78349
-0.0965283
7.77118
-0.0921468
7.77484
-0.0869748
7.76241
-0.0650274
7.74823
-0.0507666
7.76368
-0.036752
7.76371
-0.0160866
7.75169
-0.0129228
7.78056
-0.0110871
7.77235
-0.00698391
7.7783
0.0150707
7.74938
0.0283328
7.77015
0.05199
7.74123
0.0547949
7.78714
0.0537681
7.77198
0.0616849
7.78633
0.078196
7.73825
0.100485
7.74917
0.192621
7.21457
8.67102
-0.169622
8.8369
-0.139503
7.20457
-0.134089
7.74608
-0.111563
7.72482
-0.105011
7.77663
-0.102059
7.76759
-0.0970147
7.76909
-0.0803634
7.74591
-0.0617042
7.72984
-0.0455324
7.7457
-0.0278247
7.74315
-0.00731461
7.73041
0.0024168
7.77101
0.00526872
7.7691
0.0150319
7.76841
0.0381541
7.72643
0.0530238
7.75547
0.0754376
7.719
0.0878421
7.77484
0.0869302
7.77292
0.0914157
7.78186
0.117851
7.71192
0.110957
7.75603
0.161795
7.16366
8.83835
-0.0736541
8.91058
-0.0364338
7.16739
-0.0914644
7.80118
-0.0586818
7.69211
-0.060097
7.7778
-0.0616685
7.76843
-0.060046
7.76665
-0.0460162
7.73323
-0.0298806
7.71337
-0.016249
7.73061
-0.000849748
7.72523
0.0164524
7.71184
0.0270149
7.76017
0.0277019
7.76794
0.0363624
7.75952
0.0574472
7.7055
0.0678421
7.74528
0.0871655
7.69989
0.0993173
7.76286
0.0931307
7.77911
0.092958
7.78202
0.123194
7.68175
0.0892179
7.79003
0.0965729
7.15709
8.93992
0.118388
8.79221
0.043908
7.2419
-0.0486143
7.89377
-0.00741552
7.65092
-0.0224657
7.79262
-0.0314832
7.77664
-0.0332356
7.76797
-0.0237183
7.72813
-0.0121084
7.70211
-0.00358306
7.72235
0.00595891
7.71326
0.019054
7.69785
0.0269982
7.75145
0.0241379
7.77012
0.0294128
7.75408
0.0447448
7.69034
0.0494716
7.74077
0.0627905
7.68677
0.0726679
7.75312
0.0628273
7.78899
0.0477734
7.79705
0.0860188
7.64352
-0.0146728
7.89054
-0.0209656
7.16349
8.91985
0.304556
8.48766
0.136334
7.41012
-0.00428323
8.03499
0.0279932
7.61826
-0.0120809
7.83253
-0.0454842
7.80919
-0.0698561
7.79246
-0.0786759
7.74498
-0.087013
7.71338
-0.0989357
7.73615
-0.112127
7.72432
-0.121917
7.70714
-0.126617
7.75545
-0.147718
7.79056
-0.158828
7.76497
-0.163229
7.69489
-0.182314
7.76011
-0.190799
7.6955
-0.200321
7.76305
-0.234743
7.82343
-0.267679
7.82996
-0.288263
7.66417
-0.354874
7.95687
-0.658475
7.46725
8.26032
0.873442
7.61416
0.522182
7.76136
0.414698
8.14273
0.338635
7.69436
0.276932
7.89401
0.223918
7.86143
0.184488
7.83243
0.162517
7.77461
0.13747
7.74613
0.111636
7.7647
0.0820795
7.75262
0.0602646
7.72809
0.0392251
7.77609
0.0065015
7.82272
-0.0186651
7.79001
-0.0419744
7.71844
-0.0723496
7.79079
-0.097736
7.7212
-0.122235
7.78784
-0.171109
7.87226
-0.233127
7.89191
-0.283325
7.71438
-0.407573
8.08082
-0.694271
7.75405
7.56253
0.593634
7.02047
0.410177
7.945
0.240818
8.31242
0.195457
7.73994
0.140576
7.94861
0.0988785
7.90383
0.0766358
7.8533
0.0734623
7.77774
0.0737345
7.75627
0.0733581
7.77114
0.0693223
7.75705
0.069442
7.7261
0.0772758
7.7676
0.0768069
7.8228
0.0783752
7.78848
0.0744687
7.72275
0.0714206
7.79425
0.0689131
7.72415
0.0623996
7.795
0.0255658
7.90928
-0.0311536
7.94874
-0.0498253
7.73311
-0.220443
8.25109
-0.372465
7.90593
7.1871
-3.04081
10.0611
-3.37614
8.28098
-2.7565
7.69267
-2.6112
7.59394
-2.30111
7.63954
-1.99249
7.59823
-1.67701
7.5318
-1.37366
7.46458
-1.08713
7.47523
-0.792649
7.47895
-0.501617
7.46662
-0.210667
7.43251
0.0951678
7.46077
0.40646
7.5119
0.703294
7.49248
0.972523
7.45416
1.27962
7.48774
1.55745
7.44692
1.89555
7.45756
2.20403
7.601
2.50552
7.64718
2.63533
7.60332
3.21514
7.67106
2.94024
8.18008
10.1275
-4.2346
14.2967
-4.34247
8.39079
-4.12902
7.4758
-3.81168
7.27664
-3.34763
7.18288
-2.84886
7.10415
-2.36656
7.03664
-1.93002
7.01417
-1.48916
7.03176
-1.03495
7.02108
-0.574605
7.00588
-0.125178
6.98031
0.340448
6.99422
0.823715
7.02957
1.28309
7.03436
1.70318
7.03503
2.15913
7.03258
2.60167
7.00522
3.05902
7.00131
3.58802
7.07278
4.07094
7.16497
4.39146
7.2828
4.57299
7.48986
4.52334
8.22928
14.6524
-2.70612
17.0061
-4.88947
10.5762
-4.92853
7.50752
-4.18112
6.5323
-3.7221
6.74065
-3.22401
6.6096
-2.74026
6.5386
-2.26543
6.524
-1.76751
6.52423
-1.2605
6.50569
-0.745985
6.49042
-0.251734
6.48479
0.259491
6.4837
0.782384
6.50755
1.29876
6.51852
1.77851
6.55671
2.26893
6.54354
2.76261
6.51297
3.24952
6.51554
3.75538
6.5682
4.25692
6.66544
5.0467
6.49416
4.80868
7.72848
2.73543
10.303
17.3893
2.37015
14.6393
0.442587
12.5126
-4.84528
12.7913
-3.8197
5.50916
-3.92999
6.8644
-3.4318
6.11893
-2.96972
6.07077
-2.48549
6.03104
-1.95183
5.98129
-1.4056
5.95233
-0.859854
5.94526
-0.326681
5.9541
0.216189
5.94538
0.776919
5.95083
1.32912
5.96913
1.88174
6.00746
2.39826
6.03015
2.873
6.04186
3.33089
6.06108
3.86982
6.03155
3.80217
6.73443
4.91823
5.37975
-0.295416
12.943
-2.37346
12.3809
15.0166
2.47522
12.1697
3.38359
11.6126
3.6746
12.5094
-0.659185
9.83766
-4.17601
10.4016
-3.52608
5.50033
-3.2205
5.76792
-2.74086
5.55759
-2.18285
5.42658
-1.62252
5.39654
-1.07096
5.40174
-0.521905
5.41529
0.0199103
5.41542
0.572165
5.40909
1.13762
5.41074
1.70875
5.44415
2.27007
5.47657
2.71101
5.60706
2.91204
5.85848
3.51917
5.43767
-0.268592
10.5307
-4.56258
9.68008
-3.95986
12.3448
-2.94611
11.3692
12.0721
1.75546
10.4198
3.60151
9.77508
5.11108
11.011
5.56325
9.39902
4.93865
11.0461
0.411918
10.0131
-1.92909
8.12876
-2.00915
5.66761
-1.61202
5.04915
-1.13254
4.93863
-0.614319
4.90463
-0.0945135
4.91894
0.433171
4.91198
0.960572
4.90315
1.51093
4.87931
1.99788
4.97494
2.4717
5.02316
2.3852
5.71953
0.0259597
8.22437
-4.35299
9.81012
-4.70719
10.897
-4.1725
9.14866
-2.67951
10.8514
-1.24008
9.93307
10.8358
0.805339
9.62391
1.80483
8.78489
3.2031
9.63387
3.64773
8.97661
3.26946
11.453
2.28148
11.0041
1.05007
9.41418
0.420184
6.38319
0.359268
5.22184
0.354943
5.05025
0.342738
5.02768
0.263861
5.10931
0.156903
5.12857
0.0713492
5.09767
0.00384526
5.03333
0.014256
5.07454
-0.0829749
5.21582
-0.557671
6.28012
-1.64211
9.37648
-2.58127
10.7645
-2.80099
11.1599
-2.48567
8.85326
-1.40373
9.78115
-0.422003
8.95854
10.4183
1.79308
7.8469
2.43691
8.15967
3.03651
9.06082
2.76642
9.2708
3.19096
11.0596
3.72773
10.4703
2.28287
10.8245
1.22875
7.40508
0.713142
5.66401
0.405376
5.28111
0.193151
5.15534
0.0342132
5.17571
-0.107855
5.17562
-0.255897
5.15711
-0.464289
5.16337
-0.750211
5.29241
-1.38336
5.79653
-2.68915
7.58631
-4.07589
10.7488
-3.42296
10.1331
-3.19144
10.9525
-3.5114
9.19204
-2.9873
9.28021
-2.37668
8.35988
8.05265
2.21234
5.65478
2.91216
7.48661
2.39083
9.6269
1.73445
9.95772
2.04456
10.7723
2.12308
10.3885
3.05646
9.84526
2.42036
7.97157
1.5884
6.44422
0.91464
5.92591
0.353695
5.68048
-0.0908706
5.58441
-0.480285
5.52861
-0.929787
5.57173
-1.50134
5.70386
-2.26415
6.03629
-3.22643
6.71683
-4.05757
8.34807
-3.12107
9.74551
-3.27233
10.2755
-2.8958
10.5873
-3.69094
10.0157
-3.95808
9.58886
-2.77263
7.19972
5.29263
3.2214
2.44775
5.76182
4.96629
6.70283
8.70986
6.52753
10.145
6.23856
11.058
5.6024
11.0088
4.82147
10.5922
3.67155
9.08489
2.66972
7.42817
1.98469
6.60693
1.31047
6.36351
0.597746
6.31158
-0.159908
6.3017
-0.887983
6.31135
-1.57589
6.40122
-2.23102
6.68649
-3.07461
7.53671
-3.84506
9.06857
-4.55833
10.4206
-5.20957
10.9054
-5.51164
10.8842
-5.7803
10.2843
-5.22689
9.05105
-2.88015
4.8673
2.42491
1.38471
1.07023
3.37794
2.99416
4.83656
7.27953
5.43937
9.54312
5.81479
10.6684
5.70339
11.1044
5.04092
11.2404
3.9539
10.1652
2.80966
8.56991
1.86478
7.54153
1.05066
7.16975
0.248477
7.1037
-0.551596
7.09023
-1.35729
7.10627
-2.17896
7.21608
-3.13459
7.63279
-4.27451
8.66749
-5.37597
10.1529
-6.11206
11.14
-6.28283
11.0555
-6.07688
10.6626
-5.44864
9.65666
-3.43335
7.06725
-1.38751
2.84786
1.04283
0.0109026
1.0637
0.0468331
2.9764
1.18494
6.15531
2.38629
8.33902
3.12261
9.91774
3.41492
10.8
3.39652
11.2523
2.91549
10.6484
2.16757
9.31969
1.43741
8.26108
0.753907
7.84119
0.0901228
7.75362
-0.584375
7.74984
-1.25414
7.76426
-1.96137
7.91502
-2.73495
8.39774
-3.51466
9.44233
-4.00749
10.6377
-4.03021
11.1553
-3.66705
10.6789
-2.81922
9.80104
-1.47608
8.30697
-0.229234
5.83931
-0.0783729
2.70567
0.96613
-0.695464
1.76167
-0.996752
3.29186
-0.341852
5.50041
0.514634
7.48119
1.3101
9.10692
1.80991
10.2947
2.04968
11.0111
1.96911
10.732
1.58604
9.70622
1.10076
8.73884
0.632601
8.29706
0.156212
8.21925
-0.312545
8.20834
-0.791105
8.23401
-1.2561
8.37196
-1.72119
8.85615
-2.07054
9.7885
-2.12063
10.6813
-1.85046
10.8817
-1.29946
10.1225
-0.452032
8.94402
0.415839
7.43282
1.01371
5.2429
0.639691
3.08808
1.60303
-0.650494
2.41379
-1.47275
4.11692
-1.50274
5.51889
-0.909661
6.88658
-0.179385
8.36616
0.348913
9.77089
0.77116
10.59
0.980834
10.5242
0.940087
9.75187
0.747753
8.92762
0.484964
8.54996
0.227517
8.47017
-0.0416897
8.47242
-0.293311
8.47916
-0.540715
8.61045
-0.700032
9.00966
-0.683365
9.76996
-0.435932
10.4285
-0.0270525
10.47
0.554925
9.54517
1.25781
8.2351
1.82908
6.85517
1.69026
5.37046
0.661262
4.11894
2.27037
-0.699798
3.11127
-1.80128
5.20121
-2.08923
5.79733
-1.96699
6.75713
-1.5748
7.96837
-0.965858
9.16766
-0.438603
10.0649
-0.0801334
10.1682
0.0856657
9.59125
0.104288
8.90895
0.0638779
8.58455
-0.021647
8.55253
-0.110948
8.55971
-0.198789
8.56164
-0.236506
8.63826
-0.215788
8.98388
-0.060056
9.61302
0.310338
10.0565
0.853086
9.92785
1.42491
8.97919
1.86081
7.79852
2.02209
6.68698
1.64962
5.73232
0.667324
5.08949
2.94126
-0.517893
3.61844
-1.45282
6.11701
-1.95423
6.28903
-2.03322
6.82534
-1.81045
7.74464
-1.3537
8.71488
-0.867999
9.58158
-0.459443
9.76228
-0.189167
9.3257
-0.0662771
8.78776
-0.0428259
8.55895
-0.0367035
8.5453
-0.0391758
8.56106
-0.0280612
8.54636
-0.00120263
8.60216
0.131419
8.84771
0.410277
9.33646
0.835597
9.63213
1.34458
9.42092
1.76446
8.56575
2.00397
7.56031
1.92011
6.764
1.38481
6.25794
0.542029
5.91796
3.48064
-0.53591
4.14213
-1.33888
6.90779
-1.84302
6.78498
-2.12258
7.09353
-1.99409
7.61452
-1.62872
8.3512
-1.19791
9.1523
-0.754991
9.32027
-0.422719
8.99569
-0.227271
8.59489
-0.0841562
8.41679
0.0220768
8.43885
0.130085
8.45222
0.235655
8.43837
0.389168
8.44373
0.614644
8.62022
0.963057
8.99043
1.39319
9.20479
1.80709
9.01083
2.15436
8.22327
2.26985
7.44527
1.97099
7.05178
1.49822
6.72106
0.677527
6.72926
4.15641
-0.72455
4.85536
-1.48808
7.66622
-1.94824
7.24196
-2.29121
7.42882
-2.27225
7.59431
-2.0572
8.13642
-1.66457
8.76
-1.20581
8.86078
-0.828004
8.61811
-0.554043
8.32381
-0.380793
8.24556
-0.207876
8.26591
-0.0461602
8.28975
0.130976
8.26043
0.31429
8.25881
0.58076
8.3541
0.947075
8.62583
1.38605
8.76894
1.78055
8.6199
1.99826
8.00843
2.03408
7.41138
1.7506
7.32718
1.29178
7.17004
0.494368
7.51903
4.64857
-0.474061
5.32548
-1.20962
8.39594
-1.69281
7.72306
-1.95863
7.69054
-2.04224
7.67652
-1.86072
7.95434
-1.51684
8.41498
-1.11285
8.45425
-0.760839
8.26494
-0.500242
8.06612
-0.258498
8.00605
-0.0541228
8.0616
0.154858
8.08031
0.359974
8.05553
0.607998
8.01258
0.893248
8.07022
1.25617
8.26451
1.6482
8.37816
1.96958
8.30045
2.12838
7.85021
2.04732
7.49015
1.79161
7.57594
1.26786
7.68506
0.535911
8.24422
5.18231
-0.429335
5.7565
-1.17622
9.13336
-1.63516
8.17778
-1.82887
7.88191
-1.93818
7.78592
-1.86696
7.8829
-1.5623
8.10901
-1.16524
8.0546
-0.806711
7.90526
-0.494425
7.75653
-0.251239
7.76473
-0.00361497
7.81426
0.231202
7.84534
0.483859
7.80357
0.724501
7.77426
1.03218
7.76619
1.4007
7.89419
1.79724
7.98251
2.10201
7.99794
2.15594
7.79622
2.03388
7.61046
1.86244
7.74427
1.39133
8.14859
0.576753
9.0509
5.75741
-0.671868
6.43164
-1.29186
9.74607
-1.87305
8.75557
-2.05446
8.06087
-2.16853
7.89965
-2.09828
7.8122
-1.82327
7.83223
-1.46622
7.69457
-1.11825
7.55673
-0.83343
7.47431
-0.546432
7.47966
-0.288094
7.55643
-0.0173655
7.57474
0.245678
7.54147
0.546653
7.47571
0.845674
7.47055
1.17514
7.56562
1.50631
7.64853
1.77123
7.73138
1.86472
7.70214
1.75833
7.71779
1.5971
7.90318
1.08497
8.65435
0.308238
9.81854
6.06686
-0.412213
6.84778
-1.12245
10.4526
-1.70081
9.32969
-1.7937
8.15109
-1.79527
7.90246
-1.75356
7.77033
-1.54364
7.62076
-1.22943
7.37909
-0.916487
7.24452
-0.602045
7.16201
-0.338572
7.2179
-0.0564182
7.27507
0.212723
7.30607
0.494655
7.26057
0.753685
7.21893
1.06137
7.16637
1.39176
7.23392
1.70928
7.33089
1.90824
7.53179
1.90966
7.69706
1.88267
7.74237
1.78236
7.99953
1.14777
9.28592
0.533323
10.433
6.60469
-0.15926
7.01166
-0.716076
11.0099
-1.51876
10.1271
-1.61822
8.24803
-1.65303
7.93688
-1.57456
7.6913
-1.36412
7.40831
-1.12471
7.13792
-0.852389
6.97291
-0.605915
6.91782
-0.323283
6.93729
-0.0622529
7.01516
0.211648
7.03286
0.466364
7.00683
0.753244
6.93373
1.0132
6.90985
1.27645
6.97063
1.50826
7.09682
1.72521
7.31447
1.80475
7.61577
1.77178
7.77304
1.78106
7.98445
1.05347
10.0045
0.424356
11.0686
7.03772
-0.431926
7.4492
-0.885021
11.4631
-1.74881
10.9848
-1.77468
8.27223
-1.75308
7.91709
-1.6735
7.6117
-1.50272
7.23613
-1.24938
6.88486
-1.00816
6.73308
-0.726171
6.63794
-0.485462
6.69862
-0.212659
6.74364
0.0494489
6.77167
0.327623
6.72986
0.570968
6.69219
0.842289
6.64067
1.0983
6.71599
1.33636
6.85718
1.49255
7.15577
1.55466
7.55262
1.54356
7.78263
1.42592
8.09927
0.595466
10.8274
0.263651
11.4064
7.30931
-0.10342
7.55684
-0.459503
11.8192
-1.11061
11.6288
-1.49902
8.65885
-1.53442
7.95327
-1.41437
7.49039
-1.22561
7.04581
-1.0109
6.66913
-0.774852
6.49833
-0.57523
6.44069
-0.311043
6.43662
-0.0633617
6.49751
0.203296
6.50618
0.44746
6.487
0.714469
6.42681
0.928518
6.42869
1.14609
6.49882
1.35979
6.64382
1.55131
6.9628
1.66541
7.43564
1.63343
7.81225
1.34821
8.37866
0.605973
11.5671
0.370233
11.6472
7.68702
0.0107627
7.55011
-0.0801263
11.9101
-0.781864
12.3287
-1.41055
9.28605
-1.33564
7.87948
-1.26716
7.42104
-1.11317
6.89081
-0.936332
6.49398
-0.74544
6.30927
-0.49941
6.19726
-0.301392
6.24104
-0.0630143
6.26092
0.163611
6.28102
0.403287
6.24886
0.595609
6.23609
0.825329
6.20095
1.03364
6.29193
1.20451
6.47195
1.34873
6.81842
1.42687
7.35842
1.59937
7.6388
0.862325
9.11419
0.236693
12.1865
0.179059
11.7074
7.87247
-0.33089
7.88589
-0.339464
11.9191
-0.723372
12.7117
-1.4347
9.99519
-1.43325
7.87743
-1.34646
7.3331
-1.16064
6.70473
-0.979243
6.31262
-0.793625
6.12462
-0.63349
6.0402
-0.402185
6.01244
-0.192247
6.05321
0.0401071
6.0506
0.252408
6.03843
0.490312
6.00038
0.660906
6.03273
0.83201
6.12196
1.00814
6.29596
1.19004
6.6357
1.24849
7.29711
1.17657
7.70871
0.335713
9.9519
-0.087527
12.6035
-0.0105217
11.6328
7.86845
-0.157467
8.04849
0.0440569
11.7204
-0.223365
12.9798
-1.04936
10.819
-1.18321
8.01176
-1.10265
7.25263
-0.981149
6.58316
-0.814159
6.14756
-0.647562
5.95961
-0.434035
5.83023
-0.259718
5.84112
-0.0432228
5.83933
0.159116
5.85064
0.374769
5.82515
0.543015
5.83457
0.747266
5.83129
0.923642
5.94667
1.08276
6.13735
1.18871
6.53114
1.32844
7.15906
1.15012
7.88651
0.34058
10.7605
0.116519
12.8237
0.185422
11.5652
8.05837
0.0114755
8.04284
0.161896
11.5742
0.241697
12.9002
-0.497693
11.555
-1.11757
8.62998
-0.976678
7.11139
-0.873043
6.47918
-0.729544
6.00441
-0.562809
5.79422
-0.427681
5.69902
-0.231804
5.6484
-0.057127
5.66761
0.140302
5.65602
0.311745
5.65641
0.509341
5.63992
0.648249
5.69549
0.797425
5.79885
0.950105
5.98364
1.07604
6.40354
1.26659
6.96815
0.624743
8.52744
-0.0847996
11.4733
-0.0769923
12.8124
0.020559
11.4669
8.08024
-0.20765
8.25651
-0.188118
11.5599
0.0201451
12.694
-0.415382
11.9878
-1.02601
9.23999
-1.00146
7.08685
-0.917754
6.39584
-0.797623
5.88616
-0.665586
5.66408
-0.473303
5.51032
-0.326167
5.50441
-0.141651
5.4862
0.0241673
5.49326
0.207424
5.47626
0.349999
5.50038
0.537318
5.5115
0.684463
5.6526
0.777567
5.89319
0.805896
6.37761
0.787617
6.98536
0.0109021
9.30311
-0.469677
11.9565
-0.138675
12.4825
-0.0736339
11.4013
8.01
-0.0485306
8.31106
0.0304268
11.4845
0.420648
12.3057
0.144433
12.2607
-0.644153
10.0272
-0.916813
7.35917
-0.715601
6.19485
-0.632561
5.80365
-0.48991
5.52331
-0.371011
5.39471
-0.19539
5.332
-0.0407947
5.3347
0.134736
5.32077
0.28636
5.32758
0.465737
5.324
0.586003
5.39451
0.713289
5.52648
0.823971
5.78107
1.0443
6.15784
0.766609
7.26101
-0.0560554
10.1226
-0.210776
12.1144
0.152758
12.1217
0.145075
11.4091
8.16114
0.0633393
8.25264
0.118876
11.4306
0.40821
12.0166
0.569821
12.0967
-0.0966632
10.6908
-0.629381
7.89079
-0.615047
6.18055
-0.548948
5.73925
-0.46577
5.44165
-0.308879
5.24054
-0.186858
5.21278
-0.0336367
5.18434
0.105862
5.18415
0.261026
5.17535
0.379464
5.20824
0.542646
5.23355
0.638844
5.43161
0.714962
5.70577
0.741183
6.13302
0.241035
7.76158
-0.429648
10.7909
-0.267619
11.9533
0.0162553
11.8399
0.0377554
11.3882
8.20272
-0.104769
8.36139
-0.0825115
11.4082
0.142627
11.7909
0.497303
11.7409
-0.00352844
11.1895
-0.580881
8.46681
-0.691228
6.29095
-0.580211
5.62958
-0.478822
5.34196
-0.391001
5.15512
-0.250382
5.0747
-0.122134
5.05857
0.0230614
5.04142
0.154195
5.0466
0.300896
5.06416
0.384085
5.15322
0.46396
5.35303
0.580102
5.58896
0.368868
6.34455
-0.353767
8.48305
-0.777553
11.2135
-0.371012
11.5464
-0.185033
11.657
-0.13155
11.3377
8.07815
0.0305488
8.33187
0.0741795
11.3628
0.254863
11.6082
0.639364
11.3546
0.620848
11.2061
-0.0915742
9.1768
-0.479754
6.67878
-0.470283
5.62282
-0.38151
5.25505
-0.257645
5.03348
-0.156909
4.97607
-0.0255769
4.9293
0.0977151
4.92023
0.228026
4.91852
0.325904
4.9681
0.462091
5.01776
0.551904
5.26464
0.553146
5.58913
0.151786
6.74637
-0.552885
9.18906
-0.439283
11.0982
-0.09726
11.2024
0.071342
11.4872
0.11825
11.2927
8.20102
0.155827
8.17494
0.278035
11.2386
0.403202
11.4809
0.642004
11.1155
0.89326
10.9522
0.24644
9.82012
-0.207859
7.13258
-0.344003
5.76062
-0.282989
5.19543
-0.227486
4.97984
-0.130981
4.88143
-0.0267904
4.82683
0.0929364
4.80214
0.196088
4.81703
0.298406
4.86767
0.351688
4.96677
0.44465
5.17225
0.317471
5.71622
-0.182266
7.24846
-0.827151
9.83235
-0.469766
10.7386
-0.227056
10.9607
-0.11204
11.3739
-0.0355545
11.217
8.17147
-0.0354917
8.20846
0.0502554
11.1515
0.139708
11.3895
0.388324
10.8651
0.822213
10.5174
0.632356
10.0063
-0.04879
7.81283
-0.369579
6.08298
-0.34192
5.16931
-0.256561
4.89639
-0.1781
4.8044
-0.0831704
4.73337
0.0138992
4.7065
0.108741
4.72373
0.180802
4.79692
0.250313
4.89815
0.266608
5.1573
-0.0923399
6.07774
-0.901655
8.06257
-0.969135
9.8967
-0.586863
10.3565
-0.332603
10.7072
-0.27151
11.3084
-0.117547
11.0648
8.06047
0.0977204
8.10925
0.286512
10.9614
0.348943
11.3246
0.520139
10.6924
0.816246
10.2188
0.954535
9.86426
0.325549
8.43956
-0.0894255
6.49839
-0.19677
5.27784
-0.164935
4.86624
-0.0929654
4.7341
-0.0176658
4.65947
0.0684269
4.62153
0.145645
4.64793
0.22311
4.72143
0.257948
4.86488
0.130966
5.28533
-0.374027
6.58505
-0.917964
8.60454
-0.6901
9.66708
-0.401342
10.0644
-0.216455
10.5214
-0.159389
11.2503
-0.0119124
10.9162
8.05103
0.147745
7.96062
0.374238
10.7335
0.443571
11.2536
0.57692
10.5579
0.809545
9.98432
1.22821
9.44256
0.921245
8.7441
0.161184
7.25819
-0.0869978
5.52787
-0.099806
4.88102
-0.0498804
4.68537
0.00429667
4.60677
0.0567302
4.57036
0.122082
4.58414
0.173573
4.67076
0.162184
4.87734
-0.100794
5.55022
-0.857572
7.34717
-1.06551
8.80922
-0.689861
9.28898
-0.443709
9.81569
-0.300575
10.3776
-0.235443
11.1834
-0.0518491
10.7335
8.00071
0.0301874
7.93109
0.229915
10.5326
0.33833
11.1437
0.410416
10.4842
0.613636
9.77836
0.902559
9.15128
0.952206
8.69215
0.532903
7.67729
0.021197
6.04207
-0.11903
5.023
-0.0869044
4.65476
-0.0441761
4.56541
-0.007089
4.5345
0.036846
4.54169
0.0497897
4.65963
-0.0962131
5.02514
-0.717811
6.17515
-1.15145
7.77827
-0.998181
8.6536
-0.743596
9.03305
-0.563746
9.63658
-0.508063
10.3222
-0.393986
11.0685
-0.148473
10.4863
7.85061
0.0636207
7.86856
0.308155
10.2874
0.458994
10.9887
0.550492
10.3914
0.690734
9.63672
0.887299
8.95266
1.24222
8.33556
0.915986
8.00273
0.255921
6.70448
0.0279036
5.25249
-0.00261765
4.68658
0.0100136
4.55447
0.0172235
4.52851
0.0316351
4.52907
-0.0219638
4.71473
-0.279462
5.28345
-0.8649
6.76631
-1.15631
8.06628
-0.798894
8.29404
-0.650297
8.88286
-0.529576
9.51447
-0.439413
10.2305
-0.280079
10.9054
-0.0436618
10.2487
7.80497
0.0958327
7.77446
0.42348
9.95836
0.632052
10.778
0.637972
10.384
0.720338
9.55157
0.910533
8.76041
1.11619
8.12741
1.14607
7.97173
0.811866
7.03911
0.180407
5.88592
0.0504112
4.81817
0.0268322
4.57942
0.0145843
4.54203
-0.00658733
4.55175
-0.164012
4.874
-0.805957
5.92697
-1.12904
7.08987
-1.02863
7.96273
-0.827155
8.09085
-0.646794
8.699
-0.577724
9.44394
-0.560742
10.2135
-0.364391
10.7057
-0.052656
9.93241
7.74875
0.00891293
-0.271701
0.0104231
-0.29942
0.0101764
-0.30159
0.00825519
-0.299599
0.00512848
-0.302264
0.00176624
-0.302345
2.21173e-05
-0.315511
-0.00199565
-0.345045
-0.00994747
-0.454989
-0.0511391
-0.816187
-0.210975
-2.12606
-0.416707
-2.36026
-0.43329
-2.33134
-0.451368
-2.15975
-0.454709
-2.037
-0.456604
-1.93935
-0.445369
-1.84498
-0.419513
-1.7503
-0.386534
-1.65592
-0.35518
-1.59254
-0.336919
-1.5187
-0.324367
-1.42176
-0.30609
-1.34267
-0.279344
-1.2871
-0.244444
-1.25007
-0.203281
-1.22545
-0.155332
-1.20938
-0.101673
-1.20828
-0.0466352
-1.2033
-1.22284
0.0238456
-0.300237
0.0265455
-0.300672
0.0249185
-0.300662
0.0222189
-0.298633
0.0178003
-0.304949
0.0147644
-0.322725
0.0125856
-0.373478
0.00376934
-0.501633
-0.0356695
-0.896387
-0.172374
-2.15321
-0.277173
-2.43097
-0.330711
-2.4632
-0.368851
-2.29339
-0.393105
-2.11443
-0.402806
-1.98329
-0.401713
-1.86886
-0.390554
-1.76584
-0.367797
-1.66706
-0.340131
-1.57799
-0.312403
-1.52723
-0.29833
-1.46773
-0.292596
-1.36706
-0.280107
-1.2887
-0.258
-1.23387
-0.226114
-1.19915
-0.187344
-1.17657
-0.141675
-1.16508
-0.0927447
-1.16341
-0.0420674
-1.15994
-1.17391
0.0111165
-0.315627
0.0101343
-0.300112
0.00926809
-0.302164
0.00586788
-0.305486
0.00329662
-0.338197
5.2895e-05
-0.421947
-0.0117602
-0.609443
-0.0668798
-1.16056
-0.231498
-2.18067
-0.336478
-2.42848
-0.375364
-2.44776
-0.415962
-2.40182
-0.439467
-2.21901
-0.447535
-2.05526
-0.447145
-1.90658
-0.436067
-1.77133
-0.412534
-1.6562
-0.385549
-1.56853
-0.357638
-1.49471
-0.327543
-1.45208
-0.308831
-1.41431
-0.302758
-1.31501
-0.289519
-1.23573
-0.265945
-1.18361
-0.232077
-1.15212
-0.190846
-1.13235
-0.143534
-1.12302
-0.0943206
-1.12062
-0.0437223
-1.11886
-1.13086
0.00106739
-0.324545
-0.000328042
-0.327179
-0.00146919
-0.34188
-0.00747601
-0.365324
-0.0123181
-0.479824
-0.029813
-0.754507
-0.0891478
-1.54482
-0.237291
-2.1358
-0.344891
-2.41366
-0.407651
-2.41234
-0.449981
-2.38491
-0.477877
-2.2929
-0.484507
-2.13486
-0.479085
-1.95986
-0.466749
-1.77648
-0.44817
-1.63591
-0.423508
-1.54067
-0.395972
-1.47262
-0.366952
-1.40736
-0.334651
-1.37491
-0.310228
-1.3562
-0.308682
-1.26615
-0.295211
-1.18635
-0.271207
-1.13866
-0.236618
-1.10998
-0.194327
-1.09212
-0.146955
-1.08173
-0.095439
-1.08039
-0.0459454
-1.07887
-1.09056
0.00936025
-0.443815
0.0116675
-0.546524
0.00365107
-0.61931
-0.0164057
-0.643025
-0.0437069
-0.907334
-0.0928893
-1.66046
-0.162964
-1.97311
-0.273028
-2.3408
-0.353037
-2.39238
-0.409041
-2.33749
-0.45944
-2.28218
-0.476965
-2.18112
-0.470621
-2.00596
-0.457112
-1.78923
-0.445676
-1.61664
-0.429504
-1.50692
-0.405248
-1.43133
-0.379296
-1.37529
-0.354134
-1.32101
-0.324303
-1.29532
-0.295919
-1.2894
-0.300414
-1.22938
-0.288686
-1.14757
-0.267016
-1.10033
-0.234094
-1.07194
-0.193011
-1.05469
-0.147131
-1.04413
-0.0953063
-1.04254
-0.0454545
-1.03755
-1.04135
0.0567817
-1.00072
0.0909623
-1.88759
0.0633372
-2.51752
-0.0282961
-2.10691
-0.128734
-1.89384
-0.135831
-2.08081
-0.200818
-2.20007
-0.270829
-2.3423
-0.344324
-2.31295
-0.408092
-2.24254
-0.456671
-2.1762
-0.458375
-2.01903
-0.441796
-1.80436
-0.435754
-1.61929
-0.431173
-1.47397
-0.415152
-1.37392
-0.390612
-1.30966
-0.366105
-1.26611
-0.342251
-1.22638
-0.311964
-1.21186
-0.281734
-1.21209
-0.288192
-1.18216
-0.279597
-1.10296
-0.259938
-1.05921
-0.228994
-1.0324
-0.189659
-1.01621
-0.146239
-1.00312
-0.0991598
-0.995708
-0.0488001
-0.989203
-0.989418
0.159105
-2.73494
0.251543
-3.45683
0.202108
-3.5926
-0.010347
-3.47202
-0.111287
-2.5263
-0.134026
-2.34776
-0.199741
-2.29729
-0.262079
-2.29577
-0.340584
-2.21293
-0.406193
-2.1307
-0.439132
-2.00252
-0.426669
-1.80068
-0.420916
-1.62418
-0.425008
-1.45944
-0.423847
-1.32487
-0.407138
-1.23124
-0.384303
-1.17798
-0.361534
-1.1468
-0.339181
-1.121
-0.308614
-1.11745
-0.275905
-1.12426
-0.276234
-1.11763
-0.271426
-1.04523
-0.253738
-1.00439
-0.225018
-0.980097
-0.188658
-0.965709
-0.146203
-0.954244
-0.0988046
-0.945578
-0.0499177
-0.937592
-0.937815
0.2329
-3.21691
0.288284
-3.83345
0.200293
-3.75942
0.0184953
-3.68826
-0.0517418
-3.26628
-0.106656
-2.55774
-0.185739
-2.37805
-0.263184
-2.24029
-0.335408
-2.11432
-0.393847
-1.95606
-0.413438
-1.79066
-0.401713
-1.60396
-0.403849
-1.44626
-0.414308
-1.29435
-0.420458
-1.17394
-0.405455
-1.0886
-0.384559
-1.04193
-0.363696
-1.0211
-0.342699
-1.00931
-0.312747
-1.01533
-0.278662
-1.02805
-0.273402
-1.04011
-0.271075
-0.98234
-0.252439
-0.9455
-0.223535
-0.924689
-0.187434
-0.912419
-0.145918
-0.902744
-0.0984078
-0.894975
-0.0488083
-0.886882
-0.885684
0.205415
-3.41788
0.208671
-3.79246
0.10085
-3.58725
0.0523831
-3.59281
0.0179509
-3.50352
-0.0616999
-3.18317
-0.154642
-2.46489
-0.249071
-2.17678
-0.322154
-1.97974
-0.368257
-1.78762
-0.382313
-1.59977
-0.376191
-1.40807
-0.383381
-1.26527
-0.401848
-1.12825
-0.414848
-1.02567
-0.405609
-0.949805
-0.387732
-0.907668
-0.369207
-0.894644
-0.349225
-0.895775
-0.320117
-0.909351
-0.285634
-0.92972
-0.272434
-0.953971
-0.27186
-0.914856
-0.252427
-0.883708
-0.223412
-0.867296
-0.187323
-0.857709
-0.146123
-0.849626
-0.0987976
-0.8442
-0.0499943
-0.836073
-0.835335
0.131196
-3.46065
0.0936589
-3.56635
0.0641054
-3.38528
0.0952912
-3.40066
0.10803
-3.45456
0.0187799
-3.32219
-0.101128
-2.58695
-0.218066
-2.1045
-0.293691
-1.83845
-0.32971
-1.6137
-0.341841
-1.4099
-0.344208
-1.21444
-0.359287
-1.08774
-0.38775
-0.969201
-0.407258
-0.88432
-0.406369
-0.816765
-0.391322
-0.780012
-0.375418
-0.772251
-0.356422
-0.784112
-0.328468
-0.803561
-0.294781
-0.832181
-0.272712
-0.863049
-0.272453
-0.843998
-0.252418
-0.820176
-0.223157
-0.808968
-0.186921
-0.802769
-0.145707
-0.796712
-0.0986348
-0.794025
-0.0497902
-0.786735
-0.786396
0.0498387
-3.40444
-0.00812907
-3.24384
0.0574741
-3.08633
0.133866
-3.12946
0.185463
-3.14526
0.127313
-3.0619
-0.0182777
-2.8001
-0.163766
-2.07301
-0.245955
-1.66157
-0.277816
-1.4258
-0.293499
-1.227
-0.307263
-1.03617
-0.332848
-0.903546
-0.372644
-0.841874
-0.398935
-0.754543
-0.405315
-0.690873
-0.395023
-0.662404
-0.381652
-0.657204
-0.362076
-0.676517
-0.331162
-0.702157
-0.304359
-0.737261
-0.274185
-0.771248
-0.273203
-0.771526
-0.252585
-0.756556
-0.222998
-0.751078
-0.186793
-0.748789
-0.145654
-0.745604
-0.0989577
-0.746045
-0.0504942
-0.739741
-0.740841
-0.0354609
-3.23928
-0.0424357
-2.70435
0.0602176
-2.69184
0.157619
-2.63213
0.233664
-2.62739
0.223503
-2.54125
0.0806802
-2.44434
-0.0840274
-1.96667
-0.183264
-1.45713
-0.218429
-1.23087
-0.240079
-1.05389
-0.268135
-0.882192
-0.308439
-0.773184
-0.359162
-0.747225
-0.390391
-0.637656
-0.402569
-0.577101
-0.400051
-0.555566
-0.387692
-0.551595
-0.360901
-0.576437
-0.339762
-0.607805
-0.31305
-0.646542
-0.277611
-0.682728
-0.273884
-0.699946
-0.252534
-0.69492
-0.222461
-0.695492
-0.186153
-0.697742
-0.145073
-0.698408
-0.0991229
-0.701858
-0.0505106
-0.697516
-0.69995
-0.094537
-2.9875
-0.0536807
-2.4246
0.0548227
-2.27087
0.148719
-2.03978
0.241382
-1.8785
0.299922
-1.89036
0.212492
-1.88512
0.0122027
-1.68968
-0.112362
-1.22528
-0.158302
-1.03012
-0.187644
-0.883175
-0.233948
-0.742216
-0.286738
-0.682569
-0.342073
-0.662735
-0.379999
-0.521072
-0.401332
-0.478623
-0.406065
-0.459181
-0.38501
-0.458301
-0.371178
-0.487584
-0.349915
-0.521029
-0.321215
-0.561719
-0.283506
-0.600557
-0.274308
-0.631271
-0.252577
-0.636777
-0.221866
-0.643891
-0.18538
-0.651353
-0.144363
-0.656389
-0.0990018
-0.662579
-0.0500821
-0.661159
-0.664118
-0.0979866
-2.69614
-0.0500058
-2.15994
0.0281218
-1.77386
0.129038
-1.47255
0.22674
-1.29571
0.304311
-1.29356
0.313535
-1.33359
0.112594
-1.28594
-0.033749
-1.01514
-0.10316
-0.828361
-0.133794
-0.696771
-0.205165
-0.634838
-0.266401
-0.607869
-0.319711
-0.58518
-0.368694
-0.455848
-0.401629
-0.383849
-0.411424
-0.373397
-0.395323
-0.379837
-0.382385
-0.40837
-0.359493
-0.444451
-0.329264
-0.485659
-0.291048
-0.527029
-0.275042
-0.567712
-0.253005
-0.582618
-0.221593
-0.596938
-0.184985
-0.609664
-0.143794
-0.618662
-0.0986713
-0.626996
-0.0497224
-0.628644
-0.631418
-0.0798996
-2.37484
-0.0473501
-1.79264
-0.00588519
-1.24856
0.082814