/*--------------------------------*- C++ -*----------------------------------*\
| =========                 |                                                 |
| \\      /  F ield         | OpenFOAM: The Open Source CFD Toolbox           |
|  \\    /   O peration     | Version:  2112                                  |
|   \\  /    A nd           | Website:  www.openfoam.com                      |
|    \\/     M anipulation  |                                                 |
\*---------------------------------------------------------------------------*/
FoamFile
{
    version     2.0;
    format      ascii;
    arch        "LSB;label=32;scalar=64";
    class       surfaceScalarField;
    location    "0.00235";
    object      phi;
}
// * * * * * * * * * * * * * * * * * * * * * * * * * * * * * * * * * * * * * //

dimensions      [1 0 -1 0 0 0 0];

oriented        oriented;

internalField   nonuniform List<scalar> 
27436
(
-0.53337
8.19264
-0.0933586
7.47139
-0.0827857
7.7856
-0.0692823
7.78645
-0.0693235
7.79281
-0.0543532
7.78211
-0.0400622
7.78262
-0.0290673
7.78481
-0.0200836
7.78798
-0.0129129
7.79014
-0.00222088
7.78782
0.00654026
7.78804
0.0156839
7.78857
0.027451
7.7861
0.0396064
7.78646
0.0454829
7.79082
0.0544546
7.78839
0.0644356
7.78612
0.0785167
7.78295
0.0953625
7.78059
0.095463
7.79258
0.110927
7.78544
0.123605
7.78231
0.572306
7.46131
8.21206
-0.247091
8.43973
-0.096404
7.32068
-0.0818014
7.771
-0.0573817
7.76206
-0.0553834
7.79079
-0.047388
7.77412
-0.0380794
7.77329
-0.039785
7.78657
-0.0211567
7.76945
-0.0134149
7.78168
-0.00457585
7.77716
0.00567588
7.77705
0.0159615
7.77909
0.0242949
7.77685
0.0314935
7.77683
0.0396257
7.7815
0.0612168
7.76713
0.0581514
7.78863
0.0668904
7.77401
0.075516
7.77203
0.0734297
7.79483
0.102997
7.75589
0.114089
7.77136
0.267985
7.30589
8.48225
-0.227324
8.66705
-0.141256
7.23464
-0.120623
7.75037
-0.107772
7.74919
-0.0983386
7.78135
-0.0934992
7.7693
-0.0906698
7.77045
-0.0883721
7.7844
-0.0678133
7.74894
-0.0529544
7.76712
-0.0359471
7.7632
-0.0307908
7.77258
-0.0212158
7.77273
-0.00692088
7.76966
0.00719033
7.77013
0.0255667
7.76287
0.0367333
7.75275
0.0438628
7.78174
0.0477737
7.77006
0.0523019
7.76747
0.0628775
7.78419
0.0787542
7.74011
0.100426
7.74937
0.192204
7.21507
8.68138
-0.169863
8.83691
-0.139939
7.20473
-0.134681
7.74512
-0.112674
7.72719
-0.104726
7.7734
-0.0992735
7.76386
-0.0959019
7.76708
-0.0844401
7.7731
-0.0658053
7.73136
-0.0489287
7.75012
-0.0304777
7.7449
-0.0180313
7.76115
-0.00599799
7.7606
0.0103231
7.75577
0.029176
7.75363
0.0516603
7.74103
0.0615635
7.74034
0.0739313
7.76955
0.0789915
7.76493
0.0849387
7.76151
0.0924658
7.77658
0.118485
7.7141
0.111464
7.75607
0.161919
7.16625
8.84456
-0.0740229
8.91093
-0.0369515
7.16769
-0.0914138
7.79958
-0.0585182
7.6943
-0.059379
7.77428
-0.0592139
7.76372
-0.0596069
7.76749
-0.049912
7.76374
-0.0343256
7.71625
-0.0187473
7.73398
-0.00339642
7.73138
0.00779221
7.75051
0.0179844
7.75012
0.0319401
7.74432
0.0504699
7.73744
0.071097
7.72163
0.0772489
7.73148
0.0877476
7.75923
0.0882726
7.76432
0.0898309
7.75987
0.0929421
7.7734
0.123986
7.68301
0.0901392
7.78964
0.0976087
7.15913
8.93888
0.116974
8.79396
0.0431636
7.24152
-0.0491699
7.89192
-0.00788714
7.65301
-0.0216286
7.78805
-0.0292501
7.77136
-0.0340209
7.77231
-0.0287231
7.75889
-0.0183358
7.70595
-0.00736093
7.72066
0.00449598
7.72496
0.0118079
7.74339
0.0180238
7.74364
0.0272963
7.73482
0.044172
7.72233
0.0593688
7.70769
0.0614088
7.72817
0.0667499
7.7541
0.0629225
7.76813
0.0573999
7.76533
0.0466105
7.78411
0.0866324
7.64297
-0.013585
7.88952
-0.0191292
7.16473
8.91502
0.303421
8.49059
0.135587
7.40943
-0.00425724
8.03229
0.0284576
7.61979
-0.0107888
7.82731
-0.043393
7.80398
-0.0699086
7.79892
-0.0824695
7.772
-0.0939149
7.7174
-0.106852
7.7311
-0.110505
7.7343
-0.123891
7.75689
-0.135069
7.75461
-0.14741
7.74324
-0.146495
7.72174
-0.150657
7.7123
-0.170935
7.74856
-0.18589
7.76952
-0.210487
7.79276
-0.241915
7.79666
-0.269503
7.81163
-0.28776
7.66123
-0.354308
7.9559
-0.65706
7.46787
8.25441
0.872018
7.61861
0.521002
7.76055
0.414642
8.13876
0.338451
7.69593
0.278004
7.88773
0.225512
7.85651
0.183056
7.84149
0.155572
7.79992
0.128332
7.74476
0.100786
7.75712
0.0826491
7.75442
0.0585831
7.7813
0.0330708
7.7799
0.00937583
7.75908
-0.00683824
7.73783
-0.0273873
7.73343
-0.0584342
7.78115
-0.089036
7.80094
-0.129175
7.83314
-0.177982
7.84542
-0.234852
7.86825
-0.282551
7.70885
-0.406891
8.08014
-0.693306
7.75423
7.55982
0.596073
7.02326
0.409875
7.94713
0.241989
8.30669
0.196515
7.74133
0.143096
7.94107
0.103118
7.89645
0.0788724
7.86596
0.0722617
7.80675
0.0686331
7.74842
0.0649154
7.76036
0.0677132
7.74941
0.0725071
7.77742
0.0748931
7.77717
0.0771343
7.74777
0.086508
7.72618
0.0864256
7.73525
0.0802653
7.79219
0.0730934
7.80935
0.0518623
7.8546
0.0168121
7.88034
-0.0332071
7.91823
-0.049299
7.72489
-0.220171
8.25103
-0.372717
7.90696
7.1902
-3.02719
10.0508
-3.39072
8.31103
-2.76693
7.68298
-2.61298
7.58734
-2.3091
7.63717
-2.00867
7.59636
-1.71046
7.56821
-1.38408
7.48039
-1.09442
7.45839
-0.810448
7.4758
-0.52149
7.45443
-0.208137
7.46455
0.0993037
7.46878
0.403748
7.4388
0.702395
7.42305
0.988916
7.45155
1.29644
7.49033
1.60243
7.50536
1.90026
7.55694
2.20179
7.578
2.50442
7.61471
2.63303
7.59604
3.20933
7.67511
2.93527
8.18131
10.1283
-4.22176
14.2755
-4.55138
8.64275
-4.14886
7.28033
-3.81824
7.25636
-3.39493
7.21409
-2.91442
7.11646
-2.41435
7.0688
-1.94875
7.0152
-1.49374
7.00303
-1.04061
7.02008
-0.594495
7.00031
-0.120581
6.98964
0.355249
6.99139
0.818119
6.97682
1.26748
6.9706
1.72047
7.00092
2.20201
7.01279
2.67484
7.03488
3.15152
7.0806
3.62299
7.10688
4.05234
7.18466
4.37864
7.26855
4.58132
7.47225
4.51598
8.24749
14.6437
-2.56931
16.8495
-5.36086
11.436
-4.9084
6.81968
-4.19643
6.54414
-3.84241
6.86117
-3.37145
6.64724
-2.83814
6.53738
-2.31557
6.49388
-1.80272
6.48944
-1.28158
6.49429
-0.771383
6.48285
-0.253192
6.4696
0.278174
6.45852
0.796779
6.46073
1.2982
6.46995
1.81862
6.48256
2.35068
6.48189
2.89184
6.49601
3.42466
6.5489
3.89586
6.63649
4.28837
6.79075
5.01795
6.5373
4.87244
7.61685
2.69105
10.4295
17.3353
2.25863
14.5948
1.06788
12.5463
-4.14376
12.1172
-3.70735
6.10953
-4.06553
7.2221
-3.6598
6.24709
-3.06339
5.94418
-2.49953
5.93175
-1.96663
5.95521
-1.43354
5.95766
-0.86386
5.9096
-0.331876
5.9369
0.242209
5.88396
0.785036
5.91938
1.3372
5.92088
1.88538
5.93735
2.42059
5.94614
2.97629
5.94105
3.57276
5.95417
4.0244
6.18514
3.84467
6.97006
4.81691
5.56322
-0.634637
13.0671
-2.38515
12.1797
14.9508
2.45152
12.1454
3.32413
11.6686
3.69203
11.7461
-0.219118
10.027
-4.4493
11.4546
-4.17341
5.97276
-3.43852
5.21952
-2.9579
5.45311
-2.27642
5.27365
-1.78544
5.46764
-1.09986
5.22481
-0.597821
5.43638
0.0562208
5.23044
0.618418
5.3589
1.25176
5.29087
1.82114
5.37097
2.4446
5.32325
2.93907
5.44496
3.62987
5.26184
3.72589
6.09067
-0.427263
11.1194
-4.66073
9.79585
-3.74891
12.1534
-2.91258
11.3426
12.0389
1.78106
10.3655
3.59461
9.85311
5.02968
10.306
5.49845
9.55787
5.25636
11.7007
2.05863
9.18641
0.835545
6.45475
-0.401363
6.69391
-0.602285
5.47838
-0.689726
5.55854
-0.267933
4.80805
-0.07377
5.24396
0.46137
4.70042
0.691411
5.13304
1.07641
4.90926
1.16567
5.2831
1.13217
5.35639
-0.00583551
6.5847
-1.44581
6.70504
-4.27964
8.921
-4.59374
11.4291
-4.14327
9.34458
-2.43336
10.4416
-1.1232
10.0319
10.9148
0.911259
9.45427
1.64853
9.11462
2.80374
9.14961
3.67003
8.692
3.44099
11.9304
1.44495
11.1874
0.439583
7.47988
-0.066668
7.21018
-0.172255
5.57583
-0.242838
5.65358
0.0584619
4.52069
-0.0992006
5.40558
0.190839
4.41756
0.249875
5.08648
0.401674
4.76688
0.489788
5.20235
0.59167
5.26267
0.224721
6.95785
-0.410549
7.34933
-1.94494
10.4583
-2.36458
11.8565
-2.02714
9.00992
-1.00538
9.42249
-0.275568
9.30116
10.6387
1.35576
8.09772
2.01495
8.45771
1.40347
9.76359
0.523707
9.56966
-0.110893
12.5516
-0.390348
11.4685
0.293359
6.80605
0.9513
6.55597
0.75454
5.77373
0.880481
5.53091
0.351599
5.04957
0.463387
5.29653
-0.0152663
4.8975
-0.0839118
5.15862
-0.408832
5.09764
-0.530308
5.32991
-0.903307
5.64257
-0.38538
6.44339
0.222815
6.73604
0.384828
10.2939
-0.680479
12.914
-1.73726
10.0692
-2.35605
10.0477
-2.03888
8.98813
8.60116
1.60862
6.49218
1.24668
8.82334
0.498949
10.5145
-0.135732
10.206
1.2092
11.1997
2.57236
10.0988
1.87755
7.50186
1.74509
6.68904
1.33386
6.18412
0.929928
5.93477
0.397402
5.58043
0.0530766
5.63997
-0.481488
5.43234
-0.886854
5.56241
-1.37765
5.58684
-1.87318
5.82386
-2.36865
6.13616
-2.52057
6.59282
-3.18245
7.39056
-2.58713
9.68922
-0.946837
11.2715
-1.70639
10.835
-2.51461
10.8635
-2.2739
8.75717
6.33401
3.26686
3.22843
5.79183
6.30336
6.03248
10.2744
5.9334
10.3067
6.39341
10.7377
6.00235
10.4834
4.62952
8.87401
3.69614
7.62313
2.93692
6.9425
2.20167
6.66812
1.43445
6.34459
0.724287
6.34716
-0.0249258
6.17861
-0.751515
6.28579
-1.50988
6.342
-2.26812
6.57953
-3.02512
6.89184
-3.90117
7.46741
-5.19263
8.6804
-5.84927
10.3444
-5.3323
10.7598
-4.90234
10.4105
-4.71368
10.6777
-2.99818
7.05278
3.34358
1.48814
1.74207
3.54908
4.25017
5.12993
8.69552
5.75475
9.68271
6.30392
10.188
6.20151
10.5837
5.09152
9.98122
3.8607
8.85241
2.8434
7.95731
1.96815
7.5406
1.12348
7.18584
0.308091
7.15923
-0.528157
7.01192
-1.36217
7.11738
-2.21578
7.19342
-3.12398
7.48604
-4.16132
7.92764
-5.4401
8.74493
-6.67259
9.91326
-6.88202
10.555
-6.31414
10.1927
-5.68543
9.78388
-3.97889
8.97733
-1.5335
4.62125
1.81363
0.241275
1.50277
0.249349
4.2442
1.71632
7.2329
2.98949
8.41015
3.81741
9.36026
4.06646
10.3349
3.60533
10.44
2.85629
9.59978
2.13268
8.67901
1.46356
8.20746
0.775441
7.87119
0.108189
7.82418
-0.589403
7.70813
-1.27
7.79722
-1.97282
7.89541
-2.67845
8.19111
-3.44728
8.69613
-4.27621
9.57439
-4.7813
10.4186
-4.45815
10.2325
-3.53825
9.2729
-2.20553
8.45266
-0.592406
7.37197
-0.258932
4.29803
1.55911
-0.936953
2.44076
-0.86565
4.17368
0.285835
6.08403
1.21364
7.48401
1.94739
8.62676
2.27228
10.0099
2.22572
10.4844
1.9091
9.91441
1.49304
9.09329
1.06596
8.63233
0.613301
8.32211
0.144409
8.29229
-0.336397
8.18932
-0.812149
8.27373
-1.26323
8.34689
-1.69941
8.62739
-2.11385
9.1105
-2.41669
9.87781
-2.41689
10.4212
-2.06617
9.88208
-1.28977
8.49702
-0.285425
7.45018
0.831288
6.26047
0.995434
4.13808
2.5575
-0.863119
3.30918
-1.21395
4.52572
-0.832882
5.70432
-0.192437
6.84352
0.354813
8.0795
0.673242
9.69229
0.903784
10.2522
0.983946
9.8343
0.888667
9.18836
0.699755
8.8202
0.450611
8.57118
0.202316
8.54126
-0.0757745
8.46889
-0.322661
8.5225
-0.560491
8.58645
-0.728642
8.79667
-0.785425
9.16793
-0.667393
9.7611
-0.430276
10.1855
-0.150598
9.60273
0.400786
7.94744
1.04585
6.80647
1.37365
5.93691
0.89347
4.62237
3.45427
-0.738007
4.0495
-1.53683
5.32466
-1.67359
5.84286
-1.46483
6.6358
-1.16268
7.77788
-0.732169
9.26113
-0.317764
9.83743
-0.0649094
9.58094
0.0423233
9.08158
0.0724368
8.78968
0.0312337
8.61347
-0.0548373
8.62883
-0.150644
8.56645
-0.239804
8.61366
-0.277561
8.62641
-0.256731
8.77767
-0.159242
9.07155
0.0819125
9.52138
0.520953
9.74938
0.988448
9.13694
1.27235
7.66546
1.51282
6.5684
1.45102
6.00208
0.684639
5.39376
4.14066
-0.425043
4.47809
-1.19371
6.09434
-1.66824
6.31851
-1.72384
6.69149
-1.585
7.63911
-1.19928
8.87591
-0.742656
9.38097
-0.403793
9.24402
-0.203533
8.88263
-0.107776
8.6945
-0.0828911
8.59013
-0.0682274
8.61569
-0.076509
8.5762
-0.0626022
8.60153
-0.0411743
8.60705
0.0567571
8.68206
0.27647
8.85361
0.63252
9.16644
1.09076
9.29018
1.48476
8.7436
1.59774
7.55426
1.51649
6.65214
1.09885
6.42244
0.343978
6.15199
4.48644
-0.300178
4.78282
-1.1172
6.91206
-1.74228
6.94325
-1.92521
6.87296
-1.87378
7.58818
-1.51583
8.51751
-1.07569
8.94153
-0.704642
8.87346
-0.443758
8.62278
-0.255601
8.50684
-0.110971
8.44698
-0.00312892
8.50927
0.0906205
8.4838
0.19391
8.49962
0.345972
8.45646
0.539348
8.49057
0.805465
8.58937
1.18126
8.79186
1.63095
8.84368
1.97563
8.40092
2.01037
7.52056
1.82643
6.83771
1.2455
7.00561
0.402095
6.99951
4.89417
-0.403423
5.18834
-1.42753
7.93296
-1.86946
7.38365
-2.19237
7.19602
-2.21783
7.61372
-1.95184
8.25122
-1.53153
8.52197
-1.12401
8.46774
-0.807678
8.3076
-0.584186
8.284
-0.414036
8.2778
-0.242065
8.33871
-0.0763706
8.31944
0.0991882
8.32538
0.274187
8.28235
0.501232
8.26465
0.81319
8.27874
1.20309
8.40401
1.59657
8.44832
1.86564
8.13141
1.87349
7.51433
1.59428
7.11802
1.17397
7.42617
0.2257
7.9462
5.12674
-0.422039
5.61183
-1.20154
8.71646
-1.60935
7.79217
-1.95111
7.53741
-1.99883
7.66145
-1.76751
8.02072
-1.41192
8.16744
-1.05974
8.11535
-0.76703
8.01554
-0.515301
8.03251
-0.27979
8.04327
-0.0804916
8.1405
0.122574
8.11768
0.325531
8.12369
0.567342
8.04154
0.821292
8.01147
1.11769
7.9833
1.47262
8.04932
1.82772
8.09627
2.02054
7.94136
1.96347
7.57224
1.61301
7.46866
1.21077
7.82889
0.454656
8.7029
5.58888
-0.537532
6.1494
-1.14857
9.32895
-1.58348
8.22786
-1.77826
7.73292
-1.92253
7.80634
-1.78765
7.88537
-1.46085
7.84051
-1.10314
7.75904
-0.782821
7.69547
-0.512615
7.76271
-0.275725
7.80675
-0.0254496
7.89113
0.208801
7.88441
0.458921
7.87458
0.689051
7.81228
0.959739
7.74126
1.27711
7.66621
1.62942
7.6982
1.94197
7.78215
2.065
7.81766
1.91318
7.72489
1.73805
7.64552
1.36807
8.20071
0.74184
9.33089
6.33853
-0.890286
7.03824
-1.36761
9.8065
-1.80695
8.66895
-1.98888
7.9126
-2.10834
7.92618
-2.00123
7.77947
-1.72681
7.56675
-1.41146
7.44356
-1.11995
7.40396
-0.845327
7.48818
-0.559282
7.52111
-0.308723
7.64099
-0.0403649
7.61633
0.217926
7.61686
0.509762
7.52113
0.787442
7.46411
1.07213
7.38163
1.37092
7.39965
1.63173
7.52239
1.71627
7.73488
1.64048
7.79926
1.45385
7.82872
1.08398
8.57113
0.572682
9.84372
6.91112
-0.589187
7.62626
-1.23518
10.4485
-1.61062
9.04156
-1.77299
8.07756
-1.76661
7.92223
-1.67826
7.69025
-1.45847
7.34665
-1.18153
7.16598
-0.893852
7.11644
-0.613624
7.20834
-0.357074
7.26442
-0.0730005
7.35694
0.193844
7.34937
0.472773
7.33788
0.724089
7.26993
1.00206
7.18629
1.28217
7.10116
1.5475
7.13332
1.75711
7.31244
1.82949
7.66178
1.8176
7.81488
1.62483
8.02904
1.35983
8.83659
0.823222
10.3764
7.73242
-0.254908
7.88086
-0.74124
10.932
-1.48097
9.7848
-1.57321
8.16757
-1.59827
7.94362
-1.49826
7.59061
-1.29991
7.14955
-1.08807
6.95469
-0.859554
6.88783
-0.612701
6.96162
-0.329748
6.98133
-0.0751147
7.10196
0.192515
7.08099
0.442375
7.08745
0.72279
6.98908
0.965513
6.94329
1.18937
6.8769
1.40172
6.92046
1.59868
7.11581
1.69395
7.56626
1.67898
7.82215
1.67302
8.02873
0.994724
9.51669
0.517119
10.8551
8.24877
-0.478061
8.36158
-0.900526
11.3515
-1.7327
10.6161
-1.74188
8.17946
-1.72544
7.92912
-1.61058
7.47485
-1.43714
6.97421
-1.21486
6.73156
-0.986887
6.6597
-0.737441
6.71228
-0.499696
6.74306
-0.228035
6.82975
0.0323922
6.81981
0.307485
6.81152
0.544705
6.75114
0.794962
6.69257
1.01856
6.65259
1.23022
6.70826
1.3866
6.95667
1.48801
7.46472
1.46618
7.85269
1.38185
8.11351
0.567978
10.3306
0.220204
11.2012
8.47023
-0.0927752
8.45341
-0.462423
11.722
-1.12202
11.2744
-1.46288
8.51959
-1.47501
7.93558
-1.332
7.33156
-1.17184
6.81485
-0.990197
6.55047
-0.799816
6.46947
-0.584885
6.49737
-0.319067
6.47678
-0.0735442
6.5835
0.188244
6.55703
0.427635
6.57128
0.689628
6.48835
0.89927
6.48224
1.08378
6.46761
1.265
6.5261
1.44302
6.78057
1.56681
7.33791
1.55868
7.85247
1.36841
8.30288
0.58244
11.1127
0.259631
11.5228
8.73013
0.0528834
8.40148
-0.079489
11.8507
-0.770537
11.9659
-1.3899
9.1417
-1.29074
7.84032
-1.22194
7.2649
-1.06779
6.66099
-0.911254
6.39314
-0.721855
6.27955
-0.512342
6.28733
-0.314304
6.278
-0.0768407
6.34532
0.149859
6.32953
0.389116
6.33123
0.582249
6.29448
0.792361
6.27145
0.973252
6.28616
1.11705
6.38157
1.27396
6.62276
1.35176
7.26167
1.52635
7.67986
0.808614
9.02163
0.225251
11.6876
-0.0125276
11.7577
8.71898
-0.24763
8.64778
-0.330217
11.9313
-0.702311
12.3412
-1.36417
9.80192
-1.35878
7.82929
-1.26766
7.17312
-1.11268
6.50614
-0.95426
6.23419
-0.806667
6.13197
-0.64206
6.12269
-0.411989
6.04742
-0.204928
6.13759
0.024587
6.09927
0.232449
6.12271
0.463867
6.06237
0.627695
6.10725
0.778579
6.13498
0.935765
6.22394
1.0919
6.46574
1.13372
7.21964
1.07883
7.73252
0.375369
9.7244
-0.0870329
12.1476
-0.126328
11.7932
8.59345
-0.0749381
8.72283
0.0466384
11.8082
-0.208118
12.5926
-0.989481
10.5801
-1.17251
8.01503
-1.06243
7.06414
-0.954118
6.39787
-0.802235
6.08293
-0.626139
5.9553
-0.43395
5.92952
-0.268573
5.88151
-0.0529535
5.92145
0.146787
5.89895
0.36098
5.90802
0.517698
5.90518
0.706015
5.91849
0.878232
5.96245
1.01339
6.08874
1.1352
6.34389
1.29908
7.05719
1.08966
7.94431
0.368204
10.4399
0.13578
12.3758
0.185124
11.7368
8.77748
0.0562811
8.66644
0.176045
11.6872
0.235619
12.5339
-0.443449
11.2648
-1.02798
8.60288
-0.900302
6.93745
-0.820989
6.31846
-0.701328
5.96342
-0.566298
5.82057
-0.424595
5.7883
-0.230276
5.68688
-0.0650615
5.75593
0.126691
5.70687
0.290046
5.74433
0.490506
5.7042
0.62717
5.7815
0.759799
5.8299
0.875774
5.97298
0.962431
6.25843
1.11282
6.90882
0.581873
8.47705
-0.0324696
11.0586
-0.0666184
12.4026
0.0242361
11.6455
8.80075
-0.190877
8.85752
-0.164511
11.659
0.0583934
12.3135
-0.364858
11.6871
-0.951584
9.18543
-1.02661
7.0123
-0.885891
6.17809
-0.794997
5.87262
-0.654089
5.67936
-0.477615
5.61104
-0.332794
5.54202
-0.151563
5.57465
0.0109383
5.54422
0.19321
5.5619
0.329229
5.56806
0.502687
5.60776
0.638905
5.69347
0.714153
5.89752
0.817177
6.15582
0.704468
7.02151
0.000790443
9.17971
-0.452779
11.5122
-0.137788
12.0847
-0.0548026
11.5612
8.74357
-0.0355955
8.89429
0.0530844
11.5717
0.420849
11.9432
0.173126
11.9346
-0.571363
9.9315
-0.822239
7.26698
-0.669394
6.02637
-0.599319
5.80348
-0.488277
5.56928
-0.366966
5.49083
-0.195
5.37031
-0.0477216
5.42756
0.122463
5.37417
0.266643
5.41776
0.441595
5.3929
0.558584
5.49078
0.670469
5.58183
0.747669
5.82154
0.887542
6.01868
0.652044
7.26175
-0.05563
9.89176
-0.215371
11.6729
0.133454
11.7282
0.167791
11.5274
8.90904
0.0764597
8.81944
0.144069
11.5052
0.431519
11.6553
0.555054
11.8096
-0.0494717
10.5337
-0.55089
7.76739
-0.645639
6.1206
-0.540464
5.69858
-0.456669
5.48528
-0.311028
5.34521
-0.19375
5.25346
-0.040783
5.27504
0.093873
5.23972
0.247353
5.26448
0.361182
5.27931
0.511337
5.34016
0.587859
5.50533
0.70679
5.70193
0.639891
6.08579
0.213946
7.68832
-0.337584
10.442
-0.282949
11.6184
0.00754817
11.4296
0.0591246
11.477
8.96986
-0.106373
8.92808
-0.0581293
11.4567
0.144523
11.4514
0.504425
11.4491
0.0587474
10.9811
-0.467389
8.29968
-0.63649
6.29209
-0.553932
5.61806
-0.476109
5.40905
-0.395614
5.2659
-0.25204
5.11052
-0.133923
5.15747
0.00901283
5.09718
0.13558
5.13822
0.275513
5.13966
0.348363
5.26779
0.420895
5.43366
0.494177
5.6304
0.229108
6.35443
-0.430501
8.35741
-0.763232
10.7801
-0.363608
11.2173
-0.210411
11.269
-0.144122
11.4117
8.82977
0.0407881
8.88735
0.0934462
11.4052
0.272383
11.2724
0.60497
11.112
0.629636
10.953
0.0181716
8.91193
-0.423803
6.73395
-0.467015
5.66209
-0.367533
5.30986
-0.255963
5.15475
-0.165514
5.02076
-0.032312
5.02483
0.0860257
4.97917
0.212573
5.01205
0.30405
5.04863
0.420899
5.15115
0.509481
5.34441
0.461351
5.67931
0.0621247
6.75468
-0.481036
8.90431
-0.427407
10.7205
-0.119469
10.8975
0.0555815
11.0891
0.114846
11.3547
8.94867
0.178753
8.70849
0.293631
11.291
0.385886
11.1784
0.608538
10.89
0.943567
10.6163
0.362125
9.49377
-0.10839
7.20281
-0.31884
5.874
-0.273737
5.26583
-0.22602
5.10806
-0.130803
4.92601
-0.0340695
4.92866
0.0812317
4.86431
0.177906
4.9158
0.272707
4.95439
0.332553
5.09153
0.374659
5.30333
0.194913
5.86007
-0.276174
7.2274
-0.820537
9.45191
-0.442641
10.3462
-0.221852
10.6729
-0.136853
11.0031
-0.0616189
11.2829
8.89238
-0.0190281
8.72715
0.0691303
11.2028
0.162721
11.0869
0.402151
10.6528
0.809728
10.2082
0.661451
9.64142
0.00236093
7.86528
-0.334594
6.21244
-0.329707
5.26191
-0.251862
5.0309
-0.182173
4.85729
-0.0906259
4.8377
0.00141063
4.77262
0.0889364
4.82867
0.148863
4.89494
0.208096
5.03323
0.16875
5.34311
-0.165358
6.19558
-0.782306
7.84749
-0.872302
9.54333
-0.57772
10.0483
-0.363441
10.459
-0.291615
10.9331
-0.155692
11.1485
8.73738
0.11448
8.6143
0.292653
11.0252
0.337471
11.0347
0.517474
10.468
0.837439
9.88957
0.985753
9.49209
0.507637
8.34481
-0.00929406
6.73013
-0.173515
5.42688
-0.169476
5.02785
-0.0925406
4.78085
-0.0235039
4.76915
0.0543851
4.69511
0.123395
4.76001
0.19569
4.82307
0.205595
5.02336
0.00296971
5.54573
-0.469158
6.66789
-0.894297
8.27198
-0.668783
9.31658
-0.386228
9.76617
-0.215685
10.287
-0.177787
10.8956
-0.0384411
11.0106
8.70303
0.171444
8.44478
0.385885
10.8103
0.475027
10.9495
0.592511
10.3553
0.788694
9.69454
1.13346
9.14965
0.842301
8.63659
0.233493
7.34025
-0.0175329
5.67854
-0.0890645
5.10045
-0.05075
4.74341
-0.00287989
4.72187
0.04287
4.6497
0.094006
4.70937
0.129617
4.78783
0.0850216
5.06857
-0.180344
5.81215
-0.780298
7.26822
-0.966079
8.45755
-0.650916
9.00347
-0.450176
9.56635
-0.33254
10.1787
-0.24954
10.818
-0.0827218
10.8428
8.61937
0.0423124
8.40634
0.24277
10.6086
0.336962
10.8459
0.425672
10.2582
0.62384
9.49774
0.845773
8.93026
0.980644
8.50195
0.652293
7.66842
0.0860885
6.24443
-0.109662
5.29699
-0.0865302
4.72077
-0.0521385
4.688
-0.0267901
4.62469
0.00764758
4.67531
-0.00479758
4.80069
-0.167574
5.23191
-0.787361
6.43078
-1.11846
7.59817
-0.957512
8.29636
-0.735719
8.78148
-0.56369
9.3968
-0.497738
10.1022
-0.41221
10.7238
-0.186708
10.6165
8.43198
0.0839711
8.32557
0.327885
10.3636
0.488079
10.6849
0.561652
10.1884
0.668143
9.39194
0.810385
8.7902
1.15834
8.15337
0.908317
7.91836
0.34926
6.8022
0.0537644
5.59249
0.000466449
4.77464
0.00100664
4.68791
0.000451071
4.62559
-0.000839999
4.67699
-0.0725785
4.8727
-0.363134
5.52284
-0.778234
6.84513
-1.09065
7.91067
-0.786762
7.99284
-0.628631
8.62501
-0.532675
9.30158
-0.457077
10.0336
-0.307513
10.5826
-0.0696835
10.3762
8.35999
0.116177
8.21207
0.448117
10.0295
0.617795
10.5127
0.651201
10.1536
0.720588
9.3244
0.871749
8.63848
1.03291
7.99297
1.18925
7.76137
0.893152
7.09906
0.217107
6.27023
0.0569104
4.93572
0.0183597
4.7269
-0.00538138
4.64965
-0.0404214
4.71234
-0.21755
5.0501
-0.859988
6.16504
-1.11228
7.0965
-0.939021
7.73756
-0.798816
7.85227
-0.65941
8.48367
-0.590889
9.23274
-0.540902
9.9782
-0.389125
10.4211
-0.0721107
10.0577
8.28834
8.92794e-05
0.019465
0.0023569
0.000726302
0.00444582
-0.0108346
0.00687609
-0.0301709
0.00976243
-0.049205
0.0130075
-0.0704745
0.0154246
-0.0872231
0.0162645
-0.0938499
0.0143683
-0.0881364
0.0101121
-0.0671571
0.00530932
-0.0332029
0.00120731
-0.000427978
-0.00172612
0.0264106
-0.00351516
0.0407863
-0.00456908
0.0484518
-0.00517904
0.0522628
-0.00548799
0.0539628
-0.00553323
0.0549055
-0.00535592
0.05544
-0.00501831
0.0557235
-0.00458363
0.0558624
-0.00409607
0.0559254
-0.00357923
0.0559479
-0.00305293
0.0559471
-0.0024627
0.0559144
-0.00195267
0.0559256
-0.00111835
0.0555368
-0.000802941
0.0559992
0.000678727
0.0530434
0.0578122
0.00312153
-0.00421402
0.00788005
-0.0426439
0.0134139
-0.0692939
0.0195585
-0.103916
0.0265659
-0.134979
0.0350867
-0.182079
0.0435801
-0.243981
0.0502655
-0.273794
0.051682
-0.267748
0.0400296
-0.207318
0.0262699
-0.151823
0.0131419
-0.0823792
0.00382965
-0.0196573
-0.00169219
0.0216604
-0.00444229
0.0413109
-0.00567798
0.0495739
-0.00616279
0.0530546
-0.00623426
0.0543414
-0.00604001
0.0548993
-0.00566529
0.0551624
-0.00517939
0.0552843
-0.00463294
0.0553358
-0.00405491
0.0553521
-0.00346109
0.0553449
-0.00282813
0.0552843
-0.00224528
0.0553406
-0.00156718
0.0548701
-0.0010711
0.0555002
-0.00106882
0.0530545
0.0567399
0.00923183
-0.0603907
0.0168597
-0.125113
0.0241128
-0.203943
0.0304582
-0.258741
0.037282
-0.290285
0.0479592
-0.316719
0.0621823
-0.347761
0.0790871
-0.385158
0.0974895
-0.425059
0.111731
-0.459902
0.0778399
-0.461823
0.0479522
-0.319829
0.0233367
-0.147008
0.00815007
-0.0439855
0.000491476
0.0169923
-0.00310286
0.0415455
-0.00447812
0.0501853
-0.00492396
0.0533378
-0.00491917
0.0543619
-0.00467895
0.0546783
-0.00430789
0.0547977
-0.00386742
0.0548419
-0.00339133
0.0548529
-0.00290114
0.0548445
-0.00239652
0.0547804
-0.00191315
0.0548553
-0.00147656
0.0544424
-0.00103118
0.0550538
-0.00135755
0.0533888
0.0553828
0.0118126
-0.187108
0.0177836
-0.261643
0.026122
-0.275905
0.0319735
-0.297964
0.0374744
-0.309927
0.0454581
-0.32641
0.0585892
-0.351927
0.0772699
-0.390138
0.102429
-0.437284
0.134773
-0.491796
0.164922
-0.551153
0.170867
-0.589795
0.0785804
-0.537552
0.0351848
-0.215838
0.011871
-0.0666964
0.00174447
0.0142907
-0.00228046
0.042036
-0.00363371
0.0506923
-0.00397299
0.0533971
-0.00388826
0.0541785
-0.00361883
0.054374
-0.00326554
0.0544231
-0.00287219
0.0544323
-0.00246425
0.0544252
-0.00205271
0.0543683
-0.00164678
0.054448
-0.00131893
0.0541219
-0.000897797
0.0546327
-0.00105786
0.0535544
0.0543266
0.0149776
-0.241563
0.0196726
-0.269678
0.0258026
-0.274184
0.0296823
-0.290924
0.0330072
-0.302755
0.0379986
-0.320075
0.0495267
-0.346091
0.068119
-0.385097
0.0949954
-0.436946
0.13013
-0.495232
0.171527
-0.555792
0.213182
-0.620891
0.244464
-0.681304
0.117391
-0.655081
0.047702
-0.284872
0.0142229
-0.0799451
0.00190575
0.0152881
-0.00229652
0.0431976
-0.00345578
0.0511209
-0.00361458
0.0533423
-0.00342537
0.0538938
-0.00310849
0.0540167
-0.00274235
0.0540333
-0.00235772
0.054028
-0.0019762
0.0539853
-0.00158216
0.0540533
-0.00127268
0.0538187
-0.000842796
0.0542038
-0.000789642
0.0535059
0.0535393
0.0123608
-0.243437
0.0144302
-0.256072
0.0194838
-0.255435
0.0221618
-0.270551
0.0242453
-0.28015
0.0273746
-0.295384
0.0359871
-0.315924
0.0531684
-0.351826
0.0812396
-0.409447
0.119614
-0.48084
0.164878
-0.556913
0.213627
-0.625539
0.264774
-0.689484
0.304907
-0.758548
0.189315
-0.733669
0.0571138
-0.339032
0.0149669
-0.0796702
0.00162127
0.0198052
-0.0023417
0.0448935
-0.00322229
0.0514905
-0.00322296
0.0531971
-0.00296481
0.0535756
-0.00262649
0.0536471
-0.00226224
0.053649
-0.00190204
0.0536225
-0.00152138
0.0536721
-0.00121323
0.0535158
-0.000792657
0.0537843
-0.000607929
0.0533248
0.0529337
0.00541059
-0.23694
0.0055162
-0.222775
0.00993149
-0.220325
0.0106754
-0.232281
0.0119677
-0.241357
0.0132773
-0.257376
0.0180441
-0.276963
0.0314352
-0.309055
0.0583177
-0.362279
0.0987198
-0.434724
0.149989
-0.526181
0.206343
-0.618241
0.262471
-0.696123
0.319156
-0.760915
0.363361
-0.830289
0.241809
-0.790383
0.0607957
-0.334358
0.0140822
-0.0659226
0.00113495
0.0262305
-0.00226762
0.0467041
-0.00286298
0.0517848
-0.00275343
0.0530046
-0.00246477
0.0532542
-0.00212939
0.0532911
-0.00179222
0.0532814
-0.00143374
0.0533132
-0.00113017
0.053217
-0.000735863
0.0533922
-0.000487953
0.0530804
0.0524478
-0.00142617
-0.21074
-0.00398833
-0.181452
-0.00201958
-0.181241
-0.0034609
-0.187788
-0.00259186
-0.199121
-0.00299258
-0.216276
-0.000959608
-0.236794
0.00817697
-0.266436
0.0310486
-0.316384
0.0693673
-0.38607
0.12257
-0.472925
0.186912
-0.575815
0.254081
-0.681594
0.316929
-0.765951
0.376758
-0.831417
0.423053
-0.900118
0.234067
-0.82641
0.0580621
-0.289901
0.0119539
-0.0428386
0.000626668
0.032752
-0.00205842
0.0483317
-0.00240919
0.0519797
-0.0022362
0.0527961
-0.00194789
0.0529489
-0.00164061
0.0529669
-0.00131367
0.0529856
-0.00102433
0.0529318
-0.000668076
0.0530381
-0.000402208
0.0528175
0.0520472
-0.00751266
-0.174195
-0.0121913
-0.13739
-0.014987
-0.138954
-0.0173309
-0.141058
-0.0176418
-0.155579
-0.0189273
-0.174607
-0.0196566
-0.198411
-0.015467
-0.227375
0.0044663
-0.272091
0.0391729
-0.339244
0.0901013
-0.425308
0.155756
-0.52121
0.232011
-0.63417
0.308907
-0.748548
0.377383
-0.83541
0.437995
-0.900443
0.484067
-0.96617
0.181412
-0.836131
0.0500518
-0.237935
0.00917016
-0.0168545
0.000172347
0.0386193
-0.00179721
0.049626
-0.00195639
0.0520702
-0.00175361
0.0525827
-0.00148252
0.0526736
-0.00118908
0.0526896
-0.000918556
0.0526651
-0.000601327
0.0527238
-0.000339318
0.0525584
0.0517087
-0.0111764
-0.132839
-0.0193261
-0.0958
-0.0263141
-0.0973857
-0.0304892
-0.0978536
-0.032075
-0.115114
-0.0345069
-0.136329
-0.0371138
-0.163773
-0.0371334
-0.193768
-0.0232124
-0.234581
0.0106797
-0.294923
0.0585924
-0.381417
0.121754
-0.475101
0.199101
-0.579966
0.286528
-0.70128
0.371577
-0.819546
0.444825
-0.904357
0.50366
-0.970097
0.539878
-1.01847
0.152879
-0.802486
0.0387786
-0.166959
0.00633122
0.00779885
-0.000270676
0.0433488
-0.00152761
0.0505381
-0.00154801
0.0520712
-0.00133423
0.0523723
-0.00107496
0.0524199
-0.000824134
0.0524169
-0.00054198
0.0524444
-0.000292907
0.0523122
0.0514169
-0.0139039
-0.0936232
-0.0251882
-0.0593701
-0.0361744
-0.0607157
-0.0425138
-0.0618976
-0.0456239
-0.0808411
-0.0500314
-0.103942
-0.0533949
-0.134008
-0.0557651
-0.165855
-0.047718
-0.20433
-0.0186893
-0.257468
0.0290635
-0.339448
0.0896169
-0.434252
0.164335
-0.535383
0.253602
-0.647186
0.351356
-0.776158
0.442486
-0.893481
0.520507
-0.972292
0.586792
-1.04402
0.561283
-1.03302
0.123947
-0.645997
0.0269195
-0.0938765
0.00389693
0.0254126
-0.00054898
0.0467391
-0.00126573
0.0511018
-0.00119182
0.0520011
-0.000975387
0.052161
-0.000744395
0.0521851
-0.000491662
0.0521937
-0.000258131
0.0520808
0.0511591
-0.0150338
-0.0606162
-0.0298923
-0.0312371
-0.0439548
-0.0319723
-0.0532807
-0.0347051
-0.0590921
-0.0542594
-0.0649466
-0.0781559
-0.0688398
-0.110057
-0.0721927
-0.143103
-0.0687083
-0.180142
-0.046787
-0.226773
0.00219299
-0.301424
0.0596857
-0.396476
0.131743
-0.49709
0.218551
-0.603011
0.319898
-0.722654
0.426964
-0.856987
0.521847
-0.968648
0.603574
-1.04078
0.669719
-1.11875
0.500532
-0.979608
0.0908498
-0.348702
0.0170034
-0.0352698
0.00208883
0.0360339
-0.00066638
0.0489189
-0.00101092
0.0513892
-0.000881714
0.0518776
-0.000675273
0.0519636
-0.000448229
0.0519675
-0.000230628
0.0518655
0.0509286
-0.0162295
-0.0378096
-0.0354439
-0.0146001
-0.0500457
-0.016185
-0.0627683
-0.0188965
-0.0714219
-0.0375208
-0.077998
-0.0594146
-0.0831424
-0.0919692
-0.0869596
-0.124091
-0.0868036
-0.161058
-0.0713452
-0.201069
-0.0295404
-0.270596
0.0312495
-0.360339
0.101548
-0.46361
0.185422
-0.566696
0.284767
-0.678248
0.398393
-0.806751
0.513066
-0.94202
0.610575
-1.04413
0.687007
-1.11709
0.750715
-1.17814
0.234656
-0.86706
0.0594347
-0.209432
0.00997301
0.00375552
0.000924723
0.042968
-0.000652898
0.0501705
-0.000763908
0.0514839
-0.000608003
0.0517351
-0.000407202
0.0517615
-0.000206774
0.0516669
0.0507231
-0.0157393
-0.0200348
-0.0373332