/*--------------------------------*- C++ -*----------------------------------*\
| =========                 |                                                 |
| \\      /  F ield         | OpenFOAM: The Open Source CFD Toolbox           |
|  \\    /   O peration     | Version:  2112                                  |
|   \\  /    A nd           | Website:  www.openfoam.com                      |
|    \\/     M anipulation  |                                                 |
\*---------------------------------------------------------------------------*/
FoamFile
{
    version     2.0;
    format      ascii;
    arch        "LSB;label=32;scalar=64";
    class       volScalarField;
    location    "0.00772";
    object      epsilon;
}
// * * * * * * * * * * * * * * * * * * * * * * * * * * * * * * * * * * * * * //

dimensions      [0 2 -3 0 0 0 0];

internalField   nonuniform List<scalar> 
13875
(
1.16003e+06
2.94626e+07
3.28243e+07
3.2845e+07
3.28978e+07
3.2845e+07
3.2907e+07
3.29603e+07
3.29096e+07
3.28734e+07
3.29039e+07
3.29131e+07
3.28759e+07
3.28451e+07
3.28613e+07
3.29105e+07
3.29483e+07
3.2913e+07
3.28931e+07
3.28607e+07
3.28994e+07
3.28308e+07
3.2804e+07
2.94975e+07
1.17785e+06
1.31393e+06
2.27473e+07
2.53555e+07
2.52407e+07
2.52756e+07
2.52225e+07
2.52368e+07
2.52663e+07
2.52213e+07
2.52186e+07
2.52365e+07
2.52515e+07
2.5214e+07
2.51946e+07
2.52008e+07
2.525e+07
2.5246e+07
2.52363e+07
2.52251e+07
2.52292e+07
2.52697e+07
2.52198e+07
2.53282e+07
2.27646e+07
1.34197e+06
1.5731e+06
1.97063e+07
2.183e+07
2.16272e+07
2.16956e+07
2.16413e+07
2.15715e+07
2.15664e+07
2.15195e+07
2.15038e+07
2.15235e+07
2.1548e+07
2.16108e+07
2.16034e+07
2.15973e+07
2.15471e+07
2.15317e+07
2.15303e+07
2.15486e+07
2.1641e+07
2.16834e+07
2.16018e+07
2.17904e+07
1.96928e+07
1.58433e+06
1.81383e+06
1.7385e+07
1.90385e+07
1.88789e+07
1.89641e+07
1.89136e+07
1.88309e+07
1.88224e+07
1.87841e+07
1.87605e+07
1.8775e+07
1.87889e+07
1.88869e+07
1.88812e+07
1.88765e+07
1.87874e+07
1.8794e+07
1.87802e+07
1.88065e+07
1.89152e+07
1.89522e+07
1.88579e+07
1.90151e+07
1.73635e+07
1.82037e+06
2.02292e+06
1.54523e+07
1.67728e+07
1.66197e+07
1.67019e+07
1.66529e+07
1.65691e+07
1.65674e+07
1.65371e+07
1.6518e+07
1.65309e+07
1.65345e+07
1.66285e+07
1.66279e+07
1.66196e+07
1.65334e+07
1.65474e+07
1.65309e+07
1.65526e+07
1.66548e+07
1.66902e+07
1.66051e+07
1.67448e+07
1.54268e+07
2.03637e+06
2.20663e+06
1.37125e+07
1.49291e+07
1.47384e+07
1.48308e+07
1.4771e+07
1.46776e+07
1.46819e+07
1.46548e+07
1.46387e+07
1.46523e+07
1.4648e+07
1.47394e+07
1.47428e+07
1.47318e+07
1.46465e+07
1.46676e+07
1.46478e+07
1.46668e+07
1.47746e+07
1.48194e+07
1.47292e+07
1.49041e+07
1.3846e+07
2.22333e+06
2.42276e+06
1.22517e+07
1.34793e+07
1.32081e+07
1.32703e+07
1.31962e+07
1.30902e+07
1.30938e+07
1.30689e+07
1.30519e+07
1.30672e+07
1.30572e+07
1.31467e+07
1.31519e+07
1.31378e+07
1.3055e+07
1.30836e+07
1.30616e+07
1.30854e+07
1.32005e+07
1.3257e+07
1.32015e+07
1.34219e+07
1.19508e+07
2.43015e+06
2.66624e+06
1.06162e+07
1.23146e+07
1.19777e+07
1.20005e+07
1.18823e+07
1.17558e+07
1.175e+07
1.17238e+07
1.17062e+07
1.17257e+07
1.17082e+07
1.17968e+07
1.18047e+07
1.17879e+07
1.17049e+07
1.17429e+07
1.17209e+07
1.17514e+07
1.18841e+07
1.19811e+07
1.19653e+07
1.22644e+07
1.05443e+07
2.69551e+06
3.49687e+06
1.02135e+07
1.14854e+07
1.10326e+07
1.09415e+07
1.0781e+07
1.06314e+07
1.06143e+07
1.05858e+07
1.0564e+07
1.05917e+07
1.0568e+07
1.06547e+07
1.06651e+07
1.06473e+07
1.05658e+07
1.06086e+07
1.05867e+07
1.06247e+07
1.07798e+07
1.09224e+07
1.10214e+07
1.14744e+07
1.03385e+07
3.57462e+06
6.83668e+06
1.22221e+07
1.12001e+07
1.04325e+07
1.01675e+07
9.92269e+06
9.759e+06
9.72694e+06
9.69532e+06
9.67352e+06
9.70372e+06
9.67784e+06
9.75812e+06
9.77067e+06
9.75335e+06
9.68322e+06
9.71961e+06
9.70849e+06
9.74517e+06
9.91455e+06
1.01427e+07
1.03594e+07
1.11604e+07
1.21295e+07
6.89316e+06
1.49193e+07
1.8702e+07
1.20553e+07
1.03281e+07
9.61436e+06
9.31084e+06
9.13072e+06
9.06317e+06
9.02466e+06
9.00401e+06
9.03065e+06
9.00533e+06
9.07578e+06
9.09075e+06
9.07903e+06
9.02878e+06
9.05613e+06
9.06187e+06
9.12349e+06
9.28581e+06
9.60823e+06
1.02666e+07
1.18759e+07
1.79362e+07
1.49973e+07
2.54771e+07
6.90014e+07
1.81888e+07
1.07095e+07
9.69999e+06
9.00029e+06
8.70533e+06
8.59825e+06
8.5427e+06
8.52143e+06
8.53741e+06
8.51563e+06
8.57099e+06
8.58885e+06
8.58589e+06
8.557e+06
8.58076e+06
8.61105e+06
8.70148e+06
9.01564e+06
9.65098e+06
1.05468e+07
1.7568e+07
6.72401e+07
2.50285e+07
2.65968e+07
7.62714e+07
8.70347e+07
2.3933e+07
1.0914e+07
9.09843e+06
8.72069e+06
8.44477e+06
8.33223e+06
8.28736e+06
8.28128e+06
8.25754e+06
8.29523e+06
8.31566e+06
8.32613e+06
8.32745e+06
8.38067e+06
8.49084e+06
8.76117e+06
9.15764e+06
1.12944e+07
2.25944e+07
8.08113e+07
7.64802e+07
2.60776e+07
2.63681e+07
5.53632e+07
8.00603e+07
1.04573e+08
5.74323e+07
1.30371e+07
9.61878e+06
8.81625e+06
8.57694e+06
8.55933e+06
8.55384e+06
8.5319e+06
8.56179e+06
8.58227e+06
8.60156e+06
8.62083e+06
8.65687e+06
8.88424e+06
9.9356e+06
1.44491e+07
6.59321e+07
9.10004e+07
7.53212e+07
5.44696e+07
2.57487e+07
2.53516e+07
4.26824e+07
5.82536e+07
7.25476e+07
7.50622e+07
7.45562e+07
2.33912e+07
1.31009e+07
1.11116e+07
1.04041e+07
1.01204e+07
1.00109e+07
1.00082e+07
1.00381e+07
1.01221e+07
1.03549e+07
1.10353e+07
1.31715e+07
2.58145e+07
7.72637e+07
7.54011e+07
6.60374e+07
5.65834e+07
4.2222e+07
2.64091e+07
2.47222e+07
3.36117e+07
4.34183e+07
5.42704e+07
5.91447e+07
6.78647e+07
5.12113e+07
4.52721e+07
4.1714e+07
3.28031e+07
3.47483e+07
3.58432e+07
3.66495e+07
3.63726e+07
3.52175e+07
3.32475e+07
4.03576e+07
4.92696e+07
5.19838e+07
6.88753e+07
5.83901e+07
5.04881e+07
4.26188e+07
3.34151e+07
2.57892e+07
2.00663e+07
2.52983e+07
3.23061e+07
4.194e+07
4.95556e+07
6.2239e+07
7.10355e+07
7.09004e+07
5.77653e+07
4.97085e+07
5.23598e+07
5.50534e+07
5.66734e+07
5.60831e+07
5.32572e+07
5.33747e+07
5.79994e+07
7.09762e+07
7.14349e+07
6.20623e+07
4.75359e+07
3.90897e+07
3.09513e+07
2.45356e+07
1.99497e+07
1.48311e+07
1.91118e+07
2.63962e+07
3.7305e+07
4.56737e+07
5.32948e+07
6.40044e+07
6.90971e+07
5.12957e+07
3.81626e+07
3.53485e+07
3.56454e+07
3.63462e+07
3.60311e+07
3.59353e+07
4.1351e+07
5.15117e+07
6.53538e+07
6.36623e+07
5.42806e+07
4.53835e+07
3.61051e+07
2.54341e+07
1.85699e+07
1.45234e+07
1.21769e+07
1.66127e+07
2.37887e+07
3.74452e+07
4.82999e+07
4.63353e+07
4.93724e+07
5.50412e+07
4.54277e+07
3.40307e+07
2.88008e+07
2.7341e+07
2.71622e+07
2.76326e+07
2.95106e+07
3.5319e+07
4.38021e+07
5.17987e+07
4.93193e+07
4.73379e+07
5.03457e+07
3.76843e+07
2.37112e+07
1.64173e+07
1.20248e+07
1.15139e+07
1.79165e+07
2.47896e+07
3.76966e+07
4.40525e+07
3.92918e+07
3.87577e+07
4.25094e+07
3.88965e+07
3.12823e+07
2.55337e+07
2.24467e+07
2.14795e+07
2.29327e+07
2.65623e+07
3.20105e+07
3.70595e+07
4.01215e+07
3.87584e+07
4.02141e+07
4.48714e+07
3.69302e+07
2.49121e+07
1.81747e+07
1.16597e+07
2.93018e+07
5.40973e+07
4.17325e+07
3.23804e+07
3.49772e+07
3.1705e+07
3.10239e+07
3.40484e+07
3.29985e+07
2.76652e+07
2.2152e+07
1.84806e+07
1.72864e+07
1.92379e+07
2.34526e+07
2.82586e+07
3.13506e+07
3.23024e+07
3.11107e+07
3.24448e+07
3.55216e+07
3.29064e+07
4.64629e+07
6.06743e+07
3.67214e+07
9.22479e+07
2.99289e+08
5.55858e+07
2.60813e+07
2.76645e+07
2.57883e+07
2.54176e+07
2.79191e+07
2.78439e+07
2.39161e+07
1.89372e+07
1.52588e+07
1.40477e+07
1.60257e+07
2.01355e+07
2.42853e+07
2.6361e+07
2.66532e+07
2.54665e+07
2.62934e+07
2.79362e+07
2.66682e+07
6.17296e+07
2.9139e+08
1.04961e+08
1.01402e+08
2.00456e+08
4.57778e+07
2.16988e+07
2.24013e+07
2.13287e+07
2.10621e+07
2.31864e+07
2.34113e+07
2.03315e+07
1.59992e+07
1.26612e+07
1.15074e+07
1.326e+07
1.69505e+07
2.05413e+07
2.20614e+07
2.22031e+07
2.10893e+07
2.15755e+07
2.24774e+07
2.20509e+07
4.7367e+07
1.99542e+08
9.98952e+07
8.55299e+07
1.9675e+08
3.5941e+07
1.85813e+07
1.84168e+07
1.77125e+07
1.75594e+07
1.93067e+07
1.96511e+07
1.71104e+07
1.33537e+07
1.04833e+07
9.52857e+06
1.10447e+07
1.42505e+07
1.73501e+07
1.85205e+07
1.85136e+07
1.76416e+07
1.79544e+07
1.85446e+07
1.89803e+07
3.75933e+07
2.08737e+08
8.65875e+07
7.72994e+07
1.87018e+08
3.01238e+07
1.62473e+07
1.55218e+07
1.48972e+07
1.48483e+07
1.62232e+07
1.65459e+07
1.44324e+07
1.12386e+07
8.78755e+06
7.98618e+06
9.27077e+06
1.20371e+07
1.46835e+07
1.56181e+07
1.55569e+07
1.49085e+07
1.5124e+07
1.57028e+07
1.66285e+07
3.21293e+07
2.07051e+08
7.91321e+07
7.06068e+07
1.83759e+08
2.6206e+07
1.42113e+07
1.33071e+07
1.26612e+07
1.27175e+07
1.37544e+07
1.39949e+07
1.22227e+07
9.53126e+06
7.44581e+06
6.76467e+06
7.84144e+06
1.01823e+07
1.2417e+07
1.32082e+07
1.31447e+07
1.26798e+07
1.28157e+07
1.34815e+07
1.44987e+07
2.76983e+07
1.98087e+08
7.37285e+07
6.65407e+07
1.65399e+08
2.24378e+07
1.24854e+07
1.1573e+07
1.08932e+07
1.09825e+07
1.173e+07
1.18331e+07
1.03265e+07
8.09574e+06
6.36082e+06
5.79313e+06
6.71778e+06
8.71046e+06
1.05854e+07
1.12765e+07
1.12441e+07
1.09151e+07
1.10301e+07
1.17949e+07
1.27988e+07
2.41046e+07
1.81819e+08
6.98171e+07
6.29708e+07
1.52704e+08
1.99813e+07
1.11081e+07
1.02113e+07
9.5121e+06
9.5872e+06
1.01132e+07
1.011e+07
8.81733e+06
6.95686e+06
5.49433e+06
5.00717e+06
5.79182e+06
7.46889e+06
9.04372e+06
9.66979e+06
9.68245e+06
9.48049e+06
9.61149e+06
1.04009e+07
1.13538e+07
2.15491e+07
1.71283e+08
6.52276e+07
5.84266e+07
1.44675e+08
1.82085e+07
9.96445e+06
9.1082e+06
8.44627e+06
8.44451e+06
8.78273e+06
8.69086e+06
7.58101e+06
6.03086e+06
4.79116e+06
4.36693e+06
5.03035e+06
6.4328e+06
7.74647e+06
8.33064e+06
8.39942e+06
8.30084e+06
8.47832e+06
9.23871e+06
1.01585e+07
1.92719e+07
1.5206e+08
6.1499e+07
5.43155e+07
1.29522e+08
1.66937e+07
9.02969e+06
8.13615e+06
7.55654e+06
7.50416e+06
7.66472e+06
7.4815e+06
6.51337e+06
5.22858e+06
4.19757e+06
3.83899e+06
4.41955e+06
5.61951e+06
6.72578e+06
7.25444e+06
7.36167e+06
7.35918e+06
7.56886e+06
8.25709e+06
9.22309e+06
1.77719e+07
1.37982e+08
5.81192e+07
5.06167e+07
1.12587e+08
1.54168e+07
8.2901e+06
7.32813e+06
6.80257e+06
6.72508e+06
6.75317e+06
6.511e+06
5.6683e+06
4.59301e+06
3.71538e+06
3.4022e+06
3.90045e+06
4.91498e+06
5.84327e+06
6.34079e+06
6.49477e+06
6.5751e+06
6.78854e+06
7.38951e+06
8.44196e+06
1.61863e+07
1.19495e+08
5.44519e+07
4.72941e+07
1.0131e+08
1.44609e+07
7.7238e+06
6.63053e+06
6.14756e+06
6.06124e+06
6.00266e+06
5.72341e+06
4.97926e+06
4.06565e+06
3.31221e+06
3.03679e+06
3.46478e+06
4.33342e+06
5.12726e+06
5.5885e+06
5.77545e+06
5.91025e+06
6.11252e+06
6.65914e+06
7.82751e+06
1.49117e+07
1.03643e+08
5.07911e+07
4.41993e+07
8.70393e+07
1.3423e+07
7.28296e+06
6.04745e+06
5.58952e+06
5.47257e+06
5.35334e+06
5.0365e+06
4.37963e+06
3.60948e+06
2.96731e+06
2.73007e+06
3.1084e+06
3.86113e+06
4.53897e+06
4.96818e+06
5.18003e+06
5.33385e+06
5.54423e+06
6.0622e+06
7.34889e+06
1.39349e+07
9.28772e+07
4.73565e+07
4.16558e+07
7.62082e+07
1.24561e+07
6.94162e+06
5.5889e+06
5.11212e+06
4.95166e+06
4.80986e+06
4.48098e+06
3.89755e+06
3.23542e+06
2.67802e+06
2.46835e+06
2.79635e+06
3.44978e+06
4.0375e+06
4.43492e+06
4.66661e+06
4.82435e+06
5.05511e+06
5.5768e+06
6.94885e+06
1.29738e+07
8.11708e+07
4.41566e+07
3.93437e+07
6.81412e+07
1.14998e+07
6.65178e+06
5.26716e+06
4.69581e+06
4.50757e+06
4.34177e+06
4.01122e+06
3.48963e+06
2.91977e+06
2.43162e+06
2.24625e+06
2.53308e+06
3.10145e+06
3.61299e+06
3.984e+06
4.21749e+06
4.38649e+06
4.63404e+06
5.22762e+06
6.65072e+06
1.19578e+07
7.14676e+07
4.16291e+07
3.69344e+07
6.04888e+07
1.06053e+07
6.39946e+06
5.02535e+06
4.34442e+06
4.11305e+06
3.9208e+06
3.60473e+06
3.1371e+06
2.6403e+06
2.21562e+06
2.05325e+06
2.30886e+06
2.81465e+06
3.26486e+06
3.60353e+06
3.82573e+06
4.01254e+06
4.28051e+06
4.96904e+06
6.40615e+06
1.1082e+07
6.41278e+07
3.93326e+07
3.50507e+07
5.48497e+07
9.83615e+06
6.29694e+06
4.85832e+06
4.05984e+06
3.78269e+06
3.56416e+06
3.25761e+06
2.84259e+06
2.40853e+06
2.03238e+06
1.88705e+06
2.11149e+06
2.55738e+06
2.95467e+06
3.26492e+06
3.48209e+06
3.68681e+06
3.98386e+06
4.77554e+06
6.25224e+06
1.01612e+07
5.67769e+07
3.7116e+07
3.31888e+07
5.1067e+07
9.13325e+06
6.14012e+06
4.75188e+06
3.85129e+06
3.49048e+06
3.25315e+06
2.96132e+06
2.59153e+06
2.20755e+06
1.87189e+06
1.74136e+06
1.93944e+06
2.33749e+06
2.69001e+06
2.97133e+06
3.1865e+06
3.40122e+06
3.76721e+06
4.6538e+06
6.10712e+06
9.33976e+06
5.20296e+07
3.53913e+07
3.11865e+07
4.66085e+07
8.37059e+06
5.82512e+06
4.7102e+06
3.70116e+06
3.24802e+06
2.98322e+06
2.69711e+06
2.36564e+06
2.02762e+06
1.73009e+06
1.61438e+06
1.7932e+06
2.14988e+06
2.46279e+06
2.72082e+06
2.93324e+06
3.16226e+06
3.60355e+06
4.59536e+06
5.85832e+06
8.63176e+06
4.9569e+07
3.35552e+07
2.95806e+07
4.34003e+07
7.70214e+06
5.50345e+06
4.7569e+06
3.60262e+06
3.05838e+06
2.75652e+06
2.47708e+06
2.17629e+06
1.8734e+06
1.60547e+06
1.50126e+06
1.65988e+06
1.98065e+06
2.26076e+06
2.499e+06
2.71708e+06
2.97583e+06
3.49279e+06
4.55927e+06
5.51326e+06
7.99535e+06
4.68111e+07
3.14906e+07
2.82947e+07
4.07284e+07
7.275e+06
5.18175e+06
4.79166e+06
3.565e+06
2.91604e+06
2.57462e+06
2.2888e+06
2.01065e+06
1.73772e+06
1.49538e+06
1.40139e+06
1.54327e+06
1.83091e+06
2.08437e+06
2.31003e+06
2.53806e+06
2.83991e+06
3.4245e+06
4.67983e+06
5.2083e+06
7.4892e+06
4.39065e+07
2.98546e+07
2.70583e+07
3.81428e+07
6.76e+06
4.80874e+06
4.63483e+06
3.56758e+06
2.80489e+06
2.43442e+06
2.12928e+06
1.86306e+06
1.61418e+06
1.39552e+06
1.31142e+06
1.4401e+06
1.70367e+06
1.93498e+06
2.15412e+06
2.40207e+06
2.73237e+06
3.42382e+06
4.66353e+06
4.92062e+06
7.53053e+06
4.07938e+07
2.84237e+07
2.60464e+07
3.59185e+07
6.36875e+06
4.45695e+06
4.38779e+06
3.7e+06
2.73929e+06
2.32609e+06
2.00322e+06
1.73948e+06
1.50793e+06
1.30796e+06
1.23119e+06
1.34659e+06
1.58607e+06
1.80116e+06
2.02207e+06
2.29737e+06
2.65698e+06
3.4783e+06
4.43911e+06
4.55431e+06
6.96813e+06
3.8246e+07
2.72434e+07
2.52186e+07
3.37388e+07
6.48748e+06
4.15853e+06
4.10159e+06
3.78877e+06
2.74146e+06
2.2391e+06
1.90853e+06
1.63691e+06
1.41506e+06
1.22915e+06
1.15851e+06
1.26273e+06
1.48378e+06
1.68898e+06
1.91946e+06
2.21442e+06
2.64855e+06
3.67921e+06
4.16359e+06
4.22347e+06
6.72185e+06
3.60268e+07
2.62809e+07
2.43766e+07
3.1912e+07
6.1003e+06
3.86677e+06
3.79407e+06
3.69359e+06
2.82801e+06
2.18052e+06
1.82746e+06
1.55329e+06
1.33465e+06
1.15915e+06
1.09406e+06
1.19039e+06
1.39866e+06
1.60068e+06
1.83824e+06
2.15841e+06
2.75744e+06
3.71923e+06
3.87084e+06
3.97869e+06
6.86871e+06
3.38821e+07
2.55361e+07
2.36413e+07
3.00561e+07
6.16051e+06
3.65145e+06
3.50262e+06
3.47794e+06
3.05884e+06
2.19109e+06
1.768e+06
1.49239e+06
1.27367e+06
1.10115e+06
1.03821e+06
1.12839e+06
1.33063e+06
1.53233e+06
1.77273e+06
2.15193e+06
2.977e+06
3.51704e+06
3.58233e+06
3.7386e+06
6.68348e+06
3.19252e+07
2.47982e+07
2.29357e+07
2.83978e+07
6.28606e+06
3.50354e+06
3.25624e+06
3.25219e+06
3.11943e+06
2.34135e+06
1.73331e+06
1.438e+06
1.22608e+06
1.05706e+06
990667
1.081e+06
1.27778e+06
1.47493e+06
1.72641e+06
2.27821e+06
3.07305e+06
3.29256e+06
3.32521e+06
3.56033e+06
6.56472e+06
3.00907e+07
2.40342e+07
2.19145e+07
2.67013e+07
6.12798e+06
3.35172e+06
3.04696e+06
3.03059e+06
2.94653e+06
2.58565e+06
1.77347e+06
1.39352e+06
1.18404e+06
1.02152e+06
954122
1.04408e+06
1.23422e+06
1.42921e+06
1.75704e+06
2.52806e+06
2.93137e+06
3.05834e+06
3.11007e+06
3.46015e+06
6.63055e+06
2.81475e+07
2.294e+07
2.06388e+07
2.47986e+07
6.04583e+06
3.24959e+06
2.87186e+06
2.81434e+06
2.76848e+06
2.67257e+06
1.95605e+06
1.38231e+06
1.14986e+06
991453
926608
1.01254e+06
1.19557e+06
1.40466e+06
1.89226e+06
2.66935e+06
2.76166e+06
2.8287e+06
2.91936e+06
3.34338e+06
6.42635e+06
2.61604e+07
2.1586e+07
1.79707e+07
2.20856e+07
5.89434e+06
3.16079e+06
2.72371e+06
2.63161e+06
2.58545e+06
2.53147e+06
2.19585e+06
1.4629e+06
1.13255e+06
964851
901598
983788
1.17104e+06
1.45537e+06
2.15395e+06
2.56738e+06
2.5868e+06
2.63236e+06
2.75147e+06
3.22544e+06
6.14999e+06
2.33104e+07
1.87977e+07
1.19717e+06
1.3582e+06
1.14778e+06
865499
648294
517576
461582
442940
461597
513905
564964
561759
522145
437059
362584
313729
299821
294356
286093
277086
271741
268833
269176
263064
256549
248255
241105
229008
222068
288112
1.56482e+06
1.4362e+06
1.14122e+06
828916
609459
498198
469667
475070
526976
609518
721253
815758
767722
645179
485679
377978
324110
293217
278617
268721
262269
259054
257343
251509
244833
235927
228686
217195
212079
282552
1.72445e+06
1.47695e+06
1.11839e+06
786776
576345
492564
494604
525330
620518
751342
916840
1.0348e+06
883545
649862
457080
352949
298474
268837
255613
248902
246377
244964
242834
236802
230211
221706
214965
204566
201625
276321
1.97011e+06
1.57258e+06
1.12672e+06
761617
565628
506709
508336
543920
664928
833157
979009
1.0434e+06
815540
569086
398336
320478
277135
252210
240829
235121
234100
233818
231045
224829
217873
209823
203625
194035
192440
269751
2.32579e+06
1.69128e+06
1.14285e+06
749310
569173
509506
504993
546761
662931
820830
916816
891817
674720
471134
348835
294743
260545
240298
229966
225207
224161
224002
220675
214168
207043
199443
193548
184418
183320
263560
2.73377e+06
1.80454e+06
1.1554e+06
746455
573150
520049
516483
553515
642408
751505
785624
713649
552616
405206
320813
279228
250508
232187
221679
218278
216378
215510
211313
204754
197825
190469
184438
175462
174704
255724
3.14532e+06
1.91939e+06
1.16752e+06
760922
604814
553584
550129
577362
632636
691366
681451
601088
483922
377898
312664
273990
245921
226996
217471
213091
210212
207898
202708
196194
189400
182175
175672
166755
166452
248593
3.52304e+06
2.05188e+06
1.19995e+06
806324
663476
614986
613231
633145
664265
674122
638305
563538
469927
386506
325326
281014
246960
225805
215573
209582
205263
201140
195055
188532
181844
174502
167478
158766
159304
241810
3.90739e+06
2.20884e+06
1.28472e+06
898786
768102
733890
735751
742895
741776
725578
681958
612786
523780
435154
358867
298073
254946
229627
215865
207140
201078
194888
188060
181372
174625
167122
159765
151295
152659
235431
4.35276e+06
2.42112e+06
1.44253e+06
1.04743e+06
937880
928092
947721
948286
933308
899483
844730
759287
642452
520708
412745
327977
269933
236922
217942
205889
197489
189049
181510
174645
167925
160492
152956
144758
146914
229587
4.9121e+06
2.75357e+06
1.6773e+06
1.26674e+06
1.18176e+06
1.2023e+06
1.24376e+06
1.25393e+06
1.23533e+06
1.19491e+06
1.11426e+06
983684
816924
644059
490744
372332
292657
247877
221736
205705
193914
183829
175612
168597
161972
154613
146921
138971
141969
224034
5.57221e+06
3.19494e+06
2.01936e+06
1.58102e+06
1.52467e+06
1.58404e+06
1.65842e+06
1.68853e+06
1.67239e+06
1.6141e+06
1.48708e+06
1.29063e+06
1.05085e+06
808089
593904
430667
323641
262169
227064
205999
190883
179366
170511
163333
156756
149411
141590
133905
137582
218945
6.36564e+06
3.77063e+06
2.4995e+06
2.01525e+06
1.9869e+06
2.09839e+06
2.21445e+06
2.26473e+06
2.24537e+06
2.15078e+06
1.95339e+06
1.66988e+06
1.33671e+06
1.00582e+06
719997
503397
362385
280279
233943
206625
188564
175652
166257
158820
152176
144723
136810
129367
133421
214181
7.3391e+06
4.48898e+06
3.14908e+06
2.58787e+06
2.56934e+06
2.73611e+06
2.88717e+06
2.94036e+06
2.89051e+06
2.73383e+06
2.45197e+06
2.07308e+06
1.64466e+06
1.22669e+06
867032
588733
408654
301600
241948
207914
186758
172481
162539
154815
147990
140393
132428
125182
129523
209657
8.53542e+06
5.34614e+06
3.99126e+06
3.28778e+06
3.23768e+06
3.4213e+06
3.56124e+06
3.57318e+06
3.47203e+06
3.24741e+06
2.88667e+06
2.4314e+06
1.9348e+06
1.45336e+06
1.02632e+06
688019
462310
326052
250691
209658
185332
169663
159181
151131
144046
136297
128302
121270
126016
205368
9.92575e+06
6.37666e+06
4.96917e+06
4.06398e+06
3.89851e+06
4.04312e+06
4.12498e+06
4.07859e+06
3.9141e+06
3.61817e+06
3.1941e+06
2.69911e+06
2.17957e+06
1.66644e+06
1.1925e+06
800969
523807
353951
261107
212024
184078
166924
155877
147521
140187
132304
124381
117604
122783
201306
1.1368e+07
7.48525e+06
6.04139e+06
4.84968e+06
4.49434e+06
4.54592e+06
4.5695e+06
4.46804e+06
4.23006e+06
3.86062e+06
3.39749e+06
2.89547e+06
2.3789e+06
1.85975e+06
1.35933e+06
924458
595413
387028
273838
215114
182902
163932
152308
143545
136172
128352
120605
114157
119733
197440
1.27943e+07
8.65831e+06
7.19044e+06
5.63248e+06
5.05319e+06
4.9985e+06
4.9678e+06
4.80834e+06
4.49756e+06
4.06685e+06
3.57525e+06
3.06799e+06
2.55382e+06
2.035e+06
1.52175e+06
1.05692e+06
678042
428868
290571
219282
181950
161669
149220
139853
131870
124285
116816
110883
116713
193737
1.43059e+07
9.97384e+06
8.40845e+06
6.43419e+06
5.6403e+06
5.51113e+06
5.42479e+06
5.19714e+06
4.81079e+06
4.3145e+06
3.78435e+06
3.25497e+06
2.7274e+06
2.20141e+06
1.68088e+06
1.19493e+06
776338
483993
312927
225469
182967
160579
147208
137345
129106
121105
113682
107835
114311
190839
1.58463e+07
1.14534e+07
9.64017e+06
7.30492e+06
6.34546e+06
6.15827e+06
6.01917e+06
5.70993e+06
5.23512e+06
4.65245e+06
4.06175e+06
3.48506e+06
2.92372e+06
2.37826e+06
1.84848e+06
1.3429e+06
891454
549658
340686
235902
185842
160656
145968
135500
127005
118759
111230
105616
112434
189002
1.70471e+07
1.30615e+07
1.0858e+07
8.3115e+06
7.2545e+06
7.01157e+06
6.81629e+06
6.41337e+06
5.81687e+06
5.11967e+06
4.43942e+06
3.78701e+06
3.17136e+06
2.58986e+06
2.03822e+06
1.50736e+06
1.01943e+06
627038
379366
251339
191177
161900
145468
134168
125391
116912
109338
103884
110968
187656
1.81978e+07
1.51316e+07
1.22043e+07
9.57721e+06
8.4734e+06
8.1481e+06
7.87738e+06
7.35233e+06
6.58612e+06
5.74369e+06
4.93303e+06
4.17287e+06
3.47782e+06
2.83781e+06
2.24643e+06
1.68983e+06
1.16882e+06
731895
435717
274808
199806
164473
145665
133347
124138
115415
107786
102554
109761
186237
2.02218e+07
1.6437e+07
1.391e+07
1.13578e+07
1.01888e+07
9.68182e+06
9.26893e+06
8.56045e+06
7.58341e+06
6.53699e+06
5.5406e+06
4.62806e+06
3.81982e+06
3.09727e+06
2.45867e+06
1.88197e+06
1.34194e+06
867136
512806
308258
212154
168554
146643
133209
123404
114253
106621
101515
108795
185186
2.11782e+07
2.0516e+07
1.71671e+07
1.43131e+07
1.27178e+07
1.17697e+07
1.10862e+07
1.0118e+07
8.85484e+06
7.51624e+06
6.26905e+06
5.14663e+06
4.19021e+06
3.36614e+06
2.67758e+06
2.08409e+06
1.53299e+06
1.02477e+06
611235
354241
229493
174557
148422
133800
123064
113570
105797
100635
108213
184465
2.02056e+07
2.42894e+07
2.36192e+07
1.92656e+07
1.65654e+07
1.46782e+07
1.35147e+07
1.21279e+07
1.04558e+07
8.74758e+06
7.1679e+06
5.78026e+06
4.64522e+06
3.69774e+06
2.93854e+06
2.31276e+06
1.74177e+06
1.20292e+06
734808
416808
253873
183422
151438
134698
122818
112806
104673
99320.2
107326
183971
289008
222676
229176
241160
248142
256271
263261
270514
271849
274787
279380
286462
293861
303219
334352
392772
477292
560735
603872
605192
551967
493398
470383
480735
532315
667465
896288
1.19523e+06
1.42064e+06
1.26213e+06
283316
212416
217021
228541
235651
243791
251065
258691
262159
265551
271238
279528
293386
325583
389599
507855
698352
849612
908282
805591
667816
577307
515386
499145
520772
633931
865736
1.19731e+06
1.51285e+06
1.64606e+06
276852
201750
204442
214874
221551
229320
236101
242897
247168
248849
251402
257359
269744
299361
358899
473132
677885
926348
1.07237e+06
963445
786263
646356
548815
523164
523451
604599
826106
1.18383e+06
1.57033e+06
1.83189e+06
270188
192458
193989
203538
209644
216995
223829
230641
235210
236118
237666
243176
254023
278158
322856
411205
590356
849192
1.06463e+06
1.00504e+06
851968
676635
556643
522176
527249
595913
802544
1.20003e+06
1.69173e+06
2.1157e+06
264177
183377
184463
193467
199213
206145
213074
219875
224837
225704
227107
232746
242843
262146
296561
359278
490016
703543
913822
934868
832608
671238
558667
518342
526883
591634
788588
1.21587e+06
1.82137e+06
2.52076e+06
256590
174794
175395
184396
190258
196954
203664
210415
215891
217649
220195
225215
235610
253282
283127
330662
422721
577527
736217
803066
765244
653017
568725
533861
539457
599001
785909
1.2233e+06
1.93288e+06
2.96002e+06
249020
166452
166608
175573
181910
188640
195110
201779
207920
211272
214807
220171
231533
251059
280902
323903
396360
508765
627161
705101
714245
651491
598527
573333
577447
634450
800672
1.23539e+06
2.05138e+06
3.36542e+06
242448
159465
158671
167436
174267
181297
187596
194151
200828
206080
211055
218527
230686
254305
292575
341512
410160
500057
595800
670500
705278
695742
666236
647481
648974
700013
852216
1.27329e+06
2.19467e+06
3.74644e+06
235727
152837
151168
159656
167012
174313
180722
187321
194479
201748
208793
218709
235454
264522
315484
383654
469199
566075
659258
731203
775660
791289
792119
786904
783488
818686
957883
1.36981e+06
2.36752e+06
4.13541e+06
229559
147081
144602
152775
160357
167857
174310
181054
188827
197967
207725
221396
243784
281919
350988
448713
569509
703394
827432
918292
975517
1.00895e+06
1.02088e+06
1.01849e+06
994752
1.00276e+06
1.12119e+06
1.54769e+06
2.60275e+06
4.60832e+06
223716
142073
138778
146721
154497
162081
168554
175459
183812
194347
207781
225875
255801
308691
401681
537718
711365
901488
1.07974e+06
1.21694e+06
1.30054e+06
1.33965e+06
1.35414e+06
1.33865e+06
1.29059e+06
1.26729e+06
1.36184e+06
1.81065e+06
2.96611e+06
5.21656e+06
218296
137619
133680
141391
149330
156960
163539
170697
179727
191746
208260
232142
272086
343686
466277
653526
896372
1.1641e+06
1.42209e+06
1.62866e+06
1.76059e+06
1.81667e+06
1.82732e+06
1.78853e+06
1.70365e+06
1.63703e+06
1.70515e+06
2.19192e+06
3.44158e+06
5.92935e+06
213224
133436
129151
136644
144737
152426
159145
166677
176471
189927
209368
239909
291902
386351
547305
794431
1.11332e+06
1.47858e+06
1.83769e+06
2.13711e+06
2.34191e+06
2.43438e+06
2.44654e+06
2.38381e+06
2.25409e+06
2.13319e+06
2.17713e+06
2.72371e+06
4.05457e+06
6.80049e+06
208435
129568
125023
132349
140583
148393
155370
163294
173759
188645
211296
248757
314804
435734
641166
951682
1.34905e+06
1.80369e+06
2.26272e+06
2.66262e+06
2.95618e+06
3.11489e+06
3.15862e+06
3.09225e+06
2.92725e+06
2.75158e+06
2.79837e+06
3.43854e+06
4.80224e+06
7.88209e+06
203876
126129
121240
128403
136744
144737
152061
160351
171408
187736
213686
258487
340732
491439
744311
1.11446e+06
1.57708e+06
2.09133e+06
2.61648e+06
3.09462e+06
3.47211e+06
3.7063e+06
3.80724e+06
3.78632e+06
3.63423e+06
3.44859e+06
3.54789e+06
4.35585e+06
5.68875e+06
9.20639e+06
199656
122997
117768
124749
133049
141215
148868
157479
169082
186971
216516
269363
369662
554375
856585
1.27581e+06
1.77757e+06
2.31556e+06
2.85815e+06
3.37397e+06
3.81976e+06
4.13437e+06
4.30829e+06
4.35242e+06
4.26384e+06
4.12598e+06
4.36956e+06
5.40098e+06
6.76985e+06
1.06696e+07
195903
120129
114561
121257
129364
137532
145356
154358
166539
186286
219835
281947
402581
625419
977007
1.4322e+06
1.95008e+06
2.4856e+06
3.02054e+06
3.54304e+06
4.03062e+06
4.42744e+06
4.68514e+06
4.79405e+06
4.77026e+06
4.73555e+06
5.20021e+06
6.54004e+06
7.89994e+06
1.2174e+07
192531
117488
111552
117887
125631
133293
141316
150846
164066
185850
224574
298449
443572
706286
1.10202e+06
1.58054e+06
2.10271e+06
2.63174e+06
3.16205e+06
3.69179e+06
4.21091e+06
4.67689e+06
5.01638e+06
5.19147e+06
5.22905e+06
5.31011e+06
6.02836e+06
7.75339e+06
9.09752e+06
1.36562e+07
189352
114861
108551
114566
122202
130452
138846
148883
162979
186719
231545
321383
498119
801572
1.2284e+06
1.72207e+06
2.24657e+06
2.78034e+06
3.32485e+06
3.8803e+06
4.44351e+06
4.98272e+06
5.40653e+06
5.6581e+06
5.75644e+06
5.91824e+06
6.87788e+06
9.02498e+06
1.04483e+07
1.52151e+07
187014
112724
106137
111882
119577
128267
136921
147504
162679
189014
241094
350011
562946
910896
1.36365e+06
1.87025e+06
2.40109e+06
2.95452e+06
3.53603e+06
4.14438e+06
4.77611e+06
5.40841e+06
5.93284e+06
6.27273e+06
6.42586e+06
6.6533e+06
7.79426e+06
1.02942e+07
1.19339e+07
1.67761e+07
185489
111227
104367
109867
117653
126583
135533
146864
163467
193567
255145
386423
635910
1.0285e+06
1.5137e+06
2.03954e+06
2.59063e+06
3.18245e+06
3.82277e+06
4.51392e+06
5.24392e+06
5.9959e+06
6.65825e+06
7.1004e+06
7.31006e+06
7.597e+06
8.8352e+06
1.15275e+07
1.35504e+07
1.79849e+07
184600
110153
103032
108356
116172
125381
134764
147096
165785
201308
276755
439238
735149
1.1678e+06
1.68067e+06
2.22799e+06
2.82055e+06
3.47535e+06
4.20057e+06
5.00773e+06
5.87645e+06
6.78742e+06
7.61954e+06
8.19598e+06
8.49031e+06
8.86337e+06
1.01281e+07
1.28852e+07
1.56393e+07
1.91155e+07
183947
109534
102101
107277
115060
124606
134653
148177
169759
212896
308505
512015
863517
1.33186e+06
1.86163e+06
2.43092e+06
3.07164e+06
3.81316e+06
4.65691e+06
5.62563e+06
6.68776e+06
7.81702e+06
8.86245e+06
9.62625e+06
1.00716e+07
1.06383e+07
1.19345e+07
1.45885e+07
1.69006e+07
2.1136e+07
183569
109052
101426
106584
114384
124311
135227
150137
175784
229518
352522
606327
1.01457e+06
1.51573e+06
2.05858e+06
2.6458e+06
3.3375e+06
4.1833e+06
5.18001e+06
6.36883e+06
7.69098e+06
9.12117e+06
1.04722e+07
1.14963e+07
1.22102e+07
1.32291e+07
1.49126e+07
1.78271e+07
2.09381e+07
2.20229e+07
183342
108320
100477
105788
113797
124083
136135
153275
184626
253073
412188
723879
1.18509e+06
1.7162e+06
2.27919e+06
2.89914e+06
3.66201e+06
4.63271e+06
5.81317e+06
7.27981e+06
8.95137e+06
1.0766e+07
1.25434e+07
1.39859e+07
1.51679e+07
1.71264e+07
1.98506e+07
2.42143e+07
2.47514e+07
2.09881e+07
5.30864e+06
4.53092e+06
3.75016e+06
3.03323e+06
2.49777e+06
2.1215e+06
1.88099e+06
1.71156e+06
1.61513e+06
1.6076e+06
1.6836e+06
1.84588e+06
2.12313e+06
2.55493e+06
3.21919e+06
4.2457e+06
5.5698e+06
7.21022e+06
9.1297e+06
1.12124e+07
1.32827e+07
1.51585e+07
1.67806e+07
1.81784e+07
1.93515e+07
2.03371e+07
2.11428e+07
2.17971e+07
2.2406e+07
2.28837e+07
2.32058e+07
2.3412e+07
2.34945e+07
2.34513e+07
2.32827e+07
2.29892e+07
2.25642e+07
2.20114e+07
2.13286e+07
2.05157e+07
1.95768e+07
1.8519e+07
1.73516e+07
1.60897e+07
1.47576e+07
1.33835e+07
1.20067e+07
1.06542e+07
9.35005e+06
8.11402e+06
6.96079e+06
5.90683e+06
4.96413e+06
4.13428e+06
3.41544e+06
2.803e+06
2.28828e+06
1.86143e+06
1.51128e+06
1.22631e+06
996551
813393
675504
571422
490192
426090
375269
334724
302127
274324
251085
232022
216680
204540
195014
187570
181807
177441
174188
171745
169848
168306
167070
166132
165486
165109
164994
165151
165620
166454
167679
169242
171064
173095
175203
177274
179397
181405
183004
184323
185562
186457
187098
187424
187518
187794
187867
187952
188884
190149
191764
194081
194991
195091
194339
194137
195026
194351
192492
190315
188127
185997
184196