/*--------------------------------*- C++ -*----------------------------------*\
| =========                 |                                                 |
| \\      /  F ield         | OpenFOAM: The Open Source CFD Toolbox           |
|  \\    /   O peration     | Version:  2112                                  |
|   \\  /    A nd           | Website:  www.openfoam.com                      |
|    \\/     M anipulation  |                                                 |
\*---------------------------------------------------------------------------*/
FoamFile
{
    version     2.0;
    format      ascii;
    arch        "LSB;label=32;scalar=64";
    class       volScalarField;
    location    "0.00907";
    object      k;
}
// * * * * * * * * * * * * * * * * * * * * * * * * * * * * * * * * * * * * * //

dimensions      [0 2 -2 0 0 0 0];

internalField   nonuniform List<scalar> 
13875
(
812.096
3462.63
3540.27
3539.07
3541.04
3539.57
3541.67
3544.19
3541.71
3539.73
3540.27
3541.19
3540.96
3540.15
3540.48
3541.19
3541.9
3541.14
3540.74
3540.24
3541.14
3538.99
3540
3460.01
820.594
881.797
2936.63
3012.97
3000.48
3000.81
2997.9
2997.16
2997.98
2996.5
2997.49
2998.39
2998.53
2996.75
2996.38
2996.2
2998.49
2996.23
2997.07
2996.97
2998.6
3000.43
2999.29
3011.54
2933.62
894.665
993.364
2710.86
2777.44
2755.26
2758.59
2754.77
2745.98
2744.03
2741.81
2742.05
2743.26
2744.82
2751.72
2752.22
2750.89
2744.62
2741.17
2742.67
2745.31
2755.09
2757.64
2753.17
2774.37
2706.81
998.514
1091.07
2533.68
2580.98
2561.44
2566.58
2562.63
2552.34
2550.32
2547.77
2546.77
2546.7
2548.87
2559.49
2560.07
2558.86
2548.63
2547.27
2547.54
2551.15
2562.92
2565.47
2559.4
2579
2529.99
1093.97
1172.11
2380.46
2413.17
2392.85
2397.91
2393.94
2383.08
2381.42
2379.48
2378.73
2378.53
2379.88
2390.51
2391.46
2389.9
2379.72
2379.14
2379.04
2382.34
2393.91
2396.76
2391.16
2410.35
2375.99
1177.33
1241
2237.13
2270.93
2244.92
2251.02
2245.62
2233.58
2232.24
2230.43
2229.84
2229.68
2230.36
2241.1
2242.36
2240.53
2230.18
2230.44
2229.93
2233.08
2245.69
2249.94
2243.72
2267.8
2247.49
1246.95
1320.97
2121.83
2158.33
2120.36
2122.89
2115.56
2101.66
2100.27
2098.22
2097.28
2097.26
2097.53
2108.43
2109.77
2107.58
2097.22
2098.5
2097.7
2101.53
2115.49
2121.67
2119.74
2154.03
2095.67
1322.97
1409.77
2000.73
2073.54
2019.65
2015.9
2002.56
1985.94
1983.26
1980.49
1979.19
1979.65
1979.2
1990.41
1992
1989.49
1978.81
1981.38
1980.57
1985.41
2002.15
2013.94
2017.98
2068.34
1992.7
1419.94
1691.49
2029.51
2021.95
1944.37
1924.48
1904.97
1884.84
1880.42
1876.61
1874.46
1875.99
1874.81
1886.26
1888.12
1885.47
1874.66
1878.05
1877.23
1883.29
1903.81
1922.37
1942.18
2017.89
2033.49
1716.61
2509.45
2285.63
2018.08
1900.97
1858.56
1827.12
1804.13
1797.71
1793.02
1790.37
1792.54
1790.91
1802.08
1804.16
1801.6
1792.01
1794.93
1795.12
1801.29
1824.63
1855.56
1891.51
2011.51
2266.31
2529.91
3878.13
3027.79
2153.41
1915.49
1814.68
1773.81
1747.32
1735.9
1729.92
1727.15
1729.19
1727.31
1737.65
1740.03
1738.23
1731.13
1733.27
1735.19
1744.97
1768.14
1813.2
1907.12
2129.61
2936.66
3859.06
5188.29
6459.08
2855.37
1995.28
1854.38
1758.07
1714.21
1696.85
1688.19
1685.13
1686.05
1684.33
1692.91
1695.72
1695.12
1690.87
1693.01
1698.03
1712.32
1757.71
1846.94
1973.93
2789.81
6314.95
5120.78
5060.12
7628.62
7056.6
3337.38
2043.88
1798.98
1741.94
1700.43
1683.34
1676.66
1674.68
1672.42
1678.63
1681.82
1683.16
1683.16
1690.05
1706.64
1746.52
1804.08
2089.16
3233.46
6764.77
7643.21
5009.98
4830.74
6369.25
7186.14
8724.07
5159.64
2320.19
1896.14
1781.87
1746.38
1743.21
1741.27
1739.18
1744.16
1747.36
1750.03
1752.71
1757.89
1792.28
1941.11
2483.74
5620.62
8154.23
6954.95
6328.09
4832.88
4608.08
5524.04
6049.16
6983.78
6844.07
6665.4
3391.98
2377.67
2128.18
2035.35
1996.59
1982.4
1982.78
1987.36
1998.74
2030.32
2120.21
2387.4
3631.58
6900.7
6817.77
6704.07
5964.07
5485.06
4681.29
4297.64
4807.71
5118.06
5872.37
6065.88
6555.55
5557.49
5169.94
4843.07
4182.59
4268.02
4319.84
4362.9
4349.76
4287.36
4187.46
4752.51
5436.27
5661.93
6634.89
5996.76
5705.62
5069.78
4776.8
4365.07
3731.62
4044.73
4338.88
5059.82
5579.78
6484.16
7304.65
7548.03
6695.45
6245.77
6509.29
6745.36
6878.23
6825.95
6582.46
6557.59
6718.84
7560.18
7342.74
6453.36
5429.72
4898.02
4222.86
3959.11
3719.02
3066.12
3409.65
3947.43
4854.01
5499.48
6093.49
7071.24
7765.51
6525.17
5477.59
5213.5
5237.42
5306.35
5271.61
5275.27
5791.93
6524.02
7427.34
7020.74
6208.15
5534.24
4802.36
3857.2
3344.59
3026.51
2642.43
3169.6
3848.87
5046.85
5968.98
5780.31
6065.91
6761.78
6134.65
5176.72
4690.08
4549.5
4538.5
4594.74
4788.93
5325.5
5968.71
6449.91
6056.73
5962.79
6249.63
5080.66
3835.78
3152.07
2643.49
2524.83
3403.69
4077.72
5185.8
5771.83
5315.86
5241.41
5714.35
5574.93
4959.21
4418.85
4090.49
3979.37
4164.07
4556.32
5039.18
5363.68
5467.3
5258.64
5489.94
5954.45
5168.41
4089.94
3425.25
2519.21
5083.42
7663.65
6218.19
4836.58
5008.86
4660.09
4568.4
4962.18
5040.88
4633.16
4089.81
3658.7
3504.58
3768.9
4254.07
4683.41
4830.24
4768.38
4600.97
4810.92
5146.87
4956.17
6669.36
8176.11
5955.85
11508.6
23089.2
7827.32
4245.46
4310.84
4095.99
4041.33
4389.91
4546.63
4254.44
3733.15
3264.07
3093.23
3382.17
3891.47
4279.78
4343.35
4237.81
4067.78
4214.92
4410.2
4374.62
8378.89
23304.2
12715.9
13641.2
19284.3
6889.9
3784.32
3771.11
3639.78
3601.93
3921.76
4095.09
3864.45
3375.16
2913.41
2737.03
3013.83
3510.42
3874.12
3901.96
3794.77
3620.58
3719.89
3838.32
3888.28
6945.35
18983.6
13552
12962.8
19426
5821.55
3436.52
3335.68
3245.87
3228.47
3511.55
3684.46
3485.15
3024.59
2592.6
2435.22
2693.65
3161.05
3503.17
3509.11
3398.74
3249.69
3314.65
3401.35
3541.36
5972.15
20124.3
12961.9
12621
19076.8
5174.66
3165.4
3005.15
2921.58
2923.16
3163.79
3320.99
3143.26
2720.59
2322.91
2181.3
2416.57
2851.52
3166.74
3166.21
3060.13
2937.1
2980.93
3073.32
3267.89
5388.56
20299.4
12750.6
12388
19049.8
4712.51
2919.8
2741.27
2650.01
2669.49
2867.51
2999.77
2838.96
2457.7
2094.53
1965.87
2176.85
2571.93
2859.85
2863.46
2767.82
2666.61
2691.26
2803.14
3003.44
4890.41
20072.4
12697.6
12416.2
17716.6
4237.96
2698.03
2527.3
2424.48
2452.55
2611.11
2710.81
2558.01
2219.11
1897.55
1783.84
1976.68
2335.15
2593.91
2605.45
2522.7
2439.99
2457.74
2591.26
2784.54
4461.35
18860.7
12686.1
12298.7
16810.9
3918.56
2517.7
2352.18
2241.08
2268.03
2392.67
2464.02
2319.88
2019.19
1731.16
1627.86
1801.35
2122.27
2356.01
2378.17
2311.4
2246.63
2265.59
2405.83
2591.36
4133.12
18100.7
12539.7
12001.3
16371.1
3687.41
2362.66
2202.78
2094.93
2109.35
2203.06
2249.49
2112.62
1846.85
1589.14
1494.06
1648.95
1932.91
2141.85
2177.37
2127.95
2079.88
2103.81
2241.06
2422.72
3821.62
16644.8
12460.3
11754.9
15294.7
3488.53
2231.39
2064.17
1967.91
1974.47
2035.55
2054.76
1922.7
1689.03
1462.73
1378.2
1521.04
1777.74
1964.6
2005.83
1971.41
1940.88
1969.97
2095.63
2286.15
3635.91
16004.7
12175.2
11381.6
14043.3
3330.67
2127.84
1942.48
1855.29
1856.55
1891.59
1890.53
1764.23
1557.85
1355.62
1277.97
1406.76
1635.06
1801.74
1852.7
1835.16
1821.38
1850.91
1961.93
2170.22
3443.74
14666.5
11871.3
11052.7
13288.6
3215.5
2051.37
1834.7
1752.35
1751.18
1766.88
1749.4
1629.03
1444.98
1262.2
1190.45
1306.24
1512.09
1663.57
1719.63
1716.45
1714.82
1742.55
1844.73
2081.35
3288.19
13574.5
11516.3
10773.2
12122.8
3087.74
1991.86
1742.33
1661.83
1652.41
1654.11
1620.6
1505.34
1341.78
1178.88
1114.18
1221.26
1407.78
1544.12
1604.16
1613.06
1617.62
1647.92
1747.36
2013.76
3185.66
12778.4
11166.6
10462.7
11216.6
2969.97
1949.77
1667.75
1581.25
1560.52
1554.98
1510.87
1401.49
1254.78
1106.43
1046.53
1143.22
1313.15
1437.95
1500.17
1519.94
1527.91
1563.09
1666.56
1962.04
3090.88
11753.7
10844.3
10171.3
10582.4
2846.82
1913.7
1618.27
1508.75
1478.84
1464.82
1414.56
1309.9
1177.8
1042.46
987.286
1075.21
1229.26
1343.66
1407.88
1434.62
1448.01
1491.7
1609.59
1927.07
2959.26
10900.3
10536
9883.14
9899.74
2724.71
1882.04
1583.99
1445.59
1403.94
1380.77
1326.77
1227.62
1107.44
984.252
933.916
1015.27
1158.57
1263.67
1326.49
1356.36
1376.87
1427.56
1573.81
1901.95
2841.48
10374.1
10242.1
9623.97
9413.95
2622.11
1876.34
1563.3
1393.87
1339.2
1305.77
1248.98
1156.14
1046.63
933.337
886.835
960.828
1091.84
1189.11
1251.21
1285.33
1312.12
1373.54
1549.97
1894.47
2713.28
9738.87
9951.06
9363.86
9145.07
2525.91
1868.24
1553.19
1357.5
1279.67
1238.02
1179.48
1092.93
992.752
887.549
844.207
911.604
1033.61
1123.42
1182.73
1221.49
1253.71
1335.86
1541.94
1887.19
2590.01
9343.53
9673.44
9076.58
8712.44
2408.62
1827.11
1557.69
1333.48
1229.24
1177.5
1115.54
1033.99
942.127
845.743
806.278
869.051
981.944
1064.88
1122.42
1164.91
1204.11
1309.77
1548.84
1854.15
2474.88
9123.84
9394.98
8809.89
8460.73
2300.75
1777.15
1576.79
1320.17
1189.93
1125.07
1059.99
982.913
898.264
808.208
771.405
828.838
934.396
1011.22
1066.88
1115.12
1166.3
1296.27
1561.47
1796.67
2363.07
8804.88
9105.76
8591.2
8270.83
2235.04
1725.9
1610.87
1319.49
1162.01
1082.04
1011.31
936.878
858.04
773.96
740.079
792.826
890.539
962.892
1018.58
1073.51
1140.75
1293.53
1611.62
1743.82
2267.61
8572.34
8837.45
8391.26
8055.98
2150.34
1659.01
1603.34
1329.52
1141.03
1049.91
969.19
895.004
820.702
742.112
710.99
760.222
853.004
921.094
977.733
1041.9
1121.24
1308.85
1629.04
1692.72
2278.23
8370.14
8624.87
8207.54
7879.51
2093.57
1590.57
1562.63
1366.02
1131.26
1026.23
935.534
858.599
787.462
713.525
684.577
729.852
816.903
882.576
942.955
1018.84
1110.92
1338.07
1589.67
1621.02
2200.17
8167.98
8433.39
8056.92
7700.23
2138.59
1530.01
1506.27
1418.5
1137.86
1006.97
910.704
828.57
758.173
687.083
659.95
701.851
784.659
849.508
916.323
1001.77
1119.28
1406.11
1534.75
1554.23
2181.06
7978.1
8261.8
7911.44
7544.38
2073.82
1467.83
1441.96
1426.71
1171.11
995.84
890.322
804.498
731.811
663.194
637.882
677.4
757.731
823.544
896.118
992.522
1162
1431.92
1470.75
1504.84
2228.5
7795.02
8122.36
7766.88
7374.87
2106.18
1423.78
1377.54
1380.75
1246.96
1003.5
876.165
787.432
712.172
643.287
618.382
656.111
735.559
804.342
880.283
998.556
1235.26
1389.49
1404.01
1450.99
2200.06
7625.97
7988.13
7624.14
7219.32
2158.89
1396.19
1320.68
1328.47
1277.18
1054.18
868.548
772.176
697.666
628.356
601.134
639.868
719.063
788.829
870.622
1044.91
1277.4
1337.21
1343.22
1410.01
2184.57
7467.91
7839.4
7409.52
7034.17
2145.01
1364.92
1270.51
1272.14
1239.67
1132.7
883.081
760.187
685.238
617.07
588.379
628.044
706.152
777.118
884.752
1130.4
1247.91
1279.56
1290.83
1387.46
2221.69
7267.16
7614.22
7129.39
6783.01
2145.02
1346.33
1228.06
1215.32
1197.29
1175.68
939.017
757.4
675.82
607.709
579.632
618.149
695.686
772.338
935.198
1185.98
1205.81
1220.11
1243.7
1361.42
2190.7
7018.12
7327.56
6496.13
6332.52
2129.74
1331.37
1191.71
1166.31
1151.69
1146.83
1029.84
785.368
671.754
599.976
571.905
609.64
688.937
794.167
1028.11
1164.72
1160.15
1169.17
1202.49
1337.4
2146.49
6556.62
6684.28
5731.52
8627.85
8324.19
7246.77
6135.42
5294.66
4608.84
3978.25
3330.33
2693.3
2103.53
1612.37
1252.91
1009.67
860.977
771.241
713.866
676.224
648.886
626.719
606.364
585.707
564.745
541.924
515.43
485.306
450.209
410.633
368.567
402.699
5875.83
9215.38
8780.17
7569.34
6313.49
5407.51
4696.25
4072.44
3449.3
2827.89
2225.6
1712.86
1323.57
1060.56
893.271
790.183
723.837
680.028
648.069
623.059
601.089
579.494
557.922
534.486
507.249
476.721
442.236
403.3
362.918
399.8
6127.96
9788.76
9180.45
7827.33
6462.61
5494.97
4764.96
4142.44
3540.04
2935.01
2332.89
1813.59
1404.98
1115.74
929.103
809.843
734.081
683.166
646.26
618.213
593.936
571.464
549.404
525.458
498.145
467.677
433.72
394.756
356.748
395.501
6454.65
10402.5
9747.66
8199.45
6695.37
5643.05
4880.37
4257.32
3673.87
3086.4
2487.53
1948.5
1509.13
1188.57
976.122
838.512
749.99
690.719
648.372
616.95
590.858
567.571
544.743
520.007
492.333
461.836
427.916
389.325
353.07
393.026
6728.41
11036.5
10402.3
8656.36
6992.32
5847.66
5039.18
4403.15
3825.93
3247.32
2657.21
2105.97
1634.01
1279.12
1034.68
874.351
770.603
701.485
652.924
617.471
589.446
565.199
541.504
515.939
487.854
457.056
423.01
384.927
349.916
390.852
7005.1
11773.2
11121.9
9172.22
7335.36
6092.68
5234.02
4573.17
3991.51
3420.54
2839.57
2278.59
1777.37
1385.52
1104.84
919.199
797.678
716.973
661.055
620.817
589.924
564.028
539.637
513.18
484.614
453.063
418.787
381.072
347.208
389.124
7316.25
12521.5
11875.9
9737.99
7721.55
6380.1
5465.54
4774.87
4182.64
3611.51
3040.89
2468.64
1941.81
1511.22
1191.61
975.517
832.318
737.615
672.403
626.161
591.565
563.868
538.267
511.252
482.01
449.69
415.146
377.733
345.136
387.897
7619.85
13314.4
12685.5
10368.3
8165.51
6706.64
5735.12
5013.77
4407.29
3834.84
3264.53
2679.76
2131.55
1663.29
1301.39
1048.2
878.562
765.929
688.674
634.547
595.177
564.684
537.504
510.003
479.81
447.034
412.111
374.645
343.446
387.173
7934.31
14101.5
13537.6
11063.9
8674.21
7093.84
6060.85
5301.37
4676.02
4101.03
3519.23
2922.83
2356.77
1849.95
1441.66
1144.43
941.303
804.72
711.473
646.9
600.959
566.422
537.259
508.469
477.369
444.551
409.179
371.661
341.942
386.646
8208.64
14901.4
14423.5
11832.2
9267.13
7554.45
6453.61
5647.15
4996.75
4413.78
3812.25
3205.57
2623.56
2080.14
1622.51
1273.99
1029.55
858.917
743.514
664.767
609.516
569.619
537.733
506.377
474.863
441.906
406.185
368.913
340.644
386.567
8476.98
15679
15344.4
12685.1
9961.84
8105.91
6922.13
6060.98
5377.04
4769.81
4150.08
3537.23
2936.97
2363.23
1854.67
1444.76
1144.31
933.925
788.368
689.009
621.9
575.073
538.952
505.198
472.921
438.954
403.148
366.261
339.686
386.978
8745.53
16474.6
16319.7
13621
10766.1
8760.82
7474.92
6552.74
5821.68
5173.19
4535.98
3917.7
3301.1
2696.28
2138.5
1662.26
1294.16
1029.64
845.188
721.413
638.81
582.922
540.73
504.736
470.563
435.316
399.954
363.792
339.089
388.088
9066.8
17318.9
17343.8
14628.3
11671.5
9523.63
8128.09
7134.28
6334.74
5625.12
4972.58
4342.82
3712.4
3080.82
2476.53
1934.96
1489.39
1157.21
923.458
767.361
663.754
594.13
544.084
504.264
467.893
431.64
396.479
361.396
338.787
389.47
9374.12
18207.5
18396
15701.1
12667.9
10406.1
8883.89
7787.07
6897.28
6132.49
5463.34
4817.81
4172.6
3515.19
2867.94
2262.34
1735.45
1325.49
1030.41
830.418
697.617
610.707
550.144
504.695
465.34
428.312
393.241
358.959
338.576
391.068
9642.85
19090.9
19446
16821.4
13753.5
11392.2
9772.15
8528.98
7521.33
6708.49
6014.33
5348.46
4682.28
3998.92
3313.94
2647.26
2041.1
1545.09
1174.82
916.138
746.154
634.908
559.97
506.64
463.741
425.625
390.299
356.777
338.552
392.699
9862.23
19897.2
20479.1
17968.9
14937.1
12520
10791.5
9380.23
8243.1
7374.38
6636.29
5937.16
5242.8
4535.73
3818.17
3098.1
2417.07
1829.22
1365.38
1033.93
813.363
669.577
574.819
511.373
464.293
424.404
388.459
355.462
338.956
394.723
10081.7
20637.2
21474.8
19125.5
16219.4
13783.6
11937.3
10350.8
9087.2
8139.39
7336.43
6586.39
5855.6
5124.3
4377.71
3615.73
2864.36
2181.77
1612.3
1189.47
902.792
716.699
596.42
519.761
466.923
424.683
387.898
355.339
340.038
397.232
10309.3
21265.6
22396.3
20294.7
17585.3
15190.4
13222.9
11463.8
10063.4
9009.66
8120.7
7300.4
6520.71
5754.96
4977.42
4180.93
3369.62
2595.6
1915.8
1386.87
1018.83
777.876
623.318
529.587
469.531
425.216
387.479
355.622
341.094
400.128
10507.7
21703
23176.8
21416.9
19010.5
16728.5
14656.9
12735.7
11195.9
10009.3
9002.62
8087.89
7242.08
6426.98
5611.26
4772.19
3911.61
3055.26
2271.08
1631.36
1167.13
853.099
660.999
544.832
473.867
424.278
385.31
354.233
340.67
402.812
10614.7
22096.7
23796.7
22473.2
20454.1
18398.3
16275.5
14201.7
12518.2
11163
9995.82
8963.42
8032.12
7151.36
6284.38
5397.72
4482
3550.53
2676.91
1928.75
1356.09
962.543
715.913
568.025
480.719
423.804
382.094
350.671
338.274
404.107
10778
22214
24122.5
23389.5
21899.2
20196.7
18099.9
15893.9
14052.7
12496.3
11135.7
9954.63
8914.56
7946.16
7005.17
6057.94
5077.34
4085.38
3131.74
2280.65
1594.86
1106.31
789.993
601.025
491.153
424.945
378.955
347.007
335.349
404.666
10838.3
22239.2
24132.5
24130.7
23370.5
22141.9
20149.5
17854.1
15830.9
14036.9
12457.9
11101.1
9918.65
8830.95
7780.51
6749.17
5703.69
4653.35
3629.96
2687.2
1893.86
1291.96
889.48
646.68
507.779
429.307
378.477
344.411
334.011
404.869
10961.1
21859.6
23763.4
24586.2
24845
24242.3
22466.5
20120
17888.5
15831.1
14009.4
12434.7
11065.5
9810.1
8612.78
7471.66
6357.6
5250.91
4173.32
3149.59
2247.46
1525.46
1017.84
707.738
533.084
437.614
380.62
344.497
333.838
406.446
10829.6
21326.1
23214.3
24951.9
26404.9
26554.8
25075.4
22719
20276.2
17941
15839.8
13975.3
12347.4
10871.4
9485.89
8219.78
7032.63
5874.54
4746.31
3646.33
2644.12
1803.03
1182.35
789.479
567.504
449.37
383.956
343.896
332.632
407.504
10268.6
21306.6
23036.9
25528.1
28149.2
29132.1
28018.8
25691.2
23047.1
20411
17952.6
15722.9
13740.4
12019.5
10429
9029.89
7751.37
6533.25
5340.56
4167.81
3072.67
2122.07
1384.09
893.09
612.233
464.575
387.857
343.8
331.356
408.56
399.752
365.984
407.797
447.694
482.288
512.807
539.203
561.839
582.533
602.871
622.416
643.326
671.192
710.852
771.297
867.842
1028
1292.2
1675.3
2191.04
2812.86
3468.42
4120.22
4759.25
5468.65
6355.61
7524.78
8639.16
8932.37
5920.72
396.953
360.631
400.586
439.597
473.992
505.027
531.965
555.105
576.156
597.507
618.842
642.478
674.857
720.765
790.098
899.421
1077.67
1359.89
1769.52
2304.49
2930.65
3562
4183.94
4818.4
5558.05
6518.49
7837.24
9095.63
9527.42
6065.68
392.661
354.923
393.024
431.159
464.884
495.676
523.232
547.092
568.708
590.935
614.651
642.223
678.997
731.695
810.809
933.868
1130.64
1432.75
1860.46
2401.78
3019.18
3630.32
4235.6
4872.42
5635.58
6663.13
8093.44
9499.79
10112.1
6319.31
390.242
351.178
387.748
425.871
459.362
490.18
518.316
542.907
565.175
588.159
614.108
645.879
688.153
748.875
839.552
979.699
1198.83
1530.72
1988.4
2543.39
3148.68
3735.59
4324.4
4966.06
5766.94
6891.09
8466.79
10065
10727.2
6645.44
388.263
348.281
383.323
421.554
455.169
486.035
514.647
540.21
562.955
587.56
615.225
651.093
699.891
770.15
875.246
1036.66
1284.99
1647.68
2131.85
2692.29
3284.49
3861.98
4446.26
5105.68
5953.84
7179.57
8929.61
10725.1
11362.3
6913.91
386.696
346.081
380.499
418.31
452.219
483.551
512.253
538.763
562.789
588.665
619.053
659.541
715.794
796.83
918.393
1103.63
1384.65
1780.66
2286.16
2854
3433.55
4005.51
4598.95
5287.21
6184.8
7503.85
9438.8
11454.9
12098.5
7187.62
385.659
344.413
377.515
415.546
450.209
482.307
510.93
537.916
563.85
591.493
625.215
671.037
736.073
830.209
971.502
1184.92
1501.98
1931.49
2456.1
3029.19
3604.42
4176.74
4781.64
5497.42
6458.53
7882.76
9997.58
12213.3
12846
7502.24
385.053
342.88
374.603
413.019
448.696
481.722
510.727
537.994
565.608
596.272
634.6
687.134
763.241
873.864
1039.32
1286.48
1642.09
2106
2649.23
3228.66
3805.01
4382.83
5003.49
5752.75
6774.99
8311.64
10625.7
13026.2
13636.7
7802.31
384.773
341.64
372.016
410.597
447.222
481.197
511.216
538.887
568.581
603.099
647.835
709.434
799.963
932.128
1128.84
1416.91
1815.8
2314.32
2873
3465.72
4047.86
4631.6
5273.63
6064.22
7144.99
8807.25
11315
13875.5
14424.1
8119.9
385.064
340.756
369.866
408.112
444.836
479.056
511.015
540.27
572.521
611.973
665.548
740.22
849.905
1011.55
1249.39
1587.19
2033.83
2567.14
3141.54
3745.1
4338.38
4934.37
5604.25
6441.61
7593.5
9391.97
12080.8
14764
15220.6
8394.07
385.874
340.196
367.77
405.395
442.322
476.877
509.789
542.082
577.642
623.446
688.167
781.565
917.338
1117.94
1408.44
1806.05
2304.18
2867.19
3459.12
4070.02
4682.71
5297.74
6002.97
6895.86
8135.24
10081.7
12931.8
15691.3
16002.7
8661.58
387.37
339.931
365.736
402.691
439.17
474.718
509.3
544.986
585.555
640.215
718.72
836.146
1009.16
1259.95
1613.06
2073.75
2621.41
3215.22
3823.83
4440.97
5076.06
5728.83
6479.97
7437.45
8779.89
10881.1
13864.3
16672.6
16808.7
8943.13
389.119
339.857
363.706
399.97
435.657
472.151
508.821
548.975
597.284
664.623
762.976
910.937
1131.71
1447.86
1873.5
2398.2
2990.72
3612.78
4235.78
4865.89
5519.61
6232.61
7048.88
8078.16
9536.68
11785.5
14873.6
17703.7
17669
9269.37
390.732
339.772
361.631
397.09
432.592
469.884
509.082
554.682
613.422
697.841
824.914
1014.33
1295.18
1686.97
2192.48
2780.73
3413.92
4062.12
4700.35
5346.54
6020.72
6795.81
7696.09
8823.4
10409.8
12779.7
15945.5
18757.3
18567.1
9578
392.428
339.732
359.703
394.317
430.129
468.518
511.143
563.485
636.344
743.126
905.768
1151.97
1507.47
1983.58
2569.24
3218.72
3889.72
4564.3
5222.44
5888.28
6588.61
7415.64
8433.68
9697.08
11392
13862.3
17066.4
19804.9
19459.8
9846.84
394.181
340.141
358.454
392.523
428.924
469.167
516.353
578.154
669.79
807.354
1018.19
1334.68
1781.53
2348.02
3010.14
3714.65
4421
5122.51
5808.44
6502.89
7243.55
8127.9
9286.78
10712.1
12511.3
15046.3
18217.9
20840.8
20270.7
10073.3
396.401
341.245
358.397
392.064
429.289
472.084
525.157
600.149
716.671
895.487
1170.4
1576.35
2126.24
2792.95
3524.71
4275.96
5013.22
5737.78
6460.81
7201.49
8002.25
8962.72
10255.5
11859.9
13774.1
16327.6
19383.6
21844.5
21018.1
10290.5
399.21
342.792
359.099
391.817
430.44
476.72
537.609
629.882
778.202
1010.79
1367.08
1879.86
2542.55
3305.05
4101.17
4890.01
5656.31
6408.58
7179.47
7987.53
8870.56
9931.12
11358.6
13156.5
15184.2
17696
20554.7
22782.6
21641.2
10535.6
402.02
343.233
358.45
389.843
430.318
481.219
552.456
667.435
856.362
1157.1
1610.77
2238.47
3011.53
3858.73
4710.8
5534.51
6338.62
7135.7
7968.22
8868.17
9865.41
11054.8
12627.2
14599.7
16735
19129.9
21689.1
23562.2
22082.7
10724.4
403.455
341.515
355.505
388.393
430.313
486.926
572.576
717.39
956.97
1337.75
1903.49
2643.39
3513.52
4437.9
5342.74
6216.87
7068.39
7929.14
8840.35
9855.15
11010.6
12367.3
14088.9
16216.7
18419.3
20595
22751.3
24177.5
22474.7
10834.1
402.962
338.949
352.233
386.152
431.958
496.245
601.655
785.248
1089.21
1571.85
2251.06
3097
4051.54
5041.91
6010.14
6945.12
7864.17
8808.55
9822.56
10984.9
12334.8
13893.1
15775.1
18034.9
20235.1
22059.5
23666.8
24504.8
22593.4
11002
403.533
336.018
348.553
383.806
434.233
509.827
642.103
877.26
1266.08
1864.34
2652.48
3595.26
4624.3
5677.38
6710.91
7726.4
8747.89
9803.99
10956.5
12294
13864.7
15668.4
17728.9
20082
22188.1
23548.4
24420
24507.5
22620.3
11073.2
402.715
334.132
347.178
384.307
440.052
531.987
699.54
997.826
1485.53
2203.88
3098.46
4124.96
5214.2
6328.34
7438.95
8561.5
9732.67
10941.3
12282.9
13833.7
15647
17724.1
19997.4
22395.4
24294.1
25044.9
24905.2
24116.1
22219.3
11218
403.696
333.362
346.644
386.883
450.054
562.701
774.517
1151.86
1748.32
2580.18
3575.93
4677.56
5815.77
6988.17
8180.77
9439.83
10799.5
12222.5
13822.9
15659.6
17742.6
20092.8
22589.3
25012.3
26617.8
26630.8
25296.6
23545.7
21629.3
11130.3
405.627
333.375
347.571
391.136
464.159
602.367
868.667
1337.92
2055
2990.03
4079.86
5250.85
6447.94
7678.92
8966.81
10368.4
11946.2
13636.1
15582.9
17781
20211.2
22845
25565.7
27969.8
29208
28403.6
25923.7
23348.4
21411.5
10593.9
6749.41
6817.81
7121.75
7523.7
8107.81
8833.77
9672.48
10624.1
11665.3
12774.6
13928.8
15101.9
16277.9
17442.5
18581.5
19682.5
20741.9
21750.9
22699.3
23580.5
24392.4
25143.5
25841
26487.7
27083.4
27628.6
28124.4
28572.9
28977
29338.9
29660.6
29941.9
30191.1
30430.5
30659.8
30851.4
30989.4
31074
31105.1
31080
30994.6
30842.4
30632
30372.5
30054
29674.2
29229.3
28715.9
28146
27514.7
26818.4
26056.9
25230.9
24349.1
23419.2
22450.3
21453
20439.8
19425.9
18413.9
17405.3
16406.4
15420.4
14452.3
13507.4
12590.2
11703.8
10849.9
10029.5
9243.37
8492.53
7777.64
7099.56
6459
5856.81
5293.21
4767.9
4280.05
3828.52
3411.76
3028.51
2677.36
2357.28
2067.35
1806.47
1573.77
1368.21
1188.7
1033.98
902.594
792.824
702.786
630.15
572.546
527.612
493.035
466.8
447.309
432.997
422.848
415.831
411.273
408.387
406.742
406.045
405.931
406.119
406.751
407.403
407.964
409.186
410.902
412.234
413.192
414.454
416.343
417.409
416.929
416.483
415.879
415.17
414.464
413.269
410.804
408.146
19252.9
19980.6
21132
22608.5
24407.7
26477.7
28782.4
31285.7
33935.2
36677.7
39462.9
42250.2
45006.3
47701.3
50311
52825.6
55243.8
57552.6
59726.4
61748.8
63640.8
65424.2
67107.4
68686.8
70165.3
71544.8
72827.4
74015.7
75112.6
76121.7
77048
77890.2
78660.9
79335.1
79865
80266.1
80540
80686.1
80703.8
80592
80350.7
79987.5
79461.9
78821.8
78049.5
77140.5
76088.1
74891.1
73560.7
72091
70474.9
68709.8
66799.2
64755.6
62593.6
60321.9
57950.8
55492.6
52961.1
50387.9
47806.9
45260.2
42745.7
40266.1
37837
35469
33165.5
30935.5
28786.4
26724.3
24755.3
22884
21114.9
19451.6
17894
16439.1
15082.7
13818.9
12640.8
11540
10508.2
9537.79
8622.63
7759.73
6945.96
6182.34
5469.09
4807.05
4196.95
3639.56
3135.27
2684.35
2286.62
1940.01
1641.78
1388.69
1176.38
1000.59
857.022
741.728
650.277
578.508
522.469
478.971
445.37
419.52
399.674
384.383
372.349
362.566
356.292
353.908
354.138
353.081
351.593
352.044
350.777
347.158
343.75
340.695
338.263
336.796
336.13
335.095
334.029
31580.8
32876.5
34802.1
37166.9
39881.9
42879.5
46106.8
49509.6
53029.9
56604.8
60186.6
63743
67241.6
70657
73969.8
77168.4
80248.6
83201.3
85998.8
88632.7
91126.7
93506.4
95767.2
97909.3
99929.7
101833
103622
105298
106862
108314
109657
110897
112005
112962
113758
114395
114873
115190
115345
115340
115175
114852
114359
113702
112881
111888
110716
109363
107798
106056
104122
101989
99662.9
97155.4
94497.4
91690.7
88746.5
85677.9
82501.3
79243.6
75908.2
72479.7
68980.5
65452.7
61929
58481.2
55087.3
51752.1
48496.6
45340.2
42287.5
39346.2
36527.9
33838
31284.3
28869.2
26593
24455
22453.4
20582.8
18837.3
17210.7
15697.6
14292.6
12991
11786.9
10673.2
9645.19
8696.61
7822.77
7017.59
6275.61
5591.42
4960.56
4379.57
3847.06
3360.72
2919.37
2522.12
2169.31
1860.96
1593.99
1365.85
1172.45
1011.48
879.217
771.539
683.951
613.68
557.054
513.134
482.905
462.564
444.581
429.885
420.344
409.271
395.545
384.347
375.207
367.793
362.05
357.339
353.248
349.871
46230.8
48159.3
50916
54193.4
57815.6
61677.9
65706.6
69839.1
74020.3
78201.8
82338.2
86411.6
90403.8
94298
98085.1
101761
105324
108767
112071
115233
118256
121159
123956
126635
129190
131623
133932
136114
138172
140108
141930
143612
145132
146477
147640
148621
149418
150032
150463
150715
150790
150691
150412
149952
149306
148464
147416
146143
144630
142881
140890
138650
136167
133400
130457
127322
123999
120498
116829
113046
109127
105065
100866
96542.6
92130.6
87595.4
82991.5
78362.5
73766.5
69303.3
64946.4
60706.6
56611.4
52682.7
48926.3
45348.2
41953.2
38738.4
35709.7
32866.9
30207.4
27726.8
25419.8
23280.2
21300.5
19471.8
17784.2
16229.9
14798.5
13481.5
12268.7
11152.7
10124.1
9174.57
8295.86
7482.1
6727.11
6028.26
5382.4
4785.4
4237.65
3735.81
3279.73
2865.07
2492.26
2160.62
1869.27
1613.63
1392.19
1204.72
1048.17
928.236
836.775
757.161
689.362
635.41
585.369
539.55
503.264
474.454
451.768
433.603
418.965
407.203
397.906
63396.2
65970.7
69553.9
73678.6
78113.4
82725.5
87424.9
92148.1
96849.3
101498
106076
110567
114962
119262
123464
127570
131576
135484
139302
143017
146593
150040
153380
156625
159757
162760
165630
168367
170973
173458
175818
178010
180021
181842
183466
184888
186110
187132
187961
188606
189073
189364
189476
189401
189125
188631
187898
186901
185622
184051
182178
180000
177518
174732
171676
168372
164833
161065
157002
152785
148372
143716
138815
133679
128393
122941
117337
111603
105793
99884.8
93947.1
88062
82360.1
76887.5
71629.8
66607.6
61819
57275.9
52984.1
48943.5
45152.4
41606.8
38301.1
35226.5
32373.9
29731.8
27288.9
25032.8
22951.4
21032.2
19263.3
17629.7
16121.8
14726.5
13435.2
12239.8
11131.5
10103.5
9150.6
8267.47
7453.32
6701.78
6009.94
5372.44
4786.02
4248.14
3755.51
3309.58
2904.79
2535.35
2208.59
1938.5
1717.39
1521.44
1341.32
1185.83
1039.63
907.778
799.703
712.859
642.734
587.655
544.342
510.317
483.894
82547
85740.3
90038.9
94882.2
99973.7
105159
110353
115502
120585
125594
130527
135370
140129
144808
149410
153941
158406
162814
167178
171480
175637
179650
183551
187372
191096
194675
198111
201406
204567
207605
210484
213189
215706
218024
220132
222026
223708
225188
226479
227597
228553
229349
229977
230420
230656
230653
230383
229813
228915
227666
226053
224071
221721
219016
215983
212647
209030
205147
200975
196521
191769
186674
181216
175254
169134
162764
156133
149290
142315
135232
128061
120828
113584
106374
99314.1
92550.2
86123.1
80015.9
74243
68797.3
63675.4
58881.7
54407.4
50238.6
46362.7
42767.6
39434.4
36348
33486
30830.9
28367.6
26080.1
23955.6
21981
20144.9
18437.8
16851.5
15379.9
14017.3
12755.7
11589.3
10511.6
9518.07
8601.87
7757.62
6982.63
6268.88
5613.31
5011.01
4452.65
3942.89
3502.46
3134.6
2820.57
2520.52
2233.53
1944.07
1674.1
1436.87
1234.57
1063.52
924.672
812.318
723.538
654.206
102932
106662
111518
116880
122424
127993
133508
138939
144288
149556
154750
159876
164941
169955
174928
179870
184791
189703
194605
199465
204161
208695
213107
217433
221655
225708
229593
233325
236910
240350
243629
246731
249642
252346
254831
257097
259152
261013
262707
264259
265683
266977
268127
269107
269881
270412
270665
270601
270178
269360
268125
266470
264398
261924
259076
255885
252382
248580
244454
239976
235113
229802
224019
217772
211141
204161
196817
189097
181067
172906
164559
156090
147617
139195
130824
122501
114320
106412
98974.6
91954.4
85359.9
79193.6
73439.6
68088.1
63117.5
58500.2
54206.1
50209.3
46482.4
43004.5
39757.2
36721.4
33882.3
31224.1
28732.5
26399.1
24220.2
22190.1
20300.4
18541.3
16908.6
15396.9
14001.1
12711.6
11521.4
10430.7
9427.45
8503.06
7653.99
6870.63
6152.66
5515.15
4972.02
4522.53
4123.44
3720.69
3288.8
2868.58
2479.47
2131.96
1821.19
1551.19
1323.74
1137.47
986.935
123732
127884
133102
138764
144541
150283
155940
161502
166974
172372
177715
183019
188301
193571
198844
204132
209442
214772
220096
225343
230396
235260
239975
244569
249011
253240
257270
261127
264824
268354
271721
274913
277909
280689
283244
285579
287711
289668
291495
293229
294884
296458
297930
299266
300430
301390
302111
302540
302607
302258
301474
300263
298646
296649
294286
291574
288508
285085
281306
277170
272610
267525
261864
255693
249066
242022
234566
226664
218350
209700
200700
191353
181863
172455
163045
153636
144380
135282
126296
117622
109439
101838
94772.5
88230.1
82166.1
76531.5
71287.8
66390
61802.5
57493.2
53436.9
49610.3
45997
42581.6
39355.6
36315.2
33455.3
30769.4
28248.9
25887
23680.5
21627
19720.1
17952.3
16315.3
14809.3
13420.9
12139.2
10961
9879
8889.89
8001.13
7226.11
6579.43