/*--------------------------------*- C++ -*----------------------------------*\
| =========                 |                                                 |
| \\      /  F ield         | OpenFOAM: The Open Source CFD Toolbox           |
|  \\    /   O peration     | Version:  2112                                  |
|   \\  /    A nd           | Website:  www.openfoam.com                      |
|    \\/     M anipulation  |                                                 |
\*---------------------------------------------------------------------------*/
FoamFile
{
    version     2.0;
    format      ascii;
    arch        "LSB;label=32;scalar=64";
    class       volScalarField;
    location    "0.00878";
    object      T;
}
// * * * * * * * * * * * * * * * * * * * * * * * * * * * * * * * * * * * * * //

dimensions      [0 0 0 1 0 0 0];

internalField   nonuniform List<scalar> 
13875
(
1412.01
1535.57
1482.43
1487.59
1482.05
1483.83
1484.27
1482.97
1484.83
1485.06
1484.16
1484.1
1483.48
1483.91
1483.84
1483.87
1483.44
1484.72
1484.87
1483.12
1481.89
1487.66
1480.53
1533.19
1397.5
1307.02
1356.16
1318.91
1322.15
1316.62
1318.1
1321.98
1322.63
1324.3
1324.38
1323.51
1323.09
1317.99
1317.66
1318.36
1322.76
1322.95
1323.46
1322.31
1317.82
1316.7
1321.87
1319.57
1356.18
1301.93
1307.24
1340.06
1314.29
1311.73
1305.2
1305.37
1305.14
1303.87
1305.7
1307.02
1305.35
1305.89
1303.78
1304.04
1303.89
1305.78
1303.9
1305.92
1306.04
1305.09
1304.86
1311.06
1311.4
1335.83
1297.27
1317.37
1344.8
1314.66
1308.69
1305.98
1305.83
1304.03
1303.21
1304.27
1304.28
1303.01
1303.72
1303.87
1304.08
1304.04
1303.44
1302.42
1303.47
1304.2
1305.49
1305.36
1307.7
1313.92
1343.76
1312.58
1329.52
1342.11
1315.7
1312.37
1304.81
1305.14
1304.73
1303.35
1304.37
1304.36
1303.02
1303.49
1303.79
1304.24
1303.82
1303.28
1302.5
1303.97
1305.2
1304.88
1304.75
1311.74
1311.98
1338.56
1316.72
1332.2
1351.13
1318.8
1309.83
1307.88
1306.7
1304.26
1303.53
1304.32
1304.28
1303.14
1303.83
1304.1
1304.52
1304.3
1303.54
1302.63
1303.52
1304.25
1306.56
1307.28
1308.43
1318.99
1349.05
1326.28
1338.98
1360.46
1329.01
1317.39
1307.86
1307.14
1305.68
1304.21
1304.93
1304.71
1303.46
1303.9
1304.34
1304.84
1304.23
1303.57
1303.16
1304.57
1306.18
1306.51
1307.8
1317.6
1325.68
1358.17
1321.31
1359.72
1384.68
1343.99
1321
1316.33
1310.08
1306.64
1304.84
1305.12
1304.82
1304.12
1304.61
1305.08
1305.52
1305.21
1304.18
1303.75
1304.93
1306.14
1309.99
1315.31
1320.39
1341.55
1380.96
1349.88
1537.25
1508.45
1387.11
1350.5
1322.05
1315.99
1310.67
1307.58
1307.06
1306.17
1305.62
1305.75
1306.35
1306.84
1306.34
1305.66
1305.62
1307.24
1310.52
1314.2
1321.31
1349.23
1382.76
1505.63
1521.37
1835.07
1574.35
1426.95
1358.22
1338.22
1320.31
1313.95
1310.11
1309.35
1309.23
1308.59
1308.46
1309.02
1309.52
1309.18
1308.61
1308.85
1310.94
1314.1
1320.58
1337.06
1357.19
1424.89
1566.55
1827.28
2507.47
1804.7
1517.49
1407.76
1350.72
1331.6
1324.68
1317.74
1315.84
1315.13
1314.13
1313.82
1314.25
1314.87
1314.72
1314.64
1315.19
1317.71
1326.11
1330.03
1348.68
1419.35
1502.15
1797.73
2429.92
2812.96
2301.78
1737.24
1464.82
1427.79
1359.75
1338.04
1331.82
1329.1
1327.27
1325.89
1325.53
1325.65
1326.3
1326.39
1326.97
1328.23
1331.75
1339.7
1371.45
1405.46
1457.27
1731.46
2306.25
2837.42
2787.13
2656.34
2355.96
2201.62
1521.82
1412.32
1394.91
1373.13
1364.19
1357.53
1354.69
1353.71
1353.37
1354.06
1354.87
1357.65
1363.62
1374.86
1399.53
1421.71
1567.47
2234.25
2246
2687.15
2766.4
2723.55
2662.33
2744.34
2785
2045.41
1814.23
1519.57
1477.77
1459.2
1446.77
1443.28
1441.71
1441.46
1442.2
1443.5
1447.94
1458.96
1478.89
1541.58
1922.58
2101.16
2804.97
2792.51
2703.01
2701.44
2583.63
2640.41
2685.78
2686.5
2584.09
2355.26
2031.51
1963.31
1864.79
1764.7
1731.31
1719.93
1716.56
1718.16
1724.98
1749.29
1841.22
1962.26
1984.21
2421.54
2637.4
2736.19
2678.02
2652.36
2625.9
2501.31
2537.97
2626.09
2682.4
2654.62
2684.96
2878.6
2941.46
2930.47
3032.36
3115.38
3137.83
3148.17
3142.1
3124.39
3057.88
2904.82
2940.04
2900.7
2717.2
2661.02
2706.38
2624.3
2558.03
2533.29
2315.09
2399.58
2476.19
2530.98
2602.79
2728.39
3034.53
3410.62
3592.75
3683.51
3698.37
3691.74
3689.15
3692.66
3701.45
3702.62
3599.66
3418.36
3052.58
2738.47
2616.02
2565.2
2469.35
2404.29
2329.05
2024.66
2148.1
2300.45
2610.4
2792.52
2829.94
2959.57
3309.86
3530.29
3643.09
3673.59
3673.23
3672.73
3675.06
3676.22
3648.08
3502.3
3290.44
2965.78
2844.55
2809.42
2561.14
2269.46
2140.11
2023.83
1812.83
1878.42
2010.95
2237.07
2710.93
2842.29
2879.97
3105.09
3357.14
3499.03
3544.25
3558.36
3562.1
3561.96
3549.52
3509.65
3360.18
3120.13
2919.72
2919.47
2674.85
2202.61
2007.38
1883.59
1814.28
2453.08
2339.91
2103.69
2193.43
2503
2691.06
2701.99
2838.66
3078.03
3279.39
3388.04
3430.32
3440.78
3433.07
3392.11
3278.51
3066.52
2851.06
2729.53
2714.15
2482.93
2220.83
2138.38
2340.74
2447.77
3260.01
3423.02
2747.01
2303.34
2374.33
2534.35
2553.33
2658.16
2880.99
3107.23
3250.65
3306.84
3316.11
3306.1
3244.57
3088.67
2853.94
2655.97
2558.9
2541.35
2358.41
2325.78
2808.01
3480.77
3266.7
3641.73
3577.87
2815
2212.8
2212.05
2371.22
2420.72
2522.85
2732.67
2962.87
3117.38
3178.53
3189.99
3173.5
3101.33
2931.16
2699.3
2520.24
2417.46
2369.1
2190.11
2248.95
2900.19
3628.63
3681.72
3502.28
3113.95
2485.32
2059.98
2059.39
2238.33
2312.43
2415.84
2604.45
2829.17
2988.7
3054.81
3065.26
3049.08
2973.14
2802.64
2580.55
2415.26
2298.52
2235.06
2035.7
2054.67
2472.13
3118.92
3532.4
3518.49
2958.17
2246.97
1903.6
1973.36
2140.71
2209.46
2316.42
2501.35
2715.58
2866.68
2931.34
2945.37
2925.34
2851.58
2688.74
2475.45
2317.83
2201.52
2129.7
1943.04
1892.91
2254.33
2983.35
3548.79
3455.5
2785.22
2095.2
1821.4
1929.28
2069.03
2120.79
2231.09
2406.54
2612.65
2757.55
2819.63
2829.59
2812.2
2739.03
2582.92
2380.67
2227.05
2117.62
2063.7
1896.99
1808.16
2111.06
2832.52
3482.91
3424.75
2748.51
2040.02
1826.63
1904.33
2001.69
2042.27
2148.72
2322.41
2513.8
2649.51
2707.34
2721.62
2701.89
2635.61
2489.78
2296.58
2148.79
2044.56
1999.79
1877.63
1816.55
2038.67
2762.43
3456.34
3349.36
2599.24
1963.78
1827.98
1883.25
1956.22
1976.8
2085.78
2248.64
2429.46
2553.47
2608.36
2617.99
2602.72
2538.22
2405.63
2226.16
2079.46
1977.65
1960.81
1860.74
1822.74
1971.45
2613.61
3369.47
3318.46
2561.96
1972.23
1863.75
1873.79
1906.94
1916.3
2024.34
2186.13
2350.66
2460.8
2509.07
2522.7
2504
2447.51
2324.13
2154.97
2018.93
1918.65
1912.27
1854.27
1850.17
1975.06
2610.42
3364.55
3313.3
2539.99
1940.46
1853.32
1843.23
1876.41
1868.32
1977.07
2122.4
2275.56
2375.3
2422.76
2431.55
2419.18
2365.28
2260.83
2106.12
1970.36
1871.63
1883.6
1832.7
1852.38
1934.08
2500.87
3288.99
3279.13
2544.52
1976.73
1890.99
1843.35
1848.92
1826.53
1930.5
2073.75
2210.05
2297.29
2336
2348.48
2332.23
2286.88
2189.3
2046.95
1926.7
1827.4
1866
1829.15
1872.47
1956.88
2522.79
3275.84
3189.97
2456.43
1944.71
1885.42
1802.95
1825.38
1794.58
1905.32
2027.34
2151.4
2225.05
2263.21
2269.04
2259.51
2214.64
2135.23
2006.56
1889.45
1794.5
1835.44
1804.34
1874.62
1940.57
2470.51
3217.33
3160.44
2454.58
1997.66
1916.62
1810.8
1801.9
1770.31
1866.21
1983.34
2091.39
2157.79
2187.37
2198.04
2185.14
2151.1
2077.01
1962.14
1866.45
1768.13
1820.68
1806.8
1891.22
1968.37
2423.53
3152.03
3098.96
2399.68
1994.31
1894.43
1781.85
1771.69
1744.59
1850.79
1946.37
2044.79
2097.32
2126.99
2130.15
2123.98
2088.35
2034.01
1929.01
1836.68
1743.56
1782.49
1789.88
1888.01
1967.67
2390.35
3108.5
3055.06
2373.13
2026.05
1915.39
1804.18
1756.92
1733.08
1825.6
1910.58
1993.63
2040.82
2061.72
2070.43
2059.91
2034.61
1980.55
1889.82
1820.16
1723.85
1772.67
1796.62
1901.29
2016.71
2378.8
3081.34
3019.39
2339.86
2017.14
1907.9
1785.2
1728.06
1703.6
1811.48
1876.91
1952.9
1988.02
2011.64
2012.81
2010.02
1981.92
1948.93
1863.31
1802.85
1697.91
1736.79
1797.79
1905.01
2015.1
2338.77
3036.08
2998.31
2331.44
2021.07
1927.27
1803.35
1731.6
1698.64
1788.48
1847.96
1908.28
1940.85
1955.35
1963.06
1954.63
1935.14
1896.65
1831.94
1790.47
1685.69
1734.31
1807.2
1924.68
2029.26
2345.42
3019.18
2948.98
2286.25
2008.13
1938.9
1790.22
1714.92
1671.95
1777.65
1820.17
1877.39
1896.34
1914.98
1914.01
1913.55
1891.16
1874.47
1802.59
1769.86
1661.71
1718.6
1794.96
1943.09
2007.91
2309.98
2971.91
2936.03
2296.19
2013.14
1980.88
1816.64
1732.78
1675.87
1758.86
1791.4
1834.58
1856.02
1866.38
1872.58
1866
1851.99
1825.32
1780.25
1764.61
1662.73
1727
1815.84
1979.43
2013.75
2283.9
2937.35
2902.21
2273.96
1991.31
1993.31
1816.55
1715.14
1654.81
1747.58
1764.52
1810.56
1819.57
1834.31
1831.58
1833.25
1815.45
1809.74
1745.92
1740.52
1649.37
1715.09
1817.35
1999.86
1979.32
2271.42
2907.15
2855.64
2265.7
1975.45
1990.52
1843.39
1746.74
1676.01
1739.66
1743.28
1770.99
1784.78
1792.71
1796.8
1792.17
1780.86
1762.89
1729.42
1738.27
1658.57
1736.69
1843.39
1990.04
1966.12
2265.2
2867.04
2829.93
2257.3
1946.61
1986.61
1891.14
1736.82
1666.17
1727.2
1716.39
1752.57
1754.67
1766.43
1762.27
1766.23
1751.94
1755.14
1695.53
1719.85
1667.87
1726.12
1872.77
1987.54
1935.41
2239.79
2828.11
2795.49
2250.68
1936.86
1974.84
1925.29
1770.13
1702.24
1730.65
1704.91
1717.74
1724.34
1729.81
1732.75
1730.6
1720.33
1713.73
1688.57
1725.77
1691.16
1767.24
1943.33
1980.81
1939.13
2252.51
2795.64
2767.24
2227.79
1915.44
1958.87
1924.98
1787.01
1706.43
1730.83
1683.82
1707.55
1700.96
1708.96
1703.44
1709.37
1698.22
1711.53
1659.53
1713.94
1700.61
1773.45
1934.35
1965.47
1917.8
2244.71
2764.65
2735.83
2226.1
1915.58
1932.35
1918.83
1849.41
1746.39
1747.43
1687.79
1678.55
1674.87
1677.08
1678.34
1677.97
1670.4
1679.15
1670.87
1734.87
1729.58
1829.24
1931.05
1943.05
1924.85
2226.54
2727.35
2715.48
2211.69
1903.17
1903.02
1901.16
1894.56
1753.12
1745.02
1676.49
1681.4
1659.22
1661.12
1653.7
1661.69
1655.77
1686.68
1653.67
1727.82
1755.97
1901.19
1917.34
1917.8
1906.39
2211.14
2712.83
2677.16
2192.75
1900.59
1886.36
1878.57
1888.38
1824.66
1775.77
1702.74
1664.49
1642.7
1635.05
1633.77
1635.28
1634.29
1659.82
1680.61
1758.22
1809.29
1896.16
1896.41
1894.39
1901.07
2200.14
2689.98
2659.74
2191.85
1894.69
1865.59
1848.38
1871.59
1902.23
1790.31
1688.45
1680.93
1641.41
1629.37
1617.09
1628.95
1636.97
1685.89
1662.79
1773.59
1887.7
1879.35
1867.88
1875.11
1888.49
2182.37
2670.14
2610.52
2172.12
1889.28
1851.49
1825.54
1856.11
1889.01
1850.24
1731.47
1671.58
1636.72
1613.64
1604.37
1612.3
1625.44
1668.15
1712.47
1826.84
1895.71
1867.73
1843.04
1861.79
1887.11
2176.76
2622.33
2569.04
2154.36
1875.69
1848.02
1806.94
1824.25
1876.65
1943.3
1736.47
1697.73
1645.91
1630.32
1605.08
1628.65
1639.33
1702.25
1710.69
1920.91
1879.69
1826.07
1818.16
1845.78
1879.37
2159.38
2583.11
2400.98
2106.28
1855.35
1828.94
1788.54
1795.79
1853.15
1918.05
1823.8
1708.1
1648.26
1615.9
1607.85
1613.55
1630.75
1701.6
1796.05
1924.1
1860.51
1803.46
1800.27
1839.94
1859.89
2105.68
2405.86
902.915
860.121
861.101
832.786
812.705
761.969
715.782
658.109
599.885
541.36
495.104
462.413
440.062
426.094
416.737
410.843
407.363
405.679
405.021
404.686
404.357
403.83
403.186
402.61
401.296
399.09
395.099
390.12
383.877
377.147
916.647
907.794
919.655
905.939
883.77
830.803
778.119
717.316
653.192
583.005
521.054
478.321
451.04
436.724
428.496
423.618
420.811
419.263
418.593
418.05
417.044
415.871
414.578
413.343
411.472
408.445
403.6
397.879
390.802
384.204
929.6
931.073
946.805
936.238
909.077
853.361
797.203
737.461
671.914
602.486
541.679
496.601
467.121
450.989
441.313
435.059
430.792
427.681
425.878
424.272
422.634
421.095
419.31
417.776
415.943
412.54
407.33
401.547
394.889
388.17
959.811
973.618
993.554
984.501
945.27
883.306
821.238
760.37
698.448
631.479
566.426
518.743
487.118
468.209
456.352
448.843
443.772
440.4
438.087
435.75
433.069
430.652
428.369
426.157
423.835
420.247
415.12
409.246
402.264
395.216
989.478
1004.76
1023.41
1009.15
962.674
896.009
830.131
767.411
708.144
648.617
590.548
542.832
509.231
487.297
472.937
463.113
455.97
451.105
446.998
443.345
439.68
436.501
433.626
430.898
428.46
425.188
420.488
414.962
408.518
400.608
1009.48
1037.89
1055.85
1037.17
980.678
905.564
834.193
768.91
710.577
654.647
605.041
561.643
527.698
503.989
488.125
476.945
468.842
462.842
457.165
452.456
448.144
444.253
440.953
437.976
435.068
431.607
426.977
421.583
415.039
408.414
1036.89
1068.84
1083.74
1059.99
994.376
912.318
836.781
769.289
710.844
656.119
611.021
573.583
542.266
518.301
501.484
488.83
479.243
471.584
464.794
459.44
454.232
449.864
446.161
442.923
439.925
435.966
431.586
426.618
420.263
413.248
1056.02
1098.34
1112.04
1083.76
1009
920.868
840.875
770.324
710.812
656.19
612.925
578.73
551.227
528.799
511.715
498.674
488.275
479.641
472.425
466.691
460.603
455.897
451.966
448.559
445.268
440.84
436.199
431.349
425.3
420.089
1079.01
1126.83
1139.71
1106.71
1025.2
932.202
849.105
774.636
711.988
655.971
613.416
580.824
555.566
535.564
519.138
505.604
494.595
485.168
478.024
470.741
465.208
460.132
456.294
452.725
449.155
444.817
440.107
435.125
429.777
423.61
1101.8
1154.35
1167.27
1128.37
1043.5
948.793
861.873
783.444
715.586
657.468
613.612
581.695
557.461
538.97
523.774
510.501
499.346
490.837
482.415
475.473
470.141
465.059
461.099
457.29
453.294
449.231
444.588
439.623
435.162
429.417
1120.61
1180.15
1192
1149.75
1064.76
969.151
879.423
796.673
723.713
662.501
615.003
582.415
558.504
540.418
526.046
513.778
503.061
493.859
485.377
478.704
473.76
468.994
464.352
460.449
456.564
452.745
448.57
444.504
438.489
432.939
1141.01
1204.07
1214.89
1172.8
1088.97
993.524
901.749
815.463
736.673
671.738
619.846
584.777
559.371
541.044
527.361
516.444
506.554
497.059
488.887
482.48
477.864
473.245
468.849
464.623
460.795
457.053
453.217
448.011
441.706
436.107
1157.22
1225.87
1237.1
1197.73
1115.72
1022.08
929.743
840.384
754.743
685.996
629.289
590.397
561.791
542.507
528.7
518.411
509.383
500.075
492.09
486.158
481.547
477.245
473.062
468.072
464.066
460.416
456.149
450.998
445.065
439.771
1173.61
1246.23
1259.19
1224.06
1145.49
1052.8
959.499
868.795
777.738
705.615
644.166
600.366
567.383
545.197
530.374
520.213
511.854
503.322
495.698
489.319
484.996
481.337
476.348
472.035
467.86
464.131
459.855
454.48
448.615
443.306
1188.25
1265.79
1281.1
1251.13
1178.77
1087.85
992.756
899.187
806.075
731.44
665.49
615.689
577.385
550.53
533.143
522.001
513.91
506.39
499.35
492.348
487.768
483.593
478.814
475.136
470.93
466.976
462.452
456.547
450.428
445.464
1199.58
1284.28
1302.31
1279.01
1212.87
1126.27
1033.66
933.627
840.696
763.161
693.395
636.879
592.643
559.993
538.302
524.651
516.127
509.52
503.204
495.713
490.288
485.866
481.72
477.945
474.919
470.792
465.515
459.261
452.919
448.253
1211.16
1301.62
1322.69
1306.61
1247.52
1166
1075.99
974.061
879.864
799.425
726.955
664.185
613.361
574.426
547.279
529.63
519.466
513.242
507.168
499.631
492.975
488.358
484.552
480.931
477.48
472.927
467.836
461.658
455.845
451.623
1221.06
1317.56
1341.91
1333.21
1281.96
1206.46
1119.94
1018.94
924.504
840.948
766.16
697.777
640.279
594.827
561.131
537.741
524.175
516.55
510.264
503.158
496.404
490.815
486.908
483.279
479.553
474.998
469.878
463.877
458.283
454.123
1231.04
1331.98
1360.02
1358.24
1315.52
1247.2
1165.91
1067.6
973.347
887.353
810.363
737.909
674.12
621.993
580.852
550.374
531.116
519.971
513.035
506.156
499.345
492.876
489.038
485.01
480.951
476.355
471.071
465.348
460.193
456.339
1234.46
1344.57
1377.76
1381.73
1348.22
1287.66
1211.59
1117.71
1026.94
938.58
858.819
783.923
714.945
656.1
607.273
569.021
542.15
525.313
515.856
508.674
502.115
495.378
491.152
487.132
482.805
477.875
472.508
467.083
462.088
458.413
1243.34
1356
1394.45
1404.16
1379.65
1327.78
1255.99
1168.36
1081.6
994.805
910.378
834.952
762.393
697.319
640.926
594.636
558.873
534.235
519.899
511.363
505.112
498.66
493.46
489.203
484.605
479.504
474.312
468.791
464.009
460.27
1244.18
1366.3
1410.85
1425.63
1410.01
1367.12
1300.37
1219.51
1136.41
1051.63
965.594
889.519
815.051
745.028
681.435
626.758
582.01
548.295
527.081
514.749
508.509
502.333
495.792
490.873
485.916
480.828
475.79
470.417
465.83
462.212
1247.38
1376.28
1426.61
1445.49
1438.64
1404.62
1344.35
1269.6
1189.99
1108.16
1025.2
945.943
870.476
796.725
725.72
663.154
609.852
567.269
538.179
520.559
512.016
505.914
498.784
492.931
487.805
482.284
477.187
472.161
467.358
463.855
1234.74
1386.88
1442.43
1464.89
1465.42
1439.58
1386.47
1318.26
1242.79
1163.57
1083.72
1002.48
924.388
848.095
771.26
702.779
642.494
592.248
554.268
529.341
516.659
509.412
502.326
495.319
489.462
482.945
477.815
473.209
468.868
465.527
1241.45
1414.7
1460.57
1485.28
1490.12
1471.65
1426.6
1365.03
1293.75
1216.96
1137.13
1054.16
972.402
897.5
819.281
746.459
680.464
622.885
576.142
542.365
522.887
513.266
505.769
497.631
490.222
483.298
478.103
473.644
469.995
467.258
375.42
382.136
388.108
392.934
396.401
398.112
399.361
400.244
400.761
401.345
401.787
402.033
402.64
405.207
408.818
415.423
425.981
440.877
465.237
501.93
554.485
620.203
683.141
742.356
789.067
839.258
857.698
882.37
877.996
917.765
382.468
389.042
395.945
401.418
405.621
408.174
409.843
411.298
412.71
413.981
414.798
414.856
415.607
418.107
421.257
426.278
436.602
453.368
482.927
531.658
600.141
674.401
741.049
802.539
856.173
909.298
931.24
941.408
926.533
932.104
386.693
393.274
399.746
405.279
409.57
412.444
414.298
416.403
418.02
419.623
421.208
422.633
424.253
427.857
432.665
439.437
450.271
469.695
502.566
553.061
618.627
691.001
757.626
818.308
876.221
933.287
961.28
968.725
950.46
944.62
393.658
400.577
407.445
413.149
417.47
420.679
422.867
425.178
427.461
429.899
432.398
434.553
436.804
440.304
445.929
454.297
467.489
489.541
525.739
578.843
645.414
709.323
770.479
833.017
898.604
964.221
1005.77
1013.75
992.648
974.905
398.968
406.897
413.278
418.692
422.678
425.783
428.166
430.437
433.4
436.675
440.244
443.741
447.665
452.455
460.032
470.622
486.485
511.627
549.451
601.706
657.199
714.307
773.043
837.681
907.909
978.741
1028.06
1042.5
1022.89
1004.33
406.623
413.284
419.852
425.245
429.37
432.499
434.959
437.549
440.994
444.939
449.953
454.363
459.361
465.04
473.358
485.262
503.008
529.832
567.238
611.103
659.769
714.52
772.276
838.861
913.935
993.328
1053.73
1073.96
1055.2
1023.95
411.171
418.17
424.692
429.947
434.074
437.373
439.833
442.675
446.374
450.759
456.098
462.658
468.619
475.775
485.517
498.609
517.136
544.142
575.758
613.53
659.641
712.961
770.471
839.903
918.735
1004.79
1074.68
1100.88
1085.73
1051.03
417.549
422.827
429.104
434.43
438.958
443.027
445.472
448.26
452.094
456.725
462.231
469.517
477.826
485.151
495.506
509.013
527.835
550.95
578.451
613.524
657.164
711.05
770.313
842.725
926.037
1018.24
1096.61
1127.44
1114.2
1069.2
422.408
428.101
432.736
437.917
442.606
446.876
449.777
452.599
456.565
461.203
466.465
473.945
482.847
491.801
502.554
516.58
533.373
553.643
578.934
611.947
655.218
711.089
773.383
849.515
936.184
1033.09
1118.26
1153.33
1141.37
1092.49
427.268
432.84
438.273
442.394
446.836
450.954
454.515
457.617
461.791
466.453
471.34
478.458
487.117
496.798
507.61
520.743
535.654
554.25
578.589
610.541
655.218
713.385
780.711
861.361
951.808
1050.33
1138.92
1179.1
1167.84
1114.57
431.672
436.587
442.371
446.592
450.328
454.077
457.846
461.295
464.982
469.988
475.138
481.522
490.03
500.039
510.972
522.89
536.602
554.161
578.406
610.696
658.334
719.79
792.673
877.685
971.199
1070.8
1159.49
1202.41
1192.42
1132.85
435.753
440.22
446.171
450.975
454.485
458.074
461.76
465.2
468.931
473.231
478.292
484.989
493.202
503.1
513.244
524.178
537.355
554.52
579.678
613.962
666.044
731.234
810.659
899.176
994.73
1094.24
1181.71
1224.27
1215.32
1153.1
438.87
443.718
449.387
454.318
457.909
461.167
464.763
468.422
472.602
476.341
481.057
488.051
496.293
505.763
514.844
525.17
538.474
556.638
584.086
622.127
679.111
748.292
834.717
926.62
1022.9
1120.53
1205.98
1245.66
1236.17
1168.65
442.23
447.424
453.08
458.243
461.981
464.831
468.527
473.096
476.462
480.266
484.377
491.274
499.527
508.236
516.479
526.44
540.613
561.375
593.045
636.045
697.789
770.682
863.165
956.655
1053.69
1149.96
1231.15
1266.96
1255.81
1185.08
444.256
449.404
455.557
461.209
465.804
468.168
471.897
476.256
479.723
484.04
487.768
494.599
502.377
510.104
518.109
528.551
545.088
570.486
607.651
656.659
722.83
798.57
894.342
990.207
1088.15
1182.35
1257.48
1288.06
1274.62
1199.12
446.784
451.975
458.525
464.56
469.42
472.539
475.174
479.026
482.765
486.93
491.731
498.724
505.243
512.263
520.539
533.113
553.553
584.594
627.888
683.836
754.179
833.296
928.428
1030.18
1126.4
1215.77
1284.27
1309.08
1292.6
1210.07
450.353
454.976
461.111
466.795
471.592
475.536
478.583
481.876
486.179
489.49
496.193
503.303
509.02
515.508
525.364
541.857
567.262
604.328
654.201
716.695
790.054
872.364
969.11
1073.95
1166.54
1250.53
1311.55
1329.02
1309.41
1221.34
453.623
457.866
463.488
469.214
473.703
478.046
481.48
485.043
488.941
493.435
500.156
507.083
512.98
520.344
533.142
555.313
587.235
630.753
687.697
755.841
831.276
916.115
1013.09
1117.96
1207.12
1285.44
1338.13
1347.75
1324.72
1230.55
456.239
460.321
465.416
471.058
476.121
479.891
483.672
487.326
491.128
497.041
503.828
510.286
517.076
527.42
545.424
574.6
614.124
664.571
727.979
800.624
878.007
964.753
1061.85
1163.75
1248.12
1319.15
1363.03
1365.28
1338.33
1239.84
458.447
462.289
467.251
472.709
477.533
481.853
485.903
489.778
493.785
500.303
506.744
513.416
522.401
538.128
563.599
600.921
648.32
705.838
774.417
849.897
929.676
1019.1
1112.75
1209.8
1288.73
1351.62
1386.09
1382.25
1350.24
1242.95
460.3
464.078
468.93
474.411
479.385
483.911
488.191
492.352
497.056
503.43
509.6
517.974
531.478
554.587
588.967
634.507
689.788
753.845
826.152
902.223
986.34
1074.73
1164.07
1254.61
1328.71
1382.62
1407.61
1398.27
1361.11
1251.36
461.949
465.988
470.479
475.699
480.441
485.53
490.347
495.192
501.315
507.162
513.361
525.056
545.667
578.063
621.567
675.378
737.979
807.19
881.672
958.082
1044.59
1130.78
1215.68
1299.02
1367.84
1412.52
1428.34
1414.15
1370.97
1252.21
463.966
467.282
471.582
476.321
481.067
487.005
492.433
498.246
505.544
511.452
519.584
536.779
565.305
606.967
659.398
721.051
790.714
863.732
938.985
1018
1102.43
1185.45
1266.65
1343.36
1405.2
1440.87
1447.75
1429.49
1380.66
1255.73
465.935
468.699
472.177
476.815
481.693
488.256
494.656
501.778
509.445
516.446
528.737
553.458
590.673
640.015
699.743
767.637
843.211
918.833
996.087
1077.78
1158.57
1239.19
1316.18
1386.04
1440.4
1467.48
1467.37
1444.96
1391.04
1243.53
467.514
470.101
473.018
477.229
482.195
489.13
496.982
505.364
513.411
523.308
541.917
575.737
621.646
677.944
743.317
815.618
893.098
968.334
1049.83
1132.42
1212.66
1290.89
1363.73
1426.55
1472.74
1492.51
1487.61
1463.04
1418.96
1249.61
860.227
826.099
812.323
800.331
798.183
802.977
813.515
830.982
855.403
887.041
924.777
967.384
1013.98
1063.22
1113.17
1162.5
1210.17
1255.55
1298.01
1337.04
1372.6
1404.49
1432.62
1457.57
1479.77
1499.19
1516.01
1530.45
1542.83
1553.43
1562.15
1569.42
1575.53
1580.44
1584.17
1586.73
1588.11
1588.3
1587.38
1585.21
1581.78
1577.06
1570.92
1563.23
1553.93
1542.98
1530.27
1515.64
1498.97
1480.18
1459.29
1436.19
1411.11
1384.09
1355.37
1324.94
1292.85
1259.38
1224.75
1189.27
1153.25
1116.97
1080.78
1045.03
1009.8
975.11
940.928
907.199
873.964
841.273
809.306
778.256
748.489
720.212
693.726
669.031
646.228
625.25
606.089
588.835
573.518
560.026
548.446
538.38
529.814
522.412
515.948
510.357
505.328
500.895
496.922
493.32
489.994
487.153
484.274
481.868
479.391
476.821
474.794
472.833
470.769
468.927
467.535
466.277
465.142
464.262
463.897
463.733
463.713
463.731
463.624
463.69
464.655
465.418
466.381
467.964
468.736
468.719
468.573
468.445
468.818
469.918
470.119
469.865
468.859
952.378
933.178
920.051
914.846
916.991
927.112
944.522
969.536
1001.87
1040.69
1084.65
1132.24
1181.95
1232.3
1281.92
1329.76
1375.05
1417.25
1456.02
1491.18
1522.78
1550.61
1575.11
1596.77
1615.94
1632.43
1646.58
1658.64
1668.86
1677.45
1684.57
1690.45
1695.21
1698.89
1701.54
1703.16
1703.74
1703.33
1701.91
1699.48
1695.75
1690.95
1684.93
1677.62
1668.94
1658.86
1647.29
1634.22
1619.59
1603.37
1585.53
1566.16
1545.27
1522.9
1499.07
1473.9
1447.57
1420.23
1392.05
1363.16
1333.65
1303.59
1273.25
1242.79
1212.21
1181.45
1150.49
1119.34
1088.04
1056.62
1025.03
993.355
961.732
930.24
898.913
867.778
836.812
805.919
775.082
744.455
714.421
685.493
658.335
633.367
610.957
591.142
573.696
558.411
545.102
533.677
523.851
515.55
508.399
502.439
497.268
492.621
488.65
485.139
481.879
479.179
476.572
474.193
472.376
470.831
469.592
468.39
467.644
467.086
466.745
466.689
466.696
466.6
467.088
467.487
468.405
469.877
470.295
470.356
470.413
470.524
470.898
471.708
472.223
472.139
471.288
1046.22
1034.85
1027.08
1025.83
1031.69
1045.47
1066.91
1095.41
1130.26
1170.58
1215.08
1262.29
1310.74
1359.08
1406.1
1450.89
1492.85
1531.65
1567.02
1598.95
1627.39
1652.27
1674.28
1693.78
1710.94
1725.58
1738.14
1748.86
1757.94
1765.58
1771.94
1777.17
1781.38
1784.64
1786.97
1788.36
1788.82
1788.42
1787.09
1784.8
1781.48
1777.12
1771.67
1765.08
1757.32
1748.4
1738.08
1726.59
1713.83
1699.82
1684.57
1668.14
1650.58
1631.95
1612.29
1591.69
1570.11
1547.62
1524.31
1500.39
1476.06
1451.36
1426.26
1400.81
1375.02
1348.85
1322.21
1295.02
1267.28
1239.02
1210.21
1180.87
1151.01
1120.63
1089.73
1058.37
1026.5
994.118
961.301
928.134
894.814
861.623
828.825
796.634
764.88
734.06
704.61
676.457
650.112
625.855
603.859
584.348
567.157
552.28
539.216
527.935
518.127
509.814
502.501
496.545
491.34
486.936
483.739
481.185
479.269
477.489
476.103
475.01
474.405
474.187
473.636
473.088
473.223
473.216
473.735
474.732
474.909
474.531
474.526
474.675
474.785
475
475.412
475.265
474.23
1142.05
1137.06
1135.2
1138.76
1149.28
1167.13
1191.97
1222.99
1259.33
1299.93
1343.61
1389.08
1435.08
1480.43
1524.13
1565.44
1603.84
1639.03
1671.03
1699.85
1725.18
1747.61
1767.56
1785.23
1800.66
1813.89
1825.3
1835.11
1843.49
1850.59
1856.57
1861.54
1865.61
1868.82
1871.23
1872.83
1873.57
1873.56
1872.73
1871.02
1868.4
1864.84
1860.32
1854.8
1848.26
1840.69
1832.05
1822.37
1811.66
1799.93
1787.22
1773.6
1758.97
1743.5
1727.23
1710.2
1692.48
1674.14
1655.35
1636
1616.03
1595.43
1574.19
1552.21
1529.87
1506.95
1483.36
1459.08
1434.19
1408.57
1382.15
1354.84
1326.68
1297.73
1268.03
1237.57
1206.33
1174.36
1141.63
1108.19
1074.21
1039.81
1005.18
970.4
935.611
901.115
867.364
834.086
801.996
771.153
741.428
712.843
685.307
659.127
634.544
611.828
590.832
572.054
555.348
541.129
528.795
518.27
509.859
503.215
497.849
493.493
490.168
487.412
485.701
484.866
483.339
482.567
481.865
481.378
481.789
482.245
482.15
481.341
480.381
479.695
479.213
478.968
478.966
478.707
477.652
1241.81
1242.24
1245.69
1254.39
1269.45
1290.95
1318.54
1351.43
1388.48
1428.63
1470.78
1513.83
1556.76
1598.63
1638.71
1676.4
1711.35
1743.35
1772.28
1798.16
1821.15
1841.67
1859.97
1876.16
1890.3
1902.64
1913.38
1922.71
1930.77
1937.7
1943.65
1948.72
1952.99
1956.54
1959.39
1961.55
1962.99
1963.66
1963.64
1962.82
1961.18
1958.69
1955.34
1951.12
1946.02
1940.03
1933.16
1925.39
1916.75
1907.23
1896.88
1885.72
1873.76
1861.04
1847.62
1833.55
1818.9
1803.5
1787.57
1771.05
1753.87
1736.06
1717.63
1698.72
1678.9
1658.22
1636.61
1613.95
1590.47
1566.22
1541.05
1514.96
1487.96
1460.05
1431.23
1401.49
1370.87
1339.42
1307.28
1274.42
1240.72
1206.33
1171.46
1136.36
1101.15
1065.96
1030.92
996.113
961.747
927.958
894.528
861.552
829.683
798.422
768.015
738.712
710.518
683.664
657.871
633.351
610.305
589.058
570.104
553.719
540.006
528.779
519.943
512.69
507.479
503.77
499.358
496.016
492.884
491.678
492.053
492.42
492.013
490.51
488.476
486.316
484.632
484.557
484.356
483.737
482.801
1343.97
1348.91
1357.36
1370.73
1389.66
1414.09
1443.47
1477.14
1514.16
1553.24
1593.45
1633.92
1673.79
1712.35
1749.01
1783.35
1815.14
1844.21
1870.58
1894.35
1915.69
1934.81
1951.9
1967.13
1980.63
1992.56
2003.08
2012.32
2020.44
2027.47
2033.73
2039.22
2044.03
2048.26
2051.89
2054.91
2057.3
2059.02
2059.96
2060.18
2059.67
2058.39
2056.35
2053.56
2050.02
2045.72
2040.63
2034.73
2028.03
2020.51
2012.19
2003.09
1993.23
1982.63
1971.32
1959.33
1946.66
1933.28
1919.2
1904.43
1888.94
1872.74
1855.52
1837.49
1818.53
1798.53
1777.58
1755.85
1733.2
1709.45
1684.66
1658.79
1631.92
1604.23
1575.63
1546.16
1515.92
1484.99
1453.34
1421
1388.24
1355.08
1321.49
1287.33
1252.83
1218.16
1183.41
1148.54
1113.86
1079.53
1045.42
1011.54
978.232
945.357
912.703
880.515
848.889
817.5
786.38
755.863
726.19
697.733
671.177
646.358
623.381
602.178
583.049
566.85
553.314
543.308
533.46
523.961
516.181
510.671
509.285
507.274
503.569
500.563
497.993
495.972
493.809
492.167
492.29
491.49
490.218
1446.46
1455.29
1468.19
1485.49
1507.53
1534.06
1564.53
1598.2
1634.24
1671.9
1710.18
1748.24
1785.38
1820.97
1854.57
1886
1915.11
1941.9
1966.51
1988.92
2009.08
2027.22
2043.63
2058.53
2071.86
2083.75
2094.33
2103.73
2112.09
2119.56
2126.34
2132.53
2138.08
2143.28
2147.95
2152.01
2155.46
2158.24
2160.3
2161.62
2162.17
2162.16
2161.49
2160.2
2158.27
2155.64
2152.26
2148.09
2143.09
2137.25
2130.57
2123.08
2114.77
2105.67
2095.77
2085.06
2073.52
2061.13
2047.91
2033.85
2018.9
2002.99
1986.01
1967.95
1948.82
1928.65
1907.6
1885.29
1861.98
1837.64
1812.27
1786.01
1759.05
1731.18
1702.42
1672.73
1642.43
1611.58
1580.21
1548.43
1516.29
1483.8
1451.06
1418.24
1385.45
1352.64
1319.75
1286.75
1253.66
1220.51
1187.3
1154.07
1120.87
1087.66
1054.66
1021.84
988.911
955.912
922.818
890.284
857.773
825.244
793.561
762.7
732.915
704.646
677.555
653.294
631.345
613.061
597.054
580.843
565.756
552.511
544.185
535.594
525.585
517.815
511.761
507.045
503.606
501.486
501.5
500.958
499.258
1547.57
1559.89
1576.63
1597.13
1621.53
1649.5
1680.5
1713.86
1748.85
1784.76
1820.85
1856.43
1890.96
1924.06
1955.43
1984.75
2011.92
2037.31
2060.8
2082.12
2101.43
2119.11
2135.59
2150.46
2163.81
2175.77
2186.46
2196.05
2204.71
2212.65
2220.04
2227.01
2233.59
2239.8
2245.54
2250.51
2254.92
2258.65
2261.56
2263.8
2265.48
2266.63
2267.28
2267.48
2267.13
2266.08
2264.29
2261.65
2258.12
2253.66
2248.29
2242.02
2234.86
2226.78
2217.75
2207.74
2196.71
2184.69
2171.7
2157.7
2142.59
2126.28
2108.65
2089.76
2069.65
2048.4