/*--------------------------------*- C++ -*----------------------------------*\
| =========                 |                                                 |
| \\      /  F ield         | OpenFOAM: The Open Source CFD Toolbox           |
|  \\    /   O peration     | Version:  2112                                  |
|   \\  /    A nd           | Website:  www.openfoam.com                      |
|    \\/     M anipulation  |                                                 |
\*---------------------------------------------------------------------------*/
FoamFile
{
    version     2.0;
    format      ascii;
    arch        "LSB;label=32;scalar=64";
    class       surfaceScalarField;
    location    "0.00021";
    object      phi;
}
// * * * * * * * * * * * * * * * * * * * * * * * * * * * * * * * * * * * * * //

dimensions      [1 0 -1 0 0 0 0];

oriented        oriented;

internalField   nonuniform List<scalar> 
27436
(
-0.550449
8.16787
-0.0998828
7.43443
-0.0785872
7.77845
-0.0821128
7.80328
-0.0661783
7.78834
-0.0567691
7.7938
-0.0457647
7.79266
-0.0346946
7.79296
-0.0240302
7.79337
-0.0141164
7.79381
-0.00352786
7.7936
0.00713491
7.7932
0.0175719
7.79361
0.028178
7.79352
0.0390466
7.79338
0.0482548
7.79442
0.0590431
7.79362
0.0701543
7.79352
0.0811862
7.79332
0.0911224
7.79366
0.106951
7.78833
0.104146
7.80298
0.122581
7.7805
0.577015
7.4502
8.23094
-0.249899
8.53058
-0.0993735
7.32911
-0.0687427
7.77236
-0.0619322
7.82735
-0.0527718
7.81247
-0.0447668
7.81973
-0.0366877
7.81826
-0.0280856
7.81822
-0.0195395
7.8185
-0.0111602
7.81906
-0.0027219
7.81899
0.00574104
7.81838
0.0142417
7.81904
0.0227897
7.81885
0.0312497
7.81879
0.0394708
7.81992
0.0479869
7.81909
0.0565121
7.81878
0.0646152
7.81888
0.0726849
7.81954
0.0813966
7.81268
0.0859144
7.82858
0.116416
7.77323
0.23798
7.37292
8.48453
-0.232506
8.7843
-0.147226
7.30921
-0.134802
7.79198
-0.121157
7.85041
-0.108806
7.84217
-0.0975881
7.85156
-0.0865992
7.85036
-0.0751071
7.84992
-0.0636269
7.84993
-0.0522935
7.85031
-0.0409152
7.85029
-0.0295339
7.84969
-0.0180991
7.85047
-0.00662194
7.85009
0.00479442
7.84995
0.0160415
7.85082
0.0275647
7.85005
0.0390819
7.84958
0.0501949
7.84992
0.0612847
7.85096
0.0723993
7.84304
0.0851249
7.85177
0.0872356
7.80407
0.189486
7.31837
8.6812
-0.153271
8.86522
-0.113572
7.30706
-0.144733
7.86907
-0.132692
7.8923
-0.119042
7.8896
-0.106192
7.89933
-0.0921143
7.89515
-0.0770589
7.89258
-0.0619822
7.892
-0.047203
7.89212
-0.0325632
7.89225
-0.017998
7.89187
-0.00340349
7.89273
0.0112599
7.89208
0.025932
7.89176
0.040487
7.89209
0.0554474
7.89157
0.0702959
7.89139
0.0842556
7.89344
0.0973615
7.89758
0.109678
7.8916
0.12439
7.88972
0.0801128
7.89496
0.129703
7.30429
8.87069
-0.0650513
8.97495
-0.0388488
7.33339
-0.105887
8.00213
-0.078614
7.93216
-0.0693864
7.95863
-0.0608745
7.97253
-0.0509974
7.96652
-0.0397745
7.96141
-0.0278827
7.95926
-0.0157369
7.95867
-0.00346218
7.95839
0.00889355
7.95809
0.0213324
7.95871
0.0338139
7.95793
0.0462101
7.95771
0.0582707
7.95805
0.070242
7.95802
0.0814823
7.95878
0.091248
7.96329
0.0993352
7.97014
0.107921
7.96034
0.123959
7.93786
0.0545044
8.03646
0.0639755
7.33679
8.99821
0.194563
8.79589
0.0695372
7.54687
-0.064327
8.22825
-0.0445233
8.00027
-0.0446153
8.06002
-0.0393658
8.07431
-0.0310795
8.068
-0.0218023
8.06139
-0.0124366
8.05902
-0.00358188
8.05869
0.00490966
8.05848
0.0132593
8.05843
0.0216234
8.05882
0.0300337
8.05806
0.0386021
8.0579
0.0473843
8.05799
0.0566512
8.05809
0.0658667
8.05883
0.07394
8.06377
0.0798842
8.07091
0.0787758
8.0607
0.101679
7.99835
-0.0293883
8.25235
-0.0200323
7.40031
9.03709
0.396733
8.40507
0.16262
7.89227
-0.0201174
8.55135
-0.00855211
8.12046
-0.042741
8.23446
-0.0586205
8.23122
-0.0714534
8.22744
-0.0830265
8.22228
-0.0942315
8.22089
-0.10569
8.22114
-0.117391
8.22132
-0.129358
8.2218
-0.141302
8.22191
-0.153141
8.22106
-0.164871
8.22095
-0.176483
8.2204
-0.187885
8.22031
-0.199554
8.2212
-0.213038
8.22318
-0.230119
8.22802
-0.254749
8.22285
-0.301508
8.17695
-0.412553
8.49409
-0.771367
7.87682
8.24446
1.03565
7.39136
0.658108
8.40693
0.463727
8.89033
0.350473
8.41025
0.289295
8.46512
0.245932
8.43783
0.210941
8.43722
0.17997
8.4384
0.150758
8.43808
0.122119
8.43892
0.0937947
8.43966
0.0657056
8.44043
0.0376288
8.44042
0.00952602
8.43954
-0.0187497
8.4396
-0.0473066
8.43844
-0.0764778
8.43831
-0.107318
8.43847
-0.142525
8.43485
-0.185899
8.43297
-0.256066
8.45543
-0.363143
8.44738
-0.56878
8.83542
-0.919024
8.36634
7.28736
1.07748
6.27818
0.710361
8.58338
0.442159
8.76947
0.252385
8.22642
0.141836
8.29437
0.10034
8.19333
0.0862905
8.17377
0.0827687
8.1764
0.0820568
8.18136
0.0817491
8.18666
0.0816365
8.18996
0.081866
8.1916
0.0819544
8.19213
0.082106
8.19081
0.0821902
8.18978
0.0821528
8.18624
0.0816654
8.1823
0.0786379
8.17676
0.0650135
8.17323
0.0209798
8.18967
-0.0944275
8.27911
-0.264885
8.24476
-0.556188
8.72115
-0.934943
8.54791
6.31039
-2.61345
9.68836
-3.13426
9.49428
-2.71529
8.59192
-2.61778
8.58397
-2.40388
8.63291
-2.10932
8.51544
-1.78518
8.45291
-1.46582
8.44519
-1.15081
8.44637
-0.836759
8.44938
-0.523739
8.45352
-0.211569
8.45631
0.100538
8.45752
0.412487
8.45688
0.725529
8.45568
1.03934
8.45433
1.35442
8.45348
1.67388
8.45222
1.99582
8.46061
2.27718
8.52649
2.46917
8.63049
2.55689
8.58423
2.89067
8.64094
2.26056
9.54806
9.41288
-0.27757
10.9633
-2.89687
12.5177
-3.60019
9.79978
-3.694
9.85622
-3.67568
10.4818
-3.25418
10.015
-2.76393
9.78986
-2.25191
9.70074
-1.72825
9.66451
-1.19822
9.65002
-0.66547
9.6458
-0.132255
9.64521
0.401397
9.64462
0.934355
9.64476
1.46739
9.64467
1.99944
9.64825
2.5247
9.66183
3.03682
9.69603
3.52541
9.78212
3.93605
10.0028
3.94263
10.492
3.78209
9.91805
2.982
9.91699
0.255605
12.3074
10.8044
0.443737
13.4199
0.24899
13.1916
-2.43717
12.5286
-3.89207
11.5831
-4.137
10.7742
-3.91496
10.2848
-3.47346
10.0502
-2.91048
9.92974
-2.2906
9.87077
-1.64318
9.84472
-0.98275
9.83492
-0.317144
9.83194
0.350111
9.83055
1.01544
9.83164
1.6751
9.83396
2.32126
9.84291
2.93925
9.86789
3.50046
9.92521
3.94146
10.0431
4.16325
10.274
3.91351
10.755
2.46121
11.5536
-0.200686
12.5223
-0.461916
13.0237
13.1561
0.799677
14.8738
0.738624
13.9823
-0.616772
13.6208
-2.69109
12.0639
-3.82247
11
-3.96552
10.3437
-3.66617
10.021
-3.15649
9.84586
-2.532
9.75435
-1.8494
9.70993
-1.14005
9.69055
-0.419694
9.68339
0.304061
9.68081
1.02463
9.68366
1.73424
9.69123
2.41765
9.71115
3.04358
9.75651
3.55701
9.85067
3.86251
10.0315
3.72059
10.3702
2.59058
11.0553
0.572507
12.0379
-0.691087
13.6165
-0.654871
13.8764
14.943
1.68556
15.0968
1.65959
14.7235
0.648631
14.2443
-1.50403
12.2564
-3.18348
10.9583
-3.74283
10.16
-3.64384
9.75633
-3.23074
9.55313
-2.66675
9.44929
-2.02816
9.39851
-1.35338
9.37662
-0.663533
9.36895
0.0312303
9.36629
0.720352
9.37035
1.39105
9.38114
2.02015
9.40659
2.56282
9.46295
2.92998
9.57566
2.93683
9.79442
2.19223
10.2286
0.178635
11.1139
-1.95861
12.4556
-2.93405
14.185
-2.61644
14.4489
14.0664
2.49192
13.063
3.9117
13.6566
3.91937
14.066
1.0489
12.8726
-1.07878
11.1606
-2.24226
10.0993
-2.49825
9.54537
-2.29052
9.27323
-1.85074
9.13052
-1.2937
9.06366
-0.680236
9.03462
-0.0421273
9.02344
0.60238
9.02049
1.2399
9.02578
1.8543
9.04086
2.41338
9.07694
2.85689
9.15707
3.07334
9.31771
2.84607
9.606
1.78322
10.1716
-0.358392
11.2678
-2.63496
12.848
-2.84899
14.1051
-1.52569
13.5573
13.1163
0.853626
11.8788
2.14738
11.9959
2.9639
12.6074
0.876526
12.5135
-0.950639
10.97
-2.079
9.81457
-2.39604
9.12453
-2.24127
8.79544
-1.82463
8.57357
-1.27993
8.45976
-0.673144
8.40615
-0.0391411
8.3833
0.603117
8.37739
1.23834
8.38558
1.85054
8.41015
2.40662
8.46905
2.84409
8.59683
3.03665
8.81326
2.81089
9.1352
1.8396
9.80459
0.0330911
10.9197
-1.6447
12.4091
-1.28092
12.9618
-0.184058
12.0312
12.6802
1.58457
9.15823
2.73238
9.58801
4.4287
9.75757
3.17561
11.2934
1.30172
10.2737
-0.112407
9.48084
-0.945855
8.76501
-1.19002
8.21822
-1.12303
7.85423
-0.894472
7.66216
-0.583883
7.56589
-0.236837
7.52314
0.122062
7.51069
0.471681
7.52265
0.78739
7.56406
1.02698
7.65965
1.11381
7.85475
0.903591
8.21498
0.116753
8.75055
-1.27631
9.39386
-3.1161
10.2331
-4.9374
11.6638
-3.25305
9.93749
-2.13998
9.68323
9.25105
2.40933
5.20649
3.24928
6.02854
3.47693
6.47174
4.82874
6.82681
3.48172
8.42747
2.02324
8.14523
0.924387
7.34436
0.254874
6.76078
-0.103111
6.33926
-0.261194
6.0789
-0.308278
5.94496
-0.308661
5.88312
-0.296294
5.86504
-0.297838
5.87996
-0.351284
5.93999
-0.514971
6.06955
-0.881808
6.32006
-1.57755
6.74985
-2.70957
7.33599
-4.22424
8.06369
-5.85522
8.6367
-4.36867
6.89531
-3.9686
6.57773
-2.84427
5.97752
4.92134
2.48111
2.65231
4.44094
3.59532
5.20985
4.34624
5.35015
4.499
5.60756
4.58255
5.02045
4.42028
3.00405
4.0844
1.93343
3.43425
1.27806
3.19201
0.856697
3.0586
0.5518
2.9909
0.300594
2.96057
0.0648132
2.95057
-0.181237
2.95531
-0.47139
2.97947
-0.862269
3.03721
-1.45945
3.15529
-2.41838
3.3772
-4.18256
3.8592
-5.07205
4.3597
-4.825
4.5611
-4.79965
4.51323
-4.07106
4.40108
-2.23774
3.62097
2.62849
1.39296
1.47767
2.65289
2.04394
3.10623
2.44899
3.03386
2.49989
2.74098
2.39828
1.78527
2.08746
1.1001
1.58703
0.663603
1.19846
0.417191
0.996563
0.260134
0.902867
0.140159
0.861053
0.0351229
0.843759
-0.0658497
0.838396
-0.170273
0.841385
-0.288217
0.855748
-0.440499
0.892363
-0.675582
0.976764
-1.08855
1.16192
-1.76029
1.52261
-2.71031
2.02872
-3.04429
2.3528
-3.14964
2.46081
-2.69229
2.42022
-1.39811
2.00312
1.44365
0.265529
0.171045
0.47284
0.256717
0.572356
0.326111
0.532295
0.312813
0.366575
0.250776
0.221507
0.165618
0.116448
0.103987
0.0652625
0.0757428
0.0404299
0.0646106
0.025079
0.0601398
0.0129766
0.0582626
0.00203579
0.0575261
-0.00861691
0.0573266
-0.0195512
0.0575004
-0.031603
0.0581871
-0.0467629
0.0599123
-0.070838
0.0640143
-0.119826
0.0741442
-0.222399
0.0998365
-0.367791
0.15758
-0.525799
0.238743
-0.576898
0.295718
-0.482961
0.308306
-0.275293
0.24416
0.165537
0.0207121
0.0179715
0.0246101
0.0216473
0.0232222
0.0237884
0.0177407
0.0221987
0.011512
0.0190716
0.00695458
0.0160258
0.0051871
0.0147897
0.00461656
0.0146767
0.00393597
0.0147649
0.00294293
0.0148133
0.00177233
0.0148228
0.000539643
0.0148213
-0.000705312
0.0148201
-0.0019342
0.0148212
-0.00309093
0.0148214
-0.00404506
0.0148058
-0.00463441
0.0147399
-0.00501688
0.0146087
-0.00646436
0.0146192
-0.0106027
0.0156342
-0.0162575
0.0183956
-0.021518
0.021191
-0.0232622
0.0226958
-0.0199648
0.0208433
0.0174846
-0.000183708
0.0113676
-0.00200551
0.0109534
-0.00395063
0.0108724
-0.0032388
0.0109475
-0.00112214
0.0119732
0.00102885
0.0130872
0.00260529
0.014001
0.00316077
0.0145462
0.00293776
0.0148018
0.00230202
0.0148988
0.00150546
0.0149276
0.000660752
0.014934
-0.000193412
0.014935
-0.00103762
0.014934
-0.00183223
0.0149272
-0.00246286
0.0148972
-0.00267686
0.0147976
-0.00210941
0.0145365
-0.000517675
0.0139799
0.00168761
0.0130459
0.00378776
0.0118893
0.00447292
0.0108316
0.00244396
0.0107794
0.000462829
0.0108607
0.0113703
-0.00161504
0.0122571
-0.0034405
0.0114118
-0.00470215
0.0115823
-0.00309466
0.0122215
-0.000476444
0.0134675
0.00151834
0.0144637
0.00265109
0.0151407
0.00283673
0.0154832
0.00244071
0.0156186
0.00178851
0.0156609
0.00105241
0.0156713
0.000294469
0.0156739
-0.00046746
0.0156743
-0.00122537
0.0156739
-0.00196138
0.0156712
-0.0026136
0.0156607
-0.00300984
0.015618
-0.0028238
0.0154818
-0.00168799
0.0151381
0.00029483
0.0144587
0.00293975
0.0134607
0.00456521
0.0122227
0.00333535
0.0115592
0.00155073
0.0113719
0.0122348
-0.00184147
0.0131494
-0.00303801
0.0125947
-0.00337768
0.0129933
-0.00143881
0.0136529
0.000947336
0.0147835
0.00258291
0.0155993
0.00323408
0.016102
0.00309289
0.0163283
0.0025396
0.0164076
0.00183311
0.0164295
0.00108367
0.0164344
0.000324289
0.0164354
-0.000436757
0.0164355
-0.00119609
0.0164354
-0.00194532
0.0164344
-0.00265106
0.0164294
-0.00320204
0.0164072
-0.00333768
0.0163268
-0.00267723
0.0160977
-0.00102938
0.0155895
0.00136014
0.0147718
0.00329865
0.013643
0.0029742
0.0129939
0.00179822
0.0126302
0.013145
-0.00212702
0.0139424
-0.00279066
0.013574
-0.00246007
0.0141105
-0.000454673
0.0148192
0.00175608
0.0158554
0.0031
0.0165383
0.00347211
0.0169235
0.003189
0.0170802
0.00260692
0.0171295
0.00192812
0.0171417
0.00122528
0.0171442
0.000517363
0.0171446
-0.000191366
0.0171447
-0.000899321
0.0171446
-0.00160233
0.0171442
-0.0022818
0.0171418
-0.00286627
0.0171299
-0.00315645
0.0170819
-0.0027989
0.0169291
-0.00147767
0.0165538
0.00071977
0.0158811
0.00273173
0.0148617
0.0030102
0.0141414
0.00227375
0.0135831
0.0140177
-0.0025121
0.0146986
-0.00285231
0.0144242
-0.00206534
0.0151316
-9.56219e-05
0.0158975
0.00191507
0.0168219
0.00294131
0.0173867
0.00308098
0.017675
0.00269429
0.017782
0.00209556
0.0178125
0.00143626
0.0178193
0.000763366
0.0178206
8.78296e-05
0.0178208
-0.000588098
0.0178208
-0.00126362
0.0178208
-0.00193643
0.0178205
-0.00259543
0.0178192
-0.00319306
0.0178122
-0.0035756
0.0177809
-0.003424
0.0176713
-0.00237416
0.0173759
-0.000383347
0.0168022
0.00160955
0.0158583
0.00247093
0.0150942
0.00222692
0.0144077
0.0145808
-0.00237709
0.0152379
-0.002275
0.0152247
-0.00102347
0.0160235
0.000871074
0.0168167
0.00262411
0.0176618
0.003402
0.018142
0.00338339
0.0183686
0.00293625
0.018446
0.00233517
0.0184662
0.00169469
0.0184704
0.00104604
0.0184711
0.000395886
0.0184712
-0.000254475
0.0184712
-0.000904616
0.0184712
-0.00155322
0.0184711
-0.00219341
0.0184704
-0.00279317
0.0184661
-0.00323605
0.0184455
-0.00324597
0.0183662
-0.002457
0.0181335
-0.000693687
0.0176418
0.00121684
0.0167782
0.00243029
0.0159907
0.00249794
0.0151961
0.0152365
-0.00243165
0.0158125
-0.00201081
0.0159744
-0.000452053
0.0168272
0.00131959
0.0176018
0.0028837
0.0183921
0.00348971
0.0188115
0.00338888
0.0189962
0.00293694
0.0190543
0.00237009
0.0190683
0.00177618
0.019071
0.00117697
0.0190715
0.000576839
0.0190715
-2.34176e-05
0.0190715
-0.00062356
0.0190715
-0.00122284
0.0190715
-0.00181711
0.0190711
-0.00238546
0.0190686
-0.00284303
0.0190554
-0.00296013
0.0190006
-0.00238774
0.0188275
-0.00084812
0.0184288
0.000944007
0.0176874
0.00240125
0.0168909
0.00273028
0.0160126
0.0159928
-0.00291379
0.0166951
-0.00234195
0.0168198
-0.000746194
0.0177223
0.000907615
0.0184672
0.00224236
0.0191095
0.00265923
0.0194359
0.00248464
0.0195685
0.00203981
0.0196076
0.00151444
0.0196163
0.000971612
0.0196179
0.000425598
0.0196181
-0.00012094
0.0196182
-0.000667547
0.0196182
-0.00121408
0.0196182
-0.00176008
0.0196181
-0.00230282
0.0196179
-0.00282798
0.0196163
-0.00327221
0.0196073
-0.00344282
0.0195671
-0.00300957
0.0194303
-0.00166532
0.0190972
-6.24079e-05
0.0184273
0.0016957
0.0177068
0.00241014
0.016848
0.0165276
-0.00250095
0.0174066
-0.0016022
0.0176773
0.000166376
0.0185273
0.00163314
0.0191869
0.00276378
0.0197298
0.00305046
0.0199879
0.00283011
0.0200869
0.0023983
0.0201143
0.00190932
0.02012
0.00140878
0.020121
0.000906202
0.0201211
0.000403308
0.0201211
-9.96264e-05
0.0201211
-0.000602519
0.0201211
-0.00110508
0.0201211
-0.00160556
0.020121
-0.00209415
0.02012
-0.00252412
0.0201141
-0.00273956
0.0200862
-0.00244691
0.0199849
-0.00130793
0.0197205
0.000129136
0.0191679
0.00188613
0.0184966
0.0027209
0.0176447
0.0173724
-0.00220954
0.0179309
-0.0011749
0.0184134
0.000557101
0.0192001
0.00192527
0.0197885
0.00287952
0.0202801
0.00306042
0.0205001
0.00280085
0.0205805
0.00236928
0.0206013
0.00189423
0.0206054
0.0014108
0.0206061
0.000925942
0.0206062
0.000440871
0.0206062
-4.42254e-05
0.0206062
-0.000529298
0.0206062
-0.00101416
0.0206062
-0.00149768
0.0206061
-0.00197313
0.0206055
-0.00240634
0.0206016
-0.00267177
0.0205819
-0.00250688
0.0205059
-0.00157053
0.0202963
-0.000255468
0.0198359
0.00146397
0.0192309
0.00244614
0.0184303
0.0180674
-0.00253951
0.018766
-0.00151579
0.0191064
0.000172753
0.0198597
0.00136575
0.020399
0.00218301
0.0207881
0.00229599
0.0209594
0.00204061
0.0210187
0.00164941
0.0210333
0.00122605
0.0210361
0.000796829
0.0210365
0.000366667
0.0210365
-6.36345e-05
0.0210366
-0.000493952
0.0210366
-0.000924253
0.0210366
-0.00135441
0.0210365
-0.00178361
0.0210365
-0.00220693
0.021036
-0.00259825
0.0210332
-0.00285382
0.0210184
-0.00273682
0.0209577
-0.0019212
0.020783
-0.000671969
0.0203747
0.00101842
0.0198542
0.00211056
0.0191272
0.0186257
-0.00205583
0.0193276
-0.000950086
0.0197586
0.000683171
0.0204353
0.00180932
0.0209073
0.00250289
0.0212353
0.00256252
0.0213725
0.00230539
0.0214179
0.00194003
0.0214286
0.00155071
0.0214305
0.00115718
0.0214308
0.000762991
0.0214308
0.000368706
0.0214309
-2.55894e-05
0.0214309
-0.000419874
0.0214309
-0.000814064
0.0214308
-0.00120759
0.0214308
-0.00159688
0.0214305
-0.00196198
0.0214286
-0.00221847
0.021418
-0.00216114
0.0213729
-0.00147129
0.0212362
-0.000380512
0.0209114
0.00123533
0.0204434
0.00230732
0.0197668
0.0193711
-0.00169115
0.0196677
-0.000590202
0.0203156
0.000963444
0.020932
0.00198163
0.0213499
0.0025544
0.0216546
0.00255306
0.0217745
0.00227411
0.0218127
0.00190495
0.0218213
0.00151664
0.0218228
0.00112507
0.021823
0.000732994
0.021823
0.000340847
0.021823
-5.13078e-05
0.021823
-0.000443456
0.021823
-0.000835537
0.021823
-0.00122714
0.021823
-0.00161562
0.0218228
-0.0019856
0.0218214
-0.00226776
0.0218134
-0.00227931
0.0217778
-0.00172112
0.0216657
-0.000737738
0.02139
0.000791237
0.0209689
0.00186806
0.0203632
0.0198749
-0.00201887
0.0203668
-0.000986077
0.020841
0.000464154
0.0214049
0.00135114
0.021797
0.00184954
0.0220363
0.00182983
0.0221319
0.00157552
0.0221611
0.00124762
0.0221674
0.000904834
0.0221685
0.000559607
0.0221686
0.000214019
0.0221687
-0.000131617
0.0221687
-0.00047726
0.0221687
-0.000822896
0.0221687
-0.00116848
0.0221687
-0.0015137
0.0221686
-0.00185644
0.0221685
-0.00218428
0.0221674
-0.00243853
0.0221609
-0.00245378
0.0221305
-0.0019528
0.0220314
-0.00101933
0.0217717
0.000463643
0.0213982
0.0015446
0.0208408
0.0201861
-0.00156783
0.0207869
-0.000537679
0.0213245
0.000848531
0.0218217
0.00167885
0.0221671
0.0021084
0.0223709
0.00207577
0.0224487
0.0018404
0.0224715
0.00154555
0.0224763
0.0012392
0.022477
0.000931006
0.0224771
0.000622539
0.0224772
0.000314036
0.0224772
5.52921e-06
0.0224772
-0.000302973
0.0224772
-0.00061144
0.0224772
-0.000919633
0.0224771
-0.00122595
0.022477
-0.00152049
0.0224763
-0.00175446
0.0224715
-0.00178571
0.0224483
-0.00135244
0.0223694
-0.000542253
0.0221646
0.000827433
0.0218165
0.00183618
0.0213113
0.020805
-0.00122121
0.02102
-0.000254287
0.0217415
0.00103793
0.0221961
0.00177666
0.0224976
0.00212406
0.0226909
0.00205684
0.0227597
0.00181161
0.0227793
0.00151608
0.0227832
0.00121108
0.0227838
0.000904584
0.0227839
0.000597869
0.0227839
0.000291127
0.0227839
-1.56192e-05
0.0227839
-0.000322362
0.0227839
-0.000629078
0.0227839
-0.000935589
0.0227839
-0.00124066
0.0227838
-0.00153649
0.0227832
-0.00178293
0.0227795
-0.00185493
0.0227611
-0.00151372
0.0226964
-0.000797969
0.0225245
0.000471157
0.0222108
0.00142835
0.0217712
0.0212115
-0.0015504
0.0216045
-0.000659
0.0221466
0.000506992
0.0225433
0.00114075
0.0228304
0.0014448
0.0229779
0.00137841
0.0230331
0.00116134
0.0230483
0.000902428
0.0230513
0.000635913
0.0230517
0.00036824
0.0230518
0.000100404
0.0230518
-0.000167451
0.0230518
-0.000435309
0.0230518
-0.000703165
0.0230518
-0.000970999
0.0230518
-0.00123867
0.0230518
-0.00150515
0.0230517
-0.00176404
0.0230512
-0.00198129
0.0230481
-0.00204477
0.0230322
-0.00173848
0.0229745
-0.00106367
0.0228078
0.000149331
0.0225374
0.00106256
0.0221306
0.0213958
-0.00113896
0.0219273
-0.000287574
0.0225044
0.000810916
0.0228467
0.0014035
0.0230981
0.00166936
0.0232238
0.00160875
0.0232687
0.00141829
0.0232806
0.00119386
0.0232829
0.000963434
0.0232832
0.000732104
0.0232832
0.000500648
0.0232832
0.000269177
0.0232832
3.77039e-05
0.0232832
-0.000193767
0.0232832
-0.000425223
0.0232832
-0.00065655
0.0232832
-0.000886953
0.0232832
-0.0011112
0.0232828
-0.00130056
0.0232805
-0.00135969
0.0232684
-0.00108985
0.0232224
-0.000513623
0.0230952
0.000565601
0.0228394
0.00140493
0.0224883
0.0219371
-0.000813184
0.0220697
-5.35835e-05
0.0228065
0.000953412
0.0231231
0.00147019
0.0233384
0.00167762
0.023461
0.00159572
0.0235011
0.00140016
0.0235114
0.00117567
0.0235133
0.000946158
0.0235136
0.000715884
0.0235136
0.000485506
0.0235136
0.000255116
0.0235136
2.47238e-05
0.0235136
-0.000205667
0.0235136
-0.000436045
0.0235136
-0.000666325
0.0235136
-0.000895876
0.0235136
-0.00112052
0.0235133
-0.00131665
0.0235115
-0.00140143
0.0235019
-0.00119799
0.0234644
-0.000700587
0.0233597
0.000275962
0.0231307
0.00103956
0.0228353
0.0222594
-0.00115089
0.0225473
-0.00045566
0.0231045
0.000417963
0.0233684
0.000851557
0.0235781
0.00103513
0.0236682
0.000963435
0.0237006
0.00079591
0.0237087
0.000603965
0.0237101
0.000407904
0.0237104
0.000211245
0.0237104
1.45063e-05
0.0237104
-0.000182242
0.0237104
-0.000378991
0.0237104
-0.00057574
0.0237104
-0.000772478
0.0237104
-0.000969134
0.0237104
-0.00116518
0.0237103
-0.00135714
0.0237101
-0.00152511
0.0237086
-0.00159567
0.0237002
-0.00141218
0.0236666
-0.000945938
0.0235613
-3.21102e-05
0.0233692
0.000671641
0.0230901
0.022351
-0.000786863
0.022785
-0.000147117
0.0233577
0.000660972
0.023581
0.00106474
0.0237638
0.00122683
0.0238404
0.0011682
0.0238665
0.00102791
0.0238729
0.000867946
0.023874
0.000704719
0.0238741
0.000541018
0.0238742
0.000377254
0.0238742
0.000213482
0.0238742
4.97096e-05
0.0238742
-0.000114062
0.0238742
-0.000277826
0.0238742
-0.000441526
0.0238742
-0.000604742
0.0238741
-0.000764592
0.023874
-0.00090411
0.0238728
-0.000961519
0.0238662
-0.000796119
0.0238391
-0.000405533
0.0237607
0.000383742
0.0235736
0.0010191
0.0233424
0.0227856
-0.000484674
0.0228539
7.57866e-05
0.0235644
0.000779316
0.0237754
0.00112178
0.0239286
0.00124137
0.0240063
0.00116945
0.0240298
0.00102698
0.0240354
0.000867861
0.0240363
0.000705987
0.0240365
0.000543714
0.0240365
0.000381387
0.0240365
0.000219055
0.0240365
5.67211e-05
0.0240365
-0.000105612
0.0240365
-0.000267939
0.0240365
-0.000430215
0.0240365
-0.000592107
0.0240365
-0.000751308
0.0240363
-0.000893999
0.0240355
-0.000967606
0.0240303
-0.000850428
0.0240083
-0.000524448
0.0239452
0.000167256
0.0237789
0.00072076
0.0235901
0.0230273
-0.000816804
0.0232304
-0.000327303
0.0237683
0.000271505
0.0239365
0.000549162
0.0240897
0.000657591
0.0241442
0.000600675
0.0241634
0.000485226
0.0241678
0.000355656
0.0241686
0.000223822
0.0241687
9.16712e-05
0.0241687
-4.05207e-05
0.0241687
-0.000172717
0.0241687
-0.000304915
0.0241687
-0.000437111
0.0241687
-0.000569303
0.0241687
-0.000701453
0.0241687
-0.000833281
0.0241687
-0.000962886
0.0241686
-0.00107885
0.0241678
-0.00113563
0.0241633
-0.00102877
0.0241438
-0.000726287
0.0240786
-0.000111154
0.023943
0.000390614
0.0237623
0.0230799
-0.000502905
0.0234008
-7.45011e-05
0.023948
0.000460828
0.0240778
0.000714604
0.0242093
0.000808694
0.0242549
0.000764781
0.0242702
0.000672336
0.0242736
0.000568824
0.0242742
0.000463548
0.0242742
0.000358022
0.0242742
0.000252464
0.0242742
0.000146902
0.0242742
4.13391e-05
0.0242742
-6.4223e-05
0.0242742
-0.000169781
0.0242742
-0.000275306
0.0242742
-0.000380576
0.0242742
-0.000484021
0.0242742
-0.000575954
0.0242736
-0.000618871
0.02427
-0.000521859
0.0242541
-0.000276317
0.0242067
0.000247186
0.0240754
0.000678834
0.023939
0.0234089
-0.000225911
0.0234868
0.00012769
0.02418
0.000562341
0.0242204
0.000770481
0.0243176
0.000834602
0.0243608
0.000783554
0.0243734
0.000691892
0.0243762
0.00059112
0.0243766
0.00048889
0.0243767
0.000386451
0.0243767
0.000283985
0.0243767
0.000181516
0.0243767
7.90466e-05
0.0243767
-2.34225e-05
0.0243767
-0.000125889
0.0243767
-0.000228329
0.0243767
-0.000330568
0.0243767
-0.000431366
0.0243767
-0.000522985
0.0243762
-0.000574537
0.0243737
-0.000510075
0.0243622
-0.000313335
0.0243317
0.000125115
0.0242275
0.000476365
0.0241952
0.0236496
-0.000535198
0.0241823
-0.000301576
0.0246496
7.36963e-05
0.0243992
0.000250827
0.0244592
0.000316786
0.024447
0.000283528
0.0244514
0.000216771
0.0244525
0.000142124
0.0244527
6.62581e-05
0.0244528
-9.77289e-06
0.0244528
-8.58247e-05
0.0244528
-0.000161879
0.0244528
-0.000237933
0.0244528
-0.000313987
0.0244528
-0.000390039
0.0244528
-0.000466069
0.0244528
-0.000541931
0.0244528
-0.000616607
0.0244527
-0.000683775
0.0244525
-0.000716651
0.0244516
-0.000650038
0.0244477
-0.000449278
0.0244523
-5.81401e-05
0.024406
0.000191537
0.0246895
0.0240159
-0.000366961
0.0246819
-0.000262727
0.0252942
0.000108316
0.0246566
0.00032509
0.0246116
0.000404972
0.0245321
0.00038862
0.024516
0.000338569
0.024512
0.000281172
0.0245115
0.000222666
0.0245115
0.000164011
0.0245114
0.000105338
0.0245114
4.66617e-05
0.0245114
-1.20143e-05
0.0245114
-7.06902e-05
0.0245114
-0.000129364
0.0245114
-0.000188018
0.0245114
-0.000246514
0.0245115
-0.000303839
0.0245115
-0.000353403
0.024512
-0.000367921
0.0245156
-0.00028336
0.0245292
-6.49138e-05
0.0246081
0.000314328
0.0246321
0.000418376
0.0252454
0.0246131
-0.000422435
0.0249667
-0.000458854
0.0258544
-2.79322e-05
0.0248327
0.000290623
0.0247481
0.000405451
0.024598
0.000405948
0.0245742
0.000361949
0.0245677
0.000308316
0.0245668
0.000253253
0.0245667
0.000198003
0.0245667
0.00014273
0.0245667
8.74544e-05
0.0245667
3.21783e-05
0.0245667
-2.30974e-05
0.0245667
-7.83706e-05
0.0245667
-0.00013362
0.0245667
-0.000188677
0.0245667
-0.000242226
0.0245668
-0.000285633
0.0245675
-0.000283349
0.0245733
-0.000167479
0.0245962
0.000145473
0.0247438
0.000580409
0.0248094
0.000516204
0.0258137
0.0249265
-0.00677113
0.0413948
-0.0108494
0.0499679
-0.0130474
0.0549315
-0.0133249
0.055736
-0.0129612
0.0559361
-0.0124604
0.0559635
-0.0119427
0.055966
-0.0114236
0.0559662
-0.0109043
0.0559662
-0.0103851
0.0559662
-0.00986583
0.0559662
-0.00934658
0.0559662
-0.00882732
0.0559662
-0.00830807
0.0559662
-0.00778881
0.0559662
-0.00726956
0.0559662
-0.00675031
0.0559662
-0.00623105
0.0559662
-0.0057118
0.0559662
-0.00519254
0.0559662
-0.00467329
0.0559662
-0.00415403
0.0559662
-0.00363478
0.0559662
-0.00311552
0.0559662
-0.00259623
0.0559662
-0.00207641
0.0559662
-0.00155039
0.0559649
-0.0010108
0.0559571
-0.00019211
0.0557815
0.0560353
-0.00843303
0.0494875
-0.0126729
0.0509923
-0.0149126
0.054942
-0.0151055
0.0552757
-0.0146686
0.0553672
-0.014098
0.0553777
-0.0135119
0.0553787
-0.0129245
0.0553788
-0.012337
0.0553788
-0.0117495
0.0553788
-0.011162
0.0553788
-0.0105746
0.0553788
-0.0099871
0.0553788
-0.00939962
0.0553788
-0.00881214
0.0553788
-0.00822467
0.0553788
-0.00763719
0.0553788
-0.00704972
0.0553788
-0.00646224
0.0553788
-0.00587476
0.0553788
-0.00528729
0.0553788
-0.00469981
0.0553788
-0.00411233
0.0553788
-0.00352485
0.0553788
-0.00293735
0.0553788
-0.00234947
0.0553787
-0.00175796
0.055378
-0.00115436
0.0553649
-0.000612011
0.0553175
0.0553217
-0.0067829
0.0538732
-0.0102851
0.051119
-0.0125087
0.0547484
-0.0126743
0.054806
-0.0122983
0.0548743
-0.0118174
0.054885
-0.0113258
0.0548862
-0.0108334
0.0548863
-0.010341
0.0548863
-0.00984855
0.0548863
-0.00935613
0.0548863
-0.0088637
0.0548863
-0.00837127
0.0548863
-0.00787884
0.0548863
-0.00738641
0.0548863
-0.00689399
0.0548863
-0.00640156
0.0548863
-0.00590913
0.0548863
-0.0054167
0.0548863
-0.00492428
0.0548863
-0.00443185
0.0548863
-0.00393942
0.0548863
-0.00344699
0.0548863
-0.00295457
0.0548863
-0.00246213
0.0548863
-0.00196956
0.0548863
-0.00147586
0.0548861
-0.0009793
0.0548844
-0.000498898
0.054875
0.0547696
-0.0053745
0.0555101
-0.00845422
0.0509433
-0.0105869
0.054232
-0.0107509
0.0543553
-0.0104266
0.0544554
-0.0100175
0.0544677
-0.00960063
0.0544688
-0.00918325
0.0544689
-0.00876583
0.0544689
-0.00834841
0.0544689
-0.00793099
0.0544689
-0.00751357
0.0544689
-0.00709615
0.0544689
-0.00667873
0.0544689
-0.00626131
0.0544689
-0.00584389
0.0544689
-0.00542647
0.0544689
-0.00500905
0.0544689
-0.00459162
0.0544689
-0.0041742
0.0544689
-0.00375678
0.0544689
-0.00333936
0.0544689
-0.00292194
0.0544689
-0.00250452
0.0544689
-0.0020871
0.0544689
-0.00166961
0.0544689
-0.00125168
0.0544689
-0.000832947
0.0544686
-0.00041678
0.0544662
0.0543417
-0.00527916
0.0537651
-0.00815971
0.0509107
-0.010118
0.0538093
-0.0102548
0.053968
-0.00994074
0.0540597
-0.00955049
0.05407
-0.00915309
0.0540709
-0.00875517
0.0540709
-0.00835721
0.0540709
-0.00795925
0.0540709
-0.00756128
0.0540709
-0.00716332
0.0540709
-0.00676536
0.0540709
-0.0063674
0.0540709
-0.00596944
0.0540709
-0.00557147
0.0540709
-0.00517351
0.0540709
-0.00477555
0.0540709
-0.00437759
0.0540709
-0.00397962
0.0540709
-0.00358166
0.0540709
-0.0031837
0.0540709
-0.00278574
0.0540709
-0.00238777
0.0540709
-0.00198981
0.0540709
-0.00159179
0.0540709
-0.0011934
0.0540709
-0.000794491
0.0540708
-0.00039659
0.0540694
0.0539423
-0.00515905
0.053302
-0.00786377
0.0511332
-0.0096889
0.0534756
-0.0098133
0.053614
-0.0095106
0.0536818
-0.00913703
0.0536895
-0.00875682
0.0536902
-0.00837612
0.0536902
-0.00799539
0.0536902
-0.00761466
0.0536902
-0.00723392
0.0536902
-0.00685319
0.0536902
-0.00647246
0.0536902
-0.00609172
0.0536902
-0.00571099
0.0536902
-0.00533026
0.0536902
-0.00494953
0.0536902
-0.00456879
0.0536902
-0.00418806
0.0536902
-0.00380733
0.0536902
-0.0034266
0.0536902
-0.00304586
0.0536902
-0.00266513
0.0536902
-0.0022844
0.0536902
-0.00190366
0.0536902
-0.00152287
0.0536902
-0.00114174
0.0536902
-0.000760138
0.0536901
-0.000379382
0.0536888
0.0535612
-0.00488372
0.0535047
-0.00740421
0.0513036
-0.00910884
0.053174
-0.0092189
0.0532756
-0.00893217
0.0533263
-0.00858092
0.0533321
-0.00822382
0.0533326
-0.00786629
0.0533327
-0.00750873
0.0533327
-0.00715117
0.0533327
-0.00679362
0.0533327
-0.00643606
0.0533327
-0.0060785
0.0533327
-0.00572094
0.0533327
-0.00536338
0.0533327
-0.00500582
0.0533327
-0.00464826
0.0533327
-0.0042907
0.0533327
-0.00393315
0.0533327
-0.00357559
0.0533327
-0.00321803
0.0533327
-0.00286047
0.0533327
-0.00250291
0.0533327
-0.00214535
0.0533327
-0.00178779
0.0533327
-0.00143018
0.0533327
-0.00107225
0.0533326
-0.00071388
0.0533325
-0.000356328
0.0533312
0.0532035
-0.0044594
0.0536113
-0.00675808
0.0513032
-0.00833244
0.0528885
-0.00842877
0.0529556
-0.00816432
0.0530005
-0.00784289
0.0530054
-0.00751647
0.0530058
-0.00718969
0.0530059
-0.00686289
0.0530059
-0.00653609
0.0530059
-0.00620928
0.0530059