/*--------------------------------*- C++ -*----------------------------------*\
| =========                 |                                                 |
| \\      /  F ield         | OpenFOAM: The Open Source CFD Toolbox           |
|  \\    /   O peration     | Version:  2112                                  |
|   \\  /    A nd           | Website:  www.openfoam.com                      |
|    \\/     M anipulation  |                                                 |
\*---------------------------------------------------------------------------*/
FoamFile
{
    version     2.0;
    format      ascii;
    arch        "LSB;label=32;scalar=64";
    class       volVectorField;
    location    "0.00021";
    object      U;
}
// * * * * * * * * * * * * * * * * * * * * * * * * * * * * * * * * * * * * * //

dimensions      [0 1 -1 0 0 0 0];

internalField   nonuniform List<vector> 
13875
(
(2205.63 110.572 1.8141e-18)
(2141.38 9.0748 -9.38711e-19)
(2165.58 -3.96002 -9.47388e-19)
(2166.69 0.666039 0)
(2164.78 0.232669 0)
(2165.17 0.0797062 9.44095e-19)
(2164.99 0.0674146 -9.44608e-19)
(2164.94 0.00639395 -4.72485e-19)
(2164.98 -0.0375021 4.7209e-19)
(2165.06 -0.00976267 0)
(2164.98 0.0185686 -3.91926e-22)
(2164.95 9.31556e-06 -3.91943e-22)
(2164.96 -0.0156542 0)
(2164.97 -0.0303991 -4.7213e-19)
(2165.02 -0.0587474 4.72509e-19)
(2165.24 -0.00344293 0)
(2165.05 0.0583911 9.44863e-19)
(2164.98 0.0122628 -9.45233e-19)
(2165.01 -0.0513586 3.91818e-22)
(2165.16 -0.109246 -3.91715e-22)
(2164.93 -0.285156 -9.43429e-19)
(2166.81 -0.735184 9.41914e-19)
(2165.77 3.7306 -1.89292e-18)
(2141.08 -8.54565 1.92763e-18)
(2201.42 -116.109 1.79654e-18)
(2243.42 97.4113 -1.65447e-18)
(2223.36 -3.51655 1.92353e-18)
(2235.78 2.51565 8.43384e-19)
(2238.48 -0.501243 -8.4099e-19)
(2237.53 -0.0690633 4.11426e-22)
(2238.01 -0.108765 4.99323e-22)
(2237.94 0.00794983 4.1141e-22)
(2237.94 0.0055557 -4.21018e-19)
(2237.94 -0.0258631 4.21046e-19)
(2237.98 -0.0196009 2.10079e-19)
(2237.97 0.00134989 -1.57389e-19)
(2237.94 -0.00939641 -5.13099e-20)
(2237.97 -0.0193127 0)
(2237.96 -0.0238034 -4.21463e-19)
(2237.98 -0.050497 4.2052e-19)
(2238.08 -0.0189605 4.20796e-19)
(2238.02 0.0159185 -4.20802e-19)
(2238.02 -0.0148043 4.99476e-22)
(2238.03 -0.00668745 -4.99414e-22)
(2238.07 0.096099 4.99204e-22)
(2237.62 0.0976492 -8.41665e-19)
(2238.5 0.684265 2.52337e-18)
(2235.79 -1.99134 -1.68493e-18)
(2223.73 4.68592 5.42925e-22)
(2243.18 -83.336 -1.71141e-18)
(2248.39 71.9051 0)
(2225.09 -15.2024 0)
(2234.48 5.38282 0)
(2237.15 -0.610226 0)
(2236.59 -0.0205941 -1.6825e-18)
(2237.11 -0.13777 1.6768e-18)
(2237.04 -0.0333966 1.67761e-18)
(2237.04 -0.027984 -2.51869e-18)
(2237.03 -0.0487086 8.40896e-19)
(2237.06 -0.0405754 4.10356e-22)
(2237.05 -0.0155754 -4.2054e-19)
(2237.02 -0.0190217 4.20645e-19)
(2237.06 -0.0224824 0)
(2237.05 -0.0194821 0)
(2237.07 -0.0421727 4.10548e-22)
(2237.16 -0.0161673 0)
(2237.11 0.00812976 8.22913e-22)
(2237.12 -0.0298891 4.20231e-19)
(2237.14 -0.032204 -4.19941e-19)
(2237.18 0.0582793 0)
(2236.67 0.0577096 0)
(2237.17 0.867879 0)
(2234.58 -4.28862 0)
(2224.7 15.9904 0)
(2234.92 -71.5036 0)
(2226.21 47.3946 0)
(2221.43 -35.4283 1.83189e-18)
(2230.49 6.36235 -3.51042e-18)
(2235.14 -2.08898 3.52739e-18)
(2234.6 -0.124101 -1.75461e-18)
(2235.11 0.103541 0)
(2235.08 0.292558 -8.54571e-22)
(2235.11 0.251792 0)
(2235.1 0.140655 0)
(2235.12 0.0610505 0)
(2235.12 0.0326873 0)
(2235.09 0.00546602 -8.60577e-22)
(2235.14 -0.0128312 -5.51968e-20)
(2235.12 -0.0283287 5.52025e-20)
(2235.13 -0.0730851 0)
(2235.2 -0.0888217 0)
(2235.18 -0.125694 8.71824e-22)
(2235.2 -0.210325 -8.83432e-19)
(2235.2 -0.215782 8.79089e-19)
(2235.23 -0.00220728 -1.75375e-18)
(2234.66 0.200702 1.75257e-18)
(2235.16 2.48224 1.76606e-18)
(2230.81 -6.84343 -1.77225e-18)
(2221.46 38.7116 0)
(2231.05 -46.5652 0)
(2226.99 33.8161 1.77241e-18)
(2215.19 -47.0501 0)
(2225.52 11.4124 0)
(2231.3 -4.94079 0)
(2230.73 -1.91608 0)
(2231.3 -1.44983 1.73211e-21)
(2231.33 -0.795922 1.74053e-21)
(2231.36 -0.408277 4.44986e-19)
(2231.31 -0.21005 -4.42348e-19)
(2231.3 -0.119129 2.20272e-19)
(2231.3 -0.0618589 -2.23781e-19)
(2231.28 -0.0346452 0)
(2231.32 -0.0157222 0)
(2231.29 -0.000747804 -1.75e-21)
(2231.3 -0.0023084 0)
(2231.34 0.0486343 -1.7501e-21)
(2231.35 0.148631 8.846e-19)
(2231.41 0.330183 -8.83759e-19)
(2231.42 0.716165 1.77084e-18)
(2231.42 1.38309 -1.76061e-18)
(2230.73 2.14859 1.73031e-21)
(2231.28 5.31429 0)
(2225.49 -7.76231 0)
(2216.02 49.8076 0)
(2221.46 -23.763 0)
(2192.36 -5.12808 0)
(2202.04 -71.2539 9.32138e-19)
(2216.35 11.2166 -8.86462e-19)
(2223.24 -5.20832 0)
(2223.64 -0.0415938 8.85738e-19)
(2224.18 0.355692 -4.46055e-19)
(2224.12 0.538546 -2.05111e-21)
(2224.03 0.422049 -2.24826e-19)
(2223.92 0.227982 -4.47856e-19)
(2223.88 0.0864948 1.6904e-19)
(2223.86 0.0300833 1.73361e-21)
(2223.85 0.00536833 2.77006e-19)
(2223.87 -0.00501984 -2.22984e-19)
(2223.85 -0.0149129 3.49968e-21)
(2223.85 -0.0558015 -4.46054e-19)
(2223.88 -0.114548 4.47771e-19)
(2223.92 -0.233972 1.72658e-21)
(2224.01 -0.412579 -1.72625e-21)
(2224.14 -0.501471 -1.72194e-21)
(2224.24 -0.284123 -8.88014e-19)
(2223.58 -0.00182669 8.81852e-19)
(2223.2 6.09726 0)
(2215.83 -14.6403 0)
(2203.18 70.2778 -1.97102e-18)
(2209.47 -24.2165 -1.09407e-19)
(2212.88 -16.1954 -5.18741e-20)
(2178.21 -82.1612 6.15476e-20)
(2195.7 12.2237 0)
(2207.3 -9.6372 -2.89738e-23)
(2208.68 -0.325808 -2.86158e-23)
(2209.45 -0.0978998 0)
(2209.43 0.35386 0)
(2209.39 0.364367 -8.97465e-19)
(2209.39 0.243107 8.98493e-19)
(2209.41 0.120653 0)
(2209.42 0.0497588 1.79591e-18)
(2209.43 0.0113896 1.54868e-21)
(2209.44 -0.0168403 -1.79601e-18)
(2209.42 -0.0519809 -1.75192e-21)
(2209.41 -0.116414 0)
(2209.39 -0.190509 3.59315e-18)
(2209.38 -0.294078 2.14268e-21)
(2209.37 -0.417212 -7.17923e-18)
(2209.42 -0.396778 3.58825e-18)
(2209.44 0.052521 2.8492e-23)
(2208.59 0.98517 0)
(2206.43 8.97282 3.67653e-18)
(2195.49 -10.9977 -3.55643e-18)
(2177.63 77.9698 3.93611e-18)
(2187.14 23.6479 -3.44319e-18)
(2092.41 -56.3418 -2.4549e-19)
(2121.55 -91.7827 -8.09883e-18)
(2157.51 -12.0571 1.04933e-21)
(2171.03 -19.9413 2.67216e-23)
(2175.91 -6.02443 -9.50641e-22)
(2177.56 -3.3923 0)
(2178.04 -1.57377 -3.64063e-18)
(2178.34 -0.773651 3.65158e-18)
(2178.6 -0.433921 0)
(2178.79 -0.257595 -9.58569e-22)
(2178.9 -0.136828 -9.5806e-22)
(2178.95 -0.0585981 0)
(2178.98 0.00169455 0)
(2178.95 0.0690952 -1.88878e-21)
(2178.88 0.147924 -9.58049e-22)
(2178.76 0.264323 2.68467e-23)
(2178.57 0.446666 -9.8623e-22)
(2178.31 0.785454 -2.68374e-23)
(2178.02 1.62847 -1.83031e-18)
(2177.53 3.56308 -2.17147e-20)
(2175.76 7.31427 1.81559e-18)
(2170.57 21.2112 1.03336e-21)
(2156.35 14.9864 3.82887e-18)
(2117.9 94.2948 -3.86405e-18)
(2070.27 58.5453 2.82564e-23)
(1687.88 -103.083 1.25235e-18)
(1944.36 -122.981 0)
(2050.83 -59.2779 -9.3398e-22)
(2082.16 -46.064 -1.01611e-18)
(2096.34 -16.7547 2.05453e-18)
(2101.33 -6.42865 -2.02532e-18)
(2103.65 -2.20615 1.16524e-20)
(2105.11 -0.902747 1.00314e-18)
(2106.2 -0.539562 0)
(2106.96 -0.37686 -9.93954e-19)
(2107.41 -0.228179 9.96998e-19)
(2107.62 -0.11018 0)
(2107.69 -0.0247086 0)
(2107.61 0.0624547 2.37423e-21)
(2107.38 0.172639 9.06858e-22)
(2106.91 0.314482 9.97399e-19)
(2106.15 0.469979 -9.95348e-19)
(2105.07 0.813784 0)
(2103.61 2.12609 1.01052e-18)
(2101.19 6.43001 -2.02573e-18)
(2095.82 17.5677 1.00385e-18)
(2081.06 46.7461 -9.26949e-22)
(2046.43 62.2659 0)
(1934.3 127.984 0)
(1665.66 107.915 0)
(1204.11 -180.838 -1.16917e-16)
(1652.33 -198.831 1.34133e-16)
(1809.94 -102.028 0)
(1860.49 -48.5405 -4.31948e-17)
(1886.07 -13.6729 4.546e-17)
(1893.81 -2.91984 0)
(1899.03 -0.846734 -5.28079e-20)
(1903.54 -0.797643 -2.10841e-17)
(1907.12 -0.83122 2.10896e-17)
(1909.63 -0.614776 -5.20304e-20)
(1911.07 -0.340469 0)
(1911.72 -0.153787 -5.23154e-18)
(1911.9 -0.00398899 7.79875e-18)
(1911.6 0.177966 -2.66934e-18)
(1910.8 0.423619 -5.13122e-20)
(1909.2 0.70198 0)
(1906.57 0.89255 0)
(1902.87 0.850083 -4.24484e-17)
(1898.23 1.01743 4.2164e-17)
(1892.59 3.69653 -4.3665e-17)
(1883.79 16.699 4.23319e-17)
(1856.67 55.7602 5.01952e-17)
(1797.27 116.316 -4.47984e-17)
(1621.94 214.248 -1.34848e-16)
(1147.89 193.163 -1.86375e-17)
(743.463 -393.134 -1.2282e-16)
(1029.29 -450.097 1.79739e-16)
(1254.52 -221.555 0)
(1398.9 -94.5275 1.07305e-16)
(1491.01 -37.4345 -1.15818e-16)
(1537.29 -19.9658 -5.22475e-17)
(1563.53 -13.0427 5.27954e-17)
(1579.04 -9.06006 -5.17149e-17)
(1588.17 -6.18019 5.19504e-17)
(1593.49 -3.93642 4.26155e-20)
(1596.44 -2.19709 0)
(1597.88 -0.963665 -3.22337e-18)
(1598.33 0.00506448 3.26826e-18)
(1597.93 0.98572 4.26404e-20)
(1596.58 2.24286 4.26835e-20)
(1593.77 3.96435 5.82698e-20)
(1588.6 6.11939 0)
(1579.64 8.89537 0)
(1564.28 12.8936 -1.06064e-16)
(1538.16 20.1016 1.05144e-16)
(1491.1 39.0851 -1.16921e-16)
(1397.44 99.5294 2.4083e-16)
(1240.91 242.057 -1.13088e-16)
(1012.48 468.922 -5.37804e-20)
(728.793 421.896 7.87137e-20)
(785.476 -446.642 -1.46611e-16)
(863.836 -559.477 2.16532e-17)
(971.257 -447.234 2.93315e-16)
(1139.15 -300.878 -1.59226e-16)
(1290.22 -173.939 0)
(1386.22 -92.1466 1.18323e-16)
(1437.01 -48.1018 -1.24437e-16)
(1462.19 -25.8603 0)
(1474.73 -14.3104 5.01331e-20)
(1481.06 -7.96454 0)
(1484.27 -4.2103 0)
(1485.79 -1.8278 0)
(1486.27 -0.0277195 7.19091e-18)
(1485.88 1.7487 -7.18846e-18)
(1484.48 4.07859 -5.93168e-20)
(1481.4 7.76833 -5.00406e-20)
(1475.18 14.0256 0)
(1462.74 25.4572 0)
(1437.62 47.5432 0)
(1386.93 91.4165 -1.3396e-16)
(1290.51 174.09 2.69024e-16)
(1139.28 302.79 -1.24561e-16)
(971.963 447.795 -1.63447e-16)
(866.713 561.809 1.34627e-16)
(791.866 456.883 -7.20252e-20)
(890.373 -552.336 1.56453e-16)
(926.231 -601.236 0)
(996.393 -542.105 0)
(1100.58 -444.067 -1.33903e-16)
(1237.06 -285.179 1.64385e-16)
(1341.79 -155.632 0)
(1400.24 -79.8257 1.6258e-20)
(1428.83 -41.068 6.16444e-17)
(1442.55 -21.5438 -6.27669e-17)
(1449.15 -11.4562 0)
(1452.33 -5.89933 -1.53082e-17)
(1453.77 -2.53941 1.53488e-17)
(1454.19 -0.0556919 -7.65528e-18)
(1453.79 2.40824 7.66457e-18)
(1452.35 5.71608 5.69507e-20)
(1449.13 11.1953 -6.18505e-17)
(1442.42 21.1543 1.23977e-16)
(1428.47 40.4127 2.91355e-18)
(1399.43 78.5788 -6.20997e-17)
(1340.31 153.104 -1.48327e-16)
(1235.03 280.43 1.29721e-16)
(1099.59 437.829 8.52181e-20)
(998.221 531.037 1.90516e-20)
(926.943 587.602 1.57254e-16)
(896.012 540.155 1.41279e-18)
(973.347 -606.15 0)
(983.794 -640.716 0)
(1034.3 -583.418 0)
(1109.12 -496.468 0)
(1219.02 -342.83 0)
(1314.85 -198.731 1.31208e-16)
(1374.04 -103.899 -1.42901e-16)
(1403.75 -53.4115 1.27222e-19)
(1417.81 -27.7615 -1.51624e-20)
(1424.38 -14.5095 3.14651e-17)
(1427.43 -7.3086 -3.17398e-17)
(1428.77 -3.03619 -2.6053e-19)
(1429.15 0.11043 -9.80723e-19)
(1428.77 3.31409 1.08662e-18)
(1427.43 7.76865 -3.15174e-17)
(1424.35 15.3652 3.13044e-17)
(1417.72 29.4716 1.08926e-19)
(1403.49 56.9421 0)
(1373.33 111.018 0)
(1313.52 211.147 0)
(1218.8 356.564 -1.6584e-16)
(1110.68 507.404 -3.01563e-17)
(1035.29 592.618 1.4475e-16)
(985.662 636.279 1.96296e-20)
(973.842 586.704 1.89685e-20)
(1056.2 -603.273 0)
(1040.09 -627.123 3.75208e-20)
(1070.66 -606.096 0)
(1126.38 -537.746 -1.38634e-16)
(1210.83 -391.781 2.96966e-16)
(1292.09 -239.986 -1.58444e-16)
(1346.23 -129.121 0)
(1374.17 -66.3073 -1.26239e-19)
(1387.13 -33.8936 0)
(1392.97 -17.3558 0)
(1395.58 -8.61777 -1.55599e-17)
(1396.68 -3.58085 1.59777e-17)
(1396.98 0.037795 1.574e-17)
(1396.65 3.6862 -1.58591e-17)
(1395.52 8.81054 0)
(1392.86 17.7052 -6.41528e-17)
(1386.96 34.5157 6.32859e-17)
(1373.93 67.421 6.82342e-17)
(1345.92 131.138 -6.50773e-17)
(1291.52 243.421 0)
(1210.56 393.993 0)
(1128.03 537.629 -1.50848e-19)
(1072.34 609.705 -1.62126e-16)
(1044.09 632.779 3.28075e-16)
(1059.63 595.059 -1.60973e-16)
(1191.54 -582.402 -1.70476e-16)
(1131.11 -599.875 1.66895e-16)
(1130.03 -580.748 0)
(1153.22 -522.444 -1.41018e-16)
(1212.37 -391.453 2.82636e-17)
(1274.35 -249.873 2.32368e-16)
(1320.45 -137.862 -1.42958e-16)
(1346.06 -71.4511 7.08533e-17)
(1358.46 -36.6261 0)
(1364.17 -18.7867 0)
(1366.76 -9.32763 -3.22725e-20)
(1367.86 -3.89258 9.52584e-20)
(1368.18 -0.0552505 0)
(1367.9 3.72428 0)
(1366.85 8.96976 3.31494e-17)
(1364.36 18.0245 -3.29719e-17)
(1358.86 35.0746 -6.83436e-17)
(1346.86 68.4659 1.37749e-16)
(1321.89 132.475 8.04962e-18)
(1276.57 241.536 -6.92493e-17)
(1215.2 383.426 0)
(1155.05 516.257 0)
(1128.05 580.447 -1.6498e-16)
(1125.23 606.737 1.7492e-16)
(1180.32 589.084 -4.35376e-20)
(1381.97 -528.15 1.63582e-16)
(1316.09 -487.069 -9.44057e-20)
(1246.97 -497.762 7.98602e-17)
(1207.82 -475.659 -7.86403e-17)
(1222.08 -381.826 -3.24219e-20)
(1262.5 -259.838 7.1636e-20)
(1295.67 -152.348 6.59712e-17)
(1315.21 -82.6131 -1.02018e-16)
(1325.14 -43.3297 3.34377e-17)
(1330.03 -22.2408 0)
(1332.32 -10.9277 -1.59646e-17)
(1333.33 -4.51844 1.60056e-17)
(1333.65 -0.121824 0)
(1333.44 4.18073 2.9236e-20)
(1332.55 10.2777 -1.6086e-17)
(1330.46 20.9237 1.6007e-17)
(1325.99 40.7052 0)
(1316.8 77.6328 -6.90011e-17)
(1298.34 144.209 6.56801e-17)
(1266.4 248.607 7.77591e-17)
(1225.06 373.79 -1.42614e-16)
(1207.01 474.364 6.98438e-17)
(1240.97 505.86 0)
(1307.39 505.139 1.61624e-16)
(1368.51 544.481 -9.18746e-18)
(1586.77 -465.527 -4.6177e-18)
(1464.23 -346.568 8.10365e-17)
(1343.1 -326.82 -3.86128e-17)
(1258.92 -349.288 -3.82147e-17)
(1217.61 -331.111 5.34301e-17)
(1213.11 -262.065 -3.53986e-17)
(1227.02 -171.135 3.43097e-17)
(1238 -98.9987 -3.29904e-17)
(1244.29 -53.3148 6.79044e-19)
(1247.31 -27.3299 1.59267e-17)
(1248.57 -13.1565 7.71848e-18)
(1249.1 -5.29427 -6.58107e-20)
(1249.29 -0.00706268 -7.75644e-18)
(1249.25 5.30369 -2.95534e-20)
(1248.87 13.2068 -3.56427e-20)
(1247.85 27.3451 -9.9499e-19)
(1245.27 53.3831 -4.55028e-20)
(1239.64 99.0289 3.12782e-18)
(1229.89 170.329 -2.01999e-18)
(1217.94 259.155 0)
(1223.16 328.819 9.25864e-18)
(1261.69 351.865 -2.8113e-17)
(1345.96 322.676 4.05841e-17)
(1471.16 343.838 -5.88049e-17)
(1588.91 473.806 6.50988e-17)
(1505.77 -208.589 -1.05403e-19)
(1390.02 -205.845 -1.05497e-19)
(1278.62 -229.834 1.09834e-19)
(1205.76 -253.333 -6.4558e-21)
(1141.94 -258.2 -9.43265e-20)
(1078.59 -235.043 -1.01119e-19)
(1036.71 -183.843 -4.89148e-21)
(1011.29 -113.981 0)
(994.831 -59.5897 0)
(984.96 -29.0164 2.82093e-17)
(979.605 -13.2554 -2.87694e-17)
(977.106 -5.11862 -4.55102e-21)
(976.288 -0.209196 4.54594e-21)
(976.712 4.58275 -3.60043e-18)
(978.729 12.1845 3.5027e-18)
(983.455 26.7165 0)
(992.563 55.0261 0)
(1008.34 105.87 -3.3924e-17)
(1033.72 175.649 3.07512e-17)
(1074.7 230.191 -9.39714e-20)
(1138.07 255.117 0)
(1199.77 253.868 0)
(1271.31 230.687 -1.1257e-19)
(1377.09 205.917 -1.09578e-19)
(1469.33 204.978 1.47641e-16)
(695.017 -25.9687 -1.00263e-16)
(829.349 -73.0985 -1.1286e-16)
(864.985 -126.79 9.54057e-17)
(845.694 -159.948 0)
(792.258 -167.485 1.74814e-19)
(695.001 -148.85 4.67393e-17)
(589.448 -105.147 -9.18356e-17)
(513.208 -56.9472 4.38982e-17)
(473.238 -26.7096 -3.46524e-17)
(454.304 -11.968 3.55849e-17)
(445.683 -5.11558 8.30555e-18)
(442.068 -1.79638 -1.04222e-17)
(440.927 0.103675 -2.07432e-18)
(441.521 1.95643 4.25581e-18)
(444.485 5.05348 0)
(452.038 11.357 0)
(469.222 24.837 3.79583e-17)
(506.26 52.586 -7.95228e-17)
(578.531 98.9198 4.03146e-17)
(684.189 143.27 1.78227e-19)
(782.949 162.8 1.06962e-16)
(833.659 156.607 -2.35346e-18)
(852.442 126.469 -2.97728e-16)
(810.407 73.2889 3.13751e-16)
(681.615 26.2555 -1.17091e-16)
(193.949 9.39592 1.26369e-20)
(250.122 0.581364 -4.50395e-17)
(289.201 -21.1339 4.29728e-17)
(285.179 -36.3272 0)
(254.614 -40.9753 0)
(199.401 -32.8033 0)
(144.106 -18.2644 0)
(111.614 -7.60194 0)
(96.9624 -2.95549 -6.06426e-18)
(90.6731 -1.20282 1.21499e-17)
(87.9546 -0.489888 -8.98572e-18)
(86.8703 -0.155758 3.32715e-18)
(86.5648 0.0346311 -3.7232e-19)
(86.8019 0.219395 2.2025e-20)
(87.7849 0.525713 -6.03276e-18)
(90.2623 1.16452 6.01529e-18)
(96.0393 2.71187 0)
(109.492 6.8195 0)
(139.563 16.6079 -3.48556e-17)
(193.055 30.5918 3.22003e-17)
(247.826 38.4924 -6.93161e-20)
(277.368 34.1896 1.45773e-20)
(281.589 20.489 -5.16076e-20)
(243.16 0.130931 -1.37921e-20)
(189.879 -8.68142 0)
(24.4562 4.07896 -1.7948e-17)
(31.5081 4.187 1.77609e-17)
(35.7024 3.94415 -2.85341e-20)
(33.212 3.56055 1.79293e-17)
(27.2008 2.58123 -1.80796e-17)
(20.27 2.07419 0)
(15.8312 1.39168 -8.71174e-18)
(14.0661 0.769392 8.69813e-18)
(13.4599 0.333298 -4.34456e-18)
(13.23 0.115645 8.70501e-18)
(13.1286 0.0320958 -4.33291e-18)
(13.0857 0.0064494 1.6891e-20)
(13.0734 -0.00130542 0)
(13.0836 -0.00975836 2.18212e-18)
(13.122 -0.0385008 2.17216e-18)
(13.2097 -0.13071 -4.33703e-18)
(13.4047 -0.368019 -8.70084e-18)
(13.9169 -0.839745 8.71068e-18)
(15.4441 -1.51443 -8.7789e-18)
(19.4779 -2.26091 8.7538e-18)
(25.9872 -2.8298 1.79535e-20)
(31.4857 -3.77726 -1.94712e-20)
(33.8507 -4.03589 0)
(30.1068 -4.16005 1.76383e-20)
(23.5446 -4.00999 0)
(8.04367 3.3421 1.57947e-17)
(8.10405 3.82047 -1.5806e-17)
(8.11258 4.35342 7.11624e-21)
(8.0229 4.58439 0)
(8.48334 3.43044 0)
(8.99103 2.35289 -9.61458e-22)
(9.4924 1.28317 0)
(9.82966 0.585855 7.73957e-21)
(9.99784 0.220968 0)
(10.0619 0.0695327 3.93267e-18)
(10.0809 0.0185041 -5.90785e-18)
(10.0854 0.00409677 2.93849e-18)
(10.0861 -8.16616e-05 -9.82998e-19)
(10.0853 -0.00435556 0)
(10.0805 -0.0191942 0)
(10.0604 -0.0714406 3.92074e-18)
(9.99346 -0.225468 -1.17727e-17)
(9.81865 -0.594857 7.84621e-18)
(9.46912 -1.2983 -7.81834e-18)
(8.94839 -2.37879 7.841e-18)
(8.41122 -3.45895 0)
(7.92253 -4.59177 0)
(8.00025 -4.33936 0)
(7.99814 -3.7595 -9.52982e-22)
(8.01007 -3.24256 -1.56809e-17)
(7.87244 3.28534 -2.67164e-21)
(7.47989 3.84796 1.45124e-17)
(7.51634 4.11366 -1.45104e-17)
(7.71315 4.12077 0)
(8.45896 2.75996 0)
(9.10944 1.70977 8.86968e-22)
(9.58565 0.835309 7.29749e-18)
(9.84317 0.338708 -7.2796e-18)
(9.95236 0.11304 3.5632e-21)
(9.98904 0.0315277 3.56377e-21)
(9.99903 0.00752992 3.56423e-21)
(10.0013 0.0015392 -8.91216e-22)
(10.0017 -3.82383e-06 -8.91317e-22)
(10.0013 -0.00155037 1.8219e-18)
(9.99889 -0.00754678 -1.82924e-18)
(9.9885 -0.0315031 4.4575e-21)
(9.95065 -0.112771 4.4575e-21)
(9.83871 -0.337675 0)
(9.57583 -0.832801 -7.27497e-18)
(9.09127 -1.70394 7.29858e-18)
(8.42798 -2.74947 0)
(7.66793 -4.11505 -1.45018e-17)
(7.47704 -4.10717 1.45582e-17)
(7.44282 -3.86285 8.89562e-22)
(7.88474 -3.33237 -1.46284e-17)
(8.06079 3.47128 3.39182e-21)
(7.6367 3.98835 0)
(7.84299 3.77799 0)
(8.16043 3.58361 -6.93761e-18)
(8.87969 2.17698 6.90853e-18)
(9.40845 1.24041 0)
(9.75184 0.549895 6.94569e-18)
(9.91553 0.199824 -6.94557e-18)
(9.9766 0.0593915 3.47852e-18)
(9.99463 0.0147561 -3.47841e-18)
(9.99897 0.00316918 1.73443e-18)
(9.99986 0.00059185 -1.74473e-18)
(10 -2.29086e-06 0)
(9.99985 -0.000603944 -1.73476e-18)
(9.99894 -0.00322183 1.74165e-18)
(9.99449 -0.0149624 -3.39502e-21)
(9.97608 -0.0600832 -3.39467e-21)
(9.91383 -0.201701 6.79018e-21)
(9.74724 -0.553839 6.93406e-18)
(9.39838 -1.24585 -6.94988e-18)
(8.86388 -2.18347 -6.77702e-21)
(8.13869 -3.5865 -6.76822e-21)
(7.82007 -3.78294 0)
(7.61556 -3.99713 -6.77039e-21)
(7.9898 -3.47524 3.3965e-21)
(8.13658 3.48299 1.25882e-23)
(7.88283 4.01763 0)
(8.19805 3.4568 1.25257e-23)
(8.55101 3.13609 6.39267e-21)
(9.18015 1.77211 -1.25504e-23)
(9.59847 0.93828 -6.59014e-18)
(9.84664 0.382187 6.57746e-18)
(9.95289 0.12658 0)
(9.98829 0.0340486 -6.43173e-21)
(9.99756 0.0076741 -1.25607e-23)
(9.99956 0.00151029 -1.25583e-23)
(9.99993 0.000261713 6.4411e-21)
(9.99998 1.2396e-06 0)
(9.99993 -0.00025433 0)
(9.99957 -0.00147311 -1.25478e-23)
(9.99766 -0.00750504 -1.2545e-23)
(9.98873 -0.033383 -3.28713e-18)
(9.95464 -0.12444 9.85027e-18)
(9.85218 -0.376875 -6.57293e-18)
(9.61228 -0.930008 0)
(9.20664 -1.76093 -6.53144e-18)
(8.59651 -3.1311 6.56384e-18)
(8.24729 -3.4517 1.24737e-23)
(7.94248 -3.98989 6.38304e-21)
(8.23749 -3.44838 1.25237e-23)
(8.34122 3.40425 2.27239e-20)
(8.12981 3.94985 2.82695e-20)
(8.51066 3.14227 1.24746e-17)
(8.87386 2.73676 -6.26646e-18)
(9.40609 1.44028 6.23721e-18)
(9.73084 0.710918 -6.27159e-18)
(9.90597 0.26613 6.26493e-18)
(9.97379 0.080734 -3.13761e-18)
(9.99411 0.0198053 3.13801e-18)
(9.99888 0.00409185 1.19755e-23)
(9.99981 0.000744996 1.1979e-23)
(9.99997 0.000120379 -1.19823e-23)
(9.99999 -4.61694e-07 7.79177e-19)
(9.99997 -0.000123202 7.85696e-19)
(9.9998 -0.000759666 -1.57794e-18)
(9.99883 -0.00416065 1.19949e-23)
(9.99385 -0.0201011 6.28958e-18)
(9.97272 -0.0818732 -1.25749e-17)
(9.90248 -0.269692 6.29388e-18)
(9.72191 -0.71765 0)
(9.38756 -1.45262 -1.19752e-23)
(8.83915 -2.74506 1.19615e-23)
(8.47072 -3.14616 -1.19519e-23)
(8.07726 -3.98434 -1.25873e-17)
(8.28359 -3.46109 1.25712e-17)
(8.37863 3.37202 1.17824e-20)
(8.25261 3.88533 0)
(8.69506 2.83928 0)
(9.06816 2.38925 5.8699e-21)
(9.53852 1.19121 1.17614e-20)
(9.80515 0.551964 0)
(9.93696 0.192466 6.02619e-18)
(9.98385 0.0539422 -6.03528e-18)
(9.99667 0.0122028 5.88977e-21)
(9.99942 0.00234468 -5.88944e-21)
(9.99991 0.000400766 -1.5076e-18)
(9.99999 6.11676e-05 1.51338e-18)
(10 -3.30462e-07 3.88623e-19)
(9.99999 -6.34116e-05 -3.76818e-19)
(9.99991 -0.000414115 1.51304e-18)
(9.9994 -0.00241751 -4.52102e-18)
(9.99658 -0.0125419 3.00792e-18)
(9.98342 -0.0551815 -5.88508e-21)
(9.93526 -0.195849 5.88447e-21)
(9.79961 -0.559016 -6.01177e-18)
(9.5263 -1.20201 1.56815e-20)
(9.04489 -2.39903 3.11379e-20)
(8.66885 -2.85554 6.02444e-18)
(8.22817 -3.87791 5.86639e-21)
(8.28414 -3.34168 5.87978e-21)
(8.28871 3.22301 1.15801e-17)
(8.35426 3.73584 -1.15795e-17)
(8.82628 2.56628 0)
(9.19877 2.0843 -5.79326e-18)
(9.62417 0.997503 -2.40435e-20)
(9.8509 0.437922 5.78409e-18)
(9.95509 0.143978 5.79681e-18)
(9.98932 0.0378178 -5.78367e-18)
(9.99795 0.00801754 -5.65349e-21)
(9.99966 0.00145477 -2.8882e-18)
(9.99995 0.000236351 1.44793e-18)
(9.99999 3.45006e-05 1.44189e-18)
(10 3.43031e-07 -5.64734e-21)
(9.99999 -3.21157e-05 0)
(9.99996 -0.000221855 0)
(9.99969 -0.00137476 0)
(9.99812 -0.0076293 5.64076e-21)
(9.99016 -0.0362129 1.40977e-21)
(9.95837 -0.138645 -7.0451e-21)
(9.8611 -0.425718 0)
(9.64757 -0.973054 5.62336e-21)
(9.24683 -2.06301 1.40553e-21)
(8.87929 -2.54278 -7.0086e-21)
(8.42422 -3.69105 -1.15136e-17)
(8.4472 -3.16911 1.15085e-17)
(8.51795 2.95852 5.5324e-18)
(8.58961 3.47149 -1.10716e-17)
(9.04364 2.25814 1.10751e-17)
(9.38631 1.77337 -5.51817e-18)
(9.72814 0.796162 -5.5593e-18)
(9.89923 0.330921 5.54549e-18)
(9.97181 0.101482 2.77477e-18)
(9.99379 0.0249037 -2.78465e-18)
(9.99889 0.00493457 1.38491e-18)
(9.99983 0.000842836 -2.77619e-18)
(9.99998 0.000129702 2.08557e-18)
(10 1.79941e-05 -8.71208e-19)
(10 -6.98434e-08 1.74028e-19)
(10 -1.84748e-05 -5.4402e-21)
(9.99997 -0.000132546 2.7863e-18)
(9.99981 -0.00085715 -2.79267e-18)
(9.9988 -0.00499546 5.44556e-21)
(9.99336 -0.0251781 5.58116e-18)
(9.97009 -0.102783 3.26584e-21)
(9.89398 -0.334017 -5.57655e-18)
(9.71556 -0.805806 0)
(9.36037 -1.77654 5.56136e-18)
(9.01365 -2.25362 -5.58332e-18)
(8.53307 -3.52072 -1.11498e-17)
(8.45843 -3.04571 -1.04946e-20)
(8.70862 2.84954 -5.3892e-18)
(8.75728 3.27894 5.38673e-18)
(9.20701 1.97102 2.62941e-21)
(9.51234 1.51442 -7.89028e-21)
(9.79375 0.649601 2.63009e-21)
(9.92748 0.255841 5.39881e-18)
(9.98078 0.073905 -2.69245e-18)
(9.99601 0.0169787 -2.6917e-18)
(9.99932 0.00317038 5.26753e-21)
(9.9999 0.000516698 -5.26692e-21)
(9.99999 7.63068e-05 2.63314e-21)
(10 1.01879e-05 -2.63281e-21)
(10 -4.47565e-08 0)
(10 -1.05348e-05 -1.00583e-28)
(9.99999 -7.8712e-05 -1.34484e-18)
(9.9999 -0.000532352 1.35256e-18)
(9.99932 -0.00326182 -2.69942e-18)
(9.99603 -0.0174038 -2.26259e-21)
(9.98083 -0.0752948 2.69093e-18)
(9.92718 -0.259451 -7.88693e-21)
(9.79269 -0.655577 -5.37286e-18)
(9.50702 -1.52353 5.37518e-18)
(9.20375 -1.98965 0)
(8.76906 -3.26339 -5.37713e-18)
(8.62942 -2.80587 5.37837e-18)
(8.71193 2.68764 0)
(8.90066 3.08266 -5.2496e-18)
(9.32296 1.75931 5.23786e-18)
(9.59158 1.31881 2.56187e-21)
(9.83568 0.549225 2.56386e-21)
(9.94492 0.207612 -5.25772e-18)
(9.98623 0.0573907 5.25507e-18)
(9.99729 0.0125632 2.62716e-18)
(9.99956 0.00224548 3.73908e-22)
(9.99994 0.000352821 -2.62603e-18)
(9.99999 5.03822e-05 -2.56409e-21)
(10 6.52639e-06 2.88416e-21)
(10 5.06155e-08 0)
(10 -6.13228e-06 5.12577e-21)
(9.99999 -4.7662e-05 -2.56248e-21)
(9.99994 -0.000335734 1.31177e-18)
(9.9996 -0.00215093 -1.31124e-18)
(9.99748 -0.0121081 -2.56117e-21)
(9.98706 -0.0555479 -2.88062e-21)
(9.948 -0.202403 2.55942e-21)
(9.84375 -0.536365 -5.23221e-18)
(9.61164 -1.30477 2.25971e-20)
(9.34132 -1.74089 5.24036e-18)
(8.92852 -3.04394 0)
(8.80615 -2.64595 5.23791e-18)
(8.9025 2.4372 -1.01825e-17)
(9.09531 2.82009 5.08178e-18)
(9.4583 1.55091 5.09386e-18)
(9.68891 1.13495 -5.07642e-18)
(9.8803 0.448658 0)
(9.96189 0.163249 -3.11001e-22)
(9.99101 0.0428306 0)
(9.99833 0.00892584 -3.11203e-22)
(9.99974 0.00152006 -3.11265e-22)
(9.99996 0.000228845 0)
(10 3.14349e-05 0)
(10 3.92549e-06 -3.11437e-22)
(10 -1.02797e-08 0)
(10 -4.00325e-06 0)
(10 -3.19458e-05 -1.27634e-18)
(9.99996 -0.00023165 1.27657e-18)
(9.99972 -0.0015311 -3.11716e-22)
(9.99822 -0.00896431 -2.55385e-18)
(9.99047 -0.043091 2.55483e-18)
(9.95992 -0.163865 0)
(9.87479 -0.451837 5.10181e-18)
(9.676 -1.13149 -1.02041e-17)
(9.44113 -1.54154 1.02096e-17)
(9.05906 -2.83906 -4.28949e-21)
(8.86204 -2.47893 -5.11445e-18)
(9.06824 2.30763 1.21907e-21)
(9.20992 2.63074 -1.21724e-21)
(9.54843 1.36328 0)
(9.75026 0.983784 0)
(9.9067 0.376078 0)
(9.97136 0.131333 1.2182e-21)
(9.99349 0.032914 0)
(9.99884 0.00653092 -1.21808e-21)
(9.99983 0.00106987 0)
(9.99998 0.000156345 -1.21782e-21)
(10 2.08835e-05 0)
(10 2.54026e-06 -3.11695e-19)
(10 -1.41182e-09 3.10444e-19)
(10 -2.55273e-06 0)
(10 -2.09833e-05 1.24637e-18)
(9.99998 -0.000157151 -2.49245e-18)
(9.99983 -0.0010764 1.24487e-18)
(9.99888 -0.00656642 0)
(9.99369 -0.0329462 2.49103e-18)
(9.972 -0.131137 -2.4914e-18)
(9.90837 -0.373964 4.97332e-18)
(9.75223 -0.980436 -4.98096e-18)
(9.55583 -1.36297 0)
(9.23058 -2.60615 0)
(9.03623 -2.2676 0)
(9.05502 2.16276 -1.19588e-21)
(9.2928 2.4568 1.19383e-21)
(9.60619 1.22571 0)
(9.78358 0.868325 0)
(9.92259 0.325831 0)
(9.97713 0.110403 -1.19565e-21)
(9.99503 0.0268196 0)
(9.99915 0.00514776 1.19564e-21)
(9.99988 0.00082042 0)
(9.99998 0.000117131 -1.22294e-18)
(10 1.52953e-05 1.22342e-18)
(10 1.82205e-06 -1.19523e-21)
(10 1.40815e-08 1.19512e-21)
(10 -1.70234e-06 1.19501e-21)
(10 -1.43844e-05 0)
(9.99999 -0.000110792 0)
(9.99989 -0.000781341 1.19467e-21)
(9.99923 -0.0049384 -2.44635e-18)
(9.99545 -0.0258669 2.44624e-18)
(9.97897 -0.107291 0)
(9.9285 -0.317159 1.19355e-21)
(9.80096 -0.857251 0)
(9.62774 -1.20765 0)
(9.3286 -2.42737 0)
(9.16183 -2.13638 0)
(9.17464 1.94281 -4.78543e-18)
(9.41834 2.2253 4.77346e-18)
(9.67833 1.08679 0)
(9.83227 0.756837 -2.33589e-21)
(9.94207 0.271611 0)
(9.98362 0.0897256 -2.39436e-18)
(9.99661 0.020954 4.78667e-18)
(9.99944 0.00388183 -2.39265e-18)
(9.99992 0.000596313 -1.20006e-18)
(9.99999 8.23673e-05 1.19791e-18)
(10 1.04364e-05 5.85011e-22)
(10 1.20774e-06 1.55637e-19)
(10 -5.56136e-09 -1.4981e-19)
(10 -1.25408e-06 1.19281e-18)
(10 -1.07803e-05 -1.19885e-18)
(9.99999 -8.46217e-05 0)
(9.99991 -0.00060816 -2.34223e-21)
(9.99939 -0.0039344 0)
(9.99632 -0.0212676 0)
(9.98244 -0.090844 -2.39827e-18)
(9.93859 -0.276519 2.4024e-18)
(9.82346 -0.758784 0)
(9.66856 -1.08781 4.78839e-18)
(9.39308 -2.25766 -8.26931e-21)
(9.14604 -1.99186 -9.60624e-18)
(9.29442 1.81443 4.71253e-18)
(9.487 2.05581 2.29802e-21)
(9.72407 0.958588 4.71424e-18)
(9.86269 0.660776 -2.34329e-18)
(9.95319 0.231671 -2.35407e-18)
(9.98711 0.0739911 0)
(9.99739 0.0166662 1.1504e-21)
(9.99958 0.00297422 2.35477e-18)
(9.99994 0.000445424 -2.35343e-18)
(9.99999 6.0333e-05 0)
(10 7.49556e-06 0)
(10 8.51513e-07 -3.44998e-21)
(10 -1.61631e-09 4.59961e-21)
(10 -8.6651e-07 2.29962e-21)
(10 -7.62172e-06 5.89805e-19)
(9.99999 -6.13431e-05 -5.88608e-19)
(9.99994 -0.00045329 1.14953e-21)
(9.99959 -0.0030263 2.35398e-18)
(9.99745 -0.0168644 -4.70742e-18)
(9.98728 -0.0745597 2.35371e-18)
(9.95351 -0.231964 -2.29739e-21)
(9.86119 -0.663122 0)
(9.72647 -0.964827 2.29373e-21)
(9.49607 -2.04276 4.69894e-18)
(9.24891 -1.78799 -9.41856e-18)
(9.27396 1.67912 -4.65077e-18)
(9.53685 1.89709 -4.64697e-18)
(9.75586 0.860443 4.63972e-18)
(9.878 0.584268 2.32414e-18)
(9.96021 0.202757 -2.32249e-18)
(9.9894 0.0632866 0)
(9.99793 0.0139456 5.67294e-22)
(9.99968 0.00243331 -1.70182e-21)
(9.99996 0.000358305 1.1617e-18)
(9.99999 4.78187e-05 -2.32325e-18)
(10 5.85231e-06 1.16155e-18)
(10 6.5578e-07 2.898e-19)
(10 4.34451e-09 -2.71634e-19)
(10 -6.16897e-07 2.69914e-19)
(10 -5.53978e-06 -2.91442e-19)
(10 -4.55255e-05 0)
(9.99996 -0.00034351 1.70078e-21)
(9.99971 -0.00235098 -5.66888e-22)
(9.9981 -0.0135382 -2.32157e-18)
(9.9902 -0.0618497 2.32113e-18)
(9.96301 -0.198127 0)
(9.88807 -0.579713 0)
(9.76576 -0.851322 -5.66094e-22)
(9.5581 -1.87899 -4.63349e-18)
(9.35516 -1.66146 4.27665e-21)
(9.35787 1.48785 -2.28875e-18)
(9.62092 1.69377 2.2816e-18)
(9.79872 0.758846 5.57076e-22)
(9.90514 0.50966 0)
(9.96993 0.169775 2.28631e-18)
(9.99231 0.0522095 -2.28293e-18)
(9.99856 0.0111681 5.58144e-22)
(9.99978 0.00189936 5.58218e-22)
(9.99997 0.000271445 2.23314e-21)
(10 3.52668e-05 -2.85876e-19)
(10 4.2135e-06 1.42955e-19)
(10 4.61308e-07 2.80917e-19)
(10 -2.51128e-09 -1.43547e-19)
(10 -4.83445e-07 5.74256e-19)
(10 -4.38838e-06 -5.72089e-19)
(10 -3.64987e-05 0)
(9.99997 -0.000278421 1.67643e-21)
(9.99975 -0.0019303 -2.28632e-18)
(9.99839 -0.0113626 2.28719e-18)
(9.99155 -0.0530248 5.58961e-22)
(9.96745 -0.17401 0)
(9.89826 -0.511934 0)
(9.78937 -0.762983 5.58381e-22)
(9.59733 -1.72629 -4.57365e-18)
(9.32948 -1.53046 4.58795e-18)
(9.45424 1.36801 2.20727e-21)
(9.6681 1.54328 0)
(9.82545 0.665825 -1.10242e-21)
(9.9226 0.443914 -2.25835e-18)
(9.97537 0.145719 2.25889e-18)
(9.99382 0.0435343 -2.26143e-18)
(9.99886 0.00904823 2.26e-18)
(9.99983 0.00149545 -1.12947e-18)
(9.99998 0.000210384 1.1272e-18)
(10 2.69964e-05 -5.6467e-19)
(10 3.18208e-06 5.64637e-19)
(10 3.44026e-07 -2.77892e-19)
(10 -6.3632e-10 3.17572e-19)
(10 -3.5033e-07 -3.7489e-20)
(10 -3.23895e-06 5.6561e-19)
(10 -2.74838e-05 -1.12785e-18)
(9.99998 -0.000214521 -5.66643e-19)
(9.99983 -0.00152689 1.12551e-18)
(9.99888 -0.00918485 2.20456e-21)
(9.99389 -0.0439647 -1.10219e-21)
(9.97539 -0.145842 0)