/*--------------------------------*- C++ -*----------------------------------*\
| =========                 |                                                 |
| \\      /  F ield         | OpenFOAM: The Open Source CFD Toolbox           |
|  \\    /   O peration     | Version:  2112                                  |
|   \\  /    A nd           | Website:  www.openfoam.com                      |
|    \\/     M anipulation  |                                                 |
\*---------------------------------------------------------------------------*/
FoamFile
{
    version     2.0;
    format      ascii;
    arch        "LSB;label=32;scalar=64";
    class       surfaceScalarField;
    location    "0.0035";
    object      phi;
}
// * * * * * * * * * * * * * * * * * * * * * * * * * * * * * * * * * * * * * //

dimensions      [1 0 -1 0 0 0 0];

oriented        oriented;

internalField   nonuniform List<scalar> 
27436
(
-0.533369
8.19273
-0.0932007
7.47159
-0.0833645
7.78614
-0.0693724
7.78648
-0.0695039
7.79289
-0.0543203
7.78185
-0.0399094
7.78247
-0.0284637
7.78481
-0.0191369
7.7876
-0.0127743
7.7901
-0.00851567
7.79119
-0.00122439
7.78964
0.0128876
7.78293
0.0310205
7.77971
0.0463336
7.78224
0.0538299
7.78924
0.054752
7.794
0.0629864
7.78822
0.0746284
7.78451
0.094179
7.77813
0.0962834
7.7909
0.111546
7.78576
0.123952
7.78245
0.574531
7.46183
8.22017
-0.247243
8.43997
-0.0963471
7.32069
-0.0818789
7.77167
-0.056721
7.76136
-0.0553674
7.79152
-0.0473093
7.77385
-0.0382333
7.77348
-0.0411489
7.78788
-0.0230308
7.76994
-0.0112354
7.7792
0.00120081
7.78007
0.0164787
7.77662
0.0159922
7.78463
0.0217532
7.77392
0.0210136
7.78302
0.0389695
7.77145
0.051357
7.78163
0.0719328
7.76744
0.0678911
7.7886
0.0751794
7.77093
0.0721414
7.79401
0.102922
7.75498
0.11454
7.77074
0.268121
7.30999
8.48527
-0.227276
8.66724
-0.141231
7.23464
-0.12071
7.75114
-0.107528
7.74819
-0.098201
7.78219
-0.0936416
7.76939
-0.0910624
7.77106
-0.089949
7.78665
-0.0643153
7.74399
-0.0495808
7.76025
-0.0373576
7.76293
-0.0173429
7.75466
-0.0127065
7.7799
-0.0109001
7.77192
-0.00680048
7.77891
0.0151421
7.74931
0.0280273
7.76878
0.0513726
7.74383
0.0539877
7.78588
0.0535872
7.77127
0.0618841
7.78577
0.078301
7.73856
0.10085
7.74864
0.192359
7.21718
8.66918
-0.169656
8.83689
-0.139577
7.20455
-0.134308
7.74586
-0.112079
7.72599
-0.104614
7.77472
-0.0994666
7.76433
-0.0963942
7.76812
-0.0841802
7.77426
-0.0624414
7.72135
-0.0446146
7.7401
-0.0286495
7.74293
-0.00861724
7.73164
0.00226952
7.76883
0.00550881
7.76856
0.0148877
7.76951
0.0397613
7.72438
0.0541417
7.75439
0.0763324
7.72162
0.0871627
7.77486
0.0867144
7.77158
0.0915322
7.78099
0.117957
7.71223
0.111315
7.75569
0.162531
7.16398
8.83066
-0.0736977
8.91059
-0.0364992
7.16735
-0.0914153
7.80078
-0.0584615
7.69307
-0.0593881
7.77563
-0.059488
7.76451
-0.0599938
7.76876
-0.0487298
7.76281
-0.0296523
7.70172
-0.0148791
7.72305
-0.00124215
7.72458
0.0160058
7.7117
0.0267399
7.75772
0.0276075
7.76781
0.0353015
7.76182
0.0591287
7.70075
0.0685117
7.745
0.087643
7.7026
0.0979982
7.76431
0.0929419
7.77653
0.0929855
7.78098
0.123388
7.68198
0.0895658
7.78989
0.0969365
7.15624
8.93264
0.118167
8.79243
0.0437502
7.24176
-0.0487945
7.89331
-0.00740486
7.65167
-0.0216604
7.78986
-0.0294284
7.77233
-0.0342129
7.77366
-0.0270405
7.75557
-0.0125488
7.68695
-0.00236222
7.71005
0.00567048
7.71221
0.0185883
7.6965
0.0266172
7.74906
0.0241835
7.77065
0.0284206
7.7577
0.0473127
7.68202
0.0518971
7.7404
0.0644195
7.69004
0.0717927
7.75677
0.0622914
7.78588
0.0475128
7.79575
0.0861708
7.64339
-0.0146188
7.89107
-0.0213501
7.16299
8.91673
0.304393
8.48804
0.136171
7.40998
-0.00426907
8.03425
0.0283005
7.6186
-0.011113
7.82925
-0.0437445
7.80504
-0.0701037
7.80013
-0.0811382
7.76659
-0.0864019
7.69101
-0.0992526
7.7206
-0.108983
7.71826
-0.120913
7.70516
-0.127289
7.75459
-0.148635
7.79259
-0.162474
7.77167
-0.160539
7.68002
-0.181073
7.76093
-0.19106
7.69994
-0.203143
7.76872
-0.236117
7.81873
-0.268102
7.82773
-0.288158
7.66353
-0.355107
7.95821
-0.658799
7.46635
8.26188
0.873353
7.61468
0.521825
7.76149
0.414416
8.14168
0.338585
7.69441
0.277624
7.89023
0.225166
7.85757
0.182937
7.84252
0.158114
7.79171
0.134886
7.71338
0.109913
7.7437
0.0856064
7.74031
0.0609232
7.72656
0.0385419
7.77562
0.00572427
7.82597
-0.0188319
7.79642
-0.0383228
7.69944
-0.0680925
7.79072
-0.0953945
7.72709
-0.123098
7.79633
-0.172427
7.86798
-0.233268
7.88854
-0.283044
7.71343
-0.407393
8.08264
-0.69457
7.75359
7.56831
0.594025
7.02066
0.410038
7.94548
0.240679
8.31106
0.195716
7.7395
0.14192
7.94409
0.102086
7.89753
0.0779221
7.86683
0.0727713
7.79783
0.0727276
7.71301
0.0737218
7.74079
0.0739801
7.74047
0.072223
7.72685
0.0760886
7.77006
0.075082
7.82747
0.0775916
7.79415
0.0762892
7.70076
0.0725123
7.79458
0.0660375
7.73344
0.0586889
7.8037
0.0228302
7.90379
-0.0316045
7.94295
-0.0494851
7.73138
-0.220216
8.25327
-0.373193
7.90639
7.19132
-3.03619
10.0568
-3.3728
8.282
-2.75606
7.69442
-2.61143
7.59493
-2.3042
7.63693
-2.00337
7.59697
-1.70571
7.56984
-1.37162
7.46591
-1.08958
7.43021
-0.797734
7.44677
-0.501522
7.44863
-0.208734
7.43561
0.095537
7.46513
0.407314
7.51613
0.708668
7.49309
0.977266
7.43225
1.29042
7.48158
1.56082
7.46302
1.90044
7.46418
2.2045
7.5998
2.50545
7.64188
2.63335
7.60349
3.21204
7.67424
2.93689
8.18123
10.1254
-4.22876
14.2853
-4.35312
8.40648
-4.13286
7.47458
-3.82214
7.28413
-3.38303
7.19763
-2.90129
7.11608
-2.39102
7.06231
-1.92041
6.99814
-1.48387
6.99229
-1.03526
6.99616
-0.576353
6.99605
-0.121099
6.98371
0.344189
7.00217
0.826264
7.03454
1.28995
7.02983
1.70805
7.01439
2.16793
7.02201
2.61988
7.01121
3.07891
7.00541
3.61159
7.06738
4.08137
7.17217
4.39641
7.2885
4.57918
7.49138
4.51924
8.24051
14.6457
-2.69254
16.9773
-4.94225
10.6561
-4.9379
7.4706
-4.20416
6.54959
-3.80332
6.7966
-3.3153
6.63069
-2.77424
6.52618
-2.26635
6.49322
-1.7721
6.4968
-1.27164
6.4944
-0.756801
6.48549
-0.251707
6.48065
0.265533
6.49034
0.797158
6.50359
1.316
6.51181
1.79487
6.53622
2.29245
6.52504
2.80184
6.50222
3.30509
6.50272
3.80474
6.56827
4.25991
6.71748
5.03014
6.51854
4.83765
7.68388
2.71806
10.3599
17.3646
2.36756
14.6093
0.606559
12.4153
-4.7905
12.8699
-3.8219
5.58254
-4.02207
6.99822
-3.51664
6.12978
-2.96959
5.98523
-2.46076
5.98755
-1.94646
5.98265
-1.41278
5.95971
-0.866758
5.93723
-0.326871
5.93789
0.227068
5.94184
0.788214
5.94354
1.3371
5.96414
1.87415
6.00032
2.3911
6.00922
2.88405
6.01022
3.41259
5.9753
3.91951
6.06235
3.83766
6.80039
4.87997
5.47701
-0.426454
12.9913
-2.37585
12.3093
14.989
2.46227
12.1468
3.27808
11.5986
3.70673
12.4458
-0.615877
9.91108
-4.33872
10.7216
-3.92775
5.72328
-3.30936
5.37116
-2.85257
5.53467
-2.26471
5.39951
-1.6993
5.39725
-1.12107
5.35927
-0.555393
5.37242
0.02835
5.36195
0.613024
5.36144
1.20218
5.37865
1.78226
5.4235
2.35743
5.43667
2.80005
5.56933
3.33844
5.43827
3.58145
5.82182
-0.295674
10.6787
-4.5847
9.77017
-3.8818
12.2903
-2.93533
11.3628
12.0536
1.69988
10.4495
3.44422
9.8565
5.06397
10.8299
5.51353
9.46694
4.83193
11.415
1.15508
9.40422
-0.653476
7.17619
-1.33181
6.21803
-1.18788
5.26112
-0.892754
5.10841
-0.474413
4.94739
-0.0531002
4.95503
0.407666
4.90171
0.842519
4.92764
1.28361
4.94015
1.63136
5.07846
1.8262
5.24485
1.24527
6.15429
-0.727865
7.41258
-4.19641
9.29353
-4.69693
11.1827
-4.19156
9.26644
-2.54002
10.6403
-1.16411
9.98888
10.8904
0.779144
9.67381
1.66898
8.96864
2.87949
9.62148
3.54672
8.80299
3.28459
11.6829
1.78167
10.919
0.389586
8.58504
-0.270791
6.89762
-0.225319
5.24877
-0.141659
5.06316
-0.0267935
4.87347
0.010007
4.95633
0.0990162
4.85071
0.183951
4.87792
0.317478
4.83999
0.430123
4.99796
0.514381
5.19071
0.113566
6.59334
-1.20263
8.74036
-2.38225
10.4862
-2.6914
11.4992
-2.12712
8.71081
-1.27104
9.78652
-0.401799
9.122
10.4908
1.61782
8.06222
2.23081
8.36512
2.35297
9.51049
1.51446
9.64138
0.214
12.9994
-0.0310199
11.1738
0.695203
7.85993
0.787793
6.80282
0.535373
5.50066
0.396498
5.20096
0.215779
5.05532
0.11552
5.0585
-0.0360634
5.00388
-0.175426
5.01888
-0.39552
5.06306
-0.617202
5.22225
-0.996252
5.57438
-1.14413
6.74717
-0.377497
7.9751
-0.651465
10.7565
-2.06681
12.9258
-2.81183
9.45866
-2.63053
9.61112
-2.17747
8.67368
8.31597
1.7667
6.30261
1.75305
8.39036
0.945001
10.3262
0.154663
10.4397
1.67825
11.4857
2.59333
10.2558
2.32592
8.1182
2.10971
7.01039
1.44391
6.15957
0.878759
5.7597
0.361861
5.56483
-0.0995943
5.51367
-0.563834
5.46228
-1.04504
5.49445
-1.56402
5.57688
-2.11643
5.77019
-2.7169
6.16986
-2.965
6.987
-3.22162
8.21944
-2.50548
10.0493
-0.885973
11.3178
-2.29932
10.8913
-3.05396
10.3838
-2.52993
8.15896
5.79413
3.3083
3.00007
5.43583
6.27083
6.01014
9.76011
6.04123
10.4126
6.55822
10.9659
6.12617
10.6783
5.03311
9.20537
4.05399
7.98779
3.11716
7.09564
2.27384
6.60129
1.47408
6.36118
0.704247
6.27974
-0.0724814
6.23548
-0.83732
6.25559
-1.61938
6.35614
-2.42458
6.57387
-3.31103
7.05566
-4.26415
7.93864
-5.27376
9.22233
-5.80567
10.5757
-5.43398
10.9472
-5.1156
10.5769
-5.11964
10.3921
-2.86148
5.91628
2.93977
1.53335
1.46998
3.9426
3.86719
4.96495
8.74524
5.62621
9.75484
6.28028
10.3122
6.23138
10.7225
5.27814
10.1543
4.10504
9.1604
3.0068
8.19352
2.05102
7.5565
1.18116
7.23017
0.327115
7.13252
-0.523554
7.08486
-1.38712
7.11796
-2.27039
7.23856
-3.25395
7.5564
-4.41373
8.21366
-5.69455
9.21572
-6.72463
10.2458
-6.80925
10.6604
-6.1465
10.2828
-5.37384
9.80334
-3.74246
8.76007
-1.45655
3.65764
1.48806
0.0628746
1.41059
-0.0948144
4.03405
1.57805
7.07716
2.89261
8.44297
3.77983
9.42603
4.0648
10.4368
3.66083
10.5564
2.97242
9.84819
2.23076
8.93432
1.52046
8.26602
0.818661
7.93137
0.130719
7.81959
-0.572346
7.78727
-1.27167
7.81667
-1.99902
7.96529
-2.76562
8.32131
-3.58519
9.03017
-4.34346
9.96982
-4.70218
10.6015
-4.30504
10.2642
-3.34498
9.31994
-1.90981
8.3669
-0.0987721
6.9559
-0.131367
3.6946
1.3616
-0.915054
2.32789
-0.974187
4.09911
0.205158
5.90142
1.14541
7.5028
1.90137
8.67021
2.23384
10.1039
2.21903
10.5699
1.96157
10.1039
1.55574
9.33852
1.10326
8.71679
0.64597
8.3876
0.164162
8.3004
-0.315164
8.26583
-0.803712
8.30481
-1.26872
8.42978
-1.72488
8.77559
-2.12657
9.42859
-2.35238
10.1918
-2.31836
10.5648
-1.92935
9.87633
-1.07599
8.465
-0.124659
7.41129
1.03655
5.79994
0.91906
3.81451
2.27983
-0.856718
3.18763
-1.24532
4.49198
-0.894528
5.55109
-0.274759
6.88351
0.310178
8.08543
0.620384
9.7934
0.870109
10.3198
0.975909
9.99752
0.908692
9.40356
0.720733
8.90281
0.470783
8.63631
0.219058
8.55076
-0.0529398
8.53691
-0.300328
8.55156
-0.536791
8.66575
-0.704401
8.94169
-0.726607
9.44827
-0.564863
10.0268
-0.279828
10.2781
-0.0246236
9.62191
0.601242
7.83951
1.25417
6.7568
1.48558
5.57006
0.902505
4.4
3.18561
-0.737107
3.93205
-1.47007
5.23057
-1.70857
5.79171
-1.51279
6.6888
-1.23833
7.81087
-0.793207
9.34761
-0.359389
9.8858
-0.0768784
9.71268
0.0475253
9.27647
0.0778632
8.87084
0.0468028
8.66605
-0.0399509
8.63648
-0.127391
8.62354
-0.216131
8.6398
-0.248606
8.69765
-0.214683
8.90658
-0.0876536
9.31909
0.199506
9.73749
0.676261
9.79938
1.16273
9.13563
1.4215
7.5814
1.652
6.52434
1.45978
5.76214
0.664529
5.19688
3.85665
-0.418217
4.34989
-1.16759
5.98073
-1.68704
6.31256
-1.77687
6.77931
-1.64242
7.67646
-1.23795
8.94435
-0.778047
9.42635
-0.434527
9.36762
-0.209469
9.05006
-0.0999576
8.76047
-0.0724511
8.63761
-0.0563227
8.61945
-0.0568698
8.62343
-0.0377038
8.61973
-0.0085565
8.66764
0.111532
8.78566
0.361656
9.06736
0.746463
9.3515
1.22845
9.31691
1.64802
8.71642
1.7429
7.488
1.66232
6.60499
1.11363
6.30994
0.340766
5.96808
4.19689
-0.269961
4.61925
-1.11923
6.82967
-1.75437
6.94862
-1.96161
6.98711
-1.91901
7.63352
-1.54888
8.57401
-1.10716
8.98296
-0.722177
8.98124
-0.445798
8.77339
-0.253842
8.56793
-0.101843
8.48472
0.00811482
8.50917
0.114283
8.51668
0.222985
8.51021
0.383903
8.50536
0.593224
8.57513
0.893213
8.76618
1.30065
8.94326
1.74256
8.8742
2.10104
8.35852
2.12876
7.46117
1.91662
6.81713
1.28848
6.93742
0.357183
6.90055
4.56163
-0.389072
5.01312
-1.43242
7.87037
-1.86624
7.38451
-2.22212
7.34326
-2.2456
7.65727
-1.97481
8.30444
-1.56053
8.56916
-1.15456
8.57651
-0.817634
8.43654
-0.576178
8.32593
-0.404958
8.3131
-0.22681
8.33067
-0.0589232
8.34819
0.124474
8.32557
0.310368
8.31783
0.551963
8.33224
0.894006
8.42322
1.30707
8.53041
1.70633
8.47508
1.97514
8.09036
1.97245
7.46407
1.65534
7.1327
1.21546
7.37735
0.245853
7.86975
4.81709
-0.405279
5.4244
-1.18246
8.64108
-1.62648
7.82756
-1.95333
7.67011
-2.01994
7.7242
-1.78722
8.07174
-1.43338
8.21547
-1.06954
8.21269
-0.764889
8.13179
-0.511058
8.07199
-0.268204
8.06998
-0.0650127
8.12723
0.144884
8.13777
0.350481
8.11906
0.598509
8.06821
0.87111
8.05813
1.19197
8.10126
1.56777
8.15485
1.91711
8.1263
2.10636
7.9025
2.02693
7.54447
1.6763
7.48207
1.23937
7.81539
0.484094
8.63015
5.31187
-0.525735
5.95713
-1.13912
9.25545
-1.59529
8.28492
-1.78885
7.86336
-1.92874
7.86418
-1.79696
7.94111
-1.47729
7.89704
-1.12197
7.85863
-0.786652
7.79652
-0.500365
7.78557
-0.263108
7.83277
-0.0118541
7.87572
0.226146
7.89929
0.481583
7.86275
0.720359
7.82811
1.00466
7.77275
1.34809
7.7572
1.71653
7.78728
2.02903
7.81444
2.1387
7.79339
1.97504
7.7081
1.79865
7.65662
1.3874
8.22763
0.765567
9.26059
6.08996
-0.884595
6.84426
-1.37148
9.74383
-1.84049
8.75103
-2.01186
8.03344
-2.12274
7.975
-2.01338
7.8315
-1.74182
7.62526
-1.41689
7.53397
-1.1138
7.49346
-0.837466
7.5096
-0.549127
7.54459
-0.29322
7.6198
-0.0228781
7.62877
0.23914
7.60052
0.536343
7.53036
0.827587
7.48069
1.12762
7.45611
1.44073
7.47449
1.70502
7.55139
1.78939
7.71106
1.70962
7.7888
1.52058
7.84493
1.10086
8.6485
0.575678
9.79429
6.66792
-0.594409
7.44354
-1.24703
10.3963
-1.62935
9.13022
-1.76954
8.17212
-1.76773
7.97309
-1.68542
7.74979
-1.4643
7.40572
-1.19268
7.26374
-0.894052
7.19545
-0.600374
7.21609
-0.343002
7.2875
-0.0586163
7.33546
0.211637
7.35858
0.49419
7.31791
0.75119
7.2731
1.03908
7.1927
1.34318
7.15141
1.62286
7.19569
1.8268
7.34793
1.88735
7.65156
1.87364
7.8027
1.67666
8.04112
1.37242
8.95355
0.798532
10.3685
7.46858
-0.270332
7.71886
-0.759526
10.8846
-1.49918
9.86721
-1.59088
8.26424
-1.61136
7.99434
-1.50983
7.64953
-1.30922
7.20571
-1.08262
7.03809
-0.845154
6.95807
-0.601654
6.97296
-0.31787
7.00412
-0.0608039
7.07878
0.211378
7.08668
0.462538
7.06714
0.746471
6.98942
0.999858
6.93922
1.23409
6.91662
1.45154
6.97821
1.65926
7.14096
1.7532
7.55853
1.73551
7.8199
1.75041
8.02564
1.00903
9.69504
0.498899
10.8789
7.96656
-0.499323
8.21436
-0.92959
11.3173
-1.74846
10.6844
-1.74709
8.26268
-1.73277
7.98005
-1.61698
7.53381
-1.44735
7.03786
-1.22921
6.82061
-0.988267
6.71729
-0.723522
6.7083
-0.486724
6.76776
-0.211977
6.80443
0.0494648
6.8257
0.32798
6.78896
0.569307
6.7483
0.825869
6.68293
1.07018
6.67165
1.28392
6.76455
1.433
6.99218
1.53154
7.46107
1.52151
7.83036
1.42871
8.11769
0.569786
10.5534
0.206767
11.2381
8.17671
-0.105423
8.32317
-0.485829
11.6966
-1.18735
11.3887
-1.47621
8.55182
-1.49191
7.99669
-1.35107
7.39502
-1.17514
6.86301
-0.981517
6.62644
-0.77854
6.51412
-0.571923
6.5019
-0.30417
6.50043
-0.0603239
6.56118
0.20537
6.5604
0.447163
6.54759
0.711975
6.48364
0.926937
6.468
1.11479
6.4833
1.30896
6.56987
1.48622
6.81445
1.61084
7.33567
1.60964
7.83161
1.39721
8.32979
0.586384
11.3558
0.244579
11.5768
8.42783
0.0353552
8.30064
-0.121388
11.8542
-0.797885
12.0643
-1.38504
9.13983
-1.30149
7.91342
-1.22496
7.31884
-1.07084
6.70801
-0.912047
6.46714
-0.726328
6.32836
-0.496997
6.27258
-0.301071
6.30464
-0.0596003
6.32017
0.166485
6.33474
0.408368
6.30601
0.603736
6.28815
0.818152
6.25321
1.00992
6.29067
1.15995
6.41886
1.30413
6.67032
1.39056
7.24832
1.57514
7.64726
0.82254
9.0816
0.234332
11.9426
-0.0129222
11.8206
8.42305
-0.269722
8.5876
-0.36054
11.9436
-0.739207
12.4411
-1.397
9.79739
-1.37364
7.88952
-1.28839
7.2331
-1.11926
6.53771
-0.951964
6.29885
-0.779141
6.15505
-0.626799
6.12067
-0.39408
6.07258
-0.189646
6.11623
0.0421386
6.10327
0.250925
6.09748
0.484036
6.05501
0.648958
6.08822
0.804306
6.13475
0.971242
6.25148
1.12856
6.51236
1.17972
7.19744
1.13348
7.69295
0.379548
9.83413
-0.0768565
12.397
-0.1139
11.8548
8.31694
-0.0885672
8.68376
0.0261872
11.8265
-0.257148
12.7217
-1.00241
10.5434
-1.15083
8.03625
-1.06552
7.14641
-0.952022
6.4234
-0.798365
6.1448
-0.635223
5.99161
-0.422807
5.9084
-0.256524
5.90643
-0.0400278
5.90021
0.158918
5.90465
0.376352
5.88022
0.536886
5.89398
0.731265
5.89315
0.906407
5.95891
1.04511
6.10999
1.15809
6.39686
1.31563
7.03921
1.12474
7.88316
0.377706
10.5804
0.154373
12.6182
0.213122
11.7956
8.53611
0.0496061
8.63118
0.162687
11.7138
0.215478
12.6664
-0.489359
11.2454
-1.05834
8.60314
-0.912153
6.9994
-0.827979
6.33866
-0.707913
6.02421
-0.552801
5.83653
-0.424469
5.78038
-0.225144
5.70813
-0.0533231
5.72889
0.143654
5.70789
0.308779
5.71536
0.506873
5.69588
0.641634
5.75812
0.77661
5.82289
0.909972
5.97751
0.999991
6.30455
1.17936
6.85971
0.594489
8.46865
-0.0788903
11.2521
-0.0563237
12.5917
0.0437168
11.6943
8.58341
-0.196582
8.82244
-0.173471
11.6907
0.00780487
12.4826
-0.406933
11.6552
-0.972693
9.16665
-1.0179
7.04405
-0.883996
6.20459
-0.783778
5.9237
-0.657631
5.7105
-0.467975
5.59101
-0.325273
5.56551
-0.138573
5.54255
0.0258247
5.54376
0.208616
5.5327
0.345328
5.55854
0.522961
5.58013
0.663656
5.68135
0.7401
5.89813
0.829497
6.21182
0.728918
6.95997
-0.000933855
9.19847
-0.466011
11.7164
-0.124544
12.2488
-0.0292642
11.5981
8.55609
-0.0431809
8.85576
0.0460337
11.6001
0.436413
12.0873
0.136356
11.9505
-0.605759
9.90741
-0.831038
7.26883
-0.673719
6.04702
-0.612094
5.86277
-0.479633
5.57793
-0.364898
5.47667
-0.187964
5.38936
-0.037142
5.39205
0.136897
5.36978
0.283553
5.38626
0.461542
5.38034
0.577666
5.46347
0.691372
5.56673
0.769349
5.81893
0.952087
6.02516
0.696018
7.21481
-0.0740785
9.96858
-0.227214
11.869
0.149507
11.8699
0.179385
11.5676
8.73519
0.0754162
8.76902
0.146686
11.5288
0.424759
11.8067
0.498641
11.8715
-0.0711262
10.4757
-0.552833
7.75084
-0.606008
6.10067
-0.531154
5.78807
-0.456435
5.50339
-0.300465
5.32117
-0.18278
5.27174
-0.0302105
5.2396
0.107113
5.23241
0.263877
5.2295
0.377807
5.26587
0.531113
5.30993
0.612977
5.48372
0.727279
5.70407
0.677572
6.07175
0.214862
7.67542
-0.4142
10.5961
-0.281553
11.7345
0.00769119
11.5777
0.0576968
11.5177
8.79319
-0.112135
8.87263
-0.0592184
11.4772
0.164207
11.5808
0.473347
11.5602
0.0198759
10.9286
-0.506307
8.27726
-0.652569
6.24796
-0.561565
5.69737
-0.469582
5.41171
-0.386728
5.23842
-0.24336
5.12828
-0.119374
5.11551
0.0236077
5.0891
0.148771
5.10411
0.292763
5.12099
0.369117
5.2328
0.443359
5.40792
0.534099
5.61151
0.283827
6.31896
-0.431606
8.38949
-0.777576
10.9403
-0.387672
11.3417
-0.215045
11.4026
-0.146057
11.449
8.64899
0.0402762
8.82855
0.102638
11.419
0.271802
11.4109
0.651292
11.1788
0.623481
10.9564
-0.0161227
8.9185
-0.441985
6.67564
-0.441832
5.69744
-0.365904
5.33528
-0.246241
5.11872
-0.153582
5.03515
-0.0225506
4.98409
0.0977426
4.96829
0.226783
4.97468
0.320208
5.02691
0.444372
5.10793
0.539072
5.312
0.499439
5.64916
0.079121
6.73642
-0.523716
8.98859
-0.42334
10.8385
-0.116491
11.0318
0.043914
11.2395
0.104004
11.3891
8.75513
0.172981
8.6527
0.295852
11.3011
0.418576
11.2903
0.640882
10.958
0.880701
10.7161
0.28411
9.51558
-0.166077
7.12729
-0.315291
5.8466
-0.263298
5.28285
-0.216898
5.07178
-0.121512
4.93915
-0.0233074
4.88519
0.0927109
4.85137
0.190149
4.87652
0.289625
4.92611
0.343921
5.05256
0.405871
5.24835
0.233035
5.81981
-0.256582
7.2222
-0.832344
9.56264
-0.462601
10.4659
-0.244574
10.812
-0.154182
11.1475
-0.0677184
11.3026
8.69098
-0.0195279
8.6732
0.0702969
11.2185
0.158945
11.2046
0.397019
10.7214
0.814214
10.2981
0.624609
9.70567
-0.0207815
7.7739
-0.340514
6.16622
-0.32422
5.26613
-0.243828
4.99086
-0.172047
4.86621
-0.0801807
4.79249
0.0125748
4.75755
0.102521
4.78571
0.167951
4.85956
0.236747
4.98277
0.205752
5.27844
-0.145761
6.16911
-0.829761
7.90206
-0.917392
9.64839
-0.581241
10.1285
-0.357609
10.5871
-0.309229
11.0958
-0.157351
11.1505
8.536
0.111968
8.56204
0.295729
11.0422
0.364517
11.1398
0.537211
10.5512
0.819845
10.0146
0.936391
9.58875
0.438808
8.2721
-0.0412432
6.64614
-0.168854
5.39361
-0.155626
4.97698
-0.0830733
4.79234
-0.0137675
4.72203
0.0664589
4.67628
0.137613
4.71357
0.212405
4.78339
0.23483
4.95855
0.0391858
5.47192
-0.471263
6.67742
-0.924727
8.35511
-0.669756
9.39169
-0.408544
9.86647
-0.24265
10.4192
-0.194321
11.0444
-0.04046
10.9979
8.49671
0.170599
8.39328
0.381289
10.8396
0.451165
11.0734
0.582691
10.4212
0.813763
9.78255
1.18154
9.21996
0.884277
8.56982
0.1935
7.33627
-0.0441169
5.63044
-0.0814145
5.01321
-0.039731
4.74955
0.00923385
4.67199
0.0551492
4.62894
0.113476
4.65397
0.154933
4.74055
0.116306
4.99559
-0.160797
5.74745
-0.808025
7.3221
-1.009
8.55596
-0.681922
9.06521
-0.442287
9.62697
-0.318401
10.2947
-0.260918
10.9851
-0.0801753
10.8189
8.41731
0.0402881
8.354
0.240896
10.6444
0.351621
10.9655
0.426206
10.3501
0.613277
9.59537
0.869599
8.96291
0.948827
8.49033
0.593182
7.69239
0.0578948
6.16507
-0.0979613
5.16728
-0.0762584
4.72562
-0.0410776
4.63551
-0.0111912
4.59756
0.0251941
4.6161
0.0255612
4.73807
-0.147399
5.16614
-0.79602
6.39428
-1.15317
7.67832
-0.969226
8.37093
-0.731894
8.82876
-0.579998
9.47445
-0.53127
10.244
-0.415463
10.8681
-0.179156
10.5843
8.23897
0.0808041
8.27475
0.318025
10.4105
0.462507
10.8222
0.55635
10.2556
0.687769
9.46307
0.850131
8.79939
1.18017
8.15977
0.922841
7.94834
0.304457
6.78254
0.0509968
5.41942
0.00973097
4.76541
0.0144746
4.6292
0.0140266
4.59645
0.0207399
4.6079
-0.0510257
4.80799
-0.34618
5.45968
-0.811539
6.85739
-1.11111
7.97652
-0.791458
8.05194
-0.646789
8.68505
-0.534963
9.36215
-0.447685
10.1555
-0.30284
10.7229
-0.0605066
10.3442
8.17998
0.112161
8.16293
0.443365
10.0806
0.632794
10.6334
0.642905
10.2468
0.714169
9.39021
0.887697
8.62425
1.06534
7.98171
1.16503
7.84841
0.856897
7.09112
0.209658
6.06617
0.0647877
4.90866
0.0306128
4.66219
0.0102831
4.61511
-0.0208319
4.638
-0.19726
4.98263
-0.865018
6.12589
-1.13731
7.12855
-0.96737
7.80461
-0.808452
7.89418
-0.652879
8.53014
-0.60235
9.31016
-0.574081
10.1257
-0.378923
10.5273
-0.0627537
10.029
8.1191
0.0063025
-0.136887
0.00255935
-0.136965
-0.00317722
-0.141799
-0.00302439
-0.138213
-0.00190519
-0.15167
-0.00270893
-0.160532
-0.00421928
-0.170876
-0.00779667
-0.179237
-0.0113485
-0.187885
-0.0139478
-0.198908
-0.014577
-0.212832
-0.0130967
-0.227774
-0.0110332
-0.246907
-0.00902269
-0.266311
-0.00469955
-0.287808
0.00657666
-0.312796
0.0261018
-0.360152
0.0517474
-0.420362
0.080871
-0.484104
0.112751
-0.54958
0.148038
-0.617219
0.187179
-0.678056
0.232293
-0.754667
0.280137
-0.818721
0.332397
-0.893208
0.389806
-0.928336
0.441249
-0.960909
0.320515
-0.889518
0.0828393
-0.606477
-0.813043
0.0125474
-0.14507
0.00745864
-0.135692
0.00220989
-0.141622
0.00269897
-0.14083
0.00359611
-0.158682
0.00290639
-0.171928
0.00126653
-0.186446
-0.003059
-0.196161
-0.00742849
-0.198935
-0.0106744
-0.204694
-0.011458
-0.216321
-0.0113152
-0.23181
-0.0114994
-0.250699
-0.0114895
-0.266303
-0.0096134
-0.288037
-0.00255298
-0.317169
0.013705
-0.352503
0.037797
-0.414664
0.0659872
-0.477015
0.0977301
-0.539183
0.133642
-0.599803
0.174146
-0.659901
0.220234
-0.72819
0.273138
-0.794626
0.331175
-0.846396
0.383493
-0.89473
0.43358
-0.955226
0.402658
-1.08405
0.135215
-1.39464
-3.44356
0.00616171
-0.145441
-0.00132863
-0.138481
-0.00757506
-0.142619
-0.00836181
-0.145053
-0.007945
-0.164597
-0.00825326
-0.173474
-0.00962968
-0.189569
-0.0127276
-0.201648
-0.0161859
-0.211789
-0.0204652
-0.219541
-0.0218524
-0.225037
-0.0221549
-0.239826
-0.0224862
-0.25684
-0.0221799
-0.273761
-0.0223391
-0.29533
-0.0186455
-0.320063
-0.00583848
-0.352456
0.0166166
-0.391358
0.0452789
-0.467255
0.0781199
-0.524754
0.115372
-0.58181
0.157372
-0.639364
0.205066
-0.697118
0.260842
-0.764671
0.319649
-0.789589
0.37442
-0.876393
0.380207
-0.988948
0.275652
-1.34053
0.107645
-3.2003
-3.76453
-0.00214214
-0.146733
-0.0091873
-0.145872
-0.0156023
-0.148457
-0.017318
-0.151178
-0.0176307
-0.165301
-0.0183106
-0.173035
-0.0202691
-0.18893
-0.0226473
-0.204221
-0.0256759
-0.217985
-0.0288014
-0.229813
-0.0317884
-0.237378
-0.0336912
-0.249956
-0.0341438
-0.265902
-0.0349791
-0.283114
-0.036536
-0.303258
-0.0350297
-0.323987
-0.0260372
-0.351902
-0.00533793
-0.386417
0.0234074
-0.452259
0.057667
-0.507265
0.0966218
-0.562168
0.140654
-0.61741
0.190365
-0.673212
0.250141
-0.705167
0.307382
-0.774273
0.356175
-0.879593
0.284287
-1.11153
0.184985
-2.49476
-0.0311169
-3.42772
-3.63033
-0.00316083
-0.151293
-0.0111202
-0.153577
-0.0182743
-0.156195
-0.0203553
-0.152753
-0.0220874
-0.164595
-0.0237099
-0.170694
-0.0256389
-0.18655
-0.028391
-0.204341
-0.0305756
-0.222366
-0.0330316
-0.236115
-0.0361428
-0.249014
-0.0396072
-0.261189
-0.0420139
-0.275901
-0.0438257
-0.292659
-0.0457759
-0.311047
-0.045362
-0.329108
-0.0382693
-0.351041
-0.020777
-0.380233
0.00901745
-0.419536
0.0435117
-0.487267
0.0829247
-0.540985
0.127574
-0.594837
0.17924
-0.648913
0.235314
-0.670129
0.288763
-0.762985
0.261761
-0.927183
0.137781
-1.42316
-0.0653835
-3.28297
-0.105765
-3.2396
-3.52746
-0.00411679
-0.159968
-0.0124586
-0.16028
-0.0201773
-0.16235
-0.0230589
-0.154274
-0.0261225
-0.164667
-0.0289326
-0.171468
-0.0314291
-0.188499
-0.0342974
-0.206719
-0.0362051
-0.22678
-0.0368783
-0.243037
-0.0396916
-0.259248
-0.0435807
-0.272504
-0.0474527
-0.287419
-0.0511611
-0.303411
-0.0528994
-0.318621
-0.0551873
-0.332419
-0.049147
-0.349792
-0.0330458
-0.375663
-0.00366814
-0.407148
0.0307999
-0.467856
0.0708167
-0.519599
0.116643
-0.572751
0.168824
-0.61279
0.218351
-0.666115
0.248347
-0.772721
0.14952
-1.05565
-0.108527
-2.7958
-0.285364
-3.23655
-0.146538
-3.16692
-3.36875
-0.00596641
-0.169082
-0.0142267
-0.164128
-0.0220533
-0.165138
-0.0265432
-0.154719
-0.0314225
-0.16458
-0.0353298
-0.172259
-0.0384357
-0.19016
-0.0407771
-0.20941
-0.0418654
-0.231436
-0.0435508
-0.250868
-0.044676
-0.268617
-0.0486272
-0.283904
-0.0530322
-0.299415
-0.0565285
-0.310833
-0.0592796
-0.324899
-0.0621825
-0.337934
-0.0592303
-0.349943
-0.0451221
-0.370098
-0.0181061
-0.400088
0.0180871
-0.450833
0.0587094
-0.501848
0.105901
-0.553278
0.154253
-0.572967
0.193659
-0.666235
0.150025
-0.830065
-0.0768091
-1.46064
-0.407107
-3.07878
-0.377899
-3.09573
-0.154505
-3.06905
-3.10619
-0.00817416
-0.17536
-0.0164224
-0.164048
-0.0250513
-0.164475
-0.0312251
-0.154721
-0.0380127
-0.165236
-0.0430549
-0.17397
-0.04685
-0.193247
-0.0495368
-0.213826
-0.0500241
-0.236479
-0.0503387
-0.258781
-0.0522616
-0.27988
-0.0549224
-0.294992
-0.0584002
-0.308695
-0.0627857
-0.318094
-0.0665378
-0.329553
-0.0673863
-0.342424
-0.066943
-0.353316
-0.05566
-0.369486
-0.0315055
-0.394185
0.00570882
-0.437825
0.0467212
-0.488913
0.0936919
-0.537825
0.134288
-0.582277
0.14079
-0.69002
-0.0245464
-0.996233
-0.47743
-2.76492
-0.570028
-2.96134
-0.378999
-3.02779
-0.14435
-2.92688
-2.88805
-0.0102239
-0.177966
-0.018685
-0.159591
-0.0284095
-0.160764
-0.0365123
-0.15375
-0.0448992
-0.165397
-0.0516056
-0.176729
-0.0564212
-0.197513
-0.0587806
-0.21883
-0.0587632
-0.242559
-0.0594798
-0.266551
-0.0599386
-0.288107
-0.0611064
-0.303423
-0.0642291
-0.315902
-0.0680373
-0.324569
-0.0724545
-0.331199
-0.0736253
-0.346155
-0.0724503
-0.358396
-0.0642753
-0.374787
-0.0436645
-0.39457
-0.00752023
-0.430488
0.0343516
-0.481938
0.0769864
-0.497264
0.105342
-0.594945
0.0177928
-0.761374
-0.421168
-1.50743
-0.677377
-2.89504
-0.610823
-2.85109
-0.359872
-2.92362
-0.130883
-2.76705
-2.77398
-0.0114695
-0.172514
-0.021208
-0.15057
-0.0322828
-0.153706
-0.0425012
-0.150563
-0.0522269
-0.164135
-0.0602958
-0.17857
-0.0656427
-0.200112
-0.0680243
-0.221531
-0.0681018
-0.246138
-0.0674995
-0.270148
-0.0672952
-0.291093
-0.0665365
-0.30713
-0.0690018
-0.317396
-0.0733172
-0.329137
-0.0760988
-0.335004
-0.077956
-0.348378
-0.077983
-0.36188
-0.0724184
-0.373315
-0.0543085
-0.392831
-0.0209349
-0.429215
0.0209633
-0.479308
0.0545779
-0.517512
0.0375129
-0.627086
-0.157354
-0.965943
-0.726954
-2.57073
-0.804908
-2.74179
-0.594154
-2.77497
-0.340969
-2.79757
-0.12291
-2.6271
-2.70317
-0.0130421
-0.159662
-0.0246781
-0.137744
-0.0372515
-0.143052
-0.0494185
-0.144087
-0.0603956
-0.160317
-0.0692185
-0.176561
-0.0747644
-0.19791
-0.077386
-0.219365
-0.077034
-0.244713
-0.0759699
-0.268427
-0.0734887
-0.289099
-0.0714533
-0.306465
-0.072284
-0.319928
-0.0765279
-0.332153
-0.0800159
-0.338855
-0.0821505
-0.350046
-0.0834434
-0.363312
-0.0792087
-0.374929
-0.0636195
-0.39652
-0.0337553
-0.42996
0.00514729
-0.467239
0.0212595
-0.536527
-0.0858611
-0.702146
-0.697741
-1.74076
-0.907148
-2.68922
-0.807446
-2.66483
-0.570732
-2.67602
-0.316427
-2.6704
-0.123061
-2.53838
-2.64779
-0.0150892
-0.141833
-0.0292717
-0.121734
-0.0436703
-0.128717
-0.0573905
-0.134439
-0.0697947
-0.152003
-0.0781653
-0.168303
-0.0837171
-0.192205
-0.0866786
-0.213459
-0.085005
-0.240564
-0.0822824
-0.264283
-0.078914
-0.286261
-0.0754249
-0.305422
-0.0760967
-0.32138
-0.0805053
-0.334012
-0.0837276
-0.343027
-0.0865493
-0.350793
-0.0880644
-0.363726
-0.0845998
-0.378061
-0.0716901
-0.397965
-0.0454096
-0.428677
-0.017965
-0.446876
-0.051406
-0.56629
-0.307569
-0.918812
-0.917211
-2.36158
-0.982847
-2.54473
-0.791858
-2.59922
-0.544524
-2.56772
-0.303688
-2.56062
-0.128549
-2.48549
-2.5991
-0.0182884
-0.121134
-0.0352612
-0.103481
-0.0525884
-0.111787
-0.0669492
-0.121229
-0.078455
-0.139811
-0.0874612
-0.158701
-0.092384
-0.184853
-0.0945488
-0.208091
-0.0917907
-0.235148
-0.0886788
-0.259104
-0.0846706
-0.283107
-0.0796911
-0.30428
-0.0803451
-0.321686
-0.0846786
-0.335216
-0.0902002
-0.344354
-0.0903309
-0.350928
-0.0902145
-0.362747
-0.0890537
-0.377299
-0.0787748
-0.394656
-0.0585823
-0.422749
-0.0519237
-0.468676
-0.172534
-0.633067
-0.895678
-1.64857
-1.0729
-2.48144
-0.98169
-2.47239
-0.767026
-2.51579
-0.523641
-2.46574
-0.306946
-2.47603
-0.136896
-2.44201
-2.55235
-0.0215046
-0.0995079
-0.0418414
-0.0834466
-0.060665
-0.0932333
-0.0746012
-0.108199
-0.0867304
-0.128695
-0.0958641
-0.148988
-0.0997947
-0.177826
-0.101805
-0.202806
-0.0985579
-0.228796
-0.0947931
-0.253625
-0.0900785
-0.279724
-0.0843129
-0.302671
-0.0847044
-0.321157
-0.0880574