/*--------------------------------*- C++ -*----------------------------------*\
| =========                 |                                                 |
| \\      /  F ield         | OpenFOAM: The Open Source CFD Toolbox           |
|  \\    /   O peration     | Version:  2112                                  |
|   \\  /    A nd           | Website:  www.openfoam.com                      |
|    \\/     M anipulation  |                                                 |
\*---------------------------------------------------------------------------*/
FoamFile
{
    version     2.0;
    format      ascii;
    arch        "LSB;label=32;scalar=64";
    class       surfaceScalarField;
    location    "0.00237";
    object      phi;
}
// * * * * * * * * * * * * * * * * * * * * * * * * * * * * * * * * * * * * * //

dimensions      [1 0 -1 0 0 0 0];

oriented        oriented;

internalField   nonuniform List<scalar> 
27436
(
-0.53337
8.19265
-0.0933583
7.4714
-0.0827759
7.78559
-0.0692654
7.78643
-0.0693454
7.79288
-0.0543667
7.78208
-0.0401562
7.78277
-0.0294325
7.78547
-0.0202861
7.78839
-0.012339
7.78966
-0.00121679
7.78717
0.00667069
7.7891
0.0155232
7.78784
0.0270744
7.78662
0.0394058
7.7862
0.0450765
7.79105
0.0543655
7.78766
0.0642161
7.78592
0.0784189
7.78259
0.0952804
7.78058
0.0955321
7.79255
0.11103
7.7855
0.123988
7.78205
0.574065
7.46258
8.21708
-0.247094
8.43973
-0.0963965
7.32068
-0.0817795
7.77098
-0.0573646
7.76204
-0.0554199
7.79097
-0.0474133
7.7741
-0.0381894
7.77343
-0.0400938
7.78688
-0.0216584
7.76783
-0.013931
7.78101
-0.00483221
7.77814
0.00502769
7.77834
0.0155
7.77757
0.0241165
7.77664
0.0334055
7.77666
0.0406422
7.78215
0.0609155
7.76829
0.0584535
7.78902
0.0671856
7.77411
0.075685
7.77206
0.0733942
7.79492
0.103053
7.75583
0.114347
7.77103
0.267674
7.30839
8.47822
-0.227321
8.66705
-0.141247
7.23463
-0.120608
7.75036
-0.107767
7.74921
-0.0982999
7.78148
-0.0934375
7.76927
-0.0905256
7.77045
-0.0868955
7.78349
-0.0703702
7.75707
-0.0515349
7.76292
-0.0364947
7.76617
-0.0301656
7.77275
-0.0202161
7.77003
-0.00658124
7.76637
0.00454974
7.77069
0.0251902
7.76068
0.0379666
7.75248
0.0440985
7.78241
0.0479541
7.7703
0.0523736
7.76754
0.0627976
7.78442
0.0786862
7.73995
0.100584
7.74938
0.192512
7.21472
8.67057
-0.169857
8.8369
-0.139927
7.20471
-0.134677
7.74513
-0.112675
7.7272
-0.104682
7.77346
-0.0991866
7.76379
-0.0957064
7.76691
-0.0832155
7.77113
-0.0671883
7.74439
-0.0481854
7.74528
-0.0302938
7.75123
-0.0180205
7.76081
-0.00543841
7.75699
0.00985577
7.75303
0.0269597
7.75579
0.0506911
7.7373
0.0626604
7.73993
0.0741561
7.77024
0.0791198
7.76525
0.0849919
7.76159
0.0923959
7.77692
0.118396
7.71406
0.111359
7.75645
0.162224
7.16384
8.8385
-0.0740164
8.91092
-0.0369443
7.16768
-0.0914155
7.79962
-0.0585122
7.69432
-0.059328
7.77425
-0.0590905
7.76354
-0.0593633
7.76716
-0.0493095
7.76132
-0.0355775
7.73442
-0.0181692
7.72856
-0.00284806
7.73827
0.00777866
7.75058
0.0182052
7.74746
0.031626
7.74281
0.0483763
7.74122
0.0703274
7.71511
0.07809
7.73106
0.0877753
7.75959
0.0883018
7.76447
0.0898466
7.75987
0.0928937
7.77376
0.123884
7.68312
0.089816
7.79057
0.0967626
7.15765
8.94054
0.116993
8.79393
0.0431643
7.24153
-0.0491896
7.89198
-0.00789498
7.65305
-0.0215754
7.78795
-0.0291818
7.77118
-0.0337307
7.77178
-0.0287008
7.75655
-0.019261
7.72889
-0.00687087
7.71819
0.00503988
7.72675
0.0119932
7.7439
0.0180379
7.7433
0.0272105
7.73852
0.0424875
7.72851
0.058753
7.69982
0.0622716
7.72592
0.0666538
7.75426
0.0628841
7.76792
0.057377
7.76522
0.0466035
7.78438
0.0865666
7.64314
-0.0140251
7.89102
-0.0199849
7.1638
8.92149
0.30343
8.49055
0.135582
7.40944
-0.00427072
8.03236
0.0284472
7.61982
-0.0107328
7.82718
-0.0432752
7.8038
-0.0696567
7.79839
-0.0834359
7.77121
-0.094572
7.74467
-0.10491
7.73107
-0.110276
7.72975
-0.123637
7.75722
-0.13614
7.75738
-0.14688
7.75476
-0.14734
7.73196
-0.15062
7.7033
-0.170459
7.74413
-0.186254
7.76892
-0.210718
7.79186
-0.241978
7.79626
-0.269469
7.8117
-0.287868
7.66153
-0.354277
7.95717
-0.657771
7.46757
8.26256
0.872039
7.61853
0.520989
7.76057
0.414612
8.13883
0.338426
7.69602
0.278051
7.8877
0.225671
7.85645
0.183197
7.84138
0.153783
7.80114
0.128064
7.77476
0.102912
7.75828
0.0831783
7.74417
0.0587329
7.78149
0.0317003
7.78466
0.00956876
7.78243
-0.00650822
7.75027
-0.0265697
7.72225
-0.0578803
7.77445
-0.0895431
7.79983
-0.129475
7.83132
-0.178063
7.84464
-0.234824
7.86817
-0.282791
7.70945
-0.406628
8.08073
-0.693767
7.75487
7.56513
0.595983
7.02323
0.409882
7.94688
0.241933
8.30685
0.196474
7.7416
0.143087
7.94137
0.103303
7.89697
0.0787986
7.86694
0.0698966
7.80951
0.0680292
7.7792
0.0670024
7.7634
0.0683393
7.73473
0.0726278
7.77708
0.0726459
7.78347
0.0779248
7.78307
0.0879701
7.74072
0.0879591
7.72102
0.0803669
7.78159
0.0721306
7.80788
0.0516895
7.8511
0.0168139
7.87949
-0.033131
7.91787
-0.0492501
7.72534
-0.219967
8.2509
-0.372744
7.90731
7.1894
-3.02752
10.0508
-3.3916
8.31122
-2.76777
7.68316
-2.61273
7.58701
-2.30862
7.63858
-2.00485
7.59562
-1.70167
7.56363
-1.39271
7.49676
-1.09881
7.4824
-0.806979
7.47598
-0.51956
7.44113
-0.208073
7.46609
0.0964645
7.47651
0.407781
7.47754
0.707222
7.44011
0.988552
7.43877
1.29253
7.47755
1.60302
7.49793
1.90146
7.55255
2.20304
7.57803
2.5047
7.61637
2.6335
7.59619
3.2095
7.67438
2.93441
8.18172
10.1242
-4.2223
14.2735
-4.5541
8.64326
-4.1538
7.28318
-3.82215
7.25747
-3.39022
7.211
-2.90135
7.11023
-2.40887
7.06801
-1.95019
7.02978
-1.4965
7.0198
-1.0385
7.02297
-0.592341
6.99612
-0.120384
6.99496
0.351636
7.00092
0.826919
7.00607
1.27739
6.98764
1.71137
7.00352
2.18683
7.00271
2.67394
7.01306
3.15293
7.07553
3.62871
7.10317
4.06199
7.18336
4.38437
7.27268
4.58263
7.47493
4.51565
8.24754
14.6413
-2.5737
16.8477
-5.37246
11.4446
-4.91404
6.82247
-4.19046
6.5391
-3.82356
6.85181
-3.35065
6.63862
-2.82927
6.53845
-2.31474
6.50477
-1.80773
6.50424
-1.28211
6.50385
-0.769092
6.49137
-0.252657
6.47899
0.276233
6.46747
0.801906
6.48041
1.30764
6.47911
1.80979
6.49816
2.33398
6.47918
2.87507
6.47523
3.43127
6.52501
3.9098
6.62831
4.30085
6.79332
5.02858
6.54355
4.87569
7.62464
2.69278
10.4286
17.334
2.25016
14.5965
0.986267
12.5413
-4.14229
12.1296
-3.69313
6.10087
-4.03193
7.20227
-3.63353
6.2392
-3.05643
5.94981
-2.50731
5.94603
-1.97528
5.96959
-1.43514
5.97018
-0.862806
5.9279
-0.330511
5.94567
0.241347
5.89062
0.788228
5.9277
1.33298
5.92823
1.88399
5.94226
2.41635
5.94643
2.95614
5.93781
3.55015
5.93786
4.02104
6.16693
3.85311
6.96642
4.82864
5.56722
-0.627328
13.0765
-2.38197
12.1803
14.9504
2.44766
12.1457
3.30829
11.6742
3.69606
11.7506
-0.215776
10.0223
-4.43252
11.4298
-4.17559
5.97843
-3.45117
5.21745
-2.96874
5.45838
-2.28447
5.28443
-1.7882
5.47621
-1.10047
5.24264
-0.595558
5.43904
0.0557883
5.23535
0.619281
5.3561
1.25217
5.28959
1.8215
5.37022
2.44487
5.3242
2.93889
5.44725
3.62175
5.26133
3.71867
6.082
-0.425855
11.1191
-4.65635
9.79903
-3.74547
12.1618
-2.91008
11.3422
12.0389
1.77756
10.3676
3.5913
9.85797
5.02258
10.3228
5.50896
9.55416
5.25394
11.6965
2.04166
9.19437
0.818131
6.44477
-0.417535
6.69548
-0.611405
5.48175
-0.695223
5.56008
-0.275214
4.82228
-0.0749472
5.23921
0.459592
4.70376
0.690086
5.12399
1.07753
4.90218
1.17092
5.27851
1.14055
5.35714
0.00876162
6.582
-1.43583
6.70955
-4.27708
8.92527
-4.59447
11.4383
-4.14161
9.3467
-2.42855
10.446
-1.1208
10.0332
10.9166
0.905553
9.46045
1.6435
9.11773
2.79986
9.16516
3.66628
8.69357
3.44432
11.9293
1.44964
11.1857
0.435127
7.46508
-0.0771572
7.20987
-0.171541
5.57878
-0.2601
5.65493
0.0388867
4.53214
-0.109709
5.39189
0.183512
4.41963
0.23328
5.08398
0.390424
4.75693
0.493304
5.18862
0.613039
5.24965
0.247238
6.95655
-0.402087
7.3682
-1.94855
10.4727
-2.36575
11.8659
-2.02038
9.00361
-1.00436
9.4313
-0.274396
9.30225
10.6418
1.35627
8.10099
2.00905
8.46353
1.41081
9.76569
0.531462
9.57447
-0.101007
12.5593
-0.382869
11.4684
0.286729
6.79833
0.941484
6.55569
0.743272
5.7765
0.869475
5.52873
0.349131
5.05028
0.455614
5.28904
-0.0179176
4.89477
-0.0823974
5.15442
-0.404062
5.08874
-0.52578
5.31959
-0.902026
5.63371
-0.384826
6.44396
0.227844
6.75308
0.369781
10.3302
-0.706617
12.9328
-1.74533
10.044
-2.35863
10.0479
-2.04184
8.98856
8.60142
1.61223
6.48956
1.2548
8.82121
0.502817
10.5186
-0.133966
10.2105
1.21863
11.2082
2.57955
10.1086
1.87861
7.50137
1.74598
6.68814
1.33309
6.18772
0.925537
5.93524
0.394875
5.57983
0.0475007
5.63725
-0.486337
5.43128
-0.890265
5.56131
-1.38135
5.58344
-1.87884
5.81985
-2.38047
6.13641
-2.53719
6.60095
-3.19856
7.41039
-2.58885
9.71283
-0.949301
11.2846
-1.71359
10.8115
-2.52536
10.8647
-2.27881
8.74805
6.32655
3.26651
3.22528
5.79904
6.29222
6.03826
10.2752
5.93737
10.3099
6.4019
10.7432
6.01488
10.4935
4.63692
8.88017
3.70139
7.62438
2.93975
6.94819
2.19999
6.67247
1.43143
6.34576
0.720367
6.34677
-0.0291074
6.1803
-0.754798
6.28696
-1.51294
6.34212
-2.27338
6.58071
-3.03405
6.89698
-3.91328
7.47816
-5.20066
8.6939
-5.84467
10.3537
-5.31976
10.7619
-4.91636
10.4115
-4.72079
10.6762
-2.99522
7.03804
3.33848
1.48725
1.73972
3.54624
4.23896
5.1295
8.69187
5.75472
9.68351
6.30665
10.1908
6.21205
10.5873
5.1021
9.98884
3.8698
8.85561
2.8508
7.96447
1.9724
7.54707
1.12491
7.18912
0.306862
7.16143
-0.530849
7.01535
-1.36536
7.11945
-2.2197
7.19512
-3.12971
7.48931
-4.16932
7.93403
-5.44771
8.75366
-6.6742
9.91979
-6.88153
10.5598
-6.31593
10.1951
-5.69042
9.78523
-3.9791
8.96718
-1.53448
4.59945
1.80785
0.241128
1.50032
0.246602
4.23625
1.71408
7.22743
2.98959
8.4076
3.81996
9.36023
4.07142
10.3364
3.61205
10.4461
2.86179
9.604
2.13756
8.68589
1.46733
8.21373
0.777649
7.87464
0.108978
7.82636
-0.589609
7.71077
-1.27098
7.79828
-1.97485
7.89696
-2.68144
8.19399
-3.45103
8.70076
-4.27962
9.57948
-4.78212
10.4214
-4.45738
10.2345
-3.53627
9.27355
-2.20072
8.45023
-0.588194
7.36004
-0.260742
4.28138
1.55311
-0.93394
2.43571
-0.867502
4.17061
0.284778
6.07855
1.21213
7.48156
1.94704
8.62625
2.2752
10.0091
2.23023
10.4892
1.91494
9.91642
1.49897
9.09871
1.07102
8.63814
0.616843
8.32511
0.145733
8.29414
-0.336266
8.19018
-0.812975
8.27298
-1.26444
8.3467
-1.7005
8.62847
-2.11356
9.11172
-2.41456
9.87869
-2.41573
10.4226
-2.06455
9.88319
-1.28716
8.49623
-0.283405
7.44737
0.832933
6.24961
0.99438
4.12655
2.55171
-0.864687
3.30157
-1.21516
4.52228
-0.832832
5.69795
-0.192063
6.84179
0.355952
8.07889
0.674744
9.69197
0.906826
10.2551
0.986329
9.83559
0.891557
9.19148
0.703044
8.82408
0.453033
8.57256
0.204064
8.54081
-0.0747592
8.46761
-0.321818
8.51955
-0.560003
8.58443
-0.727826
8.79574
-0.784804
9.16774
-0.667295
9.76017
-0.428659
10.1825
-0.148847
9.60165
0.403397
7.9447
1.04848
6.80353
1.3738
5.92885
0.891701
4.61398
3.4466
-0.738649
4.04382
-1.53666
5.32097
-1.67272
5.83617
-1.46456
6.63418
-1.16242
7.77779
-0.731679
9.26126
-0.3167
9.83854
-0.0619098
9.57907
0.0456126
9.08277
0.0752968
8.79227
0.0331879
8.61333
-0.0539026
8.62699
-0.149878
8.56365
-0.239176
8.6097
-0.276606
8.6228
-0.255472
8.77515
-0.156671
9.06909
0.0859449
9.51835
0.523401
9.74814
0.99034
9.13519
1.27429
7.66168
1.51437
6.56447
1.45196
5.99512
0.684335
5.38683
4.13403
-0.42397
4.47114
-1.19087
6.08833
-1.66771
6.31487
-1.72367
6.69179
-1.5841
7.63827
-1.1982
8.87532
-0.740975
9.38048
-0.403103
9.24191
-0.202541
8.88241
-0.106307
8.69524
-0.081827
8.58861
-0.0673616
8.61281
-0.0758954
8.57313
-0.061679
8.59733
-0.0398323
8.60288
0.0587532
8.67818
0.277351
8.85112
0.63203
9.16486
1.09272
9.28653
1.48737
8.73995
1.59965
7.5508
1.51846
6.64825
1.1003
6.41622
0.345239
6.14487
4.48184
-0.296916
4.7744
-1.11482
6.90805
-1.74176
6.94323
-1.92399
6.87289
-1.87275
7.58809
-1.51557
8.51841
-1.07538
8.94057
-0.702989
8.86987
-0.442109
8.6222
-0.253935
8.50687
-0.109904
8.44529
-0.00254894
8.50615
0.0911327
8.48078
0.194417
8.4961
0.346934
8.45279
0.540629
8.48672
0.807866
8.58562
1.18522
8.78807
1.63187
8.84298
1.97584
8.399
2.01159
7.51717
1.82774
6.83418
1.24448
7.00197
0.39739
6.99519
4.88308
-0.40308
5.18257
-1.42568
7.92974
-1.8676
7.38499
-2.19138
7.19706
-2.21736
7.61365
-1.95062
8.25057
-1.52932
8.51991
-1.12358
8.46611
-0.807396
8.30703
-0.583503
8.28349
-0.413186
8.27572
-0.241494
8.33547
-0.0761761
8.31678
0.0995734
8.32214
0.275155
8.27919
0.502719
8.26139
0.814073
8.27599
1.2022
8.40212
1.59859
8.44599
1.86809
8.12886
1.87435
7.51217
1.59446
7.11626
1.17249
7.42576
0.223695
7.94383
5.11337
-0.421364
5.60877
-1.20106
8.71389
-1.60829
7.79286
-1.94928
7.53777
-1.99679
7.66181
-1.76689
8.02182
-1.4125
8.16687
-1.0592
8.11338
-0.766244
8.01518
-0.514211
8.03193
-0.279041
8.0416
-0.080049
8.13743
0.12302
8.11483
0.32559
8.12092
0.567437
8.03886
0.821844
8.00888
1.11914
7.98082
1.47568
8.04699
1.82799
8.09576
2.02039
7.93988
1.96369
7.57032
1.61263
7.46868
1.21012
7.82824
0.452716
8.70188
5.574
-0.536802
6.14957
-1.14975
9.32998
-1.58301
8.22679
-1.77851
7.73555
-1.92315
7.80731
-1.78711
7.88497
-1.45881
7.83897
-1.10259
7.75797
-0.782538
7.69594
-0.512382
7.76233
-0.275235
7.80515
-0.0249789
7.88821
0.208931
7.88208
0.459004
7.87195
0.689194
7.80973
0.960071
7.73926
1.27735
7.665
1.62901
7.69689
1.94479
7.78084
2.06894
7.81587
1.91343
7.72785
1.73884
7.6464
1.36688
8.20099
0.741426
9.32832
6.32523
-0.890679
7.0416
-1.3689
9.81095
-1.80948
8.66931
-1.98909
7.91252
-2.10655
7.92449
-2.00007
7.78008
-1.7274
7.56746
-1.41161
7.44319
-1.11962
7.40405
-0.844675
7.4877
-0.558925
7.52029
-0.308461
7.63874
-0.0399909
7.61453
0.218217
7.61481
0.509838
7.51903
0.787555
7.4624
1.07288
7.38065
1.3726
7.39881
1.63112
7.52372
1.71391
7.73533
1.64192
7.79678
1.45717
7.82904
1.08369
8.57465
0.57368
9.84257
6.9049
-0.588121
7.62774
-1.23778
10.4567
-1.61323
9.04235
-1.7719
8.07669
-1.76875
7.92544
-1.67929
7.69035
-1.45733
7.34499
-1.18038
7.16592
-0.893409
7.11713
-0.613653
7.2083
-0.356935
7.26397
-0.0728065
7.35549
0.194017
7.34862
0.472935
7.33683
0.724268
7.26862
1.00196
7.18545
1.28187
7.10111
1.54699
7.13442
1.75988
7.31087
1.83354
7.66193
1.81811
7.81935
1.62228
8.02696
1.36306
8.83313
0.82456
10.3788
7.73121
-0.255882
7.88159
-0.744528
10.9408
-1.48241
9.77963
-1.57612
8.16897
-1.59747
7.94319
-1.49699
7.59073
-1.3004
7.15009
-1.08857
6.95475
-0.859447
6.88826
-0.612483
6.96166
-0.329739
6.98162
-0.0751652
7.10139
0.192719
7.08112
0.442628
7.0875
0.723
6.98894
0.965657
6.9433
1.18968
6.87741
1.40272
6.9213
1.59749
7.11857
1.69326
7.56665
1.68381
7.82282
1.67554
8.03487
0.995323
9.51391
0.517029
10.8571
8.24715
-0.476855
8.35931
-0.90156
11.3581
-1.73376
10.6108
-1.74161
8.17769
-1.72702
7.93495
-1.61291
7.47637
-1.43726
6.97373
-1.21432
6.73149
-0.986637
6.6605
-0.737511
6.71269
-0.49963
6.74367
-0.228012
6.82996
0.0324808
6.82067
0.307638
6.81249
0.544942
6.75195
0.795087
6.69354
1.01879
6.65383
1.23106
6.70958
1.39089
6.95727
1.49147
7.46824
1.46259
7.85297
1.38432
8.11361
0.565888
10.3292
0.217824
11.2028
8.46463
-0.0921602
8.45174
-0.464669
11.7283
-1.12039
11.2667
-1.464
8.51957
-1.47753
7.93936
-1.33143
7.33031
-1.17197
6.81452
-0.990702
6.55074
-0.799925
6.47034
-0.5849
6.49829
-0.319187
6.47783
-0.0735645
6.58407
0.188351
6.55829
0.427907
6.57259
0.689955
6.48979
0.899728
6.48388
1.08432
6.46936
1.26573
6.52825
1.44096
6.78159
1.56713
7.34041
1.56319
7.85735
1.36348
8.31225
0.585186
11.1034
0.25903
11.5284
8.72475
0.0502216
8.40187
-0.0809888
11.8557
-0.767414
11.9559
-1.38868
9.145
-1.29038
7.84358
-1.22317
7.26478
-1.06878
6.66072
-0.911525
6.39413
-0.722153
6.28082
-0.512515
6.28826
-0.314145
6.27914
-0.0767861
6.34629
0.149975
6.33083
0.389287
6.33267
0.582541
6.29616
0.792837
6.27328
0.973924
6.28799
1.11806
6.38361
1.27709
6.62395
1.35352
7.26327
1.52569
7.68703
0.811874
9.02407
0.228791
11.692
-0.0120908
11.7652
8.71387
-0.249415
8.64876
-0.331593
11.9352
-0.709723
12.3382
-1.36998
9.80708
-1.36025
7.83316
-1.26718
7.17251
-1.11275
6.50671
-0.954415
6.2353
-0.806646
6.13356
-0.642174
6.12432
-0.412174
6.04858
-0.204944
6.13845
0.0246123
6.10055
0.232607
6.12396
0.464227
6.06382
0.628147
6.1089
0.778832
6.13707
0.935873
6.22595
1.09157
6.4678
1.13447
7.22094
1.08275
7.73589
0.381143
9.72564
-0.0848461
12.1598
-0.124731
11.8018
8.59172
-0.0749933
8.7213
0.0450505
11.8121
-0.207434
12.5938
-0.987503
10.5829
-1.16949
8.01189
-1.06328
7.06644
-0.954398
6.39817
-0.802871
6.08354
-0.626686
5.95678
-0.433794
5.93049
-0.268325
5.88266
-0.0529208
5.92243
0.146836
5.90006
0.361059
5.90907
0.517813
5.90651
0.70636
5.9198
0.879033
5.96388
1.01467
6.08978
1.13654
6.34655
1.30003
7.05609
1.08838
7.94535
0.365371
10.4437
0.137007
12.392
0.18686
11.7469
8.77941
0.0567079
8.6646
0.175378
11.691
0.230944
12.5349
-0.447954
11.2603
-1.03007
8.59687
-0.900782
6.93881
-0.821383
6.31947
-0.701287
5.9638
-0.566005
5.82171
-0.424805
5.78935
-0.230395
5.68768
-0.0650916
5.75655
0.126659
5.70778
0.290106
5.74507
0.490768
5.70514
0.627407
5.78269
0.759784
5.83124
0.875079
5.97459
0.959995
6.26048
1.1161
6.90336
0.586604
8.47706
-0.0311491
11.0607
-0.0675631
12.4278
0.023634
11.6523
8.80249
-0.191375
8.85552
-0.164449
11.6616
0.0565771
12.315
-0.364629
11.6837
-0.952036
9.18284
-1.02622
7.01121
-0.885869
6.17847
-0.795245
5.87306
-0.654509
5.68012
-0.477364
5.6113
-0.332717
5.54264
-0.151596
5.57507
0.0109288
5.5448
0.193171
5.56242
0.329225
5.56875
0.502907
5.60858
0.63966
5.69422
0.715703
5.89761
0.817516
6.1567
0.706252
7.01332
0.00401365
9.17676
-0.451025
11.5149
-0.137745
12.1125
-0.0537175
11.564
8.74626
-0.0347412
8.89142
0.0541322
11.5712
0.423508
11.9447
0.172409
11.9359
-0.572996
9.9269
-0.82246
7.26449
-0.669431
6.02629
-0.599529
5.80352
-0.488082
5.56925
-0.367306
5.49059
-0.195101
5.37027
-0.0477533
5.4275
0.122405
5.37447
0.266637
5.41798
0.441869
5.39313
0.558698
5.49143
0.670599
5.58222
0.74722
5.82203
0.888959
6.01671
0.657166
7.25045
-0.0534155
9.89036
-0.222245
11.6802
0.134607
11.7467
0.168431
11.5284
8.90914
0.0772613
8.81565
0.144014
11.5047
0.432565
11.6562
0.556484
11.8127
-0.0475283
10.5292
-0.550639
7.76625
-0.645345
6.12041
-0.540744
5.69843
-0.456889
5.48473
-0.310864
5.34438
-0.193723
5.25323
-0.0408216
5.27465
0.0938576
5.23971
0.247366
5.2644
0.361161
5.27924
0.5118
5.34053
0.588435
5.50566
0.708113
5.70194
0.64144
6.08308
0.214412
7.67755
-0.333433
10.4334
-0.284337
11.6277
0.00876257
11.4437
0.0609255
11.4745
8.96561
-0.104981
8.92392
-0.057638
11.4572
0.146454
11.451
0.50477
11.4558
0.057599
10.9785
-0.468178
8.29586
-0.636858
6.28878
-0.553697
5.61628
-0.476054
5.40766
-0.395678
5.26453
-0.252054
5.10966
-0.133911
5.15672
0.00902218
5.0969
0.13558
5.13791
0.275773
5.13913
0.348755
5.26725
0.42112
5.43342
0.494345
5.62924
0.231318
6.34798
-0.422391
8.34272
-0.763106
10.7794
-0.366016
11.2215
-0.208672
11.2781
-0.143022
11.4084
8.8222
0.0421746
8.88412
0.0942493
11.4039
0.272026
11.2749
0.61185
11.1165
0.633326
10.957
0.0179448
8.91482
-0.424605
6.73336
-0.467063
5.65978
-0.367997
5.30932
-0.255952
5.15298
-0.165564
5.02001
-0.0323241
5.02392
0.0860549
4.97873
0.212622
5.01155
0.304055
5.0479
0.421092
5.15068
0.510231
5.34436
0.463507
5.67705
0.0656058
6.74896
-0.483657
8.90185
-0.431943
10.7233
-0.119965
10.9046
0.0569425
11.0946
0.115219
11.3497
8.93798
0.178809
8.70599
0.29352
11.2903
0.387194
11.1782
0.609493
10.89
0.94405
10.6213
0.361239
9.49574
-0.110242
7.19889
-0.318847
5.8694
-0.273551
5.26467
-0.226129
5.10662
-0.130778
4.92488
-0.0340517
4.92766
0.081274
4.86376
0.177978
4.91514
0.272819
4.95347
0.332878
5.09062
0.375232
5.30216
0.197088
5.85579
-0.27354
7.22009
-0.819902
9.44625
-0.44634
10.3472
-0.222877
10.6753
-0.13403
11.0014
-0.0608598
11.276
8.88251
-0.017461
8.72431
0.0705876
11.203
0.16341
11.0912
0.402034
10.6553
0.811031
10.2106
0.661053
9.6451
0.00186465
7.86029
-0.335335
6.20834
-0.330217
5.26044
-0.252019
5.02915
-0.182185
4.856
-0.0906144
4.83674
0.00146425
4.77206
0.0889851
4.82809
0.148917
4.89401
0.20822
5.03213
0.169936
5.34211
-0.163962
6.19162
-0.782486
7.84249
-0.876575
9.54198
-0.579482
10.049
-0.363962
10.4602
-0.291344
10.9328
-0.155915
11.143
8.73028
0.114038
8.6108
0.292383
11.0247
0.337831
11.0401
0.51858
10.471
0.837173
9.89077
0.986127
9.4947
0.505894
8.34279
-0.00957061
6.72548
-0.173625
5.42534
-0.169624
5.02612
-0.0926045
4.77973
-0.0235105
4.76821
0.054447
4.69456
0.123486
4.75936
0.195839
4.8222
0.205863
5.02262
0.00340644
5.54428
-0.468309
6.66325
-0.896279
8.2706
-0.67015
9.31452
-0.38758
9.76549
-0.21452
10.2834
-0.176404
10.8897
-0.0376116
11.0071
8.69617
0.17113
8.44021
0.386292
10.8105
0.472116
10.955
0.59067
10.3544
0.789106
9.69207
1.13497
9.14805
0.843159
8.63532
0.23311
7.33838
-0.0181254
5.67721
-0.0894499
5.09808
-0.0508913
4.74196
-0.00291999
4.7208
0.0429373
4.64903
0.0940868
4.70868
0.129781
4.78694
0.0852008
5.06767
-0.180035
5.81057
-0.779786
7.26413
-0.967418
8.45902
-0.65214
9.00171
-0.448126
9.56202
-0.330343
10.1728
-0.249245
10.8186
-0.0827072
10.8417
8.6161
0.0414477
8.40084
0.243282
10.6084
0.340538
10.8515
0.427184
10.2687
0.622974
9.49925
0.845055
8.9254
0.980554
8.50021
0.652382
7.66723
0.0859467
6.24487
-0.109702
5.29562
-0.0866499
4.71974
-0.0521981
4.68693
-0.0266901
4.62385
0.00777223
4.6747
-0.0047563
4.79997
-0.167995
5.23117
-0.788493
6.43004
-1.12039
7.59719
-0.957941
8.2969
-0.734493
8.77803
-0.564716
9.39582
-0.49966
10.1087
-0.411489
10.7274
-0.185332
10.6153
8.43136
0.083433
8.31967
0.32577
10.3652
0.487218
10.696
0.56174
10.1861
0.669429
9.38831
0.81033
8.78779
1.15836
8.15202
0.908431
7.91781
0.348888
6.80361
0.0535039
5.59045
0.000369961
4.7733
0.000913658
4.6869
0.000533934
4.62455
-0.000742863
4.67644
-0.0727679
4.87237
-0.365267
5.52498
-0.778151
6.84537
-1.09099
7.91089
-0.785374
7.99219
-0.629354
8.62488
-0.530784
9.29718
-0.454723
10.0317
-0.308111
10.581
-0.0700251
10.3778
8.36102
0.116118
8.20689
0.45048
10.0286
0.622009
10.5122
0.650422
10.1596
0.718154
9.32863
0.871757
8.63404
1.03302
7.9922
1.18921
7.76197
0.894113
7.09927
0.217049
6.26866
0.0566536
4.93457
0.0182864
4.72589
-0.00527442
4.64833
-0.0402898
4.71199
-0.217641
5.05007
-0.860762
6.16744
-1.1135
7.09481
-0.939384
7.73643
-0.799014
7.85081
-0.656804
8.48141
-0.590275
9.23486
-0.5473
9.98609
-0.390569
10.4207
-0.0727504
10.0581
8.28765
0.000796577
0.0145309
0.00373768
-0.00840492
0.00651983
-0.0240231
0.00947071
-0.0477062
0.0129396
-0.0702507
0.0170157
-0.095166
0.0203676
-0.115887
0.0219153
-0.12599
0.0204833
-0.122607
0.0152123
-0.101503
0.00907927
-0.062314
0.00354971
-0.018868
-0.000423824
0.0157015
-0.00290251
0.0359548
-0.00428308
0.0463562
-0.00502962
0.051521
-0.00539368
0.0537157
-0.00547303
0.0547935
-0.00532072
0.0553826
-0.00499963
0.0556947
-0.00457416
0.055849
-0.00409127
0.0559194
-0.00357666
0.0559455
-0.00305139
0.055946
-0.0024606
0.0559129
-0.00195071
0.055925
-0.00111453
0.0555312
-0.000800235
0.0559982
0.000682156
0.0530189
0.0578291
0.00462172
-0.014814
0.0108317
-0.0602976
0.0179662
-0.0917139
0.0254072
-0.130706
0.0328372
-0.183899
0.0421244
-0.249518
0.052448
-0.292206
0.0617504
-0.325052
0.0684451
-0.343972
0.0547738
-0.327036
0.0381351
-0.206682
0.0208931
-0.128178
0.00806076
-0.0492656
0.00046725
0.00647243
-0.00360513
0.0357166
-0.00533506
0.0475542
-0.00601333
0.0523521
-0.00615699
0.05415
-0.00599731
0.0548314
-0.00564262
0.0551339
-0.00516792
0.0552716
-0.00462722
0.0553304
-0.00405188
0.0553499
-0.00345927
0.0553438
-0.00282627
0.0552823
-0.00224358
0.0553401
-0.00156481
0.0548638
-0.0010695
0.0554999
-0.00106906
0.0530316
0.0567568
0.0113041
-0.0798398
0.0192137
-0.177092
0.0270909
-0.235609
0.0338157
-0.279501
0.0408757
-0.302236
0.0510729
-0.323833
0.0648755
-0.351258
0.0821081
-0.387412
0.102744
-0.429612
0.125135
-0.47121
0.119501
-0.500628
0.068019
-0.457858
0.0351547
-0.210442
0.0138701
-0.0856287
0.00286112
-0.00352735
-0.00216884
0.0354302
-0.00412894
0.0481946
-0.00478878
0.052692
-0.00486084
0.0542013
-0.00465072
0.0546372
-0.00429408
0.0547839
-0.00386078
0.0548365
-0.00338796
0.0548507
-0.00289932
0.0548434
-0.00239517
0.0547783
-0.00191199
0.054855
-0.00147595
0.0544366
-0.00103155
0.0550543
-0.00136423
0.053372
0.0553932
0.0124102
-0.2101
0.0189578
-0.267074
0.0274202
-0.277155
0.0328136
-0.2959
0.0375223
-0.306766
0.0442939
-0.323281
0.0562557
-0.34862
0.0740494
-0.38582
0.09855
-0.431746
0.130765
-0.483816
0.165082
-0.544556
0.193053
-0.600227
0.114287
-0.601624
0.0526033
-0.364474
0.0192854
-0.120244
0.00450089
-0.00901795
-0.00130577
0.0358686
-0.00331368
0.0488066
-0.00386053
0.0528728
-0.00384681
0.0540414
-0.00360164
0.0543482
-0.00325789
0.0544163
-0.00286856
0.0544299
-0.00246249
0.0544241
-0.00205171
0.0543662
-0.00164605
0.0544478
-0.00131923
0.054117
-0.000898741
0.0546337
-0.00106475
0.0535435
0.0543304
0.015125
-0.241776
0.0187959
-0.266106
0.024551
-0.270377
0.0285368
-0.286651
0.0316104
-0.298166
0.0359082
-0.314747
0.0460667
-0.33832
0.0635117
-0.374935
0.0894852
-0.426547
0.123939
-0.486355
0.164532
-0.548586
0.20999
-0.609576
0.247998
-0.677734
0.221925
-0.694896
0.0718835
-0.532252
0.0234435
-0.142609
0.00490275
-0.00915921
-0.00135346
0.0375155
-0.00318212
0.0494924
-0.00353142
0.052933
-0.0033985
0.0537986
-0.00309895
0.0539978
-0.00273844
0.0540299
-0.00235595
0.0540269
-0.00197541
0.0539834
-0.00158161
0.0540531
-0.00127323
0.0538149
-0.000843566
0.0542048
-0.000794356
0.0534987
0.0535386
0.0106915
-0.241698
0.0126344
-0.248456
0.0177561
-0.246151
0.0201861
-0.260679
0.0221845
-0.269763
0.0247782
-0.284731
0.0319884
-0.303974
0.0473048
-0.336777
0.0737562
-0.390831
0.111269
-0.462254
0.156554
-0.54191
0.205465
-0.615664
0.257593
-0.679938
0.300909
-0.748375
0.294255
-0.772528
0.0865416
-0.604143
0.0253262
-0.14637
0.0045697
-0.00363599
-0.00151162
0.0400639
-0.00300606
0.0502159
-0.00316635
0.0528942
-0.00294896
0.0535132
-0.0026217
0.0536353
-0.00226039
0.0536472
-0.00190137
0.0536208
-0.00152091
0.053672
-0.00121374
0.0535129
-0.000793163
0.0537852
-0.000610826
0.0533198
0.0529305
0.00405979
-0.231735
0.00358371
-0.213189
0.0078507
-0.210497
0.00823944
-0.221358
0.00955957
-0.230518
0.0106659
-0.246651
0.0143335
-0.265453
0.0255387
-0.295209
0.0498868
-0.34501
0.0880245
-0.413379
0.138377
-0.501471
0.195533
-0.597809
0.25311
-0.682953
0.310415
-0.75059
0.358192
-0.816958
0.347752
-0.836743
0.0928577
-0.626696
0.0243974
-0.130475
0.00376173
0.00857653
-0.00159446
0.0429367
-0.00270476
0.0508567
-0.00271745
0.0527969
-0.00245621
0.0532146
-0.00212708
0.0532842
-0.00179158
0.0532797
-0.0014333
0.053313
-0.00113053
0.0532148
-0.000736153
0.0533927
-0.000489699
0.0530767
0.0524429
-0.00251591
-0.203531
-0.00528958
-0.171452
-0.0043319
-0.171348
-0.00582954
-0.176427
-0.00496284
-0.188051
-0.00533143
-0.205346
-0.00410348
-0.225914
0.00325468
-0.253952
0.023309
-0.300114
0.0586654
-0.366612
0.109116
-0.450091
0.172256
-0.547853
0.24084
-0.657358
0.306283
-0.750488
0.368108
-0.819443
0.419578
-0.885333
0.381792
-0.883112
0.0900376
-0.576121
0.0211059
-0.0990578
0.00275685
0.0207023
-0.00155094
0.0456212
-0.00230121
0.0513434
-0.0022148
0.0526632
-0.00194371
0.0529249
-0.00163976
0.0529641
-0.00131322
0.0529849
-0.00102456
0.0529301
-0.000668252
0.0530384
-0.000403302
0.0528146
0.0520418
-0.0080681
-0.166179
-0.0131529
-0.128443
-0.0167909
-0.12986
-0.0195386
-0.130846
-0.0198188
-0.145461
-0.0210242
-0.164575
-0.0221684
-0.188655
-0.0197356
-0.216831
-0.00231555
-0.258234
0.0294117
-0.320919
0.0772224
-0.404552
0.139816
-0.496884
0.214679
-0.604155
0.29357
-0.722221
0.365456
-0.81907
0.431127
-0.886887
0.484086
-0.954667
0.384802
-0.901362
0.0795535
-0.388363
0.0165229
-0.0596161
0.00174667
0.0302978
-0.00144063
0.0478161
-0.0018875
0.0516621
-0.00174202
0.0525032
-0.0014807
0.0526605
-0.0011885
0.0526875
-0.00091862
0.0526638
-0.000601392
0.0527237
-0.000340007
0.0525558
0.0517026
-0.0112861
-0.125597
-0.0198484
-0.0886317
-0.027705
-0.089979
-0.0323616
-0.0897214
-0.0339383
-0.106741
-0.0363647
-0.127916
-0.0390839
-0.155305
-0.0400967
-0.184992
-0.0293377
-0.223387
0.00231881
-0.278995
0.0467699
-0.361754
0.106681
-0.453214
0.180709
-0.554044
0.266813
-0.669321
0.354705
-0.792645
0.431496
-0.888222
0.498604
-0.954376
0.55139
-1.02281
0.294644
-0.891064
0.0636947
-0.276033
0.0117558
-0.0227686
0.000886597
0.0378115
-0.00129398
0.0494064
-0.00150723
0.0518271
-0.00132806
0.0523289
-0.00107385
0.0524128
-0.000824059
0.0524156
-0.000541978
0.052444
-0.000293348
0.05231
0.0514107
-0.0137249
-0.0883984
-0.0253459
-0.0545145
-0.0371145
-0.0557182
-0.0439613
-0.0563898
-0.0472155
-0.0747213
-0.051838
-0.0973253
-0.0549578
-0.12696
-0.0576955
-0.158523
-0.0522611
-0.195336
-0.027604
-0.244336
0.0182533
-0.320962
0.0757176
-0.413911
0.146917
-0.51231
0.232646
-0.619133
0.329626
-0.742728
0.424914
-0.867263
0.505642
-0.95706
0.570014
-1.02479
0.616115
-1.07523
0.180266
-0.844947
0.0458345
-0.179589
0.00760858
0.00718051
0.000263097
0.0433287
-0.00112302
0.0504334
-0.00116905
0.0518652
-0.000972416
0.0521375
-0.000744031
0.0521828
-0.000491571
0.0521928
-0.000258397
0.0520788
0.0511527
-0.0145134
-0.0579573
-0.0298527
-0.0296361
-0.0438924
-0.0300842
-0.0541813
-0.0319385
-0.0605164
-0.0501297
-0.0658517
-0.0734058
-0.0700351
-0.1045
-0.0735998
-0.13675
-0.0719082
-0.172755
-0.0538814
-0.215705
-0.00977984
-0.285587
0.0467221
-0.376655
0.115621
-0.475959
0.198493
-0.578476
0.296247
-0.692126
0.403592
-0.823421
0.503833
-0.944538
0.589265
-1.02556
0.66218
-1.10193
0.633858
-1.07988
0.137578
-0.611238
0.0295606
-0.0923755
0.00443836
0.0264818
-0.000168327
0.046964
-0.000929517
0.051015
-0.000870288
0.0518067
-0.000673851
0.0519523
-0.000447965
0.0519657
-0.000230771
0.0518635
0.0509222
-0.0155979
-0.0369514
-0.0349135
-0.0151591
-0.0499689
-0.0170362
-0.0627928
-0.0189399
-0.0715297
-0.0368709
-0.0785985
-0.0563205
-0.0840136
-0.0875926
-0.0874404
-0.117196
-0.088844
-0.153853
-0.0769373
-0.187225
-0.0399555
-0.257748
0.0192034
-0.341765
0.0864818
-0.444238
0.166756
-0.544757
0.261671
-0.652301
0.372051
-0.773958
0.488471
-0.909876
0.59117
-1.02348
0.678204
-1.09674
0.752267
-1.18394
0.535408
-0.983933
0.0949179
-0.345184
0.0174045
-0.028997
0.00230201
0.0374073
-0.000380323
0.0491314
-0.000720692
0.0512852
-0.000602232
0.0517013
-0.000406497
0.0517557
-0.000206745
0.0516648
0.050716
-0.0150001
-0.0199723
-0.0364734
-0.00268905