/*--------------------------------*- C++ -*----------------------------------*\
| =========                 |                                                 |
| \\      /  F ield         | OpenFOAM: The Open Source CFD Toolbox           |
|  \\    /   O peration     | Version:  2112                                  |
|   \\  /    A nd           | Website:  www.openfoam.com                      |
|    \\/     M anipulation  |                                                 |
\*---------------------------------------------------------------------------*/
FoamFile
{
    version     2.0;
    format      ascii;
    arch        "LSB;label=32;scalar=64";
    class       volScalarField;
    location    "0.00441";
    object      alphat;
}
// * * * * * * * * * * * * * * * * * * * * * * * * * * * * * * * * * * * * * //

dimensions      [1 -1 -1 0 0 0 0];

internalField   nonuniform List<scalar> 
13875
(
0.119858
0.0816047
0.0784613
0.0782802
0.0782713
0.0783426
0.0783303
0.0783798
0.0783588
0.07828
0.0782678
0.0783138
0.0783808
0.078415
0.0783986
0.0782889
0.0782277
0.0782869
0.0783349
0.078371
0.0782859
0.0782584
0.0784841
0.0814321
0.120905
0.103941
0.0576823
0.057096
0.0571699
0.0566777
0.05656
0.0565341
0.0565918
0.0566685
0.057006
0.0571207
0.0571174
0.0566589
0.0566198
0.0566726
0.0570736
0.0570558
0.0570435
0.0566724
0.0565815
0.0566324
0.0571369
0.0570713
0.0573708
0.104672
0.110623
0.055329
0.0558857
0.0547001
0.0544467
0.0542866
0.0541891
0.0541987
0.0541802
0.0540425
0.0542918
0.0543684
0.0542844
0.0543079
0.0542574
0.0543407
0.0540331
0.0542778
0.0543353
0.0543832
0.0544465
0.0545646
0.0557716
0.0551
0.111239
0.115892
0.0546483
0.0553884
0.0542883
0.053889
0.0537457
0.0536514
0.0536594
0.0536445
0.0534066
0.0534616
0.0535703
0.0537437
0.0537729
0.0537143
0.053554
0.053369
0.0535834
0.0537922
0.0538491
0.053913
0.0541662
0.0551902
0.0543
0.115738
0.12104
0.0546365
0.0551275
0.0537164
0.0535518
0.0533406
0.0531992
0.0531841
0.0531591
0.0529259
0.0529679
0.0530822
0.0532666
0.0532993
0.0532391
0.0530698
0.0528884
0.0530771
0.0533303
0.0534101
0.0535347
0.0535738
0.0550077
0.0543181
0.121282
0.124417
0.0547458
0.0551878
0.0535703
0.0531552
0.0529314
0.0527939
0.0527771
0.0527489
0.0525188
0.0525303
0.0526293
0.0528536
0.0528924
0.0528187
0.0526206
0.0524786
0.0526677
0.0529224
0.0530308
0.0531653
0.0534696
0.0548825
0.0543916
0.124037
0.128754
0.0564726
0.0557808
0.0534139
0.0531496
0.0527771
0.0525392
0.0524712
0.0524149
0.0521855
0.052161
0.0522736
0.0525255
0.0525705
0.0524912
0.0522618
0.0521535
0.052315
0.0526442
0.0528614
0.053143
0.053338
0.0556331
0.0563518
0.128975
0.135711
0.0611913
0.0578341
0.0543789
0.0533003
0.0527414
0.0524164
0.0523105
0.0522312
0.0519966
0.0519058
0.0520023
0.0523192
0.0523823
0.0522824
0.0520062
0.0519708
0.0521431
0.0525237
0.0528272
0.0533123
0.05427
0.0575293
0.0610352
0.13566
0.151351
0.0692487
0.0615559
0.0559209
0.0543939
0.0533223
0.0527043
0.052425
0.0522596
0.0520109
0.051867
0.0519493
0.0523346
0.0524291
0.052313
0.0519791
0.0520094
0.0521802
0.0526846
0.0533366
0.0543254
0.0557138
0.0610195
0.0683815
0.154297
0.239214
0.0873823
0.0664908
0.0590185
0.0556385
0.054192
0.0534003
0.0529701
0.0527052
0.0524304
0.052259
0.0523063
0.0527683
0.0529033
0.0527725
0.05242
0.0524836
0.0526737
0.0532466
0.0541539
0.0556999
0.0588062
0.066141
0.0868253
0.24132
0.365137
0.118473
0.076233
0.0627385
0.0585788
0.0561324
0.054964
0.0542949
0.0538989
0.0535912
0.0534177
0.0534211
0.0539362
0.0541243
0.0540163
0.0537024
0.0537552
0.0539575
0.0545925
0.0558593
0.058316
0.0625028
0.0749964
0.112811
0.365155
0.657684
0.194117
0.104626
0.0761829
0.0646355
0.0601653
0.0583632
0.0573183
0.0567578
0.05639
0.0562186
0.0561913
0.056696
0.0569541
0.0569121
0.0567224
0.0567771
0.0570541
0.0578989
0.0595605
0.0643447
0.0752826
0.102781
0.185396
0.64481
0.58246
0.424047
0.185312
0.096838
0.0820605
0.0712646
0.0666235
0.0647629
0.0637806
0.0632755
0.0630969
0.063065
0.0634592
0.063783
0.0638746
0.0639124
0.0641568
0.0648104
0.0663947
0.070863
0.0807441
0.0929989
0.175345
0.422348
0.58077
0.498646
0.40063
0.360795
0.371929
0.139684
0.0985911
0.0880543
0.0855096
0.0836636
0.0828266
0.0825817
0.0825917
0.0828361
0.0832126
0.0834951
0.0839053
0.0847714
0.0866945
0.0896228
0.100424
0.157607
0.371304
0.352884
0.400825
0.505121
0.409549
0.35362
0.346836
0.381495
0.318327
0.215825
0.186595
0.147575
0.135208
0.13263
0.13146
0.131406
0.131414
0.131817
0.13249
0.13397
0.136834
0.147678
0.191588
0.226096
0.31487
0.376849
0.340552
0.365669
0.428722
0.351292
0.321942
0.320421
0.380634
0.458651
0.511881
0.481534
0.454238
0.479233
0.492579
0.493241
0.490505
0.491234
0.49422
0.494931
0.494507
0.478936
0.451541
0.480279
0.52114
0.461926
0.386255
0.325868
0.328257
0.363393
0.271124
0.276939
0.329445
0.411702
0.480624
0.535618
0.532277
0.496393
0.461644
0.457004
0.457261
0.457025
0.458243
0.460185
0.460987
0.461056
0.466664
0.495159
0.517276
0.530745
0.48713
0.41794
0.328582
0.283034
0.286287
0.202362
0.256871
0.339336
0.387213
0.4265
0.475921
0.480712
0.462544
0.43398
0.417475
0.412673
0.411118
0.412706
0.41483
0.417515
0.42329
0.439021
0.461959
0.4663
0.47001
0.431554
0.404
0.344886
0.243163
0.185516
0.0951828
0.183515
0.324219
0.35169
0.366509
0.393003
0.395435
0.393058
0.382257
0.367501
0.357809
0.353054
0.353175
0.354855
0.3587
0.366349
0.379332
0.386019
0.382492
0.386423
0.364477
0.353213
0.32815
0.186458
0.0948808
0.0401403
0.127949
0.248471
0.285388
0.294918
0.320652
0.340353
0.349132
0.347332
0.333507
0.319785
0.311626
0.310896
0.313638
0.320821
0.33162
0.342913
0.342263
0.332527
0.318505
0.298201
0.29185
0.252215
0.127517
0.039098
0.0409471
0.100535
0.171435
0.211101
0.232451
0.263124
0.290176
0.307385
0.31235
0.300484
0.284815
0.275755
0.274298
0.278459
0.286904
0.299724
0.308645
0.30183
0.285216
0.26118
0.23393
0.212337
0.166389
0.0941409
0.0376805
0.0904275
0.118641
0.128642
0.165548
0.186613
0.221914
0.249368
0.268747
0.27648
0.266572
0.2517
0.241728
0.240105
0.24423
0.253812
0.266209
0.273247
0.264015
0.245093
0.220141
0.187536
0.166075
0.12491
0.114892
0.0868728
0.14119
0.132871
0.118888
0.133587
0.154281
0.189665
0.214693
0.234613
0.24369
0.23503
0.220481
0.211345
0.209101
0.213126
0.22165
0.233966
0.239982
0.229491
0.210455
0.187227
0.154789
0.133342
0.116952
0.129723
0.137355
0.167586
0.142779
0.115704
0.117567
0.134565
0.161941
0.18452
0.204143
0.212846
0.204563
0.191794
0.183244
0.181724
0.184855
0.193006
0.203674
0.208989
0.198917
0.17965
0.160052
0.135492
0.11805
0.114578
0.142096
0.160473
0.185001
0.156827
0.114135
0.109676
0.120883
0.140045
0.159856
0.177582
0.18554
0.178289
0.16653
0.159791
0.157975
0.161234
0.167757
0.177929
0.182961
0.173259
0.155806
0.137965
0.120588
0.10962
0.113015
0.155393
0.176224
0.199565
0.174957
0.114178
0.106482
0.110828
0.123985
0.140281
0.154791
0.161174
0.155089
0.145517
0.138806
0.13765
0.139902
0.146191
0.15421
0.158073
0.150395
0.136205
0.122029
0.110674
0.106332
0.112557
0.166384
0.200283
0.221531
0.18793
0.11532
0.105198
0.103967
0.111729
0.124354
0.135523
0.140442
0.135266
0.126715
0.121718
0.120306
0.122715
0.127366
0.134876
0.138361
0.131877
0.120852
0.109063
0.102289
0.104545
0.113494
0.182398
0.222635
0.244781
0.197881
0.11673
0.103221
0.0991686
0.102519
0.110863
0.118732
0.122131
0.117807
0.111302
0.106479
0.105712
0.107258
0.111969
0.117653
0.120562
0.116146
0.108049
0.100584
0.0975152
0.10258
0.115465
0.194021
0.256482
0.281056
0.207076
0.119123
0.101202
0.0957286
0.0956816
0.100509
0.105813
0.107922
0.104025
0.0978007
0.094384
0.0932412
0.0949257
0.0981017
0.103359
0.106101
0.102965
0.0976495
0.0929953
0.0935881
0.100025
0.117194
0.202582
0.286323
0.321262
0.215972
0.120341
0.0988036
0.0919325
0.090665
0.0917094
0.0940863
0.0946972
0.0911072
0.0867234
0.0833002
0.0827407
0.0837678
0.0871653
0.0910268
0.093487
0.0919013
0.0889777
0.0882442
0.0897531
0.0978176
0.120848
0.217381
0.308769
0.335962
0.226688
0.124973
0.0964721
0.0883272
0.0851734
0.0843343
0.0850014
0.084518
0.0813669
0.0769096
0.0746175
0.0737251
0.075053
0.0772255
0.0811171
0.0837267
0.0834114
0.0824208
0.0831908
0.0863819
0.0955581
0.124083
0.232123
0.333015
0.344058
0.234185
0.129163
0.0960219
0.0851094
0.0811079
0.0784026
0.0773723
0.0758171
0.0723178
0.0691383
0.0665639
0.0661385
0.0669458
0.0693572
0.0721022
0.0746571
0.0755933
0.076172
0.0792007
0.0831723
0.0948027
0.129428
0.239321
0.345134
0.355003
0.234918
0.136733
0.0969347
0.0819682
0.0761617
0.072908
0.070911
0.068757
0.0656712
0.0620721
0.0603456
0.0595947
0.0606936
0.0622506
0.0654303
0.0681776
0.0697075
0.0711936
0.0745101
0.0801243
0.0956067
0.137808
0.24247
0.35472
0.359804
0.237241
0.148937
0.0978952
0.0797001
0.0726316
0.0681812
0.0650769
0.0624838
0.0590955
0.0565177
0.0544613
0.0540663
0.0547486
0.0566812
0.0589862
0.0617969
0.063993
0.0667064
0.0713374
0.0780853
0.0964955
0.147122
0.241588
0.364153
0.358727
0.238659
0.155188
0.102289
0.0786153
0.069061
0.0635319
0.0605281
0.0575617
0.0546003
0.0515015
0.0500299
0.0493142
0.0502392
0.0515473
0.0543756
0.057135
0.059495
0.0621655
0.0678265
0.0772139
0.100287
0.158478
0.240175
0.370864
0.36361
0.236622
0.154915
0.10508
0.0789039
0.0666142
0.0599167
0.0560308
0.0530376
0.0497008
0.0474225
0.0456998
0.0452854
0.0458728
0.0475769
0.0496922
0.0524979
0.0552883
0.0586384
0.065516
0.0780789
0.105001
0.159285
0.236162
0.371791
0.365859
0.233426
0.154616
0.112975
0.0799288
0.0643621
0.0562256
0.0523249
0.0492327
0.0465502
0.0437942
0.0424824
0.0417968
0.0426386
0.0438617
0.0464874
0.0490925
0.0518074
0.055381
0.0636698
0.0789786
0.113732
0.157815
0.230378
0.372405
0.364649
0.228326
0.153398
0.123592
0.0829237
0.0641692
0.0542365
0.0490924
0.0458923
0.0427989
0.0407537
0.0392126
0.0388139
0.039391
0.0409118
0.0428007
0.0454487
0.0485612
0.0533319
0.0630794
0.0822482
0.126247
0.155268
0.225965
0.367217
0.365903
0.222783
0.148985
0.124438
0.0867132
0.0637247
0.0522739
0.0465825
0.0430598
0.0404881
0.0380172
0.0368409
0.0362293
0.0370361
0.0381069
0.0404796
0.0430129
0.0461621
0.0514153
0.0634638
0.0873474
0.127813
0.15069
0.22335
0.360781
0.364872
0.220538
0.141527
0.123709
0.0937419
0.0652262
0.0521008
0.0445734
0.0406336
0.0374896
0.0356891
0.0343267
0.0339722
0.0345178
0.0358588
0.0375639
0.0403213
0.044254
0.051508
0.0647197
0.0955474
0.126402
0.141425
0.220503
0.359894
0.359195
0.218601
0.134881
0.122926
0.105414
0.067476
0.0518157
0.0434825
0.038771
0.0360125
0.0336602
0.0325969
0.0320023
0.0327381
0.0337036
0.0359913
0.0387797
0.043277
0.0509382
0.0679874
0.108382
0.123804
0.134235
0.220743
0.3558
0.357604
0.217322
0.128999
0.118657
0.105235
0.0721986
0.0525148
0.0432898
0.0375211
0.0337263
0.0318959
0.0306286
0.0302813
0.0307553
0.0320341
0.0337683
0.0372193
0.0430807
0.0525605
0.0741922
0.108362
0.118705
0.130063
0.220731
0.351636
0.349895
0.217268
0.125272
0.113017
0.104783
0.0800112
0.053991
0.0431772
0.0367992
0.0331312
0.0304435
0.0293565
0.0287569
0.0294733
0.0304647
0.0331476
0.0368843
0.0430637
0.0544951
0.0839308
0.106914
0.112705
0.125897
0.21841
0.348443
0.343074
0.217326
0.123972
0.107262
0.102309
0.0882768
0.0582861
0.0439385
0.0368924
0.0316197
0.0292837
0.0278343
0.0274423
0.0279487
0.0293823
0.0316034
0.0366376
0.0438122
0.059935
0.0884112
0.102787
0.107085
0.123744
0.218214
0.345096
0.337351
0.213959
0.121778
0.103407
0.0982672
0.0882031
0.0646328
0.045344
0.0366944
0.0321689
0.0286781
0.0270876
0.0263703
0.0271908
0.0286707
0.0322072
0.0369594
0.0460776
0.0682581
0.0881532
0.0970341
0.10322
0.123253
0.215746
0.33763
0.332392
0.213167
0.122278
0.0995533
0.0929159
0.0867262
0.0747536
0.0491974
0.0376313
0.0315864
0.0285635
0.0263424
0.0256721
0.0264483
0.0285428
0.0315516
0.0377885
0.0504096
0.0744204
0.0860446
0.0915293
0.0995973
0.122987
0.213176
0.334092
0.323475
0.209185
0.122519
0.0984864
0.0891681
0.0842088
0.0750973
0.0556172
0.0394311
0.0325438
0.0286016
0.0264582
0.0253135
0.0265884
0.0285087
0.032595
0.0402372
0.0572024
0.0740163
0.0823615
0.0878817
0.0981569
0.12247
0.209844
0.325888
0.317387
0.206215
0.122241
0.0965218
0.0858626
0.0799799
0.0741369
0.0647865
0.0439644
0.0327976
0.0286704
0.0262461
0.0253166
0.0263812
0.0287467
0.0329983
0.0456677
0.0650798
0.0734057
0.0786082
0.0849059
0.0966544
0.12321
0.207037
0.317149
0.297626
0.198525
0.120626
0.0963508
0.0838187
0.0763283
0.0719477
0.0652545
0.0504974
0.0360748
0.0292031
0.026616
0.0254178
0.0267454
0.0293055
0.0367204
0.0536289
0.0652359
0.07112
0.0755979
0.0833565
0.0962262
0.121247
0.198677
0.296081
0.269968
0.188135
0.118593
0.0942508
0.0821757
0.0737597
0.0687441
0.0642845
0.0574965
0.0402854
0.0307952
0.0267695
0.0257528
0.0268728
0.0311191
0.0407264
0.057223
0.064198
0.068199
0.0731991
0.0817489
0.094038
0.118523
0.187849
0.269199
0.0772931
0.215324
0.291053
0.319825
0.329619
0.33515
0.34005
0.34519
0.350963
0.35665
0.361815
0.367098
0.372986
0.38044
0.393837
0.447532
0.682432
0.897234
0.938075
0.932647
0.908277
0.879375
0.856839
0.839221
0.82273
0.799257
0.756747
0.674941
0.512852
0.186952
0.0718514
0.224621
0.299604
0.326178
0.334793
0.339822
0.344987
0.35002
0.354796
0.360244
0.365986
0.371849
0.378512
0.389743
0.430743
0.631504
0.901122
0.959547
0.957642
0.94178
0.909102
0.877218
0.85312
0.833629
0.814075
0.786998
0.740454
0.654205
0.493251
0.183589
0.0754814
0.239722
0.308231
0.331184
0.338638
0.34432
0.349121
0.35416
0.359231
0.364902
0.37105
0.377405
0.386375
0.414671
0.551191
0.897333
0.986616
0.988815
0.969189
0.944233
0.899073
0.867412
0.84371
0.822854
0.800108
0.768676
0.717905
0.627767
0.466446
0.178567
0.0781939
0.249464
0.313456
0.33485
0.342476
0.347939
0.353242
0.358807
0.364264
0.370232
0.376821
0.384603
0.404733
0.497928
0.857488
1.01105
1.02654
1.00339
0.971324
0.930892
0.883799
0.846072
0.820115
0.798845
0.775715
0.743368
0.690681
0.599026
0.439775
0.175087
0.0789629
0.253954
0.317476
0.339186
0.34675
0.352193
0.357927
0.364064
0.370237
0.377225
0.384954
0.400619
0.469045
0.781028
1.01804
1.05585
1.04066
1.00483
0.964203
0.915817
0.863324
0.824145
0.796058
0.773333
0.748776
0.71437
0.660343
0.568132
0.414526
0.171409
0.0798816
0.258827
0.322331
0.343603
0.351024
0.356967
0.363328
0.37036
0.3782
0.386842
0.401375
0.457818
0.724337
1.01485
1.07244
1.06461
1.03606
0.995705
0.94724
0.8986
0.844074
0.804746
0.774359
0.749607
0.723405
0.686778
0.631944
0.540595
0.393493
0.16835
0.0811883
0.264385
0.327347
0.347981
0.355856
0.362484
0.370316
0.379651
0.391272
0.408483
0.462612
0.705518
1.00325
1.07403
1.07173
1.04905
1.01628
0.971463
0.92339
0.879581
0.82541
0.784675
0.75327
0.727448
0.700271
0.662318
0.606246
0.515325
0.373271
0.164793
0.0827868
0.26986
0.332171
0.352854
0.361595
0.371266
0.38481
0.404067
0.432742
0.489261
0.725386
0.980387
1.05416
1.05769
1.04
1.01391
0.976021
0.934041
0.890883
0.854886
0.804823
0.761327
0.730107
0.703956
0.676203
0.637544
0.580081
0.489881
0.353626
0.161256
0.084161
0.275296
0.337726
0.359207
0.37336
0.396992
0.434375
0.490562
0.595669
0.773655
0.935987
1.00112
1.01647
1.00611
0.987452
0.953814
0.919015
0.883871
0.848012
0.821805
0.77963
0.73366
0.703507
0.677657
0.649744
0.610467
0.552135
0.463525
0.333959
0.157288
0.0852492
0.281588
0.345086
0.374895
0.41502
0.493348
0.618437
0.71854
0.777088
0.866973
0.916477
0.93787
0.945116
0.935355
0.908668
0.874686
0.850678
0.824754
0.797441
0.780289
0.747797
0.701244
0.672753
0.647659
0.619958
0.580324
0.521941
0.43603
0.314123
0.152835
0.0865639
0.289716
0.36327
0.431945
0.575323
0.700545
0.727192
0.734893
0.749012
0.801045
0.831299
0.849319
0.85831
0.840374
0.810823
0.790318
0.778371
0.761709
0.741903
0.732063
0.709947
0.664925
0.637716
0.613803
0.586496
0.546736
0.489226
0.407101
0.293712
0.147711
0.0886713
0.30848
0.428166
0.628321
0.708918
0.696951
0.667831
0.648897
0.650839
0.694646
0.725553
0.747952
0.751643
0.733259
0.713524
0.705644
0.703094
0.693865
0.681275
0.678282
0.666473
0.625786
0.599266
0.576657
0.549882
0.510151
0.454728
0.377462
0.273273
0.142164
0.0966222
0.371962
0.631682
0.71572
0.661335
0.603833
0.55975
0.537812
0.539117
0.574904
0.603807
0.635521
0.644098
0.632779
0.620474
0.621792
0.626423
0.623688
0.618597
0.62172
0.618334
0.584354
0.558567
0.537642
0.511602
0.472586
0.420465
0.348779
0.253931
0.136499
0.146762
0.591039
0.746437
0.649482
0.55834
0.493791
0.451644
0.434426
0.435018
0.461158
0.494013
0.532079
0.545389
0.539675
0.534955
0.542502
0.552364
0.555264
0.557508
0.565034
0.568043
0.541055
0.516882
0.4979
0.473042
0.436113
0.387883
0.322032
0.236241
0.131039
0.314439
0.80142
0.680591
0.543041
0.455898
0.401274
0.367757
0.353065
0.352444
0.370902
0.400959
0.439819
0.457831
0.458273
0.460048
0.472411
0.485102
0.492248
0.500291
0.510472
0.51774
0.497227
0.475652
0.458623
0.435357
0.40146
0.357215
0.297238
0.219994
0.125751
0.398638
0.770451
0.576334
0.454127
0.381826
0.338135
0.311301
0.294758
0.293354
0.30399
0.329435
0.364338
0.386167
0.392383
0.399102
0.411805
0.426557
0.436615
0.448255
0.459972
0.469229
0.454339
0.436106
0.420999
0.399483
0.368824
0.328529
0.274278
0.204917
0.12051
0.42994
0.688603
0.506088
0.39578
0.331118
0.296823
0.272457
0.25483
0.250649
0.258624
0.278776
0.307684
0.331208
0.341054
0.351211
0.362665
0.377389
0.38963
0.402276
0.414742
0.423876
0.413519
0.399015
0.38572
0.36593
0.338444
0.301959
0.253138
0.191051
0.115419
0.441128
0.626198
0.461392
0.35414
0.293615
0.264467
0.241588
0.223663
0.218141
0.225965
0.245178
0.269953
0.291661
0.303866
0.313858
0.323687
0.337378
0.349731
0.362706
0.375064
0.382775
0.37577
0.364799
0.352934
0.335025
0.310578
0.277675
0.233875
0.178468
0.110576
0.432917
0.556499
0.402658
0.316453
0.274449
0.258973
0.24489
0.222721
0.202775
0.200043
0.223159
0.245035
0.263555
0.280319
0.285628
0.293232
0.30511
0.317267
0.329734
0.34086
0.346639
0.341924
0.333228
0.322768
0.306941
0.285314
0.255729
0.21652
0.167137
0.10604
0.400773
0.47815
0.374444
0.322463
0.303996
0.291038
0.275632
0.248489
0.216119
0.192866
0.205008
0.229609
0.244598
0.265019
0.265203
0.270351
0.280877
0.290879
0.302051
0.311925
0.315772
0.311871
0.304767
0.295572
0.28175
0.262604
0.236074
0.201001
0.156976
0.101803
0.35079
0.426331
0.401166
0.339894
0.329058
0.305831
0.284129
0.256812
0.226184
0.201392
0.194153
0.216569
0.235822
0.256192
0.250851
0.254028
0.26215
0.269888
0.279635
0.287433
0.289372
0.285551
0.27985
0.271491
0.259312
0.242202
0.218461
0.187059
0.147803
0.0977969
0.307002
0.408048
0.412292
0.350491
0.341846
0.314582
0.292898
0.268083
0.237152
0.21072
0.198059
0.210466
0.233558
0.253418
0.241999
0.243058
0.248011
0.25339
0.261191
0.266032
0.267695
0.263357
0.257937
0.250225
0.239403
0.22395
0.202633
0.174456
0.139458
0.0939658
0.278367
0.372252
0.398442
0.357835
0.35574
0.322526
0.300624
0.27719
0.253015
0.22672
0.208484
0.213993
0.235946
0.257357
0.236934
0.234823
0.23588
0.239003
0.245599
0.248531
0.247897
0.242709
0.238486
0.2316
0.221998
0.207997
0.188717
0.1632
0.131848
0.0903446
0.288976
0.36749
0.384663
0.369173
0.36871
0.332463
0.302705
0.282049
0.269803
0.249536
0.225287
0.223705
0.242028
0.274018
0.239774
0.230465
0.227096
0.227905
0.232516
0.23324
0.22939
0.225942
0.222411
0.21586
0.207009
0.194066
0.176467
0.153236
0.124902
0.0869705
0.270965
0.292692
0.368763
0.3877
0.37633
0.332984
0.310295
0.289242
0.282632
0.273583
0.246501
0.235653
0.253801
0.288204
0.249164
0.229342
0.220844
0.219199
0.220189
0.218336
0.214835
0.212168
0.208882
0.202495
0.194061
0.181934
0.165711
0.144442
0.118658
0.0838827
0.186759
0.513053
0.675064
0.756992
0.799731
0.823705
0.840995
0.859438
0.882986
0.913511
0.939932
0.946085
0.905493
0.693547
0.451708
0.39574
0.381858
0.37443
0.36855
0.363255
0.357826
0.352119
0.346267
0.341203
0.336481
0.330977
0.320959
0.291708
0.215565
0.0774347
0.183476
0.493688
0.654696
0.741074
0.788049
0.815681
0.835979
0.856219
0.88123
0.915251
0.948763
0.964745
0.965971
0.907186
0.642361
0.434047
0.391226
0.379971
0.373208
0.36726
0.361417
0.355774
0.350775
0.34541
0.34065
0.335685
0.327348
0.300463
0.224921
0.0720613
0.178601
0.46718
0.628697
0.718995
0.770272
0.802448
0.826008
0.847573
0.872175
0.905067
0.949929
0.975508
0.994582
0.991432
0.90438
0.559499
0.417121
0.387841
0.378772
0.372256
0.365974
0.359996
0.35497
0.349742
0.344636
0.339249
0.332145
0.30923
0.240278
0.0756976
0.175248
0.440838
0.600283
0.692171
0.745478
0.778715
0.802567
0.824682
0.851383
0.889812
0.935495
0.975967
1.00761
1.03085
1.01581
0.869755
0.504796
0.407008
0.38606
0.378053
0.371354
0.364833
0.359361
0.353932
0.348733
0.34302
0.335598
0.314415
0.250261
0.0784531
0.171671
0.415754
0.569785
0.662365
0.717156
0.752492
0.777545
0.801061
0.829799
0.869315
0.919935
0.966908
1.0077
1.04384
1.0594
1.02342
0.797798
0.475562
0.403106
0.386441
0.37838
0.37112
0.364694
0.35862
0.352812
0.347316
0.339545
0.31821
0.254639
0.0791814
0.168687
0.394804
0.542441
0.634303
0.690014
0.727421
0.754096
0.779853
0.810954
0.850192
0.902178
0.94945
0.997744
1.0382
1.06704
1.07503
1.02094
0.745881
0.465545
0.40431
0.388591
0.379563
0.371446
0.364313
0.357716
0.351952
0.344427
0.32273
0.259167
0.0800025
0.165207
0.374675
0.517372
0.608864
0.665848
0.704394
0.732136
0.759044
0.79126
0.831521
0.882026
0.924779
0.97249
1.01716
1.05018
1.07249
1.07511
1.0101
0.732668
0.472771
0.413354
0.394648
0.381982
0.371965
0.363659
0.356796
0.348955
0.327792
0.264438
0.0813382
0.161738
0.355166
0.492104
0.582864
0.641307
0.680437
0.708814
0.735862
0.767653
0.810469
0.855829
0.891039
0.933956
0.975443
1.01339
1.03917
1.05605
1.05262
0.985075
0.755261
0.506293
0.444175
0.412076
0.389597
0.373736
0.363047
0.354082
0.332855
0.269883
0.0828047
0.157821
0.335599
0.465901
0.555046
0.61426
0.654037
0.682474
0.709083
0.739564
0.78442
0.821484
0.847312
0.882788
0.917247
0.951731
0.984972
1.00277
1.01182
0.995826
0.936757
0.798949
0.634349
0.524853
0.449541
0.40588
0.377275
0.361087
0.33874
0.275576
0.0842975
0.153395
0.3158
0.438476
0.52494
0.584178
0.624115
0.652282
0.678006
0.706675
0.751545
0.779281
0.796664
0.823364
0.848222
0.871424
0.90432
0.930331
0.938945
0.929903
0.907961
0.859102
0.77853
0.731715
0.657005
0.53005
0.428589
0.380401
0.346949
0.282328
0.0854933
0.14826
0.29536
0.409515
0.492192
0.550566
0.590463
0.618108
0.642447
0.669646
0.712478
0.730286
0.740675
0.759991
0.775378
0.786379
0.805545
0.833546
0.850936
0.840513
0.820806
0.786653
0.735392
0.727178
0.725862
0.710581
0.615745
0.449516
0.369364
0.291547
0.0868654
0.1427
0.274837
0.379736
0.457535
0.513844
0.553627
0.580572
0.603427
0.629685
0.667709
0.6762
0.679366
0.691721
0.699642
0.701152
0.708112
0.726428
0.743448
0.737133
0.712758
0.679494
0.635003
0.635711
0.655106
0.687964
0.709289
0.664531
0.448177
0.314674
0.0895309
0.137028
0.255375
0.350864
0.423042
0.475944
0.515131
0.541188
0.562162
0.587571
0.618321
0.619515
0.616252
0.621272
0.622802
0.617071
0.615088
0.626363
0.637136
0.624556
0.590507
0.560481
0.524516
0.524355
0.545574
0.590381
0.648937
0.713317
0.670811
0.392853
0.101084
0.131533
0.237542
0.323924
0.390218
0.439005
0.476428
0.501149
0.519957
0.543671
0.567139
0.56266
0.554916
0.552771
0.548937
0.537944
0.529968
0.533879
0.539235
0.520993
0.482264
0.449629
0.423507
0.423655
0.439935
0.481421
0.544843
0.637816
0.746168
0.649639
0.178011
0.126211
0.221164
0.298941
0.359341
0.403996
0.438501
0.461529
0.478187
0.499229
0.516429
0.508078
0.497727
0.489752
0.482124
0.468477
0.455625
0.453331
0.452515
0.429723
0.391165
0.362425
0.345124
0.34566
0.359875
0.392698
0.445722
0.532298
0.671098
0.809536
0.333146
0.120944
0.20597
0.275805
0.330426
0.371026
0.40223
0.423487
0.438127
0.455644
0.46775
0.457942
0.44605
0.434356
0.423963
0.40832
0.395682
0.388247
0.382206
0.355696
0.32204
0.298449
0.288454
0.290739
0.306297
0.332996
0.375509
0.448706
0.571521
0.767765
0.40247
0.115795
0.191947
0.254461
0.303583
0.340253
0.368204
0.387808
0.400637
0.414252
0.422448
0.413107
0.400423
0.387648
0.375143
0.359794
0.348624
0.337664
0.327309
0.301672
0.273703
0.254301
0.247059
0.251315
0.269087
0.29319
0.326772
0.393384
0.506109
0.685044
0.4286
0.110886
0.179204
0.23494
0.278991
0.311965
0.336796
0.354761
0.366174
0.376045
0.381622
0.373755
0.361105
0.34807
0.335622
0.321429
0.311874
0.301066
0.288112
0.266245
0.24114
0.221793
0.213996
0.220715
0.23976
0.262302
0.291621
0.353366
0.460278
0.616643
0.436289
0.106297
0.167754
0.217314
0.256768
0.286373
0.308295
0.324368
0.334381
0.341995
0.345798
0.339923
0.328354
0.315882
0.303844
0.291381
0.284416
0.278339
0.260078
0.242392
0.219008
0.196418
0.203002
0.224872
0.24878
0.263781
0.278412
0.31908
0.400565
0.544947
0.425928
0.10202
0.157464
0.201631
0.23693
0.263477
0.282726
0.296762
0.30569
0.311925
0.315283
0.31136
0.300868
0.289609
0.279767
0.268827
0.264623
0.263849
0.242096
0.227799
0.201125
0.193266
0.218929
0.250921
0.277691
0.296209
0.312595
0.331127
0.383831
0.471051
0.389534
0.0979728
0.148171
0.187606
0.219236
0.243051
0.260144
0.27228
0.280538
0.285806
0.289054
0.287024
0.278769
0.268934
0.261293
0.252701
0.250284
0.257036
0.234323
0.215437
0.193432
0.200862
0.228088
0.259604
0.288703
0.310219
0.335381
0.348858
0.411642
0.425826
0.339742
0.0940958
0.139701
0.174934
0.203276
0.224697
0.240146
0.250859
0.258516
0.263776
0.267442
0.26554
0.260282
0.252484
0.247591
0.24237
0.241845
0.256641
0.231578
0.209645
0.198621
0.211943
0.239021
0.270286
0.297009
0.31945
0.349065
0.360129
0.422745
0.413806
0.298433
0.0904061
0.131979
0.163566
0.189188
0.20861
0.222664
0.23226
0.238974
0.243092
0.247926
0.24811
0.244696
0.237962
0.235284
0.234728
0.23765
0.26175
0.233982
0.212943
0.209918
0.229425
0.256008
0.27913
0.302536
0.32537
0.362892
0.367887
0.406312
0.375083
0.275921
0.0869315
0.124925
0.153417
0.176727
0.194485
0.207519
0.216449
0.222981
0.22629
0.229709
0.233097
0.232264
0.227824
0.227165
0.231173
0.241106
0.273279
0.23973
0.224916
0.229018
0.253519
0.273274
0.28455
0.30523
0.334998
0.376165
0.37954
0.39169
0.367335
0.285556
0.0837533
0.118581
0.144416
0.165744
0.182094
0.194403
0.202959
0.209418
0.212328
0.215266
0.218945
0.220041
0.218852
0.220971
0.230591
0.250222
0.283032
0.249973
0.237479
0.252404
0.278641
0.286289
0.292463
0.313619
0.336219
0.382705
0.396573
0.373362
0.29675
0.267168
0.823216
0.888552
0.907516
0.95141
1.01031
1.04903
1.07277
1.06654
1.05073
1.00833
0.968291
0.938161
0.903581
0.867912
0.830793
0.797348
0.770992
0.748778
0.729446
0.712977
0.697073
0.681319
0.668049
0.657302
0.648239
0.639106
0.631007
0.622784
0.614902
0.606583
0.597762
0.587508
0.575321
0.563005
0.550824
0.537073
0.521671
0.5047
0.485794
0.464282
0.441065
0.417131
0.393492
0.370828
0.349988
0.330479
0.311732
0.293269
0.27464
0.255126
0.240951
0.228906
0.217612
0.207757
0.198852
0.190824
0.183969
0.177959
0.172507
0.167547
0.163005
0.158693
0.154163
0.149448
0.144612
0.139761
0.134925
0.130173
0.125688
0.121552
0.117759
0.114332
0.111233
0.108287
0.105342
0.102263
0.0990373
0.0957833
0.0926374
0.089644
0.0867929
0.0841028
0.0815471
0.0791146
0.0768137
0.0746733
0.0726695
0.0707714
0.0689542
0.0672291
0.0656183
0.0641474
0.0628396
0.0617071
0.060745
0.0599373
0.0592704
0.058732
0.058314
0.058009
0.0578082
0.0577013
0.0576698
0.0576921
0.0577551
0.0578819
0.0580773
0.0583488
0.0587334
0.0592311
0.0598328
0.0605214
0.0612534
0.06206
0.062909
0.0638535
0.0650007
0.0664342
0.0681518
0.0697049
0.0714698
0.0735267
0.075762
0.0781871
0.0808949
1.02222
1.16507
1.24921
1.36962
1.47652
1.52266
1.51949
1.47995
1.43042
1.37123
1.28523
1.21489
1.16744
1.12411
1.07881
1.03893
1.00793
0.982156
0.957712
0.932981
0.908164
0.888281
0.873652
0.862912
0.857333
0.854799
0.856379
0.862095
0.870276
0.878638
0.888049
0.902442
0.919398
0.935022
0.945222
0.948024
0.941472
0.924184
0.898098
0.869723
0.842574
0.813423
0.78205
0.750579
0.718096
0.684849
0.649754
0.611645
0.56349
0.515168
0.468288
0.427064
0.389572
0.35805
0.330644
0.307446
0.288697
0.2736
0.261108
0.250448
0.241054
0.232454
0.224193
0.215902
0.207801
0.200132
0.193
0.186206
0.179633
0.173586
0.168307
0.163747
0.159668
0.155684
0.151512
0.147044
0.142332
0.137508
0.132762
0.128126
0.1237
0.119465
0.115412
0.111545
0.107902
0.104502
0.101285
0.098225
0.0953062
0.0925411
0.0899302
0.0875144
0.0853637
0.0835296
0.0820059
0.0807335
0.0796741
0.0788047
0.0781079
0.0775769
0.0771891
0.0769281
0.0767746
0.0766882
0.0766605
0.0767339
0.0769112
0.0772043
0.0776737
0.0783007
0.079066
0.0799711
0.0809708
0.08204
0.0831752
0.0845555
0.0863717
0.0885681
0.0910081
0.0933854
0.0962819
0.0997502
0.103584
0.10788
0.112915
0.961155
1.076
1.12461
1.20231
1.26072
1.27739
1.27411
1.26239
1.24784
1.2208
1.18244
1.14313
1.11231
1.08789
1.06934
1.05468
1.04086
1.02736
1.0131
0.998199
0.988579
0.983802
0.983486
0.984653
0.990176
0.99879
1.00897
1.02349
1.03955
1.05472
1.06837
1.07829
1.0788
1.06958
1.04813
1.01622
0.982449
0.95259
0.922604
0.891512
0.873263
0.864941
0.850046
0.832326
0.813688
0.792146
0.771729
0.753355
0.727678
0.690674
0.644923
0.593094
0.539457
0.490548
0.445912
0.408014
0.377505
0.352064
0.330437
0.312382
0.297496
0.284656
0.273135
0.262682
0.252284
0.242301
0.232994
0.224982
0.218507
0.21312
0.208368
0.204363
0.201026
0.197733
0.193923
0.189565
0.184645
0.179178
0.173188
0.166837
0.160208
0.153493
0.146874
0.140473
0.134321
0.1285
0.123125
0.118247
0.113782
0.10969
0.106002
0.102704
0.0997492
0.0971684
0.0949554
0.093089
0.0915404
0.090284
0.0893109
0.0885918
0.0881079
0.0878379
0.0877532
0.087778
0.0878832
0.0880751
0.0883595
0.088746
0.0892877
0.0899914
0.0908706
0.0919016
0.0931173
0.0943858
0.095819
0.0975902
0.100064
0.103065
0.106176
0.109414
0.113394
0.118063
0.123346
0.129416
0.136448
0.851591
0.952069
0.986506
1.06016
1.1148
1.13014
1.14153
1.15184
1.14966
1.13741
1.12244
1.11153
1.09793
1.0797
1.06963
1.06218
1.05089
1.04047
1.03562
1.03222
1.03112
1.03169
1.03585
1.04382
1.05591
1.07171
1.09054
1.10774
1.1181
1.12007
1.11573
1.10189
1.06592
1.01034
0.948536
0.891856
0.857583
0.840966
0.834449
0.835506
0.834032
0.827399
0.821292
0.813574
0.799963
0.780699
0.744128
0.707114
0.681396
0.674698
0.683472
0.697702
0.676433
0.629455
0.573415
0.51826
0.473577
0.436197
0.404329
0.377646
0.355196
0.335822
0.319163
0.30584
0.294114
0.283669
0.274416
0.266249
0.259611