/*--------------------------------*- C++ -*----------------------------------*\
| =========                 |                                                 |
| \\      /  F ield         | OpenFOAM: The Open Source CFD Toolbox           |
|  \\    /   O peration     | Version:  2112                                  |
|   \\  /    A nd           | Website:  www.openfoam.com                      |
|    \\/     M anipulation  |                                                 |
\*---------------------------------------------------------------------------*/
FoamFile
{
    version     2.0;
    format      ascii;
    arch        "LSB;label=32;scalar=64";
    class       volScalarField;
    location    "0.00724";
    object      epsilon;
}
// * * * * * * * * * * * * * * * * * * * * * * * * * * * * * * * * * * * * * //

dimensions      [0 2 -3 0 0 0 0];

internalField   nonuniform List<scalar> 
13875
(
1.16007e+06
2.94629e+07
3.28259e+07
3.28421e+07
3.29017e+07
3.2834e+07
3.29032e+07
3.29339e+07
3.28906e+07
3.29158e+07
3.29388e+07
3.29054e+07
3.28636e+07
3.28431e+07
3.28604e+07
3.29112e+07
3.29484e+07
3.29131e+07
3.28934e+07
3.28606e+07
3.28995e+07
3.28309e+07
3.2803e+07
2.94949e+07
1.17803e+06
1.31392e+06
2.27481e+07
2.53572e+07
2.52423e+07
2.52762e+07
2.52121e+07
2.52371e+07
2.52618e+07
2.52176e+07
2.52199e+07
2.52373e+07
2.52443e+07
2.5204e+07
2.51931e+07
2.52004e+07
2.52508e+07
2.52461e+07
2.52364e+07
2.52253e+07
2.5229e+07
2.52698e+07
2.52198e+07
2.53277e+07
2.27652e+07
1.34211e+06
1.57305e+06
1.97074e+07
2.18314e+07
2.16307e+07
2.16953e+07
2.16364e+07
2.15732e+07
2.15677e+07
2.15227e+07
2.1514e+07
2.15174e+07
2.1533e+07
2.1602e+07
2.16024e+07
2.15972e+07
2.15481e+07
2.15321e+07
2.15303e+07
2.15488e+07
2.16409e+07
2.16835e+07
2.16018e+07
2.179e+07
1.96949e+07
1.58434e+06
1.81369e+06
1.7386e+07
1.9039e+07
1.8883e+07
1.89632e+07
1.89102e+07
1.88329e+07
1.88162e+07
1.87822e+07
1.87794e+07
1.87736e+07
1.87716e+07
1.88803e+07
1.88804e+07
1.88766e+07
1.87885e+07
1.87945e+07
1.87802e+07
1.88068e+07
1.89151e+07
1.89522e+07
1.88578e+07
1.90148e+07
1.73657e+07
1.82028e+06
2.02274e+06
1.54531e+07
1.67726e+07
1.66236e+07
1.6701e+07
1.66563e+07
1.65709e+07
1.65588e+07
1.65381e+07
1.65351e+07
1.6527e+07
1.65201e+07
1.66234e+07
1.66272e+07
1.66198e+07
1.65343e+07
1.65478e+07
1.65307e+07
1.65528e+07
1.66548e+07
1.66903e+07
1.6605e+07
1.67447e+07
1.5428e+07
2.03609e+06
2.20649e+06
1.37129e+07
1.49286e+07
1.47409e+07
1.48301e+07
1.47759e+07
1.46793e+07
1.46695e+07
1.46599e+07
1.46566e+07
1.46461e+07
1.46354e+07
1.47352e+07
1.47422e+07
1.4732e+07
1.46472e+07
1.4668e+07
1.46475e+07
1.4667e+07
1.47746e+07
1.48195e+07
1.47291e+07
1.49042e+07
1.38458e+07
2.22305e+06
2.42276e+06
1.22522e+07
1.34779e+07
1.32094e+07
1.32699e+07
1.32022e+07
1.30909e+07
1.30788e+07
1.30762e+07
1.30722e+07
1.30596e+07
1.30462e+07
1.31425e+07
1.31517e+07
1.31381e+07
1.30555e+07
1.30839e+07
1.30613e+07
1.30855e+07
1.32006e+07
1.32571e+07
1.32014e+07
1.34221e+07
1.195e+07
2.42994e+06
2.66641e+06
1.06172e+07
1.23135e+07
1.19768e+07
1.2e+07
1.18877e+07
1.17565e+07
1.17356e+07
1.1736e+07
1.17294e+07
1.17162e+07
1.16993e+07
1.1792e+07
1.18045e+07
1.17881e+07
1.17053e+07
1.17432e+07
1.17205e+07
1.17517e+07
1.18843e+07
1.19812e+07
1.19652e+07
1.22645e+07
1.05435e+07
2.69551e+06
3.4974e+06
1.0215e+07
1.14834e+07
1.10318e+07
1.09397e+07
1.07849e+07
1.06284e+07
1.05999e+07
1.06031e+07
1.05929e+07
1.05803e+07
1.05611e+07
1.06488e+07
1.06651e+07
1.06473e+07
1.05659e+07
1.06089e+07
1.05864e+07
1.06254e+07
1.07802e+07
1.09226e+07
1.10214e+07
1.14745e+07
1.03382e+07
3.57483e+06
6.83826e+06
1.22233e+07
1.11987e+07
1.04312e+07
1.0165e+07
9.92284e+06
9.75442e+06
9.71943e+06
9.71719e+06
9.70254e+06
9.69084e+06
9.67314e+06
9.75114e+06
9.77079e+06
9.75327e+06
9.68289e+06
9.71988e+06
9.70853e+06
9.74619e+06
9.91555e+06
1.01431e+07
1.03595e+07
1.11598e+07
1.21282e+07
6.89281e+06
1.49192e+07
1.86856e+07
1.2049e+07
1.03237e+07
9.61381e+06
9.31176e+06
9.12708e+06
9.06713e+06
9.05049e+06
9.02913e+06
9.01841e+06
9.00292e+06
9.06892e+06
9.09048e+06
9.0792e+06
9.02902e+06
9.05663e+06
9.06236e+06
9.12469e+06
9.28779e+06
9.60908e+06
1.02667e+07
1.18753e+07
1.79346e+07
1.49955e+07
2.54716e+07
6.87937e+07
1.81566e+07
1.06943e+07
9.70062e+06
9.00322e+06
8.70928e+06
8.61221e+06
8.56884e+06
8.54005e+06
8.52782e+06
8.51612e+06
8.56689e+06
8.58789e+06
8.58674e+06
8.55892e+06
8.58224e+06
8.61275e+06
8.70326e+06
9.01787e+06
9.65183e+06
1.05419e+07
1.75547e+07
6.72495e+07
2.50255e+07
2.65836e+07
7.58797e+07
8.68597e+07
2.40952e+07
1.09383e+07
9.11637e+06
8.73855e+06
8.46623e+06
8.35617e+06
8.29889e+06
8.27359e+06
8.26085e+06
8.29684e+06
8.31532e+06
8.32786e+06
8.33116e+06
8.38433e+06
8.4942e+06
8.76532e+06
9.16125e+06
1.12927e+07
2.25628e+07
8.0778e+07
7.65267e+07
2.6075e+07
2.63444e+07
5.50733e+07
7.97703e+07
1.04963e+08
5.80686e+07
1.31457e+07
9.66618e+06
8.84798e+06
8.60394e+06
8.5704e+06
8.55239e+06
8.54278e+06
8.57499e+06
8.59011e+06
8.60915e+06
8.62976e+06
8.66641e+06
8.89378e+06
9.93871e+06
1.44386e+07
6.59269e+07
9.09861e+07
7.53611e+07
5.44921e+07
2.57434e+07
2.53282e+07
4.25068e+07
5.80782e+07
7.27267e+07
7.55066e+07
7.54894e+07
2.36239e+07
1.31751e+07
1.11727e+07
1.04442e+07
1.01449e+07
1.00438e+07
1.0044e+07
1.00708e+07
1.0153e+07
1.03878e+07
1.1071e+07
1.3192e+07
2.56265e+07
7.72338e+07
7.54595e+07
6.60626e+07
5.6629e+07
4.22556e+07
2.64066e+07
2.47111e+07
3.35225e+07
4.34225e+07
5.45687e+07
5.95167e+07
6.81905e+07
5.14301e+07
4.52522e+07
4.23292e+07
3.33639e+07
3.51619e+07
3.62878e+07
3.7111e+07
3.68535e+07
3.56807e+07
3.36829e+07
4.09236e+07
4.9136e+07
5.2049e+07
6.90332e+07
5.84244e+07
5.05502e+07
4.26849e+07
3.34543e+07
2.57997e+07
2.00894e+07
2.53024e+07
3.24074e+07
4.22725e+07
5.00235e+07
6.26182e+07
7.19347e+07
7.26672e+07
5.85493e+07
4.97054e+07
5.25097e+07
5.52993e+07
5.69759e+07
5.6358e+07
5.35357e+07
5.33816e+07
5.85317e+07
7.20113e+07
7.25485e+07
6.26851e+07
4.78557e+07
3.91993e+07
3.10476e+07
2.45891e+07
1.9975e+07
1.48515e+07
1.91271e+07
2.66154e+07
3.76614e+07
4.59235e+07
5.34697e+07
6.51283e+07
7.07631e+07
5.11659e+07
3.77681e+07
3.54307e+07
3.58298e+07
3.65668e+07
3.62277e+07
3.6006e+07
4.09162e+07
5.11965e+07
6.64037e+07
6.49936e+07
5.47413e+07
4.5587e+07
3.62683e+07
2.56024e+07
1.86106e+07
1.45493e+07
1.21631e+07
1.665e+07
2.41822e+07
3.8535e+07
4.84832e+07
4.59305e+07
4.98029e+07
5.60896e+07
4.54232e+07
3.36872e+07
2.87519e+07
2.74587e+07
2.73498e+07
2.78079e+07
2.94795e+07
3.48858e+07
4.35299e+07
5.24716e+07
5.00356e+07
4.72139e+07
5.06384e+07
3.86572e+07
2.40314e+07
1.6467e+07
1.20174e+07
1.1509e+07
1.78914e+07
2.52042e+07
3.86803e+07
4.38641e+07
3.88271e+07
3.89099e+07
4.32447e+07
3.91315e+07
3.10497e+07
2.53819e+07
2.24828e+07
2.16144e+07
2.30079e+07
2.64266e+07
3.16951e+07
3.70696e+07
4.06101e+07
3.90478e+07
3.99871e+07
4.50732e+07
3.78782e+07
2.53744e+07
1.8198e+07
1.166e+07
2.86099e+07
5.19523e+07
4.01582e+07
3.25371e+07
3.47704e+07
3.14333e+07
3.11474e+07
3.46198e+07
3.32825e+07
2.74987e+07
2.19806e+07
1.84848e+07
1.73905e+07
1.92579e+07
2.32717e+07
2.80314e+07
3.14921e+07
3.27009e+07
3.12769e+07
3.23195e+07
3.56333e+07
3.26591e+07
4.3835e+07
5.57162e+07
3.45051e+07
9.08999e+07
2.84506e+08
5.24895e+07
2.60896e+07
2.75605e+07
2.56431e+07
2.55511e+07
2.83646e+07
2.81016e+07
2.37777e+07
1.87743e+07
1.52514e+07
1.4131e+07
1.60237e+07
1.99529e+07
2.41097e+07
2.65354e+07
2.6996e+07
2.56197e+07
2.62254e+07
2.80085e+07
2.64234e+07
5.86186e+07
2.80932e+08
1.01648e+08
9.58497e+07
1.8204e+08
4.33442e+07
2.16594e+07
2.23491e+07
2.12695e+07
2.11928e+07
2.35431e+07
2.3626e+07
2.02046e+07
1.58526e+07
1.26502e+07
1.15757e+07
1.32544e+07
1.67816e+07
2.03815e+07
2.22332e+07
2.24984e+07
2.12151e+07
2.1573e+07
2.25282e+07
2.18816e+07
4.54608e+07
1.80516e+08
9.58148e+07
8.13423e+07
1.74158e+08
3.40341e+07
1.85116e+07
1.84143e+07
1.77134e+07
1.76727e+07
1.95926e+07
1.98207e+07
1.69817e+07
1.32271e+07
1.04759e+07
9.58549e+06
1.10392e+07
1.41025e+07
1.72053e+07
1.86787e+07
1.87662e+07
1.77527e+07
1.7979e+07
1.85959e+07
1.88449e+07
3.60058e+07
1.8451e+08
8.29916e+07
7.33859e+07
1.63769e+08
2.84868e+07
1.61997e+07
1.55372e+07
1.49268e+07
1.49496e+07
1.64572e+07
1.66739e+07
1.43106e+07
1.11295e+07
8.78198e+06
8.03406e+06
9.26781e+06
1.19105e+07
1.45539e+07
1.57571e+07
1.57715e+07
1.49981e+07
1.51716e+07
1.57545e+07
1.65433e+07
3.07084e+07
1.80694e+08
7.54585e+07
6.68309e+07
1.61898e+08
2.48022e+07
1.41966e+07
1.33325e+07
1.27078e+07
1.28121e+07
1.39429e+07
1.40869e+07
1.21129e+07
9.43818e+06
7.44085e+06
6.80495e+06
7.84066e+06
1.00768e+07
1.23068e+07
1.33205e+07
1.33288e+07
1.27669e+07
1.28614e+07
1.35201e+07
1.44576e+07
2.64227e+07
1.74023e+08
6.93322e+07
6.26048e+07
1.46786e+08
2.13128e+07
1.24769e+07
1.15863e+07
1.09314e+07
1.10698e+07
1.18807e+07
1.18921e+07
1.02291e+07
8.0173e+06
6.35717e+06
5.82709e+06
6.71866e+06
8.6234e+06
1.04919e+07
1.13671e+07
1.14018e+07
1.0996e+07
1.10795e+07
1.18226e+07
1.2776e+07
2.29503e+07
1.60428e+08
6.5379e+07
5.92895e+07
1.36934e+08
1.90467e+07
1.11093e+07
1.02318e+07
9.5525e+06
9.66571e+06
1.02321e+07
1.01467e+07
8.73312e+06
6.89052e+06
5.49122e+06
5.03622e+06
5.79449e+06
7.39777e+06
8.96626e+06
9.73891e+06
9.81851e+06
9.55691e+06
9.65488e+06
1.04197e+07
1.13487e+07
2.04857e+07
1.51894e+08
6.13049e+07
5.52511e+07
1.30849e+08
1.74655e+07
9.97874e+06
9.12896e+06
8.47678e+06
8.51377e+06
8.87751e+06
8.71139e+06
7.50852e+06
5.97479e+06
4.78865e+06
4.39216e+06
5.03427e+06
6.37716e+06
7.68342e+06
8.38013e+06
8.51296e+06
8.37375e+06
8.51507e+06
9.24872e+06
1.01404e+07
1.83379e+07
1.36065e+08
5.79205e+07
5.12905e+07
1.18302e+08
1.61015e+07
9.04946e+06
8.15411e+06
7.58713e+06
7.565e+06
7.73668e+06
7.48985e+06
6.45408e+06
5.18331e+06
4.19649e+06
3.8609e+06
4.42385e+06
5.57265e+06
6.67373e+06
7.29157e+06
7.45836e+06
7.42485e+06
7.60181e+06
8.26788e+06
9.18036e+06
1.69446e+07
1.25448e+08
5.43868e+07
4.77708e+07
1.03731e+08
1.49423e+07
8.30804e+06
7.35582e+06
6.83681e+06
6.77888e+06
6.81036e+06
6.51328e+06
5.61964e+06
4.5548e+06
3.71488e+06
3.42124e+06
3.90471e+06
4.87711e+06
5.80122e+06
6.36485e+06
6.57415e+06
6.63499e+06
6.81959e+06
7.41146e+06
8.39292e+06
1.55378e+07
1.10743e+08
5.05474e+07
4.46652e+07
9.37671e+07
1.40604e+07
7.74727e+06
6.66044e+06
6.18277e+06
6.11101e+06
6.04773e+06
5.72227e+06
4.94007e+06
4.03355e+06
3.31213e+06
3.05325e+06
3.46902e+06
4.30072e+06
5.09184e+06
5.60403e+06
5.83988e+06
5.96471e+06
6.14162e+06
6.6792e+06
7.78376e+06
1.43733e+07
9.70624e+07
4.74394e+07
4.17629e+07
8.09964e+07
1.31225e+07
7.30978e+06
6.07901e+06
5.62344e+06
5.51837e+06
5.3889e+06
5.03327e+06
4.34764e+06
3.5825e+06
2.96772e+06
2.74433e+06
3.11195e+06
3.83316e+06
4.50844e+06
4.97698e+06
5.23156e+06
5.38552e+06
5.57172e+06
6.0788e+06
7.31026e+06
1.35288e+07
8.63391e+07
4.4593e+07
3.94478e+07
7.10753e+07
1.22032e+07
6.97006e+06
5.62467e+06
5.14817e+06
4.99469e+06
4.8386e+06
4.47711e+06
3.87157e+06
3.21219e+06
2.67863e+06
2.48077e+06
2.79981e+06
3.42499e+06
4.01124e+06
4.43752e+06
4.70631e+06
4.87142e+06
5.08012e+06
5.59067e+06
6.92852e+06
1.27304e+07
7.53838e+07
4.16464e+07
3.73594e+07
6.37498e+07
1.12758e+07
6.69726e+06
5.30473e+06
4.72987e+06
4.54542e+06
4.36478e+06
4.007e+06
3.46801e+06
2.89911e+06
2.4323e+06
2.25711e+06
2.53616e+06
3.07965e+06
3.58934e+06
3.9829e+06
4.25011e+06
4.42512e+06
4.65992e+06
5.23807e+06
6.66048e+06
1.18104e+07
6.7386e+07
3.92254e+07
3.51394e+07
5.6715e+07
1.04056e+07
6.45961e+06
5.06617e+06
4.37553e+06
4.1462e+06
3.94002e+06
3.60028e+06
3.11933e+06
2.62197e+06
2.21652e+06
2.06298e+06
2.31185e+06
2.79432e+06
3.24334e+06
3.6006e+06
3.85269e+06
4.04483e+06
4.30434e+06
4.98425e+06
6.44786e+06
1.09817e+07
6.20482e+07
3.70333e+07
3.34027e+07
5.15734e+07
9.64933e+06
6.38513e+06
4.90482e+06
4.08959e+06
3.8114e+06
3.58019e+06
3.25303e+06
2.82742e+06
2.39171e+06
2.03324e+06
1.89581e+06
2.11435e+06
2.53896e+06
2.93532e+06
3.26025e+06
3.50399e+06
3.71495e+06
4.00642e+06
4.80227e+06
6.34406e+06
1.01337e+07
5.55705e+07
3.48443e+07
3.17117e+07
4.80903e+07
8.96071e+06
6.22292e+06
4.81089e+06
3.88204e+06
3.51672e+06
3.26723e+06
2.95692e+06
2.57849e+06
2.19214e+06
1.87293e+06
1.74933e+06
1.94239e+06
2.32055e+06
2.67254e+06
2.9654e+06
3.20283e+06
3.42557e+06
3.78871e+06
4.69951e+06
6.22425e+06
9.31556e+06
5.05185e+07
3.3179e+07
2.99053e+07
4.39291e+07
8.21509e+06
5.89432e+06
4.78182e+06
3.7317e+06
3.27191e+06
2.99497e+06
2.69285e+06
2.35421e+06
2.01354e+06
1.73121e+06
1.62167e+06
1.79604e+06
2.13435e+06
2.44712e+06
2.71332e+06
2.94581e+06
3.18426e+06
3.62552e+06
4.67434e+06
5.98251e+06
8.54083e+06
4.66249e+07
3.15999e+07
2.84872e+07
4.09305e+07
7.54651e+06
5.56476e+06
4.85276e+06
3.63671e+06
3.08057e+06
2.76657e+06
2.47286e+06
2.16591e+06
1.85978e+06
1.60654e+06
1.50814e+06
1.66303e+06
1.96656e+06
2.2468e+06
2.49111e+06
2.7254e+06
2.99375e+06
3.5188e+06
4.6647e+06
5.62341e+06
7.82425e+06
4.31324e+07
2.99348e+07
2.73597e+07
3.84978e+07
7.07732e+06
5.22665e+06
4.88727e+06
3.60998e+06
2.93626e+06
2.58164e+06
2.28402e+06
2.0008e+06
1.72461e+06
1.49636e+06
1.4079e+06
1.5466e+06
1.81825e+06
2.07179e+06
2.3008e+06
2.5438e+06
2.85519e+06
3.4586e+06
4.80977e+06
5.29408e+06
7.2419e+06
4.07414e+07
2.83766e+07
2.62435e+07
3.61491e+07
6.56407e+06
4.83787e+06
4.70998e+06
3.62064e+06
2.82525e+06
2.44037e+06
2.1243e+06
1.85321e+06
1.6015e+06
1.39662e+06
1.31765e+06
1.44374e+06
1.69203e+06
1.92345e+06
2.14476e+06
2.40545e+06
2.74633e+06
3.46592e+06
4.79763e+06
4.98573e+06
7.25991e+06
3.83454e+07
2.70731e+07
2.53208e+07
3.41811e+07
6.15419e+06
4.47592e+06
4.45216e+06
3.77196e+06
2.76094e+06
2.32997e+06
1.99827e+06
1.73009e+06
1.49568e+06
1.30905e+06
1.23709e+06
1.3504e+06
1.57578e+06
1.79112e+06
2.01347e+06
2.29811e+06
2.67209e+06
3.53698e+06
4.56424e+06
4.61449e+06
6.79211e+06
3.60608e+07
2.59384e+07
2.455e+07
3.2237e+07
6.26653e+06
4.17073e+06
4.154e+06
3.84421e+06
2.77199e+06
2.24232e+06
1.90439e+06
1.6282e+06
1.40315e+06
1.23032e+06
1.16417e+06
1.26694e+06
1.47466e+06
1.68018e+06
1.91172e+06
2.21583e+06
2.66966e+06
3.76349e+06
4.27341e+06
4.28032e+06
6.56877e+06
3.38311e+07
2.50835e+07
2.3739e+07
3.05829e+07
5.9047e+06
3.8774e+06
3.8347e+06
3.71909e+06
2.85919e+06
2.18531e+06
1.82315e+06
1.54588e+06
1.32366e+06
1.16071e+06
1.09945e+06
1.19493e+06
1.39056e+06
1.59338e+06
1.83114e+06
2.16244e+06
2.79771e+06
3.81398e+06
3.96213e+06
4.02528e+06
6.59263e+06
3.19018e+07
2.44088e+07
2.30262e+07
2.88455e+07
5.99439e+06
3.6611e+06
3.53191e+06
3.49548e+06
3.0914e+06
2.20386e+06
1.76533e+06
1.48572e+06
1.26338e+06
1.10277e+06
1.04337e+06
1.13319e+06
1.32372e+06
1.52622e+06
1.76707e+06
2.1658e+06
3.04668e+06
3.59788e+06
3.65615e+06
3.76665e+06
6.34067e+06
3.02507e+07
2.37244e+07
2.23364e+07
2.72748e+07
6.14512e+06
3.51241e+06
3.28149e+06
3.26331e+06
3.14117e+06
2.36502e+06
1.73591e+06
1.43176e+06
1.21682e+06
1.05893e+06
995937
1.08622e+06
1.27201e+06
1.46964e+06
1.72407e+06
2.31696e+06
3.13921e+06
3.35882e+06
3.39152e+06
3.57345e+06
6.25308e+06
2.86851e+07
2.30234e+07
2.13328e+07
2.56532e+07
6.00748e+06
3.3624e+06
3.07021e+06
3.03821e+06
2.96437e+06
2.6186e+06
1.78969e+06
1.38832e+06
1.17531e+06
1.0238e+06
959593
1.0498e+06
1.22871e+06
1.42497e+06
1.76629e+06
2.59358e+06
2.97593e+06
3.11464e+06
3.1717e+06
3.45766e+06
6.37037e+06
2.68395e+07
2.19863e+07
2.01137e+07
2.38528e+07
5.93611e+06
3.25814e+06
2.89407e+06
2.82617e+06
2.7854e+06
2.69599e+06
2.0027e+06
1.38301e+06
1.14198e+06
993941
931962
1.01834e+06
1.19044e+06
1.40333e+06
1.92338e+06
2.72459e+06
2.80198e+06
2.88264e+06
2.97711e+06
3.33861e+06
6.15124e+06
2.49018e+07
2.07066e+07
1.74858e+07
2.12138e+07
5.78198e+06
3.16344e+06
2.74438e+06
2.64526e+06
2.60156e+06
2.54952e+06
2.23337e+06
1.47738e+06
1.12696e+06
967524
907060
989982
1.16704e+06
1.46026e+06
2.20389e+06
2.59987e+06
2.62304e+06
2.68477e+06
2.80843e+06
3.22019e+06
5.87056e+06
2.21012e+07
1.79893e+07
782913
1.22122e+06
1.537e+06
1.38285e+06
1.07358e+06
845842
701769
631552
632740
665185
690237
674377
515465
365836
255829
186716
149391
131518
124011
122251
124265
131350
152630
230064
367258
398878
405167
399484
378585
382002
1.0519e+06
1.41005e+06
1.58799e+06
1.32325e+06
995499
770155
636445
578735
582529
608331
632100
628752
502623
363227
252741
184077
147554
129717
122010
120140
123307
135163
182598
325866
388889
387909
393208
385800
370611
387355
1.19445e+06
1.56898e+06
1.61964e+06
1.25161e+06
920214
709246
589045
540782
551537
577023
595430
580555
466346
334839
236212
175623
143088
126806
119684
118707
124276
148397
243915
354964
363372
358602
370985
363937
353337
384840
1.40297e+06
1.72731e+06
1.61395e+06
1.17296e+06
839301
643354
545406
510391
529241
552117
565122
545551
443780
316029
224934
169310
139403
124369
118086
118734
130358
184657
315986
349576
343152
341242
350334
343233
335993
381327
1.65123e+06
1.84869e+06
1.57669e+06
1.09655e+06
766234
591563
515346
491115
513213
534560
541403
517195
415411
292343
210162
161491
135380
122179
117508
121769
150743
257241
330612
331953
326574
326732
332348
325553
319129
376908
1.91967e+06
1.94325e+06
1.53222e+06
1.02246e+06
701220
549139
492663
480639
504554
525935
527114
491795
384021
269068
196728
154405
131929
120862
119281
133569
201561
302779
322432
315686
312540
311985
315307
310433
304579
372135
2.15918e+06
2.02437e+06
1.48917e+06
952583
645609
519014
478749
471742
499252
526043
520568
469205
350517
245633
183062
147893
129333
121668
127574
169105
270042
307247
309389
302030
299807
297386
300149
296719
291384
366552
2.4033e+06
2.09318e+06
1.445e+06
887630
605706
502287
465328
459106
493118
527607
510621
438718
311154
222113
170992
143120
129363
129053
156495
240682
288938
298332
296154
289837
287458
284237
287585
284324
278809
360205
2.62902e+06
2.15142e+06
1.40374e+06
839621
587828
489737
445645
443961
482905
510965
482220
392856
272092
202268
162977
143014
137940
157954
224861
272719
286589
287893
284065
278511
276464
272987
276436
272272
265453
351579
2.86002e+06
2.20039e+06
1.37615e+06
823146
581725
476307
427019
423836
456709
467580
429725
337868
243349
191618
165176
156542
171818
227221
263810
276187
279902
277866
273173
268511
266801
262758
265584
259526
251086
342081
3.10288e+06
2.26405e+06
1.37272e+06
823750
583615
472164
416017
403009
419755
416515
374350
302998
239387
204947
194670
205329
243841
265240
271688
273044
272812
268690
263677
259566
257433
252632
253992
246100
237024
332884
3.33866e+06
2.34555e+06
1.39394e+06
843228
601057
483686
419703
398857
401614
389268
355294
319195
283264
272138
274506
279850
280440
277888
272989
269896
266469
260734
255358
250827
247337
242257
242203
232794
224253
325195
3.56662e+06
2.45135e+06
1.44185e+06
885522
645227
525169
460405
440524
440652
434291
431916
431163
411131
384730
352886
327657
306485
289241
275988
268153
261201
253743
247532
241607
235870
232424
231045
220726
213249
318348
3.80116e+06
2.58837e+06
1.52428e+06
961547
728463
623393
584786
588499
600823
624276
632485
614207
572891
514276
446668
388361
341955
306526
282959
268493
257635
247717
239843
232538
227305
223918
220860
210143
203826
311571
4.0572e+06
2.76714e+06
1.65518e+06
1.08889e+06
877234
811952
811554
824010
859158
899491
908146
879110
811279
712099
591999
481561
393423
331298
293555
271674
256023
243243
232868
223597
220340
216827
211826
200650
195122
304593
4.3556e+06
3.00565e+06
1.85891e+06
1.30184e+06
1.13265e+06
1.09413e+06
1.1188e+06
1.17463e+06
1.2558e+06
1.31714e+06
1.33258e+06
1.29512e+06
1.18725e+06
1.01898e+06
809192
614365
462969
364523
308430
277367
256438
239691
226666
216887
214724
210682
203444
191813
186656
296914
4.72222e+06
3.33592e+06
2.17333e+06
1.64076e+06
1.48492e+06
1.47918e+06
1.58071e+06
1.71173e+06
1.85163e+06
1.95048e+06
1.9766e+06
1.91296e+06
1.72781e+06
1.44148e+06
1.09848e+06
785092
550226
407599
328740
285544
256969
235600
220133
212561
210266
204843
195899
183895
178752
288456
5.18741e+06
3.80053e+06
2.65531e+06
2.10047e+06
1.93598e+06
2.00413e+06
2.21405e+06
2.43999e+06
2.65938e+06
2.79659e+06
2.82041e+06
2.6922e+06
2.38401e+06
1.93798e+06
1.43638e+06
984065
658316
461411
353490
294164
256836
231546
215163
209505
206235
199083
189013
176505
171776
280116
5.78008e+06
4.43988e+06
3.29273e+06
2.65403e+06
2.50585e+06
2.65246e+06
2.97265e+06
3.30717e+06
3.59004e+06
3.74023e+06
3.72418e+06
3.49313e+06
3.04453e+06
2.43494e+06
1.7846e+06
1.20798e+06
786708
525055
380185
301704
256229
228121
212731
206925
202030
193309
182476
169747
165808
272084
6.56734e+06
5.28057e+06
4.00225e+06
3.31814e+06
3.1746e+06
3.37869e+06
3.78172e+06
4.19018e+06
4.48004e+06
4.58612e+06
4.49821e+06
4.16977e+06
3.60443e+06
2.87459e+06
2.12264e+06
1.44922e+06
931966
596084
407768
308549
254914
224489
211330
204390
197248
187569
176177
163476
160607
263898
7.83438e+06
6.18058e+06
4.81514e+06
4.09285e+06
3.9249e+06
4.14934e+06
4.56481e+06
4.96304e+06
5.20988e+06
5.26983e+06
5.11007e+06
4.68546e+06
4.01783e+06
3.22174e+06
2.41943e+06
1.68631e+06
1.08469e+06
672001
436823
315461
255208
223810
210272
201287
192364
181787
169982
157412
155530
256151
9.22571e+06
7.39003e+06
5.75923e+06
5.00696e+06
4.79076e+06
4.97587e+06
5.32538e+06
5.67175e+06
5.87674e+06
5.86793e+06
5.59408e+06
5.04757e+06
4.28721e+06
3.45523e+06
2.64125e+06
1.88553e+06
1.23198e+06
755471
471755
328234
258749
224460
208827
197496
187409
176031
163833
151325
150405
249029
1.09094e+07
8.46467e+06
6.85327e+06
6.16561e+06
5.87643e+06
5.98747e+06
6.24161e+06
6.49264e+06
6.5988e+06
6.47361e+06
6.05824e+06
5.35792e+06
4.50459e+06
3.62869e+06
2.81553e+06
2.06121e+06
1.39003e+06
858874
520747
345820
264898
226168
207172
193564
182443
170365
157773
145388
145449
242173
1.22989e+07
1.06382e+07
8.70257e+06
7.99951e+06
7.46517e+06
7.39538e+06
7.48955e+06
7.60115e+06
7.55817e+06
7.25137e+06
6.64879e+06
5.76662e+06
4.78715e+06
3.84794e+06
3.0142e+06
2.25734e+06
1.57285e+06
990119
587534
371901
273682
228257
205017
189483
177445
164696
151939
139951
140824
235707
1.26352e+07
1.57759e+07
1.39585e+07
1.17507e+07
1.00573e+07
9.4673e+06
9.22218e+06
9.11396e+06
8.8663e+06
8.33527e+06
7.48176e+06
6.36867e+06
5.21456e+06
4.17144e+06
3.27249e+06
2.48402e+06
1.77811e+06
1.14867e+06
674077
406483
285065
230980
202914
185477
172590
159228
146554
135074
136733
229742
382220
383503
404704
410245
405422
363018
220666
149915
130771
124252
122561
124713
132927
152333
192424
266401
382523
538280
691441
700646
673786
640208
639720
714538
865657
1.10429e+06
1.42734e+06
1.58969e+06
1.26752e+06
815788
386695
374612
390046
396613
393196
391804
314753
176515
133873
123106
120443
122764
131237
150649
189802
263251
380237
521868
642384
641914
617834
590927
587388
648620
788139
1.0231e+06
1.36631e+06
1.64165e+06
1.46049e+06
1.09501e+06
384209
356169
366646
371939
360755
366726
353329
232233
145467
123720
118859
120412
128324
146088
181042
245680
350574
484343
595029
605372
586680
560099
549222
600055
725751
945325
1.29171e+06
1.67218e+06
1.62281e+06
1.24243e+06
380654
337713
345121
351526
342001
344888
350801
311635
179111
129054
118680
118705
125794
142291
174508
233861
330461
461660
560614
575021
561896
538191
518569
555101
658061
861815
1.21088e+06
1.66531e+06
1.78346e+06
1.45298e+06
376333
320106
326840
334183
326967
326817
332652
329871
250733
147743
121256
117921
123489
138052
166323
218477
305436
433485
532939
551559
545260
522839
499125
524284
604569
787190
1.13394e+06
1.63036e+06
1.90659e+06
1.70601e+06
371600
304808
311095
317263
312340
312112
315447
321747
301663
195850
132065
119434
121989
134279
158844
204186
280925
401851
509461
538035
537771
515348
489135
501040
561142
721168
1.05853e+06
1.58964e+06
2.00662e+06
1.98017e+06
365875
291265
296856
301737
298537
299264
301232
307988
307250
269643
166183
127110
122518
131304
151746
189580
256973
367597
489717
532281
539234
510552
479865
486373
530284
664727
986482
1.54646e+06
2.09443e+06
2.22459e+06
359605
278636
284254
288844
285288
287393
289175
294957
297484
289818
238106
155155
129546
130972
146371
176525
232788
327874
459926
524184
541432
503695
466890
473006
513032
623346
919486
1.50337e+06
2.17032e+06
2.47927e+06
351131
265435
272198
277378
273682
276314
277681
283278
286583
286565
273767
223846
158395
139751
146116
167684
211032
288845
411041
497277
523234
489049
449236
453903
500504
604480
869064
1.46112e+06
2.23513e+06
2.71269e+06
341648
251241
259646
266667
263275
266635
267598
272394
276492
278820
277897
265376
228496
175197
161380
170865
199198
257758
354519
444581
477635
457532
426100
433316
487251
598450
851588
1.43231e+06
2.2904e+06
2.95456e+06
332307
237328
246331
255304
253076
257644
258698
263107
267483
271444
274406
274231
267701
249249
216056
205429
216759
253818
320656
390235
428577
425446
407196
422841
483405
601078
852297
1.42785e+06
2.35906e+06
3.21385e+06
324733
224900
232971
243452
243727
247551
250266
254942
259819
265700
270892
276260
282003
286246
290721
292559
295941
308084
342865
377940
408444
416424
412258
433563
497894
620539
873017
1.44819e+06
2.44384e+06
3.46831e+06
318166
214197
221145
232049
234407
237239
241563
247479
253244
261175
268841
279834
295479
315552
343521
374226
409305
444506
469164
471474
466300
464807
462045
480606
546488
669972
919272
1.49778e+06
2.55445e+06
3.71626e+06
312186
205022
210826
222036
226140
229342
232820
240281
248081
258432
270453
286873
315302
356733
413701
481029
553502
618421
661970
679192
674330
645088
629208
624084
658562
763112
1.00215e+06
1.58517e+06
2.69699e+06
3.96999e+06
306139
196492
201553
213106
219150
222623
224272
233738
244529
257336
274175
299665
342588
416384
521477
647872
778460
883575
951109
978622
967138
921560
880815
865045
866696
931366
1.14396e+06
1.72773e+06
2.88652e+06
4.24498e+06
299078
188330
193103
204924
212979
217323
219078
228007
241485
258494
281016
316891
381127
496439
673529
895001
1.1228e+06
1.30169e+06
1.40897e+06
1.44352e+06
1.4194e+06
1.34956e+06
1.26149e+06
1.19532e+06
1.16394e+06
1.20985e+06
1.38346e+06
1.95222e+06
3.14116e+06
4.56295e+06
291543
180646
185352
197512
207093
212992
215401
223151
238432
260539
290995
340293
428915
594787
866353
1.21984e+06
1.59173e+06
1.89625e+06
2.0844e+06
2.14273e+06
2.1049e+06
1.9899e+06
1.83496e+06
1.69232e+06
1.5768e+06
1.57653e+06
1.7547e+06
2.30268e+06
3.49888e+06
4.95538e+06
283599
173713
178036
190598
201161
208868
212758
218603
235689
261948
301810
368632
489921
715284
1.08628e+06
1.59034e+06
2.13392e+06
2.60679e+06
2.92401e+06
3.04661e+06
3.01136e+06
2.85411e+06
2.6138e+06
2.36664e+06
2.13757e+06
2.05659e+06
2.23226e+06
2.83784e+06
4.00676e+06
5.46117e+06
275201
167574
171173
183949
195238
204298
210244
216673
233208
262740
311524
398923
562688
858428
1.33097e+06
1.96433e+06
2.6629e+06
3.3062e+06
3.7704e+06
3.99746e+06
4.00086e+06
3.83239e+06
3.52508e+06
3.16801e+06
2.82581e+06
2.66209e+06
2.81839e+06
3.49709e+06
4.71218e+06
6.11217e+06
266456
162086
164854
177578
189436
199359
207367
215292
230149
263166
319928
429807
640979
1.0176e+06
1.58725e+06
2.31646e+06
3.11738e+06
3.88252e+06
4.47166e+06
4.80064e+06
4.87255e+06
4.74517e+06
4.43311e+06
4.00778e+06
3.58689e+06
3.36519e+06
3.51771e+06
4.25233e+06
5.63292e+06
6.99025e+06
258307
156839
158855
171461
183670
194435
203637
213981
228904
263743
330088
462574
723858
1.18062e+06
1.8302e+06
2.60942e+06
3.45391e+06
4.28321e+06
4.9819e+06
5.42248e+06
5.57811e+06
5.49554e+06
5.21438e+06
4.79843e+06
4.37753e+06
4.14623e+06
4.3246e+06
5.10691e+06
6.59208e+06
8.40357e+06
250877
151861
152917
165530
177906
189411
199576
212293
229663
267591
344150
501693
813594
1.33159e+06
2.02405e+06
2.81252e+06
3.66136e+06
4.52605e+06
5.31888e+06
5.8955e+06
6.18047e+06
6.17732e+06
5.94406e+06
5.57624e+06
5.22295e+06
5.03567e+06
5.26806e+06
6.09284e+06
7.865e+06
9.97638e+06
243572
147057
147195
159677
172150
184249
195434
210037
231192
273620
363044
551905
917337
1.48327e+06
2.18169e+06
2.959e+06
3.80492e+06
4.71972e+06
5.61457e+06
6.35483e+06
6.7945e+06
6.91847e+06
6.78837e+06
6.51274e+06
6.25366e+06
6.14821e+06
6.45369e+06
7.22828e+06
8.99617e+06
1.18878e+07
236685
142481
141840
153964
166633
179282
191396
207617
233116
282005
388141
617500
1.04296e+06
1.65266e+06
2.35575e+06
3.13293e+06
3.99997e+06
4.98834e+06
6.0235e+06
6.95813e+06
7.5961e+06
7.90883e+06
7.92992e+06
7.78751e+06
7.68587e+06
7.76964e+06
8.32328e+06
9.14711e+06
1.12815e+07
1.33653e+07
230490
138292
136898
148652
161398
174623
187710
205658
235661
292953
421351
702002
1.19391e+06
1.84143e+06
2.55939e+06
3.37004e+06
4.30794e+06
5.41134e+06
6.63483e+06
7.81592e+06
8.71536e+06
9.2577e+06
9.48455e+06
9.54848e+06
9.77905e+06
1.03857e+07
1.20997e+07
1.45908e+07
1.65334e+07
1.36454e+07
4.04896e+06
3.22455e+06
2.51999e+06
1.98653e+06
1.59764e+06
1.31133e+06
1.10269e+06
952885
847026
775277
729292
704124
697889
711865
746622
805605
895583
1.01648e+06
1.17361e+06
1.3803e+06
1.67855e+06
2.07754e+06
2.5785e+06
3.18331e+06
3.84437e+06
4.55369e+06
5.29149e+06
6.02022e+06
6.74214e+06
7.42907e+06
8.07206e+06
8.65641e+06
9.16881e+06
9.59104e+06
9.8995e+06
1.00694e+07
1.00789e+07
9.9279e+06
9.67201e+06
9.31594e+06
8.85345e+06
8.29485e+06
7.63281e+06
6.89727e+06
6.11677e+06
5.3509e+06
4.63001e+06
3.95801e+06
3.34649e+06
2.80411e+06
2.33599e+06
1.9428e+06
1.6195e+06
1.35657e+06
1.14348e+06
971952
832858
719241
626747
551293
489755
438345
395708
360776
331986
307782
287048
269375
254582
242373
232418
224329
217557
211579
206111
201154
196801
193088
189983
187413
185263
183404
181732
180158
178618
177078
175555
174132
172907
171958
171344
171044
170962
170996
171103
171293
171595
172079
172743
173724
174820
176172
177602
179330
180969
182500
183945
185475
187252
189482
192354
195738
197181
197271
198074
200245
204914
209472
210002
209847
210674
212793
215812
220358
225066
7.35547e+06
6.34016e+06
5.25849e+06
4.34206e+06
3.6206e+06
3.04834e+06
2.60398e+06
2.26131e+06
1.99656e+06
1.79802e+06
1.65242e+06
1.55064e+06
1.48914e+06
1.47324e+06
1.49985e+06
1.57556e+06
1.7097e+06
1.90147e+06
2.16072e+06
2.50201e+06
2.94145e+06
3.47605e+06
4.07841e+06
4.75743e+06
5.4905e+06
6.26724e+06
7.07058e+06
7.88124e+06
8.68769e+06
9.4831e+06
1.02545e+07
1.09857e+07
1.16585e+07
1.22521e+07
1.27444e+07
1.31135e+07
1.3339e+07
1.33971e+07
1.33117e+07
1.30939e+07
1.27619e+07
1.23026e+07
1.17292e+07
1.10337e+07
1.02538e+07