/*--------------------------------*- C++ -*----------------------------------*\
| =========                 |                                                 |
| \\      /  F ield         | OpenFOAM: The Open Source CFD Toolbox           |
|  \\    /   O peration     | Version:  2112                                  |
|   \\  /    A nd           | Website:  www.openfoam.com                      |
|    \\/     M anipulation  |                                                 |
\*---------------------------------------------------------------------------*/
FoamFile
{
    version     2.0;
    format      ascii;
    arch        "LSB;label=32;scalar=64";
    class       volVectorField;
    location    "0.00724";
    object      U;
}
// * * * * * * * * * * * * * * * * * * * * * * * * * * * * * * * * * * * * * //

dimensions      [0 1 -1 0 0 0 0];

internalField   nonuniform List<vector> 
13875
(
(2204.18 109.698 1.81268e-18)
(2142.47 5.65024 -9.38723e-19)
(2170.23 -2.16638 -9.411e-19)
(2167.88 -0.746394 0)
(2170.34 0.168378 0)
(2169.41 -1.38657 9.36796e-19)
(2169.33 -1.25991 -9.37195e-19)
(2169.72 -0.262886 -4.68578e-19)
(2169.44 -0.111597 4.68297e-19)
(2169.47 0.0663576 0)
(2169.61 0.571944 -3.88229e-22)
(2169.39 1.14885 -3.88157e-22)
(2169.56 0.947146 0)
(2169.38 -0.0122372 -4.68231e-19)
(2169.45 -0.930876 4.68597e-19)
(2169.61 -1.29327 0)
(2169.87 -0.265565 9.37054e-19)
(2169.22 0.348815 -9.37799e-19)
(2169.14 0.945611 3.87943e-22)
(2169.81 1.18705 -3.85758e-22)
(2170.45 -0.167123 -9.36283e-19)
(2167.85 0.290183 9.37154e-19)
(2171.1 2.47875 -1.87788e-18)
(2143.62 -8.71106 1.91654e-18)
(2210.52 -106.854 1.76316e-18)
(2253.41 91.936 -1.63242e-18)
(2228.48 -1.17355 1.88334e-18)
(2247.41 0.676146 8.71814e-19)
(2245.55 0.896511 -8.67045e-19)
(2248.44 -0.653622 4.16986e-22)
(2247.66 1.9649 5.20337e-22)
(2245.79 1.428 4.16122e-22)
(2245.55 0.199844 -4.35639e-19)
(2245.01 0.362506 4.35944e-19)
(2245.06 0.0400753 2.17599e-19)
(2245.22 -0.635662 -1.62979e-19)
(2245.37 -1.40243 -5.31569e-20)
(2247.63 -1.17413 0)
(2247.84 0.053242 -4.35005e-19)
(2247.56 1.03343 4.33461e-19)
(2245.6 1.43245 4.36027e-19)
(2245.51 0.502586 -4.35304e-19)
(2245.2 -0.243301 5.18487e-22)
(2245.69 -1.56644 -5.1869e-22)
(2247.84 -1.96849 5.19789e-22)
(2248.4 0.748976 -8.71457e-19)
(2245.58 -0.701594 2.59972e-18)
(2247.25 -1.58412 -1.74256e-18)
(2229.05 3.56179 5.42688e-22)
(2256.7 -96.8075 -1.71221e-18)
(2252.41 78.1212 0)
(2236.35 -18.2407 0)
(2249.47 4.39826 0)
(2250.63 -1.85556 0)
(2253.46 -2.55546 -1.63959e-18)
(2253.2 1.62587 1.6425e-18)
(2253.12 2.17628 1.72287e-18)
(2253.32 0.641479 -2.58179e-18)
(2253.29 0.0271003 8.61746e-19)
(2253.7 -0.041856 4.3066e-22)
(2253.69 0.180715 -4.30921e-19)
(2253.02 -2.21635 4.29833e-19)
(2254.07 -2.55594 0)
(2253.98 -0.00177391 0)
(2254.04 2.35113 4.08174e-22)
(2253.19 1.9992 0)
(2254.07 0.225073 8.38108e-22)
(2253.12 -0.290233 4.30557e-19)
(2253.1 -2.51262 -4.3068e-19)
(2253.54 -1.75442 0)
(2253.72 2.35426 0)
(2250.91 1.33934 0)
(2250.69 -4.82352 0)
(2238.08 13.8054 0)
(2257.02 -74.6933 0)
(2247.86 51.3502 0)
(2235.06 -28.6851 1.81422e-18)
(2249.29 7.20346 -3.41686e-18)
(2251.64 -4.73041 3.46588e-18)
(2253.26 -3.02515 -1.6342e-18)
(2253.18 1.42428 0)
(2253.61 1.62484 -8.4195e-22)
(2254.17 -0.06172 0)
(2254.31 -0.455516 0)
(2254.37 -0.300316 0)
(2254.47 0.328246 0)
(2254.27 -1.93635 -8.44277e-22)
(2254.06 -2.43612 -5.08764e-20)
(2253.96 -0.0276814 5.09178e-20)
(2254 2.2639 0)
(2254.26 1.79775 0)
(2254.74 0.266304 7.99432e-22)
(2254.17 0.391392 -8.57217e-19)
(2253.81 -1.7522 8.56202e-19)
(2253.42 -1.49037 -1.62416e-18)
(2253.56 2.74618 1.62363e-18)
(2251.98 4.3365 1.74097e-18)
(2249.76 -8.88616 -1.72057e-18)
(2235.68 31.3382 0)
(2251.39 -58.5539 0)
(2244.9 39.2809 1.74898e-18)
(2235.46 -47.8762 0)
(2248.71 10.4472 0)
(2250.35 -7.60431 0)
(2253.41 -4.16429 0)
(2253.07 0.957243 1.68078e-21)
(2253.4 1.07845 1.68778e-21)
(2254.05 -0.572377 4.32744e-19)
(2254.3 -0.676898 -4.29399e-19)
(2254.32 -0.354585 2.00614e-19)
(2254.41 0.394856 -2.05282e-19)
(2254.3 -1.41199 0)
(2254.09 -2.1472 0)
(2253.9 -0.0493877 -1.66949e-21)
(2254.05 2.06466 0)
(2254.3 1.34698 -1.68504e-21)
(2254.71 0.275596 8.07237e-19)
(2254.01 0.724936 -8.50737e-19)
(2253.5 -1.23715 1.71554e-18)
(2253.54 -0.843348 -1.69226e-18)
(2253.61 3.75556 1.65337e-21)
(2250.69 6.45969 0)
(2250.04 -11.546 0)
(2237.23 42.906 0)
(2250.5 -35.1752 0)
(2241.5 6.75225 0)
(2231.55 -63.6012 9.12442e-19)
(2247.17 12.2765 -8.47824e-19)
(2250.85 -11.1283 0)
(2252.46 -4.7821 8.60103e-19)
(2252.83 0.249168 -4.36873e-19)
(2253.52 0.378864 -3.01526e-21)
(2254.04 -1.23727 -2.18655e-19)
(2254.27 -1.13412 -4.33106e-19)
(2254.2 -0.545579 1.58559e-19)
(2254.3 0.371449 1.63372e-21)
(2254.19 -1.09588 2.68588e-19)
(2254 -1.923 -2.15471e-19)
(2253.77 -0.105232 3.37272e-21)
(2253.89 1.87567 -4.27434e-19)
(2254.21 1.1472 4.33234e-19)
(2254.64 0.333439 1.63663e-21)
(2254.11 1.33356 -1.68361e-21)
(2253.73 -0.356317 -1.67958e-21)
(2252.97 -0.376392 -8.6005e-19)
(2252.77 4.12557 8.46098e-19)
(2251.44 10.6771 0)
(2247.39 -15.1875 0)
(2232.45 65.5207 -1.9336e-18)
(2246.25 -18.7945 -1.26514e-19)
(2254.04 2.89602 -4.95253e-20)
(2227.48 -79.309 6.02424e-20)
(2243 12.2977 0)
(2248.46 -15.4928 -2.69172e-23)
(2252.01 -6.50265 -2.62451e-23)
(2252.17 -0.837329 0)
(2253.08 -0.66025 0)
(2253.79 -1.8658 -8.63744e-19)
(2254 -1.19727 8.61238e-19)
(2253.95 -0.506864 0)
(2254.05 0.440426 1.68417e-18)
(2254.14 -0.610098 5.09945e-21)
(2253.91 -1.41719 -1.72281e-18)
(2253.62 -0.114982 -1.71107e-21)
(2253.86 1.44108 0)
(2254.19 0.682391 3.4455e-18)
(2254.42 0.380455 1.77107e-21)
(2253.75 1.71276 -6.90578e-18)
(2253.08 0.290598 3.45132e-18)
(2252.81 0.93003 2.64361e-23)
(2252.28 6.08826 0)
(2248.52 12.9572 3.52703e-18)
(2244.19 -12.5316 -3.30863e-18)
(2228.89 72.9811 3.81521e-18)
(2247.32 2.87507 -3.17963e-18)
(2218.31 -22.841 -3.16967e-19)
(2214.66 -87.4014 -7.49684e-18)
(2235.55 3.6436 8.70791e-22)
(2245.96 -22.187 2.61145e-23)
(2248.67 -8.61788 -8.0917e-22)
(2251.01 -2.63255 0)
(2252.77 -2.10528 -3.45139e-18)
(2253.52 -2.56528 3.45934e-18)
(2253.65 -1.60222 0)
(2253.57 -0.823323 -8.26599e-22)
(2253.72 0.175403 -8.24267e-22)
(2253.87 -0.416186 0)
(2253.61 -1.14072 0)
(2253.31 -0.0886554 -1.65888e-21)
(2253.48 1.25892 -8.38268e-22)
(2253.93 0.531138 2.60018e-23)
(2254.13 0.693888 -8.56049e-22)
(2253.52 2.45366 -2.62914e-23)
(2252.9 1.74009 -1.73272e-18)
(2251.42 2.38728 -1.6217e-20)
(2249.26 8.04052 1.68901e-18)
(2246.4 19.3856 8.85413e-22)
(2236.73 -4.80585 3.45889e-18)
(2216.55 81.4856 -3.53719e-18)
(2222.4 18.1411 2.50225e-23)
(2113.16 -37.8648 9.42724e-19)
(2168.53 -98.5428 0)
(2217.05 -20.0553 -8.31448e-22)
(2234.84 -32.0874 -8.6606e-19)
(2245.63 -16.9738 1.71124e-18)
(2248.44 -6.54177 -1.72936e-18)
(2251.29 -4.13941 9.36057e-21)
(2252.62 -3.4918 8.61773e-19)
(2252.79 -1.64409 0)
(2252.75 -0.707513 -8.45375e-19)
(2252.96 0.24009 8.48216e-19)
(2253.28 0.0499538 0)
(2253.08 -0.551837 0)
(2252.71 -0.186605 2.10267e-21)
(2252.96 0.549875 8.33562e-22)
(2253.3 0.0440427 8.41798e-19)
(2253.32 0.902284 -8.44313e-19)
(2252.53 3.2577 0)
(2251.25 3.36456 8.6082e-19)
(2249.46 6.00694 -1.72866e-18)
(2246.23 15.1224 8.45106e-19)
(2236.19 28.8655 -8.40918e-22)
(2219.05 16.6541 0)
(2171.4 93.921 0)
(2117.15 35.3384 0)
(1873.4 -142.22 -6.57104e-17)
(2125.56 -161.302 8.42721e-17)
(2198.73 -54.4719 0)
(2229.23 -53.5606 -2.99313e-17)
(2239.62 -21.5761 3.0709e-17)
(2246.24 -11.4632 0)
(2249.6 -8.31939 -2.95955e-20)
(2250.91 -4.99334 -1.47163e-17)
(2251.34 -2.42779 1.46732e-17)
(2251.37 -1.37501 -2.94261e-20)
(2251.68 -0.446205 0)
(2252.09 -0.0578464 -3.70916e-18)
(2251.91 -0.173571 5.59556e-18)
(2251.5 -0.172122 -1.89665e-18)
(2251.69 0.416637 -2.92191e-20)
(2252 0.384598 0)
(2251.88 1.78145 0)
(2250.93 5.02602 -2.94805e-17)
(2249.42 7.52696 2.90939e-17)
(2246.69 10.2752 -3.05981e-17)
(2240.5 20.4665 2.91894e-17)
(2229.45 52.9403 3.22024e-17)
(2199.92 52.4928 -2.92246e-17)
(2128.78 161.808 -8.3377e-17)
(1884.76 138.336 -1.258e-17)
(1652.83 -215.495 -9.08504e-17)
(2011.33 -307.457 1.37638e-16)
(2159.6 -104.189 0)
(2211.02 -64.4272 6.81685e-17)
(2232.7 -29.7783 -7.09002e-17)
(2241.69 -15.9203 -3.40881e-17)
(2245.36 -8.59858 3.40663e-17)
(2247.64 -4.27413 -3.32543e-17)
(2248.38 -1.70613 3.34537e-17)
(2248.67 -0.720183 3.26013e-20)
(2249.17 -0.045746 0)
(2249.67 0.367178 -2.11618e-18)
(2249.6 0.466166 2.15808e-18)
(2249.15 -0.165618 3.30814e-20)
(2249.23 -0.502938 3.27172e-20)
(2249.35 -0.429498 3.27664e-20)
(2249.1 0.890358 0)
(2247.98 4.55139 0)
(2245.06 7.57818 -6.77144e-17)
(2242.27 15.2848 6.82242e-17)
(2233.71 26.8672 -7.13808e-17)
(2211.63 58.9795 1.47083e-16)
(2166.15 99.3282 -6.99519e-17)
(2016.86 298.52 -3.86824e-20)
(1698.07 205.993 8.75017e-20)
(1281.4 -592.678 -1.08927e-16)
(1742.64 -590.966 1.18957e-16)
(2046.64 -180.463 2.16643e-16)
(2173.97 -106.903 -9.34896e-17)
(2208.18 -37.0471 0)
(2229.87 -21.3113 7.42753e-17)
(2238.1 -13.8515 -7.52995e-17)
(2241.32 -7.14733 0)
(2242.6 -4.12648 3.5501e-20)
(2243.29 -2.53591 0)
(2244 -1.42083 0)
(2244.53 -0.104724 0)
(2244.61 0.735627 4.65869e-18)
(2244.18 0.162535 -4.65916e-18)
(2244.11 0.0556525 -3.72212e-20)
(2243.86 0.813594 -3.53125e-20)
(2243.25 2.84305 0)
(2241.66 7.2131 0)
(2237.91 13.9431 0)
(2228.61 19.0739 -7.88976e-17)
(2211.61 37.1537 1.56847e-16)
(2176.59 102.474 -7.22998e-17)
(2053.13 161.862 -1.33614e-16)
(1750.24 592.262 1.00472e-16)
(1286.48 543.467 -5.9925e-20)
(1301.86 -610.467 1.60789e-16)
(1113.84 -1086.46 0)
(1701.13 -454.741 0)
(1926.69 -130.032 -1.08464e-16)
(2150.15 -85.8041 1.09352e-16)
(2200.97 -43.33 0)
(2215.08 -13.5023 1.12884e-20)
(2223.78 -5.27423 4.03542e-17)
(2227.47 -1.50517 -4.08427e-17)
(2229.86 -0.415076 0)
(2231.3 0.0717185 -1.01577e-17)
(2232.02 0.60135 1.01756e-17)
(2232.29 1.18475 -5.072e-18)
(2231.92 0.370582 5.08637e-18)
(2231.54 -0.581598 3.86305e-20)
(2230.35 -1.1527 -4.06288e-17)
(2227.88 -0.235381 8.0507e-17)
(2223.58 4.29711 1.03641e-18)
(2213.71 13.1154 -4.04003e-17)
(2197.97 44.4534 -9.08935e-17)
(2134.41 71.9127 8.43562e-17)
(1912.47 109.119 8.26249e-20)
(1759.63 454.199 2.60587e-20)
(1103.6 1071.53 1.67412e-16)
(1319.87 612.255 7.16993e-18)
(1358.92 -629.706 0)
(1142.85 -1059.24 0)
(1290.92 -753.071 0)
(1200.57 -822.306 0)
(1952.46 -256.597 0)
(2048.95 -62.1552 1.01811e-16)
(2156.07 -46.831 -1.04229e-16)
(2174.65 -29.4128 1.15472e-19)
(2183.7 -18.924 -1.03177e-20)
(2190.44 -10.5975 2.26308e-17)
(2193.24 -5.72698 -2.2887e-17)
(2194.4 -1.78753 -2.26404e-19)
(2194.82 0.573018 -7.07817e-19)
(2194.44 1.72892 8.04152e-19)
(2193.65 3.80645 -2.2702e-17)
(2191.15 8.51306 2.24614e-17)
(2184.34 17.6893 9.94403e-20)
(2173.85 31.395 0)
(2149.8 52.7115 0)
(2020.7 86.647 0)
(1917.39 322.844 -2.11102e-16)
(1175.33 816.962 -6.11307e-17)
(1296.87 703.1 1.63932e-16)
(1135.41 1023.32 2.05615e-20)
(1369.38 618.924 2.08567e-20)
(1436.96 -621.414 0)
(1273.09 -928.373 3.94197e-20)
(1320.79 -784.901 0)
(1232.73 -857.386 -1.67288e-16)
(1331.84 -804.665 3.18267e-16)
(1643.06 -557.051 -2.04548e-16)
(1937.06 -119.146 0)
(1956.68 -12.1259 -1.02597e-19)
(2004.01 15.9869 0)
(2041.32 9.56547 0)
(2053.73 6.11377 -1.41271e-17)
(2057.9 2.64004 1.44399e-17)
(2059.22 1.82593 1.42163e-17)
(2058.65 1.05153 -1.42901e-17)
(2056.23 -0.6387 0)
(2047.36 -4.83628 -5.87817e-17)
(2014.48 -11.2411 5.93545e-17)
(1959.84 15.8679 7.12148e-17)
(1936.53 137.523 -5.98202e-17)
(1606.81 581.509 0)
(1307.89 797.464 0)
(1205.71 848.85 -1.70004e-19)
(1330.96 779.275 -1.7082e-16)
(1266.86 919.614 3.66696e-16)
(1425.7 618.967 -1.69371e-16)
(1519.26 -631.187 -1.69283e-16)
(1387.75 -852.399 1.87093e-16)
(1382.04 -756.934 0)
(1278.46 -814.634 -1.91186e-16)
(1304.02 -781.372 -6.34636e-18)
(1302.85 -745.695 2.7753e-16)
(1253.62 -592.421 -2.00008e-16)
(1311.59 -522.568 1.18543e-16)
(1527.86 -277.528 0)
(1554.17 -124.535 0)
(1539.84 -63.0682 -4.11541e-20)
(1536.43 -23.5698 2.76201e-19)
(1533.81 -4.48339 0)
(1535.28 11.8726 0)
(1538.66 42.6894 5.85138e-17)
(1548.59 111.705 -5.56741e-17)
(1565.48 234.987 -1.11537e-16)
(1326.73 522.011 2.25285e-16)
(1239.62 591.772 1.81999e-17)
(1283.99 744.884 -9.00997e-17)
(1300.87 778.504 0)
(1252.8 820.771 0)
(1381.27 759.215 -1.74106e-16)
(1352.3 885.263 2.03079e-16)
(1502.41 640.756 -4.59254e-20)
(1659.13 -610.05 1.57315e-16)
(1560.92 -750.763 -9.69643e-20)
(1526.43 -688.896 9.51069e-17)
(1468.46 -720.189 -8.47741e-17)
(1393.87 -676.593 -4.51105e-20)
(1332.3 -595.86 8.77924e-20)
(1184.16 -445.529 1.16124e-16)
(851.702 -230.5 -1.81115e-16)
(668.964 -122.356 6.41114e-17)
(520.602 -55.2734 0)
(397.472 -19.698 -3.37223e-17)
(356.727 -5.9948 3.36344e-17)
(339.502 0.729248 0)
(346.227 8.5258 6.28412e-20)
(376.04 15.8615 -3.3569e-17)
(482.091 45.4376 3.38339e-17)
(713.797 117.695 0)
(847.322 239.547 -1.17378e-16)
(1162.18 429.82 1.17612e-16)
(1318.51 589.316 8.90252e-17)
(1388.51 680.965 -1.87534e-16)
(1433.71 745.833 9.91617e-17)
(1519.14 711.04 0)
(1546.2 778.352 1.68886e-16)
(1649.39 625.127 -3.236e-18)
(1814.31 -551.328 -3.33732e-18)
(1745.76 -595.354 8.03982e-17)
(1688.42 -537.949 -3.64957e-17)
(1535.46 -411.071 -5.74449e-17)
(1423.91 -343.131 7.30865e-17)
(1382.56 -264.722 -5.1292e-17)
(1283.6 -251.564 5.32415e-17)
(926.977 -185.738 -5.89346e-17)
(714.762 -101.538 -4.39852e-19)
(593.16 -59.4721 3.30526e-17)
(498.401 -34.3885 1.65043e-17)
(466.075 -18.2024 -1.58915e-19)
(453.303 0.217368 -1.66806e-17)
(460.157 22.1506 -6.08631e-20)
(490.708 34.7263 -7.54979e-20)
(581.506 54.5038 -2.07322e-18)
(775.642 96.5073 1.69582e-20)
(941.783 177.736 5.42787e-18)
(1277.68 225.307 -3.52908e-18)
(1376.23 297.813 0)
(1417.4 397.948 1.08458e-17)
(1542.79 460.169 -3.4814e-17)
(1689.03 582.751 4.15616e-17)
(1742.12 628.41 -5.66674e-17)
(1809.56 568.842 5.32296e-17)
(1992.88 -510.205 -8.62932e-20)
(1952.78 -337.249 -1.04408e-19)
(1883.9 -313.276 1.22206e-19)
(1781.14 -203.019 -5.58485e-21)
(1510.64 -47.9626 -1.85402e-19)
(1415.81 -23.6842 -1.99452e-19)
(1374.62 -75.1359 -7.20021e-21)
(1189.4 -90.8602 0)
(955.639 -107.568 0)
(823.957 -120.433 6.56758e-17)
(748.599 -100.899 -6.6954e-17)
(706.295 -47.6549 -8.87685e-21)
(691.375 2.75515 8.85445e-21)
(696.373 51.3969 -8.62231e-18)
(731.631 114.769 8.36123e-18)
(813.656 147.622 0)
(974.671 130.47 0)
(1161.39 106.406 -5.66889e-17)
(1343.53 77.8333 5.60823e-17)
(1376.78 11.606 -1.94442e-19)
(1504.7 39.473 0)
(1787.7 211.321 0)
(1885.55 317.566 -1.2524e-19)
(1951.12 336.64 -1.07893e-19)
(1995 524.817 1.23016e-16)
(1534.03 -184.87 -1.86468e-16)
(1748.55 -116.747 -2.40047e-16)
(1860.79 105.546 1.21068e-16)
(1800.74 159.149 0)
(1627.14 207.328 2.01205e-19)
(1519.63 136.994 1.07562e-16)
(1507.61 23.6556 -2.08443e-16)
(1404.41 -19.3049 1.06387e-16)
(1215.26 -58.8425 -1.21319e-16)
(1059.79 -83.3757 1.25346e-16)
(939.86 -70.7247 3.29601e-17)
(870.999 -27.5798 -4.101e-17)
(847.176 6.68585 -8.30407e-18)
(864.247 39.6991 1.67898e-17)
(933.437 88.9887 0)
(1067.92 109.446 0)
(1235.51 79.0678 1.16918e-16)
(1386.08 36.9763 -2.21017e-16)
(1494.54 -26.0165 1.09248e-16)
(1502.21 -151.751 2.28233e-19)
(1636.39 -213.593 1.56299e-16)
(1789.08 -164.204 -9.43849e-17)
(1838.1 -142.497 -4.83299e-16)
(1742.9 124.836 6.26273e-16)
(1517.43 185.296 -2.51241e-16)
(15.6212 -73.2159 1.14452e-19)
(567.948 -90.0592 -2.58324e-16)
(1423.92 331.87 1.69402e-16)
(1683.71 507.817 0)
(1664.35 428.15 0)
(1613.86 267.021 0)
(1604.18 130.173 0)
(1527.79 65.9136 0)
(1363.12 17.7343 -5.18738e-17)
(1203.73 -18.751 1.08623e-16)
(1079.8 -24.7995 -8.46673e-17)
(1004.03 -5.0427 3.21502e-17)
(983.101 9.34191 -3.62203e-18)
(1004.1 21.0718 1.57257e-20)
(1087.39 44.9366 -5.58415e-17)
(1229.43 40.3988 5.5558e-17)
(1392.35 -0.703789 0)
(1524.83 -52.4549 0)
(1607.68 -128.572 -1.72623e-16)
(1604.41 -289.111 1.8581e-16)
(1669.61 -434.766 -1.6337e-19)
(1667.18 -508.25 7.18469e-20)
(1373.83 -319.471 -9.55666e-20)
(491.636 120.602 -1.15123e-19)
(-54.5396 74.885 0)
(-335.377 -51.6825 -2.24695e-16)
(443.697 302.075 2.28862e-16)
(1287.97 682.458 -1.67213e-19)
(1647.46 747.474 1.61151e-16)
(1722.66 581.174 -1.21626e-16)
(1693.02 375.979 0)
(1674.88 228.327 -8.18104e-17)
(1611.35 159.406 7.4755e-17)
(1468.05 92.4592 -4.47263e-17)
(1319.9 38.1099 9.37177e-17)
(1195.14 13.4474 -4.82257e-17)
(1124.49 10.6895 1.83019e-19)
(1103.59 7.38173 0)
(1129.77 2.76876 2.4889e-17)
(1212.99 -0.345079 2.31585e-17)
(1352.66 -28.1652 -4.74942e-17)
(1496.91 -89.1116 -8.17412e-17)
(1608.98 -152.431 8.39725e-17)
(1684 -229.241 -7.15845e-17)
(1689.09 -405.547 7.98708e-17)
(1719.58 -601.599 7.99289e-20)
(1617.01 -763.223 -7.53189e-20)
(1229.2 -673.933 0)
(381.461 -294.596 1.11489e-19)
(-321.813 21.1976 0)
(337.264 345.731 1.88063e-16)
(915.085 783.392 -1.84723e-16)
(1432.02 889.717 6.1071e-20)
(1690.46 868.317 0)
(1774.27 675.729 0)
(1740.64 500.705 -7.30399e-21)
(1716.36 352.179 0)
(1667.03 248.482 7.42587e-20)
(1545.38 166.383 0)
(1411.15 96.5763 4.16888e-17)
(1300.51 50.495 -6.40317e-17)
(1230.44 25.3143 3.26352e-17)
(1211.66 6.36327 -1.10005e-17)
(1235.78 -15.3998 0)
(1315.95 -40.1667 0)
(1439.55 -89.1904 3.89493e-17)
(1567.93 -161.081 -1.09591e-16)
(1662.71 -248.019 7.31236e-17)
(1734.28 -342.997 -6.04307e-17)
(1742.42 -504.757 7.04509e-17)
(1780.17 -681.828 0)
(1679.96 -882.437 0)
(1421.79 -893.85 0)
(928.987 -795.3 -1.13025e-20)
(339.395 -315.286 -1.98414e-16)
(395.29 163.055 -3.57527e-20)
(1160.04 763.645 1.53435e-16)
(1556.09 953.083 -1.1549e-16)
(1752.11 909.318 0)
(1804.83 739.256 0)
(1764.44 588.698 7.50473e-21)
(1754.49 442.582 6.43075e-17)
(1714.4 325.981 -5.72313e-17)
(1607.46 222.942 3.04524e-20)
(1489.82 139.206 3.3074e-20)
(1387.91 78.656 3.48965e-20)
(1327.01 37.5823 -1.0334e-20)
(1306.94 4.02298 -1.03818e-20)
(1331.59 -30.6218 1.92787e-17)
(1402.52 -73.4884 -1.93585e-17)
(1515.88 -136.382 4.23574e-20)
(1628.83 -220.301 3.89967e-20)
(1707.83 -328.513 0)
(1767.28 -434.275 -5.38178e-17)
(1774.33 -586.52 6.25865e-17)
(1814.19 -739.688 0)
(1748.84 -916.194 -9.78198e-17)
(1545.52 -950.561 1.19591e-16)
(1144.9 -750.444 8.83489e-21)
(395 -139.896 -1.86099e-16)
(591.986 171.253 4.11768e-20)
(1306.81 787.138 0)
(1644.73 956.088 0)
(1793.19 916.5 -4.71748e-17)
(1814.34 779.878 4.60542e-17)
(1780.42 649.794 0)
(1785.29 511.05 5.84394e-17)
(1750.69 384.768 -5.27806e-17)
(1656.24 273.602 3.19614e-17)
(1551.7 178.529 -3.22202e-17)
(1465.51 103.064 1.77088e-17)
(1408.31 48.5064 -1.78192e-17)
(1393.09 1.88279 0)
(1414.59 -46.8837 -1.76472e-17)
(1481.01 -103.806 1.771e-17)
(1577.8 -183.02 -3.48145e-20)
(1678.02 -273.116 -3.21736e-20)
(1746.18 -395.011 5.17831e-20)
(1794.92 -510.257 4.93942e-17)
(1787.16 -651.785 -5.76252e-17)
(1827.08 -783.181 -4.58406e-20)
(1791.17 -923.139 -4.35866e-20)
(1638.1 -942.53 0)
(1269.6 -763.988 -7.08834e-20)
(558.332 -149.738 4.18519e-20)
(626.535 163.664 1.57799e-22)
(1372.15 720.098 0)
(1710.71 893.648 9.08054e-23)
(1792.87 913.628 3.95679e-20)
(1818.67 812.681 -8.50065e-23)
(1796.04 698.456 -5.15871e-17)
(1813.38 562.594 4.58958e-17)
(1786.66 435.474 0)
(1703.14 313.689 -5.92945e-20)
(1614.09 211.565 -1.08255e-22)
(1533.54 125.52 -1.13855e-22)
(1485.88 57.6178 6.87995e-20)
(1468.79 0.325864 0)
(1489.59 -57.062 0)
(1545.72 -126.565 -1.13181e-22)
(1634.96 -215.673 -1.07187e-22)
(1722.33 -313.522 -2.64033e-17)
(1779.44 -442.624 7.53281e-17)
(1817.91 -561.007 -5.31338e-17)
(1803.25 -698.086 0)
(1831.42 -803.808 -4.40381e-17)
(1792.87 -913.558 4.3251e-17)
(1711.36 -882.32 9.09852e-23)
(1364.25 -696.362 6.07001e-20)
(623.799 -165.323 1.58082e-22)
(740.761 210.645 3.58119e-18)
(1483.24 695.642 1.37895e-17)
(1756.07 862.321 9.68613e-17)
(1799.55 901.606 -4.04832e-17)
(1831.32 812.199 4.18354e-17)
(1813.31 713.602 -4.77304e-17)
(1839.58 591.364 4.2686e-17)
(1811.86 468.482 -2.52706e-17)
(1737.92 346.389 2.47665e-17)
(1660.42 239.848 1.15137e-22)
(1595.86 143.839 1.20785e-22)
(1550.82 66.9608 -1.23309e-22)
(1537.99 0.430919 7.42899e-18)
(1554.78 -67.714 7.25811e-18)
(1606.92 -146.573 -1.48668e-17)
(1680.27 -246.167 1.14141e-22)
(1758.11 -342.497 4.90658e-17)
(1808.74 -473.954 -9.54765e-17)
(1845.75 -587.485 4.87406e-17)
(1816.47 -717.092 0)
(1842.02 -807.701 -8.39865e-23)
(1801.57 -900.663 7.75679e-23)
(1752.49 -858.929 -8.29336e-23)
(1473.58 -688.626 -1.19935e-16)
(727.609 -211.609 1.47869e-16)
(777.089 224.251 1.39313e-19)
(1529.41 644.691 0)
(1776.36 805.489 0)
(1803.59 875.283 3.8947e-20)
(1835.59 800.866 8.09307e-20)
(1834.83 726.325 0)
(1865.73 610.433 4.49361e-17)
(1840.34 489.824 -4.2384e-17)
(1773.3 363.699 4.44892e-20)
(1709.14 255.097 -4.77136e-20)
(1648.84 154.598 -1.37538e-17)
(1613 70.0967 1.37213e-17)
(1599.09 -3.8149 3.57011e-18)
(1616.39 -78.1851 -3.46811e-18)
(1659.59 -164.505 1.32603e-17)
(1727.31 -270.188 -3.80062e-17)
(1793.52 -372.418 2.47363e-17)
(1833.92 -505.175 -4.63997e-20)
(1865.63 -616.439 3.94171e-20)
(1836.35 -733.203 -4.03495e-17)
(1845.82 -799.742 9.7253e-19)
(1808.26 -870.968 -1.85268e-18)
(1778.53 -792.081 4.08228e-17)
(1499.91 -615.606 5.61774e-20)
(715.715 -213.674 6.84717e-20)
(770.931 210.479 1.3454e-16)
(1560.76 586.632 -1.07926e-16)
(1801 761.27 0)
(1818.57 848.721 -3.78537e-17)
(1854.11 789.92 3.09588e-19)
(1854.18 720.618 3.91711e-17)
(1888.71 618.516 4.17182e-17)
(1859.95 508.014 -4.0066e-17)
(1802.3 386.622 -4.71581e-20)
(1747.03 277.676 -2.46129e-17)
(1700.85 171.021 1.19312e-17)
(1665.74 81.4568 1.26341e-17)
(1655.37 0.709688 -5.38396e-20)
(1667.53 -81.2378 0)
(1707.44 -172.083 0)
(1760.64 -283.607 0)
(1820.98 -379.937 4.66664e-20)
(1857.4 -510.117 9.69329e-21)
(1891.28 -612.012 -4.97708e-20)
(1856.29 -720.729 0)
(1862.54 -784.837 3.84474e-20)
(1822.47 -845.775 9.30159e-21)
(1803.66 -761.147 -4.81917e-20)
(1574.67 -586.864 -1.05858e-16)
(813.152 -237.508 1.35589e-16)
(810.83 238.003 6.56e-17)
(1582.89 523.23 -9.56838e-17)
(1817.1 676.493 8.22511e-17)
(1830.71 791.683 -4.09292e-17)
(1862.37 757.773 -3.76287e-17)
(1873.44 709.533 3.72742e-17)
(1910.09 621.375 1.92949e-17)
(1882.96 515.196 -1.90066e-17)
(1831.22 391.724 1.08507e-17)
(1787.39 282.55 -2.24259e-17)
(1742.6 175.151 1.73897e-17)
(1716.49 82.3338 -7.37986e-18)
(1705.09 -2.43794 1.48887e-18)
(1718.34 -87.9925 -4.37011e-20)
(1750.53 -181.299 2.28714e-17)
(1800.88 -295.812 -2.29071e-17)
(1850.87 -396.57 3.88268e-20)
(1877.97 -524.19 3.79543e-17)
(1909.97 -620.3 -1.9376e-18)
(1870.38 -713.654 -3.8197e-17)
(1871.81 -756.984 0)
(1835.98 -793.751 4.10659e-17)
(1819.26 -686.052 -3.63716e-17)
(1583.69 -528.182 -1.02554e-16)
(822.502 -249.937 -8.99303e-19)
(926.498 268.537 -6.24975e-17)
(1646.15 478.88 4.79677e-17)
(1841.11 630.824 1.90473e-20)
(1843.92 750.841 -5.38756e-20)
(1886.95 740.968 1.82219e-20)
(1895.01 687.889 3.58214e-17)
(1932.19 602.183 -1.72157e-17)
(1897.45 508.17 -1.83899e-17)
(1854.26 394.201 4.16738e-20)
(1816.43 289.703 -4.42325e-20)
(1784.18 179.677 2.02822e-20)
(1758.03 85.1184 -2.06073e-20)
(1751.21 -3.33473 0)
(1760.17 -93.7641 5.27395e-21)
(1790.6 -189.257 -1.07138e-17)
(1828.26 -305.233 1.07804e-17)
(1874.6 -397.519 -1.93515e-17)
(1897.54 -520.946 1.00324e-18)
(1932.69 -603.113 1.80806e-17)
(1892.21 -692.454 -5.29374e-20)
(1891.59 -742.672 -3.69299e-17)
(1852.14 -751.804 3.48504e-17)
(1845.08 -634.571 0)
(1635.94 -477.154 -4.84888e-17)
(865.782 -256.844 6.2584e-17)
(942.886 271.951 0)
(1662.41 429.653 -4.22942e-17)
(1844.6 548.475 4.25045e-17)
(1864.4 669.729 1.77338e-20)
(1897.91 700.212 1.7152e-20)
(1914.31 667.192 -3.42328e-17)
(1945.59 598.481 3.42128e-17)
(1917.08 512.011 1.83614e-17)
(1880.04 398.228 8.14469e-19)
(1852.11 293.403 -1.97225e-17)
(1819.02 184.359 -2.14825e-20)
(1800.59 88.9394 2.41697e-20)
(1791.57 -0.907332 0)
(1801.19 -91.8145 4.34653e-20)
(1824.3 -185.817 -2.14026e-20)
(1861.42 -303.819 9.78077e-18)
(1899.01 -399.241 -9.66065e-18)
(1912.56 -517.729 -1.83196e-20)
(1944.5 -595.541 -1.91919e-20)
(1910.28 -668.535 1.73934e-20)
(1901.58 -704.68 -3.65556e-17)
(1870.14 -684.303 -6.59841e-18)
(1854.35 -567.64 3.35399e-17)
(1672.19 -435.958 0)
(970.876 -275.242 6.02321e-17)
(1037.76 285.844 -1.14343e-16)
(1698.14 395.543 4.46248e-17)
(1858.01 486.79 3.23857e-17)
(1886.44 624.117 -4.10144e-17)
(1916.17 673.008 0)
(1936.22 647.047 -2.05597e-21)
(1964.85 575.316 0)
(1929.47 494.132 -2.20463e-21)
(1898.95 391.718 -2.34085e-21)
(1874.23 293.817 0)
(1852.88 184.298 0)
(1833.55 89.0577 -2.56707e-21)
(1829.19 -2.11708 0)
(1835.07 -95.7322 0)
(1857.51 -190.525 -9.63425e-18)
(1883.02 -306.257 9.62927e-18)
(1920.35 -390.931 -2.3183e-21)
(1931.51 -504.509 -1.71851e-17)
(1964.24 -575.65 1.63662e-17)
(1933.29 -649.214 0)
(1918.5 -679.769 3.57531e-17)
(1890.18 -636.362 -7.3185e-17)
(1868.09 -506.078 7.23916e-17)
(1701.96 -393.164 4.01412e-18)
(1044.99 -291.842 -5.70245e-17)
(1093.99 278.955 1.3554e-20)
(1717.07 364.953 -1.03453e-20)
(1863.91 424.077 0)
(1904.46 533.426 0)
(1925.85 616.365 0)
(1954.45 616.333 7.64628e-21)
(1974.36 561.865 0)
(1944.53 486.287 -7.89005e-21)
(1921.89 385.551 0)
(1906.26 286.799 -8.49899e-21)
(1881.19 179.28 0)
(1868.82 86.4576 -2.35053e-18)
(1861.86 -3.72936 2.3445e-18)
(1869.27 -95.3166 0)
(1885.81 -185.856 9.19033e-18)
(1912.7 -303.729 -1.80766e-17)
(1940.89 -391.856 8.74127e-18)
(1943.99 -495.955 0)
(1974.28 -564.072 1.59802e-17)
(1949.18 -620.772 -1.57932e-17)
(1930.2 -625.015 3.57358e-17)
(1909.37 -556.158 -3.16774e-17)
(1864.73 -443.923 0)
(1717.92 -358.063 0)
(1087.66 -274.208 0)
(1140.87 272.145 -1.31653e-20)
(1741.68 342.638 1.02511e-20)
(1879.79 359.103 0)
(1919.16 464.92 0)
(1943.68 580.078 0)
(1971.88 597.335 -7.59624e-21)
(1993.98 539.064 0)
(1957.14 464.611 8.22901e-21)
(1939.31 374.91 0)
(1924.35 286.954 -8.81199e-18)
(1910.15 181.733 8.8136e-18)
(1895.39 89.5901 -8.40757e-21)
(1892.7 -0.347325 9.25174e-21)
(1895.99 -93.1732 8.40031e-21)
(1912.54 -183.216 0)
(1929.39 -295.254 0)
(1960.61 -371.654 8.52674e-21)
(1961.56 -472.791 -1.62498e-17)
(1995.04 -538.201 1.51184e-17)
(1969.05 -600.382 0)
(1943.42 -591.731 7.77303e-21)
(1925.56 -482.757 0)
(1877.62 -383.865 0)
(1743.17 -338.658 0)
(1122.75 -246.252 0)
(1169.39 240.211 -5.04445e-17)
(1753.97 310.944 4.1662e-17)
(1887.6 310.855 0)
(1929.71 376.454 -1.69099e-20)
(1954.92 516.593 0)
(1983.26 551.765 -1.44601e-17)
(2002.23 518.103 3.02832e-17)
(1971.15 453.779 -1.58549e-17)
(1959.09 365.478 -8.1306e-18)
(1952.84 275.846 8.33697e-18)
(1933.15 173.031 4.34763e-21)
(1924.97 85.1903 1.11091e-18)
(1919.16 -2.74912 -1.07292e-18)
(1924.83 -92.3693 8.4733e-18)
(1937.16 -177.163 -8.52937e-18)
(1956.02 -291.783 0)
(1977.59 -370.116 -1.51866e-20)
(1971.96 -462.889 0)
(2002.02 -524.033 0)
(1980.47 -560.777 -1.62609e-17)
(1955.19 -526.161 1.46122e-17)
(1934.63 -394.531 0)
(1884.88 -324.796 3.65941e-17)
(1738.4 -311.804 2.11202e-18)
(1117.41 -220.601 -1.04252e-16)
(1229.9 223.422 5.05929e-17)
(1779.48 288.921 1.91873e-20)
(1900.31 259.005 3.10528e-17)
(1928.05 317.663 -2.32589e-17)
(1966.96 473.97 -1.7801e-17)
(1996.49 521.906 0)
(2019.35 492.675 7.57564e-21)
(1983.64 426.103 1.51968e-17)
(1974.92 346.393 -1.58603e-17)
(1966.72 267.68 0)
(1956.97 170.182 0)
(1945.73 84.0658 -2.59417e-20)
(1944.65 -2.52604 3.21159e-20)
(1946.39 -92.9655 1.69327e-20)
(1959.18 -175.968 4.07085e-18)
(1969.69 -280.531 -4.04173e-18)
(1996.43 -348.94 8.42613e-21)
(1991.06 -440.294 1.55522e-17)
(2021.87 -496.086 -2.91227e-17)
(1995.76 -528.863 1.40008e-17)
(1968.17 -485.676 -1.48476e-20)
(1938.36 -314.422 0)
(1900.6 -269.758 1.69318e-20)
(1760.48 -291.29 4.03928e-17)
(1186.2 -224.931 -1.00727e-16)
(1233.18 184.946 -4.97287e-17)
(1780.19 258.252 -3.80509e-17)
(1902.03 228.747 3.47773e-17)
(1915.41 235.453 1.45272e-17)
(1975.52 386.713 -1.85367e-17)
(2004.1 460.933 0)
(2025.3 463.431 3.68537e-21)
(1996.46 415.213 -1.10417e-20)
(1993.8 339.968 7.58671e-18)
(1992.52 258.744 -1.55881e-17)
(1976.18 163.771 7.9e-18)
(1970.87 82.5393 1.97309e-18)
(1966.21 -1.26997 -1.85859e-18)
(1970.56 -86.8905 1.83461e-18)
(1979.28 -164.203 -1.9783e-18)
(1992.45 -272.407 0)
(2010.55 -341.647 1.12433e-20)
(1999.05 -422.15 -3.57935e-21)
(2025.79 -473.365 -1.49839e-17)
(2002.76 -475.442 1.36785e-17)
(1976.72 -401.451 0)
(1925.82 -249.494 0)
(1905.51 -224.213 -4.10247e-21)
(1778.82 -261.034 -3.98057e-17)
(1237.97 -202.819 -1.5651e-18)
(1273.89 168.355 -2.33908e-17)
(1793.92 242.513 1.94365e-17)
(1914.72 207.156 4.10794e-21)
(1917.79 178.254 0)
(1983.68 310.413 1.34808e-17)
(2016.61 419.392 -1.62657e-17)
(2037.21 435.343 3.432e-21)
(2009.07 383.347 3.65996e-21)
(2008.34 318.192 1.41026e-20)
(2002.85 248.559 -1.89406e-18)
(1995.44 159.668 9.51425e-19)
(1986.93 80.2914 1.8832e-18)
(1987.07 -1.81101 -9.60679e-19)
(1987.5 -87.9548 3.84228e-18)
(1997.7 -162.503 -3.7992e-18)
(2004.02 -259.325 0)
(2029.37 -321.246 1.02194e-20)
(2017.95 -398.954 -1.51158e-17)
(2040.06 -441.717 1.329e-17)
(2016.99 -432.427 3.46664e-21)
(1984.8 -337.286 0)
(1923.43 -168.239 0)
(1923.42 -205.393 4.11713e-21)
(1798.2 -249.44 -3.90017e-17)
(1279.08 -192.642 4.6699e-17)
(1306.18 142.739 2.33961e-20)
(1802.02 211.81 0)
(1925.71 183.377 -7.81039e-21)
(1925.27 115.968 -1.45476e-17)
(1978.33 232.269 1.77303e-17)
(2017.05 347.399 -1.31437e-17)
(2037.33 389.842 1.5358e-17)
(2017.31 366.741 -7.01521e-18)
(2024.35 308.433 7.36414e-18)
(2025.91 237.209 -3.63341e-18)
(2011.16 149.941 3.70624e-18)
(2008.23 75.0049 -1.8136e-18)
(2004.74 -3.55648 2.08791e-18)
(2008.05 -83.9903 -2.45503e-19)
(2014.78 -154.228 3.69832e-18)
(2024.71 -254.133 -7.29757e-18)
(2040.59 -312.328 -3.77002e-18)
(2024.08 -376.183 7.03294e-18)
(2041.49 -408.091 1.35954e-20)
(2019.53 -364.201 -7.02163e-21)
(1985.66 -237.089 0)
(1930.67 -126.404 0)
(1936.89 -182.699 0)
(1808.11 -216.589 -1.92126e-17)
(1298.47 -157.051 2.26253e-17)
(1326.88 140.262 -2.78853e-21)
(1810.2 195.683 0)
(1944.11 166.95 9.84057e-21)
(1928.42 86.1699 -7.99363e-21)
(1956.3 150.001 -7.25085e-21)
(2025.41 286.109 0)
(2045.44 350.896 -6.6722e-21)
(2029.68 330.51 6.83373e-18)
(2036.89 286.061 -7.31446e-18)
(2033.11 227.612 0)
(2027.77 148.155 1.6995e-21)
(2021.19 75.4382 0)
(2021.87 -0.828238 0)
(2021.27 -81.4797 1.80482e-18)
(2029.62 -148.034 -1.7927e-18)
(2032.74 -236.489 -7.23277e-21)
(2058.06 -288.975 -1.65833e-21)
(2040.22 -347.562 6.98533e-21)
(2048.51 -361.798 -7.53832e-18)
(2029.24 -316.823 6.37856e-18)
(1974.4 -178.844 -1.73675e-17)
(1933.68 -74.9689 3.10861e-17)