/*--------------------------------*- C++ -*----------------------------------*\
| =========                 |                                                 |
| \\      /  F ield         | OpenFOAM: The Open Source CFD Toolbox           |
|  \\    /   O peration     | Version:  2112                                  |
|   \\  /    A nd           | Website:  www.openfoam.com                      |
|    \\/     M anipulation  |                                                 |
\*---------------------------------------------------------------------------*/
FoamFile
{
    version     2.0;
    format      ascii;
    arch        "LSB;label=32;scalar=64";
    class       volScalarField;
    location    "0.00656";
    object      T;
}
// * * * * * * * * * * * * * * * * * * * * * * * * * * * * * * * * * * * * * //

dimensions      [0 0 0 1 0 0 0];

internalField   nonuniform List<scalar> 
13875
(
1412.01
1535.58
1482.45
1487.54
1482.03
1483.46
1484.13
1482.93
1484.34
1484.91
1484.21
1484.1
1483.5
1483.9
1483.85
1483.84
1483.45
1484.74
1484.89
1483.11
1481.9
1487.65
1480.55
1533.23
1397.57
1307.02
1356.17
1318.95
1322.14
1316.62
1318.05
1321.85
1322.27
1323.82
1324.33
1323.49
1323.1
1318.03
1317.66
1318.37
1322.75
1322.96
1323.45
1322.3
1317.81
1316.7
1321.86
1319.57
1356.21
1301.93
1307.24
1340.06
1314.29
1311.78
1305.21
1305.41
1305.08
1303.79
1305.28
1306.33
1305.27
1305.86
1303.77
1304.04
1303.9
1305.76
1303.9
1305.98
1306.07
1305.11
1304.87
1311.05
1311.41
1335.84
1297.2
1317.37
1344.81
1314.68
1308.68
1306.02
1305.89
1304.04
1302.91
1303.95
1304.05
1302.87
1303.7
1303.88
1304.09
1304.05
1303.44
1302.44
1303.49
1304.22
1305.5
1305.36
1307.7
1313.92
1343.75
1312.56
1329.53
1342.13
1315.72
1312.43
1304.84
1305.19
1304.71
1303.24
1304.06
1304.22
1302.92
1303.48
1303.75
1304.22
1303.83
1303.28
1302.51
1304.01
1305.24
1304.91
1304.78
1311.73
1312
1338.58
1316.72
1332.21
1351.14
1318.82
1309.89
1307.92
1306.63
1304.37
1303.45
1304.16
1304.22
1303.03
1303.78
1304.14
1304.48
1304.3
1303.54
1302.64
1303.54
1304.28
1306.58
1307.29
1308.42
1318.97
1349.06
1326.31
1338.99
1360.47
1329.05
1317.52
1307.89
1307.26
1305.46
1304.03
1304.66
1304.89
1303.4
1303.86
1304.26
1304.84
1304.24
1303.58
1303.19
1304.59
1306.22
1306.57
1307.82
1317.61
1325.7
1358.19
1321.34
1359.74
1384.69
1344.02
1320.99
1316.32
1309.98
1306.64
1304.65
1305
1305.1
1304.01
1304.6
1305.15
1305.58
1305.24
1304.19
1303.79
1304.95
1306.17
1310.02
1315.3
1320.39
1341.5
1380.97
1349.89
1537.25
1508.46
1387.11
1350.79
1322.17
1316.15
1310.4
1307.34
1307.03
1306.53
1305.43
1305.79
1306.37
1306.94
1306.41
1305.73
1305.71
1307.29
1310.57
1314.23
1321.36
1349.24
1382.89
1505.76
1521.4
1835.05
1574.44
1427.15
1358.28
1338.29
1320.21
1314.26
1310.36
1309.52
1309.48
1308.42
1308.57
1309.19
1309.69
1309.37
1308.78
1309.01
1311.08
1314.27
1320.74
1337.02
1357.16
1424.68
1566.46
1827.22
2507.41
1805.03
1517.84
1408.76
1350.59
1331.59
1325.3
1318.15
1316.31
1315.57
1314.12
1314.04
1314.59
1315.2
1315.12
1315.04
1315.57
1318.02
1326.43
1330.33
1348.98
1418.25
1502.8
1798.63
2430.32
2813.13
2302.82
1738.72
1465.11
1426.34
1360.71
1339.2
1332.54
1329.67
1328.08
1326.32
1326.11
1326.39
1326.98
1327.16
1327.86
1329.12
1332.53
1340.44
1371.81
1406.09
1456.53
1728.5
2305.61
2837.66
2787.4
2657.5
2359.39
2203.2
1523.57
1414.48
1397.56
1374.71
1365.44
1359.86
1356.33
1355.36
1355.11
1355.78
1356.78
1359.97
1365.98
1376.78
1401.66
1423.08
1568.96
2242.77
2251.02
2685.25
2766.84
2723.93
2663.69
2748.19
2787.89
2046.18
1821.6
1526.88
1486.34
1465.75
1454.63
1449.27
1447.63
1447.4
1448.01
1449.57
1454.77
1466.68
1486.17
1544.71
1931.97
2107.15
2780.2
2791.65
2703.18
2701.34
2585.03
2642.1
2689.34
2689.87
2596.31
2364.1
2088.68
1958.54
1878.04
1787.14
1750.21
1737.24
1733.8
1735.48
1743.56
1772.27
1869.38
1982.19
1992.28
2423.53
2642.72
2733.99
2684.31
2648.84
2625.88
2503.11
2541.41
2633.96
2691.43
2657.61
2707.85
2876.64
2977.89
3117.12
3128.7
3230.01
3235.18
3257.36
3243.27
3227.17
3154.59
3009.91
3023.58
2885.22
2729.64
2679.3
2718.48
2637.12
2561.48
2534.21
2319.62
2404.7
2481.55
2526.74
2609.75
2768.43
3058.59
3409.58
3608.18
3683.28
3690.1
3682.71
3678.91
3684.37
3695.03
3704.23
3627.5
3473.44
3090.22
2786.92
2636.41
2560.49
2476.12
2405.18
2335.12
2032.62
2159.83
2322.46
2638.42
2758.4
2821.84
2991.23
3349
3584.66
3656.44
3671.37
3667.88
3666.1
3671.39
3676.54
3667.13
3561.92
3355.47
2984.42
2827.61
2764.17
2624.46
2290.5
2153.47
2031.84
1817.57
1878.28
2007.97
2306.42
2745.66
2854.44
2914.26
3121.39
3352.16
3476.24
3519.21
3532.47
3533.56
3536.11
3526.18
3490.85
3372.5
3144.4
2928.68
2929.56
2783.33
2298.36
2006.94
1889.38
1822.41
2447.2
2333.06
2067.1
2195.18
2539.16
2683.83
2696.98
2852.21
3083.83
3281.74
3382.69
3415.97
3420.83
3415.9
3381.95
3279.62
3085.42
2869.2
2708.2
2702.9
2535.78
2210.87
2107.17
2360.61
2469.27
3279.21
3324.7
2704.34
2288.52
2418.33
2513.02
2533.8
2667.83
2898.56
3119.7
3251.96
3299.18
3303.89
3296.76
3243.1
3100.83
2883.07
2667.23
2528.8
2520
2381.56
2270.01
2758.48
3356.14
3268.5
3587.93
3524.94
2705.62
2172.17
2231.63
2343.07
2402.17
2528.56
2754.01
2978.98
3120.22
3172.68
3181.63
3167.45
3105.31
2951.22
2726.85
2523.03
2394.08
2342.2
2204.33
2165.64
2746.23
3529.7
3509.18
3426.48
2960.68
2412
1998.64
2079.32
2213.96
2298.21
2423.11
2627
2842.59
2990.21
3050.5
3058.56
3046.17
2979.04
2820.73
2609.26
2420.87
2285.64
2209.95
2054.66
1979.56
2404.09
2938.84
3403.8
3464.1
2827.58
2163.41
1854.83
1990.31
2113.27
2201.79
2323.49
2519.61
2728.63
2868.61
2927.29
2939.84
2922.47
2858.94
2711.05
2503.68
2321.91
2191.55
2107.18
1964.61
1840.89
2156.57
2815.9
3447.51
3362.77
2655.43
2022.28
1789.48
1946.57
2054.75
2113.23
2240.3
2424.85
2621.74
2758.21
2816.88
2824.63
2811.35
2746.52
2600.28
2409.18
2235.86
2108.87
2049.2
1915.5
1773.88
2024.55
2675.65
3361.36
3333.02
2632.77
1976.93
1799.14
1916.86
1980.92
2037
2157.13
2336.91
2525.46
2651.64
2704.31
2717.15
2699.56
2642.7
2511.97
2325.18
2157.02
2036.02
1988.06
1892.77
1781.99
1961.19
2613.13
3316.3
3253.07
2501.34
1916.65
1804.32
1886.25
1941.61
1976.65
2096.9
2265.16
2436.94
2554.26
2606.56
2613.84
2601.94
2544.61
2420.89
2254.02
2094.69
1970.71
1954.39
1867.35
1787.04
1906.36
2485.77
3258.59
3235.15
2483.8
1930.42
1833.65
1883
1889.05
1916.27
2036.29
2198.26
2361.81
2463.31
2505.97
2518.83
2501.86
2453.76
2344.69
2181.92
2032.36
1912.24
1902.94
1864.66
1811.48
1915.05
2483.26
3224.84
3245.74
2446.5
1914.76
1828.3
1843.03
1858.82
1870.57
1992.89
2137.22
2282.71
2375.71
2421.09
2427.67
2418.48
2370.87
2272.3
2131.82
1992.38
1866.44
1874
1841.85
1808.43
1890.07
2404.09
3178.92
3228
2497.76
1950.8
1856.18
1857.15
1830.12
1829.11
1945.74
2082.58
2220.67
2300.36
2332.94
2344.9
2329.41
2292.4
2207.12
2069.71
1944.7
1823.13
1844.17
1851.7
1831.16
1913.58
2432.57
3172.67
3158.66
2411.62
1924.58
1867.62
1807.37
1800.47
1801.74
1920.51
2041.23
2157.71
2224.38
2261.17
2265.21
2258.47
2218.84
2143.71
2029.33
1915.69
1789.05
1816.03
1815.52
1837.31
1905.19
2407.57
3149.32
3130
2405.76
1968.92
1892.75
1811.33
1783.27
1778.8
1878.59
1989.32
2100.75
2160.68
2183.92
2194.47
2181.24
2155.72
2091.79
1979.28
1886.75
1769.99
1792.27
1817.67
1874.22
1933.88
2385.87
3115.51
3074.62
2362.61
1963.44
1888.07
1784.45
1752.06
1753.38
1863.28
1958.85
2050.72
2094.68
2124.58
2126.32
2121.95
2089.75
2039.77
1949.33
1863.44
1745.51
1758.46
1788.2
1878.4
1946.51
2354.95
3056.93
3029.81
2330.39
2015.06
1906
1801.87
1739.03
1746.81
1835.69
1913.31
1999.95
2043.71
2057.66
2066.84
2055.34
2039.04
1992.07
1901.72
1839.59
1735.21
1745.51
1804.46
1889.9
1991.31
2336.29
3011.59
3005.96
2309.14
2015.35
1914.9
1782.73
1708.53
1716.66
1820.52
1887.44
1958.49
1984.24
2008.8
2009.13
2007.29
1981.12
1953.13
1881.03
1822.33
1710.24
1714.99
1787.58
1908.52
1996.64
2290.34
2973.69
2971.5
2290.4
2020.11
1922.23
1793.05
1720.16
1718.72
1797.39
1849.83
1911.11
1943.69
1951.05
1959.51
1949.57
1939.23
1905.3
1838.58
1805.18
1708.09
1718.33
1802.97
1920.99
2010.05
2293.15
2968.08
2926.92
2255.28
2008.49
1944.84
1787.05
1700.41
1687.15
1780.38
1830.47
1881.82
1892.03
1911.5
1910.52
1910.48
1888.53
1876.61
1821.06
1778.48
1681.95
1702.02
1787.33
1943.82
2000.77
2252.12
2927.7
2899.16
2258.08
2014.34
1982.72
1803.91
1723.4
1696.95
1764.02
1795.57
1834.04
1858.53
1861.72
1869.09
1860.45
1855.4
1830.21
1787.35
1774.62
1689.62
1718.34
1806.95
1968.44
2004.08
2239.89
2901.71
2865.61
2236.93
1994.77
2009.55
1811.91
1709.16
1667.74
1746.43
1774.39
1814.47
1815.43
1830.28
1827.7
1828.57
1812.33
1811.27
1764.13
1745.46
1668.45
1708.38
1813.32
2035.47
1990.67
2225.86
2850.88
2823.48
2224.18
1977.94
2001.07
1833.59
1744.72
1695.13
1744.1
1748.31
1767.89
1787.1
1787.28
1792.95
1785.5
1784.05
1764.59
1738.95
1749.8
1684.56
1736.73
1841.35
2021.63
1982.18
2216.71
2816.73
2800.54
2214.46
1939.99
1997.21
1886.83
1736.5
1672.97
1724.15
1726.2
1755.2
1750.26
1761.18
1757.88
1760.39
1748.09
1753.43
1714.08
1723.22
1680.32
1730.78
1881.67
2023.65
1946.71
2189.26
2778.33
2770.43
2207.19
1922.66
1978.36
1942.37
1776.67
1720.27
1738.14
1709.75
1711.65
1725.97
1723.35
1728.61
1722.85
1723
1710.53
1702.55
1737.58
1717.88
1780.36
1954.67
2001.22
1927.83
2210.47
2752.54
2743.27
2188.28
1895.95
1962.6
1945.93
1796.43
1708.44
1721.08
1693.55
1707.67
1696.89
1703.07
1699.04
1702.43
1694.18
1704.34
1675.77
1715.67
1710.75
1791.03
1960.75
1987.55
1904.84
2195.17
2730.73
2714.38
2185.89
1891.72
1925.79
1926.78
1863.18
1765.43
1755.49
1692.51
1670.08
1675.75
1670.21
1674.22
1669.56
1672.76
1671.05
1687.71
1754.97
1763.21
1857.08
1942.07
1945.63
1891.69
2180.81
2704.44
2694.86
2174.28
1880.57
1904.92
1913.51
1925.33
1772.21
1736.14
1687.47
1680.14
1655.5
1655.25
1649.44
1654.12
1652.7
1674.89
1667.16
1732.19
1782.47
1947.83
1935.14
1919.45
1879.3
2171.1
2686.36
2657.06
2153.72
1877.98
1876.49
1878.08
1907.13
1851.14
1781.78
1709.97
1653.37
1643.68
1628.54
1629.85
1627.43
1639.11
1651.15
1701.04
1782.28
1860.71
1931.64
1902.11
1888.29
1875.92
2157.78
2655.43
2639.9
2153.62
1876.62
1865.79
1847.39
1893.47
1938.19
1790.2
1704.85
1681.97
1639.43
1624.26
1613.62
1622.76
1635.59
1670.32
1680.84
1786.48
1964.22
1916.22
1876.98
1874.98
1865.38
2142.21
2630.96
2590.6
2133.11
1871.94
1845.54
1820.29
1870.79
1919.82
1875.66
1743.02
1657.61
1639.48
1608.56
1603.74
1607.11
1635.37
1659.67
1735.33
1876
1944.11
1887.09
1843.28
1853.84
1866.3
2127.23
2575.85
2550.01
2116.39
1861.19
1844.7
1799.45
1833.05
1904.27
1964.34
1767.7
1699.77
1645.63
1625.96
1604.67
1623.31
1639.78
1690.21
1739.27
1976.07
1923.61
1845.12
1823.43
1848.48
1854.18
2110.32
2538.61
2381.29
2068.79
1840.91
1823.97
1781.7
1803.51
1882.23
1942.14
1870.95
1690.95
1653.5
1610.14
1607.58
1608.84
1646.89
1700.81
1851.21
1950.7
1901.42
1810.76
1796.29
1830.49
1838.67
2057.62
2368.57
470.549
669.233
1062.43
1141.03
1134.06
1068.59
977.978
952.874
942.721
882.95
664.257
472.715
387.431
353.849
340.349
333.996
330.386
328.408
327.52
326.803
325.541
322.937
320.1
316.841
312.983
303.078
280.958
273.607
271.507
271.665
539.4
856.845
1155.51
1179.98
1136.36
1019.63
899.498
883.988
912.335
928.309
810.211
556.101
424.835
370.446
348.614
339.161
334.476
332.126
331.362
330.756
329.694
328.412
326.815
325.081
323.164
321.567
298.364
276.529
271.159
269.425
575.508
949.074
1169.2
1156.85
1059.93
902.656
799.224
787.758
822.515
887.009
820.23
581.34
438.457
378.916
354.042
342.867
337.552
334.957
333.994
333.041
331.778
330.869
330.636
329.579
328.498
328.376
324.322
284.487
272.815
269.464
657.854
1051.13
1163.96
1125.39
976.42
835.403
751.081
740.418
768.924
866.646
852.753
661.912
477.639
396.958
363.389
348.76
341.968
339.208
338.402
337.482
336.338
335.443
334.953
333.657
332.069
331.503
330.482
307.565
276.561
270.052
719.347
1079.15
1147.02
1079.52
893.873
768.143
705.556
709.813
742.031
842.436
853.036
702.738
503.143
411.839
372.734
355.011
346.604
343.085
341.686
340.528
339.423
338.825
338.199
337.097
335.324
334.231
332.927
327.831
287.806
273.153
797.033
1093.45
1122.75
1015.43
813.312
710.162
684.245
701.481
740.684
838.729
853.539
729.962
528.863
428.962
383.293
362.468
352.342
347.596
345.714
344.31
343.004
342.1
341.385
340.182
338.389
337.356
335.878
332.723
312.336
287.768
863.421
1110.07
1094.32
930.047
736.405
662.944
669.724
701.532
752.664
843.583
853.568
741.755
547.276
443.696
393.585
370.033
358.538
352.315
349.595
347.909
346.382
345.47
344.748
343.622
341.545
340.643
339.766
337.916
336.738
356.628
925.461
1123.67
1063.84
854.351
689.718
644.366
667.253
721.577
779.169
853.908
855.307
746.262
564.193
458.514
404.137
378.003
364.858
357.791
354.013
351.69
349.965
349.013
348.286
347.217
345.12
344.465
345.157
347.804
361.051
415.293
974.26
1126.8
1024.1
797.827
657.655
634.769
674.423
759.292
816.152
868.869
856.849
742.221
570.508
468.904
414.129
385.948
370.847
363.074
358.823
355.965
353.844
352.759
351.972
350.984
349.666
350.254
353.171
363.144
396.61
422.534
1012.6
1125.83
980.118
755.683
640.73
629.887
691.726
795.899
848.062
877.283
852.805
727.302
568.542
472.118
420.765
392.738
376.573
367.912
363.27
360.366
358.101
357.006
356.126
355.226
355.103
357.433
364.746
384.9
419.063
423.615
1047.01
1119.25
939.036
721.789
626.402
626.469
696.908
806.035
854.742
873.311
833.728
697.397
556.491
469.93
422.908
397.204
381.747
372.656
367.886
364.737
362.72
361.455
360.452
360.145
361.418
366.519
380.988
422.604
427.826
425.452
1082.37
1107.55
908.251
698.461
614.207
617.157
691.307
795.642
835.388
843.461
784.619
648.117
532.015
461.572
422.384
399.923
385.713
377.347
372.802
369.459
367.41
366.088
365.423
365.953
369.096
378.149
401.059
439.977
432.878
429.505
1109.98
1095.69
887.277
685.976
600.544
595.608
653.018
740.401
771.157
773.768
697.116
585.469
500.046
449.631
420.275
401.439
388.952
381.629
377.627
374.636
372.482
371.19
370.847
372.543
377.986
392.754
434.238
446.902
438.765
433.936
1132.68
1087.1
873.585
681.728
590.255
569.678
593.957
650.813
673.712
667.973
590.896
522.11
470.011
438.437
417.413
402.289
391.935
385.977
382.224
379.586
377.635
376.629
376.948
379.991
388.72
410.652
449.484
451.884
444.012
436.226
1148.27
1079.32
867.632
682.13
586.8
551.536
544.57
562.211
572.48
554.139
501.368
473.414
448.269
430.194
415.084
402.957
394.929
390.531
387.258
384.843
383.217
382.797
384.016
388.937
402.811
440.245
456.49
454.216
447.633
439.305
1163.23
1075.42
867.563
691.624
590.528
546.053
524.272
515.87
509.281
489.006
461.66
448.38
436.473
425.475
414.314
404.456
398.796
395.694
392.886
390.929
389.669
389.894
392.284
400.029
420.023
456.559
462.076
458.12
451.031
442.809
1174.64
1075.22
874.748
711.892
603.932
548.342
518.869
503.816
490.012
471.36
452.196
441.235
432.623
424.104
415.319
407.856
404.481
401.932
399.726
398.238
397.348
398.213
402.299
413.951
445.487
465.888
467.617
462.632
455.055
445.221
1184.15
1079.36
891.958
739.351
628.673
563.327
522.839
503.59
488.223
470.106
452.505
441.418
433.002
425.931
419.743
415.175
412.691
410.154
408.097
407
406.468
408.354
414.945
432.829
467.259
473.953
473.768
467.354
460.495
448.309
1194.93
1090.13
919.354
779.659
670.374
594.704
543.098
513.62
496.188
477.956
461.659
448.928
439.58
434.034
429.999
426.969
423.993
420.681
418.299
417.396
417.596
420.846
430.972
460.189
480.174
481.173
478.884
473.152
467.009
452.907
1205.28
1106.76
958.081
833.187
723.785
645.279
585.942
542.257
519.836
500.785
484.472
469.162
456.703
450.694
445.86
442.808
438.118
433.59
430.734
430.02
430.951
436.275
452.45
486.248
489.786
488.377
485.081
479.825
474.367
461.488
1215.43
1127.63
1006.52
897.063
790.738
711.58
648.142
593.192
560.594
538.106
519.432
501.021
483.851
473.986
465.298
460.706
454.24
449.203
445.788
444.846
446.448
454.911
481.497
500.693
498.645
495.075
492.084
487.037
481.277
467.985
1218.28
1156.06
1065.63
969.87
866.343
786.086
721.406
661.435
615.467
585.52
560.372
538.398
517.258
501.34
487.724
479.937
472.659
467.429
462.838
461.044
464.323
478.864
510.148
511.301
506.924
500.996
499.664
493.879
487.725
474.56
1232.26
1187.84
1129.5
1046.69
947.155
864.442
800.112
738.1
682.25
642.172
607.544
579.441
554.18
534.29
514.32
502.095
493.433
486.573
480.759
478.816
485.717
513.343
526.266
521.03
512.94
507.505
506.735
499.658
493.776
480.417
1216.91
1226.84
1206.62
1131.35
1036.9
954.72
886.087
820.546
763.311
713.202
667.744
628.708
598.991
572.657
546.789
528.63
516.133
506.649
499.721
499.386
513.336
541.699
537.795
528.881
517.904
514.086
513.17
505.492
498.901
486.354
1236.15
1292.89
1291.29
1222.68
1130.83
1049.98
978.188
909.486
852.613
798.087
741.293
692.81
652.756
617.831
586.376
561.881
542.706
529.762
521.919
526.225
553.512
557.401
547.309
533.249
523.564
520.446
518.396
511.149
502.223
491.767
271.39
271.299
273.486
281.046
301.563
312.088
316.138
319.406
322.38
324.949
326.093
326.674
327.423
329.624
333.722
340.676
355.382
392.726
487.745
695.289
897.872
943.246
949.916
977.831
1075.05
1142.63
1154.76
1082.33
692.981
481.419
269.131
270.838
276.276
297.727
320.137
321.347
323.468
325.713
327.626
328.889
329.847
330.3
331.082
333.697
338.862
349.365
373.158
432.862
576.851
832.916
928.845
901.69
874.674
896.159
1020.11
1140.81
1187.95
1167.05
881.568
553.349
269.096
272.462
283.962
323.38
327.486
327.533
328.651
329.15
329.903
330.947
331.88
332.716
333.927
336.95
342.673
354.986
381.825
446.909
603.105
835.659
883.235
810.501
783.153
799.783
905.498
1061.45
1163.74
1179.13
973.15
590.542
269.645
276.06
306.617
330.298
331.056
331.509
333.004
334.351
334.863
335.448
336.352
337.219
338.583
341.994
348.967
364.776
401.061
488.69
684.705
857.616
858.159
761.013
738.403
752.673
838.918
980.172
1132.23
1172.63
1066.37
675.576
272.444
286.825
327.868
332.924
333.959
334.969
336.697
337.833
338.47
339.175
340.273
341.282
342.481
346.689
355.58
374.375
416.536
514.853
723.726
855.387
833.441
736.464
708.548
705.332
770.351
898.805
1085.75
1154.03
1089
734.963
285.292
311.315
332.765
335.686
337.083
338.184
339.949
341.143
341.94
342.833
344.076
345.368
347.207
352.364
363.267
385.542
434.38
540.844
748.584
855.524
831.306
735.742
700.03
682.997
710.119
817.412
1022.17
1129.86
1102.38
812.862
345.313
335.788
337.55
339.388
340.349
341.417
343.412
344.553
345.328
346.316
347.728
349.374
352.061
358.463
370.997
396.2
449.849
559.48
758.847
856.013
838.649
747.911
700.273
668.447
663.04
739.87
936.989
1101.82
1118.56
877.072
413.179
359.542
347.037
344.792
344.235
345.128
347.085
348.097
348.888
349.882
351.441
353.607
357.229
364.794
379.157
407.193
465.506
576.729
763.253
858.562
851.407
775.901
720.761
666.069
644.955
693.66
862.414
1072
1130.75
936.688
422.438
394.859
361.863
352.578
349.866
349.509
350.821
351.755
352.545
353.532
355.287
357.974
362.478
370.817
386.914
416.899
475.566
583.28
759.328
861.361
868.995
814.748
758.797
672.711
634.789
661.716
805.928
1032.39
1133.76
982.873
424.385
418.831
383.598
363.887
356.821
354.615
354.893
355.723
356.527
357.589
359.583
362.583
367.578
376.554
393.571
423.365
478.149
581.409
745.209
860.112
879.566
849.205
794.774
688.981
629.218
644.005
763.826
989.616
1132.75
1018.6
426.704
428.157
420.896
379.784
365.662
360.723
359.529
360.016
360.897
362.125
364.125
367.173
372.314
381.76
398.316
425.328
475.27
568.267
715.533
844.195
877.111
857.178
805.152
693.52
625.635
628.257
729.046
948.749
1126.61
1053.59
430.469
433.156
439.358
399.519
376.956
368.201
365.351
364.889
365.449
366.762
368.867
371.92
376.872
385.714
400.714
424.392
465.922
541.303
664.845
797.043
849.438
839.272
795.918
687.473
616.333
615.947
705.62
918.46
1115.5
1088.88
434.972
439.175
446.545
431.141
391.54
377.068
371.729
370.087
370.379
371.707
373.961
376.949
381.278
388.823
401.812
421.35
452.54
506.403
597.907
710.401
781.222
776.225
742.291
650.458
595.604
602.781
693.83
898.174
1104.41
1117.09
436.996
444.754
451.626
448.429
409.259
387.703
379.051
376.046
375.778
376.801
378.93
381.665
385.555
391.672
402.37
417.676
439.748
473.216
528.646
601.538
675.967
678.359
653.218
593.312
570.336
592.868
689.802
884.582
1095.95
1138.81
440.057
448.659
454.627
456.522
437.529
401.344
387.926
383.144
382.026
382.361
384.167
386.748
389.952
394.575
402.847
414.766
430.335
449.486
475.884
506.636
560.727
574.977
563.726
545.183
552.875
589.794
690.567
879.076
1088.58
1154.77
443.618
452.37
458.37
462.281
455.579
418.581
398.995
391.47
389.097
388.866
390.138
392.29
395.133
398.411
404.203
413.713
424.86
436.337
449.037
463.24
491.505
510.484
516.69
525.211
547.68
594.284
700.483
879.281
1085.11
1170.24
446.192
456.819
462.989
466.739
465.393
442.889
412.531
401.386
397.427
396.588
397.428
398.992
401.36
404.044
407.663
414.442
423.332
431.874
440.97
452.64
471.924
490.459
504.324
519.912
550.538
608.165
720.843
886.709
1085.15
1182.01
449.642
462.01
467.866
473.278
473.516
466.172
431.026
413.753
407.41
405.647
406.176
407.401
409.49
412.224
414.927
418.932
425.188
432.025
441.017
452.79
470.266
488.344
503.853
523.835
566.008
633.914
748.453
904.048
1089.67
1191.67
454.757
467.539
473.471
479.242
480.446
479.468
456.494
429.337
419.736
416.599
416.579
417.68
420.137
423.63
426.704
429.225
433.11
438.551
448.458
461.834
477.833
495.873
513.665
544.291
597.877
675.47
789.304
931.655
1100.72
1202.18
461.981
474.941
480.279
485.028
487.861
489.394
485.381
450.446
434.949
429.991
429.237
430.249
433.357
438.059
442.802
445.033
449.695
455.755
468.604
484.643
500.702
519.749
542.583
587.676
648.796
729.904
843.117
970.29
1117.98
1212.49
468.817
482.086
487.257
491.913
494.677
498.167
500.825
477.716
453.366
445.485
444.037
445.437
449.172
454.413
461.181
465.051
473.266
483.188
500.442
519.782
538.614
561.035
594.554
651.066
715.832
797.421
906.779
1018.6
1139.24
1222.94
475.499
488.542
494.208
499.416
500.459
505.075
511.689
509.778
477.026
463.116
460.439
462.622
467.475
473.213
480.958
488.486
501.764
517.782
538.48
561.52
587.594
617.634
664.906
726.035
791.464
873.693
978.813
1077.45
1168.81
1225.68
482.345
494.744
500.246
506.442
507.155
513.163
521.608
527.175
509.918
484.391
478.342
481.064
486.985
494.574
504.117
516.248
535.961
556.749
580.377
610.434
646.713
687.555
743.582
806.648
871.354
955.205
1054.89
1140.9
1201.7
1239.57
488.424
500.11
506.05
512.988
513.868
519.164
529.857
539.239
541.954
511.636
499.238
500.802
507.896
518.425
532.344
550.632
576.156
603.518
633.899
673.233
720.401
772.042
828.242
893.736
962.728
1045.11
1138.7
1217.82
1239.88
1224.62
494.149
504.356
511.88
518.794
520.359
524.095
534.807
549.085
559.293
551.973
525.764
523.674
532.251
546.712
567.774
593.179
624.682
660.933
701.964
750.025
807.296
864.872
919.978
986.842
1058.74
1139.27
1230.17
1299.64
1304.35
1244.32
778.55
787.436
787.402
788.455
786.97
786.111
786.083
784.945
782.917
783.648
784.359
786.62
790.033
795.463
803.527
808.213
815.163
823.547
834.009
845.631
857.814
874.317
888.18
903.265
916.638
928.017
938.995
945.52
950.475
952.767
952.829
950.652
945.406
937.845
929.255
919.687
909.87
900.228
890
878.46
865.567
851.471
837.198
823.014
809.405
797.91
788.318
778.816
768.641
757.503
746.259
734.577
722.107
710.123
698.489
686.971
676.002
665.253
654.778
645.256
637.185
630.405
624.845
620.152
615.763
611.608
607.488
603.33
598.93
594.173
589.071
583.753
578.431
573.141
567.923
562.883
558.123
553.635
549.303
545.144
541.264
537.793
534.764
532.145
529.742
527.315
524.746
522.005
519.236
516.479
513.74
510.97
508.166
505.332
502.838
500.387
498.326
496.166
494.333
492.515
491.061
490.04
489.066
488.18
488.071
488.173
488.713
489.821
491.542
493.72
495.966
498.563
501.082
504.567
507.195
508.788
510.236
511.765
514.656
516.247
515.575
512.999
508.746
504.017
499.413
841.944
852.294
853.484
859.359
863.079
867.266
872.925
878.293
883.947
891.488
897.134
904.479
910.999
919.128
933.669
948.701
970.919
998.869
1034.71
1078.83
1121.2
1170.02
1212.5
1252.55
1288.51
1315.49
1334.89
1347.96
1356.22
1359.54
1358.69
1354.11
1345.27
1333.01
1318.48
1302.29
1284.94
1267.08
1248.56
1228.4
1206.68
1183.71
1160.37
1136.93
1113.69
1091.07
1069.28
1046.62
1023.16
998.627
973.836
949.313
924.152
898.527
873.311
848.099
821.586
792.627
762.562
733.225
707.124
685.386
667.783
654.283
644.025
636.044
629.539
623.735
617.997
611.954
605.577
599.005
592.579
586.434
580.531
574.901
569.618
564.721
560.14
555.822
551.818
548.175
544.863
541.815
538.93
536.048
533.094
530.051
527.005
523.997
521.044
518.088
515.178
512.242
509.688
507.194
505.196
503.199
501.423
499.83
498.711
497.901
497.003
496.637
496.691
496.935
497.893
499.789
502.016
504.498
507.877
510.249
515.656
518.259
519.519
522.643
525.545
527.217
527.514
526.423
524.418
521.701
518.328
513.878
509.385
1062
1071.4
1075.39
1084.79
1097.2
1107.37
1123.04
1137.51
1152.07
1162.44
1175.14
1190.92
1204.85
1217.97
1238.43
1259.66
1289.91
1328.52
1374.53
1431.57
1488.57
1548.37
1600.05
1641.9
1674.65
1697.18
1710.44
1716.04
1715.76
1711.7
1703.99
1693.79
1681.44
1667.2
1651.6
1635.08
1618.36
1601.65
1584.85
1567.66
1549.78
1530.87
1511.2
1491.07
1470.68
1450.15
1429.31
1406.29
1380.91
1353.55
1323.63
1292.56
1259.78
1226.31
1193.24
1158.01
1116.98
1067.47
1009.61
948.693
890.152
834.364
783.89
742.324
710.891
688.636
673.017
661.018
650.753
641.284
632.201
623.431
615.215
607.685
600.703
594.171
588.043
582.372
577.222
572.574
568.408
564.7
561.345
558.135
554.931
551.63
548.171
544.543
540.811
537.085
533.394
529.795
526.298
522.97
520.018
517.46
515.271
513.358
511.456
509.712
508.218
507.205
506.351
505.628
505.478
505.695
506.623
508.533
510.718
513.449
516.79
519.623
522.271
524.899
527.254
529.345
530.821
530.744
529.578
528.078
526.882
526.586
524.172
521.266
517.122
1506.32
1506.23
1509.82
1519.04
1533.74
1547.24
1563.23
1580.27
1596.21
1609.62
1621.19
1634.71
1650.79
1667.2
1685.69
1703.69
1725.54
1754.98
1790.09
1830.34
1870.69
1908.35
1938.67
1960.16
1973.15
1978.32
1976.95
1970.78
1960.59
1948.05
1934.11
1919.43
1904.46
1889.48
1874.8
1860.78
1847.39
1834.09
1821.18
1808.37
1795.35
1781.97
1768.35
1754.68
1740.96
1726.98
1712.31
1696.14
1677.87
1657.21
1633.89
1608.24
1580.51
1551.23
1520.41
1487.84
1451.42
1407.74
1358.01
1305.47
1243.66
1159.38
1057.5
958.336
875.304
812.289
767.101
734.703
710.262
690.909
674.896
661.474
650.145
640.283
631.245
622.955
615.558
609.127
603.553
598.692
594.386
590.473
586.746
582.971
578.96
574.724
570.335
565.872
561.392
556.96
552.64
548.412
544.382
540.528
536.899
533.55
530.498
527.766
525.185
522.901
521.185
519.82
518.979
518.223
517.731
517.783
518.236
519.844
521.83
523.956
525.519
527.107
528.917
530.854
532.873
535.139
537.029
537.649
536.823
536.31
536.496
535.738
533.378
529.231
524.121
1928.69
1924.26
1923.19
1927.89
1936.81
1947.3
1959.28
1972.14
1984.37
1996.03
2007.65
2020.17
2032.59
2044.79
2057.29
2069.04
2081.56
2094.36
2106.14
2118.11
2127.76
2135.34
2139.62
2140.38
2138
2132.62
2124.45
2113.89
2101.38
2087.64
2073.29
2058.92
2044.96
2031.76
2019.49
2008.14
1997.39
1987.59
1978.05
1968.55
1959.04
1949.5
1940.02
1930.67
1921.39
1911.99
1902.15
1891.44
1879.45
1865.83
1850.3
1832.83
1813.44
1792.24
1769.3
1745.13
1718.53
1688.04
1654.62
1619.15
1577.67
1523.48
1448.68
1347.37
1224.66
1101.05
996.508
915.816
854.276
806.525
768.963
740.032
718.264
701.352
687.215
675.058
664.615
655.996
648.908
642.967
638.086
634.131
630.472
626.163
620.665
613.965
606.587
599.226
592.334
585.927
579.797
573.984
568.53
563.531
558.831
554.627
550.633
547.054
543.894
540.789
538.31
536.302
535.049
533.669
531.89
531.478
531.589
531.96
532.537
532.398
532.538
533.336
534.345
535.812
537.794
539.817
541.747
543.135
544.724
545.746
545.208
541.805
537.036
532.324
526.678
2174.66
2170.72
2169.24
2170.5
2174.2
2179.03
2184.22
2190.03
2195.67
2201.59
2207.6
2214.28
2222.68
2232.94
2244.28
2254.54
2262.69
2264.4
2261.45
2257.31
2252.34
2246.39
2239.29
2230.92
2221.65
2211.83
2201.57
2190.8
2179.48
2167.75
2155.81
2143.93
2132.37
2121.44
2111.31
2101.9
2093.13
2084.82
2076.81
2068.9
2061.02
2053.22
2045.57
2038.13
2030.87
2023.67
2016.36
2008.71
2000.45
1991.34
1981.16
1969.76
1957.06
1943.09
1928.09
1912.12
1894.69
1875.39
1854.42
1831.51
1805.16
1772.74
1729.63
1669.78
1589.11
1490.89
1383.83
1275.79
1173.58
1081.69
1003.06
938.552
887.578
847.897
816.782
791.923
771.473
754.344
740.022
728.168
718.382
710.349
703.373
696.891
689.943
681.49
671.003
658.209
644.915
632.447
621.329
611.244
602.107
594.473
587.983
582.035
576.077
570.673
565.82
561.634
558.277
554.993
553.03
551.129
548.169
547.238
546.688
546.239
545.499
544.724
544.631
545.311
546.759
548.365
550.408
552.406
553.397
554.321
555.503
555.387
552.477
547.478
542.4
536.543
530.198
2314.37
2308.48
2305.28
2302.76
2301.26
2300.03
2298.22
2294.99
2294.86
2294.71
2293.62
2292.59
2293.48
2296.95
2303.17
2311.27
2318.83
2314.43
2309.06
2304.7
2299.2
2291.72
2282.66
2272.6
2262.34
2252.36
2242.87
2233.67
2224.52
2215.26
2205.89
2196.46
2187.16
2178.1
2169.33
2160.83
2152.51
2144.67
2137.01
2129.47
2121.97
2114.55
2107.32
2100.38
2093.75
2087.3
2081.03
2074.73
2068.23
2061.38
2054
2046
2037.45
2028.3
2018.62
2008.35
1997.21
1984.94
1971.29
1955.72
1937.41
1914.9
1885.94
1847.4
1796.96
1734.3
1661.16
1580.58
1496.75
1414.18
1335.45
1261.65
1193.83
1132.9
1079.27
1032.68
992.541
957.805
927.775
901.973
879.43
859.617
842.398
826.652
812.671
798.705
782.423
766.145
747.973
727.435
706.501
686.804
669.648
653.479
638.309
625.293
614.052
604.041
595.807
589.394
584.105
579.406
575.276
571.743
568.504
565.895
564.398
562.678
562.026
560.989
560.459
560.84
562.208
563.677
565.452
566.613
567.034
566.403
563.524
558.904
554.748
551.1
547.779
542.864
537.529
2400.28
2391.62
2385.82
2378.95
2372.51
2365.77
2357.96
2348.85
2343.71
2338.55
2332.32
2325.36
2319.75
2317.29
2317.12
2320.01
2322.03
2317.63
2313.49
2311.81
2310.34
2306.42
2299.89
2291.97
2283.91
2276.29
2268.95
2261.79
2254.59
2247.2
2239.53
2231.58
2223.4
2215.03
2206.57
2198.07
2189.61
2181.56
2173.95
2166.29
2158.64
2151.11
2143.9
2137.29
2131.1
2125.23
2119.47
2113.82
2108.22
2102.6
2096.86
2090.93
2084.75
2078.23
2071.3
2063.82
2055.57
2046.26
2035.66
2022.94
2007.68
1988.88
1965.26