/*--------------------------------*- C++ -*----------------------------------*\
| =========                 |                                                 |
| \\      /  F ield         | OpenFOAM: The Open Source CFD Toolbox           |
|  \\    /   O peration     | Version:  2112                                  |
|   \\  /    A nd           | Website:  www.openfoam.com                      |
|    \\/     M anipulation  |                                                 |
\*---------------------------------------------------------------------------*/
FoamFile
{
    version     2.0;
    format      ascii;
    arch        "LSB;label=32;scalar=64";
    class       volScalarField;
    location    "0.00756";
    object      k;
}
// * * * * * * * * * * * * * * * * * * * * * * * * * * * * * * * * * * * * * //

dimensions      [0 2 -2 0 0 0 0];

internalField   nonuniform List<scalar> 
13875
(
812.1
3462.61
3540.1
3537.99
3542.15
3541.9
3541.51
3540.51
3539.42
3540.52
3542.18
3541.35
3540.65
3540.16
3540.44
3541.19
3541.91
3541.14
3540.76
3540.24
3541.17
3538.99
3540.16
3461.05
820.365
881.789
2936.64
3012.91
2999.88
3001.75
2998.43
2997.73
2998.25
2997.11
2996.5
2996.91
2998.31
2996.38
2996.35
2996.19
2998.5
2996.23
2997.1
2996.97
2998.6
3000.45
2999.28
3011.65
2933.79
894.447
993.371
2710.91
2777.52
2755.06
2759.18
2752.58
2746.45
2745.32
2743.79
2742.82
2741.92
2743.93
2751.16
2752.11
2750.88
2744.66
2741.21
2742.72
2745.32
2755.09
2757.66
2753.16
2774.45
2706.42
998.402
1091.1
2533.74
2581.1
2561.39
2567.14
2560.24
2553.05
2549.98
2548.5
2548.21
2547.37
2547.84
2558.99
2559.97
2558.84
2548.68
2547.33
2547.56
2551.17
2562.91
2565.47
2559.4
2579.05
2529.44
1093.99
1172.16
2380.53
2413.33
2392.97
2398.45
2391.59
2384.22
2380.84
2380.13
2380.08
2379.15
2378.93
2389.96
2391.37
2389.88
2379.76
2379.19
2379.04
2382.36
2393.91
2396.76
2391.17
2410.37
2375.6
1177.6
1241.05
2237.24
2271.12
2245.19
2251.69
2243.39
2234.72
2231.21
2231.14
2231.34
2230.21
2229.43
2240.49
2242.27
2240.51
2230.21
2230.48
2229.91
2233.1
2245.68
2249.93
2243.73
2267.77
2247.45
1247.27
1321.01
2121.94
2158.54
2120.72
2123.4
2113.34
2102.71
2098.4
2098.81
2099.13
2097.97
2096.57
2107.72
2109.68
2107.55
2097.24
2098.54
2097.66
2101.56
2115.5
2121.67
2119.74
2153.96
2095.78
1323.23
1409.79
2000.83
2073.74
2020.01
2016.41
2000.53
1986.42
1980.87
1981.24
1981.6
1980.54
1978.2
1989.54
1991.89
1989.45
1978.81
1981.4
1980.5
1985.45
2002.16
2013.93
2017.94
2068.24
1992.81
1419.97
1691.41
2029.5
2022.18
1944.55
1924.89
1902.93
1884.48
1877.05
1877.43
1877.84
1876.97
1873.74
1885.2
1887.99
1885.4
1874.61
1878.06
1877.15
1883.36
1903.82
1922.37
1942.14
2017.78
2033.4
1716.28
2509.06
2285.47
2018.2
1900.9
1858.16
1824.79
1802.57
1794.9
1794.24
1794.24
1793.42
1789.73
1800.76
1803.99
1801.5
1791.89
1794.9
1795.05
1801.36
1824.66
1855.55
1891.4
2011.29
2265.93
2529.33
3876.68
3026.38
2153.34
1915.02
1813.81
1771.22
1744.83
1734.42
1732
1730.91
1729.9
1726.07
1736.1
1739.66
1738.1
1731.05
1733.2
1735.1
1744.93
1768.41
1813.25
1907.05
2129.36
2935.84
3858.22
5185.61
6454.4
2852.21
1993.29
1853.04
1755.86
1712.24
1696.69
1690.75
1688.1
1686.59
1683.13
1691.26
1694.98
1694.93
1690.93
1692.97
1698
1712.13
1757.59
1846.56
1972.93
2787.96
6313.12
5119.91
5056.66
7626.5
7048
3335.35
2041.96
1796.76
1741.76
1701.7
1685.82
1678.48
1674.94
1671.41
1677.19
1680.74
1682.74
1683.24
1690.16
1706.58
1746.45
1804.97
2088.45
3228.22
6758.37
7647.6
5009.46
4826.09
6360.7
7174.99
8736.13
5170.85
2329.01
1900.05
1784.37
1749.27
1744.54
1741.78
1738.88
1743.73
1746.81
1749.82
1753.1
1758.62
1792.36
1939.15
2476.14
5621.06
8145.94
6956.79
6329.96
4831.93
4602.96
5513.94
6040.84
6990.75
6845.91
6722.79
3418.93
2379.41
2134.43
2039.85
1999.44
1984.69
1985.13
1989.42
2000.68
2031.99
2120.63
2385.21
3589.69
6865.9
6838.01
6702.52
5966.14
5488.07
4680.58
4292.72
4800.06
5114.58
5883.2
6073.81
6581.69
5582.12
5150.77
4862.3
4218.89
4291.05
4342.65
4387.2
4374.67
4311.38
4208.55
4749.26
5450.7
5654.48
6646.52
6007.05
5703.7
5072.51
4779.66
4364.83
3729.86
4044.04
4343.02
5075.78
5607.61
6522.22
7347.59
7635.66
6737.02
6253.91
6520.76
6755.76
6893.76
6843.23
6599.3
6572.03
6722.76
7598.31
7409.09
6523.92
5467.38
4903.37
4231.96
3964.67
3721.43
3065.33
3407.66
3952.24
4865.03
5528.93
6117.71
7116.94
7865.25
6521.73
5441.92
5211.39
5242.91
5318.06
5283.88
5275.52
5764.25
6490.96
7500.03
7123.04
6236.16
5545.69
4813.25
3870.96
3348.25
3028.28
2634.21
3160.14
3850.1
5105.78
6009.56
5761.51
6079.24
6824.49
6137.79
5147.25
4681.96
4557.8
4548.75
4602.75
4778.3
5285.75
5940.3
6517.71
6116.88
5897.88
6244.36
5178.7
3863.03
3151.16
2638.13
2510.44
3369.74
4082.08
5290.39
5802.84
5286.29
5241.63
5761.79
5590.26
4940.06
4404.5
4091.09
3985.38
4161.69
4533.23
5005.98
5363.19
5522.36
5279.95
5427.71
5940.02
5260.8
4120.61
3407.31
2512.38
4995.14
7192.5
5903.91
4851.63
5023.8
4642.68
4572.78
5006
5060.44
4612.63
4067.04
3654.47
3508.39
3761.64
4225.61
4655.72
4843.6
4818.17
4613.84
4766.46
5133.63
4932.46
6300.93
7664.79
5722.35
11440.4
22251.5
7267.41
4229.7
4324.27
4085.78
4050.48
4427.6
4566.2
4236.45
3708.66
3257.82
3095.91
3372.52
3862.31
4256.84
4362.73
4284.01
4082.44
4181.84
4398.85
4322.15
7778.72
22115.4
12474.4
12822.5
16632.5
6367.36
3765.05
3781.84
3635.17
3612.12
3955.39
4113.83
3845.17
3350.47
2907.24
2739.34
3004.81
3483.26
3853.75
3921.68
3838
3637.49
3699.33
3827.44
3832.32
6473.98
16526.6
12736.6
12056.6
16381.6
5390.95
3417.11
3344.81
3243.7
3237.83
3542.17
3702.91
3466.01
3001.7
2587.69
2437.3
2684.78
3135.63
3484.37
3530.28
3438.21
3265.37
3304.42
3393.23
3495.25
5550.01
17217.3
12140.6
11618.6
16009.7
4809.04
3152.25
3011.63
2920.54
2932.12
3191.93
3336.57
3124.38
2700.46
2319.65
2183.31
2408.6
2828.7
3150.1
3186.53
3096.55
2952.18
2976.02
3064.83
3232.95
5031.03
17402.6
11803
11301.2
16137.8
4409.33
2910.19
2744.58
2650.15
2679.83
2893.58
3014
2821.91
2439.84
2092.63
1967.86
2169.63
2551.19
2844.22
2881.72
2800.75
2682.49
2691.34
2794.78
2977.43
4592.44
17271.5
11642.1
11226
15231.3
4000.23
2693.99
2527.55
2425.86
2463.58
2634.06
2721.2
2542.85
2204.69
1896.73
1785.59
1970.04
2316.57
2579.89
2620.76
2553.02
2456.3
2460.47
2582.57
2766.26
4233.69
16726.8
11468.6
11085.1
14746.8
3736.43
2515.65
2351.59
2243.88
2279.48
2413.31
2472.71
2306.83
2006.95
1731.15
1629.45
1795.21
2105.19
2342.5
2390.14
2338.07
2263.49
2269.58
2399.15
2577.87
3963.97
16271
11391.6
10830.6
14536.9
3551.79
2364.63
2204.73
2098.75
2120.8
2220.74
2255.45
2101.89
1837.13
1589.5
1495.4
1643.1
1917.56
2129.44
2185.51
2151.12
2097
2111.55
2239.33
2415.2
3707.94
15229.4
11292.6
10635.2
13692.2
3385.48
2237.97
2068.76
1974.21
1985.5
2050.41
2059.15
1913.65
1680.79
1463.32
1379.25
1515.37
1762.96
1952.47
2011.21
1991.28
1957.83
1979.88
2099.56
2285.4
3549.14
14580.1
11090.3
10336.1
12629.1
3245.51
2137.59
1951.49
1862.68
1867.13
1903.43
1892.71
1756.88
1550.99
1356.07
1278.74
1401.12
1621.28
1790.42
1855.05
1851.29
1837.44
1861.81
1969.92
2175.56
3369.63
13398.9
10860.5
10058.1
11984.7
3147.6
2062.24
1845.06
1760.22
1761.31
1776.78
1751.11
1622.61
1438.07
1262.42
1191.08
1300.88
1498.66
1652.25
1719.74
1729.18
1730.25
1754.28
1855.8
2089.48
3222.81
12314.7
10601.8
9824.59
10940.7
3029.11
2005.48
1754.05
1669.97
1662.73
1661.8
1620.76
1499.51
1335.41
1178.69
1114.63
1215.83
1395.01
1533.21
1602.48
1623.04
1632.36
1660.38
1760.23
2024.74
3113.26
11601.6
10291.9
9571.91
10161.7
2913.31
1964.25
1682.09
1589.43
1570.32
1561.2
1510.62
1396.04
1247.69
1105.85
1047.01
1138.27
1300.65
1427.11
1497.07
1527.58
1541.54
1576.75
1681.67
1971.71
3006.34
10793.5
9968.47
9336.18
9610.12
2792.23
1932.65
1634.58
1516.29
1488.13
1469.91
1413.01
1304.64
1170.75
1041.49
987.7
1070.53
1217.55
1333.22
1403.87
1439.98
1459.75
1501.94
1627.71
1937.44
2884.83
10157
9702.12
9099.41
9002.46
2672.93
1905.45
1601.85
1453.11
1412.18
1384.28
1325.03
1222.1
1099.58
983.057
934.516
1011.11
1146.99
1253.49
1322.04
1359.73
1387.22
1437.62
1590.65
1912.77
2780.11
9662.16
9470.86
8879.09
8591.59
2568.99
1910.48
1584.5
1402.02
1346.62
1308.99
1246.41
1150.54
1038.78
931.987
887.33
956.956
1081.23
1179.55
1246.04
1286.61
1322.46
1383.43
1566.83
1907.93
2655.1
9043.04
9254.05
8650.74
8368.21
2470.56
1899.42
1581.08
1366.96
1286.42
1240.25
1176.6
1087.28
984.239
885.96
844.821
908.382
1023.29
1114.22
1177.54
1221.33
1263.27
1345.66
1558.93
1898.96
2530.79
8621.36
9050.36
8405.87
7994
2352.76
1850.39
1591.52
1344.8
1236.03
1178.63
1111.68
1028.07
933.846
844.077
806.772
866.09
972.432
1056.19
1116.97
1163.64
1212.89
1319.2
1565.52
1863.86
2417.27
8431.73
8828.09
8183.23
7774.86
2244.06
1797.41
1623.84
1335.13
1197.1
1125.58
1056.25
977.052
889.323
806.311
772.006
826.324
925.087
1002.96
1061.75
1113.27
1174.11
1305.47
1574.72
1804.95
2310.93
8233.76
8550.73
8004.77
7611.51
2173.18
1739.5
1649.6
1341.15
1169.36
1082.42
1007.26
930.962
849.178
772.053
740.54
790.639
881.93
954.993
1013.36
1071.14
1147.58
1302.13
1620.03
1750.75
2222.7
8075.87
8301.13
7838.63
7421.06
2088.92
1666.17
1625.23
1356.18
1149.63
1050.05
965.302
888.832
811.594
740.245
711.497
758.352
844.512
913.489
972.984
1039.9
1128.27
1315.94
1633.73
1698
2245.25
7881.65
8101.23
7684.29
7267.62
2026.86
1594.26
1579.25
1406.15
1141.94
1025.71
932.032
853.1
778.702
711.758
685.021
728.262
808.873
875.415
938.559
1017.17
1117.8
1344.96
1594.33
1624.05
2157.93
7676.98
7923.56
7557.22
7108.02
2063.22
1532.15
1519.76
1442.28
1154.02
1007.12
908.093
823.059
749.472
685.656
660.507
700.706
777.283
843.17
912.374
1000.28
1127.32
1413.3
1538.04
1554.22
2119.47
7504.53
7773.15
7429.24
6965.33
2001.54
1469.67
1451.41
1426.44
1189.02
997.613
887.57
798.732
723.993
662.158
638.396
676.608
750.783
818.035
892.349
991.642
1172.35
1438.13
1473.25
1501.98
2155.72
7346.28
7649.84
7303.15
6804.59
2029.36
1424.24
1383.36
1378.96
1266.37
1010.43
874.034
782.222
705.192
642.66
619.067
655.794
729.907
799.358
877.11
999.469
1250.27
1393.5
1406.66
1448.33
2137.16
7185.5
7533.54
7177.44
6658.75
2072.24
1394.06
1325.67
1326.42
1294.44
1066.43
869.362
767.536
691.23
628.316
602.687
640.315
714.302
784.002
868.427
1050.7
1286.33
1340.18
1346.78
1410.86
2138.28
7012.55
7402.92
6984.09
6479.57
2055.85
1362.31
1276.37
1272.66
1253.89
1151.68
891.412
756.391
679.103
617.303
590.573
628.865
701.865
772.651
886.813
1138.3
1250.45
1282.37
1297.04
1392.99
2174.62
6796.4
7192.13
6727.39
6244.59
2054.53
1342.23
1235.12
1218.82
1209.75
1187.54
962.85
758.331
669.842
608.29
582.05
619.324
690.976
769.245
941.438
1190.04
1208.79
1224.21
1251.17
1369.91
2145.7
6544.09
6924.46
6144.38
5830.92
2038.98
1324.19
1199.22
1171.74
1162.16
1151.8
1048.26
795.126
667.66
600.598
574.401
610.74
685.846
794.494
1036.76
1164.43
1163.39
1173.04
1210.28
1345.49
2101.41
6108.89
6318.38
1457.62
2668.05
3044.02
2761.53
2345.51
2009.39
1780.72
1668.25
1674
1765.44
1862
1825.53
1656.28
1367.46
1096.83
894.435
786.877
771.943
910.863
1251.77
1438.21
1473.74
1472.31
1451.3
1426.28
1373.9
1304.38
1190.47
1028.19
735.89
1697.21
2811.39
3040.2
2658.15
2202.89
1882.98
1697.93
1616
1639.59
1709.9
1771.96
1776.38
1648.51
1350.36
1066.25
877.943
810.571
897.829
1199.05
1376.29
1429.32
1433.87
1415.54
1387.3
1359.69
1304.13
1236.04
1128.57
983.282
724.145
1854.95
2958.76
3024.2
2550.1
2082.14
1785.7
1636.77
1579.96
1631.37
1706.66
1754.17
1768.17
1598.36
1284.76
1025.83
894.915
927.523
1133.42
1279.18
1326.27
1345.35
1346.18
1326.99
1306.13
1278.52
1223.4
1160.84
1062.65
933.192
709.645
2025.52
3117.49
2998.74
2447.49
1973.4
1707.28
1591.02
1561.7
1636.79
1733.18
1789.86
1823.08
1588.53
1282.75
1074.94
1045.43
1153.74
1211.96
1254.54
1269.8
1278.75
1274.44
1257.56
1236.05
1208.34
1154.83
1096.44
1005.95
888.234
695.31
2182.4
3223.87
2967.47
2359.3
1893.06
1652.89
1564.98
1572.25
1704.26
1871.56
1964.99
1998.3
1692.6
1422.37
1266.25
1230.99
1199.89
1191.21
1208.09
1217.81
1221.25
1211.92
1195.27
1175.04
1145.92
1094.91
1040.66
957.12
848.245
681.86
2331.36
3346.27
2949.82
2293.37
1839.02
1630.63
1575.77
1658.49
1881.45
2149.72
2278.52
2247.56
1922.18
1599.59
1346.08
1241.02
1178.72
1160.89
1170.34
1175.83
1172.67
1157.03
1140.67
1122.04
1091.91
1043.85
993.205
914.847
812.487
670.029
2485.25
3484.61
2956.03
2261.52
1833.72
1670.01
1670.17
1810.72
2071.55
2383.05
2488.88
2312.93
1914.55
1518.25
1307.55
1205.72
1150.49
1139.32
1142.58
1141.52
1130.42
1107.01
1092.32
1074.6
1045.15
998.629
949.58
874.696
776.995
656.979
2662.97
3650.02
2990.76
2290.89
1919.51
1796.87
1788.45
1879.78
2078.72
2267.96
2271.2
2045.44
1723.09
1434.09
1277.32
1185.52
1137.7
1126.98
1122.76
1111.96
1091.24
1067.27
1050.38
1033.31
1003.12
956.563
907.849
835.498
742.054
642.667
2887.86
3836.91
3085.19
2406.82
2065.46
1908.76
1876.67
1937.37
2037.18
2096.89
2040.8
1863.34
1629.2
1425.64
1288.81
1196.93
1144.9
1125.42
1107.73
1083.44
1054.11
1031.94
1014.47
996.367
963.559
917.789
869.515
799.84
711.279
629.27
3172.63
4074.16
3252.9
2558.81
2208.83
2070.18
2029.48
2046.4
2090.78
2086.2
2014.94
1878.44
1692.68
1517.25
1365.44
1248.8
1176.53
1133.8
1094.06
1056.72
1023.84
1003.06
983.668
961.696
928.242
884.265
835.678
767.966
683.72
615.564
3512.77
4380.97
3459.13
2765.67
2455.31
2348.07
2324.78
2322.31
2343.74
2333.24
2274.23
2144.17
1945.38
1727.75
1515.66
1345.13
1229.74
1148.74
1083.68
1032.94
1002.58
979.108
957.228
931.298
896.978
853.672
804.836
738.948
658.989
602.823
3896.54
4753.33
3747.92
3090.99
2850.62
2793.91
2826.38
2880.81
2924.67
2913.96
2821.51
2639.69
2369.7
2058.33
1747.26
1491.57
1306.12
1170.74
1077.86
1022.64
987.81
960.081
933.519
903.269
869.022
826.706
777.981
713.221
636.825
590.685
4306.55
5232.8
4169.14
3571.68
3423.38
3449.74
3562.36
3690.9
3766.4
3758.41
3621.56
3354.97
2969.47
2519.98
2065.68
1686.35
1400.45
1204.98
1088.33
1020.98
978.538
944.606
911.264
878.349
844.526
802.562
753.773
689.946
616.625
579.399
4754.24
5857.18
4755.35
4231.95
4208.5
4364.24
4598.61
4805.6
4924.03
4895.25
4679.61
4284.87
3733.34
3098.77
2462.06
1923.55
1522.04
1260.1
1110.57
1026.7
973.853
930.473
891.025
856.533
822.313
780.327
731.452
668.75
597.879
568.854
5254.93
6651.54
5540.89
5089.71
5207.4
5533.48
5910.51
6197.22
6334.87
6242.47
5905.45
5343.68
4596.95
3749.99
2911.93
2199.24
1671.85
1334.01
1143.26
1038.3
970.998
917.093
873.817
837.246
801.611
759.6
710.462
649.001
580.344
558.755
5822.4
7639.77
6530.37
6142.6
6408.24
6913.96
7392.79
7688.36
7773.82
7580.27
7106.06
6375.43
5447.33
4410.08
3390.67
2510.34
1849.97
1426.33
1185.36
1052.31
967.718
905.067
858.028
819.565
782.529
740.028
690.672
630.154
563.724
548.735
6452.42
8821.03
7704.66
7335.15
7696.95
8288.16
8784.29
9016.53
8989.04
8678.83
8087.74
7236.36
6183.33
5018.78
3868.32
2848.15
2059.46
1536.79
1236.31
1068.09
963.541
892.624
843.258
803.222
764.953
721.629
671.931
611.854
547.466
538.715
7122.07
10173.2
8995.54
8549.04
8880
9447.19
9893.84
10064.4
9927.84
9514.2
8821.49
7887.65
6771.36
5552.36
4336.13
3214.66
2299.69
1667.99
1293.74
1082.12
957.88
880.244
829.321
788.029
748.718
704.533
654.436
594.557
532.197
529.105
7810.8
11578.7
10330.2
9677.94
9906.57
10422.6
10811.1
10919.3
10673.1
10165.4
9384.26
8390.15
7241.93
6015.23
4781.5
3597.97
2570.79
1821.34
1358.08
1095.58
952.514
869.481
816.492
774.04
733.848
688.697
638.219
578.642
518.339
520.478
8490.47
13015.7
11621
10705.3
10875.7
11348.8
11673.9
11708.6
11371.8
10766.8
9898.17
8843.43
7663.36
6435.56
5200.1
3978.34
2862.48
1986.98
1422.79
1112.83
951.458
861.574
805.454
761.257
719.876
673.88
623.194
564.099
505.908
512.681
9166.84
14485.7
12776
11693.4
11874.7
12343.8
12631.2
12585.6
12160.5
11453.4
10488.4
9356.29
8127.26
6876.93
5622.11
4357.45
3161.32
2169.6
1507.15
1143.19
956.573
856.63
795.966
749.342
706.35
659.968
609.346
550.869
494.527
505.42
9857.77
15948
13721.3
12712.3
12998
13493.2
13771.6
13665.7
13144.1
12316.2
11234.1
9988.38
8675.54
7362.27
6056.69
4742.86
3478.57
2395.38
1628.47
1190.69
969.957
855.093
787.092
737.307
692.984
646.961
596.488
538.813
483.807
498.52
10684.3
16718
14494.6
13886.6
14324.6
14858.2
15144.1
14988.5
14362
13382
12140
10726.5
9274.86
7857
6482.01
5134.61
3837.02
2676.9
1793.21
1263.11
995.06
860.309
782.943
728.658
683.434
635.558
584.911
528.232
475.47
494.065
11162.3
18381.1
15853.6
15523.3
15983.1
16511.9
16796.9
16583.1
15826.8
14667.7
13204.9
11582
9945.84
8397.74
6944.91
5566.16
4241.58
3008.82
2002.69
1359.75
1030.7
870.643
782.5
723.231
676.417
627.167
575.826
519.849
467.878
489.64
10794
18369
18770.5
18111.7
18179.4
18549.9
18785.3
18488
17586.6
16226.8
14494.4
12623.3
10772.7
9064.86
7506.57
6063.9
4692
3384.78
2258.66
1487.7
1080.02
887.093
785.832
721.518
671.847
621.049
568.741
512.483
461.626
486.374
737.307
1033.62
1194.89
1308.93
1378.62
1438.98
1464.54
1484.7
1486.23
1443.23
1249.69
915.001
778.854
799.066
915.023
1130.05
1414.44
1703.37
1866.2
1893.49
1791.64
1694.84
1693.41
1810.81
2045.82
2395.98
2833.84
3135.8
2754.19
1503.6
725.353
987.214
1132.02
1239.27
1307.49
1364.64
1397.77
1425.65
1445.89
1438.45
1377.94
1209.67
911.171
827.389
899.636
1099.73
1398.85
1694.06
1810.71
1806.45
1737.68
1661.52
1640.72
1726.41
1914.68
2248.34
2726.49
3127.51
2900.38
1746.52
710.622
935.815
1065.05
1163.27
1225.42
1279.72
1312.64
1336.92
1354.67
1354.13
1329.44
1274.58
1148.07
956.451
926.034
1063.86
1336.01
1647.95
1810.75
1793.82
1737.26
1654.79
1605.12
1666.58
1816.12
2125.56
2614.4
3108.34
3048.83
1908.79
696.675
890.18
1007.03
1097.9
1156.3
1208.26
1242.13
1264.29
1280.94
1285.88
1274.04
1249
1215.66
1175.99
1098.77
1131.6
1353.99
1661.97
1891.58
1846.64
1777.32
1670.53
1591.87
1624.01
1739.09
2015.7
2508.28
3080.59
3205.22
2082
683.344
849.427
957.391
1040.92
1095.37
1145.17
1178.7
1199.42
1215.75
1226.02
1222.15
1205.73
1191.05
1206.31
1258.13
1336.44
1530.08
1812.93
2119.12
2072.18
1955.38
1767.98
1619.73
1605.83
1689.84
1937.92
2423.23
3056.16
3315.17
2242.15
671.657
813.565
914.902
993.12
1043.78
1090.78
1123.77
1143.05
1158.32
1175.3
1179.67
1171.25
1159.17
1181.12
1252.71
1382.99
1674.35
2068.25
2417.13
2447.79
2288.74
1987.88
1741.79
1640.85
1680.72
1891.03
2363.71
3046.97
3447.92
2398.17
659.145
778.5
875.554
950.195
998.961
1043.92
1075.7
1094.15
1108.28
1131.81
1144.34
1144.65
1135.7
1153.65
1215.42
1332.81
1568.59
1995.78
2414.34
2597.15
2485.76
2160.11
1889.63
1754.89
1745.68
1903.21
2341.84
3065.26
3603.31
2562.36
645.203
744.002
836.954
909.177
957.621
1002.53
1034
1051.6
1068.34
1092.89
1114.49
1125
1125
1143.5
1198.99
1302.62
1475
1783.24
2106.33
2319.38
2308.59
2115.33
1925.93
1842.23
1874.13
2014.93
2388.65
3115.81
3793.91
2756.04
631.372
712.665
800.99
870.783
919.002
963.703
996.784
1015.62
1033.74
1056.88
1086.86
1111.5
1127.76
1155.12
1218.58
1321.92
1470.07
1687.99
1920.7
2093.59
2146.54
2084.44
1990.55
1940.41
1980.16
2142.04
2511.68
3224.71
4007.33
3006.17
617.728
685.062
768.927
836.497
885.215
929.122
962.362
985.09
1005.43
1027.85
1062.52
1101.52
1140.64
1191.73
1283.37
1416.47
1580.75
1769.13
1958.28
2095.72
2164.91
2160.98
2120.55
2108.73
2152.09
2296.41
2661.15
3398.82
4269.57
3325.88
604.693
660.205
739.628
805.548
854.674
898.545
932.269
959.019
982.629
1007.83
1041.57
1096.33
1165.86
1255.2
1397.22
1593.56
1825.79
2059.73
2267.13
2400.17
2458.27
2460.92
2437.24
2437.72
2456.89
2566.21
2883.93
3608.41
4594.4
3699.59
592.005
637.882
713.906
778.613
827.591
870.272
904.397
936.09
964.778
994.392
1032.68
1097.1
1199.12
1347.26
1564.68
1859.79
2202.86
2536.32
2819.49
3005.21
3095.01
3100.32
3049.26
2983.78
2941.92
2997.15
3239.2
3918.17
4988.12
4103.7
579.725
617.248
690.73
754.503
803.74
845.588
880.116
914.312
950.599
986.704
1033.37
1108.01
1242.32
1464.82
1786.73
2219.77
2721.08
3204.69
3608.73
3880.19
4012.54
4008.45
3918.67
3777.52
3649.6
3616.23
3757.7
4375.28
5505
4526.93
567.905
597.783
669.611
732.847
782.403
824.392
859.248
895.7
936.796
983.445
1041.65
1135.28
1303.19
1602.31
2056.28
2661.15
3360.11
4043.87
4623.04
5025.84
5236.23
5248.47
5110.55
4884.1
4628.48
4451.97
4464.66
5010.01
6179.02
4989.27
556.799
579.73
649.893
712.74
762.993
805.492
841.119
879.087
924.626
981.325
1055.34
1173.29
1385.98
1766.64
2360.7
3152.22
4064.41
4971.08
5755.11
6330.59
6665.23
6742.82
6581.39
6269.23
5863.07
5506.76
5376.63
5857.28
7037.22
5509.56
546.097
563.017
631.243
693.734
744.52
787.663
824.501
863.87
912.861
978.378
1071.76
1221.85
1487.37
1959.59
2691.38
3658.12
4756.07
5855.86
6825.17
7574.66
8049.84
8233.05
8129.48
7808.08
7301.15
6766.81
6490.84
6919.66
8103.04
6097.6
536.163
547.201
613.291
675.527
726.629
770.592
808.992
849.655
901.139
975.484
1088.73
1274.43
1605.12
2180.46
3042.39
4141.75
5361.97
6583.02
7677.9
8555.91
9157.7
9461.64
9478.67
9225.89
8705.08
8096.89
7741.93
8180.7
9390.36
6744.87
527.094
532.483
596.457
658.159
709.566
754.323
794.273
836.285
889.782
971.528
1103.84
1332.88
1740.07
2427.94
3408.75
4592.05
5859.44
7122.27
8279.5
9248.43
9965.79
10389.3
10529.4
10344.1
9870.45
9295
8997.3
9556.29
10834.1
7428.6
518.91
519.055
580.725
641.797
693.439
739.238
779.999
823.443
879.388
967.427
1118.68
1394.39
1891.57
2697.02
3775.67
5000.54
6266.21
7527.1
8716.55
9754.78
10575.4
11111.2
11372.2
11260.3
10860.9
10341.1
10149.1
10961.7
12314.2
8132.73
511.317
506.88
566.111
626.557
678.158
725.178
766.936
811.736
870.896
965.551
1136.11
1459.76
2053.05
2968.16
4119.7
5368.57
6626.27
7885.82
9111.97
10221
11143.3
11792.5
12155.6
12130.1
11800.5
11329.9
11209.6
12303.4
13815.3
8820.74
504.355
495.78
552.892
612.55
664.012
711.596
755.309
802.028
865.034
968.533
1162.53
1540.56
2224.08
3239.68
4457.55
5740.01
7015.76
8301.4
9584.39
10782.9
11815.3
12579.2
13042.5
13103.4
12811.4
12346.8
12213.9
13486.8
15341.1
9500.44
498.095
485.64
541.153
599.696
650.801
698.539
744.646
794.117
863.008
981.347
1207.82
1656.53
2437.99
3538.75
4812.42
6138.15
7465.94
8819.71
10194
11518.4
12681.1
13576.4
14143
14265.9
13982.4
13491.5
13252.9
14424.1
16821.3
10193
492.205
476.363
530.485
588.118
638.658
687.809
733.733
789.57
867.881
1004.57
1276.21
1817.32
2711.89
3881.48
5180.26
6535.24
7934.67
9398.01
10918.9
12421.6
13760.8
14814.6
15491.8
15665.6
15372.6
14845.2
14463.3
15182
17534.1
11041.8
487.494
468.238
521.498
578.727
630.576
680.805
729.221
789.588
878.045
1038.88
1370.09
2022.58
3034.54
4266.07
5586.52
6970.27
8449.38
10047.8
11763.3
13484.2
15063.3
16304.4
17116.2
17350.5
17056.7
16536.3
16148.4
16566.7
19141.5
11495
484.521
462.733
514.497
571.76
624.401
676.435
727.83
793.179
894.208
1086.56
1495.57
2270.47
3390.76
4693.4
6059.05
7507.51
9092.51
10857
12799.2
14780.7
16647.9
18098
19056.1
19372.5
19124.8
18779.3
18782.5
19506.7
19066.8
11081.4
3543.38
3148.88
2730.61
2321.22
1980.86
1699.21
1479.42
1321.03
1214.17
1145.44
1114.41
1126.25
1183.7
1296.28
1475.48
1742.69
2121.44
2624.61
3258.4
3998.99
4805.3
5618.59
6400.62
7097.44
7678.12
8158.43
8536.22
8814.59
9020.15
9243.11
9396.3
9516.83
9598.03
9637.81
9635.52
9588.42
9490.57
9338.39
9135.18
8881.32
8579.15
8229.88
7834.25
7395.82
6921.86
6422.14
5909.93
5392.43
4879.04
4377.83
3895.85
3441.99
3023.12
2642.72
2302.91
2003.99
1744.31
1521.15
1330.92
1169.95
1035.14
923.309
831.281
756.45
695.32
645.558
604.912
571.401
543.614
520.704
502.102
487.256
475.555
466.51
459.654
454.454
450.4
447.139
444.508
442.409
440.725
439.327
438.142
437.189
436.572
436.402
436.758
437.643
439.005
440.743
442.738
444.899
446.938
448.663
449.953
450.604
450.891
451.139
451.514
451.941
452.627
453.263
454.096
455.123
456.235
457.886
460.477
463.298
466.371
469.712
474.226
480.855
484.491
485.566
486.429
487.574
490.525
490.763
487.808
484.769
482.205
480.172
480.639
481.747
482.894
12336.2
11447.9
10193.4
8879.69
7713.26
6692.11
5851.64
5181.39
4681.21
4318.35
4100.2
4045.06
4164.72
4495.32
5097.75
6055.48
7435.65
9249.7
11464.7
13976.7
16641.8
19298.6
21814.9
24099.4
26084.7
27770.9
29170.7
30302.9
31162.6
31774.7
32199.1
32461.8
32564.4
32514.4
32328.9
32009.8
31557.5
30975.6
30274.4
29460.3
28539.2
27516.2
26397.6
25190.5
23913
22582.9
21224.5
19842.3
18453.8
17075.3
15723
14411.8
13144.6
11925.7
10761.5
9654.74
8608.95
7626.59
6707.49
5851.29
5062.12
4342.48
3697.04
3131.25
2646.79
2241.06
1907.54
1637.41
1421.36
1250.39
1116.47
1012.41
931.665
868.484
818.22
777.304
743.044
713.436
687.076
663.081
640.802
619.847
600.042
581.372
563.939
547.93
533.481
520.615
509.229
499.151
490.152
482.045
474.54
467.265
460.238
453.455
446.795
440.366
434.319
428.661
423.526
418.556
414.041
410.153
406.768
404.034
402.705
402.22
402.386
403.832
408.574
419.581
427.387
430.036
433.286
437.929
447.086
452.337
450.551
447.815
446.054
445.45
448.134
453.137
458.374
22214.7
21009.4
19096.8
17033.5
15109.6
13402.9
11960.8
10787.4
9880.68
9242.01
8894.32
8860.67
9204.24
10019.7
11419.8
13519.9
16373.7
19925.7
23998.1
28364.4
32766.5
36987.2
40848.3
44256.8
47120.8
49486.5
51411.8
52927.3
54075.6
54892.4
55369.7
55615.5
55669.3
55536.9
55216.8
54716.5
54044.4
53209
52226.3
51103.8
49841.4
48440.8
46908
45258.3
43506.3
41667.2
39759.7
37800.2
35807.7
33802
31802
29824.5
27882.3
25985.5
24143.6
22364.1
20651
19004.3
17421.6
15897.8
14429.2
13009.5
11635.5
10313.4
9056.28
7876.88
6783.34
5784.44
4892
4115.96
3459.24
2919.25
2485.85
2142.86
1873.2
1661.69
1495.07
1362.13
1254
1164.3
1088.67
1023.74
966.966
916.546
871.36
830.684
794.076
761.178
731.627
705.055
681.112
659.468
639.715
621.398
604.58
588.894
573.939
559.507
545.796
532.922
521.13
509.977
499.635
490.039
481.709
474.449
468.987
464.858
461.73
460.152
461.73
470.517
477.51
479.168
481.099
486.676
496.109
500.107
499.044
495.825
493.36
492.366
495.567
501.808
508.832
34758.1
33264
30732.7
27921.8
25221
22808.7
20762.2
19105.5
17868
17089.1
16851.9
17252.7
18397.8
20421.4
23437.4
27486
32472.3
38162.1
44221
50261
56042.2
61339.1
66013.8
69994.1
73217.5
75857
77959.5
79578.8
80781.7
81626.4
82139.2
82315
82288.7
82068.5
81665
81085
80332.6
79407.4
78308.7
77049.3
75627.8
74047.4
72318.3
70457.1
68472.2
66377.9
64195.5
61943.8
59645.1
57324.6
54999.8
52685
50391.5
48127.1
45899.5
43709.1
41551.4
39417.4
37294.7
35168.6
33026.5
30861.8
28678.4
26486.2
24302.2
22144
20024.2
17952.7
15944.3
14022.6
12218.9
10562.5
9074.67
7765.46
6634.47
5674.54
4870.49
4202.16
3649.21
3192.93
2817.51
2508.71
2252.82
2037.96
1855.43
1698.9
1563.88
1447
1345.39
1256.5
1178.28
1108.65
1046.27
989.555
937.548
889.972
846.199
805.626
767.744
732.352
699.851
670.138
643.341
619.225
598.087
579.85
564.669
552.437
542.502
535.284
532.137
537.636
545.059
546.587
546.372
549.772
557.098
559.515
557.614
553.062
549.584
548.139
551.593
558.433
566.041
49820.7
48074.5
45047.6
41692.4
38443.3
35564.2
33165.6
31308
30097.1
29667.2
30146.1
31666.7
34351.3
38274.3
43411.1
49599.2
56541.9
63865.4
71189.1
78165.3
84449.4
89936.7
94661.7
98544.4
101726
104302
106319
107866
109025
109863
110434
110751
110788
110666
110376
109922
109298
108496
107512
106352
105019
103519
101858
100042
98092.4
96018
93859.5
91655.5
89424.8
87186.8
84954.2
82733.5
80522.3
78319.3
76139.3
73966.1
71777.1
69546.6
67246.6
64851
62343.3
59719.7
56982.6
54128.3
51158.9
48080.7
44903.6
41645
38335.4
34998.1
31723.6
28571.8
25582.9
22785.4
20196.2
17825.7
15680.8
13749.2
12021.7
10490.9
9151.17
7993.13
7000.9
6154.45
5433.34
4818.61
4294.7
3848.38
3467.73
3140.93
2856.99
2608.1
2388.08
2190.05
2008.19
1839.16
1681.28
1534.74
1400.63
1279.09
1169.85
1072.24
985.721
909.624
843.445
787.312
740.712
702.696
671.668
646.691
628.233
620.87
624.056
622.422
617.708
616.684
620.73
622.225
618.089
611.185
605.456
601.97
604.804
611.439
618.693
66892.2
64889.7
61516.9
57877
54478.6
51598.2
49296.5
47732.2
47151.6
47709.6
49526.3
52698.7
57253.8
63113
70069.3
77796
85892.3
93946.4
101600
108594
114694
119776
124032
127527
130333
132569
134351
135776
136924
137853
138609
139213
139648
139853
139884
139773
139485
139012
138347
137487
136435
135200
133800
132262
130612
128882
127106
125320
123551
121816
120116
118443
116776
115085
113397
111679
109873
107932
105811
103472
100932
98166.9
95160
91885.3
88337
84514.5
80426.6
76104.4
71593.5
66948.4
62299.2
57699.6
53160.8
48715.5
44398.6
40243.1
36259.4
32531.4
29071.4
25882.7
22972.2
20337.1
17974.4
15869.2
14004.1
12363.6
10932.6
9695.34
8628.17
7710.28
6916.09
6228.45
5629.58
5102.89
4633.39
4209.85
3820.89
3457.89
3115.47
2790.85
2486.93
2207.39
1953.53
1727.75
1529.01
1355.79
1207.43
1082.44
979.041
894.906
828.893
783.364
760.199
744.723
724.99
708.826
701.323
696.546
687.847
677.313
668.155
662.745
664.144
668.951
673.142
84976.9
82814.3
79260.2
75672.1
72555.5
70001.9
68214.4
67513.3
68139.4
70178.3
73669.8
78600
84852
92194.7
100294
108754
117172
125167
132481
138839
144246
148728
152350
155235
157554
159448
161037
162419
163663
164811
165883
166877
167773
168535
169114
169470
169625
169597
169360
168915
168275
167467
166530
165508
164448
163388
162363
161396
160499
159671
158881
158087
157247
156316
155338
154228
152942
151419
149608
147460
144891
141836
138462
134745
130684
126283
121562
116566
111359
105958
100351
94568.6
88710.5
82823.1
76934.2
71076.7
65336.2
59813.1
54512.8
49447.6
44636.6
40122.9
35923.8
32056.5
28529.9
25340.6
22475.4
19928
17668.5
15672.2
13912.1
12366
11017.2
9842.05
8820.59
7928.22
7143.03
6448.45
5829.46
5269.88
4755.81
4278.85
3832.63
3411.51
3017.8
2652.04
2316.07
2016.81
1752.83
1525.58
1333.39
1181.54
1073.58
998.184
936.828
879.757
839.477
811.005
785.481
763.661
746.363
735.435
731.655
729.966
728.475
102725
100602
97186.9
93946.8
91249.9
89338.1
88524.5
89159
91339.9
95041.9
100194
106660
114193
122453
131046
139576
147721
155104
161639
167207
171787
175443
178362
180705
182654
184348
185894
187368
188815
190254
191688
193098
194454
195718
196840
197776
198490
198940
199155
199180
199051
198822
198561
198334
198196
198176
198276
198472
198735
199073
199365
199538
199524
199252
198616
197689
196436
194831
192844
190454
187651
184415
180769
176734
172314
167518
162352
156805
151088
145159
138991
132612
126103
119486
112766
105957
99070.1
92161.5
85291.9
78516.5
71945.6
65660.7
59666.9
53986.9
48661.8
43715.7
39156.8
34982.3
31179.8
27738.5
24637.6
21859.4
19384.9
17187.3
15245.6
13536.1