/*--------------------------------*- C++ -*----------------------------------*\
| =========                 |                                                 |
| \\      /  F ield         | OpenFOAM: The Open Source CFD Toolbox           |
|  \\    /   O peration     | Version:  2112                                  |
|   \\  /    A nd           | Website:  www.openfoam.com                      |
|    \\/     M anipulation  |                                                 |
\*---------------------------------------------------------------------------*/
FoamFile
{
    version     2.0;
    format      ascii;
    arch        "LSB;label=32;scalar=64";
    class       volScalarField;
    location    "0.01043";
    object      p;
}
// * * * * * * * * * * * * * * * * * * * * * * * * * * * * * * * * * * * * * //

dimensions      [1 -1 -2 0 0 0 0];

internalField   nonuniform List<scalar> 
13875
(
951598
984299
973589
975901
973685
974324
974845
974425
974939
975132
974984
975006
974676
974780
974833
974700
974634
975331
975170
973966
973385
975636
972316
982347
944878
733799
659569
672192
677207
669343
669816
677259
678838
679526
679782
679306
678423
670223
669166
670407
678035
679300
679306
677540
669949
669574
676906
672214
657250
730624
736889
635530
664319
653714
649176
647689
647101
646177
647187
649257
647897
649099
645411
645288
645227
648906
646256
648206
647938
647649
648550
652167
661980
632115
733416
743533
636175
665201
653871
649477
647856
646184
644677
644604
644837
643803
644861
645451
645392
645255
644536
643500
644600
646117
647799
648833
652292
662732
632718
739218
757366
639182
667751
654574
650330
648330
646305
644787
644700
645002
643878
644895
645587
645665
645377
644567
643597
644681
646238
648232
649615
652885
665027
635357
750642
759046
647839
673513
656529
652119
649320
646713
645129
644963
645510
644130
645023
645863
646213
645638
644694
643881
644948
646638
649158
651288
654758
670619
643084
751953
765052
668349
685731
661408
655748
651312
647694
645903
645523
645917
644689
645394
646437
646787
646141
645001
644508
645658
647717
651212
654923
660363
682152
665780
756049
791228
718382
711639
674704
663504
655647
650072
647576
646681
646731
645842
646235
647559
647945
647210
645815
645792
647154
649959
655319
662293
673157
707139
715296
781975
908647
827949
766490
704289
679005
664236
655059
650930
649065
648544
648163
648158
649825
650278
649427
647809
648413
650285
654568
663386
676938
700913
760249
823136
909784
1.52422e+06
1.02957e+06
833497
739204
697333
674589
662188
656408
653588
652584
652717
652353
654331
654850
654007
652371
653390
655828
661554
673886
695732
736804
829416
1.0253e+06
1.5173e+06
2.90588e+06
1.39303e+06
957153
796056
725541
691457
674843
666714
662766
661339
661517
660871
662910
663556
663005
661858
663045
666231
673623
689577
722249
789314
941087
1.3513e+06
2.8607e+06
5.60503e+06
2.34575e+06
1.2867e+06
936252
789688
728580
701401
688466
682486
680140
679525
678783
680421
681311
681346
681532
683436
688662
700671
726996
786852
925884
1.25233e+06
2.27448e+06
5.57429e+06
5.39051e+06
4.84445e+06
2.31606e+06
1.40093e+06
979460
828175
766402
740346
728611
723358
721047
720073
720695
721867
723047
725557
730795
742476
769181
834671
989985
1.38713e+06
2.18309e+06
4.87553e+06
5.34299e+06
4.84103e+06
4.65234e+06
4.72499e+06
3.99127e+06
1.63626e+06
1.1343e+06
954145
884672
853178
838134
831307
828585
827812
829297
832802
840784
858007
894236
975641
1.20164e+06
1.83503e+06
4.03317e+06
4.68927e+06
4.71794e+06
4.7636e+06
4.03297e+06
4.13196e+06
4.50818e+06
4.26037e+06
3.99958e+06
2.46586e+06
1.65778e+06
1.37611e+06
1.26436e+06
1.21706e+06
1.1978e+06
1.19034e+06
1.18792e+06
1.18981e+06
1.197e+06
1.2165e+06
1.26536e+06
1.38435e+06
1.69425e+06
2.68667e+06
4.11513e+06
4.24456e+06
4.51144e+06
4.28626e+06
4.26824e+06
3.53689e+06
3.46391e+06
3.93212e+06
4.06088e+06
4.27448e+06
4.34456e+06
3.68372e+06
3.0561e+06
2.84614e+06
2.68067e+06
2.57563e+06
2.53611e+06
2.52099e+06
2.52654e+06
2.55617e+06
2.63905e+06
2.84804e+06
3.0466e+06
3.75464e+06
4.39042e+06
4.23707e+06
4.07872e+06
4.05369e+06
3.57191e+06
3.74909e+06
2.55497e+06
2.69692e+06
3.06299e+06
3.49651e+06
4.20979e+06
5.16086e+06
6.79964e+06
7.60385e+06
7.96363e+06
8.05977e+06
8.1266e+06
8.1397e+06
8.15201e+06
8.14487e+06
8.14327e+06
8.08713e+06
7.98814e+06
7.68021e+06
6.81073e+06
5.10123e+06
4.19976e+06
3.56035e+06
3.15004e+06
2.81794e+06
2.70452e+06
1.43554e+06
1.72166e+06
2.31431e+06
2.99886e+06
4.18029e+06
5.59689e+06
6.7829e+06
7.42674e+06
7.66581e+06
7.6363e+06
7.55646e+06
7.48853e+06
7.47145e+06
7.48867e+06
7.55848e+06
7.66329e+06
7.72652e+06
7.49219e+06
6.81005e+06
5.57574e+06
4.11884e+06
2.93262e+06
2.19216e+06
1.62214e+06
1.34503e+06
696188
1.02907e+06
1.70863e+06
2.60217e+06
4.08606e+06
5.16283e+06
5.84115e+06
6.34413e+06
6.50491e+06
6.4768e+06
6.43195e+06
6.44549e+06
6.46471e+06
6.46467e+06
6.45346e+06
6.51437e+06
6.59066e+06
6.47568e+06
6.05533e+06
5.39596e+06
4.11942e+06
2.67148e+06
1.72803e+06
1.04271e+06
705153
382944
616955
1.13448e+06
2.19904e+06
3.63534e+06
4.35523e+06
4.68867e+06
5.01834e+06
5.24051e+06
5.39699e+06
5.54252e+06
5.6549e+06
5.69302e+06
5.66623e+06
5.55676e+06
5.40039e+06
5.23251e+06
5.01367e+06
4.73798e+06
4.4352e+06
3.67016e+06
2.19913e+06
1.13288e+06
608195
374682
956065
979645
1.17111e+06
1.88656e+06
2.89625e+06
3.39046e+06
3.71717e+06
4.10208e+06
4.42694e+06
4.65941e+06
4.8355e+06
4.94157e+06
4.96532e+06
4.94154e+06
4.82887e+06
4.63129e+06
4.36483e+06
4.02741e+06
3.68104e+06
3.40489e+06
2.87432e+06
1.85962e+06
1.14794e+06
972389
962239
1.01656e+06
977727
1.15676e+06
1.60482e+06
2.16923e+06
2.62147e+06
3.01967e+06
3.45583e+06
3.79554e+06
4.03256e+06
4.20131e+06
4.28986e+06
4.30453e+06
4.28239e+06
4.18542e+06
3.99548e+06
3.72555e+06
3.37034e+06
2.93547e+06
2.60392e+06
2.12732e+06
1.56046e+06
1.12485e+06
948663
989019
1.1246e+06
1.01823e+06
1.13254e+06
1.3436e+06
1.69257e+06
2.08507e+06
2.52438e+06
2.95618e+06
3.26452e+06
3.48425e+06
3.62992e+06
3.70337e+06
3.71671e+06
3.69229e+06
3.60664e+06
3.44068e+06
3.19824e+06
2.89119e+06
2.42042e+06
2.05841e+06
1.654e+06
1.30934e+06
1.10369e+06
1.00882e+06
1.14101e+06
1.31929e+06
1.15042e+06
1.13536e+06
1.19049e+06
1.44049e+06
1.77781e+06
2.13276e+06
2.53024e+06
2.80255e+06
3.00437e+06
3.12759e+06
3.1923e+06
3.20618e+06
3.18082e+06
3.10517e+06
2.96127e+06
2.74331e+06
2.47202e+06
2.05849e+06
1.73509e+06
1.39448e+06
1.15263e+06
1.11015e+06
1.15873e+06
1.30919e+06
1.3743e+06
1.27971e+06
1.14349e+06
1.1308e+06
1.2958e+06
1.55748e+06
1.83814e+06
2.16739e+06
2.40121e+06
2.58165e+06
2.69654e+06
2.75503e+06
2.76881e+06
2.74529e+06
2.67813e+06
2.551e+06
2.35603e+06
2.12156e+06
1.78699e+06
1.51304e+06
1.24592e+06
1.10857e+06
1.12263e+06
1.28666e+06
1.36531e+06
1.4338e+06
1.38016e+06
1.16007e+06
1.13134e+06
1.20499e+06
1.39703e+06
1.6075e+06
1.87514e+06
2.07204e+06
2.22862e+06
2.33171e+06
2.38255e+06
2.39516e+06
2.37437e+06
2.31621e+06
2.20206e+06
2.03317e+06
1.8356e+06
1.57361e+06
1.36694e+06
1.16561e+06
1.10898e+06
1.13829e+06
1.37189e+06
1.4131e+06
1.47848e+06
1.41646e+06
1.17938e+06
1.13143e+06
1.15073e+06
1.27218e+06
1.42861e+06
1.63616e+06
1.7985e+06
1.93069e+06
2.0211e+06
2.06596e+06
2.07869e+06
2.05943e+06
2.0067e+06
1.9084e+06
1.76452e+06
1.60262e+06
1.39647e+06
1.24329e+06
1.11919e+06
1.10911e+06
1.16529e+06
1.41025e+06
1.45502e+06
1.56501e+06
1.49411e+06
1.21447e+06
1.12829e+06
1.11011e+06
1.17486e+06
1.27992e+06
1.43949e+06
1.56915e+06
1.68075e+06
1.75733e+06
1.79692e+06
1.81065e+06
1.79381e+06
1.75098e+06
1.66915e+06
1.54945e+06
1.41618e+06
1.25842e+06
1.15369e+06
1.08834e+06
1.10784e+06
1.20339e+06
1.48661e+06
1.54202e+06
1.67341e+06
1.60409e+06
1.25629e+06
1.11763e+06
1.08069e+06
1.09773e+06
1.16083e+06
1.27977e+06
1.38451e+06
1.47495e+06
1.53778e+06
1.5732e+06
1.58432e+06
1.56921e+06
1.52919e+06
1.46246e+06
1.36492e+06
1.26094e+06
1.14474e+06
1.08449e+06
1.06428e+06
1.09816e+06
1.23118e+06
1.5463e+06
1.58593e+06
1.72618e+06
1.70989e+06
1.30085e+06
1.10983e+06
1.0491e+06
1.04494e+06
1.06686e+06
1.14954e+06
1.22876e+06
1.30245e+06
1.35364e+06
1.38208e+06
1.39256e+06
1.37815e+06
1.3461e+06
1.29258e+06
1.21462e+06
1.13229e+06
1.04947e+06
1.02766e+06
1.03327e+06
1.09046e+06
1.27398e+06
1.62928e+06
1.65758e+06
1.73201e+06
1.72207e+06
1.33868e+06
1.10595e+06
1.01542e+06
992890
991800
1.03923e+06
1.09853e+06
1.15595e+06
1.19698e+06
1.22243e+06
1.2302e+06
1.22e+06
1.19184e+06
1.14931e+06
1.08909e+06
1.02983e+06
980187
981537
1.00203e+06
1.08363e+06
1.3036e+06
1.65628e+06
1.69803e+06
1.74595e+06
1.72264e+06
1.40825e+06
1.10654e+06
979888
938101
929470
954345
994277
1.03726e+06
1.06817e+06
1.08595e+06
1.09278e+06
1.08435e+06
1.06336e+06
1.03032e+06
985447
944302
919587
926511
965540
1.08325e+06
1.35472e+06
1.67287e+06
1.71994e+06
1.75e+06
1.71164e+06
1.46966e+06
1.1087e+06
953049
892042
878550
879918
905076
935766
958677
973078
977300
971526
953726
929796
898081
872655
869189
881806
936676
1.08523e+06
1.4193e+06
1.67504e+06
1.71971e+06
1.74925e+06
1.6941e+06
1.54159e+06
1.11785e+06
927914
849319
823251
818197
827641
849177
865338
875177
878943
874332
862783
847020
825051
812252
816891
838965
912442
1.09195e+06
1.51449e+06
1.6691e+06
1.71634e+06
1.7478e+06
1.6658e+06
1.54863e+06
1.13977e+06
917072
818148
778140
764984
764488
774795
785932
794255
796368
793391
783032
771725
761190
761306
771590
806387
898489
1.10718e+06
1.53891e+06
1.65637e+06
1.71601e+06
1.74323e+06
1.63976e+06
1.54324e+06
1.16037e+06
917723
787222
733393
715035
709376
712977
718741
723317
724885
722205
715760
711615
707009
710929
728326
779002
899104
1.13922e+06
1.5386e+06
1.62845e+06
1.71748e+06
1.73397e+06
1.61577e+06
1.53663e+06
1.20501e+06
924331
768202
700313
670775
660759
657942
660221
664257
664708
663230
657762
656203
659406
669372
696178
758583
902386
1.17852e+06
1.52291e+06
1.61704e+06
1.7219e+06
1.715e+06
1.58834e+06
1.52452e+06
1.29352e+06
942211
753624
668656
632038
616943
612156
610690
611825
611776
611207
608970
610835
615279
627689
662410
741351
913329
1.25725e+06
1.49498e+06
1.60692e+06
1.71447e+06
1.67882e+06
1.56886e+06
1.49044e+06
1.34241e+06
961707
754090
647696
599405
578987
569788
567570
568136
567173
568154
565328
567455
577259
596666
640835
741789
940279
1.32291e+06
1.45509e+06
1.58687e+06
1.68911e+06
1.61914e+06
1.5432e+06
1.42462e+06
1.34098e+06
1.004e+06
760027
629019
570840
545347
534683
529990
528606
527886
528522
529088
533771
543698
566520
621758
744866
973939
1.32171e+06
1.39822e+06
1.53834e+06
1.63213e+06
1.56231e+06
1.50846e+06
1.36658e+06
1.33675e+06
1.08814e+06
775699
628936
551524
518142
502007
496850
496348
493954
495877
495698
499976
515491
547118
621640
755100
1.04099e+06
1.31743e+06
1.34601e+06
1.49132e+06
1.56762e+06
1.52223e+06
1.47196e+06
1.31481e+06
1.31826e+06
1.18038e+06
795125
631005
538789
495147
476695
468589
465402
463862
465114
467899
475659
492326
532012
625194
780955
1.18065e+06
1.30737e+06
1.30113e+06
1.43884e+06
1.51078e+06
1.47895e+06
1.43896e+06
1.28046e+06
1.28032e+06
1.17935e+06
836751
640344
539014
480142
452708
443228
440820
437596
440301
442220
451056
476956
528799
630728
815876
1.17955e+06
1.28185e+06
1.2744e+06
1.41873e+06
1.47792e+06
1.43264e+06
1.39619e+06
1.25103e+06
1.21854e+06
1.17175e+06
920489
661175
541514
471146
436579
422435
416624
414197
416301
421650
434495
465745
530025
645421
885547
1.17243e+06
1.23066e+06
1.2581e+06
1.40296e+06
1.4333e+06
1.39981e+06
1.3583e+06
1.22837e+06
1.1604e+06
1.14627e+06
1.02928e+06
693400
546022
471370
424582
404612
398023
393942
397795
402231
419840
465952
537006
679568
1.0303e+06
1.15613e+06
1.18113e+06
1.25318e+06
1.3721e+06
1.3823e+06
1.3594e+06
1.32216e+06
1.21026e+06
1.11768e+06
1.0951e+06
1.0263e+06
762052
561391
474151
421959
393466
380950
376858
380482
391669
415284
467404
550018
738404
1.02885e+06
1.11819e+06
1.13879e+06
1.23807e+06
1.32148e+06
1.35086e+06
1.313e+06
1.27648e+06
1.19293e+06
1.08152e+06
1.04051e+06
1.01604e+06
902255
594088
481533
422673
388066
372092
364134
370952
384905
415515
472504
576843
857417
1.01964e+06
1.06434e+06
1.10126e+06
1.20697e+06
1.27172e+06
1.31681e+06
1.26609e+06
1.23768e+06
1.17149e+06
1.05715e+06
996199
989317
901072
652876
494429
424549
388260
367496
353081
365571
385144
418149
486828
634668
896634
997949
1.01656e+06
1.06915e+06
1.16952e+06
1.2246e+06
1.26514e+06
1.17182e+06
1.17862e+06
1.13785e+06
1.03928e+06
961196
939159
894607
775679
521656
432450
389963
367743
353198
365741
386213
424987
513735
747877
893302
952400
974710
1.04131e+06
1.13351e+06
1.16806e+06
1.17059e+06
1.0363e+06
1.10167e+06
1.08157e+06
1.01569e+06
932155
892495
875231
795040
577579
452028
395701
369261
354344
366910
390713
442037
568827
799604
878223
897140
936224
1.01117e+06
1.0776e+06
1.09326e+06
1.03779e+06
100013
102675
101960
104118
104734
105124
105039
103830
103126
102373
100574
99533
98563.7
97822.5
97003.4
96016.6
94788.6
93667.2
92429.6
90749.9
89458
87885.2
86986
86458.2
86042
85750.2
85567.4
85313.3
85015.7
84575.3
99660.4
103074
101946
104103
104719
105085
105038
103810
103129
102321
100448
99454.4
98500.2
97750
96890.4
95885.2
94769.7
93639.6
92339
90773.7
89344.3
87912.3
87032.4
86587.9
86302.9
86139.2
86077.3
85877.2
85674.5
85481.9
100199
103567
102378
104192
104752
104984
104796
103527
103022
102109
100297
99308.6
98322.6
97561.9
96733.7
95801.9
94740.2
93592
92067.8
90741.9
89313.7
88177.3
87370.7
86970.2
86819.4
86815.5
86872.2
86762.1
86728.5
86803.2
101696
104081
103014
104490
104762
104884
104319
103343
102911
101783
99993.9
99070
98098.7
97356.3
96574.3
95688
94686.6
93506.7
91854.2
90669.8
89317.9
88444.8
87733.2
87474
87421.7
87530.4
87640.9
87664.7
87716.7
87789
103134
104627
103825
104843
104753
104783
103859
103069
102622
101382
99709.6
98855.4
97896.1
97185.8
96415.4
95565.9
94599.1
93309
91614
90658.2
89472.8
88836.8
88262.4
88095.2
88066.9
88277.8
88508.4
88776.1
88959.9
89180.9
104423
105272
104597
104999
104671
104519
103385
102713
102280
100901
99302.6
98439
97420.7
96682.6
95858.8
94994.8
93953.7
92551
91527.5
90730.2
89813.2
89193.8
88822
88721.9
88723.9
89248.9
89324
89791.4
90013.6
90239.1
105550
106064
105007
105046
104377
103952
102723
102261
101792
100183
98537.1
97553.1
96380.1
95580.8
94733.7
93943.3
93046.3
92112.9
91517.3
90872.8
90273.6
89743.4
89561.3
89498
89620.8
90246.5
90332.9
90863.8
91188.4
91593.1
106617
106682
105184
105055
103987
103113
102065
101604
101160
99234.8
97460.8
96365.4
95095.3
94305.3
93557.2
92956.6
92377.8
91897.6
91504.4
91046.1
90755.3
90493.3
90311
90269
90482.6
90714.2
91172.7
91970.1
92455.2
92896
107499
106975
105239
104811
103494
102259
101237
100773
100316
98138.4
96267.9
95120.6
93864.3
93165.3
92574.5
92179.9
91898.2
91700.4
91494
91242.2
91012.9
90977
91001.3
91060.1
91274.6
91243.1
91911.9
92662.8
93144.2
93430.5
108152
107081
105249
104358
102865
101381
100309
99829.2
99357.9
97018.3
95086.6
93932.5
92769.7
92188.1
91798.9
91621.5
91553.8
91538.2
91485.1
91418.1
91407
91406.1
91422.1
91679.2
91789.2
91840.7
92601.2
93157.2
93588.1
93972.7
108468
107110
105005
103746
102082
100489
99299.3
98782.5
98338.1
95871.7
93882.1
92615.7
91724.1
91326.8
91177.4
91150.1
91178.2
91322.8
91467.3
91564.8
91774.7
91748.6
91835.7
92086.3
92284.8
92488.4
93135.9
93675.9
94063.2
94465.6
108562
106943
104549
102988
101143
99567.1
98192.6
97638.5
97220.3
94684.8
92497.3
91319.2
90751.3
90529.2
90472.3
90585.5
90736.7
90982
91407.8
91623.9
92053.2
92380.5
92530
92683.5
92958.6
93121.6
93575.7
94087.2
94928.3
95432.4
108528
106457
103808
102063
100041
98407.5
97089.1
96467.8
95877.9
93106.5
91165.1
90233.7
89822.1
89680.9
89654.3
89912.8
90178.3
90601.9
91221.3
91638.2
92171.7
92676.8
93133.8
93466.1
93836.3
93973.8
94365.4
94824.3
95446.7
95611.7
107822
105599
103001
100934
98785.3
97049.2
95868.6
95291.3
94279
91410.3
89850.3
89128.6
88833.2
88751.4
88754.5
89166
89508.5
90120.4
90881.1
91597.8
92201.3
92797.2
93417
93854.8
94282.8
94554.2
95190
95454.8
95535.3
95617.9
106974
104372
102052
99613
97404.4
95622.8
94520.3
93967.3
92406.9
89848.6
88575
88002.8
87777.5
87716.7
87857.4
88376.4
88787.1
89555.8
90505.3
91368.7
92195.5
92823
93519.5
94024.8
94499.9
95068.6
95548.2
95706.4
95655.5
95538.6
105508
103240
100743
98291.9
95874.8
94134.3
93048.2
92481.3
90488.9
88335.3
87288.3
86843.2
86686.8
86651.5
86945.1
87545.4
88031.4
88950.2
90054
91079.7
91982.8
92821.7
93544.8
94081.2
94585.5
95305.9
95676.9
95794.4
95732.5
95883.4
103988
101157
99274.5
96744.4
94345.2
92573.7
91470
90860.6
88640.7
86880.7
86040.1
85711.2
85604.5
85586
86024.7
86698.8
87272.7
88321
89553.8
90699.9
91761.9
92737.1
93549.3
94096.6
94611
95360.6
95703.7
95818.1
95843
96047.7
102313
99734.4
97495.3
95107.2
92787.5
90918.4
89835.6
89144.8
86920.4
85489.1
84823.9
84584.7
84517.7
84512.9
85113.2
85843.5
86515.2
87669.6
88996.8
90232.9
91376.5
92443.3
93472.2
94097.1
94615.2
95367.3
95704.8
95779.2
95821.7
95866.3
100099
97693.9
95610
93338.8
91143.3
89251.3
88138.1
87380.4
85310.2
84154
83637.7
83475.1
83441.2
83466.1
84219.3
84999.4
85776.9
87021.1
88419.1
89725.6
90948.3
92132.9
93155.7
93702.2
94542.7
95282.6
95616.6
95712.4
95820.6
95884.5
98125.9
95732.5
93807.6
91455
89456.2
87614
86399.4
85620.5
83794.3
82885.7
82491.2
82376.1
82355.7
82469.3
83358.1
84186
85062.3
86378.1
87821
89164.3
90406.4
91573.2
92526.9
93394.4
94372.5
95229.9
95583.1
95676.1
95817.1
95911.6
95390.5
93413.7
91848
89543
87772.4
85988
84689.2
83895.1
82386.5
81667.2
81365.4
81291.1
81285.7
81543
82525.5
83408.8
84354.3
85710.4
87157.1
88488.3
89697.2
90813.8
91864.8
93241.6
94300.5
95185.3
95561.8
95665.7
95834.4
95927.4
93128.9
91239.6
89955
87819.5
86122.1
84418.4
83050
82233.9
81050
80499.7
80288.8
80247.3
80264.7
80642.8
81705.1
82654.9
83631
84977.6
86379.3
87669.1
88879.1
90118.9
91531.7
93167.2
94279.8
95169.7
95584.1
95899.8
96015.6
96019.1
89699.6
88735.7
88011.1
86125.7
84482.4
82958.1
81518.4
80651.8
79796.9
79397.8
79255.4
79231.5
79319.5
79776.4
80921.9
81923.2
82892.2
84181.3
85527.7
86808.6
88110.2
89579.1
91324.3
93128.8
94273.7
95156
95708.6
96001.8
96108.2
96088.1
87626.2
86632.5
86506.7
84646.3
83022
81561.7
80104.6
79187.2
78591.6
78330.5
78260.2
78262.3
78452
78973.1
80157.8
81192.1
82125.1
83343.8
84668.7
86003.1
87443.4
89104.8
91000.1
92910
94265.4
95172.6
95756.2
96039.9
96141.2
96104.6
79264.9
84266.9
85413.3
83412.2
81828.2
80511.8
78855
77917.5
77463.4
77279
77237.6
77368.2
77676.5
78220.7
79363.2
80401.3
81233.3
82341.3
83777.7
85270.4
86877.6
88661.5
90593
92395.7
93909
95078.2
95755.2
96013
96076.2
96004.3
83571.3
83742.9
83685.2
83837
84117.9
84574.9
85276.7
85960.4
87206
88592.1
90030.4
92067.2
93329
94524.5
95519.7
96181.4
96732
97285.7
98018.5
98898.2
100556
101484
102092
103381
103769
103320
102724
100442
101179
98508.1
83951.1
84221.6
84237.5
84352.9
84413.3
84657.5
85355.6
86103.7
87180.6
88566.8
90144.1
91797.5
93377.3
94514
95448.1
96136.2
96702.1
97257.2
98008.4
98832.5
100499
101498
102101
103364
103699
103302
102712
100431
101604
98160.1
84696.2
85073.5
85135
85171.3
85048.7
85059.6
85425.9
86318
87187.5
88541.8
89849.7
91404.9
93381.9
94493.6
95398.9
96101.7
96677.4
97229.5
97987.3
98757.6
100268
101446
102002
103245
103654
103424
102843
100930
102108
98701.2
85425.3
85794.7
85935.6
85930.6
85733.3
85641.9
85812.9
86446.3
87244.8
88404.8
89731.9
91239.6
93206.1
94363.6
95244.5
95954.5
96521.9
97048.9
97812.9
98543.8
99977.7
101330
101851
102814
103636
103518
103181
101613
102616
100270
86687.9
86790.2
86782.1
86683.6
86435.1
86397.1
86479.4
86694.3
87429.9
88405.3
89699
90794.1
91924.3
93460.3
94502.2
95328.4
95970.3
96549.7
97400.5
98123.4
99480.7
100989
101577
102257
103558
103537
103663
102496
103130
101776
87814
87795.4
87670.3
87446.6
87071.6
87040.2
87120.4
87373.8
88140.9
88742.3
89840.1
90561.3
91258.8
92378.8
93324.7
94154.7
94898.1
95586.9
96618
97449.3
98845.7
100563
101155
101774
103224
103530
103934
103239
103751
103157
89525.5
89249.6
89044.1
88827.1
88018.1
87792.5
87839
88101.4
88535.1
89259.8
89888.9
90442.7
90932.9
91559
92224
92885.4
93587.6
94330.3
95547
96552.8
98075.8
100035
100737
101339
102493
103451
104035
103822
104514
104409
91264.7
91312.4
90962
90459.6
89202.1
88717.1
88677.1
88752.3
88934.2
89466.7
89970.4
90448
90750.2
91077.8
91522.2
92017.7
92604.9
93279.6
94525
95631.4
97265.8
99471.1
100191
100701
101797
103143
104066
104093
105157
105622
92831.9
92177.1
91733.1
91216.1
90497.7
89818.7
89507.5
89474.5
89526.5
89680.4
90068.9
90448.3
90532.5
90698.6
90956.5
91328.4
91823.1
92417.5
93601.5
94765.1
96448.2
98898.2
99526
99978.6
101045
102698
104016
104195
105471
106661
93557.5
92869.2
92509.3
92080.7
91689
91147.4
90396.1
90145.2
90090.5
90039.6
90151.3
90407.5
90381.8
90393.6
90477.4
90687.4
91088.6
91615.3
92675
93879
95610.1
98282.8
98810.6
99209.3
100157
102096
103626
104222
105590
107465
93918.3
93335.8
93256
92971.5
92944.4
92674.9
91462.3
90921.2
90598.6
90425.2
90404.8
90355.1
90241.1
90063.2
90065.5
90111
90286.1
90705
91596.5
92883.7
94668.1
97538.2
97971.9
98347.3
99233.8
101326
103042
104023
105624
107869
94453.3
94143.4
94000.9
93709.7
93683.7
93144.3
92366.3
91659
91198.6
90973.6
90618.2
90322.2
89952.8
89710.8
89558.4
89479.9
89547.2
89790.3
90391.2
91622.3
93599.4
96594.9
97031.1
97391.6
98249.4
100383
102308
103598
105468
108011
95318.2
95083.8
94924.2
94387.7
94095.5
93528.6
93164.7
92527.3
92021.9
91404.2
90716
90256.3
89684.1
89258.4
88976.8
88711.6
88742.8
88892.8
89317.3
90278
92247.9
95407.4
95931
96313.1
97179.1
99320.2
101406
102920
105016
108022
96168.1
95809.4
95590.3
95029.7
94507.8
93915
93711.8
93140.9
92421.1
91604
90747.5
90070.9
89302
88681.8
88310.2
87881.4
87875.3
87959.6
88266.6
89013
90600.1
93829.1
94652.1
95104.9
96036.3
98161.7
100322
102034
104339
107370
96411
96127.6
95921.8
95454.7
94967.2
94423.1
93987.5
93428.7
92595.7
91674.1
90749.7
89827.7
88857.7
88041.9
87594.8
87047.5
86868.9
86934.5
87176
87778.9
89104.5
91802.1
93308
93804.1
94824.8
96820.8
98971.2
101091
103216
106513
96415.2
96257.9
96079.3
95666.5
95221.7
94654.3
94106.4
93540
92646.2
91683.1
90628.8
89480
88332.3
87351.6
86827.5
86211.1
85821.2
85861
86026.9
86486.9
87566.5
89826.3
91905.9
92417.1
93479.7
95298.9
97591.3
99816.9
102104
105187
96380.5
96332.7
96157.7
95773.8
95359.6
94758.3
94143.2
93565.4
92650.4
91603.6
90441.5
89114.3
87788
86662.4
86047.9
85371.7
84801.7
84815.8
84918.3
85247.8
86093.3
87903.2
90362.1
90959
91969.3
93698
96044.4
98299.5
100240
103642
96436.6
96391.5
96233.4
95837.9
95410.5
94798.3
94148.7
93565.4
92529.6
91338.4
90119.2
88686
87222.7
85982.9
85272.4
84555.4
83803.1
83783.2
83837.4
84057.9
84703
86123.6
88682.9
89394.6
90334.3
92081.6
94376.4
96641.4
98769.1
101993
96437
96382.6
96244.2
95846.8
95433.2
94813.5
94058.4
93389.9
92238.9
91029.2
89740.4
88227.7
86657.8
85328.1
84521.1
83758.6
82876.9
82726.4
82760.4
82915.3
83401.7
84527.7
86897.1
87727.1
88658.2
90395.7
92557.3
94691.7
96789.2
99762.5
96435.9
96358.1
96240.2
95842.9
95439.3
94819
93940.9
93023
91883.7
90616
89296.6
87747
86106.5
84709.4
83808.3
83004.2
81992.8
81674.4
81690.6
81791.5
82172
83118.1
85070
85999.3
86983.3
88672.6
90773.5
92945.8
94872.9
97786.9
96609.4
96360.7
96205.2
95824.8
95442.2
94873.6
93883.7
92500.5
91325.6
90068.5
88747.5
87205.4
85539.5
84107.6
83127.4
82284.6
81145.4
80646.1
80646.1
80705.8
80994.2
81760.6
83377.9
84290.2
85300.4
86963.4
88781.4
90997.7
92567.6
94994.2
96731.2
96621.7
96495.9
96265
95875.4
94974
93864.1
92227.8
90753.2
89390.4
88052.4
86550.2
84909.6
83485.8
82473.7
81564.9
80314.8
79660
79626.3
79666.9
79884.3
80493.5
81799
82636.4
83677.7
85273.9
87090.9
89101.7
90419
92679
96801.1
96738.6
96635.8
96516.1
96063.9
95078.4
93859.2
92088.7
90297.8
88719
87300.8
85818.4
84220.6
82850.5
81830.6
80872
79507.4
78735.6
78648.5
78678.4
78843.2
79312.4
80319.1
81065.6
82158.1
83702.3
85381.8
87138.6
87935.8
89168.5
96824.7
96781.4
96688
96595
96127.6
95109.4
93775.9
91863.2
89887.6
88115.3
86578.3
85062.6
83475.1
82179
81193.7
80187.2
78712.3
77886.8
77736.5
77752.7
77860.9
78193.2
78936
79598.4
80726.9
82201.7
83904.2
85655.5
85833.4
87008.8
96647
96694.7
96641.7
96583.8
96072.8
94868.4
93246.5
91447.2
89444.7
87564.3
85884.5
84208.3
82483.6
81337.7
80462.5
79424.5
77964.6
77139.5
76893.9
76884.7
76931.8
77132.1
77626.1
78329.8
79636.3
81083.4
82688.6
84555.7
83445.3
78655.6
322625
324302
326548
328359
330233
331931
333686
335400
337106
338793
340469
342125
343744
345310
346800
348210
349502
350682
351746
352814
353663
354078
354246
354287
354289
354161
353844
353329
352631
351758
350708
349489
348114
346587
344907
343075
341089
338948
336654
334209
331611
328851
325903
322799
319510
316070
312734
308546
304606
300438
296096
291610
286952
282084
277067
271885
266562
261090
255493
249782
243979
238105
232179
226224
220260
214312
208398
202543
196771
191098
185542
180133
174893
169827
164955
160276
155820
151599
147621
143882
140387
137137
134128
131365
128841
126508
124358
122322
120304
118507
117176
116020
114735
113464
112241
111056
109899
108784
107676
106574
105470
104361
103302
102268
101375
100542
99868.7
99296.7
98738.2
98291.8
97901.6
97550.7
97333.7
96947
96617.5
96595.8
96596.7
96600.8
96606.1
96606.6
96585
96540
96535.6
96537.3
96563.9
324806
325317
327261
329024
330768
332415
334057
335655
337234
338794
340338
341856
343337
344766
346131
347406
348566
349611
350679
351711
352214
352421
352481
352489
352363
352047
351560
350904
350080
349088
347932
346618
345148
343521
341734
339789
337683
335419
332996
330417
327681
324786
321727
318497
315108
311578
307885
303948
299883
295651
291258
286786
282239
277058
272116
266963
261697
256308
250795
245167
239464
233716
227933
222142
216357
210600
204888
199243
193682
188224
182886
177693
172644
167755
163053
158573
154340
150327
146508
142906
139532
136401
133515
130856
128386
126119
124046
122101
120283
118665
117137
115815
114542
113289
112069
110877
109708
108573
107444
106318
105185
104051
102949
101888
100951
100095
99396.4
98822.2
98313.9
97895.3
97541
97208.8
96900.3
96617.4
96418.7
96402.1
96402.4
96406.1
96426.3
96481.9
96598.5
96664.7
96659.4
96636.5
96650.5
325678
325628
327284
329047
330754
332389
333996
335562
337093
338604
340094
341559
342987
344365
345668
346873
347970
348988
350046
350769
351109
351239
351271
351267
350984
350542
349946
349206
348312
347264
346062
344707
343195
341524
339691
337694
335535
333214
330736
328102
325315
322376
319283
316024
312616
309061
305345
301426
297348
293110
288723
284208
279554
274715
269719
264597
259406
253749
248196
242634
237015
231373
225682
219979
214271
208590
202950
197395
191929
186571
181332
176235
171297
166531
161948
157562
153333
149294
145569
142093
138835
135767
132920
130300
127889
125669
123634
121737
119970
118344
116837
115453
114131
112846
111584
110348
109142
107979
106848
105717
104572
103453
102366
101316
100366
99505.9
98781.1
98188.9
97690
97268.5
96897.5
96559.4
96276.4
96026.5
95897.3
95894.1
95895.2
95907
95956
96081.6
96346.8
96585.8
96584.4
96572.2
96587
325722
325623
327113
328908
330607
332245
333850
335420
336962
338480
339974
341435
342844
344196
345470
346642
347693
348704
349678
350158
350374
350454
350473
350407
350041
349539
348897
348116
347193
346124
344905
343531
341997
340298
338429
336390
334181
331808
329275
326588
323750
320769
317643
314357
310921
307334
303579
299652
295562
291315
286915
282366
277659
272789
267768
262612
257341
251945
246437
240855
235248
229592
223419
217836
212183
206575
201000
195497
190057
184715
179490
174422
169519
164791
160250
155913
151789
147899
144169
140681
137545
134663
131976
129465
127126
124950
122928
121049
119305
117676
116159
114723
113353
112026
110737
109474
108235
107029
105852
104696
103550
102354
101146
100087
99173.8
98327.6
97577.4
96943.3
96423.2
95994.9
95641.4
95342.2
95126.5
94934.6
94866.3
94867.8
94875.5
94901.7
94979.3
95160.2
95536.7
95874.3
96004.9
96071.7
96229
325265
325179
326617
328505
330217
331885
333520
335122
336697
338244
339758
341230
342642
343980
345225
346376
347469
348545
349219
349548
349694
349748
349759
349613
349224
348699
348044
347255
346325
345249
344020
342631
341072
339340
337427
335328
333046
330591
327975
325208
322300
319263
316097
312776
309300
305681
301903
297966
293879
289644
285261
280727
276035
271184
266176
261018
255723
250301
244787
239204
233579
227921
222226
216529
210876
205322
199202
193757
188375
183102
177935
172914
168030
163312
158779
154463
150370
146515
142905
139543
136331
133356
130737
128349
126139
124086
122175
120377
118675
117053
115502
114009
112570
111179
109830
108518
107242
105996
104778
103566
102364
101179
100040
98999.5
98025.7
97074.5
96269.5
95643.3
95111.7
94662.5
94301.4
94011.1
93807.8
93646.1
93572.5
93573.1
93581.4
93610.8
93694.2
93884.5
94277.2
94658.9
95005
95160.6
95453.2
324222
324132
325778
327777
329545
331272
332962
334614
336234
337818
339358
340837
342239
343549
344759
345886
346966
347973
348510
348768
348879
348916
348923
348694
348319
347799
347146
346358
345421
344335
343093
341685
340097
338322
336347
334157
331757
329168
326418
323526
320511
317387
314143
310732
307168
303471
299632
295659
291556
287328
282966
278467
273829
269043
264103
259007
253772
248410
242949
237404
231787
226117
220424
214741
209090
203492
197942
192433
187023
181778
176072
171100
166290
161650
157172
152906
148849
145027
141467
138179
135152
132374
129705
127224
125060
123099
121256
119503
117832
116241
114723
113267
111848
110454
109077
107710
106353
105014
103707
102434
101201
100012
98871.1
97789.1
96772.7
95829.8
95017.4
94320.4
93729
93228.7
92830.5
92524
92311.4
92167.9
92112.2
92113
92122.6
92155.8
92244.4
92449.8
92879.6
93302
93679.2
93891.5
94212.2
322640
322565
324695
326760
328600
330391
332131
333827
335484
337091
338633
340093
341455
342710
343866
344944
345950
346803
347354
347630
347760
347808
347814
347537
347132
346602
345943
345141
344185
343083
341833
340424
338806
336975
334912
332580
329997
327210
324286
321250
318089
314812
311391
307788
304078
300286
296396
292431
288370
284207
279918
275495
270928
266193
261289
256210
251019
245741
240405
235008
229537
223992
218403
212794