/*--------------------------------*- C++ -*----------------------------------*\
| =========                 |                                                 |
| \\      /  F ield         | OpenFOAM: The Open Source CFD Toolbox           |
|  \\    /   O peration     | Version:  2112                                  |
|   \\  /    A nd           | Website:  www.openfoam.com                      |
|    \\/     M anipulation  |                                                 |
\*---------------------------------------------------------------------------*/
FoamFile
{
    version     2.0;
    format      ascii;
    arch        "LSB;label=32;scalar=64";
    class       volVectorField;
    location    "0.00091";
    object      U;
}
// * * * * * * * * * * * * * * * * * * * * * * * * * * * * * * * * * * * * * //

dimensions      [0 1 -1 0 0 0 0];

internalField   nonuniform List<vector> 
13875
(
(2204.34 109.741 1.81217e-18)
(2142.74 5.70347 -9.38264e-19)
(2170.08 -2.19883 -9.41121e-19)
(2168.09 -1.19221 0)
(2170.69 -0.0553932 0)
(2169.77 -0.350204 9.35792e-19)
(2170.19 -0.395738 -9.35895e-19)
(2169.98 -0.182253 -4.68095e-19)
(2169.91 -0.372053 4.67712e-19)
(2169.15 0.0181392 0)
(2169.21 -0.482233 -3.86536e-22)
(2169.37 -1.11662 -3.87514e-22)
(2169.44 -0.116703 0)
(2169.23 -0.077614 -4.68313e-19)
(2169.74 -0.103669 4.6852e-19)
(2169.59 1.12922 0)
(2169.7 1.22368 9.36449e-19)
(2169.96 0.249126 -9.36708e-19)
(2170.36 0.395142 3.85119e-22)
(2169.83 0.319198 -3.8532e-22)
(2170.84 -0.0369612 -9.36012e-19)
(2167.54 0.523681 9.37244e-19)
(2170.81 2.48953 -1.87895e-18)
(2143.34 -8.58156 1.91721e-18)
(2209.42 -106.849 1.76702e-18)
(2253.5 91.8901 -1.63192e-18)
(2228.58 -1.15367 1.8835e-18)
(2247.26 0.722195 8.71983e-19)
(2245.55 1.32484 -8.67185e-19)
(2248.39 -0.532868 4.16429e-22)
(2248.3 0.475954 5.20125e-22)
(2248.54 0.610827 4.15523e-22)
(2248.29 0.450447 -4.33833e-19)
(2248.15 1.06315 4.3369e-19)
(2247.17 0.330232 2.16609e-19)
(2247.41 0.332802 -1.62663e-19)
(2246.07 1.36133 -5.2888e-20)
(2245.18 -0.030159 0)
(2244.85 -0.145993 -4.36561e-19)
(2245.31 0.022092 4.35516e-19)
(2245.63 -1.43004 4.33299e-19)
(2247.6 -1.78864 -4.36376e-19)
(2248.15 -0.56262 5.20297e-22)
(2248.64 -0.446798 -5.19869e-22)
(2248.21 -0.459668 5.20009e-22)
(2248.59 0.822863 -8.7127e-19)
(2245.15 -0.858172 2.60115e-18)
(2247.18 -1.5527 -1.74282e-18)
(2228.34 3.9683 5.4286e-22)
(2255.75 -96.4688 -1.70996e-18)
(2252.54 78.0832 0)
(2236.56 -18.1228 0)
(2249.28 4.47098 0)
(2250.84 -1.92201 0)
(2254.11 -3.17732 -1.65872e-18)
(2254.16 -0.964847 1.64287e-18)
(2254.78 -0.248468 1.63769e-18)
(2254.9 0.168424 -2.45688e-18)
(2254.86 0.765742 8.18704e-19)
(2254.88 0.401045 4.29437e-22)
(2254.34 1.04244 -4.27242e-19)
(2254.31 1.95075 4.29749e-19)
(2253.94 1.27916 0)
(2252.98 -0.0461205 0)
(2254.15 -0.833087 4.30814e-22)
(2254.18 -2.08125 0)
(2254.3 -2.04357 8.00315e-22)
(2254.41 -0.648324 4.09745e-19)
(2254.68 0.108471 -4.09497e-19)
(2253.9 0.898628 0)
(2254.17 3.36581 0)
(2250.13 1.56181 0)
(2250 -4.47378 0)
(2236.86 14.0254 0)
(2255.84 -73.6129 0)
(2247.84 51.3655 0)
(2235.05 -28.4379 1.81467e-18)
(2249.07 7.22567 -3.41753e-18)
(2251.59 -4.92207 3.46585e-18)
(2253.74 -4.00301 -1.66164e-18)
(2253.99 -1.3607 0)
(2254.69 -0.478281 -7.92754e-22)
(2254.88 0.0919391 0)
(2254.84 0.695079 0)
(2254.9 0.693459 0)
(2254.32 1.3052 0)
(2254.33 1.91429 -8.02272e-22)
(2254.19 1.40753 -5.13439e-20)
(2253.93 -0.135169 5.13323e-20)
(2254.56 -1.26358 0)
(2254.57 -1.83874 0)
(2254.3 -1.94577 7.89998e-22)
(2254.36 -0.680052 -8.06446e-19)
(2254.59 0.256578 8.08924e-19)
(2253.73 1.27931 -1.62612e-18)
(2253.84 4.12028 1.6457e-18)
(2251.33 5.14576 1.74313e-18)
(2249.18 -8.30157 -1.72068e-18)
(2234.52 31.4078 0)
(2249.8 -59.4327 0)
(2245.02 39.3686 1.74896e-18)
(2235.6 -47.5793 0)
(2248.49 10.4448 0)
(2250.62 -8.31745 0)
(2254.13 -5.68924 0)
(2254.15 -2.30745 1.65944e-21)
(2254.76 -1.04536 1.65999e-21)
(2254.85 -0.134731 4.22953e-19)
(2254.74 0.565825 -4.20689e-19)
(2254.7 0.789451 2.12999e-19)
(2254.27 1.48674 -2.16096e-19)
(2254.23 1.86733 0)
(2254.09 1.41646 0)
(2253.89 -0.150159 -1.59065e-21)
(2254.45 -1.36503 0)
(2254.49 -1.58256 -1.65078e-21)
(2254.3 -1.65818 8.4527e-19)
(2254.27 -0.638005 -8.26994e-19)
(2254.57 0.689979 1.68453e-18)
(2253.9 2.20931 -1.69071e-18)
(2254.1 5.7995 1.67008e-21)
(2249.82 7.61889 0)
(2249.13 -10.6185 0)
(2235.57 42.7823 0)
(2248.28 -34.8358 0)
(2241.49 6.89672 0)
(2231.47 -63.1679 9.12833e-19)
(2246.88 12.1851 -8.48416e-19)
(2251.08 -11.8257 0)
(2252.93 -6.63326 8.61184e-19)
(2253.33 -2.95253 -4.31747e-19)
(2254.28 -1.38649 -2.77359e-21)
(2254.61 -0.227205 -2.13284e-19)
(2254.54 0.603285 -4.23126e-19)
(2254.54 1.13419 1.61869e-19)
(2254.11 1.86703 1.64867e-21)
(2254.08 1.93745 2.63715e-19)
(2253.86 1.54831 -2.12913e-19)
(2253.81 -0.219793 3.31095e-21)
(2254.21 -1.65329 -4.24832e-19)
(2254.24 -1.57434 4.23893e-19)
(2254.08 -1.5518 1.67069e-21)
(2254 -0.676238 -1.62623e-21)
(2254.13 0.876111 -1.6453e-21)
(2253.14 2.7524 -8.53293e-19)
(2252.94 6.50228 8.55686e-19)
(2250.7 12.4836 0)
(2246.53 -13.9879 0)
(2230.82 65.3163 -1.93586e-18)
(2243.57 -19.9561 -1.26567e-19)
(2254.58 3.06864 -4.95417e-20)
(2227.51 -78.8854 6.0231e-20)
(2242.59 12.1451 0)
(2248.95 -16.8014 -2.69133e-23)
(2252.52 -9.03835 -2.62405e-23)
(2253.1 -4.73653 0)
(2253.98 -2.45379 0)
(2254.25 -0.696577 -8.39302e-19)
(2254.14 0.411003 8.38527e-19)
(2254.1 1.17019 0)
(2253.72 1.87656 1.70519e-18)
(2253.74 1.8995 8.91281e-22)
(2253.44 1.49575 -1.72811e-18)
(2253.57 -0.35195 -1.67859e-21)
(2253.8 -1.59206 0)
(2253.83 -1.25422 3.38595e-18)
(2253.71 -1.10254 3.26057e-21)
(2253.64 -0.255722 -6.68763e-18)
(2253.78 1.88932 3.36583e-18)
(2252.88 4.66203 2.59791e-23)
(2252.32 9.08374 0)
(2247.42 14.9588 3.53624e-18)
(2242.95 -11.218 -3.32747e-18)
(2226.84 72.8791 3.82204e-18)
(2244.23 2.58821 -3.19874e-18)
(2217.33 -22.6687 -3.15911e-19)
(2214.18 -86.9321 -7.50575e-18)
(2234.78 3.39116 8.74324e-22)
(2245.99 -23.4855 2.61436e-23)
(2248.69 -11.1441 -8.11721e-22)
(2250.64 -5.95284 0)
(2252.36 -2.96717 -3.36432e-18)
(2253.12 -0.734429 3.34855e-18)
(2253.22 0.699412 0)
(2253.31 1.68006 -8.31762e-22)
(2252.99 2.23953 -8.36908e-22)
(2253.07 2.15399 0)
(2252.73 1.35646 0)
(2253 -0.736083 -1.63694e-21)
(2253.02 -1.87906 -8.37516e-22)
(2253 -1.44517 2.57991e-23)
(2252.84 -1.17844 -8.53915e-22)
(2252.54 -0.250653 -2.5517e-23)
(2252.19 2.36142 -1.69066e-18)
(2250.47 5.84992 -1.60597e-20)
(2248.78 11.1669 1.70011e-18)
(2245.02 22.0134 8.89486e-22)
(2235.09 -3.10127 3.47326e-18)
(2213.63 81.378 -3.5497e-18)
(2217.66 17.963 2.51218e-23)
(2108.54 -37.9734 9.41941e-19)
(2166.96 -98.1559 0)
(2215.49 -20.568 -8.32104e-22)
(2234.64 -33.4674 -8.65116e-19)
(2244.97 -20.1648 1.71206e-18)
(2248.41 -11.3081 -1.7071e-18)
(2250.45 -6.07182 7.88831e-21)
(2251.38 -2.54527 8.43919e-19)
(2251.6 -0.26215 0)
(2251.8 1.31438 -8.51773e-19)
(2251.54 1.99952 8.58393e-19)
(2251.64 2.13358 0)
(2251.31 1.24748 0)
(2251.68 -0.692436 2.081e-21)
(2251.59 -1.43992 8.32375e-22)
(2251.47 -0.760082 8.52654e-19)
(2251.27 -0.212574 -8.47429e-19)
(2250.86 1.31509 0)
(2250.27 5.2178 8.55216e-19)
(2248.15 10.8776 -1.7091e-18)
(2244.6 18.6061 8.51072e-19)
(2233.68 31.6058 -8.40829e-22)
(2215.63 18.4265 0)
(2166.42 93.8972 0)
(2107.16 35.7167 0)
(1858.25 -144.065 -6.66586e-17)
(2119.21 -161.142 8.53636e-17)
(2193.92 -56.1867 0)
(2225.33 -57.8292 -2.97418e-17)
(2236.8 -24.2262 3.0977e-17)
(2243.06 -13.2467 0)
(2246.34 -6.57555 -3.01902e-20)
(2247.72 -2.04014 -1.47647e-17)
(2248.3 0.486129 1.47774e-17)
(2248.58 1.97139 -2.98027e-20)
(2248.43 2.21106 0)
(2248.63 2.19417 -3.72726e-18)
(2248.35 1.045 5.58355e-18)
(2248.74 -1.09712 -1.89036e-18)
(2248.49 -1.57136 -2.95029e-20)
(2248.21 -1.12379 0)
(2247.86 -0.522036 0)
(2247.13 1.15871 -2.96227e-17)
(2246.04 5.95024 2.95941e-17)
(2242.43 13.0748 -3.03248e-17)
(2236.9 24.685 2.96137e-17)
(2224.15 57.4432 3.24974e-17)
(2192.94 56.6198 -2.94224e-17)
(2117.8 163.166 -8.49314e-17)
(1861.34 141.206 -1.28443e-17)
(1639.71 -227.2 -9.17966e-17)
(2004.44 -311.562 1.37639e-16)
(2141.74 -117.292 0)
(2199.42 -66.2047 6.86504e-17)
(2225.09 -33.2733 -7.2295e-17)
(2233.71 -19.9509 -3.35343e-17)
(2238.43 -9.75196 3.44152e-17)
(2240.34 -4.4675 -3.37562e-17)
(2241.36 -0.675769 3.39568e-17)
(2241.8 1.06515 3.24623e-20)
(2241.76 1.62629 0)
(2242.12 1.73342 -2.12566e-18)
(2241.88 1.01967 2.16965e-18)
(2242.16 -0.540406 3.26132e-20)
(2241.82 -0.509284 3.24747e-20)
(2241.36 0.255006 3.45373e-20)
(2240.85 1.33421 0)
(2239.74 3.64212 0)
(2238.07 8.73068 -6.90485e-17)
(2232.97 19.492 6.73876e-17)
(2224.15 31.1595 -7.30672e-17)
(2200.74 63.8903 1.4804e-16)
(2141 111.991 -7.03847e-17)
(2004.51 307.24 -3.83976e-20)
(1671.23 212.754 8.95304e-20)
(1246.81 -558.263 -1.15115e-16)
(1728.79 -582.629 1.18693e-16)
(1915.84 -157.981 2.50943e-16)
(2138.07 -124.688 -1.00108e-16)
(2190.9 -43.1443 0)
(2207.17 -16.3778 7.55874e-17)
(2218.36 -6.98407 -7.7297e-17)
(2221.96 -0.964642 0)
(2224.31 1.20687 3.50905e-20)
(2225.12 1.85243 0)
(2225.3 1.45019 0)
(2225.78 1.14755 0)
(2225.5 0.943388 4.73861e-18)
(2225.48 -0.51452 -4.74221e-18)
(2225.02 -0.725446 -4.0842e-20)
(2224.27 -0.70759 -3.57921e-20)
(2223.3 -0.119636 0)
(2220.88 1.08567 0)
(2217.38 6.50717 0)
(2204.95 15.3248 -7.99617e-17)
(2189.63 44.5596 1.6364e-16)
(2138.19 117.9 -7.58915e-17)
(1900.49 142.858 -1.54063e-16)
(1696.89 592.36 1.08408e-16)
(1263.48 539.726 -6.03344e-20)
(1238.84 -660.786 1.71037e-16)
(1164.5 -949.108 0)
(1290.97 -721.248 0)
(1828.08 -230.433 -1.14986e-16)
(2079.19 -87.249 1.27093e-16)
(2140.28 -60 0)
(2156.3 -29.1401 1.44425e-20)
(2166.1 -16.4808 4.41441e-17)
(2171.36 -6.98136 -4.45559e-17)
(2172.8 -2.69915 0)
(2172.68 -0.721854 -1.11166e-17)
(2172.92 0.449295 1.11364e-17)
(2172.15 1.67651 -5.5587e-18)
(2171.74 2.06635 5.56786e-18)
(2170.7 3.10783 3.98538e-20)
(2169.71 5.18565 -4.47383e-17)
(2167.82 8.94505 8.9216e-17)
(2162.8 17.2794 1.18998e-18)
(2152.4 29.9428 -4.42556e-17)
(2135.03 63.6239 -9.92551e-17)
(2057.83 76.7271 9.24218e-17)
(1861.46 245.767 8.23539e-20)
(1241.15 735.545 2.25086e-20)
(1165.86 919.83 1.86086e-16)
(1257.37 651.86 1.38709e-17)
(1297.13 -680.187 0)
(1174.16 -964.969 0)
(1162.28 -757.718 0)
(1054.3 -862.217 0)
(1878.04 -310.176 0)
(1861.35 -18.6873 1.31957e-16)
(1907.03 25.7364 -1.35332e-16)
(1952.81 25.9689 2.06972e-19)
(1973.1 12.7643 -1.17944e-20)
(1980.3 6.62786 2.92788e-17)
(1975.95 3.13178 -2.97308e-17)
(1976 0.820242 -4.05112e-19)
(1972.39 1.29014 -9.34573e-19)
(1972.06 -1.13509 1.12118e-18)
(1966.91 -3.28869 -3.01013e-17)
(1966.75 -5.65683 2.97841e-17)
(1959.07 -8.75574 1.89983e-19)
(1941.52 -17.7301 0)
(1887.68 -17.0002 0)
(1855.61 45.6857 0)
(1776.44 409.379 -2.31854e-16)
(1127.4 826.007 -4.29998e-17)
(1145.86 766.975 1.77936e-16)
(1178.57 904.081 2.09889e-20)
(1295.77 692.487 2.10356e-20)
(1382.88 -663.153 0)
(1243.56 -878.348 4.18183e-20)
(1212.2 -735.436 0)
(1094.45 -819.82 -1.81467e-16)
(1183.31 -679.42 3.5026e-16)
(1009.44 -561.672 -2.29465e-16)
(1040 -496.396 0)
(1247.77 -264.533 -1.6101e-19)
(1223 -123.439 0)
(1245.66 -36.2279 0)
(1167.47 -13.034 -3.08426e-17)
(1175.83 5.4088 3.14871e-17)
(1151.47 10.2865 3.13583e-17)
(1169.99 19.7088 -3.13533e-17)
(1132.22 35.1523 0)
(1178.11 49.5932 -1.24733e-16)
(1156.94 116.287 1.22344e-16)
(1225.7 226.38 1.22275e-16)
(1065.31 501.922 -1.10848e-16)
(985.175 529.607 0)
(1158.15 709.686 0)
(1134.6 791.126 -1.74192e-19)
(1190.84 739.6 -1.79084e-16)
(1242.34 838.166 3.81303e-16)
(1359.05 687.39 -1.72487e-16)
(1457.36 -646.735 -1.76814e-16)
(1344.3 -789.276 1.92774e-16)
(1265.41 -618.778 0)
(1139.78 -611.759 -2.42378e-16)
(1161.24 -529.523 -4.21612e-17)
(934.639 -398.228 3.49877e-16)
(480.794 -74.4482 -2.53675e-16)
(407.47 -86.3125 1.34597e-16)
(234.416 15.469 0)
(198.486 -4.94072 0)
(99.729 19.602 -4.43851e-20)
(116.555 8.26025 1.58234e-19)
(91.1361 10.3894 0)
(118.158 11.9625 0)
(94.2372 4.16034 6.74779e-17)
(156.611 17.5959 -6.8448e-17)
(176.86 0.677939 -1.35097e-16)
(380.565 74.8967 2.73883e-16)
(456.328 70.5528 -8.82409e-18)
(875.281 336.971 -1.32098e-16)
(1146.1 541.336 0)
(1168.57 613.454 0)
(1233.83 620.067 -1.97302e-16)
(1298.76 778.086 2.20896e-16)
(1435.54 675.417 -4.53357e-20)
(1561.72 -560.531 1.69786e-16)
(1481.65 -581.916 -9.7732e-20)
(1441.66 -418.326 1.08867e-16)
(1280.32 -325.632 -1.01533e-16)
(1215.42 -231.666 -5.13665e-20)
(972.354 -124.162 1.2293e-19)
(623.02 -31.0902 1.28262e-16)
(558.177 -130.454 -2.01119e-16)
(478.345 -58.8294 6.78478e-17)
(472.483 -78.7096 0)
(460.436 -43.835 -3.2957e-17)
(469.401 -25.4622 3.33241e-17)
(469.002 -4.76119 0)
(472.06 14.5772 5.94375e-20)
(465.424 29.7649 -3.35112e-17)
(465.834 65.9166 3.31376e-17)
(461.005 74.4045 0)
(535.658 117.453 -1.35189e-16)
(576.352 65.208 1.29523e-16)
(930.214 124.305 1.16063e-16)
(1230.79 244.226 -2.19391e-16)
(1318.43 330.258 1.17569e-16)
(1398.34 433.002 0)
(1476.78 616.2 1.78553e-16)
(1557.3 604.688 -1.32488e-17)
(1693.99 -398.714 -6.78389e-18)
(1586.71 -210.019 9.8174e-17)
(1419.61 -151.178 -4.54052e-17)
(1313.19 -32.3135 -5.73956e-17)
(1310.71 -82.2148 7.96758e-17)
(1117.17 -151.63 -5.7838e-17)
(912.827 -156.666 6.25891e-17)
(887.718 -162.534 -6.3656e-17)
(839.59 -110.255 -5.44858e-20)
(793.953 -99.8583 3.23286e-17)
(763.969 -57.5151 1.60125e-17)
(760.238 -33.8331 -9.84108e-20)
(751.693 -2.56712 -1.61082e-17)
(756.782 26.8708 -6.21316e-20)
(760.217 51.6128 -7.7439e-20)
(780.496 93.1146 -2.02486e-18)
(821.391 123.584 6.82083e-21)
(896.729 165.337 5.98294e-18)
(935.988 170.563 -3.848e-18)
(1155.47 141.252 0)
(1324.38 97.3791 1.27862e-17)
(1362.38 71.236 -3.87117e-17)
(1422.22 121.741 4.91996e-17)
(1595.11 244.752 -6.95255e-17)
(1687.54 435.624 6.44472e-17)
(1792.46 -272.441 -1.06206e-19)
(1739.87 58.874 -1.414e-19)
(1590.32 113.296 1.65427e-19)
(1448.94 9.45965 -7.20221e-21)
(1451.89 -48.3096 -1.70342e-19)
(1377.23 -107.716 -1.97292e-19)
(1178.24 -135.747 -7.9582e-21)
(1045.3 -135.357 0)
(978.909 -85.9652 0)
(928.469 -74.3016 6.45554e-17)
(892.873 -46.1405 -6.40657e-17)
(880.891 -28.9323 -8.23171e-21)
(869.463 -3.19059 8.19574e-21)
(875.039 22.2048 -8.21899e-18)
(886.015 43.6005 8.03685e-18)
(910.245 72.1766 0)
(958.804 92.9343 0)
(1041.88 139.035 -6.1277e-17)
(1170.35 161.634 5.91787e-17)
(1400.45 119.326 -1.84148e-19)
(1489.31 68.6685 0)
(1501.99 8.13931 0)
(1563.16 -105.118 -1.68057e-19)
(1730.43 -69.9876 -1.44676e-19)
(1778.84 292.291 1.56014e-16)
(1767.91 189.451 -1.71753e-16)
(1696.37 395.41 -2.21599e-16)
(1665.41 361.302 1.43455e-16)
(1601.15 217.488 0)
(1588.67 69.2255 2.23141e-19)
(1538.97 -13.2313 1.07201e-16)
(1396.31 -38.2621 -2.18933e-16)
(1226.13 -62.5812 1.14623e-16)
(1113.32 -44.3679 -1.26533e-16)
(1045.16 -45.9147 1.2627e-16)
(1001.28 -28.7051 3.19478e-17)
(983.305 -18.3664 -3.96599e-17)
(970.162 -1.13859 -7.92298e-18)
(977.465 16.1937 1.60809e-17)
(996.225 29.0141 0)
(1033.45 47.4597 0)
(1105.79 52.7696 1.23296e-16)
(1229.18 69.383 -2.37904e-16)
(1406.19 55.4604 1.13193e-16)
(1568.79 13.6475 2.19612e-19)
(1622.49 -59.2814 1.85159e-16)
(1630.23 -192.158 -2.05978e-17)
(1650.28 -363.031 -4.96008e-16)
(1687.52 -418.98 5.63353e-16)
(1731.63 -257.25 -3.05642e-16)
(1485.02 566.49 1.11357e-19)
(1551.8 832.396 -1.96535e-16)
(1709.64 592.787 1.26553e-16)
(1695.02 374.563 0)
(1675.68 212.186 0)
(1635.04 118.305 0)
(1516.6 79.1413 0)
(1350.24 31.1331 0)
(1233.47 15.0653 -5.45044e-17)
(1155.71 -6.47166 1.10678e-16)
(1107.28 -4.34977 -8.35691e-17)
(1084.28 -5.14895 3.12212e-17)
(1069.8 0.309663 -3.47936e-18)
(1078.39 4.9541 1.29289e-20)
(1104.29 6.47808 -5.52584e-17)
(1151.21 9.87803 5.63374e-17)
(1236.83 -5.3568 0)
(1366.31 -27.3181 0)
(1540.88 -73.1019 -1.70958e-16)
(1667.35 -130.633 1.83264e-16)
(1703.91 -214.636 -1.65612e-19)
(1710.46 -364.728 6.98586e-20)
(1691.21 -616.65 -9.60694e-20)
(1553.21 -856.449 -7.11492e-20)
(1366.96 -733.499 0)
(1213.55 850.971 -1.82395e-16)
(1582.43 982.832 1.1754e-16)
(1762.64 748.795 -1.33515e-19)
(1747.52 527.939 1.52673e-16)
(1730.58 349.186 -1.31173e-16)
(1688.29 245.947 0)
(1593.71 192.904 -8.47147e-17)
(1455.16 116.532 8.25074e-17)
(1334.67 73.4362 -4.73841e-17)
(1256.89 35.932 9.641e-17)
(1205.68 21.8322 -4.80548e-17)
(1180.77 7.59419 1.78685e-19)
(1164.98 -1.19915 0)
(1176.1 -8.44557 2.41523e-17)
(1206.71 -21.6333 2.34471e-17)
(1259.62 -34.9149 -4.8835e-17)
(1347.47 -70.1892 -9.048e-17)
(1475.67 -124.241 8.91327e-17)
(1617.43 -199.735 -7.23704e-17)
(1719.38 -264.966 7.91319e-17)
(1746.53 -368.515 7.79354e-20)
(1752.67 -541.64 -7.77543e-20)
(1730.69 -775.942 0)
(1585.7 -949.831 6.55263e-20)
(1176.46 -845.956 0)
(1196.24 780.939 1.43409e-16)
(1618.68 947.449 -1.27031e-16)
(1790.47 817.295 5.12989e-20)
(1762.98 669.52 0)
(1750.73 496.596 0)
(1715.37 379.994 -7.52553e-21)
(1651.14 291.432 0)
(1527.03 197.857 8.03308e-20)
(1422.75 138.433 0)
(1345.29 79.0999 4.28451e-17)
(1297 50.5964 -6.37997e-17)
(1270.75 21.1866 3.17806e-17)
(1253.47 -0.980103 -1.06216e-17)
(1264.71 -21.8304 0)
(1297.6 -49.4939 0)
(1349.36 -78.5244 4.1138e-17)
(1433.06 -133.91 -1.20048e-16)
(1543.54 -204.723 7.80563e-17)
(1674.88 -298.261 -6.30649e-17)
(1742.26 -403.166 6.91034e-17)
(1767.47 -517.58 0)
(1765.4 -667.437 0)
(1755.93 -840.236 0)
(1620.31 -890.557 -7.18007e-21)
(1167.55 -775.845 -1.575e-16)
(1248.53 674.063 -2.77563e-20)
(1694.64 829.951 1.07716e-16)
(1770.08 850.291 -9.98546e-17)
(1770.61 735.215 0)
(1761.2 601.05 0)
(1739.64 477.65 7.75031e-21)
(1691.72 370.835 6.60902e-17)
(1586.78 261.872 -6.38867e-17)
(1490.05 184.79 3.28778e-20)
(1422.48 120.51 3.43647e-20)
(1377.34 74.8929 3.49002e-20)
(1351.06 35.0623 -1.00063e-20)
(1334.46 -1.3967 -9.98339e-21)
(1343.78 -34.4325 1.87931e-17)
(1376.88 -73.1214 -1.92306e-17)
(1425.8 -117.215 4.42855e-20)
(1501.69 -179.9 4.26338e-20)
(1602.57 -267.522 0)
(1711.43 -374.041 -5.67499e-17)
(1774.52 -493.788 6.16209e-17)
(1781.24 -623.935 0)
(1777.88 -730.552 -1.01172e-16)
(1740.35 -849.932 1.03264e-16)
(1680.35 -800.964 6.57104e-21)
(1263.49 -649.57 -1.48262e-16)
(1322.15 584.577 3.46768e-20)
(1726.39 755.418 0)
(1760.26 846.525 0)
(1772.79 778.848 -5.4441e-17)
(1773.91 670.526 4.80836e-17)
(1767.75 552.746 0)
(1730 431.34 6.06822e-17)
(1633.95 311.634 -5.88166e-17)
(1547.58 232.955 3.39325e-17)
(1492.06 153.585 -3.36228e-17)
(1449.92 99.3323 1.7597e-17)
(1425.45 45.7844 -1.74342e-17)
(1408.92 -0.144654 0)
(1418.99 -44.0813 -1.72239e-17)
(1450.59 -96.9622 1.76332e-17)
(1498.02 -153.229 -3.6066e-20)
(1560.62 -231.2 -3.47916e-20)
(1651.65 -322.127 5.64278e-20)
(1749.97 -439.919 5.21475e-17)
(1797.88 -570.299 -5.64752e-17)
(1792.9 -698.132 -4.73193e-20)
(1773.14 -780.295 -4.8509e-20)
(1733.28 -841.924 0)
(1702.64 -713.997 -5.33252e-20)
(1297.49 -552.157 3.46203e-20)
(1399.05 513.335 1.25183e-22)
(1745.54 684.303 0)
(1756.08 832.049 8.73119e-23)
(1773.63 791.734 4.503e-20)
(1783.48 716.449 -8.86425e-23)
(1788.97 602.97 -5.3232e-17)
(1759.53 481.167 4.92897e-17)
(1671.06 360.718 0)
(1604.14 267.564 -6.3112e-20)
(1549.39 182.896 -1.12626e-22)
(1515.79 119.573 -1.14347e-22)
(1493.77 57.1408 6.72112e-20)
(1478.23 0.723858 0)
(1486.48 -52.8144 0)
(1514.21 -115.325 -1.13632e-22)
(1551.77 -178.205 -1.12193e-22)
(1613.08 -261.085 -2.89237e-17)
(1684.49 -363.24 8.27143e-17)
(1777.24 -482.498 -5.46628e-17)
(1822.15 -610.339 0)
(1809.71 -730.014 -4.42848e-17)
(1784.74 -787.686 4.73788e-17)
(1730.23 -826.22 8.89449e-23)
(1705.95 -667.125 4.76259e-20)
(1375.18 -457.775 1.2673e-22)
(1411.54 416.895 6.72909e-18)
(1727.76 655.122 1.05126e-17)
(1751.39 807.12 9.28323e-17)
(1775.82 783.435 -4.37893e-17)
(1796.38 730.76 4.36016e-17)
(1810.51 630.368 -4.85953e-17)
(1782.69 514.936 4.60884e-17)
(1707.26 388.358 -2.70719e-17)
(1640.51 297.137 2.67643e-17)
(1603.71 208.443 1.17864e-22)
(1572.44 134.053 1.19974e-22)
(1553.09 66.5554 -1.20552e-22)
(1540.36 3.53733 7.29681e-18)
(1547.63 -57.9225 7.15041e-18)
(1573.27 -126.52 -1.48349e-17)
(1607.57 -202.325 1.17461e-22)
(1649.62 -289.323 5.35335e-17)
(1721.05 -389.781 -1.03279e-16)
(1798.35 -513.444 5.08691e-17)
(1842.07 -634.964 0)
(1826.94 -738.284 -8.49763e-23)
(1792.57 -779.974 8.23969e-23)
(1728.84 -792.744 -8.39116e-23)
(1682.51 -640.242 -1.02205e-16)
(1357.9 -400.961 1.2103e-16)
(1377.91 408.008 1.12663e-19)
(1702.16 626.385 0)
(1752.65 760.175 0)
(1786.6 765.694 4.14811e-20)
(1813.46 725.611 8.24489e-20)
(1831.79 638.689 0)
(1806.27 530.469 4.77401e-17)
(1733.81 412.278 -4.67531e-17)
(1690.8 318.327 4.72629e-20)
(1652.71 220.774 -4.93109e-20)
(1629.51 147.271 -1.37483e-17)
(1612.7 69.3932 1.36125e-17)
(1600.69 0.848971 3.51991e-18)
(1608.2 -66.8687 -3.42728e-18)
(1628.96 -144.988 1.33472e-17)
(1655.44 -218.727 -3.95478e-17)
(1697.57 -316.249 2.62106e-17)
(1745.96 -416.48 -5.01747e-20)
(1816.94 -536.518 4.20622e-20)
(1861.55 -648.079 -4.08243e-17)
(1845.81 -736.188 7.2668e-19)
(1809.1 -761.706 -1.89908e-18)
(1748.71 -732.406 4.2196e-17)
(1653.78 -607.62 4.87695e-20)
(1316.28 -414.372 5.58171e-20)
(1306.92 412.972 1.14384e-16)
(1678.08 585.992 -9.36638e-17)
(1770.8 680.853 0)
(1795.7 735.081 -4.01298e-17)
(1826.63 711.356 4.12606e-19)
(1849.96 643.707 4.03757e-17)
(1825.34 547.764 4.46291e-17)
(1764 431.408 -4.36761e-17)
(1725.99 336.63 -4.98675e-20)
(1699.24 244.993 -2.52842e-17)
(1679.78 158.542 1.20932e-17)
(1663.95 80.3253 1.25819e-17)
(1655.24 4.99165 -5.31344e-20)
(1660.43 -68.6452 0)
(1679.38 -148.013 0)
(1701.26 -234.679 0)
(1730.91 -326.466 4.97438e-20)
(1773.36 -424.359 1.04613e-20)
(1830.07 -537.1 -5.35593e-20)
(1875.78 -640.047 0)
(1858.67 -718.14 3.83442e-20)
(1822.45 -731.946 9.67351e-21)
(1773.29 -673.778 -5.11726e-20)
(1666.52 -571.769 -9.35245e-17)
(1275.88 -411.96 1.13269e-16)
(1276.39 390.482 5.4085e-17)
(1687.43 527.758 -8.75049e-17)
(1786.94 604.262 8.542e-17)
(1809.91 688.572 -4.20706e-17)
(1848.54 688.707 -3.7983e-17)
(1867.26 630.959 3.8875e-17)
(1837.15 541.909 2.08809e-17)
(1787.06 437.199 -2.07647e-17)
(1758.66 349.324 1.14235e-17)
(1739.7 250.108 -2.30635e-17)
(1720.75 167.19 1.75541e-17)
(1709.97 80.8184 -7.38713e-18)
(1701.92 2.57096 1.48367e-18)
(1707.56 -74.4169 -4.38888e-20)
(1720.32 -161.259 2.31712e-17)
(1742.62 -243.753 -2.36063e-17)
(1762.76 -345.175 4.18618e-20)
(1799.55 -434.98 4.13195e-17)
(1839.88 -540.085 -1.69159e-18)
(1889.71 -628.148 -3.86648e-17)
(1874.93 -694.425 0)
(1834.88 -692.473 4.12965e-17)
(1798.96 -604.412 -3.80977e-17)
(1670.7 -512.583 -9.4092e-17)
(1237.67 -374.664 -3.05479e-18)
(1264.37 340.514 -5.35379e-17)
(1703.93 443.571 4.59676e-17)
(1811.92 538.878 2.02282e-20)
(1823.16 645.864 -5.59514e-20)
(1862.08 660.035 1.85478e-20)
(1874.6 616.684 3.77793e-17)
(1853.64 531.106 -1.88671e-17)
(1807.32 439.087 -1.99788e-17)
(1798.73 352.266 4.34392e-20)
(1773.54 259.034 -4.53526e-20)
(1764.49 169.058 2.05613e-20)
(1752.25 82.9749 -2.07225e-20)
(1746.84 0.353415 0)
(1750.96 -80.6932 4.8436e-21)
(1764.44 -167.786 -1.08676e-17)
(1775.46 -256.195 1.1146e-17)
(1801.41 -353.029 -2.07302e-17)
(1817.99 -439.408 7.73162e-19)
(1854.34 -532.68 1.94602e-17)
(1891.51 -610.057 -5.46442e-20)
(1886.11 -667.359 -3.73891e-17)
(1850.09 -649.36 3.51779e-17)
(1813.55 -535.304 0)
(1689.64 -423.915 -4.60896e-17)
(1234.22 -344.469 5.30911e-17)
(1232.8 304.326 0)
(1708.12 367.459 -4.02347e-17)
(1788.29 452.107 4.35676e-17)
(1834.21 580.419 1.82794e-20)
(1869.14 630.224 1.76246e-20)
(1889.58 590.853 -3.61584e-17)
(1858.19 519.051 3.79801e-17)
(1837.87 439.525 1.95711e-17)
(1817.45 357.732 6.37228e-19)
(1812.27 264.693 -2.03093e-17)
(1795.89 175.046 -2.17237e-20)
(1788.07 86.3777 2.43351e-20)
(1783.39 2.31268 0)
(1787.24 -79.7397 4.36979e-20)
(1795.08 -169.04 -2.16951e-20)
(1813.77 -255.718 1.01857e-17)
(1820.11 -352.159 -1.03121e-17)
(1850.21 -433.912 -1.95886e-20)
(1862.56 -520.563 -2.09739e-20)
(1905.49 -580.168 1.77649e-20)
(1887.16 -630.261 -3.75272e-17)
(1858.06 -581.527 -7.31814e-18)
(1795.27 -462.652 3.52074e-17)
(1702.58 -365.666 0)
(1230.88 -302.273 5.41503e-17)
(1235.07 286.274 -1.06968e-16)
(1702.41 328.097 4.39752e-17)
(1772.73 379.312 3.49165e-17)
(1858.67 492.089 -4.27729e-17)
(1878.22 570.186 0)
(1895.76 565.129 -2.1708e-21)
(1873.98 498.474 0)
(1849.55 429.341 -2.35058e-21)
(1849.46 354.042 -2.43171e-21)
(1828.51 260.614 0)
(1825.88 174.981 0)
(1818.37 86.5014 -2.5763e-21)
(1815.11 -0.436682 0)
(1818.24 -84.489 0)
(1826.18 -174.839 -9.85923e-18)
(1831.23 -257.273 9.99137e-18)
(1851.86 -356.69 -2.45043e-21)
(1863.22 -427.544 -1.86749e-17)
(1879.03 -504.745 1.79212e-17)
(1911.46 -556.026 0)
(1892.25 -571.623 3.77303e-17)
(1874.45 -492.177 -7.56515e-17)
(1782.88 -380.483 7.62999e-17)
(1702.02 -330.498 2.87487e-18)
(1214.62 -284.525 -5.20342e-17)
(1263.77 267.552 1.27255e-20)
(1716.41 300.621 -1.00698e-20)
(1786.09 298.178 0)
(1851.34 410.492 0)
(1873.48 522.059 0)
(1899.33 526.225 8.35293e-21)
(1884.92 476.652 0)
(1871.75 415.697 -8.47839e-21)
(1866.79 341.919 0)
(1860.2 259.528 -8.76158e-21)
(1850.28 167.16 0)
(1842.43 82.3945 -2.39252e-18)
(1840.95 -2.25021 2.37611e-18)
(1842.47 -84.2782 0)
(1849.84 -170.998 9.43328e-18)
(1862.55 -256.824 -1.87591e-17)
(1869.16 -345.82 9.27428e-18)
(1884.8 -413.169 0)
(1896.75 -485.275 1.7776e-17)
(1916.4 -520.347 -1.64028e-17)
(1893.87 -513.503 3.80841e-17)
(1873.76 -412.547 -3.27223e-17)
(1802.05 -310.315 0)
(1709.75 -299.202 0)
(1233.35 -274.657 0)
(1262.6 259.237 -1.28321e-20)
(1732.31 284.105 1.00832e-20)
(1803.76 263.767 0)
(1823.64 329.175 0)
(1885.99 430.672 0)
(1908.91 482.605 -8.19508e-21)
(1894.58 451.273 0)
(1892.97 396.099 8.63075e-21)
(1883.24 331.994 0)
(1878.45 249.787 -9.01869e-18)
(1871.34 169.858 9.05411e-18)
(1865.98 83.7477 -8.57482e-21)
(1862.3 -0.53665 9.34337e-21)
(1866.08 -81.6789 8.57988e-21)
(1871.83 -170.689 0)
(1881.34 -244.879 0)
(1885.18 -336.261 9.03596e-21)
(1907.49 -392.261 -1.75338e-17)
(1906.14 -456.825 1.67414e-17)
(1922.98 -474.472 0)
(1902.59 -437.061 8.29642e-21)
(1852.54 -337.053 0)
(1816.58 -270.329 0)
(1726.47 -271.603 0)
(1253.72 -244.372 0)
(1269.42 239.166 -4.81412e-17)
(1734.2 271.383 4.11667e-17)
(1807.68 250.26 0)
(1823.78 247.382 -1.7967e-20)
(1893.44 342.393 0)
(1903.13 423.948 -1.5617e-17)
(1917.92 415.509 3.29047e-17)
(1896.46 374.426 -1.7208e-17)
(1908.97 312.496 -8.39739e-18)
(1892.99 242.321 8.67128e-18)
(1890.62 156.343 4.39196e-21)
(1882.61 78.3947 1.13452e-18)
(1882.63 -2.25186 -1.09125e-18)
(1882.05 -81.3115 8.7051e-18)
(1890.87 -161.821 -8.69604e-18)
(1895.21 -240.505 0)
(1910.89 -318.755 -1.61928e-20)
(1908.01 -369.791 0)
(1932.64 -424.803 0)
(1922.25 -424.886 -1.77657e-17)
(1910.33 -342.148 1.57308e-17)
(1847.89 -255.224 0)
(1817.94 -249.776 3.76135e-17)
(1718.05 -255.055 1.47831e-18)
(1242.87 -209.507 -9.47837e-17)
(1270.73 205.385 4.7693e-17)
(1731.01 256.496 1.91772e-20)
(1823.83 232.36 3.51222e-17)
(1825.1 169.896 -2.15901e-17)
(1867.72 271.292 -1.93822e-17)
(1908.56 356.335 0)
(1910.85 372.631 7.89314e-21)
(1922.19 343.802 1.56565e-17)
(1910.31 292.507 -1.68801e-17)
(1915.97 224.897 0)
(1901.33 151.541 0)
(1896.9 73.5524 -2.60136e-20)
(1894.02 -3.24471 3.27482e-20)
(1897.38 -78.2062 1.71046e-20)
(1902.5 -158.917 4.21973e-18)
(1918.91 -224.493 -4.12278e-18)
(1914.36 -300.606 8.71293e-21)
(1933.34 -341.447 1.67918e-17)
(1935.16 -377.932 -3.25905e-17)
(1931.45 -353.203 1.50128e-17)
(1897.38 -268.943 -1.61223e-20)
(1851.43 -180.64 0)
(1829.95 -234.084 1.77562e-20)
(1711.72 -243.256 4.07905e-17)
(1237.45 -192.57 -9.28996e-17)
(1244.35 166.035 -4.72434e-17)
(1717.89 228.786 -3.75577e-17)
(1841.52 217.173 3.68215e-17)
(1825.44 143.352 1.6756e-17)
(1846.57 179.28 -1.84788e-17)
(1904.67 279.671 0)
(1918.79 322.114 3.85136e-21)
(1920.35 303.872 -1.16986e-20)
(1932.33 270.385 7.76939e-18)
(1919.35 212.009 -1.62665e-17)
(1919.47 141.093 8.08182e-18)
(1912.06 71.5828 2.01267e-18)
(1909.98 -0.752622 -1.88894e-18)
(1912.22 -73.2102 1.8896e-18)
(1919.56 -144.653 -2.0071e-18)
(1920.84 -208.031 0)
(1935.36 -276.033 1.17724e-20)
(1931.86 -300.285 -3.89939e-21)
(1935.81 -332.402 -1.71619e-17)
(1933.91 -295.324 1.4752e-17)
(1879.2 -181.676 0)
(1858.61 -141.381 0)
(1850.49 -218.491 -4.22506e-21)
(1713.94 -224.771 -3.9921e-17)
(1235.66 -161.472 -9.90351e-19)
(1248.42 145.334 -2.27461e-17)
(1711.93 192.363 1.99227e-17)
(1841.47 193.69 4.28454e-21)
(1836.9 128.337 0)
(1847.62 118.697 1.49378e-17)
(1904.07 190.759 -1.86587e-17)
(1931.2 259.873 3.73739e-21)
(1920.68 265.443 3.80672e-21)
(1930.2 233.854 1.52237e-20)
(1934.38 192.503 -1.90985e-18)
(1923.13 129.179 1.01123e-18)
(1919.99 61.1491 1.91806e-18)
(1919.27 -2.63771 -9.81073e-19)
(1919.71 -65.6029 3.94098e-18)
(1924.89 -134.69 -3.90188e-18)
(1937.13 -191.495 0)
(1938.77 -242.153 1.13757e-20)
(1929.54 -266.052 -1.65478e-17)
(1953.4 -268.584 1.45108e-17)
(1923.52 -196.802 3.82897e-21)
(1875.35 -121.792 0)
(1869.01 -125.146 0)
(1856.8 -196.729 4.2583e-21)
(1703.22 -198.085 -3.9621e-17)
(1225.45 -150.879 4.54657e-17)
(1259.95 141.797 2.19141e-20)
(1706.29 156.202 0)
(1835.72 158.111 -8.43432e-21)
(1847.85 109.997 -1.64648e-17)
(1850.97 64.5179 1.72573e-17)
(1885.4 103.505 -1.44583e-17)
(1912.57 202.656 1.77022e-17)
(1936.4 219.479 -7.23509e-18)
(1925.54 204.808 8.03898e-18)
(1933.74 159.312 -3.72087e-18)
(1933.93 113.54 3.86679e-18)
(1926.54 58.7008 -1.8546e-18)
(1925.61 -2.14596 2.13178e-18)
(1927.93 -62.8504 -2.5028e-19)
(1935.1 -120.546 3.8619e-18)
(1938.24 -161.659 -7.65595e-18)
(1932.13 -209.039 -4.37082e-18)
(1946.89 -217.493 7.17697e-18)
(1931.31 -208.082 1.4996e-20)
(1915.41 -115.389 -8.2016e-21)
(1873.83 -73.3025 0)
(1868.95 -106.544 0)
(1852.09 -159.648 0)
(1700.04 -167.066 -1.96023e-17)
(1233.6 -155.792 2.21797e-17)
(1257.59 144.966 -2.6089e-21)
(1699.56 135.059 0)
(1824.52 126.473 1.0489e-20)
(1851.03 92.3101 -8.14655e-21)
(1848.32 39.9813 -8.06809e-21)
(1857.78 41.9942 0)
(1913.98 111.222 -7.2838e-21)
(1912.13 166.381 7.32597e-18)
(1940.34 164.5 -7.829e-18)
(1926.4 138.099 0)
(1934.07 92.0673 1.81095e-21)
(1935.06 47.8751 0)
(1933.3 -0.905568 0)
(1933.68 -50.3074 1.863e-18)
(1934.54 -96.2451 -1.8266e-18)
(1930.09 -138.481 -7.35891e-21)
(1944.64 -163.835 -1.82759e-21)
(1925.57 -171.249 7.40912e-21)
(1935.45 -129.756 -8.78842e-18)
(1883.9 -53.7196 7.05976e-18)
(1865.38 -38.2795 -1.68616e-17)
(1863.46 -90.0924 3.34022e-17)
(1838.47 -130.196 -1.65509e-17)