/*--------------------------------*- C++ -*----------------------------------*\
| =========                 |                                                 |
| \\      /  F ield         | OpenFOAM: The Open Source CFD Toolbox           |
|  \\    /   O peration     | Version:  2112                                  |
|   \\  /    A nd           | Website:  www.openfoam.com                      |
|    \\/     M anipulation  |                                                 |
\*---------------------------------------------------------------------------*/
FoamFile
{
    version     2.0;
    format      ascii;
    arch        "LSB;label=32;scalar=64";
    class       volScalarField;
    location    "0.00325";
    object      alphat;
}
// * * * * * * * * * * * * * * * * * * * * * * * * * * * * * * * * * * * * * //

dimensions      [1 -1 -1 0 0 0 0];

internalField   nonuniform List<scalar> 
13875
(
0.119859
0.0816039
0.0784627
0.0782754
0.0782686
0.0783706
0.0783882
0.0783514
0.0782927
0.0782688
0.0782784
0.0783013
0.0783877
0.0784326
0.078387
0.0782793
0.0782383
0.0782703
0.0783275
0.0783735
0.0782896
0.0782603
0.0784887
0.081482
0.120887
0.103936
0.0576765
0.0570932
0.0571506
0.0566648
0.0565675
0.056567
0.0566586
0.0570423
0.0570966
0.0571248
0.0571321
0.0566731
0.0566414
0.0566585
0.0570602
0.0570645
0.0570101
0.0566621
0.0565793
0.0566373
0.0571316
0.0570763
0.0573417
0.104493
0.110619
0.0553296
0.0558883
0.0547136
0.0544598
0.0543147
0.0542499
0.0542605
0.054228
0.0541361
0.0542722
0.0541598
0.0542881
0.0543124
0.0542499
0.0543098
0.0540511
0.054272
0.0543126
0.0543781
0.0544539
0.0545779
0.0557785
0.055067
0.111295
0.115887
0.0546459
0.0553923
0.0542886
0.0539063
0.053777
0.0537134
0.0537148
0.0535222
0.0534445
0.053514
0.0534888
0.0537467
0.0537789
0.053711
0.0535676
0.0533803
0.0535472
0.0537697
0.0538465
0.0539216
0.0541741
0.0551918
0.0543046
0.115927
0.121036
0.054639
0.0551327
0.0537324
0.0535656
0.0533664
0.0532556
0.053238
0.0530418
0.0529652
0.0530287
0.0530091
0.0532681
0.0533072
0.053234
0.0530698
0.0528997
0.0530659
0.0533138
0.0534133
0.053545
0.0535877
0.0550106
0.0543335
0.121432
0.12442
0.0547471
0.0551975
0.0535769
0.0531732
0.0529651
0.0528628
0.0528167
0.0525935
0.0525545
0.0525947
0.0526
0.0528556
0.0529054
0.0528304
0.0526368
0.0524871
0.0526119
0.0528843
0.0530331
0.0531747
0.0534756
0.0548815
0.0544023
0.124041
0.128773
0.0564834
0.0557989
0.0534426
0.053173
0.0528129
0.0526115
0.0525081
0.0522549
0.0522257
0.0522453
0.0522759
0.0525325
0.052593
0.0525011
0.0522771
0.0521661
0.0522975
0.0526327
0.0528732
0.0531566
0.0533603
0.0556393
0.0563718
0.128932
0.13576
0.0612162
0.0578601
0.0544082
0.0533421
0.0527954
0.0524946
0.0523208
0.0520501
0.0520232
0.0520211
0.0520671
0.0523458
0.0524255
0.0523235
0.052043
0.0519804
0.0520882
0.0524904
0.0528538
0.0533288
0.0542914
0.0575437
0.0610601
0.135569
0.151486
0.0693244
0.0616244
0.0560031
0.0544663
0.0534082
0.0527953
0.0524578
0.052133
0.0520758
0.0520172
0.0520932
0.0524052
0.0525102
0.0523781
0.0520394
0.0520572
0.052207
0.0527454
0.0534049
0.0543803
0.0557774
0.0610673
0.0684356
0.154339
0.239636
0.0875168
0.0666106
0.0591468
0.0557847
0.0543309
0.0534785
0.0529785
0.0526654
0.0525691
0.0524745
0.0525698
0.0529329
0.0530584
0.0529157
0.0525391
0.052592
0.0527724
0.0533544
0.0542756
0.0557623
0.0588876
0.0662314
0.0869384
0.241738
0.366089
0.119028
0.076652
0.0630972
0.0589223
0.0564107
0.0551234
0.0544108
0.0540509
0.0538874
0.0537884
0.0538738
0.0542828
0.0544294
0.0543095
0.0539626
0.0539963
0.0542149
0.0548679
0.056107
0.0585933
0.0627626
0.0753508
0.113226
0.365951
0.660241
0.194972
0.105581
0.0770259
0.0652477
0.0607658
0.0587853
0.0577294
0.0572646
0.0570332
0.0569426
0.0569858
0.0574081
0.0575811
0.0575113
0.0572861
0.0573334
0.057619
0.0585425
0.0601654
0.0650308
0.0759571
0.103591
0.186393
0.646777
0.584595
0.42159
0.191321
0.0985873
0.0840158
0.0726715
0.0679051
0.0659816
0.065184
0.0647915
0.0646717
0.0646539
0.0650261
0.0652421
0.0652767
0.0653148
0.0655724
0.0662186
0.0679529
0.0724581
0.0835323
0.0957998
0.180804
0.420219
0.582511
0.501147
0.399366
0.368389
0.391072
0.140327
0.100043
0.0937984
0.0896631
0.0887734
0.0880479
0.0879144
0.0879073
0.0882745
0.0885074
0.0887683
0.0891318
0.0899567
0.0910436
0.0951068
0.104854
0.155204
0.387177
0.361445
0.401126
0.507127
0.414284
0.35997
0.354155
0.393233
0.33099
0.223108
0.190641
0.16
0.140164
0.136028
0.133025
0.13289
0.132062
0.133098
0.133788
0.136662
0.140872
0.160129
0.194389
0.229752
0.328053
0.389032
0.350246
0.371417
0.434036
0.359111
0.330333
0.334954
0.400194
0.493943
0.60536
0.602825
0.530987
0.571723
0.585014
0.596037
0.593265
0.599295
0.598423
0.598487
0.589972
0.567384
0.52603
0.588002
0.616494
0.503982
0.411509
0.337222
0.337021
0.372823
0.284882
0.302373
0.369216
0.466798
0.563426
0.647531
0.540493
0.463421
0.46728
0.462287
0.46428
0.461672
0.463154
0.464046
0.466529
0.463444
0.462931
0.46018
0.515999
0.643413
0.572264
0.466791
0.373012
0.306601
0.298063
0.22705
0.304589
0.390701
0.434392
0.496878
0.522015
0.434527
0.379523
0.38527
0.382729
0.382746
0.379947
0.381975
0.382598
0.385349
0.383332
0.381839
0.379627
0.427636
0.519725
0.497027
0.456683
0.400061
0.284825
0.210295
0.112924
0.221836
0.370569
0.375412
0.379119
0.405039
0.383972
0.351869
0.349666
0.347301
0.3443
0.341237
0.34244
0.342953
0.345681
0.34625
0.34561
0.346557
0.377073
0.406465
0.384036
0.385277
0.38328
0.24419
0.111815
0.0492457
0.164533
0.292179
0.296387
0.295014
0.324413
0.344239
0.334167
0.325055
0.317374
0.311877
0.307038
0.307404
0.308905
0.313369
0.316881
0.322569
0.331558
0.342632
0.326414
0.298221
0.298918
0.284725
0.167333
0.0499826
0.0497946
0.13032
0.193714
0.215525
0.23039
0.268994
0.30355
0.304954
0.295754
0.286138
0.278449
0.272857
0.272366
0.274992
0.280442
0.286664
0.29532
0.305206
0.303197
0.267397
0.229872
0.216686
0.189083
0.113337
0.0469627
0.0950303
0.133113
0.140729
0.168557
0.187313
0.230909
0.265477
0.270322
0.262723
0.253601
0.245879
0.239207
0.238264
0.241086
0.247561
0.254222
0.262795
0.270945
0.264977
0.228857
0.185063
0.168081
0.135937
0.12133
0.0884366
0.158141
0.143277
0.12458
0.138878
0.158394
0.201374
0.231732
0.237646
0.231973
0.223168
0.214927
0.208766
0.207122
0.209916
0.215707
0.222605
0.23047
0.236162
0.230009
0.200152
0.154698
0.137441
0.12258
0.133901
0.154152
0.187111
0.149735
0.122406
0.123502
0.139549
0.174374
0.199804
0.206172
0.201442
0.193935
0.187148
0.180936
0.179721
0.18199
0.1878
0.193287
0.19961
0.204405
0.196711
0.171867
0.13843
0.121545
0.119463
0.142291
0.177895
0.201824
0.155573
0.119524
0.11507
0.126798
0.152246
0.173011
0.17933
0.175535
0.168833
0.162383
0.157516
0.156006
0.158367
0.163047
0.16826
0.173972
0.177701
0.170291
0.14917
0.125089
0.113687
0.117278
0.15005
0.190058
0.214705
0.162973
0.119844
0.110686
0.116813
0.13422
0.150431
0.155451
0.152266
0.14716
0.141944
0.136765
0.135779
0.137384
0.142012
0.146142
0.150064
0.153084
0.14743
0.131356
0.116024
0.108853
0.11802
0.159862
0.20683
0.230335
0.173998
0.121136
0.10944
0.110038
0.120878
0.132419
0.13563
0.132925
0.12845
0.123547
0.119778
0.11844
0.120288
0.123656
0.12765
0.131051
0.13344
0.129931
0.117851
0.108078
0.107599
0.120234
0.176976
0.220435
0.246476
0.19544
0.122578
0.107474
0.104829
0.109757
0.116601
0.117911
0.115513
0.112398
0.108725
0.104791
0.103937
0.105129
0.108736
0.111728
0.114131
0.116446
0.114909
0.107847
0.103711
0.105997
0.121821
0.195789
0.239763
0.27195
0.207172
0.124901
0.10565
0.101237
0.102121
0.105156
0.10477
0.102328
0.0992214
0.0954721
0.0927479
0.0915312
0.0929248
0.0953269
0.0982196
0.100391
0.102458
0.102916
0.0999339
0.0995696
0.104272
0.122756
0.203648
0.270282
0.314969
0.212195
0.124945
0.102698
0.0973625
0.0956465
0.0945328
0.0922916
0.0897583
0.0874313
0.0848478
0.0818788
0.0811299
0.0820264
0.0847979
0.0868712
0.0885693
0.0908538
0.092916
0.0941181
0.0961159
0.101568
0.125263
0.211461
0.306503
0.339699
0.21836
0.128931
0.100768
0.0934192
0.0896122
0.0864744
0.0833082
0.0805475
0.0781167
0.0751875
0.0732594
0.0722042
0.0733925
0.0751309
0.0774709
0.0794298
0.0820981
0.0853581
0.0885052
0.0921756
0.0999732
0.126973
0.217012
0.343911
0.348811
0.222612
0.132093
0.0999054
0.0895592
0.0844687
0.0794278
0.0752586
0.0721397
0.0697841
0.0677426
0.0653775
0.0647312
0.0655067
0.067615
0.0692469
0.071075
0.0739796
0.0781833
0.0833492
0.0881119
0.0992126
0.130398
0.220499
0.35448
0.359359
0.223434
0.138459
0.100964
0.0861269
0.0791673
0.0736749
0.0690672
0.0659175
0.063372
0.0607322
0.0592069
0.058279
0.0593262
0.0606495
0.0628575
0.0650375
0.0680061
0.072541
0.0781909
0.0849728
0.099794
0.136164
0.225083
0.361849
0.36681
0.224836
0.148969
0.101519
0.0833846
0.0746336
0.0681628
0.0631186
0.0598367
0.0572729
0.0554145
0.0534597
0.0528502
0.0535407
0.0553486
0.0569228
0.0591479
0.0623156
0.0674769
0.0740535
0.082323
0.10073
0.145773
0.224861
0.369071
0.367625
0.226202
0.155741
0.105805
0.082142
0.0708718
0.0635507
0.0588634
0.0555643
0.0529746
0.0504058
0.0490676
0.0481757
0.0491025
0.0502724
0.052504
0.0548874
0.0578839
0.0625835
0.0702952
0.0812328
0.104102
0.158814
0.226306
0.369211
0.371581
0.224175
0.155452
0.108088
0.0819426
0.0679407
0.0593579
0.0543003
0.0510501
0.0484394
0.0465436
0.0448491
0.0442337
0.0448475
0.0465118
0.0481863
0.0505299
0.0536931
0.0586856
0.0674646
0.0814244
0.108827
0.159699
0.226603
0.363049
0.369682
0.221185
0.154915
0.115334
0.0828416
0.0658556
0.0559347
0.0509597
0.0477913
0.045411
0.0429164
0.0416833
0.0408144
0.041676
0.0428322
0.0450882
0.0473756
0.0502777
0.0552609
0.0656853
0.0821905
0.116182
0.158056
0.222693
0.363226
0.36637
0.217505
0.153908
0.125099
0.0852209
0.0653449
0.0535271
0.0477372
0.0444025
0.0418703
0.0400497
0.0384901
0.0379043
0.0385093
0.0400013
0.0416752
0.043947
0.047224
0.0526932
0.0648751
0.0846832
0.127435
0.155603
0.216705
0.362492
0.366434
0.211814
0.149528
0.126568
0.088727
0.0649434
0.0519193
0.045586
0.0419933
0.0396679
0.0372893
0.036164
0.035372
0.0362101
0.0372265
0.0393939
0.0416876
0.0450148
0.0513733
0.0651273
0.0893905
0.128669
0.150588
0.212849
0.359964
0.365491
0.209083
0.1427
0.125858
0.0953368
0.0661108
0.0515222
0.0437147
0.0395318
0.0368041
0.0351025
0.0337034
0.0331775
0.0337417
0.0350871
0.0366979
0.0391669
0.0433766
0.0508997
0.0659804
0.0970153
0.127989
0.141443
0.20818
0.360903
0.360249
0.206471
0.136038
0.125085
0.106615
0.0684818
0.0514188
0.0430586
0.0380421
0.0354227
0.0330384
0.0320186
0.0312474
0.032013
0.0329424
0.0351553
0.0377773
0.0426284
0.0507363
0.0687495
0.109189
0.125861
0.133809
0.206829
0.357862
0.359279
0.204285
0.13015
0.121051
0.106358
0.0729775
0.0522379
0.0427287
0.0367791
0.0332324
0.03138
0.0300795
0.0295767
0.0300633
0.0313561
0.0330851
0.0364326
0.0424711
0.0521815
0.0747393
0.109096
0.121932
0.129699
0.2064
0.353513
0.352251
0.203215
0.1261
0.115624
0.105962
0.0810123
0.0538395
0.0428964
0.036481
0.0327402
0.0298915
0.0288478
0.0280814
0.0288294
0.0297776
0.0324833
0.0361943
0.0425748
0.054508
0.0837135
0.107789
0.115529
0.125092
0.204078
0.34971
0.345885
0.203357
0.124472
0.110103
0.103467
0.0875513
0.0581728
0.0436927
0.0364108
0.031195
0.0288314
0.0273456
0.0268064
0.0273293
0.0287648
0.0310873
0.0360423
0.0433819
0.0597756
0.0882021
0.103719
0.109825
0.123099
0.20396
0.345183
0.340527
0.199656
0.12188
0.105891
0.0996777
0.0876983
0.0644779
0.0455454
0.0364477
0.0318091
0.0281908
0.0266619
0.025754
0.0266261
0.0280694
0.0316441
0.0363567
0.0458987
0.0684332
0.0878556
0.0983395
0.105481
0.122308
0.201926
0.336137
0.335436
0.199191
0.121956
0.102008
0.0939495
0.086493
0.0744145
0.0500071
0.0373023
0.0311678
0.0281613
0.0259121
0.0250941
0.0258937
0.0280035
0.03103
0.0372844
0.0504879
0.0731042
0.0863579
0.0927935
0.101801
0.121755
0.199604
0.333281
0.326156
0.195931
0.1216
0.100226
0.0905224
0.0844195
0.0747503
0.0574924
0.0395001
0.0322013
0.0281131
0.0260907
0.0247736
0.0260652
0.0279189
0.0319709
0.0397579
0.0575798
0.07314
0.0829398
0.0893179
0.0995523
0.120941
0.196595
0.32417
0.31989
0.193159
0.121178
0.0985264
0.0869507
0.080541
0.0739512
0.0637912
0.044126
0.0324749
0.0282463
0.0258338
0.0247646
0.0258247
0.0281851
0.0324568
0.0451348
0.0638627
0.0724559
0.0795299
0.0861758
0.098441
0.121338
0.194481
0.31637
0.299596
0.186001
0.119206
0.0978495
0.0853715
0.0773575
0.0718736
0.0640807
0.0508072
0.0358113
0.0286909
0.0262265
0.0248562
0.0262011
0.0286904
0.0359159
0.0526571
0.063973
0.0705409
0.0765742
0.0848361
0.0974358
0.119237
0.186655
0.294746
0.272963
0.176599
0.117136
0.0960652
0.0834873
0.0748249
0.0687272
0.0633114
0.0562131
0.039809
0.0303655
0.0263444
0.0251823
0.0262976
0.0304818
0.0398548
0.0558838
0.0631729
0.0677478
0.0743323
0.0831994
0.095821
0.116351
0.176604
0.26993
0.0967127
0.235122
0.294529
0.315079
0.317766
0.321311
0.323292
0.326726
0.331817
0.33836
0.345619
0.352824
0.360585
0.370213
0.382356
0.395789
0.410535
0.426318
0.443767
0.462801
0.48161
0.500027
0.514673
0.518594
0.467442
0.347449
0.308538
0.297884
0.279738
0.130679
0.0830302
0.237545
0.298356
0.318911
0.322545
0.325899
0.32793
0.331329
0.336163
0.342524
0.350101
0.357507
0.36409
0.371752
0.383355
0.398083
0.412859
0.429258
0.448156
0.470238
0.49417
0.519139
0.544105
0.566404
0.578826
0.516923
0.350303
0.298604
0.25746
0.10384
0.0835869
0.242288
0.300936
0.320102
0.323862
0.32717
0.329606
0.333442
0.338599
0.34512
0.352456
0.359461
0.365572
0.372013
0.381194
0.395777
0.411548
0.429653
0.449911
0.472517
0.499061
0.526328
0.554276
0.580612
0.604616
0.6084
0.496987
0.328437
0.251196
0.0927931
0.083869
0.243808
0.300776
0.319812
0.323842
0.327676
0.330925
0.335559
0.341451
0.348442
0.355758
0.3627
0.368712
0.374614
0.382875
0.395344
0.413093
0.432218
0.453377
0.4765
0.502561
0.531567
0.560639
0.588917
0.614913
0.634334
0.618616
0.443172
0.266492
0.0900387
0.0828573
0.244162
0.300977
0.320134
0.325179
0.329909
0.334248
0.339654
0.345899
0.353127
0.360675
0.367804
0.373865
0.379562
0.387485
0.398666
0.41677
0.436645
0.458325
0.48131
0.506407
0.535346
0.56641
0.594944
0.621067
0.643052
0.652817
0.60215
0.341061
0.0938029
0.0826108
0.246647
0.302873
0.322171
0.328957
0.335386
0.34111
0.347549
0.354227
0.361182
0.368287
0.374969
0.380855
0.386208
0.393602
0.404532
0.421823
0.442348
0.46422
0.487193
0.511838
0.538531
0.568165
0.59941
0.627182
0.649564
0.667979
0.666654
0.508305
0.116059
0.0829041
0.250165
0.306086
0.325322
0.33368
0.341424
0.348869
0.356643
0.364151
0.371115
0.377527
0.383445
0.389181
0.394846
0.400475
0.41131
0.427019
0.447904
0.46956
0.492477
0.516206
0.541128
0.568751
0.599311
0.629944
0.655787
0.678768
0.706481
0.666585
0.232951
0.0839943
0.255001
0.310744
0.329491
0.338091
0.346473
0.355362
0.364777
0.373652
0.381606
0.387987
0.393804
0.399417
0.404431
0.40908
0.417677
0.431365
0.451136
0.472494
0.494617
0.517654
0.541869
0.568276
0.597816
0.629307
0.654576
0.689906
0.749893
0.853199
0.377918
0.0856763
0.26099
0.31672
0.334424
0.343152
0.352606
0.362671
0.373144
0.383116
0.39196
0.399222
0.404549
0.409072
0.413554
0.418338
0.422372
0.433837
0.451019
0.472077
0.493531
0.516471
0.540948
0.567214
0.595757
0.625104
0.652293
0.704893
0.831387
1.15985
0.425922
0.0876086
0.267645
0.323407
0.340398
0.349805
0.360101
0.370717
0.381762
0.392536
0.401984
0.409547
0.413624
0.417125
0.420968
0.423398
0.426374
0.434301
0.44866
0.46926
0.490706
0.51369
0.538595
0.565107
0.593018
0.615467
0.657438
0.744099
0.992282
1.51341
0.440929
0.0895316
0.274545
0.330466
0.347305
0.357179
0.367445
0.377901
0.389016
0.400036
0.408927
0.415764
0.419159
0.422109
0.423256
0.42503
0.427514
0.432761
0.445091
0.464509
0.486525
0.509604
0.534767
0.56133
0.588616
0.615501
0.669545
0.824639
1.40262
1.56378
0.441859
0.0911761
0.281561
0.337644
0.354322
0.363518
0.372445
0.382015
0.392644
0.402796
0.410826
0.416991
0.419722
0.420837
0.420738
0.422051
0.424634
0.428396
0.439327
0.457386
0.48041
0.503716
0.528987
0.555372
0.578316
0.618179
0.701006
0.974993
1.69415
1.49218
0.427926
0.0926599
0.28879
0.344628
0.35966
0.366494
0.37293
0.380919
0.389539
0.397574
0.404158
0.409706
0.411699
0.412167
0.411855
0.413491
0.416501
0.420034
0.429978
0.447183
0.470807
0.494751
0.520206
0.546687
0.57317
0.623167
0.766647
1.32455
1.7374
1.39845
0.413225
0.0939001
0.296223
0.350153
0.36116
0.363576
0.366513
0.370374
0.376055
0.382105
0.387532
0.392685
0.394696
0.395446
0.395867
0.398502
0.402246
0.406364
0.415792
0.432764
0.456643
0.481537
0.50734
0.534564
0.568401
0.640674
0.898195
1.63867
1.7011
1.29252
0.40244
0.0955395
0.303381
0.351685
0.355441
0.351764
0.34989
0.348994
0.352098
0.356233
0.360921
0.366117
0.368641
0.370406
0.37235
0.376281
0.380672
0.386199
0.395493
0.412815
0.436998
0.463379
0.490165
0.516535
0.562848
0.682803
1.18799
1.68754
1.63016
1.18637
0.393657
0.0972965
0.308119
0.346195
0.339969
0.329093
0.322065
0.317463
0.318353
0.320974
0.325437
0.330936
0.3343
0.337338
0.341334
0.347037
0.352307
0.359437
0.368812
0.386347
0.41103
0.439434
0.468102
0.499776
0.561561
0.77337
1.48998
1.64377
1.53482
1.09152
0.387156
0.0999471
0.30691
0.330234
0.31391
0.296093
0.2851
0.277937
0.27668
0.278392
0.283007
0.288792
0.292737
0.297425
0.303466
0.310059
0.317353
0.326485
0.33653
0.354064
0.379339
0.409931
0.441004
0.480674
0.575507
0.968612
1.53389
1.56439
1.43376
1.01342
0.382626
0.102698
0.297641
0.303859
0.278885
0.255868
0.242163
0.233504
0.230766
0.232089
0.236936
0.243108
0.248203
0.254441
0.262153
0.271299
0.280645
0.290249
0.301103
0.318506
0.343828
0.375792
0.408749
0.460754
0.615726
1.23287
1.48131
1.46535
1.32977
0.947943
0.378778
0.105801
0.278112
0.266216
0.236159
0.211848
0.198022
0.189493
0.186734
0.188102
0.193363
0.199205
0.2052
0.212808
0.222234
0.233584
0.244356
0.254057
0.265598
0.282334
0.306891
0.339132
0.373607
0.446977
0.724533
1.28862
1.39964
1.36485
1.22812
0.886208
0.374166
0.108859
0.252712
0.227685
0.194275
0.171353
0.159244
0.151914
0.149042
0.150611
0.156152
0.161147
0.167475
0.176043
0.186307
0.198592
0.209067
0.219424
0.231835
0.246687
0.270295
0.302247
0.342319
0.444601
0.880261
1.24485
1.30567
1.2655
1.13647
0.830639
0.368357
0.111509
0.222047
0.185212
0.152847
0.136585
0.12876
0.123573
0.120615
0.12246
0.12744
0.132331
0.138773
0.146968
0.155915
0.165027
0.174358
0.185404
0.198241
0.212377
0.235278
0.266674
0.314361
0.471934
0.979269
1.16709
1.20984
1.16976
1.0551
0.780179
0.361696
0.117749
0.195622
0.154529
0.125485
0.116608
0.110158
0.105834
0.10429
0.10618
0.110054
0.114121
0.120046
0.126372
0.131868
0.138735
0.148231
0.158746
0.170157
0.18217
0.203852
0.23369
0.294307
0.552194
0.961459
1.07956
1.1165
1.08199
0.98072
0.732798
0.35433
0.117415
0.169205
0.121101
0.10544
0.102183
0.101134
0.0981643
0.0979859
0.0994344
0.101095
0.104274
0.108588
0.111636
0.115226
0.121307
0.129817
0.139072
0.148775
0.159318
0.177037
0.207393
0.286927
0.640312
0.902906
0.991546
1.02441
1.00511
0.912768
0.688917
0.346776
0.143711
0.15592
0.102993
0.098155
0.0972315
0.0973383
0.0956928
0.0967877
0.0969163
0.0961584
0.0980552
0.100497
0.102053
0.105596
0.110547
0.11744
0.125076
0.13323
0.141958
0.154926
0.187822
0.311158
0.673178
0.833267
0.90979
0.939664
0.933166
0.849958
0.648627
0.339276
0.110595
0.0937329
0.0736883
0.0882518
0.0894465
0.0921394
0.0937028
0.0949569
0.0955943
0.0929868
0.0935781
0.0945203
0.0965569
0.100471
0.104152
0.109561
0.115372
0.121738
0.128741
0.138773
0.176841
0.366341
0.650057
0.764991
0.836202
0.863937
0.866104
0.79238
0.611666
0.331808
0.130677
0.279724
0.29781
0.308132
0.345917
0.464198
0.51732
0.513735
0.499232
0.480937
0.46218
0.44322
0.425849
0.410068
0.395365
0.38195
0.369827
0.360262
0.352548
0.345366
0.338103
0.331582
0.326502
0.323061
0.321058
0.317513
0.314821
0.294339
0.235023
0.0966826
0.103834
0.257395
0.2982
0.348202
0.512105
0.577635
0.565653
0.54341
0.51855
0.49362
0.469539
0.447447
0.428477
0.41222
0.397644
0.383003
0.371448
0.363894
0.357347
0.349943
0.342369
0.336025
0.331203
0.327804
0.325779
0.322402
0.318753
0.298274
0.237479
0.0830263
0.0927733
0.250933
0.326837
0.491433
0.606825
0.603976
0.579987
0.553731
0.525834
0.498531
0.472117
0.449451
0.429287
0.411209
0.395293
0.380968
0.37172
0.365323
0.359267
0.352328
0.345016
0.338512
0.333365
0.329537
0.327118
0.323815
0.320102
0.300962
0.242311
0.0835333
0.0899734
0.265459
0.437914
0.616791
0.633702
0.614373
0.588383
0.560191
0.531099
0.502176
0.476203
0.453145
0.431974
0.412809
0.395094
0.382486
0.37428
0.368416
0.36247
0.355617
0.348349
0.341358
0.335487
0.330882
0.327661
0.323854
0.319846
0.300875
0.243919
0.0838911
0.0935504
0.337397
0.599517
0.65213
0.642605
0.620552
0.59443
0.566011
0.535152
0.506197
0.481093
0.458186
0.436546
0.416656
0.398511
0.386902
0.379195
0.373544
0.367558
0.360527
0.353052
0.345868
0.339696
0.334364
0.33008
0.325383
0.320302
0.301151
0.244264
0.0828808
0.115063
0.503052
0.665403
0.667499
0.649147
0.626743
0.599156
0.568052
0.538416
0.511739
0.487124
0.464181
0.442333
0.421813
0.404438
0.392998
0.385765
0.38053
0.374743
0.368164
0.361267
0.354448
0.347874
0.341528
0.335867
0.329504
0.322667
0.303289
0.246905
0.0826027
0.229414
0.662995
0.705777
0.678386
0.655496
0.62981
0.599318
0.568779
0.541137
0.516229
0.492537
0.46965
0.447992
0.42707
0.411113
0.400429
0.394715
0.389124
0.383577
0.377682
0.371474
0.364974
0.357725
0.350031
0.342481
0.334668
0.326228
0.306801
0.25069
0.0830654
0.3764
0.850328
0.749082
0.689617
0.654685
0.629483
0.598024
0.568431
0.541975
0.517754
0.494747
0.472649
0.451279
0.431424
0.417166
0.410021
0.405125
0.399878
0.394424
0.388839
0.382816
0.375388
0.366389
0.356876
0.347763
0.339257
0.33074
0.311784
0.255757
0.0841409
0.425465
1.15688
0.83086
0.705045
0.652622
0.625549
0.596081
0.567435
0.541119
0.516636
0.493688
0.47223
0.451161
0.433924
0.422816
0.419124
0.414723
0.410132
0.405672
0.400763
0.393976
0.384948
0.375062
0.364301
0.354091
0.344503
0.335819
0.318108
0.262093
0.0859651
0.440771
1.51462
0.991438
0.744297
0.657877
0.615906
0.593381
0.565364
0.538792
0.51387
0.490877
0.469437
0.448854
0.434568
0.427214
0.424702
0.422402
0.418779
0.415366
0.41175
0.40433
0.394846
0.383756
0.372399
0.361715
0.351332
0.341948
0.324964
0.268985
0.0880092
0.442262
1.56755
1.40289
0.825099
0.670017
0.61596
0.589045
0.561633
0.535013
0.509836
0.48676
0.464791
0.445507
0.433379
0.428782
0.426421
0.424871
0.424566
0.421874
0.418936
0.411689
0.402288
0.390908
0.379663
0.369186
0.358897
0.349005
0.332129
0.276068
0.0899733
0.428682
1.49652
1.69691
0.976158
0.701644
0.618707
0.578825
0.55574
0.529299
0.504028
0.480765
0.457823
0.440036
0.429446
0.426197
0.42366
0.422546
0.423817
0.42332
0.420747
0.413815
0.404957
0.394008
0.383581
0.374231
0.365376
0.356156
0.339383
0.283188
0.0917243
0.41406
1.40292
1.74102
1.32807
0.767641
0.623727
0.573582
0.547141
0.520626
0.495183
0.471318
0.447798
0.43101
0.421517
0.418321
0.415455
0.414265
0.415375
0.415269
0.412646
0.40674
0.399289
0.390956
0.382052
0.374565
0.368343
0.361576
0.34642
0.290327
0.09311
0.403372
1.29683
1.7049
1.64274
0.900136
0.641328
0.568899
0.535009
0.507831
0.48206
0.457322
0.433595
0.417148
0.408214
0.404229
0.400997
0.398687
0.398497
0.397902
0.395049
0.389689
0.383526
0.377308
0.371857
0.368132
0.365376
0.363051
0.351959
0.297662
0.0943208
0.394903
1.19023
1.63379
1.69149
1.19317
0.683909
0.563344
0.516808
0.490643
0.463948
0.437859
0.413906
0.39715
0.388385
0.383054
0.379049
0.375026
0.373177
0.371339
0.36791
0.362533
0.357314
0.352973
0.350135
0.351322
0.353452
0.357302
0.353434
0.304679
0.0959675
0.387734
1.09443
1.53802
1.64758
1.49423
0.775507
0.562121
0.50026
0.468574
0.44006
0.412122
0.387777
0.370783
0.362024
0.354855
0.349961
0.34399
0.339974
0.336456
0.332145
0.326396
0.321526
0.318738
0.318116
0.32288
0.330199
0.341477
0.347682
0.309389
0.0977684
0.383074
1.01529
1.43642
1.56761
1.537
0.972964
0.576453
0.481263
0.441584
0.410768
0.380743
0.355941
0.338882
0.329304
0.320362
0.313446
0.306214
0.299829
0.294329
0.289249
0.28321
0.278319
0.276655
0.277976
0.285204
0.296477
0.314646
0.331289
0.308262
0.100403
0.378727
0.949042
1.33188
1.46769
1.48405
1.23796
0.617589
0.461627
0.409302
0.37703
0.345613
0.320737
0.304007
0.293211
0.284067
0.274756
0.264716
0.25626
0.248918
0.243079
0.236679
0.23165
0.230354
0.232908
0.241622
0.255299
0.27853
0.304177
0.298708
0.103344
0.37409
0.886567
1.22902
1.36637
1.40199
1.29224
0.728572
0.448274
0.375003
0.340782
0.309007
0.284768
0.268843
0.257259
0.24755
0.236321
0.224057
0.213956
0.205337
0.198973
0.192334
0.18707
0.18584
0.188257
0.196925
0.21067
0.234978
0.266232
0.27868
0.106453
0.368103
0.830088
1.13634
1.26612
1.30753
1.24788
0.886624
0.446682
0.344003
0.304111
0.272688
0.249213
0.234418
0.221808
0.21151
0.199766
0.187053
0.176529
0.167542
0.161499
0.155898
0.149976
0.14816
0.150539
0.15785
0.169888
0.19311
0.227156
0.252844
0.109558
0.361327
0.779493
1.05469
1.16996
1.21141
1.16991
0.984354
0.476063
0.316396
0.268586
0.237735
0.215109
0.200782
0.187471
0.175789
0.165775
0.155935
0.146704
0.138127
0.132512
0.127141
0.12229
0.119833
0.122054
0.12739
0.135006
0.151236
0.184135
0.221668
0.112152
0.35392
0.732021
0.980168
1.0823
1.11774
1.08211
0.966238
0.55831
0.296881
0.235869
0.206416
0.184693
0.172527
0.160561
0.149217
0.139229
0.131619
0.125598
0.119169
0.114089
0.109498
0.105597
0.103916
0.105236
0.10949
0.115315
0.123772
0.152912
0.195282
0.118459
0.346127
0.687593
0.911624
1.00502
1.02518
0.994277
0.907479
0.647869
0.290258
0.209835
0.179574
0.161456
0.150842
0.140579
0.130404
0.121591
0.115124
0.111297
0.108046
0.104086
0.100426
0.0981409
0.0969635
0.0973781
0.10067
0.10187
0.105369
0.120335
0.168642
0.117956
0.338684
0.647281
0.848624
0.932813
0.940359
0.912769
0.83744
0.679469
0.316366
0.190318
0.157252
0.143608
0.134661
0.125987
0.117788
0.110656
0.105708
0.102422
0.100729
0.0984895
0.0963181
0.0964528
0.0955407
0.0944052
0.0961998
0.0959336
0.0973174
0.102587
0.154833
0.14408
0.331308
0.610494
0.79115
0.86615
0.865405
0.839592
0.769059
0.655743
0.372556
0.179431
0.14076
0.12994
0.122779
0.116039
0.109723
0.104305
0.100756
0.0972074
0.0945693
0.0939472
0.0933673
0.0964496
0.0948824
0.0934893
0.0918844
0.088416
0.0878508
0.0733221
0.0927602
0.110314
0.0596964
0.059841
0.059987
0.0601331
0.0602792
0.0604255
0.0605718
0.0607182
0.0608647
0.0610113
0.061158
0.0613048
0.0614517
0.0615987
0.0617458
0.061893
0.0620403
0.0621876
0.0623351
0.0624827
0.0626303
0.0627781
0.062926
0.0630739
0.0632219
0.0633701
0.0635183
0.0636666
0.063815
0.0639635
0.0641121
0.0642608
0.0644096
0.0645585
0.0647075
0.0648567
0.0650208
0.0663159
0.115875
0.36245
0.645944
1.11297
1.44403
1.72297
1.95426
2.06102
2.10658
2.15619
2.16409
2.16305
2.15495
2.14317
2.12835
2.10291
2.06427
2.01104
1.94268
1.85824
1.75973
1.65283
1.54146
1.43059
1.32539
1.22836
1.13951
1.05576
0.975164
0.901495
0.8353
0.776116
0.723632
0.67686
0.635255
0.598247
0.565168
0.535342
0.508261
0.483928
0.462242
0.442333
0.424035
0.407228
0.391594
0.377036
0.363521
0.350852
0.338645
0.327418
0.317022
0.307493
0.298905
0.291292
0.284688
0.278926
0.273844
0.269299
0.265235
0.261698
0.258727
0.256262
0.254219
0.252572
0.251372
0.250661
0.250397
0.250468
0.250853
0.251554
0.252507
0.253883
0.255792
0.258172
0.261071
0.264597
0.268591
0.27285
0.277415
0.282617
0.288021
0.293562
0.299363
0.305267
0.311451
0.317757
0.324382
0.205902
0.206151
0.206372
0.206586
0.206798
0.207009
0.207219
0.207429
0.207638
0.207847
0.208056
0.208264
0.208471
0.208679
0.208885
0.209092
0.209298
0.209503
0.209708
0.209913
0.210117
0.21032
0.210524
0.210726
0.210929
0.211131
0.211332
0.211533
0.211734
0.211934
0.212134
0.212333
0.212532
0.212731
0.212929
0.213127
0.213329
0.213686
0.198696
0.124085
0.431872
1.22177
2.27628
2.63114
2.70648
2.65547
2.59261
2.51493
2.4001
2.30477
2.2508
2.2423
2.24683
2.25703
2.26783
2.26807
2.26522
2.25588
2.2323
2.18802
2.11542
2.02573
1.92221
1.80604
1.67754
1.53823
1.40507
1.28529
1.17857
1.08723
1.00783
0.936968
0.874228
0.819198
0.770867
0.72803
0.689507
0.65591
0.627044
0.600459
0.575869
0.553323
0.532769
0.51378
0.495973
0.479579
0.46404
0.448927
0.434879
0.4219
0.410195
0.399876
0.391033
0.383297
0.376383
0.370192
0.364692
0.360051
0.356378
0.353464
0.351008
0.348937
0.347403
0.346497
0.346156
0.34627
0.34683
0.347926
0.349567
0.352014
0.355346
0.359785
0.365663
0.373129
0.381874
0.391804
0.403341
0.41676
0.432664
0.450768
0.471607
0.494529
0.519726
0.546849
0.57717
0.264756
0.264901
0.265029
0.265152
0.265273
0.265393
0.265512
0.265631
0.265749
0.265867
0.265984
0.2661
0.266216
0.266331
0.266446
0.26656
0.266673
0.266786
0.266899
0.26701
0.267121
0.267232
0.267342
0.267452
0.26756
0.267669
0.267777
0.267884
0.267991
0.268097
0.268202
0.268307
0.268412
0.268516
0.268619
0.268726
0.268922
0.269229
0.161078
0.220846
0.778492
1.18048
1.31919
1.48711
1.80486
2.47009
2.85035
3.01997
3.09784
3.07838
2.9625
2.81267
2.65444
2.52396
2.43414
2.37295
2.3281
2.30759
2.31064
2.32414
2.33152
2.3013
2.23172
2.12009
1.98103
1.8466
1.71161
1.57559
1.44544
1.32683
1.22397
1.13334
1.05233
0.980644
0.917781
0.862323
0.812585
0.769357
0.732345
0.699197
0.669168
0.641676
0.616393
0.59323
0.571958
0.552457
0.534174
0.516671
0.500113
0.484599
0.470889
0.458743
0.448363
0.439317
0.431301
0.423962
0.417299
0.411586
0.406814
0.402951
0.399856
0.397319
0.395457
0.394322
0.393871
0.394011
0.394757
0.396318
0.398607
0.401921
0.406542
0.412586
0.420551
0.430589
0.442339
0.456063
0.472499
0.492424
0.51557
0.542323
0.5736
0.609143
0.647896
0.690705
0.738535
0.282998
0.283052
0.283098
0.283141
0.283184
0.283226
0.283268
0.283309
0.28335
0.283391
0.283431
0.283471
0.283511
0.28355
0.283589
0.283628
0.283666
0.283704
0.283742
0.28378
0.283817
0.283853
0.28389
0.283926
0.283962
0.283997
0.284033
0.284068
0.284102
0.284136
0.284171
0.284204
0.284238
0.284271
0.284306
0.284409
0.284748
0.177804
0.225853
0.61789
0.835525
0.90102
0.932464
0.9907
1.10506
1.30248
1.56697
2.01216
2.71759
3.07085
3.22155
3.29073
3.25991
3.11389
2.90448
2.70642
2.54693
2.41374
2.29925
2.20895
2.12879
2.05383
1.98284
1.91649
1.84881
1.78662
1.71765
1.63158
1.52983
1.42792
1.33111
1.24085
1.15593
1.0782
1.00872
0.946964
0.890848
0.841437
0.797373
0.758528