/*--------------------------------*- C++ -*----------------------------------*\
| =========                 |                                                 |
| \\      /  F ield         | OpenFOAM: The Open Source CFD Toolbox           |
|  \\    /   O peration     | Version:  2112                                  |
|   \\  /    A nd           | Website:  www.openfoam.com                      |
|    \\/     M anipulation  |                                                 |
\*---------------------------------------------------------------------------*/
FoamFile
{
    version     2.0;
    format      ascii;
    arch        "LSB;label=32;scalar=64";
    class       volScalarField;
    location    "0.00601";
    object      epsilon;
}
// * * * * * * * * * * * * * * * * * * * * * * * * * * * * * * * * * * * * * //

dimensions      [0 2 -3 0 0 0 0];

internalField   nonuniform List<scalar> 
13875
(
1.16002e+06
2.94629e+07
3.28236e+07
3.28372e+07
3.29039e+07
3.28473e+07
3.2928e+07
3.29631e+07
3.28813e+07
3.28683e+07
3.29118e+07
3.29163e+07
3.28771e+07
3.28439e+07
3.28609e+07
3.29099e+07
3.29481e+07
3.29166e+07
3.28949e+07
3.28596e+07
3.28993e+07
3.28307e+07
3.28017e+07
2.94749e+07
1.1784e+06
1.31389e+06
2.27476e+07
2.53556e+07
2.52376e+07
2.52769e+07
2.52177e+07
2.52416e+07
2.52544e+07
2.52098e+07
2.52247e+07
2.52412e+07
2.52523e+07
2.52153e+07
2.51936e+07
2.52005e+07
2.525e+07
2.52462e+07
2.52363e+07
2.52261e+07
2.52283e+07
2.52698e+07
2.52203e+07
2.53266e+07
2.27541e+07
1.34278e+06
1.57303e+06
1.97066e+07
2.18301e+07
2.16266e+07
2.16931e+07
2.16333e+07
2.1563e+07
2.1548e+07
2.15087e+07
2.15222e+07
2.15324e+07
2.15489e+07
2.16119e+07
2.16024e+07
2.1597e+07
2.15475e+07
2.15325e+07
2.15286e+07
2.15491e+07
2.16405e+07
2.16837e+07
2.16024e+07
2.17886e+07
1.96922e+07
1.58502e+06
1.81371e+06
1.73852e+07
1.90385e+07
1.88799e+07
1.89629e+07
1.89109e+07
1.88247e+07
1.88121e+07
1.87729e+07
1.87665e+07
1.8777e+07
1.87888e+07
1.88886e+07
1.88804e+07
1.88763e+07
1.87877e+07
1.87948e+07
1.87794e+07
1.88068e+07
1.89148e+07
1.89524e+07
1.88583e+07
1.90133e+07
1.73686e+07
1.82068e+06
2.02276e+06
1.54524e+07
1.67726e+07
1.66214e+07
1.67004e+07
1.66528e+07
1.65664e+07
1.65591e+07
1.65276e+07
1.65183e+07
1.65315e+07
1.65335e+07
1.66298e+07
1.66274e+07
1.66194e+07
1.65337e+07
1.65481e+07
1.65304e+07
1.65525e+07
1.6655e+07
1.66906e+07
1.66054e+07
1.67436e+07
1.54326e+07
2.03606e+06
2.20643e+06
1.37121e+07
1.49282e+07
1.47392e+07
1.48287e+07
1.47735e+07
1.46794e+07
1.46737e+07
1.46459e+07
1.4637e+07
1.46519e+07
1.46468e+07
1.4741e+07
1.47424e+07
1.47316e+07
1.46468e+07
1.46683e+07
1.46475e+07
1.46667e+07
1.47743e+07
1.48198e+07
1.47295e+07
1.49033e+07
1.38484e+07
2.22232e+06
2.4225e+06
1.22511e+07
1.34784e+07
1.3208e+07
1.32686e+07
1.32018e+07
1.30962e+07
1.30877e+07
1.30595e+07
1.30511e+07
1.30662e+07
1.30553e+07
1.31483e+07
1.31517e+07
1.31377e+07
1.30554e+07
1.30845e+07
1.30617e+07
1.30853e+07
1.32005e+07
1.32581e+07
1.32018e+07
1.34219e+07
1.19508e+07
2.42889e+06
2.66591e+06
1.06152e+07
1.23129e+07
1.19756e+07
1.19989e+07
1.189e+07
1.17659e+07
1.17448e+07
1.17145e+07
1.17076e+07
1.17247e+07
1.17061e+07
1.17987e+07
1.18049e+07
1.17881e+07
1.17057e+07
1.17441e+07
1.17212e+07
1.17519e+07
1.18842e+07
1.1982e+07
1.19658e+07
1.22645e+07
1.05424e+07
2.6946e+06
3.49624e+06
1.02128e+07
1.14838e+07
1.10305e+07
1.09415e+07
1.07933e+07
1.06497e+07
1.06124e+07
1.05764e+07
1.05691e+07
1.05911e+07
1.05661e+07
1.06573e+07
1.06666e+07
1.0648e+07
1.05675e+07
1.06105e+07
1.05884e+07
1.06271e+07
1.07805e+07
1.09247e+07
1.10226e+07
1.14761e+07
1.03378e+07
3.57505e+06
6.83508e+06
1.22188e+07
1.11968e+07
1.04271e+07
1.0172e+07
9.94242e+06
9.78021e+06
9.72832e+06
9.69038e+06
9.68329e+06
9.70442e+06
9.67739e+06
9.76228e+06
9.77408e+06
9.75611e+06
9.6869e+06
9.72323e+06
9.71235e+06
9.74981e+06
9.91793e+06
1.01451e+07
1.03649e+07
1.11606e+07
1.21266e+07
6.89325e+06
1.49182e+07
1.86987e+07
1.20522e+07
1.03315e+07
9.63504e+06
9.33557e+06
9.15545e+06
9.06838e+06
9.02595e+06
9.01922e+06
9.03511e+06
9.00853e+06
9.08315e+06
9.09791e+06
9.08663e+06
9.03684e+06
9.06351e+06
9.06912e+06
9.13105e+06
9.29522e+06
9.61511e+06
1.02733e+07
1.18849e+07
1.79441e+07
1.49989e+07
2.54814e+07
6.89342e+07
1.81894e+07
1.07233e+07
9.73189e+06
9.04592e+06
8.73704e+06
8.61488e+06
8.55576e+06
8.54386e+06
8.55042e+06
8.52754e+06
8.58553e+06
8.60362e+06
8.60227e+06
8.57298e+06
8.59593e+06
8.62709e+06
8.71506e+06
9.02876e+06
9.66015e+06
1.05442e+07
1.75389e+07
6.73987e+07
2.50358e+07
2.66092e+07
7.61843e+07
8.70157e+07
2.40474e+07
1.09802e+07
9.15328e+06
8.77248e+06
8.4772e+06
8.36697e+06
8.32457e+06
8.31137e+06
8.28627e+06
8.32449e+06
8.34587e+06
8.35858e+06
8.35951e+06
8.41224e+06
8.51904e+06
8.79394e+06
9.19256e+06
1.13263e+07
2.26177e+07
8.08807e+07
7.64973e+07
2.6087e+07
2.63817e+07
5.5346e+07
8.00027e+07
1.05147e+08
5.73499e+07
1.32473e+07
9.72404e+06
8.97838e+06
8.69055e+06
8.64703e+06
8.63418e+06
8.61448e+06
8.64368e+06
8.66398e+06
8.68333e+06
8.69262e+06
8.73523e+06
8.98204e+06
9.99064e+06
1.45307e+07
6.62956e+07
9.11178e+07
7.54551e+07
5.45522e+07
2.57487e+07
2.5391e+07
4.28031e+07
5.8367e+07
7.30237e+07
7.39828e+07
7.52944e+07
2.50312e+07
1.37146e+07
1.16911e+07
1.07477e+07
1.04667e+07
1.03314e+07
1.03394e+07
1.03732e+07
1.04613e+07
1.07144e+07
1.14834e+07
1.35671e+07
2.55371e+07
7.84328e+07
7.57707e+07
6.62441e+07
5.66914e+07
4.23072e+07
2.64378e+07
2.48295e+07
3.37748e+07
4.3858e+07
5.51017e+07
5.9019e+07
6.80515e+07
5.19978e+07
4.25277e+07
4.47135e+07
3.86083e+07
3.88218e+07
4.01271e+07
4.14181e+07
4.08488e+07
3.94914e+07
3.74438e+07
4.6148e+07
4.64747e+07
5.264e+07
6.97792e+07
5.90032e+07
5.10968e+07
4.29283e+07
3.35399e+07
2.5866e+07
2.02849e+07
2.56265e+07
3.28978e+07
4.28023e+07
5.02545e+07
6.31072e+07
7.17996e+07
8.26666e+07
6.6099e+07
5.25899e+07
5.36427e+07
5.67185e+07
5.82027e+07
5.7876e+07
5.54012e+07
5.37273e+07
6.43162e+07
8.20639e+07
7.82018e+07
6.42204e+07
4.92977e+07
4.04169e+07
3.15185e+07
2.47712e+07
2.01288e+07
1.50331e+07
1.94114e+07
2.73708e+07
3.80206e+07
4.64751e+07
5.55145e+07
6.7603e+07
8.08928e+07
5.18396e+07
3.77415e+07
3.61086e+07
3.68097e+07
3.7565e+07
3.73578e+07
3.67718e+07
3.92109e+07
5.11641e+07
7.36628e+07
7.12416e+07
5.69434e+07
4.72918e+07
3.79891e+07
2.66214e+07
1.8792e+07
1.47032e+07
1.2273e+07
1.69728e+07
2.52651e+07
4.08685e+07
4.98147e+07
4.65353e+07
5.09111e+07
5.97363e+07
4.61396e+07
3.37064e+07
2.92754e+07
2.80317e+07
2.80245e+07
2.84189e+07
2.96123e+07
3.35226e+07
4.3597e+07
5.64503e+07
5.29621e+07
4.72277e+07
5.23667e+07
4.32097e+07
2.57128e+07
1.68543e+07
1.20662e+07
1.16433e+07
1.78859e+07
2.64714e+07
4.12102e+07
4.45576e+07
3.87525e+07
3.91029e+07
4.51532e+07
4.05461e+07
3.15386e+07
2.56009e+07
2.26524e+07
2.20182e+07
2.31503e+07
2.60548e+07
3.10221e+07
3.82616e+07
4.33043e+07
4.01908e+07
3.9333e+07
4.56463e+07
4.2154e+07
2.78194e+07
1.85783e+07
1.17758e+07
2.1255e+07
4.73029e+07
3.56249e+07
3.29311e+07
3.52175e+07
3.1319e+07
3.11414e+07
3.59303e+07
3.48176e+07
2.81519e+07
2.2067e+07
1.85293e+07
1.76848e+07
1.92215e+07
2.27662e+07
2.77699e+07
3.3039e+07
3.48108e+07
3.19595e+07
3.19719e+07
3.58852e+07
3.34353e+07
3.8039e+07
4.74501e+07
1.76084e+07
7.34376e+07
2.41742e+08
4.6198e+07
2.61896e+07
2.79504e+07
2.55453e+07
2.55405e+07
2.94404e+07
2.95707e+07
2.44095e+07
1.87826e+07
1.5255e+07
1.43498e+07
1.59196e+07
1.94354e+07
2.40191e+07
2.80847e+07
2.8749e+07
2.62401e+07
2.61087e+07
2.83653e+07
2.66873e+07
5.35903e+07
2.49844e+08
6.28157e+07
8.60374e+07
1.63494e+08
3.96025e+07
2.17283e+07
2.26773e+07
2.12552e+07
2.12395e+07
2.44549e+07
2.49123e+07
2.07087e+07
1.58236e+07
1.26386e+07
1.1739e+07
1.31402e+07
1.62804e+07
2.02483e+07
2.35991e+07
2.39508e+07
2.18065e+07
2.16926e+07
2.28626e+07
2.20718e+07
4.43119e+07
2.06269e+08
9.81726e+07
7.51434e+07
1.4401e+08
3.14954e+07
1.85821e+07
1.86868e+07
1.77686e+07
1.77757e+07
2.04074e+07
2.09396e+07
1.73413e+07
1.31551e+07
1.04566e+07
9.70603e+06
1.09167e+07
1.36251e+07
1.70229e+07
1.98767e+07
2.00105e+07
1.82495e+07
1.82364e+07
1.89242e+07
1.87966e+07
3.43089e+07
1.47304e+08
8.57668e+07
6.80996e+07
1.26581e+08
2.63162e+07
1.63002e+07
1.57573e+07
1.50054e+07
1.50949e+07
1.71582e+07
1.76039e+07
1.45745e+07
1.10413e+07
8.75677e+06
8.12365e+06
9.15159e+06
1.1471e+07
1.43492e+07
1.6737e+07
1.6819e+07
1.54333e+07
1.54639e+07
1.60179e+07
1.64533e+07
2.76606e+07
1.23589e+08
7.59552e+07
6.17871e+07
1.16698e+08
2.25085e+07
1.43189e+07
1.35107e+07
1.27878e+07
1.29802e+07
1.45701e+07
1.48553e+07
1.22963e+07
9.33787e+06
7.41452e+06
6.87398e+06
7.73437e+06
9.67152e+06
1.20845e+07
1.40997e+07
1.42301e+07
1.31764e+07
1.31365e+07
1.37143e+07
1.44639e+07
2.2904e+07
1.07806e+08
6.68993e+07
5.62621e+07
1.02551e+08
1.92154e+07
1.26061e+07
1.17377e+07
1.10199e+07
1.1272e+07
1.24292e+07
1.25016e+07
1.03564e+07
7.92093e+06
6.3296e+06
5.8783e+06
6.62019e+06
8.26264e+06
1.02724e+07
1.19613e+07
1.21657e+07
1.13778e+07
1.13128e+07
1.19512e+07
1.28025e+07
1.95668e+07
9.56475e+07
6.1157e+07
5.26495e+07
9.24356e+07
1.6869e+07
1.11817e+07
1.03279e+07
9.6422e+06
9.8815e+06
1.07222e+07
1.06341e+07
8.81336e+06
6.79515e+06
5.46639e+06
5.07671e+06
5.70707e+06
7.07437e+06
8.74989e+06
1.01825e+07
1.04643e+07
9.91795e+06
9.83913e+06
1.0511e+07
1.13659e+07
1.71276e+07
8.70789e+07
5.58959e+07
4.93758e+07
8.57286e+07
1.51512e+07
9.98558e+06
9.17311e+06
8.57705e+06
8.73863e+06
9.30327e+06
9.09794e+06
7.56609e+06
5.88715e+06
4.76312e+06
4.42254e+06
4.95694e+06
6.09764e+06
7.48321e+06
8.68435e+06
9.04057e+06
8.71092e+06
8.69073e+06
9.32063e+06
1.01384e+07
1.51994e+07
7.85053e+07
5.13302e+07
4.51822e+07
7.78079e+07
1.37765e+07
8.97181e+06
8.17866e+06
7.69819e+06
7.79099e+06
8.10974e+06
7.78844e+06
6.48368e+06
5.10236e+06
4.17599e+06
3.88478e+06
4.35415e+06
5.31857e+06
6.48554e+06
7.50993e+06
7.89361e+06
7.7249e+06
7.77466e+06
8.32045e+06
9.1554e+06
1.39895e+07
7.35184e+07
4.83877e+07
4.20043e+07
7.00968e+07
1.28424e+07
8.18024e+06
7.35258e+06
6.94953e+06
6.99421e+06
7.12883e+06
6.74654e+06
5.64175e+06
4.48181e+06
3.69456e+06
3.43842e+06
3.8426e+06
4.65441e+06
5.63161e+06
6.49831e+06
6.9196e+06
6.90732e+06
6.99706e+06
7.46385e+06
8.3313e+06
1.30423e+07
6.79636e+07
4.4635e+07
3.92224e+07
6.37469e+07
1.20911e+07
7.57659e+06
6.67795e+06
6.2944e+06
6.31091e+06
6.32432e+06
5.90727e+06
4.94907e+06
3.96538e+06
3.29483e+06
3.06623e+06
3.41503e+06
4.0997e+06
4.93164e+06
5.6858e+06
6.11379e+06
6.20738e+06
6.3182e+06
6.76136e+06
7.69251e+06
1.22502e+07
6.07132e+07
4.1255e+07
3.61045e+07
5.65515e+07
1.14749e+07
7.1146e+06
6.08784e+06
5.73944e+06
5.71341e+06
5.62072e+06
5.17601e+06
4.35477e+06
3.52278e+06
2.95116e+06
2.75243e+06
3.06195e+06
3.65179e+06
4.36353e+06
5.0167e+06
5.44646e+06
5.61064e+06
5.73797e+06
6.14771e+06
7.20183e+06
1.17042e+07
5.50877e+07
3.84781e+07
3.39798e+07
5.09224e+07
1.10415e+07
6.79389e+06
5.62237e+06
5.26179e+06
5.17717e+06
5.03682e+06
4.59122e+06
3.87241e+06
3.15644e+06
2.66461e+06
2.48592e+06
2.75664e+06
3.26017e+06
3.8769e+06
4.44828e+06
4.86948e+06
5.06981e+06
5.23774e+06
5.64968e+06
6.84086e+06
1.12574e+07
4.96279e+07
3.567e+07
3.21853e+07
4.6403e+07
1.04719e+07
6.55688e+06
5.30117e+06
4.83444e+06
4.71374e+06
4.53213e+06
4.09799e+06
3.4698e+06
2.84979e+06
2.41842e+06
2.25865e+06
2.497e+06
2.93312e+06
3.46703e+06
3.96905e+06
4.37659e+06
4.60197e+06
4.79073e+06
5.29208e+06
6.60322e+06
1.07546e+07
4.5007e+07
3.37042e+07
3.01149e+07
4.16929e+07
9.7291e+06
6.3904e+06
5.06305e+06
4.47109e+06
4.29504e+06
4.08278e+06
3.67466e+06
3.11771e+06
2.57618e+06
2.20439e+06
2.06243e+06
2.27718e+06
2.65741e+06
3.13063e+06
3.5781e+06
3.94997e+06
4.19084e+06
4.41934e+06
5.03705e+06
6.46155e+06
1.01425e+07
4.16904e+07
3.19436e+07
2.85939e+07
3.78956e+07
9.08316e+06
6.32676e+06
4.90486e+06
4.17244e+06
3.94407e+06
3.70494e+06
3.31232e+06
2.82728e+06
2.35029e+06
2.02081e+06
1.89233e+06
2.08261e+06
2.41559e+06
2.83277e+06
3.228e+06
3.578e+06
3.83666e+06
4.10714e+06
4.86081e+06
6.39227e+06
9.44598e+06
3.76228e+07
2.96962e+07
2.72693e+07
3.49044e+07
8.70675e+06
6.41977e+06
4.80792e+06
3.93822e+06
3.64186e+06
3.37498e+06
3.00772e+06
2.57789e+06
2.15199e+06
1.8613e+06
1.74401e+06
1.91318e+06
2.20604e+06
2.58028e+06
2.92981e+06
3.25202e+06
3.537e+06
3.86082e+06
4.76192e+06
6.55209e+06
8.95853e+06
3.44139e+07
2.79959e+07
2.56815e+07
3.18807e+07
8.01233e+06
6.28913e+06
4.81443e+06
3.77621e+06
3.38536e+06
3.08716e+06
2.73269e+06
2.35309e+06
1.97677e+06
1.71917e+06
1.61386e+06
1.76811e+06
2.02874e+06
2.36196e+06
2.67595e+06
2.9808e+06
3.28759e+06
3.68938e+06
4.79948e+06
6.55491e+06
8.56139e+06
3.1728e+07
2.67101e+07
2.44794e+07
2.94473e+07
7.37192e+06
5.97793e+06
4.88758e+06
3.66412e+06
3.17626e+06
2.84304e+06
2.5068e+06
2.16405e+06
1.82446e+06
1.595e+06
1.49863e+06
1.63782e+06
1.86735e+06
2.1691e+06
2.45337e+06
2.74366e+06
3.08495e+06
3.57792e+06
4.8655e+06
6.20409e+06
7.84646e+06
2.9309e+07
2.54159e+07
2.35517e+07
2.73965e+07
6.87283e+06
5.61741e+06
5.13445e+06
3.62813e+06
3.02209e+06
2.64435e+06
2.31239e+06
1.99809e+06
1.69139e+06
1.48445e+06
1.39657e+06
1.52263e+06
1.72696e+06
1.99948e+06
2.26269e+06
2.54858e+06
2.93337e+06
3.53955e+06
5.14202e+06
5.84144e+06
7.16164e+06
2.73343e+07
2.43695e+07
2.26091e+07
2.55581e+07
6.30688e+06
5.20281e+06
5.15501e+06
3.66291e+06
2.90081e+06
2.49246e+06
2.1488e+06
1.85025e+06
1.56978e+06
1.38513e+06
1.30538e+06
1.42164e+06
1.60517e+06
1.85652e+06
2.10779e+06
2.40175e+06
2.81564e+06
3.5897e+06
5.2115e+06
5.45362e+06
6.72692e+06
2.56292e+07
2.35554e+07
2.19076e+07
2.4015e+07
5.8811e+06
4.79101e+06
4.88779e+06
3.8427e+06
2.82673e+06
2.37569e+06
2.01886e+06
1.72707e+06
1.46537e+06
1.29767e+06
1.22399e+06
1.33005e+06
1.49572e+06
1.73104e+06
1.98108e+06
2.2897e+06
2.74064e+06
3.74905e+06
4.96918e+06
4.99529e+06
6.18107e+06
2.40113e+07
2.26835e+07
2.13629e+07
2.25827e+07
5.76847e+06
4.4321e+06
4.54523e+06
4.06851e+06
2.83309e+06
2.28272e+06
1.92212e+06
1.62466e+06
1.37479e+06
1.21969e+06
1.15093e+06
1.24817e+06
1.40011e+06
1.62403e+06
1.88729e+06
2.20569e+06
2.75441e+06
4.05891e+06
4.63896e+06
4.58632e+06
5.72063e+06
2.26871e+07
2.20903e+07
2.072e+07
2.13174e+07
5.40721e+06
4.10426e+06
4.17614e+06
4.06462e+06
2.96907e+06
2.22249e+06
1.83942e+06
1.54378e+06
1.29649e+06
1.15017e+06
1.08608e+06
1.17759e+06
1.32188e+06
1.54198e+06
1.80836e+06
2.1589e+06
2.94838e+06
4.13905e+06
4.29384e+06
4.27163e+06
5.56686e+06
2.15076e+07
2.16253e+07
2.02065e+07
2.00737e+07
5.33966e+06
3.83987e+06
3.82929e+06
3.80519e+06
3.29013e+06
2.25431e+06
1.78201e+06
1.48304e+06
1.23767e+06
1.09335e+06
1.0305e+06
1.11829e+06
1.25996e+06
1.47863e+06
1.74902e+06
2.19017e+06
3.28913e+06
3.87726e+06
3.9516e+06
3.98338e+06
5.32771e+06
2.04109e+07
2.11019e+07
1.97006e+07
1.89399e+07
5.35809e+06
3.63595e+06
3.5427e+06
3.53507e+06
3.38407e+06
2.46341e+06
1.75728e+06
1.42993e+06
1.19173e+06
1.05076e+06
985338
1.07371e+06
1.21244e+06
1.42489e+06
1.72179e+06
2.40622e+06
3.42515e+06
3.59576e+06
3.64988e+06
3.75095e+06
5.23947e+06
1.92964e+07
2.05877e+07
1.89225e+07
1.77788e+07
5.18591e+06
3.45094e+06
3.29889e+06
3.27375e+06
3.1883e+06
2.78971e+06
1.83426e+06
1.38685e+06
1.15186e+06
1.01646e+06
950296
1.03894e+06
1.17138e+06
1.38564e+06
1.81429e+06
2.78362e+06
3.22128e+06
3.32299e+06
3.39655e+06
3.58586e+06
5.33449e+06
1.80668e+07
1.97465e+07
1.79362e+07
1.64974e+07
5.07888e+06
3.29913e+06
3.09286e+06
3.0362e+06
2.98864e+06
2.89107e+06
2.1248e+06
1.39065e+06
1.11878e+06
985976
922495
1.00778e+06
1.136e+06
1.38208e+06
2.10858e+06
2.91419e+06
3.01411e+06
3.07389e+06
3.17897e+06
3.42767e+06
5.23931e+06
1.67726e+07
1.8695e+07
1.56893e+07
1.47028e+07
4.89731e+06
3.16317e+06
2.91666e+06
2.8353e+06
2.78831e+06
2.72491e+06
2.38868e+06
1.52526e+06
1.10679e+06
960103
898369
980886
1.12024e+06
1.50039e+06
2.40932e+06
2.75262e+06
2.81081e+06
2.86882e+06
2.9942e+06
3.27923e+06
5.02703e+06
1.49456e+07
1.63894e+07
402000
335883
513472
561485
647143
639065
573625
483802
394837
323589
277255
254445
245816
242891
240067
235978
232381
229829
222992
189740
157159
138631
129524
126059
123436
120376
115763
108860
100595
118758
455733
384648
663921
767621
921918
913316
806775
651331
499648
381031
306391
268382
251908
245024
240424
235898
233484
233066
230574
208731
169579
143883
130456
124714
121439
118110
113382
106679
98860.2
117272
467498
445574
899084
1.06227e+06
1.29402e+06
1.27548e+06
1.12122e+06
880919
642341
454681
341449
283404
257091
245191
238117
232204
228989
228521
228399
219853
181307
149002
131412
122950
119158
115527
110715
104145
96821.7
116081
494980
546319
1.26242e+06
1.59915e+06
1.88509e+06
1.8356e+06
1.67052e+06
1.34102e+06
908662
586206
401092
308981
266649
247520
237410
230002
226001
225349
225936
223715
198147
157805
133065
121717
116892
112940
108060
101621
94818.2
114310
538141
705826
1.73132e+06
2.11056e+06
2.23987e+06
2.09996e+06
1.99342e+06
1.78124e+06
1.28459e+06
781955
489160
344998
279398
250390
236497
227525
222572
221174
221658
221386
215414
173470
137139
121382
114707
110418
105395
99012.3
92449.2
111528
600406
962168
2.19445e+06
2.44847e+06
2.33584e+06
2.08394e+06
2.01812e+06
1.93489e+06
1.6325e+06
1.0256e+06
609124
394207
297180
254999
235975
225288
219288
217391
217935
216528
218472
199065
147261
122161
112833
107997
102728
96159.1
89720.7
108058
687689
1.34124e+06
2.66647e+06
2.67514e+06
2.3173e+06
1.96907e+06
1.87391e+06
1.87001e+06
1.71672e+06
1.21595e+06
728122
449174
317785
260525
235338
222614
215916
213858
214030
212622
214679
215696
169164
126131
111945
105382
99884.2
93431.4
87897.2
106110
810590
1.86176e+06
3.17539e+06
2.84098e+06
2.27763e+06
1.85281e+06
1.71075e+06
1.78034e+06
1.66477e+06
1.30838e+06
812802
501810
338984
266549
234816
220108
212837
210468
210802
210705
209659
216506
204052
139723
112208
103491
97458.5
91337.2
86440
105133
985070
2.48204e+06
3.67273e+06
2.97403e+06
2.24652e+06
1.7574e+06
1.55623e+06
1.66649e+06
1.58668e+06
1.29456e+06
845673
537411
355419
271459
234063
217077
209714
207400
208374
210129
206822
212865
217910
173548
118047
102352
95501.3
89472.3
85034.9
104714
1.23198e+06
3.15117e+06
4.13652e+06
3.08276e+06
2.19737e+06
1.65018e+06
1.42828e+06
1.52628e+06
1.48651e+06
1.22616e+06
846188
548755
363404
273936
232880
214025
206348
204828
206848
209867
208251
209111
217781
211688
138822
103861
93640.8
87831.7
83563.2
102399
1.56604e+06
3.88778e+06
4.57229e+06
3.1576e+06
2.1339e+06
1.54147e+06
1.31157e+06
1.4128e+06
1.39668e+06
1.15306e+06
821309
536403
359432
271882
230339
210753
203357
202902
206258
211307
213208
209338
215293
220669
181609
112832
92164.7
83085.6
78984.3
96436.8
1.99821e+06
4.69249e+06
4.97715e+06
3.19254e+06
2.06372e+06
1.45188e+06
1.21992e+06
1.30729e+06
1.31806e+06
1.08101e+06
783101
518981
348437
265369
226138
207288
200897
201964
207030
214298
220284
213791
215557
222489
215457
138435
92267
79265
73962.3
90857
2.54135e+06
5.55963e+06
5.33918e+06
3.20463e+06
2.00899e+06
1.39841e+06
1.17475e+06
1.22817e+06
1.26029e+06
1.03015e+06
743888
487442
330056
255708
220553
203886
199133
201954
208415
216673
223944
222095
217402
223012
227747
195314
104762
77770.1
71355.8
86720.4
3.23542e+06
6.46224e+06
5.63828e+06
3.22861e+06
1.99685e+06
1.384e+06
1.16112e+06
1.16204e+06
1.19517e+06
1.00595e+06
694051
443354
305892
244833
214886
201246
198554
203075
210739
219505
226955
227789
220147
222873
228829
225832
156761
83410.9
70392.7
84503.9
4.07304e+06
7.41352e+06
5.91714e+06
3.28862e+06
2.02335e+06
1.39303e+06
1.15533e+06
1.09381e+06
1.09554e+06
934787
627643
391858
283890
236183
211372
200591
199849
205779
214226
222920
230277
230724
223716
223321
227397
231567
213484
115152
72398.1
83290
5.06598e+06
8.41852e+06
6.21276e+06
3.3946e+06
2.08582e+06
1.42664e+06
1.16354e+06
1.03264e+06
971226
814323
546817
351608
271573
232582
211536
202724
203704
210570
219357
227882
234036
231916
225939
224346
225297
228985
229206
184690
87673
83337.8
6.27564e+06
9.53591e+06
6.57785e+06
3.57518e+06
2.18591e+06
1.49105e+06
1.19771e+06
999790
863838
694633
479745
340319
271004
235062
215896
208595
211144
217941
226286
233635
236847
230811
225294
222819
222302
224112
226532
217992
136506
88650
7.7477e+06
1.07401e+07
7.07382e+06
3.85574e+06
2.33538e+06
1.5946e+06
1.26073e+06
1.00945e+06
809405
623595
452684
349717
280760
242773
224548
218715
220498
225480
231659
236582
237581
228401
222413
219064
217702
217707
219706
222172
197847
110500
9.26565e+06
1.20081e+07
7.73688e+06
4.26925e+06
2.55795e+06
1.75333e+06
1.38245e+06
1.07576e+06
818694
610812
460278
365618
298282
254863
236981
230715
230282
231659
234648
237195
235787
225305
218553
214693
212072
211075
212228
216347
216536
172176
1.08354e+07
1.34985e+07
8.61467e+06
4.82948e+06
2.8785e+06
1.9895e+06
1.57627e+06
1.23007e+06
917964
669818
504963
395964
325329
275236
253843
244966
239500
235939
235679
235629
232027
221320
214522
210211
207364
205711
206447
211609
225335
267242
1.35849e+07
1.49026e+07
9.68693e+06
5.5872e+06
3.34991e+06
2.32443e+06
1.84339e+06
1.4739e+06
1.1259e+06
820529
605477
462428
370098
307816
276536
259298
246613
238704
234541
231864
225928
217216
210758
206314
203542
202283
204249
211444
245442
326259
1.56633e+07
1.70195e+07
1.11559e+07
6.69115e+06
4.07826e+06
2.81607e+06
2.20145e+06
1.79798e+06
1.42951e+06
1.06623e+06
779557
576864
438356
351915
302158
272671
253288
241882
235408
230129
221883
213853
207732
203324
200924
201231
203632
216277
274942
343219
1.76066e+07
1.82848e+07
1.27808e+07
8.42019e+06
5.21818e+06
3.53327e+06
2.67668e+06
2.19782e+06
1.81292e+06
1.4069e+06
1.04533e+06
751503
538677
405110
331040
288332
262441
247723
237634
228763
219677
211469
205572
201526
200082
200575
205419
228092
317772
348594
1.8935e+07
2.04523e+07
1.57559e+07
1.14142e+07
7.06251e+06
4.59328e+06
3.30846e+06
2.66493e+06
2.24748e+06
1.83133e+06
1.40933e+06
1.00967e+06
697130
477778
373091
313163
276971
255994
240669
227899
219142
210843
204622
200840
200382
201075
209260
250253
353300
348267
1.88627e+07
2.43121e+07
2.16387e+07
1.68514e+07
1.00413e+07
6.20031e+06
4.21628e+06
3.23462e+06
2.69745e+06
2.28353e+06
1.84542e+06
1.37256e+06
946624
594529
437644
348975
296617
265578
244935
229956
219683
211564
204815
201454
200216
202423
217511
281526
352678
336344
118793
100468
108760
115716
120356
123429
126135
129786
139390
159439
194704
223385
228571
230772
234306
238588
241765
245217
255389
281111
331733
409020
504127
600653
662897
663771
576065
526245
340792
405741
117100
98660.3
106541
113345
118126
121498
124910
131045
145042
172666
213214
230040
231247
231528
234139
239025
244282
252117
270903
313356
395299
524891
688660
857794
959526
959205
798162
684565
392296
460303
115735
96549.6
103974
110659
115562
119264
123205
132161
150605
184740
221429
227485
226784
227089
230608
237006
244867
258246
287838
352336
477698
683558
942547
1.19627e+06
1.34327e+06
1.35697e+06
1.11337e+06
930759
456833
472585
113847
94503.4
101429
107985
112979
117037
122137
134065
159951
201572
223848
224711
223587
224257
228736
236698
247751
269264
316563
418980
625145
981487
1.44883e+06
1.75494e+06
1.90199e+06
1.95482e+06
1.67532e+06
1.31074e+06
562891
501068
111147
92140.4
98811.7
105301
110456
114881
121904
138463
175749
216438
220970
220428
219588
221123
226690
236307
251570
283993
357155
517791
840937
1.3836e+06
1.8514e+06
2.04618e+06
2.13879e+06
2.29022e+06
2.16753e+06
1.7901e+06
730184
547500
107642
89451.7
95997.7
102648
108030
113041
122818
148754
200247
218085
216073
216747
215993
218108
224747
236458
257468
304312
412543
650140
1.10277e+06
1.71241e+06
1.97086e+06
2.03936e+06
2.11547e+06
2.38563e+06
2.50251e+06
2.25686e+06
997097
614850
105659
87628.5
93270
99858.6
105444
112176
126893
169998
214637
213768
212197
212800
212636
215066
222486
236618
264166
327644
473936
777344
1.29379e+06
1.7607e+06
1.88626e+06
1.88385e+06
2.00749e+06
2.37386e+06
2.74333e+06
2.73977e+06
1.38789e+06
707902
104655
86174.4
91170
97410.1
103504
112448
140074
202757
214657
208587
209902
209655
209422
212260
220291
236649
271562
351473
531337
865316
1.37264e+06
1.70383e+06
1.7938e+06
1.72118e+06
1.90216e+06
2.34745e+06
2.92615e+06
3.25508e+06
1.91451e+06
840315
104230
84770
89303
95410.8
102311
117956
171669
215457
210778
205636
208959
207258
206528
209375
217665
236457
277584
369701
568790
896669
1.342e+06
1.62108e+06
1.67682e+06
1.5733e+06
1.80749e+06
2.31945e+06
3.07234e+06
3.76698e+06
2.53785e+06
1.0255e+06
101967
83337.8
87627.5
93465.4
103567
137294
208522
215056
207021
207102
208625
205599
203938
206106
214963
235837
280692
377459
578853
895656
1.26657e+06
1.52096e+06
1.5385e+06
1.44703e+06
1.69413e+06
2.27037e+06
3.19571e+06
4.24953e+06
3.21254e+06
1.28429e+06
96173.8
78942.3
82970.4
91861.1
111730
177289
217452
212538
207289
212281
209797
204894
202011
203290
211990
233673
279284
374726
565745
867849
1.19147e+06
1.43734e+06
1.42513e+06
1.32859e+06
1.5768e+06
2.20421e+06
3.28291e+06
4.70771e+06
3.9572e+06
1.63123e+06
90736
73949.3
79159.1
91792
135177
211525
219155
212589
212043
218052
212431
205528
200982
200804
208533
229419
272272
363187
546773
826350
1.12038e+06
1.36201e+06
1.31901e+06
1.23968e+06
1.48488e+06
2.12929e+06
3.32681e+06
5.13917e+06
4.7736e+06
2.07101e+06
86569.2
71328.7
77594.2
103003
189764
224013
219549
214358
219777
220934
214155
206538
200781
198955
205050
223471
262003
343405
513293
785251
1.07146e+06
1.30262e+06
1.24257e+06
1.19745e+06
1.43339e+06
2.07344e+06
3.34652e+06
5.53353e+06
5.65637e+06
2.61687e+06
84257.3
70292.9
82483
151359
221728
225343
219404
217142
226390
224052
216461
208393
201607
198152
202145
217305
250026
317053
465761
734467
1.04783e+06
1.23283e+06
1.18184e+06
1.18658e+06
1.42154e+06
2.06091e+06
3.37504e+06
5.86234e+06
6.59132e+06
3.30062e+06
82986.6
71950.4
111502
209244
228319
224086
219943
220954
229638
227262
219770
211537
203966
199184
201265
213300
240399
292735
409660
662967
973671
1.12763e+06
1.11765e+06
1.18333e+06
1.43198e+06
2.0886e+06
3.43842e+06
6.17907e+06
7.58115e+06
4.14001e+06
82896.3
85888.2
179227
226125
226075
222163
221107
223809
231260
231383
224534
216286
208272
202603
203182
213236
236411
278876
365513
571461
844907
996644
1.05892e+06
1.19352e+06
1.46776e+06
2.15259e+06
3.55001e+06
6.50746e+06
8.63418e+06
5.13128e+06
87774.3
132218
214710
224231
221455
219500
220885
223740
230415
234564
230093
222225
214366
208651
208288
217380
237928
275632
350809
495595
716400
886054
1.02871e+06
1.23069e+06
1.53641e+06
2.25755e+06
3.73832e+06
6.90011e+06
9.80364e+06
6.35076e+06
108350
193601
219914
217618
215319
215562
217260
221121
228243
235100
233410
228204
222146
217763
216841
224899
244649
285025
356480
464174
640048
830990
1.04019e+06
1.29739e+06
1.64314e+06
2.41368e+06
4.02702e+06
7.42082e+06
1.10592e+07
7.8476e+06
168801
214117
214500
210231
209075
210530
212965
217236
224966
233630
233946
231633
228783
227814
228975
236105
256162
303023
371968
471099
628513
843355
1.10883e+06
1.42127e+06
1.80522e+06
2.64198e+06
4.44771e+06
8.11299e+06
1.23854e+07
9.38547e+06
263287
222770
209739
204548
203903
205639
208704
213348
221059
230721
233131
233118
233971
237900
244252
252931
276393
328774
403150
516900
690620
949708
1.26597e+06
1.61907e+06
2.04725e+06
2.97336e+06
5.01952e+06
9.01434e+06
1.39479e+07
1.09759e+07
322200
242585
209567
202490
200447
201839
205114
209899
216828
225619
230942
233810
237732
246302
260213
276776
308978
373209
471078
621010
845743
1.16463e+06
1.51366e+06
1.89412e+06
2.39229e+06
3.45953e+06
5.78988e+06
1.00966e+07
1.5363e+07
1.39167e+07
339068
271947
214501
201976
199586
199542
202525
207109
213635
221830
228408
233690
241204
253176
274279
303976
353274
443300
589346
803297
1.09905e+06
1.4742e+06
1.84644e+06
2.26208e+06
2.89839e+06
4.20914e+06
6.90942e+06
1.15843e+07
1.74603e+07
1.60105e+07
344325
314258
226231
204098
199562
198891
200864
205325
211444
219432
227162
235139
246226
262650
291036
335014
408370
549925
771689
1.07905e+06
1.4492e+06
1.86256e+06
2.25542e+06
2.74392e+06
3.63252e+06
5.38026e+06
8.66676e+06
1.32214e+07
1.87755e+07
1.79801e+07
343910
351054
248573
208348
200325
199756
200505
204566
210688
218799
227875
239786
254967
278127
317411
380075
487655
720480
1.04217e+06
1.45272e+06
1.88043e+06
2.3007e+06
2.73244e+06
3.38251e+06
4.70336e+06
7.25453e+06
1.1685e+07
1.61546e+07
2.09432e+07
1.92777e+07
331674
350456
279698
216716
202287
200203
201239
204853
211468
219483
229808
245335
266500
300257
357371
449663
616139
987986
1.42287e+06
1.89952e+06
2.34094e+06
2.75304e+06
3.32024e+06
4.31059e+06
6.33327e+06
1.02875e+07
1.71237e+07
2.21291e+07
2.46963e+07
1.90421e+07
613237
593897
574060
551917
530397
507009
485212
463634
443756
424937
407520
391448
377090
363473
349403
340400
335860
333116
332304
337301
346177
364097
391728
431039
487954
561394
656216
775478
915169
1.07579e+06
1.251e+06
1.43972e+06
1.63036e+06
1.81418e+06
1.9832e+06
2.12472e+06
2.23514e+06
2.31354e+06
2.35797e+06
2.35675e+06
2.29205e+06
2.16992e+06
2.00042e+06
1.82301e+06
1.659e+06
1.55826e+06
1.49289e+06
1.41895e+06
1.32302e+06
1.21892e+06
1.11571e+06
1.01204e+06
912007
825261
748203
677883
612309
548311
488778
436455
394980
365261
343866
328617
318205
310756
305676
302575
300772
299768
300465
300622
301158
301978
302918
303510
302061
300240
298583
296730
294786
292903
291203
289740
288493
287392
286374
285405
284473
283615
282935
282558
282529
282776
283141
283431
283414
282900
281798
280119
277977
275558
273139
270950
269215
268046
267403
267287
267612
268377
269522
271433
274326
277566
281444
286373
289849
293328
295848
297504
300433
303994
309020
314815
322157
285860
286617
280963
277908
274710
270753
265620
261076
257513
253985
250209
247861
246328
244332
243951
247522
254481
265349
279065
305656
341252
397083
478524
588234
741520
936797
1.18395e+06
1.48296e+06
1.83442e+06
2.23481e+06
2.67154e+06
3.11506e+06
3.55371e+06
3.9608e+06
4.3342e+06
4.66524e+06
4.9423e+06
5.16981e+06
5.3011e+06
5.35223e+06
5.29876e+06
5.1198e+06
4.84438e+06
4.47887e+06
4.0974e+06
3.76461e+06
3.48839e+06
3.23383e+06
2.9665e+06
2.6872e+06
2.39689e+06
2.10547e+06
1.83687e+06
1.59821e+06
1.39026e+06
1.20855e+06
1.0516e+06
912639
791526
685528
595588
522463
463942
418133
383408
357419
338244
324202
313316
304708
297283
291438
286722
282643
278837
275026
271246
267583
263860
259933