/*--------------------------------*- C++ -*----------------------------------*\
| =========                 |                                                 |
| \\      /  F ield         | OpenFOAM: The Open Source CFD Toolbox           |
|  \\    /   O peration     | Version:  2112                                  |
|   \\  /    A nd           | Website:  www.openfoam.com                      |
|    \\/     M anipulation  |                                                 |
\*---------------------------------------------------------------------------*/
FoamFile
{
    version     2.0;
    format      ascii;
    arch        "LSB;label=32;scalar=64";
    class       volScalarField;
    location    "0.00306";
    object      epsilon;
}
// * * * * * * * * * * * * * * * * * * * * * * * * * * * * * * * * * * * * * //

dimensions      [0 2 -3 0 0 0 0];

internalField   nonuniform List<scalar> 
13875
(
1.15996e+06
2.9465e+07
3.28113e+07
3.285e+07
3.29649e+07
3.28637e+07
3.2851e+07
3.28808e+07
3.29292e+07
3.2941e+07
3.29359e+07
3.29041e+07
3.28802e+07
3.28139e+07
3.28661e+07
3.29204e+07
3.29548e+07
3.29456e+07
3.29029e+07
3.28156e+07
3.29309e+07
3.28365e+07
3.28034e+07
2.94992e+07
1.17762e+06
1.31385e+06
2.27496e+07
2.53473e+07
2.52472e+07
2.5311e+07
2.52176e+07
2.52015e+07
2.52167e+07
2.52166e+07
2.52296e+07
2.52645e+07
2.52399e+07
2.52187e+07
2.51752e+07
2.52261e+07
2.5254e+07
2.52711e+07
2.52288e+07
2.52366e+07
2.51922e+07
2.52849e+07
2.52235e+07
2.53279e+07
2.27638e+07
1.34171e+06
1.57303e+06
1.97085e+07
2.18235e+07
2.16331e+07
2.17024e+07
2.16298e+07
2.16129e+07
2.16115e+07
2.15221e+07
2.15269e+07
2.15726e+07
2.15552e+07
2.16152e+07
2.15913e+07
2.16329e+07
2.15771e+07
2.15576e+07
2.15352e+07
2.16285e+07
2.16159e+07
2.16886e+07
2.16037e+07
2.179e+07
1.96909e+07
1.58412e+06
1.81378e+06
1.73867e+07
1.90333e+07
1.8886e+07
1.89678e+07
1.89079e+07
1.88922e+07
1.88886e+07
1.87892e+07
1.87869e+07
1.88238e+07
1.88148e+07
1.88854e+07
1.88709e+07
1.89022e+07
1.88297e+07
1.87951e+07
1.88064e+07
1.89021e+07
1.88973e+07
1.89571e+07
1.88597e+07
1.90142e+07
1.73615e+07
1.82042e+06
2.02293e+06
1.54535e+07
1.67682e+07
1.6626e+07
1.67003e+07
1.66514e+07
1.66392e+07
1.6631e+07
1.65397e+07
1.65349e+07
1.65653e+07
1.6559e+07
1.6626e+07
1.66204e+07
1.66407e+07
1.65666e+07
1.6534e+07
1.65542e+07
1.66409e+07
1.66445e+07
1.66939e+07
1.66058e+07
1.67439e+07
1.54256e+07
2.03659e+06
2.2068e+06
1.37141e+07
1.49251e+07
1.47432e+07
1.48245e+07
1.47768e+07
1.4762e+07
1.47438e+07
1.46601e+07
1.4653e+07
1.46756e+07
1.46728e+07
1.47402e+07
1.47424e+07
1.47461e+07
1.46737e+07
1.46435e+07
1.46777e+07
1.47565e+07
1.47738e+07
1.4822e+07
1.47308e+07
1.49027e+07
1.38474e+07
2.22389e+06
2.42323e+06
1.22535e+07
1.34755e+07
1.3212e+07
1.32624e+07
1.32073e+07
1.31844e+07
1.31561e+07
1.30807e+07
1.30698e+07
1.30843e+07
1.30851e+07
1.31562e+07
1.31628e+07
1.31491e+07
1.30802e+07
1.30533e+07
1.31034e+07
1.31758e+07
1.32067e+07
1.32607e+07
1.32031e+07
1.34222e+07
1.19542e+07
2.43135e+06
2.66786e+06
1.06219e+07
1.23145e+07
1.19838e+07
1.19965e+07
1.19145e+07
1.18696e+07
1.18247e+07
1.17553e+07
1.17377e+07
1.17439e+07
1.17457e+07
1.18228e+07
1.18342e+07
1.18033e+07
1.17379e+07
1.17172e+07
1.17835e+07
1.18551e+07
1.19113e+07
1.19922e+07
1.19768e+07
1.22648e+07
1.05457e+07
2.6977e+06
3.50045e+06
1.02147e+07
1.1489e+07
1.10456e+07
1.09515e+07
1.0845e+07
1.07773e+07
1.0716e+07
1.06503e+07
1.06276e+07
1.06259e+07
1.06274e+07
1.07109e+07
1.07265e+07
1.06795e+07
1.06174e+07
1.06069e+07
1.06842e+07
1.07584e+07
1.08396e+07
1.0954e+07
1.10359e+07
1.14836e+07
1.0349e+07
3.58117e+06
6.84995e+06
1.22571e+07
1.12198e+07
1.04373e+07
1.02365e+07
1.00518e+07
9.95328e+06
9.87789e+06
9.8159e+06
9.78851e+06
9.78043e+06
9.78113e+06
9.8681e+06
9.88636e+06
9.83014e+06
9.77428e+06
9.77252e+06
9.84669e+06
9.9256e+06
1.00347e+07
1.02202e+07
1.04179e+07
1.11905e+07
1.21573e+07
6.90095e+06
1.4967e+07
1.87189e+07
1.2119e+07
1.04496e+07
9.80798e+06
9.54409e+06
9.4017e+06
9.30806e+06
9.24826e+06
9.21641e+06
9.20516e+06
9.20266e+06
9.28855e+06
9.30811e+06
9.2528e+06
9.20892e+06
9.21544e+06
9.27879e+06
9.37167e+06
9.51094e+06
9.79561e+06
1.04122e+07
1.20055e+07
1.80939e+07
1.50837e+07
2.54454e+07
6.74501e+07
1.89871e+07
1.10279e+07
1.00886e+07
9.46141e+06
9.17896e+06
9.04605e+06
8.9676e+06
8.92669e+06
8.91276e+06
8.90533e+06
8.97915e+06
9.00052e+06
8.95531e+06
8.93281e+06
8.95139e+06
9.02412e+06
9.15366e+06
9.43522e+06
1.00302e+07
1.08796e+07
1.82919e+07
6.71627e+07
2.50982e+07
2.66553e+07
6.94771e+07
9.08776e+07
2.91047e+07
1.18017e+07
9.97147e+06
9.58788e+06
9.39525e+06
9.3293e+06
9.28302e+06
9.26965e+06
9.26205e+06
9.31905e+06
9.34103e+06
9.31273e+06
9.31169e+06
9.34257e+06
9.40682e+06
9.58485e+06
1.00824e+07
1.2263e+07
2.69227e+07
8.57932e+07
7.03082e+07
2.6174e+07
2.64585e+07
5.14741e+07
8.12416e+07
1.17944e+08
5.85045e+07
1.63017e+07
1.35257e+07
1.18715e+07
1.14219e+07
1.12339e+07
1.11784e+07
1.11571e+07
1.12231e+07
1.12467e+07
1.12528e+07
1.13102e+07
1.15181e+07
1.20625e+07
1.39417e+07
1.76609e+07
6.69673e+07
1.00843e+08
7.72196e+07
5.15274e+07
2.60239e+07
2.58991e+07
4.11252e+07
6.01356e+07
8.14969e+07
7.29276e+07
5.67289e+07
6.16237e+07
4.7592e+07
4.49968e+07
4.65399e+07
4.85165e+07
4.8244e+07
4.97136e+07
4.88814e+07
4.89611e+07
4.72708e+07
4.56627e+07
4.93292e+07
6.59222e+07
5.67713e+07
7.41335e+07
7.37556e+07
5.86071e+07
4.12339e+07
2.73073e+07
2.63471e+07
3.43887e+07
5.05103e+07
6.7537e+07
7.23329e+07
9.03802e+07
7.29197e+07
5.42922e+07
5.46033e+07
5.87493e+07
5.96698e+07
6.02886e+07
6.0933e+07
6.08058e+07
6.02155e+07
5.92673e+07
5.40666e+07
5.39585e+07
7.21579e+07
8.95993e+07
7.29883e+07
6.29107e+07
4.92204e+07
3.42854e+07
2.77105e+07
2.40105e+07
3.05995e+07
4.43959e+07
6.10603e+07
6.88126e+07
8.43151e+07
5.5116e+07
3.8691e+07
3.74373e+07
3.8052e+07
3.85671e+07
3.88859e+07
3.91333e+07
3.91826e+07
3.89318e+07
3.8375e+07
3.72634e+07
3.8656e+07
5.27184e+07
8.53066e+07
6.81078e+07
5.76905e+07
4.46193e+07
2.98937e+07
2.36807e+07
1.94819e+07
3.02932e+07
4.34633e+07
4.87955e+07
5.3631e+07
6.35831e+07
4.4565e+07
3.14999e+07
2.912e+07
2.84328e+07
2.81054e+07
2.8018e+07
2.81411e+07
2.82264e+07
2.8463e+07
2.87877e+07
2.91078e+07
3.17047e+07
4.40374e+07
6.31245e+07
5.17466e+07
4.64411e+07
4.38145e+07
2.97738e+07
1.89772e+07
1.57573e+07
3.10822e+07
3.84328e+07
3.83706e+07
3.94595e+07
4.59895e+07
4.0049e+07
3.07366e+07
2.5848e+07
2.32731e+07
2.19267e+07
2.13923e+07
2.1358e+07
2.14973e+07
2.20471e+07
2.31631e+07
2.51497e+07
2.99154e+07
3.92667e+07
4.5407e+07
3.80843e+07
3.73802e+07
3.86635e+07
3.09178e+07
1.53947e+07
1.44251e+07
3.0776e+07
3.12412e+07
3.08448e+07
3.11209e+07
3.54876e+07
3.50689e+07
2.96388e+07
2.4238e+07
2.04244e+07
1.81915e+07
1.7219e+07
1.70397e+07
1.7316e+07
1.82821e+07
2.02909e+07
2.37595e+07
2.91746e+07
3.44829e+07
3.47371e+07
3.02696e+07
3.04247e+07
3.14153e+07
2.91435e+07
1.43849e+07
1.56145e+07
2.47213e+07
2.55439e+07
2.52709e+07
2.54592e+07
2.89262e+07
3.00804e+07
2.66042e+07
2.17942e+07
1.78693e+07
1.53109e+07
1.4084e+07
1.38225e+07
1.42184e+07
1.548e+07
1.79121e+07
2.16619e+07
2.64538e+07
2.96547e+07
2.83106e+07
2.49642e+07
2.51504e+07
2.53458e+07
2.31628e+07
1.55689e+07
2.16599e+07
2.50765e+07
2.18468e+07
2.1405e+07
2.15029e+07
2.43285e+07
2.56069e+07
2.31435e+07
1.91034e+07
1.54643e+07
1.29202e+07
1.16331e+07
1.13226e+07
1.17529e+07
1.30698e+07
1.55042e+07
1.89965e+07
2.29732e+07
2.52233e+07
2.39211e+07
2.11938e+07
2.13592e+07
2.1454e+07
2.39832e+07
2.18974e+07
2.49851e+07
2.80527e+07
1.92313e+07
1.81916e+07
1.84188e+07
2.06439e+07
2.16646e+07
1.97669e+07
1.64338e+07
1.32586e+07
1.09184e+07
9.68393e+06
9.35715e+06
9.74857e+06
1.09709e+07
1.31882e+07
1.6219e+07
1.94973e+07
2.12555e+07
2.02867e+07
1.81251e+07
1.81077e+07
1.87023e+07
2.74696e+07
2.50905e+07
2.41165e+07
2.74626e+07
1.67461e+07
1.56942e+07
1.58513e+07
1.73961e+07
1.82488e+07
1.67436e+07
1.39037e+07
1.11936e+07
9.17598e+06
8.0972e+06
7.80552e+06
8.16088e+06
9.24253e+06
1.11696e+07
1.37508e+07
1.65381e+07
1.79239e+07
1.70823e+07
1.56583e+07
1.56736e+07
1.63671e+07
2.67487e+07
2.41642e+07
2.34339e+07
2.60187e+07
1.47565e+07
1.37612e+07
1.37567e+07
1.47563e+07
1.54338e+07
1.41978e+07
1.18124e+07
9.51467e+06
7.77152e+06
6.83917e+06
6.58576e+06
6.89233e+06
7.82837e+06
9.50729e+06
1.17029e+07
1.40287e+07
1.51691e+07
1.44852e+07
1.35776e+07
1.37371e+07
1.44923e+07
2.58378e+07
2.34184e+07
2.26636e+07
2.47633e+07
1.33426e+07
1.22696e+07
1.2049e+07
1.26568e+07
1.31167e+07
1.20453e+07
1.00517e+07
8.1228e+06
6.63902e+06
5.8354e+06
5.60867e+06
5.87086e+06
6.6653e+06
8.09006e+06
9.9217e+06
1.18463e+07
1.28472e+07
1.24123e+07
1.18497e+07
1.21912e+07
1.31232e+07
2.47728e+07
2.24545e+07
2.19056e+07
2.36823e+07
1.21911e+07
1.10334e+07
1.06574e+07
1.09431e+07
1.1155e+07
1.01947e+07
8.54179e+06
6.93966e+06
5.69238e+06
5.01897e+06
4.82497e+06
5.05164e+06
5.73309e+06
6.9518e+06
8.49393e+06
1.00888e+07
1.09836e+07
1.07744e+07
1.04908e+07
1.09828e+07
1.2091e+07
2.42932e+07
2.20705e+07
2.16681e+07
2.28314e+07
1.13207e+07
9.97584e+06
9.55081e+06
9.59711e+06
9.59082e+06
8.70327e+06
7.31861e+06
5.98122e+06
4.93301e+06
4.36089e+06
4.18806e+06
4.384e+06
4.96101e+06
5.98378e+06
7.26803e+06
8.59656e+06
9.42431e+06
9.45283e+06
9.40318e+06
9.92148e+06
1.1219e+07
2.3217e+07
2.16529e+07
2.1864e+07
2.16606e+07
1.05281e+07
9.04642e+06
8.60915e+06
8.50019e+06
8.30847e+06
7.48615e+06
6.31829e+06
5.19342e+06
4.30701e+06
3.81948e+06
3.66541e+06
3.83256e+06
4.31457e+06
5.17191e+06
6.24776e+06
7.35996e+06
8.12992e+06
8.36117e+06
8.47069e+06
8.98326e+06
1.04432e+07
2.15763e+07
2.12814e+07
2.12781e+07
2.04053e+07
9.86204e+06
8.23013e+06
7.76081e+06
7.55727e+06
7.21915e+06
6.4383e+06
5.44371e+06
4.50734e+06
3.77343e+06
3.36694e+06
3.23284e+06
3.38258e+06
3.79689e+06
4.52195e+06
5.43049e+06
6.38636e+06
7.11102e+06
7.46784e+06
7.65929e+06
8.18619e+06
9.80658e+06
2.05726e+07
2.1603e+07
2.05303e+07
1.93009e+07
9.36557e+06
7.57803e+06
7.01898e+06
6.75317e+06
6.3396e+06
5.61518e+06
4.75606e+06
3.95836e+06
3.33673e+06
2.99049e+06
2.87195e+06
3.00296e+06
3.35082e+06
3.96281e+06
4.73722e+06
5.5627e+06
6.24e+06
6.66838e+06
6.91705e+06
7.53654e+06
9.25728e+06
1.94493e+07
2.06571e+07
1.98425e+07
1.83668e+07
8.9489e+06
7.09589e+06
6.37126e+06
6.0605e+06
5.61878e+06
4.93778e+06
4.18646e+06
3.50111e+06
2.9739e+06
2.67634e+06
2.56898e+06
2.68508e+06
2.98065e+06
3.49765e+06
4.16176e+06
4.88276e+06
5.5218e+06
5.977e+06
6.28055e+06
7.03368e+06
8.82863e+06
1.83884e+07
1.96734e+07
1.88229e+07
1.71802e+07
8.70706e+06
6.70079e+06
5.82361e+06
5.43927e+06
4.98377e+06
4.35729e+06
3.70076e+06
3.10913e+06
2.65884e+06
2.40593e+06
2.31202e+06
2.41691e+06
2.67195e+06
3.1187e+06
3.69946e+06
4.33209e+06
4.92043e+06
5.3769e+06
5.74759e+06
6.63002e+06
8.54214e+06
1.75039e+07
1.9039e+07
1.83619e+07
1.60762e+07
8.4973e+06
6.43296e+06
5.3808e+06
4.9205e+06
4.45633e+06
3.88388e+06
3.30045e+06
2.78522e+06
2.39905e+06
2.17933e+06
2.09329e+06
2.1876e+06
2.40722e+06
2.78947e+06
3.29544e+06
3.85864e+06
4.39741e+06
4.86483e+06
5.31104e+06
6.337e+06
8.45298e+06
1.64259e+07
1.825e+07
1.79705e+07
1.51617e+07
8.09655e+06
6.23193e+06
5.04512e+06
4.48097e+06
4.00303e+06
3.48388e+06
2.96897e+06
2.51608e+06
2.17575e+06
1.984e+06
1.90603e+06
1.9904e+06
2.18083e+06
2.51642e+06
2.96132e+06
3.45958e+06
3.94811e+06
4.42785e+06
4.98554e+06
6.16375e+06
8.2049e+06
1.53419e+07
1.76683e+07
1.72123e+07
1.40665e+07
7.57739e+06
6.0636e+06
4.79344e+06
4.11687e+06
3.61796e+06
3.13305e+06
2.67363e+06
2.27652e+06
1.98285e+06
1.8156e+06
1.74471e+06
1.82309e+06
1.99239e+06
2.28577e+06
2.6781e+06
3.12502e+06
3.57779e+06
4.07585e+06
4.74034e+06
6.05194e+06
7.7333e+06
1.43826e+07
1.71275e+07
1.67463e+07
1.31443e+07
7.10315e+06
6.04527e+06
4.61181e+06
3.83673e+06
3.29697e+06
2.84018e+06
2.42884e+06
2.07836e+06
1.81707e+06
1.66875e+06
1.60425e+06
1.67579e+06
1.8237e+06
2.08434e+06
2.43029e+06
2.83045e+06
3.25723e+06
3.79536e+06
4.55891e+06
6.05145e+06
7.19728e+06
1.32975e+07
1.64682e+07
1.64154e+07
1.22892e+07
6.65614e+06
5.91938e+06
4.5208e+06
3.62267e+06
3.04355e+06
2.59644e+06
2.2172e+06
1.90358e+06
1.67376e+06
1.54164e+06
1.48207e+06
1.54828e+06
1.67871e+06
1.90653e+06
2.2157e+06
2.58653e+06
3.00925e+06
3.5856e+06
4.48956e+06
5.93846e+06
6.67344e+06
1.23395e+07
1.61113e+07
1.58926e+07
1.14467e+07
6.11523e+06
5.59744e+06
4.47131e+06
3.45258e+06
2.84623e+06
2.38883e+06
2.03217e+06
1.75009e+06
1.54531e+06
1.42758e+06
1.37416e+06
1.43576e+06
1.55216e+06
1.75717e+06
2.0365e+06
2.38598e+06
2.82158e+06
3.42286e+06
4.47524e+06
5.64008e+06
6.1425e+06
1.15418e+07
1.58658e+07
1.55948e+07
1.07719e+07
5.60933e+06
5.26329e+06
4.58083e+06
3.35741e+06
2.69694e+06
2.22833e+06
1.87788e+06
1.61838e+06
1.43466e+06
1.32875e+06
1.27875e+06
1.33578e+06
1.43964e+06
1.62243e+06
1.87878e+06
2.22439e+06
2.67254e+06
3.31979e+06
4.59715e+06
5.29071e+06
5.59262e+06
1.08228e+07
1.5424e+07
1.53636e+07
1.02438e+07
5.203e+06
4.90804e+06
4.5545e+06
3.33477e+06
2.58442e+06
2.10756e+06
1.75288e+06
1.50608e+06
1.33656e+06
1.23996e+06
1.19379e+06
1.24571e+06
1.34e+06
1.50722e+06
1.75085e+06
2.10057e+06
2.56181e+06
3.32137e+06
4.58381e+06
4.92508e+06
5.13499e+06
1.0273e+07
1.51259e+07
1.49692e+07
9.74394e+06
4.80427e+06
4.52914e+06
4.32562e+06
3.40508e+06
2.50569e+06
2.00602e+06
1.65238e+06
1.40959e+06
1.24962e+06
1.16097e+06
1.11804e+06
1.16739e+06
1.25379e+06
1.41178e+06
1.65118e+06
2.00335e+06
2.50873e+06
3.44963e+06
4.32673e+06
4.54743e+06
4.82808e+06
9.83044e+06
1.4916e+07
1.47e+07
9.32149e+06
4.50821e+06
4.17125e+06
4.04962e+06
3.51578e+06
2.50612e+06
1.93135e+06
1.57901e+06
1.32893e+06
1.17466e+06
1.09024e+06
1.05004e+06
1.09636e+06
1.17746e+06
1.33042e+06
1.57389e+06
1.92393e+06
2.53026e+06
3.5452e+06
4.02833e+06
4.17983e+06
4.49257e+06
9.39143e+06
1.45768e+07
1.44919e+07
8.95618e+06
4.32073e+06
3.86493e+06
3.75914e+06
3.44682e+06
2.61482e+06
1.89113e+06
1.51469e+06
1.26716e+06
1.1134e+06
1.02961e+06
990099
1.03506e+06
1.1157e+06
1.26851e+06
1.50862e+06
1.88568e+06
2.68913e+06
3.45888e+06
3.71376e+06
3.86369e+06
4.25542e+06
8.98651e+06
1.43387e+07
1.4273e+07
8.54675e+06
4.08799e+06
3.59313e+06
3.46894e+06
3.25598e+06
2.82546e+06
1.91084e+06
1.46599e+06
1.22012e+06
1.06719e+06
979006
939322
984760
1.06891e+06
1.22154e+06
1.46309e+06
1.94338e+06
2.85589e+06
3.25349e+06
3.41546e+06
3.59703e+06
4.10898e+06
8.63623e+06
1.41542e+07
1.40893e+07
8.18779e+06
3.95144e+06
3.36669e+06
3.20973e+06
3.06082e+06
2.87667e+06
2.10202e+06
1.44737e+06
1.18047e+06
1.03152e+06
941932
898729
947328
1.03191e+06
1.18013e+06
1.44597e+06
2.10798e+06
2.81997e+06
3.03774e+06
3.1616e+06
3.36234e+06
3.93416e+06
8.24901e+06
1.398e+07
1.39273e+07
7.88112e+06
3.85147e+06
3.1861e+06
2.99557e+06
2.8612e+06
2.72762e+06
2.2926e+06
1.52689e+06
1.15184e+06
997831
911396
866583
916369
998724
1.15028e+06
1.51977e+06
2.29526e+06
2.6751e+06
2.82583e+06
2.95103e+06
3.1731e+06
3.79474e+06
7.89591e+06
1.37906e+07
1.35886e+07
7.49951e+06
3.69766e+06
3.02327e+06
2.80981e+06
2.67019e+06
2.56789e+06
2.30228e+06
1.71126e+06
1.16058e+06
969352
883432
839830
888303
972411
1.16986e+06
1.73113e+06
2.30884e+06
2.52395e+06
2.63893e+06
2.77287e+06
3.01871e+06
3.69701e+06
7.55123e+06
1.34362e+07
1.30521e+07
7.08198e+06
3.55255e+06
2.87695e+06
2.65196e+06
2.50424e+06
2.39954e+06
2.20242e+06
1.88141e+06
1.25555e+06
957865
858647
816231
863039
962503
1.26729e+06
1.87881e+06
2.20467e+06
2.36484e+06
2.47557e+06
2.6208e+06
2.87172e+06
3.54384e+06
7.10503e+06
1.28892e+07
1.15729e+07
6.47852e+06
3.3919e+06
2.72914e+06
2.50995e+06
2.35927e+06
2.2428e+06
2.08883e+06
1.89037e+06
1.45176e+06
999945
845757
800445
848842
1.00652e+06
1.45152e+06
1.86167e+06
2.0867e+06
2.21496e+06
2.33499e+06
2.48247e+06
2.72095e+06
3.3656e+06
6.46621e+06
1.14618e+07
187926
130114
119961
117842
116472
115883
116073
117242
119342
122353
126231
130986
136686
143287
150818
159328
168899
179745
192412
206946
222718
229126
194320
174803
170410
169111
168376
168034
171241
287647
140245
108410
104500
104522
104282
104819
105920
108015
110976
114729
119059
123924
129464
135507
142111
149384
157548
166706
176913
188559
201536
215312
210161
145248
118238
113737
112592
112266
113719
153007
116601
98010.8
96433.5
97340.1
97529
98735.7
100465
103321
107008
111414
116133
121069
126815
132905
139277
146105
153698
162133
170909
180183
189828
199586
207177
183503
115174
95356.8
92480.1
92038.9
93153.7
115026
109477
94544.9
93517.4
94870.5
95431.5
97193.9
99522.3
103068
107474
112606
117943
123248
128756
135242
141993
149092
156555
164508
173425
182581
191768
200794
209491
212748
170010
102075
87413.2
85786.8
86877.8
105195
108463
93941.1
93107.5
94708.1
95599.5
97925
100889
105142
110268
116088
122040
127825
133476
139787
147115
154493
162226
170218
178486
187724
197337
206260
214913
223734
222711
157033
95008.7
84975.2
85343.5
102971
108940
93882.6
93366
94958.6
96361.4
99287.3
103057
108145
114106
120666
127272
133608
139641
145983
153463
161242
169105
177119
185410
194092
203338
212887
221934
231384
240809
231564
141116
90509.3
85573.5
102690
110564
94380.5
94125.2
95868.9
98014.5
101821
106722
112862
119771
127123
134464
141435
147652
153885
161097
169129
177004
184938
192945
201090
209941
219678
229726
239598
250442
259465
235357
123965
88828.4
103282
112615
95314.1
95343.9
97535
100826
106006
112361
119766
127578
135670
143546
150771
157126
163089
169869
177587
185546
193222
201010
208920
217426
226999
237643
248597
259805
271956
278411
222518
108657
105867
114885
96502.7
96941
100026
105040
111907
119992
128870
137709
146084
154080
161127
167330
173233
179481
186446
194455
201892
209546
217371
225714
235043
245830
257791
269998
282735
295470
293613
187500
117436
117066
97833.7
98937.8
103179
109853
118540
128494
138897
148997
157950
165896
172461
178383
183714
189249
195687
203226
210666
218164
225988
234368
243631
254415
266919
280523
294181
307877
323927
300340
172570
119445
99417
101456
107162
115915
126693
138725
150659
161824
171274
178975
184849
190308
194938
198754
204973
211682
219289
226556
234406
242904
252336
263216
275925
290508
305805
320282
341729
362743
367431
121802
101352
104783
112576
123910
137088
151158
164348
176142
185913
192889
197924
202487
206272
209440
214217
220032
227475
234624
242420
250964
260672
271763
284570
299555
315826
332835
361915
441760
759079
125016
104071
109455
120049
134458
150161
165838
179862
191811
201160
206775
211122
214532
217420
219865
223105
228057
235001
242158
249844
258378
268297
279535
292454
307480
321733
345777
397580
601405
981372
128317
107794
116051
130290
147962
165781
182488
196649
207872
215773
220198
223484
225547
227378
229125
230967
235076
241366
248686
256295
264899
274925
286183
299195
313989
329734
362277
457395
845289
1.08944e+06
133562
113450
125430
143824
164566
183676
200387
213437
222900
228923
231806
233509
234144
235038
236093
237075
240442
246091
253512
261191
269929
279927
291218
304316
317872
338791
388034
573167
1.17593e+06
1.14542e+06
139158
121637
138166
160943
183835
202581
218178
228834
235607
239240
240392
240415
239913
239998
240161
240711
243490
248586
256267
264166
273011
282875
294224
307357
321358
348270
429925
779932
1.29617e+06
1.15508e+06
149116
133589
155257
181007
204242
221232
234118
241310
245056
246292
245491
243941
242433
241719
241111
241268
243301
248009
256262
264542
273591
283554
295130
308393
325529
361623
503711
1.0955e+06
1.28789e+06
1.13779e+06
158233
149078
176027
203106
224761
238837
248210
251932
252567
250758
247685
244450
242068
240787
239788
239550
240064
244442
253285
262052
271536
281905
293898
307269
328652
382531
634316
1.25668e+06
1.24916e+06
1.12384e+06
172426
168824
200060
225974
246032
257397
264227
265229
261234
254922
248994
244185
240899
239062
237457
236216
235356
239247
247636
256962
267052
278009
290618
304275
331657
422450
852802
1.28781e+06
1.20663e+06
1.10725e+06
183273
194337
228111
254671
275346
288127
294431
289807
278935
265361
255928
247926
241376
237565
233550
229726
227859
232114
239957
250028
260582
272236
285583
302009
337241
500708
1.09266e+06
1.27306e+06
1.16754e+06
1.09053e+06
201234
226345
266544
297970
335331
350574
357456
343258
320694
293706
275307
259861
247715
237419
228975
224640
222419
224324
232209
242409
253138
265531
279554
298996
350718
646542
1.17761e+06
1.2432e+06
1.12543e+06
1.07766e+06
223395
283583
339580
414634
470934
488403
487528
454814
405976
353239
317510
287148
263097
244888
233002
225763
221303
219957
226355
235879
246167
258611
273087
296712
382304
840052
1.17714e+06
1.20487e+06
1.08897e+06
1.06312e+06
273164
374289
512336
631580
709240
724184
718884
652354
555694
460485
389576
333767
293778
265096
246460
234188
225668
220512
224099
231349
240600
252289
266319
297012
445791
1.01789e+06
1.15381e+06
1.16377e+06
1.06263e+06
1.04555e+06
345191
757209
827861
919293
997528
1.04046e+06
1.04982e+06
943342
790636
624421
495707
406996
347551
302477
271712
251422
236213
226536
226171
229584
236495
246858
261203
303450
572364
1.08644e+06
1.128e+06
1.12799e+06
1.03746e+06
1.02538e+06
543954
1.92213e+06
1.51142e+06
1.23594e+06
1.30373e+06
1.36041e+06
1.42287e+06
1.34611e+06
1.1425e+06
876481
657115
520404
433562
364745
313190
280588
251720
234909
227231
229630
233874
242783
258867
323511
731372
1.09377e+06
1.10713e+06
1.09691e+06
1.01314e+06
1.00297e+06
287649
171242
168035
168377
169109
170385
174659
193537
228488
222537
206791
192257
179591
168753
159194
150699
143185
136601
130914
126172
122316
119321
117235
116077
115893
116487
117858
119977
130161
188080
153007
113719
112265
112588
113713
118050
144100
208845
214872
201186
188237
176618
166435
157301
149160
141908
135327
129306
123779
118936
114634
110902
107961
105881
104789
104258
104500
104477
108389
140241
115026
93153.3
92036.1
92464.4
95231.7
114274
181626
206467
199083
189362
179762
170524
161787
153386
145820
139018
132671
126571
120858
115959
111276
106899
103235
100397
98681
97479.2
97292.9
96388.3
97965.8
116597
105194
86875.7
85775.8
87329.5
101350
167732
211829
208877
200220
191247
182104
172996
164114
156192
148761
141694
134960
128524
123045
117769
112463
107360
102979
99451.7
97134.3
95378.5
94819.4
93469.4
94496.6
109404
102969
85335.9
84923.1
94464.3
154529
221545
223072
214270
205640
196775
187221
178018
169785
161829
154128
146786
139475
133249
127631
121867
115938
110147
105049
100814
97861.9
95545.9
94657.1
93062.6
93899.3
108389
102681
85541.9
90149.3
138751
230017
240101
230715
221248
212250
202762
193561
184917
176665
168686
160851
153112
145670
139386
133388
127070
120489
113962
108036
102978
99229.8
96318.5
94919.3
93337.9
93855.8
108934
103250
88627.8
122101
233114
258677
249788
238898
229035
219049
209359
200545
192442
184477
176578
168730
160738
153568
147406
141159
134259
126952
119620
112752
106659
101787
97997.7
95859.8
94129.2
94379.2
110505
105733
107579
219360
277556
271367
259147
247893
236982
226385
216853
208391
200526
192781
185141
177207
169512
162693
156680
150333
143195
135458
127388
119607
112302
106021
100872
97578.2
95392
95354.8
112636
116831
184409
292381
294982
282164
269327
257126
245201
234444
225150
216856
209084
201470
194077
186087
179072
172599
166924
160771
153749
145853
137610
128963
120114
112074
105228
100168
97052.7
96601.2
114955
169524
298089
323489
307447
293620
279908
266310
253810
243043
233815
225481
217707
210244
202847
195325
188389
183467
178125
172226
165689
157938
149225
139168
128776
118795
110104
103425
99132.9
98004.9
117206
361792
361819
341449
319895
305283
289954
275347
262621
251748
242350
233899
226094
218855
211274
204596
198544
194770
190153
184775
178930
171372
162142
151063
139124
127017
116214
107460
101729
99666.1
119724
753758
440411
361563
332497
315373
299030
283990
271155
260070
250396
241889
234139
227019
219581
213869
209424
206266
202499
197969
192996
186148
176586
164881
151655
137496
124277
112932
105116
101673
122175
980346
599976
397090
345438
321315
306946
291858
278919
267689
257801
249304
241670
234562
227628
222832
219976
217389
214566
211216
207333
201690
192265
180459
166397
150659
134926
120485
109836
104454
125533
1.09011e+06
845451
456720
361880
329315
313459
298596
285580
274337
264345
255783
248232
240991
234746
230843
229212
227473
225579
223951
221119
216750
208440
197223
183070
166365
148551
130832
116486
108251
128980
1.14726e+06
1.17987e+06
572651
387636
338393
317465
303746
290663
279394
269428
260732
253112
245820
240243
237157
236194
235520
234891
234254
232803
229930
223672
214013
200906
184294
165268
144501
126004
113949
134215
1.15793e+06
1.30247e+06
781078
429673
347895
320872
306843
293724
282399
272562
263753
255895
248426
243413
240999
240326
240562
240708
241323
241421
240082
236237
229447
218737
203253
184678
161826
138895
122100
139743
1.14108e+06
1.29449e+06
1.10008e+06
504073
361246
325095
307948
294682
283122
273179
264174
255925
247965
243386
241697
241646
242491
243214
244885
246507
247005
245615
241999
234978
222305
205375
182241
156057
134063
149564
1.12752e+06
1.25555e+06
1.26098e+06
635869
382312
328271
306892
293470
281469
271119
261727
253008
244495
240295
240254
240731
241890
243128
245676
248715
251408
253117
252706
249378
240170
226157
204630
177309
149873
158767
1.11217e+06
1.21176e+06
1.29192e+06
856791
422656
331295
303805
290159
277543
266633
256678
247518
239254
235707
236920
238506
240330
242271
245660
250079
255723
262006
266288
265861
259174
247838
227799
201781
170028
173039
1.09334e+06
1.17236e+06
1.27737e+06
1.09812e+06
502007
336916
301569
285107
271793
260239
249836
240110
231898
228585
230136
234125
238683
242701
249388
256976
266801
280610
292088
297560
290932
278687
257083
229955
195932
184324
1.08002e+06
1.12974e+06
1.24737e+06
1.18177e+06
650411
350656
298587
279097
265196
252978
242373
232581
225005
223497
225708
230620
238620
248768
261621
276250
295515
324537
348352
364290
356794
340997
301137
269461
228398
202513
1.06504e+06
1.09261e+06
1.20883e+06
1.18097e+06
846332
382975
296351
272676
258386
246141
236021
226917
221094
222787
227358
235213
247032
264984
290304
318738
355992
412394
463738
499362
499598
484416
423176
343660
287237
225042
1.04712e+06
1.06513e+06
1.16705e+06
1.15759e+06
1.02502e+06
448357
296823
265863
252153
240625
231583
224662
221876
227282
236179
249046
268348
296762
338965
391888
464880
565904
664833
735727
735087
720751
649065
526381
380878
276397
1.02675e+06
1.03993e+06
1.13064e+06
1.13126e+06
1.09067e+06
578652
303682
261327
246834
236603
229941
226569
227527
237957
254018
274869
306498
350542
414230
499519
632858
810245
970951
1.07301e+06
1.05267e+06
1.00234e+06
930235
847217
772780
350406
1.00427e+06
1.01542e+06
1.0989e+06
1.11004e+06
1.09696e+06
739471
324726
259056
242870
234277
230198
228670
236403
253585
283342
316395
369030
435981
528955
660592
882524
1.1606e+06
1.37581e+06
1.44873e+06
1.37933e+06
1.32089e+06
1.25446e+06
1.54948e+06
1.94907e+06
550708
101066
101068
101075
101083
101090
101097
101105
101112
101119
101126
101134
101141
101148
101156
101163
101170
101177
101185
101192
101199
101206
101214
101221
101228
101235
101243
101250
101257
101264
101271
101279
101286
101293
101300
101307
101314
101322
101329
101336
101343
101350
101357
101364
101371
101380
101422
102518
178057
2.43561e+06
7.37206e+06
1.03641e+07
1.05091e+07
1.02122e+07
9.73987e+06
9.066e+06
8.27224e+06
7.54261e+06
6.9308e+06
6.45671e+06
6.09405e+06
5.85324e+06
5.65148e+06
5.4691e+06
5.30274e+06
5.128e+06
4.92955e+06
4.7037e+06
4.45527e+06
4.19089e+06
3.91662e+06
3.63241e+06
3.34731e+06
3.07652e+06
2.82714e+06
2.6025e+06
2.40451e+06
2.23271e+06
2.08351e+06
1.95202e+06
1.83353e+06
1.72496e+06
1.62475e+06
1.53285e+06
1.4488e+06
1.37152e+06
1.30062e+06
1.23556e+06
1.1758e+06
1.12115e+06
1.07109e+06
1.02495e+06
981938
944210
910992
881991
856777
834733
815271
798078
783394
771652
762464
755183
749470
745249
742408
740864
740595
741742
744317
748311
753810
760887
769602
779879
791726
805331
820973
838864
859087
881511
905621
930345
954976
979502
84680.1
84677.6
84677.9
84678.3
84678.8
84679.2
84679.6
84679.9
84680.3
84680.6
84680.9
84681.2
84681.4
84681.6
84681.8
84682
84682.2
84682.3
84682.4
84682.5
84682.5
84682.5
84682.6
84682.5
84682.5
84682.5
84682.4
84682.3
84682.2
84682
84681.8
84681.7
84681.5
84681.2
84681
84680.7
84680.4
84680.1
84679.8
84679.4
84679
84678.7
84678.3
84678.7
84699.3
86188.3
222143
2.52696e+06
7.25991e+06
8.92917e+06
9.16349e+06
9.60631e+06
1.03799e+07
1.15173e+07
1.12538e+07
1.05538e+07
9.83808e+06
9.16585e+06
8.55381e+06
7.97631e+06
7.41725e+06
6.90772e+06
6.46006e+06
6.05267e+06
5.67358e+06
5.33118e+06
5.01332e+06
4.71367e+06
4.42395e+06
4.15457e+06
3.91013e+06
3.68331e+06
3.46459e+06
3.25187e+06
3.04728e+06
2.85361e+06
2.67383e+06
2.50896e+06
2.35804e+06
2.22136e+06
2.09775e+06
1.98502e+06
1.88225e+06
1.78769e+06
1.69961e+06
1.61731e+06
1.54162e+06
1.47278e+06
1.41039e+06
1.35274e+06
1.29935e+06
1.24936e+06
1.20216e+06
1.16006e+06
1.12241e+06
1.08848e+06
1.05806e+06
1.03094e+06
1.00633e+06
984282
964582
946693
930368
915464
902229
890683
880668
871934
864580
858510
853986
851367
850857
852486
856073
861818
869659
878567
889218
902639
918567
936324
954340
972869
992502
83144.9
83143.4
83142.6
83141.9
83141.2
83140.4
83139.7
83139
83138.3
83137.5
83136.8
83136.1
83135.3
83134.6
83133.8
83133.1
83132.4
83131.6
83130.9
83130.1
83129.4
83128.6
83127.9
83127.1
83126.4
83125.6
83124.9
83124.1
83123.4
83122.6
83121.8
83121.1
83120.3
83119.6
83118.8
83118
83117.3
83116.5
83115.7
83115
83114.2
83113.5
83113.3
83133.6
85167.5
285906
3.26391e+06
7.15239e+06
7.24128e+06
6.32595e+06
5.66065e+06
5.25542e+06
5.17811e+06
5.52545e+06
6.31767e+06
7.59091e+06
9.40786e+06
1.15402e+07
1.24011e+07
1.25963e+07
1.24888e+07
1.20999e+07
1.14555e+07
1.06426e+07
9.84151e+06
9.07726e+06
8.37214e+06
7.74807e+06
7.1792e+06
6.6442e+06
6.13372e+06
5.64983e+06
5.1921e+06
4.76106e+06
4.36393e+06
4.00454e+06
3.68431e+06
3.39988e+06
3.14319e+06
2.91268e+06
2.71045e+06
2.53296e+06
2.37568e+06
2.2341e+06
2.10591e+06
1.99028e+06
1.88586e+06
1.79163e+06
1.70749e+06
1.63237e+06
1.56522e+06
1.50394e+06
1.44704e+06
1.3942e+06
1.34699e+06
1.30415e+06
1.26543e+06
1.2306e+06
1.1984e+06
1.16932e+06
1.14336e+06
1.11955e+06