/*--------------------------------*- C++ -*----------------------------------*\
| =========                 |                                                 |
| \\      /  F ield         | OpenFOAM: The Open Source CFD Toolbox           |
|  \\    /   O peration     | Version:  2112                                  |
|   \\  /    A nd           | Website:  www.openfoam.com                      |
|    \\/     M anipulation  |                                                 |
\*---------------------------------------------------------------------------*/
FoamFile
{
    version     2.0;
    format      ascii;
    arch        "LSB;label=32;scalar=64";
    class       volScalarField;
    location    "0.00069";
    object      nut;
}
// * * * * * * * * * * * * * * * * * * * * * * * * * * * * * * * * * * * * * //

dimensions      [0 2 -1 0 0 0 0];

internalField   nonuniform List<scalar> 
13875
(
0.0512063
0.0366037
0.034437
0.0342426
0.0342723
0.0342921
0.03434
0.0343178
0.0342742
0.0342774
0.034306
0.0343175
0.0343276
0.0343199
0.03429
0.0342865
0.0342918
0.0342943
0.0343165
0.03429
0.0342684
0.0342434
0.0344532
0.0366495
0.0513981
0.0533097
0.034117
0.0322932
0.0320348
0.0320279
0.0320415
0.0320778
0.0320438
0.0319896
0.0320023
0.0320361
0.0320409
0.0320565
0.0320614
0.0320428
0.0320338
0.0320272
0.0320388
0.0320597
0.032051
0.0320552
0.0320663
0.0323342
0.0341526
0.0535356
0.0565401
0.0335818
0.0318803
0.0315309
0.0315247
0.0315357
0.0315628
0.0315139
0.0314164
0.0314695
0.0314917
0.0315136
0.0315195
0.0315267
0.0314879
0.0314724
0.0314971
0.0315209
0.0315507
0.0315608
0.0315771
0.0315881
0.0319471
0.0336194
0.0564317
0.0591861
0.0332729
0.0315706
0.0312199
0.0312151
0.0312253
0.0312464
0.0311949
0.031099
0.0311505
0.031179
0.031197
0.0312025
0.0312136
0.0311679
0.0311463
0.0311736
0.0311963
0.0312282
0.0312448
0.0312623
0.0312741
0.0316402
0.0332978
0.0590244
0.0612921
0.0330613
0.0313316
0.0309534
0.0309356
0.0309437
0.0309593
0.0309052
0.0308147
0.030864
0.0308958
0.0309116
0.0309169
0.0309301
0.030886
0.0308594
0.0308831
0.0309021
0.0309373
0.0309588
0.030982
0.0310114
0.0314067
0.0330729
0.0612185
0.0630399
0.032932
0.0311818
0.0307321
0.0307046
0.0307035
0.0307049
0.0306455
0.030562
0.0306072
0.0306413
0.0306577
0.0306633
0.0306759
0.0306354
0.0306024
0.0306231
0.0306472
0.0306868
0.0307147
0.0307508
0.0308028
0.0312845
0.0330616
0.0632095
0.0651217
0.0331941
0.0312111
0.0306096
0.0305333
0.0305056
0.0304876
0.0304197
0.0303448
0.0303859
0.0304207
0.0304389
0.0304456
0.0304555
0.0304148
0.0303787
0.0303981
0.0304292
0.0304734
0.0305156
0.0305948
0.0307413
0.0314506
0.0335071
0.065511
0.0675696
0.0341721
0.0315741
0.0306615
0.030474
0.0303872
0.0303299
0.0302474
0.0301761
0.0302103
0.0302481
0.0302681
0.030276
0.0302843
0.0302426
0.0302016
0.030218
0.0302581
0.0303209
0.0304033
0.0305538
0.0308488
0.0319893
0.0349737
0.0693151
0.0742697
0.0366513
0.0322518
0.0309221
0.0305323
0.0303564
0.0302551
0.0301506
0.0300812
0.030111
0.0301543
0.0301743
0.0301821
0.0301902
0.0301466
0.030094
0.0301076
0.0301613
0.0302504
0.0303852
0.030664
0.031282
0.0331356
0.0386069
0.0757348
0.0840153
0.0391825
0.0331202
0.0313908
0.0307672
0.0304742
0.0303103
0.0301893
0.0301277
0.0301544
0.0301999
0.0302138
0.0302209
0.0302265
0.0301889
0.0301302
0.0301322
0.0301856
0.0302994
0.0305163
0.0309435
0.0318913
0.0346093
0.0443309
0.0900655
0.0920578
0.0448768
0.0349251
0.0325646
0.0313452
0.0308414
0.0306146
0.0304689
0.0304112
0.0304309
0.030472
0.0304769
0.0304825
0.0304827
0.0304589
0.0304038
0.030394
0.0304459
0.0305881
0.0309025
0.0316156
0.0333626
0.0386118
0.0539446
0.0971085
0.0949632
0.0574541
0.0432534
0.0353279
0.0329302
0.0319082
0.0314368
0.0312413
0.0311579
0.031154
0.0311741
0.0311674
0.0311688
0.0311659
0.0311614
0.0311218
0.0311224
0.0311956
0.0314192
0.0320116
0.0329039
0.0373061
0.0471762
0.0688333
0.0905451
0.0865179
0.0648783
0.0670058
0.0449209
0.0373028
0.0342292
0.0335778
0.0332203
0.0331423
0.0331056
0.0330996
0.0330836
0.0330786
0.0330772
0.033088
0.0330701
0.0330888
0.0331487
0.0335211
0.03458
0.0384855
0.0480798
0.0705566
0.0679199
0.0837094
0.0790647
0.0643134
0.06582
0.07377
0.0489286
0.0437213
0.042604
0.0409998
0.0401579
0.0399005
0.0396922
0.0396337
0.0399052
0.039779
0.0395791
0.039602
0.0397872
0.0403704
0.0417046
0.0438099
0.0570322
0.0628737
0.0675292
0.0667909
0.0793978
0.0746054
0.0645186
0.0637919
0.06816
0.0607971
0.0570841
0.0597672
0.0616009
0.0580763
0.0566195
0.055714
0.0556948
0.0569364
0.056277
0.0550268
0.0548946
0.0555785
0.0592841
0.0598655
0.0605421
0.0646777
0.0633239
0.0658226
0.065787
0.073299
0.067138
0.0652978
0.0662806
0.0691687
0.0682989
0.0777161
0.0843011
0.0771368
0.0736635
0.0757865
0.0794121
0.0841518
0.0884744
0.0864405
0.0815552
0.0773595
0.0743224
0.0760132
0.0899268
0.0845822
0.0736815
0.066354
0.0667363
0.0645297
0.0665084
0.0652894
0.0685138
0.0710326
0.0742939
0.0764791
0.0807729
0.0823161
0.0740024
0.0714438
0.0765126
0.0839552
0.0961989
0.115245
0.108388
0.0899542
0.0803595
0.0737154
0.0740625
0.0917212
0.087557
0.0821924
0.0740537
0.0694675
0.0647927
0.0653746
0.0623284
0.0754327
0.0753923
0.0727791
0.072942
0.0732468
0.0767207
0.074385
0.0732933
0.0811244
0.0947852
0.118221
0.145543
0.131669
0.102593
0.0859716
0.0766857
0.0774203
0.0864416
0.0793693
0.0776163
0.0732759
0.0712289
0.0687872
0.062419
0.0568441
0.0770359
0.0763938
0.0718727
0.069114
0.0678443
0.0714054
0.0737744
0.0756188
0.0846922
0.103938
0.138053
0.173875
0.158784
0.117398
0.0924898
0.0813694
0.0802134
0.0794726
0.0717124
0.0706556
0.0687243
0.0683264
0.0689821
0.0582121
0.0553694
0.0735271
0.0726612
0.0696194
0.0668782
0.0650819
0.0675754
0.0717798
0.0761592
0.0870994
0.112058
0.157802
0.201819
0.178088
0.126299
0.0956274
0.0828532
0.0781792
0.0728259
0.066484
0.0655103
0.0643307
0.0641155
0.0650359
0.0554136
0.0677715
0.0720594
0.0704339
0.0673815
0.0648318
0.0628837
0.064865
0.069605
0.0758002
0.0895177
0.121485
0.179752
0.230038
0.196093
0.134111
0.0975193
0.082047
0.0748751
0.0682503
0.062889
0.0620617
0.0615316
0.0620744
0.06536
0.0642389
0.0841665
0.083041
0.0694345
0.0658219
0.0631655
0.0610779
0.0628179
0.0676896
0.0754279
0.0924856
0.132225
0.202175
0.257637
0.216044
0.143897
0.100117
0.0810168
0.0719074
0.0650925
0.0604354
0.0596643
0.0596623
0.0611155
0.0748642
0.0796798
0.098129
0.0949481
0.0691814
0.0643116
0.0615594
0.0594556
0.0612819
0.0664818
0.0759696
0.0971
0.145268
0.225051
0.284404
0.239102
0.157622
0.105049
0.0811733
0.0699973
0.0628306
0.0585805
0.0578379
0.0581704
0.061119
0.085525
0.0946132
0.110313
0.105281
0.0686896
0.0632739
0.0600156
0.0583453
0.0604653
0.0664162
0.0785194
0.105241
0.163168
0.251331
0.310418
0.261931
0.173608
0.112337
0.0830084
0.0692596
0.0613516
0.0574055
0.0568124
0.0578317
0.0614691
0.0966422
0.105693
0.118467
0.117533
0.0696465
0.0630893
0.0596678
0.0585964
0.0611563
0.068245
0.0832226
0.116029
0.183569
0.277626
0.334828
0.285554
0.192535
0.122678
0.0868484
0.070241
0.0615838
0.0575597
0.0568882
0.0584665
0.0633018
0.110707
0.115475
0.130791
0.131711
0.0728634
0.0643226
0.0612966
0.0609124
0.0642654
0.0730763
0.09158
0.130694
0.205842
0.303249
0.358274
0.310641
0.215351
0.137761
0.0954283
0.0748263
0.0645461
0.0598853
0.0588314
0.0603271
0.0667901
0.123158
0.130534
0.14751
0.142303
0.0780088
0.0683505
0.0660158
0.0665947
0.0712342
0.0826187
0.10586
0.152041
0.233019
0.329706
0.380758
0.335232
0.239097
0.156221
0.107965
0.0831536
0.0707981
0.0651729
0.0635401
0.0646841
0.0726702
0.13603
0.145594
0.163105
0.156017
0.0870999
0.076691
0.0749517
0.0766581
0.0828409
0.0968985
0.124675
0.176643
0.26083
0.355468
0.403734
0.360622
0.267476
0.181421
0.127127
0.097403
0.0822272
0.0750564
0.0723089
0.0729819
0.0825684
0.15143
0.163122
0.180506
0.176392
0.10242
0.0916578
0.0896289
0.0926823
0.100809
0.117584
0.149506
0.205869
0.290892
0.381962
0.427309
0.387439
0.299292
0.212636
0.15337
0.118808
0.1004
0.0909897
0.086693
0.0877207
0.0987528
0.171778
0.181928
0.200071
0.203764
0.127243
0.116989
0.113489
0.116838
0.127028
0.147134
0.183193
0.242978
0.326658
0.411305
0.452162
0.414966
0.331549
0.246576
0.184639
0.146588
0.125101
0.11374
0.109364
0.112783
0.124851
0.204242
0.199636
0.215686
0.244762
0.167987
0.157101
0.150715
0.15124
0.16154
0.183686
0.22228
0.283072
0.363404
0.441841
0.479531
0.445647
0.369201
0.287964
0.22479
0.183788
0.159691
0.147419
0.145085
0.152327
0.165962
0.246496
0.219262
0.231757
0.30144
0.22823
0.219227
0.207148
0.200942
0.207011
0.228682
0.268315
0.3284
0.403948
0.475561
0.509945
0.479482
0.410408
0.334416
0.271949
0.229501
0.205106
0.196181
0.200255
0.213319
0.22684
0.304638
0.2362
0.25025
0.368884
0.306017
0.306573
0.291591
0.270256
0.26797
0.285664
0.32284
0.380492
0.450245
0.51413
0.54459
0.517001
0.454692
0.384504
0.324853
0.284941
0.264548
0.264259
0.284129
0.299774
0.305038
0.377916
0.25175
0.264065
0.451038
0.40163
0.413836
0.409961
0.370661
0.349386
0.355631
0.385982
0.437855
0.500675
0.557551
0.584811
0.560603
0.505596
0.442608
0.388712
0.354832
0.344976
0.362562
0.401789
0.407817
0.402018
0.462833
0.267943
0.276444
0.537583
0.518178
0.533233
0.55391
0.513542
0.45631
0.443766
0.462266
0.503789
0.557982
0.607496
0.631537
0.610497
0.562904
0.508715
0.46525
0.443368
0.451824
0.505762
0.547219
0.528482
0.52194
0.556855
0.279839
0.291884
0.634362
0.654711
0.674932
0.704415
0.691438
0.606559
0.5538
0.554253
0.58175
0.624938
0.666151
0.686426
0.668396
0.628236
0.58486
0.555959
0.554008
0.605829
0.686323
0.696646
0.671237
0.658151
0.646929
0.291848
0.302495
0.721367
0.793204
0.832063
0.862206
0.878767
0.811071
0.699414
0.665316
0.674453
0.702669
0.734073
0.750859
0.736772
0.706892
0.677907
0.666294
0.701864
0.81125
0.876042
0.859378
0.832882
0.803309
0.738751
0.304362
0.308789
0.785145
0.918535
0.98967
1.02997
1.05465
1.03738
0.901604
0.801855
0.784493
0.797816
0.819185
0.830557
0.822114
0.80273
0.788217
0.804076
0.911272
1.03936
1.0531
1.03193
0.995088
0.93502
0.806762
0.310279
0.315595
0.847469
1.03416
1.13994
1.19951
1.2295
1.2316
1.14636
0.980975
0.911925
0.908788
0.921216
0.92904
0.923554
0.913343
0.916096
0.989269
1.15724
1.2301
1.22713
1.20016
1.14338
1.04235
0.851299
0.315538
0.319596
0.897136
1.12798
1.27219
1.35619
1.39804
1.41236
1.3843
1.22047
1.06921
1.03689
1.04045
1.04538
1.04262
1.04107
1.07092
1.21922
1.38577
1.41107
1.39739
1.35944
1.27816
1.14154
0.912306
0.320806
0.322279
0.946333
1.21398
1.38757
1.49746
1.55791
1.58266
1.57142
1.47501
1.2704
1.18565
1.17678
1.17827
1.17909
1.18954
1.26963
1.47418
1.57251
1.58256
1.55962
1.50441
1.39808
1.23184
0.967806
0.32359
0.325923
1.01991
1.30909
1.50129
1.63009
1.70728
1.74382
1.74872
1.71249
1.50839
1.36051
1.33236
1.32983
1.33446
1.36718
1.51291
1.71499
1.75043
1.74361
1.70804
1.63445
1.50789
1.31748
1.01949
0.325557
0.32725
1.07919
1.39352
1.60321
1.74946
1.84507
1.89608
1.91881
1.91314
1.7809
1.57362
1.50866
1.50038
1.51028
1.57594
1.78142
1.9177
1.92363
1.89898
1.84893
1.75724
1.61452
1.407
1.08954
0.32815
0.329299
1.11538
1.4621
1.68993
1.85535
1.97074
2.04097
2.08079
2.09781
2.0661
1.83543
1.71182
1.6925
1.71312
1.83666
2.06655
2.10205
2.087
2.04582
1.97719
1.86581
1.70484
1.47909
1.13483
0.330394
0.333895
1.14638
1.51338
1.76113
1.94312
2.07698
2.16504
2.22344
2.26359
2.28587
2.15754
1.97064
1.9308
1.97407
2.16071
2.28497
2.26464
2.22707
2.16819
2.08115
1.94922
1.76951
1.52057
1.14707
0.333041
0.338449
1.13916
1.53013
1.79765
1.99247
2.14113
2.24643
2.32153
2.37915
2.41809
2.41171
2.26439
2.21269
2.26561
2.41221
2.41819
2.3807
2.32406
2.24953
2.14683
1.99896
1.80456
1.53693
1.13898
0.338118
0.343055
1.10183
1.50941
1.79156
1.99911
2.15582
2.27208
2.36046
2.43108
2.48743
2.51276
2.44375
2.4029
2.44357
2.51458
2.48993
2.434
2.36345
2.2757
2.16087
2.00508
1.79628
1.51427
1.10053
0.343645
0.346466
1.0515
1.45334
1.74027
1.95079
2.11363
2.23981
2.33919
2.4193
2.48227
2.49253
2.45712
2.43719
2.45711
2.49323
2.48153
2.41966
2.33949
2.24036
2.11418
1.95142
1.73902
1.45225
1.04571
0.345891
0.350146
0.998963
1.35783
1.64553
1.85622
2.02875
2.16043
2.2639
2.34236
2.39724
2.39248
2.3517
2.3356
2.35092
2.39228
2.39602
2.34229
2.26384
2.16024
2.02825
1.85517
1.64402
1.35626
0.995529
0.35015
0.348597
0.944691
1.23681
1.51091
1.71965
1.89057
2.02249
2.1256
2.2001
2.2409
2.2194
2.18176
2.16768
2.18054
2.21822
2.23967
2.19996
2.12591
2.02243
1.89028
1.71924
1.51058
1.23641
0.944218
0.349045
0.138567
0.310344
0.337355
0.338958
0.338774
0.338509
0.338345
0.338245
0.338179
0.338127
0.338082
0.338039
0.337996
0.337954
0.337912
0.337871
0.33783
0.337789
0.337749
0.337709
0.337669
0.33763
0.337591
0.337552
0.337514
0.337475
0.337427
0.337013
0.325788
0.157237
0.123461
0.310023
0.335041
0.336004
0.335773
0.335481
0.335308
0.335209
0.335149
0.335108
0.335074
0.335043
0.335013
0.334984
0.334956
0.334929
0.334903
0.334878
0.334853
0.334829
0.334805
0.334782
0.33476
0.334738
0.334717
0.334695
0.334656
0.334026
0.318591
0.149747
0.128984
0.313796
0.334294
0.334889
0.334654
0.334358
0.334198
0.334119
0.334082
0.334064
0.334052
0.334043
0.334035
0.334027
0.33402
0.334013
0.334006
0.333999
0.333993
0.333987
0.333982
0.333976
0.333971
0.333966
0.33396
0.333954
0.33393
0.333253
0.317019
0.147569
0.132713
0.313376
0.33405
0.334672
0.33444
0.334129
0.333972
0.3339
0.333871
0.33386
0.333856
0.333855
0.333853
0.333852
0.333851
0.33385
0.333849
0.333848
0.333847
0.333846
0.333845
0.333844
0.333843
0.333842
0.333841
0.333839
0.333818
0.33312
0.316566
0.14616
0.132602
0.312375
0.333977
0.334641
0.334418
0.334096
0.33394
0.33387
0.333842
0.333833
0.333831
0.33383
0.33383
0.33383
0.33383
0.33383
0.33383
0.33383
0.333829
0.333829
0.333829
0.333829
0.333829
0.333829
0.333828
0.333827
0.333806
0.333084
0.316216
0.144916
0.132318
0.312195
0.33399
0.334624
0.334409
0.334087
0.333934
0.333865
0.333838
0.33383
0.333828
0.333828
0.333828
0.333828
0.333828
0.333828
0.333828
0.333828
0.333828
0.333828
0.333828
0.333828
0.333828
0.333828
0.333827
0.333826
0.333804
0.333057
0.315858
0.143732
0.13238
0.312344
0.334002
0.334595
0.334396
0.334075
0.333929
0.333861
0.333837
0.33383
0.333828
0.333828
0.333828
0.333828
0.333828
0.333828
0.333828
0.333828
0.333828
0.333828
0.333828
0.333828
0.333828
0.333828
0.333827
0.333827
0.333803
0.333031
0.315505
0.142611
0.132864
0.312513
0.334009
0.334544
0.334372
0.334058
0.333919
0.333857
0.333836
0.333829
0.333828
0.333828
0.333828
0.333828
0.333828
0.333828
0.333828
0.333828
0.333828
0.333828
0.333828
0.333828
0.333828
0.333828
0.333828
0.333827
0.333803
0.333007
0.315178
0.141574
0.13337
0.312578
0.333992
0.334471
0.334333
0.334033
0.33391
0.333854
0.333835
0.333829
0.333828
0.333828
0.333828
0.333828
0.333828
0.333828
0.333828
0.333828
0.333828
0.333828
0.333828
0.333828
0.333828
0.333828
0.333828
0.333827
0.333802
0.332986
0.314879
0.140632
0.133695
0.312512
0.333929
0.334402
0.33429
0.334016
0.333904
0.333852
0.333834
0.333829
0.333828
0.333828
0.333828
0.333828
0.333828
0.333828
0.333828
0.333828
0.333828
0.333828
0.333828
0.333828
0.333828
0.333828
0.333828
0.333827
0.333802
0.332967
0.314606
0.139781
0.133833
0.312455
0.333832
0.33435
0.334252
0.334002
0.333898
0.33385
0.333833
0.333829
0.333828
0.333828
0.333828
0.333828
0.333828
0.333828
0.333828
0.333828
0.333828
0.333828
0.333828
0.333828
0.333828
0.333828
0.333828
0.333827
0.333801
0.332949
0.314354
0.139009
0.133852
0.312453
0.33374
0.334307
0.334217
0.333988
0.333892
0.333848
0.333833
0.333829
0.333828
0.333828
0.333828
0.333828
0.333828
0.333828
0.333828
0.333828
0.333828
0.333828
0.333828
0.333828
0.333828
0.333828
0.333828
0.333827
0.3338
0.332932
0.314119
0.138306
0.133811
0.31246
0.333654
0.334265
0.334183
0.333975
0.333887
0.333846
0.333832
0.333829
0.333828
0.333828
0.333828
0.333828
0.333828
0.333828
0.333828
0.333828
0.333828
0.333828
0.333828
0.333828
0.333828
0.333828
0.333828
0.333827
0.3338
0.332916
0.313902
0.137666
0.133721
0.312492
0.333575
0.334224
0.334151
0.333962
0.333882
0.333844
0.333832
0.333828
0.333828
0.333828
0.333828
0.333828
0.333828
0.333828
0.333828
0.333828
0.333828
0.333828
0.333828
0.333828
0.333828
0.333828
0.333828
0.333827
0.333799
0.332901
0.313702
0.137082
0.133732
0.31248
0.333497
0.334183
0.334119
0.333949
0.333877
0.333843
0.333831
0.333828
0.333828
0.333828
0.333828
0.333828
0.333828
0.333828
0.333828
0.333828
0.333828
0.333828
0.333828
0.333828
0.333828
0.333828
0.333828
0.333827
0.333798
0.332887
0.313522
0.136557
0.133657
0.312477
0.333424
0.334143
0.33409
0.333937
0.333872
0.333841
0.333831
0.333828
0.333828
0.333828
0.333828
0.333828
0.333828
0.333828
0.333828
0.333828
0.333828
0.333828
0.333828
0.333828
0.333828
0.333828
0.333828
0.333827
0.333798
0.332875
0.31336
0.136085
0.133621
0.312487
0.333355
0.334105
0.334061
0.333925
0.333867
0.33384
0.33383
0.333828
0.333828
0.333828
0.333828
0.333828
0.333828
0.333828
0.333828
0.333828
0.333828
0.333828
0.333828
0.333828
0.333828
0.333828
0.333828
0.333827
0.333798
0.332864
0.313214
0.135663
0.133617
0.312468
0.333284
0.334065
0.334032
0.333913
0.333862
0.333838
0.33383
0.333828
0.333828
0.333828
0.333828
0.333828
0.333828
0.333828
0.333828
0.333828
0.333828
0.333828
0.333828
0.333828
0.333828
0.333828
0.333828
0.333827
0.333797
0.332854
0.313088
0.135293
0.133576
0.312471
0.333214
0.334023
0.334003
0.333901
0.333857
0.333837
0.33383
0.333828
0.333828
0.333828
0.333828
0.333828
0.333828
0.333828
0.333828
0.333828
0.333828
0.333828
0.333828
0.333828
0.333828
0.333828
0.333828
0.333827
0.333797
0.332846
0.312976
0.134969
0.133585
0.312477
0.333146
0.333977
0.333971
0.333887
0.333852
0.333835
0.333829
0.333828
0.333828
0.333828
0.333828
0.333828
0.333828
0.333828
0.333828
0.333828
0.333828
0.333828
0.333828
0.333828
0.333828
0.333828
0.333828
0.333827
0.333797
0.332839
0.312882
0.134689
0.133609
0.312479
0.333087
0.333931
0.333939
0.333873
0.333846
0.333833
0.333829
0.333828
0.333828
0.333828
0.333828
0.333828
0.333828
0.333828
0.333828
0.333828
0.333828
0.333828
0.333828
0.333828
0.333828
0.333828
0.333828
0.333827
0.333796
0.332833
0.312804
0.134452
0.133646
0.312508
0.333045
0.33389
0.333909
0.333858
0.33384
0.333831
0.333828
0.333828
0.333828
0.333828
0.333828
0.333828
0.333828
0.333828
0.333828
0.333828
0.333828
0.333828
0.333828
0.333828
0.333828
0.333828
0.333828
0.333827
0.333796
0.332828
0.312738
0.134255
0.133907
0.31261
0.333018
0.333855
0.333884
0.333844
0.333834
0.333829
0.333828
0.333828
0.333828
0.333828
0.333828
0.333828
0.333828
0.333828
0.333828
0.333828
0.333828
0.333828
0.333828
0.333828
0.333828
0.333828
0.333828
0.333827
0.333796
0.332824
0.312689
0.134096
0.138494
0.314551
0.333129
0.333833
0.333863
0.333833
0.333829
0.333828
0.333828
0.333828
0.333828
0.333828
0.333828
0.333828
0.333828
0.333828
0.333828
0.333828
0.333828
0.333828
0.333828
0.333828
0.333828
0.333828
0.333828
0.333827
0.333796
0.332822
0.312653
0.133974
0.138886
0.213982
0.329412
0.333682
0.33385
0.333824
0.333825
0.333826
0.333827
0.333828
0.333828
0.333828
0.333828
0.333828
0.333828
0.333828
0.333828
0.333828
0.333828
0.333828
0.333828
0.333828
0.333828
0.333828
0.333828
0.333827
0.333796
0.332821
0.312631
0.133884
0.157237
0.325788
0.337013
0.337427
0.337475
0.337514
0.337553
0.337591
0.33763
0.33767
0.337709
0.337749
0.33779
0.337831
0.337872
0.337913
0.337955
0.337997
0.33804
0.338083
0.338129
0.33818
0.338247
0.338346
0.338511
0.338775
0.338959
0.337355
0.310331
0.138531
0.149746
0.31859
0.334026
0.334656
0.334695
0.334717
0.334738
0.33476
0.334782
0.334805
0.334829
0.334853
0.334878
0.334903
0.334929
0.334956
0.334984
0.335013
0.335043
0.335074
0.335108
0.335149
0.335209
0.335308
0.335481
0.335773
0.336004
0.335042
0.310027
0.123479
0.147567
0.317018
0.333253
0.33393
0.333954
0.33396
0.333966
0.333971
0.333976
0.333982
0.333987
0.333993
0.333999
0.334006
0.334013
0.33402
0.334027
0.334035
0.334043
0.334052
0.334064
0.334082
0.334119
0.334198
0.334358
0.334654
0.334889
0.334295
0.3138
0.128951
0.146159
0.316566
0.33312
0.333818
0.333839
0.333841
0.333842
0.333843
0.333844
0.333845
0.333846
0.333847
0.333848
0.333849
0.33385
0.333851
0.333852
0.333853
0.333855
0.333856
0.33386
0.333871
0.3339
0.333972
0.334129
0.33444
0.334672
0.334052
0.313388
0.132761
0.144917
0.316217
0.333084
0.333806
0.333827
0.333828
0.333829
0.333829
0.333829
0.333829
0.333829
0.333829
0.33383
0.33383
0.33383
0.33383
0.33383
0.33383
0.33383
0.333831
0.333833
0.333842
0.33387
0.33394
0.334096
0.334418
0.334641
0.333976
0.312356
0.132622
0.143731
0.315856
0.333057
0.333804
0.333826
0.333827
0.333828
0.333828
0.333828
0.333828
0.333828
0.333828
0.333828
0.333828
0.333828
0.333828
0.333828
0.333828
0.333828
0.333828
0.33383
0.333838
0.333865
0.333934
0.334087
0.334409
0.334624
0.33399
0.312206
0.132251
0.142611
0.315507
0.333031
0.333803
0.333827
0.333827
0.333828
0.333828
0.333828
0.333828
0.333828
0.333828
0.333828
0.333828
0.333828
0.333828
0.333828
0.333828
0.333828
0.333828
0.33383
0.333837
0.333861
0.333929
0.334075
0.334396
0.334595
0.334003
0.312346
0.13247
0.141575
0.315178
0.333007
0.333803
0.333827
0.333828
0.333828
0.333828
0.333828
0.333828
0.333828
0.333828
0.333828
0.333828
0.333828
0.333828
0.333828
0.333828
0.333828
0.333828
0.333829
0.333836
0.333857
0.333919
0.334058
0.334373
0.334544
0.334008
0.312502
0.132816
0.140632
0.314879
0.332986
0.333802
0.333827
0.333828
0.333828
0.333828
0.333828
0.333828
0.333828
0.333828
0.333828
0.333828
0.333828
0.333828
0.333828
0.333828
0.333828
0.333828
0.333829
0.333835
0.333854
0.33391
0.334033
0.334333
0.334471
0.333993
0.312588
0.133376
0.139781
0.314607
0.332967
0.333802
0.333827
0.333828
0.333828
0.333828
0.333828
0.333828
0.333828
0.333828
0.333828
0.333828
0.333828
0.333828
0.333828
0.333828
0.333828
0.333828
0.333829
0.333834
0.333852
0.333904
0.334016
0.33429
0.334402
0.333928
0.312499
0.133716
0.139008
0.314352
0.332949
0.333801
0.333827
0.333828
0.333828
0.333828
0.333828
0.333828
0.333828
0.333828
0.333828
0.333828
0.333828
0.333828
0.333828
0.333828
0.333828
0.333828
0.333829
0.333833
0.33385
0.333898
0.334002
0.334252
0.33435
0.333832
0.312467
0.133785
0.138306
0.314119
0.332932
0.3338
0.333827
0.333828
0.333828
0.333828
0.333828
0.333828
0.333828
0.333828
0.333828
0.333828
0.333828
0.333828
0.333828
0.333828
0.333828
0.333828
0.333829
0.333833
0.333848
0.333892
0.333988
0.334217
0.334307
0.33374
0.312454
0.133891
0.137667
0.313903
0.332916
0.3338
0.333827
0.333828
0.333828
0.333828
0.333828
0.333828
0.333828
0.333828
0.333828
0.333828
0.333828
0.333828
0.333828
0.333828
0.333828
0.333828
0.333829
0.333832
0.333846
0.333887
0.333975
0.334183
0.334265
0.333654
0.312453
0.133805
0.137083
0.313701
0.332901
0.333799
0.333827
0.333828
0.333828
0.333828
0.333828
0.333828
0.333828
0.333828
0.333828
0.333828
0.333828
0.333828
0.333828
0.333828
0.333828
0.333828
0.333828
0.333832
0.333844
0.333882
0.333962
0.334151
0.334224
0.333575
0.312493
0.133716
0.136556
0.313522
0.332887
0.333798
0.333827
0.333828
0.333828
0.333828
0.333828
0.333828
0.333828
0.333828
0.333828
0.333828
0.333828
0.333828
0.333828
0.333828
0.333828
0.333828
0.333828
0.333831
0.333843
0.333877
0.333949
0.334119
0.334183
0.333498
0.312485
0.133728
0.136085
0.31336
0.332875
0.333798
0.333827
0.333828
0.333828
0.333828
0.333828
0.333828
0.333828
0.333828
0.333828
0.333828
0.333828
0.333828
0.333828
0.333828
0.333828
0.333828
0.333828
0.333831
0.333841
0.333872
0.333937
0.33409
0.334143
0.333424
0.31247
0.13367
0.135664
0.313214
0.332864
0.333798
0.333827
0.333828
0.333828
0.333828
0.333828
0.333828
0.333828
0.333828
0.333828
0.333828
0.333828
0.333828
0.333828
0.333828
0.333828
0.333828
0.333828
0.33383
0.33384
0.333867
0.333925
0.334061
0.334105
0.333355
0.312488
0.13361
0.135292
0.313087
0.332854
0.333797
0.333827
0.333828
0.333828
0.333828
0.333828
0.333828
0.333828
0.333828
0.333828
0.333828
0.333828
0.333828
0.333828
0.333828
0.333828
0.333828
0.333828
0.33383
0.333838
0.333862
0.333913
0.334032
0.334065
0.333285
0.312477
0.133614
0.134969
0.312977
0.332846
0.333797
0.333827
0.333828
0.333828
0.333828
0.333828
0.333828
0.333828
0.333828
0.333828
0.333828
0.333828
0.333828
0.333828
0.333828
0.333828
0.333828
0.333828
0.33383
0.333837
0.333857
0.333901
0.334003
0.334023
0.333214
0.31246
0.133592
0.134689
0.312881
0.332839
0.333797
0.333827
0.333828
0.333828
0.333828
0.333828
0.333828
0.333828
0.333828
0.333828
0.333828
0.333828
0.333828
0.333828
0.333828
0.333828
0.333828
0.333828
0.333829
0.333835
0.333852
0.333887
0.333971
0.333977
0.333146
0.312478
0.133572
0.134452
0.312803
0.332833
0.333796
0.333827
0.333828
0.333828
0.333828
0.333828
0.333828
0.333828
0.333828
0.333828
0.333828
0.333828
0.333828
0.333828
0.333828
0.333828
0.333828
0.333828
0.333829
0.333833
0.333846
0.333873
0.333939
0.333931
0.333088
0.312489
0.133607
0.134256
0.31274
0.332828
0.333796
0.333827
0.333828
0.333828
0.333828
0.333828
0.333828
0.333828
0.333828
0.333828
0.333828
0.333828
0.333828
0.333828
0.333828
0.333828
0.333828
0.333828
0.333828
0.333831
0.33384
0.333858
0.333909
0.33389
0.333045
0.312494
0.133663
0.134097
0.312689
0.332824
0.333796
0.333827
0.333828
0.333828
0.333828
0.333828
0.333828
0.333828
0.333828
0.333828
0.333828
0.333828
0.333828
0.333828
0.333828
0.333828
0.333828
0.333828
0.333828
0.333829
0.333834
0.333844
0.333884
0.333855
0.333018
0.312615
0.133895
0.133973
0.312653
0.332822
0.333796
0.333827
0.333828
0.333828
0.333828
0.333828
0.333828
0.333828
0.333828
0.333828
0.333828
0.333828
0.333828
0.333828
0.333828
0.333828
0.333828
0.333828
0.333828
0.333828
0.333829
0.333833
0.333863
0.333833
0.333131
0.314547
0.138515
0.133884
0.312631
0.332821
0.333796
0.333827
0.333828
0.333828
0.333828
0.333828
0.333828
0.333828
0.333828
0.333828
0.333828
0.333828
0.333828
0.333828
0.333828
0.333828
0.333828
0.333828
0.333827
0.333826
0.333825
0.333824
0.33385
0.33368
0.329374
0.213548
0.138919
0.105888
0.106112
0.106336
0.10656
0.106784
0.107008
0.107232
0.107456
0.10768
0.107904
0.108129
0.108353
0.108577
0.108801
0.109026
0.10925
0.109475
0.109699
0.109924
0.110148
0.110373
0.110597
0.110822
0.111046
0.111271
0.111496
0.111721
0.111945
0.11217
0.112395
0.11262
0.112845
0.113069
0.113294
0.113519
0.113744
0.113969
0.114194
0.114419
0.114645
0.11487
0.115095
0.11532
0.115545
0.11577
0.115996
0.116221
0.116446
0.116672
0.116897
0.117122
0.117348
0.117573
0.117799
0.118024
0.11825
0.118475
0.118701
0.118927
0.119152
0.119378
0.119604
0.119829
0.120055
0.120281
0.120507
0.120732
0.120958
0.121184
0.12141
0.121636
0.121862
0.122088
0.122314
0.12254
0.122766
0.122992
0.123218
0.123444
0.12367
0.123896
0.124123
0.124349
0.124575
0.124801
0.125028
0.125254
0.12548
0.125707
0.125933
0.126159
0.126386
0.126612
0.126839
0.127065
0.127292
0.127518
0.127745
0.127971
0.128198
0.128425
0.128651
0.128878
0.129105
0.129331
0.129558
0.129785
0.130011
0.130238
0.130465
0.130692
0.130919
0.131146
0.131373
0.131599
0.131826
0.132053
0.13228
0.132507
0.132734
0.132961
0.133189
0.133416
0.133642
0.133866
0.297085
0.297298
0.297465
0.297628
0.29779
0.297951
0.298111
0.29827
0.298429
0.298587
0.298744
0.298901
0.299056
0.299211
0.299365
0.299519
0.299671
0.299823
0.299975
0.300125
0.300275
0.300424
0.300572
0.30072
0.300867
0.301013
0.301158
0.301303
0.301447
0.301591
0.301733
0.301876
0.302017
0.302158
0.302298
0.302437
0.302576
0.302714
0.302851
0.302988
0.303124
0.303259
0.303394
0.303528
0.303662
0.303794
0.303927
0.304058
0.304189
0.304319
0.304449
0.304578
0.304707
0.304835
0.304962
0.305088
0.305215
0.30534
0.305465
0.305589
0.305713
0.305836
0.305958
0.30608
0.306202
0.306322
0.306443
0.306562
0.306681
0.3068
0.306918
0.307035
0.307152
0.307268
0.307384
0.307499
0.307614
0.307728
0.307842
0.307955
0.308067
0.308179
0.308291
0.308402
0.308512
0.308622
0.308731
0.30884
0.308948
0.309056
0.309164
0.30927
0.309377
0.309483
0.309588
0.309693
0.309797
0.309901
0.310004
0.310107
0.31021
0.310312
0.310413
0.310514
0.310615
0.310715
0.310814
0.310914
0.311012
0.31111
0.311208
0.311306
0.311402
0.311499
0.311595
0.31169
0.311785
0.31188
0.311974
0.312068
0.312161
0.312254
0.312347
0.312441
0.31255
0.331144
0.331175
0.331197
0.331219
0.33124
0.331261
0.331282
0.331303
0.331324
0.331344
0.331364
0.331384
0.331404
0.331424
0.331444
0.331463
0.331482
0.331501
0.33152
0.331538
0.331557
0.331575
0.331593
0.331611
0.331629
0.331647
0.331664
0.331682
0.331699
0.331716
0.331733
0.331749
0.331766
0.331782
0.331799
0.331815
0.331831
0.331847
0.331862
0.331878
0.331893
0.331909
0.331924
0.331939
0.331954
0.331968
0.331983
0.331998
0.332012
0.332026
0.33204
0.332054
0.332068
0.332082
0.332096
0.332109
0.332123
0.332136
0.332149
0.332162
0.332175
0.332188
0.332201
0.332213
0.332226
0.332238
0.33225
0.332263
0.332275
0.332287
0.332299
0.33231
0.332322
0.332334
0.332345
0.332356
0.332368
0.332379
0.33239
0.332401
0.332412
0.332423
0.332433
0.332444
0.332455
0.332465
0.332475
0.332486
0.332496
0.332506
0.332516
0.332526
0.332536
0.332545
0.332555
0.332565
0.332574
0.332584
0.332593
0.332602
0.332611
0.332621
0.33263
0.332639
0.332648
0.332656
0.332665
0.332674
0.332682
0.332691
0.332699
0.332708
0.332716
0.332724
0.332733
0.332741
0.332749
0.332757
0.332765
0.332773
0.33278
0.332788
0.332796
0.332804
0.332813
0.333698
0.3337
0.333702
0.333703
0.333705
0.333706
0.333708
0.333709
0.333711
0.333712
0.333713
0.333715
0.333716
0.333717
0.333719
0.33372
0.333721
0.333722
0.333724
0.333725
0.333726
0.333727
0.333728
0.333729
0.333731
0.333732
0.333733
0.333734
0.333735
0.333736
0.333737
0.333738
0.333739
0.33374
0.333741
0.333742
0.333743
0.333744
0.333745
0.333746
0.333747
0.333748
0.333749
0.33375
0.33375
0.333751
0.333752
0.333753
0.333754
0.333755
0.333756
0.333756
0.333757
0.333758
0.333759
0.333759
0.33376
0.333761
0.333762
0.333762
0.333763
0.333764
0.333765
0.333765
0.333766
0.333767
0.333767
0.333768
0.333769
0.333769
0.33377
0.333771
0.333771
0.333772
0.333772
0.333773
0.333774
0.333774
0.333775
0.333775
0.333776
0.333777
0.333777
0.333778
0.333778
0.333779
0.333779
0.33378
0.33378
0.333781
0.333781
0.333782
0.333782
0.333783
0.333783
0.333784
0.333784
0.333785
0.333785
0.333786
0.333786