/*--------------------------------*- C++ -*----------------------------------*\
| =========                 |                                                 |
| \\      /  F ield         | OpenFOAM: The Open Source CFD Toolbox           |
|  \\    /   O peration     | Version:  2112                                  |
|   \\  /    A nd           | Website:  www.openfoam.com                      |
|    \\/     M anipulation  |                                                 |
\*---------------------------------------------------------------------------*/
FoamFile
{
    version     2.0;
    format      ascii;
    arch        "LSB;label=32;scalar=64";
    class       volScalarField;
    location    "0.00291";
    object      p;
}
// * * * * * * * * * * * * * * * * * * * * * * * * * * * * * * * * * * * * * //

dimensions      [1 -1 -2 0 0 0 0];

internalField   nonuniform List<scalar> 
13875
(
951567
984221
973643
975582
973364
974398
974501
974421
974894
975021
975180
974998
974923
974737
974711
974868
974689
974511
974317
974018
973351
975601
972413
982543
945462
733776
659480
672232
677082
670231
668526
668503
670164
677618
679069
678998
678121
670201
670427
677844
679257
678462
675908
669768
668369
669722
677027
672361
657258
730930
736865
635515
664426
653530
648252
645938
645045
645530
648467
649759
649767
649416
648404
647762
648882
650027
648989
645526
645331
645897
647612
651991
662041
632249
733670
743509
636162
665312
653682
648534
646133
645194
645591
645351
646698
647578
648492
648606
647916
647849
646949
646066
645252
645442
646089
647889
652112
662789
632858
739335
757340
639177
667872
654379
649404
646716
645624
645839
645414
646768
647661
648607
649142
648345
647956
647018
646143
645389
645795
646642
648693
652701
665079
635513
750481
759073
647855
673663
656350
651273
647960
646528
646426
645709
647028
647961
648978
650225
649238
648296
647269
646417
645874
646587
647823
650452
654584
670675
643279
751951
765187
668424
685960
661328
655141
650512
648358
647693
646622
647761
648754
649896
651328
650709
649102
647918
647172
647097
648344
650395
654374
660300
682275
666079
756195
791596
718623
712106
674984
663591
655978
652167
650448
648863
649553
650510
651807
653533
653068
651011
649625
649160
649799
651973
655606
662479
673419
707528
715876
782478
910006
828682
767711
705702
680925
667014
659892
656249
653848
653755
654460
655922
658059
657846
655282
653697
653822
655522
659379
666075
678943
702236
761478
824456
911533
1.52979e+06
1.03162e+06
837409
744851
704181
683315
672778
666951
663964
663090
663275
664855
667353
667445
664699
663001
663710
666390
672117
682349
702399
741763
833063
1.02867e+06
1.52446e+06
2.9294e+06
1.3994e+06
971398
812498
744603
712574
696854
688538
684703
683022
682496
683766
686414
686837
684734
683248
684307
687829
695468
710392
740482
803889
952971
1.3599e+06
2.88217e+06
5.69303e+06
2.35703e+06
1.34083e+06
985117
836985
777461
750312
737505
731559
728695
727419
727689
729945
730724
729864
729739
731568
737033
749229
775151
831915
970056
1.29975e+06
2.3003e+06
5.6291e+06
5.47914e+06
4.82079e+06
2.54307e+06
1.56756e+06
1.09831e+06
956090
896427
868879
855962
849910
847136
846174
847343
848695
849983
852737
858550
871655
900091
960511
1.10234e+06
1.52658e+06
2.38063e+06
4.91608e+06
5.40253e+06
4.94745e+06
4.70326e+06
5.02916e+06
4.57527e+06
1.91866e+06
1.53279e+06
1.3898e+06
1.31061e+06
1.278e+06
1.2644e+06
1.2595e+06
1.25763e+06
1.25937e+06
1.26091e+06
1.26562e+06
1.27403e+06
1.2921e+06
1.33219e+06
1.42458e+06
1.60917e+06
2.09637e+06
4.59933e+06
5.05024e+06
4.80517e+06
4.84206e+06
4.18967e+06
4.3406e+06
4.90246e+06
4.886e+06
4.65807e+06
3.522e+06
3.38517e+06
3.06751e+06
2.92013e+06
2.85383e+06
2.82992e+06
2.81726e+06
2.82314e+06
2.82574e+06
2.84165e+06
2.87487e+06
2.95474e+06
3.13231e+06
3.46251e+06
3.66031e+06
4.7053e+06
4.92868e+06
4.96875e+06
4.52701e+06
4.45843e+06
3.82131e+06
3.87502e+06
4.58417e+06
5.20092e+06
6.56719e+06
7.9161e+06
8.93984e+06
8.85833e+06
9.15722e+06
9.06822e+06
9.19012e+06
9.11091e+06
9.1985e+06
9.12561e+06
9.20991e+06
9.11707e+06
9.1907e+06
8.93447e+06
8.98964e+06
8.05518e+06
6.72581e+06
5.33864e+06
4.76955e+06
4.09884e+06
4.11345e+06
3.04438e+06
3.49017e+06
4.63104e+06
5.45844e+06
6.78039e+06
7.65112e+06
7.80307e+06
7.73107e+06
7.54587e+06
7.38942e+06
7.28397e+06
7.2467e+06
7.18998e+06
7.23118e+06
7.26482e+06
7.36377e+06
7.51723e+06
7.71125e+06
7.7423e+06
7.70654e+06
6.89677e+06
5.63205e+06
4.80448e+06
3.69539e+06
3.31773e+06
2.44758e+06
3.23984e+06
4.65654e+06
5.37204e+06
6.10799e+06
6.24396e+06
6.01428e+06
5.98866e+06
5.98004e+06
5.98677e+06
5.99344e+06
5.99058e+06
5.99122e+06
5.9929e+06
5.99651e+06
5.98689e+06
5.97409e+06
5.97703e+06
6.0033e+06
6.18458e+06
6.12089e+06
5.49076e+06
4.78828e+06
3.11904e+06
2.30569e+06
1.2991e+06
2.26453e+06
3.9369e+06
4.35668e+06
4.57451e+06
4.75987e+06
4.90194e+06
5.08609e+06
5.25139e+06
5.3548e+06
5.41218e+06
5.43989e+06
5.45069e+06
5.44074e+06
5.41496e+06
5.3583e+06
5.25662e+06
5.10052e+06
4.9321e+06
4.80529e+06
4.63017e+06
4.41324e+06
3.9398e+06
2.36125e+06
1.32994e+06
665658
1.53025e+06
2.75248e+06
3.20156e+06
3.42373e+06
3.724e+06
4.11133e+06
4.44342e+06
4.66461e+06
4.7952e+06
4.87775e+06
4.92435e+06
4.94329e+06
4.92981e+06
4.88786e+06
4.81161e+06
4.6885e+06
4.47782e+06
4.15187e+06
3.76197e+06
3.45946e+06
3.23309e+06
2.73158e+06
1.58376e+06
653057
722322
1.19742e+06
1.80033e+06
2.25913e+06
2.6004e+06
3.01993e+06
3.50159e+06
3.86457e+06
4.0949e+06
4.24277e+06
4.34275e+06
4.40051e+06
4.42283e+06
4.40701e+06
4.35463e+06
4.26148e+06
4.12073e+06
3.89529e+06
3.51984e+06
3.01803e+06
2.59046e+06
2.24778e+06
1.79495e+06
1.1244e+06
680505
963129
1.05406e+06
1.24514e+06
1.70628e+06
2.06114e+06
2.54977e+06
2.99647e+06
3.3295e+06
3.55663e+06
3.71416e+06
3.82024e+06
3.88115e+06
3.9046e+06
3.8863e+06
3.82925e+06
3.7287e+06
3.57589e+06
3.35045e+06
3.00663e+06
2.54096e+06
2.03423e+06
1.67933e+06
1.22688e+06
997044
902554
1.36752e+06
1.06237e+06
1.07452e+06
1.38319e+06
1.71415e+06
2.2057e+06
2.58223e+06
2.86777e+06
3.08468e+06
3.24026e+06
3.3433e+06
3.4024e+06
3.42496e+06
3.40425e+06
3.34611e+06
3.24522e+06
3.0906e+06
2.87183e+06
2.58263e+06
2.20408e+06
1.68171e+06
1.35631e+06
1.0596e+06
1.02023e+06
1.38174e+06
1.43061e+06
1.08487e+06
1.0785e+06
1.23071e+06
1.50079e+06
1.90466e+06
2.21778e+06
2.47497e+06
2.66916e+06
2.81215e+06
2.91443e+06
2.97016e+06
2.99343e+06
2.97141e+06
2.91442e+06
2.81245e+06
2.66809e+06
2.47075e+06
2.20354e+06
1.88824e+06
1.48594e+06
1.2063e+06
1.06118e+06
1.05068e+06
1.40669e+06
1.43025e+06
1.12296e+06
1.09145e+06
1.16031e+06
1.35776e+06
1.65658e+06
1.91449e+06
2.1454e+06
2.31942e+06
2.4488e+06
2.54171e+06
2.59491e+06
2.6142e+06
2.59533e+06
2.54171e+06
2.44703e+06
2.31445e+06
2.13731e+06
1.89775e+06
1.63299e+06
1.34491e+06
1.14024e+06
1.0731e+06
1.09932e+06
1.40622e+06
1.43528e+06
1.18025e+06
1.11972e+06
1.12438e+06
1.25028e+06
1.45631e+06
1.66798e+06
1.86832e+06
2.01946e+06
2.13505e+06
2.21967e+06
2.26356e+06
2.28445e+06
2.26401e+06
2.21705e+06
2.13054e+06
2.01028e+06
1.85543e+06
1.6514e+06
1.43444e+06
1.24261e+06
1.10862e+06
1.1015e+06
1.16656e+06
1.4068e+06
1.44762e+06
1.27324e+06
1.16316e+06
1.12466e+06
1.17449e+06
1.30793e+06
1.47638e+06
1.64157e+06
1.77185e+06
1.8726e+06
1.94459e+06
1.98399e+06
1.99791e+06
1.98287e+06
1.93806e+06
1.86481e+06
1.7592e+06
1.6254e+06
1.45871e+06
1.28309e+06
1.1588e+06
1.10853e+06
1.15135e+06
1.29826e+06
1.42174e+06
1.48866e+06
1.46097e+06
1.20423e+06
1.12222e+06
1.1193e+06
1.18933e+06
1.31369e+06
1.44644e+06
1.55498e+06
1.64309e+06
1.70752e+06
1.74003e+06
1.75485e+06
1.73838e+06
1.70279e+06
1.63753e+06
1.54657e+06
1.43545e+06
1.30288e+06
1.17254e+06
1.10652e+06
1.10856e+06
1.1863e+06
1.45411e+06
1.46369e+06
1.58091e+06
1.54675e+06
1.22946e+06
1.11274e+06
1.08369e+06
1.10729e+06
1.19306e+06
1.29285e+06
1.38103e+06
1.45385e+06
1.50577e+06
1.53606e+06
1.54646e+06
1.53369e+06
1.50104e+06
1.44709e+06
1.37058e+06
1.27869e+06
1.17969e+06
1.09223e+06
1.07223e+06
1.10197e+06
1.21138e+06
1.50734e+06
1.55789e+06
1.77584e+06
1.59738e+06
1.24409e+06
1.09872e+06
1.04971e+06
1.04638e+06
1.09167e+06
1.16079e+06
1.22877e+06
1.28897e+06
1.33546e+06
1.35851e+06
1.36869e+06
1.35509e+06
1.32989e+06
1.28239e+06
1.21985e+06
1.14879e+06
1.07869e+06
1.03297e+06
1.0371e+06
1.08726e+06
1.23616e+06
1.57699e+06
1.71271e+06
1.8416e+06
1.63829e+06
1.26997e+06
1.08534e+06
1.01111e+06
991994
1.0122e+06
1.05767e+06
1.10694e+06
1.15344e+06
1.18836e+06
1.20999e+06
1.21689e+06
1.20763e+06
1.18393e+06
1.14746e+06
1.09985e+06
1.04933e+06
1.00361e+06
983720
1.00205e+06
1.07412e+06
1.25445e+06
1.61535e+06
1.85645e+06
1.84111e+06
1.6594e+06
1.31542e+06
1.08483e+06
978048
945379
943220
969646
1.0017e+06
1.03498e+06
1.06503e+06
1.07969e+06
1.08782e+06
1.0787e+06
1.06131e+06
1.03029e+06
995393
961587
933973
935937
966269
1.06776e+06
1.28345e+06
1.64228e+06
1.85537e+06
1.83314e+06
1.66249e+06
1.37445e+06
1.08699e+06
948872
899180
888432
897911
918876
940152
959412
972644
977313
971198
955109
934764
912090
889739
880241
890521
937864
1.07063e+06
1.33679e+06
1.65e+06
1.85029e+06
1.81759e+06
1.66204e+06
1.49677e+06
1.09974e+06
928298
857574
835316
832249
842335
854678
870296
877421
882709
876724
867413
850980
837992
827025
830092
850659
917011
1.07796e+06
1.4202e+06
1.6474e+06
1.8318e+06
1.78764e+06
1.65901e+06
1.56748e+06
1.12865e+06
922748
824234
788656
780477
781588
786778
794403
800266
802373
799085
791117
783026
777469
774971
783775
817415
912336
1.10136e+06
1.57737e+06
1.64249e+06
1.79427e+06
1.75942e+06
1.64093e+06
1.56511e+06
1.15948e+06
924991
797750
746866
729315
725275
725750
729506
730925
733434
729632
727262
722592
721735
725275
742534
791311
916700
1.14657e+06
1.58127e+06
1.62907e+06
1.72273e+06
1.71464e+06
1.60338e+06
1.56022e+06
1.22345e+06
936096
783109
713529
687640
678614
675671
674524
674784
675016
673725
672994
673393
675633
683520
709604
777159
924231
1.21037e+06
1.57214e+06
1.59462e+06
1.68274e+06
1.66749e+06
1.55495e+06
1.54678e+06
1.3515e+06
962298
783655
688486
649370
634059
628145
625973
623588
624380
623234
624967
627094
632257
646035
683637
777923
945587
1.33903e+06
1.55232e+06
1.54059e+06
1.64238e+06
1.63585e+06
1.51034e+06
1.51035e+06
1.35151e+06
993916
787499
674439
621356
599788
590281
584459
582131
581648
581950
583532
588699
597863
618186
671449
786185
990527
1.3467e+06
1.51069e+06
1.49412e+06
1.60544e+06
1.60042e+06
1.47081e+06
1.43772e+06
1.34769e+06
1.06088e+06
802135
674961
598821
567174
553312
547734
543364
543492
543543
547459
552975
566310
597338
671807
798188
1.06175e+06
1.34181e+06
1.42266e+06
1.45492e+06
1.57999e+06
1.55698e+06
1.43269e+06
1.36081e+06
1.33471e+06
1.19495e+06
833435
679526
589006
545249
526795
516274
512494
511148
512217
515796
525512
544554
588450
675988
825318
1.20623e+06
1.32749e+06
1.34261e+06
1.42177e+06
1.54587e+06
1.52472e+06
1.40174e+06
1.30007e+06
1.30032e+06
1.19393e+06
880504
686070
589485
529035
500433
488712
482925
482133
482090
488830
499935
528553
589329
690963
883752
1.20618e+06
1.29486e+06
1.28578e+06
1.39093e+06
1.50323e+06
1.4775e+06
1.37436e+06
1.25292e+06
1.23224e+06
1.18535e+06
979373
704985
594121
524990
486725
466147
459635
457304
459255
465651
485450
523919
592456
715840
987476
1.19108e+06
1.22712e+06
1.23852e+06
1.36083e+06
1.46967e+06
1.42674e+06
1.3455e+06
1.21852e+06
1.16969e+06
1.16185e+06
1.04377e+06
742326
606508
525867
471606
447898
437137
435263
436936
448122
472869
524782
602276
765940
1.04324e+06
1.15721e+06
1.16318e+06
1.20639e+06
1.33503e+06
1.42748e+06
1.3887e+06
1.31129e+06
1.19131e+06
1.11797e+06
1.10952e+06
1.0394e+06
807256
628871
528261
471590
437925
422761
417594
422361
438111
472986
530205
627195
871725
1.0384e+06
1.09023e+06
1.10908e+06
1.18198e+06
1.30029e+06
1.37601e+06
1.34737e+06
1.27838e+06
1.17215e+06
1.07454e+06
1.04266e+06
1.02602e+06
941466
677399
538481
473441
437330
412781
405860
412306
436520
474119
541628
671742
925710
1.01815e+06
1.02694e+06
1.06662e+06
1.1637e+06
1.26783e+06
1.3421e+06
1.30062e+06
1.23587e+06
1.15128e+06
1.04683e+06
994506
995173
940586
776769
562426
478877
437994
412651
400766
412205
437070
478115
566368
762033
922606
975010
979320
1.0376e+06
1.14439e+06
1.23189e+06
1.29784e+06
1.25887e+06
1.19959e+06
1.12993e+06
1.02743e+06
954933
941982
928560
846157
608178
489806
439842
413082
401259
412883
440318
490068
621076
839831
911376
922285
943492
1.01987e+06
1.12382e+06
1.19466e+06
1.24888e+06
1.1751e+06
1.14603e+06
1.10022e+06
1.01326e+06
931927
899303
901153
844177
704781
513872
446892
415334
403374
415040
448273
513716
729480
838334
884645
881965
922370
1.0046e+06
1.09484e+06
1.14033e+06
1.16166e+06
1.0458e+06
1.07412e+06
1.05769e+06
992482
913944
861364
852633
832883
766608
564684
465385
421839
409024
421288
467153
562906
762627
826584
841394
848687
906352
985085
1.05112e+06
1.06978e+06
1.0364e+06
79068.7
80770.6
79992.7
80570.5
80767.8
81101.4
81580.6
82106.5
82690.2
83368.4
84425
86008.7
88217.1
90952.4
94075.5
97523.8
101196
104155
104616
94183.5
77880.1
72789.6
71210
70790.2
70668.3
70648.1
70622.6
70648.6
70594
70670.8
77640
79263.6
78448.5
78924.2
78971.1
79251.7
79767.7
80360.9
80975.2
81579.4
82490.8
83967.2
86199
89131.8
92672.2
96657.4
100923
105211
108885
110948
101264
79211.9
72903.5
71198.7
70768.7
70672.1
70628.6
70647.8
70612.3
70655.3
76836.2
77868
77127.6
77624.8
77462.2
77872.6
78431.8
79068
79691
80237.3
81010.2
82380
84578.4
87629.4
91621.7
96193.1
100883
105774
110414
114483
115348
98975.9
77900.1
72417.9
71058.1
70742.7
70645.3
70648.7
70624.3
70645.8
76225.3
76628.5
76329.1
76390.2
76178.3
76475.8
76930.7
77653.8
78372.2
78934.4
79612.1
80945.4
83253.8
86345.1
90203.5
94939
100458
105822
110766
115217
118684
117975
95118.7
76508.4
71963.2
70952.6
70696.8
70657.5
70630.4
70642.1
76016.4
76162.5
76058.8
75909.7
75719.6
75891.3
76182.5
76751.2
77418.2
78085.6
78739.5
79880.3
82177.4
85310
89165.5
93596.1
98699
104699
110623
115252
119185
122482
119743
90112.4
75126.6
71613
70845.6
70688.2
70638.4
70641
75996.6
76152.2
76097.3
75894.4
75711.3
75814.9
76019.7
76500.3
77077.2
77655.3
78220.3
79167.7
81190.3
84282.3
88031
92284.4
97090.6
102576
108754
114612
119203
123408
126168
119857
85205.9
73886.8
71309.5
70784.9
70661
70644.9
76465.1
76599.6
76608.7
76400.8
76198.3
76155.3
76213.6
76590.7
77105.8
77635.6
78043.4
78449.6
80115.3
82867.1
86616.1
90769.2
95372.6
100478
106440
113008
118855
123515
127983
129451
115659
81056.2
72855.6
71093.3
70725
70658
77028.9
77155.8
77302.3
77194
76938
76862
76831.4
77072.8
77462.9
77869.1
78141.8
78315
79077.9
81335.5
85063.2
89194
93776.5
98752.1
104357
110896
117673
123419
128319
132736
132240
107097
78019.2
72092.8
70925.2
70700.9
77478.4
77670.3
77951
78014.6
77814
77726.4
77712.8
77804.4
78054.4
78233.7
78351.2
78379.6
78600.2
80137.1
83483.4
87745.8
92363.2
97321.7
102710
108861
115839
122668
128335
133547
137561
133950
96476.1
75584
71563.9
70837.4
77841.5
78103.7
78494.5
78762.6
78922.7
79015.5
79057.9
78978.5
78872.8
78765.2
78571.5
78429.3
78390.9
79381.9
82116
86406
91078.5
96059.1
101368
107176
113878
121180
127959
133650
139078
141967
133058
87223
73748.9
71272.4
78226.3
78459.3
78900.5
79477.7
79969.4
80273.9
80353.5
80278.7
79764
79046.8
78606.3
78400.8
78292.4
78902.2
81053
84998
89788.1
94781.1
100095
105729
112087
119305
126831
133522
139327
144673
145154
123194
80687.1
72704.5
78612.9
78807
79222.4
79742.5
80189.1
80497.4
80603.7
80601.1
80075.1
79192.8
78516.4
78214.7
78109.5
78275.3
80046.4
83442.6
88327
93284.7
98627.3
104259
110445
117354
125031
132698
139317
145257
149846
146065
105501
77498.1
79041.7
79179.2
79481.1
79787.1
80139.9
80409.5
80495.6
80609.1
80222.5
79308.4
78561.3
77912.9
77543.6
77432.7
78969.3
81904.6
86614.8
91583.8
96924.9
102610
108762
115452
122944
131025
138769
145334
151152
154769
143609
92688.3
79486.6
79572.9
79655.4
79756.3
79845.5
80042.9
80409.6
80580.3
80339.9
79597.2
78722.4
77860.8
77433.8
77260.2
77959.8
80586.5
84901.2
89910.4
95181.8
100869
106971
113580
120868
128906
137316
145049
151244
158434
163114
138854
79990.9
79922.2
79727.6
79633.2
79608.4
79942.6
80423.4
80649.1
80569.8
79835
78766.8
77894.9
77415.2
77249.2
77284.2
79539.5
83393.2
88464
93607.5
99243.3
105221
111799
118897
126686
135209
143960
150618
159920
178120
207869
80315
80240.7
79774
79645.1
79624.9
79980.3
80536
80779.1
80825.5
79959.7
78825.1
77910.2
77461.3
77215.6
77076.8
78738.2
82168.8
87187.2
92236.1
97796.6
103674
110178
117061
124600
132871
141967
149340
163008
194521
328909
80600.5
80416.5
79982.9
79824.5
79798.8
80229.5
80754.6
80940.8
81019.4
80021.8
78850
78043.8
77591.5
77170.6
77063.4
78035.6
81210.4
86172.7
91130.9
96554.4
102318
108606
115263
122648
130639
138191
148934
170522
219335
435922
80757.6
80676.2
80345.7
80175
80123.1
80302.9
80841.6
81124.5
81266.7
80052.1
78800.6
78090.7
77684.5
77205.1
77061.6
77373.5
80463
85296.6
90262.7
95501.7
101112
107045
113481
120775
128588
135974
149614
180771
248654
464184
80792.5
80933.4
80675.5
80380.4
80263.3
80234.9
81081.8
81443.9
81342.8
79701.5
78715.7
78124
77725.6
77260
77072.5
76686.5
79637.5
84335.5
89449.9
94560.9
99948.6
105645
111849
119000
126811
135444
153349
195961
283165
465761
80841.7
81152.8
81327.7
80612.7
80360.9
80442.1
81221.2
81555.5
80771.5
79457.3
78679.6
78177.9
77725.8
76321.9
75295.5
74952.8
77564.2
82542.5
88243.4
93537.8
98896.2
104551
110582
117417
124944
135789
158961
221817
353258
451879
80694.9
81028
80676.3
80204.8
79975.1
80413.8
80685.9
80718.1
80430.6
79341.5
78583.6
77607.9
76140.3
74999.8
74315.7
74087.3
76070.6
80949.6
86841.2
92319.7
97819.5
103467
109547
116172
123037
136662
167126
257882
395364
425052
81106
80987.9
81371
80678.5
80663.2
80523.5
80452.6
80409.3
79717.9
79267.9
77867.5
75973.7
74844.9
74243.3
73961.2
73790.4
75214.6
79734.2
85531.8
90916.9
96647.4
102333
108517
115116
122735
138497
177735
306275
398920
399326
79007.1
80180.9
79899.1
80086.5
79244.5
78949.5
78808.5
78986.3
79352
77504.1
76163.4
74705.1
74084.4
73888.6
73931.2
73800.2
74789.4
79118.6
84630.6
89571
95192.5
101046
107267
113939
122733
141741
193839
368014
395758
382507
83920.9
80232.4
81873
80319.5
79583.3
78251.2
77708
77561.8
77707.4
76566.8
75060
74089.1
73734.5
73674.4
73947.2
73756.8
72985.5
76602.9
82287.2
88048.4
93548
99534.3
105829
112631
123070
146899
220956
408045
395669
370720
63023.4
77213.5
78907
79715.6
78502
77888.1
77565.8
76983.3
76047.9
74971.5
74336.6
73399.3
73054.6
72961.2
72760.2
71484.5
70423.2
73209.3
79210
85797.9
91933.9
98059.7
104340
111166
123977
155211
265118
418934
391540
363974
70670.8
70594
70648.6
70622.6
70648
70667.7
70787.2
71198.9
72744
77747.5
93800.9
104458
104071
101141
97479.3
94036.8
90918.7
88186.8
85979.3
84395.3
83337.2
82658.9
82075.6
81550.2
81071.3
80737.8
80540.1
79965.8
80741.5
79048.9
70655.3
70612.3
70647.8
70628.5
70671.5
70765.8
71187.1
72850.5
79028.3
100731
110810
108802
105146
100875
96617.3
92637.9
89100.8
86169.1
83935.4
82457
81542.9
80938.8
80325.4
79732.8
79215.9
78933.8
78886
78411.7
79226.8
77613.6
70645.8
70624.3
70648.6
70644.9
70740.4
71048.7
72372.9
77730.9
98353.3
115147
114381
110339
105717
100837
96156.3
91592.2
87600.4
84547.3
82345.3
80972.6
80196
79650
79027.7
78392
77830.5
77420.5
77581.9
77085.7
77828.4
76805.5
70642.1
70630.3
70657.1
70695.2
70945.3
71929.6
76358.5
94434.3
117711
118554
115118
110693
105768
100418
94906.8
90171
86311.3
83219.6
80906
79568.8
78886.8
78316.8
77598.5
76883.1
76430.2
76130.2
76338.5
76273
76571.4
76173
70641
70638.3
70687
70840.3
71587.8
75000.7
89500
119391
122327
119071
115154
110553
104650
98656.7
93555.1
89125.4
85269.7
82136.7
79827.3
78673.5
78016.3
77360.6
76705
76138.5
75846.2
75670.3
75854.7
75998.2
76098.8
75960.9
70644.7
70660.2
70781.2
71291
73789.5
84718.8
119275
125976
123296
119093
114529
108696
102526
97044.7
92241.7
87991.5
84242.1
81148.4
79071.9
78147.9
77616.3
77045.7
76466.2
75980.7
75772.9
75664.1
75840.4
76036.5
76090
75945.4
70657.4
70722.5
71080.5
72785.5
80742.4
114704
129218
127877
123414
118764
112949
106391
100429
95324.6
90724.5
86576.9
82825.2
80069.4
78420
78034.7
77620.8
77090.9
76572.7
76189.4
76126.1
76163.3
76354.9
76554.4
76547.6
76427.4
70699.2
70916.8
72047.7
77791.2
106026
131969
132632
128237
123330
117616
110862
104323
98716.8
93742.9
89162.6
85039.6
81306.6
79077
78342.2
78167.8
77883.3
77476.8
77082.8
76831.7
76857.4
76925.8
77170.9
77273.8
77128
77004.3
70831.6
71535.2
75422.4
95541.1
133584
137456
133491
128259
122618
115827
108857
102701
97316.6
92362.3
87744.2
83493.8
80143.9
78643.2
78440.3
78443.1
78290.8
78084.6
77845.8
77756.9
77767.6
77847.5
78035.3
77974.1
77687.9
77475.2
71253.1
73645.6
86564.4
132381
141821
139041
133603
127920
121187
113904
107202
101396
96093.5
91118.4
86444.9
82165.4
79427.1
78420.3
78473.2
78570.8
78735.4
78850.1
78952.7
79169.9
79129.7
79025.5
78858.3
78590.6
78184
77883.2
72636.7
80380.3
122019
144966
144646
139311
133496
126851
119366
112157
105793
100164
94856
89870.7
85082.5
81137.8
78960
78294.4
78325.4
78589.1
79141.2
79874.2
80446
80644.4
80567.1
80249.3
79709.9
79085.1
78623.4
78345.8
77285.4
104519
145772
149830
145279
139312
132727
125109
117453
110540
104350
98720.2
93374.8
88424.9
83537.9
80112.5
78165
78010.3
78242.3
78640.9
79449.2
80399.3
81010.7
80961.1
80849
80532
80066.2
79507.5
79063.4
78813.4
91894.5
142831
154686
151197
145363
138812
131115
123059
115569
108871
102712
97023
91671.7
86706.3
81987.4
78856.7
77633.4
77748.8
78209.1
78812.1
79708.5
80741.1
81111.6
80937.2
80780.8
80496.3
80141
79851.6
79528.4
79333.3
137407
162836
158466
151295
145108
137421
129042
120997
113697
107077
100961
95267
89982.3
84963.7
80650.9
77831.5
77537.5
77743.3
78231.8
79005.7
80028.8
80972.2
81140.6
80922.8
80439.3
80238
80141.9
80061.7
80004.5
79866.1
206171
177951
160004
150719
144074
135353
126828
119016
111900
105310
99316.7
93678.2
88528.8
83445.2
79634
77533
77601.2
77755.9
78309
79250.6
80425.5
81242.3
81220.8
80938.6
80337.9
79974.3
80021.4
80160.2
80410.7
80474.8
327638
194322
163021
149476
142128
133018
124733
117166
110268
103754
97866.6
92307.3
87257.6
82239.8
78906.4
77519.2
77580.7
77880
78411.7
79397
80701.2
81480.3
81340.4
81051.8
80381
79972
80001.8
80193
80779.9
80854.7
436169
219152
170577
149078
138381
130770
122764
115365
108699
102399
96625.4
91202.8
86258.1
81321.6
78291
77509.1
77614.1
78061.4
78621.1
79570.6
80862
81648.6
81440.5
81104.3
80530.4
80123.5
80165.8
80376.5
80969.3
81082.5
464879
248613
180839
149747
136135
128721
120875
113578
107138
101198
95571.1
90311.4
85404.6
80594.8
77720
77502.5
77716.6
78284.1
78848.1
79617.9
80927.4
81864.3
81560.9
81126.3
80601.6
80505.4
80569.1
80794.9
81192.2
81165.4
466532
283319
196031
153479
135601
126973
119089
111928
105714
100015
94606.8
89484.5
84455.1
79816.3
76960.7
77439
77780.6
78385.1
78927.2
79586.1
80601.2
81935.4
81824.2
81447.4
80669.3
80732.8
80954.5
81240
81362
81128.2
452700
354170
221944
159086
135956
125195
117495
110634
104589
98919.4
93571.8
88305.5
82756.9
77758.6
75547.3
75884.7
76942.1
78334.1
78964.9
79575.9
80205.3
81377.6
81972.8
81672.9
80987.9
81000.6
81274.9
82043
81604.2
81151
425784
396008
258215
167258
136824
123111
116220
109557
103455
97771.9
92320.3
86872
81229.1
76603.4
74844.4
75141.8
75875.3
77035.2
78448.3
79261.6
79963.2
80934.1
81197.2
81302.7
81066.8
80583.8
80791.6
81222.5
81431.4
81001.4
399929
399412
306972
177918
138499
122704
115095
108458
102249
96563.5
90917.9
85605.5
80034.3
75821.3
74645.1
74890.2
75307
75965.2
76927.3
78565
79718.1
80188.7
80713.2
80860.1
81143.3
81325.6
81164.2
81645.8
81390.3
81482.6
383097
396296
370128
194113
141657
122652
113840
107133
100930
95155
89616
84706.1
79370.5
75448.2
74739.9
74885.2
75016.8
75163.3
75644.9
76805.8
78101.7
79855.1
79462.8
79291.2
79435.1
79756.7
80667.4
80364.8
80595.9
79408.7
371471
396110
408595
221643
146843
122924
112440
105638
99394.6
93548.3
88145.1
82784.1
77223
73613.4
74724.3
74989.6
74752.5
74674.1
74924
75643.9
76851.1
78184.2
78282.4
78531
79003.4
80138.9
80687.5
81990.1
80635.5
84420.3
363881
391689
418606
266171
155246
123753
110815
104103
97910.1
92001.7
86165.3
79827.6
74412.8
71354.7
72528.1
73833.2
73986.4
73875.5
74115.3
74852.8
75303.2
76320.5
77220.5
77589.2
77657.5
78196.1
79631.6
79013.9
77578.4
63496.8
70637
70637
70637
70637
70637
70637
70637
70637
70637
70637
70637
70637
70637
70637
70637
70637
70637
70637
70637
70637
70637
70637
70637
70637
70637
70637
70637
70637
70637
70637
70637
70637
70637
70637
70637
70637
70637
70637
70637
70637
70637
70637
70637
70637
70637
70637
70637
70637
70637
70637
70638.5
70664.5
71116.9
76760.6
134650
436301
1.02285e+06
1.98006e+06
2.76783e+06
3.03931e+06
3.09859e+06
3.10228e+06
3.03077e+06
2.84711e+06
2.62189e+06
2.41506e+06
2.22701e+06
2.0713e+06
1.94619e+06
1.84038e+06
1.7542e+06
1.68099e+06
1.61519e+06
1.55255e+06
1.49202e+06
1.43338e+06
1.37453e+06
1.31324e+06
1.24869e+06
1.18136e+06
1.11715e+06
1.05737e+06
1.00218e+06
950370
902063
857613
816950
779584
745093
713101
683450
655941
630334
606237
582357
560286
540265
522291
506050
491157
476997
463465
450836
439234
428800
419564
411482
404277
397654
391526
386023
381229
376993
373352
370343
367962
365964
363841
361834
360431
359663
359443
359479
359732
360760
70637
70637
70637
70637
70637
70636.9
70636.9
70636.9
70636.9
70636.9
70636.9
70636.9
70636.9
70636.9
70636.9
70636.9
70636.9
70636.9
70636.9
70636.9
70636.9
70636.9
70636.9
70636.9
70636.9
70636.9
70636.9
70636.9
70636.9
70636.9
70636.9
70636.9
70636.9
70636.9
70636.9
70636.9
70636.9
70636.9
70636.9
70636.9
70636.9
70636.9
70636.9
70636.9
70636.9
70636.9
70636.9
70636.9
70637
70638.6
70671.8
71352.1
81102
189598
462091
678023
823228
995976
1.19472e+06
1.38089e+06
1.59017e+06
1.84009e+06
2.31507e+06
2.66162e+06
2.74815e+06
2.74635e+06
2.71315e+06
2.62136e+06
2.48458e+06
2.31064e+06
2.11482e+06
1.91109e+06
1.73441e+06
1.58662e+06
1.46004e+06
1.35262e+06
1.26055e+06
1.18163e+06
1.11395e+06
1.05641e+06
1.00284e+06
952795
905808
861421
820138
782194
747448
715398
685585
657830
632086
608136
585724
564760
544959
525565
507897
492787
479248
466695
454700
443392
433010
423556
415183
408050
402154
397274
393085
389181
385362
381767
378600
375859
373583
371774
370365
369750
369721
369829
370236
371277
373562
378084
385454
70637
70637
70637
70637
70637
70637
70637
70637
70637
70636.9
70636.9
70636.9
70636.9
70636.9
70636.9
70636.9
70636.9
70636.9
70636.9
70636.9
70636.9
70636.9
70636.9
70636.9
70636.9
70636.9
70636.9
70636.9
70636.9
70636.9
70636.9
70636.9
70636.9
70636.9
70636.9
70636.9
70636.9
70636.9
70636.9
70636.9
70636.9
70636.9
70636.9
70636.9
70636.9
70636.9
70637
70637
70638.5
70675.8
71569.6
86395.7
258249
556099
676136
730203
779300
844577
908527
971808
1.02936e+06
1.08568e+06
1.1684e+06
1.28459e+06
1.43213e+06
1.63082e+06
1.87417e+06
2.19602e+06
2.44445e+06
2.50973e+06
2.50898e+06
2.45848e+06
2.3147e+06
2.06383e+06
1.81291e+06
1.59718e+06
1.41535e+06
1.27382e+06
1.17036e+06
1.09313e+06
1.02586e+06
963427
907391
857820
813645
773761
737903
705609
676447
649741
624772
601091
578625
557630
538244
520204
503342
488553
475390
463206
451876
441336
431545
422624
414775
408077
402399
397464
393203
389457
386693
385625
385306
385009
384484
384024
386996
393921
399576
404376
407630
411804
416124
419084
419474
70637
70637
70637
70637
70637
70637
70637
70637
70637
70637
70636.9
70636.9
70636.9
70636.9
70636.9
70636.9
70636.9
70636.9
70636.9
70636.9
70636.9
70636.9
70636.9
70636.9
70636.9
70636.9
70636.9
70636.9
70636.9
70637
70637
70637
70637
70637
70637
70637
70637
70637
70637
70637
70637
70637
70637
70637
70637
70637
70637
70638.2
70674.2
71642
89586.4
302974
599607
698429
731034
749943
770284
798550
813098
828087
843832
855532
872342
898114
931808
972613
1.01281e+06
1.05022e+06
1.10436e+06
1.16261e+06
1.25581e+06
1.39194e+06
1.58981e+06
1.80149e+06
1.82921e+06
1.80635e+06
1.69463e+06
1.50497e+06
1.33826e+06
1.19792e+06
1.0823e+06
989578
916575
858879
810951
767601
727933
692231
660765
632611
606931
583078
560753
540215
521688
505193
490332
476385
463610
452244
442179
433303
425234
418053
412061
407070
402850
399240
396309
394292
393869
395645
400004
404361
408986
412740
414089
413806
411358
409210
408005
406448
399306
369394
315115
70637
70637
70637
70637
70637
70637
70637
70637
70637
70637
70637
70636.9
70636.9
70636.9
70636.9
70636.9
70636.9
70636.9
70636.9
70636.9
70636.9
70636.9
70637
70637
70637
70637
70637
70637
70637
70637
70637
70637
70637
70637
70637
70637
70637
70637
70637
70637
70637
70637
70637
70637
70637
70637
70637.8
70667.4
71539.5
88941.1
312560
621923
714461
738790
749630
761512
771611
777582
780394
782119
782038
781212
780673
781078
781812
779975
771104
764158
763132
741216
730606
733173
757736
815542
895535
1.00141e+06
1.1797e+06
1.35031e+06
1.35297e+06
1.24452e+06
1.13163e+06
1.04248e+06
965526
891620
827401
773056
728203
690267
657770
629271
603970
580914
559377
539329
520954
504288
489260
475397
462821
451008
440888
432281
424489
417793
412539
408859
407045
406707
408103
411423
414162
415954
416351
415339
413770
413138
411793
406002
392711
356519
309514
260885
215720
185660
167974
70637
70637
70637
70637
70637
70637
70637
70637
70637
70637
70637
70637
70637
70637
70637
70636.9
70636.9
70637
70637
70637
70637
70637
70637
70637
70637
70637
70637
70637
70637
70637
70637
70637
70637
70637
70637
70637
70637
70637
70637
70637
70637
70637
70637
70637
70637
70637.5
70658.3
71326.1
85294.2
289357
626956
730324
750663
755879
758513
766562
769349
769626
767758
766089
762814
759682
755196
747146
736781
717754
689067
662785
635610
598755
565122
536062
510327
489935
478841
482110
508912
566861
659461
812770
944505
990760
944748
881033
822886
772687
729756
691536
658169
629136
603668
580596
559355
539652
521414
504522
489060
474927
462032
449673
439181
430389
422656
416130
411211
408172
407088
407323
408236
408781
408111
406464
402254
392670
367166
323935
277495
231016
189442
164556
149967
139557
132490
127965
125208
70637
70637
70637
70637
70637
70637
70637
70637
70637
70637
70637
70637
70637
70637
70637
70637
70637
70637
70637
70637
70637
70637
70637
70637
70637
70637
70637
70637
70637
70637
70637