/*--------------------------------*- C++ -*----------------------------------*\
| =========                 |                                                 |
| \\      /  F ield         | OpenFOAM: The Open Source CFD Toolbox           |
|  \\    /   O peration     | Version:  2112                                  |
|   \\  /    A nd           | Website:  www.openfoam.com                      |
|    \\/     M anipulation  |                                                 |
\*---------------------------------------------------------------------------*/
FoamFile
{
    version     2.0;
    format      ascii;
    arch        "LSB;label=32;scalar=64";
    class       surfaceScalarField;
    location    "0.01095";
    object      phi;
}
// * * * * * * * * * * * * * * * * * * * * * * * * * * * * * * * * * * * * * //

dimensions      [1 0 -1 0 0 0 0];

oriented        oriented;

internalField   nonuniform List<scalar> 
27436
(
-0.533453
8.19279
-0.0933354
7.47168
-0.0849881
7.78729
-0.0705985
7.78642
-0.0640515
7.78816
-0.0474053
7.78127
-0.0394693
7.78926
-0.0378282
7.79253
-0.0267475
7.78616
-0.0144884
7.78643
-0.00740099
7.79003
0.000937829
7.78874
0.0142332
7.78358
0.0310522
7.78086
0.0462177
7.78228
0.054916
7.78824
0.0580654
7.79259
0.0658352
7.78975
0.0753158
7.78832
0.0895349
7.78251
0.096194
7.78791
0.111736
7.7856
0.123718
7.78266
0.573356
7.46036
8.21715
-0.247203
8.43999
-0.0961474
7.3206
-0.0813013
7.77241
-0.0548157
7.76009
-0.0597578
7.79303
-0.0623538
7.78412
-0.0394375
7.76576
-0.0273436
7.7805
-0.0165624
7.77693
-0.00959308
7.77954
0.000688214
7.78045
0.0152701
7.77427
0.0150566
7.78378
0.0215822
7.77432
0.0210699
7.7828
0.0377092
7.7716
0.0465947
7.78371
0.0589748
7.77737
0.0823617
7.76493
0.0776848
7.78718
0.0722239
7.79335
0.102986
7.75482
0.114212
7.77105
0.268437
7.30825
8.49127
-0.227234
8.66724
-0.141123
7.23446
-0.120541
7.75174
-0.107419
7.74687
-0.105219
7.79071
-0.105239
7.78387
-0.0890686
7.74961
-0.0792681
7.77191
-0.0688606
7.76938
-0.0465837
7.75685
-0.0372002
7.76634
-0.0144944
7.75113
-0.0126627
7.78196
-0.0114591
7.77311
-0.00830316
7.77963
0.0127081
7.7506
0.0241349
7.77228
0.0472212
7.75425
0.060969
7.75119
0.0594135
7.78875
0.0638983
7.78891
0.07871
7.7399
0.10088
7.74892
0.192057
7.21836
8.67793
-0.169544
8.8368
-0.139488
7.20441
-0.134272
7.74656
-0.113426
7.72606
-0.113391
7.79066
-0.107477
7.77761
-0.0903983
7.73212
-0.077653
7.76054
-0.0619859
7.75601
-0.0408825
7.73689
-0.0269358
7.75201
-0.00628417
7.73035
0.00293704
7.77276
0.0047944
7.77125
0.0149386
7.76947
0.0353245
7.7302
0.0495342
7.75807
0.0695794
7.73417
0.0885295
7.73222
0.0942457
7.78304
0.0944667
7.78873
0.118983
7.71533
0.111711
7.75647
0.162302
7.16656
8.83299
-0.0736007
8.91039
-0.0366105
7.16738
-0.0925963
7.80251
-0.0625909
7.69621
-0.0693368
7.79728
-0.06621
7.77426
-0.0545477
7.72023
-0.0434455
7.75067
-0.0289954
7.74408
-0.0116827
7.7212
0.00150226
7.73869
0.0179537
7.71373
0.0267397
7.76408
0.0275099
7.77049
0.0370184
7.75995
0.0544077
7.7128
0.0645678
7.74791
0.0818922
7.71682
0.096932
7.71718
0.101074
7.77891
0.0968758
7.79298
0.124868
7.68736
0.090335
7.79124
0.0978045
7.15795
8.92809
0.118551
8.79181
0.0437289
7.24213
-0.0502078
7.89644
-0.0125088
7.65854
-0.0309576
7.8158
-0.0334806
7.77621
-0.0282895
7.71463
-0.0219806
7.74586
-0.010244
7.73588
0.00170912
7.71035
0.00915689
7.7313
0.0210976
7.7015
0.0256681
7.75957
0.0249205
7.77124
0.0296282
7.75523
0.04222
7.70019
0.0464589
7.74367
0.0582169
7.70504
0.0683449
7.70704
0.0690658
7.7782
0.0523895
7.80972
0.088453
7.65128
-0.0137774
7.89394
-0.0209966
7.16492
8.90963
0.304641
8.48712
0.136068
7.41063
-0.0067894
8.03931
0.0223692
7.6293
-0.0218236
7.85981
-0.0474965
7.8012
-0.0653315
7.73172
-0.0792529
7.76136
-0.08474
7.74394
-0.0896959
7.71706
-0.107939
7.75051
-0.117521
7.71128
-0.130693
7.77277
-0.14637
7.7869
-0.158079
7.7669
-0.166333
7.70842
-0.184889
7.76222
-0.193176
7.71329
-0.208099
7.72194
-0.228686
7.79878
-0.262792
7.8439
-0.284747
7.67325
-0.354888
7.96453
-0.658374
7.46788
8.2551
0.873292
7.61376
0.52193
7.7619
0.410634
8.15053
0.332235
7.70724
0.268151
7.92369
0.225333
7.84305
0.187505
7.76944
0.160149
7.79088
0.142116
7.76445
0.120164
7.74105
0.0878602
7.78446
0.0635176
7.73588
0.0383919
7.79784
0.00666582
7.81859
-0.0192591
7.79277
-0.0444429
7.7336
-0.0742289
7.79201
-0.100871
7.73992
-0.130821
7.75187
-0.16714
7.83516
-0.228211
7.90507
-0.279033
7.72415
-0.40627
8.09217
-0.693628
7.75518
7.56625
0.592909
7.02083
0.410122
7.94467
0.23773
8.32287
0.187764
7.75735
0.128606
7.98246
0.0941674
7.87765
0.0778733
7.78547
0.0732558
7.79804
0.0792312
7.75989
0.0816702
7.74075
0.0772721
7.79182
0.0739463
7.73984
0.077692
7.79389
0.0767331
7.81945
0.0769083
7.79247
0.07236
7.73813
0.0674776
7.79691
0.0627859
7.74457
0.0560245
7.75858
0.02929
7.86192
-0.0267375
7.9612
-0.0466076
7.74416
-0.219314
8.26528
-0.37242
7.9085
7.19474
-3.05108
10.0721
-3.39112
8.2846
-2.76488
7.69618
-2.62185
7.61336
-2.30482
7.66522
-1.93336
7.50668
-1.66976
7.52517
-1.37653
7.50673
-1.07471
7.45794
-0.782012
7.45072
-0.488751
7.50287
-0.206323
7.45777
0.0985279
7.48863
0.403593
7.51423
0.694676
7.50122
0.966983
7.46579
1.26394
7.49995
1.54131
7.46721
1.83504
7.46487
2.19633
7.50066
2.50183
7.65577
2.66002
7.58612
3.23564
7.6898
2.95103
8.19351
10.1435
-4.25751
14.3301
-4.36395
8.39083
-4.19561
7.52571
-3.89858
7.31547
-3.31704
7.08556
-2.82741
7.02084
-2.37245
7.07331
-1.90199
7.0354
-1.45128
7.00558
-1.01622
7.01882
-0.558401
7.05037
-0.118847
7.01807
0.342319
7.0269
0.810848
7.04549
1.25858
7.05333
1.67753
7.04677
2.13045
7.04699
2.56893
7.0287
3.0239
7.00993
3.57592
6.94867
4.13392
7.09776
4.44447
7.27574
4.61554
7.51862
4.56511
8.24416
14.7075
-2.75189
17.0837
-4.85734
10.4953
-4.97429
7.6391
-4.14793
6.49083
-3.65664
6.60159
-3.2118
6.58172
-2.69136
6.55569
-2.18241
6.52386
-1.70195
6.52254
-1.2225
6.54215
-0.721103
6.5532
-0.241216
6.53708
0.26065
6.52427
0.762194
6.5437
1.25834
6.55697
1.71872
6.58619
2.20665
6.55891
2.69603
6.53922
3.19047
6.51554
3.66584
6.47342
4.24777
6.51584
5.09899
6.4245
4.72261
7.89483
2.77962
10.1868
17.4864
2.36805
14.7174
0.163686
12.7009
-5.0225
12.8232
-3.9184
5.38682
-3.82611
6.5177
-3.30774
6.071
-2.8429
6.09322
-2.34583
6.02523
-1.84421
6.01943
-1.33347
6.03298
-0.810271
6.03035
-0.304392
6.02884
0.214384
6.00432
0.742106
6.01574
1.26358
6.03514
1.78559
6.06373
2.28064
6.06347
2.76046
6.05919
3.19997
6.07607
3.75865
5.91494
3.97163
6.30296
5.10778
5.28863
-0.181625
13.1842
-2.39859
12.4035
15.0879
2.44805
12.2717
3.52137
11.6297
3.39691
12.9408
-0.884167
9.66338
-3.60869
9.24746
-3.19609
5.65399
-2.95098
5.84878
-2.46952
5.54336
-1.9532
5.50148
-1.4692
5.54672
-0.97661
5.53372
-0.470872
5.52028
0.0289867
5.50301
0.533945
5.51055
1.03057
5.53812
1.52106
5.57242
2.02293
5.56076
2.48174
5.60003
2.61211
5.94615
2.98438
5.54307
-0.0904667
9.37806
-4.15578
9.35287
-3.87814
12.907
-2.95601
11.4808
12.1314
1.87319
10.3995
3.86213
9.64127
5.77415
11.022
4.95476
10.4766
4.00248
10.1979
-1.26195
10.9467
-2.37902
6.97307
-2.0475
5.21184
-1.63366
5.08565
-1.13866
5.04664
-0.602879
4.99322
-0.06164
4.97677
0.472414
4.96791
1.00863
4.97414
1.54754
4.99877
2.05352
5.06486
2.44302
5.16982
2.79522
5.247
1.50814
7.23367
-3.66633
10.7171
-4.23908
9.95095
-4.89328
10.0069
-3.05269
11.0666
-1.33338
9.76106
10.7976
1.09035
9.30948
2.1682
8.56364
3.99107
9.19638
4.9599
9.5019
5.06124
10.0851
5.79023
10.2112
2.74678
10.0281
1.11453
6.8456
-0.0733994
6.27108
-0.393353
5.36317
-0.251124
4.84862
0.042471
4.6817
0.393633
4.61624
0.716612
4.65063
0.926673
4.78755
0.801323
5.18841
-0.523067
6.49238
-2.33795
7.06165
-5.03212
9.92884
-4.28086
9.96719
-3.97062
9.64124
-3.50967
9.5465
-1.86232
9.41988
-0.762097
8.66116
10.0353
2.00914
7.29973
3.18054
7.39125
4.38927
7.98483
5.97125
7.91586
7.07463
8.9689
6.64146
10.6271
4.68086
11.9919
2.12285
9.40487
0.850235
7.54376
0.149503
6.06439
-0.0374182
5.03782
-0.0695126
4.71636
-0.0357582
4.58479
-0.0255706
4.64144
-0.156455
4.91785
-0.799408
5.82942
-2.35276
8.04273
-4.93007
9.63805
-6.74166
11.7389
-7.24626
10.4752
-6.42397
8.8197
-5.00223
8.12558
-3.70773
8.12572
-2.56016
7.51401
7.47543
2.53966
4.75967
4.16408
5.76719
4.71348
7.4341
4.35732
8.26843
4.56034
8.76183
4.30443
10.8751
4.14703
12.1489
2.51057
11.0422
1.33428
8.71986
0.577937
6.82039
0.205801
5.41107
-0.0898549
5.01259
-0.385448
4.88018
-0.686932
4.94153
-1.02581
5.25474
-1.88245
6.68426
-3.21003
9.36986
-4.90859
11.3369
-5.83609
12.6659
-6.22745
10.8675
-5.96699
8.5594
-5.94425
8.10283
-4.96565
7.14811
-2.94111
5.48996
4.53475
3.16601
1.59326
6.24068
2.69255
8.487
5.18938
8.29167
8.4662
6.49688
10.5529
5.94487
11.4213
5.60565
12.4828
4.92404
11.7242
4.16683
9.47675
3.24953
7.73704
1.98257
6.67749
0.821409
6.17298
-0.325081
6.02625
-1.51575
6.13245
-2.88285
6.62187
-3.98091
7.7825
-4.39595
9.78613
-4.77054
11.7119
-4.65398
12.5488
-5.29058
11.5041
-7.53955
10.8088
-7.85859
8.42122
-5.77202
5.06229
-2.9595
2.67796
1.57545
1.20174
0.392065
2.93085
0.964147
4.9638
3.15793
6.48263
6.94893
5.77536
11.2588
5.45782
11.7365
5.43541
12.5025
4.89824
12.2615
3.82578
10.5499
2.6618
8.90114
1.51192
7.82689
0.381053
7.30352
-0.750004
7.15752
-1.91555
7.29884
-3.16417
7.87088
-4.45933
9.07778
-5.47693
10.804
-5.8976
12.1336
-5.82249
12.4749
-6.09782
11.7794
-6.67436
11.3854
-4.99156
6.73745
-2.98198
3.05268
-1.21217
0.908369
0.36346
0.582087
-0.188726
0.869474
0.678397
1.00527
3.02267
1.32744
6.62695
2.26491
10.3209
2.91551
11.0846
3.42149
11.9955
3.35277
12.331
2.67606
11.2276
1.80388
9.77339
0.944764
8.68569
0.109252
8.13926
-0.729478
7.99691
-1.60328
8.17339
-2.54518
8.81292
-3.49437
10.0267
-4.10492
11.4149
-4.0426
12.0726
-3.42596
11.8598
-2.71925
11.0736
-1.66332
10.3301
-1.14097
6.21559
-0.917032
2.82905
-0.597531
0.588914
-0.234077
-0.153611
-0.0347526
-0.295294
0.821906
-0.693518
3.42382
-0.654715
6.58826
0.392202
9.2742
1.30543
10.1701
1.90605
11.3959
2.04656
12.1925
1.75508
11.5192
1.27947
10.2484
0.725403
9.23931
0.153522
8.71142
-0.408485
8.55942
-0.986701
8.752
-1.54807
9.37405
-1.99031
10.4682
-2.17369
11.5985
-1.96174
11.8611
-1.27611
11.1752
-0.300933
10.0994
0.797633
9.23273
0.686378
6.32746
0.362032
3.15326
0.200646
0.75007
-0.0335206
-0.525092
0.490755
-1.3651
1.66304
-1.78141
3.84078
-1.80355
6.61211
-0.921001
8.39295
-0.0575484
9.30613
0.468079
10.8726
0.77653
11.8859
0.865149
11.4286
0.732817
10.3786
0.497522
9.47354
0.221312
8.98724
-0.0742389
8.85487
-0.335253
9.01275
-0.53248
9.57076
-0.603287
10.5381
-0.474211
11.4689
-0.190211
11.5777
0.441879
10.5435
1.30347
9.23887
2.16967
8.36872
2.03109
6.46733
1.49535
3.68905
0.541994
1.70262
0.50828
-0.400962
0.891297
-1.50799
2.77047
-2.42513
4.7593
-2.55142
6.74053
-2.06659
7.90861
-1.59309
8.83404
-1.02852
10.3122
-0.512285
11.3708
-0.158883
11.0715
0.00493899
10.2125
0.0227527
9.45391
-0.0467331
9.05603
-0.131989
8.93966
-0.207195
9.0875
-0.194459
9.55741
-0.0155249
10.3582
0.345639
11.1064
0.829727
11.0931
1.34186
10.0323
1.91913
8.66285
2.45635
7.83276
2.3352
6.58955
1.36437
4.66042
0.353372
2.71412
0.861161
-0.383909
1.27706
-1.39491
3.78161
-2.19128
5.55814
-2.4293
6.98027
-2.19396
7.67421
-1.88523
8.526
-1.45062
9.87934
-0.920975
10.8403
-0.473241
10.6196
-0.223413
9.96007
-0.107277
9.33623
-0.0550101
9.00271
-0.0359277
8.91977
0.0279378
9.02268
0.168144
9.41646
0.434591
10.0907
0.866179
10.6737
1.37609
10.5827
1.76718
9.64083
2.1066
8.32473
2.37837
7.56286
2.11432
6.85459
1.31023
5.46529
0.353776
3.67144
1.21427
-0.351282
1.6274
-1.23703
4.66813
-2.05687
6.37943
-2.41488
7.33947
-2.3808
7.64083
-2.15536
8.30089
-1.77672
9.50197
-1.2194
10.2819
-0.722987
10.1195
-0.346346
9.58142
-0.129403
9.11814
0.0116224
8.86091
0.150228
8.78017
0.293359
8.87852
0.52418
9.18455
0.928434
9.68511
1.44424
10.1566
1.95593
10.07
2.27947
9.31799
2.49497
8.11016
2.50764
7.55152
2.13937
7.22251
1.24524
6.35904
0.356156
4.55882
1.5676
-0.443063
2.06969
-1.37994
5.60259
-2.20603
7.20564
-2.5338
7.66756
-2.59063
7.69588
-2.46039
8.17093
-2.16549
9.20762
-1.65522
9.77031
-1.13677
9.59848
-0.750043
9.19365
-0.461229
8.82838
-0.226027
8.62462
-0.0307257
8.58363
0.205227
8.64164
0.500434
8.88819
0.877135
9.30725
1.35004
9.68204
1.83285
9.58626
2.14134
9.00869
2.29481
7.95793
2.23775
7.61033
1.95594
7.50489
1.21776
7.09768
0.376193
5.40082
1.943
-0.388909
2.45787
-1.2283
6.43944
-1.96809
7.9467
-2.16809
7.86991
-2.35269
7.8791
-2.26851
8.08645
-1.98742
8.9264
-1.49476
9.27646
-1.02389
9.1269
-0.61481
8.78379
-0.310962
8.52407
-0.0650252
8.37757
0.181375
8.33609
0.427916
8.39347
0.739932
8.57484
1.17841
8.86752
1.66381
9.19543
2.09946
9.15012
2.33433
8.77428
2.40751
7.88429
2.19793
7.82203
1.94845
7.756
1.18157
7.86535
0.360342
6.22024
2.30353
-0.325533
2.7822
-1.20937
7.32146
-1.91897
8.65172
-2.08335
8.03226
-2.23222
8.02638
-2.16605
8.02254
-1.92135
8.6831
-1.48988
8.84571
-1.02933
8.66494
-0.651283
8.40566
-0.316096
8.18854
-0.0156626
8.07675
0.256053
8.06329
0.565279
8.08338
0.915201
8.22365
1.30115
8.47995
1.73897
8.7568
2.16371
8.72401
2.38007
8.55816
2.44119
7.82342
2.27959
7.98392
2.09441
7.94154
1.40869
8.55127
0.463263
7.16606
2.76975
-0.542904
3.32305
-1.4514
8.23321
-2.05573
9.25617
-2.224
8.19902
-2.40101
8.20283
-2.43854
8.06039
-2.23957
8.48499
-1.7855
8.39146
-1.34927
8.22863
-0.935312
7.99219
-0.599827
7.85281
-0.304392
7.7803
-0.00208702
7.76011
0.293964
7.78619
0.63437
7.88211
1.0564
8.05704
1.48816
8.32292
1.86734
8.34471
2.06668
8.35889
2.0343
7.85738
1.92846
8.09087
1.72162
8.15202
1.14969
9.12294
0.398817
7.91495
3.17282
-0.469669
3.7936
-1.3011
9.06466
-1.88432
9.83941
-2.03205
8.35127
-2.03683
8.21127
-2.01586
8.04147
-1.82285
8.29266
-1.46831
8.03674
-1.07381
7.83449
-0.728129
7.64646
-0.392186
7.5165
-0.0686157
7.45651
0.233868
7.45692
0.563421
7.45567
0.906182
7.53816
1.26143
7.70049
1.64127
7.94273
2.01286
7.97155
2.15561
8.21611
2.16046
7.85128
2.14719
8.10444
1.93795
8.36193
1.42048
9.64347
0.52223
8.81328
3.67673
-0.404065
4.19358
-0.816934
9.4664
-1.59485
10.6157
-1.7591
8.5113
-1.822
8.27325
-1.77814
7.99846
-1.64756
8.16233
-1.3209
7.71133
-0.998195
7.51174
-0.655206
7.30367
-0.353698
7.21496
-0.0706035
7.17287
0.229306
7.15647
0.507166
7.17719
0.815781
7.2288
1.18493
7.33013
1.52955
7.59718
1.79372
7.70664
1.91922
8.09048
1.94862
7.82122
1.93508
8.11665
1.86265
8.43508
1.1147
10.3891
0.509891
9.41088
4.18167
-0.618318
4.80842
-1.09822
9.94821
-1.84915
11.3703
-1.9877
8.65451
-1.95444
8.24287
-1.88916
7.93433
-1.712
7.98587
-1.42386
7.42282
-1.10895
7.19704
-0.821135
7.01619
-0.527574
6.92122
-0.223264
6.8684
0.0608716
6.87192
0.371934
6.86541
0.671169
6.9288
0.952278
7.04838
1.24721
7.3011
1.54851
7.40515
1.68451
7.95448
1.75403
7.75075
1.75303
8.11598
1.67453
8.51649
0.802534
11.2501
0.459707
9.73447
4.65926
-0.452636
5.25867
-0.777121
10.2798
-1.39496
11.9942
-1.6037
8.86854
-1.65936
8.30253
-1.60651
7.88272
-1.44918
7.82883
-1.18709
7.15965
-0.909891
6.92071
-0.607045
6.71272
-0.327443
6.64152
-0.0672516
6.60798
0.21505
6.58929
0.470733
6.60939
0.751074
6.64793
1.06862
6.73021
1.34739
7.02213
1.5863
7.16421
1.74407
7.79811
1.76491
7.7343
1.75196
8.12887
1.50758
8.7562
0.989468
11.7744
0.565124
10.1381
5.24234
-0.327386
5.58552
-0.505377
10.4564
-1.03064
12.5102
-1.52514
9.35781
-1.56259
8.33414
-1.48149
7.79553
-1.26559
7.61016
-1.05558
6.95212
-0.816182
6.68195
-0.580697
6.47753
-0.333406
6.39436
-0.069769
6.34426
0.171294
6.34796
0.440444
6.33989
0.685758
6.40229
0.91648
6.49887
1.16285
6.77568
1.39715
6.93
1.57284
7.61837
1.62487
7.67751
1.66924
8.08787
1.27161
9.15819
0.754865
12.299
0.338911
10.5651
5.56232
-0.462709
6.04954
-0.694823
10.6717
-0.993286
12.8059
-1.60278
9.97127
-1.56463
8.29822
-1.517
7.7512
-1.37435
7.47244
-1.12425
6.70205
-0.90988
6.46816
-0.65678
6.22425
-0.417326
6.15483
-0.196856
6.1238
0.0488325
6.10217
0.265765
6.12278
0.513347
6.15448
0.777448
6.23474
0.98006
6.57261
1.19514
6.71641
1.3531
7.4632
1.39093
7.64343
1.36078
8.11619
0.752518
9.76599
0.424543
12.6343
0.198847
10.7919
5.74035
-0.248578
6.30797
-0.364561
10.7776
-0.509594
12.9499
-1.25434
10.7277
-1.37441
8.42114
-1.33995
7.71759
-1.12597
7.25877
-0.910578
6.4859
-0.698613
6.25776
-0.503269
6.02874
-0.288808
5.94056
-0.0512424
5.88616
0.163244
5.8875
0.407901
5.87808
0.617178
5.94534
0.810261
6.04151
1.03988
6.34332
1.28056
6.47578
1.46488
7.2787
1.48464
7.62199
1.40452
8.19566
0.698935
10.4771
0.625221
12.7146
0.325086
11.0789
6.09071
-0.0517614
6.37477
-0.0752032
10.8038
-0.113143
12.9884
-0.79944
11.4016
-1.18373
8.79652
-1.13695
7.66519
-1.02996
7.14991
-0.833822
6.29263
-0.654609
6.08009
-0.445237
5.81985
-0.242207
5.73785
-0.0613686
5.70554
0.14679
5.67944
0.322182
5.70277
0.527353
5.74019
0.756403
5.81278
0.921276
6.17861
1.10252
6.29435
1.27199
7.10907
1.34262
7.55273
0.996831
8.54625
0.311757
11.1804
0.270114
12.7668
0.289744
11.0963
6.3317
-0.231746
6.61186
-0.395828
10.9815
-0.232332
12.8242
-0.751913
11.9217
-1.32729
9.38722
-1.23267
7.57514
-1.06363
6.98779
-0.883453
6.11538
-0.69073
5.88823
-0.524776
5.65379
-0.353104
5.56643
-0.149572
5.50203
0.0319746
5.4981
0.234974
5.49993
0.405897
5.5697
0.567966
5.65118
0.775603
5.97196
0.950634
6.12198
1.05398
7.00794
1.13009
7.47663
0.480258
9.18209
-0.106565
11.7612
0.03242
12.625
0.156192
10.9716
6.50424
-0.0370785
6.64398
-0.0700194
11.0225
0.11554
12.6425
-0.184505
12.2222
-0.872183
10.0919
-0.940984
7.64606
-0.865508
6.91278
-0.718614
5.96859
-0.573192
5.74278
-0.385877
5.4665
-0.202344
5.38325
-0.0436873
5.34378
0.135941
5.31873
0.293441
5.34277
0.477326
5.38617
0.681588
5.44701
0.814547
5.83904
0.961373
5.97326
1.08998
6.87884
1.03976
7.52903
0.400811
9.83442
0.0853641
12.0753
0.254056
12.4433
0.24114
10.9359
6.80866
0.0200382
6.61579
0.0771606
10.9594
0.295545
12.4258
0.194894
12.3109
-0.548192
10.8088
-0.908634
7.99864
-0.734903
6.73772
-0.636172
5.8726
-0.487561
5.59591
-0.35203
5.33188
-0.208939
5.24076
-0.0418631
5.17717
0.11289
5.1645
0.286186
5.17006
0.423492
5.24935
0.562675
5.30868
0.742961
5.66128
0.841103
5.87787
1.05234
6.66931
0.768249
7.81522
-0.00830163
10.6185
-0.150507
12.2178
0.0472572
12.2449
0.0473273
10.9643
6.89117
-0.125833
6.73428
-0.0913815
10.9131
0.079337
12.2528
0.166258
12.2383
-0.313821
11.299
-0.812635
8.50739
-0.77599
6.70922
-0.662999
5.76216
-0.568294
5.50092
-0.417201
5.18026
-0.262245
5.08579
-0.12406
5.03921
0.0281188
5.0128
0.161368
5.03741
0.321742
5.08964
0.477072
5.15379
0.552447
5.58586
0.632598
5.79899
0.728056
6.57454
0.182588
8.35531
-0.441542
11.2362
-0.305646
12.0771
-0.232577
12.1898
-0.173744
10.975
6.70769
-0.0368509
6.76719
0.0400397
10.8283
0.201515
12.0886
0.555873
11.886
0.108189
11.745
-0.502592
9.12188
-0.649351
6.8514
-0.508633
5.61871
-0.411581
5.40257
-0.303831
5.07279
-0.181987
4.96468
-0.0345191
4.89245
0.104158
4.87472
0.257026
4.88518
0.37413
4.97324
0.494804
5.03319
0.639669
5.44057
0.759497
5.67874
0.636322
6.70063
0.0789893
8.91937
-0.282443
11.5956
-0.055185
11.8552
0.0366794
12.1162
0.0269597
10.9645
6.70304
0.0889664
6.67978
0.258891
10.6588
0.320766
12.0215
0.581473
11.6183
0.726613
11.5853
-0.0500794
9.88873
-0.467798
7.26572
-0.447921
5.60299
-0.371883
5.32855
-0.271193
4.97367
-0.146072
4.83994
-0.0319931
4.77869
0.096834
4.74642
0.209692
4.773
0.343672
4.83997
0.453716
4.92468
0.524249
5.37239
0.594019
5.61068
0.335607
6.95867
-0.427143
9.67946
-0.435569
11.5989
-0.194626
11.638
-0.184643
12.117
-0.0375409
10.85
6.63693
-0.118814
6.80054
-0.0119318
10.5588
0.0993374
11.909
0.367073
11.3654
0.63694
11.3302
0.0687894
10.4674
-0.403956
7.74994
-0.467188
5.66677
-0.383106
5.2439
-0.304286
4.89304
-0.215864
4.75162
-0.0932097
4.65641
0.0230475
4.63071
0.145409
4.6511
0.231651
4.75439
0.316583
4.83855
0.411405
5.27728
0.321415
5.70312
-0.15832
7.43948
-0.796245
10.3136
-0.584524
11.3762
-0.393676
11.4332
-0.330381
12.0459
-0.0313792
10.5027
6.57584
0.0485471
6.75783
0.227887
10.39
0.284813
11.8555
0.473147
11.1596
0.882484
10.9117
0.702406
10.635
-0.00252881
8.44963
-0.303243
5.95964
-0.318485
5.25849
-0.21614
4.79265
-0.120937
4.65714
-0.0292066
4.56503
0.0791216
4.52254
0.173018
4.55761
0.282016
4.64592
0.35052
4.7709
0.38094
5.24783
0.143323
5.93819
-0.427366
8.01351
-0.783194
10.6707
-0.397965
10.9896
-0.205665
11.2344
-0.10655
11.9012
0.0737471
10.2825
6.62346
0.0642391
6.69649
0.292956
10.1609
0.392807
11.7552
0.567916
10.9783
0.838366
10.6467
0.967695
10.5008
0.305488
9.11235
-0.0797017
6.34884
-0.212114
5.39516
-0.159467
4.7411
-0.0970034
4.59448
-0.015014
4.48328
0.0707358
4.43756
0.164076
4.46456
0.227172
4.58312
0.313752
4.68684
0.256474
5.30756
-0.130341
6.32929
-0.839184
8.73085
-0.763112
10.5867
-0.450916
10.6581
-0.238065
10.9986
-0.138047
11.7734
0.0344131
10.0939
6.64364
-0.0200838
6.7212
0.149989
9.9815
0.269306
11.636
0.405271
10.863
0.626018
10.4295
1.03483
10.0998
0.723273
9.42934
0.0687615
7.00688
-0.226968
5.68964
-0.187521
4.69986
-0.125842
4.5324
-0.0578979
4.41514
0.0121166
4.36763
0.0749683
4.40182
0.139536
4.51895
0.171481
4.65315
-0.0797669
5.55873
-0.699296
6.95487
-1.184
9.21667
-0.80294
10.2011
-0.566775
10.4088
-0.407223
10.8132
-0.283951
11.6701
-0.0735264
9.90047
6.58244
-0.0230083
6.7496
0.224244
9.73331
0.414708
11.4454
0.514437
10.7479
0.727681
10.1971
1.00725
9.81067
0.974376
9.45481
0.358877
7.61992
0.00339047
6.0437
-0.0990101
4.80372
-0.0619046
4.49586
-0.011974
4.36582
0.037889
4.31786
0.0907726
4.349
0.137138
4.4728
0.0896586
4.70191
-0.237281
5.88512
-0.852697
7.57564
-1.08706
9.44139
-0.719759
9.82204
-0.467137
10.1524
-0.336543
10.7025
-0.1516
11.5071
0.0758306
9.69706
6.68184
0.0195362
6.73374
0.274999
9.4714
0.532053
11.1788
0.61333
10.6816
0.779594
10.0411
0.997211
9.59391
1.32273
9.12917
0.893699
8.05301
0.175988
6.7672
-0.00682174
4.98769
-0.0173664
4.5064
0.00664963
4.3411
0.0375374
4.28682
0.0647867
4.32185
0.0723746
4.46534
-0.0965052
4.8722
-0.778196
6.56967
-1.19328
7.99364
-0.979383
9.23507
-0.730326
9.56883
-0.527565
9.9468
-0.453186
10.6438
-0.174705
11.2648
0.0739689
9.4501
6.78191
-0.0287591
-0.515484
-0.0518632
-0.565491
-0.0786054
-0.60746
-0.103152
-0.667634
-0.128068
-0.732915
-0.15448
-0.800794
-0.177091
-0.862294
-0.194229
-0.921468
-0.203281
-0.980958
-0.202272
-1.04248
-0.196256
-1.10137
-0.185792
-1.15919
-0.170673
-1.20735
-0.154089
-1.24695
-0.136797
-1.28192
-0.119271
-1.30983
-0.102727
-1.33487
-0.0878009
-1.35779
-0.0753271
-1.38167
-0.0661576
-1.40779
-0.0597047
-1.43539
-0.0553702
-1.46486
-0.051466
-1.48821
-0.0492208
-1.5114
-0.0441911
-1.5344
-0.0381572
-1.54375
-0.0296508
-1.53089
-0.0188641
-1.51531
-0.00804371
-1.50031
-1.42883
0.00668161
-0.518091
-0.0213072
-0.53457
-0.0459787
-0.576183
-0.0716185
-0.630255
-0.0963802
-0.693895
-0.12188
-0.75762
-0.144306
-0.815471
-0.161125
-0.873984
-0.169244
-0.935624
-0.172676
-0.999298
-0.170414
-1.06269
-0.163209
-1.12476
-0.152436
-1.17964
-0.139531
-1.22796
-0.125013
-1.27131
-0.109576
-1.30651
-0.0947861
-1.33716
-0.0817957
-1.36251
-0.0712839
-1.38649
-0.0628019
-1.41202
-0.0565541
-1.44038
-0.052312
-1.46575
-0.0483264
-1.48658
-0.0439175
-1.50769
-0.0397969
-1.52993
-0.0331964
-1.53883
-0.0270224
-1.5225
-0.0198689
-1.51998
-0.0096974
-1.51301
-1.44978
-0.0225036
-0.491669
-0.0522664
-0.500202
-0.0817249
-0.538816
-0.111142
-0.588327
-0.140233
-0.649634
-0.168327
-0.71037
-0.190188
-0.766282
-0.207055
-0.824136
-0.220147
-0.885882
-0.2253
-0.953013
-0.225017
-1.02033
-0.217579
-1.0874
-0.206622
-1.14905
-0.192792
-1.20618
-0.176391
-1.25778
-0.158357
-1.30132
-0.140222
-1.3388
-0.122982
-1.36912
-0.108267
-1.39412
-0.0964902
-1.41859
-0.0866948
-1.44405
-0.0784141
-1.46549
-0.0706363
-1.48417
-0.0621771
-1.50648
-0.0538281
-1.52313
-0.0439935
-1.52466
-0.0353601
-1.52659
-0.0248197
-1.5267
-0.0127151
-1.51891
-1.43804
-0.0377305
-0.448972
-0.0722303
-0.460706
-0.105655
-0.496857
-0.137745
-0.543611
-0.16973
-0.602076
-0.199204
-0.660627
-0.221491
-0.714537
-0.240017
-0.773692
-0.254334
-0.836764
-0.262232
-0.905665
-0.26417
-0.975077
-0.260002
-1.04508
-0.251981
-1.11269
-0.240306
-1.17732
-0.224908
-1.23684
-0.206525
-1.28927
-0.186776
-1.33496
-0.167169
-1.37205
-0.14923
-1.40141
-0.133354
-1.42598
-0.118173
-1.44804
-0.104515
-1.4678
-0.0924929
-1.48637
-0.0804654
-1.50329
-0.0677333
-1.51856
-0.0566101
-1.52361
-0.0454105
-1.52889
-0.0328312
-1.53225
-0.0169351
-1.50107
-1.42684
-0.037747
-0.405851
-0.073471
-0.419866
-0.108218
-0.453566
-0.141649
-0.49847
-0.173524
-0.554197
-0.199499
-0.610812
-0.223555
-0.665114
-0.244035
-0.724588
-0.259578
-0.787784
-0.269967
-0.856998
-0.274765
-0.927865
-0.27328
-1.00044
-0.268184
-1.07273
-0.259539
-1.14346
-0.246695
-1.20994
-0.229907
-1.27095
-0.210489
-1.32555
-0.189566
-1.37156
-0.168731
-1.4075
-0.149914
-1.43404
-0.132148
-1.45425
-0.115745
-1.47229
-0.101275
-1.48849
-0.0869214
-1.50218
-0.0716124
-1.5161
-0.0600852
-1.52207
-0.0478854
-1.52737
-0.0331291
-1.50972
-0.0172038
-1.50466
-1.43779
-0.0360548
-0.364556
-0.0743113
-0.376331
-0.110082
-0.409275
-0.144267
-0.452836
-0.175459
-0.506973
-0.200921
-0.563003
-0.224924
-0.617919
-0.245222
-0.676386
-0.261767
-0.739305
-0.274749
-0.80755
-0.281932
-0.879855
-0.283452
-0.954559
-0.281552
-1.02999
-0.276227
-1.10487
-0.266521
-1.17689
-0.252337
-1.24533
-0.234944
-1.30865
-0.215137
-1.36359
-0.192962
-1.40755
-0.169888
-1.43947
-0.148716
-1.46045
-0.129217
-1.47631
-0.111802
-1.49139
-0.0951938
-1.50417
-0.0780831
-1.51614
-0.0645386
-1.52303
-0.0514062
-1.52693
-0.0366849
-1.51949
-0.0190459
-1.52011
-1.45082
-0.0385258
-0.320777
-0.0771184
-0.33194
-0.113127
-0.364641
-0.147222
-0.407139
-0.178164
-0.46075
-0.203224
-0.517002
-0.226385
-0.572161
-0.247236
-0.629955
-0.264602
-0.692013
-0.279647
-0.758651
-0.289312
-0.831974
-0.293316
-0.90823
-0.294328
-0.98546
-0.29214
-1.0631
-0.285604
-1.13915
-0.274521
-1.21328
-0.25949
-1.28458
-0.240201
-1.34799
-0.216764
-1.40189
-0.190964
-1.44155
-0.166347
-1.46595
-0.142951
-1.48242
-0.122211
-1.49689
-0.102962
-1.50905
-0.0839426
-1.51816
-0.0687299
-1.52578
-0.0541394
-1.53
-0.0389884
-1.52985
-0.0203454
-1.51419
-1.44306
-0.0415936
-0.273898
-0.081134
-0.286288
-0.117022
-0.320062
-0.150803
-0.361867
-0.181711
-0.415397
-0.206683
-0.471791
-0.229344
-0.528837
-0.249353
-0.585813
-0.267693
-0.646398
-0.284299
-0.711069
-0.29575
-0.785248
-0.302467
-0.86227
-0.305927
-0.940294
-0.30661
-1.01966
-0.303215
-1.09824
-0.294571
-1.17756
-0.283268
-1.25301
-0.267043
-1.32387
-0.24447
-1.38777
-0.21777
-1.43702
-0.189087
-1.47019
-0.161307
-1.49041
-0.136519
-1.50489
-0.113969
-1.51432
-0.0923259
-1.5228
-0.0746303
-1.53112
-0.0587239
-1.53593
-0.0412929
-1.54202
-0.0215736
-1.51312
-1.44596
-0.0441203
-0.22428
-0.0833791
-0.240761
-0.119555
-0.275159
-0.152686
-0.317397
-0.183528
-0.371166
-0.210908
-0.427796
-0.232284
-0.485793
-0.251246
-0.543946
-0.270437
-0.603053
-0.286571
-0.666772
-0.299085
-0.740921
-0.30799
-0.81772
-0.313733
-0.895703
-0.316685
-0.975392
-0.315541
-1.05618
-0.311473
-1.13611
-0.304065
-1.21456
-0.291265
-1.29346
-0.270511
-1.36488
-0.243081
-1.42542
-0.212558
-1.46964
-0.181488
-1.49739
-0.152138
-1.51392
-0.125753
-1.52223
-0.101966
-1.52789
-0.0799003
-1.53642
-0.0605308
-1.54612
-0.0409359
-1.54152
-0.0215492
-1.52501
-1.46269
-0.0441531
-0.173831
-0.0839378
-0.19468
-0.120098
-0.230244
-0.152239
-0.274054
-0.182631
-0.328396
-0.209677
-0.385709
-0.232586
-0.444347
-0.250567
-0.50272
-0.269198
-0.562122
-0.284852
-0.626174
-0.298695
-0.698328
-0.309021
-0.775293
-0.316847
-0.852815
-0.322307
-0.930403
-0.324531
-1.01116
-0.324069
-1.09054
-0.318895
-1.1733
-0.308467
-1.25689
-0.290997
-1.33454
-0.26667
-1.4033
-0.234836
-1.4609
-0.201605
-1.49967
-0.169042
-1.52193
-0.139315
-1.5316
-0.112647
-1.53514
-0.0885739
-1.54213
-0.0633222
-1.55159
-0.0418655
-1.54668
-0.0222565
-1.53502
-1.4714
-0.044157
-0.123399
-0.0839246
-0.148656
-0.119029
-0.186397
-0.149761
-0.23215
-0.179273
-0.287488
-0.20553
-0.345817
-0.227974
-0.405288
-0.246884
-0.464254
-0.264016
-0.522908
-0.279909
-0.586881
-0.291365
-0.660904
-0.303945
-0.734825
-0.316372
-0.807826
-0.324359
-0.884147
-0.329054
-0.964893
-0.33042
-1.04415
-0.328392
-1.12911
-0.32093
-1.21568
-0.30619
-1.2982
-0.28367
-1.37465
-0.255114
-1.4414
-0.220254
-1.4939
-0.184266
-1.52763
-0.151433
-1.54064
-0.121768
-1.54403
-0.0953771
-1.549
-0.069852
-1.55246
-0.047608
-1.55564
-0.0256119
-1.53551
-1.47013
-0.0435413
-0.0736147
-0.0832683
-0.102367
-0.117224
-0.144361
-0.146277
-0.192166
-0.174205
-0.248743
-0.19944
-0.308121
-0.221154
-0.368483
-0.239618
-0.4282
-0.256216
-0.48649
-0.268207
-0.553272
-0.283339
-0.622124
-0.299708
-0.691696
-0.312993
-0.763982
-0.322572
-0.839792
-0.328816
-0.918559
-0.332219
-0.997573
-0.332978
-1.08305
-0.328284
-1.17106
-0.316552
-1.25723
-0.297461
-1.34079
-0.270554
-1.41695
-0.237362
-1.47803
-0.200962
-1.52354
-0.162338
-1.54794
-0.129353
-1.55418
-0.101012
-1.55662
-0.0747126
-1.55518
-0.0545355
-1.55997
-0.0285444
-1.53576
-1.46881
-0.0440218
-0.0237152
-0.0810591
-0.0585556
-0.114077
-0.103238
-0.142443
-0.15401
-0.16818
-0.212366
-0.192246
-0.272473
-0.213258
-0.333826
-0.231326
-0.394232
-0.246563
-0.453249
-0.261811
-0.518897
-0.278135
-0.584671
-0.293539
-0.651883
-0.307212
-0.722359
-0.317886
-0.796336
-0.325361
-0.872667
-0.33065
-0.951609
-0.333707
-1.03636
-0.331485
-1.1245
-0.32286
-1.21295
-0.30759
-1.30163
-0.284052
-1.38624
-0.252721
-1.45966
-0.216378
-1.51599
-0.176532
-1.55027
-0.13871
-1.56177
-0.106122
-1.56391
-0.0803857
-1.56424
-0.0576808
-1.556
-0.029886
-1.53786
-1.48768
-0.0426971
0.0248099
-0.078141
-0.0167271
-0.109557
-0.0638597
-0.13695
-0.117408
-0.161469
-0.177845
-0.184085
-0.238884
-0.204466
-0.301123
-0.222491
-0.36183
-0.238237
-0.421871
-0.254685
-0.485146
-0.270852
-0.548895
-0.285542
-0.614645
-0.299582
-0.68264
-0.310796
-0.754709
-0.319192
-0.828302
-0.325992
-0.906684
-0.330784
-0.990086
-0.330645
-1.07726
-0.324988
-1.16669
-0.313432
-1.25874
-0.29419
-1.34951
-0.266237
-1.43279
-0.230417
-1.50372
-0.190986
-1.55183
-0.149956
-1.57471
-0.115993
-1.57975
-0.0876691
-1.56705
-0.0596297
-1.56685
-0.0308886
-1.55765
-1.50613
-0.0414339
0.0721739