/*--------------------------------*- C++ -*----------------------------------*\
| =========                 |                                                 |
| \\      /  F ield         | OpenFOAM: The Open Source CFD Toolbox           |
|  \\    /   O peration     | Version:  2112                                  |
|   \\  /    A nd           | Website:  www.openfoam.com                      |
|    \\/     M anipulation  |                                                 |
\*---------------------------------------------------------------------------*/
FoamFile
{
    version     2.0;
    format      ascii;
    arch        "LSB;label=32;scalar=64";
    class       volVectorField;
    location    "0.01095";
    object      U;
}
// * * * * * * * * * * * * * * * * * * * * * * * * * * * * * * * * * * * * * //

dimensions      [0 1 -1 0 0 0 0];

internalField   nonuniform List<vector> 
13875
(
(2204.17 109.693 1.81271e-18)
(2142.47 5.62533 -9.38739e-19)
(2170.25 -2.16807 -9.41106e-19)
(2167.88 -0.76628 0)
(2170.34 0.0640055 0)
(2169.43 -1.45994 9.36793e-19)
(2169.42 -1.42257 -9.37113e-19)
(2169.94 -0.0216326 -4.68393e-19)
(2169 0.548071 4.68278e-19)
(2169.03 0.148408 0)
(2169.5 0.110007 -3.88235e-22)
(2169.49 0.981811 -3.88069e-22)
(2169.62 0.930535 0)
(2169.4 -0.0187119 -4.68218e-19)
(2169.45 -0.91565 4.68588e-19)
(2169.6 -1.28825 0)
(2169.87 -0.271216 9.37056e-19)
(2169.23 0.345438 -9.37799e-19)
(2169.14 0.949144 3.87943e-22)
(2169.81 1.18855 -3.85755e-22)
(2170.45 -0.164636 -9.36288e-19)
(2167.84 0.302467 9.37172e-19)
(2171.1 2.49029 -1.87823e-18)
(2143.35 -8.6333 1.91703e-18)
(2209.98 -106.872 1.76555e-18)
(2253.39 91.9338 -1.63245e-18)
(2228.46 -1.16306 1.88336e-18)
(2247.4 0.663086 8.71804e-19)
(2245.48 0.951399 -8.67166e-19)
(2248.46 -0.492758 4.16902e-22)
(2247.69 2.21427 5.20201e-22)
(2245.79 1.84768 4.15764e-22)
(2245.52 0.263193 -4.35947e-19)
(2244.92 -0.587032 4.36053e-19)
(2244.9 -0.413659 2.17611e-19)
(2245.31 -0.23525 -1.63075e-19)
(2245.43 -1.2711 -5.31579e-20)
(2247.71 -1.15971 0)
(2247.85 0.0813286 -4.34982e-19)
(2247.56 1.03699 4.33455e-19)
(2245.59 1.42825 4.3603e-19)
(2245.51 0.5062 -4.35309e-19)
(2245.2 -0.24167 5.18484e-22)
(2245.69 -1.57144 -5.18687e-22)
(2247.84 -1.97154 5.1979e-22)
(2248.4 0.74222 -8.71461e-19)
(2245.59 -0.722395 2.5997e-18)
(2247.28 -1.55719 -1.74253e-18)
(2228.81 3.55577 5.43031e-22)
(2256.69 -97.2426 -1.71331e-18)
(2252.4 78.1218 0)
(2236.34 -18.2446 0)
(2249.49 4.42764 0)
(2250.6 -1.88335 0)
(2253.54 -2.6348 -1.63877e-18)
(2253.38 1.48488 1.6423e-18)
(2253.46 1.98488 1.71956e-18)
(2254.07 0.61433 -2.58131e-18)
(2253.21 0.752486 8.60675e-19)
(2252.68 0.0901565 4.30596e-22)
(2253.46 -0.316186 -4.30831e-19)
(2253.13 -2.34749 4.30307e-19)
(2254.12 -2.5263 0)
(2253.99 0.0311941 0)
(2254.04 2.3727 4.08177e-22)
(2253.18 2.00743 0)
(2254.06 0.215229 8.38094e-22)
(2253.13 -0.295363 4.30565e-19)
(2253.09 -2.5101 -4.30667e-19)
(2253.54 -1.75568 0)
(2253.71 2.35162 0)
(2250.91 1.30681 0)
(2250.67 -4.79382 0)
(2238.16 13.6642 0)
(2257.56 -74.1916 0)
(2247.86 51.3565 0)
(2235.05 -28.672 1.81425e-18)
(2249.29 7.21272 -3.41696e-18)
(2251.57 -4.7602 3.46596e-18)
(2253.31 -3.18017 -1.63534e-18)
(2253.24 1.1703 0)
(2253.88 1.31137 -8.41524e-22)
(2254.22 0.411862 0)
(2253.69 0.71022 0)
(2253.83 -0.291101 0)
(2254.47 -0.430862 0)
(2254.15 -2.14463 -8.44029e-22)
(2254.09 -2.46712 -5.0738e-20)
(2253.97 0.00189195 5.0633e-20)
(2254.01 2.28579 0)
(2254.26 1.80583 0)
(2254.74 0.250304 7.99401e-22)
(2254.18 0.390707 -8.57073e-19)
(2253.82 -1.73952 8.56252e-19)
(2253.42 -1.48862 -1.62407e-18)
(2253.56 2.74529 1.62358e-18)
(2251.97 4.33049 1.74092e-18)
(2249.74 -8.88272 -1.72063e-18)
(2235.87 31.1848 0)
(2251.64 -58.5988 0)
(2244.89 39.2806 1.74898e-18)
(2235.45 -47.868 0)
(2248.76 10.4942 0)
(2250.36 -7.7107 0)
(2253.53 -4.42542 0)
(2253.35 0.506728 1.67967e-21)
(2253.63 0.950371 1.68437e-21)
(2254.11 0.394151 4.09391e-19)
(2253.59 0.682965 -4.03711e-19)
(2253.8 -0.539319 2.13017e-19)
(2254.46 -0.504725 -2.15666e-19)
(2254.22 -1.72055 0)
(2254.1 -2.31652 0)
(2253.89 -0.00770902 -1.6528e-21)
(2254.05 2.08632 0)
(2254.31 1.35353 -1.68504e-21)
(2254.71 0.257982 8.07185e-19)
(2254.02 0.725762 -8.505e-19)
(2253.5 -1.21675 1.71585e-18)
(2253.54 -0.833986 -1.69133e-18)
(2253.61 3.75875 1.65341e-21)
(2250.68 6.46374 0)
(2250.03 -11.558 0)
(2237.24 42.7036 0)
(2250.08 -35.5424 0)
(2241.5 6.75291 0)
(2231.54 -63.6114 9.12435e-19)
(2247.22 12.2892 -8.47554e-19)
(2250.9 -11.2181 0)
(2252.53 -5.17395 8.60742e-19)
(2252.84 -0.247673 -4.37482e-19)
(2253.67 0.23994 -2.99237e-21)
(2253.95 0.238476 -2.13804e-19)
(2253.54 0.529681 -4.21783e-19)
(2253.82 -1.07561 1.63174e-19)
(2254.41 -0.666174 1.66934e-21)
(2254.1 -1.4876 2.68467e-19)
(2253.99 -2.17666 -2.15367e-19)
(2253.77 -0.0958907 3.35836e-21)
(2253.89 1.89212 -4.27533e-19)
(2254.22 1.15367 4.33278e-19)
(2254.65 0.311589 1.63642e-21)
(2254.13 1.33668 -1.68338e-21)
(2253.74 -0.327769 -1.67982e-21)
(2252.96 -0.361026 -8.59224e-19)
(2252.77 4.1317 8.46128e-19)
(2251.44 10.694 0)
(2247.37 -15.1934 0)
(2232.42 65.4186 -1.93279e-18)
(2245.93 -18.6376 -1.26122e-19)
(2254.03 2.89688 -4.95249e-20)
(2227.5 -79.3506 6.02419e-20)
(2243.07 12.2536 0)
(2248.54 -15.6988 -2.69152e-23)
(2252.18 -7.09518 -2.62468e-23)
(2252.54 -1.46166 0)
(2253.13 -0.147408 0)
(2253.54 0.241027 -8.48446e-19)
(2253.25 0.352015 8.42823e-19)
(2253.68 -1.43237 0)
(2254.25 -0.669588 1.68316e-18)
(2254.05 -1.02293 4.25869e-21)
(2253.87 -1.81125 -1.72208e-18)
(2253.63 -0.0884673 -1.71156e-21)
(2253.87 1.45128 0)
(2254.19 0.6884 3.4461e-18)
(2254.43 0.358091 1.7447e-21)
(2253.76 1.71696 -6.90573e-18)
(2253.09 0.324987 3.45161e-18)
(2252.83 0.95887 2.6414e-23)
(2252.28 6.10147 0)
(2248.52 12.9788 3.52743e-18)
(2244.19 -12.524 -3.30762e-18)
(2228.9 73.0892 3.81572e-18)
(2247.11 2.98008 -3.18047e-18)
(2218.37 -22.8429 -3.16884e-19)
(2214.7 -87.4769 -7.49631e-18)
(2235.67 3.51779 8.70677e-22)
(2246.09 -22.4969 2.6116e-23)
(2248.81 -9.26807 -8.0965e-22)
(2251.14 -3.04043 0)
(2252.61 -1.17831 -3.4334e-18)
(2253.16 -0.23147 3.40037e-18)
(2253.11 -0.216788 0)
(2253.61 -2.04887 -8.43106e-22)
(2253.95 -0.884713 -8.25836e-22)
(2253.77 -0.834049 0)
(2253.56 -1.60419 0)
(2253.33 -0.0998338 -1.65952e-21)
(2253.48 1.26803 -8.38673e-22)
(2253.93 0.533187 2.60056e-23)
(2254.14 0.666635 -8.56168e-22)
(2253.53 2.45934 -2.62924e-23)
(2252.91 1.7818 -1.73283e-18)
(2251.4 2.40521 -1.62645e-20)
(2249.25 8.05472 1.68872e-18)
(2246.39 19.4104 8.85539e-22)
(2236.71 -4.80459 3.45904e-18)
(2216.51 81.6034 -3.53883e-18)
(2222.41 18.17 2.50169e-23)
(2113.27 -37.8601 9.42627e-19)
(2168.62 -98.609 0)
(2217.12 -20.1764 -8.31545e-22)
(2234.92 -32.3583 -8.65611e-19)
(2245.76 -17.7532 1.7129e-18)
(2248.68 -6.97858 -1.72961e-18)
(2250.89 -2.87196 9.06401e-21)
(2251.93 -0.759275 8.48413e-19)
(2252.33 -0.537811 0)
(2253.05 -2.35089 -8.51951e-19)
(2253.3 -0.809109 8.51563e-19)
(2253.26 -0.293272 0)
(2252.98 -1.12249 0)
(2252.73 -0.235099 2.10355e-21)
(2252.96 0.559584 8.34264e-22)
(2253.31 0.0477686 8.42193e-19)
(2253.33 0.877003 -8.44373e-19)
(2252.55 3.26962 0)
(2251.26 3.41558 8.60847e-19)
(2249.48 6.05694 -1.72875e-18)
(2246.23 15.1645 8.44928e-19)
(2236.18 28.8988 -8.40874e-22)
(2219.03 16.66 0)
(2171.34 94.0238 0)
(2117.24 35.3686 0)
(1873.55 -142.222 -6.57063e-17)
(2125.72 -161.37 8.4246e-17)
(2198.88 -54.8223 0)
(2229.22 -54.3202 -2.99387e-17)
(2239.77 -22.2985 3.09673e-17)
(2246.42 -11.2463 0)
(2249.19 -5.64489 -2.94391e-20)
(2250.7 -2.57752 -1.44773e-17)
(2251.32 -2.25339 1.44631e-17)
(2251.81 -3.14931 -2.91273e-20)
(2252.04 -1.14484 0)
(2252.1 -0.287402 -3.70117e-18)
(2251.79 -0.779218 5.58988e-18)
(2251.54 -0.268005 -1.90137e-18)
(2251.72 0.434278 -2.92594e-20)
(2252.02 0.380147 0)
(2251.91 1.75064 0)
(2250.95 5.02507 -2.9472e-17)
(2249.44 7.59384 2.90836e-17)
(2246.68 10.2874 -3.06004e-17)
(2240.47 20.4924 2.9177e-17)
(2229.39 53.0119 3.22086e-17)
(2199.87 52.4922 -2.92229e-17)
(2128.7 161.864 -8.33861e-17)
(1884.73 138.366 -1.25773e-17)
(1652.97 -215.54 -9.08511e-17)
(2011.32 -307.593 1.37624e-16)
(2159.51 -104.61 0)
(2210.69 -65.0476 6.83839e-17)
(2232.5 -29.379 -7.1213e-17)
(2241.44 -14.1337 -3.38199e-17)
(2244.86 -6.06652 3.36097e-17)
(2247.51 -3.1797 -3.32897e-17)
(2248.68 -2.52716 3.34103e-17)
(2249.36 -2.5603 3.2316e-20)
(2249.66 -0.503916 0)
(2249.79 0.309308 -2.11523e-18)
(2249.49 -0.190722 2.16869e-18)
(2249.2 -0.41384 3.29626e-20)
(2249.3 -0.414246 3.28548e-20)
(2249.4 -0.390898 3.30703e-20)
(2249.15 0.873449 0)
(2248.03 4.53434 0)
(2245.09 7.63163 -6.77077e-17)
(2242.27 15.4469 6.81881e-17)
(2233.7 26.9776 -7.13549e-17)
(2211.54 59.0375 1.47085e-16)
(2166.09 99.4576 -6.99427e-17)
(2016.8 298.599 -3.86808e-20)
(1697.89 206.044 8.75481e-20)
(1281.43 -592.658 -1.08966e-16)
(1741.71 -591.688 1.18867e-16)
(2046.29 -180.86 2.17021e-16)
(2173.69 -106.453 -9.3683e-17)
(2207.93 -35.7301 0)
(2229.52 -19.1771 7.39683e-17)
(2238.19 -12.2997 -7.50682e-17)
(2241.38 -7.46379 0)
(2243.08 -5.50757 3.54828e-20)
(2244.15 -3.96023 0)
(2244.6 -1.2526 0)
(2244.76 0.0427982 0)
(2244.56 0.182041 4.66362e-18)
(2244.26 -0.178192 -4.63355e-18)
(2244.23 0.0265065 -3.71809e-20)
(2243.99 0.834082 -3.55223e-20)
(2243.39 2.82494 0)
(2241.75 7.21255 0)
(2238.05 13.9431 0)
(2228.49 19.0989 -7.8937e-17)
(2211.52 37.2936 1.56924e-16)
(2176.41 102.68 -7.23198e-17)
(2052.67 161.793 -1.33652e-16)
(1750.24 592.09 1.00498e-16)
(1285.98 543.679 -5.99438e-20)
(1301.81 -610.897 1.60771e-16)
(1112.23 -1085.79 0)
(1702.15 -452.857 0)
(1929.53 -129.676 -1.07911e-16)
(2150.96 -83.9218 1.09034e-16)
(2201.47 -42.2531 0)
(2215.7 -13.6994 1.12736e-20)
(2224.22 -6.40977 4.04984e-17)
(2228.37 -3.09815 -4.08587e-17)
(2231.07 -1.39823 0)
(2232.11 0.388383 -1.00409e-17)
(2232.46 0.890694 1.013e-17)
(2232.45 0.795917 -5.08535e-18)
(2232.13 -0.055991 5.08839e-18)
(2231.8 -0.692707 3.85841e-20)
(2230.67 -1.08181 -4.05681e-17)
(2228.25 -0.112519 8.04931e-17)
(2223.74 4.30903 1.04612e-18)
(2214.18 13.5093 -4.04017e-17)
(2197.95 45.0947 -9.08608e-17)
(2134.03 72.1969 8.43666e-17)
(1912.51 109.722 8.25377e-20)
(1758.5 455.871 2.60563e-20)
(1103.68 1071.03 1.67459e-16)
(1319.42 612.427 7.17753e-18)
(1358.92 -629.431 0)
(1142.16 -1058.5 0)
(1291.85 -752.065 0)
(1201.64 -809.55 0)
(1955.48 -255.186 0)
(2052.88 -62.3292 1.01625e-16)
(2157.06 -47.7745 -1.04088e-16)
(2175.71 -30.7144 1.15259e-19)
(2185.41 -19.9059 -1.031e-20)
(2192.42 -10.5602 2.2582e-17)
(2194.57 -4.59919 -2.28544e-17)
(2195.41 -1.12837 -2.25647e-19)
(2195.55 0.56341 -7.07332e-19)
(2195.19 1.40236 8.02285e-19)
(2194.43 3.46912 -2.26544e-17)
(2192.01 8.2631 2.24414e-17)
(2185.35 17.4855 9.91397e-20)
(2174.68 31.6821 0)
(2149.57 51.8752 0)
(2017.39 86.4402 0)
(1918.57 324.159 -2.11402e-16)
(1167.77 812.469 -6.18475e-17)
(1296.87 702.208 1.6403e-16)
(1135.46 1022.98 2.05603e-20)
(1368.85 618.988 2.0862e-20)
(1436.98 -620.968 0)
(1273.3 -925.866 3.94512e-20)
(1321.26 -784.516 0)
(1238.38 -857.997 -1.67231e-16)
(1337.05 -805.339 3.17569e-16)
(1647.63 -551.796 -2.04985e-16)
(1938.2 -117.906 0)
(1960.16 -13.9783 -1.02547e-19)
(2008.57 14.4016 0)
(2045.62 8.88188 0)
(2056.95 6.17169 -1.40853e-17)
(2060.8 2.7976 1.44022e-17)
(2061.73 1.8405 1.42193e-17)
(2061.21 1.09112 -1.42854e-17)
(2058.86 -0.518706 0)
(2050.12 -4.41626 -5.86274e-17)
(2017.8 -10.0388 5.91578e-17)
(1962.71 17.8648 7.11771e-17)
(1937.44 143.268 -5.966e-17)
(1596.03 587.52 0)
(1308.61 794.994 0)
(1203.05 850.727 -1.72042e-19)
(1331.32 779.113 -1.70899e-16)
(1266.93 918.033 3.66709e-16)
(1425.19 619.031 -1.69428e-16)
(1519.53 -630.94 -1.69262e-16)
(1387.52 -855.259 1.87086e-16)
(1385.05 -759.359 0)
(1282.93 -819.776 -1.89232e-16)
(1309.08 -785.439 -6.26234e-18)
(1307.26 -745.675 2.77225e-16)
(1257.48 -593.371 -2.00062e-16)
(1322.56 -521.884 1.18081e-16)
(1543.19 -270.836 0)
(1564.48 -120.563 0)
(1548.87 -58.871 -4.08469e-20)
(1545.4 -21.2599 2.73269e-19)
(1542.4 -3.30184 0)
(1544.08 12.0512 0)
(1547.65 42.0871 5.79934e-17)
(1557.94 109.499 -5.51212e-17)
(1572.72 230.822 -1.10575e-16)
(1333.82 526.347 2.2441e-16)
(1246.73 597.608 1.8216e-17)
(1286.4 746.325 -9.04088e-17)
(1301.23 779.446 0)
(1252.84 823.486 0)
(1382.43 761.029 -1.73763e-16)
(1350.94 888.016 2.02884e-16)
(1502.21 640.981 -4.59575e-20)
(1660.43 -609.769 1.573e-16)
(1562.58 -748.853 -9.70324e-20)
(1528.64 -687.731 9.48175e-17)
(1465.96 -728.606 -8.50138e-17)
(1399.71 -684.007 -4.46275e-20)
(1339.88 -599.773 8.76318e-20)
(1190.57 -447.671 1.15617e-16)
(872.724 -241.708 -1.80247e-16)
(695.825 -124.663 6.39273e-17)
(535.05 -56.7439 0)
(409.293 -20.1568 -3.37392e-17)
(368.893 -6.70192 3.36699e-17)
(352.107 1.02749 0)
(359.152 9.35284 6.32507e-20)
(388.931 17.0736 -3.35972e-17)
(497.337 49.1011 3.38315e-17)
(736.73 121.575 0)
(873.858 252.822 -1.16442e-16)
(1178.03 439.686 1.16664e-16)
(1327.9 595.384 8.91506e-17)
(1389.2 685.195 -1.862e-16)
(1434.1 744.527 9.9638e-17)
(1520.11 708.896 0)
(1547.53 776.195 1.68793e-16)
(1650.25 624.998 -3.30079e-18)
(1815.43 -551.848 -3.30154e-18)
(1746.21 -604.072 8.00197e-17)
(1689.29 -552.159 -3.63253e-17)
(1542.11 -426.649 -5.72423e-17)
(1421.44 -359.933 7.33124e-17)
(1383.77 -279.28 -5.1304e-17)
(1291.25 -254.44 5.29321e-17)
(951.043 -200.201 -5.85318e-17)
(734.346 -106.879 -4.95437e-19)
(598.89 -58.5644 3.30042e-17)
(502.567 -30.1024 1.651e-17)
(470.068 -15.372 -1.53482e-19)
(457.335 1.7138 -1.66959e-17)
(464.667 21.6979 -6.04705e-20)
(496.462 30.9371 -7.51644e-20)
(589.678 54.0879 -2.06867e-18)
(793.104 102.321 2.18114e-20)
(971.452 193.914 5.37786e-18)
(1282.33 228.182 -3.54167e-18)
(1364.99 305.392 0)
(1409 398.32 1.09193e-17)
(1552.23 479.108 -3.45156e-17)
(1689.42 591.074 4.1368e-17)
(1741.5 634.758 -5.64897e-17)
(1810.19 569.706 5.30862e-17)
(1999.11 -509.957 -8.71361e-20)
(1954.9 -328.771 -1.04624e-19)
(1882.39 -321.004 1.21496e-19)
(1790.91 -219.287 -5.47905e-21)
(1534.29 -71.0933 -1.82925e-19)
(1415.62 -26.7056 -2.00774e-19)
(1375.26 -72.3443 -7.15215e-21)
(1200.03 -93.2507 0)
(966.883 -105.318 0)
(819.721 -122.271 6.5653e-17)
(736.389 -102.86 -6.71735e-17)
(696.619 -50.828 -8.84856e-21)
(680.929 1.85856 8.83215e-21)
(686.839 51.928 -8.6422e-18)
(719.484 114.347 8.3775e-18)
(807.423 147.39 0)
(985.788 128.094 0)
(1175.52 109.062 -5.64987e-17)
(1342.23 72.8152 5.60972e-17)
(1369.75 17.0777 -1.93935e-19)
(1537.64 76.3903 0)
(1801.5 229.254 0)
(1887.01 323.747 -1.23969e-19)
(1953.13 331.123 -1.07447e-19)
(2000.61 523.657 1.23059e-16)
(1494.87 -179.776 -1.87861e-16)
(1740.39 -124.502 -2.39021e-16)
(1847.97 113.748 1.22369e-16)
(1797.63 142.647 0)
(1648.21 185.842 1.98894e-19)
(1516.57 145.785 1.08129e-16)
(1502.78 34.5459 -2.08788e-16)
(1408.03 -20.9469 1.06158e-16)
(1224.39 -57.3944 -1.20959e-16)
(1061.34 -84.1461 1.25255e-16)
(935.762 -74.2785 3.29935e-17)
(862.357 -29.0591 -4.11078e-17)
(839.616 6.09844 -8.31995e-18)
(856.182 40.4712 1.68341e-17)
(930.089 91.7001 0)
(1069.85 109.391 0)
(1246.44 77.6044 1.16562e-16)
(1391.88 37.8547 -2.20862e-16)
(1486.86 -37.9591 1.09297e-16)
(1498.64 -155.072 2.27297e-19)
(1662.6 -195.611 1.53238e-16)
(1789.83 -155.095 -9.76916e-17)
(1830.18 -136.503 -4.90549e-16)
(1737.5 134.408 6.22232e-16)
(1484.18 188.883 -2.49468e-16)
(-45.7761 -74.0466 1.11906e-19)
(485.041 -109.424 -2.55638e-16)
(1395.36 299.7 1.74257e-16)
(1671.83 495.529 0)
(1672.22 417.702 0)
(1610.34 277.094 0)
(1601.05 138.297 0)
(1531.55 65.2756 0)
(1374.49 18.3909 -5.16004e-17)
(1209.89 -21.068 1.0839e-16)
(1077.26 -26.2539 -8.46731e-17)
(1000.73 -6.67033 3.21707e-17)
(977.833 8.7426 -3.62736e-18)
(1000.85 21.2368 1.5819e-20)
(1084.88 44.7364 -5.58349e-17)
(1234.84 41.1082 5.54673e-17)
(1403.88 -1.0864 0)
(1527.57 -53.1902 0)
(1599.94 -139.448 -1.73315e-16)
(1604.07 -293.863 1.8581e-16)
(1677.47 -423.317 -1.61977e-19)
(1650.86 -502.49 7.30504e-20)
(1353.73 -269.924 -9.50311e-20)
(410.172 153.829 -1.1587e-19)
(-124.658 94.1048 0)
(-266.478 -39.0125 -2.24218e-16)
(381.083 263.262 2.28913e-16)
(1250.54 634.4 -1.7204e-19)
(1625.06 740.513 1.63774e-16)
(1724.14 573.893 -1.21535e-16)
(1686.69 389.941 0)
(1673.33 234.158 -8.19718e-17)
(1612.95 157.777 7.4599e-17)
(1476.22 95.178 -4.45242e-17)
(1325.86 38.4314 9.33835e-17)
(1195.33 10.7699 -4.81886e-17)
(1119.3 10.3592 1.83335e-19)
(1100.04 7.1953 0)
(1125.03 2.96215 2.49279e-17)
(1214.09 1.93774 2.31179e-17)
(1360.02 -28.6781 -4.73341e-17)
(1506.77 -90.5242 -8.13438e-17)
(1609.85 -150.046 8.39201e-17)
(1678.46 -238.467 -7.21551e-17)
(1683.22 -414.127 7.96803e-17)
(1727.08 -591.664 7.98285e-20)
(1587.99 -765.481 -7.60613e-20)
(1190.51 -622.316 0)
(316.964 -269.197 1.12908e-19)
(-267.158 20.2474 0)
(238.373 220.701 1.91615e-16)
(840.629 702.449 -1.88767e-16)
(1395.72 862.215 6.18724e-20)
(1670.56 865.733 0)
(1775 673.813 0)
(1736.62 508.058 -7.32207e-21)
(1718.21 352.772 0)
(1668.52 249.842 7.39616e-20)
(1554.12 167.969 0)
(1417.46 96.2363 4.15889e-17)
(1299.82 51.3718 -6.39761e-17)
(1229.29 24.6558 3.26251e-17)
(1208.38 6.3171 -1.10129e-17)
(1235.17 -14.8452 0)
(1316.49 -41.5309 0)
(1445.78 -90.355 3.8828e-17)
(1576.61 -161.148 -1.09128e-16)
(1662.83 -247.351 7.30207e-17)
(1732.21 -345.351 -6.11237e-17)
(1737.39 -513.587 6.98137e-17)
(1784.17 -679.017 0)
(1662.03 -885.776 0)
(1386.67 -879.955 0)
(870.374 -729.453 -1.17263e-20)
(242.175 -202.382 -2.01694e-16)
(310.949 78.4884 -3.58211e-20)
(1081.16 722.104 1.56012e-16)
(1529.34 927.233 -1.20078e-16)
(1734.64 906.883 0)
(1805.39 734.462 0)
(1761.36 594.855 7.59541e-21)
(1755.59 441.982 6.4533e-17)
(1713.2 328.094 -5.70063e-17)
(1613.79 226.546 3.032e-20)
(1495.09 140.485 3.29473e-20)
(1388.47 77.1875 3.48713e-20)
(1323.12 38.2471 -1.03566e-20)
(1305.14 4.11242 -1.0392e-20)
(1328.22 -30.7305 1.93075e-17)
(1404.3 -71.3066 -1.93325e-17)
(1522.47 -136.929 4.21777e-20)
(1636.7 -222.461 3.88193e-20)
(1707.05 -328.735 0)
(1766.77 -434.131 -5.4213e-17)
(1769.22 -590.867 6.22971e-17)
(1818.49 -738.895 0)
(1734.83 -919.116 -9.92807e-17)
(1522.98 -929.031 1.2237e-16)
(1064.56 -710.298 9.06172e-21)
(320.441 -55.0108 -1.88154e-16)
(485.406 115.625 4.16761e-20)
(1241.01 743.25 0)
(1627.83 926.582 0)
(1779.37 914.386 -4.76595e-17)
(1818.96 776.841 4.59758e-17)
(1779.72 652.571 0)
(1787.61 507.937 5.87464e-17)
(1750.3 388.617 -5.24817e-17)
(1663.9 274.613 3.17997e-17)
(1556.7 179.326 -3.21371e-17)
(1464.8 104.953 1.76947e-17)
(1408.08 48.0803 -1.78008e-17)
(1390.47 2.36005 0)
(1415.04 -45.9809 -1.7621e-17)
(1481.96 -105.257 1.7682e-17)
(1583.41 -184.188 -3.47252e-20)
(1685.67 -273.458 -3.20562e-20)
(1744.74 -397.255 5.16778e-20)
(1794.36 -507.517 4.97767e-17)
(1784.58 -656.5 -5.72579e-17)
(1831.96 -781.165 -4.56641e-20)
(1777.08 -929.775 -4.46316e-20)
(1622.82 -922.991 0)
(1213.6 -734.762 -7.23464e-20)
(461.202 -98.716 4.21386e-20)
(526.433 135.369 1.5928e-22)
(1321.26 692.998 0)
(1694.23 872.869 9.3068e-23)
(1780.35 909.079 4.04967e-20)
(1823.09 803.516 -8.57611e-23)
(1794.72 699.796 -5.19492e-17)
(1813.94 560.186 4.60361e-17)
(1784.01 439.424 0)
(1708.69 315.698 -5.9084e-20)
(1618.07 213.356 -1.07884e-22)
(1533.91 124.653 -1.13816e-22)
(1482.18 59.2214 6.89646e-20)
(1467.94 0.849795 0)
(1486.73 -57.7058 0)
(1547.5 -124.619 -1.13058e-22)
(1640.65 -216.284 -1.06713e-22)
(1730.14 -315.011 -2.62918e-17)
(1777.43 -445.274 7.52046e-17)
(1817.23 -557.478 -5.32675e-17)
(1798.88 -699.123 0)
(1838.82 -800.029 -4.40325e-17)
(1782.44 -915.166 4.418e-17)
(1697.49 -868.736 9.2889e-23)
(1313.58 -668.312 6.24337e-20)
(520.315 -133.492 1.6042e-22)
(657.029 199.753 2.62458e-18)
(1444.12 671.105 1.22677e-17)
(1743.1 847.571 9.77529e-17)
(1791.23 895.551 -4.11935e-17)
(1836.69 804.68 4.25903e-17)
(1813.19 716.281 -4.76682e-17)
(1841.34 587.857 4.28952e-17)
(1811.26 472.699 -2.51354e-17)
(1745.3 345.126 2.467e-17)
(1664.03 240.694 1.14852e-22)
(1594.69 146.412 1.20613e-22)
(1551.04 66.5181 -1.23092e-22)
(1536.02 1.03677 7.44053e-18)
(1555.75 -66.6574 7.24748e-18)
(1607.24 -148.507 -1.48456e-17)
(1684.67 -247.624 1.13876e-22)
(1766.19 -341.592 4.89147e-17)
(1807.42 -477.741 -9.5067e-17)
(1844.95 -584.037 4.8909e-17)
(1812.67 -720.669 0)
(1848.21 -802.206 -8.34397e-23)
(1793.53 -899.603 7.91423e-23)
(1739.09 -849.804 -8.44279e-23)
(1438.19 -671.359 -1.21936e-16)
(652.769 -212.358 1.50343e-16)
(719.937 231.434 1.41046e-19)
(1501.33 635.431 0)
(1762.98 798.899 0)
(1797.3 865.973 3.95976e-20)
(1844.5 791.983 8.06309e-20)
(1832.3 725.744 0)
(1866.43 606.021 4.49107e-17)
(1837.78 493.975 -4.22709e-17)
(1778.89 363.625 4.43868e-20)
(1711.52 257.696 -4.75683e-20)
(1648.39 153.556 -1.37376e-17)
(1609.38 71.4945 1.37645e-17)
(1598.75 -2.9997 3.57124e-18)
(1613.8 -78.5596 -3.4755e-18)
(1660.74 -162.723 1.3243e-17)
(1731.68 -271.799 -3.78296e-17)
(1801.65 -372.645 2.46398e-17)
(1832.22 -508.589 -4.63711e-20)
(1864.98 -610.945 3.94765e-20)
(1830.04 -732.961 -4.07135e-17)
(1852.13 -796.097 8.17741e-19)
(1805.28 -864.834 -2.06855e-18)
(1766.04 -789.255 4.12797e-17)
(1474.03 -604.183 5.69847e-20)
(648.939 -208.277 6.92607e-20)
(718.695 213.987 1.3486e-16)
(1540.67 583.513 -1.09693e-16)
(1792.1 760.315 0)
(1816.79 840.834 -3.8226e-17)
(1859.81 781.737 3.36949e-19)
(1852.78 720.239 3.94903e-17)
(1890.43 613.316 4.16524e-17)
(1859.64 512.091 -3.9897e-17)
(1809.92 383.677 -4.68572e-20)
(1749.3 279.046 -2.45738e-17)
(1699.26 173.415 1.19224e-17)
(1666.19 80.3521 1.26143e-17)
(1653.62 1.17536 -5.38973e-20)
(1668.89 -79.8851 0)
(1707.31 -174.434 0)
(1763.66 -286.029 0)
(1829.36 -377.754 4.64491e-20)
(1857.24 -515.065 9.64873e-21)
(1891.09 -608.278 -4.97737e-20)
(1850.23 -721.459 0)
(1865.28 -780.139 3.8226e-20)
(1819.96 -838.929 9.41007e-21)
(1794.92 -760.63 -4.88258e-20)
(1553.42 -580.863 -1.0702e-16)
(763.585 -240.694 1.36517e-16)
(767.519 234.936 6.56862e-17)
(1564.18 521.984 -9.71195e-17)
(1809.12 681.931 8.23042e-17)
(1828.56 786.174 -4.11328e-17)
(1871.68 751.903 -3.74157e-17)
(1870.31 707.011 3.76662e-17)
(1910.88 614.754 1.92467e-17)
(1880.64 518.861 -1.89731e-17)
(1836.62 390.058 1.0831e-17)
(1788.31 285.95 -2.23429e-17)
(1742.01 173.769 1.73774e-17)
(1712.62 83.2989 -7.40766e-18)
(1704.52 -2.05305 1.48937e-18)
(1715.61 -88.3516 -4.38748e-20)
(1751.31 -179.282 2.28491e-17)
(1803.49 -298.585 -2.28201e-17)
(1859.27 -395.521 3.86946e-20)
(1877.42 -527.438 3.79266e-17)
(1910.18 -613.329 -1.80123e-18)
(1863.23 -710.505 -3.84852e-17)
(1875.76 -756.037 0)
(1835.76 -788.019 4.10412e-17)
(1813.57 -689.846 -3.67392e-17)
(1572.55 -529.655 -1.03558e-16)
(795.589 -261.475 -1.17764e-18)
(899.727 272.214 -6.23303e-17)
(1633.18 483.514 4.843e-17)
(1836.55 638.302 1.90331e-20)
(1848.2 746.889 -5.38369e-20)
(1892.42 737.178 1.81699e-20)
(1892.81 684.957 3.60545e-17)
(1933.7 595.192 -1.72707e-17)
(1897.68 512.199 -1.83356e-17)
(1862.19 390.193 4.13991e-20)
(1817.5 291.482 -4.41274e-20)
(1782.49 181.664 2.02914e-20)
(1758.93 83.8791 -2.05542e-20)
(1749.65 -3.53355 0)
(1761.8 -92.8767 5.23737e-21)
(1790.18 -191.746 -1.07072e-17)
(1829.87 -308.456 1.07666e-17)
(1882.86 -394.563 -1.92881e-17)
(1898.57 -526.529 9.60111e-19)
(1932.16 -599.426 1.81053e-17)
(1887.01 -689.437 -5.33797e-20)
(1890.06 -741.516 -3.65969e-17)
(1854.69 -746.487 3.48617e-17)
(1840.64 -638.672 0)
(1626.86 -481.132 -4.89542e-17)
(849.038 -261.702 6.24249e-17)
(910.854 266.242 0)
(1649.53 432.204 -4.27266e-17)
(1841.79 555.611 4.24558e-17)
(1867.38 672.988 1.77355e-20)
(1903.42 698.395 1.71312e-20)
(1912.17 663.224 -3.45084e-17)
(1946.69 591.273 3.41376e-17)
(1914.74 515.022 1.82994e-17)
(1885.3 395.436 7.96905e-19)
(1851.88 297.374 -1.96723e-17)
(1818.59 182.442 -2.14757e-20)
(1796.83 89.9131 2.43028e-20)
(1791.04 -0.969905 0)
(1797.72 -92.4279 4.36822e-20)
(1824.54 -183.522 -2.13886e-20)
(1862.3 -307.539 9.74915e-18)
(1907.11 -396.983 -9.62954e-18)
(1913.25 -519.867 -1.82969e-20)
(1946.31 -588.876 -1.91305e-20)
(1904.55 -663.546 1.75679e-20)
(1901.89 -704.889 -3.63077e-17)
(1872.04 -684.116 -6.37571e-18)
(1850.58 -575.159 3.37466e-17)
(1663.69 -437.362 0)
(945.432 -270.796 6.04055e-17)
(1005.84 274.163 -1.14511e-16)
(1686.89 395.151 4.51853e-17)
(1856.49 499.708 3.25608e-17)
(1890.95 625.896 -4.06579e-17)
(1920.85 672.452 0)
(1934.24 643.282 -2.07008e-21)
(1966.66 568.311 0)
(1930.01 498.06 -2.19326e-21)
(1907.5 386.674 -2.32607e-21)
(1874.69 295.92 0)
(1850.97 185.809 0)
(1834.82 87.6767 -2.55885e-21)
(1827.64 -2.31442 0)
(1836.63 -95.1328 0)
(1856.44 -193.104 -9.63713e-18)
(1882.89 -310.077 9.62305e-18)
(1928.11 -387.461 -2.30773e-21)
(1933.32 -510.103 -1.712e-17)
(1964.88 -573.008 1.63322e-17)
(1929.2 -644.452 0)
(1916.27 -679.062 3.57885e-17)
(1892.35 -636.326 -7.28113e-17)
(1862.71 -515.019 7.25557e-17)
(1693.11 -401.47 3.86623e-18)
(1027.58 -286.842 -5.7034e-17)
(1067.57 271.041 1.35888e-20)
(1705.74 365.828 -1.0478e-20)
(1861.56 436.135 0)
(1909.42 546.38 0)
(1931.25 617.018 0)
(1952.52 611.687 7.68593e-21)
(1976.54 555.749 0)
(1942.92 488.738 -7.87751e-21)
(1927.52 381.842 0)
(1904.61 291.871 -8.49481e-21)
(1880.96 176.871 0)
(1864.83 87.1769 -2.36299e-18)
(1861.35 -3.74989 2.34601e-18)
(1865.25 -95.9852 0)
(1885.65 -183.52 9.19171e-18)
(1911.74 -308.099 -1.80241e-17)
(1948.24 -388.422 8.71108e-18)
(1945.49 -497.121 0)
(1977.61 -558.841 1.59207e-17)
(1944.54 -615.688 -1.59411e-17)
(1930.49 -626.403 3.5607e-17)
(1911.15 -559.481 -3.15338e-17)
(1863.69 -453.592 0)
(1711.49 -365.872 0)
(1076.67 -274.61 0)
(1112.64 263.412 -1.32071e-20)
(1727.72 345.24 1.03229e-20)
(1878.65 378.584 0)
(1928.67 471.497 0)
(1948.69 579.959 0)
(1970.81 593.469 -7.63954e-21)
(1996.94 533.222 0)
(1957.9 468.589 8.20031e-21)
(1948.32 369.62 0)
(1923.87 289.619 -8.80143e-18)
(1907.91 182.547 8.83968e-18)
(1896.61 88.1902 -8.38155e-21)
(1890.71 -0.641175 9.26663e-21)
(1897.49 -92.7651 8.36815e-21)
(1911.1 -185.081 0)
(1927.54 -299.139 0)
(1968.1 -367.803 8.47094e-21)
(1963.04 -479.601 -1.62463e-17)
(1996 -538.329 1.50973e-17)
(1967.32 -594.445 0)
(1941.12 -588.736 7.85296e-21)
(1928.4 -488.586 0)
(1878.21 -402.058 0)
(1733.11 -345.705 0)
(1125.18 -247.723 0)
(1148.85 240.378 -5.06949e-17)
(1740.95 314.389 4.19597e-17)
(1888.03 321.458 0)
(1937.17 389.925 -1.67354e-20)
(1957.48 517.87 0)
(1981.83 549.236 -1.45288e-17)
(2004.51 514.395 3.01095e-17)
(1970.5 457.168 -1.58577e-17)
(1964.59 361.1 -8.13549e-18)
(1949.75 281.586 8.34062e-18)
(1932.78 170.452 4.34711e-21)
(1920.31 85.6878 1.11746e-18)
(1918.34 -2.78224 -1.07407e-18)
(1920.28 -93.3056 8.5244e-18)
(1936.88 -174.518 -8.51955e-18)
(1953.45 -296.164 0)
(1983.68 -365.945 -1.51582e-20)
(1974.75 -462.84 0)
(2006.12 -520.555 0)
(1979.34 -558.694 -1.62515e-17)
(1953.24 -526.358 1.46612e-17)
(1937.96 -404.108 0)
(1884.88 -337.085 3.6706e-17)
(1737.57 -319.169 2.2718e-18)
(1120.61 -224.241 -1.03746e-16)
(1209.74 223.725 5.06612e-17)
(1768.19 291.656 1.93865e-20)
(1901.75 275.471 3.08592e-17)
(1942.83 323.98 -2.31612e-17)
(1970.7 477.287 -1.75898e-17)
(1997.1 519.556 0)
(2023.41 488.183 7.52018e-21)
(1984.87 430.619 1.51946e-17)
(1983.9 341.239 -1.57802e-17)
(1964.81 270.884 0)
(1954.35 170.368 0)
(1946.9 82.5308 -2.58402e-20)
(1942.22 -3.30069 3.2207e-20)
(1947.82 -92.7568 1.68027e-20)
(1957.43 -176.873 4.0819e-18)
(1966.46 -284.24 -4.03944e-18)
(2003.64 -345.023 8.36979e-21)
(1992.97 -446.585 1.5542e-17)
(2023.13 -496.64 -2.88928e-17)
(1994.51 -524.569 1.40394e-17)
(1965.7 -485.238 -1.48957e-20)
(1943.98 -322.684 0)
(1902.11 -289.612 1.68898e-20)
(1745.72 -296.152 4.08444e-17)
(1146 -200.112 -1.01564e-16)
(1212.07 186.812 -4.97564e-17)
(1767.4 261.482 -3.83062e-17)
(1905.22 233.272 3.49132e-17)
(1932.74 251.989 1.45117e-17)
(1977.46 394.396 -1.82207e-17)
(2005.43 460.202 0)
(2027.79 462.732 3.66826e-21)
(1995.88 418.42 -1.10847e-20)
(1998.48 335.208 7.58423e-18)
(1987.79 265.196 -1.56161e-17)
(1975.92 160.534 7.89144e-18)
(1965.66 82.954 1.98591e-18)
(1964.92 -1.4828 -1.86017e-18)
(1965.13 -88.3702 1.8463e-18)
(1979.19 -160.92 -1.9766e-18)
(1988.8 -276.643 0)
(2015.73 -337.144 1.12287e-20)
(2002.93 -420.976 -3.57235e-21)
(2029.17 -473.831 -1.48318e-17)
(2005.16 -474.348 1.36839e-17)
(1974.52 -408.705 0)
(1934.55 -261.465 0)
(1909.35 -233.997 -4.09116e-21)
(1761.78 -269.241 -3.97906e-17)
(1217.62 -207.228 -1.08148e-18)
(1248.61 170.445 -2.34095e-17)
(1782.41 242.517 1.96611e-17)
(1918.31 212.595 4.10621e-21)
(1929.94 183.378 0)
(1986.63 325.551 1.35102e-17)
(2017.99 421.401 -1.61228e-17)
(2040.5 433.331 3.40778e-21)
(2010.01 388.819 3.66431e-21)
(2016.82 313.008 1.39822e-20)
(2000.39 251.948 -1.88929e-18)
(1992.9 159.208 9.55809e-19)
(1988.33 78.7948 1.87707e-18)
(1984.64 -2.48016 -9.63377e-19)
(1988.51 -88.0375 3.826e-18)
(1995.46 -163.115 -3.81499e-18)
(1999.88 -263.026 0)
(2035.86 -317.54 1.01605e-20)
(2020.44 -404.503 -1.50961e-17)
(2041.56 -443.177 1.32382e-17)
(2017.34 -432.853 3.47028e-21)
(1984.26 -343.04 0)
(1930.22 -182.1 0)
(1928.96 -207.695 4.10779e-21)
(1784.72 -249.499 -3.91129e-17)
(1255.74 -196.359 4.73698e-17)
(1282.15 141.824 2.34306e-20)
(1790.78 209.175 0)
(1930.78 182.47 -7.81741e-21)
(1936.15 129.631 -1.43554e-17)
(1986.97 243.25 1.77477e-17)
(2020.56 351.703 -1.30986e-17)
(2041.52 393.203 1.51708e-17)
(2018.68 368.077 -7.02222e-18)
(2028.26 302.986 7.35614e-18)
(2020.07 243.599 -3.64468e-18)
(2011.44 145.742 3.70022e-18)
(2002.99 75.5898 -1.82701e-18)
(2003.16 -3.14202 2.08798e-18)
(2002.29 -85.599 -2.47313e-19)
(2014.78 -150.847 3.69689e-18)
(2019.9 -258.125 -7.29919e-18)
(2045.04 -307.642 -3.76565e-18)
(2029.1 -374.675 7.01036e-18)
(2045.65 -409.808 1.34806e-20)
(2022.11 -367.987 -6.9901e-21)
(1983.94 -247.948 0)
(1934.95 -140.934 0)
(1938.06 -182.597 0)
(1801.65 -214.68 -1.93266e-17)
(1292.54 -171.758 2.2812e-17)
(1304.73 138.243 -2.78696e-21)
(1798.86 189.788 0)
(1946.61 166.517 9.84766e-21)
(1940.17 85.4304 -7.93368e-21)
(1972.48 169.271 -7.23037e-21)
(2029.18 300.297 0)
(2049.44 352.273 -6.61429e-21)
(2030.34 337.402 6.85376e-18)
(2044.58 281.144 -7.24505e-18)
(2030.64 231.093 0)
(2025.26 146.894 1.70401e-21)
(2022.33 74.4778 0)
(2019.6 -1.17467 0)
(2022.49 -81.8421 1.79731e-18)
(2027.2 -147.955 -1.80001e-18)
(2027.77 -240.076 -7.2393e-21)
(2062.66 -286.603 -1.65358e-21)
(2042.6 -352.73 6.98725e-21)
(2050.16 -363.93 -7.49624e-18)
(2031.54 -322.355 6.37699e-18)
(1977.04 -189.055 -1.72763e-17)
(1940.57 -86.9548 3.09043e-17)