/*--------------------------------*- C++ -*----------------------------------*\
| =========                 |                                                 |
| \\      /  F ield         | OpenFOAM: The Open Source CFD Toolbox           |
|  \\    /   O peration     | Version:  2112                                  |
|   \\  /    A nd           | Website:  www.openfoam.com                      |
|    \\/     M anipulation  |                                                 |
\*---------------------------------------------------------------------------*/
FoamFile
{
    version     2.0;
    format      ascii;
    arch        "LSB;label=32;scalar=64";
    class       volScalarField;
    location    "0.01092";
    object      epsilon;
}
// * * * * * * * * * * * * * * * * * * * * * * * * * * * * * * * * * * * * * //

dimensions      [0 2 -3 0 0 0 0];

internalField   nonuniform List<scalar> 
13875
(
1.16003e+06
2.94629e+07
3.28259e+07
3.28419e+07
3.29051e+07
3.28481e+07
3.29084e+07
3.29457e+07
3.28762e+07
3.28748e+07
3.29216e+07
3.29192e+07
3.28749e+07
3.28437e+07
3.28607e+07
3.29103e+07
3.29482e+07
3.29135e+07
3.28935e+07
3.28606e+07
3.28996e+07
3.28307e+07
3.28039e+07
2.95011e+07
1.17781e+06
1.31391e+06
2.27476e+07
2.53572e+07
2.52418e+07
2.52798e+07
2.52201e+07
2.52313e+07
2.52612e+07
2.52288e+07
2.52279e+07
2.52412e+07
2.52526e+07
2.52133e+07
2.51934e+07
2.52003e+07
2.52501e+07
2.5246e+07
2.52363e+07
2.52254e+07
2.5229e+07
2.52699e+07
2.52197e+07
2.53284e+07
2.27675e+07
1.34181e+06
1.57303e+06
1.97065e+07
2.18314e+07
2.16308e+07
2.16975e+07
2.16351e+07
2.15556e+07
2.15551e+07
2.152e+07
2.1529e+07
2.15329e+07
2.15479e+07
2.16101e+07
2.16022e+07
2.15968e+07
2.15472e+07
2.15317e+07
2.15298e+07
2.15487e+07
2.16407e+07
2.16835e+07
2.16018e+07
2.17907e+07
1.96946e+07
1.58409e+06
1.81368e+06
1.73851e+07
1.90395e+07
1.88837e+07
1.89655e+07
1.89093e+07
1.88186e+07
1.88151e+07
1.87757e+07
1.87757e+07
1.87853e+07
1.87882e+07
1.88867e+07
1.88804e+07
1.88761e+07
1.87873e+07
1.87939e+07
1.87798e+07
1.88066e+07
1.8915e+07
1.89523e+07
1.88579e+07
1.90154e+07
1.73641e+07
1.82015e+06
2.02272e+06
1.54521e+07
1.67732e+07
1.66241e+07
1.67028e+07
1.6651e+07
1.65633e+07
1.65619e+07
1.6531e+07
1.65282e+07
1.65395e+07
1.65329e+07
1.66282e+07
1.66274e+07
1.66193e+07
1.65334e+07
1.65473e+07
1.65306e+07
1.65526e+07
1.66546e+07
1.66904e+07
1.66051e+07
1.67451e+07
1.54266e+07
2.03611e+06
2.20641e+06
1.37117e+07
1.49289e+07
1.47408e+07
1.48308e+07
1.47706e+07
1.46766e+07
1.4673e+07
1.46507e+07
1.46476e+07
1.46599e+07
1.46461e+07
1.47385e+07
1.47426e+07
1.47315e+07
1.46464e+07
1.46675e+07
1.46476e+07
1.46668e+07
1.47748e+07
1.48195e+07
1.47293e+07
1.49045e+07
1.38456e+07
2.22315e+06
2.42252e+06
1.22506e+07
1.34785e+07
1.32085e+07
1.32701e+07
1.3199e+07
1.30948e+07
1.30828e+07
1.30658e+07
1.30622e+07
1.30741e+07
1.30549e+07
1.31453e+07
1.31517e+07
1.31375e+07
1.30548e+07
1.30835e+07
1.30614e+07
1.30854e+07
1.32006e+07
1.32571e+07
1.32015e+07
1.34222e+07
1.19505e+07
2.43005e+06
2.66597e+06
1.06152e+07
1.23132e+07
1.19764e+07
1.20006e+07
1.1887e+07
1.17636e+07
1.17364e+07
1.17213e+07
1.17184e+07
1.17308e+07
1.17059e+07
1.17947e+07
1.18042e+07
1.17874e+07
1.17047e+07
1.17427e+07
1.17206e+07
1.17513e+07
1.18844e+07
1.19814e+07
1.19657e+07
1.22647e+07
1.05444e+07
2.69553e+06
3.49638e+06
1.02124e+07
1.14832e+07
1.10302e+07
1.09427e+07
1.07898e+07
1.06452e+07
1.05998e+07
1.05803e+07
1.05805e+07
1.0595e+07
1.05654e+07
1.06516e+07
1.06642e+07
1.06464e+07
1.05654e+07
1.06083e+07
1.05864e+07
1.06251e+07
1.07804e+07
1.09227e+07
1.10216e+07
1.14747e+07
1.03391e+07
3.57461e+06
6.8354e+06
1.22191e+07
1.11976e+07
1.04308e+07
1.01725e+07
9.93452e+06
9.77049e+06
9.71555e+06
9.69074e+06
9.69279e+06
9.70514e+06
9.67462e+06
9.75423e+06
9.76874e+06
9.75195e+06
9.68241e+06
9.71899e+06
9.708e+06
9.74541e+06
9.91546e+06
1.01436e+07
1.03603e+07
1.11614e+07
1.21311e+07
6.89352e+06
1.49154e+07
1.86899e+07
1.20506e+07
1.03277e+07
9.62408e+06
9.32313e+06
9.13738e+06
9.05249e+06
9.02287e+06
9.02364e+06
9.0308e+06
9.00143e+06
9.07081e+06
9.08717e+06
9.07696e+06
9.02776e+06
9.05494e+06
9.06077e+06
9.12388e+06
9.28536e+06
9.60915e+06
1.0268e+07
1.18777e+07
1.79407e+07
1.49993e+07
2.54745e+07
6.89053e+07
1.81571e+07
1.07096e+07
9.71334e+06
9.01519e+06
8.70925e+06
8.58911e+06
8.54357e+06
8.53786e+06
8.53676e+06
8.51121e+06
8.5648e+06
8.583e+06
8.5826e+06
8.5552e+06
8.57906e+06
8.60923e+06
8.70217e+06
9.01755e+06
9.65512e+06
1.05545e+07
1.75777e+07
6.72559e+07
2.50323e+07
2.65954e+07
7.63053e+07
8.68808e+07
2.38924e+07
1.09215e+07
9.10251e+06
8.72332e+06
8.44106e+06
8.3362e+06
8.29936e+06
8.27958e+06
8.25201e+06
8.28732e+06
8.30708e+06
8.3202e+06
8.32383e+06
8.37839e+06
8.49032e+06
8.76159e+06
9.15297e+06
1.1298e+07
2.26181e+07
8.08153e+07
7.64846e+07
2.60819e+07
2.63683e+07
5.53567e+07
7.99463e+07
1.04471e+08
5.72875e+07
1.30915e+07
9.63389e+06
8.8142e+06
8.58224e+06
8.5652e+06
8.54768e+06
8.5216e+06
8.54938e+06
8.56853e+06
8.58956e+06
8.61132e+06
8.65196e+06
8.88555e+06
9.94899e+06
1.45006e+07
6.57742e+07
9.10261e+07
7.52686e+07
5.44782e+07
2.57569e+07
2.53511e+07
4.26673e+07
5.82201e+07
7.25149e+07
7.45932e+07
7.4907e+07
2.3803e+07
1.31153e+07
1.11222e+07
1.0408e+07
1.01108e+07
9.99469e+06
9.99024e+06
1.00212e+07
1.01062e+07
1.03433e+07
1.10339e+07
1.31855e+07
2.62265e+07
7.75092e+07
7.5067e+07
6.60355e+07
5.65664e+07
4.22209e+07
2.6418e+07
2.47265e+07
3.35965e+07
4.34179e+07
5.42648e+07
5.89132e+07
6.7745e+07
5.12751e+07
4.52145e+07
4.1587e+07
3.27426e+07
3.45884e+07
3.56932e+07
3.6484e+07
3.62088e+07
3.50753e+07
3.30968e+07
4.02356e+07
4.89685e+07
5.20194e+07
6.86502e+07
5.82169e+07
5.05119e+07
4.25989e+07
3.3407e+07
2.57992e+07
2.00607e+07
2.52813e+07
3.22857e+07
4.18875e+07
4.9266e+07
6.18406e+07
7.04427e+07
7.0605e+07
5.77096e+07
4.96962e+07
5.22077e+07
5.49389e+07
5.65634e+07
5.59258e+07
5.31142e+07
5.33864e+07
5.79618e+07
7.0545e+07
7.06435e+07
6.13212e+07
4.71641e+07
3.9052e+07
3.08997e+07
2.45138e+07
1.9942e+07
1.4832e+07
1.91288e+07
2.64411e+07
3.72903e+07
4.54015e+07
5.30209e+07
6.32179e+07
6.88248e+07
5.1695e+07
3.83524e+07
3.52928e+07
3.55688e+07
3.62413e+07
3.59077e+07
3.58416e+07
4.15665e+07
5.18312e+07
6.47022e+07
6.26221e+07
5.40438e+07
4.52245e+07
3.60239e+07
2.5375e+07
1.85657e+07
1.45222e+07
1.22306e+07
1.67137e+07
2.39273e+07
3.71976e+07
4.79675e+07
4.63226e+07
4.89481e+07
5.47929e+07
4.56882e+07
3.42711e+07
2.88124e+07
2.72179e+07
2.70519e+07
2.75068e+07
2.95288e+07
3.55753e+07
4.39808e+07
5.12227e+07
4.87732e+07
4.79161e+07
5.03933e+07
3.69035e+07
2.35731e+07
1.64566e+07
1.20669e+07
1.16399e+07
1.82259e+07
2.48753e+07
3.68607e+07
4.36173e+07
3.93124e+07
3.85397e+07
4.22896e+07
3.89896e+07
3.14428e+07
2.55938e+07
2.23951e+07
2.1405e+07
2.29058e+07
2.66539e+07
3.21498e+07
3.70052e+07
3.96869e+07
3.85676e+07
4.072e+07
4.5058e+07
3.61972e+07
2.47646e+07
1.83551e+07
1.17227e+07
2.99995e+07
5.93765e+07
4.49049e+07
3.21513e+07
3.47046e+07
3.16703e+07
3.08547e+07
3.38321e+07
3.29972e+07
2.78076e+07
2.22246e+07
1.84398e+07
1.7233e+07
1.92247e+07
2.35303e+07
2.83438e+07
3.12105e+07
3.19364e+07
3.10028e+07
3.27929e+07
3.56867e+07
3.30555e+07
5.02787e+07
6.56514e+07
3.86033e+07
9.34701e+07
2.96445e+08
6.12069e+07
2.60858e+07
2.74585e+07
2.57311e+07
2.52709e+07
2.77405e+07
2.77891e+07
2.39982e+07
1.90132e+07
1.52365e+07
1.40074e+07
1.60377e+07
2.02195e+07
2.43304e+07
2.6194e+07
2.63444e+07
2.53651e+07
2.65363e+07
2.8075e+07
2.70222e+07
6.82277e+07
2.94783e+08
1.08144e+08
1.10491e+08
2.31481e+08
5.07141e+07
2.17351e+07
2.22396e+07
2.12613e+07
2.09391e+07
2.3041e+07
2.33329e+07
2.03888e+07
1.60507e+07
1.26348e+07
1.14757e+07
1.32684e+07
1.70061e+07
2.05659e+07
2.19159e+07
2.19389e+07
2.09842e+07
2.17273e+07
2.25869e+07
2.24314e+07
5.20614e+07
2.26348e+08
1.0827e+08
9.46416e+07
2.33906e+08
3.97321e+07
1.86085e+07
1.82876e+07
1.76479e+07
1.74722e+07
1.91879e+07
1.95559e+07
1.71502e+07
1.3398e+07
1.04606e+07
9.50448e+06
1.10596e+07
1.43083e+07
1.73738e+07
1.83862e+07
1.82949e+07
1.75543e+07
1.80354e+07
1.86314e+07
1.92797e+07
4.15576e+07
2.43841e+08
9.44724e+07
8.65519e+07
2.23356e+08
3.31475e+07
1.62426e+07
1.54232e+07
1.48449e+07
1.47878e+07
1.6124e+07
1.64565e+07
1.4454e+07
1.12662e+07
8.7675e+06
7.96643e+06
9.28507e+06
1.20847e+07
1.46986e+07
1.55061e+07
1.53724e+07
1.48304e+07
1.51702e+07
1.57856e+07
1.68596e+07
3.53022e+07
2.41743e+08
8.78631e+07
7.96337e+07
2.18605e+08
2.85972e+07
1.42095e+07
1.32367e+07
1.2625e+07
1.26705e+07
1.36685e+07
1.39078e+07
1.22387e+07
9.55874e+06
7.42942e+06
6.74831e+06
7.85407e+06
1.02311e+07
1.24433e+07
1.31201e+07
1.29937e+07
1.26056e+07
1.28309e+07
1.35606e+07
1.46764e+07
3.02653e+07
2.32527e+08
8.22583e+07
7.57457e+07
1.93425e+08
2.42587e+07
1.24635e+07
1.15341e+07
1.08681e+07
1.09471e+07
1.16578e+07
1.17638e+07
1.0334e+07
8.11589e+06
6.34774e+06
5.77923e+06
6.72984e+06
8.75329e+06
1.0608e+07
1.12123e+07
1.11182e+07
1.08452e+07
1.10297e+07
1.18709e+07
1.29315e+07
2.61175e+07
2.08396e+08
7.90924e+07
7.20806e+07
1.74358e+08
2.13217e+07
1.10818e+07
1.01917e+07
9.49979e+06
9.55926e+06
1.00503e+07
1.00521e+07
8.82907e+06
6.97852e+06
5.48502e+06
4.99717e+06
5.80237e+06
7.51062e+06
9.07575e+06
9.6266e+06
9.58168e+06
9.41383e+06
9.60628e+06
1.04604e+07
1.14612e+07
2.30632e+07
1.92449e+08
7.41544e+07
6.68893e+07
1.63267e+08
1.92078e+07
9.93158e+06
9.08642e+06
8.43883e+06
8.42268e+06
8.73171e+06
8.64909e+06
7.58832e+06
6.05059e+06
4.78633e+06
4.35808e+06
5.04099e+06
6.46976e+06
7.77453e+06
8.30625e+06
8.32116e+06
8.2407e+06
8.45891e+06
9.26721e+06
1.0231e+07
2.03277e+07
1.67926e+08
7.00583e+07
6.19421e+07
1.45265e+08
1.74482e+07
8.98126e+06
8.11611e+06
7.54854e+06
7.48637e+06
7.6228e+06
7.45164e+06
6.52744e+06
5.25079e+06
4.19515e+06
3.83284e+06
4.42991e+06
5.65631e+06
6.7591e+06
7.2424e+06
7.30021e+06
7.30452e+06
7.54056e+06
8.25848e+06
9.2423e+06
1.85169e+07
1.51542e+08
6.5666e+07
5.75001e+07
1.25755e+08
1.6041e+07
8.23666e+06
7.2956e+06
6.79536e+06
6.70867e+06
6.72161e+06
6.49489e+06
5.68075e+06
4.61484e+06
3.71584e+06
3.39575e+06
3.91105e+06
4.94806e+06
5.87278e+06
6.34013e+06
6.45241e+06
6.52811e+06
6.75558e+06
7.36913e+06
8.4252e+06
1.68026e+07
1.31711e+08
6.08693e+07
5.34614e+07
1.13187e+08
1.49621e+07
7.67448e+06
6.59861e+06
6.14032e+06
6.04522e+06
5.97809e+06
5.71419e+06
4.99647e+06
4.09103e+06
3.31383e+06
3.03205e+06
3.47395e+06
4.36554e+06
5.15911e+06
5.59399e+06
5.74523e+06
5.86655e+06
6.0771e+06
6.62377e+06
7.79632e+06
1.53929e+07
1.13704e+08
5.68541e+07
4.97146e+07
9.70831e+07
1.3878e+07
7.22509e+06
6.01451e+06
5.58146e+06
5.45402e+06
5.33608e+06
5.03631e+06
4.39746e+06
3.63377e+06
2.9709e+06
2.72481e+06
3.11735e+06
3.88965e+06
4.56769e+06
4.97932e+06
5.15986e+06
5.29348e+06
5.50612e+06
6.0183e+06
7.29763e+06
1.43392e+07
1.00207e+08
5.30672e+07
4.66917e+07
8.45927e+07
1.2891e+07
6.88379e+06
5.54856e+06
5.10376e+06
4.93393e+06
4.79818e+06
4.48558e+06
3.91775e+06
3.26191e+06
2.68193e+06
2.46455e+06
2.80366e+06
3.47738e+06
4.06621e+06
4.44792e+06
4.65e+06
4.78923e+06
5.01133e+06
5.52249e+06
6.89066e+06
1.3367e+07
8.71365e+07
4.92669e+07
4.3957e+07
7.52594e+07
1.19022e+07
6.58637e+06
5.21781e+06
4.68721e+06
4.4885e+06
4.33125e+06
4.02108e+06
3.50907e+06
2.94479e+06
2.43667e+06
2.24177e+06
2.5398e+06
3.12527e+06
3.63834e+06
3.99875e+06
4.20909e+06
4.35573e+06
4.60461e+06
5.15806e+06
6.59233e+06
1.23606e+07
7.72495e+07
4.60711e+07
4.11732e+07
6.64064e+07
1.09589e+07
6.31845e+06
4.96932e+06
4.33306e+06
4.09679e+06
3.91675e+06
3.61579e+06
3.15812e+06
2.66589e+06
2.21981e+06
2.05011e+06
2.31442e+06
2.83797e+06
3.28924e+06
3.61722e+06
3.82306e+06
3.98654e+06
4.2516e+06
4.90401e+06
6.33904e+06
1.14644e+07
7.04751e+07
4.33261e+07
3.90304e+07
5.98695e+07
1.01674e+07
6.1812e+06
4.78905e+06
4.04307e+06
3.76545e+06
3.56158e+06
3.27085e+06
2.86191e+06
2.43135e+06
2.03644e+06
1.88348e+06
2.11757e+06
2.57751e+06
2.97529e+06
3.27974e+06
3.48371e+06
3.65974e+06
3.95471e+06
4.70989e+06
6.17566e+06
1.05586e+07
6.28024e+07
4.06977e+07
3.68957e+07
5.56856e+07
9.46326e+06
6.03974e+06
4.66451e+06
3.83055e+06
3.47409e+06
3.25369e+06
2.97438e+06
2.61039e+06
2.23037e+06
1.87463e+06
1.73842e+06
1.94485e+06
2.35772e+06
2.70966e+06
2.98394e+06
3.19012e+06
3.37509e+06
3.7366e+06
4.59069e+06
6.04144e+06
9.69651e+06
5.66549e+07
3.85006e+07
3.45832e+07
5.08888e+07
8.69029e+06
5.76247e+06
4.60464e+06
3.67232e+06
3.22964e+06
2.98599e+06
2.71122e+06
2.38279e+06
2.04697e+06
1.73203e+06
1.61146e+06
1.79809e+06
2.16794e+06
2.48071e+06
2.73435e+06
2.93952e+06
3.13771e+06
3.57495e+06
4.5376e+06
5.80639e+06
8.9083e+06
5.22328e+07
3.66201e+07
3.26871e+07
4.74364e+07
8.00196e+06
5.45638e+06
4.60656e+06
3.56326e+06
3.03834e+06
2.76021e+06
2.48917e+06
2.19178e+06
1.8926e+06
1.60714e+06
1.49899e+06
1.66391e+06
1.99906e+06
2.27777e+06
2.51055e+06
2.72389e+06
2.95367e+06
3.46342e+06
4.5097e+06
5.46254e+06
8.18811e+06
4.82415e+07
3.46904e+07
3.11694e+07
4.44796e+07
7.60467e+06
5.16188e+06
4.68615e+06
3.50377e+06
2.89427e+06
2.57601e+06
2.29957e+06
2.02389e+06
1.75455e+06
1.49679e+06
1.39923e+06
1.54648e+06
1.84745e+06
2.10087e+06
2.32203e+06
2.54506e+06
2.81956e+06
3.39591e+06
4.62545e+06
5.15421e+06
7.62338e+06
4.5892e+07
3.27959e+07
2.97518e+07
4.16764e+07
7.05886e+06
4.80923e+06
4.59343e+06
3.48795e+06
2.77979e+06
2.43571e+06
2.138e+06
1.8754e+06
1.63066e+06
1.39634e+06
1.30986e+06
1.44325e+06
1.72033e+06
1.94983e+06
2.16302e+06
2.40579e+06
2.70905e+06
3.39665e+06
4.61398e+06
4.8854e+06
7.84129e+06
4.34523e+07
3.10362e+07
2.85937e+07
3.92979e+07
6.67328e+06
4.46626e+06
4.36182e+06
3.57045e+06
2.70688e+06
2.32641e+06
2.00916e+06
1.74899e+06
1.52238e+06
1.30817e+06
1.22973e+06
1.34964e+06
1.60174e+06
1.81541e+06
2.02996e+06
2.29861e+06
2.63205e+06
3.44744e+06
4.39555e+06
4.55234e+06
7.36567e+06
4.09647e+07
2.94729e+07
2.76361e+07
3.70128e+07
6.83342e+06
4.17132e+06
4.08312e+06
3.72621e+06
2.69137e+06
2.23438e+06
1.91163e+06
1.64511e+06
1.42883e+06
1.22869e+06
1.15741e+06
1.26586e+06
1.49807e+06
1.70057e+06
1.92483e+06
2.21418e+06
2.61518e+06
3.64434e+06
4.13782e+06
4.255e+06
7.28237e+06
3.8432e+07
2.83351e+07
2.66768e+07
3.51037e+07
6.43367e+06
3.87956e+06
3.784e+06
3.71442e+06
2.76924e+06
2.1714e+06
1.82964e+06
1.56084e+06
1.34656e+06
1.1581e+06
1.09235e+06
1.1929e+06
1.41279e+06
1.61057e+06
1.84393e+06
2.1558e+06
2.7055e+06
3.68906e+06
3.86302e+06
4.02357e+06
7.32556e+06
3.6159e+07
2.74721e+07
2.58162e+07
3.31364e+07
6.54973e+06
3.67363e+06
3.5006e+06
3.49755e+06
2.99927e+06
2.16855e+06
1.76776e+06
1.49807e+06
1.28297e+06
1.09966e+06
1.03544e+06
1.13068e+06
1.34131e+06
1.54046e+06
1.7764e+06
2.14017e+06
2.89841e+06
3.49927e+06
3.57737e+06
3.76607e+06
7.01323e+06
3.42879e+07
2.66658e+07
2.49886e+07
3.132e+07
6.73888e+06
3.54063e+06
3.25672e+06
3.2695e+06
3.06481e+06
2.30212e+06
1.72582e+06
1.44207e+06
1.2342e+06
1.05473e+06
989362
1.08097e+06
1.28647e+06
1.48336e+06
1.72696e+06
2.24471e+06
3.02288e+06
3.2797e+06
3.31473e+06
3.56532e+06
6.87768e+06
3.25048e+07
2.58499e+07
2.38316e+07
2.94694e+07
6.57068e+06
3.39364e+06
3.04575e+06
3.03711e+06
2.90308e+06
2.52756e+06
1.74992e+06
1.39587e+06
1.19191e+06
1.01884e+06
955318
1.04319e+06
1.24214e+06
1.43662e+06
1.74168e+06
2.47486e+06
2.91888e+06
3.05012e+06
3.09683e+06
3.4644e+06
7.04842e+06
3.04977e+07
2.47249e+07
2.2408e+07
2.74054e+07
6.46364e+06
3.29783e+06
2.86808e+06
2.81296e+06
2.73032e+06
2.63662e+06
1.89447e+06
1.3743e+06
1.15784e+06
988081
926970
1.01063e+06
1.20391e+06
1.40671e+06
1.85897e+06
2.64225e+06
2.75278e+06
2.82522e+06
2.9093e+06
3.36215e+06
6.82796e+06
2.82395e+07
2.32501e+07
1.94153e+07
2.43299e+07
6.29281e+06
3.21673e+06
2.71727e+06
2.62246e+06
2.5577e+06
2.51775e+06
2.14678e+06
1.4358e+06
1.13757e+06
961880
900927
982646
1.17623e+06
1.44467e+06
2.11259e+06
2.57044e+06
2.58528e+06
2.63413e+06
2.7535e+06
3.27505e+06
6.49448e+06
2.49846e+07
2.01309e+07
8.22342e+06
4.51068e+06
3.27224e+06
2.41639e+06
1.80167e+06
1.42747e+06
1.21775e+06
1.09773e+06
1.02136e+06
959482
896433
827561
749132
660140
566287
470924
380008
297584
227002
170500
126217
93664.5
70912.1
55813.6
46379.8
41050.6
38809.7
39978
48687.9
101995
9.11727e+06
4.73434e+06
3.44883e+06
2.56263e+06
1.92805e+06
1.54044e+06
1.32247e+06
1.199e+06
1.12136e+06
1.05974e+06
998986
931401
852028
760583
661995
558515
456744
361286
276938
207753
152075
110446
81110.2
61497.8
49167.7
42482.9
39659.9
40839.7
50407.9
104800
9.43548e+06
4.88455e+06
3.62534e+06
2.71742e+06
2.06678e+06
1.66392e+06
1.4351e+06
1.30614e+06
1.22591e+06
1.16462e+06
1.10653e+06
1.04073e+06
960753
868119
765556
655030
543050
434694
336075
252620
183920
131538
93996.9
68661.1
52733.8
44093.6
40450.7
41517
51784.9
107411
9.77146e+06
5.17598e+06
3.88753e+06
2.93995e+06
2.2596e+06
1.82967e+06
1.58185e+06
1.44189e+06
1.35682e+06
1.29402e+06
1.23577e+06
1.16917e+06
1.08738e+06
992745
885162
767338
645023
523356
409537
309389
225300
159696
111737
78767.3
57936.1
46498.2
41567
42413.7
53316
110376
1.01994e+07
5.5126e+06
4.19729e+06
3.20707e+06
2.49102e+06
2.02771e+06
1.754e+06
1.59882e+06
1.50588e+06
1.43864e+06
1.37719e+06
1.30855e+06
1.22556e+06
1.12869e+06
1.0164e+06
891999
760374
626260
496631
378246
277149
196133
135204
92507.8
65181.8
49878.4
43093.4
43420.2
54803.5
113586
1.06617e+07
5.87008e+06
4.52777e+06
3.49974e+06
2.74951e+06
2.25257e+06
1.94965e+06
1.77952e+06
1.67654e+06
1.6019e+06
1.53619e+06
1.46424e+06
1.37866e+06
1.27754e+06
1.15932e+06
1.02783e+06
886669
740127
595107
459623
340626
242045
165619
110853
75093.4
54603.2
45183.6
44606.9
56222.8
116661
1.11829e+07
6.23394e+06
4.87481e+06
3.81745e+06
3.03547e+06
2.50503e+06
2.1733e+06
1.98507e+06
1.86958e+06
1.78539e+06
1.71297e+06
1.63476e+06
1.54341e+06
1.43546e+06
1.30967e+06
1.17027e+06
1.01936e+06
861262
703761
552788
415415
298106
204087
134799
88396.8
61073.8
48000.3
45891.4
57549.4
120001
1.17153e+07
6.6036e+06
5.242e+06
4.16289e+06
3.3526e+06
2.78989e+06
2.42991e+06
2.21993e+06
2.08947e+06
1.99294e+06
1.91048e+06
1.82201e+06
1.72024e+06
1.60175e+06
1.46645e+06
1.31815e+06
1.15831e+06
991848
823650
657835
502590
365719
252246
165809
106183
69963
51894
47561.9
58994.1
123641
1.22316e+07
6.97793e+06
5.63558e+06
4.53937e+06
3.70514e+06
3.11191e+06
2.72636e+06
2.48998e+06
2.34025e+06
2.22709e+06
2.12952e+06
2.02497e+06
1.90584e+06
1.77208e+06
1.62691e+06
1.47138e+06
1.30499e+06
1.13198e+06
953936
774495
602559
445788
311439
205324
129643
82034.2
57215.2
49714.8
60338.3
127027
1.26798e+07
7.36789e+06
6.05327e+06
4.94678e+06
4.09407e+06
3.47485e+06
3.06316e+06
2.80311e+06
2.62567e+06
2.4929e+06
2.37239e+06
2.24256e+06
2.10059e+06
1.95282e+06
1.80089e+06
1.63751e+06
1.46384e+06
1.28247e+06
1.09404e+06
902473
715203
539325
383354
255260
160363
98404.9
64739.5
52810.9
61833.7
130361
1.30826e+07
7.76463e+06
6.48208e+06
5.38043e+06
4.51824e+06
3.88044e+06
3.44489e+06
3.15767e+06
2.95571e+06
2.79495e+06
2.6398e+06
2.47671e+06
2.31632e+06
2.15863e+06
1.99614e+06
1.81938e+06
1.63482e+06
1.44226e+06
1.24214e+06
1.03883e+06
837334
644441
467648
316616
199888
120344
75086.1
57050.4
64009.1
133923
1.34756e+07
8.15598e+06
6.91302e+06
5.83296e+06
4.97524e+06
4.32905e+06
3.87517e+06
3.56169e+06
3.33216e+06
3.134e+06
2.93539e+06
2.74525e+06
2.56998e+06
2.39529e+06
2.21241e+06
2.01885e+06
1.81963e+06
1.61318e+06
1.39953e+06
1.18287e+06
966487
757127
561526
388661
248850
148778
88870.3
62745.9
66921.1
137876
1.3882e+07
8.52614e+06
7.34578e+06
6.30053e+06
5.46181e+06
4.82036e+06
4.35721e+06
4.02119e+06
3.7585e+06
3.51475e+06
3.27533e+06
3.06346e+06
2.86501e+06
2.6637e+06
2.45419e+06
2.23948e+06
2.0212e+06
1.79695e+06
1.5669e+06
1.33458e+06
1.1032e+06
876954
662485
468921
306422
184013
106492
70056.6
70204
141714
1.42051e+07
8.89009e+06
7.77163e+06
6.78167e+06
5.97848e+06
5.35371e+06
4.89271e+06
4.53948e+06
4.23897e+06
3.94737e+06
3.67415e+06
3.43553e+06
3.20504e+06
2.96928e+06
2.72724e+06
2.48556e+06
2.24332e+06
1.9973e+06
1.74768e+06
1.49737e+06
1.24873e+06
1.00576e+06
773581
559267
373716
227176
129162
79624.1
73902.9
145689
1.46669e+07
9.19501e+06
8.18293e+06
7.26499e+06
6.51907e+06
5.92746e+06
5.48103e+06
5.11932e+06
4.78316e+06
4.44405e+06
4.13737e+06
3.86605e+06
3.59576e+06
3.31849e+06
3.03731e+06
2.76238e+06
2.49107e+06
2.21894e+06
1.94624e+06
1.67514e+06
1.40717e+06
1.14556e+06
894640
660270
451661
279910
158423
92329.4
78328.6
149859
1.48827e+07
9.47768e+06
8.56225e+06
7.74147e+06
7.07331e+06
6.53803e+06
6.12328e+06
5.76563e+06
5.39797e+06
5.01386e+06
4.67392e+06
4.36352e+06
4.04504e+06
3.71904e+06
3.39194e+06
3.07667e+06
2.77059e+06
2.46748e+06
2.16768e+06
1.87236e+06
1.58215e+06
1.29946e+06
1.02783e+06
771580
539840
342262
195730
109523
84456.2
154848
1.51163e+07
9.69818e+06
8.8756e+06
8.18861e+06
7.6209e+06
7.17537e+06
6.81977e+06
6.48314e+06
6.09169e+06
5.66803e+06
5.2925e+06
4.93505e+06
4.56157e+06
4.17889e+06
3.79836e+06
3.43535e+06
3.08748e+06
2.74754e+06
2.41567e+06
2.09186e+06
1.77578e+06
1.46875e+06
1.17352e+06
893530
637747
414906
242076
132344
93031.9
160478
1.52234e+07
9.89955e+06
9.13893e+06
8.58603e+06
8.15561e+06
7.82948e+06
7.57062e+06
7.27721e+06
6.87395e+06
6.41784e+06
6.00348e+06
5.59177e+06
5.15504e+06
4.70825e+06
4.26539e+06
3.84646e+06
3.44871e+06
3.06456e+06
2.69432e+06
2.33665e+06
1.99018e+06
1.65519e+06
1.33283e+06
1.02661e+06
745818
498727
298641
162141
105039
167373
1.53369e+07
9.99547e+06
9.32314e+06
8.90917e+06
8.64702e+06
8.48868e+06
8.374e+06
8.15376e+06
7.75437e+06
7.27517e+06
6.82008e+06
6.3473e+06
5.83703e+06
5.31715e+06
4.80316e+06
4.31883e+06
3.86151e+06
3.42422e+06
3.0074e+06
2.60885e+06
2.22597e+06
1.85837e+06
1.50618e+06
1.17266e+06
866557
594723
365859
200180
121621
176854
1.5302e+07
1.00804e+07
9.43054e+06
9.14545e+06
9.08879e+06
9.15033e+06
9.22817e+06
9.11922e+06
8.74539e+06
8.25384e+06
7.75617e+06
7.214e+06
6.6211e+06
6.01837e+06
5.42253e+06
4.86172e+06
4.33394e+06
3.8328e+06
3.35917e+06
2.91107e+06
2.48467e+06
2.07946e+06
1.69496e+06
1.33365e+06
1.00097e+06
701937
443125
246876
143758
189720
1.53093e+07
1.00726e+07
9.43233e+06
9.28718e+06
9.4683e+06
9.81105e+06
1.01355e+07
1.0183e+07
9.86173e+06
9.36985e+06
8.82881e+06
8.20891e+06
7.52237e+06
6.82513e+06
6.1369e+06
5.48691e+06
4.87555e+06
4.29804e+06
3.75574e+06
3.24805e+06
2.77039e+06
2.32227e+06
1.90215e+06
1.51e+06
1.14763e+06
818277
529364
302606
171728
206741
1.52436e+07
1.01071e+07
9.36598e+06
9.36025e+06
9.81686e+06
1.04784e+07
1.11069e+07
1.13572e+07
1.11201e+07
1.06419e+07
1.00581e+07
9.35189e+06
8.55956e+06
7.75422e+06
6.96006e+06
6.20638e+06
5.49728e+06
4.82856e+06
4.20411e+06
3.62504e+06
3.08705e+06
2.58928e+06
2.12821e+06
1.70051e+06
1.30481e+06
943167
624476
368763
207445
229585
1.53952e+07
1.0169e+07
9.35278e+06
9.46966e+06
1.01936e+07
1.12076e+07
1.21761e+07
1.26636e+07
1.25425e+07
1.20932e+07
1.14681e+07
1.06664e+07
9.75484e+06
8.82438e+06
7.90899e+06
7.03469e+06
6.21096e+06
5.43391e+06
4.71134e+06
4.04723e+06
3.43778e+06
2.88189e+06
2.37293e+06
1.90456e+06
1.47288e+06
1.07939e+06
732412
447475
254192
260307
1.50258e+07
1.10398e+07
9.99555e+06
1.00013e+07
1.08464e+07
1.21302e+07
1.3404e+07
1.41404e+07
1.41606e+07
1.37551e+07
1.309e+07
1.21817e+07
1.11349e+07
1.00592e+07
9.00154e+06
7.98595e+06
7.02704e+06
6.12131e+06
5.28236e+06
4.51744e+06
3.82417e+06
3.20111e+06
2.6369e+06
2.12329e+06
1.65457e+06
1.22954e+06
854888
539315
314212
301308
1.42134e+07
1.79761e+07
1.42145e+07
1.22328e+07
1.23442e+07
1.35292e+07
1.49134e+07
1.58572e+07
1.60222e+07
1.56707e+07
1.49633e+07
1.39333e+07
1.27303e+07
1.14843e+07
1.02557e+07
9.07213e+06
7.95158e+06
6.89095e+06
5.91542e+06
5.03633e+06
4.24779e+06
3.54532e+06
2.91861e+06
2.35588e+06
1.8487e+06
1.39214e+06
988219
642298
387182
355157
101522
47880.3
39636.7
38917.2
41146.3
46142.1
54720.1
68743.4
90644.3
121654
164204
219830
290496
372932
464506
560622
655387
745050
824627
894388
957977
1.02109e+06
1.09887e+06
1.22002e+06
1.43261e+06
1.81393e+06
2.43721e+06
3.29572e+06
4.52593e+06
8.22583e+06
104383
49625.1
40621.9
39736.7
42399.2
48652.6
59697.5
77843.7
105933
145790
199257
267073
351756
447493
550901
656126
756598
849194
930049
998735
1.06001e+06
1.12236e+06
1.20056e+06
1.3242e+06
1.54409e+06
1.93878e+06
2.58162e+06
3.46987e+06
4.74444e+06
9.12048e+06
107118
51083.1
41382.2
40424.9
43705.9
51655.3
65851.5
89138.9
124705
175130
241306
322947
422087
530920
645119
758194
863453
957889
1.03972e+06
1.10716e+06
1.16586e+06
1.22787e+06
1.30799e+06
1.43604e+06
1.6659e+06
2.07542e+06
2.73504e+06
3.64446e+06
4.88578e+06
9.44117e+06
110126
52645.7
42271.5
41418.2
45689
55950.8
74473.4
104683
149855
212933
294590
392959
507283
629827
754426
875098
985917
1.08289e+06
1.16672e+06
1.23556e+06
1.29498e+06
1.35887e+06
1.44383e+06
1.5817e+06
1.8304e+06
2.26635e+06
2.95535e+06
3.90308e+06
5.17686e+06
9.77394e+06
113164
54062.2
43178.6
42696.1
48424.2
61878
86124.6
125138
182239
260133
359061
475624
605158
741104
875166
1.00262e+06
1.1186e+06
1.21829e+06
1.30376e+06
1.37529e+06
1.43807e+06
1.50732e+06
1.60074e+06
1.7524e+06
2.02682e+06
2.49599e+06
3.2204e+06
4.20957e+06
5.51258e+06
1.02038e+07
116385
55549.6
44230.9
44450.9
52293
70035
101653
151585
222996
317567
434397
568048
711949
860597
1.00488e+06
1.13979e+06
1.26215e+06
1.36678e+06
1.45564e+06
1.53111e+06
1.59869e+06
1.67572e+06
1.77969e+06
1.94776e+06
2.2496e+06
2.7521e+06
3.50986e+06
4.53607e+06
5.86568e+06
1.0665e+07
119507
56988
45373.5
46733.2
57526.1
80968.7
121899
185111
272947
385447
520038
669345
825192
982890
1.13686e+06
1.27973e+06
1.41025e+06
1.52333e+06
1.61913e+06
1.70221e+06
1.77785e+06
1.86544e+06
1.98217e+06
2.16947e+06
2.5004e+06
3.03571e+06
3.82352e+06
4.88004e+06
6.22916e+06
1.1174e+07
122606
58388.2
46742.5
49821.9
64702
95674.4
148308
227357
333511
464687
615855
779466
945976
1.11049e+06
1.27107e+06
1.42175e+06
1.56172e+06
1.68722e+06
1.79537e+06
1.89073e+06
1.97891e+06
2.08039e+06
2.21284e+06
2.42405e+06
2.78433e+06
3.35168e+06
4.16557e+06
5.24488e+06
6.60306e+06
1.1713e+07
125972
59832.2
48567.5
54063.8
74507.1
115189
182238
279459
405330
555286
721863
898205
1.07519e+06
1.24702e+06
1.41295e+06
1.56968e+06
1.71764e+06
1.85764e+06
1.98434e+06
2.09825e+06
2.20412e+06
2.32363e+06
2.47793e+06
2.71604e+06
3.1051e+06
3.70214e+06
4.53704e+06
5.63236e+06
6.9769e+06
1.22476e+07
129385
61450.4
51105.8
60063.6
87966.9
141166
225791
343485
489970
658236
839387
1.02727e+06
1.21462e+06
1.39572e+06
1.57037e+06
1.73586e+06
1.89051e+06
2.04181e+06
2.19006e+06
2.33043e+06
2.46108e+06
2.60158e+06
2.78415e+06
3.04829e+06
3.467e+06
4.09024e+06
4.94069e+06
6.04499e+06
7.36343e+06
1.27182e+07
132940
63404.2
54540
68412.7
106197
175022
280161
420045
587160
772725
967990
1.16721e+06
1.36522e+06
1.5574e+06
1.74346e+06
1.92383e+06
2.09173e+06
2.25411e+06
2.41952e+06
2.59083e+06
2.75609e+06
2.9241e+06
3.133e+06
3.42529e+06
3.87122e+06
4.51415e+06
5.37261e+06
6.47325e+06
7.75972e+06
1.31362e+07
136672
65689.6
59022.1
79644.8
130186
217757
345388
507720
694373
896089
1.10593e+06
1.31813e+06
1.52902e+06
1.73491e+06
1.93535e+06
2.13355e+06
2.32305e+06
2.50402e+06
2.68744e+06
2.88606e+06
3.09252e+06
3.29582e+06
3.5315e+06
3.85103e+06
4.31807e+06
4.97016e+06
5.82535e+06
6.90392e+06
8.15416e+06
1.35409e+07
140503
68052.1
64678.9
94185.2
160469
269496
420062
603461
808365
1.02702e+06
1.25275e+06
1.48054e+06
1.70748e+06
1.93077e+06
2.15008e+06
2.36974e+06
2.58646e+06
2.79531e+06
3.00405e+06
3.22703e+06
3.47397e+06
3.7212e+06
3.98799e+06
4.33063e+06
4.80899e+06
5.45671e+06
6.29357e+06
7.33788e+06
8.53263e+06
1.39442e+07
144219
70712.6
72070.9
112881
198047
330514
503953
708019
932307
1.1682e+06
1.4115e+06
1.65739e+06
1.9036e+06
2.14813e+06
2.39077e+06
2.63683e+06
2.88634e+06
3.1313e+06
3.37331e+06
3.62543e+06
3.90867e+06
4.20266e+06
4.50531e+06
4.86575e+06
5.34258e+06
5.97157e+06
6.77412e+06
7.76843e+06
8.90282e+06
1.43214e+07
147891
74238.5
82256
137541
244387
402031
598958
824093
1.06755e+06
1.32273e+06
1.58584e+06
1.85273e+06
2.12167e+06
2.39156e+06
2.66239e+06
2.94034e+06
3.22871e+06
3.51757e+06
3.80024e+06
4.08739e+06
4.40714e+06
4.74931e+06
5.0861e+06
5.4572e+06
5.91775e+06
6.51239e+06
7.25898e+06
8.18512e+06
9.22617e+06
1.47886e+07
151979
79054.9
96198.4
169488
300591
483929
704772
951971
1.21693e+06
1.49413e+06
1.77976e+06
2.07084e+06
2.36636e+06
2.66624e+06
2.97079e+06
3.28712e+06
3.62132e+06
3.96154e+06
4.2926e+06
4.62181e+06
4.97834e+06
5.3667e+06
5.7365e+06
6.10599e+06
6.53309e+06
7.06991e+06
7.73988e+06
8.57699e+06
9.52094e+06
1.50443e+07
156742
85697.4
114844
209899
367070
576069
821652
1.09356e+06
1.3826e+06
1.68461e+06
1.99616e+06
2.31526e+06
2.6419e+06
2.97725e+06
3.32187e+06
3.68445e+06
4.07138e+06
4.47142e+06
4.85823e+06
5.23692e+06
5.63237e+06
6.06329e+06
6.4602e+06
6.81182e+06
7.18058e+06
7.62772e+06
8.19771e+06
8.90485e+06
9.7577e+06
1.5323e+07
162611
95169.5
139569
260090
445117
679967
951204
1.24946e+06
1.56565e+06
1.89584e+06
2.23736e+06
2.58931e+06
2.95281e+06
3.33047e+06
3.72335e+06
4.14055e+06
4.58873e+06
5.05682e+06
5.50784e+06
5.94438e+06
6.38199e+06
6.84886e+06
7.26116e+06
7.57508e+06
7.84976e+06
8.17496e+06
8.6135e+06
9.1896e+06
9.9767e+06
1.5457e+07
170137
108443
171714
320717
535460
796880
1.09474e+06
1.42065e+06
1.7667e+06
2.12876e+06
2.50524e+06
2.89621e+06
3.30405e+06
3.7329e+06
4.18346e+06
4.66492e+06
5.18455e+06
5.72852e+06
6.25473e+06
6.75679e+06
7.23944e+06
7.73333e+06
8.146e+06
8.39624e+06
8.53001e+06
8.68644e+06
8.95108e+06
9.38657e+06
1.00929e+07
1.55951e+07
179991
126009
211932
391707
637412
927727
1.25386e+06
1.60887e+06
1.98698e+06
2.38481e+06
2.80215e+06
3.23982e+06
3.70152e+06
4.19205e+06
4.71158e+06
5.26853e+06
5.8706e+06
6.49941e+06
7.11167e+06
7.68824e+06
8.21874e+06
8.7288e+06
9.12202e+06
9.27468e+06
9.2167e+06
9.1525e+06
9.21408e+06
9.51659e+06
1.01992e+07
1.55906e+07
193465
148680
260847
471882
749634
1.07187e+06
1.4286e+06
1.8149e+06
2.22761e+06
2.6658e+06
3.13117e+06
3.62503e+06
4.15233e+06
4.71704e+06
5.31853e+06
5.96386e+06
6.66255e+06
7.38327e+06
8.09398e+06
8.75483e+06
9.33611e+06
9.85075e+06
1.01999e+07
1.02136e+07
9.90973e+06
9.55975e+06
9.37609e+06
9.53948e+06
1.02138e+07
1.56195e+07
211574
178039
319929
561939
871334
1.22695e+06
1.6171e+06
2.03809e+06
2.48992e+06
2.97499e+06
3.49722e+06
4.05884e+06
4.66532e+06