/*--------------------------------*- C++ -*----------------------------------*\
| =========                 |                                                 |
| \\      /  F ield         | OpenFOAM: The Open Source CFD Toolbox           |
|  \\    /   O peration     | Version:  2112                                  |
|   \\  /    A nd           | Website:  www.openfoam.com                      |
|    \\/     M anipulation  |                                                 |
\*---------------------------------------------------------------------------*/
FoamFile
{
    version     2.0;
    format      ascii;
    arch        "LSB;label=32;scalar=64";
    class       volScalarField;
    location    "0.007";
    object      k;
}
// * * * * * * * * * * * * * * * * * * * * * * * * * * * * * * * * * * * * * //

dimensions      [0 2 -2 0 0 0 0];

internalField   nonuniform List<scalar> 
13875
(
812.136
3462.66
3539.99
3538.3
3541.8
3543.43
3542.81
3540.63
3539.84
3539.57
3541.25
3541.48
3541
3540.14
3540.43
3541.2
3541.89
3541.15
3540.74
3540.23
3541.16
3538.99
3540.13
3460.61
820.427
881.782
2936.75
3012.87
3000.15
3001.52
2998.45
2998.27
2998.2
2998.04
2997.14
2997.44
2998.41
2996.71
2996.37
2996.17
2998.51
2996.22
2997.07
2996.98
2998.6
3000.44
2999.28
3011.62
2933.57
894.529
993.39
2711.07
2777.6
2755.3
2758.84
2752.86
2747.31
2745.37
2744.59
2743.52
2743.48
2744.34
2751.51
2752.18
2750.87
2744.65
2741.18
2742.67
2745.34
2755.1
2757.66
2753.16
2774.42
2706.42
998.472
1091.17
2533.85
2581.11
2561.3
2566.56
2559.93
2553.92
2550.17
2549.02
2548.2
2548.11
2548.43
2559.3
2560.02
2558.84
2548.66
2547.28
2547.54
2551.18
2562.92
2565.47
2559.4
2579.02
2529.56
1094.02
1172.3
2380.65
2413.38
2392.79
2397.7
2390.75
2385.04
2381.05
2380.4
2379.97
2379.74
2379.49
2390.23
2391.36
2389.88
2379.74
2379.15
2379.05
2382.36
2393.94
2396.77
2391.17
2410.35
2375.74
1177.57
1241.23
2237.53
2271.22
2245.04
2251.2
2242.11
2235.97
2231.31
2231.13
2231.05
2230.73
2230.01
2240.74
2242.23
2240.49
2230.19
2230.44
2229.95
2233.1
2245.68
2249.94
2243.73
2267.75
2247.5
1247.18
1321.24
2122.37
2158.75
2120.75
2122.58
2111.58
2104.23
2098.72
2098.64
2098.83
2098.35
2097.15
2107.98
2109.66
2107.53
2097.22
2098.51
2097.73
2101.55
2115.5
2121.69
2119.74
2153.97
2095.78
1323.13
1410.07
2001.31
2074.07
2020
2016.01
1998.27
1988.2
1981.11
1980.93
1981.27
1980.74
1978.82
1989.84
1991.91
1989.41
1978.78
1981.39
1980.61
1985.45
2002.17
2013.96
2017.95
2068.25
1992.78
1419.9
1691.74
2030.07
2022.78
1944.84
1924.47
1900.33
1886.65
1877.77
1876.68
1877.4
1877.07
1874.4
1885.56
1888.08
1885.36
1874.58
1878.07
1877.3
1883.38
1903.85
1922.43
1942.18
2017.83
2033.42
1716.34
2509.48
2285.88
2018.5
1900.74
1857
1823.26
1804.68
1795.44
1793.36
1793.83
1793.52
1790.43
1801.23
1804.19
1801.52
1791.91
1794.95
1795.24
1801.45
1824.74
1855.63
1891.55
2011.32
2265.92
2529.38
3877.09
3026.24
2152.86
1914.18
1812.3
1770.62
1746.64
1734.25
1731.08
1730.68
1730.09
1726.85
1736.72
1740.02
1738.3
1731.19
1733.34
1735.36
1745.16
1768.6
1813.42
1907.25
2129.61
2936.17
3858.38
5186.28
6452.14
2852.06
1992.12
1851.45
1755.47
1713.19
1696.27
1690.05
1688.19
1686.98
1684.07
1692.12
1695.61
1695.45
1691.35
1693.35
1698.47
1712.52
1758
1846.93
1972.58
2787.06
6315.33
5120.2
5057.44
7619.27
7051.82
3338.72
2041.22
1797.66
1742.15
1701.3
1685.95
1679.31
1675.91
1672.69
1678.37
1681.91
1683.87
1684.25
1691.07
1707.45
1747.44
1805.13
2088.6
3226.82
6755.9
7651.06
5009.8
4826.31
6358.63
7177.04
8744.09
5172.84
2325.02
1899.17
1786.03
1751.3
1747.15
1744.48
1741.69
1746.37
1749.66
1752.7
1755.6
1760.69
1794.76
1940.88
2479.02
5624.35
8146.99
6961.4
6333
4832.17
4603.46
5517.33
6043.51
6994.5
6864.04
6711.18
3401.58
2389.59
2145.31
2049.09
2008.34
1993.18
1993.4
1998.11
2009.84
2041.97
2132.21
2393.89
3588.33
6886.74
6837.77
6706.18
5972.4
5491.74
4681.55
4294.45
4805.37
5122.09
5900.23
6095.02
6590.11
5590.06
5140.66
4919.23
4286.86
4343.89
4399.58
4445.5
4434.35
4369.54
4268.16
4838.18
5409.92
5667.7
6662.98
6011.29
5714.46
5082.09
4785.37
4367.57
3735.65
4054.91
4358.55
5101.99
5646.35
6569.65
7447.34
7824.78
6857.17
6276.39
6557.37
6800.35
6942.46
6890.72
6652.55
6584.79
6844.85
7770.85
7526.92
6583.15
5500.34
4920.24
4245.48
3974.37
3727.5
3070.78
3414.93
3975.29
4892.84
5581.71
6176.26
7240.42
8050.3
6516.38
5396.52
5229.37
5277.12
5356.81
5320.83
5295.51
5704.36
6491.15
7685.69
7275.72
6292.46
5575.07
4834.62
3898.68
3357.61
3035.27
2634.75
3168.88
3894.56
5237.22
6081.42
5753.09
6129.18
6932.12
6142.46
5112.77
4686.19
4582.57
4583.36
4637.32
4781.78
5231.15
5939.23
6634.33
6191.66
5890.81
6300.16
5277.83
3900.28
3161.75
2638.68
2512.72
3362.75
4134.87
5431.46
5824.91
5261.77
5260.7
5838.7
5628.06
4923.65
4394.48
4101.9
4010.26
4177.45
4520.85
4976.94
5398.64
5603.12
5308.12
5411.54
5975.55
5347.39
4167.84
3404.44
2511.12
4757.58
6921.29
5677.41
4881.74
5032.66
4632.94
4588.89
5071.31
5109.68
4604.75
4051.26
3658.34
3527.92
3767.46
4206.58
4643.11
4895.32
4883.35
4629.51
4759.45
5153.95
4878.93
5974.94
7034.45
5206.98
11048.6
20774.5
6907.25
4240.35
4340.81
4086.54
4069.59
4483.83
4615.47
4230.54
3689.38
3257.37
3111.61
3373.39
3840.71
4250.47
4417.9
4341.92
4098.17
4181.54
4414.74
4276.29
7461.62
21249.1
11777.9
12360.5
15436.4
6113.93
3769.17
3802.12
3645.72
3631.81
4003.19
4159.44
3837.53
3328.73
2903.76
2752.29
3004.45
3460.54
3845.31
3975.18
3890.78
3651.24
3707.01
3842.23
3802.99
6310.75
15315.4
12336.5
11767.4
15052.5
5202
3415.92
3367.02
3259.85
3254.88
3583.53
3744.55
3454.71
2978.43
2583.18
2448.4
2683.93
3113.05
3473.41
3580.02
3486.01
3279.5
3316.45
3408.98
3473.76
5391.75
15498.2
11730.8
11359.6
14554.2
4639.21
3153.13
3032.88
2936.29
2947.26
3229
3372.8
3110.86
2676.79
2314.54
2193.16
2408.16
2807.13
3137.4
3230.68
3139.48
2965.23
2990.6
3081.7
3219.31
4879.9
15464.3
11373.1
11051.9
14659.3
4254.91
2915.82
2763.38
2665.52
2694.9
2927.96
3045.36
2807.25
2416.56
2087.23
1976.77
2169.76
2531.15
2831
2918.35
2839.71
2697.29
2705.09
2808.97
2971.74
4434.75
15281.6
11170.4
10926.1
13883.7
3867.48
2698.96
2540.98
2437.74
2479.82
2666.22
2746.16
2527.49
2182.73
1891.63
1793.71
1970.58
2298.37
2566.58
2651.2
2588.19
2471.42
2474.1
2594.24
2765.02
4060.58
14687.7
11025.6
10789.9
13497.6
3616.18
2521.07
2363.23
2255.4
2296.94
2443.45
2492.94
2291.48
1986.31
1726.23
1636.89
1796.37
2088.88
2329.58
2414.11
2370.07
2279.64
2280.99
2409.83
2580.83
3786.85
14369.9
10901.2
10569.8
13372.3
3443.68
2368.82
2213.26
2109.63
2139.2
2248.77
2271.06
2086.83
1817.99
1584.87
1502.27
1644.73
1903.68
2117.38
2203.72
2179.09
2112.5
2118.77
2246.34
2414.69
3549.1
13563.7
10783.2
10344.3
12725.2
3294.14
2239.98
2074.6
1984.9
2004.61
2075.58
2070.42
1899.37
1663.73
1459.41
1385.66
1517.32
1750.39
1941.25
2025.45
2015.92
1971.92
1985.89
2103.08
2278.96
3407.5
13222.1
10589.9
10026.9
11849.2
3169.21
2137.66
1959.06
1874.38
1886.55
1926.14
1900.64
1743.53
1535.48
1352.68
1284.75
1403.32
1610.52
1780.36
1865.35
1872.3
1851.02
1868.45
1975.4
2164.77
3244.83
12237
10355.7
9747.42
11319.6
3077.53
2063.48
1853.53
1772.48
1780.67
1796.75
1756.61
1610.36
1424.21
1259.53
1196.68
1303.4
1488.99
1642.96
1727.25
1747.18
1743.53
1761.03
1860.66
2078.28
3107.52
11376.9
10063.2
9518.54
10418.7
2978.38
2007.44
1762.72
1682.55
1681.4
1678.69
1623.83
1488.31
1323.52
1176.54
1119.88
1218.39
1386.46
1524.57
1607.72
1638.26
1645.77
1667.15
1764.02
2013.55
3035.7
10876.9
9777.08
9284.25
9706.99
2876.89
1968.13
1691.28
1602.91
1588.36
1575.64
1512.42
1386.25
1237.46
1104.24
1051.86
1141
1292.92
1419.21
1500.18
1540.26
1554.46
1583.08
1684.39
1966.85
2970.35
10198.2
9501.6
9064.75
9209.77
2761.74
1940.02
1644.62
1529.83
1505.11
1482.76
1413.98
1296.02
1162.01
1040.36
992.115
1073.18
1210.62
1325.77
1405.42
1451.24
1471.31
1510.13
1628.9
1939.28
2867.1
9517.02
9258.45
8838.37
8655.11
2646.71
1916.03
1613.01
1466.44
1427.85
1395.36
1325.54
1214.95
1092.3
982.361
938.51
1013.7
1140.27
1246.29
1323.08
1370.42
1397.73
1445.48
1593.39
1921.99
2758.45
9041.49
9027.11
8625.19
8287.15
2546.82
1924.51
1597
1414.89
1360.95
1318.51
1246.66
1144.46
1032.59
931.549
890.899
959.384
1074.96
1172.82
1246.27
1296.37
1331.58
1390.11
1572.36
1925.19
2634.68
8457.48
8811.15
8404.79
8093.57
2453.75
1917.49
1594.36
1378.91
1300.05
1249.15
1177.09
1082.44
979.039
885.758
847.882
910.616
1017.19
1107.98
1177.23
1229.86
1271.7
1351.56
1568.39
1931.55
2515.39
8091.67
8606.5
8176.19
7737.68
2341.95
1871.43
1607.12
1356.47
1249.02
1186.79
1112.42
1024.15
929.471
844.118
809.352
868.103
966.495
1050.32
1115.84
1171.27
1221.11
1325.51
1582.18
1907.7
2397.38
7911.82
8380.09
7973.31
7508.89
2234.05
1819.99
1640.15
1346.42
1209.07
1133.14
1057.21
973.945
885.54
806.515
774.113
828.196
919.179
997.583
1060.14
1119.31
1181.31
1313.12
1600.58
1848.39
2282.55
7669.39
8128.08
7812.37
7341.83
2152.88
1761.62
1674.77
1352.69
1180.81
1089.13
1008.37
928.542
845.865
772.465
742.22
792.339
876.113
949.946
1010.79
1075.93
1154.39
1312.86
1662.05
1791.93
2184.73
7468.92
7917.2
7659.47
7153.54
2064.61
1687.28
1656.97
1369.22
1160.66
1056.22
966.534
886.968
808.594
740.8
712.771
759.98
838.464
908.655
969.776
1043.39
1134.65
1332.1
1685.41
1732.74
2165.24
7287.61
7755.39
7514.3
7009.58
1994.73
1614.26
1610.84
1421.57
1152.45
1031.78
933.481
851.408
775.917
712.457
685.911
729.773
802.89
870.817
935.29
1018.98
1124.05
1368.59
1646.22
1653.87
2077.8
7103.06
7603.3
7393.5
6863.2
2022.19
1550.44
1549.35
1462.28
1164.93
1013.91
909.428
822.066
746.806
686.407
661.048
702.112
771.266
838.675
909.139
1001.88
1134.9
1448.76
1586.24
1579.53
2027.34
6959.54
7469.68
7269.45
6731.47
1960.97
1487.2
1478.45
1449.47
1202.02
1004.48
889.401
798.608
721.457
662.866
638.623
677.962
744.735
813.806
889.031
993.853
1187.09
1480.46
1516.62
1523.6
2060.04
6809.97
7356.22
7143.99
6576.67
1991.37
1440.25
1408
1400.66
1283.13
1018.58
876.277
782.504
702.639
643.227
619.004
657.044
724.141
795.299
873.998
1004.93
1274.58
1432.24
1446.26
1469.65
2041.81
6640.1
7241.17
7019.92
6432.49
2042.11
1408.39
1348.68
1346.97
1312.77
1077.68
872.255
767.869
688.746
628.735
602.348
641.524
708.699
779.91
866.301
1065.22
1315.85
1374.88
1383.47
1428.52
2041.79
6465.22
7113.25
6829.04
6253.03
2029.31
1375.9
1297.88
1291.3
1271.66
1167.02
895.974
756.789
676.846
617.579
590.048
630.104
696.111
768.589
889.252
1165.78
1276.47
1313.2
1329.96
1404.81
2081.7
6259.29
6911.38
6578.08
6021.39
2031.05
1354.24
1255.18
1237.42
1226.89
1203.03
972.237
759.212
667.748
608.402
581.427
620.447
685.306
766.09
953.795
1216.19
1232.15
1253.39
1281.77
1379.27
2068.06
6018.8
6654.13
6001.42
5611.95
2010.38
1334.01
1218.41
1189.98
1177.86
1165.98
1060.7
797.538
665.828
600.548
573.838
612.071
680.767
793.738
1058.59
1183.09
1183.94
1201.27
1238.61
1352.67
2026.19
5607.28
6073.31
1089.51
2492.21
3772.47
3954.87
3449.97
2966.67
2636.18
2489.81
2517.23
2569.89
2502.56
2168.64
1628.19
1232.39
997.811
883.87
837.994
830.964
842.39
863.483
890.032
922.173
959.686
1003.1
1055.89
1131.63
1302.23
1607.66
1511.74
827.58
1247.62
2851.62
3937.77
3887.52
3290.89
2793.05
2468.95
2322
2344
2390.12
2376.14
2162.94
1660.67
1253.84
1003.26
877.105
824.187
812.718
821.533
840.642
866.167
897.094
934.598
981.62
1050.11
1198.62
1578.99
1772.43
1550.47
861.922
1400.62
3254.75
4134.26
3809.46
3136.01
2643.31
2335.57
2203.99
2231.12
2275.36
2255.23
2030.06
1566.3
1205.79
976.082
856.966
804.907
792.089
799.34
817.104
841.383
871.07
908.563
963.238
1067.82
1351.73
1757.59
1730.79
1531.19
869.487
1607.37
3616.66
4273.52
3706.75
2982.64
2482.37
2180.64
2087.27
2132.91
2173.58
2149.26
1940.43
1532.11
1184.91
959.237
839.523
785.815
771.47
777.464
794.41
817.754
847.238
887.774
957.416
1140.76
1572.04
1755
1668.34
1480.37
870.082
1828.98
3924.24
4348
3575.43
2819.12
2325.52
2050.16
1980.29
2052.12
2086.26
2047.63
1837.33
1465.43
1136.98
929.403
817.029
765.691
751.333
756.809
773.181
796.64
826.698
875.419
984.509
1294.85
1644.86
1685.38
1573.59
1405.78
867.625
2089.15
4211.32
4344.99
3421.73
2644.55
2173.69
1943.16
1897.16
1987.28
2013.7
1953.35
1743.48
1399.1
1090.91
897.234
793.45
746.147
732.998
738.67
755.708
779.731
814.707
880.725
1072.64
1499.45
1611.3
1588.18
1471.81
1326.86
864.321
2318.78
4483.45
4303.64
3246.71
2465.23
2048.43
1865.75
1841.37
1933.14
1960.61
1889.55
1665.68
1325.04
1035.43
861.429
769.21
728.101
717.291
724.244
742.236
768.771
813.839
921.934
1236.56
1529.63
1530.74
1483.74
1383.54
1263.56
859.869
2557.52
4744.62
4237.73
3078.2
2323.91
1959.19
1812.66
1803.9
1895.43
1929.82
1853.38
1580.97
1242.84
974.966
825.576
747.742
713.541
705.891
714.874
734.866
766.984
831.374
1023.51
1402.32
1479.68
1441.91
1392.83
1314.89
1211.98
854.174
2783.99
4957.64
4150.4
2929.81
2226.32
1907.01
1775.32
1759.34
1845.82
1893.04
1791.74
1489.94
1149.85
914.967
793.239
731.748
704.877
700.948
712.347
735.306
777.594
886.11
1200.07
1410.64
1408.73
1364.25
1323.71
1262
1164.96
846.091
3021.4
5108.34
4046.83
2831.32
2183.34
1874.54
1723.85
1698.65
1777.43
1810.28
1676.78
1373.59
1048.35
864.579
771.049
723.271
703.646
703.432
717.4
746.285
810
1002.68
1323.41
1361.83
1344.39
1302.85
1269.66
1213.97
1115.45
830.351
3264.1
5198.53
3977.08
2788.11
2164.88
1838.85
1667.62
1624.67
1673.2
1665.51
1506.52
1233.05
962.844
831.401
762.139
725.004
711.529
714.623
732.469
772.871
888.6
1187.23
1316.44
1306.53
1290.89
1249.16
1222.41
1163.18
1059.09
809.764
3487.66
5295.09
3961.34
2791.6
2168.19
1821.74
1627.85
1551.59
1549.4
1491.49
1323.44
1108.09
915.012
819.647
768.32
738.407
729.609
735.935
761.116
831.997
1043.31
1260.93
1271.15
1257.93
1242.61
1200.29
1173.04
1108.03
1001.05
788.102
3690.24
5420.36
4001.47
2840.05
2203.06
1834.58
1618.77
1506.68
1448.48
1347.79
1191.05
1041.08
907.804
829.868
789.569
765.262
760.269
772.052
816.953
957.966
1202.09
1245.58
1226.59
1214.28
1195.65
1152.76
1121.44
1054.26
950.855
770.118
3878.02
5582.03
4094.3
2931.63
2284.07
1894.88
1647.02
1490.47
1387.6
1272.18
1141.18
1037.29
935.082
868.571
830.152
811.589
811.741
840.211
938.368
1150.69
1223.97
1209.79
1186.96
1173.51
1149.68
1108.45
1073.53
1007.88
909.686
755.122
4059.26
5788.55
4241.38
3069.77
2408.85
2015.89
1752.95
1562
1426.8
1307.77
1199.78
1110
1019.09
956.047
910.695
900.452
915.353
987.658
1143.26
1211.78
1207.67
1177.12
1152.17
1135.25
1107.96
1070.31
1032.28
969.074
874.794
740.055
4246.54
6041.11
4452.26
3265.25
2598.34
2208.27
1950.74
1748.74
1606.15
1491.18
1392.32
1302.53
1212.3
1147.55
1096.84
1092.27
1136.96
1210.35
1236.35
1224.36
1190.28
1149.45
1122.11
1100.01
1072.88
1037.96
996.315
937.15
843.487
725.725
4448.71
6361.68
4736.17
3527.32
2862.79
2484.1
2249.07
2067.53
1949.79
1859.89
1792.35
1720.39
1642.11
1587.84
1511.93
1448.17
1382.49
1339.14
1286.89
1232.13
1176.27
1119.84
1097.12
1071.03
1044.37
1009.09
965.976
910.226
816.469
712.681
4666.11
6763.81
5112.78
3879.96
3218.1
2862.12
2681.62
2585.39
2559.7
2569.48
2577.4
2540.18
2473.76
2332.3
2080.33
1827.91
1612.47
1459.15
1337.31
1240.95
1155.09
1104.51
1077.19
1048.69
1020.78
984.063
941.392
887.503
792.762
700.262
4888.38
7256.26
5605.69
4331.76
3671.85
3365.79
3314.02
3414.09
3588.12
3717.97
3758.01
3730.99
3589.3
3273.28
2797.85
2300.05
1892.25
1601.12
1391.42
1240.19
1150.18
1096.04
1064.53
1030.23
999.985
963.141
924.363
866.831
770.119
689.093
5147.72
7839.33
6188.8
4880.34
4231.56
4024.04
4213.87
4611.62
4887.65
5090.72
5197.97
5191.38
4944.58
4413.93
3681.27
2885.02
2231.95
1756.37
1442.54
1261.14
1155.57
1093.11
1054.26
1013.79
980.878
944.761
908.164
846.678
747.341
678.122
5545.71
8354.98
6833.36
5527.67
4910.7
4880.5
5379.87
5876.94
6268.33
6586.06
6779.75
6792.8
6429.85
5673.71
4661.05
3540.37
2603.77
1934.86
1525.88
1297.23
1169.48
1094.15
1044.79
997.472
962.585
928.552
892.743
825.696
724.509
667.838
5872.65
9075.49
7534.28
6289.9
5761.71
5965.55
6596.37
7137.72
7649.3
8081.44
8350.06
8347.74
7848.76
6871.23
5573.8
4225.76
3024.92
2157.79
1634.72
1346.8
1189.1
1097.1
1033.41
981.429
946.848
913.784
876.29
803.396
702.127
657.014
6204.99
9586.69
8200.99
7192.01
6871.66
7294.61
7865.95
8417.71
8986.72
9486.13
9778.97
9681.85
8991.22
7807.42
6366.7
4861.27
3468.89
2422.5
1769.66
1407.31
1211.78
1098.03
1019.92
966.168
932.906
899.914
856.646
779.148
679.99
645.96
6485.79
10258.2
9082.85
8424.92
8362.16
8871.76
9280.01
9745
10271.1
10790.5
11063
10745.1
9846.78
8526.75
7020.24
5435.7
3936.84
2730.88
1931.48
1477.7
1235.81
1093.89
1006.62
952.215
920.132
885.72
834.358
754.938
659.859
635.762
6568.41
11468
10735.2
10446
10444.2
10769.1
10949.7
11267.9
11745.5
12227.8
12363.8
11787.2
10662.6
9211.03
7620.52
5989.1
4423.14
3077.14
2117.15
1555.27
1257.85
1089.37
994.189
939.5
907.451
869.621
811.357
732.19
640.652
625.334
836.369
1533.4
1587.36
1277.61
1120.77
1050.06
999.629
957.453
920.811
889.485
863.014
842.604
832.044
841.597
891.554
1017.16
1270.31
1689.48
2248.59
2552.34
2610.76
2551.88
2524.4
2684.52
3028.63
3532.4
4058.12
3870.66
2566.81
1114.44
870.175
1577.27
1784.17
1538.46
1180.09
1042.92
977.363
931.751
895.787
865.577
840.699
822.14
814.467
828.762
887.097
1023.58
1291.45
1717.98
2228.57
2415.12
2428.29
2377.23
2354.28
2512.42
2852.19
3374.05
3997.74
4045.73
2930.07
1279.8
878.788
1555.59
1752.06
1749.74
1322.36
1055.83
957.794
905.449
869.344
840.587
817.195
800.249
794.446
810.014
867.332
996.83
1240.26
1616.71
2094.07
2294.06
2310.77
2261.26
2234.68
2375.15
2695.16
3215.41
3925.78
4258.53
3344.87
1436.09
878.58
1500.87
1691.25
1759.34
1538.58
1120.46
950.544
884.823
845.801
817.113
794.372
778.532
774.22
791.476
850.066
981.158
1220.1
1580.87
1999.61
2187.7
2207.41
2161.53
2115.52
2215.36
2526.28
3051.73
3815.02
4408.99
3723.94
1647.22
873.503
1420.96
1593.5
1694.12
1636.45
1267.49
973.096
871.227
825.007
795.852
773.173
757.686
754.105
771.496
827.691
950.978
1172.16
1514.41
1892.96
2085.57
2121.3
2080.52
2006.79
2083.73
2367.44
2879.74
3670.25
4478.52
4045.69
1874.55
867.729
1340.63
1486.83
1598.31
1609.86
1471.79
1053.35
874.147
811.723
778.218
755.222
739.563
735.528
751.797
803.896
917.535
1123.89
1447.86
1796.06
1991.53
2050.76
2015.99
1923.89
1977.23
2215.25
2699.22
3508.17
4474.77
4338.67
2138.58
859.476
1270.95
1391.33
1492.8
1531.56
1518.96
1207.28
910.575
809.232
766.473
741.205
724.603
719.491
733.364
778.932
880.003
1066.25
1374.09
1718.54
1927.57
1999.94
1961.34
1868.61
1896.8
2087.32
2517.66
3334.83
4430.62
4619.27
2372.89
854.189
1217.7
1318.37
1399.66
1443.69
1475.06
1387.04
1005.36
824.481
763.672
733.17
714.729
707.798
718.522
756.714
842.308
1004.12
1289.9
1636.68
1890.33
1969.68
1920.63
1829.62
1842.36
1998.36
2375.94
3164.19
4361.35
4887.02
2617.02
845.83
1168.44
1259.84
1326.8
1367.46
1404.88
1403.81
1172.68
874.59
772.649
732.545
711.48
702.238
709.216
739.374
807.271
941.562
1192.68
1546.85
1829.61
1932.08
1870.73
1784.34
1804.49
1946.66
2277.3
3012.74
4269.4
5105.61
2852.11
830.849
1118.51
1212.76
1271.44
1304.49
1340.53
1358.59
1316.52
986.066
802.52
742.548
716.023
704.022
707.063
729.307
781.556
885.991
1085.15
1424.95
1718.04
1849.51
1802.81
1721.88
1753.04
1913.85
2234.31
2911.36
4165.01
5256.54
3098.23
810.431
1062.19
1166.11
1222.88
1251.12
1288.54
1302.86
1317.42
1170.06
876.984
767.936
730.374
714.628
714.099
730.312
769.806
846.744
993.133
1273.12
1545.81
1697.89
1697.11
1648.83
1699.65
1879.1
2216.11
2868.78
4097.44
5347.46
3348.29
790.031
1003.83
1113
1174.28
1202.5
1241.18
1252.71
1271.07
1256.88
1025.39
824.302
758.516
735.822
731.584
743.525
774.567
829.652
937.251
1138.86
1356.93
1516.53
1570.05
1576.24
1662.65
1864.03
2221.14
2876.41
4085.46
5448.89
3577.26
773.045
953.371
1058.75
1123.63
1155.33
1195.6
1208.36
1223.68
1245.77
1196.58
946.493
813.308
771.972
762.376
770.73
795.214
837.514
921.125
1064.02
1218.7
1369.32
1464.77
1529.93
1652.98
1879.22
2259.4
2928.28
4131.23
5580.45
3783.89
757.469
912.022
1011.51
1075.78
1110.74
1150.95
1168.28
1184.26
1211.57
1224.76
1143.29
933.257
841.134
815.854
819.516
838.184
877.921
946.88
1053.33
1163.67
1293.97
1406.78
1516.73
1683.06
1941.9
2343.97
3022.98
4229.86
5749.89
3976.37
742.722
877.145
972.773
1034.81
1072.21
1109.85
1131.62
1151.56
1180.02
1211.81
1215.06
1142.93
992.563
926.434
915.953
928.227
973.688
1039.86
1129.08
1223.92
1333.1
1453.73
1594.2
1793.87
2067.16
2473.35
3164.4
4383.41
5966.28
4162.57
728.506
847.405
941.594
1000.63
1040.58
1075.82
1098.71
1122.25
1153.84
1196.58
1233.09
1247.32
1225.07
1166.27
1130.65
1140.4
1190.77
1258.98
1342.77
1433.46
1532.77
1645.82
1791.27
2000.62
2266.68
2669.78
3364.15
4606.38
6232.74
4353.4
715.45
821.677
916.136
972.394
1013.39
1048.73
1071.5
1097.51
1125.81
1185.4
1245.22
1307.01
1366.66
1430.52
1520.71
1606.19
1690.89
1749.04
1811.67
1875.23
1937.46
2017.04
2128.9
2312.56
2553.06
2943.86
3634.87
4905.44
6567.31
4559.9
703.335
798.391
894.767
950.441
989.98
1025.83
1050.6
1078.7
1106.31
1166.7
1259.69
1367.21
1504.31
1688.72
1946.44
2227.68
2488.99
2654.14
2712.1
2727.72
2705.47
2677.92
2682.33
2764.97
2945.02
3309.29
3997.42
5297.61
6986.3
4784.96
692.276
776.299
875.193
932.895
970.09
1005.53
1034.08
1067.19
1098.38
1158.76
1262.61
1433.55
1668.74
2004.78
2483.02
3028.83
3520.79
3845.2
3978.6
3979.38
3917.68
3782.34
3579.55
3438.55
3469.71
3778.32
4460.65
5806.14
7497.04
5015.76
681.603
754.161
855.817
918.168
953.881
987.797
1019.5
1058.62
1098.24
1165.53
1286.36
1496.61
1847.11
2387.54
3140.92
4012.98
4778.21
5308.35
5540.63
5515.82
5369.43
5135.67
4851.75
4416.36
4167.72
4361.74
5030.89
6404.94
8106.21
5283.36
671.808
732.311
835.53
903.795
940.192
971.967
1004.94
1051.51
1102.29
1183.02
1327.43
1588.66
2053.5
2810.3
3853.23
5080.66
6147.4
6907.07
7253.54
7211.03
6958.7
6585.98
6165.02
5669.07
5093.25
5076.47
5701.91
7063.18
8641.57
5702.66
661.88
710.716
813.836
888.065
927.774
958.265
990.455
1043.51
1108.3
1206.74
1383.29
1702.21
2298.5
3266.88
4579.65
6032.45
7394.37
8396.26
8891.9
8877.47
8547.43
8044.83
7482.98
6916.04
6261.24
5980.48
6497.79
7782.79
9370.54
6040.47
651.309
689.016
790.349
868.793
916.104
945.898
976.47
1032.56
1113.8
1234.07
1450.57
1848.12
2583.3
3731.7
5223.65
6805.33
8310.62
9531.74
10245.9
10353.7
10015
9441.94
8819.4
8238.46
7671.46
7153.9
7446.09
8471.8
9887.88
6384.25
641.151
668.141
766.152
846.408
902.871
934.642
964.29
1021.58
1115.03
1263.11
1527.43
2018.58
2902.97
4202.57
5776.62
7416.87
8985.07
10353.2
11291.8
11636.3
11353.8
10762.6
10180.6
9692.62
9275.21
8718.49
8736.07
9387.67
10585.4
6655.97
630.718
648.641
742.485
823.065
885.75
924.156
954.023
1012.39
1114.27
1291.41
1611.14
2212.55
3254
4680.05
6296.65
7976.72
9630.39
11149
12327.3
12951.4
12825.2
12281
11742.8
11390.5
11200.3
10895.8
10831.7
11063.1
11717.3
6739.88
2749.33
2330.07
2013.88
1796.06
1621.04
1482.05
1368.19
1280.71
1217.28
1176.15
1151.45
1139.79
1141.56
1158.96
1191.05
1238.58
1304.84
1391.98
1501.48
1630.07
1775.63
1932.87
2096.53
2265.86
2424.91
2576.55
2732.31
2882.84
3037.5
3190.24
3340.78
3484.13
3613.28
3725.32
3816.81
3883.65
3922.65
3930.59
3901.69
3830.43
3716.07
3561.48
3371.03
3160.65
2936.62
2709.89
2490.14
2282.1
2085.7
1903.03
1737.57
1590.66
1460.2
1341.98
1234.87
1139.97
1053.3
975.166
905.243
842.702
787.263
737.578
694.217
656.478
623.19
593.676
567.959
546.327
528.53
514.212
502.872
493.951
486.873
481.126
476.355
472.079
467.911
463.645
459.275
454.913
450.698
446.895
443.726
441.328
439.707
438.733
438.239
438.174
438.364
438.756
439.419
440.473
441.997
443.974
446.277
448.704
451.072
453.227
455.171
456.943
458.444
460.219
461.723
464.149
466.387
469.158
472.21
475.64
479.443
484.005
489.72
497.589
506.05
511.703
516.371
523.246
533.667
549.323
561.576
568.433
574.825
584.51
596.44
608.354
619.607
14345.5
12890.3
11249
9883.45
8714.06
7734.09
6899.17
6213.38
5644.23
5189.46
4830.44
4555.22
4357.81
4257.21
4249.11
4330.9
4521.19
4813.63
5215.51
5713.56
6298.46
6947.5
7640.82
8342.5
9007.47
9641.99
10273.8
10874.5
11466.1
12042.9
12619.9
13197
13762.3
14302.6
14803.4
15246.4
15610.6
15871.8
16008.5
16002.8
15837.2
15496.7
14976.2
14299.2
13492.5
12569.6
11569.6
10543.7
9520.14
8518.25
7563.23
6676.74
5875.5
5158.51
4524.31
3971.34
3486.72
3061.58
2687.49
2361.43
2080.56
1842.8
1644.21
1478.56
1338.66
1218.43
1115.95
1030.76
961.135
904.585
858.344
819.623
786.081
756.207
729.054
703.909
680.216
657.679
636.201
615.907
597.01
579.608
563.729
549.381
536.568
525.264
515.289
506.441
498.591
491.498
485.117
479.494
474.655
470.576
467.152
464.202
461.536
458.966
456.439
453.956
451.443
449.548
447.723
446.713
445.63
445.293
446.045
448.424
452.723
457.441
462.78
468.865
474.942
481.087
487.636
495.738
506.74
523.229
540.324
552.01
563.029
576.428
593.1
611.159
629.501
37816.8
34991.1
31400.9
28090.1
25035.7
22296.2
19846.5
17693.9
15812.4
14196.3
12855.2
11770.9
10925.9
10311
9924.41
9753.42
9801.35
10079.9
10573.5
11258.4
12107.6
13079.6
14148.2
15271
16403.8
17550.2
18724.6
19899.4
21119.5
22387.6
23693.2
25022
26348.1
27642.4
28875.3
30014.2
31020.4
31851.4
32463.1
32811.8
32862.2
32597.8
32005.2
31098.6
29891.6
28415.4
26720.1
24865.7
22908.6
20877.5
18839.7
16854.7
14968.7
13213.8
11613.2
10177
8895.47
7752.48
6723.1
5794.4
4964.05
4239.92
3618.25
3096.82
2666.7
2319.49
2045.06
1828.46
1654.79
1512.17
1394.54
1296.79
1214.76
1145.4
1084.85
1030.41
981.203
936.174
894.418
855.451
819.251
786.198
756.24
729.128
704.751
683.184
664.533
647.994
632.625
618.208
604.784
592.449
581.282
571.258
562.283
554.186
546.812
539.963
533.534
527.392
521.472
516.432
511.756
508.184
504.936
502.874
502.367
504.047
508.409
513.934
520.386
526.575
532.99
541.025
551.771
563.597
575.15
590.553
610.631
628.63
643.161
658.958
677.314
697.809
719.803
68313.2
64560.3
59274.4
53919.6
48680.9
43710
39092.6
34892.8
31131.8
27831.1
25020.5
22696.3
20813.3
19415.1
18480.3
17982.8
17902.5
18234.7
18945
19998.2
21342.5
22931.8
24721.6
26655
28694.6
30832.3
33071.7
35361.5
37720.8
40148.6
42620
45097.3
47530.8
49867.9
52057.2
54050.5
55794.4
57232.4
58312.1
58992.9
59236.1
59008.2
58315
57171.5
55615.2
53692.2
51473.7
48957.6
46215.3
43298.4
40276.8
37210.3
34149.4
31142
28227.3
25433.1
22773.4
20256.1
17887.2
15677.6
13630.9
11747.8
10008.6
8422.67
7002.85
5772.63
4758.82
3961.57
3356.83
2911.51
2582.91
2333.37
2136.16
1976.2
1844.07
1729.6
1625.49
1531.59
1444.6
1362.59
1285.23
1213.4
1148.16
1090.07
1038.68
993.569
953.915
917.513
883.026
850.208
819.069
789.76
762.539
737.581
714.838
694.208
675.477
658.352
642.765
628.362
615.299
603.864
593.854
585.812
578.712
573.39
570.248
570.179
574.036
579.08
584.415
589.871
596.479
605.546
617.616
630.93
643.913
659.001
678.719
698.867
716.969
734.969
754.404
776.129
799.752
100497
96026
89715.9
82996.6
76187.6
69457.5
62952.2
56818.1
51167.8
46111.1
41767.3
38148.1
35236.8
33058.8
31653.9
30975.6
31022.9
31725.8
33015
34831
37100.2
39739.7
42672.5
45823.2
49142.7
52605.1
56182.9
59822.3
63434.5
67051.4
70632.2
74111.2
77420
80505
83316.6
85799.3
87894.5
89548.1
90716.7
91365.7
91469.7
91043.6
90092
88653.6
86799.9
84578.4
82020
79165
76071.3
72800.8
69408.8
65936.3
62418.8
58888.7
55373.3
51873.9
48389.6
44919.6
41467.9
38049.8
34670.6
31332.4
28036.2
24809.3
21642.4
18541.5
15565.8
12852.9
10537.1
8668.63
7219.3
6113.79
5274.49
4639.09
4155.05
3778.88
3479.96
3230.65
3013.26
2816.73
2634.48
2463.48
2304.03
2160.17
2035.21
1923.92
1817.19
1711.89
1608.44
1507.53
1410.43
1318.28
1231.75
1151.43
1077.88
1011.29
951.331
897.789
850.483
808.726
772.376
741.372
715.005
692.999
674.485
659.779
649.157
643.125
642.896
645.578
647.977
651.339
656.861
665.199
676.756
690.533
705.046
721.387
740.639
761.131
781.869
801.432
820.909
842.109
865.153
129553
125328
118462
111111
103362
95500.2
87733.3
80293.1
73394
67197
61801.8
57308.2
53803.2
51301.7
49852.4
49442.7
50075.9
51586.2
53884.3
56858.9
60386
64318.6
68538.9
72956.1
77508.8
82155.2
86851.8
91543
96141.7
100535
104753
108732
112401
115703
118586
121010
122937
124332
125174
125455
125205
124466
123249
121587
119546
117186
114556
111710
108697
105568
102357
99083.8
95757.5
92342.6
88932.4
85466.3
81922.8
78287.7
74557.9
70745.3
66849.7
62853.4
58751.1
54541.2
50223.7
45797.2
41314.3
36870.5
32555.5
28458.1
24647.8
21180.6
18117.2
15514.9
13340.9
11558.3
10116.7
8954.13
8011.07
7237.88
6595.58
6051.13
5579.11
5157.35
4767.15
4403.41
4069.93
3763.62
3478.17
3209.76
2953.9
2708.96
2476.12
2256.77
2050.87
1859.34
1683.93
1525.25
1383.06
1257.09
1147.52
1054.35
976.626
912.022
859.393
816.521
783.744
760.363
746.516
739.166
732.178
728.87
729.986
735.171
743.675
755.761
771.119
788.38
806.411
824.663
841.239
858.584
877.06
895.901
912.329
152637
148919
142519
135004
126904
118649
110379
102420
94987
88305.5
82567.4
77943.7
74577.5
72563.2
71867.4
72396.1
74108.3
76834.5
80447.5
84727.3
89490
94558.2
99809.3
105157
110544
115926
121258
126484
131535
136319
140701
144640
148166
151228
153788
155816
157301
158246
158683
158641
158127
157159
155754
154001
151975
149738
147339
144826
142242
139616
136965
134288
131564
128767
125880
122872
119714
116378
112835
109042
105108
100964
96595.3
92001
87234.4
82297.1
77204.1
71993
66712.3
61406.7
56121.5
50916.6
45863.3
41020.3
36468.9
32271.2
28480.7
25100.1
22088.3
19436.1
17105.9
15076.2
13331.9
11842.8
10571.9
9479.84
8536.5
7722.29
7008.33
6378.06
5813.86
5301.88
4832.66
4399.72
3998.02
3621.9
3267.62
2934.02
2622.12
2331.94
2066.94
1830.77
1624.36
1446.97
1298.37
1176.63
1078.12
1003.07
949.028
912.073
882.065
857.53
842.368
834.918
834.153
839.52
849.933
863.344
876.482
886.462
895.245
905.615
918.49
931.82
944.115
168838
165586
159572
152834
145350
137204
128975
121048
113742
107286
101942
97918.2
95395.3
94476
95145.4
97244.2
100510
104783
109769
115238
120997
126891
132813
138697
144499
150184
155713
161034
166086
170797
175088
178866
182049
184657
186736
188303
189375
189991
190166
189905
189212
188114
186746
185163
183420
181572
179666
177744
175838
173957
172093
170213
168279
166244
164068
161716
159157
156365
153301
149947
146319
142406
138193
133644
128849
123864
118633
113151
107444
101548
95470.4
89247.6
82943.3
76610.4
70298.4
64033.6
57873
51872
46165.2
40873.8
36075.7
31765.4
27923.8
24526