/*--------------------------------*- C++ -*----------------------------------*\
| =========                 |                                                 |
| \\      /  F ield         | OpenFOAM: The Open Source CFD Toolbox           |
|  \\    /   O peration     | Version:  2112                                  |
|   \\  /    A nd           | Website:  www.openfoam.com                      |
|    \\/     M anipulation  |                                                 |
\*---------------------------------------------------------------------------*/
FoamFile
{
    version     2.0;
    format      ascii;
    arch        "LSB;label=32;scalar=64";
    class       volScalarField;
    location    "0.00309";
    object      alphat;
}
// * * * * * * * * * * * * * * * * * * * * * * * * * * * * * * * * * * * * * //

dimensions      [1 -1 -1 0 0 0 0];

internalField   nonuniform List<scalar> 
13875
(
0.119858
0.0816027
0.0784644
0.078272
0.0782673
0.0783725
0.0783938
0.0783632
0.0783079
0.0782817
0.0782475
0.0783052
0.0784099
0.0784389
0.0783345
0.078256
0.0782722
0.0782879
0.0783343
0.0783836
0.0782992
0.0782555
0.0784826
0.0814323
0.12089
0.103935
0.0576741
0.0570939
0.057146
0.0566638
0.0565735
0.0565672
0.0566448
0.0570508
0.0571427
0.0571027
0.0570962
0.0566976
0.056645
0.0566183
0.0570724
0.0571642
0.0569994
0.0566564
0.056597
0.0566521
0.0571304
0.057071
0.0573558
0.104657
0.110618
0.0553293
0.0558896
0.0547164
0.0544598
0.0543197
0.0542442
0.0542263
0.054221
0.0543123
0.0542838
0.0541415
0.0543363
0.0543489
0.0543002
0.0542715
0.0543023
0.054087
0.0542628
0.0543759
0.0544627
0.0545904
0.0557818
0.0551013
0.111294
0.115887
0.054645
0.0553937
0.0542883
0.0539067
0.0537806
0.0537051
0.053681
0.0535317
0.053521
0.0535099
0.0535056
0.0537995
0.0538071
0.0537578
0.0535843
0.0535033
0.0534799
0.0537211
0.0538401
0.0539254
0.0541826
0.0552002
0.0543115
0.115773
0.121034
0.0546393
0.0551342
0.0537363
0.0535673
0.0533695
0.0532491
0.0532151
0.0530361
0.0530242
0.0530354
0.0530278
0.0533233
0.0533369
0.0532954
0.0531112
0.0530175
0.0529946
0.0532746
0.0534119
0.0535496
0.053602
0.0550217
0.054329
0.121273
0.12442
0.0547471
0.0551997
0.0535775
0.0531765
0.0529683
0.0528566
0.0528
0.0526034
0.0526029
0.0526358
0.0526331
0.0529115
0.0529393
0.0529141
0.0527319
0.0526103
0.0525669
0.0528494
0.0530174
0.0531777
0.0534893
0.0548969
0.0544038
0.124014
0.128775
0.0564856
0.0558025
0.0534489
0.053178
0.0528186
0.0526091
0.0525054
0.0522641
0.0522466
0.0522916
0.0523309
0.0525913
0.052639
0.0525739
0.0523807
0.0522684
0.0522665
0.0526063
0.0528603
0.0531632
0.0533764
0.0556589
0.0563733
0.12897
0.13577
0.0612219
0.0578671
0.054414
0.0533487
0.052803
0.0524955
0.052325
0.0520574
0.0520085
0.0520775
0.0521329
0.052412
0.052475
0.0523696
0.0521701
0.0520201
0.0520865
0.0524778
0.0528407
0.0533422
0.0543117
0.057567
0.061072
0.135706
0.151518
0.0693457
0.0616397
0.0560188
0.0544766
0.05342
0.0528085
0.0524752
0.0521463
0.0520467
0.0520602
0.0521637
0.0524831
0.0525621
0.0523923
0.0521468
0.0520523
0.0522314
0.0527602
0.0534126
0.0544063
0.0558065
0.0611045
0.0684646
0.154506
0.239757
0.0875543
0.0666418
0.059168
0.0557996
0.0543542
0.0535096
0.0530328
0.0526876
0.0525446
0.0525011
0.0526462
0.0530253
0.0531141
0.0528842
0.0525967
0.0525599
0.0528045
0.0534193
0.0543116
0.0558223
0.0589357
0.0662863
0.0870224
0.241915
0.366404
0.119199
0.0767377
0.0631487
0.058948
0.0564321
0.0551784
0.0544973
0.0540979
0.0538908
0.0538076
0.0539511
0.0544022
0.0544974
0.0542368
0.0539453
0.0539725
0.0542507
0.0549688
0.056205
0.0587261
0.0628757
0.0754979
0.113437
0.366356
0.661128
0.195245
0.105765
0.0771393
0.0653036
0.060842
0.0589205
0.0578691
0.0573584
0.0570948
0.0569955
0.0570855
0.0575837
0.0576928
0.0574343
0.0572294
0.0573378
0.0576756
0.058701
0.0603753
0.0653229
0.0762855
0.103982
0.186884
0.647737
0.585408
0.420742
0.192884
0.0989363
0.0842693
0.0729032
0.0681954
0.0662582
0.0654255
0.0650092
0.0648595
0.0648634
0.0653368
0.0654955
0.0653343
0.0653573
0.0656818
0.0663667
0.0683015
0.0729479
0.0842042
0.0967825
0.182829
0.42041
0.58358
0.502041
0.399171
0.370385
0.395981
0.141099
0.100768
0.0948859
0.0902887
0.0896083
0.0888738
0.08871
0.0887125
0.0892107
0.0893734
0.0894281
0.089753
0.0906434
0.091575
0.0963531
0.106876
0.1588
0.391312
0.364579
0.401793
0.508213
0.416239
0.361567
0.356268
0.396404
0.333632
0.224043
0.193918
0.16251
0.141836
0.137325
0.134113
0.133919
0.132985
0.134185
0.134655
0.137753
0.142644
0.164455
0.199577
0.228219
0.333307
0.394485
0.353961
0.374266
0.436224
0.361514
0.331716
0.339584
0.404173
0.499813
0.621275
0.62372
0.536897
0.579481
0.591972
0.60344
0.602927
0.607648
0.605437
0.606713
0.595685
0.573664
0.532622
0.613499
0.632823
0.509876
0.418844
0.342367
0.339644
0.375959
0.287067
0.308363
0.376511
0.471278
0.575238
0.666827
0.549374
0.457543
0.465136
0.459137
0.461499
0.458989
0.459258
0.459604
0.462899
0.459044
0.458663
0.451816
0.524126
0.662861
0.575822
0.474009
0.381795
0.313594
0.302912
0.235288
0.309416
0.39504
0.436893
0.506376
0.532459
0.440515
0.374831
0.379794
0.378478
0.379371
0.376646
0.377883
0.377879
0.381084
0.378155
0.374496
0.372916
0.434936
0.532083
0.496644
0.457077
0.40854
0.292518
0.215439
0.114887
0.247853
0.382949
0.376114
0.381197
0.408834
0.388923
0.350636
0.345328
0.343156
0.341235
0.338104
0.338611
0.338481
0.341802
0.341205
0.338813
0.343758
0.383425
0.411795
0.382289
0.382785
0.379005
0.250776
0.115617
0.052934
0.167928
0.281469
0.293854
0.296179
0.326929
0.347605
0.33511
0.322884
0.314247
0.309217
0.304275
0.303935
0.30495
0.30972
0.312326
0.318197
0.33205
0.347489
0.32847
0.296928
0.296529
0.283568
0.172532
0.051201
0.053499
0.124416
0.187856
0.214484
0.230618
0.269701
0.305792
0.306682
0.294959
0.283997
0.276405
0.27048
0.26936
0.271526
0.277254
0.283039
0.292907
0.307075
0.306816
0.268484
0.229106
0.215278
0.188573
0.113675
0.0472951
0.0907354
0.127257
0.138294
0.16747
0.186965
0.23072
0.267082
0.272138
0.26261
0.252142
0.244277
0.237285
0.23574
0.238219
0.244921
0.251443
0.26154
0.273295
0.2679
0.229376
0.184801
0.166686
0.13578
0.118126
0.0863232
0.151666
0.13764
0.12269
0.137999
0.157673
0.200748
0.233051
0.239186
0.2322
0.222235
0.213739
0.207128
0.205021
0.207454
0.213541
0.220546
0.229895
0.238474
0.232758
0.200349
0.154746
0.136727
0.121395
0.130561
0.152632
0.179533
0.144805
0.120415
0.122243
0.13885
0.173887
0.200801
0.207526
0.201748
0.193267
0.186185
0.179594
0.177951
0.179964
0.18602
0.191739
0.199388
0.206568
0.19926
0.172286
0.138306
0.120954
0.118845
0.139274
0.176023
0.194443
0.151174
0.117657
0.114211
0.126201
0.151956
0.173884
0.180431
0.176007
0.168396
0.16161
0.156324
0.154519
0.156587
0.161547
0.16713
0.174096
0.179618
0.17257
0.149874
0.125101
0.113267
0.11648
0.147193
0.188214
0.208287
0.158866
0.118119
0.109789
0.116426
0.13415
0.151098
0.15646
0.15273
0.146784
0.14126
0.135818
0.134543
0.135928
0.140773
0.145253
0.150297
0.15473
0.149249
0.132136
0.116027
0.108402
0.117056
0.157075
0.205153
0.225244
0.170178
0.119858
0.108703
0.109861
0.120964
0.13308
0.136499
0.133432
0.128185
0.122985
0.118939
0.117399
0.118997
0.122608
0.126994
0.131383
0.13484
0.131572
0.118738
0.1083
0.107302
0.119517
0.174489
0.218573
0.242349
0.191613
0.121474
0.106891
0.104734
0.109911
0.117146
0.118701
0.115944
0.112136
0.108217
0.104146
0.103076
0.104064
0.107815
0.111185
0.114458
0.117658
0.116166
0.108598
0.10383
0.105793
0.121165
0.193368
0.237619
0.269189
0.203232
0.124086
0.105275
0.10122
0.10233
0.105728
0.105515
0.102757
0.0990319
0.0950708
0.09217
0.0908159
0.0919798
0.0945278
0.0977912
0.100668
0.103453
0.104162
0.100761
0.099906
0.104235
0.12221
0.201302
0.26752
0.313686
0.209006
0.124185
0.102363
0.0975118
0.0959506
0.0950721
0.0929304
0.090085
0.087233
0.0844816
0.0814397
0.080538
0.0812539
0.0840852
0.0864946
0.0888205
0.0917086
0.0937827
0.0948422
0.096457
0.101559
0.124623
0.209155
0.302872
0.337612
0.215814
0.128434
0.100689
0.0937011
0.0899411
0.0870235
0.0839363
0.0808437
0.0779488
0.0748695
0.072867
0.0717031
0.0726931
0.074511
0.0771526
0.0796238
0.082866
0.0863448
0.0892518
0.0925654
0.100025
0.12644
0.214676
0.340608
0.346951
0.22035
0.131579
0.0999221
0.0898199
0.0848612
0.080009
0.0757616
0.0723514
0.0695963
0.0674543
0.0650646
0.064315
0.0649519
0.0670562
0.0689545
0.0712232
0.0745469
0.0788366
0.0840465
0.0884935
0.0992084
0.129784
0.218293
0.351092
0.358249
0.221138
0.138259
0.101215
0.0865604
0.0795865
0.0741487
0.0695725
0.0660761
0.0631851
0.0604432
0.0589168
0.0579178
0.0588175
0.060169
0.0626023
0.065149
0.0685136
0.0733747
0.0788878
0.0853804
0.099824
0.135325
0.222677
0.358855
0.365725
0.222747
0.148956
0.101822
0.0837917
0.0750294
0.0686646
0.0634531
0.0598685
0.0570732
0.0551514
0.0532042
0.0525329
0.0531217
0.0549105
0.0566849
0.0592083
0.062651
0.0679987
0.074708
0.0827365
0.100706
0.144652
0.222671
0.366725
0.366977
0.224186
0.155727
0.106346
0.0826468
0.0712634
0.0639709
0.059188
0.0555651
0.0527443
0.0501243
0.0488277
0.0478888
0.0487298
0.0498787
0.0522688
0.0548959
0.0582186
0.0631621
0.0708792
0.0816298
0.104059
0.158085
0.224169
0.367339
0.37107
0.222292
0.15536
0.108713
0.0823654
0.068308
0.0597375
0.0544361
0.0509378
0.0482055
0.0462848
0.0446154
0.0439679
0.044516
0.0461544
0.047984
0.0505166
0.0538699
0.059063
0.0680048
0.0817743
0.108764
0.158943
0.224566
0.361113
0.36949
0.219461
0.154997
0.116203
0.083337
0.0662215
0.0562816
0.0510975
0.047693
0.0451371
0.042606
0.0414607
0.040563
0.0413768
0.0425011
0.0448708
0.047338
0.0504689
0.0555891
0.0661565
0.0825611
0.115944
0.157456
0.220761
0.361052
0.366018
0.21583
0.153871
0.126229
0.0856769
0.0657017
0.0537627
0.0477214
0.0441929
0.0416147
0.0397783
0.0382626
0.037667
0.0382393
0.0396992
0.0414917
0.0438804
0.0473165
0.0529411
0.0652808
0.0849464
0.12699
0.155116
0.214697
0.360405
0.365918
0.210428
0.149518
0.127334
0.0892778
0.0653346
0.0521379
0.04559
0.0418271
0.0393745
0.0369595
0.0359483
0.0351514
0.0359603
0.0369275
0.0391816
0.0416141
0.0451055
0.051566
0.0655024
0.0895914
0.128238
0.150223
0.210877
0.358036
0.36465
0.207835
0.142702
0.126624
0.0959057
0.0664551
0.0516906
0.0436339
0.03927
0.0365341
0.0348291
0.0334859
0.0329588
0.0335137
0.034833
0.0365127
0.0390696
0.043439
0.0510625
0.066182
0.0970839
0.127653
0.141328
0.206279
0.359222
0.359245
0.205492
0.136058
0.125626
0.107321
0.0690867
0.0515652
0.0429997
0.0378584
0.035139
0.0327099
0.0318029
0.031043
0.0317979
0.0326736
0.0349474
0.0376545
0.0426313
0.0508253
0.0688346
0.109107
0.125706
0.133681
0.204962
0.356581
0.358259
0.203559
0.130129
0.121566
0.107049
0.0738562
0.0524532
0.0426265
0.0365184
0.0329678
0.031099
0.0298659
0.029367
0.0298556
0.031137
0.032912
0.0363248
0.0424727
0.0522247
0.0745235
0.108976
0.122021
0.129503
0.204578
0.35232
0.351387
0.2027
0.126043
0.11588
0.106542
0.0822922
0.0540418
0.0428039
0.0363342
0.0324847
0.0295809
0.0286294
0.0278846
0.0286282
0.0295359
0.0322943
0.0360499
0.0425233
0.0544364
0.0833058
0.107682
0.115676
0.124858
0.202329
0.348618
0.345128
0.202979
0.124462
0.11038
0.103895
0.087809
0.0584397
0.0437025
0.0361932
0.030951
0.0285543
0.0271348
0.0266089
0.0271413
0.0285747
0.0309507
0.0359096
0.0433145
0.0596876
0.0881349
0.103715
0.109892
0.122702
0.202392
0.344121
0.339664
0.199319
0.121853
0.106079
0.0998744
0.0879822
0.0647592
0.0457008
0.0363233
0.0315749
0.027899
0.0264544
0.0255706
0.0264414
0.0278594
0.0314784
0.0361884
0.0457645
0.0681937
0.087938
0.0984701
0.105509
0.121829
0.200549
0.334965
0.334454
0.198897
0.122036
0.102267
0.094084
0.0867444
0.0748311
0.0504847
0.0371625
0.0309292
0.0278806
0.0257004
0.0249112
0.0257128
0.0278236
0.030895
0.0371202
0.0502928
0.0730137
0.0863491
0.092885
0.101784
0.121193
0.198471
0.332321
0.325183
0.195582
0.121703
0.100453
0.0906954
0.0846334
0.075141
0.0583651
0.0395822
0.0320101
0.0278283
0.0258979
0.0246012
0.0258891
0.0277297
0.0318021
0.0395593
0.0572935
0.0730749
0.0829778
0.089389
0.0994454
0.120494
0.195601
0.323371
0.318803
0.192822
0.121221
0.0987958
0.0871205
0.0808557
0.0743629
0.0638277
0.0442709
0.0323036
0.0279658
0.0256447
0.0245949
0.0256557
0.0280217
0.0323104
0.0449053
0.0637223
0.0724356
0.0795378
0.0861523
0.0983002
0.120864
0.193663
0.31593
0.29858
0.185672
0.119225
0.0980502
0.0856271
0.0777122
0.0722182
0.0640641
0.0511388
0.0357218
0.0284236
0.0260451
0.0246888
0.0260371
0.028506
0.0357131
0.052374
0.0638554
0.0705521
0.0765911
0.0847994
0.0972412
0.11892
0.185915
0.294589
0.271935
0.176284
0.117002
0.0962781
0.0837566
0.0752043
0.069082
0.0633992
0.0561736
0.0397255
0.030111
0.0261652
0.0250173
0.0261413
0.0302872
0.0396473
0.0557003
0.0630867
0.0677817
0.0743386
0.0831463
0.0956926
0.115953
0.175942
0.27001
0.102358
0.245407
0.302488
0.321983
0.325373
0.328029
0.331055
0.335391
0.341112
0.347584
0.354668
0.362809
0.373073
0.385329
0.39965
0.415845
0.433288
0.451101
0.469354
0.486819
0.498852
0.493307
0.411204
0.327551
0.304437
0.299275
0.297722
0.295936
0.279753
0.130709
0.0853135
0.24265
0.302965
0.32292
0.326001
0.328615
0.331457
0.336092
0.342344
0.349413
0.356695
0.364341
0.374609
0.386858
0.40116
0.417782
0.437234
0.459112
0.482321
0.506544
0.529961
0.549795
0.551942
0.437645
0.326092
0.300089
0.294441
0.28882
0.256655
0.104329
0.0840046
0.246289
0.303093
0.321159
0.323566
0.326183
0.328884
0.333659
0.340067
0.347322
0.354367
0.361198
0.37061
0.384173
0.39906
0.416157
0.436453
0.460657
0.486668
0.512817
0.539476
0.563944
0.584992
0.570133
0.411454
0.317689
0.2966
0.286266
0.245708
0.0935221
0.0842283
0.246371
0.301807
0.318692
0.321531
0.324481
0.32775
0.333009
0.339792
0.347518
0.355167
0.36224
0.36998
0.381697
0.398527
0.416975
0.437751
0.460888
0.488159
0.517518
0.545303
0.572092
0.595746
0.611575
0.574625
0.384333
0.307946
0.285695
0.240967
0.0897487
0.0834192
0.245971
0.301619
0.318175
0.321522
0.325098
0.329141
0.33514
0.342511
0.350762
0.359013
0.366513
0.373733
0.383791
0.400525
0.41975
0.441202
0.464482
0.489639
0.518747
0.550438
0.578003
0.601896
0.624246
0.634693
0.563597
0.358857
0.292928
0.240244
0.0883065
0.0832918
0.247828
0.303451
0.319539
0.323738
0.327946
0.332774
0.339337
0.347253
0.356031
0.364762
0.37263
0.379849
0.389398
0.404279
0.424375
0.44603
0.469113
0.493806
0.520855
0.550604
0.58135
0.608081
0.63171
0.654324
0.655574
0.531049
0.329858
0.244557
0.0877095
0.0841929
0.251532
0.307135
0.323137
0.328705
0.334244
0.340546
0.34811
0.356383
0.365314
0.374336
0.38269
0.389768
0.396994
0.409693
0.428981
0.450746
0.473542
0.497375
0.522256
0.550068
0.581094
0.611962
0.638668
0.663764
0.685248
0.669508
0.466871
0.266471
0.088179
0.0859057
0.256727
0.312256
0.328751
0.336753
0.344755
0.35289
0.361291
0.368976
0.377379
0.385626
0.392994
0.398764
0.405232
0.41565
0.432183
0.454093
0.476155
0.499411
0.523561
0.549958
0.579911
0.612649
0.644066
0.67129
0.697139
0.711452
0.650736
0.351616
0.0922553
0.0878591
0.262588
0.318185
0.335882
0.346206
0.355494
0.364766
0.373992
0.382663
0.38952
0.396296
0.401577
0.406334
0.411762
0.420326
0.433876
0.45463
0.476525
0.499727
0.523954
0.549912
0.578675
0.6113
0.645898
0.677719
0.705019
0.72594
0.724799
0.542737
0.108977
0.0896495
0.268612
0.324573
0.342663
0.353193
0.363181
0.373469
0.383435
0.392717
0.399586
0.404674
0.407971
0.411886
0.415916
0.42038
0.433471
0.451808
0.474288
0.497494
0.522157
0.548462
0.57689
0.608837
0.644435
0.680513
0.711947
0.733981
0.761361
0.699765
0.176381
0.0911871
0.274704
0.330859
0.348593
0.358905
0.368993
0.379779
0.390053
0.399303
0.406465
0.410221
0.412155
0.414745
0.417524
0.420443
0.43052
0.446407
0.469091
0.492483
0.517642
0.54454
0.573518
0.605307
0.64063
0.678689
0.714896
0.741187
0.784381
0.819341
0.354779
0.0924704
0.280973
0.3369
0.353809
0.36316
0.372637
0.382617
0.392593
0.40122
0.408552
0.41075
0.411843
0.413477
0.415814
0.4185
0.425261
0.439178
0.460963
0.484993
0.510513
0.537892
0.567795
0.600042
0.635052
0.673031
0.706308
0.74895
0.830029
0.986031
0.501796
0.0937907
0.287578
0.342445
0.357466
0.36477
0.372128
0.380099
0.389247
0.397004
0.403641
0.404657
0.406293
0.407222
0.409426
0.412471
0.416809
0.429353
0.449838
0.474903
0.500813
0.528781
0.55952
0.592234
0.627325
0.664344
0.697311
0.759012
0.904225
1.22487
0.549426
0.094935
0.294318
0.346844
0.358047
0.361156
0.364997
0.370407
0.378039
0.384302
0.389733
0.391196
0.392621
0.393614
0.3961
0.399914
0.403914
0.415534
0.435061
0.460965
0.487814
0.516737
0.548202
0.581261
0.616639
0.649629
0.694771
0.787423
1.03745
1.62718
0.561369
0.0964494
0.300839
0.348295
0.352806
0.350105
0.349484
0.35199
0.357395
0.362013
0.366672
0.368329
0.36995
0.372063
0.37553
0.380257
0.385444
0.396681
0.415666
0.442265
0.470422
0.500422
0.532346
0.56597
0.601964
0.634416
0.693891
0.837174
1.2817
1.74283
0.548636
0.0979045
0.305597
0.343806
0.339003
0.329527
0.323957
0.323529
0.326016
0.329023
0.333639
0.336144
0.338603
0.342264
0.34742
0.35325
0.360436
0.371959
0.390851
0.418499
0.448217
0.479277
0.511676
0.545891
0.582753
0.623538
0.700745
0.918213
1.72788
1.65635
0.518361
0.100244
0.305204
0.329476
0.314363
0.298128
0.289032
0.285143
0.285716
0.28794
0.292969
0.296511
0.300341
0.305952
0.312525
0.320056
0.329276
0.34073
0.35988
0.388835
0.420276
0.452525
0.486064
0.52135
0.557478
0.610309
0.717476
1.06039
1.91313
1.53379
0.493486
0.102478
0.29694
0.304151
0.279683
0.258348
0.246912
0.240942
0.240533
0.242678
0.248266
0.252532
0.257518
0.264913
0.273822
0.283597
0.293997
0.304751
0.324115
0.353829
0.386781
0.420351
0.455382
0.492292
0.530119
0.595431
0.757623
1.32188
1.88557
1.40996
0.474068
0.105522
0.277711
0.266822
0.237169
0.213945
0.202257
0.195654
0.195323
0.19761
0.203503
0.208049
0.214192
0.22343
0.234562
0.24593
0.257022
0.268184
0.286668
0.315059
0.348825
0.383436
0.419747
0.45867
0.503484
0.583719
0.834204
1.63673
1.80189
1.2846
0.457881
0.108075
0.25188
0.22772
0.194974
0.172276
0.162167
0.156536
0.155231
0.157624
0.163209
0.16903
0.175632
0.184809
0.196257
0.206785
0.216858
0.229063
0.248059
0.274804
0.308608
0.343579
0.380796
0.421418
0.473304
0.580276
0.977066
1.68117
1.6956
1.18041
0.448147
0.11095
0.220232
0.18573
0.153201
0.136946
0.129562
0.125491
0.123921
0.127108
0.132685
0.138159
0.144477
0.152772
0.161291
0.170289
0.181728
0.194706
0.210692
0.236846
0.269453
0.303749
0.34134
0.382773
0.442838
0.59369
1.17693
1.61003
1.57171
1.08189
0.440893
0.116383
0.193097
0.155625
0.123777
0.114577
0.110102
0.10658
0.105364
0.107984
0.113182
0.117793
0.122625
0.1279
0.134541
0.143604
0.1547
0.166952
0.180029
0.203483
0.23408
0.266768
0.303205
0.343736
0.41556
0.631944
1.33652
1.51133
1.44137
1.00488
0.434325
0.116558
0.166793
0.121456
0.104144
0.101939
0.101729
0.0983255
0.0969909
0.0986839
0.10174
0.10522
0.107485
0.111247
0.117005
0.124931
0.13478
0.145484
0.156766
0.176228
0.203061
0.233487
0.267846
0.309923
0.396193
0.729565
1.32054
1.40276
1.32208
0.93854
0.427958
0.142426
0.153582
0.101002
0.0967127
0.0963835
0.0964674
0.093624
0.0937769
0.0946803
0.0943952
0.0961989
0.0987032
0.101883
0.106486
0.112655
0.12074
0.129419
0.139051
0.154691
0.176795
0.203705
0.235675
0.279543
0.387428
0.839519
1.24987
1.29749
1.21388
0.878464
0.421311
0.110086
0.0960077
0.0735
0.0872435
0.0876478
0.090356
0.0911261
0.0927289
0.0938809
0.090521
0.0911727
0.0936397
0.0966051
0.100489
0.104861
0.11127
0.116344
0.123525
0.132976
0.154133
0.177695
0.207072
0.253735
0.393988
0.930746
1.16555
1.20254
1.11798
0.82547
0.414638
0.130709
0.279753
0.295934
0.297714
0.299235
0.304244
0.326701
0.408432
0.491818
0.497943
0.486116
0.468762
0.450576
0.432825
0.415435
0.39928
0.38499
0.372753
0.362489
0.354373
0.34732
0.340878
0.335183
0.330865
0.327845
0.325194
0.321804
0.302341
0.245316
0.102323
0.104328
0.256653
0.288812
0.294403
0.299895
0.325043
0.433537
0.550285
0.5489
0.529206
0.505914
0.481756
0.458608
0.43678
0.41736
0.400761
0.386475
0.374213
0.363838
0.356336
0.349105
0.342075
0.335857
0.331245
0.328412
0.325797
0.32272
0.302783
0.24258
0.0853022
0.0935201
0.245701
0.286237
0.296457
0.316822
0.407392
0.567739
0.583997
0.563128
0.538775
0.512197
0.486102
0.460155
0.435991
0.415717
0.39864
0.383723
0.370092
0.360843
0.353977
0.346989
0.339786
0.333413
0.328661
0.32597
0.323347
0.32094
0.302916
0.246167
0.0839567
0.0897467
0.240948
0.285594
0.307283
0.380987
0.571201
0.610336
0.594885
0.571309
0.544623
0.516897
0.487628
0.460382
0.437263
0.416516
0.398099
0.381197
0.369678
0.361982
0.354913
0.347274
0.339583
0.332824
0.327566
0.324294
0.321342
0.318497
0.301656
0.246303
0.0842214
0.0883018
0.240179
0.292467
0.356277
0.558329
0.633238
0.623415
0.601066
0.577219
0.549808
0.518224
0.489115
0.463982
0.440733
0.419306
0.400125
0.383474
0.373537
0.366332
0.358849
0.350588
0.342343
0.334977
0.328976
0.32493
0.321353
0.317994
0.301473
0.245866
0.0833929
0.0876916
0.244282
0.328029
0.524758
0.653902
0.653563
0.630969
0.607284
0.580732
0.550121
0.520404
0.493367
0.468709
0.445659
0.42402
0.40398
0.389166
0.379659
0.372509
0.364643
0.355885
0.347114
0.339238
0.332708
0.327896
0.323682
0.319467
0.303413
0.247786
0.0832189
0.0881183
0.26534
0.460769
0.667414
0.684603
0.663203
0.63798
0.611396
0.580706
0.549732
0.521921
0.497074
0.473287
0.450527
0.428771
0.409523
0.396951
0.389357
0.382229
0.374241
0.365289
0.356314
0.348077
0.340629
0.334381
0.32886
0.323272
0.307297
0.251653
0.0842542
0.0920237
0.347493
0.647806
0.710812
0.696793
0.670808
0.643609
0.612385
0.579755
0.549818
0.523433
0.499328
0.476117
0.454096
0.43218
0.415573
0.404524
0.398359
0.392562
0.385212
0.377319
0.368967
0.361405
0.353166
0.345281
0.33739
0.329219
0.312661
0.256973
0.0859144
0.108173
0.536882
0.723469
0.725715
0.704781
0.677421
0.645795
0.611335
0.578728
0.549945
0.524012
0.49984
0.476662
0.454822
0.434015
0.419534
0.411418
0.406493
0.401802
0.396284
0.389936
0.38364
0.375321
0.366006
0.356607
0.347338
0.336903
0.318941
0.263136
0.0879883
0.173996
0.697193
0.76114
0.734044
0.711871
0.680592
0.644664
0.609074
0.57709
0.548647
0.522354
0.497727
0.474519
0.452043
0.433633
0.42027
0.416606
0.412732
0.408848
0.405516
0.400879
0.394513
0.385297
0.375157
0.364586
0.354549
0.344015
0.325724
0.269465
0.0898767
0.351151
0.817153
0.784463
0.741447
0.715151
0.679117
0.641084
0.605684
0.573826
0.544829
0.51794
0.492805
0.469401
0.44664
0.430857
0.421621
0.418795
0.41594
0.413541
0.411761
0.408311
0.401535
0.392206
0.381642
0.37062
0.360403
0.35011
0.332339
0.275891
0.0914707
0.500788
0.984321
0.829777
0.749356
0.706919
0.673664
0.635587
0.600461
0.568149
0.538221
0.510821
0.485331
0.461318
0.439468
0.425889
0.420146
0.417239
0.415071
0.413691
0.412956
0.410804
0.403564
0.394874
0.384555
0.374333
0.364757
0.355433
0.338571
0.282478
0.0929302
0.549485
1.22389
0.90394
0.759497
0.698062
0.665051
0.627882
0.592695
0.559926
0.529173
0.501201
0.475336
0.450365
0.429911
0.417857
0.414242
0.410823
0.408582
0.408127
0.407866
0.40646
0.399309
0.391272
0.381919
0.373825
0.366411
0.359179
0.344133
0.289263
0.0943149
0.561848
1.6291
1.03723
0.788056
0.695627
0.650583
0.617232
0.581801
0.548715
0.517254
0.488346
0.46156
0.435831
0.416485
0.405516
0.401643
0.398481
0.396485
0.395641
0.394891
0.393178
0.386737
0.379596
0.371794
0.366459
0.362714
0.35971
0.348539
0.29612
0.0955172
0.54962
1.74837
1.28305
0.838177
0.694825
0.635172
0.602647
0.566635
0.533005
0.501091
0.471121
0.443028
0.41674
0.398037
0.387429
0.382158
0.377972
0.375122
0.372996
0.371575
0.369264
0.363933
0.358528
0.352712
0.350527
0.351393
0.354288
0.349974
0.302569
0.0969602
0.519528
1.66248
1.73383
0.919959
0.701695
0.624367
0.583549
0.546654
0.512425
0.480044
0.449032
0.419373
0.392203
0.373626
0.362321
0.355188
0.349662
0.345173
0.341334
0.33886
0.335432
0.330372
0.32687
0.324209
0.324902
0.330523
0.34034
0.345438
0.307082
0.0983663
0.494655
1.53958
1.91809
1.06328
0.718594
0.611245
0.558506
0.522142
0.486831
0.453332
0.421197
0.389867
0.36147
0.342696
0.331842
0.322942
0.315194
0.308402
0.302551
0.2986
0.294048
0.288692
0.286182
0.285568
0.289734
0.298964
0.315464
0.331272
0.306595
0.100637
0.47583
1.41526
1.88975
1.32832
0.759239
0.596348
0.530726
0.493018
0.456077
0.421129
0.387809
0.355027
0.325861
0.306966
0.296665
0.286555
0.27638
0.267337
0.259456
0.254026
0.248603
0.242877
0.240558
0.240881
0.247033
0.258552
0.280207
0.305617
0.298193
0.102906
0.458717
1.28761
1.80586
1.64288
0.836797
0.58454
0.504102
0.459261
0.420382
0.384273
0.349974
0.316558
0.288337
0.270232
0.259411
0.248466
0.236649
0.225593
0.215616
0.208928
0.203315
0.197196
0.194873
0.195213
0.201864
0.213516
0.237172
0.2675
0.278642
0.106
0.448644
1.18284
1.69878
1.68535
0.981521
0.581381
0.473972
0.42198
0.38154
0.344602
0.31002
0.276668
0.249552
0.23142
0.218524
0.208501
0.197627
0.186278
0.176376
0.169585
0.163293
0.157122
0.154629
0.15597
0.161522
0.171536
0.194709
0.22769
0.252353
0.108703
0.440925
1.08422
1.57391
1.61335
1.18493
0.595375
0.443513
0.383156
0.342303
0.305061
0.271074
0.23889
0.213486
0.197439
0.183937
0.172242
0.162424
0.153467
0.144699
0.138323
0.132169
0.126833
0.123649
0.124899
0.128894
0.136016
0.151931
0.185105
0.220306
0.11159
0.434088
1.00424
1.44242
1.51401
1.34186
0.635248
0.416371
0.344589
0.304291
0.268197
0.235852
0.205574
0.182808
0.169466
0.156857
0.14538
0.135875
0.128823
0.122825
0.117962
0.11254
0.107575
0.105095
0.106134
0.109826
0.114603
0.122962
0.154421
0.193191
0.117166
0.427656
0.937661
1.32192
1.40406
1.3232
0.735552
0.397535
0.311228
0.269023
0.234924
0.20487
0.178102
0.159058
0.147646
0.13666
0.126306
0.118044
0.11212
0.107804
0.105576
0.101449
0.0978908
0.096314
0.0973269
0.101062
0.101141
0.10349
0.120259
0.166375
0.117268
0.421082
0.877631
1.213
1.2977
1.25172
0.847476
0.389673
0.280952
0.236962
0.205173
0.17855
0.156238
0.140829
0.131227
0.122349
0.113783
0.107157
0.102243
0.0988126
0.0967471
0.0950774
0.0947724
0.0935926
0.093177
0.095768
0.0950121
0.0956682
0.100117
0.152662
0.143294
0.414215
0.824335
1.11653
1.20239
1.16731
0.937918
0.397765
0.255389
0.208337
0.179264
0.155858
0.13549
0.125479
0.117818
0.112278
0.105431
0.100768
0.0966224
0.0935476
0.0911963
0.0902588
0.0937756
0.0916601
0.0903468
0.0905635
0.0871355
0.0868405
0.0732323
0.0953674
0.110268
0.0609817
0.0611291
0.0612778
0.0614267
0.0615756
0.0617245
0.0618736
0.0620228
0.0621721
0.0623214
0.0624709
0.0626204
0.0627701
0.0629198
0.0630697
0.0632196
0.0633697
0.0635198
0.06367
0.0638203
0.0639707
0.0641212
0.0642718
0.0644225
0.0645733
0.0647242
0.0648751
0.0650262
0.0651773
0.0653286
0.0654799
0.0656313
0.0657828
0.0659345
0.0660862
0.066238
0.0663898
0.0665418
0.0666939
0.066846
0.0669983
0.0671506
0.0673031
0.0674577
0.0676824
0.0714605
0.199646
0.693278
1.6419
2.404
2.74973
2.82807
2.79154
2.63359
2.42891
2.23322
2.09874
2.0495
2.02436
2.00428
1.9831
1.95619
1.92857
1.89298
1.84313
1.77801
1.69985
1.61182
1.51311
1.40485
1.29595
1.19348
1.10057
1.01806
0.945398
0.882126
0.827253
0.779432
0.737351
0.699126
0.66363
0.630491
0.599943
0.5722
0.546906
0.523395
0.501616
0.481913
0.464146
0.447935
0.432413
0.418218
0.405533
0.394299
0.384554
0.376213
0.368969
0.362496
0.356594
0.351343
0.346945
0.343412
0.340607
0.338391
0.336693
0.33548
0.334831
0.334729
0.335153
0.336261
0.338019
0.340345
0.343194
0.346451
0.350062
0.353952
0.358059
0.362478
0.367278
0.372718
0.379122
0.385934
0.39308
0.400505
0.407617
0.208256
0.208507
0.208728
0.208942
0.209154
0.209365
0.209575
0.209785
0.209995
0.210204
0.210413
0.210621
0.210828
0.211036
0.211243
0.211449
0.211655
0.21186
0.212065
0.21227
0.212474
0.212678
0.212881
0.213083
0.213286
0.213488
0.213689
0.21389
0.21409
0.21429
0.21449
0.214689
0.214888
0.215086
0.215284
0.215481
0.215678
0.215875
0.216071
0.216266
0.216462
0.216657
0.216856
0.217181
0.217308
0.12948
0.21062
0.653692
1.12104
1.45794
1.77728
2.38015
2.81786
2.99499
3.04441
3.04259
2.97518
2.85889
2.71051
2.5574
2.42043
2.30093
2.20357
2.12293
2.0499
1.9785
1.9054
1.82439
1.74389
1.67463
1.60451
1.52957
1.45072
1.36968
1.28838
1.20983
1.13603
1.06784
1.00519
0.948353
0.897076
0.850649
0.809171
0.771684
0.7369
0.704882
0.675703
0.649807
0.626633
0.605267
0.585599
0.566791
0.549908
0.535293
0.522678
0.511804
0.502325
0.494048
0.486777
0.480452
0.475102
0.470684
0.467128
0.4643
0.462172
0.460787
0.460247
0.460781
0.462546
0.46564
0.470158
0.476323
0.484385
0.494469
0.506682
0.521219
0.537944
0.55758
0.579326
0.603012
0.630423
0.661657
0.697714
0.735969
0.778495
0.266602
0.266743
0.266867
0.266986
0.267103
0.267219
0.267334
0.267449
0.267563
0.267676
0.267789
0.267902
0.268013
0.268124
0.268235
0.268345
0.268454
0.268563
0.268672
0.268779
0.268886
0.268993
0.269099
0.269204
0.269309
0.269414
0.269518
0.269621
0.269723
0.269826
0.269927
0.270028
0.270129
0.270229
0.270328
0.270427
0.270526
0.270624
0.270721
0.270818
0.270914
0.271015
0.271256
0.269888
0.145176
0.272005
0.62178
0.818385
0.901333
0.989505
1.10308
1.27106
1.5033
1.83734
2.39239
3.22837
3.6842
3.88513
3.97734
3.94719
3.79132
3.52014
3.20579
2.91194
2.66325
2.46596
2.30647
2.18105
2.07671
1.9692
1.86108
1.75655
1.65515
1.55638
1.46337
1.37796
1.29948
1.22707
1.15673
1.09215
1.03429
0.981741
0.933909
0.890176
0.849838
0.812552
0.778441
0.747522
0.719574
0.694122
0.671152
0.649996
0.630277
0.612462
0.59729
0.584056
0.572402
0.562127
0.552868
0.544901
0.538348
0.532947
0.528637
0.525402
0.523218
0.522046
0.522025
0.52335
0.526033
0.530794
0.537556
0.546636
0.558173
0.57291
0.590391
0.61136
0.635535
0.663783
0.69653
0.735094
0.779534
0.831615
0.89291
0.956979
1.03153
0.284051
0.2841
0.284143
0.284183
0.284222
0.284261
0.284299
0.284338
0.284375
0.284413
0.28445
0.284487
0.284524
0.28456
0.284596
0.284631
0.284666
0.284701
0.284736
0.28477
0.284805
0.284838
0.284872
0.284905
0.284938
0.28497
0.285003
0.285035
0.285067
0.285098
0.285129
0.28516
0.285191
0.285221
0.285251
0.285281
0.285311
0.28534
0.285369
0.285398
0.285431
0.285579
0.28402
0.148777
0.298979
0.645194
0.765845
0.797067
0.821094
0.852272
0.886322
0.933304
1.00398
1.09291
1.22576
1.41343
1.6398
1.92939
2.35317
3.02332
3.35414
3.46846
3.46601
3.36178
3.14749
2.85371
2.51607
2.26862
2.10515
1.95481
1.82417
1.71094
1.61153
1.51878
1.43343
1.35679
1.2844
1.21758
1.15829
1.10317
1.05189