/*--------------------------------*- C++ -*----------------------------------*\
| =========                 |                                                 |
| \\      /  F ield         | OpenFOAM: The Open Source CFD Toolbox           |
|  \\    /   O peration     | Version:  2112                                  |
|   \\  /    A nd           | Website:  www.openfoam.com                      |
|    \\/     M anipulation  |                                                 |
\*---------------------------------------------------------------------------*/
FoamFile
{
    version     2.0;
    format      ascii;
    arch        "LSB;label=32;scalar=64";
    class       surfaceScalarField;
    location    "0.00467";
    object      phi;
}
// * * * * * * * * * * * * * * * * * * * * * * * * * * * * * * * * * * * * * //

dimensions      [1 0 -1 0 0 0 0];

oriented        oriented;

internalField   nonuniform List<scalar> 
27436
(
-0.533364
8.19276
-0.0931381
7.47163
-0.083698
7.78648
-0.0694498
7.7865
-0.0695008
7.79287
-0.0540404
7.78155
-0.0391467
7.78203
-0.0272818
7.78514
-0.0206145
7.78935
-0.0142062
7.78902
-0.00705571
7.78884
-0.00139443
7.79104
0.0122373
7.78369
0.0310061
7.77944
0.0468343
7.78179
0.0546243
7.78884
0.0542565
7.79498
0.0645015
7.78746
0.0746171
7.78571
0.0945552
7.77776
0.0963093
7.79118
0.111522
7.78585
0.123976
7.78247
0.573952
7.46277
8.21682
-0.24727
8.44003
-0.0963716
7.32071
-0.0820206
7.77208
-0.0564109
7.76095
-0.0554892
7.79189
-0.0480312
7.77399
-0.0400261
7.77391
-0.0414482
7.78484
-0.023184
7.77017
-0.0110653
7.77742
0.00188142
7.77836
0.0178128
7.77653
0.0165356
7.78518
0.0218592
7.77428
0.0210624
7.78251
0.0381676
7.77176
0.049737
7.78339
0.0723997
7.76475
0.0679374
7.79014
0.0748969
7.77076
0.071863
7.79423
0.102943
7.75473
0.114465
7.77124
0.267685
7.30855
8.47802
-0.227266
8.66728
-0.141282
7.23469
-0.120842
7.75159
-0.107416
7.74748
-0.0981017
7.78254
-0.0939834
7.76968
-0.0912884
7.77108
-0.0839944
7.77661
-0.0712443
7.75592
-0.0529587
7.761
-0.0326762
7.75979
-0.0180364
7.75753
-0.0130696
7.7796
-0.0110959
7.77274
-0.00676313
7.77825
0.0151955
7.74979
0.0283116
7.77022
0.0517652
7.74128
0.0550325
7.78708
0.0538024
7.77199
0.0616266
7.78639
0.0781828
7.73821
0.100452
7.74918
0.192611
7.21446
8.67116
-0.169625
8.83691
-0.139545
7.20462
-0.134158
7.7462
-0.111737
7.72508
-0.104531
7.7753
-0.0996069
7.76457
-0.0952943
7.76663
-0.0814135
7.76197
-0.0651487
7.73987
-0.0456707
7.74356
-0.0257856
7.74046
-0.00923276
7.73839
0.00139122
7.76823
0.00526048
7.76934
0.0149832
7.76861
0.0383539
7.7266
0.0529398
7.7557
0.0753176
7.71899
0.0880046
7.77456
0.0868201
7.77317
0.0913362
7.78185
0.117827
7.71183
0.110931
7.75603
0.161768
7.16366
8.83869
-0.0736355
8.91056
-0.0364495
7.16745
-0.091481
7.8012
-0.0584295
7.69206
-0.0593917
7.7762
-0.0594028
7.76438
-0.0587054
7.76572
-0.0460021
7.74994
-0.0327204
7.72624
-0.0159775
7.72908
0.000386472
7.72468
0.0139971
7.7217
0.0253325
7.75612
0.0277803
7.76741
0.0360974
7.76044
0.0576645
7.70524
0.06775
7.74569
0.0869269
7.69995
0.0997142
7.76206
0.0929161
7.77999
0.0929051
7.78183
0.123177
7.68162
0.0892002
7.79002
0.0965548
7.15716
8.94019
0.11841
8.79217
0.0438952
7.24197
-0.0486122
7.89367
-0.00711755
7.6506
-0.0216611
7.7907
-0.0293438
7.77185
-0.0319829
7.76801
-0.0237249
7.74349
-0.0151802
7.71734
-0.00308545
7.71947
0.00917408
7.71303
0.0169586
7.71088
0.0247153
7.74761
0.0239662
7.76871
0.0289421
7.75567
0.0448888
7.68948
0.0493585
7.7413
0.062667
7.68675
0.0732456
7.75167
0.0628188
7.79045
0.0478105
7.79679
0.0859997
7.64344
-0.0146661
7.89048
-0.0209114
7.16353
8.91995
0.304613
8.48757
0.13635
7.4102
-0.00424784
8.03473
0.0283144
7.61754
-0.0111099
7.83009
-0.0436392
7.80404
-0.0687509
7.79257
-0.0786451
7.75419
-0.0923163
7.73118
-0.0989828
7.72826
-0.105133
7.71996
-0.123526
7.72692
-0.130269
7.75379
-0.1481
7.78721
-0.159529
7.76743
-0.163024
7.69324
-0.182641
7.76105
-0.19117
7.69545
-0.199827
7.76057
-0.234481
7.82517
-0.267659
7.82992
-0.288287
7.66411
-0.354866
7.95675
-0.658452
7.46732
8.26021
0.873419
7.61415
0.522111
7.76146
0.414633
8.14219
0.338781
7.69327
0.277683
7.89125
0.225076
7.85636
0.184769
7.83246
0.161554
7.77678
0.132125
7.76136
0.111357
7.75011
0.0889047
7.74236
0.0599538
7.75455
0.0364611
7.77689
0.00550517
7.81894
-0.0191467
7.79253
-0.0417952
7.71617
-0.0724806
7.79189
-0.0977458
7.72088
-0.121504
7.7844
-0.170769
7.87446
-0.233048
7.89217
-0.283312
7.71438
-0.407566
8.0807
-0.694258
7.75413
7.56225
0.593609
7.02053
0.410081
7.94499
0.240651
8.3115
0.195509
7.73832
0.141448
7.94541
0.0997773
7.89794
0.0771988
7.85549
0.071962
7.7809
0.0684954
7.76574
0.0727256
7.74652
0.0748258
7.74027
0.0722283
7.75737
0.0755967
7.77402
0.0756745
7.81999
0.0779522
7.791
0.0742712
7.72022
0.0712174
7.79526
0.0689337
7.72343
0.062787
7.79083
0.025715
7.9117
-0.031158
7.94906
-0.0498196
7.73301
-0.220465
8.25099
-0.372475
7.90599
7.18685
-3.03918
10.0595
-3.37292
8.27848
-2.75379
7.69194
-2.61132
7.59563
-2.30125
7.63593
-2.00446
7.60246
-1.7061
7.55907
-1.38683
7.46107
-1.08353
7.46312
-0.792015
7.45576
-0.50084
7.44998
-0.207014
7.4652
0.0961068
7.47334
0.405628
7.51207
0.703282
7.49452
0.972432
7.45163
1.28241
7.48581
1.55936
7.4469
1.89616
7.45424
2.20437
7.60361
2.50556
7.64801
2.63489
7.60376
3.21436
7.6713
2.93973
8.17984
10.1269
-4.2321
14.2912
-4.33834
8.38408
-4.12214
7.47397
-3.80776
7.28056
-3.37029
7.20046
-2.90717
7.14293
-2.40922
7.06519
-1.93743
6.989
-1.47879
7.00439
-1.02994
7.00671
-0.578942
6.99913
-0.118483
7.00867
0.34555
7.0138
0.822699
7.03601
1.28095
7.03766
1.70422
7.03003
2.16128
7.02984
2.60427
7.00454
3.05837
7.00054
3.58565
7.07658
4.06722
7.16684
4.38967
7.28142
4.57287
7.48851
4.52249
8.22972
14.6509
-2.70334
16.9936
-4.88843
10.5669
-4.92864
7.50901
-4.2106
6.56348
-3.79079
6.78837
-3.2883
6.64795
-2.74953
6.53063
-2.25616
6.4953
-1.75393
6.5021
-1.25769
6.50999
-0.757943
6.49931
-0.245185
6.50327
0.26782
6.50719
0.787381
6.5185
1.30159
6.52595
1.78213
6.55258
2.2717
6.54229
2.76477
6.51261
3.25371
6.51216
3.76154
6.56934
4.259
6.67038
5.04434
6.49694
4.81276
7.7209
2.7337
10.3093
17.3858
2.36008
14.6324
0.431035
12.4925
-4.87099
12.8066
-3.85085
5.54598
-3.96241
6.91289
-3.44294
6.14093
-2.94311
6.03468
-2.46315
6.01521
-1.93925
5.97877
-1.4044
5.97834
-0.872414
5.97285
-0.320673
5.96218
0.229788
5.96462
0.784338
5.97
1.33495
5.97975
1.88227
6.00776
2.39761
6.02978
2.86799
6.04533
3.33874
6.0433
3.86838
6.04045
3.79323
6.74554
4.90691
5.38451
-0.310329
12.9396
-2.37325
12.3724
15.0129
2.46403
12.1684
3.34833
11.607
3.63572
12.5191
-0.688601
9.87665
-4.1993
10.4507
-3.55775
5.51806
-3.20729
5.68836
-2.756
5.56486
-2.20983
5.43491
-1.64726
5.42287
-1.08003
5.4156
-0.522005
5.41504
0.0318636
5.41939
0.590213
5.4185
1.15253
5.42253
1.7241
5.44107
2.27473
5.48538
2.71411
5.61182
2.96358
5.79401
3.54852
5.46222
-0.279427
10.5793
-4.5702
9.67979
-3.94803
12.3211
-2.94222
11.3681
12.0717
1.73872
10.4303
3.55664
9.79157
5.04705
11.0304
5.48002
9.45164
4.82539
11.1212
0.547545
9.7976
-1.77538
8.01636
-1.94121
5.74352
-1.58122
5.08422
-1.11455
4.96862
-0.601888
4.91077
-0.0845985
4.90808
0.440548
4.9027
0.96576
4.9012
1.49283
4.90395
1.97944
4.96448
2.39407
5.08546
2.25422
5.76662
-0.144895
8.20348
-4.30799
9.61914
-4.68282
10.9617
-4.16095
9.16142
-2.66434
10.8261
-1.23693
9.94254
10.8369
0.778592
9.65464
1.75757
8.81793
3.13128
9.66589
3.59611
8.9981
3.13971
11.5915
1.92835
11.0169
0.617656
9.36217
0.105798
6.31923
0.148067
5.12579
0.198895
5.0202
0.241021
4.95657
0.232338
5.00112
0.222224
4.99473
0.214353
4.98555
0.218167
4.97069
0.214945
5.03901
0.178379
5.18344
-0.208614
6.21958
-1.43569
9.46381
-2.49974
10.6976
-2.7818
11.2743
-2.42172
8.81724
-1.38041
9.79552
-0.40775
8.9752
10.4324
1.77181
7.8894
2.38678
8.21322
2.92667
9.14403
2.60351
9.33413
3.04339
11.1636
3.44087
10.6367
2.25834
10.5543
1.19959
7.37698
0.722529
5.59123
0.45683
5.23985
0.227247
5.13137
0.0277885
5.14558
-0.156633
5.12546
-0.338804
5.11852
-0.559353
5.1474
-0.849797
5.29328
-1.46456
5.78309
-2.82
7.57153
-3.81097
10.4595
-3.23004
10.1266
-2.96088
11.0273
-3.37222
9.24543
-2.92711
9.36793
-2.36074
8.41808
8.07977
2.17426
5.72979
2.83213
7.57615
2.28358
9.72155
1.61115
10.0211
1.92463
10.8639
2.11473
10.4423
2.94038
9.70018
2.63576
7.65852
1.80062
6.37747
1.08412
5.92337
0.472493
5.71137
-0.0630601
5.6422
-0.56381
5.59012
-1.10663
5.63063
-1.73673
5.75765
-2.5378
6.07706
-3.42554
6.64398
-3.84917
7.96548
-3.00946
9.59032
-3.17418
10.2881
-2.78731
10.6551
-3.58819
10.0682
-3.87705
9.69198
-2.73348
7.29522
5.35635
3.24178
2.50157
5.69812
5.13599
6.62128
8.81705
6.4849
10.1648
6.29556
11.0489
5.73945
10.9803
4.95083
10.4493
3.60297
8.96689
2.5477
7.39669
1.8686
6.56892
1.22078
6.34165
0.548444
6.29845
-0.161021
6.28572
-0.834569
6.29521
-1.47312
6.38863
-2.07041
6.65832
-2.93676
7.48444
-3.92079
8.90926
-4.65905
10.2928
-5.25622
10.8681
-5.48228
10.881
-5.67933
10.2729
-5.13533
9.16461
-2.89427
5.06726
2.47246
1.40382
1.10448
3.4801
3.08428
4.85774
7.46847
5.47118
9.5545
5.89897
10.6072
5.81922
11.0392
5.10907
11.1311
3.9585
10.0919
2.77449
8.56823
1.81299
7.51395
1.00282
7.135
0.22692
7.06838
-0.538156
7.04738
-1.31433
7.0665
-2.1215
7.1815
-3.07306
7.59617
-4.23436
8.63529
-5.41166
10.0646
-6.20102
11.0573
-6.34425
10.9906
-6.08028
10.6036
-5.4672
9.66036
-3.56104
7.28496
-1.40255
2.92997
1.07487
0.0206217
1.08931
0.0434343
3.07504
1.26205
6.2668
2.47952
8.33447
3.22613
9.84416
3.50975
10.7358
3.44333
11.1799
2.93233
10.5876
2.17408
9.32113
1.43049
8.25172
0.743861
7.81333
0.0892206
7.72019
-0.574086
7.70947
-1.23772
7.7245
-1.94725
7.87629
-2.7288
8.36717
-3.5206
9.42089
-4.05302
10.5835
-4.12108
11.109
-3.76804
10.6195
-2.91732
9.73702
-1.55016
8.28972
-0.221754
5.97319
-0.089726
2.8083
0.98898
-0.721457
1.81575
-0.980016
3.34681
-0.230286
5.51923
0.623399
7.48077
1.41283
9.03759
1.88504
10.2503
2.08211
10.9752
1.98144
10.681
1.59747
9.70162
1.11043
8.73952
0.640233
8.28294
0.162603
8.19547
-0.308479
8.17705
-0.790996
8.20109
-1.26275
8.33862
-1.73367
8.83094
-2.08706
9.76985
-2.15566
10.6454
-1.91769
10.863
-1.39881
10.0878
-0.562369
8.88484
0.306229
7.41578
1.00061
5.27996
0.668477
3.15197
1.66023
-0.66425
2.48675
-1.42543
4.11588
-1.40834
5.49648
-0.794501
6.85944
-0.0625387
8.29435
0.395887
9.7871
0.791409
10.5792
0.990843
10.4788
0.951358
9.7381
0.759812
8.93394
0.495902
8.54996
0.234092
8.45582
-0.0428012
8.44984
-0.300877
8.45494
-0.55197
8.58654
-0.715648
8.99155
-0.702738
9.75313
-0.462152
10.4029
-0.062484
10.4602
0.468397
9.55416
1.1478
8.19321
1.74012
6.81686
1.6471
5.3663
0.68515
4.1168
2.35264
-0.687212
3.17875
-1.75308
5.17782
-2.03203
5.76795
-1.88673
6.70904
-1.53804
7.93696
-0.936913
9.18797
-0.418517
10.0638
-0.0710444
10.1289
0.0923422
9.57191
0.111768
8.91804
0.0733751
8.59205
-0.0162054
8.54471
-0.113374
8.54425
-0.2067
8.54624
-0.24562
8.62675
-0.226136
8.97268
-0.0699809
9.59419
0.28934
10.0442
0.81863
9.93172
1.3786
8.9946
1.78721
7.77716
1.96265
6.63403
1.64228
5.67949
0.659351
5.09848
3.01656
-0.461822
3.63759
-1.4158
6.12333
-1.90831
6.25395
-1.99392
6.78683
-1.79356
7.73426
-1.33768
8.73653
-0.852682
9.58112
-0.45198
9.72612
-0.187775
9.30609
-0.0625765
8.79552
-0.0379655
8.57039
-0.0348092
8.54154
-0.042572
8.55077
-0.0346285
8.53795
-0.00569659
8.60123
0.124388
8.84538
0.398326
9.31747
0.821207
9.62314
1.32727
9.42929
1.74315
8.58155
1.96491
7.55316
1.87884
6.71219
1.34639
6.20561
0.519113
5.92083
3.53317
-0.519043
4.14236
-1.29935
6.89721
-1.82915
6.7793
-2.10628
7.05646
-1.98959
7.61732
-1.62028
8.37184
-1.1849
9.14787
-0.747521
9.2868
-0.420331
8.97777
-0.225375
8.60324
-0.0814048
8.42907
0.0224411
8.43852
0.127017
8.44609
0.230087
8.43548
0.385681
8.44885
0.610661
8.62418
0.9522
8.97526
1.38289
9.1936
1.79872
9.01549
2.14737
8.23617
2.25072
7.45047
1.9554
7.00077
1.46716
6.68882
0.655955
6.72152
4.17524
-0.703572
4.83186
-1.46975
7.6603
-1.93459
7.2414
-2.29232
7.40746
-2.27625
7.60245
-2.05121
8.15074
-1.65285
8.75073
-1.1983
8.83095
-0.823869
8.60383
-0.553421
8.33495
-0.380191
8.25825
-0.207799
8.26764
-0.0481539
8.28724
0.127629
8.26103
0.31115
8.26885
0.575713
8.36379
0.94055
8.61053
1.37826
8.75705
1.77432
8.62225
1.99949
8.0133
2.03782
7.4132
1.73896
7.29466
1.28634
7.13759
0.489303
7.51149
4.65345
-0.491613
5.31539
-1.21155
8.37644
-1.68613
7.7151
-1.96551
7.68563
-2.04432
7.68294
-1.85604
7.96508
-1.50816
8.40411
-1.10784
8.43026
-0.76004
8.25688
-0.500071
8.07791
-0.258119
8.01964
-0.0544016
8.06623
0.153504
8.08096
0.357572
8.05929
0.606726
8.02306
0.891377
8.08337
1.24858
8.25397
1.64262
8.36465
1.96791
8.29851
2.13288
7.85056
2.06302
7.48373
1.77487
7.57919
1.26475
7.64195
0.544114
8.22425
5.19513
-0.445483
5.75843
-1.1816
9.10486
-1.63956
8.17152
-1.83147
7.87813
-1.94332
7.79679
-1.86472
7.88913
-1.55566
8.09622
-1.16128
8.03642
-0.803641
7.90117
-0.494704
7.77139
-0.251435
7.78015
-0.00376482
7.82173
0.230786
7.8489
0.483343
7.80977
0.723219
7.78711
1.02951
7.78059
1.39632
7.89001
1.79198
7.9699
2.10105
7.99098
2.16261
7.78977
2.03746
7.61016
1.87786
7.73921
1.40185
8.1142
0.58598
9.03841
5.78512
-0.685644
6.4449
-1.31344
9.72705
-1.88458
8.74371
-2.05712
8.05115
-2.16956
7.91173
-2.09507
7.81653
-1.81706
7.81898
-1.46329
7.68355
-1.11893
7.55841
-0.834911
7.49079
-0.547011
7.49679
-0.288082
7.5665
-0.0175705
7.58169
0.244883
7.55112
0.546234
7.49016
0.844488
7.48645
1.17327
7.56184
1.50487
7.64073
1.77098
7.72686
1.86554
7.69491
1.76359
7.71305
1.61173
7.89141
1.10788
8.61348
0.319148
9.825
6.11084
-0.424041
6.8716
-1.13573
10.435
-1.69578
9.30311
-1.79753
8.1524
-1.79845
7.91618
-1.75226
7.77292
-1.54063
7.6084
-1.2279
7.37251
-0.91512
7.24748
-0.603124
7.18205
-0.33879
7.23707
-0.0563276
7.28811
0.212827
7.31631
0.495594
7.27242
0.754764
7.23525
1.06078
7.18373
1.38759
7.23753
1.70787
7.32057
1.90992
7.52608
1.91454
7.69198
1.88801
7.74136
1.79826
7.98034
1.15149
9.25463
0.535538
10.4348
6.64965
-0.169289
7.04391
-0.730194
10.9935
-1.52861
10.0977
-1.62248
8.24775
-1.65424
7.95049
-1.57307
7.69372
-1.36073
7.39653
-1.12414
7.13735
-0.854049
6.97836
-0.607172
6.93842
-0.32342
6.95759
-0.0621345
7.03089
0.212079
7.04618
0.466971
7.02161
0.754467
6.95211
1.01439
6.9269
1.27962
6.97358
1.50688
7.09426
1.72448
7.30745
1.80587
7.60904
1.77542
7.77288
1.78303
7.97305
1.0642
9.97512
0.427676
11.0684
7.07892
-0.437171
7.48524
-0.893868
11.4479
-1.75683
10.9585
-1.77805
8.26903
-1.7566
7.93174
-1.67252
7.61144
-1.50154
7.22618
-1.24882
6.88632
-1.00848
6.73899
-0.728241
6.6611
-0.486296
6.71945
-0.212895
6.76136
0.0495375
6.78768
0.328622
6.74652
0.573144
6.71111
0.842777
6.65982
1.09393
6.722
1.33889
6.85123
1.49404
7.15522
1.55711
7.54735
1.5488
7.7831
1.43751
8.08413
0.603096
10.8095
0.259045
11.4108
7.33997
-0.103396
7.59216
-0.467452
11.8112
-1.1219
11.6105
-1.50446
8.65234
-1.53538
7.96523
-1.41159
7.48873
-1.22261
7.03737
-1.01102
6.67555
-0.777143
6.50546
-0.576334
6.46284
-0.311282
6.45767
-0.0632513
6.51681
0.204057
6.52401
0.448391
6.50565
0.716478
6.44621
0.932124
6.44593
1.15183
6.50371
1.35745
6.64322
1.55226
6.95996
1.66699
7.43213
1.63603
7.81533
1.32603
8.39542
0.613113
11.5258
0.37366
11.6496
7.71571
0.0110287
7.58574
-0.0903127
11.9121
-0.793763
12.3127
-1.41446
9.2733
-1.33591
7.88864
-1.26527
7.41877
-1.11332
6.88507
-0.935441
6.49899
-0.746653
6.31739
-0.500874
6.21905
-0.302168
6.2616
-0.063066
6.28077
0.164292
6.29982
0.405762
6.2673
0.600706
6.2536
0.828542
6.21944
1.03196
6.29925
1.20825
6.47043
1.34673
6.82104
1.42598
7.35163
1.60321
7.63916
0.869612
9.13073
0.241003
12.1519
0.179017
11.7114
7.89674
-0.328859
7.91853
-0.349283
11.9327
-0.736977
12.6986
-1.43895
9.97526
-1.43224
7.88305
-1.34474
7.33158
-1.15714
6.69675
-0.979806
6.32176
-0.794705
6.13276
-0.634439
6.06062
-0.402975
6.03256
-0.192474
6.07287
0.0407549
6.06924
0.253339
6.05722
0.490622
6.01827
0.661021
6.0503
0.832837
6.12736
1.00649
6.29441
1.1918
6.63723
1.24653
7.29678
1.17793
7.70778
0.340209
9.96973
-0.0877461
12.5774
-0.0111834
11.6389
7.8864
-0.15749
8.07909
0.0381317
11.7385
-0.236688
12.9707
-1.05323
10.7912
-1.18124
8.01254
-1.10111
7.25205
-0.983186
6.57832
-0.812999
6.15289
-0.646925
5.96744
-0.434216
5.84901
-0.260009
5.86033
-0.0431155
5.85817
0.159572
5.86874
0.376167
5.84282
0.544012
5.85218
0.746924
5.84806
0.923134
5.95062
1.08263
6.13437
1.18708
6.53218
1.33692
7.14728
1.15775
7.88751
0.353193
10.7721
0.119971
12.805
0.187428
11.5747
8.07585
0.0102538
8.07032
0.158509
11.5905
0.232146
12.8946
-0.502685
11.5243
-1.11702
8.62693
-0.974975
7.11021
-0.869337
6.47133
-0.729616
6.01247
-0.563946
5.80212
-0.428794
5.715
-0.232259
5.66535
-0.0570216
5.68466
0.141025
5.67237
0.312244
5.67326
0.509603
5.6561
0.648322
5.71003
0.79602
5.80257
0.949553
5.98022
1.07599
6.40709
1.26229
6.95843
0.627241
8.52198
-0.0731642
11.4706
-0.0738536
12.8026
0.0288234
11.475
8.11221
-0.211228
8.28066
-0.188836
11.5662
0.0166866
12.6846
-0.421102
11.9602
-1.02625
9.23263
-1.00006
7.08401
-0.918874
6.38986
-0.796889
5.89237
-0.665212
5.67129
-0.474007
5.52466
-0.326891
5.51948
-0.141791
5.50087
0.0242327
5.50757
0.20799
5.49094
0.350329
5.51491
0.536887
5.52335
0.683749
5.65571
0.775735
5.88629
0.805413
6.37748
0.788928
6.97607
0.0201045
9.29064
-0.457691
11.9478
-0.135799
12.4749
-0.067297
11.4068
8.04983
-0.0511316
8.33077
0.0303794
11.4819
0.422629
12.2885
0.139594
12.2407
-0.645145
10.0157
-0.914186
7.3526
-0.711849
6.18749
-0.632464
5.81142
-0.489978
5.52912
-0.371046
5.40669
-0.195432
5.34485
-0.0407465
5.34721
0.135044
5.33272
0.286428
5.3406
0.466145
5.3361
0.585952
5.40408
0.711856
5.52992
0.820765
5.77704
1.04313
6.15601
0.763975
7.25378
-0.05245
10.1057
-0.204816
12.0965
0.156417
12.1149
0.147495
11.4198
8.20095
0.0609191
8.26865
0.118516
11.4215
0.408582
11.9934
0.560562
12.0862
-0.098429
10.6743
-0.62449
7.87909
-0.614562
6.17726
-0.548349
5.74762
-0.465176
5.44687
-0.308887
5.25144
-0.186787
5.22359
-0.0335449
5.19488
0.105926
5.19396
0.261869
5.18556
0.37986
5.21884
0.542485
5.24199
0.636559
5.43689
0.717372
5.69655
0.740541
6.13397
0.244511
7.7511
-0.422942
10.7711
-0.266076
11.9382
0.0176379
11.8288
0.0384564
11.3982
8.24408
-0.103259
8.3714
-0.0814599
11.3973
0.142189
11.7652
0.491841
11.7348
-0.00585165
11.1683
-0.579416
8.45106
-0.68873
6.28674
-0.578522
5.63756
-0.478599
5.34717
-0.391432
5.1653
-0.250345
5.08327
-0.121941
5.06731
0.0231022
5.04966
0.153634
5.05586
0.301007
5.07215
0.383207
5.16023
0.462626
5.35877
0.578409
5.58162
0.367377
6.34492
-0.354091
8.47775
-0.778052
11.1952
-0.371304
11.5285
-0.184636
11.6388
-0.128221
11.3451
8.11699
0.0326615
8.33905
0.0749827
11.3545
0.25216
11.5849
0.64244
11.3433
0.617357
11.1923
-0.0866685
9.1553
-0.476269
6.67658
-0.469341
5.63132
-0.38078
5.25998
-0.257178
5.04319
-0.156779
4.98372
-0.0255367
4.93696
0.0977125
4.92715
0.228285
4.92623
0.325533
4.97555
0.460914
5.02598
0.558343
5.26226
0.546225
5.59456
0.146332
6.74761
-0.544843
9.17809
-0.438199
11.0902
-0.0977818
11.1863
0.0716567
11.4662
0.11987
11.2974
8.23705
0.157892
8.1825
0.278557
11.2331
0.400039
11.4604
0.637926
11.1016
0.89209
10.9351
0.248231
9.79764
-0.204976
7.12923
-0.341961
5.76884
-0.281816
5.20087
-0.22711
4.98979
-0.130585
4.88814
-0.0266036
4.83393
0.0928801
4.80858
0.195486
4.82457
0.29791
4.87393
0.3524
4.97266
0.441387
5.17499
0.309703
5.72483
-0.189183
7.249
-0.826482
9.81277
-0.466001
10.7312
-0.228747
10.9444
-0.114691
11.3504
-0.0356215
11.2203
8.19927
-0.0336167
8.21795
0.0510631
11.1486
0.137288
11.3726
0.385136
10.8535
0.820082
10.4977
0.632434
9.98393
-0.0455882
7.8071
-0.367432
6.09158
-0.341361
5.17613
-0.256115
4.90607
-0.177822
4.81079
-0.0831687
4.7403
0.0137611
4.7126
0.108276
4.73128
0.179453
4.80381
0.248296
4.90535
0.25899
5.16612
-0.101486
6.08731
-0.893885
8.04776
-0.966537
9.88329
-0.5786
10.3429
-0.334254
10.7006
-0.27631
11.2927
-0.119701
11.0627
8.07228
0.0974752
8.12264
0.287171
10.9591
0.346626
11.3136
0.516817
10.681
0.812553
10.1986
0.953409
9.84171
0.327458
8.43196
-0.087013
6.50647
-0.195091
5.28542
-0.164259
4.8765
-0.0924598
4.74037
-0.0175983
4.66673
0.0681916
4.62805
0.144856
4.65592
0.222435
4.72757
0.257164
4.87235
0.120958
5.30459
-0.379886
6.58858
-0.920508
8.586
-0.68707
9.64376
-0.401393
10.0568
-0.22093
10.52
-0.16587
11.2375
-0.0151593
10.9067
8.05725
0.146955
7.97782
0.373688
10.7326
0.444536
11.2409
0.57562
10.5492
0.806457
9.96553
1.22174
9.42418
0.923193
8.73127
0.163069
7.2679
-0.0847114
5.53457
-0.0989578
4.89236
-0.0493783
4.69201
0.00448965
4.61408
0.0564539
4.57732
0.121404
4.59241
0.171591
4.67846
0.156617
4.88811
-0.107832
5.57196
-0.854869
7.34045
-1.06365
8.7901
-0.69132
9.26886
-0.439634
9.80371
-0.303552
10.3822
-0.240249
11.1683
-0.0537135
10.7121
7.99928
0.0296016
7.94997
0.23013
10.5325
0.337999
11.1344
0.409041
10.4793
0.610222
9.76306
0.898452
9.13565
0.950856
8.67656
0.535513
7.68292
0.0228123
6.04899
-0.117616
5.03455
-0.0863024
4.66204
-0.0441098
4.57314
-0.00762135
4.54211
0.0357743
4.55032
0.0482082
4.66767
-0.100637
5.03958
-0.727234
6.2023
-1.14961
7.76035
-0.994757
8.6321
-0.740244
9.00895
-0.567318
9.62554
-0.514726
10.3284
-0.393434
11.0471
-0.152619
10.4662
7.84908
0.0628776
7.88903
0.307714
10.2882
0.459894
10.9812
0.550335
10.3887
0.688429
9.62441
0.881983
8.94136
1.23686
8.32099
0.917104
8.00217
0.258747
6.70863
0.0293755
5.26592
-0.00163615
4.69435
0.0104058
4.56239
0.0168353
4.53696
0.030558
4.53821
-0.0254788
4.72527
-0.286823
5.30238
-0.858275
6.77896
-1.14973
8.05009
-0.797119
8.27565
-0.647484
8.85592
-0.526632
9.50322
-0.435462
10.2365
-0.280656
10.8881
-0.0452278
10.2302
7.81012
0.095399
7.79562
0.422905
9.96055
0.63157
10.77
0.63702
10.383
0.716875
9.54198
0.907702
8.74954
1.10438
8.12236
1.14938
7.95631
0.814356
7.0434
0.182564
5.89934
0.0515791
4.82709
0.0269906
4.58844
0.0138421
4.55133
-0.00801957
4.56165
-0.168744
4.88799
-0.815587
5.95093
-1.13119
7.09509
-1.01994
7.93717
-0.82078
8.07418
-0.643943
8.67634
-0.579613
9.43691
-0.562914
10.2224
-0.36022
10.6877
-0.0516199
9.92451
7.76801
0.00872969
-0.26008
0.00963315
-0.284559
0.00930722
-0.291936
0.00723029
-0.291917
0.00377915
-0.295335
-0.000128105
-0.292762
-0.00250276
-0.296768
-0.00442899
-0.301152
-0.00820257
-0.31744
-0.0157178
-0.360002
-0.0430714
-0.533107
-0.14226
-1.34412
-0.458576
-2.17568
-0.496769
-2.20378
-0.494134
-2.09553
-0.492783
-1.97593
-0.486862
-1.90291
-0.46602
-1.81568
-0.433273
-1.72579
-0.402028
-1.64437
-0.382114
-1.55317
-0.364194
-1.46463
-0.339623
-1.39266
-0.306946
-1.34497
-0.266584
-1.31407
-0.219751
-1.29373
-0.166991
-1.28276
-0.108406
-1.28574
-0.0490496
-1.28148
-1.30646
0.0230644
-0.287461
0.0255482
-0.295426
0.0235245
-0.294095
0.0206367
-0.291462
0.0159688
-0.29268
0.0107363
-0.291415
0.00705437
-0.300315
0.00311862
-0.317364
-0.00393819
-0.371853
-0.0302555
-0.566419
-0.170725
-1.54377
-0.333164
-2.17829
-0.410846
-2.35235
-0.425454
-2.23488
-0.438562
-2.05244
-0.442029
-1.93903
-0.435541
-1.8506
-0.416729
-1.76213
-0.387417
-1.66432
-0.360362
-1.59369
-0.346742
-1.50675
-0.334777
-1.41159
-0.31534
-1.33983
-0.286857
-1.29213
-0.249477
-1.2627
-0.205301
-1.24419
-0.154016
-1.23691
-0.0997329
-1.24028
-0.0436967
-1.23809
-1.25727
0.0100528
-0.303244
0.00959483
-0.292837
0.00818825
-0.29342
0.00426339
-0.288407
0.000430188
-0.293388
-0.00383456
-0.305282
-0.00713546
-0.343371
-0.0145612
-0.42105
-0.0478141
-0.653971
-0.219822
-1.79796
-0.401803
-2.25931
-0.45867
-2.38507
-0.481134
-2.33658
-0.492338
-2.16929
-0.490879
-2.00294
-0.484294
-1.89028
-0.464953
-1.78906
-0.433783
-1.68743
-0.401719
-1.59599
-0.37286
-1.54055
-0.358955
-1.4656
-0.346297
-1.36394
-0.32599
-1.29328
-0.296162
-1.24661
-0.256933
-1.21904
-0.210565
-1.20149
-0.156843
-1.1956
-0.101766
-1.19746
-0.045326
-1.19756
-1.21203
-0.0011593
-0.306593
-0.00275269
-0.289283
-0.00342834
-0.29056
-0.00757892
-0.290182
-0.0107541
-0.318438
-0.0143359
-0.386239
-0.0207032
-0.53082
-0.0621903
-0.806809
-0.243653
-1.95668
-0.400993
-2.32797
-0.493591
-2.40078
-0.520467
-2.38324
-0.540098
-2.25272
-0.536661
-2.0863
-0.524068
-1.937
-0.503668
-1.80456
-0.47351
-1.68985
-0.441075
-1.59866
-0.40659
-1.52348
-0.374047
-1.48176
-0.359658
-1.42894
-0.351737
-1.31902
-0.332552
-1.24937
-0.302005
-1.20446
-0.261768
-1.17832
-0.214529
-1.16147
-0.161263
-1.1545
-0.10452
-1.15567
-0.0499802
-1.15575
-1.16895
-0.000859967
-0.305824
-0.00398855
-0.290397
-0.00625933
-0.298151
-0.0118439
-0.327368
-0.0154279
-0.435447
-0.0222232
-0.674892
-0.0583766
-1.20905
-0.184032
-1.96
-0.332751
-2.3475
-0.434006
-2.40936
-0.486742
-2.37477
-0.528172
-2.30123
-0.54044
-2.1589
-0.531826
-1.99234
-0.509682
-1.80791
-0.482187
-1.66388
-0.45113
-1.57088
-0.420678
-1.50303
-0.389762
-1.43878
-0.35724
-1.40891
-0.343759
-1.38462
-0.340006
-1.28351
-0.323337
-1.21001
-0.296145
-1.1655
-0.258884
-1.13971
-0.213707
-1.12356
-0.162141
-1.11509
-0.105177
-1.11473
-0.0510051
-1.10918
-1.11625
0.00107861
-0.342419
-0.00361363
-0.358185
-0.0101675
-0.385958
-0.0235568
-0.491679
-0.0422507
-0.80859
-0.077642
-1.55716
-0.122925
-1.81474
-0.241781
-2.25085
-0.344036
-2.37638
-0.429753
-2.34548
-0.488974
-2.2878
-0.527354
-2.20515
-0.530379
-2.0452
-0.510082
-1.82069
-0.487259
-1.63768
-0.464281
-1.529
-0.434961
-1.45561
-0.40577
-1.39936
-0.376093
-1.34709
-0.344301
-1.32641
-0.325851
-1.319
-0.330808
-1.23689
-0.314355
-1.16301
-0.288723
-1.12194
-0.253226
-1.09742
-0.210141
-1.08208
-0.161297
-1.07018
-0.108595
-1.0653
-0.0527488
-1.0594
-1.06123
0.0189328
-0.6339
0.0135677
-0.803832
-0.017059
-0.860048
-0.0693199
-1.00461
-0.14438
-1.7146
-0.129752
-1.96488
-0.156057
-2.08886
-0.256357
-2.30281
-0.350061
-2.30351
-0.430443
-2.2378
-0.493157
-2.18611
-0.515403
-2.06918
-0.502053
-1.84866
-0.487361
-1.64029
-0.475962
-1.48716
-0.455031
-1.3911
-0.426684
-1.32893
-0.399427
-1.28498
-0.371519
-1.24528
-0.340263
-1.23472
-0.315145
-1.23527
-0.320382
-1.1812
-0.306196
-1.1046
-0.28262
-1.06645
-0.249033
-1.04383
-0.208419
-1.03064
-0.160229
-1.0189
-0.108005
-1.01237
-0.0543203
-1.00553
-1.00711
0.0912187
-2.51478
0.101481
-3.11719
-0.0199827
-3.21393
-0.190142
-2.30372
-0.171791
-2.15156
-0.150221
-2.17336
-0.178785
-2.19172
-0.263571
-2.29101
-0.363022
-2.19282
-0.43301
-2.12376
-0.487454
-2.03038
-0.487643
-1.84889
-0.476145
-1.65363
-0.475365
-1.47322
-0.470838
-1.33341
-0.450924
-1.24437
-0.42472
-1.19205
-0.399354
-1.15906
-0.373127
-1.13281
-0.342458
-1.13276
-0.311304
-1.14043
-0.316724
-1.11461
-0.304909
-1.04162
-0.281758
-1.00727
-0.247927
-0.987269
-0.207096
-0.975558
-0.159847
-0.96586
-0.107364
-0.959461
-0.0531104
-0.952286
-0.952118
0.201732
-3.39993
0.188556
-3.93032
-0.0135424
-3.85788
-0.136608
-3.31489
-0.136339
-2.48474
-0.143877
-2.32596
-0.179233
-2.25391
-0.282514
-2.22053
-0.354906
-2.08466
-0.424316
-1.9464
-0.461647
-1.80868
-0.455327
-1.63521
-0.451803
-1.4646
-0.460452
-1.29904
-0.465276
-1.17467
-0.448053
-1.09475
-0.424946
-1.04907
-0.402005
-1.02622
-0.377689
-1.0145
-0.348324
-1.02398
-0.311838
-1.03881
-0.314168
-1.03747
-0.304602
-0.974697
-0.281612
-0.945237
-0.247599
-0.928637
-0.206685
-0.918906
-0.160202
-0.911402
-0.107821
-0.906544
-0.0543186
-0.898952
-0.899014
0.199881
-3.66911
0.135681
-3.96563
-0.0146442
-3.71225
-0.0680899
-3.57282
-0.0909048
-2.83392
-0.110871
-2.47594
-0.169852
-2.28333
-0.261518
-2.1288
-0.339621
-1.93513
-0.399113
-1.77175
-0.42503
-1.60502
-0.418522
-1.42139
-0.422598
-1.26872
-0.442024
-1.11984
-0.455806
-1.01523
-0.444662
-0.946842
-0.42526
-0.906676
-0.405214
-0.892419
-0.383049
-0.895037
-0.354487
-0.911945
-0.315218
-0.935292
-0.31222
-0.951906
-0.304409
-0.90472
-0.28105
-0.881396
-0.246856
-0.8691
-0.205957
-0.862294
-0.159758
-0.856752
-0.107644
-0.854677
-0.0541392
-0.847576
-0.847976
0.127662
-3.66543
0.029319
-3.72899
-0.000503788
-3.5019
0.010265
-3.54455
-0.0141471
-3.4599
-0.0717689
-2.65729
-0.140086
-2.2685
-0.226805
-1.98381
-0.308979
-1.77877
-0.359415
-1.58474
-0.377873
-1.39727
-0.376579
-1.20724
-0.390302
-1.07576
-0.421984
-0.943048
-0.444078
-0.862307
-0.441772
-0.803118
-0.425968
-0.7706
-0.408896
-0.763077
-0.388517
-0.778109
-0.360121
-0.801468
-0.321027
-0.832812
-0.311183
-0.861679
-0.304266
-0.832789
-0.280271
-0.817105
-0.245965
-0.810119
-0.205351
-0.807028
-0.159415
-0.804404
-0.107728
-0.8055
-0.054689
-0.799365
-0.801211
0.0484526
-3.50579
-0.0334102
-3.40483
0.0345961
-3.25194
0.100424
-3.26918
0.0876659
-3.25544
0.0076054
-2.89428
-0.0752483
-2.19212
-0.17973
-1.73995
-0.260151
-1.57394
-0.306008
-1.38007
-0.323326
-1.19739
-0.331761
-1.00749
-0.357106
-0.895692
-0.402636
-0.779285
-0.433198
-0.723253
-0.438151
-0.666931
-0.427794
-0.644825
-0.413502
-0.64254
-0.39423
-0.666615
-0.365995
-0.695982
-0.328841
-0.733684
-0.311037
-0.770592
-0.303727
-0.761379
-0.279006
-0.754288
-0.244496
-0.753585
-0.20415
-0.755186
-0.158474
-0.75646
-0.107652
-0.76065
-0.0546825
-0.756336
-0.759591
-0.0405269
-3.23756
-0.0503858
-2.94286
0.0689986
-2.80775
0.149104
-2.77204
0.176651
-2.67448
0.0950614
-2.51622
-0.00901782
-2.02195
-0.115672
-1.54776
-0.19613
-1.33191
-0.245957
-1.16313
-0.267196
-1.01155
-0.286686
-0.835307
-0.326773
-0.71889
-0.387129
-0.679012
-0.42416
-0.599851
-0.434865
-0.544489
-0.431833
-0.531094
-0.419091
-0.534217
-0.400393
-0.563238
-0.372181
-0.596916
-0.338191
-0.640198
-0.311991
-0.682505
-0.303185
-0.692661
-0.277787
-0.694513
-0.242956
-0.700852
-0.202872
-0.707979
-0.157368
-0.713351
-0.107315
-0.720138
-0.0541963
-0.718425
-0.722189
-0.104457
-2.94817
-0.0565614
-2.42387
0.0642074
-2.21328
0.161299
-2.01371
0.234162
-1.98329
0.188198
-1.8745
0.0704411
-1.66198
-0.0490174
-1.29217
-0.131709
-1.0689
-0.187027
-0.941087
-0.211779
-0.831385
-0.246968
-0.693367
-0.301678
-0.611323
-0.371088
-0.596441
-0.414203
-0.48311
-0.433869
-0.439305
-0.43775
-0.429568
-0.425566
-0.439399
-0.40392
-0.470232
-0.372869
-0.507994
-0.347619
-0.554622
-0.314744
-0.600618
-0.302846
-0.627829
-0.277092
-0.638445
-0.241917
-0.652096
-0.202077
-0.66465
-0.156406
-0.673411
-0.106821
-0.682153
-0.0536801
-0.683474
-0.686895
-0.103431
-2.6179
-0.0561032
-1.96843
0.0282363
-1.58662
0.143305