/*--------------------------------*- C++ -*----------------------------------*\
| =========                 |                                                 |
| \\      /  F ield         | OpenFOAM: The Open Source CFD Toolbox           |
|  \\    /   O peration     | Version:  2112                                  |
|   \\  /    A nd           | Website:  www.openfoam.com                      |
|    \\/     M anipulation  |                                                 |
\*---------------------------------------------------------------------------*/
FoamFile
{
    version     2.0;
    format      ascii;
    arch        "LSB;label=32;scalar=64";
    class       volScalarField;
    location    "0.00013";
    object      k;
}
// * * * * * * * * * * * * * * * * * * * * * * * * * * * * * * * * * * * * * //

dimensions      [0 2 -2 0 0 0 0];

internalField   nonuniform List<scalar> 
13875
(
1594.57
9964.93
15903.6
18492.5
19831.1
20660.7
21116.4
21363.9
21484.6
21534.8
21555.5
21563.4
21564.8
21562.8
21553.6
21531.9
21483.2
21362
21117.3
20666
19830.2
18505.5
15932.6
10098.2
1623.76
5903.1
18627.2
28164.4
32953.5
35790.7
37592.9
38630.9
39189.8
39462.8
39579.5
39627.4
39645.2
39649.3
39645.5
39627.1
39579.6
39465.6
39193.3
38638.8
37608.5
35807
33002.2
28261.7
18864.3
5977.46
16198.2
39415.1
54709.2
63567.4
69283.5
72928
75063.5
76211.6
76778.1
77027.4
77131.1
77170
77179.9
77171.7
77133.9
77032.2
76785.7
76218.9
75071.8
72937.4
69288.7
63598.3
54788.8
39473.9
16043.7
33067
72508.7
94953.6
108839
118149
124154
127725
129664
130636
131075
131262
131333
131351
131335
131266
131083
130646
129675
127735
124161
118158
108866
94933.4
72271.1
32484.5
54913.9
116707
149532
169350
182439
190952
196096
198940
200393
201067
201358
201471
201501
201473
201364
201079
200412
198967
196130
190995
182515
169458
149441
116490
54155.3
76530.7
168694
215172
242956
260506
271638
278333
282069
284005
284926
285335
285500
285540
285494
285336
284936
284026
282103
278379
271715
260702
243200
214877
168633
76253
92069.8
203442
262522
298541
319703
332426
339947
344058
346190
347202
347657
347837
347885
347837
347649
347184
346146
343955
339729
332034
318978
297114
260284
200428
91259.1
95892.2
208031
275413
318142
344371
359418
367706
372104
374321
375372
375834
376010
376055
376014
375831
375360
374293
372034
367552
359115
343835
317365
274541
207385
94908.5
89117.2
192319
252720
293132
318701
333485
341607
345857
347964
348941
349353
349501
349533
349496
349345
348935
347967
345873
341634
333483
318675
293184
253202
193448
89150.4
95447
184191
232240
265039
285789
297754
304307
307700
309359
310116
310435
310546
310562
310530
310411
310095
309338
307675
304262
297652
285616
264876
232340
184616
94563
88674.8
171933
210608
236223
252047
261180
266151
268693
269920
270481
270723
270812
270835
270822
270741
270534
270003
268785
266250
261282
252165
236407
211084
172796
89390.8
70573.5
133929
163040
181900
193437
200187
203821
205674
206577
206999
207205
207336
207410
207412
207357
207192
206802
205946
204141
200564
193910
182471
163766
134765
70807.8
36428.9
57428.1
71497.1
80194
85446.3
88502.1
90134.8
90973.4
91394.2
91596.7
91718.4
91819.3
91874.7
91880.1
91846.1
91720.2
91517.2
91154.3
90365.5
88781.9
85795.7
80603.4
71923.9
57789.6
36453.3
4985.54
4807.9
6162.39
6896.4
7387.23
7693.76
7862.34
7953.64
8001.46
8025.23
8042.12
8058.36
8064.95
8062.09
8053.83
8029.68
7997.38
7952.48
7863.23
7698.02
7398.51
6912.54
6172.74
4808.09
4967.15
787.434
965.354
1001.32
1004.85
1005.79
1006.18
1006.57
1006.92
1007.17
1007.32
1007.44
1007.57
1007.62
1007.61
1007.57
1007.43
1007.25
1007.04
1006.75
1006.48
1006.27
1005.45
1001.58
964.443
784.418
744.674
940.941
969.137
970.408
969.098
967.749
967.073
966.817
966.74
966.721
966.717
966.716
966.716
966.717
966.718
966.722
966.743
966.826
967.097
967.807
969.215
970.588
969.234
940.441
741.293
742.303
938.761
966.351
968.739
968.169
967.277
966.81
966.627
966.57
966.555
966.552
966.551
966.551
966.551
966.552
966.555
966.57
966.625
966.804
967.265
968.149
968.709
966.439
939.233
742.641
743.227
937.688
963.002
966.767
966.972
966.764
966.628
966.572
966.555
966.55
966.549
966.549
966.549
966.549
966.549
966.55
966.555
966.572
966.624
966.737
966.876
966.541
962.543
936.945
743.238
734.955
930.402
957.996
963.843
965.295
966.008
966.358
966.493
966.534
966.545
966.548
966.548
966.549
966.548
966.548
966.546
966.535
966.496
966.368
966.035
965.361
964.014
958.368
931.574
737.921
728.131
922.947
953.74
961.113
963.788
965.307
966.102
966.419
966.517
966.542
966.547
966.548
966.548
966.548
966.547
966.542
966.517
966.419
966.104
965.316
963.823
961.194
953.897
922.918
726.427
744.162
925.036
953.183
960.497
963.514
965.26
966.117
966.433
966.522
966.543
966.548
966.548
966.549
966.548
966.548
966.543
966.52
966.422
966.083
965.178
963.367
960.255
952.767
923.823
740.915
760.073
929.601
954.362
961.062
964.009
965.608
966.275
966.484
966.535
966.546
966.548
966.549
966.549
966.549
966.548
966.546
966.534
966.476
966.248
965.53
963.846
960.806
953.986
928.945
759.419
774.388
934.622
956.493
962.338
964.798
965.974
966.401
966.517
966.543
966.548
966.548
966.549
966.549
966.549
966.548
966.548
966.543
966.517
966.401
965.976
964.804
962.356
956.525
934.954
775.808
787.505
939.631
958.594
963.519
965.428
966.228
966.476
966.535
966.546
966.548
966.549
966.549
966.549
966.549
966.549
966.548
966.546
966.535
966.477
966.232
965.439
963.543
958.642
939.697
787.194
795.517
942.789
959.976
964.234
965.773
966.351
966.509
966.542
966.548
966.548
966.549
966.549
966.549
966.549
966.549
966.548
966.547
966.542
966.508
966.348
965.764
964.212
959.938
942.642
795.238
803.431
945.2
960.932
964.688
965.974
966.415
966.524
966.545
966.548
966.549
966.549
966.549
966.549
966.549
966.549
966.549
966.548
966.545
966.525
966.419
965.988
964.722
960.982
945.444
804.122
811.286
947.629
961.8
965.087
966.133
966.461
966.534
966.546
966.548
966.549
966.549
966.549
966.549
966.549
966.549
966.549
966.548
966.546
966.533
966.458
966.123
965.055
961.743
947.374
810.393
817.001
949.314
962.432
965.35
966.232
966.487
966.539
966.547
966.548
966.549
966.549
966.549
966.549
966.549
966.549
966.549
966.548
966.547
966.538
966.485
966.225
965.333
962.398
949.225
817.198
822.81
950.73
962.943
965.548
966.299
966.503
966.542
966.548
966.548
966.549
966.549
966.549
966.549
966.549
966.549
966.549
966.548
966.548
966.542
966.506
966.313
965.597
963.051
951.143
823.742
829.397
952.63
963.559
965.785
966.371
966.518
966.544
966.548
966.549
966.549
966.549
966.549
966.549
966.549
966.549
966.549
966.549
966.548
966.544
966.517
966.365
965.759
963.501
952.339
828.382
833.578
953.824
963.974
965.928
966.413
966.527
966.546
966.548
966.549
966.549
966.549
966.549
966.549
966.549
966.549
966.549
966.549
966.548
966.546
966.526
966.41
965.92
963.953
953.781
833.864
837.408
954.61
964.251
966.016
966.437
966.531
966.546
966.548
966.549
966.549
966.549
966.549
966.549
966.549
966.549
966.549
966.549
966.548
966.546
966.532
966.443
966.039
964.315
954.889
837.923
841.919
955.811
964.595
966.127
966.464
966.536
966.547
966.548
966.549
966.549
966.549
966.549
966.549
966.549
966.549
966.549
966.549
966.548
966.547
966.536
966.462
966.115
964.568
955.633
841.456
844.904
956.55
964.828
966.194
966.481
966.539
966.547
966.548
966.549
966.549
966.549
966.549
966.549
966.549
966.549
966.549
966.549
966.548
966.547
966.539
966.482
966.198
964.839
956.592
845.165
847.566
957.012
964.983
966.235
966.491
966.541
966.548
966.548
966.549
966.549
966.549
966.549
966.549
966.549
966.549
966.549
966.549
966.548
966.548
966.541
966.494
966.249
965.025
957.217
847.878
850.8
957.831
965.193
966.294
966.503
966.543
966.548
966.549
966.549
966.549
966.549
966.549
966.549
966.549
966.549
966.549
966.549
966.548
966.548
966.542
966.502
966.283
965.16
957.64
850.379
853.008
958.331
965.34
966.331
966.512
966.544
966.548
966.549
966.549
966.549
966.549
966.549
966.549
966.549
966.549
966.549
966.549
966.549
966.548
966.544
966.511
966.332
965.342
958.342
853.16
854.979
958.637
965.441
966.354
966.516
966.545
966.548
966.549
966.549
966.549
966.549
966.549
966.549
966.549
966.549
966.549
966.549
966.549
966.548
966.545
966.518
966.362
965.468
958.797
855.187
857.311
959.226
965.584
966.389
966.523
966.545
966.548
966.549
966.549
966.549
966.549
966.549
966.549
966.549
966.549
966.549
966.549
966.549
966.548
966.545
966.522
966.381
965.557
959.061
857.001
858.945
959.579
965.683
966.411
966.527
966.546
966.548
966.549
966.549
966.549
966.549
966.549
966.549
966.549
966.549
966.549
966.549
966.549
966.548
966.546
966.527
966.411
965.683
959.584
859.04
860.382
959.78
965.751
966.425
966.53
966.546
966.548
966.549
966.549
966.549
966.549
966.549
966.549
966.549
966.549
966.549
966.549
966.549
966.548
966.546
966.531
966.43
965.773
959.918
860.534
862.036
960.216
965.853
966.448
966.533
966.547
966.548
966.549
966.549
966.549
966.549
966.549
966.549
966.549
966.549
966.549
966.549
966.549
966.548
966.547
966.533
966.442
965.833
960.085
861.844
863.22
960.469
965.923
966.461
966.536
966.547
966.548
966.549
966.549
966.549
966.549
966.549
966.549
966.549
966.549
966.549
966.549
966.549
966.548
966.547
966.536
966.462
965.923
960.467
863.264
864.243
960.599
965.972
966.47
966.537
966.547
966.548
966.549
966.549
966.549
966.549
966.549
966.549
966.549
966.549
966.549
966.549
966.549
966.548
966.547
966.538
966.474
965.989
960.715
864.343
865.36
960.923
966.046
966.486
966.54
966.548
966.548
966.549
966.549
966.549
966.549
966.549
966.549
966.549
966.549
966.549
966.549
966.549
966.548
966.548
966.539
966.482
966.033
960.828
865.271
866.182
961.105
966.098
966.495
966.541
966.548
966.548
966.549
966.549
966.549
966.549
966.549
966.549
966.549
966.549
966.549
966.549
966.549
966.548
966.548
966.541
966.495
966.096
961.093
866.184
866.874
961.185
966.134
966.501
966.542
966.548
966.549
966.549
966.549
966.549
966.549
966.549
966.549
966.549
966.549
966.549
966.549
966.549
966.549
966.548
966.543
966.504
966.146
961.276
866.917
867.562
961.413
966.188
966.512
966.544
966.548
966.549
966.549
966.549
966.549
966.549
966.549
966.549
966.549
966.549
966.549
966.549
966.549
966.549
966.548
966.544
966.509
966.175
961.343
867.517
868.041
961.448
966.212
966.515
966.545
966.548
966.549
966.549
966.549
966.549
966.549
966.549
966.549
966.549
966.549
966.549
966.549
966.549
966.549
966.548
966.544
966.514
966.204
961.41
868.004
869.533
961.349
966.186
966.503
966.543
966.548
966.549
966.549
966.549
966.549
966.549
966.549
966.549
966.549
966.549
966.549
966.549
966.549
966.549
966.548
966.543
966.503
966.188
961.377
869.535
941.851
969.478
969.514
969.292
969.23
969.188
969.148
969.108
969.07
969.033
968.996
968.96
968.926
968.892
968.858
968.826
968.794
968.763
968.733
968.703
968.674
968.646
968.618
968.591
968.565
968.539
968.513
968.483
968.12
941.75
934.208
967.005
966.883
966.674
966.651
966.646
966.643
966.64
966.638
966.635
966.632
966.63
966.627
966.625
966.623
966.621
966.619
966.617
966.615
966.613
966.611
966.61
966.608
966.607
966.605
966.604
966.602
966.596
966.221
937.745
936.785
966.865
966.75
966.567
966.552
966.551
966.551
966.551
966.551
966.551
966.551
966.551
966.551
966.55
966.55
966.55
966.55
966.55
966.55
966.55
966.55
966.55
966.55
966.55
966.55
966.55
966.55
966.546
966.17
937.103
937.868
966.756
966.709
966.56
966.549
966.549
966.549
966.549
966.549
966.549
966.549
966.549
966.549
966.549
966.549
966.549
966.549
966.549
966.549
966.549
966.549
966.549
966.549
966.549
966.549
966.549
966.549
966.545
966.161
936.615
937.184
966.683
966.698
966.559
966.549
966.549
966.549
966.549
966.549
966.549
966.549
966.549
966.549
966.549
966.549
966.549
966.549
966.549
966.549
966.549
966.549
966.549
966.549
966.549
966.549
966.549
966.549
966.545
966.151
936.168
936.707
966.652
966.689
966.559
966.549
966.549
966.549
966.549
966.549
966.549
966.549
966.549
966.549
966.549
966.549
966.549
966.549
966.549
966.549
966.549
966.549
966.549
966.549
966.549
966.549
966.549
966.549
966.545
966.141
935.735
936.378
966.608
966.679
966.558
966.549
966.549
966.549
966.549
966.549
966.549
966.549
966.549
966.549
966.549
966.549
966.549
966.549
966.549
966.549
966.549
966.549
966.549
966.549
966.549
966.549
966.549
966.549
966.545
966.131
935.32
936.155
966.56
966.667
966.557
966.549
966.549
966.549
966.549
966.549
966.549
966.549
966.549
966.549
966.549
966.549
966.549
966.549
966.549
966.549
966.549
966.549
966.549
966.549
966.549
966.549
966.549
966.549
966.545
966.122
934.931
935.915
966.512
966.654
966.555
966.549
966.549
966.549
966.549
966.549
966.549
966.549
966.549
966.549
966.549
966.549
966.549
966.549
966.549
966.549
966.549
966.549
966.549
966.549
966.549
966.549
966.549
966.549
966.544
966.114
934.574
935.637
966.469
966.643
966.555
966.549
966.549
966.549
966.549
966.549
966.549
966.549
966.549
966.549
966.549
966.549
966.549
966.549
966.549
966.549
966.549
966.549
966.549
966.549
966.549
966.549
966.549
966.549
966.544
966.106
934.247
935.333
966.43
966.634
966.554
966.549
966.549
966.549
966.549
966.549
966.549
966.549
966.549
966.549
966.549
966.549
966.549
966.549
966.549
966.549
966.549
966.549
966.549
966.549
966.549
966.549
966.549
966.549
966.544
966.099
933.948
935.023
966.395
966.626
966.553
966.549
966.549
966.549
966.549
966.549
966.549
966.549
966.549
966.549
966.549
966.549
966.549
966.549
966.549
966.549
966.549
966.549
966.549
966.549
966.549
966.549
966.549
966.549
966.544
966.093
933.673
934.729
966.362
966.618
966.553
966.549
966.549
966.549
966.549
966.549
966.549
966.549
966.549
966.549
966.549
966.549
966.549
966.549
966.549
966.549
966.549
966.549
966.549
966.549
966.549
966.549
966.549
966.549
966.544
966.087
933.421
934.429
966.331
966.611
966.552
966.549
966.549
966.549
966.549
966.549
966.549
966.549
966.549
966.549
966.549
966.549
966.549
966.549
966.549
966.549
966.549
966.549
966.549
966.549
966.549
966.549
966.549
966.549
966.544
966.081
933.189
934.173
966.303
966.604
966.552
966.549
966.549
966.549
966.549
966.549
966.549
966.549
966.549
966.549
966.549
966.549
966.549
966.549
966.549
966.549
966.549
966.549
966.549
966.549
966.549
966.549
966.549
966.549
966.544
966.076
932.978
933.899
966.273
966.598
966.551
966.549
966.549
966.549
966.549
966.549
966.549
966.549
966.549
966.549
966.549
966.549
966.549
966.549
966.549
966.549
966.549
966.549
966.549
966.549
966.549
966.549
966.549
966.549
966.544
966.072
932.789
933.649
966.247
966.592
966.551
966.549
966.549
966.549
966.549
966.549
966.549
966.549
966.549
966.549
966.549
966.549
966.549
966.549
966.549
966.549
966.549
966.549
966.549
966.549
966.549
966.549
966.549
966.549
966.544
966.068
932.618
933.421
966.222
966.586
966.551
966.549
966.549
966.549
966.549
966.549
966.549
966.549
966.549
966.549
966.549
966.549
966.549
966.549
966.549
966.549
966.549
966.549
966.549
966.549
966.549
966.549
966.549
966.549
966.544
966.064
932.467
933.192
966.197
966.58
966.55
966.549
966.549
966.549
966.549
966.549
966.549
966.549
966.549
966.549
966.549
966.549
966.549
966.549
966.549
966.549
966.549
966.549
966.549
966.549
966.549
966.549
966.549
966.549
966.544
966.061
932.335
932.989
966.175
966.575
966.55
966.549
966.549
966.549
966.549
966.549
966.549
966.549
966.549
966.549
966.549
966.549
966.549
966.549
966.549
966.549
966.549
966.549
966.549
966.549
966.549
966.549
966.549
966.549
966.544
966.058
932.22
932.801
966.154
966.57
966.55
966.549
966.549
966.549
966.549
966.549
966.549
966.549
966.549
966.549
966.549
966.549
966.549
966.549
966.549
966.549
966.549
966.549
966.549
966.549
966.549
966.549
966.549
966.549
966.544
966.056
932.123
932.621
966.134
966.565
966.55
966.549
966.549
966.549
966.549
966.549
966.549
966.549
966.549
966.549
966.549
966.549
966.549
966.549
966.549
966.549
966.549
966.549
966.549
966.549
966.549
966.549
966.549
966.549
966.544
966.054
932.041
932.466
966.114
966.56
966.549
966.549
966.549
966.549
966.549
966.549
966.549
966.549
966.549
966.549
966.549
966.549
966.549
966.549
966.549
966.549
966.549
966.549
966.549
966.549
966.549
966.549
966.549
966.549
966.544
966.053
931.976
932.289
966.074
966.554
966.549
966.549
966.549
966.549
966.549
966.549
966.549
966.549
966.549
966.549
966.549
966.549
966.549
966.549
966.549
966.549
966.549
966.549
966.549
966.549
966.549
966.549
966.549
966.549
966.544
966.052
931.925
932.417
965.997
966.541
966.548
966.549
966.549
966.549
966.549
966.549
966.549
966.549
966.549
966.549
966.549
966.549
966.549
966.549
966.549
966.549
966.549
966.549
966.549
966.549
966.549
966.549
966.549
966.549
966.544
966.051
931.888
941.75
968.12
968.483
968.513
968.539
968.565
968.591
968.618
968.646
968.675
968.704
968.733
968.764
968.795
968.826
968.859
968.892
968.926
968.961
968.997
969.033
969.071
969.109
969.149
969.189
969.232
969.294
969.516
969.48
941.843
937.745
966.221
966.596
966.602
966.604
966.605
966.607
966.608
966.61
966.611
966.613
966.615
966.617
966.619
966.621
966.623
966.625
966.627
966.63
966.632
966.635
966.638
966.64
966.643
966.646
966.651
966.674
966.883
967.005
934.216
937.102
966.17
966.546
966.55
966.55
966.55
966.55
966.55
966.55
966.55
966.55
966.55
966.55
966.55
966.55
966.55
966.55
966.551
966.551
966.551
966.551
966.551
966.551
966.551
966.551
966.552
966.567
966.75
966.865
936.769
936.615
966.161
966.545
966.549
966.549
966.549
966.549
966.549
966.549
966.549
966.549
966.549
966.549
966.549
966.549
966.549
966.549
966.549
966.549
966.549
966.549
966.549
966.549
966.549
966.549
966.549
966.56
966.709
966.756
937.885
936.168
966.151
966.545
966.549
966.549
966.549
966.549
966.549
966.549
966.549
966.549
966.549
966.549
966.549
966.549
966.549
966.549
966.549
966.549
966.549
966.549
966.549
966.549
966.549
966.549
966.549
966.559
966.698
966.683
937.191
935.735
966.141
966.545
966.549
966.549
966.549
966.549
966.549
966.549
966.549
966.549
966.549
966.549
966.549
966.549
966.549
966.549
966.549
966.549
966.549
966.549
966.549
966.549
966.549
966.549
966.549
966.559
966.689
966.651
936.679
935.321
966.131
966.545
966.549
966.549
966.549
966.549
966.549
966.549
966.549
966.549
966.549
966.549
966.549
966.549
966.549
966.549
966.549
966.549
966.549
966.549
966.549
966.549
966.549
966.549
966.549
966.558
966.679
966.609
936.412
934.932
966.122
966.545
966.549
966.549
966.549
966.549
966.549
966.549
966.549
966.549
966.549
966.549
966.549
966.549
966.549
966.549
966.549
966.549
966.549
966.549
966.549
966.549
966.549
966.549
966.549
966.557
966.667
966.559
936.135
934.574
966.114
966.544
966.549
966.549
966.549
966.549
966.549
966.549
966.549
966.549
966.549
966.549
966.549
966.549
966.549
966.549
966.549
966.549
966.549
966.549
966.549
966.549
966.549
966.549
966.549
966.555
966.655
966.513
935.918
934.247
966.106
966.544
966.549
966.549
966.549
966.549
966.549
966.549
966.549
966.549
966.549
966.549
966.549
966.549
966.549
966.549
966.549
966.549
966.549
966.549
966.549
966.549
966.549
966.549
966.549
966.555
966.643
966.469
935.647
933.948
966.099
966.544
966.549
966.549
966.549
966.549
966.549
966.549
966.549
966.549
966.549
966.549
966.549
966.549
966.549
966.549
966.549
966.549
966.549
966.549
966.549
966.549
966.549
966.549
966.549
966.554
966.634
966.429
935.315
933.673
966.093
966.544
966.549
966.549
966.549
966.549
966.549
966.549
966.549
966.549
966.549
966.549
966.549
966.549
966.549
966.549
966.549
966.549
966.549
966.549
966.549
966.549
966.549
966.549
966.549
966.553
966.626
966.395
935.037
933.421
966.087
966.544
966.549
966.549
966.549
966.549
966.549
966.549
966.549
966.549
966.549
966.549
966.549
966.549
966.549
966.549
966.549
966.549
966.549
966.549
966.549
966.549
966.549
966.549
966.549
966.553
966.618
966.361
934.725
933.189
966.081
966.544
966.549
966.549
966.549
966.549
966.549
966.549
966.549
966.549
966.549
966.549
966.549
966.549
966.549
966.549
966.549
966.549
966.549
966.549
966.549
966.549
966.549
966.549
966.549
966.552
966.611
966.331
934.428
932.978
966.076
966.544
966.549
966.549
966.549
966.549
966.549
966.549
966.549
966.549
966.549
966.549
966.549
966.549
966.549
966.549
966.549
966.549
966.549
966.549
966.549
966.549
966.549
966.549
966.549
966.552
966.604
966.303
934.172
932.789
966.072
966.544
966.549
966.549
966.549
966.549
966.549
966.549
966.549
966.549
966.549
966.549
966.549
966.549
966.549
966.549
966.549
966.549
966.549
966.549
966.549
966.549
966.549
966.549
966.549
966.551
966.598
966.273
933.903
932.618
966.068
966.544
966.549
966.549
966.549
966.549
966.549
966.549
966.549
966.549
966.549
966.549
966.549
966.549
966.549
966.549
966.549
966.549
966.549
966.549
966.549
966.549
966.549
966.549
966.549
966.551
966.592
966.246
933.646
932.467
966.064
966.544
966.549
966.549
966.549
966.549
966.549
966.549
966.549
966.549
966.549
966.549
966.549
966.549
966.549
966.549
966.549
966.549
966.549
966.549
966.549
966.549
966.549
966.549
966.549
966.551
966.586
966.222
933.42
932.335
966.061
966.544
966.549
966.549
966.549
966.549
966.549
966.549
966.549
966.549
966.549
966.549
966.549
966.549
966.549
966.549
966.549
966.549
966.549
966.549
966.549
966.549
966.549
966.549
966.549
966.55
966.58
966.197
933.197
932.22
966.058
966.544
966.549
966.549
966.549
966.549
966.549
966.549
966.549
966.549
966.549
966.549
966.549
966.549
966.549
966.549
966.549
966.549
966.549
966.549
966.549
966.549
966.549
966.549
966.549
966.55
966.575
966.175
932.985
932.122
966.056
966.544
966.549
966.549
966.549
966.549
966.549
966.549
966.549
966.549
966.549
966.549
966.549
966.549
966.549
966.549
966.549
966.549
966.549
966.549
966.549
966.549
966.549
966.549
966.549
966.55
966.57
966.154
932.8
932.041
966.054
966.544
966.549
966.549
966.549
966.549
966.549
966.549
966.549
966.549
966.549
966.549
966.549
966.549
966.549
966.549
966.549
966.549
966.549
966.549
966.549
966.549
966.549
966.549
966.549
966.55
966.565
966.134
932.626
931.976
966.053
966.544
966.549
966.549
966.549
966.549
966.549
966.549
966.549
966.549
966.549
966.549
966.549
966.549
966.549
966.549
966.549
966.549
966.549
966.549
966.549
966.549
966.549
966.549
966.549
966.549
966.56
966.114
932.462
931.925
966.051
966.544
966.549
966.549
966.549
966.549
966.549
966.549
966.549
966.549
966.549
966.549
966.549
966.549
966.549
966.549
966.549
966.549
966.549
966.549
966.549
966.549
966.549
966.549
966.549
966.549
966.554
966.075
932.291
931.888
966.051
966.544
966.549
966.549
966.549
966.549
966.549
966.549
966.549
966.549
966.549
966.549
966.549
966.549
966.549
966.549
966.549
966.549
966.549
966.549
966.549
966.549
966.549
966.549
966.549
966.548
966.54
965.997
932.417
917.811
917.947
918.083
918.219
918.354
918.488
918.623
918.757
918.89
919.023
919.156
919.288
919.419
919.551
919.682
919.812
919.942
920.072
920.201
920.329
920.458
920.586
920.713
920.84
920.967
921.093
921.219
921.345
921.47
921.595
921.719
921.843
921.966
922.09
922.212
922.335
922.457
922.578
922.7
922.821
922.941
923.061
923.181
923.3
923.419
923.538
923.656
923.774
923.892
924.009
924.126
924.242
924.359
924.474
924.59
924.705
924.82
924.934
925.048
925.162
925.275
925.388
925.501
925.613
925.725
925.837
925.948
926.059
926.17
926.28
926.39
926.5
926.609
926.718
926.827
926.935
927.043
927.151
927.259
927.366
927.473
927.579
927.685
927.791
927.897
928.002
928.107
928.212
928.316
928.42
928.524
928.627
928.731
928.833
928.936
929.038
929.14
929.242
929.343
929.444
929.545
929.646
929.746
929.846
929.946
930.045
930.144
930.243
930.342
930.44
930.538
930.636
930.733
930.831
930.928
931.024
931.121
931.217
931.313
931.408
931.503
931.599
931.693
931.788
931.88
965.563
965.571
965.576
965.582
965.588
965.593
965.599
965.604
965.61
965.615
965.62
965.626
965.631
965.636
965.641
965.647
965.652
965.657
965.662
965.667
965.672
965.677
965.682
965.687
965.692
965.696
965.701
965.706
965.711
965.715
965.72
965.725
965.729
965.734
965.738
965.743
965.747
965.752
965.756
965.761
965.765
965.769
965.774
965.778
965.782
965.787
965.791
965.795
965.799
965.803
965.807
965.811
965.815
965.819
965.823
965.827
965.831
965.835
965.839
965.843
965.847
965.851
965.854
965.858
965.862
965.866
965.869
965.873
965.877
965.88
965.884
965.887
965.891
965.894
965.898
965.901
965.905
965.908
965.912
965.915
965.919
965.922
965.925
965.929
965.932
965.935
965.938
965.942
965.945
965.948
965.951
965.954
965.957
965.961
965.964
965.967
965.97
965.973
965.976
965.979
965.982
965.985
965.988
965.991
965.994
965.996
965.999
966.002
966.005
966.008
966.011
966.013
966.016
966.019
966.022
966.024
966.027
966.03
966.033
966.035
966.038
966.04
966.043
966.046
966.049
966.534
966.534
966.534
966.534
966.534
966.535
966.535
966.535
966.535
966.535
966.535
966.535
966.535
966.536
966.536
966.536
966.536
966.536
966.536
966.536
966.536
966.536
966.537
966.537
966.537
966.537
966.537
966.537
966.537
966.537
966.537
966.538
966.538
966.538
966.538
966.538
966.538
966.538
966.538
966.538
966.538
966.538
966.539
966.539
966.539
966.539
966.539
966.539
966.539
966.539
966.539
966.539
966.539
966.539
966.54
966.54
966.54
966.54
966.54
966.54
966.54
966.54
966.54
966.54
966.54
966.54
966.54
966.541
966.541
966.541
966.541
966.541
966.541
966.541
966.541
966.541
966.541
966.541
966.541
966.541
966.541
966.541
966.541
966.542
966.542
966.542
966.542
966.542
966.542
966.542
966.542
966.542
966.542
966.542
966.542
966.542
966.542
966.542
966.542
966.542
966.542
966.543
966.543
966.543
966.543
966.543
966.543
966.543
966.543
966.543
966.543
966.543
966.543
966.543
966.543
966.543
966.543
966.543
966.543
966.543
966.543
966.543
966.543
966.544
966.544
966.548
966.548
966.548
966.548
966.548
966.548
966.548
966.548
966.548
966.548
966.548
966.548
966.548
966.548
966.548
966.548
966.548
966.548
966.548
966.548
966.548
966.548
966.548
966.548
966.548
966.548
966.548
966.548
966.548
966.548
966.548
966.548
966.548
966.548
966.548
966.548
966.548
966.548
966.548
966.548
966.548
966.548
966.548
966.548
966.548
966.548
966.548
966.548
966.548
966.548
966.548
966.548
966.548
966.548
966.548
966.548
966.548
966.548
966.548
966.548
966.548
966.548
966.548
966.549
966.549
966.549
966.549
966.549
966.549
966.549
966.549
966.549
966.549
966.549
966.549
966.549
966.549
966.549
966.549
966.549
966.549
966.549
966.549
966.549
966.549
966.549
966.549
966.549
966.549
966.549
966.549
966.549
966.549
966.549
966.549
966.549
966.549
966.549
966.549
966.549
966.549
966.549
966.549
966.549
966.549
966.549
966.549
966.549
966.549
966.549
966.549
966.549
966.549
966.549
966.549
966.549
966.549
966.549
966.549
966.549
966.549
966.549
966.549
966.549
966.549
966.549
966.549
966.549
966.549
966.549
966.549
966.549
966.549
966.549
966.549
966.549
966.549
966.549
966.549
966.549
966.549
966.549
966.549
966.549
966.549
966.549
966.549
966.549
966.549
966.549
966.549
966.549
966.549
966.549
966.549
966.549
966.549
966.549
966.549
966.549
966.549
966.549
966.549
966.549
966.549
966.549
966.549
966.549
966.549
966.549
966.549
966.549
966.549
966.549
966.549
966.549
966.549
966.549
966.549
966.549
966.549
966.549
966.549
966.549
966.549
966.549
966.549
966.549
966.549
966.549
966.549
966.549
966.549
966.549
966.549
966.549
966.549
966.549
966.549
966.549
966.549
966.549
966.549
966.549
966.549
966.549
966.549
966.549
966.549
966.549
966.549
966.549
966.549
966.549
966.549
966.549
966.549
966.549
966.549
966.549
966.549
966.549
966.549
966.549
966.549
966.549
966.549
966.549
966.549
966.549
966.549
966.549
966.549
966.549
966.549
966.549
966.549
966.549
966.549
966.549
966.549
966.549
966.549
966.549
966.549
966.549
966.549
966.549
966.549
966.549
966.549
966.549
966.549
966.549
966.549
966.549
966.549
966.549
966.549
966.549
966.549
966.549
966.549
966.549
966.549
966.549
966.549
966.549
966.549
966.549
966.549
966.549
966.549
966.549
966.549
966.549
966.549
966.549
966.549
966.549
966.549
966.549
966.549
966.549
966.549
966.549
966.549
966.549
966.549
966.549
966.549
966.549
966.549
966.549
966.549
966.549
966.549
966.549
966.549
966.549
966.549
966.549
966.549
966.549
966.549
966.549
966.549
966.549
966.549
966.549
966.549
966.549
966.549
966.549
966.549
966.549
966.549
966.549
966.549
966.549
966.549
966.549
966.549
966.549
966.549
966.549
966.549
966.549
966.549
966.549
966.549
966.549
966.549
966.549
966.549
966.549
966.549
966.549
966.549
966.549
966.549
966.549
966.549
966.549
966.549
966.549
966.549
966.549
966.549
966.549
966.549
966.549
966.549
966.549
966.549
966.549
966.549
966.549
966.549
966.549
966.549
966.549
966.549
966.549
966.549
966.549
966.549
966.549
966.549
966.549
966.549
966.549
966.549
966.549
966.549
966.549
966.549
966.549
966.549
966.549
966.549
966.549
966.549
966.549
966.549
966.549
966.549
966.549
966.549
966.549
966.549
966.549
966.549
966.549
966.549
966.549
966.549
966.549
966.549
966.549
966.549
966.549
966.549
966.549
966.549
966.549
966.549
966.549
966.549
966.549
966.549
966.549
966.549
966.549
966.549
966.549
966.549
966.549
966.549
966.549
966.549
966.549
966.549
966.549
966.549
966.549
966.549
966.549
966.549
966.549
966.549
966.549
966.549
966.549
966.549
966.549
966.549
966.549
966.549
966.549
966.549
966.549
966.549
966.549
966.549
966.549
966.549
966.549
966.549
966.549
966.549
966.549
966.549
966.549
966.549
966.549
966.549
966.549
966.549
966.549
966.549
966.549
966.549
966.549
966.549
966.549
966.549
966.549
966.549
966.549
966.549
966.549
966.549
966.549
966.549
966.549
966.549
966.549
966.549
966.549
966.549
966.549
966.549
966.549
966.549
966.549
966.549
966.549
966.549
966.549
966.549
966.549
966.549
966.549
966.549
966.549
966.549
966.549
966.549
966.549
966.549
966.549
966.549
966.549
966.549
966.549
966.549
966.549
966.549
966.549
966.549
966.549
966.549
966.549
966.549
966.549
966.549
966.549
966.549
966.549
966.549
966.549
966.549
966.549
966.549
966.549
966.549
966.549
966.549
966.549
966.549
966.549
966.549
966.549
966.549
966.549
966.549
966.549
966.549
966.549
966.549
966.549
966.549
966.549
966.549
966.549
966.549
966.549
966.549
966.549
966.549
966.549
966.549
966.549
966.549
966.549
966.549
966.549