/*--------------------------------*- C++ -*----------------------------------*\
| =========                 |                                                 |
| \\      /  F ield         | OpenFOAM: The Open Source CFD Toolbox           |
|  \\    /   O peration     | Version:  2112                                  |
|   \\  /    A nd           | Website:  www.openfoam.com                      |
|    \\/     M anipulation  |                                                 |
\*---------------------------------------------------------------------------*/
FoamFile
{
    version     2.0;
    format      ascii;
    arch        "LSB;label=32;scalar=64";
    class       surfaceScalarField;
    location    "0.01051";
    object      phi;
}
// * * * * * * * * * * * * * * * * * * * * * * * * * * * * * * * * * * * * * //

dimensions      [1 0 -1 0 0 0 0];

oriented        oriented;

internalField   nonuniform List<scalar> 
27436
(
-0.533468
8.19282
-0.0933341
7.47169
-0.0850504
7.78725
-0.0708581
7.78674
-0.0647342
7.78827
-0.0482621
7.78161
-0.0394846
7.78798
-0.0339328
7.79121
-0.0241187
7.78772
-0.0162139
7.78917
-0.00918204
7.78971
0.000326334
7.78784
0.0141935
7.7832
0.0310971
7.78081
0.0462258
7.78231
0.0549091
7.78823
0.0580236
7.79261
0.0658496
7.78971
0.0753527
7.78829
0.0895421
7.78254
0.0962287
7.7879
0.111783
7.78555
0.124152
7.78237
0.574524
7.46249
8.21903
-0.247202
8.44004
-0.0961779
7.32066
-0.0812535
7.77233
-0.0544605
7.75977
-0.0594117
7.79247
-0.060045
7.78083
-0.0390832
7.76641
-0.0293772
7.78133
-0.0208307
7.77993
-0.0098682
7.77855
0.00204859
7.77827
0.0159785
7.77426
0.0152078
7.78397
0.0216275
7.7744
0.0210633
7.78287
0.0377249
7.77159
0.0466238
7.78372
0.0589499
7.77739
0.0823344
7.76492
0.0776596
7.78722
0.0721898
7.79342
0.10299
7.75471
0.114332
7.77117
0.267715
7.3094
8.48039
-0.227226
8.66726
-0.141057
7.23447
-0.120359
7.75164
-0.106648
7.74603
-0.104715
7.7902
-0.107193
7.78243
-0.0928446
7.75138
-0.0722353
7.75954
-0.0622459
7.76541
-0.0504821
7.76474
-0.0390508
7.76741
-0.0143895
7.74964
-0.0124899
7.78218
-0.0113633
7.77327
-0.00825857
7.77974
0.0127062
7.75062
0.024069
7.77235
0.0473532
7.75408
0.0609373
7.75133
0.0593875
7.78878
0.0638104
7.789
0.078668
7.73988
0.100673
7.74956
0.192527
7.21553
8.66834
-0.16949
8.83674
-0.1393
7.20424
-0.133905
7.74618
-0.112847
7.72483
-0.114182
7.7913
-0.111241
7.77793
-0.089668
7.72937
-0.0722748
7.74229
-0.0592782
7.75212
-0.044281
7.74959
-0.0290869
7.75232
-0.00693163
7.72805
0.00310511
7.77227
0.00489522
7.77147
0.014948
7.76965
0.0352957
7.73024
0.0494322
7.75819
0.0697674
7.73374
0.0885639
7.73256
0.0942213
7.78312
0.0944295
7.7888
0.118928
7.71551
0.111347
7.75734
0.162062
7.16371
8.834
-0.0735739
8.91033
-0.0363712
7.16703
-0.0923275
7.80209
-0.0627347
7.69498
-0.0706656
7.79912
-0.0696354
7.77568
-0.0515816
7.71144
-0.0369845
7.72753
-0.026619
7.7408
-0.0149761
7.7381
-0.00149827
7.7388
0.016833
7.7105
0.0269172
7.76232
0.0276206
7.77074
0.0370196
7.76021
0.0543671
7.71286
0.0644469
7.74808
0.0820973
7.71608
0.0970101
7.71765
0.101054
7.77907
0.0968631
7.79298
0.124799
7.68763
0.0898404
7.79249
0.0966685
7.15724
8.9371
0.118578
8.79179
0.0438415
7.2418
-0.0499862
7.89592
-0.0129533
7.65785
-0.0324417
7.81861
-0.036063
7.78128
-0.0243283
7.69925
-0.0146258
7.71868
-0.00869853
7.73452
-0.0023448
7.73254
0.00569024
7.73095
0.0196114
7.69698
0.025675
7.75638
0.0249698
7.77137
0.0296441
7.75549
0.0421644
7.70031
0.0463555
7.74386
0.0584252
7.704
0.0684714
7.70763
0.0690536
7.77848
0.052402
7.80961
0.0884195
7.65167
-0.014061
7.89505
-0.0212178
7.16455
8.91947
0.304625
8.48723
0.136122
7.41035
-0.00675453
8.0388
0.021711
7.62924
-0.0239401
7.86435
-0.0488732
7.80823
-0.058316
7.7086
-0.0697911
7.72989
-0.0860213
7.75112
-0.0952433
7.74296
-0.111878
7.74804
-0.11968
7.70523
-0.130921
7.76769
-0.146361
7.78674
-0.158098
7.7672
-0.166405
7.70858
-0.185019
7.76244
-0.193038
7.71201
-0.207941
7.72254
-0.228726
7.79926
-0.262789
7.84364
-0.284796
7.67372
-0.354491
7.96463
-0.658589
7.46864
8.26217
0.873326
7.614
0.521872
7.76193
0.410589
8.15015
0.331635
7.70823
0.266377
7.92971
0.226336
7.84992
0.194725
7.73885
0.167466
7.75629
0.138409
7.78163
0.114277
7.76824
0.0834305
7.77949
0.0618485
7.72722
0.0381268
7.79152
0.00667887
7.81815
-0.0192782
7.79312
-0.0444933
7.73376
-0.0743016
7.79221
-0.100736
7.73842
-0.130635
7.75244
-0.167122
7.83571
-0.228205
7.90466
-0.279171
7.72474
-0.405903
8.09118
-0.6937
7.75654
7.56638
0.593004
7.02113
0.410229
7.94485
0.237927
8.32268
0.187581
7.75852
0.127333
7.98974
0.0963528
7.88063
0.0864419
7.74802
0.079733
7.76203
0.0748997
7.7883
0.0757979
7.76779
0.0728404
7.78307
0.0719481
7.72868
0.0773012
7.78648
0.0766649
7.8188
0.076893
7.79289
0.072302
7.73833
0.0674436
7.79705
0.0628737
7.74297
0.0561884
7.75911
0.0292995
7.86251
-0.0267173
7.96055
-0.0465498
7.74448
-0.219182
8.26343
-0.37199
7.90892
7.19018
-3.05144
10.0729
-3.39203
8.28597
-2.76479
7.69566
-2.61933
7.61298
-2.30289
7.6726
-1.93358
7.50957
-1.65191
7.46462
-1.37537
7.48583
-1.084
7.49964
-0.782626
7.46608
-0.493576
7.49439
-0.208184
7.44397
0.098448
7.48043
0.403471
7.51366
0.694699
7.50151
0.967061
7.46598
1.26389
7.50022
1.54069
7.46615
1.83534
7.46439
2.19625
7.50147
2.50179
7.65484
2.66039
7.58582
3.23489
7.68848
2.95032
8.19295
10.1392
-4.25821
14.3315
-4.36701
8.39583
-4.19466
7.5245
-3.89597
7.31444
-3.31722
7.09211
-2.79492
6.98473
-2.35786
7.02632
-1.92531
7.05319
-1.46837
7.04486
-1.02037
7.01802
-0.561721
7.03596
-0.120576
7.00366
0.342008
7.0187
0.810894
7.04477
1.25909
7.05317
1.6776
7.04755
2.13093
7.04695
2.5684
7.02871
3.02319
7.00954
3.57517
6.94937
4.13237
7.09747
4.44338
7.27456
4.61439
7.51722
4.56443
8.24213
14.7055
-2.75517
17.0882
-4.86685
10.5093
-4.97571
7.63437
-4.13338
6.47076
-3.62099
6.57732
-3.18333
6.5462
-2.70716
6.54895
-2.21643
6.56197
-1.71304
6.54185
-1.2237
6.52892
-0.723234
6.53569
-0.242919
6.52423
0.259469
6.5174
0.762121
6.54286
1.25831
6.55758
1.71928
6.58683
2.20725
6.55908
2.69616
6.53983
3.18966
6.51599
3.66557
6.47332
4.24721
6.51566
5.09782
6.4237
4.72115
7.89374
2.77936
10.1839
17.4857
2.36877
14.721
0.184933
12.696
-4.99316
12.8132
-3.88826
5.36719
-3.80598
6.49237
-3.31622
6.05388
-2.88151
6.11122
-2.37053
6.04941
-1.84255
6.01316
-1.32709
6.01347
-0.810636
6.01962
-0.306063
6.02047
0.213035
5.99948
0.74169
6.01523
1.26473
6.03541
1.78712
6.06491
2.28137
6.06507
2.76094
6.06038
3.1999
6.07698
3.75914
5.91386
3.97153
6.30295
5.10625
5.28876
-0.181245
13.1814
-2.3992
12.4021
15.0864
2.45901
12.264
3.52737
11.6293
3.47146
12.8731
-0.796214
9.63547
-3.64068
9.33603
-3.21049
5.63118
-2.97134
5.86966
-2.46889
5.54417
-1.94446
5.48785
-1.46521
5.53398
-0.975622
5.53043
-0.472085
5.51767
0.0273354
5.50111
0.535197
5.50839
1.03409
5.53753
1.52522
5.57461
2.02638
5.5645
2.4835
5.60346
2.61187
5.94824
2.98555
5.53982
-0.0912784
9.37942
-4.15887
9.35669
-3.87949
12.9025
-2.95632
11.4794
12.13
1.87995
10.3865
3.87965
9.63116
5.77218
10.983
4.96721
10.4308
4.11161
10.1958
-1.20198
10.9199
-2.37964
7.03323
-2.04116
5.207
-1.62988
5.07671
-1.13749
5.04186
-0.602704
4.99605
-0.0622217
4.97781
0.470235
4.96967
1.0052
4.97452
1.54649
4.99754
2.05666
5.06588
2.44811
5.17401
2.8019
5.25031
1.50497
7.24486
-3.66615
10.7109
-4.23724
9.94984
-4.89046
10.0101
-3.05352
11.0659
-1.33436
9.76104
10.7963
1.09381
9.29383
2.17222
8.55401
3.9835
9.17358
4.93317
9.47789
5.06236
10.0738
5.78238
10.2057
2.77443
10.0306
1.11479
6.86477
-0.0830452
6.27391
-0.397045
5.35429
-0.252259
4.85057
0.0438129
4.68173
0.395493
4.6182
0.718956
4.65168
0.93171
4.78589
0.813197
5.18579
-0.51378
6.50223
-2.33417
7.07086
-5.02785
9.93757
-4.27925
9.96073
-3.97213
9.6421
-3.50834
9.54625
-1.86133
9.419
-0.760889
8.66099
10.0359
2.00694
7.28484
3.17922
7.3799
4.38153
7.97272
5.94097
7.91902
7.0565
8.96524
6.64059
10.6426
4.67969
11.9897
2.15614
9.38557
0.868352
7.56023
0.169574
6.04864
-0.0227117
5.03858
-0.0631317
4.72013
-0.0361101
4.5905
-0.0334429
4.65026
-0.173235
4.92822
-0.822167
5.83821
-2.36957
8.05273
-4.93053
9.63315
-6.73431
11.7435
-7.246
10.4702
-6.42584
8.82087
-5.00173
8.12143
-3.70682
8.12434
-2.5613
7.51559
7.47491
2.53142
4.75171
4.14765
5.76025
4.67885
7.43984
4.31548
8.2864
4.53182
8.7522
4.28853
10.8935
4.12382
12.1574
2.54694
10.967
1.36284
8.74316
0.584428
6.82486
0.195705
5.4231
-0.10297
5.01508
-0.398616
4.88329
-0.697597
4.94765
-1.03517
5.26514
-1.90346
6.70662
-3.22448
9.37433
-4.91057
11.3206
-5.8411
12.6742
-6.25191
10.8793
-5.9672
8.53683
-5.93912
8.09305
-4.96578
7.15021
-2.94049
5.48995
4.53431
3.16209
1.58956
6.23553
2.68682
8.48489
5.18836
8.24775
8.52145
6.4714
10.5306
5.93796
11.4301
5.59702
12.5022
4.8829
11.6841
4.15765
9.47101
3.24164
7.74156
1.98703
6.67669
0.824874
6.17537
-0.325387
6.0312
-1.51952
6.13898
-2.88774
6.63066
-3.96954
7.78596
-4.38273
9.78564
-4.77348
11.7105
-4.6401
12.541
-5.24979
11.4915
-7.51838
10.807
-7.85882
8.43329
-5.77171
5.0626
-2.95948
2.67751
1.57478
1.19834
0.390593
2.92252
0.961616
4.93676
3.16911
6.47018
6.97628
5.76915
11.2345
5.4557
11.7487
5.42483
12.5372
4.87003
12.2403
3.81128
10.5309
2.65572
8.89764
1.50796
7.82495
0.377911
7.30525
-0.752157
7.16021
-1.91597
7.30088
-3.16035
7.87336
-4.45227
9.07686
-5.4681
10.8009
-5.8865
12.1285
-5.80684
12.4621
-6.07976
11.7663
-6.67099
11.3991
-4.98408
6.74486
-2.98093
3.05836
-1.21177
0.908182
0.362788
0.579353
-0.190269
0.865072
0.67483
1.00281
3.03084
1.33073
6.64342
2.2572
10.3105
2.9184
11.0926
3.42247
12.0333
3.3376
12.3249
2.66616
11.2043
1.79859
9.76645
0.941296
8.6832
0.108455
8.13833
-0.728591
7.99659
-1.60167
8.17277
-2.5409
8.81185
-3.48463
10.0206
-4.09035
11.4065
-4.02964
12.0675
-3.41481
11.8477
-2.72308
11.0748
-1.66407
10.339
-1.14203
6.2206
-0.91621
2.83182
-0.597123
0.58847
-0.235109
-0.151466
-0.0380928
-0.297391
0.82031
-0.69479
3.42706
-0.648062
6.59437
0.395659
9.26707
1.31132
10.1795
1.90979
11.4316
2.04172
12.1908
1.74871
11.5004
1.27546
10.2413
0.721111
9.23857
0.149477
8.71037
-0.409868
8.55582
-0.983492
8.74621
-1.53905
9.36781
-1.97942
10.4621
-2.16537
11.5929
-1.95419
11.8565
-1.27438
11.1683
-0.298497
10.0995
0.801311
9.23796
0.68934
6.33146
0.362936
3.15674
0.201155
0.749535
-0.0346284
-0.525579
0.487895
-1.36253
1.65771
-1.77695
3.83991
-1.79638
6.61227
-0.918583
8.38943
-0.0550218
9.31675
0.474059
10.8981
0.77822
11.885
0.863328
11.4185
0.729794
10.3769
0.496267
9.47352
0.223335
8.98434
-0.069992
8.84983
-0.33011
9.00722
-0.526781
9.56566
-0.595179
10.5319
-0.463254
11.4623
-0.183802
11.5767
0.446684
10.5379
1.30355
9.24181
2.16901
8.37147
2.03174
6.46777
1.49928
3.68808
0.543337
1.70471
0.507825
-0.398162
0.887338
-1.50324
2.76484
-2.42309
4.7592
-2.54553
6.73398
-2.06512
7.90909
-1.58881
8.8408
-1.01928
10.3253
-0.506716
11.3721
-0.157755
11.0733
0.00551934
10.2158
0.0224814
9.45864
-0.0473436
9.05557
-0.131286
8.93505
-0.202822
9.08015
-0.185953
9.55013
-0.00702053
10.3546
0.352054
11.1038
0.836479
11.0924
1.34384
10.0303
1.923
8.66357
2.45707
7.83628
2.33295
6.59075
1.36511
4.65438
0.353331
2.71541
0.860734
-0.383748
1.27158
-1.39343
3.77629
-2.17897
5.5448
-2.42469
6.97991
-2.19132
7.67529
-1.88201
8.53123
-1.44451
9.8862
-0.917925
10.8461
-0.471075
10.6301
-0.222892
9.97024
-0.104508
9.34234
-0.0497594
9.00256
-0.0294328
8.91616
0.0334482
9.01867
0.172362
9.41249
0.440228
10.0882
0.873802
10.6717
1.38149
10.5851
1.7695
9.64226
2.10557
8.32624
2.37807
7.56369
2.11281
6.85535
1.29786
5.46832
0.346317
3.66569
1.2064
-0.361632
1.63352
-1.23435
4.65065
-2.0515
6.3628
-2.4124
7.34128
-2.38065
7.64465
-2.15233
8.30317
-1.77113
9.50368
-1.21537
10.2915
-0.720061
10.1381
-0.342274
9.59508
-0.12558
9.12725
0.0140997
8.86405
0.15222
8.77921
0.29729
8.87483
0.529798
9.18096
0.933327
9.68552
1.44725
10.1587
1.962
10.0707
2.28489
9.31886
2.49975
8.11176
2.50802
7.55427
2.13782
7.2254
1.24319
6.36275
0.353711
4.55528
1.56157
-0.457031
2.08984
-1.39825
5.59114
-2.21275
7.17762
-2.53364
7.66233
-2.59015
7.70131
-2.45681
8.16963
-2.16309
9.21093
-1.65595
9.78589
-1.13444
9.6192
-0.74719
9.20955
-0.457109
8.83805
-0.220692
8.6285
-0.0251006
8.58435
0.209581
8.64092
0.503407
8.88784
0.881299
9.30853
1.35598
9.68486
1.83508
9.59203
2.14183
9.01244
2.29552
7.95778
2.23735
7.61176
1.95526
7.50662
1.22013
7.09703
0.376814
5.39848
1.9384
-0.367887
2.45762
-1.22081
6.44596
-1.97559
7.93443
-2.16727
7.85553
-2.35559
7.88854
-2.26811
8.08238
-1.98593
8.92807
-1.49256
9.29393
-1.02144
9.15002
-0.609301
8.79767
-0.306407
8.535
-0.0614683
8.38356
0.183886
8.33938
0.430615
8.39472
0.743434
8.57542
1.18085
8.87154
1.66526
9.20059
2.10667
9.15095
2.34152
8.77702
2.40984
7.88898
2.19804
7.82245
1.94552
7.75906
1.17448
7.86947
0.360981
6.21637
2.29963
-0.313
2.77108
-1.20396
7.34078
-1.91557
8.64589
-2.08965
8.03021
-2.23415
8.03277
-2.16376
8.01239
-1.92032
8.6857
-1.49176
8.86679
-1.02798
8.68622
-0.650023
8.41892
-0.313142
8.19755
-0.0119371
8.08223
0.259875
8.06756
0.568322
8.08626
0.917157
8.22686
1.30497
8.4839
1.74355
8.7626
2.16251
8.73188
2.37784
8.56175
2.44456
7.82305
2.28224
7.98372
2.0955
7.94682
1.40683
8.55888
0.463642
7.16284
2.76294
-0.538993
3.30833
-1.4435
8.2453
-2.05202
9.25267
-2.22813
8.20229
-2.40363
8.20653
-2.43859
8.0472
-2.24159
8.48958
-1.7861
8.41111
-1.34907
8.24707
-0.932749
8.00127
-0.596795
7.86053
-0.302194
7.78722
-0.000587092
7.76569
0.295096
7.7908
0.636429
7.88565
1.05744
8.06288
1.48911
8.33072
1.87514
8.34616
2.07606
8.36006
2.0364
7.86185
1.93007
8.08849
1.71586
8.15835
1.14349
9.13653
0.385172
7.92462
3.14488
-0.460021
3.77142
-1.29035
9.07455
-1.89382
9.86028
-2.03552
8.34825
-2.03799
8.21006
-2.01507
8.02432
-1.82496
8.29885
-1.47105
8.05483
-1.07369
7.84759
-0.728327
7.65419
-0.391619
7.52297
-0.0667008
7.46158
0.235786
7.4629
0.565359
7.46083
0.906901
7.54402
1.26458
7.70545
1.64623
7.94879
2.00933
7.98287
2.15247
8.21651
2.15872
7.85779
2.14497
8.10351
1.93246
8.37237
1.4049
9.66937
0.543722
8.78114
3.68794
-0.431021
4.20756
-0.822987
9.45705
-1.58371
10.6187
-1.76037
8.52041
-1.8196
8.26794
-1.77795
7.98345
-1.65034
8.17091
-1.3221
7.72496
-0.998689
7.52122
-0.653759
7.30763
-0.351391
7.21966
-0.0696154
7.17953
0.230209
7.16269
0.507364
7.18359
0.81716
7.23418
1.18494
7.3375
1.52714
7.60679
1.80143
7.70827
1.92582
8.09099
1.95169
7.82952
1.93739
8.11635
1.86563
8.44192
1.13564
10.3908
0.60319
9.31846
4.30422
-0.625258
4.83163
-1.09932
9.92658
-1.85926
11.378
-1.98583
8.64342
-1.95329
8.23228
-1.88896
7.91751
-1.71378
7.99298
-1.42621
7.43466
-1.1102
7.20271
-0.823122
7.01962
-0.529206
6.92492
-0.222583
6.87205
0.0613389
6.87833
0.372863
6.87178
0.670957
6.93577
0.954446
7.05371
1.25104
7.30957
1.54319
7.4162
1.68131
7.95295
1.75257
7.75808
1.74987
8.11808
1.70099
8.48759
0.79403
11.3008
0.417894
9.71086
4.73676
-0.439146
5.27083
-0.776323
10.271
-1.38706
11.9963
-1.60046
8.86019
-1.65654
8.29455
-1.60491
7.87151
-1.45227
7.84079
-1.18805
7.16775
-0.910113
6.92243
-0.605715
6.71448
-0.325437
6.64403
-0.0676651
6.61395
0.214957
6.59525
0.470249
6.61616
0.751968
6.6539
1.0685
6.73734
1.34918
7.02844
1.59369
7.17137
1.74877
7.798
1.76857
7.73782
1.75537
8.12987
1.45712
8.78766
0.990826
11.7734
0.418627
10.2699
5.13192
-0.317077
5.58472
-0.503827
10.4624
-1.02474
12.5152
-1.52311
9.35381
-1.56435
8.32983
-1.4848
7.78661
-1.26638
7.61569
-1.05575
6.95495
-0.816651
6.68253
-0.581652
6.47887
-0.335357
6.39718
-0.0693516
6.34718
0.171386
6.354
0.441085
6.3461
0.685679
6.4091
0.919221
6.50309
1.16278
6.78428
1.39216
6.93989
1.56911
7.62044
1.62157
7.6843
1.66713
8.083
1.24791
9.20291
0.72912
12.2905
0.293884
10.6898
5.4135
-0.44608
6.03205
-0.692913
10.7012
-0.989788
12.8075
-1.59859
9.95815
-1.56078
8.29016
-1.51354
7.74123
-1.3753
7.47659
-1.1247
6.70468
-0.909818
6.46643
-0.656163
6.22523
-0.416006
6.15646
-0.198184
6.1289
0.0480984
6.10724
0.264844
6.12899
0.513888
6.15949
0.776216
6.24089
0.983301
6.57766
1.20141
6.72191
1.35672
7.46543
1.39116
7.64772
1.35086
8.12116
0.744558
9.80739
0.429579
12.5958
0.249415
10.8852
5.6561
-0.259614
6.29386
-0.354085
10.7841
-0.491743
12.9433
-1.24396
10.7244
-1.37446
8.42781
-1.3426
7.71443
-1.12619
7.26028
-0.908818
6.48448
-0.698875
6.25504
-0.503963
6.02979
-0.291122
5.94293
-0.0511357
5.88834
0.163238
5.89244
0.40878
5.883
0.617229
5.95084
0.812682
6.04505
1.03698
6.35187
1.2749
6.48247
1.45905
7.28235
1.48046
7.62581
1.40582
8.19888
0.692472
10.5236
0.61397
12.652
0.540528
10.9583
6.22764
-0.0500668
6.34867
-0.0614313
10.7911
-0.0973439
12.9814
-0.792648
11.4104
-1.17997
8.80605
-1.13534
7.66394
-1.02724
7.14546
-0.833753
6.29105
-0.655064
6.07702
-0.445398
5.82046
-0.241817
5.73901
-0.0627845
5.70882
0.146415
5.68278
0.321725
5.70721
0.527961
5.74419
0.753511
5.81848
0.925342
6.18071
1.10883
6.29822
1.27504
7.11268
1.344
7.55533
0.981601
8.56136
0.319938
11.192
0.286637
12.6883
0.27859
10.9154
6.56559
-0.238291
6.59649
-0.392583
10.956
-0.221424
12.8111
-0.745568
11.9288
-1.32574
9.38843
-1.23138
7.57209
-1.06352
6.98208
-0.88231
6.11166
-0.691122
5.88547
-0.525314
5.65441
-0.355137
5.56824
-0.149544
5.5029
0.0318356
5.50111
0.235404
5.5032
0.405537
5.57359
0.569693
5.65513
0.772929
5.97617
0.94582
6.12664
1.04715
7.01219
1.12433
7.47611
0.479241
9.20332
-0.0859935
11.7587
0.0461216
12.5586
0.0714956
10.9602
6.65385
-0.0476871
6.64922
-0.0744737
11.001
0.120059
12.6224
-0.177485
12.2333
-0.868217
10.0937
-0.938569
7.64684
-0.862649
6.90665
-0.718008
5.96414
-0.574156
5.74091
-0.386771
5.46631
-0.202681
5.38388
-0.045395
5.34508
0.135208
5.32016
0.292722
5.34528
0.477287
5.38874
0.680803
5.44991
0.818634
5.83814
0.965717
5.97827
1.093
6.88656
1.03498
7.53637
0.401892
9.84016
0.108075
12.0568
0.23975
12.453
0.177387
11.0534
6.79702
0.0116812
6.63512
0.0688802
10.9504
0.292216
12.4031
0.196323
12.3128
-0.549098
10.8298
-0.907938
7.99492
-0.735243
6.72846
-0.636111
5.86491
-0.487814
5.59357
-0.35225
5.33147
-0.210314
5.24178
-0.0421518
5.17701
0.112463
5.16535
0.286399
5.17098
0.42328
5.25135
0.562727
5.31088
0.737975
5.66195
0.836004
5.87856
1.04948
6.66934
0.764171
7.82036
-0.00378802
10.6111
-0.143693
12.1942
0.012896
12.3048
-0.0474568
11.1147
6.72526
-0.126562
6.75436
-0.0937981
10.9145
0.0745099
12.2372
0.151917
12.2388
-0.318947
11.2984
-0.810611
8.49101
-0.773412
6.69718
-0.662196
5.75592
-0.569271
5.50133
-0.417656
5.17912
-0.262023
5.08585
-0.12447
5.03903
0.0276706
5.01288
0.160366
5.03804
0.321563
5.08985
0.477896
5.15401
0.55416
5.58664
0.63326
5.80108
0.725805
6.57824
0.17671
8.36607
-0.428214
11.2118
-0.358757
12.1249
-0.308662
12.2675
-0.136742
10.9916
6.51896
-0.031722
6.77783
0.0432014
10.8316
0.197987
12.0865
0.552687
11.8934
0.108099
11.7448
-0.498976
9.10616
-0.649346
6.84121
-0.509551
5.61215
-0.41167
5.40211
-0.304017
5.07086
-0.183068
4.96487
-0.0349293
4.89112
0.103661
4.87415
0.257179
4.88404
0.373924
4.97271
0.493961
5.03303
0.636841
5.44059
0.757228
5.67773
0.632375
6.70193
0.0674396
8.93616
-0.309621
11.5941
-0.117163
11.9333
0.0106393
12.1326
0.119035
10.7315
6.62391
0.0899039
6.68094
0.263394
10.6503
0.320676
12.0305
0.578026
11.6267
0.719946
11.5815
-0.0568614
9.87419
-0.468761
7.24828
-0.448552
5.59568
-0.372379
5.3283
-0.271552
4.97148
-0.145914
4.83966
-0.0320456
4.77706
0.0967728
4.74516
0.208589
4.77216
0.343404
4.83762
0.454229
4.92277
0.527555
5.36748
0.592275
5.61241
0.328277
6.96285
-0.439914
9.70581
-0.497636
11.6527
-0.207901
11.6388
-0.145271
12.0401
-0.0215524
10.5844
6.62865
-0.120635
6.79834
-0.00924163
10.5391
0.101114
11.922
0.366388
11.3772
0.629142
11.3253
0.0658435
10.4473
-0.402617
7.73232
-0.466543
5.66518
-0.383777
5.24559
-0.304317
4.89009
-0.216342
4.75143
-0.0932425
4.65385
0.0226186
4.62851
0.145504
4.64891
0.230929
4.75195
0.315503
4.83703
0.408953
5.27389
0.316496
5.70455
-0.166445
7.44468
-0.817331
10.3531
-0.577961
11.4086
-0.338812
11.3881
-0.259933
11.9501
-0.0712031
10.4354
6.59408
0.0456401
6.75273
0.226623
10.3696
0.290325
11.8662
0.477995
11.1814
0.882031
10.9157
0.697711
10.6256
-0.00250633
8.43011
-0.303244
5.95902
-0.318216
5.25924
-0.215966
4.78944
-0.120135
4.65612
-0.0302343
4.56408
0.0804856
4.51867
0.171332
4.55722
0.280548
4.64256
0.349942
4.76757
0.378909
5.24264
0.130937
5.9505
-0.478982
8.05315
-0.799152
10.6808
-0.354652
10.9623
-0.141128
11.1691
-0.100635
11.9561
0.0233103
10.3496
6.64676
0.0614453
6.69218
0.286762
10.15
0.392363
11.7591
0.571922
10.9883
0.840257
10.6508
0.962323
10.4947
0.302225
9.087
-0.0797101
6.34202
-0.21164
5.39592
-0.159326
4.73925
-0.097466
4.59452
-0.0149821
4.48154
0.0706231
4.43636
0.164055
4.46433
0.227565
4.57896
0.312927
4.68362
0.250677
5.30715
-0.141404
6.33922
-0.856914
8.76164
-0.74053
10.5652
-0.417986
10.6346
-0.226387
10.9745
-0.171116
11.9147
0.0124124
10.2038
6.68423
-0.0229393
6.71634
0.146248
9.98223
0.266394
11.6404
0.406999
10.8678
0.629753
10.441
1.03652
10.1019
0.717062
9.41574
0.068518
6.99809
-0.226245
5.69068
-0.187521
4.69879
-0.126427
4.53246
-0.057794
4.41212
0.0116402
4.36427
0.0755914
4.40092
0.139625
4.51494
0.170335
4.65197
-0.0856219
5.56176
-0.725794
6.97871
-1.20464
9.24848
-0.792764
10.1521
-0.557914
10.4085
-0.440787
10.8694
-0.301978
11.7872
-0.0626644
9.99013
6.64183
-0.0230746
6.74271
0.224326
9.74011
0.41418
11.4551
0.51875
10.7487
0.734376
10.2089
1.01681
9.81486
0.969476
9.4581
0.355797
7.6126
0.00290337
6.0413
-0.0988676
4.8016
-0.0614881
4.49604
-0.0114452
4.36234
0.036542
4.31319
0.092542
4.34497
0.13697
4.47056
0.0853256
4.70229
-0.247869
5.89633
-0.871108
7.59408
-1.05874
9.43564
-0.726142
9.83145
-0.497748
10.1928
-0.396695
10.7759
-0.151217
11.542
0.100162
9.7272
6.74357
0.0197242
6.72992
0.273988
9.48626
0.528536
11.1853
0.607846
10.6747
0.780549
10.0349
0.999834
9.59779
1.32142
9.14799
0.890765
8.0503
0.175404
6.76234
-0.00633925
4.98517
-0.016453
4.50581
0.00744485
4.33736
0.0356302
4.28198
0.0688779
4.31217
0.0726886
4.467
-0.0985311
4.87472
-0.789973
6.59089
-1.2006
8.00841
-0.992213
9.22934
-0.75499
9.60518
-0.564524
10.0048
-0.466736
10.6599
-0.179924
11.2368
0.0637106
9.46213
6.79691
-0.0295848
-0.625538
-0.0495336
-0.696467
-0.0820004
-0.75493
-0.110744
-0.837935
-0.142979
-0.924891
-0.168532
-1.0103
-0.188793
-1.07798
-0.208222
-1.13606
-0.221177
-1.18187
-0.222525
-1.20025
-0.217947
-1.20326
-0.206685
-1.20387
-0.188974
-1.20029
-0.168284
-1.20271
-0.146435
-1.21149
-0.12603
-1.22366
-0.107981
-1.24553
-0.0906487
-1.2634
-0.0765091
-1.2726
-0.0671977
-1.29369
-0.0587834
-1.31423
-0.0535815
-1.32893
-0.0473768
-1.34407
-0.0381249
-1.36129
-0.0286281
-1.38023
-0.0197679
-1.3995
-0.0113828
-1.41606
-0.00378424
-1.4242
0.000622265
-1.41139
-1.35251
0.0184195
-0.641672
-0.0122997
-0.665398
-0.0408467
-0.729883
-0.0738466
-0.800034
-0.101642
-0.883202
-0.127149
-0.961702
-0.149483
-1.02789
-0.17036
-1.08714
-0.185403
-1.13863
-0.189509
-1.16369
-0.188864
-1.17848
-0.180846
-1.18898
-0.165769
-1.19406
-0.14739
-1.20193
-0.127852
-1.21217
-0.109194
-1.22604
-0.0920916
-1.24831
-0.0776189
-1.26245
-0.0665754
-1.27425
-0.0574178
-1.28889
-0.0476814
-1.31453
-0.0418279
-1.32782
-0.036964
-1.34595
-0.0302142
-1.36659
-0.0236416
-1.38696
-0.016869
-1.40896
-0.0102706
-1.42637
-0.00476078
-1.43671
-0.000945797
-1.42505
-1.36407
-0.0181282
-0.620342
-0.0522496
-0.630461
-0.0892755
-0.693497
-0.124793
-0.760216
-0.156603
-0.834236
-0.184011
-0.906842
-0.211267
-0.975416
-0.232512
-1.03631
-0.245651
-1.09295
-0.248577
-1.12609
-0.246712
-1.15219
-0.23641
-1.1737
-0.218381
-1.18769
-0.196362
-1.20248
-0.173001
-1.21638
-0.150616
-1.23338
-0.129669
-1.25355
-0.109565
-1.26735
-0.0970302
-1.27492
-0.0836348
-1.29544
-0.0728212
-1.31692
-0.0627026
-1.33089
-0.0552496
-1.35263
-0.0475313
-1.37555
-0.0390818
-1.39704
-0.0299878
-1.4291
-0.0213378
-1.44069
-0.0130107
-1.45609
-0.00563315
-1.44757
-1.38316
-0.0385899
-0.577507
-0.0775352
-0.589708
-0.121487
-0.64651
-0.159351
-0.714209
-0.193669
-0.781003
-0.223019
-0.848975
-0.252173
-0.917773
-0.275385
-0.982013
-0.290013
-1.04219
-0.294122
-1.08339
-0.293871
-1.12042
-0.284381
-1.15236
-0.266172
-1.17642
-0.24296
-1.20016
-0.217054
-1.22063
-0.191072
-1.24151
-0.167153
-1.25957
-0.144152
-1.27528
-0.129612
-1.28159
-0.110249
-1.31914
-0.09557
-1.3253
-0.085478
-1.33988
-0.074086
-1.36277
-0.0653268
-1.38627
-0.0576301
-1.41055
-0.0425257
-1.45494
-0.0329126
-1.45833
-0.0220922
-1.5215
-0.0094834
-1.51108
-1.40587
-0.0403631
-0.531712
-0.0795278
-0.548239
-0.12171
-0.601481
-0.163258
-0.662764
-0.197964
-0.725834
-0.229469
-0.790618
-0.258288
-0.860123
-0.282685
-0.926868
-0.298159
-0.990137
-0.304979
-1.03788
-0.307917
-1.08409
-0.301059
-1.12509
-0.285219
-1.15933
-0.263369
-1.19314
-0.237283
-1.2219
-0.209839
-1.24642
-0.183915
-1.26599
-0.159817
-1.2845
-0.142691
-1.28867
-0.12081
-1.32342
-0.104825
-1.33686
-0.0934411
-1.35406
-0.0829735
-1.37624
-0.0731602
-1.40032
-0.0633642
-1.427
-0.0505543
-1.46176
-0.0410714
-1.47664
-0.027571
-1.51993
-0.0127554
-1.5095
-1.43642
-0.0388783
-0.486251
-0.0796813
-0.504593
-0.122052
-0.553609
-0.165477
-0.609352
-0.199024
-0.669276
-0.23237
-0.733235
-0.261876
-0.803301
-0.286937
-0.872125
-0.303119
-0.937101
-0.312764
-0.989902
-0.319059
-1.04331
-0.315603
-1.09189
-0.303103
-1.13611
-0.283779
-1.17998
-0.258827
-1.21828
-0.231228
-1.25034
-0.203399
-1.27496
-0.181101
-1.29265
-0.15668
-1.29989
-0.134926
-1.3313
-0.117658
-1.35152
-0.102874
-1.37212
-0.0928176
-1.391
-0.0815058
-1.41641
-0.0705133
-1.44238
-0.059283
-1.47071
-0.0478284
-1.49055
-0.032313
-1.51868
-0.0158832
-1.53616
-1.49623
-0.0413136
-0.437306
-0.0816015
-0.45998
-0.12592
-0.502104
-0.167896
-0.555807
-0.201736
-0.613437
-0.235089
-0.677372
-0.26682
-0.746915
-0.292112
-0.817799
-0.307966
-0.884161
-0.319668
-0.940951
-0.32856
-1.00048
-0.327861
-1.0552
-0.318627
-1.10859
-0.302527
-1.16126
-0.280069
-1.20875
-0.253782
-1.24907
-0.225083
-1.28083
-0.198208
-1.30239
-0.171815
-1.31276
-0.151133
-1.34256
-0.132825
-1.36312
-0.116315
-1.38362
-0.103112
-1.40516
-0.0915232
-1.43137
-0.0787251
-1.45546
-0.0687083
-1.4799
-0.0546616
-1.49945
-0.0384462
-1.52016
-0.0197406
-1.56757
-1.488
-0.0420036
-0.386959
-0.0865635
-0.409692
-0.132136
-0.448816
-0.170433
-0.501345
-0.205983
-0.559087
-0.240585
-0.622694
-0.2721
-0.69211
-0.298463
-0.764004
-0.314037
-0.831606
-0.327391
-0.891254
-0.33898
-0.956015
-0.341279
-1.01501
-0.335542
-1.07609
-0.323194
-1.13576
-0.303926
-1.19158
-0.279602
-1.2406
-0.2517
-1.28073
-0.222234
-1.31027
-0.191507
-1.3292
-0.169083
-1.35594
-0.148715
-1.37691
-0.13206
-1.39588
-0.115727
-1.41767
-0.101831
-1.4429
-0.0880024
-1.46598
-0.0773373
-1.48889
-0.0614182
-1.50742
-0.043887
-1.5245
-0.0220671
-1.54635
-1.47312
-0.0439834
-0.334429
-0.0917883
-0.355271
-0.136841
-0.396454
-0.173437
-0.447922
-0.209187
-0.506148
-0.243721
-0.569758
-0.275081
-0.639087
-0.302043
-0.711065
-0.317721
-0.779461
-0.332564
-0.840868
-0.346616
-0.910082
-0.351861
-0.971991
-0.349558
-1.03911
-0.341084
-1.10417
-0.325508
-1.16741
-0.303318
-1.22524
-0.275443
-1.27537
-0.246529
-1.31452
-0.213581
-1.34483
-0.187184
-1.3706
-0.165675
-1.38988
-0.146098
-1.40896
-0.128898
-1.42971
-0.112568
-1.4531
-0.0987527
-1.47608
-0.0865539
-1.4987
-0.069198
-1.51608
-0.0491702
-1.53309
-0.0253522
-1.53799
-1.46515
-0.0459297
-0.278779
-0.0938457
-0.300948
-0.13905
-0.343616
-0.174815
-0.395543
-0.210504
-0.454521
-0.244442
-0.518585
-0.275147
-0.587923
-0.301845
-0.65966
-0.317553
-0.728074
-0.33453
-0.790494
-0.35091
-0.86205
-0.359121
-0.927074
-0.360056
-0.998776
-0.354317
-1.06872
-0.343047
-1.13731
-0.325108
-1.20308
-0.301893
-1.26156
-0.272719
-1.31207
-0.241356
-1.35295
-0.210233
-1.38745
-0.183062
-1.40941
-0.160285
-1.42393
-0.140864
-1.44309
-0.123709
-1.46499
-0.108789
-1.48752
-0.0944051
-1.50995
-0.0769275
-1.52367
-0.0550747
-1.53848
-0.0293345
-1.5331
-1.47179
-0.0484327
-0.219789
-0.0939717
-0.247212
-0.138795
-0.29095
-0.174666
-0.344269
-0.209609
-0.404571
-0.242426
-0.469277
-0.271998
-0.538736
-0.297867
-0.610054
-0.314696
-0.677858
-0.332674
-0.740728
-0.350558
-0.812962
-0.358524
-0.884404
-0.363463
-0.956146
-0.362991
-1.02877
-0.357085
-1.10107
-0.343092
-1.17397
-0.322556
-1.24036
-0.295774
-1.30193
-0.264776
-1.3545
-0.234136
-1.39702
-0.202978
-1.42772
-0.17462
-1.44616
-0.152674
-1.46377
-0.13422
-1.47948
-0.117775
-1.50071
-0.1015
-1.5262
-0.0831697
-1.53562
-0.0589856
-1.54554
-0.0325468
-1.54102
-1.48909
-0.0475414
-0.161298
-0.0927033
-0.193196
-0.136902
-0.239024
-0.174377
-0.294162
-0.206962
-0.356599
-0.238134
-0.42198
-0.266299
-0.491567
-0.290827
-0.562474
-0.308785
-0.628724
-0.327895
-0.69196
-0.343124
-0.767122
-0.354405
-0.840228
-0.36314
-0.912042
-0.36734
-0.98605
-0.365631
-1.06155
-0.355722
-1.13892
-0.339076
-1.21202
-0.316022
-1.28423
-0.286653
-1.34786
-0.25644
-1.39932
-0.225279
-1.44013
-0.19439
-1.46577
-0.16716
-1.48365
-0.14482
-1.49722
-0.128005
-1.5145
-0.108608
-1.5428
-0.0861786
-1.54985
-0.0602019
-1.55914
-0.0326763
-1.54521
-1.47856
-0.0466271
-0.102125
-0.0924868
-0.138281
-0.134068
-0.189749
-0.17153
-0.245908
-0.202924
-0.310095
-0.232262
-0.377046
-0.258808
-0.446765
-0.281804
-0.517363
-0.300103
-0.582662
-0.316001
-0.64904
-0.3337
-0.72108
-0.348917
-0.79388
-0.360536
-0.866923
-0.367828
-0.941698
-0.369015
-1.01985
-0.363061
-1.09977
-0.350768
-1.17843
-0.331874
-1.2592
-0.305399
-1.3333
-0.274641
-1.39641
-0.243307
-1.44524
-0.212552
-1.47916
-0.183707
-1.50165
-0.158815
-1.51483
-0.136468
-1.53138
-0.115253
-1.55257
-0.0883196
-1.56098
-0.0584499
-1.56463
-0.0312583
-1.54843
-1.47794
-0.0474215
-0.0430363
-0.0903857
-0.0855322
-0.131106
-0.140926
-0.166158
-0.200835
-0.196923
-0.265976
-0.224978
-0.334463
-0.249614
-0.404286
-0.270865
-0.474673
-0.289527
-0.539296
-0.306047
-0.608444
-0.32466
-0.676704
-0.340861
-0.748936
-0.354153
-0.822024
-0.364104
-0.896984
-0.368005
-0.977073
-0.365561
-1.05795
-0.357734
-1.14096
-0.343721
-1.22829
-0.321378
-1.31132
-0.291966
-1.38546
-0.259027
-1.44605
-0.226596
-1.48801
-0.196897
-1.51591
-0.171584
-1.53073
-0.147348
-1.54557
-0.12121
-1.56353
-0.0915127
-1.57367
-0.061345
-1.57621
-0.0319209
-1.5582
-1.49821
-0.046792
0.0156352
-0.0874675
-0.0350183