/*--------------------------------*- C++ -*----------------------------------*\
| =========                 |                                                 |
| \\      /  F ield         | OpenFOAM: The Open Source CFD Toolbox           |
|  \\    /   O peration     | Version:  2112                                  |
|   \\  /    A nd           | Website:  www.openfoam.com                      |
|    \\/     M anipulation  |                                                 |
\*---------------------------------------------------------------------------*/
FoamFile
{
    version     2.0;
    format      ascii;
    arch        "LSB;label=32;scalar=64";
    class       volScalarField;
    location    "0.00851";
    object      nut;
}
// * * * * * * * * * * * * * * * * * * * * * * * * * * * * * * * * * * * * * //

dimensions      [0 2 -1 0 0 0 0];

internalField   nonuniform List<scalar> 
13875
(
0.0511675
0.0366255
0.0343657
0.0343278
0.0342981
0.0343364
0.0342937
0.034276
0.0343125
0.0343095
0.0342833
0.0342887
0.0343211
0.0343418
0.0343305
0.0342933
0.0342676
0.0342893
0.0343023
0.0343266
0.0343038
0.0343341
0.0343821
0.0365577
0.0514345
0.053262
0.0341199
0.0322224
0.0321053
0.0320625
0.0320836
0.0320324
0.0320135
0.0320564
0.0320661
0.0320322
0.0320425
0.0320529
0.0320725
0.0320604
0.032047
0.0320037
0.0320339
0.0320459
0.0320759
0.0320635
0.0321024
0.0322281
0.0340468
0.0536487
0.056457
0.0335618
0.0318031
0.0315923
0.0315687
0.0315765
0.0314672
0.0314296
0.0314655
0.0314776
0.0314423
0.0314603
0.0315298
0.0315559
0.0315346
0.0314644
0.0314078
0.0314445
0.031478
0.0315677
0.0315643
0.0315802
0.0317939
0.0334923
0.0566058
0.0590707
0.0332328
0.0314899
0.0312769
0.031261
0.0312614
0.0311426
0.0311035
0.03113
0.031127
0.0310931
0.031114
0.0312133
0.03124
0.0312183
0.0311165
0.0310725
0.0311019
0.0311463
0.031254
0.0312551
0.0312625
0.0314842
0.0331708
0.0591502
0.0611261
0.0330041
0.0312469
0.0310042
0.0309836
0.0309771
0.0308545
0.0308189
0.0308438
0.0308363
0.030804
0.0308246
0.0309254
0.0309546
0.0309298
0.0308269
0.030786
0.0308143
0.0308592
0.0309688
0.0309766
0.0309898
0.0312297
0.0329221
0.0612589
0.0628187
0.0328484
0.0310903
0.0307738
0.0307501
0.0307263
0.0305942
0.0305602
0.0305816
0.0305708
0.0305409
0.0305607
0.0306638
0.0306949
0.0306677
0.0305623
0.0305256
0.030553
0.0305997
0.0307199
0.0307436
0.0307611
0.0310587
0.0328244
0.0629668
0.0648272
0.0330735
0.0311051
0.0306357
0.030566
0.0305183
0.0303663
0.0303309
0.0303452
0.0303305
0.0303038
0.0303229
0.0304287
0.0304588
0.0304286
0.0303217
0.0302925
0.0303203
0.030376
0.0305122
0.0305601
0.0306332
0.0311135
0.0330712
0.0648575
0.0670938
0.0339369
0.0314264
0.0306544
0.0304817
0.0303653
0.0301824
0.0301315
0.0301368
0.0301194
0.0300964
0.0301106
0.0302206
0.030252
0.030219
0.0301077
0.0300887
0.0301206
0.0301897
0.0303573
0.0304673
0.0306298
0.0313928
0.0338964
0.0673516
0.0736461
0.0362974
0.0320426
0.0308495
0.0304712
0.0302728
0.0300474
0.0299735
0.029964
0.0299427
0.0299267
0.0299364
0.0300504
0.0300832
0.0300495
0.0299349
0.0299226
0.0299581
0.0300439
0.0302597
0.0304504
0.0308024
0.0319358
0.0360017
0.0741918
0.0829012
0.0384728
0.0327387
0.0311909
0.0305764
0.0302382
0.0299792
0.0298896
0.0298636
0.0298388
0.0298281
0.0298366
0.0299485
0.0299822
0.0299505
0.029847
0.0298324
0.0298727
0.0299652
0.0302199
0.0305502
0.031081
0.032624
0.0381062
0.0835493
0.0907261
0.0441459
0.0346518
0.031994
0.0308124
0.0303552
0.0300474
0.0299126
0.029868
0.0298397
0.029828
0.0298359
0.0299401
0.0299748
0.0299516
0.0298728
0.0298561
0.0299033
0.0300351
0.0303037
0.0307942
0.0318814
0.0343631
0.043264
0.0893492
0.0950775
0.0545333
0.0403667
0.0334493
0.0318654
0.0308307
0.0303299
0.030133
0.0300538
0.0300161
0.0299981
0.0300073
0.0300946
0.0301328
0.0301224
0.0300728
0.0300642
0.0301366
0.0303208
0.0308353
0.0317985
0.0332285
0.0398481
0.0533653
0.0942624
0.0866185
0.0689277
0.0514482
0.0417306
0.0343563
0.0319217
0.0312704
0.0308176
0.0306365
0.0305521
0.0305116
0.0305118
0.0305772
0.0306187
0.0306299
0.0306243
0.0306764
0.0308696
0.0313299
0.0320045
0.0347657
0.0415811
0.0509527
0.0687639
0.0866041
0.0796177
0.0660627
0.058123
0.0654286
0.0416544
0.0371415
0.0336228
0.0324251
0.0320323
0.0319758
0.0319427
0.0319382
0.0319968
0.0320397
0.0320666
0.0320921
0.0321399
0.0325324
0.0340756
0.0382567
0.043202
0.0657115
0.0578341
0.0661732
0.0816121
0.0753404
0.0643522
0.0565578
0.0605146
0.0561015
0.0537537
0.0442707
0.0388127
0.0367136
0.0358762
0.0355042
0.0353822
0.0354014
0.0354577
0.0355685
0.0358673
0.036668
0.0389
0.0451652
0.0552087
0.0557423
0.061245
0.056597
0.0641525
0.0746632
0.0671752
0.0618732
0.0542667
0.0571776
0.0560141
0.0571476
0.0544416
0.0530779
0.0507789
0.0482948
0.0474621
0.0471211
0.0470316
0.0471126
0.0472732
0.047775
0.0504276
0.0542708
0.0554358
0.0577102
0.0556107
0.058004
0.054307
0.0614953
0.0664781
0.0624091
0.0582031
0.0524267
0.0549699
0.0567837
0.0611998
0.068086
0.0728832
0.070086
0.070715
0.0730262
0.0745203
0.0752908
0.0749759
0.07346
0.0726585
0.0700593
0.0728471
0.0686672
0.0611955
0.0562997
0.0552953
0.0519609
0.0575754
0.0624356
0.0569992
0.0546669
0.0530084
0.0567956
0.0599442
0.0630323
0.0708451
0.0791326
0.0744111
0.0703485
0.0692403
0.0693639
0.0699014
0.0696281
0.0697955
0.0726939
0.0739492
0.0767421
0.0708435
0.0641491
0.0609341
0.0576397
0.0528068
0.0542593
0.0567859
0.0513527
0.0540911
0.0557333
0.0616677
0.066904
0.064847
0.0673434
0.0751898
0.0744023
0.070487
0.0687122
0.0683474
0.0684421
0.0689309
0.0698458
0.0717653
0.0728843
0.0731262
0.067714
0.0666726
0.0696353
0.062998
0.0562165
0.0543818
0.0521433
0.0493109
0.0572148
0.0602132
0.0657049
0.0687333
0.0645858
0.0639114
0.0695216
0.071916
0.0704985
0.0687433
0.0672167
0.066496
0.068055
0.070042
0.0710015
0.0699285
0.0678138
0.0645301
0.0665032
0.0707076
0.0664428
0.0608316
0.0575791
0.048757
0.0775402
0.0883677
0.0771281
0.0653175
0.0650345
0.061616
0.0606964
0.0655284
0.0694264
0.0695283
0.0676985
0.0652333
0.06406
0.0663767
0.0690639
0.0695304
0.0672277
0.0640936
0.0614443
0.0634232
0.066724
0.0669059
0.0796676
0.0915954
0.0824378
0.128391
0.159151
0.0893937
0.0619919
0.0608903
0.0585936
0.0580364
0.0625426
0.0669941
0.0678734
0.0659376
0.0628393
0.0613978
0.0641058
0.0672735
0.0676058
0.0647496
0.0613688
0.0587054
0.0601706
0.0622778
0.0637381
0.0926354
0.164102
0.13449
0.151583
0.141245
0.0834344
0.0591284
0.0575443
0.0560221
0.0556611
0.0600962
0.0646805
0.0658396
0.0637452
0.0603204
0.0586845
0.0615159
0.0650276
0.0655018
0.0624451
0.0590843
0.0562278
0.0572562
0.0586312
0.0606086
0.0833622
0.14195
0.152687
0.159826
0.141902
0.0761106
0.0569667
0.0547404
0.053666
0.0536109
0.0578673
0.0624397
0.0636346
0.0613091
0.0576969
0.056102
0.0589714
0.0626892
0.063393
0.0601966
0.0568341
0.0541502
0.0547866
0.0558276
0.0584799
0.0772615
0.148664
0.15991
0.165377
0.143229
0.0721771
0.055401
0.0526661
0.051676
0.0519469
0.0559017
0.0602478
0.06135
0.0589373
0.0552673
0.0537114
0.0565476
0.0603891
0.0612044
0.0581083
0.054828
0.0523611
0.0526892
0.053793
0.0569371
0.074065
0.152806
0.16654
0.172593
0.146963
0.0695339
0.0539151
0.0510403
0.0499887
0.0505899
0.0541865
0.058159
0.0590993
0.0566922
0.0530417
0.0515137
0.0542481
0.0580539
0.0589926
0.0561837
0.053063
0.0507775
0.0507946
0.0521158
0.0552699
0.0712877
0.155905
0.176057
0.182006
0.143682
0.0664579
0.0525112
0.0497781
0.0486189
0.0494531
0.052679
0.0561318
0.056783
0.0544303
0.0509704
0.0495306
0.0522123
0.055943
0.0569153
0.0544325
0.0515206
0.0494116
0.0492812
0.0508865
0.053952
0.0688847
0.154314
0.183378
0.187781
0.143404
0.0646891
0.0514325
0.0488006
0.0475529
0.0484586
0.0513194
0.0542836
0.0546919
0.0524295
0.0491229
0.0477247
0.0502914
0.0538687
0.0549178
0.052832
0.0501834
0.0482596
0.0480894
0.0497969
0.0527651
0.067179
0.154926
0.190828
0.192849
0.145596
0.0636356
0.0505551
0.0480064
0.0468048
0.0475993
0.050084
0.0525736
0.0527535
0.0506079
0.047467
0.0460936
0.0485173
0.0518864
0.0529749
0.0513276
0.0489865
0.0472611
0.0471225
0.0488065
0.0517209
0.0653468
0.150121
0.198601
0.199793
0.142911
0.062716
0.049857
0.0472309
0.0462097
0.0469412
0.0489786
0.0509297
0.0508435
0.0488093
0.0459042
0.044614
0.0469834
0.0502143
0.0512977
0.0499643
0.047921
0.0464404
0.0463592
0.0479077
0.0509623
0.0646506
0.150527
0.202494
0.202033
0.139296
0.0621931
0.0494551
0.046557
0.045648
0.0463228
0.0479626
0.0494637
0.0491847
0.0472726
0.0445371
0.0432823
0.0455274
0.048569
0.0496556
0.0486984
0.0470013
0.0457763
0.045683
0.0470243
0.0503721
0.0636968
0.145058
0.208243
0.204479
0.139195
0.062165
0.0493446
0.0459443
0.0450849
0.0457402
0.0470561
0.0481658
0.0477258
0.0459033
0.0433007
0.0420774
0.0441923
0.0470885
0.0482124
0.04755
0.0461758
0.0451501
0.0450103
0.0462575
0.0500479
0.0631102
0.141539
0.21064
0.208627
0.134868
0.061857
0.049427
0.0454749
0.0446175
0.0451493
0.0461962
0.0468996
0.046308
0.0445818
0.0421511
0.0409959
0.0430446
0.04581
0.0469137
0.0464993
0.0454207
0.044522
0.0444294
0.0456745
0.0499846
0.063018
0.140766
0.212203
0.209751
0.132474
0.0616823
0.0497307
0.0451901
0.0441899
0.0445164
0.0454003
0.0457913
0.0450913
0.0434489
0.0411275
0.0400094
0.0419382
0.0445861
0.0457177
0.0455216
0.0447243
0.04391
0.0439092
0.0452664
0.0500842
0.0629677
0.137151
0.214553
0.210803
0.131929
0.0613802
0.0501068
0.0452477
0.0437975
0.0439353
0.0446288
0.0447791
0.0439794
0.0424163
0.0401999
0.0391255
0.0409498
0.0434683
0.0446065
0.0446028
0.0440316
0.0433402
0.0435018
0.0451644
0.0503665
0.0625774
0.135003
0.215296
0.212978
0.129968
0.0609752
0.0505012
0.0455079
0.043495
0.0433872
0.0438537
0.0438231
0.0429492
0.0414314
0.0393268
0.0383111
0.040067
0.042517
0.0436542
0.043763
0.0433367
0.042826
0.0431479
0.0453411
0.0507703
0.0623701
0.135075
0.216243
0.21334
0.130012
0.0607928
0.0513163
0.0459862
0.0433249
0.0429201
0.0431258
0.0429294
0.0420316
0.0405719
0.0385551
0.0375782
0.0392323
0.0415809
0.0427154
0.0429463
0.042687
0.0423549
0.0429069
0.0457036
0.0513899
0.0618503
0.132835
0.217698
0.213324
0.13233
0.0606229
0.0520766
0.0466289
0.0433694
0.0424685
0.0424457
0.042112
0.0412037
0.0397961
0.0378458
0.0369047
0.0384645
0.0407425
0.0418725
0.0421665
0.0420796
0.0419092
0.0428991
0.0462894
0.0521828
0.0613574
0.133197
0.218029
0.213711
0.132326
0.0600697
0.0522472
0.0474998
0.0436408
0.0421463
0.0418404
0.0413267
0.0403972
0.0390381
0.0371823
0.0362968
0.0378007
0.0399982
0.041096
0.0414634
0.0415393
0.0415702
0.0430852
0.047142
0.0526033
0.0609928
0.136496
0.217929
0.212845
0.134301
0.0595826
0.0522421
0.0486517
0.0440899
0.0419793
0.0413189
0.0406444
0.0396943
0.0383778
0.0365788
0.0357302
0.0371484
0.0392812
0.0403707
0.0407996
0.0410787
0.0414223
0.04349
0.0480402
0.0524978
0.0606145
0.139004
0.217593
0.212352
0.136745
0.0593988
0.0521265
0.0499937
0.0448066
0.0420159
0.040948
0.0400449
0.0390459
0.0377603
0.0360204
0.0352146
0.0365604
0.0386068
0.0396966
0.0402257
0.0407408
0.0414963
0.0440944
0.0496072
0.0524333
0.0604476
0.142047
0.216343
0.212517
0.138434
0.0590977
0.0516996
0.0505862
0.045693
0.0421883
0.0407762
0.0395524
0.0384527
0.0371699
0.035489
0.0347297
0.0360252
0.038035
0.0391216
0.039758
0.0405527
0.0416651
0.045021
0.0507177
0.0522903
0.0611452
0.144382
0.215176
0.211819
0.140589
0.0590628
0.0511588
0.0505683
0.0471396
0.0425994
0.0407633
0.0392127
0.0379439
0.0366474
0.0350115
0.0342856
0.035512
0.0374611
0.0385818
0.0394029
0.040552
0.0420348
0.0462251
0.0507963
0.0517466
0.0607559
0.14583
0.214862
0.211338
0.142883
0.0600349
0.0506492
0.0501862
0.048749
0.0433479
0.0408424
0.0390582
0.0375609
0.0361949
0.0345693
0.0338674
0.0350359
0.0369554
0.0381383
0.0391969
0.0406683
0.0427751
0.0481777
0.0505313
0.051154
0.0609303
0.147791
0.21414
0.211139
0.144891
0.0600128
0.0501068
0.049587
0.0494545
0.0446368
0.0411167
0.0389957
0.0373096
0.0358003
0.0341688
0.0334943
0.0346286
0.0365483
0.037846
0.0391449
0.0409597
0.044189
0.0494017
0.0500388
0.050735
0.0620998
0.150087
0.213683
0.210249
0.146783
0.0611319
0.0498003
0.0488969
0.0491439
0.046793
0.0418437
0.039077
0.0372333
0.0355774
0.0338649
0.0331811
0.0342898
0.0362745
0.0377256
0.0391877
0.0415803
0.0462559
0.0492151
0.0493797
0.0502753
0.0627946
0.151984
0.213345
0.20921
0.148715
0.0626233
0.049717
0.0483064
0.048654
0.0480322
0.0435093
0.0393232
0.0371969
0.0354864
0.0337025
0.0329351
0.034094
0.0361491
0.0376899
0.0393801
0.0431058
0.0478244
0.048759
0.0487456
0.0501077
0.0639966
0.153361
0.212356
0.207215
0.149881
0.0632869
0.0496101
0.0478271
0.0480333
0.0477521
0.0458117
0.0401329
0.0372461
0.0354473
0.03364
0.0328167
0.0340232
0.0361181
0.0377454
0.0401424
0.0454533
0.0478415
0.0481185
0.048259
0.0502874
0.0656817
0.154038
0.210024
0.20385
0.149935
0.0641975
0.0496719
0.0474473
0.0473299
0.047297
0.0473141
0.0419351
0.0375591
0.0354848
0.033641
0.0328179
0.0340136
0.0361257
0.0379946
0.0417633
0.0473496
0.047433
0.0473808
0.0478249
0.0503872
0.0660837
0.15376
0.206723
0.195025
0.146857
0.0649158
0.0497838
0.0471661
0.0467493
0.0467484
0.0470878
0.0445382
0.0386943
0.0357002
0.0336792
0.0328478
0.0340282
0.0362846
0.0389423
0.0444042
0.0474793
0.046903
0.0467517
0.0474653
0.0503786
0.0662341
0.150487
0.197793
0.307223
0.991254
1.22825
1.22366
1.16828
1.10294
1.04078
0.958629
0.85662
0.761026
0.67041
0.585874
0.516318
0.469485
0.443186
0.431119
0.425952
0.423505
0.421339
0.417005
0.409587
0.398705
0.384938
0.369419
0.350589
0.327291
0.299773
0.261576
0.20171
0.118615
0.296692
1.05219
1.30248
1.29968
1.24992
1.18779
1.12027
1.02642
0.907593
0.79639
0.693023
0.600239
0.524955
0.473436
0.443942
0.428858
0.421214
0.416545
0.41244
0.406949
0.398544
0.387533
0.37426
0.358222
0.339941
0.318292
0.291382
0.254059
0.195503
0.11644
0.319576
1.17779
1.4034
1.38656
1.34425
1.28544
1.21212
1.1027
0.970038
0.844314
0.726753
0.62409
0.541117
0.483208
0.448342
0.428877
0.417907
0.410638
0.404316
0.397507
0.388598
0.377323
0.364206
0.34846
0.331
0.310709
0.283891
0.247289
0.190107
0.114772
0.340321
1.28033
1.50681
1.4955
1.45975
1.40113
1.31927
1.19612
1.04714
0.906764
0.775009
0.659756
0.566039
0.498955
0.456729
0.431501
0.416543
0.406105
0.397325
0.389157
0.379949
0.368553
0.355692
0.340188
0.323307
0.303249
0.277213
0.241096
0.185001
0.113287
0.352128
1.37001
1.62364
1.62173
1.5892
1.5285
1.43475
1.29815
1.13553
0.981071
0.835553
0.706153
0.599961
0.521246
0.469285
0.43688
0.41626
0.402781
0.391878
0.381998
0.371947
0.36068
0.347954
0.333199
0.316664
0.29672
0.271282
0.235555
0.180548
0.111906
0.363814
1.47193
1.75259
1.75786
1.7216
1.65213
1.54576
1.39778
1.22385
1.05919
0.902606
0.760669
0.641192
0.549155
0.485656
0.444493
0.418669
0.400975
0.387627
0.376304
0.365492
0.354004
0.341473
0.327323
0.310968
0.291094
0.265993
0.230484
0.176367
0.110582
0.37669
1.58147
1.88931
1.89684
1.84999
1.76641
1.64583
1.48791
1.30629
1.13548
0.971971
0.819714
0.687288
0.581667
0.505488
0.454881
0.422736
0.400675
0.384596
0.371771
0.360421
0.348879
0.336315
0.322329
0.306066
0.286237
0.261385
0.226052
0.172698
0.10945
0.391099
1.6979
2.03203
2.0351
1.96971
1.86677
1.73045
1.56372
1.37887
1.20647
1.03972
0.880191
0.736491
0.617653
0.528809
0.468095
0.428574
0.401856
0.382841
0.368784
0.356646
0.344875
0.332481
0.31834
0.302006
0.282139
0.257429
0.222218
0.169531
0.108471
0.405146
1.81536
2.17349
2.16772
2.07801
1.9535
1.8022
1.62868
1.44316
1.27143
1.10399
0.940056
0.787357
0.656584
0.555077
0.483642
0.43619
0.404388
0.382929
0.367073
0.353698
0.341579
0.329233
0.315296
0.298781
0.278894
0.254102
0.219047
0.166938
0.107751
0.41759
1.93026
2.31062
2.29073
2.17718
2.03083
1.86829
1.68848
1.5028
1.33184
1.16498
0.998926
0.839348
0.698023
0.584474
0.501745
0.445484
0.409042
0.384411
0.366364
0.351905
0.339155
0.326603
0.312796
0.296527
0.276572
0.251411
0.216359
0.164848
0.107231
0.427933
2.03899
2.43969
2.40961
2.27126
2.10689
1.93551
1.74813
1.56154
1.39142
1.22486
1.05763
0.893605
0.743352
0.617776
0.52296
0.45766
0.415353
0.386987
0.366632
0.350936
0.33763
0.324754
0.310791
0.293939
0.274104
0.249289
0.214018
0.162909
0.106866
0.436782
2.13918
2.56739
2.52738
2.36694
2.18664
2.00645
1.81026
1.62224
1.45364
1.28752
1.11918
0.951539
0.793723
0.656426
0.54853
0.473167
0.423517
0.39101
0.368241
0.350996
0.336924
0.323623
0.308725
0.291848
0.271896
0.246872
0.211859
0.161097
0.106519
0.445711
2.23646
2.69672
2.64489
2.46443
2.27134
2.08326
1.87781
1.68827
1.52164
1.35562
1.18597
1.01506
0.850307
0.701684
0.580392
0.492817
0.434467
0.396928
0.371244
0.352313
0.336842
0.32267
0.307279
0.290162
0.269949
0.244729
0.209788
0.159413
0.106075
0.455746
2.33197
2.82153
2.75876
2.56415
2.3613
2.16829
1.95327
1.76262
1.59666
1.43059
1.26001
1.08631
0.915214
0.755621
0.620611
0.518534
0.449496
0.405161
0.375648
0.354423
0.337295
0.321842
0.306132
0.288859
0.26823
0.242659
0.207568
0.157994
0.105855
0.46499
2.42533
2.93837
2.87094
2.66556
2.4575
2.26036
2.03654
1.84572
1.68009
1.51425
1.34296
1.16688
0.989933
0.820136
0.671091
0.552644
0.470107
0.416372
0.381571
0.357147
0.33792
0.320874
0.304451
0.287078
0.266431
0.240573
0.205407
0.15633
0.105711
0.472518
2.50726
3.04226
2.97728
2.77106
2.56322
2.35632
2.12715
1.93956
1.77382
1.6081
1.43598
1.2575
1.07512
0.897113
0.733365
0.597496
0.498265
0.431909
0.389521
0.360575
0.338583
0.319931
0.302942
0.285618
0.264541
0.238528
0.203226
0.154577
0.105737
0.479581
2.57707
3.13086
3.07383
2.87531
2.67704
2.45701
2.22601
2.04167
1.87659
1.71169
1.53953
1.35914
1.17223
0.985971
0.808879
0.655154
0.536348
0.453537
0.400308
0.365266
0.339897
0.319769
0.302085
0.283951
0.262755
0.236557
0.201098
0.152906
0.105593
0.48588
2.63525
3.20611
3.16023
2.97586
2.79077
2.56298
2.33318
2.15262
1.98988
1.82633
1.65382
1.47127
1.28117
1.08775
0.898873
0.727735
0.586812
0.483321
0.415722
0.372433
0.342828
0.320796
0.301736
0.282652
0.26124
0.234768
0.199086
0.151487
0.105499
0.494026
2.67498
3.26455
3.23514
3.0698
2.89976
2.67672
2.44992
2.27325
2.11296
1.95051
1.77761
1.59389
1.40142
1.20227
1.00326
0.815415
0.652104
0.524684
0.438127
0.383176
0.34785
0.322881
0.302238
0.282285
0.260161
0.233387
0.197303
0.150032
0.105578
0.498877
2.69495
3.29952
3.294
3.15662
3.00705
2.79393
2.57482
2.40413
2.24696
2.08484
1.91168
1.72814
1.53316
1.32894
1.12073
0.918236
0.73315
0.579699
0.469162
0.397968
0.355014
0.326029
0.303518
0.282526
0.259737
0.232512
0.195877
0.148964
0.105662
0.505199
2.68805
3.29615
3.32847
3.23373
3.10997
2.91369
2.70948
2.54561
2.39171
2.22956
2.05732
1.87363
1.67653
1.46723
1.25045
1.03529
0.829484
0.648796
0.510464
0.419535
0.365214
0.330607
0.305315
0.283054
0.259524
0.231769
0.194988
0.148205
0.105818
0.507576
2.66056
3.25175
3.33284
3.29634
3.20912
3.03597
2.85284
2.69844
2.54702
2.38525
2.21443
2.03028
1.82997
1.61473
1.38839
1.15936
0.93457
0.731189
0.565226
0.450249
0.379724
0.336742
0.30722
0.283173
0.258856
0.230846
0.194362
0.14763
0.106008
0.512748
2.58717
3.15433
3.29755
3.33678
3.30239
3.16288
3.00449
2.86127
2.71371
2.55382
2.38175
2.19613
1.98985
1.76677
1.52998
1.28908
1.05157
0.828527
0.636285
0.492951
0.400579
0.345374
0.309921
0.283522
0.258375
0.230253
0.193666
0.146958
0.10621
0.511706
2.42476
2.97577
3.20809
3.35
3.38587
3.29257
3.16314
3.03335
2.89122
2.73346
2.5614
2.36846
2.15257
1.91982
1.67789
1.42946
1.18088
0.941659
0.724736
0.550541
0.430919
0.358768
0.315081
0.285412
0.259068
0.230199
0.19315
0.146262
0.106431
0.499682
1.96212
2.61164
3.03395
3.32782
3.45377
3.42063
3.32521
3.21203
3.07827
2.92537
2.74685
2.54445
2.31899
2.08391
1.83758
1.5829
1.32354
1.06943
0.830415
0.625481
0.474267
0.379586
0.324195
0.289386
0.261072
0.230552
0.192875
0.145702
0.106652
0.118204
0.200734
0.260612
0.299119
0.326658
0.349091
0.368141
0.384449
0.398087
0.408514
0.415901
0.42017
0.422264
0.425102
0.431238
0.446001
0.476524
0.530053
0.608514
0.701039
0.801105
0.904977
1.01291
1.09657
1.15997
1.22681
1.28277
1.28835
1.03587
0.314569
0.116032
0.19457
0.253118
0.29074
0.31757
0.33917
0.357434
0.373262
0.386673
0.397786
0.405709
0.411205
0.415448
0.420668
0.429625
0.447593
0.481633
0.540284
0.625587
0.727606
0.841132
0.961596
1.08625
1.18147
1.25013
1.31283
1.36336
1.36623
1.09932
0.303934
0.114386
0.189216
0.246424
0.283291
0.309515
0.330384
0.347737
0.363246
0.376497
0.387724
0.396263
0.403116
0.409776
0.417728
0.430345
0.452903
0.492755
0.558278
0.651325
0.764347
0.892209
1.02862
1.16777
1.2778
1.35254
1.4114
1.45436
1.47052
1.23033
0.327128
0.112942
0.184204
0.240331
0.27666
0.302413
0.32285
0.339799
0.354689
0.367781
0.379088
0.388399
0.39679
0.405802
0.416831
0.43378
0.462582
0.511015
0.586285
0.689331
0.81446
0.957302
1.10848
1.26484
1.38873
1.47222
1.53179
1.56825
1.57752
1.33592
0.348655
0.111587
0.179832
0.234914
0.270807
0.296198
0.316339
0.332948
0.347385
0.360315
0.371654
0.381727
0.391662
0.402892
0.41749
0.439753
0.476462
0.535106
0.62221
0.73767
0.876271
1.03232
1.1974
1.3681
1.5044
1.60094
1.66472
1.6988
1.69805
1.42842
0.360566
0.11028
0.175755
0.229974
0.265643
0.290846
0.310704
0.327049
0.341223
0.35395
0.365493
0.376284
0.387728
0.401451
0.420324
0.448387
0.493305
0.563618
0.663782
0.792119
0.942958
1.10831
1.28291
1.46459
1.61349
1.72436
1.79865
1.83808
1.8302
1.5329
0.372041
0.109176
0.172237
0.225687
0.261182
0.286319
0.30602
0.322207
0.336135
0.348718
0.360406
0.372055
0.385136
0.401869
0.424997
0.459681
0.514289
0.59641
0.709563
0.849891
1.00934
1.18036
1.36079
1.54935
1.70796
1.83423
1.92637
1.97856
1.96962
1.64385
0.385636
0.10824
0.169248
0.222014
0.257417
0.28259
0.302348
0.318495
0.332256
0.344664
0.356688
0.368718
0.383989
0.403881
0.431515
0.473246
0.537571
0.63186
0.757397
0.908076
1.07383
1.24529
1.42605
1.61732
1.78478
1.92896
2.04206
2.11782
2.11389
1.76103
0.399355
0.107565
0.166746
0.218983
0.254352
0.279571
0.299482
0.315729
0.329567
0.341763
0.354103
0.367156
0.383985
0.407197
0.439712
0.488877
0.563117
0.66911
0.805455
0.963802
1.1326
1.30347
1.48241
1.67413
1.84867
2.00892
2.14617
2.24821
2.25609
1.87827
0.413391
0.107073
0.164718
0.216438
0.251816
0.276992
0.296964
0.313361
0.327672
0.340045
0.352419
0.366601
0.385181
0.411296
0.449311
0.506709
0.591412
0.708585
0.853974
1.01717
1.1865
1.35748
1.53456
1.72629
1.90783
2.08017
2.24139
2.37025
2.39196
1.99167
0.425668
0.106646
0.162728
0.214086
0.249541
0.274684
0.294646
0.311292
0.325762
0.33881
0.351529
0.367091
0.38777
0.417035
0.460412
0.526685
0.623089
0.75122
0.904398
1.07068
1.23976
1.40997
1.58637
1.78008
1.96881
2.15097
2.33193
2.48799
2.52171
2.09872
0.43555
0.106176
0.160699
0.211613
0.247279
0.272587
0.292756
0.30958
0.323978
0.337628
0.351698
0.368862
0.391613
0.424702
0.474924
0.55056
0.659103
0.797706
0.957206
1.1261
1.29617
1.46486
1.64041
1.83647
2.03419
2.22537
2.42389
2.60409
2.64999
2.19847
0.444634
0.105872
0.158894
0.209226
0.245003
0.270792
0.291255
0.308308
0.323047
0.337061
0.35276
0.371553
0.397314
0.434944
0.49282
0.580064
0.700867
0.849721
1.01532
1.18713
1.35836
1.52699
1.70055
1.89839
2.10714
2.30608
2.51907
2.71995
2.77842
2.29451
0.453274
0.105667
0.157536
0.207251
0.242978
0.269171
0.289896
0.30717
0.322715
0.337636
0.354928
0.376076
0.405299
0.449092
0.516726
0.616872
0.750354
0.909304
1.08089
1.25575
1.42843
1.59729
1.76973
1.96766
2.18812
2.39445
2.61536
2.83222
2.90213
2.38887
0.463163
0.105505
0.156139
0.205396
0.241098
0.267547
0.288591
0.30615
0.322282
0.339108
0.358072
0.382153
0.416155
0.468399
0.548623
0.663575
0.810552
0.978702
1.15592
1.33358
1.50756
1.67723
1.84932
2.04655
2.27791
2.48834
2.71407
2.94032
3.01752
2.48119
0.472255
0.105422
0.154695
0.203583
0.239335
0.265833
0.286948
0.304811
0.321793
0.34035
0.361908
0.390055
0.430915
0.494515
0.590627
0.722453
0.883034
1.05954
1.24231
1.42228
1.59715
1.76662
1.93896
2.13465
2.37168
2.58949
2.8177
3.04797
3.12314
2.56234
0.479678
0.105424
0.15327
0.20175
0.237513
0.2641
0.285318
0.303706
0.321774
0.342068
0.366864
0.400601
0.451329
0.530295
0.644819
0.794725
0.968485
1.15325
1.34032
1.52257
1.69752
1.86577
2.03694
2.23088
2.47131
2.70143
2.92227
3.14542
3.21247
2.63117
0.486426
0.105437
0.15185
0.19988
0.235776
0.262528
0.284211
0.303392
0.322819
0.345061
0.373823
0.415201
0.479864
0.578122
0.713985
0.881445
1.06715
1.25888
1.44847
1.63274
1.80835
1.97617
2.14597
2.33539
2.57765
2.81677
3.02417
3.2323
3.28618
2.68854
0.492404
0.105438
0.150571
0.198306
0.234594
0.261589
0.283944
0.304004
0.325164
0.350108
0.38418
0.436033
0.518752
0.640237
0.798632
0.982597
1.17922
1.37687
1.56959
1.75452
1.93025
2.09714
2.26387
2.44949
2.69131
2.92988
3.12039
3.30687
3.34228
2.72675
0.500325
0.105511
0.149759
0.197296
0.234146
0.261529
0.284902
0.305559
0.328519
0.35718
0.399296
0.465999
0.570877
0.717907
0.898398
1.09733
1.30409
1.50774
1.70302
1.88771
2.06304
2.22955
2.39348
2.57502
2.80999
3.03947
3.20905
3.36608
3.37627
2.74729
0.504381
0.105674
0.149401
0.196749
0.233936
0.261891
0.285852
0.307875
0.333067
0.367144
0.419918
0.506239
0.638161
0.812237
1.01294
1.22562
1.44178
1.65153
1.8493
2.03363
2.20711
2.37362
2.53527
2.71136
2.93285
3.14565
3.28703
3.40179
3.3734
2.7401
0.510569
0.105902
0.149219
0.196548
0.233617
0.261839
0.286481
0.310493
0.339418
0.381265
0.449281
0.559374
0.719213
0.91762
1.13841
1.3654
1.59129
1.8076
2.00787
2.19198
2.36375
2.52979
2.68955
2.85819
3.05949
3.24818
3.35182
3.4073
3.32877
2.71236
0.513011
0.106166
0.148873
0.196264
0.233162
0.261767
0.287406
0.313866
0.348543
0.401901
0.490722
0.628858
0.815614
1.03396
1.26849
1.50832
1.74472
1.96882
2.17431
2.36026
2.53278
2.69853
2.85543
3.01338
3.19057
3.34672
3.39602
3.37275
3.22999
2.63855
0.518159
0.106409
0.148129
0.195979
0.233387
0.262854
0.289408
0.319306
0.362094
0.431857
0.547098
0.716312
0.928412
1.1635
1.40937
1.65673
1.89822
2.12895
2.34438
2.53903
2.71361
2.87766
3.03027
3.17613
3.32516
3.43628
3.41402
3.28421
3.04939
2.47321
0.517426
0.106596
0.14726
0.195689
0.234128
0.265063
0.293269
0.328279
0.382639
0.474305
0.620649
0.82041
1.05639
1.30737
1.56477
1.81789
2.06214
2.29732
2.52048
2.72466
2.90548
3.06661
3.21266
3.34309
3.45821
3.50969
3.39727
3.11141
2.68004
1.9995
0.505809
0.311321
0.298456
0.285947
0.27565
0.267971
0.263763
0.26281
0.265636
0.2721
0.282227
0.295725
0.312133
0.330921
0.351479
0.373144
0.395545
0.418104
0.440239
0.461539
0.481673
0.500803
0.518721
0.535529
0.551081
0.565462
0.578838
0.591223
0.602629
0.613105
0.622671
0.631346
0.639178
0.646104
0.652085
0.657006
0.660917
0.663815
0.665767
0.666653
0.666437
0.665107
0.662633
0.65898
0.654126
0.648017
0.640614
0.6319
0.621949
0.611161
0.5993
0.586391
0.572546
0.557941
0.542661
0.526793
0.510399
0.493613
0.476527
0.459275
0.441962
0.424657
0.4074
0.390175
0.372918
0.355587
0.338184
0.32075
0.303365
0.286123
0.26912
0.252456
0.236232
0.220548
0.205514
0.191249
0.17787
0.165492
0.154217
0.144125
0.135244
0.127562
0.121034
0.115584
0.111115
0.107511
0.104644
0.102393
0.100645
0.0993063
0.0982991
0.097562
0.0970454
0.0967095
0.0965216
0.0964549
0.096491
0.0966248
0.0968538
0.0971601
0.097558
0.098052
0.0985974
0.0991507
0.0997282
0.100285
0.100851
0.101413
0.101992
0.1026
0.103195
0.103619
0.1041
0.104554
0.105107
0.105815
0.106436
0.10695
0.107245
0.10738
0.107418
0.107325
0.107139
0.106965
0.106721
0.106623
2.68046
2.62136
2.53882
2.4825
2.44777
2.45534
2.49947
2.58175
2.70153
2.85982
3.05232
3.27583
3.52542
3.79509
4.07487
4.34845
4.61246
4.86509
5.10384
5.32602
5.52921
5.71416
5.88035
6.02928
6.16248
6.28077
6.38497
6.47594
6.55415
6.62071
6.67699
6.72325
6.7597
6.78683
6.8051
6.81487
6.81662
6.81079
6.79704
6.77536
6.74579
6.70817
6.66252
6.60892
6.54809
6.48003
6.40463
6.3196
6.21886
6.10446
5.97794
5.8423
5.70216
5.55555
5.40254
5.24421
5.08334
4.92106
4.75833
4.59577
4.4335
4.27182
4.11074
3.94963
3.78715
3.62305
3.45697
3.28898
3.11871
2.94611
2.77108
2.59344
2.41325
2.23116
2.0483
1.86629
1.68718
1.51365
1.34845
1.19387
1.05139
0.922163
0.806821
0.705399
0.617444
0.541997
0.477921
0.423894
0.378593
0.34081
0.309389
0.283318
0.261665
0.243663
0.228618
0.21596
0.205231
0.196156
0.188524
0.182132
0.176811
0.172298
0.168445
0.165035
0.162009
0.159477
0.157444
0.155764
0.154609
0.1535
0.15217
0.150596
0.149193
0.14843
0.148163
0.148376
0.148034
0.147589
0.147187
0.146975
0.146997
0.146864
0.146498
0.146235
0.146555
4.99474
4.91658
4.80631
4.71575
4.66469
4.6706
4.73634
4.86241
5.04955
5.29572
5.59475
5.93866
6.3175
6.72
7.13404
7.54749
7.94713
8.32734
8.68422
9.01469
9.31721
9.59019
9.83374
10.0494
10.2389
10.4036
10.5461
10.6672
10.7696
10.855
10.9239
10.9774
11.0162
11.0409
11.0519
11.0497
11.0346
11.007
10.9669
10.9143
10.8496
10.7728
10.6841
10.5833
10.4715
10.3494
10.2166
10.0731
9.91831
9.75212
9.57437
9.38412
9.18156
8.9688
8.7477
8.52053
8.29139
8.05898
7.82363
7.58591
7.34628
7.10544
6.86309
6.61707
6.36784
6.11536
5.85974
5.60122
5.34008
5.07654
4.81127
4.54509
4.27901
4.01428
3.75239
3.49482
3.24313
2.99891
2.76348
2.53773
2.32241
2.11784
1.92434
1.74219
1.57178
1.41328
1.26693
1.1327
1.01062
0.900577
0.802446
0.715931
0.640278
0.574625
0.518081
0.469723
0.428521
0.393569
0.364012
0.339143
0.31822
0.300524
0.285493
0.272465
0.261344
0.252059
0.244493
0.238401
0.233298
0.227964
0.222941
0.218195
0.214055
0.210969
0.209303
0.207792
0.205623
0.203647
0.202097
0.200549
0.198979
0.197418
0.195973
0.195185
0.195347
6.90347
6.82811
6.72332
6.64131
6.61009
6.64543
6.75167
6.93039
7.18055
7.49714
7.87101
8.2905
8.74237
9.21288
9.68871
10.1579
10.6094
11.0325
11.4235
11.7809
12.1032
12.3901
12.6424
12.8622
13.0521
13.2137
13.3509
13.4658
13.5603
13.6363
13.6949
13.7371
13.7638
13.7753
13.7721
13.7545
13.7229
13.6778
13.6193
13.548
13.4644
13.3688
13.2617
13.1436
13.0151
12.8766
12.7284
12.5705
12.403
12.226
12.0386
11.8439
11.6414
11.4311
11.2136
10.9883
10.7541
10.5139
10.2684
10.0176
9.76169
9.50185
9.23777
8.96752
8.69028
8.40589
8.11479
7.81812
7.51497
7.20686
6.89477
6.57971
6.2627
5.94496
5.6277
5.31233
5.00019
4.69277
4.39164
4.09873
3.81523
3.54249
3.28196
3.0345
2.80062
2.58019
2.37325
2.17866
1.99572
1.82382
1.6627
1.51243
1.37287
1.24393
1.12545
1.01719
0.919062
0.831021
0.75262
0.683475
0.622756
0.569967
0.52394
0.483262
0.447837
0.417448
0.391944
0.370339
0.351556
0.333459
0.316754
0.301863