/*--------------------------------*- C++ -*----------------------------------*\
| =========                 |                                                 |
| \\      /  F ield         | OpenFOAM: The Open Source CFD Toolbox           |
|  \\    /   O peration     | Version:  2112                                  |
|   \\  /    A nd           | Website:  www.openfoam.com                      |
|    \\/     M anipulation  |                                                 |
\*---------------------------------------------------------------------------*/
FoamFile
{
    version     2.0;
    format      ascii;
    arch        "LSB;label=32;scalar=64";
    class       volScalarField;
    location    "0.00973";
    object      T;
}
// * * * * * * * * * * * * * * * * * * * * * * * * * * * * * * * * * * * * * //

dimensions      [0 0 0 1 0 0 0];

internalField   nonuniform List<scalar> 
13875
(
1412
1535.57
1482.39
1487.76
1481.98
1484.1
1484.1
1483.94
1484.44
1484.29
1484.14
1484.13
1483.63
1483.94
1483.84
1483.85
1483.43
1484.73
1484.87
1483.12
1481.88
1487.67
1480.54
1532.58
1396.81
1307.02
1356.17
1318.9
1322.14
1316.57
1318.75
1322.19
1323
1323.53
1323.43
1323.25
1323.26
1318.18
1317.69
1318.36
1322.76
1322.95
1323.48
1322.32
1317.82
1316.7
1321.9
1319.6
1355.97
1303.57
1307.24
1340.06
1314.27
1311.81
1305.29
1305.96
1305.92
1305.83
1305.88
1304.62
1304.79
1306.06
1303.87
1304.06
1303.91
1305.77
1303.89
1305.95
1306.03
1305.08
1304.86
1311.07
1311.37
1336.28
1298.19
1317.37
1344.79
1314.62
1308.66
1306.04
1306
1305.06
1304.1
1303.76
1303.06
1302.73
1303.5
1303.95
1304.1
1304.06
1303.45
1302.43
1303.5
1304.21
1305.48
1305.35
1307.69
1313.95
1343.89
1311.95
1329.52
1342.1
1315.68
1312.39
1305
1306.05
1305.76
1304.12
1303.81
1303.19
1302.79
1303.4
1303.85
1304.24
1303.84
1303.3
1302.52
1304
1305.2
1304.87
1304.75
1311.75
1312
1338.34
1315.93
1332.2
1351.12
1318.8
1309.83
1308.05
1307
1305.19
1304.43
1303.76
1303.38
1302.93
1303.59
1304.14
1304.52
1304.31
1303.56
1302.64
1303.56
1304.27
1306.56
1307.27
1308.43
1319.02
1348.96
1325.91
1338.98
1360.45
1328.98
1317.45
1308.11
1307.63
1306.65
1304.4
1304.36
1303.86
1303.43
1303.63
1304.31
1304.85
1304.24
1303.58
1303.17
1304.59
1306.19
1306.48
1307.79
1317.61
1325.71
1358.14
1321.32
1359.71
1384.68
1344.04
1321.11
1316.7
1310.41
1306.7
1305.01
1305.06
1304.6
1303.98
1304.15
1305.03
1305.52
1305.22
1304.19
1303.76
1304.96
1306.17
1309.99
1315.3
1320.38
1341.53
1380.9
1350.34
1537.18
1508.35
1387.06
1350.39
1322
1315.8
1310.81
1306.7
1306.84
1306.3
1305.42
1305.28
1306.17
1306.87
1306.33
1305.65
1305.63
1307.26
1310.54
1314.2
1321.3
1349.22
1382.72
1505.63
1521.91
1834.82
1574.41
1427.1
1358.42
1338.42
1320.88
1313.83
1310.39
1309.85
1309.16
1308.09
1307.91
1308.77
1309.55
1309.18
1308.57
1308.84
1310.95
1314.09
1320.58
1337.05
1357.15
1424.84
1566.52
1827.08
2507.06
1804.19
1517.25
1406.62
1349.97
1331.73
1325.44
1317.5
1316.42
1315.07
1313.54
1313.19
1313.89
1314.86
1314.72
1314.62
1315.16
1317.73
1326.15
1330.04
1348.69
1419.36
1502.12
1797.8
2429.19
2812.05
2301.15
1735.07
1462.94
1426.02
1361.14
1339.56
1331.03
1329.18
1326.95
1325.16
1324.8
1325.22
1326.19
1326.31
1326.9
1328.2
1331.79
1339.77
1371.56
1405.48
1457.24
1731.29
2306.16
2837.17
2786.3
2654.63
2352.14
2206.69
1524.34
1414.63
1395.68
1372.44
1364.09
1357.41
1353.89
1352.99
1352.89
1353.81
1354.66
1357.54
1363.61
1374.94
1399.57
1421.79
1567.45
2234.75
2245.77
2687.1
2766.37
2722.55
2660.47
2744.76
2784.61
2051.07
1830.3
1520.9
1476
1459.15
1447.16
1442.44
1441.2
1440.93
1441.83
1443.14
1447.64
1458.78
1478.88
1541.81
1923.46
2101.35
2803.58
2792.61
2702.98
2701.52
2581.7
2638.46
2687.08
2688.47
2590.06
2366.63
2019.35
1965.33
1865.47
1765.55
1730.65
1719.72
1716.1
1717.76
1724.44
1748.41
1840.05
1961.7
1983.9
2421.46
2637.63
2735.75
2678.4
2652.2
2625.82
2499.51
2535.95
2629.58
2685.74
2658.09
2685.84
2872.63
2940.68
2934.24
3033.73
3112.9
3135.13
3144.92
3138.97
3121.74
3055.07
2903.21
2938.72
2899.81
2717.65
2661.2
2706.49
2624.63
2557.91
2533.19
2313.09
2397.98
2478.04
2531.07
2604.53
2729.46
3032.8
3409.93
3593.04
3684.25
3698.13
3691.36
3688.69
3691.66
3700.54
3701.35
3597.85
3418.18
3054.31
2739.76
2615.91
2564.95
2469.92
2404.3
2328.89
2023.99
2146.75
2302.91
2617.71
2791.51
2828.83
2958.98
3313.48
3529.1
3642.98
3672.57
3672.4
3671.88
3673.84
3674.81
3646.09
3500.92
3290.39
2962.52
2839.85
2807.89
2563.78
2269.91
2139.67
2023.9
1812.59
1879.36
2009.92
2241.73
2717.75
2838.97
2878.91
3105.33
3358.69
3499.76
3544.92
3556.36
3560.85
3559.94
3550.02
3510.86
3360.81
3120.06
2919.17
2927.13
2677.24
2204.06
2007.34
1884.08
1814.35
2462.05
2349.31
2106.7
2195.62
2507.59
2689.16
2698.8
2842.43
3080.53
3278.31
3388.22
3432.3
3441.37
3435.01
3391.69
3278.2
3068.1
2851.4
2730.16
2714.89
2483.74
2222.18
2139.34
2345.9
2451.69
3251.36
3426.67
2750.71
2299.48
2376.25
2531.85
2548.78
2660.36
2885.56
3110.02
3251.38
3305.66
3316.63
3304.79
3245.58
3091.45
2855.68
2657.41
2559.93
2542.57
2358.97
2325.53
2810.49
3480.84
3258.68
3628.56
3575.15
2813.91
2209.99
2213.57
2368.35
2417.28
2523.33
2737.25
2963.11
3118.66
3181.86
3191.02
3177.06
3102.63
2931.79
2701.87
2521.09
2418.19
2369.29
2189.71
2247.85
2897.86
3619.23
3674.12
3496.87
3118.38
2489.57
2057.89
2061.93
2235.36
2308.75
2415.07
2608.34
2832.39
2988.91
3053.49
3066.99
3048.13
2974.28
2806.05
2582.72
2416.64
2299.29
2235.78
2036.13
2054.18
2474.32
3122.18
3529.69
3511.31
2962.03
2250.55
1905.1
1974.2
2137.65
2206.53
2316.73
2504.46
2715.26
2868.37
2935.24
2946.4
2930.1
2853.6
2689.31
2477.9
2318.62
2202.1
2129.79
1942.89
1892.97
2254.09
2979.01
3544.18
3449.59
2791.02
2099.21
1822.82
1927.98
2066.48
2118.25
2231.14
2408.5
2614.65
2757.17
2817.6
2831.98
2810.98
2739.91
2585.94
2382.23
2228.21
2118.55
2064.9
1896.6
1808.61
2111.64
2833.22
3479.52
3416.08
2748.78
2042.05
1827.71
1903.39
2000.27
2040.92
2149.87
2323.28
2512.06
2650.66
2711.89
2722.06
2707.14
2637.47
2489.7
2298.93
2149.31
2044.49
2000.3
1877.46
1816.75
2038
2760.37
3451.34
3346.14
2604.83
1966.34
1830.15
1880.55
1955.24
1976.36
2085.9
2247.95
2430.31
2552.51
2605.18
2619.98
2600.25
2539.26
2408.23
2226.78
2080.8
1978.28
1962.46
1859.47
1822.73
1970.02
2609.8
3362.04
3314.74
2564.6
1972.89
1864.34
1871.72
1907.43
1916.15
2024.95
2184.82
2347.84
2461.66
2513.69
2522.43
2509.41
2448.89
2323.72
2156.91
2019.13
1918.16
1912.82
1853.99
1848.93
1973.03
2607.53
3358.88
3307.87
2538.31
1941.91
1853.81
1841.12
1877.1
1868.78
1976.53
2119.69
2275.84
2374.06
2418.56
2433.31
2415.36
2366.25
2262.3
2105.83
1971.85
1871.81
1884.04
1831.77
1851.01
1932.45
2500.28
3287.57
3274.24
2548.96
1975.89
1887.8
1841.15
1851.85
1827.04
1930.1
2070.89
2207.23
2297.69
2341.49
2347.95
2337.75
2286.83
2188.65
2048.14
1926.18
1826.93
1866.02
1828.83
1870.18
1956.73
2520.6
3275.06
3182.03
2453.23
1945.42
1886.15
1803.49
1827.98
1794.59
1903.07
2023.56
2151.66
2224.53
2257.9
2270.66
2254.42
2215.6
2135.66
2005.03
1890.87
1793.75
1835.53
1803.89
1873.3
1937.94
2470.69
3220.99
3158.09
2452
1993.22
1910.61
1809.92
1806.14
1769.59
1864.94
1980.04
2089.65
2157.62
2193.19
2196.87
2191.29
2150.14
2076.22
1963.27
1864.15
1767.54
1820.04
1805.12
1891.2
1968.61
2426.62
3148.11
3093.77
2399.08
1995.49
1895.49
1783.36
1775.2
1743.29
1848.32
1943.03
2045.42
2097.33
2120.52
2131.44
2118.07
2090.06
2033.23
1926.76
1837.61
1742.24
1781.75
1788.75
1887.67
1965.27
2392.22
3101.96
3054.46
2374.86
2027.65
1915.46
1806
1761.23
1730.85
1823.56
1908.23
1993.2
2039.87
2068.18
2068.87
2066.49
2032.89
1979.87
1889.98
1817.48
1723.92
1772.32
1795.22
1902.09
2022.52
2383.79
3088.24
3020.57
2342.28
2017.06
1907.71
1786.11
1731.14
1700.34
1809.66
1875.28
1953.55
1988.75
2004.68
2014.22
2003.06
1984.38
1946.9
1861.69
1801.5
1697.3
1736.91
1797.09
1905.15
2015.97
2340.71
3030.89
2992.96
2329.27
2022.64
1926.51
1804.91
1736.16
1695.98
1788.46
1847.17
1908.4
1939.76
1962.95
1961.42
1961.35
1932.64
1897.2
1830.81
1788.46
1683.87
1733.03
1806.05
1925.87
2029.27
2344.87
3006.75
2946.14
2285.37
2008.65
1942.32
1793.73
1719.65
1670.59
1775.6
1819.16
1877.93
1898.22
1907.86
1915.7
1905.66
1893.67
1871.84
1801.75
1770.08
1661.85
1720.13
1794.48
1944.46
2010.18
2301.89
2968.4
2935.74
2296.92
2016.91
1979.13
1816.22
1731.47
1672.05
1759.1
1792.66
1835.35
1855.03
1874.57
1871.19
1873.45
1849.25
1826.63
1778.04
1761.19
1660.03
1726.15
1817.27
1983.99
2016.96
2291.36
2941.48
2902.22
2277.74
1994.84
1992.92
1816.02
1717.82
1656.26
1748.09
1764.1
1810.97
1821.83
1826.49
1832.93
1825.62
1818.29
1807.09
1746.08
1742.24
1649.33
1716.38
1814.91
1999.41
1983.65
2271.44
2898.81
2856.03
2269.96
1977.76
1993.53
1845.49
1748.02
1674.61
1738.92
1745.06
1772.33
1783.84
1800.56
1795.89
1799.8
1778.45
1764.86
1726.91
1735.44
1658.57
1737.92
1847.07
1994.3
1967.63
2276.08
2881.88
2829.92
2260.54
1947.16
1982.64
1881.68
1733.65
1664.79
1728.88
1717.43
1753.16
1756.86
1758.86
1763.45
1758.21
1755.23
1752.83
1697.17
1720.79
1666.74
1726.81
1877.75
1989.07
1937.97
2248.82
2831.04
2794.12
2253.84
1936.83
1975.41
1928.51
1769.84
1705.25
1732.87
1706.54
1719.06
1723.62
1738.16
1732.23
1737.47
1718.38
1716.79
1687.81
1725.59
1692.99
1767.62
1944.42
1982.03
1933.55
2254.08
2795.06
2764.83
2231.1
1915.53
1958.16
1926.93
1787.21
1704.71
1730.86
1683.98
1707.42
1702.98
1701.6
1704.57
1700.94
1701.24
1709.1
1660.8
1716.54
1701.04
1776.69
1940.58
1965.74
1916.91
2234.2
2763.97
2731.32
2230.03
1915.25
1927.84
1915.42
1838.96
1744.1
1750.22
1689.67
1680.62
1674.42
1685.52
1678.18
1685.03
1667.98
1682.6
1671.29
1736.03
1731.8
1833.11
1933.73
1943.71
1913.61
2219.61
2730.82
2710.19
2217.9
1902.81
1903.17
1903.17
1903.14
1761.67
1748.41
1676.2
1679.88
1660.85
1653.22
1654.87
1653.88
1659.32
1683.75
1656.21
1732.75
1758.38
1905.97
1917.83
1914.85
1902.49
2212.11
2710.81
2670.46
2198.14
1901.13
1881.45
1878.12
1889.67
1824.71
1770.32
1701.74
1667.83
1640.69
1644.38
1634.24
1643.51
1630.25
1665.26
1680.59
1760.43
1817.04
1902.05
1895.2
1892.69
1906.95
2204.09
2682.77
2652.62
2195.56
1894.59
1860.66
1849.64
1874.23
1905.52
1794.38
1689.91
1681.73
1643.9
1620.89
1618.35
1622.17
1643.91
1684.72
1667.8
1776.5
1904.64
1883.15
1865.83
1872.51
1893.76
2189.16
2660.79
2603.58
2173.48
1890.33
1852.77
1827.07
1862.36
1893.28
1851.16
1728.68
1672.74
1632.43
1629.99
1604.41
1626.9
1620.11
1674.2
1714.33
1837.89
1898.41
1868.59
1842.3
1859.86
1895.98
2178.28
2610.92
2562.51
2155.82
1873.93
1840.85
1803.14
1825.89
1876.62
1939.62
1733.6
1698.77
1648.33
1614.32
1605.05
1615.44
1647.9
1700.28
1715.1
1930.3
1882.04
1827.85
1819.45
1848.37
1875.97
2159.6
2573
2396.25
2107.97
1854.7
1827.89
1788.94
1796.57
1857.34
1921.17
1821.12
1709.59
1640.74
1632.94
1607.54
1629.75
1625.05
1711.16
1801.57
1924.41
1864.19
1800.32
1799.96
1837.3
1857.01
2106.18
2402.16
1086.26
1065.58
1015.61
925.252
825.902
737.966
669.309
618.626
583.137
557.708
539.83
524.596
511.008
498.972
489.319
480.643
472.069
463.275
456.427
449.245
443.131
437.273
432.149
427.044
421.641
416.321
410.768
404.973
398.234
393.121
1091.29
1071.1
1014.85
922.225
822.634
735.657
667.331
616.76
581.282
556.824
540.468
527.676
516.901
506.91
497.361
487.78
478.053
470.106
462.55
455.316
448.129
442.452
436.893
431.269
425.445
419.884
414.681
408.931
402.87
397.406
1093.33
1077.09
1016.22
920.988
820.789
734.482
666.555
615.94
580.318
555.405
538.246
526.408
516.32
507.051
497.64
488
478.327
471.017
464.136
456.12
449.352
443.653
438.126
432.731
426.877
421.433
415.999
410.571
404.421
399.138
1109.27
1087.22
1024.51
928.933
828.866
742.9
673.454
620.503
582.444
556.11
538.126
525.936
515.634
506.873
497.595
488.394
479.832
472.218
465.109
457.942
452.325
446.336
441.076
435.699
429.843
424.68
418.906
413.25
407.002
402.139
1121.11
1099.81
1036.54
942.092
843.033
755.272
684.105
630.442
588.751
559.113
539.053
525.724
514.52
505.638
495.704
487.014
479.412
472.049
465.378
459.023
453.548
447.776
442.384
436.801
431.28
426.12
420.692
414.925
408.667
403.822
1135.37
1112.13
1049.16
956.384
858.956
770.225
699.496
642.2
598.149
565.314
541.681
526.018
513.856
504.027
495.627
488.299
481.185
473.951
467.033
460.799
455.627
450.113
444.317
438.87
433.766
428.428
423.013
417.157
411.397
406.949
1147.24
1125.99
1064
974.988
879.005
790.565
717.329
659.085
611.896
575.143
547.084
528.203
513.75
503.457
495.487
489.197
482.311
474.996
467.888
462.007
457.003
451.446
445.723
440.441
435.039
429.671
424.506
418.666
412.789
408.543
1162.11
1140.71
1080.83
995.138
901.398
813.107
739.406
679.663
629.495
588.709
556.439
533.658
515.734
503.981
496.147
490.283
483.757
476.341
469.507
463.863
459.02
453.426
447.589
442.15
436.887
431.57
426.615
420.645
414.795
411.048
1175.19
1156.87
1100.03
1018.08
926.737
840.34
766.477
704.452
651.923
607.348
570.614
543.506
522.02
507.551
497.847
491.132
484.131
477.655
470.899
464.887
460.012
454.459
448.6
443.128
437.838
432.585
427.217
421.523
416.276
412.642
1189.84
1172.71
1119.87
1042.31
954.992
871.215
797.407
733.96
678.742
630.784
589.856
558.216
532.647
514.052
501.696
492.748
485.751
479.379
472.958
466.707
461.519
456.156
450.289
444.506
439.318
434.729
428.618
423.341
418.36
415.262
1201.71
1188.36
1140.41
1068.21
985.671
904.579
832.464
768.118
710.09
659.391
614.607
578
547.305
524.454
507.823
495.98
487.569
480.776
474.399
468.26
462.639
457.058
451.254
445.241
440.276
435.713
429.78
424.423
419.716
416.8
1215.53
1203.88
1161.42
1095.61
1018
940.822
870.859
806.638
745.254
692.431
644.443
602.871
567.208
539.117
517.692
501.986
491.041
483.225
477.078
471.09
464.979
458.884
452.864
446.887
442.547
436.875
431.309
426.265
421.866
419.195
1226.01
1219.13
1182.94
1123.49
1052.14
979.258
911.561
848.141
784.225
729.2
678.816
632.438
592.124
558.842
531.83
511.167
496.634
486.739
479.856
473.834
467.429
460.673
454.391
448.783
443.846
438.017
432.619
427.982
423.485
420.789
1236.36
1234.09
1204.28
1151.99
1087.3
1019.38
953.619
890.497
827.122
768.68
716.615
666.284
622.001
583.503
550.917
524.974
505.787
492.435
483.494
476.922
470.568
463.525
456.948
451.592
446.276
439.794
434.95
431.066
425.913
423.121
1245.8
1248.33
1225.47
1180.52
1122.8
1060.46
996.969
934.358
872.115
810.68
756.763
703.909
655.618
612.426
574.773
543.232
518.506
500.081
487.737
479.564
473.135
466.464
459.911
454.449
448.253
441.843
437.823
433.158
429.612
425.563
1254.81
1261.97
1246.18
1208.79
1158.23
1101.63
1041.12
978.79
918.238
855.587
798.823
744.225
692.83
645.575
603.074
566.123
535.516
511.409
494.55
483.426
476.061
469.337
462.867
456.725
450.446
444.721
440.696
436.041
432.561
429.298
1262.18
1274.7
1265.69
1236.61
1193.1
1142.32
1084.66
1023.81
962.385
901.206
841.89
786.653
732.829
682.09
635.118
592.88
556.289
526.363
504.005
488.616
478.87
471.66
465.288
458.569
452.781
446.885
442.748
438.692
434.848
433.266
1268.02
1286.29
1283.82
1263.46
1227.24
1182.03
1127.05
1068.14
1007.48
946.91
887.759
830.669
774.803
721.191
670.518
623.264
581.033
545.126
516.696
496.185
482.782
474.425
467.95
460.924
454.786
449.348
445.195
441.114
437.32
435.924
1272.13
1297.46
1300.83
1288.54
1259.99
1220.08
1168.11
1111.5
1052.27
992.846
935.257
875.333
817.854
762.416
708.479
656.726
609.262
567.432
532.902
506.234
488.172
477.226
470.269
463.429
456.921
451.494
447.115
443.055
439.701
438.199
1273.2
1307.26
1315.87
1311.79
1290.72
1256.15
1207.95
1153.62
1096.52
1038.82
981.75
921.112
861.622
805.122
748.477
692.951
640.709
593.362
552.908
519.923
496.237
481.01
472.465
466.078
459.366
453.792
448.971
444.801
441.658
440.225
1273.86
1316.13
1330.95
1333.25
1319.17
1290.05
1246.24
1194.62
1139.88
1084.03
1027.42
966.562
906.368
848.666
790.066
731.495
674.946
622.461
576.39
537.32
507.157
486.631
474.929
468.102
461.339
455.576
450.206
445.866
443.05
441.693
1271.77
1323.37
1345.32
1352.44
1345.25
1321.56
1282.58
1234.32
1182.2
1128.31
1072.26
1012.09
951.9
892.703
832.696
771.804
711.523
654.506
603.139
558.302
521.361
494.459
478.295
469.86
463.619
457.268
451.66
447.431
444.864
443.793
1270.85
1330.32
1359.43
1371
1369.04
1350.78
1316.55
1272.56
1223.43
1171.15
1115.73
1056.83
997.853
937.123
875.962
813.151
749.878
688.836
632.836
582.235
538.824
505.717
484.076
472.312
465.693
459.604
454.109
450.058
447.6
446.927
1253.05
1339.02
1373.78
1388.94
1390.71
1377.66
1348.39
1308.95
1263.04
1212.57
1158.02
1100.57
1042.47
982.235
919.425
854.808
789.432
725.128
664.784
608.812
559.777
521.18
493.304
476.615
468.234
462.448
456.822
452.844
450.598
450.155
1267.64
1367.87
1394.78
1407.76
1410.54
1402.32
1378.01
1343.25
1300.8
1252.43
1198.98
1143.06
1085.71
1026.24
963.25
895.748
828.995
762.286
698.215
637.856
584.29
539.802
505.464
483.056
471.591
465.111
459.264
454.976
452.63
452.135
390.755
396.451
403.18
408.938
414.197
420.205
424.847
429.715
434.978
441.333
447.117
454.045
461.856
470.182
478.397
486.464
496.161
507.964
521.614
536.271
554.178
578.904
614.195
665.268
735.419
825.541
927.15
1018.56
1069.6
1091.41
395.663
400.631
406.76
412.799
418.907
424.002
429.764
434.8
440.641
446.638
452.732
459.56
467.306
476.028
485.281
494.497
504.14
513.271
524.019
536.355
552.476
576.352
611.756
662.907
732.654
821.718
923.887
1017.62
1074.55
1095.86
397.077
401.8
407.869
414.115
420.369
425.026
430.658
436.079
441.69
447.565
453.753
460.566
467.405
475.189
484.545
494.61
504.163
512.838
522.133
533.893
550.761
575.177
610.838
661.931
730.893
819.604
922.496
1018.7
1080.37
1097.81
400.119
404.805
411.002
416.984
422.309
428.181
433.286
438.924
444.313
450.047
455.909
462.001
468.186
475.341
483.705
494.833
504.122
512.181
521.819
533.479
550.803
576.577
614.747
668.55
739.06
827.667
930.357
1026.89
1090.15
1113.07
401.804
406.589
412.728
419.279
423.837
429.983
434.906
440.017
445.287
450.916
456.705
462.552
468.125
475.041
483.51
493.836
503.028
511.406
521.756
534.098
553.596
582.874
624.615
679.212
751.575
841.7
943.293
1038.73
1102.44
1124.59
404.999
409.538
415.577
421.509
427.142
432.07
437.268
442.218
447.329
452.792
457.835
463.339
469.828
477.126
484.94
493.08
502.151
510.87
522.357
536.954
559.487
591.916
636.412
693.595
765.715
857.688
956.947
1051.06
1114.37
1138.48
407.022
411.277
417.094
422.441
428.898
433.33
438.418
443.469
448.585
453.916
458.831
464.473
471.16
478.416
485.938
492.603
501.8
511.075
524.653
542.793
569.503
605.649
652.71
712.034
785.1
876.446
974.534
1065.46
1127.88
1150.33
409.655
413.375
418.917
424.752
430.281
435.55
440.452
445.694
450.868
456.022
460.96
466.6
473.35
480.614
487.433
494.108
502.176
513.7
529.955
551.965
583.488
623.506
673.542
733.803
808.323
898.69
994.788
1082.02
1142.35
1165.05
411.297
414.865
420.238
426.025
431.396
436.635
441.584
447.076
452.188
457.162
462.261
468.296
474.819
481.816
488.576
496.161
505.353
519.931
539.758
565.972
601.986
645.849
698.301
760.608
835.224
923.901
1017.45
1100.67
1157.99
1177.95
414.079
417.254
422.292
427.694
433.143
438.267
443.462
448.815
454.363
459.169
464.521
470.878
477.382
483.915
490.83
499.885
512.002
530.636
554.819
585.306
625.586
672.866
727.913
791.733
866.166
952.306
1042.1
1120.86
1174.76
1192.56
415.751
418.81
423.622
428.863
434.084
439.277
444.533
449.954
455.476
460.517
466.304
472.601
479.089
485.9
494.455
506.19
522.579
545.916
575.054
610.249
654.286
704.159
761.818
826.702
899.619
983.159
1068.18
1141.69
1190.9
1204.3
418.353
421.171
425.657
430.455
435.622
440.839
446.441
452.035
457.428
463.153
469.492
475.549
481.911
489.821
500.825
516.482
537.817
566.09
600.499
640.582
687.808
739.353
799.777
864.721
935.187
1015.35
1095.62
1162.85
1206.8
1218.34
419.881
422.871
427.081
431.773
436.745
442.387
448.078
453.747
459.492
465.92
472.471
478.613
485.537
495.442
510.09
530.896
557.951
591.35
630.796
675.483
725.136
778.362
841.01
905.009
973.325
1049.17
1123.66
1184.42
1222.26
1229.63
422.708
425.263
429.205
433.965
439.525
444.8
450.928
456.536
462.796
469.581
476.093
482.7
491.519
504.711
523.921
549.924
582.606
620.952
664.925
713.63
764.864
821.02
883.665
946.771
1013.02
1084.06
1152.03
1206.04
1237.41
1240.32
425.299
427.752
431.87
436.54
441.583
446.948
453.001
459.231
465.847
472.62
479.188
487.31
499.544
517.518
542.35
573.667
611.341
654.23
701.947
753.822
806.595
866.36
927.729
989.933
1053.99
1119.57
1180.43
1227.35
1251.91
1249.98
428.431
430.774
435.436
438.895
443.589
449.612
455.496
462.048
468.81
475.645
483.011
493.92
510.621
534.299
564.805
601.54
643.871
690.357
741.245
795.135
850.59
912.373
972.653
1034.29
1095.39
1155.18
1208.56
1248.2
1265.87
1259.52
430.835
433.965
437.394
441.282
445.452
451.36
457.318
464.39
471.195
478.341
487.886
502.955
524.833
554.428
590.58
632.518
679.085
728.798
782.253
836.822
895.041
956.082
1018.12
1078.6
1136.4
1190.21
1236.03
1268.11
1278.9
1267.4
432.848
435.916
439.253
443.227
447.308
453.245
459.49
466.96
473.785
481.89
494.882
514.956
542.574
577.764
619.358
666.115
716.456
768.846
824.39
880.903
939.586
999.914
1061.66
1122.06
1176.57
1224.26
1263.03
1286.36
1290.83
1273.82
434.515
437.029
440.702
444.893
448.879
454.915
461.654
468.932
476.232
486.638
504.052
529.547
563.341
604.226
650.93
701.985
755.636
810.185
866.931
927.025
984.544
1043.81
1104.17
1163.51
1215.16
1257.16
1288.04
1303.44
1301.98
1278.6
437.131
437.989
441.756
446.553
450.845
457.052
464.062
470.89
479.301
493.473
516.106
547.535
587.207
633.686
685.112
739.911
796.301
852.368
910.877
972.327
1029.61
1087.36
1146.03
1203.26
1251.76
1288.17
1311.23
1318.78
1312.05
1280.24
439.346
439.504
442.684
447.939
452.933
458.945
465.847
472.841
483.39
502.518
531.105
568.647
613.699
665.438
721.565
779.716
838.068
895.448
955.285
1016.95
1074.31
1130.57
1186.96
1241.38
1286.05
1316.9
1332.79
1333.55
1321.19
1281.47
441.776
442.741
445.249
449.321
455.068
461.314
467.702
475.467
489.532
514.171
549.029
592.523
643.271
699.534
759.782
820.749
880.72
939.337
1000.25
1061.2
1118.51
1173.39
1227.16
1277.53
1317.91
1343.35
1352.3
1347.9
1328.71
1279.7
445.049
445.867
448.094
451.785
457.383
463.646
469.869
479.842
498.723
528.886
570.129
619.142
674.806
735.601
799.378
862.703
924.251
984.923
1044.37
1104.35
1161.56
1214.92
1265.43
1312.19
1347.56
1367.63
1371.34
1362.29
1335.76
1279.03
447.554
448.224
450.651
454.557
460.154
465.901
473.094
486.932
511.657
547.317
594.293
648.763
708.49
773.159
839.729
905.252
968.928
1029.92
1087.84
1146.71
1203.02
1254.69
1302.37
1344.78
1375.14
1389.88
1389.47
1377.07
1344.66
1261.74
449.23
449.966
452.446
456.75
462.558
468.422
477.782
496.547
527.418
568.987
621.217
680.703
744.354
811.786
880.236
948.671
1013.85
1073.42
1130.8
1187.87
1243.07
1292.91
1337.63
1375.08
1400.8
1410.56
1408.71
1398.44
1374.16
1275.83
1030.83
1062.67
1086.42
1118.1
1151.63
1187.57
1225.42
1263.47
1301.98
1339.99
1377
1412.56
1446.31
1478.05
1507.64
1535.03
1560.25
1583.58
1605.06
1624.89
1643.21
1660.09
1675.57
1689.61
1702.63
1714.7
1725.83
1735.92
1745.16
1753.56
1761.11
1767.83
1773.72
1778.79
1783.02
1786.42
1789
1790.77
1791.66
1791.79
1791.34
1789.75
1787.25
1783.99
1779.92
1774.99
1769.22
1762.5
1754.87
1746.32
1736.82
1726.33
1714.79
1702.18
1688.46
1673.57
1657.47
1640.15
1621.6
1601.8
1580.76
1558.44
1534.86
1510
1483.89
1456.53
1427.92
1398.13
1367.2
1335.19
1302.28
1268.56
1234.19
1199.19
1163.64
1127.81
1091.48
1055.07
1018.38
981.222
944.227
906.495
869.239
833.682
798.928
765.831
734.051
703.627
675.16
648.926
624.568
602.473
582.604
564.347
548.614
534.517
522.225
511.848
503.068
495.487
489.116
483.914
479.513
475.733
472.758
470.098
468.084
466.753
465.735
464.674
463.706
463.298
462.957
462.396
461.704
461.161
461.025
461.016
460.525
459.782
458.755
457.545
456.38
454.136
450.989
1167.82
1192.93
1220.28
1251
1283.83
1318.16
1353.37
1388.76
1423.96
1458.46
1491.83
1523.72
1553.86
1582.11
1608.4
1632.76
1655.25
1675.96
1695.11
1712.82
1729.23
1744.41
1758.37
1771.35
1783.44
1794.64
1804.91
1814.36
1823.05
1830.98
1838.15
1844.57
1850.23
1855.14
1859.28
1862.65
1865.26
1867.11
1868.14
1868.45
1868.08
1866.83
1864.78
1861.95
1858.34
1853.91
1848.68
1842.8
1835.71
1827.82
1818.99
1809.18
1798.38
1786.54
1773.7
1759.81
1744.88
1728.85
1711.69
1693.39
1673.96
1653.4
1631.69
1608.85
1584.87
1559.79
1533.63
1506.39
1478.06
1448.68
1418.35
1387.14
1355.16
1322.42
1288.98
1254.96
1220.35
1185.29
1149.86
1114.17
1078.24
1042.33
1007
972.596
938.81
905.877
873.74
842.772
813.337
785.22
758.389
732.839
708.414
684.866
662.404
640.813
620.247
600.894
582.818
566.006
550.471
536.482
523.848
512.919
503.079
494.566
487.683
481.996
477.714
473.942
470.558
468.379
466.777
465.347
463.999
462.979
462.259
461.919
461.486
460.562
459.371
458.093
456.599
454.649
451.599
1270.94
1294.13
1321.78
1351.88
1383.52
1416.14
1449.2
1482.22
1514.8
1546.55
1577.12
1606.24
1633.72
1659.46
1683.44
1705.71
1726.34
1745.47
1763.24
1779.77
1795.15
1809.4
1822.74
1835.23
1846.88
1857.72
1867.75
1877.07
1885.7
1893.62
1900.84
1907.36
1913.17
1918.24
1922.58
1926.18
1929.04
1931.16
1932.52
1933.11
1933.05
1932.21
1930.6
1928.22
1925.05
1921.1
1916.34
1910.77
1904.28
1896.9
1888.61
1879.43
1869.43
1858.21
1846.1
1832.99
1818.81
1803.57
1787.26
1769.93
1751.57
1732.18
1711.69
1690.14
1667.51
1643.88
1619.26
1593.69
1567.2
1539.84
1511.63
1482.53
1452.68
1422.14
1391.11
1359.64
1327.72
1295.4
1262.74
1229.76
1196.57
1163.37
1130.43
1098.14
1066.48
1035.43
1005.04
975.336
946.414
917.937
890.232
863.472
837.106
811.177
785.815
760.979
736.797
713.387
690.793
668.969
647.844
627.598
608.025
589.56
571.786
555.241
540.341
526.764
515.014
504.585
494.626
487.163
481.091
475.998
472.173
469.426
467.338
466.144
465.352
464.331
462.879
461.513
459.731
457.071
454.151
1367.24
1389.92
1417.37
1446.65
1476.99
1507.95
1539.08
1569.99
1600.32
1629.75
1658
1684.86
1710.2
1733.97
1756.18
1776.88
1796.18
1814.17
1830.97
1846.74
1861.55
1875.46
1888.58
1900.92
1912.48
1923.32
1933.49
1943.03
1951.93
1960.18
1967.78
1974.7
1980.93
1986.44
1991.22
1995.28
1998.61
2001.22
2003.11
2004.23
2004.64
2004.35
2003.31
2001.49
1998.89
1995.47
1991.22
1986.13
1980.15
1973.29
1965.54
1956.9
1947.36
1936.85
1925.39
1912.98
1899.62
1885.37
1869.87
1853.4
1835.91
1817.26
1797.48
1776.72
1755.02
1732.4
1708.89
1684.46
1659.11
1632.96
1606.09
1578.55
1550.32
1521.36
1491.91
1461.98
1431.7
1401.19
1370.48
1339.67
1308.81
1278.02
1247.42
1217.15
1187.23
1157.66
1128.48
1099.78
1071.76
1044.19
1017.06
990.373
964.003
937.573
911.512
885.83
860.193
834.889
809.979
785.448
761.218
737.456
714.017
691.184
668.692
646.859
625.913
605.391
585.717
567.184
548.234
531.96
517.663
504.832
494.428
486.313
480.129
475.819
472.926
470.576
468.193
466.443
464.792
462.282
458.882
1462.8
1485.41
1512.65
1540.97
1569.95
1599.29
1628.6
1657.56
1685.87
1713.26
1739.52
1764.49
1788.08
1810.28
1831.12
1850.67
1869.04
1886.32
1902.55
1917.97
1932.63
1946.57
1959.8
1972.3
1984.11
1995.32
2006
2016.1
2025.61
2034.51
2042.77
2050.37
2057.26
2063.44
2068.89
2073.63
2077.64
2080.94
2083.53
2085.41
2086.51
2086.88
2086.54
2085.4
2083.41
2080.55
2076.82
2072.2
2066.7
2060.31
2053.03
2044.85
2035.77
2025.75
2014.8
2002.91
1990.05
1976.2
1961.28
1945.33
1928.36
1910.36
1891.29
1871.06
1849.89
1827.71
1804.47
1780.3
1755.39
1729.8
1703.63
1676.82
1649.43
1621.6
1593.34
1564.65
1535.5
1506.2
1476.79
1447.37
1417.99
1388.8
1359.9
1331.4
1303.3
1275.55
1248.11
1220.95
1194.01
1167.29
1140.77
1114.4
1088.11
1061.93
1035.98
1010.2
984.418
958.445
932.629
907.06
881.11
855.236
829.402
803.722
778.14
752.723
727.573
702.439
677.472
653.388
628.427
605.052
583.337
562.042
541.353
523.211
508.965
498.365
490.236
484.034
477.89
473.308
470.579
468.203
464.693
1558.07
1580.9
1607.98
1635.3
1662.96
1690.77
1718.42
1745.64
1772.18
1797.84
1822.45
1845.89
1868.12
1889.15
1909.02
1927.82
1945.64
1962.57
1978.72
1994.22
2009.12
2023.44
2037.11
2050.11
2062.48
2074.39
2085.9
2096.87
2107.26
2117.05
2126.21
2134.67
2142.39
2149.4
2155.69
2161.26
2166.13
2170.31
2173.77
2176.53
2178.56
2179.74
2180.13
2179.72
2178.35
2176.01
2172.73
2168.52
2163.39
2157.35
2150.41
2142.54
2133.76
2124.04
2113.37
2101.72
2089.05
2075.31
2060.48
2044.54
2027.51
2009.38
1990.12
1969.75
1948.38
1926.08
1903.08
1878.84
1853.86
1828.12
1801.57
1774.45
1747
1719.32
1691.45
1663.34
1635.2
1606.84
1578.29
1549.78
1521.43
1493.4
1465.74
1438.44
1411.53
1385
1358.88
1333.12
1307.63
1282.34
1257.17
1232.04
1206.81
1181.39
1155.83
1130.15
1104.28
1078.15
1051.85
1025.47
998.917
972.079
945.291
918.457
891.105
863.529
835.793
807.81
779.553
751.372
722.676
693.971
666.385
639.395
611.25
584.744
562.596
543.055
526.277
511.889
499.139
488.371
480.856
475.578
471.159
1652.47
1675.86
1702.59
1728.95
1755.44
1781.91
1808.13
1833.88
1858.98
1883.25
1906.57
1928.87
1950.15
1970.42
1989.72
2008.15
2025.81
2042.78
2059.18
2075.1
2090.59
2105.57
2119.93
2133.65
2146.88
2159.76
2172.25
2184.23
2195.63
2206.41
2216.52
2225.89
2234.38
2242.26
2249.41
2255.85
2261.63
2266.73
2271.09
2274.83
2277.83
2279.99
2281.08
2281.29
2280.45
2278.52
2275.57
2271.66
2266.8
2260.99
2254.23
2246.54
2237.93
2228.38
2217.84
2206.26
2193.54
2179.62
2164.49
2148.16
2130.63
2111.83
2091.78
2070.56
2048.27
2025.01
2000.86
1975.78
1949.9
1923.35
1896.5
1868.82
1840.85
1812.6
1784.02
1755.44
1727.05
1698.92
1671.08
1643.34
1615.71
1588.5
1561.73
1535.4
1509.56
1484.15
1459.12
1434.42
1409.97
1385.69
1361.48
1337.3
1313.14
1288.89
1264.49
1239.86
1214.95
1189.69
1163.92
1137.65
1110.94
1083.87
1056.57
1028.75
1000.27
972.066
943.264
913.846
883.894
853.494
822.394
790.533
758.922
727.918
695.427
663.536
634.058
606.074
580.324
557.917
537.794
519.118
504.06
492.867
484.091
1744.9
1769.32
1795.71
1821.12
1846.67
1872.06
1897.14
1921.76
1945.78
1969.03
1991.44
2012.96
2033.59
2053.4
2072.45
2090.83
2108.64
2125.95
2142.86
2159.39
2175.55
2191.28
2206.4
2220.92
2234.98
2248.75
2262.18
2275.05
2287.25
2298.74
2309.46
2319.36
2328.43
2336.75
2344.35
2351.3
2357.68
2363.47
2368.23
2372.8
2376.64
2379.44
2381.07
2381.58
2381.04
2379.34
2376.61
2372.93
2368.28
2362.67
2356.1
2348.65
2340.41
2331.26
2321.12
2309.86
2297.25
2283.33
2267.95
2251.25
2233.28
2213.8
2192.78
2170.41
2146.81
2122.13
2096.47
2069.91
2042.53
2014.4