/*--------------------------------*- C++ -*----------------------------------*\
| =========                 |                                                 |
| \\      /  F ield         | OpenFOAM: The Open Source CFD Toolbox           |
|  \\    /   O peration     | Version:  2112                                  |
|   \\  /    A nd           | Website:  www.openfoam.com                      |
|    \\/     M anipulation  |                                                 |
\*---------------------------------------------------------------------------*/
FoamFile
{
    version     2.0;
    format      ascii;
    arch        "LSB;label=32;scalar=64";
    class       volScalarField;
    location    "0.01107";
    object      alphat;
}
// * * * * * * * * * * * * * * * * * * * * * * * * * * * * * * * * * * * * * //

dimensions      [1 -1 -1 0 0 0 0];

internalField   nonuniform List<scalar> 
13875
(
0.11986
0.0816016
0.0784511
0.078275
0.0783329
0.0783766
0.0783144
0.0782644
0.0783011
0.0783127
0.0783058
0.0783147
0.0783829
0.0784129
0.0783941
0.0782975
0.078256
0.0782947
0.0783036
0.0783541
0.0783204
0.0782661
0.0784825
0.0814471
0.120929
0.103938
0.0576788
0.0570818
0.0571689
0.0566706
0.0567453
0.0570569
0.0571271
0.0571394
0.0571359
0.0571275
0.0571193
0.0566618
0.0566143
0.0566678
0.0570973
0.0571185
0.0571522
0.0570738
0.0566795
0.056674
0.0571392
0.0570618
0.0573821
0.104626
0.110619
0.0553239
0.0558738
0.0547182
0.0545908
0.0544763
0.0543508
0.0543202
0.05428
0.0541677
0.0541405
0.0543431
0.0542511
0.0542778
0.0542414
0.0543493
0.0541082
0.0542549
0.0542803
0.0544503
0.0545305
0.0546016
0.0557847
0.0550951
0.11114
0.115885
0.0546444
0.0553819
0.0543167
0.0540534
0.0539516
0.053723
0.053538
0.0534554
0.0534125
0.0533395
0.0534483
0.0537048
0.0537414
0.0536937
0.053484
0.053365
0.0534645
0.0536335
0.0539053
0.0539996
0.0542022
0.0551983
0.0542845
0.115724
0.12103
0.0546335
0.0551201
0.0537454
0.0536872
0.0535004
0.0532075
0.0530397
0.052969
0.0529232
0.0528476
0.0529576
0.0532215
0.0532667
0.0532167
0.0529953
0.0528774
0.0529562
0.053109
0.053474
0.0536077
0.0536125
0.055023
0.0543149
0.121342
0.124406
0.0547434
0.0551861
0.053608
0.0533058
0.0531212
0.0528079
0.0525961
0.0525371
0.0524886
0.0524054
0.0525064
0.0527785
0.0528521
0.052768
0.0525401
0.0524484
0.0525464
0.0527326
0.0530518
0.0532385
0.0535048
0.0548893
0.0543877
0.124105
0.128744
0.0564724
0.0557825
0.0534525
0.0532797
0.0528937
0.0524274
0.0522427
0.0521484
0.0521073
0.0520201
0.0521217
0.0524089
0.0524791
0.0523998
0.0521503
0.0520773
0.0521618
0.0523574
0.0528626
0.0531951
0.0533643
0.0556495
0.0563477
0.129019
0.135701
0.0611939
0.0578312
0.054408
0.0534096
0.0528623
0.0522736
0.0519769
0.0518615
0.0518147
0.0517285
0.0517941
0.052105
0.0521889
0.0520861
0.0518233
0.0518064
0.0519227
0.0522178
0.0527848
0.0533243
0.0542781
0.0575188
0.0610282
0.135645
0.151302
0.0692431
0.0615376
0.055915
0.0544094
0.0531665
0.0522273
0.0518695
0.0517104
0.0516458
0.0515616
0.051591
0.0519351
0.0520305
0.0519261
0.0516253
0.0516548
0.0518002
0.0521605
0.0530941
0.0542265
0.0556207
0.0610351
0.0684118
0.154206
0.239305
0.0874271
0.0664505
0.0589882
0.0553743
0.0537098
0.0524931
0.0519961
0.0518148
0.0517207
0.0516492
0.0516356
0.0519982
0.0521135
0.0520043
0.0517154
0.0517652
0.0519459
0.0524374
0.0536042
0.0552572
0.058653
0.0660109
0.0866908
0.241124
0.365305
0.118396
0.0759676
0.0629228
0.057557
0.0547541
0.053114
0.0525973
0.0523232
0.0521939
0.0521327
0.0520886
0.0524378
0.0525757
0.0524974
0.0522668
0.0523161
0.0525527
0.0530334
0.0546152
0.0573246
0.0616291
0.0748287
0.113035
0.365638
0.658076
0.192995
0.104021
0.0743746
0.0612933
0.0572924
0.0551611
0.05421
0.053703
0.0534861
0.053392
0.053334
0.0536146
0.0537813
0.0537762
0.0536813
0.0537673
0.0541683
0.0551235
0.0568209
0.0618868
0.0733869
0.10018
0.182925
0.643624
0.581806
0.435539
0.176257
0.0921028
0.0767714
0.0649665
0.059741
0.0578537
0.0569125
0.0565625
0.0564099
0.0563364
0.0564999
0.0566796
0.0567915
0.0568817
0.0571418
0.0579464
0.0598591
0.0653173
0.0763295
0.089689
0.17209
0.433657
0.581334
0.491253
0.400127
0.346885
0.327825
0.115886
0.0805535
0.0735639
0.0676068
0.0650861
0.0643093
0.0639112
0.0637132
0.0637531
0.0639373
0.0642449
0.0647505
0.0656948
0.0683829
0.0749769
0.0831057
0.131178
0.328582
0.33749
0.401409
0.500123
0.407985
0.349267
0.329226
0.334429
0.302103
0.200686
0.127484
0.094542
0.0865042
0.0859203
0.08533
0.0850079
0.085026
0.0852138
0.0856857
0.0866416
0.0875676
0.0953821
0.134102
0.21305
0.302322
0.330386
0.331358
0.360283
0.421725
0.329475
0.293042
0.282035
0.301451
0.313164
0.321586
0.244005
0.191894
0.171469
0.14851
0.136437
0.132374
0.130906
0.131643
0.134378
0.143251
0.171699
0.195356
0.249637
0.324185
0.30781
0.303923
0.29161
0.298466
0.341916
0.238856
0.227064
0.225473
0.26501
0.319181
0.400738
0.530262
0.565506
0.539303
0.538427
0.557872
0.570873
0.577908
0.574178
0.560741
0.550169
0.53952
0.568524
0.532663
0.396378
0.31421
0.266915
0.230395
0.234524
0.252002
0.140288
0.152343
0.185714
0.22744
0.311859
0.432208
0.564847
0.616563
0.560731
0.513239
0.495548
0.492337
0.494832
0.493548
0.49863
0.529937
0.566084
0.606894
0.56655
0.438457
0.310732
0.229472
0.177494
0.14305
0.131181
0.0684682
0.103004
0.165252
0.251125
0.349859
0.408141
0.474664
0.533597
0.499726
0.453318
0.433607
0.430763
0.432301
0.435247
0.441536
0.462748
0.496763
0.527815
0.488668
0.427831
0.373036
0.26635
0.168593
0.1047
0.0704597
0.0267669
0.0526113
0.113882
0.231278
0.345998
0.36191
0.38536
0.42695
0.424374
0.402667
0.390656
0.384951
0.382447
0.39037
0.398884
0.406234
0.414586
0.414605
0.389389
0.37776
0.363801
0.229122
0.112299
0.0520295
0.0259593
0.0794649
0.0885585
0.115077
0.187037
0.274877
0.285363
0.307651
0.351791
0.369564
0.361293
0.349593
0.338858
0.33334
0.344931
0.35698
0.361906
0.357326
0.337994
0.307335
0.295724
0.283322
0.186434
0.113758
0.0894947
0.0848247
0.125094
0.154306
0.129082
0.156783
0.207031
0.224437
0.25224
0.298232
0.322327
0.320339
0.308475
0.294452
0.28784
0.300391
0.315437
0.32019
0.310651
0.285398
0.247832
0.22997
0.210698
0.154118
0.125937
0.15115
0.126058
0.171119
0.16585
0.133272
0.134229
0.163874
0.180946
0.211837
0.256064
0.28108
0.281043
0.268904
0.25429
0.247185
0.259043
0.274066
0.279222
0.268996
0.246052
0.205875
0.183597
0.165935
0.134663
0.13035
0.162878
0.172859
0.210739
0.197258
0.13467
0.123709
0.138513
0.154675
0.180269
0.219927
0.242682
0.244449
0.232304
0.218242
0.212226
0.222648
0.237268
0.242727
0.232068
0.2108
0.176127
0.155224
0.139419
0.124097
0.133311
0.204891
0.20666
0.231853
0.234868
0.137701
0.119418
0.122739
0.13507
0.156733
0.188967
0.208771
0.210447
0.200417
0.187995
0.18258
0.192135
0.205368
0.210049
0.199964
0.181735
0.153677
0.134535
0.123161
0.12158
0.137874
0.24545
0.22849
0.254563
0.263066
0.138042
0.115975
0.112077
0.121175
0.138551
0.164432
0.180358
0.182261
0.173526
0.162206
0.157626
0.165548
0.177487
0.181586
0.173103
0.157705
0.136024
0.120679
0.11257
0.117447
0.139108
0.272892
0.251381
0.283061
0.278268
0.139152
0.112817
0.105731
0.109864
0.124272
0.143771
0.156248
0.156945
0.150043
0.140685
0.136673
0.14392
0.153939
0.157013
0.150118
0.13818
0.121373
0.108779
0.106716
0.114256
0.142045
0.292786
0.27688
0.311602
0.297078
0.138776
0.108188
0.100551
0.101796
0.112592
0.12695
0.135688
0.13629
0.13037
0.122287
0.119168
0.12511
0.134127
0.13736
0.132235
0.122522
0.110172
0.100761
0.101702
0.109841
0.142536
0.310413
0.30615
0.342511
0.325408
0.14329
0.105898
0.097972
0.0951687
0.102818
0.112863
0.119581
0.119073
0.114199
0.107482
0.104414
0.10971
0.116767
0.119235
0.115781
0.109078
0.100581
0.0944118
0.0986633
0.106682
0.144657
0.324601
0.336009
0.371166
0.340016
0.143688
0.10189
0.0935599
0.0906605
0.0953524
0.101555
0.105246
0.104507
0.100177
0.0943676
0.0920716
0.0963879
0.102904
0.105492
0.103209
0.0980307
0.0928138
0.0887466
0.094157
0.103097
0.146268
0.342987
0.36099
0.385107
0.34522
0.148773
0.100732
0.0911446
0.0862755
0.0890855
0.0911765
0.0935198
0.0920546
0.0886043
0.0839086
0.0815793
0.0857506
0.0909562
0.0930196
0.0920181
0.089148
0.0870611
0.0849256
0.0907992
0.101197
0.148692
0.343812
0.384824
0.395633
0.344735
0.152785
0.0993126
0.0864679
0.0814407
0.0835833
0.0838226
0.0842065
0.0825195
0.0791404
0.0746396
0.0728065
0.0760893
0.0810459
0.0832882
0.0830854
0.0813295
0.0817267
0.0797474
0.0859088
0.0994909
0.150463
0.339785
0.401364
0.414923
0.338711
0.158302
0.10038
0.08449
0.0780291
0.0791995
0.0765331
0.0760509
0.0737833
0.0709362
0.0672676
0.0653748
0.0687051
0.0727438
0.074644
0.0753671
0.0751482
0.0772057
0.0763819
0.0830844
0.0997624
0.157435
0.344384
0.412352
0.421928
0.332332
0.162976
0.100795
0.0806681
0.0741101
0.073598
0.0708573
0.0691088
0.0668754
0.064147
0.0605558
0.0591154
0.0617193
0.0658247
0.0680729
0.0691547
0.0694257
0.0724194
0.0723243
0.0798232
0.0998825
0.163927
0.336312
0.42017
0.429346
0.331445
0.16384
0.103879
0.0807016
0.072012
0.0699392
0.0656156
0.0635133
0.060708
0.0583162
0.0553683
0.0537935
0.0564304
0.0596685
0.0614877
0.0634485
0.0647532
0.0684733
0.0701123
0.0785267
0.101696
0.166539
0.335828
0.428042
0.434641
0.324244
0.162025
0.105672
0.0804055
0.0686045
0.0651863
0.0609264
0.0585226
0.055819
0.0534088
0.0504087
0.0492426
0.0513124
0.0547584
0.0569849
0.0587672
0.0598312
0.0644844
0.0675659
0.0784007
0.104609
0.166031
0.333508
0.430023
0.439436
0.326652
0.161919
0.110434
0.082233
0.0672739
0.0624889
0.0566514
0.0542323
0.0512208
0.0490679
0.046653
0.0453453
0.0475149
0.0502387
0.0520564
0.0547072
0.0562043
0.0615886
0.0656926
0.0799388
0.108941
0.163337
0.328542
0.437567
0.435831
0.325357
0.159976
0.118371
0.0839769
0.0655568
0.0589645
0.0529832
0.050373
0.0477806
0.0455608
0.042966
0.0419642
0.0436609
0.046662
0.0487269
0.0506895
0.0520592
0.0582606
0.0642027
0.0809552
0.116232
0.15954
0.322805
0.445
0.430605
0.322877
0.156586
0.122494
0.087206
0.0665067
0.0572162
0.0498617
0.0471451
0.0441889
0.0422748
0.040178
0.039061
0.0409422
0.0432686
0.0448495
0.0477397
0.0495059
0.0560618
0.0647382
0.08513
0.120828
0.154533
0.327552
0.44379
0.421755
0.322159
0.149655
0.122386
0.0913743
0.0664792
0.0546796
0.0470886
0.0441288
0.0416142
0.0396427
0.0373674
0.036532
0.0379572
0.0406514
0.0424935
0.0446066
0.046566
0.0540489
0.0649633
0.0882733
0.120946
0.149423
0.329999
0.435748
0.412201
0.322586
0.144868
0.122447
0.0998063
0.0693796
0.0550648
0.0453895
0.0419834
0.038864
0.0371206
0.0353056
0.0343084
0.0358804
0.0379478
0.0393643
0.0425844
0.0450851
0.0537466
0.067033
0.0956629
0.120374
0.146202
0.334208
0.42423
0.408428
0.32111
0.139304
0.120103
0.107896
0.0708529
0.0541301
0.0439791
0.0398426
0.0370364
0.0351398
0.0330814
0.0323508
0.033552
0.0360348
0.03773
0.0402462
0.0434208
0.0534793
0.0693562
0.107203
0.119875
0.144828
0.332019
0.403706
0.399969
0.32332
0.137084
0.116282
0.107879
0.0758211
0.0554485
0.0440698
0.0388363
0.0349747
0.033165
0.0314946
0.030616
0.0319916
0.0339008
0.0354163
0.0394373
0.0434667
0.0541457
0.073786
0.107143
0.117106
0.141508
0.324315
0.393225
0.390837
0.319529
0.136752
0.111406
0.107211
0.0838533
0.0568865
0.04383
0.0378014
0.0338836
0.0317577
0.029762
0.0290777
0.030123
0.0325088
0.0342818
0.0379333
0.0431271
0.0553959
0.0809391
0.10657
0.11262
0.138831
0.323558
0.384827
0.384015
0.31659
0.135289
0.106331
0.104081
0.0932881
0.0608468
0.0445636
0.0380728
0.032785
0.030341
0.0285526
0.0277195
0.0289873
0.0308519
0.0328403
0.0383751
0.0441459
0.0592556
0.0928849
0.104683
0.108201
0.139903
0.320136
0.378475
0.376465
0.314347
0.136239
0.103188
0.0994654
0.0932255
0.0677489
0.0459416
0.0378
0.0327181
0.0296696
0.0273361
0.0265408
0.0276034
0.0303111
0.0327013
0.0378676
0.045145
0.0652784
0.0923249
0.100803
0.103888
0.139745
0.322493
0.37531
0.363869
0.307541
0.138074
0.100814
0.0948694
0.0920192
0.0789253
0.0498844
0.0389101
0.0324923
0.0291392
0.0268283
0.0256849
0.0271145
0.029415
0.0323289
0.0388371
0.0485453
0.0752375
0.0917002
0.0956947
0.101129
0.142815
0.318022
0.368143
0.353633
0.303272
0.137291
0.0986249
0.0910011
0.0889447
0.0789214
0.0559287
0.0398319
0.0328426
0.0293156
0.026467
0.0252971
0.0265289
0.0298236
0.0327859
0.0396011
0.0545564
0.0781622
0.0889933
0.0917121
0.100193
0.143626
0.310117
0.357231
0.326682
0.291644
0.136592
0.0975632
0.0881516
0.0849061
0.0783116
0.0655598
0.0438076
0.0332362
0.0292219
0.0265876
0.025298
0.026769
0.0294222
0.0330206
0.0434377
0.0638077
0.0780951
0.0852
0.0885891
0.0991935
0.142415
0.295931
0.332104
0.294819
0.273158
0.133125
0.0962538
0.0856411
0.0808618
0.076604
0.0677916
0.049032
0.035512
0.0299492
0.0265627
0.025321
0.0265793
0.0302875
0.0348914
0.0486947
0.0683892
0.0766491
0.0806578
0.0858432
0.0975717
0.136443
0.276023
0.300534
0.115694
0.558537
0.839349
0.961299
0.988263
0.990743
0.982168
0.985578
0.994771
1.00292
1.00312
0.991576
0.965711
0.922171
0.861503
0.785091
0.69823
0.606086
0.514748
0.430787
0.356359
0.294552
0.245309
0.207238
0.176433
0.149843
0.125305
0.101983
0.0820403
0.0761499
0.110563
0.595918
0.864918
0.972969
0.989048
0.985811
0.977021
0.980986
0.990937
1.00167
1.00755
1.0051
0.989156
0.9576
0.90743
0.840385
0.759309
0.667969
0.572489
0.479965
0.395227
0.322841
0.263926
0.217857
0.18248
0.152374
0.1251
0.100899
0.0810366
0.0752957
0.118918
0.636338
0.888827
0.987158
0.997879
0.993523
0.987642
0.994307
1.00871
1.02496
1.03775
1.04321
1.03544
1.0124
0.969807
0.909516
0.832886
0.742255
0.642092
0.540348
0.44379
0.359083
0.288931
0.233287
0.191126
0.156597
0.126518
0.100642
0.0802434
0.0747233
0.124308
0.659417
0.910189
1.00409
1.01129
1.00435
0.997846
1.00456
1.01984
1.03829
1.05458
1.06513
1.06444
1.04986
1.01732
0.96701
0.898249
0.811937
0.711904
0.604905
0.499394
0.402658
0.320523
0.254229
0.203199
0.162903
0.129209
0.100757
0.0792655
0.0739632
0.125798
0.675713
0.931023
1.02236
1.0269
1.01786
1.01043
1.01689
1.03307
1.05375
1.07352
1.08956
1.09594
1.08923
1.06654
1.02589
0.96586
0.885772
0.78807
0.678759
0.565802
0.457104
0.361254
0.28203
0.220266
0.172733
0.133772
0.101849
0.0791671
0.0737378
0.127024
0.693975
0.952638
1.04111
1.0431
1.03153
1.02232
1.02799
1.04442
1.06639
1.08829
1.10735
1.11875
1.11865
1.10351
1.07128
1.01973
0.948094
0.857423
0.750768
0.634491
0.517753
0.409576
0.31671
0.242622
0.185382
0.140044
0.103996
0.0790917
0.0732068
0.128753
0.712291
0.97327
1.05869
1.05838
1.04357
1.03324
1.03821
1.05488
1.07754
1.10084
1.12185
1.13662
1.14229
1.13338
1.10832
1.06576
1.00466
0.923506
0.823649
0.708725
0.586785
0.467372
0.360094
0.27163
0.202686
0.149268
0.107622
0.079441
0.0727284
0.130544
0.729847
0.992185
1.07475
1.07228
1.05405
1.04281
1.04702
1.06328
1.08587
1.10895
1.13031
1.1467
1.15417
1.15006
1.13134
1.09939
1.04969
0.979864
0.890282
0.782081
0.659545
0.531953
0.411053
0.307366
0.225099
0.161697
0.112817
0.0800493
0.0725293
0.132123
0.744811
1.0089
1.08869
1.08464
1.06346
1.05044
1.05356
1.06927
1.09116
1.11249
1.13189
1.14726
1.15538
1.15724
1.14755
1.12605
1.08739
1.03029
0.952748
0.853909
0.735712
0.603914
0.471346
0.351929
0.254247
0.178457
0.120329
0.0817156
0.0727813
0.132859
0.757266
1.02277
1.09995
1.09517
1.07194
1.05626
1.05765
1.07212
1.09211
1.10949
1.12589
1.13997
1.15145
1.15912
1.15626
1.14383
1.11595
1.07087
1.00578
0.917698
0.807221
0.677406
0.537886
0.404227
0.290085
0.199657
0.130037
0.0841136
0.0726503
0.133166
0.767099
1.03309
1.10784
1.10304
1.07867
1.06028
1.05977
1.07224
1.08838
1.10027
1.11559
1.13195
1.14611
1.15748
1.16089
1.1559
1.13776
1.10466
1.05243
0.975781
0.8746
0.749811
0.60831
0.463829
0.33333
0.226241
0.143012
0.0876555
0.0726067
0.132934
0.773472
1.04064
1.11266
1.10759
1.08206
1.06287
1.06081
1.06965
1.07971
1.08983
1.10623
1.1238
1.13989
1.15332
1.16253
1.16307
1.15282
1.12996
1.08943
1.02555
0.935252
0.81844
0.679691
0.528675
0.382982
0.257662
0.159687
0.0925631
0.0724547
0.132543
0.775793
1.04398
1.11519
1.10864
1.08269
1.06334
1.05995
1.06473
1.0711
1.08171
1.09824
1.11619
1.13333
1.14782
1.16168
1.16681
1.1633
1.14953
1.11981
1.06816
0.990774
0.885461
0.752431
0.598532
0.439795
0.295888
0.180997
0.0994203
0.072585
0.131418
0.776475
1.04332
1.11374
1.10743
1.08031
1.06153
1.05694
1.05817
1.06334
1.07432
1.09106
1.1091
1.12658
1.14171
1.1587
1.16813
1.17006
1.16409
1.1439
1.1037
1.03879
0.945761
0.822149
0.669941
0.502509
0.34179
0.208193
0.108911
0.0728629
0.130267
0.7699
1.03894
1.10833
1.10309
1.07551
1.0573
1.052
1.0511
1.05595
1.06739
1.08444
1.10242
1.12003
1.13568
1.15452
1.16811
1.17471
1.17554
1.16397
1.13444
1.08184
1.0017
0.888049
0.741119
0.569345
0.39602
0.242345
0.122041
0.0734151
0.128494
0.763768
1.02919
1.09909
1.09511
1.06818
1.05047
1.04513
1.0436
1.04819
1.06098
1.0781
1.09655
1.11404
1.1301
1.15033
1.16729
1.17812
1.18458
1.1804
1.16031
1.11909
1.05103
0.948031
0.808941
0.639531
0.457334
0.283369
0.139457
0.074207
0.126349
0.752499
1.0148
1.0856
1.08297
1.0577
1.04134
1.0364
1.0356
1.04087
1.05445
1.07236
1.09125
1.10893
1.12555
1.14697
1.16634
1.18127
1.19217
1.19402
1.1818
1.15033
1.09295
1.00196
0.873747
0.712045
0.524751
0.331659
0.162095
0.0754183
0.124025
0.738687
0.996989
1.06575
1.06651
1.04393
1.02981
1.02592
1.0268
1.0339
1.04795
1.0668
1.08633
1.1051
1.12249
1.14506
1.16562
1.18446
1.19872
1.20508
1.19889
1.17523
1.12746
1.04845
0.933764
0.782917
0.594661
0.384889
0.189758
0.0770351
0.121227
0.720041
0.972986
1.04129
1.04513
1.02631
1.01564
1.01375
1.01681
1.02638
1.04166
1.06165
1.08217
1.1015
1.12132
1.14466
1.16623
1.18773
1.20487
1.21444
1.21276
1.19548
1.15656
1.08921
0.98832
0.847844
0.662454
0.44293
0.222932
0.0790094
0.118407
0.700021
0.944144
1.01235
1.01985
1.0045
0.998731
0.999806
1.00551
1.01738
1.03563
1.05692
1.07872
1.09916
1.12112
1.14615
1.16877
1.19118
1.21111
1.22299
1.2247
1.2127
1.18185
1.12525
1.03624
0.905458
0.725887
0.504134
0.261232
0.0815647
0.115043
0.674842
0.908301
0.975693
0.983433
0.977964
0.978468
0.983754
0.992995
1.00748
1.02829
1.05217
1.07589
1.09812
1.1223
1.14925
1.17318
1.1959
1.21746
1.23148
1.23561
1.22786
1.20393
1.15698
1.07879
0.958473
0.788339
0.568133
0.303976
0.08487
0.112214
0.647945
0.864784
0.929989
0.94369
0.945798
0.954281
0.964995
0.978381
0.996603
1.0205
1.04701
1.07293
1.09829
1.12495
1.1533
1.17958
1.2026
1.22381
1.24004
1.24588
1.24157
1.22329
1.1844
1.11609
1.00691
0.848924
0.631729
0.349385
0.0890636
0.108647
0.610136
0.803001
0.868056
0.891221
0.90684
0.924811
0.942602
0.961017
0.984045
1.01175
1.04152
1.07018
1.09911
1.12889
1.15888
1.18634
1.20974
1.22948
1.24644
1.25402
1.25312
1.23979
1.20755
1.14809
1.05043
0.904019
0.690393
0.39513
0.0939259
0.107992
0.545226
0.698637
0.773456
0.81762
0.850782
0.887377
0.91508
0.939947
0.968833
1.00147
1.03528
1.06732
1.10029
1.13314
1.16467
1.19216
1.21443
1.23188
1.24774
1.2576
1.26086
1.25312
1.22672
1.17496
1.08674
0.94873
0.739164
0.436516
0.0987303
0.0921523
0.384427
0.49184
0.613913
0.70805
0.777663
0.839071
0.880548
0.914476
0.950178
0.9885
1.02736
1.06421
1.10115
1.13642
1.16921
1.19588
1.21716
1.23698
1.25361
1.26612
1.26993
1.26382
1.2423
1.19659
1.11527
0.983772
0.779637
0.47331
0.10394
0.0758583
0.0825211
0.102925
0.126472
0.151047
0.176847
0.2059
0.241937
0.289034
0.348255
0.420252
0.503227
0.595923
0.688654
0.776377
0.85416
0.91651
0.960905
0.986998
0.998251
0.997303
0.988535
0.978195
0.972781
0.97657
0.973153
0.943986
0.822156
0.545169
0.113212
0.0750492
0.0815353
0.101859
0.126167
0.15271
0.181615
0.21534
0.25839
0.31423
0.384542
0.467137
0.558542
0.65526
0.747953
0.830611
0.899456
0.951443
0.983966
1.00033
1.00282
0.995395
0.984306
0.973305
0.967488
0.97324
0.974744
0.955156
0.847424
0.581949
0.10832
0.0746288
0.0808567
0.101545
0.127136
0.15566
0.188126
0.227872
0.279984
0.346845
0.429732
0.524164
0.62496
0.726511
0.819904
0.898823
0.9614
1.0062
1.03048
1.03895
1.03369
1.01881
1.0022
0.987107
0.978692
0.981448
0.984013
0.969315
0.871132
0.622745
0.116518
0.0740639
0.0800095
0.101285
0.12861
0.16033
0.197991
0.245288
0.307375
0.386307
0.480735
0.585367
0.692543
0.79371
0.883549
0.956166
1.00989
1.04498
1.06115
1.06224
1.05127
1.03276
1.01399
0.99782
0.9892
0.992583
0.997791
0.986452
0.892357
0.64579
0.121941
0.0735416
0.0795418
0.101878
0.13201
0.168111
0.212382
0.269152
0.343493
0.435928
0.542399
0.655534
0.765658
0.865536
0.950212
1.01527
1.06007
1.08605
1.09424
1.08837
1.07173
1.04897
1.02801
1.0109
1.00223
1.00651
1.01382
1.00499
0.91323
0.662169
0.123367
0.0728592
0.0789419
0.103155
0.137012
0.178621
0.231021
0.299153
0.386112
0.490737
0.606909
0.724359
0.833271
0.927169
1.0031
1.05985
1.0968
1.11591
1.11776
1.10732
1.08786
1.06242
1.0402
1.02263
1.01471
1.02046
1.03053
1.02405
0.935019
0.680421
0.12458
0.0724992
0.0790193
0.105726
0.144417
0.193165
0.25578
0.337075
0.437841
0.553853
0.67718
0.795037
0.898747
0.983472
1.04831
1.09516
1.12469
1.13794
1.13483
1.12128
1.10013
1.07416
1.051
1.03312
1.02588
1.0329
1.04624
1.04198
0.955869
0.69865
0.12655
0.0723646
0.0796068
0.109786
0.154521
0.212022
0.286732
0.382605
0.497078
0.621952
0.746597
0.859647
0.954284
1.0286
1.08192
1.11684
1.13835
1.14631
1.14153
1.12726
1.10606
1.08224
1.05904
1.04147
1.03521
1.04346
1.06043
1.05833
0.974938
0.715843
0.12828
0.0724866
0.0809744
0.115774
0.16831
0.236766
0.326005
0.43762
0.564785
0.695397
0.817204
0.9215
1.00459
1.06645
1.10889
1.13316
1.14456
1.14488
1.13824
1.12501
1.10675
1.0856
1.0635
1.04692
1.04229
1.05295
1.07303
1.07281
0.991729
0.731116
0.130003
0.0725199
0.082824
0.123811
0.186316
0.26798
0.373137
0.49998
0.63682
0.768315
0.883177
0.976182
1.04638
1.09605
1.12777
1.14264
1.14704
1.14093
1.12981
1.11594
1.10037
1.08395
1.06437
1.04965
1.0473
1.06147
1.08387
1.08495
1.00571
0.743759
0.130897
0.0725313
0.0855988
0.134758
0.209315
0.306558
0.428455
0.568269
0.710111
0.838084
0.943637
1.02499
1.08181
1.11922
1.1412
1.14844
1.14631
1.13573
1.12198
1.10571
1.08976
1.07759
1.0623
1.05004
1.05031
1.06879
1.09232
1.09409
1.01639
0.753764
0.131134
0.0724698
0.0892919
0.148411
0.236826
0.351337
0.489161
0.637666
0.778827
0.900118
0.99569
1.06458
1.10931
1.13572
1.14917
1.15083
1.14312
1.13012
1.11454
1.09718
1.08022
1.06884
1.05871
1.04937
1.05217
1.07299
1.09767
1.09977
1.02406
0.761574
0.131122
0.072575
0.0947855
0.166608
0.270653
0.403499
0.556157
0.709884
0.846966
0.958678
1.04128
1.0971
1.13033
1.14702
1.15316
1.15041
1.1379
1.12395
1.10737
1.08971
1.07332
1.0617
1.05445
1.04811
1.05235
1.07364
1.09948
1.10257
1.02881
0.764663
0.130756
0.072855
0.102486
0.190217
0.312097
0.462561
0.626816
0.781198
0.910274
1.00964
1.0792
1.12278
1.14583
1.15423
1.1544
1.14794
1.13197
1.11743
1.10068
1.0831
1.06689
1.05503
1.04966
1.04539
1.05063
1.07149
1.09829
1.10218
1.02982
0.766048
0.129801
0.0732668
0.113197
0.22008
0.36201
0.527233
0.697743
0.848816
0.968235
1.05445
1.11099
1.14342
1.15757
1.15895
1.15427
1.14406
1.12604
1.11106
1.09428
1.07716
1.06067
1.04852
1.04418
1.04111
1.0469
1.06661
1.09442
1.09762
1.02661
0.761686
0.129021
0.0738201
0.127456
0.25624
0.419308
0.596498
0.767202
0.910708
1.01889
1.09247
1.1374
1.1602
1.16687
1.16249
1.15378
1.13988
1.12065
1.10528
1.0885
1.07123
1.05469
1.04192
1.03783
1.03515
1.04083
1.05949
1.08683
1.08919
1.02004
0.756489
0.127427
0.0747407
0.146387
0.299632
0.483412
0.669095
0.834273
0.967268
1.06303
1.12496
1.15972
1.17445
1.17499
1.16601
1.1536
1.13666
1.11632
1.10037
1.08357
1.06571
1.04866
1.03534
1.03064
1.02742
1.03245
1.04956
1.07489
1.07616
1.00546
0.746646
0.12544
0.0760494
0.170308
0.349193
0.551575
0.741018
0.896949
1.01737
1.1008
1.15208
1.17837
1.18673
1.18253
1.17005
1.15404
1.13494
1.11365
1.09672
1.079
1.06049
1.04271
1.02862
1.02241
1.01787
1.02178
1.03645
1.0587
1.05886
0.989617
0.734474
0.123318
0.0773724
0.199512
0.403873
0.620229
0.808963
0.955038
1.06205
1.1335
1.17525
1.1945
1.19785
1.19006
1.17486
1.15536
1.1352
1.11297
1.09352
1.07505
1.0555
1.03655
1.02159
1.01282
1.00637
1.00856
1.01937
1.03781
1.03388
0.967227
0.717158
0.120684
0.0793751
0.234241
0.462947
0.684951
0.870194
1.0077
1.10216
1.16246
1.19563
1.20892
1.20832
1.19788
1.18012
1.15847
1.13742
1.11357
1.09126
1.07181
1.05097
1.03028
1.01353
1.00144
0.992975
0.99247
0.997997
1.01208
1.00623
0.939803
0.698433
0.118025
0.0822558
0.274434
0.526464
0.749599
0.927008
1.0545
1.13794
1.18817
1.21388
1.22226
1.21859
1.20613
1.18588
1.16377
1.14162
1.11509
1.09032
1.06932
1.04667
1.0238
1.00378
0.988017
0.977483
0.973029
0.971888
0.978547
0.970435
0.905181
0.674393
0.114837
0.0859898
0.319143
0.592398
0.81362
0.97923
1.09558
1.16876
1.21037
1.23003
1.23459
1.22879
1.21436
1.19317
1.17115
1.14629
1.11815
1.09106
1.06663
1.0418
1.01645
0.992644
0.972928
0.958941
0.949475
0.940203
0.938024
0.925423
0.86233
0.648084
0.112149
0.090403
0.365893
0.655916
0.873417
1.02724
1.1311
1.19475
1.22897
1.24342
1.24461
1.2374
1.22132
1.20149
1.1791
1.1526
1.12258
1.09249
1.06404
1.03662
1.00767
0.979558
0.955631
0.936672
0.920651
0.901353
0.886486
0.864249
0.800881
0.610239
0.108657
0.0951433
0.410522
0.710652
0.923972
1.06783
1.16081
1.2158
1.24295
1.2518
1.24906
1.24044
1.22472
1.20748
1.18583
1.15894
1.12732
1.09411
1.06173
1.03006
0.996958
0.964379
0.935217
0.909524
0.884285
0.848723
0.8146
0.771045
0.697154
0.544805
0.107976
0.10032
0.452715
0.75783
0.96514
1.10028
1.1845
1.23203
1.25515
1.26196
1.25843
1.24705
1.23014
1.21086
1.19033
1.16398
1.13101
1.09528
1.05891
1.02205
0.984166
0.945997
0.91016
0.875782
0.837223
0.776975
0.708106
0.614984
0.491085
0.38216
0.0922689
0.462737
0.463754
0.470403
0.474693
0.481416
0.486445
0.492997
0.498424
0.504795
0.510488
0.516769
0.522709
0.529055
0.535304
0.541923
0.548716
0.55574
0.562839
0.569965
0.57699
0.583863
0.590531
0.5969
0.602888
0.608609
0.613843
0.618515
0.622669
0.626377
0.629701
0.63269
0.635223
0.637333
0.639048
0.64038
0.641332
0.641886
0.642011
0.641676
0.640842
0.639461
0.637487
0.634879
0.631605
0.627618
0.622939
0.617559
0.611485
0.604812
0.597556
0.589445
0.581138
0.572666
0.563673
0.55437
0.544609
0.534284
0.523102
0.511454
0.499389
0.486768
0.473543
0.459918
0.446013
0.431827
0.417388
0.402824
0.388246
0.37374
0.359379
0.345263
0.331475
0.318082
0.305124
0.29272
0.280913
0.269697
0.25912
0.249306
0.240203
0.231718
0.223791
0.216429
0.209579
0.203122
0.197084
0.191486
0.186205
0.181144
0.176377
0.172014
0.167761
0.163613
0.159707
0.156295
0.152955
0.149425
0.146173
0.143514
0.141232
0.139093
0.137108
0.13548
0.134238
0.13346
0.133185
0.133483
0.134235
0.135302
0.136618
0.137925
0.139002
0.139725
0.140065
0.139881
0.139138
0.137841
0.136023
0.133563
0.13047
0.126587
0.122046
0.117015
0.111614
0.105984
3.62668
3.62485
3.67574
3.72369
3.77698
3.82917
3.88302
3.936
3.98985
4.04317
4.09722
4.1511
4.20531
4.25885
4.31088
4.3614
4.41327
4.46541
4.517
4.56769
4.61708
4.66462
4.71055
4.75585
4.79559
4.82923
4.85888
4.88587
4.9113
4.93506
4.95643
4.97536
4.99199
5.00623
5.01794
5.02691
5.03279
5.03515
5.03355
5.02758
5.01694
5.00146
4.98108
4.95586
4.9259
4.89134
4.85202
4.80819
4.76001
4.70732
4.65037
4.589
4.52133
4.44939
4.37317
4.29285
4.21009
4.12301
4.02613
3.92918
3.82829
3.72402
3.61599
3.5051
3.39141
3.2754
3.15819
3.04065
2.92334
2.80689
2.69222
2.57999
2.4707
2.36485
2.26251
2.16395
2.06915
1.97722
1.8867
1.79963
1.71918
1.64434
1.57465
1.50965
1.44872
1.39138
1.33725
1.28586
1.23664
1.18922
1.1434
1.09878
1.05514
1.01252
0.971506
0.932548
0.895812
0.860808
0.826658
0.791932
0.757945
0.725079
0.694097
0.665538
0.639951
0.617908
0.599793
0.585756
0.575741
0.569643
0.566957
0.567128
0.569447
0.573341
0.578044
0.582984
0.587369
0.590285
0.590642
0.587999
0.580718
0.568131
0.549533
0.524137
0.491381
6.08812
6.07631
6.1307
6.19146
6.25619
6.32188
6.38849
6.45515
6.52254
6.58973
6.65763
6.72563
6.79382
6.86177
6.92906
6.99474
7.05894
7.12279
7.18502
7.2449
7.30196
7.35619
7.40843
7.45622
7.49286
7.5227
7.54838
7.57166
7.59372
7.61052
7.62447
7.63549
7.6433
7.64758
7.64794
7.64383
7.63455
7.6194
7.59781
7.5695
7.53444
7.49281
7.44494
7.39127
7.33224
7.26787
7.19804
7.12341
7.04393
6.95962
6.87056
6.77677
6.67726
6.57293
6.46364
6.34952
6.23087
6.10713
5.97711
5.84148
5.70208
5.55462
5.39646
5.24398
5.08748
4.92868
4.76776
4.6054
4.44247
4.28016
4.12008
3.96305
3.80961
3.66028
3.51592
3.37701
3.24377
3.11621
2.99414
2.87779
2.7655
2.659
2.55974
2.46653
2.37823
2.29431
2.21417
2.13718
2.06289
1.99092
1.92089
1.85253
1.78571
1.72047
1.65698
1.5952
1.53523
1.47714
1.42052
1.36512
1.31112
1.25904
1.21001
1.16403
1.12136
1.0829
1.04866
1.01907
0.994101
0.973775
0.957737
0.945555
0.93673
0.930688
0.926788
0.924525
0.92307
0.921372
0.917987
0.912215
0.902065
0.886329
0.864057
0.835372
0.799438
7.64575
7.62098
7.6576
7.71183
7.76915
7.82939
7.89148
7.95436
8.01776
8.08147
8.1458
8.21043
8.2752
8.33975
8.40372
8.46603
8.52569
8.58215
8.63537
8.68548
8.73174
8.77449
8.8135
8.84273
8.86198
8.87535
8.88548
8.8942
8.90011
8.90119
8.89915
8.89393
8.88521
8.8726
8.85545
8.83287
8.80384
8.76751
8.72354
8.67215
8.61391
8.54949
8.4796
8.40501
8.3263
8.24313
8.1561
8.06528
7.97048
7.87158
7.76858
7.66141
7.54991
7.43448
7.31498
7.19098
7.06184
6.92678
6.78612
6.64051
6.49065
6.33631
6.17686
6.01335
5.84716
5.67144
5.49048
5.31832
5.14594
4.97515
4.8063
4.63898
4.47407
4.31266
4.15644
4.00612
3.86218
3.72496
3.5948
3.47156
3.3547
3.24369
3.13676
3.0344
2.93657
2.84411
2.75477
2.66774
2.58268
2.49932
2.41751
2.33719
2.25831
2.18093
2.10525
2.03126
1.95907
1.88884
1.8205
1.75418
1.69002
1.62838
1.56976
1.51419
1.46197
1.41379
1.3703
1.33174
1.29588
1.2646
1.23756
1.21426
1.19451
1.17792
1.16404
1.15246
1.14266
1.13387
1.12503
1.11464
1.10127
1.08414
1.06197
1.03485
1.00198
8.60124
8.55977
8.56633
8.60455
8.64555
8.69178
8.74012
8.78963
8.83987
8.89069
8.94198
8.99348
9.04488
9.09577
9.14559
9.1934
9.23824
9.27898
9.31483
9.34404
9.36962
9.39131
9.40637
9.41153
9.40812
9.40006
9.38987
9.37911
9.36459
9.34605
9.32455
9.30013
9.27268
9.24163
9.20603
9.1646
9.11598
9.05942
8.99511
8.92408
8.8477
8.76706
8.68294
8.59632
8.50756
8.41645
8.32376
8.22872
8.13087
8.02991
7.92572
7.81823
7.70764
7.59448
7.47872
7.35987
7.23657
7.1079
6.97443
6.83632
6.69369
6.54667
6.39559
6.24108
6.08368
5.92318
5.75941
5.59435
5.42997
5.25612
5.08734
4.92687
4.76893
4.61496
4.46535