/*--------------------------------*- C++ -*----------------------------------*\
| =========                 |                                                 |
| \\      /  F ield         | OpenFOAM: The Open Source CFD Toolbox           |
|  \\    /   O peration     | Version:  2112                                  |
|   \\  /    A nd           | Website:  www.openfoam.com                      |
|    \\/     M anipulation  |                                                 |
\*---------------------------------------------------------------------------*/
FoamFile
{
    version     2.0;
    format      ascii;
    arch        "LSB;label=32;scalar=64";
    class       volScalarField;
    location    "0.00208";
    object      k;
}
// * * * * * * * * * * * * * * * * * * * * * * * * * * * * * * * * * * * * * //

dimensions      [0 2 -2 0 0 0 0];

internalField   nonuniform List<scalar> 
13875
(
812.072
3462.84
3539.99
3539.58
3542.53
3540.44
3540.48
3540.77
3541.29
3542.37
3541.09
3540.24
3539.35
3540.54
3542.46
3543.02
3539.81
3540.72
3540.38
3540.14
3542.3
3539
3539.94
3462
820.32
881.72
2937.09
3013.04
3001.17
3001.04
2997.48
2996.6
2996.95
2997.59
2996.17
2997.69
2996.41
2996.26
2997.22
2998.28
2995.72
2996.53
2996.75
2996.31
2997.03
3000.45
2999.14
3011.55
2934.68
894.267
993.359
2711.52
2777.76
2755.88
2756.85
2753.98
2752.58
2751.84
2744.69
2741.42
2744.45
2751.64
2751.69
2750.48
2748
2741.45
2743.51
2751.3
2752.04
2753.43
2756.3
2752.81
2774.43
2706.95
998.176
1091.15
2534.3
2581.3
2561.98
2564.74
2562.14
2560.48
2559.56
2549.7
2547.72
2549.28
2559.53
2559.68
2558.67
2555.93
2548.58
2548.48
2559.13
2559.97
2561.59
2564.22
2559.09
2579.05
2529.55
1093.9
1172.37
2381.07
2413.54
2393.22
2395.9
2393.55
2391.96
2390.59
2380.46
2379.55
2380.22
2390.86
2391.09
2390.21
2387.24
2380.44
2379.61
2390.07
2391.46
2392.99
2395.4
2390.83
2410.41
2375.48
1177.57
1241.57
2238.22
2271.59
2245.31
2248.95
2246.03
2243.98
2241.7
2230.97
2231.11
2230.81
2241.98
2242.37
2241.56
2238.34
2232.11
2230.36
2241
2243.49
2245.47
2248.42
2243.53
2267.79
2247.49
1247.62
1321.86
2123.55
2159.35
2121.07
2121.19
2116.61
2113.42
2109.93
2098.74
2099.76
2098.57
2110.28
2110.93
2110.16
2106.51
2101.02
2098.37
2109.24
2112.98
2115.92
2120.35
2119.66
2154.18
2096.18
1323.99
1413.87
2004.93
2076.35
2021.62
2015.71
2006.67
2000.46
1994.88
1982.91
1984.48
1982.05
1994.19
1995.41
1994.91
1990.63
1986.05
1982.44
1993.75
1999.65
2005.2
2013.63
2019.15
2068.54
1993.21
1421.23
1698.29
2035.2
2026.83
1949.12
1927.77
1913.98
1904.21
1895.84
1883.58
1885.5
1881.68
1894.21
1896.09
1895.85
1891.08
1887.53
1883.27
1894.38
1902.99
1911.81
1925.43
1943.96
2019.18
2035.3
1718.83
2538.99
2311.52
2032.41
1907.27
1872.45
1846.87
1832.11
1820.23
1809.5
1810.51
1806.73
1818.41
1820.89
1820.9
1816.21
1813.57
1809.73
1818.65
1829.7
1843.06
1866.41
1898.72
2015.49
2270.65
2531.83
3919.23
3052.98
2158.22
1950.02
1852.27
1811.29
1790.05
1774.33
1765.01
1764.58
1761.45
1771.17
1774.16
1774.61
1771.01
1768.84
1766.43
1773.25
1786.73
1804.82
1842.19
1928.34
2147.06
2954.54
3873.54
5152.2
6303.8
3156.75
2105.65
1933.17
1836.64
1792.38
1771.34
1760.28
1757.46
1754.63
1761.32
1764.2
1765.8
1763.69
1762.09
1762.02
1770.56
1788.75
1826.73
1904.46
2023.21
2882.69
6331.26
5126.99
5037.23
6693.25
8227.31
4564.13
2271.38
1967.15
1899.14
1865.13
1854.03
1852.36
1847.16
1854.57
1855.26
1857.84
1857.06
1856.43
1858.3
1867.61
1892.99
1960.79
2246.12
3655.45
7220.81
7139.73
5019.18
4787.75
5781.84
7468.47
10531.5
5959.04
2962.22
2678.16
2410.78
2335.59
2267.05
2302.83
2234.99
2309.18
2249.31
2265.58
2265.21
2299.87
2372.18
2603.65
2966.41
6126.39
8931.36
7187.81
6088.47
4866.79
4592.57
5196.09
6335.53
8256.02
7243.82
5870.52
6411.45
5937.74
5677.21
5427.17
5843.19
5415.02
5917.68
5594.52
5599.1
5482.09
5466.3
5742.21
6535.53
5968.57
7142.96
7447.37
6240.16
5429.94
4797.88
4390.17
4808.45
5966.6
7431
7368.75
9108.35
8795.02
6779.7
6262.83
6477.47
6440.52
6659.68
6582.13
6756.48
6514.33
6590.02
6320.06
6429.05
7704.31
9690.51
7814.54
7032.8
5826.8
4982.41
4623.57
4133.78
4672.97
5886.3
7167.01
7139.32
9389.41
7557.43
5453.19
5042.68
5044.49
5096.18
5171.14
5187.41
5227.3
5102.88
5131.62
5053.05
5149.72
6413.76
9682.52
7841.71
7035.34
5928.2
4799.01
4263.48
3636.61
4768.12
5846.93
6194.46
6096.2
8007.28
6672
4957.02
4405.61
4287.54
4271.12
4285.71
4314.51
4317.11
4271.05
4346.4
4380.75
4660.19
5976.99
7865.95
6575.16
6177.71
5992.79
5043.03
3743.64
3094.27
4793.92
5459.45
5390.7
5179.3
6259.79
6114.56
5064.28
4269.43
3877.98
3725.26
3670
3685.18
3681.59
3690.64
3832.51
4068.43
4659.02
5725.24
6280.33
5414.24
5412.99
5556.12
5127.3
3238.75
2866.87
4654.29
4802.64
4729.07
4560.4
5195.37
5499.35
5013.43
4234.34
3659.65
3363.47
3238.34
3230.07
3239.92
3322.24
3581.45
4024.56
4711.9
5316.72
5248.76
4695.7
4749.21
4858.75
4697.26
3003.29
3209.17
4036.16
4182.77
4175.81
4065.99
4536.64
4938.96
4704.72
4032.8
3421.6
3051.1
2876.77
2851.38
2880.37
3024.37
3357.52
3864.75
4491.77
4848.98
4605.93
4173.28
4207.02
4206.37
4008.58
3348.11
4181.9
4085.85
3795.97
3780.44
3687.69
4068.08
4444.59
4321.26
3751.83
3158.36
2762.57
2565.16
2526.94
2568.11
2740.25
3097.21
3600.14
4142.83
4391.22
4150.64
3784.47
3809.27
3777.73
4034.47
4182.87
4899.78
4543.01
3529.57
3428.46
3364
3676.81
4004.69
3928.41
3435.46
2885.07
2496.19
2293.88
2248.36
2291.24
2467.27
2814.82
3280.19
3754.54
3958.85
3756.95
3446.29
3456.04
3490.04
4453.15
4822.11
5049.68
4571.86
3264.2
3129.8
3080.09
3318.56
3607.76
3555.62
3101.18
2596.84
2240.95
2053.13
2010.08
2054.36
2222.96
2546.14
2969.34
3397.97
3571.69
3388.63
3160.58
3178.2
3250.48
4427.83
4935.43
5123.23
4485.29
3037.72
2888.25
2837.24
3015.16
3261.47
3212.98
2800.63
2344.87
2019.52
1848.43
1808.79
1850.86
2007.58
2305.63
2691.83
3072.03
3223.92
3071.3
2909.8
2944.42
3047.97
4388.58
5011.15
5195.48
4439.89
2880.14
2697.26
2632.05
2763.08
2958.83
2898.58
2527.04
2122.32
1829.39
1674.19
1635.96
1675.54
1817.39
2084.92
2427.72
2765.14
2912.04
2803.78
2691.72
2747.74
2887.11
4276.5
5067.01
5268.53
4411.27
2749.58
2541.89
2460.7
2548.85
2685.61
2605.49
2273.79
1919.49
1659.82
1523.59
1488.63
1525.6
1655.6
1897.83
2203.66
2500.63
2643.82
2579.72
2511.26
2593.22
2762.92
4266.68
5155.82
5373.17
4383.51
2652.97
2405.97
2321.05
2370.07
2452.45
2354.02
2056.54
1746.59
1516.57
1395.08
1362
1396.58
1513.33
1727.31
1996.25
2260.42
2406.33
2389.63
2362.08
2452.98
2656.62
4216.21
5250.17
5562.91
4295.14
2562.04
2281.62
2198.45
2217.56
2249.62
2136.65
1869.55
1596.75
1392.24
1283.87
1252.52
1284.1
1387.23
1576.23
1813.47
2047.35
2194.88
2223.92
2228.38
2321.4
2565.06
4072.99
5344.46
5634.42
4180.11
2481.98
2167.26
2081.08
2079.34
2065.96
1936.14
1695.07
1458.64
1280.63
1186.32
1157.48
1187.88
1281.47
1449.03
1659.73
1872.23
2021.54
2081.65
2104.64
2204.85
2490.23
3995.95
5528.9
5599.63
4082.27
2427.73
2076.84
1971.02
1951.91
1909.44
1772.34
1553.09
1343.62
1185.41
1101.5
1074.63
1102.77
1185.45
1334.02
1522.16
1714.69
1863.42
1946.27
1986.54
2109.68
2422.01
3905.3
5529.47
5576.63
4009.38
2386.83
2012.35
1869.93
1834.79
1774.13
1631.27
1430.54
1243.69
1103.1
1027.8
1002.06
1028.66
1102.28
1233.29
1402.42
1579.51
1728.2
1822.95
1879.97
2035.18
2371.95
3812.15
5459.9
5506.14
3882.7
2375.67
1961.95
1782.11
1723.75
1647.7
1504.28
1321.19
1154.16
1028.37
961.824
938.062
963.405
1030.05
1148.61
1302.71
1464.91
1608.8
1711.28
1789.05
1976.23
2345.21
3745.43
5441.71
5484.56
3759.75
2364.67
1934.25
1710.22
1627.31
1538.63
1397.22
1228.19
1077.55
964.838
904.554
881.555
905.696
965.732
1071.18
1211.46
1362.55
1500.11
1611.71
1715.13
1937.43
2346.67
3638.89
5395.69
5472.08
3674.58
2309.22
1916.48
1657.82
1541.18
1439.93
1303.57
1148.9
1011.89
908.167
853.424
831.527
854.146
908.543
1005.23
1133.25
1272.19
1403.21
1524.47
1660.23
1917.15
2317.72
3533.67
5357.62
5404.79
3532.7
2232.08
1904.48
1619.39
1468.13
1352.45
1217.69
1075.12
950.834
857.565
807.927
787.068
809.15
859.575
947.203
1064.95
1194.96
1321.34
1453.23
1618.08
1911.32
2253.39
3446.13
5320.39
5360.76
3416.03
2158.74
1923.06
1596.32
1411.81
1277.6
1144.21
1012.37
898.83
812.896
767.274
747.303
768.315
814.117
894.936
1002.46
1123.76
1248.07
1396.16
1588.61
1925.59
2169.28
3313.09
5263.67
5342.37
3309.4
2085.87
1917.66
1591.45
1369.92
1217.32
1081.35
956.279
851.372
773.062
731.175
711.756
732.03
773.832
847.182
947.043
1063.9
1190.72
1354.46
1583.65
1918.52
2083.36
3191.38
5240.77
5291.93
3190.01
1985.73
1862.03
1595.77
1337.67
1169.72
1026.32
905.66
808.464
736.246
697.773
679.518
699.109
737.836
806.223
899.63
1013.7
1148.76
1323.43
1591.95
1868.67
1989.95
3097.5
5235.44
5266.78
3097.58
1887.83
1801.27
1637.48
1324.66
1135.14
984.435
863.032
770.756
703.806
668.088
650.334
669.138
704.894
768.093
857.041
973.674
1115.84
1307.25
1628.29
1803.77
1884.57
2998.35
5196.93
5253.04
3037.75
1809.44
1730.94
1647.38
1331.43
1109.44
953.129
828.123
738.073
674.3
640.771
623.676
641.397
675.082
734.857
822.215
943.361
1092.72
1317.28
1637.16
1729.68
1793.66
2928.22
5173.87
5208.39
2969.84
1728.3
1650.53
1602.48
1365.5
1094.24
927.636
800.106
709.471
647.577
615.883
599.342
616.778
648.828
707.506
796.43
920.457
1087.37
1362.92
1586.88
1650.78
1733.85
2890.49
5167.83
5176.03
2919.2
1668.74
1570.49
1542.5
1402.71
1105.11
910.942
780.722
685.693
624.224
593.082
577.007
593.988
625.191
683.929
776.17
902.265
1101.22
1392.99
1523.73
1571.02
1665.67
2832.42
5132.48
5152.97
2888
1636.79
1502.15
1474.57
1387.38
1146.82
906.645
764.446
668.046
605.217
573.167
556.968
574.031
606.185
666.424
759.401
896.874
1155.5
1374.26
1452.3
1502.3
1618.79
2784.58
5109.64
5131.14
2827.5
1590.02
1440.33
1403.94
1343.47
1218.61
924.442
753.3
654.744
591.379
556.915
539.867
557.77
592.311
653.739
749.401
923.679
1205.07
1330
1382.17
1443.42
1592.91
2756.36
5094.17
5106.26
2782.74
1568.82
1389.08
1340.76
1297.26
1241.79
1001.52
753.709
644.406
581.345
545.495
526.641
546.109
581.751
642.793
748.453
979.171
1199.16
1279.59
1322.12
1391.5
1559.22
2704.41
5080.3
5083.32
2751.02
1557.07
1348.72
1288.14
1247.56
1206.19
1067.43
793.324
638.28
571.78
536.274
516.484
536.774
572.253
635.864
778.66
1042.17
1167.57
1227.32
1271.52
1348.68
1533.32
2661.49
5052.85
5019.38
2685.72
1528.83
1310.92
1241.99
1198.93
1164.73
1070.97
866.616
648.013
564.076
527.744
508.244
528.304
565.44
647.71
852.88
1054.03
1132.53
1179.91
1228.64
1313.97
1521.58
2624.5
4982.61
4895.71
2609.54
1500.42
1277.26
1203.25
1155.85
1119.15
1046.96
932.173
690.956
563.465
520.571
501.089
520.991
565.403
686.465
906.66
1031.32
1093.01
1138.12
1191.56
1279.61
1491.26
2547
4858.33
4527.13
2480.48
1470
1242.39
1166.98
1117.43
1075.69
1016.83
941.539
770.633
584.978
518.241
497.15
518.219
586.113
755.171
909.657
1002.15
1054.47
1102.22
1156.86
1243.45
1455.9
2413.76
4502.38
729.997
809.39
826.59
828.239
828.402
827.54
826.627
825.524
824.551
823.847
823.389
822.97
822.398
821.546
820.463
819.261
818.027
816.806
815.606
814.424
813.258
812.103
810.958
809.823
808.693
807.566
806.339
804.138
791.775
696.078
496.185
672.458
706.159
710.278
711.04
710.479
709.725
708.619
707.526
706.743
706.219
705.72
705.095
704.22
703.151
702.012
700.892
699.825
698.809
697.832
696.884
695.958
695.052
694.163
693.28
692.418
691.246
687.769
662.775
504.736
434.759
625.817
659.846
664.776
666.203
666.464
666.039
664.874
663.458
662.294
661.519
660.953
660.418
659.786
659.054
658.323
657.661
657.082
656.569
656.099
655.659
655.238
654.833
654.441
654.051
653.672
652.939
649.221
621.213
455.297
424.074
612.752
646.747
653.381
656.605
658.551
658.91
657.304
654.052
650.655
648.393
647.085
646.288
645.676
645.131
644.648
644.261
643.969
643.745
643.564
643.407
643.265
643.132
643.006
642.879
642.749
642.264
638.541
610.185
443.767
424.297
613.805
651.209
661.914
669.909
677.317
681.676
681.162
673.378
661.066
651.097
645.793
643.428
642.246
641.546
641.093
640.791
640.598
640.477
640.399
640.344
640.301
640.264
640.23
640.194
640.146
639.742
635.981
607.465
440.237
428.992
628.681
674.006
693.182
712.343
732.11
748.793
758.284
751.834
720.043
682.878
656.819
646.18
642.528
641.071
640.385
640.04
639.859
639.763
639.713
639.686
639.67
639.658
639.65
639.64
639.61
639.221
635.378
606.57
438.143
440.118
666.139
721.759
744.517
759.511
778.451
803.958
832.27
859.49
866.62
810.288
718.709
664.439
646.66
642.051
640.541
639.969
639.732
639.63
639.583
639.562
639.552
639.547
639.544
639.54
639.513
639.118
635.178
606.009
436.34
462.308
698.012
744.023
758.296
771.021
792.76
823.765
859.479
900.3
941.684
969.147
921.966
761.667
670.905
646.485
641.556
640.195
639.766
639.618
639.563
639.542
639.533
639.529
639.527
639.525
639.496
639.091
635.057
605.517
434.68
468.533
698.841
744.308
760.81
778.151
805.551
842.08
884.327
931.487
979.047
1026.31
1063.11
1025.79
800.747
673.237
645.628
641.055
639.953
639.653
639.567
639.54
639.53
639.527
639.525
639.523
639.492
639.077
634.956
605.064
433.158
469.283
694.615
741.168
762.382
784.79
817.798
859.664
908.619
963.367
1018.05
1069.57
1117.51
1156.71
1110.96
819.358
670.065
644.361
640.607
639.786
639.591
639.544
639.531
639.527
639.525
639.523
639.491
639.066
634.865
604.643
431.774
467.893
688.574
737.392
764.891
795.462
836.141
883.28
937.416
995.689
1054.94
1113.81
1166.48
1212.68
1249.12
1171
808.485
662.885
643.008
640.243
639.677
639.558
639.533
639.527
639.526
639.523
639.49
639.055
634.78
604.253
430.516
465.445
683.8
736.46
772.63
812.851
862.23
914.687
971.896
1034.36
1093.21
1153.55
1212.63
1264.23
1308.36
1336.39
1188.38
772.008
654.921
641.823
639.97
639.609
639.541
639.529
639.526
639.523
639.489
639.044
634.7
603.889
429.367
462.134
682.506
740.646
787.565
838.592
895.98
953.13
1010.91
1074.65
1134.62
1192.58
1251.56
1309.9
1359.74
1402.67
1411.78
1137.9
726.709
648.581
640.928
639.781
639.569
639.533
639.527
639.523
639.488
639.034
634.626
603.552
428.317
461.168
686.171
752.709
811.791
872.589
935.271
995.471
1051.42
1111.41
1172.51
1229.15
1285.22
1344.94
1403.41
1452.02
1494.59
1461.67
1015.17
687.383
644.519
640.323
639.662
639.547
639.529
639.524
639.487
639.025
634.557
603.241
427.358
462.567
697.923
774.095
843.954
911.874
976.132
1035.88
1086.87
1140.45
1197.84
1255.66
1310.42
1369.13
1432.47
1492.69
1541.92
1580.68
1449.97
868.544
662.209
642.134
639.951
639.594
639.536
639.525
639.486
639.016
634.495
602.961
426.49
467.122
717.708
806.03
885.335
951.975
1012.63
1066.74
1110.41
1154.44
1204.33
1264.94
1319.79
1379.97
1445.62
1515.11
1578.21
1631.88
1647.5
1317.99
752.444
649.495
640.823
639.737
639.557
639.527
639.486
639.008
634.439
602.707
425.708
484.142
752.443
847.639
924.321
985.535
1035.68
1078.62
1114.24
1146.41
1189
1249.31
1307.94
1371.95
1441.32
1517.16
1594.41
1660.89
1722.87
1651.96
1070.2
686.361
643.828
640.137
639.621
639.537
639.486
639.001
634.389
602.479
425.006
495.794
786.127
890.375
966.325
1007.76
1036.65
1067.96
1094.22
1115.84
1149.64
1207.43
1272.27
1341.11
1416.27
1498.21
1586.77
1672.02
1751.55
1783.78
1556.33
839.057
656.499
641.357
639.798
639.564
639.49
638.995
634.345
602.281
424.384
522.525
826.363
926.36
983.629
1009.46
1025.6
1042.46
1057.2
1071.95
1094.3
1145.28
1213.88
1286.89
1368.26
1457.85
1555.76
1658.37
1754.84
1831.41
1795.31
1249.53
714.102
645.543
640.282
639.638
639.5
638.991
634.306
602.107
423.842
537.164
857.555
955.022
1008.11
1016.9
1011.5
1011.04
1015.4
1022.64
1035.8
1074.09
1139.94
1213.69
1300.05
1398.06
1505.08
1619.11
1734.53
1848.66
1888.99
1700.33
915.977
662.493
641.693
639.821
639.529
638.992
634.273
601.955
423.365
579.82
885.947
970.438
1031.67
1053.57
1047.81
1021.94
997.582
980.53
975.727
997.701
1062.13
1135.35
1220.76
1322.99
1437.17
1558.56
1690.63
1825.4
1913.73
1903.46
1359.09
731.264
646.371
640.309
639.595
638.998
634.249
601.834
422.963
611.092
944.903
1041.07
1153.82
1279.84
1249.8
1120.27
1021.76
965.637
941.199
945.389
999.102
1062.72
1142.57
1241.57
1356.82
1485.53
1623.29
1776.19
1907.46
1975.13
1792.26
945.958
664.075
641.642
639.754
639.016
634.231
601.734
422.629
725.265
1033.02
1274.97
1630.77
1811.89
1655.22
1368.16
1169.57
1044.48
973.566
938.449
959.14
997.671
1061.83
1151.37
1263.71
1395.83
1543.1
1705.7
1872.22
1978.3
1981.82
1385.96
729.218
645.768
640.164
639.064
634.219
601.649
422.349
843.676
1458.59
1840.94
2366.05
2459.23
2282.97
1915.84
1523.91
1245.23
1069.55
953.99
931.007
953.092
998.142
1073.36
1177.17
1305.76
1456.19
1625.26
1814.16
1956.13
2039.93
1810.05
906.076
659.75
641.176
639.186
634.222
601.592
422.135
1103.59
2653.56
2884.15
3622.07
3240.57
3088.47
2659.81
2090.88
1545.74
1209.56
1020.6
954.388
950.865
972.31
1026.93
1113.43
1231.95
1376.6
1543.75
1735.39
1917.59
2044.94
2030.55
1302.6
706.824
643.936
639.46
634.253
601.555
421.982
696.079
791.778
804.142
806.344
807.572
808.701
809.833
810.97
812.116
813.273
814.441
815.624
816.826
818.049
819.284
820.488
821.573
822.427
823
823.421
823.881
824.587
825.561
826.665
827.58
828.445
828.283
826.638
809.445
730.084
504.735
662.775
687.769
691.246
692.418
693.28
694.163
695.052
695.958
696.884
697.832
698.809
699.826
700.892
702.012
703.151
704.22
705.095
705.719
706.218
706.741
707.522
708.615
709.72
710.475
711.037
710.275
706.158
672.455
496.201
455.294
621.212
649.221
652.939
653.673
654.052
654.442
654.834
655.24
655.66
656.101
656.571
657.084
657.663
658.325
659.056
659.788
660.421
660.954
661.518
662.289
663.45
664.864
666.029
666.458
666.2
664.776
659.85
625.827
434.757
443.766
610.185
638.541
642.264
642.749
642.879
643.006
643.132
643.265
643.407
643.564
643.745
643.969
644.261
644.648
645.131
645.675
646.285
647.078
648.376
650.621
653.999
657.244
658.856
658.51
656.579
653.364
646.738
612.756
424.104
440.237
607.466
635.981
639.742
640.146
640.194
640.23
640.264
640.301
640.344
640.399
640.477
640.598
640.791
641.093
641.545
642.242
643.417
645.76
651.012
660.89
673.131
680.92
681.475
677.172
669.814
661.852
651.163
613.766
424.304
438.142
606.569
635.377
639.221
639.61
639.64
639.65
639.658
639.67
639.686
639.713
639.763
639.859
640.039
640.384
641.066
642.514
646.127
656.629
682.386
719.284
750.975
757.597
748.257
731.711
712.053
692.971
673.869
628.6
428.94
436.341
606.01
635.179
639.118
639.513
639.54
639.544
639.547
639.552
639.562
639.583
639.63
639.732
639.968
640.538
642.035
646.588
664.085
717.649
808.443
865.162
858.548
831.573
803.431
778.034
759.162
744.193
721.471
665.936
440.111
434.681
605.518
635.058
639.091
639.496
639.525
639.527
639.529
639.533
639.542
639.563
639.618
639.765
640.192
641.54
646.406
670.401
759.913
919.413
967.646
940.561
899.384
858.733
823.184
792.301
770.657
757.975
743.745
697.753
462.183
433.159
605.063
634.956
639.077
639.492
639.523
639.525
639.527
639.53
639.54
639.567
639.653
639.95
641.041
645.55
672.625
798.049
1022.56
1061.23
1024.82
977.753
930.404
883.448
841.403
805.021
777.759
760.496
744.059
698.658
468.468
431.775
604.644
634.865
639.066
639.491
639.523
639.525
639.527
639.531
639.544
639.591
639.784
640.597
644.299
669.482
816.199
1107.2
1154.46
1115.64
1067.87
1016.59
962.147
907.603
858.878
817.178
784.339
762.044
740.903
694.417
469.205
430.515
604.252
634.779
639.055
639.49
639.523
639.526
639.527
639.533
639.558
639.676
640.236
642.963
662.435
805.367
1166.47
1246.45
1210.4
1164.36
1111.93
1053.32
994.322
936.249
882.37
835.402
794.928
764.519
737.105
688.348
467.755
429.366
603.889
634.7
639.044
639.489
639.523
639.526
639.529
639.541
639.608
639.965
641.793
654.627
769.382
1182.4
1333.06
1305.66
1261.71
1210.36
1151.54
1091.39
1032.8
970.544
913.598
861.355
812.213
772.211
736.175
683.611
465.357
428.318
603.553
634.626
639.034
639.488
639.523
639.527
639.533
639.569
639.778
640.911
648.425
724.936
1131.37
1407.96
1399.69
1356.94
1307.36
1249.24
1190.48
1132.71
1073.04
1009.46
951.908
894.981
837.815
787.062
740.313
682.244
461.939
427.358
603.241
634.557
639.025
639.487
639.524
639.529
639.547
639.661
640.314
644.441
686.357
1008.94
1456.73
1491.13
1448.86
1400.57
1342.38
1282.87
1227.01
1170.54
1109.76
1049.87
994.108
934.149
871.66
811.188
752.349
685.877
460.939
426.49
602.96
634.495
639.016
639.486
639.525
639.535
639.593
639.946
642.096
661.732
863.768
1443.18
1576.56
1538.5
1489.64
1429.78
1366.7
1308.21
1253.67
1196
1138.91
1085.37
1034.5
974.945
910.835
843.256
773.694
697.586
462.271
425.708
602.707
634.439
639.008
639.486
639.527
639.556
639.735
640.805
649.307
749.994
1309.06
1642.24
1628.11
1574.97
1512.34
1443.21
1377.83
1317.88
1263.27
1202.75
1153.17
1109.15
1065.58
1011.55
950.929
884.62
805.698
717.391
466.728
425.006
602.479
634.389
639.001
639.486
639.536
639.62
640.129
643.756
685.289
1062.51
1645.58
1718.63
1657.44
1591.55
1514.81
1439.35
1370.29
1306.51
1248.17
1187.83
1145.47
1113.45
1077.9
1034.99
984.652
923.779
847.493
752.193
483.762
424.384
602.28
634.345
638.995
639.49
639.563
639.795
641.33
656.127
834.411
1546.92
1778.49
1747.8
1669.02
1584.47
1496.43
1414.91
1340.09
1271.44
1206.98
1148.85
1115.42
1093.88
1067.77
1036.55
1007.46
966.108
890.53
786.102
495.512
423.842
602.107
634.306
638.991
639.5
639.637
640.272
645.428
712.306
1239.55
1788.62
1826.67
1751.76
1656.04
1554.17
1456.81
1367.61
1286.24
1213.33
1145.36
1094.72
1072.17
1057.44
1042.78
1025.91
1009.57
983.574
926.742
826.781
522.397
423.365
601.955
634.273
638.992
639.528
639.818
641.658
661.949
909.405
1691.18
1883.56
1844.87
1732.17
1617.5
1504.36
1397.93
1300.2
1214.35
1140.65
1074.59
1036.52
1022.82
1015.4
1011.03
1011.12
1016.53
1008.33
956.025
858.579
537.528
422.963
601.833
634.249
638.998
639.593
640.297
646.227
728.978
1347.87
1896.77
1909.57
1823.15
1689.08
1557.76
1437.26
1323.87
1221.99
1136.84
1063.53
998.51
976.06
979.693
996.003
1020.45
1046.02
1051.83
1030.59
972.109
887.39
580.507
422.629
601.735
634.231
639.016
639.75
641.604
663.448
938.173
1782.63
1970.49
1904.46
1774.87
1622.91
1485.81
1357.59
1243.03
1144.13
1064.23
1000.25
945.472
940.514
962.779
1017.92
1114.16
1244.4
1277.75
1150.45
1041
947.14
612.748
422.349
601.649
634.219
639.063
640.153
645.63
726.929
1374.33
1975.66
1974.87
1869.93
1705.36
1543.25
1397.08
1265.39
1152.91
1062.91
998.321
958.881
936.092
970.903
1037.03
1160.75
1354.22
1645.59
1804
1632.94
1277.23
1035.66
727.417
422.135
601.591
634.221
639.182
641.146
659.224
899.208
1799.54
2035.69
1953.73
1813.23
1625.62
1457.27
1307.17
1178.4
1073.94
998.104
952.115
929.285
949.219
1063.69
1229.71
1503.54
1887.63
2267.69
2456.91
2382.49
1844.21
1463.54
845.868
421.981
601.555
634.252
639.452
643.837
704.998
1290.86
2024.53
2042.53
1916.53
1736.3
1544.92
1378.01
1233.08
1113.8
1026.56
971.173
948.289
950.87
1011.83
1200.05
1521.39
2053.51
2621.18
3084.84
3265.99
3631.32
2871.51
2623.8
1104.96
373.169
373.574
373.992
374.41
374.828
375.245
375.662
376.078
376.494
376.909
377.324
377.739
378.153
378.567
378.98
379.393
379.805
380.218
380.629
381.041
381.452
381.862
382.272
382.682
383.091
383.5
383.909
384.317
384.725
385.132
385.539
385.945
386.351
386.757
387.162
387.567
387.972
388.376
388.78
389.183
389.586
389.988
390.39
390.792
391.193
391.594
391.995
392.395
392.795
393.194
393.593
393.992
394.39
394.787
395.185
395.582
395.978
396.374
396.77
397.166
397.561
397.955
398.349
398.743
399.137
399.53
399.922
400.315
400.706
401.098
401.489
401.88
402.27
402.66
403.049
403.438
403.827
404.215
404.603
404.991
405.378
405.765
406.151
406.537
406.923
407.308
407.693
408.078
408.462
408.846
409.23
409.617
410.013
410.43
410.889
411.426
412.094
412.967
414.131
415.673
417.599
419.789
422.011
423.985
425.428
426.104
426.055
425.336
424.169
422.828
421.577
420.55
419.851
419.446
419.275
419.273
419.403
419.626
419.91
420.233
420.578
420.935
421.294
421.641
421.924
579.448
579.707
579.935
580.155
580.374
580.591
580.808
581.024
581.238
581.452
581.666
581.878
582.09
582.301
582.511
582.72
582.929
583.137
583.344
583.55
583.755
583.96
584.164
584.367
584.569
584.771
584.972
585.172
585.371
585.57
585.767
585.965
586.161
586.357
586.551
586.746
586.939
587.132
587.324
587.515
587.706
587.896
588.085
588.273
588.461
588.648
588.834
589.02
589.205
589.389
589.573
589.755
589.938
590.119
590.3
590.48
590.659
590.838
591.016
591.194
591.371
591.547
591.722
591.897
592.071
592.245
592.418
592.59
592.762
592.932
593.103
593.272
593.441
593.61
593.778
593.945
594.111
594.277
594.443
594.607
594.771
594.935
595.098
595.26
595.421
595.582
595.743
595.903
596.064
596.233
596.423
596.674
597.086
597.928
599.911
604.584
614.371
632.177
660.813
699.841
744.658
789.181
827.552
855.325
869.412
868.794
854.521
828.229
793.256
753.476
713.824
677.42
648.375
627.863
615.345
608.029
604.18
602.391
601.589
601.24
601.125
601.133
601.204
601.312
601.45
627.686
627.78
627.86
627.936
628.011
628.085
628.159
628.232
628.305
628.378
628.45
628.521
628.592
628.662
628.732
628.802
628.871
628.939
629.008
629.075
629.142
629.209
629.275
629.341
629.406
629.471
629.536
629.6
629.664
629.727
629.79
629.852
629.914
629.975
630.036
630.097
630.157
630.217
630.277
630.336
630.394
630.453
630.51
630.568
630.625
630.682
630.738
630.794
630.849
630.905
630.959
631.014
631.068
631.122
631.175
631.228
631.281
631.333
631.385
631.437
631.488
631.539
631.589
631.64
631.689
631.739
631.788
631.837
631.886
631.934
631.982
632.029
632.077
632.124
632.17
632.217
632.263
632.308
632.354
632.399
632.444
632.488
632.532
632.576
632.62
632.664
632.709
632.767
632.864
633.103
633.891
636.844
647.235
677.232
745.093
864.338
1039.73
1277.31
1561.43
1804.05
1985.7
2111.16
2188.56
2225.68
2229.13
2201.21
2147.44
2067.43
1963.91
1833.82
1678.08
1491.1
1281.31
1060.08
900.01
792.628
715.743
670.876
649.513
640.369
636.713
635.285
634.666
634.395
634.29
637.72
637.743
637.761
637.779
637.796
637.813
637.829
637.846
637.862
637.878
637.894
637.91
637.925
637.941
637.956
637.971
637.986
638.001
638.016
638.031
638.045
638.059
638.073
638.087
638.101
638.115
638.128
638.142
638.155
638.168
638.181
638.194
638.207
638.219
638.232
638.244
638.256
638.268
638.28
638.292
638.304
638.316
638.327
638.338
638.35
638.361
638.372
638.383
638.394
638.404
638.415
638.425
638.436
638.446
638.456
638.466
638.476
638.486
638.496
638.506
638.515
638.525
638.534
638.544
638.553
638.562
638.571
638.58
638.589
638.597
638.606
638.615
638.623
638.632
638.64
638.648
638.656
638.664
638.672
638.68
638.688
638.696
638.704
638.711
638.721
638.742
638.816
639.135
640.817
649.495
686.588
796.819
1043.37
1456.03
1968.93
2403.88
2711.26
2892.96
2955.48
2960.13
2938.4
2903.43
2861.12
2815.26
2765.73
2714.29
2663.86
2613.17
2563.96
2516.21
2468.34
2411.8
2341.95
2239.55
2059.61
1804.39
1491.85
1156.91
895.444
760.495
687.128
656.329
645.393
641.485
640.057
639.312
639.315
639.318
639.321
639.324
639.327
639.329
639.332
639.334
639.337
639.339
639.342
639.344
639.347
639.349
639.351
639.354
639.356
639.358
639.36
639.362
639.365
639.367
639.369
639.371
639.373
639.375
639.377
639.379
639.381
639.383
639.384
639.386
639.388
639.39
639.392
639.393
639.395
639.397
639.398
639.4
639.402
639.403
639.405
639.406
639.408
639.409
639.411
639.412
639.414
639.415
639.417
639.418
639.419
639.421
639.422
639.423
639.425
639.426
639.427
639.429
639.43
639.431
639.432
639.433
639.435
639.436
639.437
639.438
639.439
639.44
639.441
639.442
639.443
639.444
639.445
639.447
639.448
639.448
639.449
639.45
639.451
639.453
639.463
639.521
639.853
642.25
659.203
742.337
1008.07
1575.88
2312.39
2881.7
3205.3
3319.99
3328.93
3288.15
3225.76
3150.6
3072.7
2997.5
2926.67
2860.78
2799.94
2740.55
2684.4
2633.1
2584.74
2540.2
2503.33
2474.4
2451.48
2438.82
2430.06
2419
2397.36
2347.93
2241.53
2012.46
1649.49
1241.59
902.044
749.31
677.547
652.237
639.506
639.507
639.507
639.507
639.508
639.508
639.508
639.509
639.509
639.509
639.51
639.51
639.51
639.51
639.511
639.511
639.511
639.511
639.512
639.512
639.512
639.512
639.513
639.513
639.513
639.513
639.514
639.514
639.514
639.514
639.515
639.515
639.515
639.515
639.515
639.515
639.516
639.516
639.516
639.516
639.516
639.517
639.517
639.517
639.517
639.517
639.517
639.518
639.518
639.518
639.518
639.518
639.518
639.518
639.519
639.519
639.519
639.519
639.519
639.519
639.519
639.519
639.52
639.52
639.52
639.52
639.52
639.52
639.52
639.52
639.52
639.521
639.521
639.521
639.521
639.521
639.521
639.521
639.521
639.521
639.522
639.525
639.558
639.788
641.888
661.843
784.396
1256.63
2142.66
3015.59
3518.78
3660.68
3646.19
3573.43
3474.48
3359.22
3241.89
3132.94
3039.38
2957.58
2883.9
2816.27
2753.44
2694.57
2636.75
2578.4
2524.27
2471.81
2421.48
2376.56
2338.05
2306.84
2288.22
2282.37
2288.48
2303.37
2325.78
2345.3
2345.27
2310.32
2206.57
1957.99
1551.04
1115.2
827.902
639.525
639.525
639.525
639.526
639.526
639.526
639.526
639.526
639.526
639.526
639.526
639.526
639.526
639.526
639.526
639.526
639.526
639.526
639.526
639.526
639.526
639.526
639.526
639.526
639.526
639.526
639.526
639.526
639.526
639.526
639.526
639.526
639.526
639.526
639.526
639.526
639.526
639.526
639.526
639.526
639.526
639.526
639.526
639.526
639.526
639.526
639.526
639.526
639.526
639.526
639.526
639.526
639.527
639.527
639.527
639.527
639.527
639.527
639.527
639.527
639.527
639.527
639.527
639.527
639.527
639.527
639.527
639.527
639.527
639.527
639.527
639.527
639.527
639.527
639.527
639.527
639.527
639.527
639.527
639.527
639.539
639.645
640.752
654.866
775.696
1354.56
2506.7
3498.99
3940.33
3986.68
3889.06
3752.76
3605.54
3466.59
3338.54
3220.75
3112.82
3016.24
2928.7
2848.59
2774.94
2706.72
2643.01
2582.68
2524.41
2462.24
2403.59
2345.98
2289.76
2237.84
2190.98
2151.44
2123.23
2107.98
2104.36
2110.58
2128.78
2155.78
2188.36
2222.63
2249.06
2242.28
2189.19
2038.82
1733.73
639.527
639.527
639.527
639.527
639.527
639.527
639.527
639.527
639.527
639.527
639.527
639.527
639.527
639.527
639.527
639.527
639.527
639.527
639.527
639.527
639.527
639.527
639.527
639.527
639.527
639.527
639.527
639.527
639.527
639.527
639.527
639.527
639.527
639.527
639.527
639.527
639.527
639.527
639.527
639.527
639.527
639.527
639.527
639.527
639.527
639.527
639.527
639.527
639.527
639.527
639.527
639.527
639.527
639.527
639.527
639.527
639.527
639.527
639.527
639.527
639.527
639.527
639.527