/*--------------------------------*- C++ -*----------------------------------*\
| =========                 |                                                 |
| \\      /  F ield         | OpenFOAM: The Open Source CFD Toolbox           |
|  \\    /   O peration     | Version:  2112                                  |
|   \\  /    A nd           | Website:  www.openfoam.com                      |
|    \\/     M anipulation  |                                                 |
\*---------------------------------------------------------------------------*/
FoamFile
{
    version     2.0;
    format      ascii;
    arch        "LSB;label=32;scalar=64";
    class       volScalarField;
    location    "0.00219";
    object      T;
}
// * * * * * * * * * * * * * * * * * * * * * * * * * * * * * * * * * * * * * //

dimensions      [0 0 0 1 0 0 0];

internalField   nonuniform List<scalar> 
13875
(
1411.82
1535.09
1482.69
1486.72
1481.09
1483.45
1483.53
1483.18
1483.82
1483.77
1485.08
1484.72
1484.12
1483.88
1484.85
1483.95
1484.11
1483.11
1483.28
1483.47
1480.87
1487.59
1480.76
1533.41
1398.54
1306.99
1356.07
1319.15
1322.06
1316.62
1317.08
1317.05
1317.87
1322.57
1323.02
1324.41
1323.66
1323.33
1323.32
1324.16
1323.14
1322.56
1318.38
1317.01
1317.07
1316.21
1322.01
1319.69
1356.53
1302.87
1307.12
1339.73
1314.63
1311.05
1303.92
1304.24
1303.68
1303.77
1305.19
1304.25
1305.4
1306.21
1305.23
1304.44
1306.74
1306.35
1304.99
1303.38
1303.46
1304.11
1303.5
1310.87
1311.59
1336.14
1296.49
1317.25
1344.95
1315.08
1308.71
1305.08
1304.72
1303.86
1303.9
1303.88
1302.92
1304.27
1305.27
1304.71
1303.73
1303.75
1303.61
1303.81
1303.44
1303.62
1304.49
1304.32
1307.63
1314.05
1343.61
1311.9
1329.42
1341.83
1316.1
1311.67
1303.46
1304.07
1303.97
1303.95
1303.68
1302.96
1304.37
1305.21
1304.83
1303.86
1303.77
1303.74
1303.93
1303.44
1303.79
1304.02
1303.15
1311.54
1312.21
1338.64
1316.5
1332.21
1351.4
1319.34
1309.96
1307.02
1306.16
1304.88
1304.55
1304.12
1303.14
1304.54
1305.28
1305.25
1304.2
1303.9
1303.74
1304.48
1304.13
1304.67
1305.91
1306.16
1308.36
1319.06
1349.24
1326.84
1339.12
1360.48
1329.5
1316.95
1307.03
1306.35
1305.44
1304.96
1304.44
1303.81
1305.12
1305.86
1305.75
1304.92
1304.43
1304.33
1304.95
1304.81
1305.29
1306.21
1306.63
1317.28
1326
1358.43
1321.93
1361.21
1385.75
1345.49
1321.82
1316.59
1312.22
1309.08
1307.4
1306.33
1305.36
1306.24
1307.17
1306.82
1306.39
1305.56
1305.58
1306.94
1307.04
1308.59
1311.44
1314.93
1320.72
1341.63
1381.32
1350.59
1534.64
1508.93
1388.78
1351.92
1323.73
1316.66
1312.87
1310.28
1309.44
1308.41
1309.08
1310
1309.45
1309.49
1308.4
1308.33
1309.7
1309.9
1312.39
1315.71
1321.99
1348.38
1384.37
1507.97
1522.7
1853.5
1584.74
1436.37
1367.27
1345.49
1328.78
1321.78
1318.03
1316.28
1315.13
1315.62
1316.15
1315.67
1315.93
1314.69
1314.61
1316.45
1317.51
1320.99
1327.22
1339.82
1363.43
1427.74
1568.36
1830.92
2516.58
1806
1535.51
1447.38
1365.62
1347.25
1337.87
1333.57
1330.89
1329.54
1329.95
1329.9
1329.95
1330.04
1328.85
1328.72
1330.98
1332.74
1336.48
1345.41
1360.94
1428.41
1515.25
1809.37
2447.27
2892.94
2280.56
1976.19
1521.49
1443.06
1407.2
1381.03
1373.28
1366.42
1364.4
1364.24
1363.38
1364.39
1363.84
1362.93
1363.06
1366.11
1371.84
1378.49
1404.75
1429.85
1489.48
1760.64
2307.86
2849
2852.24
2719.48
2609.42
2367.23
1634.37
1539.62
1513.34
1491.64
1479.09
1476.15
1475.97
1473.02
1477.23
1473.81
1473.94
1474.18
1478.84
1490.52
1508.11
1537
1648.34
2360.03
2424.61
2716.19
2787.9
2761.21
2703.1
2865.77
2851.38
2199.03
2191.08
2015.32
1923.28
1859.24
1828.1
1838.21
1808.86
1834.39
1816.89
1822.23
1827.04
1848.84
1910.35
2022.58
2179.84
2146.71
2856.33
2866.76
2732.57
2710.11
2665.39
2718.51
2854.56
2845.31
2862.3
3166.65
3412.64
3380.44
3609.72
3486.28
3638.61
3516.56
3629.14
3556.08
3607.27
3545.97
3578.92
3445.85
3436.99
3150.76
2886.79
2859.68
2855.43
2705.53
2672.71
2543.86
2632.27
2861.08
2979.4
2994.07
3328.38
3599.56
3689.2
3690.65
3679.54
3630.83
3649.12
3611.83
3645.53
3633.37
3667.12
3687.71
3725.07
3644.19
3420.8
3035.68
2973.67
2881.24
2667.55
2582.62
2478.88
2591.29
2724.55
2925.52
3015.94
3343.35
3571.94
3669.76
3670.03
3660.55
3615.61
3626.97
3598.7
3624.65
3612.72
3647.3
3672.53
3709.96
3637.68
3431.47
3078.01
2983.32
2783.68
2609.05
2499.64
2285.47
2542.13
2819.97
2942.34
2939.64
3193.61
3368.85
3463.5
3501.88
3504.81
3498.93
3498.5
3493.81
3499.86
3496.22
3506.76
3500.03
3485.02
3402.83
3230.75
3009.97
3003.27
2844.36
2550.8
2305.59
2194.75
2281.52
2591.25
2757.22
2734.53
2875.03
3117.06
3295.12
3382.9
3403.08
3403.28
3402.95
3402.63
3407.32
3400.22
3402.06
3401.79
3365.08
3185.78
2927.72
2773.65
2807.98
2647.64
2321.59
2237
2286.39
2230.9
2356.18
2516.88
2546.15
2627.81
2846.48
3084.24
3242.5
3305.62
3310.19
3313.95
3313.03
3315.94
3308.69
3311.76
3279.42
3144.93
2883.31
2663.21
2582.44
2562.02
2344.88
2242.74
2338.84
2918.58
2278.69
2177.28
2319.73
2388.5
2470.97
2670.48
2906.75
3090.1
3187.15
3213.12
3215.81
3216.49
3217.39
3212.69
3196.94
3123.5
2943.8
2687.58
2494.5
2418.09
2341.42
2162.79
2229.74
2843.87
2893.2
2049.75
1976.55
2167.56
2261.04
2359.81
2535.29
2760.02
2956.37
3071.49
3101.47
3111.99
3110.73
3112.18
3099.15
3076.86
2979.08
2779.22
2542.71
2384.05
2281.58
2173.1
1981.91
2035.87
2862.5
2896.87
2058.02
1884.34
2051.43
2160.12
2272.58
2420.8
2626.84
2821.26
2951.32
2995.41
3002.52
3004.21
3001.76
2992.68
2956.99
2843.11
2644.46
2431.72
2296.31
2181.92
2062.5
1867.32
2047.69
2970.33
2831.14
2038.02
1871.47
1995.94
2085.76
2188.8
2329.31
2528.68
2716.05
2840.75
2882.46
2898.05
2896.48
2896.15
2878.06
2844.83
2735.73
2541.7
2333.78
2207.17
2104.57
2005.81
1869.09
2014.17
2795.9
2754.12
2032.41
1900.89
1961.5
2021.31
2108.09
2242.21
2434.82
2611.94
2736.11
2782.13
2790.82
2793.88
2789.67
2778.91
2738.34
2622.9
2438.25
2241.95
2120.94
2048.93
1980.69
1889.42
2034.38
2771.87
2732.33
2057.11
1918.62
1945.2
1975.33
2042.72
2173.74
2358.78
2525.88
2637.88
2677.36
2693.16
2692.86
2691.91
2672.16
2639.01
2539.12
2365.23
2173.27
2054.33
1995.41
1967.25
1907.87
2028.97
2702.46
2704.76
2086.79
1944.49
1939.54
1930.82
1984.8
2111.91
2285.42
2440.04
2546.26
2588.83
2594.47
2598.01
2592.78
2583.54
2545.45
2449.25
2288.44
2110.26
1992.45
1955.13
1965.23
1936.99
2068.03
2690.69
2706.39
2155.16
1988.19
1936.05
1904.89
1946.7
2069.33
2231.85
2373.19
2461.2
2494.17
2506.69
2506.65
2505.95
2487.03
2458.99
2378.76
2232.07
2061.51
1951.74
1921.81
1956.41
1971.78
2130.68
2692.94
2736.12
2162.24
1985.29
1929.59
1887.87
1912.47
2021.4
2167.91
2295.75
2378.79
2416.52
2418.24
2422.94
2415.97
2411.69
2378.22
2306.81
2174.81
2023.72
1919.24
1910.26
1949.37
1993.59
2120.9
2688.8
2780.85
2177.59
2006.37
1931.39
1875
1895.17
1999.27
2130.93
2242.33
2307.1
2332.29
2342.32
2341.97
2340.62
2324.52
2304.4
2248.41
2136.2
1991.68
1899.46
1889.17
1950.09
2003.67
2155.29
2736.88
2746.08
2175.56
1987.13
1926.75
1855.7
1883.28
1971.62
2083.36
2178.77
2233.65
2267.58
2262.53
2269.54
2261.79
2261.26
2232.92
2184.94
2087.67
1969.5
1882.81
1873.26
1941.98
2002.42
2151.3
2731.71
2741.68
2185.63
2026.2
1935.4
1849.68
1868.37
1952.1
2054.87
2133.54
2174.78
2192.39
2198.7
2199.29
2198
2184.66
2173.59
2141.53
2065.75
1948.74
1871.35
1866.72
1943.25
2020.6
2161.98
2701.66
2712.83
2183.28
2036.71
1921.12
1840.31
1859.44
1933.5
2013.44
2079.81
2110.56
2139.79
2129.13
2137.22
2128.72
2132.73
2110.01
2084.06
2024.15
1935.77
1855.73
1854.04
1938.64
2038.18
2158.47
2694.85
2685.27
2177.45
2090.16
1945.41
1848.28
1847.69
1920.45
1994.17
2044.5
2064.45
2075.17
2075.84
2076.94
2076.22
2066.36
2063.71
2050.06
2002.78
1917.62
1845.4
1857.15
1947.46
2074.43
2160.35
2667.54
2680
2185.91
2111.11
1938.12
1856.34
1840.48
1900.56
1955.94
1993.54
2008.37
2032.47
2015.8
2024.38
2015.78
2025.6
2007.62
1998.22
1973.3
1910.77
1835.96
1868.26
1953.4
2124.86
2157.6
2645.72
2655.65
2177.9
2107.48
1965.57
1873.65
1837.51
1887.82
1939.14
1967.15
1973.7
1977.62
1973.52
1973.6
1973.43
1968.53
1972.88
1970.99
1946
1893.62
1835.58
1880.24
1973.78
2123.19
2161.95
2621.02
2627.28
2165.92
2105.5
1989.42
1884.86
1844.07
1877.73
1905.53
1920.39
1923.42
1944.21
1920.64
1930.31
1921.65
1937.51
1923.47
1922.88
1920.64
1891.33
1832.39
1887.71
2006.46
2120.34
2149.76
2597.03
2606.57
2149.13
2098.78
2045.44
1912.3
1859.44
1869.03
1888.45
1897.84
1896.73
1896.92
1888.68
1887.99
1889.01
1888.23
1896.08
1901.51
1892.2
1887.12
1860.42
1904.91
2050.68
2110.31
2132.3
2567.98
2587.01
2140.15
2088.47
2044.21
1927.63
1872.81
1868.65
1863.38
1857.42
1850.23
1869.73
1842.73
1852.67
1844.2
1862.68
1851.46
1860.13
1873.44
1886.87
1872.88
1932.62
2058.21
2098.49
2118.92
2555.2
2558.1
2118.4
2055.89
2035.28
1972.14
1896.23
1884.89
1852.06
1842.08
1832.56
1829.26
1817.44
1817.45
1819.03
1820.56
1831.72
1844.78
1856.58
1902.8
1898.75
1968.84
2047.31
2061.53
2109.6
2534.59
2546.4
2114.45
2027.56
2029.88
2032.61
1926.58
1896.87
1840.89
1810.86
1791.38
1807.33
1777.92
1788.1
1779.44
1800.36
1791.6
1815.49
1848.52
1916.75
1920.35
2033.88
2042.9
2032.55
2093.06
2513.86
2520.49
2101.4
2000.38
2009.36
2032.43
1955.97
1905.66
1853.35
1806.72
1784.07
1773.08
1758.96
1758.77
1759.92
1765.38
1784.87
1809.72
1858.73
1931.52
1967.99
2029.35
2019.73
2007.22
2087.8
2493.32
2503.52
2092.84
1982.3
1980.57
2019.46
2024.54
1925.91
1857.07
1794.37
1748.73
1756.82
1724.11
1734.56
1726.18
1750.7
1749.99
1798.1
1862.69
1951.74
2026.2
2014.21
1990.5
1989.26
2082.3
2479.11
2473.42
2084.88
1966.89
1947.11
2004.43
2043.63
1953.01
1878.76
1806.16
1761.86
1732.12
1711.06
1710.26
1713.03
1724.98
1765.7
1805.46
1877.71
1994.26
2046.17
1996.81
1959.16
1973.68
2065.3
2450.48
2459.28
2082.61
1958.67
1923.2
1969.08
2029.29
2003.75
1892.69
1804.57
1732.81
1727.37
1684.11
1692.02
1686.81
1721.94
1736.52
1810.83
1895.38
2062.16
2030.82
1957.72
1936.21
1963.31
2064.79
2437.68
2428.17
2060.5
1949.82
1898.66
1934.15
2012.68
2086.89
1955.63
1824.31
1767.45
1722.7
1686.72
1678.29
1687.56
1713.85
1769.89
1824.67
1940.55
2081.62
2007.71
1924.76
1910.2
1957.05
2049.32
2409.95
2414.59
2059.4
1941.72
1889.28
1903.22
1984.48
2065.49
2036.04
1842.69
1741.72
1729.05
1671.01
1674.48
1673.68
1723.3
1742.71
1847.55
2010.3
2063.75
1974.92
1902.08
1900.6
1944.33
2041.24
2399.46
2377.3
2036.6
1935.82
1873.25
1877.43
1943.32
2050.16
2070.8
1894.23
1787.11
1725.96
1687.83
1675.7
1690.7
1719.09
1789.19
1903.75
2060.24
2047.8
1930.89
1873.07
1885.47
1941.86
2024.59
2356.65
2346.97
2025.12
1917.68
1869.23
1871.3
1915.35
2018.09
2050.86
1999.16
1776.81
1742.63
1672.66
1678.8
1676.13
1737.84
1775.11
2007.64
2042.83
2014.28
1900.7
1870.23
1881.9
1921.72
2013.33
2330.69
2209.03
1974.83
1902.87
1854.43
1847.44
1880.19
1981.28
2038.62
2015.39
1871.51
1759.35
1701.09
1686.76
1703.25
1752.29
1865.51
2008.76
2031.49
1981.7
1873.11
1846.94
1867.02
1907.6
1963.16
2191.64
274.01
274.148
274.221
274.315
274.447
274.552
274.575
274.519
274.418
274.32
274.263
274.23
274.213
274.193
274.151
274.102
274.06
274.032
274.015
274.007
274.003
274.001
274
273.999
273.998
274
273.995
274.002
273.994
274.004
274.307
274.635
274.853
275.12
275.468
275.775
275.909
275.782
275.45
275.049
274.728
274.51
274.38
274.292
274.218
274.145
274.086
274.046
274.022
274.01
274.004
274.001
273.999
273.999
273.997
274
273.993
274.003
273.988
274.014
274.908
275.63
276.154
276.779
277.524
278.199
278.564
278.466
277.828
276.77
275.737
275.026
274.624
274.4
274.265
274.171
274.101
274.054
274.026
274.012
274.004
274.001
273.999
273.999
273.997
274
273.994
274.002
273.992
274.01
276.1
277.698
278.824
280.093
281.49
282.976
284.181
284.37
283.521
281.481
278.877
276.676
275.337
274.691
274.376
274.209
274.117
274.061
274.03
274.013
274.005
274.001
274
273.999
273.997
274
273.995
274.002
273.995
274.007
278.736
281.736
284.269
287.303
290.115
292.759
294.99
296.673
297.347
295.162
287.965
281.866
277.776
275.585
274.689
274.314
274.148
274.071
274.033
274.015
274.006
274.002
274
273.999
273.998
274
273.997
274.001
273.997
274.005
284.512
290.364
292.352
293.578
294.117
295.021
296.716
298.836
301.537
304.515
306.159
298.961
285.334
278.73
275.678
274.617
274.236
274.095
274.039
274.016
274.006
274.002
274
273.999
273.998
274
273.998
274.001
273.998
274.003
290.933
293.124
293.215
293.762
294.111
294.958
296.598
298.745
301.551
304.853
308.533
311.63
308.916
288.864
279.277
275.596
274.506
274.164
274.056
274.02
274.007
274.002
274
273.999
273.999
274
273.998
274.001
273.999
274.003
291.182
292.848
292.78
293.364
293.681
294.273
295.504
297.74
301.067
304.839
308.636
312.542
316.039
315.637
291.731
279.266
275.386
274.386
274.108
274.031
274.009
274.002
274
273.999
273.999
274
273.999
274
273.999
274.002
290.885
291.558
291.255
291.915
292.074
292.408
293.18
295.169
298.823
303.507
308.418
312.748
316.72
320.349
320.206
292.31
278.714
275.111
274.277
274.067
274.016
274.004
274
274
273.999
274
273.999
274
274
274.002
289.769
289.403
289.191
289.76
289.985
290.287
290.68
292.274
295.749
300.531
306.419
312.232
317.006
321.036
324.599
323.239
290.447
277.791
274.824
274.187
274.04
274.008
274.001
274
274
274
274
274
274
274.002
287.99
286.898
286.809
287.257
287.62
288.037
288.268
289.328
292.577
297.359
303.228
309.919
316.361
321.383
325.503
328.723
323.585
287.02
276.756
274.565
274.118
274.022
274.003
274
274
274
274
274
274
274.002
286.075
284.49
284.391
284.782
285.352
285.84
286.121
286.786
289.351
294.24
300.146
306.75
314.119
320.866
325.92
330.124
332.623
318.946
283.432
275.822
274.359
274.069
274.011
274.001
274
274
274
274
274
274.002
283.899
282.222
282.16
282.686
283.389
283.912
284.289
284.699
286.546
291.003
297.231
303.777
311.113
318.924
325.715
330.605
334.837
336.227
307.703
280.177
275.129
274.212
274.037
274.005
274
274
274
274
274
274.002
282.686
280.836
280.815
281.3
281.982
282.435
282.792
283.038
284.211
287.866
294.347
301.012
308.274
316.17
324.262
330.798
335.549
339.437
337.941
294.898
277.668
274.649
274.117
274.019
274.002
274
274
274
274
274.002
282.053
280.191
280.172
280.656
281.118
281.47
281.557
281.767
282.251
285.123
291.267
298.378
305.714
313.486
321.94
330.018
336.118
340.824
343.785
331.398
285.536
276.01
274.347
274.06
274.009
274.001
274
274
274
274.002
281.664
280.368
280.534
281.063
281.136
280.897
280.756
280.628
280.56
282.602
288.204
295.832
303.389
311.171
319.484
328.257
335.914
341.479
346.493
345.802
312.188
280.273
275.037
274.173
274.028
274.004
274
274
274.001
274.002
282.189
281.124
281.933
282.402
282.057
281.301
280.715
280.316
280.274
281.035
285.905
293.311
301.271
309.11
317.286
326.05
334.776
341.862
347.754
349.943
345.726
293.26
277.109
274.5
274.081
274.012
274.002
274
274.001
274.002
281.849
281.32
282.841
284.62
284.339
283.584
282.768
282.401
282.39
282.43
285.487
292.129
300.34
308.012
316.041
324.351
333.194
341.736
348.501
353.842
353.289
328.343
283.088
275.44
274.225
274.035
274.005
274.001
274.001
274.002
282.103
281.935
284.398
287.906
289.35
289.187
288.264
287.596
287.014
286.427
287.382
292.872
300.879
308.168
316.021
324.109
332.507
341.341
349.148
356.32
357.513
355.174
302.324
278.1
274.619
274.094
274.014
274.002
274.001
274.002
281.397
282.196
286.762
295.016
300.961
300.249
298.594
296.651
294.718
292.778
291.148
295.853
302.874
309.655
317.045
324.837
332.865
341.341
349.993
357.63
360.497
360.971
339.561
285.222
275.707
274.251
274.037
274.006
274.002
274.003
282.109
283.817
293.825
313.446
323.725
324.164
320.117
316.039
309.845
303.919
299.425
301.134
307.121
313.168
319.799
326.92
334.43
342.274
351.142
359.167
365.529
365.185
363.434
308.37
278.628
274.657
274.094
274.014
274.002
274.003
279.856
288.126
311.778
358.502
382.506
382.82
364.687
351.081
336.612
324.678
316.053
313.257
316.51
319.958
324.507
330.254
336.806
344.348
352.665
360.972
368.732
369.448
369.935
347.542
286.087
275.735
274.24
274.033
274.004
274.002
288.384
301.315
366.027
466.485
511.243
479.413
433.965
405.09
378.634
357.686
341.707
333.205
329.873
328.761
329.78
333.397
339.392
346.598
354.672
363.141
371.326
374.594
374.524
372.439
309.38
278.467
274.595
274.082
274.013
274.005
271.758
352.327
566.017
669.508
686.185
603.726
537.018
481.575
439.449
404.146
376.031
355.971
346.888
343.574
340.861
340.858
344.034
350.11
357.555
365.943
374.179
381.654
380.218
380.158
350.735
285.188
275.487
274.196
274.027
274.006
295.224
481.396
830.309
921.083
853.228
776.599
666.574
579.837
512.747
458.446
415.854
385.501
369.812
362.341
355.48
352.474
352.394
355.367
361.627
369.379
377.502
385.83
386.368
386.085
380.806
303.159
277.638
274.454
274.058
274.009
274.004
273.994
274.002
273.995
274
273.998
273.999
274
274.001
274.003
274.007
274.015
274.032
274.06
274.102
274.151
274.192
274.213
274.23
274.262
274.319
274.416
274.517
274.574
274.55
274.446
274.314
274.221
274.148
274.01
274.014
273.988
274.003
273.993
274
273.997
273.999
273.999
274.001
274.004
274.01
274.022
274.046
274.086
274.145
274.218
274.292
274.38
274.509
274.725
275.044
275.444
275.776
275.903
275.771
275.465
275.118
274.851
274.634
274.307
274.01
273.992
274.002
273.994
274
273.997
273.999
273.999
274.001
274.004
274.012
274.026
274.054
274.101
274.171
274.264
274.399
274.621
275.02
275.725
276.752
277.808
278.447
278.548
278.187
277.516
276.772
276.149
275.627
274.907
274.007
273.995
274.002
273.995
274
273.997
273.999
274
274.001
274.005
274.013
274.03
274.061
274.116
274.209
274.375
274.687
275.327
276.653
278.839
281.429
283.467
284.315
284.132
282.944
281.469
280.076
278.812
277.689
276.096
274.005
273.997
274.001
273.997
274
273.998
273.999
274
274.002
274.006
274.015
274.033
274.071
274.147
274.313
274.685
275.572
277.739
281.794
287.819
295.014
297.24
296.594
294.927
292.701
290.06
287.256
284.234
281.715
278.725
274.003
273.998
274.001
273.998
274
273.998
273.999
274
274.002
274.006
274.016
274.039
274.094
274.234
274.612
275.662
278.678
285.216
298.72
306.046
304.449
301.484
298.788
296.671
294.978
294.075
293.535
292.311
290.318
284.476
274.003
273.999
274.001
273.998
274
273.999
273.999
274
274.002
274.007
274.02
274.056
274.163
274.502
275.579
279.211
288.653
308.652
311.546
308.472
304.798
301.5
298.697
296.553
294.914
294.069
293.722
293.181
293.093
290.904
274.002
273.999
274
273.999
274
273.999
273.999
274
274.002
274.009
274.031
274.107
274.383
275.37
279.196
291.44
315.419
315.953
312.471
308.569
304.78
301.017
297.694
295.461
294.228
293.639
293.324
292.747
292.818
291.157
274.002
274
274
273.999
274
273.999
274
274
274.004
274.016
274.067
274.274
275.097
278.646
291.989
319.98
320.255
316.648
312.679
308.361
303.462
298.784
295.129
293.138
292.362
292.029
291.872
291.218
291.524
290.854
274.002
274
274
274
274
274
274
274.001
274.008
274.039
274.185
274.814
277.735
290.158
322.957
324.49
320.953
316.931
312.173
306.373
300.489
295.709
292.23
290.633
290.236
289.936
289.713
289.149
289.362
289.735
274.002
274
274
274
274
274
274
274.003
274.022
274.116
274.558
276.714
286.81
323.185
328.596
325.409
321.299
316.296
309.871
303.188
297.318
292.542
289.284
288.217
287.984
287.567
287.205
286.758
286.849
287.946
274.002
274
274
274
274
274
274.001
274.011
274.068
274.355
275.795
283.28
318.403
332.479
330.019
325.827
320.794
314.064
306.701
300.099
294.191
289.309
286.734
286.062
285.78
285.291
284.72
284.329
284.429
286.017
274.002
274
274
274
274
274
274.005
274.037
274.209
275.112
280.076
307.158
336.054
334.709
330.493
325.625
318.853
311.049
303.713
297.171
290.94
286.488
284.631
284.215
283.839
283.314
282.61
282.08
282.141
283.817
274.002
274
274
274
274
274.002
274.018
274.115
274.639
277.607
294.456
337.615
339.273
335.423
330.689
324.177
316.098
308.205
300.94
294.281
287.794
284.145
282.963
282.714
282.352
281.893
281.217
280.729
280.747
282.587
274.002
274
274
274
274.001
274.008
274.059
274.342
275.977
285.333
330.759
343.584
340.673
335.988
329.913
321.848
313.398
305.627
298.292
291.196
285.04
282.175
281.691
281.481
281.39
281.031
280.57
280.082
280.088
281.941
274.002
274.001
274
274
274.004
274.028
274.171
275.021
280.161
311.531
345.583
346.33
341.329
335.786
328.148
319.378
311.064
303.283
295.729
288.131
282.472
280.474
280.556
280.697
280.855
281.098
281.019
280.491
280.295
281.55
274.002
274.001
274
274.002
274.012
274.079
274.492
277.053
292.798
345.287
349.716
347.601
341.708
334.642
325.932
317.165
308.985
301.146
293.197
285.842
280.995
280.247
280.316
280.751
281.328
282.095
282.406
281.924
281.094
282.106
274.002
274.001
274.001
274.005
274.035
274.221
275.414
282.917
327.528
352.965
353.502
348.343
341.579
333.044
324.222
315.917
307.88
300.211
292.027
285.448
282.44
282.401
282.42
282.845
283.639
284.425
284.723
282.921
281.394
281.826
274.002
274.001
274.002
274.014
274.092
274.608
278.02
301.631
354.775
357.244
356.186
348.99
341.182
332.338
323.974
315.905
308.05
300.776
292.808
287.391
286.465
287.045
287.606
288.29
289.253
289.466
287.965
284.533
282.032
282.153
274.003
274.002
274.006
274.036
274.247
275.675
285.002
338.726
360.683
360.22
357.505
349.833
341.184
332.714
324.719
316.986
309.611
302.972
295.81
291.283
292.789
294.7
296.619
298.638
300.281
301.1
295.193
287.009
282.381
281.594
274.003
274.002
274.014
274.093
274.645
278.533
307.557
363.062
364.859
365.186
359.049
350.999
342.127
334.427
326.894
319.793
313.17
307.086
301.2
299.24
303.792
309.627
315.773
320.067
324.109
324.077
314.281
294.309
284.131
282.404
274.002
274.004
274.032
274.236
275.699
285.83
346.623
369.678
369.213
368.63
360.863
352.54
344.275
336.721
330.208
324.484
319.84
316.368
313.127
315.591
324.443
336.149
350.628
364.574
382.57
383.67
359.951
312.555
288.458
280.243
274.005
274.013
274.081
274.584
278.37
308.405
372.028
374.304
374.333
371.245
363.067
354.613
346.572
339.311
333.251
329.59
328.586
329.633
332.813
340.915
357.281
377.863
404.845
434.026
479.72
514.531
471.194
368.388
301.989
288.963
274.006
274.027
274.192
275.455
284.943
349.679
379.947
380.005
381.48
374.125
365.917
357.555
350.057
343.932
340.6
340.504
343.21
346.256
355.484
374.807
403.357
438.008
481.062
536.89
605.328
692.267
677.226
572.872
354.731
272.47
274.009
274.057
274.445
277.558
302.211
380.29
385.917
386.209
385.777
377.455
369.364
361.567
355.25
352.149
352.142
354.989
361.782
368.767
385.016
414.661
457.838
511.538
578.082
669.221
782.745
864.145
925.536
841.645
489.342
297.336
274.002
274.002
274.002
274.002
274.002
274.002
274.002
274.002
274.002
274.002
274.002
274.002
274.002
274.002
274.002
274.002
274.002
274.002
274.002
274.002
274.002
274.002
274.002
274.002
274.002
274.002
274.002
274.002
274.002
274.002
274.002
274.002
274.002
274.002
274.002
274.002
274.002
274.002
274.002
274.002
274.002
274.002
274.002
274.002
274.002
274.002
274.002
274.002
274.002
274.002
274.002
274.002
274.002
274.002
274.002
274.002
274.002
274.002
274.002
274.002
274.002
274.002
274.002
274.002
274.002
274.002
274.002
274.002
274.002
274.002
274.002
274.002
274.002
274.002
274.002
274.002
274.002
274.002
274.002
274.002
274.002
274.002
274.002
274.002
274.004
274.009
274.028
274.09
274.279
274.811
276.133
279.236
286.157
299.018
320.116
352.651
402.01
444.719
475.732
496.439
508.973
515.053
515.754
512.288
505.119
494.676
480.903
464.099
444.158
420.556
393.305
362.189
329.229
305.224
293.075
285.066
279.953
277.108
275.572
274.759
274.367
274.175
274.084
274.042
274.021
274.001
274.001
274.001
274.001
274.001
274.001
274.001
274.001
274.001
274.001
274.001
274.001
274.001
274.001
274.001
274.001
274.001
274.001
274.001
274.001
274.001
274.001
274.001
274.001
274.001
274.001
274.001
274.001
274.001
274.001
274.001
274.001
274.001
274.001
274.001
274.001
274.001
274.001
274.001
274.001
274.001
274
274
274
274
274
274
274
274
274
274
274
274
274
274
274
274
274
274
274
274
274
274
274
274
274
274
274
274
274
274
274
274
274
274
274
274
274
274
274
274
274.001
274.002
274.008
274.035
274.143
274.554
275.903
280.167
292.159
321.723
383.495
469.141
538.678
582.356
604.686
609.374
606.522
600.306
592.828
584.673
576.038
566.943
557.297
547.492
537.695
527.718
517.614
507.584
497.636
487.792
477.333
465.057
446.225
418.248
382.817
340.67
303.12
288.677
281.117
277.253
275.471
274.649
274.294
274.131
274
274
274
274
274
274
274
274
274
274
274
274
274
274
274
274
274
274
274
274
274
274
274
274
274
274
274
274
274
274
274
274
274
274
274
274
274
274
274
274
274
274
274
274
274
274
274
274
274
274
274
274
274
274
274
274
274
274
274
274
274
274
274
274
274
274
274
274
274
274
274
274
274
274
274
274
274
274
274
274
274.001
274.006
274.034
274.173
274.823
277.549
288.103
324.785
415.023
531.851
614.978
657.234
668.275
665.782
658.097
650.119
641.699
632.356
622.629
612.514
602.11
591.632
581.091
570.368
559.586
549.014
538.431
527.823
517.379
507.113
497.328
487.846
478.823
469.821
461.181
452.656
442.562
425.707
393.155
349.601
304.985
287.391
279.894
276.501
275.055
274
274
274
274
274
274
274
274
274
274
274
274
274
274
274
274
274
274
274
274
274
274
274
274
274
274
274
274
274
274
274
274
274
274
274
274
274
274
274
274
274
274
274
274
274
274
274
274
274
274
274
274
274
274
274
274
274
274
274
274
274
274
274
274
274
274
274
274
274
274
274
274
274
274
274
274
274
274
274
274.003
274.023
274.144
274.846
278.634
297.19
375.938
519.918
640.816
699.667
711.476
708.316
701.277
693.744
684.779
676.694
669.751
663.438
656.275
647.274
636.922
625.831
614.494
603.1
591.48
579.903
568.23
556.422
544.437
532.465
520.465
508.796
497.221
486.265
475.948
466.541
457.754
449.45
441.164
433.389
424.871
410.878
377.43
331.861
294.363
282.782
274
274
274
274
274
274
274
274
274
274
274
274
274
274
274
274
274
274
274
274
274
274
274
274
274
274
274
274
274
274
274
274
274
274
274
274
274
274
274
274
274
274
274
274
274
274
274
274
274
274
274
274
274
274
274
274
274
274
274
274
274
274
274
274
274
274
274
274
274
274
274
274
274
274
274
274
274
274.001
274.011
274.08
274.595
278.096
300.176
407.868
590.292
708.477
743.336
744.189
737.862
731.339
723.005
715.726
709.746
704.318
699.459
693.403
685.218
675.51
664.885
653.876
642.731
631.347
619.576
607.303
594.994
583.075
570.811
558.404
546.183
533.938
521.779
509.548
497.86
486.416
475.478
464.566
454.041
444.232
435.426
427.494
419.976
412.862
404.381
384.792
346.12
274
274
274
274
274
274
274
274
274
274
274
274
274
274
274
274
274
274
274
274
274
274
274
274
274
274
274
274
274
274
274
274
274
274
274
274
274
274
274
274
274
274
274
274
274
274
274
274
274
274
274
274
274
274
274
274
274
274
274
274
274
274
274
274
274
274
274
274
274
274
274
274
274
274
274
274
274.003
274.03
274.275
276.341
293.486
404.718
615.915
747.684
772.919
770.987
765.658
758.522
751.116
745.782
740.93
735.871
729.683
720.544
710.897
700.847
690.394
680.187
670.206
660.506
650.875
640.754
629.914
618.321
605.8
593.339
580.696
567.393
553.772
540.268
527.066
513.752
501.296
489.089
478.011
467.576
458.03
448.634
439.255
429.995
421.028
413.029
405.97
398.932
392.09
274
274
274
274
274
274
274
274
274
274
274
274
274
274
274
274
274
274
274
274
274
274
274
274
274
274
274
274
274
274
274
274
274
274
274
274
274
274
274
274
274
274
274
274
274
274
274
274
274
274
274
274
274
274
274
274
274
274
274
274
274
274
274
274
274
274
274
274
274
274
274
274
274
274
274
274.007
274.081
274.859
283.082
363.294
592.428
764.233
797.271
794.992
789.23
783.458
778.099
772.753
768.917
765.776
759.226
750.084
739.274
727.53
716.444
705.628
695.598
686.759
679.106
671.767
663.78
654.734
644.845
633.651
621.226
607.59
594.593
580.592
565.583
550.07
534.37
518.693
504.289
490.166
477.14
465.028
454.546
445.515
437.697
430.679
423.011
415.015
406.928
399.192
392.015
274
274
274
274
274
274
274
274
274
274
274
274
274
274
274
274
274
274
274
274
274
274
274
274
274
274
274
274
274
274
274
274
274
274
274
274
274
274
274
274
274
274
274
274
274
274
274
274
274
274
274
274
274
274
274
274
274
274
274
274
274
274
274
274
274
274
274
274
274
274
274
274
274
274.001
274.016
274.205
276.6
306.421
502.701
746.959
816.49
817.772
812.461
806.569
801.934
799.069
796.848
792.69
784.153
778.814
769.793
759.592
749.927
740.253
729.968
719.994
711.654
704.092
697.293
690.408
683.249
675.111
665.751
654.902
642.36
628.325
614.527
599.188
582.778
565.602
547.469
529.221
512.332
495.869
480.343
465.58
453.224
441.561
431.374
423.114
416.603
411.651
406.561
401.381
393.242
274
274
274
274
274
274
274
274
274
274
274
274
274
274
274
274
274
274
274
274
274
274
274
274
274
274
274
274
274
274
274
274
274
274
274
274
274
274
274
274
274
274
274
274
274
274
274
274
274
274
274
274
274
274
274
274
274
274
274
274
274
274
274
274
274
274
274
274
274
274
274
274
274.001
274.03
274.468
281.379
376.811
660.608
821.741
835.468
832.693
829.107
824.202
821.644
821.149
821.279
819.036
812.858
806.065
796.278
789.43
781.731
775.229
767.06
758.006
749.81
743.442
737.702
732.528
726.944
720.954
714.012
705.432
694.257
680.272
663.93
647.187
629.004
609.272
589.172
567.966
546.712
526.765
507.247
488.679
470.649
455.716
441.875
430.196
419.844
410.593
403.526
398.036
393.665
389.712
274
274
274
274
274
274
274
274
274
274
274
274
274
274
274
274
274
274
274
274
274
274
274
274
274
274
274
274
274
274
274
274
274
274
274
274
274
274
274
274
274
274
274
274
274
274
274
274
274
274
274
274
274
274
274
274
274
274
274
274
274
274
274
274
274
274
274
274
274
274
274
274.002
274.051
274.967
292.23
481.09
773.975
846.443
848.661
846.122
844.788
843.209
842.963
843.148
844.244
844.648
843.035
840.274
837.721
831.271
824.896
818.834
814.367
811.635
806.695
804.456
802.795
801.511
800.001
798.057
795.496
791.214
783.702
771.81
755.268
734.659
711.032
685.263
658.475
631.255
603.42
576.586
551.455
527.114
503.94
481.934
463.803
446.338
432.206
419.736
408.861
399.246
391.5
385.902
381.311
274
274
274
274
274
274
274
274
274
274
274
274
274
274
274
274
274
274
274
274
274
274
274
274
274
274
274
274
274
274
274
274
274
274
274
274
274
274
274
274
274
274
274
274
274
274
274
274
274
274
274
274
274
274
274
274
274
274
274
274
274
274
274
274
274
274
274
274
274
274
274.003
274.079
275.792
313.404
594.564
836.701
860.932
859.979
859.219
859.85
862.051
865.535
868.763
872.349
875.539
877.862
880.18
882.87
885.525