/*--------------------------------*- C++ -*----------------------------------*\
| =========                 |                                                 |
| \\      /  F ield         | OpenFOAM: The Open Source CFD Toolbox           |
|  \\    /   O peration     | Version:  2112                                  |
|   \\  /    A nd           | Website:  www.openfoam.com                      |
|    \\/     M anipulation  |                                                 |
\*---------------------------------------------------------------------------*/
FoamFile
{
    version     2.0;
    format      ascii;
    arch        "LSB;label=32;scalar=64";
    class       volScalarField;
    location    "2e-05";
    object      alphat;
}
// * * * * * * * * * * * * * * * * * * * * * * * * * * * * * * * * * * * * * //

dimensions      [1 -1 -1 0 0 0 0];

internalField   nonuniform List<scalar> 
13875
(
0.344494
10.1574
11.4451
11.6645
11.6946
11.6983
11.6986
11.6985
11.6984
11.6983
11.6982
11.698
11.6978
11.6978
11.6977
11.6976
11.6975
11.6975
11.6973
11.6966
11.6926
11.6626
11.4443
10.1592
0.347046
0.182948
4.51605
4.92768
4.98237
4.98634
4.98657
4.98642
4.9863
4.98616
4.98603
4.98592
4.98583
4.98579
4.98583
4.98584
4.9858
4.98576
4.9858
4.98584
4.98591
4.9856
4.98173
4.92716
4.51739
0.184748
0.140627
2.77809
2.95523
2.97276
2.97339
2.97344
2.97341
2.97337
2.97335
2.97332
2.97328
2.97324
2.97321
2.97319
2.97315
2.97312
2.9731
2.97307
2.97303
2.973
2.97292
2.9722
2.95463
2.7775
0.140341
0.0737002
0.525605
0.549773
0.551061
0.551109
0.551121
0.551125
0.551124
0.551123
0.551126
0.551125
0.551119
0.551113
0.551103
0.551093
0.551086
0.551076
0.551064
0.551052
0.551037
0.551018
0.550947
0.549627
0.525425
0.0736459
0.050529
0.286213
0.301497
0.301602
0.301599
0.301599
0.301599
0.3016
0.3016
0.3016
0.301601
0.301601
0.301601
0.301601
0.301601
0.301602
0.301602
0.301602
0.301602
0.301602
0.301603
0.301606
0.301501
0.286194
0.050529
0.0496597
0.286273
0.302931
0.303125
0.303127
0.303127
0.303127
0.303127
0.303127
0.303127
0.303127
0.303127
0.303127
0.303127
0.303127
0.303127
0.303127
0.303127
0.303127
0.303127
0.303127
0.303125
0.302933
0.286381
0.0496604
0.049656
0.28632
0.302864
0.303056
0.303058
0.303058
0.303058
0.303058
0.303058
0.303058
0.303058
0.303058
0.303058
0.303058
0.303058
0.303058
0.303058
0.303058
0.303058
0.303058
0.303058
0.303056
0.302856
0.285935
0.0496243
0.0497257
0.285816
0.302852
0.303054
0.303056
0.303056
0.303056
0.303056
0.303056
0.303056
0.303056
0.303056
0.303056
0.303056
0.303056
0.303056
0.303056
0.303056
0.303056
0.303056
0.303056
0.303054
0.302852
0.285796
0.0497438
0.049861
0.284713
0.30283
0.303054
0.303056
0.303056
0.303056
0.303056
0.303056
0.303056
0.303056
0.303056
0.303056
0.303056
0.303056
0.303056
0.303056
0.303056
0.303056
0.303056
0.303056
0.303054
0.302834
0.284885
0.0498706
0.0462781
0.279642
0.30264
0.303051
0.303056
0.303056
0.303056
0.303056
0.303056
0.303056
0.303056
0.303056
0.303056
0.303056
0.303056
0.303056
0.303056
0.303056
0.303056
0.303056
0.303056
0.303051
0.302644
0.279739
0.0464453
0.0407972
0.272663
0.302282
0.303044
0.303056
0.303056
0.303056
0.303056
0.303056
0.303056
0.303056
0.303056
0.303056
0.303056
0.303056
0.303056
0.303056
0.303056
0.303056
0.303056
0.303056
0.303043
0.302229
0.27162
0.0402848
0.0369522
0.265954
0.301902
0.303036
0.303056
0.303056
0.303056
0.303056
0.303056
0.303056
0.303056
0.303056
0.303056
0.303056
0.303056
0.303056
0.303056
0.303056
0.303056
0.303056
0.303056
0.303036
0.301909
0.266133
0.0368796
0.0340606
0.259216
0.301495
0.303025
0.303056
0.303056
0.303056
0.303056
0.303056
0.303056
0.303056
0.303056
0.303056
0.303056
0.303056
0.303056
0.303056
0.303056
0.303056
0.303056
0.303056
0.303027
0.301561
0.26029
0.034222
0.0319966
0.253672
0.301159
0.303015
0.303055
0.303056
0.303056
0.303056
0.303056
0.303056
0.303056
0.303056
0.303056
0.303056
0.303056
0.303056
0.303056
0.303056
0.303056
0.303056
0.303055
0.30302
0.301329
0.25566
0.0327808
0.0309374
0.24921
0.30094
0.303008
0.303055
0.303056
0.303056
0.303056
0.303056
0.303056
0.303056
0.303056
0.303056
0.303056
0.303056
0.303056
0.303056
0.303056
0.303056
0.303056
0.303055
0.303
0.300699
0.246344
0.0304292
0.0285166
0.240174
0.300215
0.302983
0.303055
0.303056
0.303056
0.303056
0.303056
0.303056
0.303056
0.303056
0.303056
0.303056
0.303056
0.303056
0.303056
0.303056
0.303056
0.303056
0.303055
0.302976
0.300011
0.238373
0.0280107
0.028323
0.240554
0.300491
0.302994
0.303055
0.303056
0.303056
0.303056
0.303056
0.303056
0.303056
0.303056
0.303056
0.303056
0.303056
0.303056
0.303056
0.303056
0.303056
0.303056
0.303055
0.302997
0.300568
0.241503
0.0283739
0.0283774
0.242374
0.300782
0.303003
0.303055
0.303056
0.303056
0.303056
0.303056
0.303056
0.303056
0.303056
0.303056
0.303056
0.303056
0.303056
0.303056
0.303056
0.303056
0.303056
0.303055
0.303003
0.300779
0.242216
0.0284207
0.0272222
0.230433
0.299653
0.302963
0.303054
0.303056
0.303056
0.303056
0.303056
0.303056
0.303056
0.303056
0.303056
0.303056
0.303056
0.303056
0.303056
0.303056
0.303056
0.303056
0.303054
0.302976
0.299975
0.23346
0.0276716
0.0266004
0.221155
0.298353
0.302905
0.303052
0.303056
0.303056
0.303056
0.303056
0.303056
0.303056
0.303056
0.303056
0.303056
0.303056
0.303056
0.303056
0.303056
0.303056
0.303056
0.303052
0.302899
0.298215
0.220151
0.026296
0.0295496
0.232741
0.299629
0.302959
0.303054
0.303056
0.303056
0.303056
0.303056
0.303056
0.303056
0.303056
0.303056
0.303056
0.303056
0.303056
0.303056
0.303056
0.303056
0.303056
0.303053
0.302945
0.299301
0.229733
0.0289997
0.0326592
0.245032
0.300758
0.303001
0.303055
0.303056
0.303056
0.303056
0.303056
0.303056
0.303056
0.303056
0.303056
0.303056
0.303056
0.303056
0.303056
0.303056
0.303056
0.303056
0.303055
0.302998
0.300676
0.244111
0.0325768
0.035794
0.255259
0.301512
0.303025
0.303055
0.303056
0.303056
0.303056
0.303056
0.303056
0.303056
0.303056
0.303056
0.303056
0.303056
0.303056
0.303056
0.303056
0.303056
0.303056
0.303055
0.303027
0.301593
0.256539
0.0361477
0.0389276
0.264323
0.302041
0.303039
0.303056
0.303056
0.303056
0.303056
0.303056
0.303056
0.303056
0.303056
0.303056
0.303056
0.303056
0.303056
0.303056
0.303056
0.303056
0.303056
0.303056
0.303039
0.302034
0.264173
0.0388154
0.0409243
0.26883
0.30225
0.303044
0.303056
0.303056
0.303056
0.303056
0.303056
0.303056
0.303056
0.303056
0.303056
0.303056
0.303056
0.303056
0.303056
0.303056
0.303056
0.303056
0.303056
0.303043
0.302234
0.268482
0.0408537
0.043172
0.272814
0.302418
0.303047
0.303056
0.303056
0.303056
0.303056
0.303056
0.303056
0.303056
0.303056
0.303056
0.303056
0.303056
0.303056
0.303056
0.303056
0.303056
0.303056
0.303056
0.303048
0.302444
0.273466
0.0434004
0.0455709
0.276995
0.302572
0.30305
0.303056
0.303056
0.303056
0.303056
0.303056
0.303056
0.303056
0.303056
0.303056
0.303056
0.303056
0.303056
0.303056
0.303056
0.303056
0.303056
0.303056
0.30305
0.302547
0.27631
0.0452407
0.0473419
0.279406
0.30265
0.303051
0.303056
0.303056
0.303056
0.303056
0.303056
0.303056
0.303056
0.303056
0.303056
0.303056
0.303056
0.303056
0.303056
0.303056
0.303056
0.303056
0.303056
0.303051
0.302649
0.279369
0.0474457
0.0493058
0.281584
0.302717
0.303052
0.303056
0.303056
0.303056
0.303056
0.303056
0.303056
0.303056
0.303056
0.303056
0.303056
0.303056
0.303056
0.303056
0.303056
0.303056
0.303056
0.303056
0.303053
0.302741
0.282425
0.0496623
0.0516836
0.284664
0.302802
0.303054
0.303056
0.303056
0.303056
0.303056
0.303056
0.303056
0.303056
0.303056
0.303056
0.303056
0.303056
0.303056
0.303056
0.303056
0.303056
0.303056
0.303056
0.303053
0.302782
0.283912
0.0512188
0.0531172
0.286102
0.302837
0.303054
0.303056
0.303056
0.303056
0.303056
0.303056
0.303056
0.303056
0.303056
0.303056
0.303056
0.303056
0.303056
0.303056
0.303056
0.303056
0.303056
0.303056
0.303054
0.30284
0.286178
0.0532939
0.0545711
0.287145
0.302861
0.303054
0.303056
0.303056
0.303056
0.303056
0.303056
0.303056
0.303056
0.303056
0.303056
0.303056
0.303056
0.303056
0.303056
0.303056
0.303056
0.303056
0.303056
0.303054
0.302872
0.287624
0.0547933
0.0564423
0.288979
0.302901
0.303055
0.303056
0.303056
0.303056
0.303056
0.303056
0.303056
0.303056
0.303056
0.303056
0.303056
0.303056
0.303056
0.303056
0.303056
0.303056
0.303056
0.303056
0.303055
0.302892
0.28857
0.0561649
0.0575833
0.289851
0.302918
0.303055
0.303056
0.303056
0.303056
0.303056
0.303056
0.303056
0.303056
0.303056
0.303056
0.303056
0.303056
0.303056
0.303056
0.303056
0.303056
0.303056
0.303056
0.303055
0.302921
0.289971
0.0577476
0.0586974
0.290404
0.302928
0.303055
0.303056
0.303056
0.303056
0.303056
0.303056
0.303056
0.303056
0.303056
0.303056
0.303056
0.303056
0.303056
0.303056
0.303056
0.303056
0.303056
0.303056
0.303055
0.302934
0.290727
0.0588355
0.0601803
0.291613
0.30295
0.303055
0.303056
0.303056
0.303056
0.303056
0.303056
0.303056
0.303056
0.303056
0.303056
0.303056
0.303056
0.303056
0.303056
0.303056
0.303056
0.303056
0.303056
0.303055
0.302943
0.291241
0.0599215
0.0610929
0.292179
0.302959
0.303055
0.303056
0.303056
0.303056
0.303056
0.303056
0.303056
0.303056
0.303056
0.303056
0.303056
0.303056
0.303056
0.303056
0.303056
0.303056
0.303056
0.303056
0.303055
0.302961
0.29225
0.0612189
0.0619683
0.292508
0.302964
0.303055
0.303056
0.303056
0.303056
0.303056
0.303056
0.303056
0.303056
0.303056
0.303056
0.303056
0.303056
0.303056
0.303056
0.303056
0.303056
0.303056
0.303056
0.303055
0.302968
0.292768
0.0620764
0.0631072
0.293349
0.302978
0.303056
0.303056
0.303056
0.303056
0.303056
0.303056
0.303056
0.303056
0.303056
0.303056
0.303056
0.303056
0.303056
0.303056
0.303056
0.303056
0.303056
0.303056
0.303055
0.302973
0.29304
0.062898
0.0638078
0.293727
0.302983
0.303056
0.303056
0.303056
0.303056
0.303056
0.303056
0.303056
0.303056
0.303056
0.303056
0.303056
0.303056
0.303056
0.303056
0.303056
0.303056
0.303056
0.303056
0.303056
0.302984
0.293775
0.0639031
0.0644637
0.293913
0.302986
0.303056
0.303056
0.303056
0.303056
0.303056
0.303056
0.303056
0.303056
0.303056
0.303056
0.303056
0.303056
0.303056
0.303056
0.303056
0.303056
0.303056
0.303056
0.303056
0.302989
0.294136
0.0645504
0.0653015
0.294518
0.302994
0.303056
0.303056
0.303056
0.303056
0.303056
0.303056
0.303056
0.303056
0.303056
0.303056
0.303056
0.303056
0.303056
0.303056
0.303056
0.303056
0.303056
0.303056
0.303056
0.302991
0.294274
0.0651506
0.0658094
0.294775
0.302997
0.303056
0.303056
0.303056
0.303056
0.303056
0.303056
0.303056
0.303056
0.303056
0.303056
0.303056
0.303056
0.303056
0.303056
0.303056
0.303056
0.303056
0.303056
0.303056
0.302998
0.294798
0.0658704
0.0662708
0.294868
0.302999
0.303056
0.303056
0.303056
0.303056
0.303056
0.303056
0.303056
0.303056
0.303056
0.303056
0.303056
0.303056
0.303056
0.303056
0.303056
0.303056
0.303056
0.303056
0.303056
0.303001
0.295056
0.0663345
0.0668419
0.295306
0.303004
0.303056
0.303056
0.303056
0.303056
0.303056
0.303056
0.303056
0.303056
0.303056
0.303056
0.303056
0.303056
0.303056
0.303056
0.303056
0.303056
0.303056
0.303056
0.303056
0.303002
0.295129
0.0667496
0.0671777
0.295479
0.303006
0.303056
0.303056
0.303056
0.303056
0.303056
0.303056
0.303056
0.303056
0.303056
0.303056
0.303056
0.303056
0.303056
0.303056
0.303056
0.303056
0.303056
0.303056
0.303056
0.303006
0.295478
0.0672079
0.0674714
0.295513
0.303007
0.303056
0.303056
0.303056
0.303056
0.303056
0.303056
0.303056
0.303056
0.303056
0.303056
0.303056
0.303056
0.303056
0.303056
0.303056
0.303056
0.303056
0.303056
0.303056
0.303008
0.295666
0.0675126
0.0678146
0.295827
0.30301
0.303056
0.303056
0.303056
0.303056
0.303056
0.303056
0.303056
0.303056
0.303056
0.303056
0.303056
0.303056
0.303056
0.303056
0.303056
0.303056
0.303056
0.303056
0.303056
0.303009
0.295705
0.0677647
0.0680053
0.295941
0.303012
0.303056
0.303056
0.303056
0.303056
0.303056
0.303056
0.303056
0.303056
0.303056
0.303056
0.303056
0.303056
0.303056
0.303056
0.303056
0.303056
0.303056
0.303056
0.303056
0.303011
0.295903
0.0680084
0.0681689
0.295956
0.303012
0.303056
0.303056
0.303056
0.303056
0.303056
0.303056
0.303056
0.303056
0.303056
0.303056
0.303056
0.303056
0.303056
0.303056
0.303056
0.303056
0.303056
0.303056
0.303056
0.303012
0.296012
0.0681807
0.138807
0.301683
0.30306
0.303065
0.303065
0.303064
0.303064
0.303064
0.303064
0.303064
0.303064
0.303064
0.303063
0.303063
0.303063
0.303063
0.303063
0.303063
0.303063
0.303063
0.303063
0.303062
0.303062
0.303062
0.303062
0.303062
0.303062
0.303061
0.302615
0.157252
0.131275
0.302222
0.303052
0.303056
0.303056
0.303056
0.303056
0.303056
0.303056
0.303056
0.303056
0.303056
0.303056
0.303056
0.303056
0.303056
0.303056
0.303056
0.303056
0.303056
0.303056
0.303056
0.303056
0.303056
0.303056
0.303056
0.303056
0.303056
0.30257
0.155656
0.137331
0.302448
0.303053
0.303056
0.303056
0.303056
0.303056
0.303056
0.303056
0.303056
0.303056
0.303056
0.303056
0.303056
0.303056
0.303056
0.303056
0.303056
0.303056
0.303056
0.303056
0.303056
0.303056
0.303056
0.303056
0.303056
0.303056
0.303055
0.302554
0.154174
0.140822
0.302437
0.303054
0.303056
0.303056
0.303056
0.303056
0.303056
0.303056
0.303056
0.303056
0.303056
0.303056
0.303056
0.303056
0.303056
0.303056
0.303056
0.303056
0.303056
0.303056
0.303056
0.303056
0.303056
0.303056
0.303056
0.303056
0.303055
0.302542
0.152917
0.140642
0.302398
0.303054
0.303056
0.303056
0.303056
0.303056
0.303056
0.303056
0.303056
0.303056
0.303056
0.303056
0.303056
0.303056
0.303056
0.303056
0.303056
0.303056
0.303056
0.303056
0.303056
0.303056
0.303056
0.303056
0.303056
0.303056
0.303055
0.302529
0.151775
0.140342
0.302394
0.303054
0.303056
0.303056
0.303056
0.303056
0.303056
0.303056
0.303056
0.303056
0.303056
0.303056
0.303056
0.303056
0.303056
0.303056
0.303056
0.303056
0.303056
0.303056
0.303056
0.303056
0.303056
0.303056
0.303056
0.303056
0.303055
0.302516
0.150683
0.14037
0.3024
0.303054
0.303056
0.303056
0.303056
0.303056
0.303056
0.303056
0.303056
0.303056
0.303056
0.303056
0.303056
0.303056
0.303056
0.303056
0.303056
0.303056
0.303056
0.303056
0.303056
0.303056
0.303056
0.303056
0.303056
0.303056
0.303055
0.302503
0.149649
0.140771
0.302408
0.303054
0.303056
0.303056
0.303056
0.303056
0.303056
0.303056
0.303056
0.303056
0.303056
0.303056
0.303056
0.303056
0.303056
0.303056
0.303056
0.303056
0.303056
0.303056
0.303056
0.303056
0.303056
0.303056
0.303056
0.303056
0.303055
0.302491
0.148693
0.141177
0.302412
0.303054
0.303056
0.303056
0.303056
0.303056
0.303056
0.303056
0.303056
0.303056
0.303056
0.303056
0.303056
0.303056
0.303056
0.303056
0.303056
0.303056
0.303056
0.303056
0.303056
0.303056
0.303056
0.303056
0.303056
0.303056
0.303055
0.30248
0.147824
0.141439
0.302412
0.303055
0.303056
0.303056
0.303056
0.303056
0.303056
0.303056
0.303056
0.303056
0.303056
0.303056
0.303056
0.303056
0.303056
0.303056
0.303056
0.303056
0.303056
0.303056
0.303056
0.303056
0.303056
0.303056
0.303056
0.303056
0.303055
0.302469
0.147039
0.141536
0.30241
0.303055
0.303056
0.303056
0.303056
0.303056
0.303056
0.303056
0.303056
0.303056
0.303056
0.303056
0.303056
0.303056
0.303056
0.303056
0.303056
0.303056
0.303056
0.303056
0.303056
0.303056
0.303056
0.303056
0.303056
0.303056
0.303055
0.30246
0.146326
0.141528
0.302408
0.303055
0.303056
0.303056
0.303056
0.303056
0.303056
0.303056
0.303056
0.303056
0.303056
0.303056
0.303056
0.303056
0.303056
0.303056
0.303056
0.303056
0.303056
0.303056
0.303056
0.303056
0.303056
0.303056
0.303056
0.303056
0.303055
0.302451
0.145677
0.141495
0.302405
0.303055
0.303056
0.303056
0.303056
0.303056
0.303056
0.303056
0.303056
0.303056
0.303056
0.303056
0.303056
0.303056
0.303056
0.303056
0.303056
0.303056
0.303056
0.303056
0.303056
0.303056
0.303056
0.303056
0.303056
0.303056
0.303055
0.302443
0.145086
0.141417
0.302404
0.303055
0.303056
0.303056
0.303056
0.303056
0.303056
0.303056
0.303056
0.303056
0.303056
0.303056
0.303056
0.303056
0.303056
0.303056
0.303056
0.303056
0.303056
0.303056
0.303056
0.303056
0.303056
0.303056
0.303056
0.303056
0.303055
0.302436
0.144547
0.141428
0.302403
0.303055
0.303056
0.303056
0.303056
0.303056
0.303056
0.303056
0.303056
0.303056
0.303056
0.303056
0.303056
0.303056
0.303056
0.303056
0.303056
0.303056
0.303056
0.303056
0.303056
0.303056
0.303056
0.303056
0.303056
0.303056
0.303055
0.302429
0.144061
0.141358
0.3024
0.303055
0.303056
0.303056
0.303056
0.303056
0.303056
0.303056
0.303056
0.303056
0.303056
0.303056
0.303056
0.303056
0.303056
0.303056
0.303056
0.303056
0.303056
0.303056
0.303056
0.303056
0.303056
0.303056
0.303056
0.303056
0.303055
0.302423
0.143625
0.141326
0.3024
0.303055
0.303056
0.303056
0.303056
0.303056
0.303056
0.303056
0.303056
0.303056
0.303056
0.303056
0.303056
0.303056
0.303056
0.303056
0.303056
0.303056
0.303056
0.303056
0.303056
0.303056
0.303056
0.303056
0.303056
0.303056
0.303055
0.302417
0.143235
0.141325
0.302399
0.303055
0.303056
0.303056
0.303056
0.303056
0.303056
0.303056
0.303056
0.303056
0.303056
0.303056
0.303056
0.303056
0.303056
0.303056
0.303056
0.303056
0.303056
0.303056
0.303056
0.303056
0.303056
0.303056
0.303056
0.303056
0.303055
0.302413
0.142893
0.141289
0.302398
0.303055
0.303056
0.303056
0.303056
0.303056
0.303056
0.303056
0.303056
0.303056
0.303056
0.303056
0.303056
0.303056
0.303056
0.303056
0.303056
0.303056
0.303056
0.303056
0.303056
0.303056
0.303056
0.303056
0.303056
0.303056
0.303055
0.302408
0.142593
0.141299
0.302398
0.303055
0.303056
0.303056
0.303056
0.303056
0.303056
0.303056
0.303056
0.303056
0.303056
0.303056
0.303056
0.303056
0.303056
0.303056
0.303056
0.303056
0.303056
0.303056
0.303056
0.303056
0.303056
0.303056
0.303056
0.303056
0.303055
0.302405
0.142334
0.141315
0.302397
0.303055
0.303056
0.303056
0.303056
0.303056
0.303056
0.303056
0.303056
0.303056
0.303056
0.303056
0.303056
0.303056
0.303056
0.303056
0.303056
0.303056
0.303056
0.303056
0.303056
0.303056
0.303056
0.303056
0.303056
0.303056
0.303055
0.302402
0.142116
0.141323
0.302397
0.303055
0.303056
0.303056
0.303056
0.303056
0.303056
0.303056
0.303056
0.303056
0.303056
0.303056
0.303056
0.303056
0.303056
0.303056
0.303056
0.303056
0.303056
0.303056
0.303056
0.303056
0.303056
0.303056
0.303056
0.303056
0.303055
0.302399
0.141934
0.141377
0.302397
0.303055
0.303056
0.303056
0.303056
0.303056
0.303056
0.303056
0.303056
0.303056
0.303056
0.303056
0.303056
0.303056
0.303056
0.303056
0.303056
0.303056
0.303056
0.303056
0.303056
0.303056
0.303056
0.303056
0.303056
0.303056
0.303055
0.302397
0.141787
0.141425
0.302397
0.303055
0.303056
0.303056
0.303056
0.303056
0.303056
0.303056
0.303056
0.303056
0.303056
0.303056
0.303056
0.303056
0.303056
0.303056
0.303056
0.303056
0.303056
0.303056
0.303056
0.303056
0.303056
0.303056
0.303056
0.303056
0.303055
0.302396
0.141674
0.141481
0.302454
0.303055
0.303056
0.303056
0.303056
0.303056
0.303056
0.303056
0.303056
0.303056
0.303056
0.303056
0.303056
0.303056
0.303056
0.303056
0.303056
0.303056
0.303056
0.303056
0.303056
0.303056
0.303056
0.303056
0.303056
0.303056
0.303055
0.302395
0.141591
0.157251
0.302615
0.303061
0.303062
0.303062
0.303062
0.303062
0.303062
0.303062
0.303063
0.303063
0.303063
0.303063
0.303063
0.303063
0.303063
0.303063
0.303063
0.303064
0.303064
0.303064
0.303064
0.303064
0.303064
0.303064
0.303065
0.303065
0.30306
0.301681
0.13877
0.155655
0.30257
0.303056
0.303056
0.303056
0.303056
0.303056
0.303056
0.303056
0.303056
0.303056
0.303056
0.303056
0.303056
0.303056
0.303056
0.303056
0.303056
0.303056
0.303056
0.303056
0.303056
0.303056
0.303056
0.303056
0.303056
0.303056
0.303052
0.302222
0.131292
0.154172
0.302554
0.303055
0.303056
0.303056
0.303056
0.303056
0.303056
0.303056
0.303056
0.303056
0.303056
0.303056
0.303056
0.303056
0.303056
0.303056
0.303056
0.303056
0.303056
0.303056
0.303056
0.303056
0.303056
0.303056
0.303056
0.303056
0.303053
0.302448
0.1373
0.152917
0.302542
0.303055
0.303056
0.303056
0.303056
0.303056
0.303056
0.303056
0.303056
0.303056
0.303056
0.303056
0.303056
0.303056
0.303056
0.303056
0.303056
0.303056
0.303056
0.303056
0.303056
0.303056
0.303056
0.303056
0.303056
0.303056
0.303054
0.302438
0.140868
0.151775
0.302529
0.303055
0.303056
0.303056
0.303056
0.303056
0.303056
0.303056
0.303056
0.303056
0.303056
0.303056
0.303056
0.303056
0.303056
0.303056
0.303056
0.303056
0.303056
0.303056
0.303056
0.303056
0.303056
0.303056
0.303056
0.303056
0.303054
0.302397
0.140661
0.150682
0.302516
0.303055
0.303056
0.303056
0.303056
0.303056
0.303056
0.303056
0.303056
0.303056
0.303056
0.303056
0.303056
0.303056
0.303056
0.303056
0.303056
0.303056
0.303056
0.303056
0.303056
0.303056
0.303056
0.303056
0.303056
0.303056
0.303054
0.302393
0.140277
0.14965
0.302503
0.303055
0.303056
0.303056
0.303056
0.303056
0.303056
0.303056
0.303056
0.303056
0.303056
0.303056
0.303056
0.303056
0.303056
0.303056
0.303056
0.303056
0.303056
0.303056
0.303056
0.303056
0.303056
0.303056
0.303056
0.303056
0.303054
0.302401
0.140455
0.148694
0.302491
0.303055
0.303056
0.303056
0.303056
0.303056
0.303056
0.303056
0.303056
0.303056
0.303056
0.303056
0.303056
0.303056
0.303056
0.303056
0.303056
0.303056
0.303056
0.303056
0.303056
0.303056
0.303056
0.303056
0.303056
0.303056
0.303054
0.302407
0.140724
0.147824
0.30248
0.303055
0.303056
0.303056
0.303056
0.303056
0.303056
0.303056
0.303056
0.303056
0.303056
0.303056
0.303056
0.303056
0.303056
0.303056
0.303056
0.303056
0.303056
0.303056
0.303056
0.303056
0.303056
0.303056
0.303056
0.303056
0.303054
0.302413
0.141183
0.147039
0.30247
0.303055
0.303056
0.303056
0.303056
0.303056
0.303056
0.303056
0.303056
0.303056
0.303056
0.303056
0.303056
0.303056
0.303056
0.303056
0.303056
0.303056
0.303056
0.303056
0.303056
0.303056
0.303056
0.303056
0.303056
0.303056
0.303055
0.302412
0.141459
0.146326
0.30246
0.303055
0.303056
0.303056
0.303056
0.303056
0.303056
0.303056
0.303056
0.303056
0.303056
0.303056
0.303056
0.303056
0.303056
0.303056
0.303056
0.303056
0.303056
0.303056
0.303056
0.303056
0.303056
0.303056
0.303056
0.303056
0.303055
0.30241
0.14149
0.145677
0.302451
0.303055
0.303056
0.303056
0.303056
0.303056
0.303056
0.303056
0.303056
0.303056
0.303056
0.303056
0.303056
0.303056
0.303056
0.303056
0.303056
0.303056
0.303056
0.303056
0.303056
0.303056
0.303056
0.303056
0.303056
0.303056
0.303055
0.302409
0.141565
0.145086
0.302443
0.303055
0.303056
0.303056
0.303056
0.303056
0.303056
0.303056
0.303056
0.303056
0.303056
0.303056
0.303056
0.303056
0.303056
0.303056
0.303056
0.303056
0.303056
0.303056
0.303056
0.303056
0.303056
0.303056
0.303056
0.303056
0.303055
0.302405
0.141489
0.144547
0.302436
0.303055
0.303056
0.303056
0.303056
0.303056
0.303056
0.303056
0.303056
0.303056
0.303056
0.303056
0.303056
0.303056
0.303056
0.303056
0.303056
0.303056
0.303056
0.303056
0.303056
0.303056
0.303056
0.303056
0.303056
0.303056
0.303055
0.302404
0.141412
0.14406
0.302429
0.303055
0.303056
0.303056
0.303056
0.303056
0.303056
0.303056
0.303056
0.303056
0.303056
0.303056
0.303056
0.303056
0.303056
0.303056
0.303056
0.303056
0.303056
0.303056
0.303056
0.303056
0.303056
0.303056
0.303056
0.303056
0.303055
0.302403
0.141424
0.143625
0.302423
0.303055
0.303056
0.303056
0.303056
0.303056
0.303056
0.303056
0.303056
0.303056
0.303056
0.303056
0.303056
0.303056
0.303056
0.303056
0.303056
0.303056
0.303056
0.303056
0.303056
0.303056
0.303056
0.303056
0.303056
0.303056
0.303055
0.3024
0.14137
0.143236
0.302417
0.303055
0.303056
0.303056
0.303056
0.303056
0.303056
0.303056
0.303056
0.303056
0.303056
0.303056
0.303056
0.303056
0.303056
0.303056
0.303056
0.303056
0.303056
0.303056
0.303056
0.303056
0.303056
0.303056
0.303056
0.303056
0.303055
0.3024
0.141315
0.142892
0.302413
0.303055
0.303056
0.303056
0.303056
0.303056
0.303056
0.303056
0.303056
0.303056
0.303056
0.303056
0.303056
0.303056
0.303056
0.303056
0.303056
0.303056
0.303056
0.303056
0.303056
0.303056
0.303056
0.303056
0.303056
0.303056
0.303055
0.302399
0.141322
0.142593
0.302408
0.303055
0.303056
0.303056
0.303056
0.303056
0.303056
0.303056
0.303056
0.303056
0.303056
0.303056
0.303056
0.303056
0.303056
0.303056
0.303056
0.303056
0.303056
0.303056
0.303056
0.303056
0.303056
0.303056
0.303056
0.303056
0.303055
0.302398
0.141305
0.142335
0.302405
0.303055
0.303056
0.303056
0.303056
0.303056
0.303056
0.303056
0.303056
0.303056
0.303056
0.303056
0.303056
0.303056
0.303056
0.303056
0.303056
0.303056
0.303056
0.303056
0.303056
0.303056
0.303056
0.303056
0.303056
0.303056
0.303055
0.302397
0.141286
0.142115
0.302402
0.303055
0.303056
0.303056
0.303056
0.303056
0.303056
0.303056
0.303056
0.303056
0.303056
0.303056
0.303056
0.303056
0.303056
0.303056
0.303056
0.303056
0.303056
0.303056
0.303056
0.303056
0.303056
0.303056
0.303056
0.303056
0.303055
0.302397
0.141313
0.141934
0.302399
0.303055
0.303056
0.303056
0.303056
0.303056
0.303056
0.303056
0.303056
0.303056
0.303056
0.303056
0.303056
0.303056
0.303056
0.303056
0.303056
0.303056
0.303056
0.303056
0.303056
0.303056
0.303056
0.303056
0.303056
0.303056
0.303055
0.302397
0.141338
0.141788
0.302397
0.303055
0.303056
0.303056
0.303056
0.303056
0.303056
0.303056
0.303056
0.303056
0.303056
0.303056
0.303056
0.303056
0.303056
0.303056
0.303056
0.303056
0.303056
0.303056
0.303056
0.303056
0.303056
0.303056
0.303056
0.303056
0.303055
0.302397
0.141364
0.141674
0.302396
0.303055
0.303056
0.303056
0.303056
0.303056
0.303056
0.303056
0.303056
0.303056
0.303056
0.303056
0.303056
0.303056
0.303056
0.303056
0.303056
0.303056
0.303056
0.303056
0.303056
0.303056
0.303056
0.303056
0.303056
0.303056
0.303055
0.302398
0.141426
0.141591
0.302395
0.303055
0.303056
0.303056
0.303056
0.303056
0.303056
0.303056
0.303056
0.303056
0.303056
0.303056
0.303056
0.303056
0.303056
0.303056
0.303056
0.303056
0.303056
0.303056
0.303056
0.303056
0.303056
0.303056
0.303056
0.303056
0.303055
0.302454
0.141483
0.115485
0.115696
0.115906
0.116117
0.116327
0.116537
0.116748
0.116958
0.117169
0.117379
0.117589
0.1178
0.11801
0.118221
0.118431
0.118641
0.118852
0.119062
0.119273
0.119483
0.119693
0.119904
0.120114
0.120325
0.120535
0.120745
0.120956
0.121166
0.121377
0.121587
0.121797
0.122008
0.122218
0.122429
0.122639
0.12285
0.12306
0.12327
0.123481
0.123691
0.123902
0.124112
0.124322
0.124533
0.124743
0.124954
0.125164
0.125374
0.125585
0.125795
0.126006
0.126216
0.126426
0.126637
0.126847
0.127058
0.127268
0.127478
0.127689
0.127899
0.12811
0.12832
0.128531
0.128741
0.128951
0.129162
0.129372
0.129583
0.129793
0.130003
0.130214
0.130424
0.130635
0.130845
0.131055
0.131266
0.131476
0.131687
0.131897
0.132107
0.132318
0.132528
0.132739
0.132949
0.13316
0.13337
0.13358
0.133791
0.134001
0.134212
0.134422
0.134632
0.134843
0.135053
0.135264
0.135474
0.135684
0.135895
0.136105
0.136316
0.136526
0.136736
0.136947
0.137157
0.137368
0.137578
0.137789
0.137999
0.138209
0.13842
0.13863
0.138841
0.139051
0.139261
0.139472
0.139682
0.139893
0.140103
0.140313
0.140524
0.140734
0.140945
0.141155
0.141366
0.141576
0.301722
0.301733
0.301741
0.301749
0.301757
0.301765
0.301772
0.30178
0.301788
0.301795
0.301803
0.30181
0.301817
0.301825
0.301832
0.301839
0.301846
0.301853
0.30186
0.301867
0.301874
0.301881
0.301888
0.301895
0.301902
0.301908
0.301915
0.301922
0.301928
0.301935
0.301941
0.301948
0.301954
0.30196
0.301967
0.301973
0.301979
0.301985
0.301991
0.301997
0.302003
0.302009
0.302015
0.302021
0.302027
0.302033
0.302039
0.302045
0.30205
0.302056
0.302062
0.302067
0.302073
0.302078
0.302084
0.302089
0.302095
0.3021
0.302105
0.302111
0.302116
0.302121
0.302127
0.302132
0.302137
0.302142
0.302147
0.302152
0.302157
0.302162
0.302167
0.302172
0.302177
0.302182
0.302186
0.302191
0.302196
0.302201
0.302205
0.30221
0.302215
0.302219
0.302224
0.302228
0.302233
0.302237
0.302242
0.302246
0.30225
0.302255
0.302259
0.302263
0.302268
0.302272
0.302276
0.30228
0.302285
0.302289
0.302293
0.302297
0.302301
0.302305
0.302309
0.302313
0.302317
0.302321
0.302325
0.302329
0.302333
0.302337
0.30234
0.302344
0.302348
0.302352
0.302355
0.302359
0.302363
0.302366
0.30237
0.302374
0.302377
0.302381
0.302384
0.302388
0.302392
0.303053
0.303053
0.303053
0.303053
0.303053
0.303053
0.303053
0.303053
0.303053
0.303053
0.303053
0.303053
0.303053
0.303053
0.303054
0.303054
0.303054
0.303054
0.303054
0.303054
0.303054
0.303054
0.303054
0.303054
0.303054
0.303054
0.303054
0.303054
0.303054
0.303054
0.303054
0.303054
0.303054
0.303054
0.303054
0.303054
0.303054
0.303054
0.303054
0.303054
0.303054
0.303054
0.303054
0.303054
0.303054
0.303054
0.303054
0.303054
0.303054
0.303054
0.303054
0.303054
0.303054
0.303054
0.303054
0.303054
0.303054
0.303054
0.303054
0.303054
0.303054
0.303054
0.303054
0.303054
0.303054
0.303054
0.303054
0.303054
0.303054
0.303055
0.303055
0.303055
0.303055
0.303055
0.303055
0.303055
0.303055
0.303055
0.303055
0.303055
0.303055
0.303055
0.303055
0.303055
0.303055
0.303055
0.303055
0.303055
0.303055
0.303055
0.303055
0.303055
0.303055
0.303055
0.303055
0.303055
0.303055
0.303055
0.303055
0.303055
0.303055
0.303055
0.303055
0.303055
0.303055
0.303055
0.303055
0.303055
0.303055
0.303055
0.303055
0.303055
0.303055
0.303055
0.303055
0.303055
0.303055
0.303055
0.303055
0.303055
0.303055
0.303055
0.303055
0.303055
0.303055
0.303056
0.303056
0.303056
0.303056
0.303056
0.303056
0.303056
0.303056
0.303056
0.303056
0.303056
0.303056
0.303056
0.303056
0.303056
0.303056
0.303056
0.303056
0.303056
0.303056
0.303056
0.303056
0.303056
0.303056
0.303056
0.303056
0.303056
0.303056
0.303056
0.303056
0.303056
0.303056
0.303056
0.303056
0.303056
0.303056
0.303056
0.303056
0.303056
0.303056
0.303056
0.303056
0.303056
0.303056
0.303056
0.303056
0.303056
0.303056
0.303056
0.303056
0.303056
0.303056
0.303056
0.303056
0.303056
0.303056
0.303056
0.303056
0.303056
0.303056
0.303056
0.303056
0.303056
0.303056
0.303056
0.303056
0.303056
0.303056
0.303056
0.303056
0.303056
0.303056
0.303056
0.303056
0.303056
0.303056
0.303056
0.303056
0.303056
0.303056
0.303056
0.303056
0.303056
0.303056
0.303056
0.303056
0.303056
0.303056
0.303056
0.303056
0.303056
0.303056
0.303056
0.303056
0.303056
0.303056
0.303056
0.303056
0.303056
0.303056
0.303056
0.303056
0.303056
0.303056
0.303056
0.303056
0.303056
0.303056
0.303056
0.303056
0.303056
0.303056
0.303056
0.303056
0.303056
0.303056