/*--------------------------------*- C++ -*----------------------------------*\
| =========                 |                                                 |
| \\      /  F ield         | OpenFOAM: The Open Source CFD Toolbox           |
|  \\    /   O peration     | Version:  2112                                  |
|   \\  /    A nd           | Website:  www.openfoam.com                      |
|    \\/     M anipulation  |                                                 |
\*---------------------------------------------------------------------------*/
FoamFile
{
    version     2.0;
    format      ascii;
    arch        "LSB;label=32;scalar=64";
    class       volScalarField;
    location    "2e-05";
    object      epsilon;
}
// * * * * * * * * * * * * * * * * * * * * * * * * * * * * * * * * * * * * * //

dimensions      [0 2 -3 0 0 0 0];

internalField   nonuniform List<scalar> 
13875
(
5.79184e+06
1.35472e+08
1.55923e+08
1.59359e+08
1.59874e+08
1.59929e+08
1.5993e+08
1.59923e+08
1.59917e+08
1.5991e+08
1.59903e+08
1.59896e+08
1.59893e+08
1.59893e+08
1.59892e+08
1.59889e+08
1.59888e+08
1.59889e+08
1.59887e+08
1.5988e+08
1.59821e+08
1.59314e+08
1.55914e+08
1.35509e+08
5.90431e+06
3.98486e+06
4.69184e+07
5.18489e+07
5.27204e+07
5.28008e+07
5.28061e+07
5.28033e+07
5.28004e+07
5.27979e+07
5.27954e+07
5.2793e+07
5.27908e+07
5.27896e+07
5.27902e+07
5.27903e+07
5.27898e+07
5.27897e+07
5.27908e+07
5.27914e+07
5.2792e+07
5.2785e+07
5.2706e+07
5.18407e+07
4.69273e+07
4.05094e+06
3.19842e+06
1.88387e+07
2.00137e+07
2.02381e+07
2.02492e+07
2.02498e+07
2.0249e+07
2.02481e+07
2.02474e+07
2.02467e+07
2.0246e+07
2.02454e+07
2.0245e+07
2.0245e+07
2.02447e+07
2.02444e+07
2.02443e+07
2.02443e+07
2.02442e+07
2.02442e+07
2.02429e+07
2.02312e+07
2.00071e+07
1.88348e+07
3.19215e+06
1.94138e+06
2.83854e+06
2.96533e+06
2.98829e+06
2.98941e+06
2.98952e+06
2.98947e+06
2.98938e+06
2.9893e+06
2.98925e+06
2.98919e+06
2.98908e+06
2.98901e+06
2.98896e+06
2.98887e+06
2.98881e+06
2.98873e+06
2.98867e+06
2.98858e+06
2.98849e+06
2.98825e+06
2.98692e+06
2.96388e+06
2.83748e+06
1.94052e+06
1.53729e+06
304954
291168
291174
291182
291183
291183
291182
291182
291182
291181
291180
291179
291177
291176
291175
291173
291172
291170
291168
291166
291154
291146
304960
1.53738e+06
1.52771e+06
278702
263574
263407
263406
263406
263406
263406
263406
263406
263406
263406
263406
263406
263406
263406
263406
263406
263406
263406
263406
263407
263572
278599
1.52779e+06
1.5271e+06
278494
263471
263306
263305
263305
263305
263305
263305
263305
263305
263305
263305
263305
263305
263305
263305
263305
263305
263305
263305
263306
263477
278858
1.52714e+06
1.52392e+06
278968
263478
263305
263304
263304
263304
263304
263304
263304
263304
263304
263304
263304
263304
263304
263304
263304
263304
263304
263304
263305
263478
278990
1.52371e+06
1.52146e+06
280048
263497
263305
263304
263304
263304
263304
263304
263304
263304
263304
263304
263304
263304
263304
263304
263304
263304
263304
263304
263305
263494
279885
1.52168e+06
1.64706e+06
285215
263667
263308
263304
263304
263304
263304
263304
263304
263304
263304
263304
263304
263304
263304
263304
263304
263304
263304
263304
263308
263663
285114
1.64108e+06
1.86443e+06
292562
263983
263315
263304
263304
263304
263304
263304
263304
263304
263304
263304
263304
263304
263304
263304
263304
263304
263304
263304
263316
264030
293693
1.88789e+06
2.04971e+06
299942
264319
263323
263304
263304
263304
263304
263304
263304
263304
263304
263304
263304
263304
263304
263304
263304
263304
263304
263304
263323
264313
299742
2.05364e+06
2.21291e+06
307708
264679
263333
263304
263304
263304
263304
263304
263304
263304
263304
263304
263304
263304
263304
263304
263304
263304
263304
263304
263331
264620
306433
2.2025e+06
2.34341e+06
314366
264974
263341
263304
263304
263304
263304
263304
263304
263304
263304
263304
263304
263304
263304
263304
263304
263304
263304
263304
263337
264823
311901
2.2886e+06
2.41137e+06
319875
265164
263348
263305
263304
263304
263304
263304
263304
263304
263304
263304
263304
263304
263304
263304
263304
263304
263304
263305
263355
265380
323619
2.45124e+06
2.5982e+06
331806
265805
263370
263305
263304
263304
263304
263304
263304
263304
263304
263304
263304
263304
263304
263304
263304
263304
263304
263305
263377
265988
334338
2.6445e+06
2.59812e+06
331045
265546
263359
263305
263304
263304
263304
263304
263304
263304
263304
263304
263304
263304
263304
263304
263304
263304
263304
263305
263357
265476
329743
2.59322e+06
2.56925e+06
328304
265271
263349
263305
263304
263304
263304
263304
263304
263304
263304
263304
263304
263304
263304
263304
263304
263304
263304
263305
263349
265271
328468
2.56136e+06
2.62085e+06
344516
266223
263381
263305
263304
263304
263304
263304
263304
263304
263304
263304
263304
263304
263304
263304
263304
263304
263304
263305
263370
265946
340194
2.58742e+06
2.65367e+06
358308
267338
263427
263306
263304
263304
263304
263304
263304
263304
263304
263304
263304
263304
263304
263304
263304
263304
263304
263307
263432
267458
359890
2.67936e+06
2.41843e+06
340886
266229
263383
263305
263304
263304
263304
263304
263304
263304
263304
263304
263304
263304
263304
263304
263304
263304
263304
263306
263394
266512
345205
2.45677e+06
2.21395e+06
324207
265259
263348
263304
263304
263304
263304
263304
263304
263304
263304
263304
263304
263304
263304
263304
263304
263304
263304
263305
263351
265329
325392
2.21851e+06
2.0409e+06
311532
264615
263329
263304
263304
263304
263304
263304
263304
263304
263304
263304
263304
263304
263304
263304
263304
263304
263304
263304
263327
264546
310024
2.0239e+06
1.89393e+06
301106
264165
263318
263304
263304
263304
263304
263304
263304
263304
263304
263304
263304
263304
263304
263304
263304
263304
263304
263304
263318
264171
301271
1.8986e+06
1.80907e+06
296159
263987
263314
263304
263304
263304
263304
263304
263304
263304
263304
263304
263304
263304
263304
263304
263304
263304
263304
263304
263314
264001
296533
1.81171e+06
1.72293e+06
291924
263845
263311
263304
263304
263304
263304
263304
263304
263304
263304
263304
263304
263304
263304
263304
263304
263304
263304
263304
263310
263822
291247
1.71513e+06
1.64024e+06
287613
263714
263308
263304
263304
263304
263304
263304
263304
263304
263304
263304
263304
263304
263304
263304
263304
263304
263304
263304
263309
263735
288306
1.65053e+06
1.58321e+06
285177
263648
263307
263304
263304
263304
263304
263304
263304
263304
263304
263304
263304
263304
263304
263304
263304
263304
263304
263304
263307
263649
285215
1.58018e+06
1.52502e+06
283015
263591
263307
263304
263304
263304
263304
263304
263304
263304
263304
263304
263304
263304
263304
263304
263304
263304
263304
263304
263306
263570
282195
1.5156e+06
1.46119e+06
280022
263519
263306
263304
263304
263304
263304
263304
263304
263304
263304
263304
263304
263304
263304
263304
263304
263304
263304
263304
263306
263536
280743
1.47257e+06
1.42424e+06
278639
263489
263305
263304
263304
263304
263304
263304
263304
263304
263304
263304
263304
263304
263304
263304
263304
263304
263304
263304
263305
263487
278568
1.42015e+06
1.3888e+06
277645
263469
263305
263304
263304
263304
263304
263304
263304
263304
263304
263304
263304
263304
263304
263304
263304
263304
263304
263304
263305
263460
277194
1.38399e+06
1.34678e+06
275921
263435
263305
263304
263304
263304
263304
263304
263304
263304
263304
263304
263304
263304
263304
263304
263304
263304
263304
263304
263305
263443
276302
1.35242e+06
1.32163e+06
275105
263421
263305
263304
263304
263304
263304
263304
263304
263304
263304
263304
263304
263304
263304
263304
263304
263304
263304
263304
263304
263419
274995
1.31845e+06
1.29801e+06
274590
263412
263304
263304
263304
263304
263304
263304
263304
263304
263304
263304
263304
263304
263304
263304
263304
263304
263304
263304
263304
263407
274292
1.29543e+06
1.26879e+06
273476
263394
263304
263304
263304
263304
263304
263304
263304
263304
263304
263304
263304
263304
263304
263304
263304
263304
263304
263304
263304
263399
273816
1.27337e+06
1.25087e+06
272955
263386
263304
263304
263304
263304
263304
263304
263304
263304
263304
263304
263304
263304
263304
263304
263304
263304
263304
263304
263304
263385
272891
1.24873e+06
1.23418e+06
272652
263382
263304
263304
263304
263304
263304
263304
263304
263304
263304
263304
263304
263304
263304
263304
263304
263304
263304
263304
263304
263378
272416
1.2324e+06
1.21389e+06
271887
263370
263304
263304
263304
263304
263304
263304
263304
263304
263304
263304
263304
263304
263304
263304
263304
263304
263304
263304
263304
263374
272167
1.21718e+06
1.20126e+06
271543
263366
263304
263304
263304
263304
263304
263304
263304
263304
263304
263304
263304
263304
263304
263304
263304
263304
263304
263304
263304
263365
271500
1.19982e+06
1.18968e+06
271374
263364
263304
263304
263304
263304
263304
263304
263304
263304
263304
263304
263304
263304
263304
263304
263304
263304
263304
263304
263304
263361
271172
1.18841e+06
1.1759e+06
270828
263356
263304
263304
263304
263304
263304
263304
263304
263304
263304
263304
263304
263304
263304
263304
263304
263304
263304
263304
263304
263359
271047
1.17801e+06
1.16728e+06
270596
263354
263304
263304
263304
263304
263304
263304
263304
263304
263304
263304
263304
263304
263304
263304
263304
263304
263304
263304
263304
263353
270576
1.16647e+06
1.15957e+06
270511
263353
263304
263304
263304
263304
263304
263304
263304
263304
263304
263304
263304
263304
263304
263304
263304
263304
263304
263304
263304
263351
270343
1.15874e+06
1.15076e+06
270119
263348
263304
263304
263304
263304
263304
263304
263304
263304
263304
263304
263304
263304
263304
263304
263304
263304
263304
263304
263304
263350
270277
1.15189e+06
1.1453e+06
269963
263346
263304
263304
263304
263304
263304
263304
263304
263304
263304
263304
263304
263304
263304
263304
263304
263304
263304
263304
263304
263346
269965
1.14495e+06
1.14056e+06
269933
263346
263304
263304
263304
263304
263304
263304
263304
263304
263304
263304
263304
263304
263304
263304
263304
263304
263304
263304
263304
263344
269796
1.14011e+06
1.13559e+06
269653
263343
263304
263304
263304
263304
263304
263304
263304
263304
263304
263304
263304
263304
263304
263304
263304
263304
263304
263304
263304
263344
269761
1.13607e+06
1.13258e+06
269550
263342
263304
263304
263304
263304
263304
263304
263304
263304
263304
263304
263304
263304
263304
263304
263304
263304
263304
263304
263304
263342
269584
1.13254e+06
1.13012e+06
269535
263342
263304
263304
263304
263304
263304
263304
263304
263304
263304
263304
263304
263304
263304
263304
263304
263304
263304
263304
263304
263341
269485
1.13003e+06
570958
264545
263340
263335
263335
263334
263334
263333
263333
263332
263332
263332
263331
263331
263330
263330
263330
263329
263329
263329
263328
263328
263328
263327
263327
263327
263326
263326
263709
502824
603347
264039
263308
263304
263304
263304
263304
263304
263304
263304
263304
263304
263304
263304
263304
263304
263304
263304
263304
263304
263304
263304
263304
263304
263304
263304
263304
263304
263721
507778
576719
263837
263306
263304
263304
263304
263304
263304
263304
263304
263304
263304
263304
263304
263304
263304
263304
263304
263304
263304
263304
263304
263304
263304
263304
263304
263304
263304
263735
512561
562274
263844
263306
263304
263304
263304
263304
263304
263304
263304
263304
263304
263304
263304
263304
263304
263304
263304
263304
263304
263304
263304
263304
263304
263304
263304
263304
263304
263745
516688
562873
263878
263306
263304
263304
263304
263304
263304
263304
263304
263304
263304
263304
263304
263304
263304
263304
263304
263304
263304
263304
263304
263304
263304
263304
263304
263304
263304
263757
520498
563966
263881
263306
263304
263304
263304
263304
263304
263304
263304
263304
263304
263304
263304
263304
263304
263304
263304
263304
263304
263304
263304
263304
263304
263304
263304
263304
263304
263768
524192
563733
263875
263305
263304
263304
263304
263304
263304
263304
263304
263304
263304
263304
263304
263304
263304
263304
263304
263304
263304
263304
263304
263304
263304
263304
263304
263304
263304
263779
527737
561998
263866
263305
263304
263304
263304
263304
263304
263304
263304
263304
263304
263304
263304
263304
263304
263304
263304
263304
263304
263304
263304
263304
263304
263304
263304
263304
263304
263790
531061
560248
263862
263305
263304
263304
263304
263304
263304
263304
263304
263304
263304
263304
263304
263304
263304
263304
263304
263304
263304
263304
263304
263304
263304
263304
263304
263304
263304
263799
534117
559082
263862
263305
263304
263304
263304
263304
263304
263304
263304
263304
263304
263304
263304
263304
263304
263304
263304
263304
263304
263304
263304
263304
263304
263304
263304
263304
263304
263808
536911
558582
263863
263305
263304
263304
263304
263304
263304
263304
263304
263304
263304
263304
263304
263304
263304
263304
263304
263304
263304
263304
263304
263304
263304
263304
263304
263304
263304
263816
539469
558503
263865
263305
263304
263304
263304
263304
263304
263304
263304
263304
263304
263304
263304
263304
263304
263304
263304
263304
263304
263304
263304
263304
263304
263304
263304
263304
263304
263823
541821
558530
263866
263305
263304
263304
263304
263304
263304
263304
263304
263304
263304
263304
263304
263304
263304
263304
263304
263304
263304
263304
263304
263304
263304
263304
263304
263304
263304
263830
543983
558738
263867
263305
263304
263304
263304
263304
263304
263304
263304
263304
263304
263304
263304
263304
263304
263304
263304
263304
263304
263304
263304
263304
263304
263304
263304
263304
263304
263837
545969
558593
263868
263305
263304
263304
263304
263304
263304
263304
263304
263304
263304
263304
263304
263304
263304
263304
263304
263304
263304
263304
263304
263304
263304
263304
263304
263304
263304
263843
547771
558780
263870
263305
263304
263304
263304
263304
263304
263304
263304
263304
263304
263304
263304
263304
263304
263304
263304
263304
263304
263304
263304
263304
263304
263304
263304
263304
263304
263848
549397
558817
263870
263305
263304
263304
263304
263304
263304
263304
263304
263304
263304
263304
263304
263304
263304
263304
263304
263304
263304
263304
263304
263304
263304
263304
263304
263304
263304
263853
550859
558734
263870
263305
263304
263304
263304
263304
263304
263304
263304
263304
263304
263304
263304
263304
263304
263304
263304
263304
263304
263304
263304
263304
263304
263304
263304
263304
263304
263857
552152
558798
263871
263305
263304
263304
263304
263304
263304
263304
263304
263304
263304
263304
263304
263304
263304
263304
263304
263304
263304
263304
263304
263304
263304
263304
263304
263304
263304
263861
553287
558685
263871
263305
263304
263304
263304
263304
263304
263304
263304
263304
263304
263304
263304
263304
263304
263304
263304
263304
263304
263304
263304
263304
263304
263304
263304
263304
263304
263864
554270
558550
263871
263305
263304
263304
263304
263304
263304
263304
263304
263304
263304
263304
263304
263304
263304
263304
263304
263304
263304
263304
263304
263304
263304
263304
263304
263304
263304
263866
555103
558457
263871
263305
263304
263304
263304
263304
263304
263304
263304
263304
263304
263304
263304
263304
263304
263304
263304
263304
263304
263304
263304
263304
263304
263304
263304
263304
263304
263868
555800
558180
263871
263305
263304
263304
263304
263304
263304
263304
263304
263304
263304
263304
263304
263304
263304
263304
263304
263304
263304
263304
263304
263304
263304
263304
263304
263304
263304
263870
556363
557935
263870
263305
263304
263304
263304
263304
263304
263304
263304
263304
263304
263304
263304
263304
263304
263304
263304
263304
263304
263304
263304
263304
263304
263304
263304
263304
263304
263871
556796
557680
263820
263304
263304
263304
263304
263304
263304
263304
263304
263304
263304
263304
263304
263304
263304
263304
263304
263304
263304
263304
263304
263304
263304
263304
263304
263304
263304
263872
557117
502827
263709
263326
263326
263327
263327
263327
263328
263328
263328
263329
263329
263329
263330
263330
263330
263331
263331
263332
263332
263332
263333
263333
263334
263334
263335
263335
263340
264546
571112
507781
263721
263304
263304
263304
263304
263304
263304
263304
263304
263304
263304
263304
263304
263304
263304
263304
263304
263304
263304
263304
263304
263304
263304
263304
263304
263304
263308
264038
603267
512568
263735
263304
263304
263304
263304
263304
263304
263304
263304
263304
263304
263304
263304
263304
263304
263304
263304
263304
263304
263304
263304
263304
263304
263304
263304
263304
263306
263837
576851
516691
263745
263304
263304
263304
263304
263304
263304
263304
263304
263304
263304
263304
263304
263304
263304
263304
263304
263304
263304
263304
263304
263304
263304
263304
263304
263304
263306
263843
562091
520496
263757
263304
263304
263304
263304
263304
263304
263304
263304
263304
263304
263304
263304
263304
263304
263304
263304
263304
263304
263304
263304
263304
263304
263304
263304
263304
263306
263878
562799
524195
263768
263304
263304
263304
263304
263304
263304
263304
263304
263304
263304
263304
263304
263304
263304
263304
263304
263304
263304
263304
263304
263304
263304
263304
263304
263304
263306
263881
564225
527736
263779
263304
263304
263304
263304
263304
263304
263304
263304
263304
263304
263304
263304
263304
263304
263304
263304
263304
263304
263304
263304
263304
263304
263304
263304
263304
263305
263874
563388
531058
263790
263304
263304
263304
263304
263304
263304
263304
263304
263304
263304
263304
263304
263304
263304
263304
263304
263304
263304
263304
263304
263304
263304
263304
263304
263304
263305
263868
562186
534118
263799
263304
263304
263304
263304
263304
263304
263304
263304
263304
263304
263304
263304
263304
263304
263304
263304
263304
263304
263304
263304
263304
263304
263304
263304
263304
263305
263862
560224
536908
263808
263304
263304
263304
263304
263304
263304
263304
263304
263304
263304
263304
263304
263304
263304
263304
263304
263304
263304
263304
263304
263304
263304
263304
263304
263304
263305
263862
559003
539471
263816
263304
263304
263304
263304
263304
263304
263304
263304
263304
263304
263304
263304
263304
263304
263304
263304
263304
263304
263304
263304
263304
263304
263304
263304
263304
263305
263864
558767
541823
263823
263304
263304
263304
263304
263304
263304
263304
263304
263304
263304
263304
263304
263304
263304
263304
263304
263304
263304
263304
263304
263304
263304
263304
263304
263304
263305
263864
558353
543981
263830
263304
263304
263304
263304
263304
263304
263304
263304
263304
263304
263304
263304
263304
263304
263304
263304
263304
263304
263304
263304
263304
263304
263304
263304
263304
263305
263867
558553
545968
263837
263304
263304
263304
263304
263304
263304
263304
263304
263304
263304
263304
263304
263304
263304
263304
263304
263304
263304
263304
263304
263304
263304
263304
263304
263304
263305
263867
558757
547772
263843
263304
263304
263304
263304
263304
263304
263304
263304
263304
263304
263304
263304
263304
263304
263304
263304
263304
263304
263304
263304
263304
263304
263304
263304
263304
263305
263868
558608
549396
263848
263304
263304
263304
263304
263304
263304
263304
263304
263304
263304
263304
263304
263304
263304
263304
263304
263304
263304
263304
263304
263304
263304
263304
263304
263304
263305
263869
558729
550858
263853
263304
263304
263304
263304
263304
263304
263304
263304
263304
263304
263304
263304
263304
263304
263304
263304
263304
263304
263304
263304
263304
263304
263304
263304
263304
263305
263870
558862
552154
263857
263304
263304
263304
263304
263304
263304
263304
263304
263304
263304
263304
263304
263304
263304
263304
263304
263304
263304
263304
263304
263304
263304
263304
263304
263304
263305
263870
558746
553285
263861
263304
263304
263304
263304
263304
263304
263304
263304
263304
263304
263304
263304
263304
263304
263304
263304
263304
263304
263304
263304
263304
263304
263304
263304
263304
263305
263871
558734
554269
263864
263304
263304
263304
263304
263304
263304
263304
263304
263304
263304
263304
263304
263304
263304
263304
263304
263304
263304
263304
263304
263304
263304
263304
263304
263304
263305
263871
558737
555106
263866
263304
263304
263304
263304
263304
263304
263304
263304
263304
263304
263304
263304
263304
263304
263304
263304
263304
263304
263304
263304
263304
263304
263304
263304
263304
263305
263871
558559
555798
263868
263304
263304
263304
263304
263304
263304
263304
263304
263304
263304
263304
263304
263304
263304
263304
263304
263304
263304
263304
263304
263304
263304
263304
263304
263304
263305
263871
558393
556361
263870
263304
263304
263304
263304
263304
263304
263304
263304
263304
263304
263304
263304
263304
263304
263304
263304
263304
263304
263304
263304
263304
263304
263304
263304
263304
263305
263871
558235
556798
263871
263304
263304
263304
263304
263304
263304
263304
263304
263304
263304
263304
263304
263304
263304
263304
263304
263304
263304
263304
263304
263304
263304
263304
263304
263304
263305
263870
557932
557117
263872
263304
263304
263304
263304
263304
263304
263304
263304
263304
263304
263304
263304
263304
263304
263304
263304
263304
263304
263304
263304
263304
263304
263304
263304
263304
263304
263820
557672
679700
678497
677298
676103
674913
673726
672544
671366
670192
669022
667856
666695
665537
664383
663234
662088
660946
659808
658674
657544
656418
655296
654177
653063
651952
650845
649741
648642
647546
646454
645365
644280
643199
642121
641047
639977
638910
637847
636787
635731
634678
633629
632583
631541
630502
629466
628434
627405
626380
625358
624339
623324
622312
621303
620298
619295
618296
617300
616308
615318
614332
613349
612369
611392
610418
609448
608480
607516
606554
605596
604640
603688
602739
601792
600849
599908
598971
598036
597105
596176
595250
594327
593407
592489
591575
590663
589754
588848
587945
587044
586146
585251
584359
583469
582583
581698
580817
579938
579062
578188
577317
576449
575583
574720
573860
573002
572146
571294
570443
569595
568750
567907
567067
566229
565394
564561
563731
562903
562077
561254
560434
559615
558799
557986
557175
264453
264443
264437
264430
264423
264416
264410
264403
264397
264390
264384
264377
264371
264364
264358
264352
264346
264340
264334
264327
264321
264316
264310
264304
264298
264292
264286
264281
264275
264269
264264
264258
264253
264247
264242
264236
264231
264226
264220
264215
264210
264205
264200
264194
264189
264184
264179
264174
264169
264164
264160
264155
264150
264145
264140
264136
264131
264126
264122
264117
264113
264108
264104
264099
264095
264090
264086
264082
264077
264073
264069
264064
264060
264056
264052
264048
264044
264040
264036
264032
264028
264024
264020
264016
264012
264008
264004
264000
263997
263993
263989
263985
263982
263978
263974
263971
263967
263964
263960
263957
263953
263950
263946
263943
263939
263936
263932
263929
263926
263922
263919
263916
263913
263909
263906
263903
263900
263897
263894
263890
263887
263884
263881
263878
263874
263306
263306
263306
263306
263306
263306
263306
263306
263306
263306
263306
263306
263306
263306
263306
263306
263306
263306
263306
263306
263306
263306
263306
263306
263306
263306
263306
263306
263306
263306
263305
263305
263305
263305
263305
263305
263305
263305
263305
263305
263305
263305
263305
263305
263305
263305
263305
263305
263305
263305
263305
263305
263305
263305
263305
263305
263305
263305
263305
263305
263305
263305
263305
263305
263305
263305
263305
263305
263305
263305
263305
263305
263305
263305
263305
263305
263305
263305
263305
263305
263305
263305
263305
263305
263305
263305
263305
263305
263305
263305
263305
263305
263305
263305
263305
263305
263305
263305
263305
263305
263305
263305
263305
263305
263305
263305
263305
263305
263305
263305
263305
263305
263305
263305
263305
263305
263305
263305
263305
263305
263304
263304
263304
263304
263304
263304
263304
263304
263304
263304
263304
263304
263304
263304
263304
263304
263304
263304
263304
263304
263304
263304
263304
263304
263304
263304
263304
263304
263304
263304
263304
263304
263304
263304
263304
263304
263304
263304
263304
263304
263304
263304
263304
263304
263304
263304
263304
263304
263304
263304
263304
263304
263304
263304
263304
263304
263304
263304
263304
263304
263304
263304
263304
263304
263304
263304
263304
263304
263304
263304
263304
263304
263304
263304
263304
263304
263304
263304
263304
263304
263304
263304
263304
263304
263304
263304
263304
263304
263304
263304
263304
263304
263304
263304
263304
263304
263304
263304
263304
263304
263304
263304
263304
263304
263304
263304
263304
263304
263304
263304
263304
263304
263304
263304
263304
263304
263304
263304
263304
263304
263304
263304
263304
263304
263304
263304
263304
263304
263304
263304
263304
263304
263304
263304
263304
263304
263304
263304
263304
263304
263304
263304
263304
263304
263304
263304
263304
263304
263304
263304
263304
263304
263304
263304
263304
263304
263304
263304
263304
263304
263304
263304
263304
263304
263304
263304
263304
263304
263304
263304
263304
263304
263304
263304
263304
263304
263304
263304
263304
263304
263304
263304
263304
263304
263304
263304
263304
263304
263304
263304
263304
263304
263304
263304
263304
263304
263304
263304
263304
263304
263304
263304
263304
263304
263304
263304
263304
263304
263304
263304
263304
263304
263304
263304
263304
263304
263304
263304
263304
263304
263304
263304
263304
263304
263304
263304
263304
263304
263304
263304
263304
263304
263304
263304
263304
263304
263304
263304
263304
263304
263304
263304
263304
263304
263304
263304
263304
263304
263304
263304
263304
263304
263304
263304
263304
263304
263304
263304
263304
263304
263304
263304
263304
263304
263304
263304
263304
263304
263304
263304
263304
263304
263304
263304
263304
263304
263304
263304
263304
263304
263304
263304
263304
263304
263304
263304
263304
263304
263304
263304
263304
263304
263304
263304
263304
263304
263304
263304
263304
263304
263304
263304
263304
263304
263304
263304
263304
263304
263304
263304
263304
263304
263304
263304
263304
263304
263304
263304
263304
263304
263304
263304
263304
263304
263304
263304
263304
263304
263304
263304
263304
263304
263304
263304
263304
263304
263304
263304
263304
263304
263304
263304
263304
263304
263304
263304
263304
263304
263304
263304
263304
263304
263304
263304
263304
263304
263304
263304
263304
263304
263304
263304
263304
263304
263304
263304
263304
263304
263304
263304
263304
263304
263304
263304
263304
263304
263304
263304
263304
263304
263304
263304
263304
263304
263304
263304
263304
263304
263304
263304
263304
263304
263304
263304
263304
263304
263304
263304
263304
263304
263304
263304
263304
263304
263304
263304
263304
263304
263304
263304
263304
263304
263304
263304
263304
263304
263304
263304
263304
263304
263304
263304
263304
263304
263304
263304
263304
263304
263304
263304
263304
263304
263304
263304
263304
263304
263304
263304
263304
263304
263304
263304
263304
263304
263304
263304
263304
263304
263304
263304
263304
263304
263304
263304
263304
263304
263304
263304
263304
263304
263304
263304
263304
263304
263304
263304
263304
263304
263304
263304
263304
263304
263304
263304
263304
263304
263304
263304
263304
263304
263304
263304
263304
263304
263304
263304
263304
263304
263304
263304
263304
263304
263304
263304
263304
263304
263304
263304
263304
263304
263304
263304
263304
263304
263304
263304
263304
263304
263304
263304
263304
263304
263304
263304
263304
263304
263304
263304
263304
263304
263304
263304
263304
263304
263304
263304
263304
263304
263304
263304
263304
263304
263304
263304
263304
263304
263304
263304
263304
263304
263304
263304
263304
263304
263304
263304
263304
263304
263304
263304
263304
263304
263304
263304
263304
263304
263304
263304
263304
263304
263304
263304
263304
263304
263304
263304
263304
263304
263304
263304
263304
263304
263304
263304
263304
263304
263304
263304
263304
263304
263304
263304
263304
263304
263304
263304
263304
263304
263304
263304
263304
263304
263304
263304
263304
263304
263304
263304
263304
263304
263304
263304
263304
263304
263304
263304
263304
263304
263304
263304
263304
263304
263304
263304
263304
263304
263304
263304
263304
263304
263304
263304
263304
263304
263304
263304
263304
263304
263304
263304
263304
263304
263304
263304
263304
263304
263304
263304
263304
263304
263304
263304
263304
263304
263304
263304
263304
263304
263304
263304
263304
263304
263304
263304
263304
263304
263304
263304
263304
263304
263304
263304
263304
263304
263304
263304
263304
263304
263304
263304
263304
263304
263304
263304
263304
263304
263304
263304
263304
263304
263304
263304
263304
263304
263304
263304
263304
263304
263304
263304
263304
263304
263304
263304
263304
263304
263304
263304
263304
263304
263304
263304
263304
263304
263304
263304
263304
263304
263304
263304
263304
263304
263304
263304
263304
263304
263304
263304
263304
263304
263304
263304
263304
263304
263304
263304
263304
263304
263304
263304
263304
263304
263304
263304
263304
263304
263304
263304
263304
263304
263304
263304
263304
263304
263304
263304
263304
263304
263304
263304
263304
263304
263304
263304
263304
263304
263304
263304
263304
263304
263304
263304
263304
263304
263304
263304
263304
263304
263304
263304
263304
263304
263304
263304
263304
263304
263304
263304
263304
263304
263304
263304
263304
263304
263304
263304
263304
263304
263304
263304
263304
263304
263304
263304
263304
263304
263304
263304
263304
263304
263304
263304
263304
263304
263304
263304
263304
263304
263304
263304
263304
263304
263304
263304
263304
263304
263304
263304
263304
263304
263304
263304
263304
263304
263304
263304
263304
263304
263304
263304
263304
263304
263304
263304
263304
263304
263304
263304
263304
263304
263304
263304
263304
263304
263304
263304
263304
263304
263304
263304
263304
263304
263304
263304
263304
263304
263304
263304
263304
263304
263304
263304
263304
263304
263304
263304
263304
263304
263304
263304
263304
263304
263304
263304
263304
263304
263304
263304
263304
263304
263304
263304
263304
263304
263304
263304
263304
263304
263304
263304
263304
263304
263304
263304
263304
263304
263304
263304
263304
263304
263304
263304