/*--------------------------------*- C++ -*----------------------------------*\
| =========                 |                                                 |
| \\      /  F ield         | OpenFOAM: The Open Source CFD Toolbox           |
|  \\    /   O peration     | Version:  2112                                  |
|   \\  /    A nd           | Website:  www.openfoam.com                      |
|    \\/     M anipulation  |                                                 |
\*---------------------------------------------------------------------------*/
FoamFile
{
    version     2.0;
    format      ascii;
    arch        "LSB;label=32;scalar=64";
    class       volScalarField;
    location    "2e-05";
    object      nut;
}
// * * * * * * * * * * * * * * * * * * * * * * * * * * * * * * * * * * * * * //

dimensions      [0 2 -1 0 0 0 0];

internalField   nonuniform List<scalar> 
13875
(
0.140977
4.27108
4.792
4.87342
4.88443
4.88563
4.88566
4.88556
4.88548
4.88538
4.88528
4.88518
4.88512
4.88512
4.88509
4.88506
4.88503
4.88504
4.88502
4.88491
4.8837
4.87289
4.792
4.27157
0.141911
0.102581
2.59003
2.80477
2.83564
2.83767
2.83776
2.83766
2.83759
2.83751
2.83745
2.83739
2.83734
2.83731
2.83733
2.83733
2.83733
2.83733
2.83736
2.8374
2.83745
2.83734
2.83536
2.80455
2.59029
0.103397
0.0817372
1.64111
1.74315
1.75465
1.755
1.75501
1.75498
1.75495
1.75493
1.75491
1.75489
1.75486
1.75485
1.75484
1.75483
1.75482
1.75481
1.7548
1.7548
1.7548
1.75477
1.75438
1.74282
1.64076
0.0816115
0.0659793
0.471713
0.492854
0.494044
0.494078
0.494086
0.494088
0.494087
0.494086
0.494087
0.494086
0.494082
0.494078
0.494071
0.494063
0.494059
0.494052
0.494044
0.494035
0.494026
0.494013
0.493963
0.492748
0.47157
0.0659438
0.0558747
0.316279
0.333133
0.333249
0.333247
0.333246
0.333247
0.333247
0.333247
0.333248
0.333248
0.333248
0.333249
0.333249
0.333249
0.333249
0.33325
0.33325
0.33325
0.333251
0.333252
0.333255
0.333138
0.316258
0.0558731
0.0554091
0.319425
0.338011
0.338228
0.33823
0.33823
0.33823
0.33823
0.33823
0.33823
0.33823
0.33823
0.33823
0.33823
0.33823
0.33823
0.33823
0.33823
0.33823
0.33823
0.33823
0.338228
0.338013
0.319545
0.0554083
0.0554162
0.319525
0.337988
0.338203
0.338204
0.338204
0.338204
0.338204
0.338204
0.338204
0.338204
0.338204
0.338204
0.338204
0.338204
0.338204
0.338204
0.338204
0.338204
0.338204
0.338204
0.338202
0.337979
0.319098
0.0553949
0.0555128
0.318968
0.337976
0.338202
0.338204
0.338204
0.338204
0.338204
0.338204
0.338204
0.338204
0.338204
0.338204
0.338204
0.338204
0.338204
0.338204
0.338204
0.338204
0.338204
0.338204
0.338202
0.337976
0.318944
0.0555279
0.0556404
0.317732
0.337952
0.338202
0.338204
0.338204
0.338204
0.338204
0.338204
0.338204
0.338204
0.338204
0.338204
0.338204
0.338204
0.338204
0.338204
0.338204
0.338204
0.338204
0.338204
0.338202
0.337956
0.317922
0.0556431
0.0514311
0.312007
0.337737
0.338198
0.338204
0.338204
0.338204
0.338204
0.338204
0.338204
0.338204
0.338204
0.338204
0.338204
0.338204
0.338204
0.338204
0.338204
0.338204
0.338204
0.338204
0.338198
0.337741
0.312117
0.0516229
0.0452126
0.304162
0.337334
0.33819
0.338203
0.338204
0.338204
0.338204
0.338204
0.338204
0.338204
0.338204
0.338204
0.338204
0.338204
0.338204
0.338204
0.338204
0.338204
0.338204
0.338203
0.338189
0.337274
0.302989
0.0446296
0.0408943
0.296638
0.336906
0.33818
0.338203
0.338204
0.338204
0.338204
0.338204
0.338204
0.338204
0.338204
0.338204
0.338204
0.338204
0.338204
0.338204
0.338204
0.338204
0.338204
0.338203
0.33818
0.336913
0.296838
0.040812
0.0376652
0.289093
0.336448
0.338168
0.338203
0.338204
0.338204
0.338204
0.338204
0.338204
0.338204
0.338204
0.338204
0.338204
0.338204
0.338204
0.338204
0.338204
0.338204
0.338204
0.338203
0.33817
0.336522
0.290299
0.0378502
0.03538
0.282898
0.336071
0.338157
0.338203
0.338204
0.338204
0.338204
0.338204
0.338204
0.338204
0.338204
0.338204
0.338204
0.338204
0.338204
0.338204
0.338204
0.338204
0.338204
0.338203
0.338162
0.336262
0.285135
0.0362725
0.0342401
0.277934
0.335827
0.338149
0.338203
0.338204
0.338204
0.338204
0.338204
0.338204
0.338204
0.338204
0.338204
0.338204
0.338204
0.338204
0.338204
0.338204
0.338204
0.338204
0.338203
0.338139
0.335555
0.274712
0.0336573
0.0315493
0.26783
0.335013
0.338121
0.338202
0.338204
0.338204
0.338204
0.338204
0.338204
0.338204
0.338204
0.338204
0.338204
0.338204
0.338204
0.338204
0.338204
0.338204
0.338204
0.338202
0.338112
0.334783
0.265802
0.0309683
0.0314228
0.26833
0.335328
0.338133
0.338202
0.338204
0.338204
0.338204
0.338204
0.338204
0.338204
0.338204
0.338204
0.338204
0.338204
0.338204
0.338204
0.338204
0.338204
0.338204
0.338202
0.338136
0.335416
0.269395
0.031483
0.0316181
0.270453
0.335663
0.338145
0.338203
0.338204
0.338204
0.338204
0.338204
0.338204
0.338204
0.338204
0.338204
0.338204
0.338204
0.338204
0.338204
0.338204
0.338204
0.338204
0.338203
0.338145
0.335661
0.270291
0.0316905
0.0305759
0.25729
0.334419
0.338101
0.338201
0.338204
0.338204
0.338204
0.338204
0.338204
0.338204
0.338204
0.338204
0.338204
0.338204
0.338204
0.338204
0.338204
0.338204
0.338204
0.338202
0.338115
0.334776
0.260646
0.0310531
0.0299911
0.247051
0.332982
0.338038
0.3382
0.338204
0.338204
0.338204
0.338204
0.338204
0.338204
0.338204
0.338204
0.338204
0.338204
0.338204
0.338204
0.338204
0.338204
0.338204
0.338199
0.338031
0.332829
0.245936
0.0296579
0.0332819
0.25995
0.3344
0.338097
0.338201
0.338204
0.338204
0.338204
0.338204
0.338204
0.338204
0.338204
0.338204
0.338204
0.338204
0.338204
0.338204
0.338204
0.338204
0.338204
0.338201
0.338082
0.334036
0.256613
0.0326821
0.0367368
0.273622
0.335653
0.338143
0.338203
0.338204
0.338204
0.338204
0.338204
0.338204
0.338204
0.338204
0.338204
0.338204
0.338204
0.338204
0.338204
0.338204
0.338204
0.338204
0.338202
0.33814
0.335562
0.2726
0.0366482
0.0402127
0.284995
0.336489
0.33817
0.338203
0.338204
0.338204
0.338204
0.338204
0.338204
0.338204
0.338204
0.338204
0.338204
0.338204
0.338204
0.338204
0.338204
0.338204
0.338204
0.338203
0.338172
0.336579
0.286414
0.0405972
0.0436776
0.295072
0.337076
0.338185
0.338203
0.338204
0.338204
0.338204
0.338204
0.338204
0.338204
0.338204
0.338204
0.338204
0.338204
0.338204
0.338204
0.338204
0.338204
0.338204
0.338203
0.338185
0.337068
0.294906
0.043556
0.0459059
0.300091
0.337308
0.33819
0.338203
0.338204
0.338204
0.338204
0.338204
0.338204
0.338204
0.338204
0.338204
0.338204
0.338204
0.338204
0.338204
0.338204
0.338204
0.338204
0.338203
0.33819
0.337291
0.299704
0.0458296
0.0484048
0.304525
0.337495
0.338194
0.338204
0.338204
0.338204
0.338204
0.338204
0.338204
0.338204
0.338204
0.338204
0.338204
0.338204
0.338204
0.338204
0.338204
0.338204
0.338204
0.338204
0.338195
0.337524
0.305249
0.0486523
0.051063
0.309176
0.337666
0.338197
0.338204
0.338204
0.338204
0.338204
0.338204
0.338204
0.338204
0.338204
0.338204
0.338204
0.338204
0.338204
0.338204
0.338204
0.338204
0.338204
0.338204
0.338197
0.337638
0.308416
0.0507058
0.0530393
0.311862
0.337752
0.338199
0.338204
0.338204
0.338204
0.338204
0.338204
0.338204
0.338204
0.338204
0.338204
0.338204
0.338204
0.338204
0.338204
0.338204
0.338204
0.338204
0.338204
0.338199
0.337751
0.31182
0.0531521
0.0552211
0.314286
0.337826
0.3382
0.338204
0.338204
0.338204
0.338204
0.338204
0.338204
0.338204
0.338204
0.338204
0.338204
0.338204
0.338204
0.338204
0.338204
0.338204
0.338204
0.338204
0.3382
0.337854
0.315219
0.0556058
0.0578425
0.31771
0.337922
0.338201
0.338204
0.338204
0.338204
0.338204
0.338204
0.338204
0.338204
0.338204
0.338204
0.338204
0.338204
0.338204
0.338204
0.338204
0.338204
0.338204
0.338204
0.338201
0.337899
0.316876
0.0573421
0.0594417
0.319313
0.33796
0.338202
0.338204
0.338204
0.338204
0.338204
0.338204
0.338204
0.338204
0.338204
0.338204
0.338204
0.338204
0.338204
0.338204
0.338204
0.338204
0.338204
0.338204
0.338202
0.337963
0.319396
0.0596323
0.0610597
0.320474
0.337987
0.338202
0.338204
0.338204
0.338204
0.338204
0.338204
0.338204
0.338204
0.338204
0.338204
0.338204
0.338204
0.338204
0.338204
0.338204
0.338204
0.338204
0.338204
0.338202
0.337999
0.321007
0.0612982
0.06312
0.322514
0.338032
0.338202
0.338204
0.338204
0.338204
0.338204
0.338204
0.338204
0.338204
0.338204
0.338204
0.338204
0.338204
0.338204
0.338204
0.338204
0.338204
0.338204
0.338204
0.338202
0.338022
0.32206
0.0628235
0.0643927
0.323486
0.33805
0.338203
0.338204
0.338204
0.338204
0.338204
0.338204
0.338204
0.338204
0.338204
0.338204
0.338204
0.338204
0.338204
0.338204
0.338204
0.338204
0.338204
0.338204
0.338203
0.338053
0.323618
0.0645679
0.0656341
0.324102
0.338061
0.338203
0.338204
0.338204
0.338204
0.338204
0.338204
0.338204
0.338204
0.338204
0.338204
0.338204
0.338204
0.338204
0.338204
0.338204
0.338204
0.338204
0.338204
0.338203
0.338068
0.324461
0.0657813
0.0672643
0.325447
0.338086
0.338203
0.338204
0.338204
0.338204
0.338204
0.338204
0.338204
0.338204
0.338204
0.338204
0.338204
0.338204
0.338204
0.338204
0.338204
0.338204
0.338204
0.338204
0.338203
0.338078
0.325033
0.0669897
0.0682819
0.326077
0.338096
0.338203
0.338204
0.338204
0.338204
0.338204
0.338204
0.338204
0.338204
0.338204
0.338204
0.338204
0.338204
0.338204
0.338204
0.338204
0.338204
0.338204
0.338204
0.338203
0.338098
0.326156
0.068415
0.0692571
0.326444
0.338102
0.338203
0.338204
0.338204
0.338204
0.338204
0.338204
0.338204
0.338204
0.338204
0.338204
0.338204
0.338204
0.338204
0.338204
0.338204
0.338204
0.338204
0.338204
0.338203
0.338106
0.326733
0.0693713
0.0705059
0.327379
0.338117
0.338203
0.338204
0.338204
0.338204
0.338204
0.338204
0.338204
0.338204
0.338204
0.338204
0.338204
0.338204
0.338204
0.338204
0.338204
0.338204
0.338204
0.338204
0.338203
0.338111
0.327037
0.0702864
0.071287
0.3278
0.338123
0.338203
0.338204
0.338204
0.338204
0.338204
0.338204
0.338204
0.338204
0.338204
0.338204
0.338204
0.338204
0.338204
0.338204
0.338204
0.338204
0.338204
0.338204
0.338203
0.338124
0.327854
0.0713862
0.0720176
0.328008
0.338125
0.338203
0.338204
0.338204
0.338204
0.338204
0.338204
0.338204
0.338204
0.338204
0.338204
0.338204
0.338204
0.338204
0.338204
0.338204
0.338204
0.338204
0.338204
0.338203
0.338129
0.328256
0.0721078
0.0729324
0.328681
0.338135
0.338203
0.338204
0.338204
0.338204
0.338204
0.338204
0.338204
0.338204
0.338204
0.338204
0.338204
0.338204
0.338204
0.338204
0.338204
0.338204
0.338204
0.338204
0.338203
0.338131
0.32841
0.0727769
0.0734983
0.328967
0.338139
0.338203
0.338204
0.338204
0.338204
0.338204
0.338204
0.338204
0.338204
0.338204
0.338204
0.338204
0.338204
0.338204
0.338204
0.338204
0.338204
0.338204
0.338204
0.338203
0.338139
0.328993
0.0735604
0.0740123
0.329071
0.33814
0.338203
0.338204
0.338204
0.338204
0.338204
0.338204
0.338204
0.338204
0.338204
0.338204
0.338204
0.338204
0.338204
0.338204
0.338204
0.338204
0.338204
0.338204
0.338203
0.338142
0.32928
0.0740769
0.0746315
0.329558
0.338146
0.338203
0.338204
0.338204
0.338204
0.338204
0.338204
0.338204
0.338204
0.338204
0.338204
0.338204
0.338204
0.338204
0.338204
0.338204
0.338204
0.338204
0.338204
0.338203
0.338144
0.329361
0.0745396
0.0750055
0.329751
0.338148
0.338203
0.338204
0.338204
0.338204
0.338204
0.338204
0.338204
0.338204
0.338204
0.338204
0.338204
0.338204
0.338204
0.338204
0.338204
0.338204
0.338204
0.338204
0.338203
0.338148
0.32975
0.075035
0.0753327
0.329788
0.338149
0.338203
0.338204
0.338204
0.338204
0.338204
0.338204
0.338204
0.338204
0.338204
0.338204
0.338204
0.338204
0.338204
0.338204
0.338204
0.338204
0.338204
0.338204
0.338203
0.338151
0.329959
0.0753725
0.0756997
0.330138
0.338153
0.338203
0.338204
0.338204
0.338204
0.338204
0.338204
0.338204
0.338204
0.338204
0.338204
0.338204
0.338204
0.338204
0.338204
0.338204
0.338204
0.338204
0.338204
0.338203
0.338151
0.330003
0.0756534
0.0759119
0.330265
0.338154
0.338203
0.338204
0.338204
0.338204
0.338204
0.338204
0.338204
0.338204
0.338204
0.338204
0.338204
0.338204
0.338204
0.338204
0.338204
0.338204
0.338204
0.338204
0.338203
0.338154
0.330223
0.0759149
0.0760937
0.330283
0.338154
0.338203
0.338204
0.338204
0.338204
0.338204
0.338204
0.338204
0.338204
0.338204
0.338204
0.338204
0.338204
0.338204
0.338204
0.338204
0.338204
0.338204
0.338204
0.338203
0.338155
0.330345
0.0761041
0.154586
0.336664
0.338208
0.338214
0.338213
0.338213
0.338213
0.338213
0.338213
0.338212
0.338212
0.338212
0.338212
0.338212
0.338212
0.338212
0.338211
0.338211
0.338211
0.338211
0.338211
0.338211
0.338211
0.338211
0.338211
0.33821
0.33821
0.33821
0.337712
0.175489
0.146136
0.337264
0.338199
0.338204
0.338204
0.338204
0.338204
0.338204
0.338204
0.338204
0.338204
0.338204
0.338204
0.338204
0.338204
0.338204
0.338204
0.338204
0.338204
0.338204
0.338204
0.338204
0.338204
0.338204
0.338204
0.338204
0.338204
0.338203
0.337662
0.173709
0.152948
0.33752
0.338201
0.338204
0.338204
0.338204
0.338204
0.338204
0.338204
0.338204
0.338204
0.338204
0.338204
0.338204
0.338204
0.338204
0.338204
0.338204
0.338204
0.338204
0.338204
0.338204
0.338204
0.338204
0.338204
0.338204
0.338204
0.338203
0.337644
0.172055
0.156892
0.337509
0.338201
0.338204
0.338204
0.338204
0.338204
0.338204
0.338204
0.338204
0.338204
0.338204
0.338204
0.338204
0.338204
0.338204
0.338204
0.338204
0.338204
0.338204
0.338204
0.338204
0.338204
0.338204
0.338204
0.338204
0.338204
0.338203
0.33763
0.170652
0.156704
0.337465
0.338201
0.338204
0.338204
0.338204
0.338204
0.338204
0.338204
0.338204
0.338204
0.338204
0.338204
0.338204
0.338204
0.338204
0.338204
0.338204
0.338204
0.338204
0.338204
0.338204
0.338204
0.338204
0.338204
0.338204
0.338204
0.338203
0.337616
0.169377
0.15638
0.337461
0.338201
0.338204
0.338204
0.338204
0.338204
0.338204
0.338204
0.338204
0.338204
0.338204
0.338204
0.338204
0.338204
0.338204
0.338204
0.338204
0.338204
0.338204
0.338204
0.338204
0.338204
0.338204
0.338204
0.338204
0.338204
0.338203
0.337601
0.168159
0.156426
0.337468
0.338202
0.338204
0.338204
0.338204
0.338204
0.338204
0.338204
0.338204
0.338204
0.338204
0.338204
0.338204
0.338204
0.338204
0.338204
0.338204
0.338204
0.338204
0.338204
0.338204
0.338204
0.338204
0.338204
0.338204
0.338204
0.338203
0.337586
0.167005
0.156892
0.337478
0.338202
0.338204
0.338204
0.338204
0.338204
0.338204
0.338204
0.338204
0.338204
0.338204
0.338204
0.338204
0.338204
0.338204
0.338204
0.338204
0.338204
0.338204
0.338204
0.338204
0.338204
0.338204
0.338204
0.338204
0.338204
0.338203
0.337573
0.165938
0.157365
0.337483
0.338202
0.338204
0.338204
0.338204
0.338204
0.338204
0.338204
0.338204
0.338204
0.338204
0.338204
0.338204
0.338204
0.338204
0.338204
0.338204
0.338204
0.338204
0.338204
0.338204
0.338204
0.338204
0.338204
0.338204
0.338204
0.338203
0.33756
0.164968
0.157676
0.337483
0.338202
0.338204
0.338204
0.338204
0.338204
0.338204
0.338204
0.338204
0.338204
0.338204
0.338204
0.338204
0.338204
0.338204
0.338204
0.338204
0.338204
0.338204
0.338204
0.338204
0.338204
0.338204
0.338204
0.338204
0.338204
0.338203
0.337549
0.164092
0.157799
0.337481
0.338202
0.338204
0.338204
0.338204
0.338204
0.338204
0.338204
0.338204
0.338204
0.338204
0.338204
0.338204
0.338204
0.338204
0.338204
0.338204
0.338204
0.338204
0.338204
0.338204
0.338204
0.338204
0.338204
0.338204
0.338204
0.338203
0.337539
0.163297
0.157803
0.337478
0.338202
0.338204
0.338204
0.338204
0.338204
0.338204
0.338204
0.338204
0.338204
0.338204
0.338204
0.338204
0.338204
0.338204
0.338204
0.338204
0.338204
0.338204
0.338204
0.338204
0.338204
0.338204
0.338204
0.338204
0.338204
0.338203
0.337529
0.162573
0.157778
0.337476
0.338202
0.338204
0.338204
0.338204
0.338204
0.338204
0.338204
0.338204
0.338204
0.338204
0.338204
0.338204
0.338204
0.338204
0.338204
0.338204
0.338204
0.338204
0.338204
0.338204
0.338204
0.338204
0.338204
0.338204
0.338204
0.338203
0.33752
0.161912
0.157703
0.337474
0.338202
0.338204
0.338204
0.338204
0.338204
0.338204
0.338204
0.338204
0.338204
0.338204
0.338204
0.338204
0.338204
0.338204
0.338204
0.338204
0.338204
0.338204
0.338204
0.338204
0.338204
0.338204
0.338204
0.338204
0.338204
0.338203
0.337511
0.161311
0.157727
0.337474
0.338202
0.338204
0.338204
0.338204
0.338204
0.338204
0.338204
0.338204
0.338204
0.338204
0.338204
0.338204
0.338204
0.338204
0.338204
0.338204
0.338204
0.338204
0.338204
0.338204
0.338204
0.338204
0.338204
0.338204
0.338204
0.338203
0.337504
0.160768
0.157659
0.337471
0.338202
0.338204
0.338204
0.338204
0.338204
0.338204
0.338204
0.338204
0.338204
0.338204
0.338204
0.338204
0.338204
0.338204
0.338204
0.338204
0.338204
0.338204
0.338204
0.338204
0.338204
0.338204
0.338204
0.338204
0.338204
0.338203
0.337497
0.160282
0.157634
0.337471
0.338202
0.338204
0.338204
0.338204
0.338204
0.338204
0.338204
0.338204
0.338204
0.338204
0.338204
0.338204
0.338204
0.338204
0.338204
0.338204
0.338204
0.338204
0.338204
0.338204
0.338204
0.338204
0.338204
0.338204
0.338204
0.338203
0.337491
0.159847
0.157644
0.33747
0.338202
0.338204
0.338204
0.338204
0.338204
0.338204
0.338204
0.338204
0.338204
0.338204
0.338204
0.338204
0.338204
0.338204
0.338204
0.338204
0.338204
0.338204
0.338204
0.338204
0.338204
0.338204
0.338204
0.338204
0.338204
0.338203
0.337486
0.159465
0.157613
0.337468
0.338203
0.338204
0.338204
0.338204
0.338204
0.338204
0.338204
0.338204
0.338204
0.338204
0.338204
0.338204
0.338204
0.338204
0.338204
0.338204
0.338204
0.338204
0.338204
0.338204
0.338204
0.338204
0.338204
0.338204
0.338204
0.338203
0.337481
0.159131
0.157633
0.337468
0.338203
0.338204
0.338204
0.338204
0.338204
0.338204
0.338204
0.338204
0.338204
0.338204
0.338204
0.338204
0.338204
0.338204
0.338204
0.338204
0.338204
0.338204
0.338204
0.338204
0.338204
0.338204
0.338204
0.338204
0.338204
0.338203
0.337477
0.158842
0.15766
0.337468
0.338203
0.338204
0.338204
0.338204
0.338204
0.338204
0.338204
0.338204
0.338204
0.338204
0.338204
0.338204
0.338204
0.338204
0.338204
0.338204
0.338204
0.338204
0.338204
0.338204
0.338204
0.338204
0.338204
0.338204
0.338204
0.338203
0.337474
0.158598
0.157676
0.337468
0.338203
0.338204
0.338204
0.338204
0.338204
0.338204
0.338204
0.338204
0.338204
0.338204
0.338204
0.338204
0.338204
0.338204
0.338204
0.338204
0.338204
0.338204
0.338204
0.338204
0.338204
0.338204
0.338204
0.338204
0.338204
0.338203
0.337471
0.158395
0.157745
0.337468
0.338203
0.338204
0.338204
0.338204
0.338204
0.338204
0.338204
0.338204
0.338204
0.338204
0.338204
0.338204
0.338204
0.338204
0.338204
0.338204
0.338204
0.338204
0.338204
0.338204
0.338204
0.338204
0.338204
0.338204
0.338204
0.338203
0.337469
0.158231
0.157806
0.337468
0.338203
0.338204
0.338204
0.338204
0.338204
0.338204
0.338204
0.338204
0.338204
0.338204
0.338204
0.338204
0.338204
0.338204
0.338204
0.338204
0.338204
0.338204
0.338204
0.338204
0.338204
0.338204
0.338204
0.338204
0.338204
0.338203
0.337467
0.158105
0.157875
0.337533
0.338203
0.338204
0.338204
0.338204
0.338204
0.338204
0.338204
0.338204
0.338204
0.338204
0.338204
0.338204
0.338204
0.338204
0.338204
0.338204
0.338204
0.338204
0.338204
0.338204
0.338204
0.338204
0.338204
0.338204
0.338204
0.338203
0.337466
0.158012
0.175488
0.337712
0.33821
0.33821
0.33821
0.338211
0.338211
0.338211
0.338211
0.338211
0.338211
0.338211
0.338211
0.338211
0.338212
0.338212
0.338212
0.338212
0.338212
0.338212
0.338212
0.338213
0.338213
0.338213
0.338213
0.338213
0.338214
0.338208
0.336662
0.154544
0.173708
0.337662
0.338203
0.338204
0.338204
0.338204
0.338204
0.338204
0.338204
0.338204
0.338204
0.338204
0.338204
0.338204
0.338204
0.338204
0.338204
0.338204
0.338204
0.338204
0.338204
0.338204
0.338204
0.338204
0.338204
0.338204
0.338204
0.338199
0.337265
0.146156
0.172052
0.337644
0.338203
0.338204
0.338204
0.338204
0.338204
0.338204
0.338204
0.338204
0.338204
0.338204
0.338204
0.338204
0.338204
0.338204
0.338204
0.338204
0.338204
0.338204
0.338204
0.338204
0.338204
0.338204
0.338204
0.338204
0.338204
0.338201
0.33752
0.152913
0.170651
0.33763
0.338203
0.338204
0.338204
0.338204
0.338204
0.338204
0.338204
0.338204
0.338204
0.338204
0.338204
0.338204
0.338204
0.338204
0.338204
0.338204
0.338204
0.338204
0.338204
0.338204
0.338204
0.338204
0.338204
0.338204
0.338204
0.338201
0.33751
0.156943
0.169378
0.337616
0.338203
0.338204
0.338204
0.338204
0.338204
0.338204
0.338204
0.338204
0.338204
0.338204
0.338204
0.338204
0.338204
0.338204
0.338204
0.338204
0.338204
0.338204
0.338204
0.338204
0.338204
0.338204
0.338204
0.338204
0.338204
0.338201
0.337464
0.156725
0.168158
0.337601
0.338203
0.338204
0.338204
0.338204
0.338204
0.338204
0.338204
0.338204
0.338204
0.338204
0.338204
0.338204
0.338204
0.338204
0.338204
0.338204
0.338204
0.338204
0.338204
0.338204
0.338204
0.338204
0.338204
0.338204
0.338204
0.338201
0.33746
0.156307
0.167006
0.337586
0.338203
0.338204
0.338204
0.338204
0.338204
0.338204
0.338204
0.338204
0.338204
0.338204
0.338204
0.338204
0.338204
0.338204
0.338204
0.338204
0.338204
0.338204
0.338204
0.338204
0.338204
0.338204
0.338204
0.338204
0.338204
0.338202
0.33747
0.156522
0.165939
0.337573
0.338203
0.338204
0.338204
0.338204
0.338204
0.338204
0.338204
0.338204
0.338204
0.338204
0.338204
0.338204
0.338204
0.338204
0.338204
0.338204
0.338204
0.338204
0.338204
0.338204
0.338204
0.338204
0.338204
0.338204
0.338204
0.338202
0.337477
0.156839
0.164968
0.33756
0.338203
0.338204
0.338204
0.338204
0.338204
0.338204
0.338204
0.338204
0.338204
0.338204
0.338204
0.338204
0.338204
0.338204
0.338204
0.338204
0.338204
0.338204
0.338204
0.338204
0.338204
0.338204
0.338204
0.338204
0.338204
0.338202
0.337484
0.157372
0.164093
0.337549
0.338203
0.338204
0.338204
0.338204
0.338204
0.338204
0.338204
0.338204
0.338204
0.338204
0.338204
0.338204
0.338204
0.338204
0.338204
0.338204
0.338204
0.338204
0.338204
0.338204
0.338204
0.338204
0.338204
0.338204
0.338204
0.338202
0.337483
0.157698
0.163296
0.337539
0.338203
0.338204
0.338204
0.338204
0.338204
0.338204
0.338204
0.338204
0.338204
0.338204
0.338204
0.338204
0.338204
0.338204
0.338204
0.338204
0.338204
0.338204
0.338204
0.338204
0.338204
0.338204
0.338204
0.338204
0.338204
0.338202
0.33748
0.157746
0.162572
0.337529
0.338203
0.338204
0.338204
0.338204
0.338204
0.338204
0.338204
0.338204
0.338204
0.338204
0.338204
0.338204
0.338204
0.338204
0.338204
0.338204
0.338204
0.338204
0.338204
0.338204
0.338204
0.338204
0.338204
0.338204
0.338204
0.338202
0.337479
0.157845
0.161913
0.33752
0.338203
0.338204
0.338204
0.338204
0.338204
0.338204
0.338204
0.338204
0.338204
0.338204
0.338204
0.338204
0.338204
0.338204
0.338204
0.338204
0.338204
0.338204
0.338204
0.338204
0.338204
0.338204
0.338204
0.338204
0.338204
0.338202
0.337475
0.157772
0.161311
0.337511
0.338203
0.338204
0.338204
0.338204
0.338204
0.338204
0.338204
0.338204
0.338204
0.338204
0.338204
0.338204
0.338204
0.338204
0.338204
0.338204
0.338204
0.338204
0.338204
0.338204
0.338204
0.338204
0.338204
0.338204
0.338204
0.338202
0.337474
0.157697
0.160768
0.337504
0.338203
0.338204
0.338204
0.338204
0.338204
0.338204
0.338204
0.338204
0.338204
0.338204
0.338204
0.338204
0.338204
0.338204
0.338204
0.338204
0.338204
0.338204
0.338204
0.338204
0.338204
0.338204
0.338204
0.338204
0.338204
0.338202
0.337474
0.157723
0.160283
0.337497
0.338203
0.338204
0.338204
0.338204
0.338204
0.338204
0.338204
0.338204
0.338204
0.338204
0.338204
0.338204
0.338204
0.338204
0.338204
0.338204
0.338204
0.338204
0.338204
0.338204
0.338204
0.338204
0.338204
0.338204
0.338204
0.338202
0.337471
0.157674
0.159848
0.337491
0.338203
0.338204
0.338204
0.338204
0.338204
0.338204
0.338204
0.338204
0.338204
0.338204
0.338204
0.338204
0.338204
0.338204
0.338204
0.338204
0.338204
0.338204
0.338204
0.338204
0.338204
0.338204
0.338204
0.338204
0.338204
0.338202
0.33747
0.157622
0.159464
0.337486
0.338203
0.338204
0.338204
0.338204
0.338204
0.338204
0.338204
0.338204
0.338204
0.338204
0.338204
0.338204
0.338204
0.338204
0.338204
0.338204
0.338204
0.338204
0.338204
0.338204
0.338204
0.338204
0.338204
0.338204
0.338204
0.338202
0.33747
0.15764
0.159131
0.337481
0.338203
0.338204
0.338204
0.338204
0.338204
0.338204
0.338204
0.338204
0.338204
0.338204
0.338204
0.338204
0.338204
0.338204
0.338204
0.338204
0.338204
0.338204
0.338204
0.338204
0.338204
0.338204
0.338204
0.338204
0.338204
0.338203
0.337468
0.157631
0.158842
0.337477
0.338203
0.338204
0.338204
0.338204
0.338204
0.338204
0.338204
0.338204
0.338204
0.338204
0.338204
0.338204
0.338204
0.338204
0.338204
0.338204
0.338204
0.338204
0.338204
0.338204
0.338204
0.338204
0.338204
0.338204
0.338204
0.338203
0.337468
0.157618
0.158598
0.337474
0.338203
0.338204
0.338204
0.338204
0.338204
0.338204
0.338204
0.338204
0.338204
0.338204
0.338204
0.338204
0.338204
0.338204
0.338204
0.338204
0.338204
0.338204
0.338204
0.338204
0.338204
0.338204
0.338204
0.338204
0.338204
0.338203
0.337468
0.157657
0.158396
0.337471
0.338203
0.338204
0.338204
0.338204
0.338204
0.338204
0.338204
0.338204
0.338204
0.338204
0.338204
0.338204
0.338204
0.338204
0.338204
0.338204
0.338204
0.338204
0.338204
0.338204
0.338204
0.338204
0.338204
0.338204
0.338204
0.338203
0.337468
0.157694
0.158232
0.337469
0.338203
0.338204
0.338204
0.338204
0.338204
0.338204
0.338204
0.338204
0.338204
0.338204
0.338204
0.338204
0.338204
0.338204
0.338204
0.338204
0.338204
0.338204
0.338204
0.338204
0.338204
0.338204
0.338204
0.338204
0.338204
0.338203
0.337468
0.15773
0.158105
0.337467
0.338203
0.338204
0.338204
0.338204
0.338204
0.338204
0.338204
0.338204
0.338204
0.338204
0.338204
0.338204
0.338204
0.338204
0.338204
0.338204
0.338204
0.338204
0.338204
0.338204
0.338204
0.338204
0.338204
0.338204
0.338204
0.338203
0.337469
0.157806
0.158012
0.337466
0.338203
0.338204
0.338204
0.338204
0.338204
0.338204
0.338204
0.338204
0.338204
0.338204
0.338204
0.338204
0.338204
0.338204
0.338204
0.338204
0.338204
0.338204
0.338204
0.338204
0.338204
0.338204
0.338204
0.338204
0.338204
0.338203
0.337533
0.157877
0.128879
0.129114
0.129349
0.129583
0.129818
0.130053
0.130288
0.130523
0.130757
0.130992
0.131227
0.131462
0.131697
0.131932
0.132166
0.132401
0.132636
0.132871
0.133106
0.13334
0.133575
0.13381
0.134045
0.13428
0.134514
0.134749
0.134984
0.135219
0.135454
0.135688
0.135923
0.136158
0.136393
0.136628
0.136862
0.137097
0.137332
0.137567
0.137802
0.138037
0.138271
0.138506
0.138741
0.138976
0.139211
0.139445
0.13968
0.139915
0.14015
0.140385
0.140619
0.140854
0.141089
0.141324
0.141559
0.141794
0.142028
0.142263
0.142498
0.142733
0.142968
0.143202
0.143437
0.143672
0.143907
0.144142
0.144376
0.144611
0.144846
0.145081
0.145316
0.14555
0.145785
0.14602
0.146255
0.14649
0.146725
0.146959
0.147194
0.147429
0.147664
0.147899
0.148133
0.148368
0.148603
0.148838
0.149073
0.149307
0.149542
0.149777
0.150012
0.150247
0.150482
0.150716
0.150951
0.151186
0.151421
0.151656
0.15189
0.152125
0.15236
0.152595
0.15283
0.153064
0.153299
0.153534
0.153769
0.154004
0.154239
0.154473
0.154708
0.154943
0.155178
0.155413
0.155647
0.155882
0.156117
0.156352
0.156587
0.156821
0.157056
0.157291
0.157526
0.157761
0.157996
0.336715
0.336728
0.336737
0.336745
0.336754
0.336763
0.336771
0.33678
0.336788
0.336797
0.336805
0.336813
0.336821
0.33683
0.336838
0.336846
0.336854
0.336862
0.336869
0.336877
0.336885
0.336893
0.3369
0.336908
0.336915
0.336923
0.33693
0.336938
0.336945
0.336952
0.33696
0.336967
0.336974
0.336981
0.336988
0.336995
0.337002
0.337009
0.337016
0.337022
0.337029
0.337036
0.337042
0.337049
0.337056
0.337062
0.337069
0.337075
0.337081
0.337088
0.337094
0.3371
0.337107
0.337113
0.337119
0.337125
0.337131
0.337137
0.337143
0.337149
0.337155
0.337161
0.337166
0.337172
0.337178
0.337184
0.337189
0.337195
0.3372
0.337206
0.337212
0.337217
0.337222
0.337228
0.337233
0.337239
0.337244
0.337249
0.337254
0.33726
0.337265
0.33727
0.337275
0.33728
0.337285
0.33729
0.337295
0.3373
0.337305
0.33731
0.337314
0.337319
0.337324
0.337329
0.337334
0.337338
0.337343
0.337347
0.337352
0.337357
0.337361
0.337366
0.33737
0.337375
0.337379
0.337383
0.337388
0.337392
0.337397
0.337401
0.337405
0.337409
0.337414
0.337418
0.337422
0.337426
0.33743
0.337434
0.337438
0.337442
0.337446
0.33745
0.337454
0.337458
0.337463
0.338201
0.338201
0.338201
0.338201
0.338201
0.338201
0.338201
0.338201
0.338201
0.338201
0.338201
0.338201
0.338201
0.338201
0.338201
0.338201
0.338201
0.338201
0.338201
0.338201
0.338201
0.338201
0.338201
0.338201
0.338201
0.338201
0.338201
0.338201
0.338201
0.338201
0.338201
0.338201
0.338201
0.338201
0.338201
0.338201
0.338201
0.338201
0.338202
0.338202
0.338202
0.338202
0.338202
0.338202
0.338202
0.338202
0.338202
0.338202
0.338202
0.338202
0.338202
0.338202
0.338202
0.338202
0.338202
0.338202
0.338202
0.338202
0.338202
0.338202
0.338202
0.338202
0.338202
0.338202
0.338202
0.338202
0.338202
0.338202
0.338202
0.338202
0.338202
0.338202
0.338202
0.338202
0.338202
0.338202
0.338202
0.338202
0.338202
0.338202
0.338202
0.338202
0.338202
0.338202
0.338202
0.338202
0.338202
0.338202
0.338202
0.338202
0.338202
0.338202
0.338202
0.338202
0.338202
0.338202
0.338202
0.338202
0.338202
0.338202
0.338202
0.338202
0.338202
0.338202
0.338202
0.338202
0.338202
0.338203
0.338203
0.338203
0.338203
0.338203
0.338203
0.338203
0.338203
0.338203
0.338203
0.338203
0.338203
0.338203
0.338203
0.338203
0.338203
0.338203
0.338203
0.338204
0.338204
0.338204
0.338204
0.338204
0.338204
0.338204
0.338204
0.338204
0.338204
0.338204
0.338204
0.338204
0.338204
0.338204
0.338204
0.338204
0.338204
0.338204
0.338204
0.338204
0.338204
0.338204
0.338204
0.338204
0.338204
0.338204
0.338204
0.338204
0.338204
0.338204
0.338204
0.338204
0.338204
0.338204
0.338204
0.338204
0.338204
0.338204
0.338204
0.338204
0.338204
0.338204
0.338204
0.338204
0.338204
0.338204
0.338204
0.338204
0.338204
0.338204
0.338204
0.338204
0.338204
0.338204
0.338204
0.338204
0.338204
0.338204
0.338204
0.338204
0.338204
0.338204
0.338204
0.338204
0.338204
0.338204
0.338204
0.338204
0.338204
0.338204
0.338204
0.338204
0.338204
0.338204
0.338204
0.338204
0.338204
0.338204
0.338204
0.338204
0.338204
0.338204
0.338204
0.338204
0.338204
0.338204
0.338204
0.338204
0.338204
0.338204
0.338204
0.338204
0.338204
0.338204
0.338204
0.338204
0.338204
0.338204
0.338204
0.338204
0.338204
0.338204
0.338204
0.338204
0.338204
0.338204
0.338204
0.338204
0.338204
0.338204
0.338204
0.338204
0.338204
0.338204
0.338204
0.338204
0.338204
0.338204