/*--------------------------------*- C++ -*----------------------------------*\
| =========                 |                                                 |
| \\      /  F ield         | OpenFOAM: The Open Source CFD Toolbox           |
|  \\    /   O peration     | Version:  2112                                  |
|   \\  /    A nd           | Website:  www.openfoam.com                      |
|    \\/     M anipulation  |                                                 |
\*---------------------------------------------------------------------------*/
FoamFile
{
    version     2.0;
    format      ascii;
    arch        "LSB;label=32;scalar=64";
    class       surfaceScalarField;
    location    "2e-05";
    object      phi;
}
// * * * * * * * * * * * * * * * * * * * * * * * * * * * * * * * * * * * * * //

dimensions      [1 0 -1 0 0 0 0];

oriented        oriented;

internalField   nonuniform List<scalar> 
27436
(
-0.384084
5.98193
-0.186756
5.81339
-0.0952431
5.86472
-0.0723551
5.87613
-0.0607588
5.87756
-0.0509079
5.8776
-0.0413136
5.87747
-0.0317722
5.87747
-0.0222352
5.87749
-0.0126938
5.87746
-0.00315085
5.87743
0.00639981
5.87742
0.0159537
5.87741
0.025487
5.87743
0.0350203
5.87748
0.0445591
5.87747
0.0541039
5.87744
0.0636447
5.87746
0.073262
5.87749
0.0831537
5.87757
0.0947635
5.87744
0.117508
5.87605
0.208752
5.86475
0.402675
5.81456
5.99616
-0.0987301
4.78017
-0.0534027
4.62832
-0.0485039
4.643
-0.041601
4.64341
-0.035573
4.64407
-0.0298781
4.6443
-0.0242587
4.64444
-0.0186485
4.64448
-0.0130503
4.64445
-0.0074491
4.64451
-0.00184361
4.64459
0.00376673
4.6446
0.00937847
4.6446
0.0149813
4.64458
0.0205794
4.6445
0.0261866
4.64446
0.0317896
4.64443
0.0373893
4.64435
0.0430089
4.64427
0.0487141
4.64417
0.0547618
4.644
0.0615656
4.64327
0.0665667
4.64285
0.10972
4.62906
4.7816
-0.0214256
2.30087
-0.0234227
2.24696
-0.0324102
2.25527
-0.0301283
2.25508
-0.027288
2.25534
-0.0244297
2.25543
-0.0215849
2.2555
-0.018743
2.25554
-0.015898
2.2555
-0.0130547
2.25555
-0.0102118
2.2556
-0.00736754
2.25559
-0.0045197
2.25557
-0.00168068
2.25554
0.00115438
2.2555
0.00399973
2.25548
0.00684271
2.25544
0.0096841
2.25539
0.0125287
2.25534
0.0153765
2.25527
0.0182377
2.25516
0.0205408
2.25482
0.0107653
2.25499
0.00982276
2.24682
2.29692
-0.00779954
0.131278
-0.00543219
0.14041
-0.00575188
0.141811
-0.00517896
0.141877
-0.00461745
0.141891
-0.00405555
0.141896
-0.00349541
0.141898
-0.00293606
0.141898
-0.00237631
0.141899
-0.00181617
0.141899
-0.00125627
0.141897
-0.000696471
0.141895
-0.000136233
0.141893
0.000423008
0.141889
0.000981675
0.141885
0.00154165
0.141882
0.00210128
0.141878
0.00266072
0.141873
0.00322054
0.141868
0.00378118
0.141862
0.00434542
0.141855
0.00491865
0.141834
0.0045934
0.141759
0.0069076
0.140364
0.131154
-0.000448228
0.0196579
-0.000369143
0.0203836
-0.000391301
0.0204462
-0.000347632
0.0204476
-0.000300088
0.0204479
-0.000252469
0.020448
-0.000204871
0.020448
-0.000157278
0.020448
-0.00010968
0.020448
-6.20827e-05
0.020448
-1.44882e-05
0.020448
3.31064e-05
0.0204479
8.07062e-05
0.0204479
0.000128291
0.0204477
0.000175865
0.0204476
0.00022346
0.0204476
0.000271047
0.0204475
0.00031863
0.0204473
0.000366218
0.0204472
0.000413809
0.020447
0.000461383
0.0204469
0.000505002
0.0204464
0.000481757
0.0204447
0.000553113
0.0203827
0.0196624
-0.000157425
0.0179425
-0.00015257
0.0179799
-0.000137115
0.0179823
-0.000118784
0.0179823
-0.000100226
0.0179823
-8.16596e-05
0.0179823
-6.30936e-05
0.0179823
-4.45276e-05
0.0179823
-2.59616e-05
0.0179823
-7.39566e-06
0.0179823
1.11703e-05
0.0179823
2.97362e-05
0.0179823
4.83022e-05
0.0179823
6.6868e-05
0.0179823
8.54337e-05
0.0179823
0.000104
0.0179823
0.000122565
0.0179823
0.000141131
0.0179823
0.000159697
0.0179823
0.000178263
0.0179823
0.00019682
0.0179823
0.000215135
0.0179823
0.000230366
0.0179823
0.000229941
0.0179803
0.0179759
5.44322e-06
0.0179876
-1.8248e-05
0.0179606
-4.43724e-05
0.0179605
-7.06478e-05
0.0179605
-9.69284e-05
0.0179605
-0.00012321
0.0179605
-0.000149491
0.0179605
-0.000175773
0.0179605
-0.000202054
0.0179605
-0.000228336
0.0179605
-0.000254617
0.0179605
-0.000280899
0.0179605
-0.00030718
0.0179605
-0.000333462
0.0179605
-0.000359743
0.0179605
-0.000386025
0.0179605
-0.000412306
0.0179605
-0.000438588
0.0179605
-0.00046487
0.0179605
-0.00049115
0.0179605
-0.000517417
0.0179605
-0.000543541
0.0179605
-0.000567709
0.0179604
-0.000547484
0.0179597
0.0179389
0.000716841
0.017908
0.000720334
0.018014
0.000664486
0.0180173
0.000606191
0.0180175
0.000547709
0.0180175
0.000489209
0.0180175
0.000430708
0.0180175
0.000372207
0.0180175
0.000313706
0.0180175
0.000255205
0.0180175
0.000196704
0.0180175
0.000138203
0.0180175
7.97023e-05
0.0180175
2.12013e-05
0.0180175
-3.72996e-05
0.0180175
-9.58006e-05
0.0180175
-0.000154302
0.0180175
-0.000212803
0.0180175
-0.000271304
0.0180175
-0.000329804
0.0180175
-0.00038829
0.0180175
-0.000446638
0.0180175
-0.000503127
0.0180173
-0.000515749
0.0180147
0.0179004
0.000156482
0.0171988
0.000159462
0.0179641
0.000159068
0.0180134
0.000160216
0.018016
0.000161518
0.0180162
0.000162829
0.0180162
0.00016414
0.0180162
0.000165451
0.0180162
0.000166762
0.0180162
0.000168073
0.0180162
0.000169385
0.0180162
0.000170696
0.0180162
0.000172007
0.0180162
0.000173318
0.0180162
0.000174629
0.0180162
0.000175941
0.0180162
0.000177252
0.0180162
0.000178563
0.0180162
0.000179874
0.0180162
0.000181184
0.0180162
0.000182478
0.0180162
0.000183526
0.018016
0.00018168
0.0180135
0.00015908
0.0179633
0.0172559
-0.0070311
0.0169701
-0.0072285
0.0171531
-0.00660213
0.0173242
-0.00592373
0.0173329
-0.00524136
0.0173334
-0.00455865
0.0173335
-0.00387592
0.0173335
-0.00319319
0.0173335
-0.00251046
0.0173335
-0.00182773
0.0173335
-0.001145
0.0173335
-0.000462265
0.0173335
0.000220466
0.0173335
0.000903196
0.0173335
0.00158593
0.0173335
0.00226866
0.0173335
0.00295139
0.0173335
0.00363412
0.0173335
0.00431685
0.0173335
0.00499956
0.0173335
0.00568194
0.0173334
0.00636041
0.0173328
0.00698834
0.0173234
0.0068193
0.0171413
0.0169185
-0.00998794
0.015986
-0.0104833
0.0160174
-0.00956821
0.0162829
-0.008542
0.0162971
-0.00750742
0.016298
-0.00647206
0.0162981
-0.00543666
0.0162981
-0.00440126
0.0162981
-0.00336585
0.0162981
-0.00233045
0.0162981
-0.00129505
0.0162981
-0.000259648
0.0162981
0.000775754
0.0162981
0.00181116
0.0162981
0.00284656
0.0162981
0.00388196
0.0162981
0.00491736
0.0162981
0.00595276
0.0162981
0.00698816
0.0162981
0.00802352
0.0162981
0.00905802
0.016298
0.0100834
0.016297
0.0109885
0.0162823
0.0103978
0.0160082
0.0160024
-0.0107524
0.0148849
-0.0115087
0.0148474
-0.0105641
0.0151621
-0.00946143
0.0151803
-0.00834638
0.0151816
-0.00723008
0.0151817
-0.00611371
0.0151817
-0.00499734
0.0151817
-0.00388097
0.0151817
-0.0027646
0.0151817
-0.00164822
0.0151817
-0.000531852
0.0151817
0.00058452
0.0151817
0.00170089
0.0151817
0.00281726
0.0151817
0.00393364
0.0151817
0.00505001
0.0151817
0.00616638
0.0151817
0.00728275
0.0151817
0.00839905
0.0151817
0.00951411
0.0151816
0.0106169
0.0151803
0.0115615
0.015163
0.0108008
0.0148533
0.0149091
-0.010726
0.0138127
-0.0116709
0.013717
-0.010761
0.0140351
-0.00965348
0.0140545
-0.00852974
0.014056
-0.00740427
0.0140561
-0.00627869
0.0140561
-0.00515311
0.0140561
-0.00402753
0.0140561
-0.00290194
0.0140561
-0.00177636
0.0140561
-0.000650772
0.0140561
0.000474812
0.0140561
0.0016004
0.0140561
0.00272598
0.0140561
0.00385156
0.0140561
0.00497715
0.0140561
0.00610273
0.0140561
0.00722831
0.0140561
0.00835379
0.0140561
0.00947763
0.014056
0.0105863
0.0140547
0.0115049
0.0140379
0.0106133
0.0137541
0.0139393
-0.0101593
0.0129742
-0.0112125
0.0127284
-0.0104028
0.0129882
-0.00937393
0.0130049
-0.00832648
0.0130063
-0.0072769
0.0130064
-0.00622718
0.0130064
-0.00517745
0.0130064
-0.00412772
0.0130064
-0.00307799
0.0130064
-0.00202825
0.0130064
-0.000978523
0.0130064
7.12079e-05
0.0130064
0.00112094
0.0130064
0.00217067
0.0130064
0.0032204
0.0130064
0.00427013
0.0130064
0.00531986
0.0130064
0.00636959
0.0130064
0.00741919
0.0130064
0.00846694
0.0130063
0.00949832
0.0130048
0.0103355
0.0129872
0.00946708
0.0127225
0.0127435
-0.00860154
0.0117989
-0.00952132
0.0117867
-0.00878244
0.01202
-0.00783474
0.0120361
-0.00686847
0.0120376
-0.00589998
0.0120377
-0.00493132
0.0120377
-0.00396266
0.0120377
-0.002994
0.0120377
-0.00202534
0.0120377
-0.00105668
0.0120377
-8.80128e-05
0.0120377
0.00088065
0.0120377
0.00184931
0.0120377
0.00281797
0.0120377
0.00378664
0.0120377
0.0047553
0.0120377
0.00572396
0.0120377
0.00669261
0.0120377
0.00766107
0.0120377
0.00862688
0.0120376
0.00957078
0.0120358
0.0102784
0.012016
0.00917543
0.0117437
0.0117649
-0.0084149
0.0113573
-0.00946734
0.0109301
-0.00877427
0.0110593
-0.00783229
0.0110683
-0.006867
0.0110691
-0.00589872
0.0110692
-0.00493021
0.0110692
-0.00396167
0.0110692
-0.00299314
0.0110692
-0.00202461
0.0110692
-0.00105608
0.0110692
-8.75463e-05
0.0110692
0.000880986
0.0110692
0.00184952
0.0110692
0.00281805
0.0110692
0.00378658
0.0110692
0.00475511
0.0110692
0.00572364
0.0110692
0.00669216
0.0110692
0.0076604
0.0110692
0.00862525
0.0110691
0.00956395
0.0110682
0.0102256
0.0110588
0.00899577
0.010924
0.0114512
-0.00557109
0.0107515
-0.00628238
0.0104503
-0.00585056
0.01046
-0.0052586
0.0104605
-0.00465211
0.0104605
-0.00404363
0.0104605
-0.00343499
0.0104605
-0.00282634
0.0104605
-0.00221769
0.0104605
-0.00160904
0.0104605
-0.00100039
0.0104605
-0.000391735
0.0104605
0.000216916
0.0104605
0.000825567
0.0104605
0.00143422
0.0104605
0.00204287
0.0104605
0.00265152
0.0104605
0.00326017
0.0104605
0.00386881
0.0104605
0.00447731
0.0104605
0.00508392
0.0104605
0.0056769
0.0104605
0.00611543
0.0104608
0.00544249
0.0104625
0.0107327
-0.00163571
0.0108012
-0.00185054
0.0103626
-0.00176465
0.0103314
-0.00163874
0.0103302
-0.00150896
0.0103302
-0.00137863
0.0103301
-0.00124826
0.0103301
-0.00111788
0.0103301
-0.00098751
0.0103301
-0.000857135
0.0103301
-0.00072676
0.0103301
-0.000596386
0.0103301
-0.000466011
0.0103301
-0.000335636
0.0103301
-0.000205262
0.0103301
-7.48869e-05
0.0103301
5.54878e-05
0.0103301
0.000185862
0.0103301
0.000316235
0.0103301
0.000446586
0.0103301
0.000576645
0.0103302
0.000704649
0.0103301
0.000810186
0.0103308
0.00076376
0.0103485
0.0106329
0.00615789
0.0108725
0.00701732
0.0107493
0.0065739
0.0109461
0.00595859
0.010962
0.00532755
0.0109635
0.00469426
0.0109636
0.00406081
0.0109636
0.00342734
0.0109636
0.00279387
0.0109636
0.0021604
0.0109636
0.00152693
0.0109636
0.000893463
0.0109636
0.000259993
0.0109636
-0.000373476
0.0109636
-0.00100695
0.0109636
-0.00164041
0.0109636
-0.00227388
0.0109636
-0.00290735
0.0109636
-0.00354081
0.0109636
-0.00417413
0.0109636
-0.00480567
0.0109635
-0.00542459
0.0109621
-0.00589978
0.0109476
-0.00526863
0.0107692
0.0109646
0.00928882
0.01141
0.0107533
0.0116885
0.0100215
0.0120117
0.00897956
0.0120386
0.00790648
0.0120409
0.00682931
0.0120411
0.0057518
0.0120411
0.00467428
0.0120411
0.00359675
0.0120411
0.00251922
0.0120411
0.00144169
0.0120411
0.000364161
0.0120411
-0.000713368
0.0120411
-0.0017909
0.0120411
-0.00286842
0.0120411
-0.00394595
0.0120411
-0.00502348
0.0120411
-0.00610101
0.0120411
-0.00717851
0.0120411
-0.00825567
0.0120411
-0.00932856
0.0120409
-0.0103693
0.0120382
-0.0110872
0.0120082
-0.00954142
0.0116514
0.0114065
0.00916235
0.0125872
0.0103835
0.0127926
0.00960395
0.0130679
0.00858158
0.0130889
0.00753511
0.0130906
0.00648573
0.0130907
0.00543615
0.0130907
0.00438655
0.0130907
0.00333695
0.0130907
0.00228735
0.0130907
0.00123775
0.0130907
0.000188154
0.0130907
-0.000861445
0.0130907
-0.00191104
0.0130907
-0.00296064
0.0130907
-0.00401024
0.0130907
-0.00505984
0.0130907
-0.00610944
0.0130907
-0.00715902
0.0130907
-0.00820836
0.0130907
-0.00925439
0.0130906
-0.0102733
0.0130886
-0.0110236
0.0130647
-0.0096241
0.0127637
0.012518
0.00890352
0.0136198
0.00985033
0.013823
0.00907796
0.0140398
0.00813145
0.0140543
0.00716873
0.0140553
0.00620419
0.0140554
0.00523953
0.0140554
0.00427486
0.0140554
0.00331019
0.0140554
0.00234552
0.0140554
0.00138086
0.0140554
0.000416188
0.0140554
-0.000548479
0.0140554
-0.00151315
0.0140554
-0.00247781
0.0140554
-0.00344248
0.0140554
-0.00440715
0.0140554
-0.00537182
0.0140554
-0.00633648
0.0140554
-0.00730101
0.0140554
-0.00826362
0.0140553
-0.00920919
0.0140543
-0.00997466
0.0140398
-0.00898678
0.0138271
0.0135937
0.00834304
0.0145416
0.00904958
0.0147405
0.00833017
0.0148995
0.00748823
0.0149086
0.00663556
0.0149093
0.00578175
0.0149093
0.00492787
0.0149093
0.00407398
0.0149093
0.0032201
0.0149093
0.00236622
0.0149093
0.00151233
0.0149093
0.000658451
0.0149093
-0.000195432
0.0149093
-0.00104931
0.0149093
-0.0019032
0.0149093
-0.00275708
0.0149093
-0.00361096
0.0149093
-0.00446485
0.0149093
-0.00531873
0.0149093
-0.00617254
0.0149093
-0.00702531
0.0149093
-0.00786807
0.0149087
-0.00859618
0.0149001
-0.00797916
0.0147486
0.0145853
0.00740305
0.0154301
0.00784081
0.0155432
0.00716613
0.0156671
0.00640928
0.0156732
0.0056457
0.0156736
0.00488144
0.0156736
0.00411714
0.0156736
0.00335285
0.0156736
0.00258855
0.0156736
0.00182425
0.0156736
0.00105995
0.0156736
0.000295657
0.0156736
-0.00046864
0.0156736
-0.00123294
0.0156736
-0.00199724
0.0156736
-0.00276153
0.0156736
-0.00352583
0.0156736
-0.00429013
0.0156736
-0.00505442
0.0156736
-0.00581868
0.0156736
-0.00658225
0.0156736
-0.00733903
0.0156732
-0.00801234
0.0156669
-0.0075504
0.0155392
0.0154216
0.00750597
0.0161815
0.00786317
0.0163169
0.00717603
0.0164302
0.00641995
0.0164352
0.00565853
0.0164356
0.00489658
0.0164356
0.00413461
0.0164356
0.00337264
0.0164356
0.00261067
0.0164356
0.00184869
0.0164356
0.00108672
0.0164356
0.000324746
0.0164356
-0.000437227
0.0164356
-0.0011992
0.0164356
-0.00196117
0.0164356
-0.00272315
0.0164356
-0.00348512
0.0164356
-0.00424709
0.0164356
-0.00500907
0.0164356
-0.00577101
0.0164356
-0.00653242
0.0164356
-0.00728833
0.0164353
-0.00797377
0.0164303
-0.00759625
0.0163187
0.0161625
0.00725495
0.0169044
0.00754263
0.0170461
0.00689451
0.0171406
0.00619007
0.0171445
0.00548137
0.0171447
0.00477227
0.0171447
0.00406316
0.0171447
0.00335404
0.0171447
0.00264492
0.0171447
0.0019358
0.0171447
0.00122668
0.0171447
0.000517562
0.0171447
-0.000191556
0.0171447
-0.000900675
0.0171447
-0.00160979
0.0171447
-0.00231891
0.0171447
-0.00302803
0.0171447
-0.00373715
0.0171447
-0.00444627
0.0171447
-0.00515537
0.0171447
-0.00586409
0.0171447
-0.00656881
0.0171445
-0.00722011
0.0171406
-0.00698087
0.017046
0.0169432
0.00664349
0.0176408
0.00679861
0.0177373
0.00616912
0.0178176
0.00549645
0.0178206
0.00482065
0.0178208
0.00414455
0.0178208
0.00346845
0.0178208
0.00279234
0.0178208
0.00211624
0.0178208
0.00144013
0.0178208
0.000764023
0.0178208
8.79173e-05
0.0178208
-0.000588189
0.0178208
-0.00126429
0.0178208
-0.0019404
0.0178208
-0.00261651
0.0178208
-0.00329261
0.0178208
-0.00396872
0.0178208
-0.00464482
0.0178208
-0.00532092
0.0178208
-0.00599669
0.0178208
-0.00666909
0.0178206
-0.00729503
0.0178174
-0.00707528
0.0177323
0.0175901
0.00672016
0.0182708
0.00685651
0.0183944
0.0062468
0.0184685
0.00559927
0.0184711
0.00494907
0.0184712
0.00429863
0.0184712
0.00364818
0.0184712
0.00299773
0.0184712
0.00234728
0.0184712
0.00169683
0.0184712
0.00104638
0.0184712
0.00039593
0.0184712
-0.00025452
0.0184712
-0.00090497
0.0184712
-0.00155542
0.0184712
-0.00220587
0.0184712
-0.00285632
0.0184712
-0.00350677
0.0184712
-0.00415722
0.0184712
-0.00480766
0.0184712
-0.00545786
0.0184712
-0.00610539
0.0184711
-0.0067154
0.0184687
-0.00659124
0.0184004
0.0182708
0.00643558
0.0188653
0.00654279
0.0190115
0.00597695
0.0190695
0.00537908
0.0190714
0.00477898
0.0190715
0.00417869
0.0190715
0.00357838
0.0190715
0.00297808
0.0190715
0.00237778
0.0190715
0.00177747
0.0190715
0.00117717
0.0190715
0.000576864
0.0190715
-2.34399e-05
0.0190715
-0.000623744
0.0190715
-0.00122405
0.0190715
-0.00182435
0.0190715
-0.00242466
0.0190715
-0.00302496
0.0190715
-0.00362526
0.0190715
-0.00422556
0.0190715
-0.00482568
0.0190715
-0.00542382
0.0190714
-0.00599305
0.0190696
-0.00595262
0.019012
0.0189262
0.00533233
0.019496
0.00531903
0.0195725
0.00479694
0.0196168
0.00425198
0.0196181
0.00370549
0.0196182
0.00315886
0.0196182
0.00261223
0.0196182
0.0020656
0.0196182
0.00151897
0.0196182
0.000972335
0.0196182
0.000425704
0.0196182
-0.000120928
0.0196182
-0.00066756
0.0196182
-0.00121419
0.0196182
-0.00176082
0.0196182
-0.00230745
0.0196182
-0.00285409
0.0196182
-0.00340072
0.0196182
-0.00394735
0.0196182
-0.00449398
0.0196182
-0.00504045
0.0196182
-0.00558516
0.0196181
-0.00610391
0.0196166
-0.00603663
0.0195675
0.0194062
0.00540366
0.0199914
0.00540945
0.020078
0.00492828
0.0201199
0.00442678
0.0201211
0.00392395
0.0201211
0.00342101
0.0201211
0.00291806
0.0201211
0.00241511
0.0201211
0.00191216
0.0201211
0.00140921
0.0201211
0.000906263
0.0201211
0.000403315
0.0201211
-9.96336e-05
0.0201211
-0.000602582
0.0201211
-0.00110553
0.0201211
-0.00160848
0.0201211
-0.00211143
0.0201211
-0.00261438
0.0201211
-0.00311732
0.0201211
-0.00362027
0.0201211
-0.0041231
0.0201211
-0.00462464
0.0201211
-0.00510652
0.02012
-0.00512563
0.0200824
0.0199982
0.00527937
0.0204306
0.00527093
0.0205713
0.00480542
0.0206053
0.00432161
0.0206062
0.00383661
0.0206062
0.00335151
0.0206062
0.0028664
0.0206062
0.0023813
0.0206062
0.00189619
0.0206062
0.00141109
0.0206062
0.000925981
0.0206062
0.000440876
0.0206062
-4.42295e-05
0.0206062
-0.000529335
0.0206062
-0.00101444
0.0206062
-0.00149955
0.0206062
-0.00198465
0.0206062
-0.00246976
0.0206062
-0.00295486
0.0206062
-0.00343996
0.0206062
-0.00392497
0.0206062
-0.00440891
0.0206062
-0.00487604
0.0206053
-0.00492343
0.0205717
0.0204937
0.00429411
0.0209479
0.00422417
0.0210101
0.00380827
0.0210359
0.00337887
0.0210365
0.00294863
0.0210366
0.00251831
0.0210366
0.00208798
0.0210366
0.00165766
0.0210366
0.00122734
0.0210366
0.000797014
0.0210366
0.000366691
0.0210366
-6.36319e-05
0.0210366
-0.000493955
0.0210366
-0.000924278
0.0210366
-0.0013546
0.0210366
-0.00178492
0.0210366
-0.00221525
0.0210366
-0.00264557
0.0210366
-0.00307589
0.0210366
-0.00350621
0.0210366
-0.00393645
0.0210366
-0.00436573
0.0210365
-0.00478006
0.0210358
-0.00480327
0.0210081
0.0208971
0.00434539
0.0213414
0.00429772
0.0214054
0.0039165
0.0214302
0.00352303
0.0214308
0.0031288
0.0214309
0.0027345
0.0214309
0.0023402
0.0214309
0.0019459
0.0214309
0.0015516
0.0214309
0.00115731
0.0214309
0.000763006
0.0214309
0.000368708
0.0214309
-2.55911e-05
0.0214309
-0.00041989
0.0214309
-0.000814189
0.0214309
-0.00120849
0.0214309
-0.00160279
0.0214309
-0.00199709
0.0214309
-0.00239138
0.0214309
-0.00278568
0.0214309
-0.00317992
0.0214309
-0.00357343
0.0214308
-0.00395538
0.0214303
-0.00402846
0.0214085
0.0213501
0.00430779
0.0216657
0.00424934
0.0218021
0.00386943
0.0218225
0.00347804
0.021823
0.00308595
0.021823
0.00269379
0.021823
0.00230164
0.021823
0.00190948
0.021823
0.00151732
0.021823
0.00112516
0.021823
0.000733006
0.021823
0.000340849
0.021823
-5.13089e-05
0.021823
-0.000443466
0.021823
-0.000835624
0.021823
-0.00122778
0.021823
-0.00161994
0.021823
-0.0020121
0.021823
-0.00240425
0.021823
-0.00279641
0.021823
-0.00318851
0.021823
-0.00357996
0.021823
-0.00396078
0.0218225
-0.00404338
0.0218016
0.0217337
0.00341083
0.0221016
0.00331507
0.0221531
0.00297857
0.0221683
0.00263349
0.0221686
0.00228789
0.0221687
0.00194225
0.0221687
0.0015966
0.0221687
0.00125096
0.0221687
0.000905315
0.0221687
0.000559671
0.0221687
0.000214027
0.0221687
-0.000131617
0.0221687
-0.00047726
0.0221687
-0.000822904
0.0221687
-0.00116855
0.0221687
-0.00151419
0.0221687
-0.00185984
0.0221687
-0.00220548
0.0221687
-0.00255112
0.0221687
-0.00289677
0.0221687
-0.00324236
0.0221687
-0.00358735
0.0221686
-0.00392254
0.0221683
-0.00397463
0.0221512
0.0220355
0.00345681
0.0224093
0.00339017
0.0224621
0.00309005
0.0224768
0.00278206
0.0224771
0.00247359
0.0224772
0.00216508
0.0224772
0.00185658
0.0224772
0.00154807
0.0224772
0.00123956
0.0224772
0.000931052
0.0224772
0.000622544
0.0224772
0.000314036
0.0224772
5.52865e-06
0.0224772
-0.000302979
0.0224772
-0.000611487
0.0224772
-0.000919995
0.0224772
-0.0012285
0.0224772
-0.00153701
0.0224772
-0.00184552
0.0224772
-0.00215402
0.0224772
-0.00246249
0.0224772
-0.00277052
0.0224771
-0.00307113
0.0224769
-0.00315791
0.0224642
0.022416
0.00342276
0.0226506
0.00335012
0.0227717
0.00305132
0.0227836
0.00274506
0.0227839
0.00243835
0.0227839
0.00213161
0.0227839
0.00182486
0.0227839
0.00151811
0.0227839
0.00121137
0.0227839
0.00090462
0.0227839
0.000597874
0.0227839
0.000291127
0.0227839
-1.56196e-05
0.0227839
-0.000322366
0.0227839
-0.000629113
0.0227839
-0.000935859
0.0227839
-0.00124261
0.0227839
-0.00154935
0.0227839
-0.0018561
0.0227839
-0.00216285
0.0227839
-0.00246956
0.0227839
-0.00277586
0.0227839
-0.00307531
0.0227836
-0.00316746
0.0227714
0.0227207
0.002602
0.0230008
0.00250487
0.0230431
0.0022429
0.0230516
0.00197539
0.0230518
0.00170756
0.0230518
0.0014397
0.0230518
0.00117184
0.0230518
0.000903983
0.0230518
0.000636125
0.0230518
0.000368266
0.0230518
0.000100408
0.0230518
-0.000167451
0.0230518
-0.00043531
0.0230518
-0.000703168
0.0230518
-0.000971027
0.0230518
-0.00123889
0.0230518
-0.00150674
0.0230518
-0.0017746
0.0230518
-0.00204246
0.0230518
-0.00231032
0.0230518
-0.00257814
0.0230518
-0.00284558
0.0230518
-0.00310652
0.0230516
-0.00316617
0.0230416
0.0229248
0.00264347
0.023232
0.00257811
0.0232748
0.00235209
0.0232831
0.00212094
0.0232832
0.00188949
0.0232832
0.00165802
0.0232832
0.00142654
0.0232832
0.00119507
0.0232832
0.000963597
0.0232832
0.000732124
0.0232832
0.00050065
0.0232832
0.000269177
0.0232832
3.77037e-05
0.0232832
-0.00019377
0.0232832
-0.000425243
0.0232832
-0.000656716
0.0232832
-0.00088819
0.0232832
-0.00111966
0.0232832
-0.00135114
0.0232832
-0.00158261
0.0232832
-0.00181406
0.0232832
-0.00204523
0.0232832
-0.00227163
0.0232831
-0.00235397
0.0232763
0.0232369
0.00262197
0.0233978
0.00255347
0.0235069
0.00232831
0.0235135
0.00209823
0.0235136
0.00186786
0.0235136
0.00163747
0.0235136
0.00140708
0.0235136
0.00117668
0.0235136
0.000946292
0.0235136
0.0007159
0.0235136
0.000485508
0.0235136
0.000255116
0.0235136
2.47237e-05
0.0235136
-0.000205669
0.0235136
-0.000436061
0.0235136
-0.000666453
0.0235136
-0.000896845
0.0235136
-0.00112724
0.0235136
-0.00135763
0.0235136
-0.00158802
0.0235136
-0.00181839
0.0235136
-0.00204851
0.0235136
-0.00227419
0.0235135
-0.0023598
0.0235068
0.0234679
0.00186581
0.0236717
0.00178127
0.0237059
0.00158827
0.0237103
0.00139174
0.0237104
0.001195
0.0237104
0.000998256
0.0237104
0.000801506
0.0237104
0.000604756
0.0237104
0.000408007
0.0237104
0.000211257
0.0237104
1.45076e-05
0.0237104
-0.000182242
0.0237104
-0.000378992
0.0237104
-0.000575741
0.0237104
-0.000772491
0.0237104
-0.00096924
0.0237104
-0.00116599
0.0237104
-0.00136274
0.0237104
-0.00155949
0.0237104
-0.00175624
0.0237104
-0.00195297
0.0237104
-0.00214944
0.0237104
-0.00234165
0.0237103
-0.00239539
0.0237048
0.0235964
0.00190172
0.0238356
0.00184751
0.0238698
0.00168722
0.0238741
0.00152365
0.0238742
0.00135989
0.0238742
0.00119612
0.0238742
0.00103235
0.0238742
0.000868573
0.0238742
0.000704801
0.0238742
0.000541028
0.0238742
0.000377255
0.0238742
0.000213482
0.0238742
4.97095e-05
0.0238742
-0.000114063
0.0238742
-0.000277836
0.0238742
-0.000441609
0.0238742
-0.000605382
0.0238742
-0.000769154
0.0238742
-0.000932927
0.0238742
-0.0010967
0.0238742
-0.00126046
0.0238742
-0.00142405
0.0238742
-0.00158461
0.0238741
-0.00165185
0.0238707
0.0238378
0.00189362
0.0239359
0.00183881
0.024033
0.00167984
0.0240364
0.00151771
0.0240365
0.00135539
0.0240365
0.00119306
0.0240365
0.00103072
0.0240365
0.000868389
0.0240365
0.000706056
0.0240365
0.000543722
0.0240365
0.000381388
0.0240365
0.000219055
0.0240365
5.6721e-05
0.0240365
-0.000105613
0.0240365
-0.000267946
0.0240365
-0.00043028
0.0240365
-0.000592614
0.0240365
-0.000754947
0.0240365
-0.000917281
0.0240365
-0.00107961
0.0240365
-0.00124193
0.0240365
-0.0014041
0.0240365
-0.00156349
0.0240364
-0.00163314
0.0240332
0.0240021
0.00121084
0.0241393
0.00114686
0.0241667
0.00101692
0.0241686
0.000884851
0.0241687
0.000752664
0.0241687
0.000620467
0.0241687
0.000488269
0.0241687
0.000356072
0.0241687
0.000223875
0.0241687
9.16773e-05
0.0241687
-4.052e-05
0.0241687
-0.000172717
0.0241687
-0.000304915
0.0241687
-0.000437112
0.0241687
-0.00056931
0.0241687
-0.000701507
0.0241687
-0.000833704
0.0241687
-0.000965902
0.0241687
-0.0010981
0.0241687
-0.0012303
0.0241687
-0.00136248
0.0241687
-0.00149451
0.0241687
-0.00162386
0.0241686
-0.00166432
0.024166
0.0240772
0.00123918
0.0242453
0.00120031
0.0242723
0.00109683
0.0242742
0.000991392
0.0242742
0.000885839
0.0242742
0.000780277
0.0242742
0.000674714
0.0242742
0.000569152
0.0242742
0.000463589
0.0242742
0.000358027
0.0242742
0.000252464
0.0242742
0.000146902
0.0242742
4.13391e-05
0.0242742
-6.42235e-05
0.0242742
-0.000169786
0.0242742
-0.000275349
0.0242742
-0.000380911
0.0242742
-0.000486474
0.0242742
-0.000592036
0.0242742
-0.000697598
0.0242742
-0.000803152
0.0242742
-0.000908607
0.0242742
-0.00101225
0.0242742
-0.0010596
0.0242728
0.0242442
0.00124073
0.0242905
0.00120406
0.0243752
0.00110361
0.0243767
0.00100126
0.0243767
0.000898802
0.0243767
0.000796333
0.0243767
0.000693863
0.0243767
0.000591394
0.0243767
0.000488924
0.0243767
0.000386455
0.0243767
0.000283985
0.0243767
0.000181516
0.0243767
7.90466e-05
0.0243767
-2.34229e-05
0.0243767
-0.000125892
0.0243767
-0.000228362
0.0243767
-0.000330831
0.0243767
-0.000433301
0.0243767
-0.00053577
0.0243767
-0.000638239
0.0243767
-0.000740701
0.0243767
-0.000843075
0.0243767
-0.000943864
0.0243767
-0.000993125
0.0243754
0.024351
0.000638846
0.0244305
0.000597426
0.0244521
0.000522543
0.0244528
0.000446552
0.0244528
0.000370502
0.0244528
0.000294448
0.0244528
0.000218394
0.0244528
0.000142339
0.0244528
6.62846e-05
0.0244528
-9.76989e-06
0.0244528
-8.58244e-05
0.0244528
-0.000161879
0.0244528
-0.000237933
0.0244528
-0.000313988
0.0244528
-0.000390042
0.0244528
-0.000466097
0.0244528
-0.000542151
0.0244528
-0.000618206
0.0244528
-0.00069426
0.0244528
-0.000770314
0.0244528
-0.000846361
0.0244528
-0.000922321
0.0244528
-0.000996755
0.0244527
-0.00102009
0.0244516
0.0243889
0.000657206
0.0244903
0.000632288
0.0245115
0.000574681
0.0245114
0.000516066
0.0245114
0.000457394
0.0245114
0.000398718
0.0245114
0.000340042
0.0245114
0.000281366
0.0245114
0.00022269
0.0245114
0.000164014
0.0245114
0.000105338
0.0245114
4.66617e-05
0.0245114
-1.20144e-05
0.0245114
-7.06905e-05
0.0245114
-0.000129367
0.0245114
-0.000188043
0.0245114
-0.000246719
0.0245114
-0.000305395
0.0245114
-0.000364071
0.0245114
-0.000422747
0.0245114
-0.000481418
0.0245114
-0.000540035
0.0245114
-0.000597638
0.0245114
-0.000623672
0.0245114
0.0244867
0.000643381
0.0245013
0.000638693
0.0245654
0.000584858
0.0245667
0.000529657
0.0245667
0.000474387
0.0245667
0.000419111
0.0245667
0.000363835
0.0245667
0.000308559
0.0245667
0.000253283
0.0245667
0.000198007
0.0245667
0.00014273
0.0245667
8.74544e-05
0.0245667
3.21783e-05
0.0245667
-2.30978e-05
0.0245667
-7.83739e-05
0.0245667
-0.00013365
0.0245667
-0.000188926
0.0245667
-0.000244202
0.0245667
-0.000299478
0.0245667
-0.000354754
0.0245667
-0.000410025
0.0245667
-0.000465235
0.0245667
-0.000519216
0.0245667
-0.000529174
0.0245656
0.0245221
-0.0146524
0.0558334
-0.0145331
0.0558788
-0.0140197
0.0559656
-0.0135006
0.0559662
-0.0129814
0.0559662
-0.0124621
0.0559662
-0.0119428
0.0559662
-0.0114236
0.0559662
-0.0109043
0.0559662
-0.0103851
0.0559662
-0.00986583
0.0559662
-0.00934658
0.0559662
-0.00882732
0.0559662
-0.00830807
0.0559662
-0.00778881
0.0559662
-0.00726956
0.0559662
-0.00675031
0.0559662
-0.00623105
0.0559662
-0.0057118
0.0559662
-0.00519254
0.0559662
-0.00467329
0.0559662
-0.00415403
0.0559662
-0.00363478
0.0559662
-0.00311553
0.0559662
-0.00259627
0.0559662
-0.00207702
0.0559662
-0.00155776
0.0559662
-0.00103816
0.0559662
-0.000483988
0.0559654
0.0559547
-0.0165659
0.0557184
-0.0164423
0.055299
-0.0158617
0.0553783
-0.0152744
0.0553787
-0.0146869
0.0553788
-0.0140994
0.0553788
-0.013512
0.0553788
-0.0129245
0.0553788
-0.012337
0.0553788
-0.0117495
0.0553788
-0.011162
0.0553788
-0.0105746
0.0553788
-0.0099871
0.0553788
-0.00939962
0.0553788
-0.00881214
0.0553788
-0.00822467
0.0553788
-0.00763719
0.0553788
-0.00704972
0.0553788
-0.00646224
0.0553788
-0.00587476
0.0553788
-0.00528729
0.0553788
-0.00469981
0.0553788
-0.00411233
0.0553788
-0.00352486
0.0553788
-0.00293738
0.0553788
-0.0023499
0.0553788
-0.00176243
0.0553788
-0.00117473
0.0553788
-0.000586866
0.0553788
0.0553662
-0.013947
0.0550167
-0.0137832
0.0548312
-0.0132955
0.0548861
-0.0128031
0.0548863
-0.0123107
0.0548863
-0.0118183
0.0548863
-0.0113258
0.0548863
-0.0108334
0.0548863
-0.010341
0.0548863
-0.00984855
0.0548863
-0.00935613
0.0548863
-0.0088637
0.0548863
-0.00837127
0.0548863
-0.00787884
0.0548863
-0.00738641
0.0548863
-0.00689399
0.0548863
-0.00640156
0.0548863
-0.00590913
0.0548863
-0.0054167
0.0548863
-0.00492428
0.0548863
-0.00443185
0.0548863
-0.00393942
0.0548863
-0.00344699
0.0548863
-0.00295457
0.0548863
-0.00246214
0.0548863
-0.00196971
0.0548863
-0.00147728
0.0548863
-0.00098467
0.0548863
-0.000492023
0.0548863
0.0548737
-0.0118474
0.0545254
-0.0116841
0.0544245
-0.0112703
0.0544687
-0.0108529
0.0544689
-0.0104355
0.0544689
-0.0100181
0.0544689
-0.00960067
0.0544689
-0.00918325
0.0544689
-0.00876583
0.0544689
-0.00834841
0.0544689
-0.00793099
0.0544689
-0.00751357
0.0544689
-0.00709615
0.0544689
-0.00667873
0.0544689
-0.00626131
0.0544689
-0.00584389
0.0544689
-0.00542647
0.0544689
-0.00500905
0.0544689
-0.00459162
0.0544689
-0.0041742
0.0544689
-0.00375678
0.0544689
-0.00333936
0.0544689
-0.00292194
0.0544689
-0.00250452
0.0544689
-0.0020871
0.0544689
-0.00166968
0.0544689
-0.00125226
0.0544689
-0.000834681
0.0544689
-0.000417082
0.0544689
0.0544562
-0.0112965
0.0541205
-0.0111395
0.0540303
-0.0107449
0.0540707
-0.010347
0.0540709
-0.00994906
0.0540709
-0.0095511
0.0540709
-0.00915313
0.0540709
-0.00875517
0.0540709
-0.00835721
0.0540709
-0.00795925
0.0540709
-0.00756128
0.0540709
-0.00716332
0.0540709
-0.00676536