/*--------------------------------*- C++ -*----------------------------------*\
| =========                 |                                                 |
| \\      /  F ield         | OpenFOAM: The Open Source CFD Toolbox           |
|  \\    /   O peration     | Version:  2112                                  |
|   \\  /    A nd           | Website:  www.openfoam.com                      |
|    \\/     M anipulation  |                                                 |
\*---------------------------------------------------------------------------*/
FoamFile
{
    version     2.0;
    format      ascii;
    arch        "LSB;label=32;scalar=64";
    class       volVectorField;
    location    "2e-05";
    object      U;
}
// * * * * * * * * * * * * * * * * * * * * * * * * * * * * * * * * * * * * * //

dimensions      [0 1 -1 0 0 0 0];

internalField   nonuniform List<vector> 
13875
(
(1866.08 75.2222 2.59498e-18)
(1865.44 20.7958 -1.3281e-18)
(1868.93 4.05184 -1.26393e-18)
(1869.54 0.693692 0)
(1869.5 0.117902 0)
(1869.45 0.0260024 1.26312e-18)
(1869.42 0.010214 -1.2638e-18)
(1869.4 0.00655714 -6.31913e-19)
(1869.4 0.00575375 6.3133e-19)
(1869.39 0.0047603 0)
(1869.38 0.0033215 -5.39571e-22)
(1869.37 0.00106422 -5.39572e-22)
(1869.36 -0.00173757 0)
(1869.37 -0.00339686 -6.31422e-19)
(1869.37 -0.00380714 6.31965e-19)
(1869.38 -0.00439358 0)
(1869.38 -0.00565937 1.26391e-18)
(1869.39 -0.00701716 -1.26445e-18)
(1869.4 -0.012523 5.39556e-22)
(1869.43 -0.0335079 -5.39479e-22)
(1869.5 -0.131306 -1.26289e-18)
(1869.58 -0.70279 1.26266e-18)
(1868.99 -4.0157 -2.52653e-18)
(1865.45 -20.6042 2.55738e-18)
(1866.21 -75 2.64548e-18)
(1515.98 27.4805 -2.69748e-18)
(1500.75 -4.31387 2.71019e-18)
(1500.65 1.36695 1.32916e-18)
(1501.16 0.159394 -1.32778e-18)
(1501.18 0.051885 5.27276e-22)
(1501.17 0.0164729 7.57421e-22)
(1501.16 0.0089976 5.27385e-22)
(1501.15 0.00623698 -6.64268e-19)
(1501.15 0.00513725 6.64499e-19)
(1501.14 0.00467806 3.31608e-19)
(1501.14 0.00365839 -2.48343e-19)
(1501.14 0.00144965 -8.12214e-20)
(1501.13 -0.00159494 0)
(1501.13 -0.00352261 -6.65022e-19)
(1501.13 -0.00381912 6.63692e-19)
(1501.13 -0.00486128 6.64203e-19)
(1501.13 -0.00673165 -6.64206e-19)
(1501.14 -0.00717779 7.57508e-22)
(1501.14 -0.00883473 -7.57446e-22)
(1501.14 -0.0176218 7.57297e-22)
(1501.16 -0.0563721 -1.32794e-18)
(1501.14 -0.165233 3.98385e-18)
(1500.65 -1.32964 -2.6562e-18)
(1500.77 4.54934 7.62395e-22)
(1518.15 -27.2954 -2.74087e-18)
(578.931 1.56857 0)
(584.701 -6.55568 0)
(586.324 0.163463 0)
(586.693 -0.0170309 0)
(586.75 0.0134402 -1.82704e-18)
(586.765 0.00675592 1.82646e-18)
(586.772 0.00482193 1.82656e-18)
(586.774 0.00400816 -2.74015e-18)
(586.775 0.00319105 9.13866e-19)
(586.777 0.00227728 5.79067e-22)
(586.776 0.00156972 -4.56696e-19)
(586.774 0.000664667 4.56078e-19)
(586.772 -0.000844624 0)
(586.767 -0.00171617 0)
(586.761 -0.0010617 5.79112e-22)
(586.756 -0.00124773 0)
(586.75 -0.00247538 5.41668e-22)
(586.742 -0.00298923 4.56653e-19)
(586.733 -0.0036686 -4.56655e-19)
(586.72 -0.00450426 0)
(586.697 -0.0121864 0)
(586.622 0.0148463 0)
(586.239 -0.153755 0)
(584.652 6.66757 0)
(577.161 -1.43135 0)
(132.195 0.468672 0)
(138.724 -0.403618 6.10267e-19)
(139.716 0.0828942 -1.21984e-18)
(139.764 0.0031651 1.22169e-18)
(139.774 0.00337739 -6.10875e-19)
(139.778 0.00204405 0)
(139.779 0.0015929 -8.43102e-22)
(139.78 0.00147282 0)
(139.78 0.00138271 0)
(139.781 0.00117028 0)
(139.78 0.000953549 0)
(139.778 0.000790336 -8.43132e-22)
(139.777 0.000531251 -1.90911e-20)
(139.774 0.00035524 1.90911e-20)
(139.771 0.000506575 0)
(139.769 0.000479577 0)
(139.767 0.000240659 -3.97964e-22)
(139.763 0.00014953 -3.0588e-19)
(139.76 -1.69386e-05 3.05435e-19)
(139.755 -0.000208393 -6.10843e-19)
(139.75 -0.00181459 6.10838e-19)
(139.735 -0.00252356 6.10723e-19)
(139.68 -0.0804111 -6.10702e-19)
(138.692 0.412299 0)
(132.113 -0.454643 0)
(16.1006 -0.016578 3.65473e-19)
(17.0235 -0.0396475 0)
(17.1225 -0.00076077 0)
(17.1244 7.72169e-05 0)
(17.1251 0.00014238 0)
(17.1254 0.000125889 3.5343e-22)
(17.1255 0.00011786 3.5343e-22)
(17.1255 0.000115445 9.16909e-20)
(17.1256 0.000112551 -9.09839e-20)
(17.1256 0.000108381 4.53153e-20)
(17.1255 0.000105253 -4.60222e-20)
(17.1254 0.000102921 0)
(17.1253 9.84808e-05 0)
(17.125 9.51731e-05 -3.53431e-22)
(17.1248 9.83044e-05 0)
(17.1246 9.80565e-05 -3.53431e-22)
(17.1244 9.35919e-05 1.81781e-19)
(17.1241 9.20572e-05 -1.81781e-19)
(17.1238 8.87512e-05 3.65703e-19)
(17.1235 8.58656e-05 -3.6535e-19)
(17.1231 6.42067e-05 3.53431e-22)
(17.1219 0.000112666 0)
(17.1194 0.00102179 0)
(17.021 0.0411384 0)
(16.0995 0.0179719 0)
(10.0825 -0.00427316 0)
(10.1376 -0.00448849 1.81143e-19)
(10.1416 -0.000180957 -1.81023e-19)
(10.1416 -5.05658e-06 0)
(10.1416 2.41823e-06 1.81018e-19)
(10.1416 2.51143e-06 -9.0866e-20)
(10.1416 2.42899e-06 -3.56939e-22)
(10.1416 2.39773e-06 -4.56116e-20)
(10.1416 2.35541e-06 -9.08664e-20)
(10.1416 2.29906e-06 3.4298e-20)
(10.1416 2.26112e-06 3.56941e-22)
(10.1416 2.23331e-06 5.62151e-20)
(10.1416 2.17687e-06 -4.52549e-20)
(10.1416 2.13262e-06 7.10455e-22)
(10.1416 2.17558e-06 -9.051e-20)
(10.1416 2.17599e-06 9.0867e-20)
(10.1416 2.1152e-06 3.56942e-22)
(10.1416 2.09826e-06 -3.56943e-22)
(10.1416 2.05588e-06 -3.56943e-22)
(10.1415 2.04448e-06 -1.81021e-19)
(10.1415 2.13798e-06 1.80664e-19)
(10.1415 1.10235e-05 0)
(10.1415 0.000217956 0)
(10.1377 0.00561307 -3.62306e-19)
(10.0904 0.00537306 -1.09646e-23)
(10.0054 0.00064759 -1.1351e-20)
(10.0026 0.000699945 1.13141e-20)
(10.0026 1.69916e-05 0)
(10.0025 8.24059e-07 -5.52351e-24)
(10.0025 7.76064e-08 -5.52357e-24)
(10.0025 4.88368e-08 0)
(10.0025 4.52183e-08 0)
(10.0025 4.45033e-08 -1.80997e-19)
(10.0025 4.3678e-08 1.81004e-19)
(10.0025 4.28379e-08 0)
(10.0025 4.24489e-08 3.62014e-19)
(10.0025 4.20349e-08 3.53574e-22)
(10.0025 4.11143e-08 -3.6202e-19)
(10.0025 4.0436e-08 -3.59104e-22)
(10.0025 4.11569e-08 0)
(10.0025 4.12875e-08 7.24056e-19)
(10.0025 4.02372e-08 5.52411e-24)
(10.0025 3.98193e-08 -1.44814e-18)
(10.0025 3.75849e-08 7.24081e-19)
(10.0025 -6.04878e-09 5.52437e-24)
(10.0025 -6.20885e-07 0)
(10.0025 -1.57443e-05 7.24106e-19)
(10.0025 -0.000299049 -7.24141e-19)
(10.0023 -0.0102155 7.24482e-19)
(10.0034 -0.00984979 -7.26335e-19)
(9.99105 0.0130354 3.59905e-22)
(9.99945 0.0133115 -1.44573e-18)
(10 0.000396011 1.76445e-22)
(10.0001 1.97353e-05 5.51372e-24)
(10.0001 8.35844e-07 -1.70923e-22)
(10.0001 5.79876e-08 0)
(10.0001 2.76913e-09 -7.22673e-19)
(10.0001 1.10162e-09 7.22657e-19)
(10.0001 1.01945e-09 0)
(10.0001 1.00143e-09 -1.76429e-22)
(10.0001 9.92261e-10 -1.76427e-22)
(10.0001 9.84194e-10 0)
(10.0001 9.65767e-10 0)
(10.0001 9.51431e-10 -3.47331e-22)
(10.0001 9.66157e-10 -1.76421e-22)
(10.0001 9.69121e-10 5.51311e-24)
(10.0001 9.47335e-10 -1.8193e-22)
(10.0001 8.8928e-10 -5.51301e-24)
(10.0001 -3.56359e-10 -3.61296e-19)
(10.0001 -4.11919e-08 -5.51241e-24)
(10.0001 -6.17276e-07 3.61466e-19)
(10.0001 -1.45414e-05 1.81922e-22)
(10 -0.000296451 7.22584e-19)
(9.99937 -0.00987596 -7.22923e-19)
(9.98005 -0.00968701 5.5271e-24)
(9.86373 0.000478746 1.80849e-19)
(9.99514 -0.00122495 0)
(9.99972 -0.000216766 -1.76125e-22)
(9.99999 -1.40399e-05 -1.80345e-19)
(10 -9.15132e-07 3.60949e-19)
(10 -4.05144e-08 -3.60775e-19)
(10 -1.90691e-09 8.80804e-23)
(10 -6.83097e-11 1.8039e-19)
(10 -9.19006e-13 0)
(10 1.51053e-12 -1.80127e-19)
(10 1.52159e-12 1.80568e-19)
(10 1.36575e-12 0)
(10 1.0414e-12 0)
(10 7.15097e-13 4.40419e-22)
(10 1.0734e-12 1.76169e-22)
(10 1.27673e-12 1.80398e-19)
(10 4.65044e-12 -1.80223e-19)
(10 1.05529e-10 0)
(10 2.76257e-09 1.80401e-19)
(10 6.64553e-08 -3.60716e-19)
(10 1.31825e-06 1.80227e-19)
(9.99999 2.33718e-05 -1.76137e-22)
(9.99973 0.000399915 0)
(9.99529 0.00666743 0)
(9.87018 0.0047968 0)
(9.74187 -0.14636 -1.25714e-17)
(9.93922 -0.156912 1.25872e-17)
(9.99711 -0.00735585 0)
(9.99984 -0.000394161 -6.26322e-18)
(9.99999 -2.03731e-05 6.26377e-18)
(10 -1.2237e-06 0)
(10 -4.77776e-08 -6.21196e-21)
(10 -1.91602e-09 -3.13106e-18)
(10 -6.86806e-11 3.12439e-18)
(10 -2.25758e-12 -6.20885e-21)
(10 2.53994e-13 0)
(10 2.42829e-13 -7.82217e-19)
(10 2.40054e-13 1.16697e-18)
(10 2.33807e-13 -3.97149e-19)
(10 3.23678e-13 -6.1072e-21)
(10 2.8494e-12 0)
(10 6.89634e-11 0)
(10 1.8994e-09 -6.24907e-18)
(10 4.73182e-08 6.24141e-18)
(10 1.203e-06 -6.24455e-18)
(9.99999 2.01268e-05 6.23676e-18)
(9.99985 0.000385677 6.23976e-18)
(9.99718 0.00717982 -6.23232e-18)
(9.94192 0.152416 -1.25162e-17)
(9.73889 0.141718 -3.34071e-20)
(9.73074 -0.258047 -1.42183e-17)
(9.84914 -0.274778 1.42824e-17)
(9.99228 -0.0145505 0)
(9.99952 -0.000896033 1.42158e-17)
(9.99998 -4.95319e-05 -1.42175e-17)
(10 -3.25608e-06 -7.11371e-18)
(10 -1.39048e-07 7.12604e-18)
(10 -6.02963e-09 -7.12318e-18)
(10 -2.33187e-10 7.1272e-18)
(10 -9.11281e-12 6.96404e-21)
(10 -3.0586e-13 0)
(10 -5.87923e-14 -4.46179e-19)
(10 -9.9978e-14 4.5337e-19)
(10 -2.41506e-14 6.97803e-21)
(10 3.71656e-13 6.98094e-21)
(10 1.02196e-11 6.98386e-21)
(10 2.61815e-10 0)
(10 6.73884e-09 0)
(10 1.54621e-07 -1.43129e-17)
(10 3.58227e-06 1.43213e-17)
(9.99997 5.42378e-05 -1.43264e-17)
(9.99946 0.000971086 2.86698e-17)
(9.99132 0.0156163 -1.43444e-17)
(9.83367 0.28827 -7.01442e-21)
(9.71046 0.270801 7.06534e-21)
(9.72884 -0.332658 -1.56745e-17)
(9.78569 -0.352161 8.4173e-20)
(9.98805 -0.0207055 3.12658e-17)
(9.99918 -0.00142667 -1.56398e-17)
(9.99995 -8.53606e-05 0)
(10 -6.11635e-06 1.56396e-17)
(10 -2.8653e-07 -1.5643e-17)
(10 -1.35199e-08 0)
(10 -5.64865e-10 7.64122e-21)
(10 -2.37836e-11 0)
(10 -7.553e-13 0)
(10 9.64013e-15 0)
(10 4.3535e-15 9.78625e-19)
(10 -1.71615e-14 -9.78671e-19)
(10 8.43449e-13 -7.64598e-21)
(10 2.33418e-11 -7.64597e-21)
(10 5.53599e-10 0)
(10 1.33033e-08 0)
(10 2.82218e-07 0)
(10 6.06379e-06 -1.56561e-17)
(9.99996 8.43108e-05 3.13246e-17)
(9.99919 0.00142044 -1.56682e-17)
(9.98816 0.0206394 -1.56596e-17)
(9.78464 0.354167 1.56817e-17)
(9.74259 0.335251 -7.70178e-21)
(9.72958 -0.39202 1.70791e-17)
(9.7454 -0.413657 0)
(9.98462 -0.0267311 0)
(9.99885 -0.00200845 -1.69177e-17)
(9.99993 -0.00012945 1.69179e-17)
(10 -9.97553e-06 0)
(10 -5.09426e-07 2.06507e-21)
(10 -2.59581e-08 8.45812e-18)
(10 -1.17789e-09 -8.45546e-18)
(10 -5.35717e-11 0)
(10 -2.13693e-12 -2.11394e-18)
(10 -3.8485e-14 2.11572e-18)
(10 -1.20466e-15 -1.05665e-18)
(10 -1.8574e-14 1.05847e-18)
(10 2.00829e-12 8.25094e-21)
(10 4.8498e-11 -8.44652e-18)
(10 1.06607e-09 1.68898e-17)
(10 2.37736e-08 5.13971e-27)
(10 4.68133e-07 -8.43805e-18)
(10 9.33075e-06 -1.68699e-17)
(9.99994 0.000120566 1.68529e-17)
(9.99894 0.00190922 1.02883e-20)
(9.98577 0.0255195 2.0572e-21)
(9.75599 0.406329 1.69618e-17)
(9.76254 0.385833 9.59338e-20)
(9.77526 -0.429108 0)
(9.74128 -0.45101 0)
(9.98363 -0.0309044 0)
(9.99868 -0.00248801 0)
(9.99992 -0.000169814 0)
(9.99999 -1.40305e-05 1.7901e-17)
(10 -7.70093e-07 -1.78879e-17)
(10 -4.22202e-08 1.74514e-20)
(10 -2.06855e-09 -2.17949e-21)
(10 -1.02021e-10 4.45955e-18)
(10 -4.42474e-12 -4.47281e-18)
(10 -7.80608e-14 -3.69483e-20)
(10 1.32186e-14 -1.38965e-19)
(10 1.38471e-13 1.54003e-19)
(10 3.66626e-12 -4.43742e-18)
(10 8.57545e-11 4.4327e-18)
(10 1.75135e-09 1.51339e-20)
(10 3.58736e-08 0)
(10 6.59109e-07 0)
(10 1.21162e-05 0)
(9.99993 0.000148529 -1.7627e-17)
(9.99892 0.00219526 1.44484e-20)
(9.98642 0.0277507 1.75884e-17)
(9.78088 0.415524 2.1482e-21)
(9.79314 0.394065 2.16283e-21)
(9.81528 -0.414893 0)
(9.79283 -0.437058 4.54332e-21)
(9.98616 -0.031637 0)
(9.99883 -0.00265727 -1.85989e-17)
(9.99992 -0.000193567 3.72337e-17)
(9.99999 -1.66924e-05 -1.863e-17)
(10 -9.85781e-07 0)
(10 -5.74092e-08 -1.82226e-20)
(10 -3.04168e-09 0)
(10 -1.6036e-10 0)
(10 -7.46613e-12 -2.31499e-18)
(10 -3.07743e-13 2.3715e-18)
(10 4.37602e-14 2.34112e-18)
(10 5.62431e-13 -2.3608e-18)
(10 9.77391e-12 0)
(10 2.06878e-10 -9.38115e-18)
(10 3.90603e-09 9.36807e-18)
(10 7.23554e-08 9.39607e-18)
(10 1.22771e-06 -9.39638e-18)
(9.99999 2.01477e-05 0)
(9.99989 0.000233297 0)
(9.99849 0.00308686 -1.83794e-20)
(9.98226 0.0361375 -1.88408e-17)
(9.75459 0.46934 3.7871e-17)
(9.73641 0.444261 -1.8933e-17)
(9.83736 -0.473324 -2.01718e-17)
(9.77021 -0.496713 2.02648e-17)
(9.98314 -0.0396621 0)
(9.99848 -0.00360958 -2.01165e-17)
(9.99989 -0.000284387 -4.8255e-21)
(9.99999 -2.63406e-05 3.02346e-17)
(10 -1.69885e-06 -2.01807e-17)
(10 -1.06752e-07 1.00991e-17)
(10 -6.15124e-09 0)
(10 -3.51132e-10 0)
(10 -1.79522e-11 -4.94341e-21)
(10 -9.67849e-13 1.48418e-20)
(10 5.81068e-14 0)
(10 1.08901e-12 0)
(10 2.14349e-11 5.0763e-18)
(10 4.1683e-10 -5.07944e-18)
(10 7.25036e-09 -1.01649e-17)
(10 1.24862e-07 2.03266e-17)
(10 1.9681e-06 4.11468e-25)
(9.99999 3.01436e-05 -1.01719e-17)
(9.99987 0.00032188 0)
(9.99816 0.0040421 0)
(9.97986 0.0436842 -2.04201e-17)
(9.73108 0.536542 2.04716e-17)
(9.81939 0.511933 -5.04036e-21)
(10.0883 -0.344967 2.03648e-17)
(9.90808 -0.357854 -9.88571e-21)
(9.99419 -0.0264749 1.00898e-17)
(9.99947 -0.00242584 -1.00946e-17)
(9.99997 -0.000190177 -4.92337e-21)
(10 -1.86649e-05 9.84544e-21)
(10 -1.22929e-06 1.00803e-17)
(10 -8.11145e-08 -1.51182e-17)
(10 -4.93754e-09 5.04351e-18)
(10 -3.03425e-10 0)
(10 -1.67896e-11 -2.51352e-18)
(10 -8.93531e-13 2.51308e-18)
(10 -4.11879e-15 0)
(10 8.58927e-13 4.91582e-21)
(10 1.5176e-11 -2.51133e-18)
(10 2.76189e-10 2.51558e-18)
(10 4.48787e-09 0)
(10 7.4316e-08 -1.0047e-17)
(10 1.12924e-06 1.00539e-17)
(10 1.74098e-05 1.00411e-17)
(9.99997 0.000176072 -2.01006e-17)
(9.99956 0.00229337 1.00497e-17)
(9.99511 0.0250564 0)
(9.91591 0.350031 2.02134e-17)
(10.1356 0.337955 7.46716e-20)
(10.3187 -0.0997221 9.52506e-21)
(10.0103 -0.101976 1.00582e-17)
(10.0012 -0.00720898 -5.01181e-18)
(10.0001 -0.00066158 -5.00768e-18)
(10 -5.3888e-05 7.51508e-18)
(10 -5.36705e-06 -5.00555e-18)
(10 -3.57561e-07 5.00573e-18)
(10 -2.41531e-08 -5.00408e-18)
(10 -1.52049e-09 -4.88579e-21)
(10 -9.63347e-11 2.501e-18)
(10 -5.45815e-12 1.24536e-18)
(10 -2.98743e-13 -4.27254e-21)
(10 -1.2715e-13 -1.25036e-18)
(10 1.15296e-13 -4.27162e-21)
(10 2.97327e-12 -5.49091e-21)
(10 5.19768e-11 -1.56152e-19)
(10 8.12929e-10 -2.42006e-30)
(10 1.28575e-08 4.68232e-19)
(10 1.88932e-07 -3.12075e-19)
(10 2.85941e-06 0)
(10 2.82257e-05 1.25259e-18)
(10.0001 0.000348635 -3.7473e-18)
(10.0014 0.00370059 4.99111e-18)
(10.0141 0.0532208 -7.51222e-18)
(10.2933 0.0520698 7.53583e-18)
(10.2003 0.386758 -1.96186e-20)
(9.89324 0.396677 -2.02422e-20)
(9.99301 0.0303661 2.01884e-20)
(9.99941 0.0026955 -6.30324e-22)
(9.99996 0.000215615 -1.95278e-20)
(10 2.14683e-05 -2.07748e-20)
(10 1.42243e-06 -6.29146e-22)
(10 9.45666e-08 0)
(10 5.83612e-09 0)
(10 3.64476e-10 5.12391e-18)
(10 2.03686e-11 -5.14058e-18)
(10 1.03507e-12 -6.27105e-22)
(10 -6.02042e-14 6.26507e-22)
(10 -7.44614e-13 -6.6207e-19)
(10 -1.50312e-11 6.41575e-19)
(10 -2.71979e-10 0)
(10 -4.35696e-09 0)
(10 -7.15291e-08 -5.11624e-18)
(10 -1.0861e-06 5.09229e-18)
(10 -1.68352e-05 -1.99555e-20)
(9.99998 -0.000168496 0)
(9.99968 -0.00217471 0)
(9.99609 -0.0248063 -2.05352e-20)
(9.92866 -0.34133 -2.05607e-20)
(10.2245 -0.33243 2.04812e-17)
(9.7591 0.558474 -2.0986e-17)
(9.68267 0.584239 -2.09874e-17)
(9.97285 0.0539886 2.0945e-17)
(9.99761 0.00484238 0)
(9.99982 0.000408821 2.05001e-20)
(9.99999 3.79777e-05 1.05234e-17)
(10 2.55044e-06 -2.10187e-17)
(10 1.62683e-07 1.05156e-17)
(10 9.61662e-09 -1.05317e-17)
(10 5.53329e-10 1.05476e-17)
(10 2.86833e-11 2.62278e-18)
(10 1.37921e-12 -3.28258e-18)
(10 -4.84047e-14 -6.58697e-19)
(10 -1.48354e-12 1.32856e-18)
(10 -3.03583e-11 0)
(10 -5.83868e-10 0)
(10 -1.0109e-08 1.05564e-17)
(10 -1.7081e-07 -2.11178e-17)
(10 -2.66713e-06 1.0582e-17)
(9.99998 -3.96632e-05 2.06295e-20)
(9.99981 -0.000423472 2.11389e-17)
(9.99745 -0.00502412 -1.38016e-21)
(9.97129 -0.0556092 -6.33655e-17)
(9.66314 -0.603915 6.34809e-17)
(9.78059 -0.578881 -2.13823e-17)
(9.68005 0.45529 9.28813e-21)
(9.73814 0.481416 -1.90142e-17)
(9.97889 0.0412739 1.8979e-17)
(9.99828 0.00336783 0)
(9.99987 0.000267062 0)
(9.99999 2.25992e-05 0)
(10 1.39924e-06 0)
(10 8.20952e-08 0)
(10 4.46678e-09 -4.76176e-18)
(10 2.34391e-10 9.54024e-18)
(10 1.11315e-11 -7.16756e-18)
(10 5.32334e-13 2.68046e-18)
(10 -8.47072e-14 -2.9901e-19)
(10 -5.89617e-13 -7.70686e-36)
(10 -1.34226e-11 -4.79165e-18)
(10 -2.81965e-10 4.79447e-18)
(10 -5.33442e-09 0)
(10 -9.70489e-08 0)
(10 -1.6375e-06 -1.9201e-17)
(9.99999 -2.60371e-05 1.92184e-17)
(9.99985 -0.000304908 -1.87776e-20)
(9.99794 -0.00377447 9.39357e-21)
(9.97506 -0.0455334 -9.39952e-21)
(9.7016 -0.512634 -9.42366e-21)
(9.63699 -0.484838 0)
(9.73981 0.364031 -1.73668e-17)
(9.80505 0.384591 1.71714e-17)
(9.98626 0.0285762 -1.68332e-20)
(9.99898 0.00209416 1.724e-17)
(9.99993 0.000150278 -1.72437e-17)
(10 1.17948e-05 0)
(10 6.55401e-07 -8.62534e-18)
(10 3.53088e-08 8.61844e-18)
(10 1.75142e-09 -4.31413e-18)
(10 8.49277e-11 8.64635e-18)
(10 3.67933e-12 -4.30687e-18)
(10 2.49329e-13 1.68585e-20)
(10 -1.02536e-13 0)
(10 -1.59576e-13 2.1667e-18)
(10 -4.03389e-12 2.1584e-18)
(10 -9.34028e-11 -4.30857e-18)
(10 -1.91945e-09 -8.64268e-18)
(10 -3.83229e-08 8.64279e-18)
(10 -7.0659e-07 -8.64275e-18)
(9.99999 -1.25317e-05 8.63415e-18)
(9.99992 -0.000159618 8.43147e-21)
(9.9989 -0.00219291 -8.43107e-21)
(9.98528 -0.0296562 0)
(9.79715 -0.389753 8.44144e-21)
(9.70643 -0.367807 0)
(9.7931 0.287853 1.59053e-17)
(9.86171 0.303866 -1.575e-17)
(9.99149 0.0196097 6.74795e-21)
(9.99943 0.00130194 0)
(9.99997 8.48466e-05 0)
(10 6.23496e-06 -9.6309e-22)
(10 3.12284e-07 0)
(10 1.55574e-08 7.69966e-21)
(10 7.0856e-10 0)
(10 3.20568e-11 3.93177e-18)
(10 1.29084e-12 -5.90703e-18)
(10 5.53339e-14 2.93799e-18)
(10 -1.32596e-15 -9.82334e-19)
(10 -2.70873e-14 0)
(10 -1.11186e-12 0)
(10 -2.94721e-11 3.92155e-18)
(10 -6.51143e-10 -1.17788e-17)
(10 -1.4322e-08 7.84587e-18)
(10 -2.878e-07 -7.85096e-18)
(10 -5.77324e-06 7.84543e-18)
(9.99997 -7.87249e-05 0)
(9.99948 -0.00121483 0)
(9.99237 -0.018337 0)
(9.87432 -0.289312 -9.57223e-22)
(9.80591 -0.27372 -1.56898e-17)
(9.86768 0.221291 -2.67598e-21)
(9.91078 0.233047 1.45973e-17)
(9.99533 0.01278 -1.45772e-17)
(9.99971 0.000781125 0)
(9.99998 4.59795e-05 0)
(10 3.22456e-06 8.90423e-22)
(10 1.44916e-07 7.29902e-18)
(10 6.75383e-09 -7.29297e-18)
(10 2.83e-10 3.56325e-21)
(10 1.21241e-11 3.56372e-21)
(10 4.47893e-13 3.56417e-21)
(10 7.38272e-15 -8.90931e-22)
(10 2.05341e-15 -8.90824e-22)
(10 4.00017e-14 1.82144e-18)
(10 -4.22707e-13 -1.82919e-18)
(10 -1.22045e-11 4.45748e-21)
(10 -2.84077e-10 4.45784e-21)
(10 -6.80118e-09 0)
(10 -1.45913e-07 -7.30027e-18)
(10 -3.26179e-06 7.30248e-18)
(9.99998 -4.63321e-05 0)
(9.9997 -0.000790608 -1.46115e-17)
(9.99524 -0.0129559 1.46124e-17)
(9.90812 -0.237304 8.92739e-22)
(9.87567 -0.225749 -1.46469e-17)
(9.8988 0.201487 3.3962e-21)
(9.92085 0.211347 0)
(9.99631 0.0104606 0)
(9.99978 0.000601206 -6.95319e-18)
(9.99999 3.27012e-05 6.9472e-18)
(10 2.22245e-06 0)
(10 9.14845e-08 6.94532e-18)
(10 4.04588e-09 -6.9528e-18)
(10 1.57469e-10 3.47841e-18)
(10 6.44107e-12 -3.47871e-18)
(10 1.9505e-13 1.7344e-18)
(10 7.18666e-14 -1.7439e-18)
(10 -1.51869e-14 0)
(10 -8.20345e-14 -1.73394e-18)
(10 -2.09238e-13 1.74162e-18)
(10 -6.72619e-12 -3.39513e-21)
(10 -1.63458e-10 -3.39526e-21)
(10 -4.18375e-09 6.79073e-21)
(10 -9.46338e-08 6.95049e-18)
(10 -2.28547e-06 -6.95062e-18)
(9.99999 -3.37352e-05 -6.79111e-21)
(9.99977 -0.000616257 -6.79116e-21)
(9.99614 -0.0107233 0)
(9.91838 -0.214018 -6.79756e-21)
(9.88845 -0.203854 3.40111e-21)
(9.90111 0.175213 1.26072e-23)
(9.93415 0.183999 0)
(9.99714 0.00842364 1.25757e-23)
(9.99984 0.000459508 6.42529e-21)
(9.99999 2.36185e-05 -1.25719e-23)
(10 1.54445e-06 -6.59016e-18)
(10 5.96209e-08 6.589e-18)
(10 2.51907e-09 0)
(10 9.27623e-11 -6.43222e-21)
(10 3.68141e-12 -1.25605e-23)
(10 1.52392e-13 -1.25581e-23)
(10 6.2202e-14 6.43824e-21)
(10 1.6268e-14 0)
(10 -6.86201e-14 0)
(10 -1.58782e-13 -1.25476e-23)
(10 -3.40719e-12 -1.25448e-23)
(10 -8.59337e-11 -3.28781e-18)
(10 -2.34328e-09 9.85469e-18)
(10 -5.54896e-08 -6.5725e-18)
(10 -1.44918e-06 0)
(9.99999 -2.21157e-05 -6.56287e-18)
(9.99986 -0.000433933 6.57406e-18)
(9.99742 -0.00795164 1.25233e-23)
(9.93938 -0.176961 6.41515e-21)
(9.91185 -0.168497 1.2541e-23)
(9.92607 0.146135 -4.02375e-20)
(9.95083 0.15344 -3.55567e-20)
(9.99809 0.00630766 1.25291e-17)
(9.9999 0.000329794 -6.2736e-18)
(10 1.57861e-05 6.26329e-18)
(10 1.00747e-06 -6.27129e-18)
(10 3.60083e-08 6.27315e-18)
(10 1.46347e-09 -3.1375e-18)
(10 5.06208e-11 3.1384e-18)
(10 1.95119e-12 1.19755e-23)
(10 6.17166e-14 1.19788e-23)
(10 -7.47759e-14 -1.1977e-23)
(10 3.71047e-14 7.79163e-19)
(10 -2.01713e-14 7.85415e-19)
(10 -8.81969e-14 -1.57777e-18)
(10 -2.08498e-12 1.19949e-23)
(10 -5.55964e-11 6.29038e-18)
(10 -1.60261e-09 -1.25777e-17)
(10 -3.9353e-08 6.29348e-18)
(10 -1.09513e-06 0)
(9.99999 -1.71285e-05 -1.20097e-23)
(9.99988 -0.000355806 1.20125e-23)
(9.99781 -0.00681213 -1.20148e-23)
(9.94445 -0.163099 -1.25744e-17)
(9.92272 -0.155559 1.26556e-17)
(9.93746 0.135805 1.18004e-20)
(9.9548 0.142338 0)
(9.99837 0.00544634 0)
(9.99992 0.000273941 5.89119e-21)
(10 1.2401e-05 1.17819e-20)
(10 7.76152e-07 0)
(10 2.60683e-08 6.02585e-18)
(10 1.02619e-09 -6.0373e-18)
(10 3.36868e-11 5.88971e-21)
(10 1.25872e-12 -5.88935e-21)
(10 2.04095e-14 -1.50758e-18)
(10 -1.65131e-14 1.51302e-18)
(10 3.03188e-14 3.88526e-19)
(10 -3.20573e-14 -3.76642e-19)
(10 -5.81121e-14 1.51254e-18)
(10 -1.24087e-12 -4.52101e-18)
(10 -3.38413e-11 3.00786e-18)
(10 -1.02545e-09 -5.88569e-21)
(10 -2.61461e-08 5.88514e-21)
(10 -7.71253e-07 -6.0258e-18)
(10 -1.24448e-05 -5.88212e-21)
(9.99992 -0.000272293 2.69567e-23)
(9.99837 -0.005423 6.02964e-18)
(9.95578 -0.139941 5.88596e-21)
(9.92394 -0.133178 5.88888e-21)
(9.92792 0.11991 1.16415e-17)
(9.96158 0.125968 -1.15784e-17)
(9.99867 0.00458035 0)
(9.99993 0.000222088 -5.79681e-18)
(10 9.68384e-06 -5.66092e-21)
(10 5.86867e-07 5.79522e-18)
(10 1.888e-08 5.79652e-18)
(10 7.18725e-10 -5.78508e-18)
(10 2.27775e-11 -5.6535e-21)
(10 8.25883e-13 -2.88815e-18)
(10 2.82604e-15 1.44759e-18)
(10 -1.28368e-14 1.44153e-18)
(10 6.36179e-14 -5.64468e-21)
(10 5.98357e-14 0)
(10 -8.10842e-14 0)
(10 -7.32068e-13 0)
(10 -1.95741e-11 5.64077e-21)
(10 -6.27411e-10 1.40978e-21)
(10 -1.64427e-08 -7.0468e-21)
(10 -5.21149e-07 0)
(10 -8.51488e-06 5.63405e-21)
(9.99995 -0.000199102 1.40808e-21)
(9.99892 -0.00408431 -7.03803e-21)
(9.96746 -0.116636 -1.15145e-17)
(9.94547 -0.111083 1.15701e-17)
(9.94863 0.0927142 5.55872e-18)
(9.97563 0.0975431 -1.1091e-17)
(9.99924 0.00317827 1.10986e-17)
(9.99996 0.00015107 -5.54618e-18)
(10 6.16396e-06 -5.55899e-18)
(10 3.69912e-07 5.55416e-18)
(10 1.10861e-08 2.77465e-18)
(10 4.11961e-10 -2.78511e-18)
(10 1.22863e-11 1.38489e-18)
(10 4.50028e-13 -2.77616e-18)
(10 8.00087e-14 2.08461e-18)
(10 -8.37696e-14 -8.70807e-19)
(10 -4.67368e-14 1.73947e-19)
(10 1.00633e-13 -5.43865e-21)
(10 -3.0937e-14 2.78565e-18)
(10 -5.19351e-13 -2.79263e-18)
(10 -1.43961e-11 5.4455e-21)
(10 -4.80289e-10 5.58209e-18)
(10 -1.28982e-08 6.81128e-21)
(10 -4.26989e-07 -5.57615e-18)
(10 -7.10637e-06 0)
(9.99995 -0.000172738 5.58922e-18)
(9.99903 -0.0036547 -5.58537e-18)
(9.9694 -0.109449 -1.11532e-17)
(9.94613 -0.104323 2.28108e-20)
(9.96614 0.0879446 -5.41094e-18)
(9.9775 0.0921427 5.39081e-18)
(9.99936 0.00279739 2.63549e-21)
(9.99997 0.000130169 -7.90584e-21)
(10 5.03218e-06 2.63498e-21)
(10 3.0233e-07 5.39846e-18)
(10 8.55158e-09 -2.69496e-18)
(10 3.13247e-10 -2.69201e-18)
(10 8.98108e-12 5.26749e-21)
(10 2.63212e-13 -5.26685e-21)
(10 -5.23624e-14 2.6319e-21)
(10 9.92463e-14 -2.63156e-21)
(10 -1.67579e-14 0)
(10 -2.39516e-14 0)
(10 2.92402e-14 -1.34451e-18)
(10 -2.48252e-13 1.35224e-18)
(10 -8.72633e-12 -2.69946e-18)
(10 -3.02805e-10 -2.6307e-21)
(10 -8.31931e-09 2.69084e-18)
(10 -2.90725e-07 -7.88992e-21)
(10 -4.90823e-06 -5.38543e-18)
(9.99997 -0.000125511 5.37677e-18)
(9.99939 -0.00270285 0)
(9.97912 -0.0879943 -5.38117e-18)
(9.95347 -0.0836635 5.40062e-18)
(9.9555 0.0811196 0)
(9.97949 0.0851698 -5.26081e-18)
(9.99942 0.00251414 5.25439e-18)
(9.99997 0.000113863 2.56674e-21)
(10 4.30293e-06 2.56637e-21)
(10 2.51911e-07 -5.2574e-18)
(10 6.93151e-09 5.25695e-18)
(10 2.47582e-10 2.62712e-18)
(10 6.89601e-12 3.20606e-22)
(10 2.50802e-13 -2.626e-18)
(10 -3.11796e-14 -2.5629e-21)
(10 -3.07993e-14 2.88344e-21)
(10 6.20273e-14 0)
(10 4.03961e-14 5.12343e-21)
(10 3.82887e-15 -2.56152e-21)
(10 -2.56643e-13 1.31118e-18)
(10 -6.10384e-12 -1.31123e-18)
(10 -2.21972e-10 -2.56119e-21)
(10 -6.18282e-09 -2.88086e-21)
(10 -2.28885e-07 2.56034e-21)
(10 -3.85838e-06 -5.24268e-18)
(9.99998 -0.000104027 2.56848e-21)
(9.99952 -0.00227714 5.24075e-18)
(9.9823 -0.079717 0)
(9.96798 -0.0759909 5.24618e-18)
(9.96559 0.0630784 -1.02078e-17)
(9.98697 0.066367 5.08785e-18)
(9.99966 0.00179748 5.09384e-18)
(9.99998 8.10722e-05 -5.09491e-18)
(10 2.90897e-06 0)
(10 1.69836e-07 -3.11087e-22)
(10 4.42655e-09 0)
(10 1.5602e-10 -3.11204e-22)
(10 4.13575e-12 -3.11262e-22)
(10 1.965e-13 0)
(10 -4.0138e-14 0)
(10 -6.64884e-14 -3.11364e-22)
(10 6.0656e-14 0)
(10 2.06067e-16 0)
(10 -1.73918e-14 -1.27586e-18)
(10 -1.19051e-13 1.27599e-18)
(10 -4.74245e-12 -3.11713e-22)
(10 -1.76796e-10 -2.554e-18)
(10 -5.0164e-09 2.55476e-18)
(10 -1.91147e-07 0)
(10 -3.27934e-06 5.11066e-18)
(9.99998 -9.06896e-05 -1.02231e-17)
(9.99958 -0.00202695 1.02243e-17)
(9.98409 -0.0733955 -8.26607e-21)
(9.96357 -0.0699121 -5.12902e-18)
(9.97932 0.0606136 1.22066e-21)
(9.98786 0.0635218 -1.21933e-21)
(9.99971 0.00162313 0)
(9.99999 7.24965e-05 0)
(10 2.48663e-06 0)
(10 1.46325e-07 1.21832e-21)
(10 3.63763e-09 0)
(10 1.2756e-10 -1.21807e-21)
(10 3.27118e-12 0)
(10 1.34752e-13 -1.21775e-21)
(10 3.85629e-14 0)
(10 -9.48077e-14 -3.11553e-19)
(10 -4.58837e-15 3.10312e-19)
(10 6.72332e-14 0)
(10 3.36148e-14 1.2458e-18)
(10 -1.23938e-13 -2.49188e-18)
(10 -3.13344e-12 1.24485e-18)
(10 -1.19568e-10 0)
(10 -3.42888e-09 2.49157e-18)
(10 -1.36905e-07 -2.49128e-18)
(10 -2.35126e-06 4.98077e-18)
(9.99999 -6.80149e-05 -4.9814e-18)
(9.99973 -0.00152438 0)
(9.98921 -0.0593582 0)
(9.97148 -0.0564585 0)
(9.9695 0.0575309 -1.19788e-21)
(9.98838 0.0604007 1.1966e-21)
(9.99972 0.00152224 0)
(9.99999 6.64993e-05 0)
(10 2.25188e-06 0)
(10 1.2956e-07 -1.19584e-21)
(10 3.16655e-09 0)
(10 1.08826e-10 1.19564e-21)
(10 2.79087e-12 0)
(10 9.9626e-14 -1.22291e-18)
(10 -5.65456e-14 1.22286e-18)
(10 -3.49456e-14 -1.19494e-21)
(10 4.89727e-14 1.19458e-21)
(10 1.63299e-14 1.19473e-21)
(10 -1.54499e-14 0)
(10 -8.81916e-14 0)
(10 -2.42641e-12 1.19466e-21)
(10 -9.90337e-11 -2.44643e-18)
(10 -2.8598e-09 2.44619e-18)
(10 -1.19306e-07 0)
(10 -2.03903e-06 1.1942e-21)
(9.99999 -6.14322e-05 0)
(9.99977 -0.00139085 0)
(9.98989 -0.0570019 0)
(9.98094 -0.0543695 0)
(9.97477 0.0443967 -4.79529e-18)
(9.99278 0.0467348 4.77944e-18)
(9.99984 0.00109648 0)
(9.99999 4.81474e-05 -2.3374e-21)
(10 1.56212e-06 0)
(10 8.99635e-08 -2.39427e-18)
(10 2.10443e-09 4.78697e-18)
(10 7.1781e-11 -2.3927e-18)
(10 1.7239e-12 -1.20005e-18)
(10 2.8551e-14 1.19762e-18)
(10 4.15155e-14 5.84743e-22)
(10 5.34148e-14 1.55601e-19)
(10 -3.8512e-14 -1.49741e-19)
(10 -4.90731e-14 1.19252e-18)
(10 4.42731e-14 -1.19857e-18)
(10 -3.31323e-14 0)
(10 -2.09389e-12 -2.3422e-21)
(10 -8.44954e-11 0)
(10 -2.47982e-09 0)
(10 -1.04968e-07 -2.39951e-18)
(10 -1.83113e-06 2.40222e-18)
(9.99999 -5.58218e-05 0)
(9.99978 -0.00128616 4.79859e-18)
(9.99055 -0.0534801 -8.31771e-21)
(9.97239 -0.0509268 -9.62173e-18)
(9.98564 0.043004 4.71855e-18)
(9.99325 0.0450918 2.30257e-21)
(9.99986 0.00100875 4.71349e-18)
(9.99999 4.41361e-05 -2.35431e-18)
(10 1.37963e-06 -2.35643e-18)
(10 8.03163e-08 0)
(10 1.80745e-09 1.15043e-21)
(10 6.16621e-11 2.35474e-18)
(10 1.45951e-12 -2.35341e-18)
(10 5.46597e-14 0)
(10 -5.07371e-15 0)
(10 -2.171e-14 -3.44839e-21)
(10 1.32479e-14 4.59796e-21)
(10 -1.06673e-14 2.29909e-21)
(10 3.94995e-14 5.89695e-19)
(10 -6.939e-14 -5.88343e-19)
(10 -1.33319e-12 1.14952e-21)
(10 -5.73405e-11 2.35402e-18)
(10 -1.69368e-09 -4.70765e-18)
(10 -7.45292e-08 2.35363e-18)
(10 -1.29653e-06 -2.29828e-21)
(9.99999 -4.10808e-05 0)
(9.99987 -0.000939853 2.29786e-21)
(9.99406 -0.0416969 4.70492e-18)
(9.97753 -0.0396142 -9.43414e-18)
(9.97707 0.0411499 -4.65611e-18)
(9.99345 0.0432143 -4.65065e-18)
(9.99986 0.000960776 4.64777e-18)
(9.99999 4.12621e-05 2.32413e-18)
(10 1.28194e-06 -2.32455e-18)
(10 7.31759e-08 0)
(10 1.63066e-09 5.67304e-22)
(10 5.47294e-11 -1.7018e-21)
(10 1.28767e-12 1.16169e-18)
(10 1.63678e-14 -2.3223e-18)
(10 -2.85628e-14 1.16127e-18)
(10 3.43419e-15 2.89667e-19)
(10 6.01221e-14 -2.71536e-19)
(10 1.83882e-14 2.6991e-19)
(10 -1.23406e-14 -2.91322e-19)
(10 1.08983e-14 0)
(10 -1.18043e-12 1.70077e-21)
(10 -4.94344e-11 -5.66882e-22)
(10 -1.45988e-09 -2.32179e-18)
(10 -6.6826e-08 2.32105e-18)
(10 -1.14927e-06 0)
(9.99999 -3.77687e-05 0)
(9.99989 -0.000867837 -5.66671e-22)
(9.99448 -0.0403278 -4.6392e-18)
(9.98709 -0.0384517 4.95499e-21)
(9.98038 0.0309801 -2.29182e-18)
(9.99614 0.0326307 2.28412e-18)
(9.99992 0.000682558 5.57872e-22)
(10 2.96539e-05 0)
(10 8.88597e-07 2.28618e-18)
(10 5.09379e-08 -2.28366e-18)
(10 1.09498e-09 5.58147e-22)
(10 3.65912e-11 5.58213e-22)
(10 8.41615e-13 2.23312e-21)
(10 7.45297e-14 -2.85748e-19)
(10 6.20621e-14 1.42891e-19)
(10 -3.31457e-14 2.80822e-19)
(10 -1.02084e-13 -1.43482e-19)
(10 4.31956e-14 5.74118e-19)
(10 5.43473e-14 -5.71829e-19)
(10 -2.48205e-15 0)
(10 -1.03464e-12 1.67641e-21)
(10 -4.46013e-11 -2.28633e-18)
(10 -1.33479e-09 2.28716e-18)
(10 -6.14651e-08 5.58998e-22)
(10 -1.07833e-06 0)
(10 -3.55706e-05 0)
(9.99989 -0.000829983 5.59181e-22)
(9.99459 -0.0386746 -4.57825e-18)
(9.97866 -0.0368246 4.59307e-18)
(9.98952 0.0302067 2.20998e-21)
(9.9964 0.0316878 0)
(9.99993 0.00063719 -1.10328e-21)
(10 2.77143e-05 -2.25831e-18)
(10 8.05051e-07 2.26039e-18)
(10 4.67395e-08 -2.26137e-18)
(10 9.73364e-10 2.26014e-18)
(10 3.27124e-11 -1.12945e-18)
(10 6.66646e-13 1.12694e-18)
(10 -4.79629e-14 -5.64471e-19)
(10 1.92657e-14 5.64378e-19)
(10 3.09768e-14 -2.77796e-19)
(10 4.52311e-14 3.175e-19)
(10 -6.14239e-15 -3.74721e-20)
(10 -4.93549e-14 5.65353e-19)
(10 -2.61712e-14 -1.12735e-18)
(10 -6.1093e-13 -5.6663e-19)
(10 -2.98226e-11 1.1255e-18)
(10 -8.95554e-10 2.20456e-21)
(10 -4.25339e-08 -1.10222e-21)
(10 -7.42937e-07 0)