/*--------------------------------*- C++ -*----------------------------------*\
| =========                 |                                                 |
| \\      /  F ield         | OpenFOAM: The Open Source CFD Toolbox           |
|  \\    /   O peration     | Version:  2112                                  |
|   \\  /    A nd           | Website:  www.openfoam.com                      |
|    \\/     M anipulation  |                                                 |
\*---------------------------------------------------------------------------*/
FoamFile
{
    version     2.0;
    format      ascii;
    arch        "LSB;label=32;scalar=64";
    class       volScalarField;
    location    "0.00925";
    object      alphat;
}
// * * * * * * * * * * * * * * * * * * * * * * * * * * * * * * * * * * * * * //

dimensions      [1 -1 -1 0 0 0 0];

internalField   nonuniform List<scalar> 
13875
(
0.119861
0.0816033
0.0784516
0.0782931
0.078317
0.0783766
0.0782787
0.0782922
0.0783067
0.0782818
0.0782833
0.0783105
0.0783876
0.0784124
0.0783939
0.078297
0.0782556
0.078295
0.0783036
0.0783543
0.0783204
0.0782665
0.078484
0.0814716
0.120937
0.103938
0.0576792
0.0570796
0.0571676
0.0566502
0.0566667
0.0570442
0.0571515
0.0571731
0.0571434
0.0571151
0.0571168
0.0566621
0.0566161
0.056668
0.0570969
0.0571183
0.0571522
0.0570736
0.0566794
0.0566743
0.0571391
0.057064
0.0573808
0.104545
0.110619
0.0553251
0.0558749
0.0547243
0.0545818
0.0544858
0.0543023
0.0543887
0.0543921
0.0543199
0.054193
0.0543355
0.0542516
0.0542777
0.0542404
0.0543495
0.0541079
0.0542527
0.0542808
0.0544501
0.0545304
0.0546019
0.0557865
0.0550807
0.111131
0.115885
0.0546444
0.0553806
0.0543146
0.0540486
0.053944
0.0537141
0.0536355
0.0535635
0.0534751
0.0534023
0.0534761
0.0537044
0.0537407
0.0536925
0.0534829
0.053364
0.0534626
0.0536338
0.053905
0.0539994
0.0542026
0.0551982
0.0542798
0.115795
0.121033
0.0546337
0.0551193
0.0537415
0.0536751
0.0535127
0.0532042
0.0531333
0.0530635
0.0529816
0.0529148
0.0529856
0.0532216
0.0532645
0.0532151
0.0529942
0.0528763
0.0529545
0.053109
0.0534738
0.0536075
0.0536126
0.0550227
0.0543175
0.12142
0.12441
0.0547446
0.0551872
0.0536014
0.0533019
0.0531016
0.0528223
0.0526965
0.0526272
0.0525506
0.0524752
0.0525344
0.0527766
0.0528479
0.0527657
0.0525391
0.0524474
0.0525454
0.0527325
0.0530516
0.0532383
0.0535049
0.0548876
0.0543879
0.124137
0.128749
0.0564749
0.0557837
0.0534519
0.0532728
0.0528998
0.0524408
0.0523093
0.0522307
0.0521613
0.0520969
0.0521555
0.0524077
0.0524747
0.0523967
0.0521486
0.0520763
0.0521605
0.0523569
0.0528618
0.0531949
0.0533643
0.0556469
0.0563485
0.129025
0.135708
0.061198
0.0578374
0.0544101
0.0534071
0.0528511
0.0522998
0.0520675
0.0519539
0.0518679
0.0518034
0.051826
0.0521053
0.0521842
0.0520816
0.0518208
0.0518051
0.0519222
0.0522171
0.052786
0.0533244
0.0542779
0.0575161
0.061028
0.135612
0.151314
0.069249
0.0615447
0.0559277
0.0544166
0.0531558
0.0522502
0.0519112
0.0517766
0.0516928
0.0516308
0.051637
0.0519375
0.0520256
0.0519206
0.0516212
0.0516528
0.0517992
0.0521597
0.0530929
0.0542261
0.0556198
0.0610317
0.0684081
0.154169
0.239341
0.0874426
0.0664659
0.0589959
0.0553859
0.0537096
0.0525626
0.0520641
0.0518318
0.0517524
0.0517096
0.0516805
0.052003
0.0521077
0.0519964
0.0517089
0.0517617
0.051946
0.0524378
0.0536057
0.0552581
0.0586534
0.0660082
0.0866859
0.241129
0.36542
0.118426
0.07596
0.0629294
0.0575687
0.0547862
0.0531629
0.0526151
0.05232
0.0522265
0.0521848
0.0521276
0.0524445
0.0525673
0.0524881
0.0522578
0.0523097
0.0525485
0.0530324
0.0546163
0.0573266
0.0616299
0.0748304
0.11303
0.365686
0.658441
0.193107
0.103978
0.0743924
0.0613465
0.0573081
0.055157
0.0541456
0.0536781
0.0535163
0.0534273
0.0533576
0.0536193
0.0537676
0.0537647
0.0536696
0.0537548
0.0541562
0.0551188
0.056821
0.061891
0.0733922
0.100184
0.182928
0.643656
0.582238
0.436621
0.175926
0.0921656
0.0767644
0.0649336
0.059649
0.0577692
0.0568921
0.0565807
0.0564104
0.0563359
0.0564954
0.056658
0.0567741
0.0568658
0.0571272
0.057929
0.0598439
0.0653123
0.0763335
0.089736
0.172117
0.433714
0.581369
0.491795
0.40097
0.34687
0.326258
0.115726
0.0802628
0.0733993
0.0675316
0.0650725
0.0642963
0.0638644
0.0636826
0.0637307
0.0639084
0.0642098
0.0647189
0.0656805
0.0683662
0.0749557
0.0830932
0.131168
0.328345
0.337549
0.401488
0.500203
0.408476
0.349681
0.329256
0.333477
0.300898
0.199688
0.126979
0.0945253
0.0864873
0.0858322
0.085238
0.0849465
0.0849886
0.0851786
0.0856417
0.0865887
0.0875594
0.0953636
0.134046
0.212943
0.302285
0.330291
0.331372
0.360387
0.421849
0.32987
0.293376
0.282213
0.300902
0.312525
0.321288
0.244255
0.191426
0.171175
0.148443
0.136352
0.132323
0.130898
0.131654
0.134361
0.14324
0.171613
0.195427
0.249586
0.324118
0.307791
0.303907
0.29164
0.298534
0.342012
0.239113
0.227187
0.225286
0.264504
0.318516
0.400192
0.530062
0.565021
0.539729
0.537664
0.55739
0.570678
0.578181
0.574404
0.561322
0.551332
0.539613
0.568146
0.531723
0.396356
0.314144
0.266868
0.230441
0.234605
0.252075
0.140433
0.152488
0.185658
0.226793
0.311589
0.43203
0.562987
0.617313
0.562073
0.512473
0.494951
0.491568
0.494273
0.49315
0.498664
0.530868
0.567258
0.606797
0.565194
0.43747
0.310237
0.229207
0.177479
0.143076
0.131235
0.0685571
0.103205
0.165418
0.2502
0.350094
0.408599
0.473509
0.533704
0.501063
0.45351
0.43345
0.430442
0.432045
0.435131
0.441678
0.463286
0.497275
0.527711
0.488061
0.427559
0.372276
0.265277
0.168454
0.104737
0.070486
0.0268541
0.0526834
0.113502
0.229611
0.346207
0.362775
0.384988
0.426962
0.425458
0.403149
0.390557
0.384927
0.382463
0.390454
0.398697
0.4064
0.414761
0.41483
0.389714
0.378061
0.363081
0.228362
0.112028
0.0520068
0.0259497
0.0795653
0.0885682
0.114881
0.186241
0.275318
0.286066
0.307212
0.351727
0.370389
0.361918
0.34959
0.338522
0.333301
0.344644
0.356779
0.361883
0.357221
0.338029
0.307614
0.295866
0.282788
0.185906
0.113448
0.0891851
0.0845107
0.125314
0.153525
0.12903
0.156524
0.207522
0.224835
0.251994
0.29819
0.322789
0.320507
0.308316
0.294392
0.287844
0.300421
0.315171
0.319975
0.310465
0.285461
0.248104
0.230408
0.210581
0.153874
0.125563
0.150584
0.125711
0.171107
0.165888
0.133183
0.134405
0.164327
0.181087
0.211557
0.255988
0.281265
0.281166
0.268624
0.253823
0.24712
0.258726
0.273738
0.278995
0.26878
0.245911
0.206033
0.183627
0.16582
0.134416
0.129966
0.161803
0.17227
0.210717
0.197654
0.134672
0.123936
0.138684
0.154779
0.180201
0.219955
0.242608
0.244221
0.232098
0.218192
0.212201
0.222677
0.237043
0.242511
0.23177
0.210753
0.176196
0.155501
0.139522
0.123979
0.13299
0.203348
0.206102
0.231587
0.235315
0.137753
0.11948
0.122795
0.135073
0.156671
0.188998
0.208626
0.210258
0.200008
0.187519
0.182503
0.191841
0.205062
0.209839
0.199776
0.181548
0.153704
0.134451
0.123025
0.121424
0.137455
0.24368
0.228053
0.254253
0.263484
0.138134
0.116014
0.112069
0.121179
0.138605
0.164555
0.180121
0.181905
0.173304
0.162158
0.157563
0.165545
0.177324
0.181378
0.172867
0.157602
0.135978
0.120885
0.112625
0.117405
0.138746
0.27096
0.25125
0.282669
0.278258
0.139134
0.112804
0.105691
0.109903
0.124365
0.1438
0.15592
0.15663
0.149633
0.140295
0.136592
0.143684
0.153677
0.156811
0.149981
0.138013
0.121311
0.108626
0.106577
0.114194
0.14159
0.290701
0.276194
0.311639
0.296618
0.138818
0.108175
0.100537
0.101826
0.112656
0.126951
0.135369
0.135946
0.130167
0.122282
0.119098
0.125095
0.134003
0.13719
0.132024
0.122424
0.110136
0.100913
0.101633
0.10987
0.142054
0.306988
0.305121
0.342433
0.326315
0.143266
0.105849
0.0979493
0.0952937
0.102888
0.112744
0.119161
0.118747
0.113898
0.107227
0.104341
0.109539
0.116594
0.119083
0.115702
0.108929
0.100467
0.094216
0.0985105
0.106482
0.14395
0.321388
0.336131
0.370495
0.340707
0.143588
0.101693
0.0935584
0.0907645
0.0953784
0.101416
0.104917
0.104278
0.100075
0.0943589
0.0920071
0.096375
0.102839
0.105391
0.10305
0.0979667
0.0927389
0.0886551
0.0939197
0.103003
0.145759
0.343931
0.363025
0.385754
0.34591
0.149074
0.100923
0.09123
0.0863285
0.0890322
0.0909532
0.0932038
0.0918494
0.0884496
0.0838009
0.0815174
0.0856461
0.0908611
0.0929472
0.0919695
0.0889779
0.086888
0.0848241
0.0906893
0.101066
0.148754
0.348828
0.387771
0.39546
0.345566
0.153009
0.0992671
0.0864955
0.0815495
0.0835189
0.0836523
0.0840188
0.0824302
0.0791243
0.0746221
0.0727672
0.0760687
0.0810143
0.0832403
0.0830214
0.0812764
0.0815717
0.0794842
0.0858892
0.0994405
0.150715
0.348781
0.402075
0.414061
0.33989
0.158665
0.100528
0.0844973
0.0780167
0.0790338
0.0764136
0.0759144
0.0737188
0.0709142
0.0672769
0.0653329
0.068659
0.0727066
0.074618
0.0753381
0.0749454
0.0771499
0.0763045
0.0829677
0.0997885
0.158288
0.352246
0.411942
0.421732
0.333407
0.163347
0.101004
0.0808457
0.0742328
0.0736107
0.0707794
0.0690821
0.0668936
0.0641798
0.0605372
0.0590928
0.0616949
0.0658111
0.0680516
0.0690821
0.0694519
0.0722873
0.0721316
0.0798735
0.0999368
0.165483
0.343172
0.422265
0.428354
0.331493
0.163966
0.104069
0.0806861
0.0719609
0.0697778
0.0656284
0.0635598
0.0607295
0.0583404
0.0554136
0.0537712
0.0564133
0.0596534
0.0614844
0.0634055
0.064607
0.0684702
0.0701745
0.0785282
0.102158
0.169238
0.341283
0.431551
0.434888
0.323062
0.161878
0.105644
0.0804125
0.0686823
0.0652615
0.0610498
0.0586091
0.0558808
0.0534513
0.050416
0.0492312
0.0512973
0.0547479
0.0569605
0.0587855
0.059886
0.064357
0.0673563
0.0785245
0.105252
0.167422
0.335746
0.434043
0.440316
0.324831
0.16191
0.110993
0.0824668
0.0674269
0.0626042
0.056695
0.0543133
0.0512563
0.0491064
0.0466747
0.0453346
0.0474985
0.0502261
0.0520783
0.054648
0.0561192
0.0617222
0.0658812
0.0801323
0.109983
0.166313
0.33233
0.440324
0.436891
0.323494
0.159795
0.118283
0.083949
0.0655721
0.0590084
0.0531296
0.0504965
0.0478516
0.045613
0.0429925
0.0419601
0.0436539
0.0466659
0.0487137
0.0507494
0.0521327
0.0581393
0.0642346
0.0813231
0.11788
0.161482
0.330127
0.440609
0.432946
0.322392
0.15647
0.122201
0.0873981
0.0666523
0.0574039
0.0499983
0.0472342
0.0442355
0.042314
0.0401706
0.0390583
0.0409305
0.0432603
0.0448981
0.0476811
0.0495106
0.0562349
0.0649881
0.085509
0.121923
0.157296
0.332695
0.434928
0.422805
0.323331
0.149574
0.122139
0.0921802
0.0667691
0.0549011
0.0472228
0.0442074
0.041666
0.0396867
0.0374064
0.0365339
0.037955
0.0406664
0.0424984
0.0446942
0.0466571
0.054107
0.0651173
0.089099
0.121847
0.15002
0.328824
0.427657
0.410996
0.323464
0.145216
0.121964
0.100225
0.0694663
0.0551177
0.0454721
0.0420597
0.0389137
0.0371543
0.0352738
0.034311
0.0358743
0.0379489
0.039386
0.0425101
0.0450783
0.0539025
0.0674556
0.0970056
0.121327
0.145955
0.332402
0.417011
0.405799
0.320859
0.139667
0.119806
0.107471
0.0712472
0.0543878
0.0442005
0.0399231
0.0370892
0.0351721
0.0331305
0.0323569
0.033553
0.0360511
0.037762
0.0404065
0.0435869
0.0536503
0.0695938
0.108669
0.120305
0.14287
0.328045
0.403845
0.396789
0.322259
0.137546
0.116277
0.10763
0.0766152
0.0555972
0.0441202
0.0388447
0.0349799
0.033172
0.0314522
0.0306218
0.0319887
0.0339051
0.0354215
0.0394153
0.043648
0.0544935
0.0744777
0.10879
0.117333
0.140334
0.32728
0.39754
0.387915
0.317874
0.136921
0.111014
0.106366
0.0844247
0.0568555
0.0439362
0.0378692
0.0339511
0.0317862
0.0298
0.0290786
0.0301245
0.0325305
0.0343266
0.0381082
0.0433783
0.0558273
0.0819232
0.107768
0.112166
0.138762
0.326319
0.3892
0.381556
0.315355
0.135255
0.106366
0.103752
0.0931432
0.0611858
0.0447121
0.0380891
0.0327585
0.0303202
0.0285213
0.0277337
0.0289967
0.0308693
0.0328654
0.0384514
0.0444504
0.0602031
0.093947
0.105181
0.107954
0.140411
0.322476
0.380354
0.374618
0.314037
0.136095
0.102744
0.0990052
0.0928189
0.0678766
0.0459406
0.0377879
0.032751
0.0296692
0.0273529
0.0266092
0.0276271
0.0303655
0.0328041
0.0380188
0.0455763
0.0669847
0.0935993
0.10059
0.103779
0.138938
0.31875
0.375489
0.362375
0.307351
0.137951
0.100287
0.0944538
0.0914064
0.0787767
0.0499387
0.038951
0.0325112
0.0291014
0.0268156
0.025756
0.0271486
0.0295006
0.032427
0.0389704
0.0492765
0.0774347
0.0924053
0.0957128
0.100878
0.139696
0.316238
0.366597
0.352773
0.303028
0.137048
0.0985794
0.0908299
0.0889131
0.0790091
0.0561311
0.0398576
0.0328231
0.0292851
0.0264427
0.0250897
0.0265958
0.02992
0.0329336
0.0399281
0.0557225
0.0785637
0.0891542
0.0915698
0.0991601
0.140301
0.310251
0.35469
0.326475
0.291475
0.136525
0.0974195
0.0877417
0.0846006
0.0781226
0.0654997
0.0436986
0.0332198
0.0291876
0.0265872
0.0250834
0.0268213
0.0295175
0.0331642
0.0437685
0.0655268
0.0781301
0.085039
0.088255
0.0978586
0.139075
0.29846
0.3284
0.296048
0.272532
0.132341
0.0959855
0.0854173
0.0806573
0.0764868
0.0677703
0.0490914
0.0355425
0.0299318
0.0265442
0.0251391
0.0266591
0.0304386
0.0353214
0.0490956
0.0683227
0.0764223
0.0801995
0.0853918
0.0962126
0.134086
0.279842
0.298841
0.128131
0.556001
0.739898
0.797654
0.787344
0.775685
0.748917
0.718786
0.675558
0.623052
0.563293
0.504126
0.445693
0.395887
0.360037
0.338417
0.32523
0.316039
0.308569
0.301759
0.294912
0.287975
0.280589
0.271379
0.259417
0.244423
0.223945
0.194334
0.150477
0.103561
0.121138
0.58231
0.761095
0.814863
0.802908
0.791454
0.766872
0.736012
0.691382
0.63601
0.567938
0.501035
0.441272
0.389753
0.351313
0.328108
0.313897
0.304145
0.296718
0.290271
0.284159
0.277909
0.270927
0.262061
0.250403
0.235793
0.215969
0.18724
0.144175
0.10072
0.131364
0.644277
0.793975
0.835992
0.823491
0.810134
0.787133
0.758608
0.71507
0.659105
0.587372
0.516421
0.45118
0.395647
0.354614
0.329221
0.313132
0.301842
0.29358
0.286468
0.279446
0.272727
0.26599
0.257171
0.2453
0.230088
0.210282
0.181765
0.139924
0.0988667
0.140581
0.67537
0.824069
0.857691
0.844784
0.829954
0.80889
0.783135
0.741881
0.685986
0.61271
0.534587
0.4621
0.400726
0.355496
0.327196
0.309396
0.297251
0.288418
0.280933
0.273722
0.267053
0.260465
0.251727
0.239941
0.22475
0.20499
0.176038
0.135425
0.0967118
0.145729
0.702683
0.855667
0.88303
0.868099
0.855189
0.835463
0.812133
0.774471
0.719668
0.645848
0.561643
0.484599
0.416295
0.36617
0.334102
0.313394
0.299375
0.289133
0.280677
0.273127
0.266632
0.260728
0.251773
0.239191
0.222575
0.202251
0.173284
0.133157
0.0958931
0.150096
0.733954
0.889586
0.911265
0.894239
0.882358
0.865014
0.843921
0.810613
0.757923
0.682077
0.595168
0.51271
0.437157
0.380879
0.342925
0.317887
0.301343
0.289308
0.279997
0.273619
0.267081
0.259055
0.248259
0.23531
0.219556
0.198526
0.170116
0.130655
0.0948133
0.155373
0.765534
0.924474
0.941967
0.922098
0.908351
0.892947
0.875083
0.847062
0.798682
0.723723
0.635781
0.547422
0.465606
0.40324
0.358558
0.328386
0.308625
0.294288
0.283742
0.276303
0.267297
0.257249
0.245811
0.232623
0.21701
0.196315
0.167612
0.128948
0.0946834
0.160593
0.797633
0.960613
0.975318
0.944905
0.928911
0.916628
0.903861
0.881188
0.839601
0.769101
0.681436
0.589301
0.502197
0.430375
0.376811
0.340576
0.316259
0.298803
0.286275
0.275667
0.265943
0.254547
0.242199
0.228675
0.213089
0.192302
0.163828
0.126302
0.0935464
0.166263
0.82831
0.995754
1.00275
0.963589
0.945627
0.936548
0.928511
0.913079
0.880412
0.818598
0.733627
0.641362
0.547668
0.465576
0.402303
0.357282
0.326919
0.305738
0.289689
0.276337
0.265303
0.25296
0.240381
0.226499
0.210327
0.189101
0.160674
0.124011
0.0927973
0.170716
0.859648
1.02683
1.02656
0.981309
0.96043
0.953803
0.950922
0.942542
0.919898
0.869163
0.79056
0.700317
0.604121
0.51399
0.440168
0.383771
0.343412
0.315053
0.293421
0.27694
0.263182
0.250356
0.237599
0.223468
0.206909
0.185517
0.157257
0.121539
0.0917364
0.174459
0.885485
1.05303
1.04921
0.999248
0.974714
0.968997
0.970595
0.969026
0.956447
0.914153
0.847563
0.764662
0.668052
0.571255
0.48623
0.416284
0.363702
0.326456
0.299608
0.27913
0.262359
0.248781
0.23554
0.220889
0.204019
0.18244
0.154232
0.119314
0.0910345
0.178052
0.9066
1.07702
1.07115
1.0177
0.988948
0.982486
0.987518
0.990708
0.98249
0.953948
0.902494
0.830322
0.738008
0.637324
0.542185
0.45733
0.389967
0.341487
0.30638
0.28197
0.262742
0.247871
0.23386
0.218615
0.200993
0.179283
0.151184
0.117218
0.0900433
0.180932
0.925786
1.09949
1.09212
1.03527
1.00226
0.994092
1.0003
1.00555
0.999828
0.987438
0.952669
0.89419
0.810421
0.7107
0.60802
0.508617
0.425277
0.363316
0.318405
0.288935
0.266035
0.24867
0.232756
0.216444
0.198468
0.176505
0.148394
0.115488
0.0895018
0.182616
0.945108
1.11957
1.11035
1.04892
1.01211
1.00048
1.00689
1.01201
1.01486
1.01408
0.995116
0.951321
0.879845
0.787824
0.682422
0.5713
0.471993
0.394337
0.337779
0.298975
0.270476
0.249768
0.232036
0.214328
0.195087
0.172751
0.144773
0.113558
0.0887726
0.183937
0.961059
1.13491
1.12446
1.05876
1.01738
1.00095
1.00392
1.01386
1.02512
1.03349
1.02846
0.999663
0.942765
0.864317
0.7634
0.645775
0.532004
0.436481
0.364348
0.313487
0.27758
0.252267
0.232041
0.212092
0.192914
0.170492
0.142852
0.111339
0.0881164
0.184373
0.970881
1.14557
1.13314
1.06577
1.01913
0.997875
0.995598
1.01061
1.02947
1.04487
1.05077
1.03612
0.995016
0.933481
0.844032
0.727649
0.603117
0.489313
0.397978
0.332695
0.287184
0.256027
0.231411
0.212152
0.192076
0.169
0.141168
0.109933
0.0874398
0.183538
0.972298
1.15397
1.13376
1.06971
1.0178
0.992916
0.98835
1.00443
1.02979
1.05051
1.06371
1.05925
1.03256
0.986576
0.912377
0.807138
0.680698
0.552274
0.44106
0.358502
0.300033
0.260915
0.233877
0.212421
0.191192
0.167432
0.139493
0.108669
0.0864075
0.182861
0.967702
1.15675
1.12709
1.06944
1.01399
0.985202
0.982016
0.998318
1.0257
1.05109
1.06761
1.0703
1.05561
1.0235
0.962247
0.872212
0.755823
0.6211
0.494615
0.391878
0.317922
0.268479
0.237267
0.212779
0.190299
0.165621
0.137289
0.106738
0.0851105
0.179898
0.954622
1.14678
1.11756
1.06324
1.00692
0.978834
0.976502
0.992292
1.01909
1.04753
1.06435
1.07242
1.06839
1.04934
1.00595
0.933527
0.829278
0.696425
0.557287
0.435055
0.342708
0.281781
0.242498
0.214134
0.189816
0.163868
0.134972
0.104618
0.0841742
0.17738
0.938869
1.12563
1.10106
1.05108
0.997127
0.972735
0.971085
0.986647
1.01269
1.03771
1.05765
1.07104
1.07534
1.06815
1.04063
0.984349
0.896756
0.772035
0.627341
0.489146
0.375592
0.300082
0.251128
0.217456
0.190358
0.162986
0.133196
0.10301
0.0834022
0.172973
0.910102
1.09091
1.07769
1.03214
0.986419
0.966125
0.965897
0.981276
1.00548
1.02974
1.05369
1.07062
1.0806
1.08113
1.06545
1.02511
0.952094
0.843296
0.702077
0.552308
0.419272
0.325073
0.263757
0.222745
0.192066
0.163007
0.132263
0.101753
0.0825787
0.169189
0.87754
1.04603
1.04696
1.00799
0.974244
0.959373
0.96162
0.977684
0.999827
1.0253
1.05238
1.07265
1.08647
1.09022
1.08276
1.05599
0.995889
0.906535
0.77693
0.623403
0.473788
0.358156
0.280339
0.229791
0.194431
0.16306
0.13116
0.100501
0.082208
0.162583
0.826149
0.98195
0.993247
0.97978
0.960488
0.953047
0.957785
0.973735
0.997603
1.02419
1.05196
1.07537
1.09056
1.09453
1.09188
1.07669
1.02916
0.959227
0.847301
0.697619
0.535726
0.39956
0.30213
0.240182
0.198154
0.163903
0.130625
0.0995658
0.0815811
0.159173
0.750192
0.891647
0.927518
0.94407
0.944401
0.946707
0.955317
0.972427
0.999162
1.02595
1.05131
1.07425
1.0911
1.09595
1.09517
1.08991
1.05555
1.00085
0.908188
0.769336
0.60413
0.449365
0.33004
0.253586
0.203374
0.165517
0.130913
0.0990462
0.0813014
0.139491
0.564022
0.723652
0.829501
0.899417
0.924484
0.939012
0.953116
0.973347
0.999896
1.02582
1.04944
1.07043
1.09106
1.09671
1.0981
1.10152
1.07648
1.03448
0.960637
0.838537
0.677727
0.508019
0.366067
0.272058
0.211115
0.168586
0.131983
0.0988958
0.0811979
0.101948
0.148135
0.191788
0.220601
0.24031
0.254953
0.266968
0.276352
0.283393
0.289823
0.296302
0.302803
0.310246
0.319913
0.333985
0.357385
0.393488
0.44423
0.500121
0.560139
0.621416
0.676448
0.719272
0.749698
0.777028
0.790018
0.800448
0.74216
0.554691
0.127202
0.099242
0.14215
0.184493
0.212635
0.231938
0.246255
0.25785
0.266877
0.273538
0.279356
0.285218
0.291459
0.298882
0.309132
0.324
0.348731
0.388037
0.439118
0.499099
0.565663
0.634383
0.691599
0.736817
0.767348
0.792102
0.804737
0.818055
0.763426
0.581181
0.120387
0.0974391
0.137985
0.178982
0.207172
0.227105
0.242071
0.253418
0.261932
0.268857
0.275301
0.281658
0.288485
0.296658
0.308164
0.324544
0.351763
0.39356
0.44724
0.512674
0.584569
0.655425
0.714113
0.757592
0.785809
0.808462
0.823499
0.838083
0.796226
0.642829
0.130399
0.0952618
0.13368
0.173634
0.201814
0.221808
0.237098
0.248515
0.256983
0.264012
0.270474
0.276966
0.283987
0.2926
0.304558
0.322873
0.352457
0.39752
0.456647
0.531223
0.610365
0.682778
0.739216
0.780163
0.805945
0.826593
0.8428
0.858467
0.825509
0.67402
0.13962
0.094581
0.131493
0.171061
0.199768
0.219999
0.235792
0.24787
0.256524
0.263893
0.270941
0.278121
0.285903
0.29572
0.309148
0.329458
0.361755
0.410408
0.476713
0.55757
0.641906
0.715705
0.770753
0.807669
0.830842
0.85023
0.865467
0.882897
0.855843
0.700653
0.144518
0.0936454
0.129162
0.168441
0.197601
0.217636
0.232782
0.245335
0.254623
0.262371
0.270082
0.278193
0.287022
0.298438
0.314102
0.337697
0.374236
0.428573
0.502923
0.58798
0.676451
0.752878
0.805002
0.83811
0.856985
0.875677
0.890597
0.910585
0.888983
0.73124
0.148652
0.0939505
0.127996
0.16638
0.194998
0.216108
0.231738
0.244823
0.255531
0.264092
0.272456
0.281739
0.29231
0.305801
0.324406
0.352177
0.394005
0.454924
0.5354
0.624913
0.714828
0.791359
0.840514
0.86832
0.882184
0.901441
0.917402
0.939779
0.922974
0.762049
0.153951
0.0928759
0.125576
0.162878
0.191057
0.212633
0.229754
0.243537
0.25548
0.265104
0.273514
0.284275
0.297189
0.313743
0.336923
0.371257
0.421476
0.490769
0.576871
0.669815
0.757681
0.831058
0.873582
0.895413
0.906629
0.92139
0.938498
0.971756
0.958078
0.79316
0.15879
0.0920742
0.12342
0.159948
0.18806
0.209989
0.227382
0.241711
0.254773
0.267299
0.277185
0.289232
0.304887
0.32593
0.355108
0.398591
0.458733
0.537388
0.628878
0.720566
0.805556
0.870906
0.904367
0.918665
0.927116
0.937161
0.956147
0.997208
0.992027
0.822862
0.164317
0.0910143
0.12104
0.156751
0.18503
0.206825
0.224134
0.238967
0.252641
0.265965
0.280276
0.294806
0.314221
0.341324
0.380345
0.434728
0.505653
0.59262
0.687137
0.776493
0.855481
0.909612
0.93258
0.939565
0.944193
0.951036
0.972913
1.0199
1.02166
0.853256
0.168582
0.0903398
0.11899
0.153913
0.182309
0.204026
0.221372
0.236505
0.250671
0.265141
0.282217
0.301827
0.326998
0.361656
0.410786
0.477248
0.560394
0.654811
0.750979
0.834654
0.902692
0.94604
0.958228
0.958224
0.959017
0.964575
0.990154
1.0419
1.04706
0.878527
0.172057
0.0893612
0.117015
0.151077
0.179154
0.201032
0.218255
0.233454
0.248008
0.26429
0.28458
0.30933
0.341396
0.386912
0.450149
0.531104
0.624757
0.723734
0.816511
0.890628
0.944096
0.974254
0.980737
0.974535
0.971969
0.97812
1.00805
1.06327
1.07051
0.899283
0.175721
0.088734
0.115359
0.148681
0.176579
0.198639
0.216884
0.232972
0.24825
0.26603
0.290103
0.321229
0.362042
0.42104
0.500139
0.594891
0.696595
0.795768
0.880879
0.941455
0.977817
0.991514
0.995661
0.987096
0.983524
0.991609
1.0255
1.08368
1.09242
0.917998
0.178527
0.0879423
0.11347
0.146275
0.174093
0.196268
0.215239
0.232366
0.24969
0.271072
0.299383
0.338466
0.391275
0.465854
0.56112
0.667766
0.773057
0.866816
0.938651
0.980258
1.0033
1.00599
1.00334
0.994088
0.992361
1.00263
1.04021
1.10164
1.11174
0.936711
0.180196
0.0872259
0.111874
0.144077
0.17208
0.194199
0.21424
0.232677
0.252083
0.277225
0.312943
0.363401
0.431876
0.523997
0.6342
0.747951
0.850455
0.931804
0.988749
1.01428
1.01953
1.0152
1.00606
0.995019
0.994048
1.00929
1.05125
1.11522
1.12622
0.95271
0.181549
0.0865162
0.110407
0.141986
0.170115
0.193059
0.213455
0.233811
0.256124
0.286824
0.331415
0.396534
0.483924
0.594542
0.71634
0.83065
0.923319
0.988222
1.02876
1.04298
1.03319
1.0165
1.00197
0.990009
0.991003
1.01129
1.05937
1.12467
1.13684
0.96225
0.182075
0.0854197
0.108461
0.139202
0.167745
0.192321
0.213577
0.235614
0.262221
0.300061
0.355435
0.43796
0.54653
0.673231
0.799695
0.905716
0.982032
1.03041
1.05676
1.0606
1.04168
1.02018
0.993898
0.980283
0.986486
1.01057
1.06408
1.12788
1.14449
0.964091
0.181318
0.0836304
0.105835
0.137107
0.165842
0.191394
0.214022
0.238214
0.270803
0.317947
0.38741
0.486342
0.613234
0.748432
0.870162
0.960896
1.02209
1.05669
1.07213
1.06721
1.04596
1.01824
0.989979
0.972165
0.978088
1.00776
1.06439
1.12261
1.14834
0.959944
0.180764
0.0829082
0.104348
0.135353
0.16446
0.190934
0.215611
0.243519
0.283002
0.342525
0.430042
0.548161
0.685014
0.820052
0.930616
1.00461
1.05041
1.07174
1.07626
1.06648
1.04559
1.01213
0.984533
0.968643
0.97083
1.00175
1.05881
1.114
1.13969
0.947298
0.177951
0.0822811
0.102934
0.133789
0.163517
0.19113
0.218199
0.251181
0.300051
0.374735
0.48218
0.617414
0.761286
0.887526
0.982398
1.04071
1.07079
1.08009
1.07524
1.06109
1.0381
1.007
0.978995
0.963282
0.965923
0.993297
1.04723
1.09798
1.12021
0.932376
0.175576
0.0815665
0.101041
0.13194
0.163088
0.192205
0.22256
0.2622
0.322852
0.415192
0.543352
0.691578
0.834127
0.94517
1.02412
1.06615
1.08495
1.08628
1.07574
1.05816
1.03153
1.00347
0.974183
0.958551
0.959913
0.982795
1.02964
1.07365
1.08746
0.90468
0.171395
0.0806899
0.0998272
0.130855
0.162736
0.193676
0.228394
0.276679
0.351805
0.463864
0.611659
0.766036
0.899488
0.99332
1.05742
1.08504
1.09585
1.0935
1.07948
1.05816
1.02874
1.0004
0.970467
0.954761
0.95412
0.970917
1.00539
1.04375
1.04383
0.87311
0.167852
0.0805526
0.0991398
0.130282
0.163429
0.196746
0.23698
0.296035
0.389182
0.521312
0.682085
0.834803
0.952868
1.02975
1.08072
1.09693
1.10248
1.0991
1.08365
1.05882
1.02872
0.998489
0.968632
0.952494
0.948578
0.957187
0.977634
0.992184
0.980782
0.822861
0.161474
0.0805584
0.0989669
0.130945
0.16529
0.20142
0.248392
0.320805
0.434526
0.585299
0.750375
0.893903
0.992961
1.05734
1.09632
1.10384
1.10541
1.10079
1.08398
1.05918
1.03159
1.00127
0.969744
0.951783
0.943099
0.941607
0.942287
0.926887
0.892009
0.747933
0.158052
0.0804864
0.0990066
0.132212
0.168391
0.20851
0.26383
0.352441
0.487965
0.654284
0.817482
0.947207
1.02733
1.08024
1.10884
1.10926
1.10671
1.10082
1.08118
1.05889
1.03253
1.00361
0.974363
0.95028
0.936134
0.92266
0.89835
0.830211
0.726695
0.564177
0.138682
0.515433
0.526869
0.543653
0.56097
0.579001
0.59112
0.599966
0.605646
0.608727
0.609791
0.609589
0.60834
0.606634
0.60495
0.603394
0.602033
0.601001
0.600339
0.600044
0.599916
0.600012
0.600345
0.600852
0.601453
0.601928
0.602259
0.602404
0.602338
0.602025
0.601488
0.600833
0.59995
0.598734
0.59707
0.595202
0.593392
0.590777
0.588126
0.585044
0.581654
0.577941
0.573878
0.569418
0.564504
0.559364
0.553845
0.547888
0.541461
0.534541
0.527219
0.519505
0.511385
0.50286
0.493949
0.484718
0.475216
0.465474
0.455518
0.445364
0.435043
0.424607
0.414198
0.404069
0.394037
0.384055
0.37415
0.364291
0.354487
0.344737
0.335078
0.325533
0.316166
0.307
0.298072
0.289396
0.280974
0.272727
0.264622
0.256561
0.248454
0.240072
0.231453
0.22277
0.213824
0.204606
0.19506
0.185252
0.175207
0.165102
0.15495
0.145044
0.13548
0.126417
0.118104
0.110605
0.104015
0.0984922
0.0938164
0.089868
0.0867941
0.0843089
0.0823423
0.0809186
0.0799485
0.0793025
0.0788797
0.0786815
0.0786317
0.0784886
0.0784367
0.0787769
0.0791025
0.0793372
0.0797318
0.0801028
0.0803883
0.0805749
0.0807686
0.0808425
0.0808115
0.0807024
0.0804752
0.0805308
0.0805106
0.0804897
5.24605
5.34581
5.46081
5.56065
5.63787
5.69999
5.71148
5.7008
5.67087
5.63051
5.58667
5.5441
5.50518
5.47122
5.44289
5.42093
5.40501
5.39349
5.38443
5.37718
5.37345
5.37514
5.381
5.38701
5.39279
5.39784
5.40174
5.40447
5.4068
5.4082
5.40471
5.39583
5.38129
5.3612
5.33611
5.30605
5.27193
5.23434
5.19393
5.151
5.10562
5.05808
5.00907
4.9548
4.89826
4.83888
4.77627
4.7105
4.64124
4.56822
4.49249
4.41375
4.33218
4.24799
4.1615
4.07294
3.9823
3.88946
3.79426
3.69639
3.59522
3.48877
3.37436
3.25642
3.13713
3.02113
2.90606
2.79185
2.67829
2.56608
2.4564
2.34957
2.24629
2.14725
2.05295
1.96392
1.8803
1.80199
1.72876
1.66032
1.59616
1.53569
1.47782
1.42219
1.36813
1.31321
1.25796
1.20087
1.14101
1.07765
1.01062
0.940025
0.866623
0.791338
0.716072
0.64227
0.57157
0.505082
0.443877
0.388727
0.339875
0.297447
0.261082
0.23058
0.20519
0.184271
0.167183
0.15359
0.142301
0.133272
0.126603
0.121108
0.11675
0.113799
0.111918
0.110484
0.108969
0.107118
0.105338
0.103742
0.102155
0.101027
0.100222
0.0996154
0.0992217
8.04776
8.16384
8.33399
8.50132
8.64398
8.75293
8.8259
8.86366
8.87376
8.86483
8.84472
8.8195
8.79341
8.76962
8.74951
8.73327
8.72081
8.71219
8.70716
8.69977
8.69326
8.68997
8.68999
8.68757
8.68281
8.6754
8.66429
8.64897
8.6306
8.60568
8.57409
8.53535
8.48921
8.43589
8.37587
8.30932
8.23725
8.16013
8.07871
7.99351
7.90469
7.81246
7.71693
7.61714
7.513
7.40459
7.29206
7.17559
7.05398
6.92495
6.7956
6.66198
6.52501
6.38492
6.24042
6.09465
5.94628
5.7954
5.64197
5.48619
5.32826
5.16791
5.00526
4.84044
4.67364
4.50167
4.3296
4.15992
3.99605
3.83461
3.67432
3.51629
3.36146
3.21032
3.065
2.92576
2.7925
2.66517
2.54391
2.42829
2.31804
2.21324
2.11342
2.0185
1.92823
1.84171
1.75858
1.67894
1.60011
1.52322
1.4479
1.37383
1.30105
1.22945
1.15905
1.08897
1.01889
0.948683
0.87805
0.807644
0.737539
0.66944
0.603791
0.542061
0.484794
0.43275
0.386067
0.345066
0.308971
0.27788
0.252304
0.230279
0.21213
0.197805
0.18691
0.178294
0.171176
0.163492
0.156647
0.150758
0.145574
0.14155
0.138462
0.135973
0.133913
9.52829
9.63006
9.80517
9.98714
10.152
10.2871
10.3895
10.4613
10.508
10.5362
10.552
10.5603
10.5648
10.5678
10.5703
10.5726
10.5751
10.5785
10.5823
10.5793
10.573
10.5662
10.5601
10.5499
10.5339
10.5129
10.4864
10.4532
10.4115
10.3611
10.3023
10.2348
10.1591
10.0756
9.98476
9.8873
9.78416
9.6762
9.56365
9.4474
9.32769
9.20463
9.07812
8.94759
8.81316
8.67477
8.53244
8.38623
8.23578
8.08093
7.92253
7.76081
7.59624
7.42931
7.25078
7.07856
6.90298
6.72526
6.54585
6.36431
6.18158
5.9972
5.81163
5.62522
5.43836
5.25151
5.06394
4.87392
4.68027
4.4892
4.30594
4.12993
3.95821
3.79068
3.62589
3.46463
3.30808
3.15653
3.0101
2.87066
2.73845
2.61319
2.49446
2.38202
2.27542
2.17433
2.0788
1.98855
1.9026
1.82086
1.7438
1.66865
1.597
1.52791
1.46081
1.395
1.33014
1.26608
1.20228
1.13935
1.07662
1.01445
0.951769
0.888735
0.825657
0.76204
0.699281
0.637599
0.578683
0.523319
0.471879
0.424609
0.382121
0.347368
0.318805
0.293881
0.272602
0.250942
0.232084
0.216167
0.202565
0.192251
0.184487
0.178277
0.172599
10.4863
10.5474