/*--------------------------------*- C++ -*----------------------------------*\
| =========                 |                                                 |
| \\      /  F ield         | OpenFOAM: The Open Source CFD Toolbox           |
|  \\    /   O peration     | Version:  2112                                  |
|   \\  /    A nd           | Website:  www.openfoam.com                      |
|    \\/     M anipulation  |                                                 |
\*---------------------------------------------------------------------------*/
FoamFile
{
    version     2.0;
    format      ascii;
    arch        "LSB;label=32;scalar=64";
    class       volScalarField;
    location    "0.00925";
    object      k;
}
// * * * * * * * * * * * * * * * * * * * * * * * * * * * * * * * * * * * * * //

dimensions      [0 2 -2 0 0 0 0];

internalField   nonuniform List<scalar> 
13875
(
812.106
3462.67
3540.44
3539.79
3541.28
3539.97
3540.66
3542.54
3540.01
3539.69
3541.42
3541.32
3540.99
3540.18
3540.43
3541.17
3541.89
3541.17
3540.76
3540.23
3541.15
3539.02
3539.99
3461.94
820.445
881.793
2936.65
3013.08
3000.96
3001.17
2998.74
2997.4
2999.66
2997.79
2996.95
2997.03
2998.26
2996.7
2996.41
2996.18
2998.49
2996.22
2997.11
2996.98
2998.59
3000.45
2999.29
3011.6
2935.01
894.34
993.357
2710.85
2777.48
2755.48
2759.02
2755.75
2746.8
2746.51
2744.26
2743.11
2742.29
2744.07
2751.46
2752.18
2750.87
2744.64
2741.19
2742.7
2745.33
2755.08
2757.67
2753.16
2774.52
2707.32
998.136
1091.07
2533.65
2580.95
2561.45
2566.83
2563.36
2553.23
2551.23
2548.74
2547.95
2547.81
2548.19
2559.22
2560.02
2558.83
2548.65
2547.3
2547.55
2551.17
2562.9
2565.49
2559.39
2579.17
2529.77
1093.72
1172.12
2380.42
2413.11
2392.67
2398.08
2394.36
2384.29
2381.89
2380.17
2379.84
2379.67
2379.35
2390.13
2391.38
2389.87
2379.74
2379.16
2379.04
2382.36
2393.9
2396.78
2391.16
2410.51
2375.46
1177.24
1241.02
2237.1
2270.87
2244.65
2251.27
2245.98
2234.77
2232.11
2231.01
2231.02
2230.78
2229.93
2240.61
2242.26
2240.49
2230.19
2230.46
2229.91
2233.09
2245.68
2249.95
2243.73
2267.93
2247.11
1247.23
1320.99
2121.82
2158.3
2120.09
2123.08
2115.76
2102.77
2099.26
2098.58
2098.84
2098.54
2097.13
2107.82
2109.65
2107.52
2097.22
2098.52
2097.67
2101.55
2115.49
2121.68
2119.76
2154.09
2095.51
1323.45
1409.79
2000.75
2073.55
2019.5
2016.29
2002.71
1986.57
1981.64
1980.96
1981.42
1981.03
1978.8
1989.65
1991.84
1989.41
1978.78
1981.38
1980.51
1985.43
2002.16
2013.95
2017.99
2068.34
1992.77
1420.42
1691.46
2029.51
2022.03
1944.24
1924.9
1904.86
1884.7
1877.75
1876.84
1877.71
1877.39
1874.36
1885.3
1887.93
1885.34
1874.56
1878.03
1877.15
1883.34
1903.85
1922.38
1942.19
2017.84
2033.58
1716.72
2509.28
2285.56
2018.18
1901.09
1858.85
1826.37
1802.87
1795.18
1793.55
1794.2
1793.79
1790.29
1800.87
1803.9
1801.41
1791.81
1794.85
1795.02
1801.33
1824.7
1855.6
1891.53
2011.42
2266.28
2529.74
3877.47
3026.93
2153.68
1915.82
1814.91
1772.18
1744.84
1733.88
1731.3
1730.97
1730.18
1726.49
1736.18
1739.53
1737.96
1730.91
1733.1
1735.02
1744.96
1768.21
1813.26
1907.18
2129.54
2936.64
3858.83
5187.7
6456.86
2852.19
1994.34
1853.94
1756.2
1711.69
1695.57
1690.05
1688.14
1686.65
1683.28
1691.22
1694.74
1694.67
1690.68
1692.79
1697.8
1712.23
1757.76
1847.04
1974.01
2789.57
6314.63
5120.22
5058.91
7637.39
7043.86
3331.93
2041.81
1795.58
1740.5
1700.43
1685.16
1678.42
1674.64
1671.12
1676.83
1680.32
1682.3
1682.81
1689.84
1706.46
1746.43
1804.09
2089.01
3232.13
6762.73
7644.96
5009.73
4828.68
6367.53
7174.14
8728.81
5161.5
2329.56
1899.09
1782.56
1748.08
1743.73
1740.51
1737.56
1742.35
1745.59
1748.64
1751.89
1757.7
1792.17
1941.02
2483.01
5617.78
8151.59
6954.02
6329.15
4832.86
4605.1
5517.85
6041.7
6986.43
6820.79
6726.06
3439.08
2377.96
2131.15
2036.58
1996.1
1981.17
1981.75
1986.42
1997.92
2029.65
2119.63
2387.08
3630.34
6895.97
6816.68
6703.56
5964.14
5486.07
4681.59
4294.46
4801.91
5114.71
5877.19
6057.54
6569.39
5578.72
5155.13
4842.62
4194.83
4269.35
4320.75
4364.46
4351.77
4290.54
4188.8
4742.57
5438.51
5661.63
6633.99
5996.56
5706.11
5070.3
4777.92
4365.62
3728.7
4041.6
4337.21
5063.47
5576.62
6482.09
7293.27
7562.87
6701.08
6250.29
6504.48
6738.29
6873.75
6819.92
6575.76
6559.77
6709.63
7547.59
7335.67
6455.85
5429.99
4898.32
4224.12
3960.28
3719.72
3064.53
3408.85
3951.43
4855.75
5496.54
6088.51
7046.22
7781.78
6541.77
5479.38
5208.49
5231.11
5300.88
5265.45
5267.29
5793.23
6524.56
7419.95
7015.07
6204.18
5529.55
4801.39
3859.22
3345.93
3027.32
2642.22
3172.61
3857.26
5056.92
5969.44
5771.63
6047.98
6766.46
6145.58
5181.39
4686.86
4544.03
4533.66
4588.48
4783
5322.65
5965.18
6447.33
6056.25
5959.63
6243.43
5080.96
3837.73
3154.14
2644.5
2527.92
3409.94
4085.2
5184.43
5764.22
5305.43
5229.88
5717.69
5580.27
4960.86
4414.65
4084.35
3975.51
4159.12
4547.79
5031.22
5358.42
5466.12
5259.61
5489.47
5950.02
5166.69
4090.72
3428.02
2520.65
5101.92
7677.97
6226.9
4825.26
5002.79
4650.98
4561.46
4966.22
5041.55
4630.66
4083.28
3651.66
3501.21
3763.11
4244.06
4674.41
4824.31
4767.43
4602.37
4811.76
5145.87
4956.04
6672.77
8184.86
5951.57
11590.6
23101.6
7845.25
4237.84
4306.73
4087.84
4037.29
4394.19
4544.68
4248.67
3725.23
3257.17
3090.53
3377.88
3882.36
4270.11
4337.57
4236.93
4069.44
4216.26
4409.85
4374.03
8380.54
23290
12722.1
13727.7
19443.9
6898.02
3778.56
3767.47
3632.66
3599.42
3926.14
4092
3857.04
3366.54
2906.92
2735.07
3010.19
3501.93
3865.75
3896.77
3793.64
3622.22
3721.48
3838.34
3888.19
6948.02
18996.2
13564.2
13020.7
19573.8
5830.14
3431.31
3331.67
3239.73
3227.59
3516.39
3680.68
3477.13
3016.93
2587.65
2433.99
2691.4
3154.78
3496.02
3505
3397.59
3251.16
3316.73
3401.55
3540.55
5972.76
20111.3
12972
12674
19237.7
5186.6
3160.67
3001.07
2916.73
2923.8
3168.82
3317.23
3134.99
2713.69
2319.43
2180.81
2415.27
2846.58
3161.22
3163.27
3059.01
2937.91
2982.82
3074.31
3268.29
5388.2
20283
12762.7
12459.4
19124
4719.91
2916.35
2737.28
2646.7
2671.63
2872.42
2996.42
2831.64
2452.47
2092.63
1965.66
2175.96
2569.06
2856.07
2861.68
2767.16
2667.12
2692.83
2804.46
3004.66
4890.58
20060.7
12710.6
12483.5
17766.3
4240.74
2695.47
2524.36
2423.18
2455.74
2615.35
2707.74
2551.6
2215.21
1896.62
1783.95
1976.37
2333.14
2591.26
2604.4
2522.32
2440.17
2458.91
2592.64
2786.65
4462.14
18868
12693.5
12326.5
16905
3920.87
2515.56
2350.4
2241.69
2271.71
2396.31
2461.64
2315.32
2017.01
1731.31
1628.17
1801.04
2121.29
2354.6
2377.88
2311.47
2246.82
2266.19
2406.78
2593.12
4135.91
18134
12554.6
12005.6
16497.7
3693.97
2361.34
2201.83
2096.78
2113.32
2206.06
2247.56
2109.06
1845.72
1590
1494.47
1648.98
1932.35
2140.93
2177.29
2128.23
2079.97
2104.2
2242.21
2424.56
3825.68
16689.4
12472.1
11769.6
15406.5
3496.32
2231.02
2064.41
1970.69
1978.18
2037.88
2053.73
1921.11
1689.18
1463.95
1378.63
1521.09
1777.69
1964.48
2006.22
1971.93
1941.11
1970.27
2096.4
2287.65
3640.94
16053.7
12184.7
11403.2
14134.1
3339.18
2128.51
1943.39
1858.45
1859.93
1893.43
1890.05
1763.3
1558.58
1357.12
1278.18
1407.02
1635.15
1801.87
1853.18
1835.72
1821.76
1851.1
1962.59
2171.32
3447.01
14698
11882
11075.6
13370.5
3224.14
2052.55
1836.06
1755.44
1754.03
1768.56
1749.87
1629.56
1446.33
1263.49
1190.73
1306.39
1512.43
1664.18
1720.4
1717.11
1715.26
1742.76
1845.15
2082.43
3291.12
13629.7
11527.3
10793.3
12174.8
3094.68
1993.17
1744.16
1664.77
1654.97
1655.73
1621.46
1506.03
1343.28
1180.3
1114.17
1221.39
1408.03
1544.66
1604.72
1613.71
1618.14
1648.3
1747.89
2014.8
3189.73
12829.2
11170.9
10480.6
11238.7
2975.67
1951.06
1669.54
1583.71
1562.74
1556.66
1512.39
1403.04
1256.39
1107.47
1046.77
1143.27
1313.46
1438.68
1500.75
1520.66
1528.42
1563.53
1667.01
1962.78
3093.66
11789.5
10849.3
10189.2
10573
2850.72
1914.77
1619.73
1510.8
1480.73
1466.35
1416.11
1311.28
1179.26
1043.64
987.222
1075.25
1229.35
1344.12
1408.5
1435.18
1448.58
1492.28
1610.09
1927.93
2963.2
10925.1
10539
9908.05
9870.06
2726.9
1882.62
1585.18
1447.28
1405.69
1382.36
1328.46
1229.33
1108.83
985.014
934.209
1015.27
1158.6
1264.23
1327.2
1356.94
1377.48
1428.28
1574.37
1902.77
2844.95
10390.5
10243.3
9652.63
9383.61
2623.5
1876.84
1563.97
1395.2
1340.16
1307.33
1250.42
1157.46
1047.66
934.044
886.787
961.075
1091.85
1189.36
1251.66
1285.75
1312.75
1374.36
1550.68
1895.46
2716.07
9754.51
9954.36
9388.78
9130.9
2527.3
1868.37
1553.98
1358.71
1280.31
1239.62
1180.82
1094.42
993.73
887.685
844.196
911.967
1033.81
1123.91
1183.26
1221.87
1254.33
1336.74
1542.7
1887.65
2591.94
9353.85
9679.44
9096.24
8712.26
2410.17
1827.62
1558.53
1334.39
1229.53
1178.9
1116.68
1035.11
942.626
845.595
806.068
869.347
982.275
1065.33
1122.96
1165.24
1204.76
1310.51
1550.04
1854.04
2476.26
9126.36
9405.89
8828.11
8468.91
2302.06
1777.96
1577.97
1320.96
1190.15
1126.37
1060.91
983.919
898.669
807.891
771.277
828.942
934.892
1011.87
1067.55
1115.61
1166.98
1297.08
1562.34
1796.28
2364.54
8818.71
9118.88
8611.21
8282.85
2238.97
1727.01
1611.95
1319.88
1162.12
1083.01
1011.99
937.546
858.108
773.589
739.815
792.821
890.993
963.481
1019.34
1074.04
1141.37
1294.4
1611.93
1743.17
2270.08
8594.14
8848.22
8413.31
8076.76
2153.33
1660.05
1604.26
1329.51
1141.11
1050.73
969.573
895.48
820.763
741.648
710.782
760.213
853.506
921.684
978.575
1042.71
1122
1309.73
1628.99
1692.34
2283.67
8395.08
8632.5
8230.16
7909.63
2097.43
1591.3
1563.43
1364.85
1131.12
1026.64
935.646
858.835
787.339
712.928
684.304
729.999
817.342
883.068
943.72
1019.82
1111.74
1339.34
1589.64
1620.62
2204.21
8195
8441.1
8078.45
7740.26
2143.89
1530.68
1506.76
1418.41
1137.56
1006.93
910.602
828.58
758.042
686.515
659.753
702.239
785.133
849.967
917.143
1002.75
1120.57
1407.73
1534.67
1553.52
2180.61
8010.17
8270.55
7931.91
7593.52
2079.53
1468.39
1441.91
1427.16
1170.68
995.686
890.037
804.165
731.76
662.722
637.702
677.861
758.482
824.161
896.894
993.578
1164.18
1433.59
1470.26
1503.27
2221.9
7836.18
8132.13
7785.03
7427.11
2114.97
1424.59
1377.34
1380.75
1246.64
1003.05
875.7
786.893
711.998
643.013
618.311
656.806
736.464
805.17
881.103
1000.06
1238.79
1390.36
1403.45
1448.61
2191.67
7671.98
7999.55
7639.89
7271.72
2169.54
1397.49
1320.68
1328.05
1276.87
1053.8
867.916
771.6
697.344
628.192
601.109
640.412
720.024
789.673
871.57
1047.5
1278.43
1337.51
1342.71
1408.26
2181.87
7514.68
7851.8
7424.34
7083.33
2154.83
1366.72
1270.74
1271.75
1239.33
1132.28
882.353
759.657
685.012
616.909
588.443
628.488
707.065
778.007
886.354
1133.18
1246.86
1279.44
1290.62
1387.18
2225.51
7310.28
7626.32
7142.34
6829.07
2151.31
1348.19
1228.33
1214.86
1196.95
1175.74
937.964
756.875
675.667
607.598
579.744
618.509
696.529
773.342
937.326
1186.85
1204.95
1220.28
1244.34
1363.79
2198.19
7053.18
7337.48
6507.84
6371.9
2135.74
1332.64
1192.08
1165.81
1151.27
1146.92
1028.94
785.056
671.773
599.891
571.97
610.069
689.877
795.64
1029.77
1163.75
1159.47
1169.72
1204.1
1341.5
2155.6
6582.57
6689.67
5968.99
9112.39
8808.8
7485.48
6111.84
5131.99
4414.47
3827.31
3254.58
2668.76
2098.04
1621.13
1263.08
1017.67
859
762.409
701.21
660.235
629.798
605.759
583.663
562.635
541.648
518.256
490.76
458.821
422.55
382.187
343.958
386.555
6131.22
9679.03
9225.32
7733.77
6233.2
5200.29
4465.34
3881.84
3333.04
2778.34
2219.8
1728.52
1349.36
1079.87
900.05
788.035
716.704
668.614
633.18
605.912
581.641
559.363
537.184
512.466
483.807
451.291
415.486
376.084
339.749
383.498
6401.92
10290.3
9607.45
7959.29
6366.79
5288.87
4536.93
3950.67
3414.9
2874.76
2327.79
1833.78
1432.72
1139.75
939.811
812.499
730.483
674.416
633.893
602.78
576.037
552.365
529.309
503.576
474.19
441.509
406.735
369.07
335.245
379.83
6734.14
10914.6
10147
8309.84
6598.61
5448.81
4663.55
4066.1
3536.01
3013.13
2475.37
1974.21
1547.42
1221.07
994.619
847.721
751.886
686.11
639.158
603.573
574.334
549.284
525.136
498.217
468.212
435.555
401.232
363.793
331.774
377.576
7009.06
11560.1
10773
8744.54
6898.06
5670.99
4840.35
4224.58
3693.94
3180.16
2645.07
2130.77
1683.9
1321.87
1063.62
892.338
778.975
701.508
646.849
606.171
574.537
548.351
523.689
495.541
464.571
431.004
396.702
360.158
329.472
376.004
7295.88
12280.7
11446.6
9235.05
7245.64
5935.84
5061.41
4423.23
3887.55
3373.31
2836.27
2312.06
1842.69
1445.21
1152.2
951.376
816.498
724.616
660.024
613.273
579.597
551.02
522.724
492.086
460.448
427.863
393.559
357.954
328.65
375.84
7622.2
13015.5
12153.4
9777.95
7645.72
6248.24
5328.69
4662.11
4117.67
3598.31
3056.52
2523.05
2028.04
1595.63
1264.32
1027.39
865.822
755.418
678.175
623.74
584.333
550.707
519.455
487.9
456.139
424.232
390.543
355.172
327.844
376.405
7947.2
13777.8
12909
10393.5
8102.25
6608.41
5640.96
4946.8
4385.07
3858.88
3311.68
2767.81
2247.71
1780.01
1402.45
1122.9
929.782
795.899
702.441
637.197
589.015
551.125
516.87
484.245
452.365
420.652
387.082
352.422
326.883
376.398
8277.63
14540.5
13718
11078.7
8637.2
7031.36
6009
5280.08
4699.84
4166.41
3614.74
3058.3
2513.61
2007.54
1579.44
1250.3
1014.6
849.305
734.243
653.352
595.374
551.582
514.632
481.469
449.458
417.308
383.696
349.555
325.668
376.205
8569.85
15330.2
14576.9
11849.8
9267.79
7535.58
6444.87
5674.16
5068.92
4525.33
3968.72
3397.31
2828.38
2288.04
1809.51
1424.91
1135.75
926.348
779.55
676.725
605.486
553.056
513.144
478.972
446.503
413.865
380.346
346.792
324.598
376.443
8858.98
16106.4
15491.2
12715.1
10004.3
8135.99
6960.24
6137.82
5499.36
4939.95
4366.45
3781.61
3195.01
2620.44
2091.48
1642.9
1288.83
1024.64
837.605
709.136
620.798
558.151
513.599
477.253
443.531
410.365
377.034
344.157
323.749
376.717
9148.56
16905.7
16470.6
13668
10849.4
8844.43
7567.19
6677.71
5996.13
5401.88
4799.45
4205.87
3607.02
3006.99
2428.44
1913.38
1484.43
1153.34
915.759
752.428
643.376
568.551
516.881
476.89
441.126
406.864
373.726
341.664
323.301
377.619
9487.15
17746.6
17500.5
14701.4
11796
9664.15
8275.45
7302.72
6558.94
5903.64
5282.12
4676.9
4066.39
3440.72
2818.71
2237.85
1728.35
1320.43
1021.49
814.486
678.634
586.341
523.853
477.623
438.751
403.598
370.447
339.136
323.071
378.735
9801.62
18637.6
18561.7
15808.1
12833.6
10590.7
9088.76
8020.13
7184.32
6464.66
5823.89
5199.89
4572.47
3918.99
3261.5
2620.09
2030.97
1539.07
1166.76
904.525
729.737
612.331
534.795
480.363
437.3
400.078
366.485
336.046
322.826
380.117
10082.8
19520.8
19627
16969.8
13966.7
11625.8
10010
8828.35
7877.93
7106.76
6430.29
5777.82
5124.7
4442.8
3753.89
3062.17
2398.01
1818.04
1359.23
1025.92
799.85
648.443
550.586
485.221
436.612
398.164
364.318
334.967
322.106
381.709
10315.4
20341
20684.1
18167.8
15204.4
12779
11047
9724.09
8662.22
7833.01
7104.39
6410.4
5718.15
5007.12
4288.36
3555.01
2825.01
2157.4
1601.99
1181.29
891.278
696.736
572.889
492.31
439.601
398.229
363.359
334.32
322.541
383.063
10537.9
21063.9
21731.7
19384.9
16521.9
14053.2
12206.1
10736.9
9558.65
8648.55
7848.75
7095.72
6349.01
5600.65
4845.03
4068.31
3288.85
2546.7
1894.36
1376.29
1008.82
759.782
602.661
505.618
443.731
398.48
362.358
333.611
322.866
383.924
10770.2
21686
22743.9
20600.9
17902
15453.5
13500
11899.7
10594.6
9568.37
8671.52
7834.51
7017.06
6218.29
5419.22
4596.81
3778.73
2979.98
2238.33
1621.81
1161.11
844.844
644.584
524.521
449.96
399.467
361.217
332.231
322.267
385.01
10915.7
22165.1
23587.2
21783.6
19328.4
16971.8
14954.1
13227.4
11787.2
10612.5
9581.68
8632.25
7729.22
6871.51
6029.18
5174.62
4316.06
3460.5
2641.19
1923.63
1359.63
960.311
705.473
551.633
459.85
401.876
360.358
330.571
321.331
386.84
10997.9
22575.7
24240.9
22862.5
20767
18610.1
16588.8
14739
13145.3
11801.8
10596.8
9507.16
8505.55
7575.78
6684.15
5791.03
4889.9
3985.08
3094.76
2281.05
1610.1
1111.11
787.645
590.561
475.334
406.762
361.008
329.881
321.3
388.911
11117.9
22716.7
24604
23789.5
22195.9
20375.5
18413.3
16452.1
14695.4
13157.6
11767.7
10503.1
9373.59
8352.28
7391.62
6443.62
5497.03
4541
3588.27
2690.68
1913.65
1305.71
896.847
644.207
497.921
415.014
363.452
330.467
321.588
390.924
11147.7
22777.9
24639.9
24516.8
23635.3
22271.2
20446.3
18401.3
16482
14725.3
13118.1
11661
10370.1
9226.66
8165.6
7138.39
6133.77
5123.74
4115.15
3148.71
2273.33
1551.15
1039.28
715.616
528.647
426.745
367.393
331.426
322.044
393.868
11239.2
22425.5
24278.4
24934.6
25053.7
24318.8
22715.8
20619.4
18531.6
16546.8
14692.8
13013.8
11529.5
10219.3
9016.99
7882.36
6802.44
5732.51
4670.53
3644.89
2680.23
1843.61
1217.72
807.322
569.619
441.572
372.237
332.327
322.354
395.679
11073.3
21982.6
23728.7
25277
26558.7
26570.9
25256.3
23155.1
20899.8
18657.1
16531.2
14591.1
12860.2
11337.8
9957.79
8689.41
7510.18
6373.38
5255.9
4164.19
3117.55
2177.6
1434.54
922.594
621.329
459.566
376.935
332.593
321.444
397.519
10515.5
22088.2
23593.4
25856.7
28260.8
29069.5
28094
26033.8
23616.1
21106.6
18663.8
16394.9
14369.6
12598.2
11010.2
9580.7
8284.09
7057.56
5875.75
4707.62
3588.84
2558.24
1696.63
1070.56
690.484
485.066
384.53
334.364
320.542
399.627
383.744
342.271
380.535
420.529
455.872
487.582
515.178
538.786
559.454
580.033
601.467
624.63
655.047
697.892
762.099
864.237
1029.72
1288.85
1662.29
2161.44
2747.87
3339.05
3908.24
4499.88
5242.29
6274
7713.57
9084.91
9357.54
6099.54
380.794
338.06
374.399
413.649
448.859
481.128
509.543
534.205
555.99
577.802
601.313
628.015
663.144
712.839
786.595
903.084
1088.58
1367.59
1762.13
2265.77
2830.93
3392.28
3940.74
4531.12
5293.71
6379.82
7952.87
9499.58
9924.86
6262.75
377.25
333.51
367.346
405.281
440.337
473.143
501.793
526.719
549.792
573.347
598.768
629.123
669.064
725.685
808.813
939.492
1143.48
1441.47
1853.65
2356.87
2907.96
3454.64
3991.8
4588.16
5368.53
6500.47
8168.79
9885.15
10547.7
6536.08
374.859
330.208
362.434
399.869
434.759
468.037
497.563
523.388
547.759
572.915
600.769
635.154
681.645
746.886
843.077
991.194
1218.11
1546.03
1981.18
2487.31
3027.33
3554.8
4086.89
4697.66
5513.72
6718.11
8510.68
10421.3
11176.7
6873.94
373.544
328.12
359.112
396.315
430.793
464.241
494.852
521.654
547.204
574.258
605.154
644.187
698.149
774.341
885.949
1055.25
1309.48
1668.98
2123.66
2639.82
3175.23
3692.73
4227.64
4858.49
5720.95
7011.11
8943.41
11046.4
11824.3
7147.5
373.71
327.732
357.567
394.597
428.738
461.466
493.039
521.372
548.403
577.873
612.86
658.045
720.943
810.364
941.019
1135.86
1422.15
1814.15
2287.09
2811.73
3347.88
3866.19
4408.29
5060.86
5969.52
7348.16
9432.49
11719.5
12544.1
7431.77
375.1
327.549
355.285
391.27
426.031
458.794
490.752
521.186
550.441
582.756
622.705
676.097
750.47
856.909
1011.99
1239.51
1562.82
1986.49
2479.52
3009.98
3553.24
4076.78
4630.73
5307.02
6270.18
7737.81
9966.53
12423.7
13275.9
7759.86
375.278
326.989
353.094
388.28
423.277
457.077
489.6
521.853
554.084
589.591
636.124
700.077
789.987
918.61
1104.96
1373
1739.76
2197.98
2711.21
3248.05
3797.36
4327.59
4897.9
5608.07
6621.14
8186.97
10579.4
13181.4
14033.5
8077.73
375.077
326.043
350.645
385.343
420.302
454.118
486.708
520.462
557.731
599.275
654.065
731.841
842.951
1001.68
1229.72
1546
1961.66
2455.15
2988.27
3534.61
4088.52
4626.73
5215.4
5965.97
7032.39
8712.21
11259.9
13988.5
14790.8
8406.42
375.411
325.114
348.269
382.661
417.231
450.933
484.204
519.385
560.117
611.77
678.79
775.319
914.976
1115.75
1395.43
1766.03
2232
2759.69
3316.24
3876.74
4434.62
4982.29
5595.87
6392.5
7526.99
9335.65
12030.5
14849.1
15577.9
8694.79
375.826
324.403
345.883
379.729
413.83
447.604
481.772
519.066
564.378
626.032
710.719
832.899
1009.41
1260.15
1601.19
2035.97
2551.85
3117.44
3695.02
4273
4840.16
5401.52
6048.21
6898.58
8118.86
10067.4
12898.5
15768.5
16359.7
8981.04
376.704
323.992
343.655
376.525
410.354
444.324
479.806
520.124
572.253
646.594
752.846
907.536
1132.85
1447.17
1859.87
2361.08
2926.5
3518.68
4113
4707.25
5299.35
5891.96
6576.79
7495.31
8818.62
10908.7
13851.3
16751.4
17163.1
9277.23
377.796
323.824
341.687
373.633
407.291
442.76
481.038
526.054
587.411
678.232
812.12
1008.12
1293.84
1682.96
2172.91
2739.73
3351.95
3970.38
4576.56
5181.24
5801.97
6449.32
7192.7
8197
9635.43
11857.4
14885.4
17782.1
18007.1
9617.44
379.019
323.738
339.992
371.088
404.815
441.863
483.96
536.657
612.826
725.961
896.672
1146.47
1504.35
1977.01
2546.12
3174.08
3826.64
4471.7
5082.25
5710.78
6356.29
7075.15
7900.23
9005.94
10561.6
12899.3
15992
18839.5
18896.8
9933.18
380.391
324.043
338.65
369.215
403.044
442.459
489.541
552.154
646.776
792.597
1013.38
1332.92
1776.24
2338.11
2982.28
3664.94
4350.22
5025.29
5658.95
6304.11
6985.97
7768.72
8713.04
9924.94
11600.5
14040.3
17154.2
19898.4
19782.2
10216.5
381.671
324.376
337.569
367.889
403.01
444.674
498.371
574.682
694.192
881.725
1166.68
1572.96
2114.08
2767.79
3481.48
4209.62
4925.16
5629.45
6307.56
6983.37
7698.55
8540.58
9616.11
10958.3
12758.7
15295.1
18367.1
20953.4
20601
10453.5
382.063
323.643
335.689
366.11
403.497
448.763
510.497
605.302
756.615
996.249
1358.24
1864.63
2507.93
3245.68
4017.86
4786.18
5537.74
6280.29
7011.16
7740.09
8524.44
9421.11
10611.6
12114.6
14034.6
16631
19607
21999.8
21329.8
10679.2
381.808
322.356
334.795
365.095
404.353
454.929
527.859
647.093
839.854
1144.25
1594.33
2202.22
2939.39
3743.63
4562.49
5377.79
6173.29
6968
7763.07
8577.2
9446.65
10458.9
11757.5
13398.7
15437.3
18023.6
20847.1
23022
21956.8
10917.8
384.267
322.83
333.961
364.558
406.486
464.222
553.343
703.955
950.303
1337.31
1890.58
2597.48
3418.11
4280.05
5143.42
5995.81
6835.19
7685.47
8568.58
9495.25
10484.4
11640.7
13083.3
14847
16959.8
19460.4
22050.1
23888.5
22442.3
11067
387.042
323.743
333.751
365.027
410.543
477.409
588.239
780.169
1094.92
1579.53
2239.07
3047.78
3939.65
4854.57
5761.11
6652.74
7540.25
8456.13
9440.11
10506.7
11670.2
12987.2
14578.4
16478.8
18608.8
20914
23146.4
24561
22863.9
11156.6
389.397
323.588
333.415
366.721
417.051
496.357
635.671
880.007
1277.75
1872.15
2640.92
3538.79
4491
5458.14
6406.85
7352.92
8308.16
9316.3
10426.3
11664.3
13030.2
14525.6
16279.4
18294.9
20381.2
22355.1
24065.9
24948.2
23022.5
11284.7
390.322
322.981
333.51
369.401
426.183
522.325
698.565
1008.97
1504.94
2215.7
3088.78
4062.13
5070.91
6088.76
7089.28
8112.87
9167.19
10300.3
11571.6
13002.3
14594.3
16295.8
18218.3
20321.8
22282.1
23797.4
24796.2
25004
23097.8
11327
392.256
322.334
333.315
373.024
438.479
557.278
780.044
1170.73
1775.08
2599.05
3564.59
4600.24
5667.39
6743.66
7815.59
8947.5
10142.2
11441.5
12908.5
14561.9
16403.1
18342.2
20437
22587.8
24330.6
25227.1
25231.5
24655.3
22763.2
11430.6
394.66
322.471
334.767
378.122
454.847
602.056
882.058
1366.76
2083.78
3008.61
4054.51
5147.48
6277.45
7425.12
8599.19
9866.3
11242.7
12760
14468.7
16382.8
18485.6
20708
22975.6
25129.2
26587.5
26743
25585.4
24113.5
22304.4
11271.4
397.107
323.197
337.621
386.089
477.731
660.915
1011.22
1602.63
2434.89
3450.12
4569.08
5728.91
6927.23
8161.19
9466.76
10891.2
12482.9
14260.3
16267.6
18497.3
20908.2
23442.9
25852.6
27972
29104.6
28469.5
26182.7
23981.8
22377
10697.8
9221.88
9374.69
9758.23
10361.3
11136.2
11982.9
12916.2
13910.5
14938.2
15984.4
17037.4
18084.1
19116.3
20124.9
21103.4
22047.6
22953.5
23812.7
24621.6
25379.7
26099.5
26787.8
27442.9
28062.6
28642.6
29183.7
29686.7
30153.5
30586.6
30992.9
31384
31753.6
32094.2
32396.6
32667.2
32929.6
33146.9
33325
33453.5
33532.6
33561.5
33535.5
33446.3
33291
33090.7
32827.9
32496.1
32088.7
31601.9
31047.1
30423
29726.3
28956
28114.9
27212.1
26255.6
25251.4
24205.2
23122.6
22012.3
20885.3
19762.9
18670.5
17593.6
16535.4
15501.8
14494.9
13517.5
12572.2
11661.4
10788
9953.5
9159.41
8406.46
7695.41
7026.89
6400.98
5816.99
5274.47
4771.05
4303.85
3871.6
3472.86
3104.78
2765.33
2453.1
2167.34
1907.22
1672.01
1461.31
1274.4
1110.82
969.797
850.144
750.579
669.374
604.111
552.754
513.053
482.758
460.101
443.598
431.883
423.724
418.27
414.8
412.851
412.058
411.563
411.547
412.611
413.946
415.178
416.381
417.004
417.202
415.391
413.939
412.155
410.308
408.493
406.475
404.656
402.348
399.663
26093.6
26957.7
28221.3
29910.1
31867.1
34056
36320.5
38682.6
41081.8
43496.5
45908.6
48303
50665.5
52978.3
55234.3
57427.5
59542.5
61563.4
63485.4
65317.9
67081.3
68792.1
70446.2
72023.7
73524.5
74950.5
76303
77587.6
78822.6
80009.8
81120.7
82146.4
83075.2
83900.2
84622.6
85231
85713.2
86080
86331.2
86465.1
86478
86365.4
86123
85743.9
85206.1
84526.9
83689.6
82684
81508
80164
78662.7
76996.5
75167.7
73185
71064.7
68825.1
66474.4
64022.1
61478.8
58857.5
56171.1
53422.3
50607.6
47772.6
44959.1
42224.5
39559.8
36974.5
34474.7
32062.7
29750.9
27546.3
25455
23481.8
21631.5
19906.6
18305.3
16823.7
15456.4
14196
13033
11956.6
10956
10020.1
9140.45
8309.2
7522.89
6778.05
6073.33
5408.74
4785.54
4205.08
3669.16
3179.09
2735.63
2339.61
1990.47
1686.52
1426.27
1206.23
1022.87
872.425
750.815
653.93
577.702
518.423
472.738
438.204
411.626
391.427
376.863
365.889
358.898
356.199
355.421
355.27
351.806
346.964
341.912
337.277
333.002
329.615
327.368
325.701
324.304
40854.5
42196.6
44135.9
46568.6
49292.9
52220.7
55271.1
58381.3
61509.3
64630.5
67728.8
70792.1
73809.9
76772.8
79671.8
82494
85224.9
87857.1
90397.1
92846.5
95220.5
97531.4
99778.9
101944
104024
106022
107943
109795
111592
113300
114911
116410
117783
119021
120120
121071
121867
122516
123014
123361
123552
123583
123450
123134
122621
121913
120993
119852
118486
116852
115010
112943
110653
108152
105441
102580
99563.3
96400.1
93102.7
89687.9
86179.8
82582.8
78903.8
75150.5
71339.9
67467.5
63590.8
59770.9
56057.5
52452.2
48971.3
45623.2
42413.4
39350.8
36445.1
33701.4
31121.7
28704.3
26445.8
24342.2
22387.9
20573.7
18890
17326.9
15875.4
14528.2
13277.6
12116.1
11037
10036
9107.08
8245.91
7447.51
6707.64
6021.56
5385.15
4794.68
4247.24
3741.68
3275.79
2850.47
2465.59
2122.13
1819.1
1554.61
1327.84
1136.22
977.89
846.829
740.805
655.841
587.296
535.586
498.289
471.865
452.915
434.11
414.646
397.029
382.128
369.749
360.232
352.913
346.857
341.73
57428.4
59260.3
61821.1
64902.1
68268.1
71800.3
75417.2
79064.4
82707.7
86329
89918.4
93469.8
96977.3
100434
103830
107153
110391
113543
116622
119632
122572
125448
128264
131018
133694
136297
138829
141289
143670
145955
148124
150156
152038
153759
155312
156692
157899
158936
159803
160500
161022
161363
161512
161449
161160
160631
159845
158786
157441
155792
153850
151619
149107
146324
143223
139936
136451
132767
128894
124837
120653
116326
111858
107256
102543
97748.2
92874.5
87932
82922.8
77937.9
73082.4
68387.6
63846.5
59484.9
55317.2
51349.7
47591.9
44045.5
40710
37582.8
34659.1
31933
29396
27039.9
24855.5
22834.8
20966.6
19239.6
17645
16172.6
14812.4
13555
12394.3
11322.3
10329.9
9409.49
8554.7
7758.78
7017.9
6325.32
5679.28
5076.38
4516.33
3998.04
3520.22
3083.31
2686.26
2330.96
2014.75
1737.27
1493.58
1283.62
1111.01
974.922
867.146
778.434
699.291
627.59
567.355
519.107
481.157
452.33
430.072
412.359
397.333
75957
78278.5
81406.5
85059.7
88975
93016.6
97103.4
101190
105253
109287
113290
117264
121204
125105
128957
132749
136476
140141
143760
147349
150876
154345
157765
161151
164485
167753
170950
174061
177084
179994
182764
185370
187795
190032
192079
193937
195609
197104
198424
199571
200539
201319
201893
202238
202332
202151
201670
200865
199715
198208
196346
194132
191576
188687
185467
181956
178182
174159
169887
165301
160541
155598
150430
145040
139441
133703
127824
121813
115696
109516
103281
97023.5
90847.1
84895.1
79193.9
73733.8
68537.5
63610.2
58947.5
54560.4
50448.4
46606.6
43025.6
39695.5
36604.6
33739.7
31087.5
28634.5
26366.8
24270.7
22332.6
20541.4
18885.4
17350.6
15930.3
14611.4
13387.7
12249.4
11189.7
10200.7
9279.1
8420.13
7620.74
6877.11
6183.61
5539.93
4942.22
4392.23
3888.62
3430
3005.67
2616.76
2275.75
1992.89
1750.84
1538.16
1341.15
1156.86
995.058
860.913
753.948
669.834
602.783
549.604
508.588
95734.8
98505.3
102116
106238
110596
115046
119514
123967
128395
132800
137188
141561
145915
150243
154537
158789
163000
167184
171366
175553
179692
183773
187814
191842
195865
199817
203686
207446
211075
214569
217886
221002
223904
226593
229076
231363
233466
235398
237169
238780
240228
241495
242559
243390
243956
244222
244150
243709
242875
241636
239993
237951
235514
232690
229488
225937
222064
217889
213425
208651
203592
198256
192618
186661
180246
173688
166898
159857
152604
145259
137830
130338
122809
115307
107889
100658
93756.4
87206.8
80998.3
75155.7
69674
64544.6
59759.5
55311
51182
47352.8
43802
40509.7
37457.6
34624.3
31992.3
29546.1
27268.2
25146.3
23170.2
21330.8
19617.6
18019.5
16528.1
15136.8
13843.8
12638.5
11516
10473.8
9504.95
8607.59
7773.42
6999.77
6285.83
5630.17
5019.66
4451.34
3934.9
3500.1
3126.38
2785.53
2458.2
2138.07
1835.55
1564.37
1332.54
1136.99
974.997
842.784
739.094
115909
119056
123014
127476
132155
136906
141668
146420
151160
155894
160628
165362
170091
174807
179504
184183
188853
193539
198267
203018
207728
212368
216975
221587
226216
230758
235186
239465
243545
247429
251082
254490
257651
260582
263299
265823
268174
270373
272435
274371
276176
277829
279297
280544
281528
282198
282512
282434
281943
281038
279727
278013
275888
273345
270389
267044
263339
259301
254945
250262
245250
239882
234127
227957
221341
214342
206992
199266
191084
182706
174197
165513
156730
148027
139403
130857
122411
114153
106202
98747.5
91761.6
85233.5
79162.5
73528.8
68308.7
63469.3
58979.5
54808.3
50924.8
47297.6
43903.3
40720.1
37736.4
34938.6
32312.3
29846.8
27531.5
25359.9
23327.8
21424.1
19640.3
17974.7
16424.2
14985.9
13649.8
12411.8
11263.3
10199.3
9214.27
8306.75
7466.97
6691.67
5983.52
5375.77
4864.14
4393.73
3933.53
3489.28
3054.3
2641.04
2268.79
1938.22
1645.53
1389.18
1176.86
135565
138999
143171
147840
152710
157648
162605
167569
172540
177525
182523
187531
192541
197551
202559
207574
212619
217718
222870
228022
233113
238125
243119
248098
253053
257905
262581
267045
271243
275128
278715
281997
285008
287773
290322
292681
294878
296952
298931
300843
302681
304415
306001
307400
308550
309395
309898
310033
309799
309215
308302
307048
305420
303393
300972
298184
295061
291633
287913
283873
279460
274610
269276
263426
257038
250147
242802
235026
226776
218120
209132
199796
190023
180343
170732
161147
151651
142357
133270
124387
115880
107896
100532
93727.3
87447.1
81637.9
76246.3
71226.3
66528.2
62115.7
57952.7
54019.4
50298
46771.1
43426.5
40256.1
37255.2
34421.4
31748.5
29230.7
26861.1
24638
22560.1
20619.9
18811.4
17132.4
15576.7
14134.4
12797.7
11565.4
10431
9391.55
8446.56
7618.42
6923.8
6288.8
5670.19
5091.66