/*--------------------------------*- C++ -*----------------------------------*\
| =========                 |                                                 |
| \\      /  F ield         | OpenFOAM: The Open Source CFD Toolbox           |
|  \\    /   O peration     | Version:  2112                                  |
|   \\  /    A nd           | Website:  www.openfoam.com                      |
|    \\/     M anipulation  |                                                 |
\*---------------------------------------------------------------------------*/
FoamFile
{
    version     2.0;
    format      ascii;
    arch        "LSB;label=32;scalar=64";
    class       volScalarField;
    location    "0.00804";
    object      alphat;
}
// * * * * * * * * * * * * * * * * * * * * * * * * * * * * * * * * * * * * * //

dimensions      [1 -1 -1 0 0 0 0];

internalField   nonuniform List<scalar> 
13875
(
0.11986
0.081602
0.0784527
0.0782828
0.0783369
0.0783736
0.0782925
0.0782215
0.0783084
0.0783647
0.0783049
0.078298
0.0783774
0.0784114
0.078394
0.0782977
0.0782561
0.0782944
0.0783034
0.0783544
0.078321
0.078265
0.0784876
0.0814678
0.120893
0.103938
0.0576797
0.0570831
0.0571663
0.0566522
0.0566663
0.057019
0.0570864
0.0571382
0.0571772
0.0571469
0.0571164
0.0566593
0.0566145
0.0566678
0.0570976
0.0571188
0.0571518
0.0570741
0.0566797
0.0566741
0.0571393
0.0570682
0.0573359
0.104545
0.110619
0.0553239
0.0558746
0.054714
0.0545737
0.0544842
0.0543174
0.0542545
0.0541815
0.0541485
0.0541449
0.0543468
0.0542536
0.0542774
0.0542405
0.0543491
0.0541082
0.0542535
0.0542803
0.0544508
0.0545298
0.0546028
0.0557814
0.0550732
0.111326
0.115884
0.0546435
0.0553807
0.0543111
0.0540367
0.0539562
0.053694
0.053516
0.0534516
0.0534162
0.0533326
0.0534641
0.053708
0.0537409
0.0536928
0.0534831
0.0533642
0.0534639
0.0536338
0.0539057
0.0539987
0.0542021
0.0551911
0.0543011
0.1159
0.12103
0.0546325
0.0551186
0.0537359
0.0536701
0.0534948
0.0531927
0.0530229
0.0529693
0.0529279
0.0528423
0.0529775
0.0532248
0.0532659
0.0532155
0.0529943
0.0528767
0.0529555
0.0531089
0.0534746
0.0536067
0.0536118
0.0550161
0.0543295
0.121394
0.124407
0.054743
0.0551844
0.0536005
0.0532926
0.0531259
0.0527828
0.0526051
0.0525342
0.0524981
0.0524103
0.0525201
0.0527808
0.0528509
0.0527666
0.0525391
0.0524476
0.0525459
0.0527329
0.0530523
0.0532375
0.0535045
0.054879
0.0543937
0.124022
0.128745
0.0564726
0.0557803
0.0534444
0.0532694
0.0528792
0.0524198
0.0522427
0.0521588
0.0521179
0.0520365
0.052135
0.0524105
0.0524776
0.0523987
0.0521496
0.0520766
0.0521613
0.0523575
0.0528623
0.0531938
0.0533631
0.0556412
0.0563589
0.128901
0.135703
0.0611949
0.0578299
0.0544029
0.0534043
0.0528621
0.0522556
0.0519716
0.0518732
0.051817
0.0517473
0.0518051
0.0521077
0.0521874
0.052085
0.051823
0.0518058
0.0519224
0.0522181
0.0527853
0.053323
0.0542755
0.057512
0.0610294
0.135511
0.151307
0.0692448
0.0615379
0.055908
0.0544062
0.0531484
0.0522316
0.0518746
0.051704
0.0516303
0.0515769
0.0516064
0.0519416
0.0520298
0.0519263
0.0516266
0.0516548
0.0518003
0.0521606
0.0530926
0.0542239
0.0556161
0.0610295
0.0684112
0.154201
0.239324
0.0874322
0.06645
0.0589907
0.055376
0.0537014
0.052484
0.052009
0.0518034
0.0516949
0.0516615
0.0516517
0.052012
0.052113
0.0520073
0.0517209
0.0517664
0.0519458
0.0524361
0.0536032
0.0552554
0.058649
0.0660077
0.0866831
0.241211
0.365358
0.118402
0.0759746
0.0629222
0.0575581
0.054758
0.0531233
0.0525746
0.0522982
0.0521693
0.0521467
0.0521066
0.0524622
0.0525782
0.052502
0.052277
0.0523196
0.0525535
0.0530327
0.0546134
0.05732
0.0616179
0.0748248
0.113022
0.365655
0.658115
0.192935
0.104016
0.0743872
0.0612981
0.0573499
0.0551634
0.0541738
0.0536703
0.0534718
0.0534087
0.0533527
0.0536511
0.0538006
0.0537855
0.0536892
0.0537716
0.0541705
0.0551167
0.0568343
0.0618784
0.0733725
0.100161
0.182887
0.643636
0.581858
0.435338
0.176362
0.0922379
0.0768285
0.0649858
0.05968
0.0578094
0.0568962
0.05657
0.0564279
0.0563584
0.0565452
0.0567307
0.0568216
0.0568949
0.0571464
0.057952
0.0598321
0.065299
0.0762969
0.089631
0.172029
0.433619
0.581331
0.49131
0.399925
0.346996
0.327993
0.115995
0.0808079
0.0734553
0.0675401
0.0650888
0.06433
0.0639244
0.0637549
0.0638113
0.0640191
0.0643092
0.0647865
0.0657044
0.0683712
0.0749561
0.0832263
0.131054
0.328441
0.337369
0.401369
0.500142
0.408089
0.349414
0.329323
0.333643
0.303047
0.199141
0.126677
0.0945649
0.0864869
0.0859469
0.0853544
0.0850783
0.0851122
0.0853237
0.0857961
0.0867297
0.0875919
0.0953311
0.133802
0.211895
0.30259
0.330207
0.331349
0.360312
0.42168
0.329495
0.292856
0.281728
0.300706
0.313703
0.321812
0.243101
0.191828
0.171247
0.148147
0.136285
0.132295
0.130857
0.131594
0.134357
0.143125
0.171673
0.195522
0.248903
0.324394
0.307933
0.303673
0.291418
0.298298
0.341866
0.23878
0.227011
0.225194
0.264204
0.319548
0.402813
0.530684
0.565552
0.539375
0.538238
0.557948
0.571251
0.578295
0.574878
0.561585
0.551289
0.539856
0.56903
0.532307
0.399001
0.314458
0.266655
0.230369
0.234529
0.251913
0.140275
0.152073
0.185527
0.227623
0.312906
0.433736
0.565807
0.616988
0.560462
0.51247
0.494989
0.491745
0.494407
0.493277
0.498549
0.529804
0.565579
0.607636
0.567794
0.439874
0.312524
0.229539
0.177624
0.14308
0.1313
0.0683038
0.102477
0.163498
0.248694
0.349501
0.408523
0.475173
0.533553
0.499209
0.452513
0.433069
0.430249
0.431685
0.434585
0.440741
0.461626
0.495457
0.527718
0.487801
0.425251
0.372881
0.265889
0.167682
0.104376
0.070245
0.0262809
0.0517935
0.112488
0.23019
0.347502
0.362386
0.385599
0.426673
0.424479
0.402477
0.3905
0.384998
0.382173
0.389955
0.39796
0.405483
0.414161
0.41459
0.388458
0.375967
0.363152
0.231085
0.112404
0.0518138
0.0257121
0.0759188
0.084967
0.1127
0.18655
0.275622
0.285815
0.307669
0.351417
0.369277
0.361155
0.349387
0.338548
0.333128
0.344337
0.356468
0.361618
0.357219
0.338201
0.306949
0.294063
0.282394
0.185873
0.111883
0.0863285
0.081237
0.121867
0.144365
0.125574
0.155664
0.207157
0.224584
0.252356
0.298268
0.322763
0.320411
0.308478
0.294694
0.287778
0.300283
0.314877
0.319682
0.310621
0.285851
0.247481
0.228473
0.210178
0.153822
0.123587
0.143608
0.122976
0.165533
0.150943
0.129566
0.133252
0.16337
0.18077
0.211698
0.255621
0.280985
0.281157
0.268815
0.254044
0.247141
0.258503
0.273671
0.278996
0.268964
0.246175
0.206244
0.182275
0.165004
0.133996
0.12747
0.153761
0.167717
0.2064
0.181215
0.131582
0.122905
0.138197
0.154454
0.180234
0.21998
0.243182
0.24452
0.232336
0.218568
0.212195
0.222648
0.236818
0.242238
0.231755
0.21113
0.17601
0.154588
0.138912
0.12336
0.130485
0.192216
0.20419
0.226558
0.218767
0.135148
0.118815
0.122105
0.13469
0.156442
0.188516
0.208675
0.21056
0.200244
0.187619
0.182505
0.191499
0.204898
0.209849
0.199929
0.181626
0.153912
0.13393
0.122136
0.120638
0.135415
0.232104
0.224582
0.248654
0.248394
0.136091
0.115348
0.111588
0.120905
0.138387
0.164459
0.180657
0.182205
0.17342
0.162369
0.157572
0.165556
0.177034
0.181063
0.172856
0.157838
0.135692
0.120517
0.111991
0.116618
0.136844
0.260156
0.247517
0.27551
0.265482
0.137739
0.112393
0.105042
0.109452
0.123975
0.143345
0.155956
0.156822
0.149657
0.140202
0.136623
0.143299
0.153376
0.156712
0.150007
0.138007
0.121526
0.108423
0.105535
0.113588
0.140428
0.282017
0.271591
0.303572
0.285019
0.1379
0.107998
0.0996919
0.101466
0.112351
0.1269
0.13572
0.135951
0.13004
0.122411
0.119064
0.12515
0.133672
0.136823
0.131993
0.122547
0.109794
0.100902
0.100938
0.109329
0.14155
0.301088
0.300366
0.333496
0.313595
0.142993
0.105691
0.0971326
0.0947465
0.10249
0.112399
0.119029
0.118707
0.113741
0.106923
0.104314
0.109113
0.116289
0.118898
0.115556
0.108934
0.100631
0.0940702
0.0978228
0.106257
0.144088
0.315173
0.328371
0.360844
0.327061
0.143742
0.101771
0.0927833
0.0904842
0.0950713
0.10135
0.105018
0.10406
0.0998007
0.0944308
0.091889
0.096466
0.1025
0.105023
0.102954
0.0979641
0.0924759
0.0890739
0.0935786
0.102721
0.145986
0.329043
0.353157
0.376182
0.332472
0.149511
0.10094
0.090573
0.0860896
0.0886539
0.0906256
0.0928559
0.0916004
0.0882089
0.0833729
0.0814483
0.0851555
0.0905466
0.0926808
0.0917273
0.0889747
0.0869152
0.0849462
0.0905959
0.101216
0.149121
0.333291
0.378913
0.385424
0.33219
0.154019
0.0991292
0.0861444
0.0814449
0.083156
0.0834781
0.0839013
0.0821202
0.0787789
0.074745
0.0726479
0.076146
0.0806621
0.0828724
0.082803
0.0811972
0.0813302
0.0799946
0.0857185
0.0995787
0.152007
0.3367
0.39204
0.403947
0.327565
0.159561
0.100596
0.0842535
0.0780097
0.0786853
0.0759961
0.0754139
0.0733762
0.0705997
0.0667963
0.0652524
0.0681278
0.0724029
0.0742982
0.0750278
0.0749362
0.0770895
0.0765208
0.0832948
0.0999683
0.159158
0.337076
0.399844
0.410855
0.321716
0.163437
0.100927
0.0807251
0.074206
0.0732263
0.070472
0.0688717
0.0665759
0.0637981
0.0606654
0.0589782
0.0617921
0.0654718
0.0677009
0.0688672
0.0693262
0.0720351
0.07269
0.0799749
0.100337
0.163816
0.328746
0.413078
0.418426
0.320229
0.16404
0.104233
0.08091
0.0720689
0.0694555
0.0652061
0.0629584
0.0603354
0.0580566
0.0549206
0.0536536
0.0559074
0.0594051
0.0611588
0.0631021
0.0646241
0.0683016
0.0704236
0.0790511
0.10201
0.166122
0.325247
0.422026
0.424409
0.312168
0.161892
0.106082
0.0808179
0.0686796
0.0648663
0.0607407
0.0583356
0.0556236
0.05309
0.0505007
0.0491154
0.051406
0.054447
0.0566876
0.0584931
0.0597753
0.0640436
0.0674759
0.0789013
0.105109
0.164428
0.320721
0.428591
0.429485
0.314115
0.161709
0.111734
0.0828411
0.0674518
0.0621502
0.0563149
0.0537678
0.0508467
0.048865
0.0462452
0.0451918
0.0470283
0.0500445
0.0517755
0.0543432
0.0560416
0.0615497
0.0660517
0.0803921
0.108858
0.163383
0.321742
0.430782
0.425317
0.312496
0.159111
0.119771
0.0847937
0.0656782
0.058679
0.0528227
0.0502358
0.0476733
0.0452986
0.0430766
0.0418489
0.0437138
0.0463908
0.0485026
0.0504625
0.0519732
0.0579571
0.0642138
0.0815189
0.116475
0.158419
0.322322
0.432267
0.422051
0.311584
0.155308
0.122638
0.0883194
0.0668027
0.0570388
0.0496695
0.0467449
0.0438464
0.0421179
0.0398448
0.0389492
0.0404682
0.0430909
0.0446155
0.0474021
0.0494102
0.0561493
0.0650046
0.0855771
0.121653
0.155534
0.324843
0.428506
0.412518
0.312098
0.148456
0.122431
0.093815
0.0668265
0.0545896
0.0469057
0.0439748
0.041556
0.0394318
0.0375114
0.0364237
0.0380479
0.040392
0.0422929
0.0443901
0.0464365
0.0539332
0.0650399
0.0888205
0.121928
0.148302
0.315759
0.417539
0.401828
0.312369
0.14441
0.122097
0.10272
0.0700245
0.0549652
0.0452999
0.0416824
0.0385928
0.036987
0.0349843
0.0342189
0.0354831
0.0377825
0.0391467
0.0422877
0.0450048
0.0537618
0.0672864
0.0963485
0.120972
0.144341
0.317418
0.407417
0.397424
0.309821
0.139052
0.119742
0.108067
0.0720128
0.0542044
0.0439509
0.0397265
0.0370375
0.0349514
0.0332075
0.0322602
0.0337032
0.0357863
0.0375589
0.0400817
0.0433301
0.0535556
0.0693807
0.10756
0.120234
0.141098
0.31199
0.401615
0.389366
0.311228
0.13708
0.115816
0.107547
0.0780618
0.0554955
0.0440152
0.0386104
0.0347335
0.0330282
0.0312037
0.0305417
0.0316412
0.0337618
0.0352038
0.0392147
0.0435016
0.0542758
0.0741357
0.107846
0.116664
0.138856
0.317406
0.394744
0.380869
0.306904
0.136097
0.110748
0.106526
0.0868369
0.0571172
0.0438541
0.0378071
0.0339659
0.0315867
0.0298943
0.029005
0.0302629
0.0322639
0.0341883
0.0378437
0.043156
0.055695
0.0812666
0.106752
0.111883
0.139469
0.319499
0.387392
0.374728
0.304213
0.134721
0.106151
0.103561
0.0923399
0.0612669
0.0446946
0.0379631
0.032555
0.030216
0.0283123
0.0276679
0.0286563
0.0307909
0.0326939
0.0382539
0.044275
0.0598096
0.0932062
0.10469
0.107786
0.141643
0.316189
0.374271
0.367905
0.302465
0.134956
0.102601
0.0985082
0.0918678
0.0680551
0.0461086
0.0377743
0.0328285
0.0295244
0.0274736
0.0265454
0.0277549
0.0300491
0.0327287
0.0377539
0.0452699
0.0662804
0.09293
0.100868
0.104885
0.141229
0.310746
0.368608
0.356002
0.29615
0.136596
0.100144
0.0937067
0.0908526
0.0792316
0.0504318
0.0388905
0.0323605
0.0291224
0.0265998
0.0257136
0.0268182
0.0295222
0.0322586
0.0388427
0.048922
0.0764887
0.091968
0.095946
0.10189
0.140557
0.304195
0.360593
0.346524
0.291858
0.135183
0.0982129
0.0902168
0.0879632
0.0793247
0.056653
0.0400209
0.0329702
0.0291909
0.026632
0.0251281
0.0267981
0.0296582
0.0328524
0.0396124
0.0551347
0.0785057
0.0891867
0.0924645
0.100275
0.140145
0.297322
0.347946
0.320761
0.280578
0.134643
0.0970552
0.0872275
0.0843309
0.0783623
0.0666408
0.0442136
0.0331753
0.0292038
0.0263717
0.0251286
0.0265405
0.0295603
0.0330008
0.0437547
0.0647403
0.0780396
0.0852127
0.0884877
0.0977944
0.138543
0.287701
0.321471
0.291173
0.26181
0.130137
0.0954973
0.0853159
0.0802968
0.0767896
0.067963
0.0499137
0.0358742
0.0298069
0.026775
0.0252105
0.0269016
0.0301372
0.0352746
0.0486921
0.0681313
0.0766242
0.0802588
0.0858168
0.0965989
0.134107
0.270759
0.293321
0.0717496
0.181143
0.294882
0.401338
0.445887
0.411205
0.357379
0.320944
0.30422
0.311105
0.323566
0.342263
0.365796
0.423888
0.475092
0.529074
0.572499
0.633845
0.678235
0.699195
0.703332
0.690321
0.664936
0.632344
0.594142
0.549778
0.49793
0.43304
0.33694
0.173821
0.0788746
0.228853
0.35995
0.453259
0.479021
0.436876
0.382432
0.356591
0.339214
0.340629
0.360161
0.386002
0.421519
0.458536
0.488277
0.526868
0.567652
0.615003
0.645123
0.658282
0.657676
0.643478
0.618975
0.588713
0.553361
0.512756
0.465529
0.406384
0.31576
0.167972
0.0938706
0.283084
0.418085
0.512874
0.514711
0.474708
0.436234
0.412728
0.396453
0.398919
0.41047
0.428781
0.452008
0.47018
0.490202
0.521497
0.559295
0.59356
0.611315
0.617826
0.613973
0.599666
0.577071
0.549457
0.51679
0.4793
0.436113
0.382346
0.298351
0.16323
0.102251
0.339568
0.484812
0.571139
0.556303
0.523982
0.497426
0.484195
0.471316
0.473832
0.480696
0.488256
0.488267
0.488913
0.494434
0.514055
0.543874
0.566135
0.576322
0.577623
0.572045
0.557254
0.53621
0.510881
0.481139
0.447342
0.409199
0.360463
0.283065
0.158665
0.111553
0.392026
0.543639
0.637555
0.608209
0.569038
0.544422
0.537392
0.534517
0.535046
0.531835
0.522752
0.509546
0.498321
0.496955
0.510284
0.530365
0.541185
0.545648
0.54396
0.536433
0.521465
0.501468
0.478142
0.451054
0.420847
0.387034
0.342104
0.269183
0.153622
0.120237
0.44962
0.616986
0.720615
0.673294
0.631818
0.605707
0.597524
0.596393
0.584078
0.569708
0.552686
0.53302
0.514561
0.505074
0.508116
0.515924
0.5178
0.516439
0.511269
0.502265
0.487494
0.46895
0.447898
0.423461
0.396583
0.366133
0.32433
0.255473
0.148141
0.131662
0.516311
0.68998
0.801348
0.742513
0.701351
0.678551
0.670641
0.663304
0.644814
0.621057
0.596061
0.564755
0.535585
0.513367
0.504829
0.500559
0.495599
0.490084
0.482665
0.473056
0.459091
0.442316
0.423346
0.401097
0.376609
0.348078
0.308439
0.24263
0.142713
0.14451
0.586908
0.769044
0.882768
0.813114
0.763993
0.739416
0.731291
0.720219
0.700427
0.672345
0.639456
0.596913
0.556454
0.521737
0.500022
0.484705
0.473656
0.464431
0.455349
0.445666
0.432785
0.41778
0.40057
0.380307
0.357333
0.330308
0.292682
0.229994
0.137347
0.159956
0.650677
0.846305
0.959855
0.871736
0.814569
0.786082
0.774529
0.760329
0.736914
0.7089
0.67193
0.623581
0.572522
0.528096
0.493937
0.469927
0.453341
0.441186
0.431086
0.421727
0.410296
0.397131
0.381313
0.361273
0.338356
0.313013
0.277431
0.217541
0.131882
0.175796
0.711659
0.917957
1.02924
0.926079
0.849064
0.815992
0.800115
0.786268
0.764024
0.737022
0.696273
0.645981
0.589038
0.534893
0.489668
0.456632
0.435397
0.420748
0.409875
0.400879
0.390499
0.37821
0.362183
0.344107
0.324517
0.300474
0.266122
0.20858
0.128155
0.191781
0.770257
0.984439
1.09728
0.97191
0.881851
0.845639
0.829061
0.817089
0.79535
0.763202
0.720911
0.669971
0.609018
0.544684
0.48845
0.446651
0.420741
0.403772
0.392366
0.383712
0.373857
0.362863
0.349484
0.333393
0.314668
0.291555
0.258106
0.202151
0.125599
0.206261
0.824775
1.04815
1.14819
1.00086
0.906673
0.871903
0.856998
0.845126
0.824542
0.79182
0.749116
0.696127
0.63067
0.557982
0.49136
0.441285
0.410025
0.390591
0.378438
0.369833
0.362181
0.352015
0.339863
0.324771
0.306437
0.283826
0.251166
0.196563
0.123299
0.217929
0.875926
1.09026
1.17394
1.01823
0.92133
0.890435
0.879324
0.869202
0.851055
0.820056
0.777563
0.723196
0.653873
0.573821
0.49934
0.441011
0.404311
0.383024
0.369815
0.360722
0.35321
0.344158
0.332751
0.318095
0.300151
0.277647
0.245096
0.191044
0.120997
0.226518
0.914709
1.11286
1.18782
1.02804
0.931615
0.904272
0.896689
0.887793
0.872851
0.845232
0.802782
0.750433
0.679413
0.594765
0.514042
0.44662
0.404104
0.379316
0.364059
0.354392
0.346874
0.338162
0.327098
0.312897
0.29507
0.27223
0.239449
0.186272
0.119336
0.231798
0.939759
1.12565
1.20002
1.0409
0.941487
0.913961
0.90965
0.900826
0.888625
0.864936
0.826117
0.778801
0.708924
0.62248
0.533671
0.459623
0.409481
0.379855
0.361551
0.350535
0.34233
0.333493
0.322419
0.308524
0.291101
0.267941
0.234698
0.182234
0.117912
0.235001
0.9585
1.13719
1.20515
1.05447
0.951594
0.918543
0.914944
0.905562
0.896304
0.879644
0.848913
0.80819
0.742321
0.656521
0.562801
0.479596
0.419694
0.383103
0.361485
0.348726
0.339317
0.329302
0.318072
0.30418
0.286918
0.264104
0.230587
0.178776
0.116533
0.236871
0.973657
1.13374
1.19709
1.06369
0.956154
0.916975
0.911394
0.907365
0.901906
0.892088
0.869611
0.838003
0.778931
0.696188
0.60026
0.507103
0.434445
0.388961
0.363482
0.348165
0.33686
0.325834
0.313992
0.300043
0.28287
0.260269
0.226826
0.175729
0.115567
0.23794
0.973652
1.12203
1.17547
1.06146
0.953704
0.910526
0.90469
0.906491
0.905307
0.901946
0.887639
0.866377
0.815681
0.739109
0.644429
0.542384
0.456321
0.399089
0.366312
0.346037
0.333104
0.322073
0.310015
0.296292
0.279418
0.257006
0.224036
0.17356
0.115095
0.235006
0.960601
1.09558
1.14031
1.0463
0.944511
0.901291
0.896604
0.903964
0.907876
0.909512
0.902119
0.890797
0.84985
0.783792
0.693901
0.585765
0.483819
0.409847
0.366669
0.34302
0.329747
0.319192
0.30796
0.293927
0.277343
0.254983
0.222183
0.172022
0.114981
0.233314
0.938899
1.05746
1.09334
1.01985
0.928259
0.891719
0.889183
0.900259
0.910037
0.915757
0.913986
0.911843
0.881773
0.82887
0.747582
0.633442
0.514947
0.423828
0.369662
0.343106
0.328169
0.317044
0.306511
0.293906
0.277156
0.254445
0.221167
0.170823
0.11509
0.22957
0.893683
0.999603
1.03228
0.981476
0.90761
0.882043
0.884765
0.898522
0.914178
0.922415
0.925818
0.930711
0.910994
0.869011
0.797397
0.682106
0.551891
0.444873
0.378013
0.346188
0.328271
0.315826
0.305446
0.293551
0.277296
0.254689
0.221405
0.169657
0.115223
0.226583
0.842477
0.930263
0.961844
0.932021
0.885526
0.871832
0.881019
0.897925
0.918546
0.930242
0.938672
0.947204
0.935108
0.89718
0.83716
0.730294
0.596765
0.476082
0.393769
0.35212
0.329841
0.315263
0.3047
0.292822
0.276409
0.253707
0.219717
0.168833
0.115437
0.215758
0.766694
0.837611
0.879415
0.87803
0.860687
0.8614
0.877973
0.898569
0.921034
0.937652
0.948789
0.957127
0.947374
0.910342
0.869144
0.777725
0.64967
0.518841
0.417921
0.361671
0.33272
0.315778
0.304295
0.291876
0.275101
0.252134
0.217899
0.167891
0.115409
0.211057
0.682188
0.734297
0.794524
0.825095
0.83462
0.849502
0.873165
0.896918
0.918573
0.939637
0.951957
0.954935
0.947794
0.923092
0.899192
0.826073
0.708028
0.571515
0.452244
0.37634
0.338144
0.317303
0.303842
0.290429
0.273096
0.249826
0.215805
0.166986
0.115552
0.181106
0.517245
0.604504
0.70943
0.77288
0.808736
0.835959
0.865155
0.891992
0.913548
0.934388
0.94462
0.95243
0.950806
0.939221
0.926712
0.871877
0.768021
0.632323
0.496699
0.39774
0.346442
0.319534
0.302575
0.288464
0.271106
0.247818
0.214112
0.165757
0.115866
0.173515
0.336343
0.432946
0.497983
0.550051
0.593393
0.631772
0.66476
0.691537
0.705654
0.700571
0.6786
0.636523
0.573502
0.528125
0.478192
0.423142
0.366649
0.344071
0.328959
0.317032
0.3143
0.333833
0.37192
0.428105
0.462388
0.414968
0.305448
0.187227
0.0718187
0.167459
0.314846
0.405782
0.465298
0.513036
0.553017
0.588276
0.618836
0.644414
0.659985
0.660473
0.64693
0.617896
0.569853
0.527814
0.495756
0.462775
0.426483
0.392047
0.368772
0.35293
0.355257
0.37378
0.402572
0.459676
0.501384
0.472428
0.371799
0.235232
0.0798423
0.162624
0.297179
0.38126
0.435493
0.479437
0.516771
0.549214
0.577056
0.60017
0.616043
0.620353
0.613439
0.59608
0.564411
0.525175
0.498274
0.478061
0.462245
0.440879
0.42395
0.416459
0.414375
0.43394
0.459741
0.499502
0.538022
0.531691
0.431653
0.290605
0.0942805
0.158053
0.281556
0.358993
0.408402
0.447385
0.48152
0.511081
0.536583
0.557804
0.573763
0.580224
0.578752
0.569159
0.548882
0.519602
0.503339
0.499739
0.501674
0.502492
0.497989
0.493777
0.491395
0.504045
0.519591
0.548225
0.581123
0.591235
0.499207
0.348988
0.103093
0.152663
0.267014
0.340078
0.385816
0.420267
0.451092
0.478039
0.501473
0.521471
0.537292
0.545641
0.547699
0.54428
0.535113
0.517121
0.506424
0.511537
0.523951
0.538275
0.548558
0.552825
0.555213
0.560982
0.568829
0.596958
0.638829
0.662926
0.560243
0.402745
0.111966
0.146813
0.252744
0.321933
0.364377
0.395485
0.423052
0.4473
0.468388
0.486868
0.502318
0.512134
0.517633
0.519936
0.519821
0.516223
0.515968
0.53058
0.550984
0.572453
0.591179
0.6064
0.621941
0.626512
0.63632
0.665266
0.709749
0.750392
0.636712
0.463127
0.121312
0.141279
0.239575
0.305684
0.345944
0.375112
0.400345
0.422456
0.441381
0.458242
0.472604
0.483
0.490778
0.497154
0.504157
0.51327
0.526029
0.553612
0.586209
0.620985
0.647548
0.671583
0.691238
0.70061
0.709123
0.734721
0.78101
0.834147
0.711698
0.533274
0.133701
0.136171
0.227337
0.290316
0.328319
0.355854
0.379322
0.399652
0.416746
0.43206
0.445153
0.455526
0.464947
0.475189
0.488383
0.508099
0.535374
0.574821
0.61923
0.664753
0.698001
0.726234
0.74676
0.758329
0.768366
0.796146
0.852662
0.914795
0.79279
0.603132
0.146522
0.130491
0.214706
0.274814
0.311056
0.337432
0.360369
0.380353
0.396229
0.409718
0.42129
0.431161
0.441843
0.45529
0.474324
0.502404
0.541583
0.591219
0.644616
0.694769
0.731905
0.759821
0.783324
0.797739
0.811619
0.844196
0.910902
0.991454
0.870401
0.66733
0.162394
0.126601
0.205706
0.263226
0.297952
0.322774
0.342597
0.360393
0.376632
0.389825
0.400381
0.409723
0.421272
0.437802
0.462227
0.498909
0.548182
0.607027
0.665385
0.716217
0.756753
0.785479
0.807003
0.820006
0.837801
0.875707
0.963862
1.05831
0.941966
0.728486
0.178359
0.12389
0.199253
0.255007
0.288867
0.312729
0.331668
0.348005
0.361256
0.371994
0.381866
0.391317
0.403863
0.423094
0.453094
0.497995
0.556598
0.624841
0.687142
0.737759
0.780741
0.812221
0.833886
0.848089
0.86603
0.906027
1.00574
1.12485
1.00888
0.787011
0.194166
0.121668
0.193858
0.248191
0.28127
0.304408
0.323069
0.338722
0.350833
0.360294
0.368252
0.377208
0.389922
0.411282
0.446884
0.500662
0.568119
0.643314
0.709306
0.762901
0.806601
0.839184
0.859371
0.872904
0.890744
0.930906
1.03235
1.17015
1.07225
0.840789
0.208436
0.119497
0.188532
0.242349
0.275231
0.298077
0.316489
0.331831
0.343499
0.352306
0.359666
0.368905
0.382533
0.40558
0.44332
0.506211
0.582804
0.662558
0.732491
0.788243
0.832235
0.863611
0.881898
0.893608
0.907656
0.943688
1.04801
1.19193
1.10917
0.891666
0.219269
0.117868
0.18392
0.236807
0.269613
0.292467
0.310803
0.326126
0.337564
0.346587
0.354173
0.364306
0.380065
0.405757
0.44977
0.518403
0.601218
0.685657
0.757262
0.811208
0.855513
0.88377
0.899618
0.91081
0.921135
0.953873
1.05822
1.20397
1.12866
0.929425
0.227576
0.116413
0.179823
0.231923
0.264875
0.28811
0.307157
0.321761
0.333085
0.342759
0.351162
0.362717
0.381165
0.411217
0.462684
0.537418
0.626505
0.712686
0.782913
0.833244
0.871957
0.896993
0.911798
0.92356
0.930624
0.964671
1.07206
1.21589
1.14071
0.953589
0.232533
0.114962
0.17614
0.227811
0.261204
0.28486
0.303633
0.318434
0.330372
0.340637
0.350313
0.363694
0.385386
0.421598
0.482417
0.565422
0.659106
0.744551
0.810719
0.854274
0.885473
0.903508
0.914484
0.927553
0.934423
0.975022
1.08601
1.21867
1.15076
0.972317
0.235632
0.113911
0.173023
0.224232
0.25806
0.281834
0.300125
0.315254
0.328072
0.339263
0.350703
0.366513
0.392004
0.436777
0.50953
0.601263
0.69699
0.779874
0.839344
0.873807
0.896879
0.907819
0.915666
0.92222
0.931944
0.979118
1.09483
1.20935
1.14712
0.986484
0.23723
0.113489
0.170965
0.221595
0.255414
0.278986
0.296841
0.311926
0.324682
0.337306
0.351294
0.370973
0.402212
0.457411
0.543836
0.643897
0.73897
0.816245
0.867344
0.891363
0.906422
0.911087
0.914246
0.914514
0.925594
0.97713
1.0912
1.18719
1.13534
0.986388
0.238184
0.113446
0.169684
0.219953
0.253798
0.277162
0.295538
0.309856
0.32146
0.333424
0.348032
0.372034
0.414072
0.485244
0.584862
0.692561
0.783345
0.851047
0.892401
0.906234
0.914353
0.913894
0.911493
0.906762
0.915446
0.967699
1.07455
1.15223
1.10894
0.972567
0.235178
0.113949
0.169575
0.220133
0.254291
0.277913
0.295633
0.308261
0.319303
0.330539
0.346119
0.373332
0.427005
0.516396
0.632693
0.745056
0.828321
0.883578
0.914133
0.917952
0.920515
0.915981
0.907705
0.899114
0.905329
0.949817
1.04665
1.10629
1.0712
0.950444
0.233146
0.114609
0.168705
0.219404
0.25359
0.276986
0.293807
0.306892
0.317507
0.330496
0.347866
0.380004
0.444603
0.549942
0.678295
0.793497
0.867238
0.911573
0.932433
0.927759
0.926115
0.918968
0.904966
0.893299
0.894661
0.926859
1.00729
1.04702
1.01395
0.904486
0.229389
0.114586
0.167619
0.218516
0.252852
0.275931
0.292146
0.305768
0.31677
0.33168
0.353307
0.393874
0.472383
0.589098
0.722008
0.830348
0.891557
0.931485
0.945509
0.937701
0.932045
0.921733
0.902847
0.888402
0.883454
0.902611
0.957722
0.979027
0.946307
0.854086
0.225975
0.114567
0.166656
0.216929
0.251478
0.274687
0.290751
0.304881
0.316993
0.333989
0.361657
0.41612
0.511864
0.638767
0.765854
0.858934
0.899899
0.939301
0.951668
0.946329
0.937679
0.922915
0.902135
0.884362
0.872183
0.877483
0.902743
0.898532
0.854542
0.777659
0.21464
0.114361
0.165627
0.215128
0.249574
0.273085
0.290132
0.302788
0.3183
0.338835
0.374923
0.447782
0.561991
0.694291
0.812312
0.888391
0.913797
0.940067
0.948903
0.948748
0.939995
0.920778
0.900849
0.880035
0.860046
0.850673
0.847828
0.815553
0.752624
0.693638
0.210094
0.114048
0.16463
0.213481
0.247612
0.271046
0.288686
0.302178
0.320042
0.346896
0.395337
0.489176
0.61986
0.752849
0.858227
0.915656
0.928801
0.943103
0.946899
0.944182
0.936
0.917749
0.898082
0.873103
0.846233
0.823691
0.794749
0.730649
0.622431
0.525963
0.180877
0.478782
0.489532
0.503624
0.513877
0.534478
0.530348
0.520975
0.512335
0.507813
0.506127
0.505102
0.509557
0.516069
0.521725
0.524908
0.525547
0.524179
0.520978
0.516161
0.510483
0.504107
0.497447
0.490609
0.483537
0.478791
0.473316
0.467777
0.462794
0.458147
0.453779
0.449747
0.446009
0.442538
0.439323
0.436299
0.433475
0.430737
0.428171
0.425684
0.423342
0.42092
0.418308
0.41544
0.412249
0.408742
0.404948
0.40084
0.396381
0.39151
0.386168
0.380372
0.374482
0.368251
0.361327
0.353863
0.345789
0.336966
0.327385
0.316983
0.305775
0.293847
0.281333
0.268476
0.25568
0.24334
0.231482
0.219984
0.208951
0.198448
0.188703
0.179598
0.171294
0.163891
0.157092
0.150811
0.145022
0.139632
0.134614
0.12995
0.125617
0.121662
0.118157
0.114984
0.112135
0.109585
0.107312
0.105335
0.103612
0.102089
0.100772
0.0995869
0.0985848
0.0977484
0.0971454
0.0967519
0.0965102
0.096302
0.0962659
0.0967277
0.097437
0.0982114
0.0990408
0.100018
0.101282
0.102962
0.104972
0.106938
0.108992
0.11113
0.113296
0.114946
0.116198
0.117176
0.118379
0.11907
0.119422
0.119539
0.119381
0.119445
0.119103
0.117293
0.11627
0.114661
0.113887
0.113827
3.97138
4.12029
4.3478
4.49242
4.68915
4.731
4.66527
4.60509
4.58836
4.61123
4.65222
4.7289
4.80511
4.85735
4.87626
4.86407
4.82779
4.77358
4.70699
4.63367
4.55779
4.48331
4.41287
4.34977
4.28882
4.23079
4.17623
4.1266
4.08315
4.0451
4.01214
3.98414
3.96012
3.93922
3.92065
3.90421
3.88964
3.87368
3.85567
3.83536
3.81205
3.78536
3.75504
3.72095
3.68311
3.6417
3.59666
3.54782
3.49499
3.43775
3.37558
3.30651
3.23257
3.15634
3.07811
2.99883
2.91655
2.82917
2.73628
2.6373
2.53194
2.41961
2.29947
2.17217
2.03831
1.89964
1.75765
1.61459
1.47321
1.33578
1.20588
1.08549
0.973799
0.871345
0.778194
0.694438
0.620097
0.554885
0.498439
0.450455
0.409689
0.374988
0.345418
0.320182
0.298536
0.279921
0.263911
0.250166
0.238321
0.227909
0.218414
0.209759
0.201748
0.194679
0.188322
0.182883
0.178244
0.174456
0.171384
0.169568
0.168435
0.167505
0.166755
0.166379
0.166548
0.167293
0.168856
0.17012
0.171243
0.172353
0.172899
0.173156
0.172975
0.173275
0.173329
0.172187
0.170993
0.17058
0.169898
0.169496
0.168548
0.166274
0.164397
0.163411
0.163791
5.70436
5.90746
6.19818
6.44532
6.71446
6.99822
7.08234
7.10579
7.13465
7.18997
7.23468
7.28338
7.32327
7.34166
7.33432
7.30187
7.24826
7.17923
7.10014
7.01555
6.92941
6.84498
6.76467
6.69001
6.62242
6.56075
6.50327
6.45053
6.4035
6.36069
6.3214
6.2861
6.2514
6.21663
6.18254
6.14893
6.11183
6.07027
6.02373
5.97183
5.91422
5.85088
5.78211
5.70802
5.62883
5.54481
5.45618
5.36308
5.2657
5.1642
5.05876
4.94951
4.83642
4.71943
4.59817
4.47057
4.33742
4.20017
4.05876
3.91325
3.76349
3.60989
3.45315
3.29698
3.14296
2.98789
2.83177
2.67546
2.51939
2.36407
2.21123
2.058
1.90671
1.75834
1.61416
1.47536
1.34276
1.21706
1.09892
0.989225
0.888771
0.798297
0.71826
0.64864
0.588621
0.536874
0.492336
0.4541
0.421233
0.392905
0.368352
0.346899
0.327957
0.311293
0.296661
0.28396
0.273023
0.263762
0.255992
0.250208
0.245266
0.241053
0.237613
0.234619
0.232542
0.230974
0.229785
0.228285
0.226425
0.224774
0.223036
0.221415
0.220696
0.221535
0.222978
0.222617
0.22078
0.219359
0.218546
0.218253
0.21701
0.214853
0.211983
0.211139
0.212203
6.82796
7.07439
7.38414
7.69319
8.02166
8.34221
8.55222
8.68033
8.77743
8.8661
8.96055
9.00529
9.01375
8.98702
8.93308
8.85826
8.76839
8.66944
8.56718
8.46649
8.37061
8.28165
8.20086
8.12867
8.06489
8.00808
7.95792
7.91393
7.87479
7.83757
7.8003
7.76253
7.72382
7.68634
7.64601
7.59865
7.54437
7.48322
7.41542
7.34118
7.26052
7.17357
7.0827
6.98699
6.88701
6.78322
6.67601
6.56573
6.45261
6.33691
6.21846
6.09759
5.97406
5.84738
5.71697
5.58226
5.44306
5.29915
5.15094
4.99845
4.84168
4.68083
4.51599
4.34463
4.16702
3.98727
3.80608
3.62423
3.44498
3.27037
3.09719
2.92805
2.76113
2.59733
2.43808
2.28434
2.13602
1.99481
1.8605
1.73221
1.60943
1.49218
1.38065
1.2748
1.1747
1.0805
0.992223
0.910599
0.836167
0.769092
0.70887
0.654354
0.604778
0.559864
0.519603
0.48385
0.452393
0.424705
0.400654
0.38027
0.362351
0.346715