/*--------------------------------*- C++ -*----------------------------------*\
| =========                 |                                                 |
| \\      /  F ield         | OpenFOAM: The Open Source CFD Toolbox           |
|  \\    /   O peration     | Version:  2112                                  |
|   \\  /    A nd           | Website:  www.openfoam.com                      |
|    \\/     M anipulation  |                                                 |
\*---------------------------------------------------------------------------*/
FoamFile
{
    version     2.0;
    format      ascii;
    arch        "LSB;label=32;scalar=64";
    class       surfaceScalarField;
    location    "0.00607";
    object      phi;
}
// * * * * * * * * * * * * * * * * * * * * * * * * * * * * * * * * * * * * * //

dimensions      [1 0 -1 0 0 0 0];

oriented        oriented;

internalField   nonuniform List<scalar> 
27436
(
-0.533496
8.19283
-0.0933723
7.47168
-0.0849789
7.78715
-0.0705222
7.78648
-0.0635477
7.78779
-0.0479472
7.78183
-0.0394568
7.78873
-0.0353554
7.79287
-0.0263821
7.7884
-0.0161185
7.78641
-0.00785255
7.78905
0.00109313
7.78839
0.0142831
7.78374
0.03106
7.7809
0.0463015
7.78223
0.0549026
7.78825
0.0581625
7.79251
0.0657971
7.7899
0.0752178
7.78841
0.0895119
7.78245
0.0962893
7.78784
0.111765
7.78561
0.124053
7.78242
0.574518
7.4618
8.21929
-0.24718
8.44001
-0.0961052
7.3206
-0.081185
7.77219
-0.0543492
7.75963
-0.0586374
7.79241
-0.0611861
7.78436
-0.039035
7.76706
-0.0298354
7.78364
-0.0200339
7.78063
-0.0087766
7.7763
0.00141971
7.77771
0.0152122
7.77441
0.015016
7.78395
0.021555
7.77432
0.0210593
7.78271
0.0376834
7.7716
0.0466923
7.78353
0.0589945
7.77763
0.0823886
7.76502
0.0775785
7.78729
0.0721478
7.79333
0.102969
7.75474
0.114331
7.77102
0.267948
7.30935
8.48363
-0.227248
8.66725
-0.141107
7.23445
-0.120488
7.7516
-0.107052
7.74652
-0.104477
7.78986
-0.10602
7.78493
-0.0902036
7.74948
-0.074702
7.7661
-0.0671833
7.77165
-0.0500196
7.76353
-0.0372751
7.76939
-0.0140247
7.75132
-0.0126862
7.78254
-0.0114734
7.77311
-0.00828632
7.77955
0.0127214
7.75064
0.024179
7.7721
0.046985
7.75435
0.0609601
7.75094
0.05951
7.78868
0.0638282
7.78903
0.0786488
7.73992
0.100785
7.74927
0.192497
7.21641
8.67018
-0.169532
8.83678
-0.139429
7.20436
-0.134082
7.74631
-0.112825
7.72547
-0.113245
7.79012
-0.109209
7.77911
-0.0889161
7.72872
-0.0747666
7.75092
-0.0617543
7.75721
-0.0441608
7.74714
-0.0273706
7.75432
-0.00585141
7.73029
0.00287941
7.77374
0.00474843
7.77125
0.014946
7.76937
0.0354112
7.73013
0.0495822
7.75789
0.0691784
7.73436
0.0884875
7.73148
0.0943299
7.78275
0.0944408
7.78893
0.118934
7.71553
0.111498
7.757
0.162244
7.16426
8.83294
-0.0736355
8.91043
-0.0366139
7.16736
-0.0925358
7.80232
-0.0623682
7.69558
-0.0693718
7.79713
-0.0674257
7.77698
-0.0517811
7.71166
-0.0404739
7.73859
-0.0294396
7.74457
-0.0147808
7.73317
0.00066801
7.74074
0.0184069
7.71293
0.0266063
7.76536
0.027659
7.77021
0.0370683
7.75999
0.0545228
7.71265
0.0646175
7.74773
0.081316
7.7173
0.0967896
7.71583
0.101391
7.77807
0.0969406
7.79341
0.124795
7.68775
0.089977
7.7921
0.0969468
7.15718
8.93447
0.118462
8.79197
0.0436749
7.24217
-0.0500732
7.89618
-0.0122505
7.65795
-0.0309513
7.81578
-0.0343005
7.77889
-0.0247319
7.70087
-0.0185928
7.73085
-0.0122474
7.73672
-0.00191254
7.72238
0.00813903
7.7326
0.0215174
7.69996
0.0255024
7.76132
0.0248019
7.77093
0.0297021
7.75511
0.042359
7.69996
0.0464989
7.74354
0.0574707
7.70602
0.0681138
7.70497
0.0694208
7.77673
0.052576
7.81026
0.0884311
7.65197
-0.0140309
7.89484
-0.0212824
7.16441
8.91717
0.304495
8.48745
0.135932
7.41074
-0.00680805
8.03905
0.0224869
7.62889
-0.0220199
7.86032
-0.0472505
7.8032
-0.0601838
7.71309
-0.075197
7.74504
-0.0895257
7.74977
-0.0945545
7.7251
-0.109006
7.74817
-0.116847
7.70814
-0.130495
7.77498
-0.146473
7.787
-0.157977
7.76661
-0.166247
7.70822
-0.184662
7.76191
-0.193824
7.71489
-0.208453
7.71943
-0.228182
7.7962
-0.262508
7.8446
-0.284687
7.67423
-0.354527
7.96477
-0.658606
7.46817
8.26116
0.873212
7.61416
0.521786
7.76217
0.41078
8.1503
0.332666
7.7073
0.268785
7.92433
0.227296
7.84382
0.192273
7.74679
0.162766
7.77524
0.135354
7.77629
0.11523
7.74194
0.0867583
7.77733
0.0640572
7.73148
0.0384544
7.80069
0.00652252
7.81906
-0.0191882
7.79235
-0.0444376
7.73346
-0.0741731
7.79163
-0.101457
7.74195
-0.131204
7.7489
-0.166915
7.832
-0.227957
7.90569
-0.279154
7.72554
-0.406088
8.09167
-0.693791
7.75586
7.56741
0.592872
7.02115
0.410019
7.94515
0.237907
8.32289
0.188357
7.75715
0.129359
7.98306
0.0973152
7.87285
0.0834498
7.75897
0.075148
7.78608
0.0727719
7.77924
0.0761086
7.73262
0.0757354
7.77802
0.0739388
7.73393
0.0782686
7.79657
0.0769676
7.82058
0.0770361
7.79233
0.0725651
7.73796
0.0675712
7.79663
0.0623984
7.7469
0.0558865
7.75522
0.0299064
7.85768
-0.0262478
7.96177
-0.0463587
7.74554
-0.218983
8.2641
-0.372068
7.90868
7.19222
-3.0515
10.0724
-3.3921
8.28629
-2.76618
7.69713
-2.62066
7.61153
-2.30444
7.66607
-1.93231
7.49854
-1.66625
7.49147
-1.37502
7.50143
-1.07182
7.47568
-0.788378
7.43953
-0.491682
7.48204
-0.206897
7.4497
0.0993741
7.49079
0.403598
7.51624
0.694173
7.50164
0.966512
7.46583
1.26656
7.49666
1.54505
7.46846
1.83537
7.46481
2.1972
7.49579
2.50399
7.65493
2.65777
7.5919
3.23433
7.6872
2.95058
8.19204
10.1407
-4.25816
14.331
-4.3643
8.39548
-4.18601
7.51982
-3.88309
7.30671
-3.31746
7.09625
-2.81937
6.99746
-2.37743
7.0522
-1.91497
7.04704
-1.44946
7.00854
-1.02025
6.99911
-0.562817
7.02648
-0.120275
7.00767
0.343749
7.02765
0.812143
7.04766
1.25741
7.05621
1.67902
7.04456
2.13451
7.04136
2.5761
7.02694
3.02697
7.01403
3.56808
6.95459
4.12788
7.09489
4.44036
7.27884
4.60835
7.51889
4.56219
8.23766
14.7039
-2.74871
17.083
-4.85653
10.5082
-4.9652
7.62782
-4.14542
6.48048
-3.65131
6.59638
-3.22037
6.56477
-2.72005
6.55645
-2.19374
6.52888
-1.69034
6.50526
-1.21983
6.52263
-0.725112
6.53431
-0.242613
6.526
0.26148
6.52498
0.762983
6.5467
1.25772
6.56193
1.71907
6.58346
2.20918
6.55155
2.70127
6.53505
3.19732
6.51814
3.66856
6.48391
4.24428
6.51922
5.0957
6.42699
4.72184
7.89222
2.77601
10.1829
17.48
2.3708
14.7166
0.202721
12.6851
-4.97397
12.8046
-3.90827
5.4103
-3.85332
6.5306
-3.3424
6.05069
-2.88078
6.1
-2.3577
6.01566
-1.84436
5.9979
-1.33233
6.01211
-0.814779
6.01909
-0.307057
6.01983
0.216705
6.0032
0.746328
6.01754
1.27144
6.03684
1.79498
6.05983
2.2921
6.05469
2.77236
6.05542
3.20457
6.08615
3.75391
5.93475
3.97892
6.29433
5.08577
5.32018
-0.147957
13.1252
-2.39394
12.4283
15.0858
2.45931
12.2638
3.53435
11.6196
3.54772
12.7984
-0.766229
9.71448
-3.70314
9.48715
-3.21693
5.57394
-2.95356
5.84321
-2.49149
5.56373
-1.96268
5.47934
-1.46461
5.521
-0.971964
5.528
-0.472714
5.52268
0.0276936
5.50508
0.532204
5.51354
1.0309
5.53778
1.53058
5.55986
2.04911
5.53652
2.50754
5.59792
2.61501
5.97982
2.9595
5.5932
-0.126663
9.3807
-4.26529
9.46043
-3.93249
12.7938
-2.95746
11.4518
12.1276
1.8832
10.3866
3.85989
9.64881
5.62731
11.0434
4.88328
10.4248
4.23472
10.1455
-1.04799
10.8211
-2.41804
7.21139
-2.20439
5.35595
-1.65649
4.94032
-1.17347
5.0445
-0.61675
4.97258
-0.0695539
4.97726
0.480435
4.95693
1.03022
4.96458
1.58492
4.98277
2.10423
5.04011
2.56054
5.08118
2.97822
5.18289
1.54073
7.41821
-3.65017
10.7776
-4.26432
9.99668
-4.73949
9.93662
-3.02764
11.0824
-1.34657
9.77158
10.781
1.0168
9.37436
2.09275
8.57916
3.88887
9.25934
4.85098
9.4396
5.0242
9.96321
5.77213
10.1009
2.70901
10.2615
1.28404
6.77869
0.295776
5.92958
-0.169136
5.51198
-0.128455
4.93302
0.0717549
4.77736
0.360954
4.668
0.597459
4.72809
0.692257
4.88813
0.336987
5.39576
-0.880438
6.29665
-2.31436
6.61835
-5.16822
10.2718
-4.39649
10.0119
-3.78985
9.39625
-3.34301
9.48973
-1.73135
9.47
-0.652837
8.69104
10.1283
2.02015
7.35408
3.13569
7.46399
4.343
8.06373
5.8408
7.93325
6.91399
8.87069
6.56406
10.4723
5.00775
11.8089
2.23723
9.54077
0.923751
7.24875
0.138779
6.30473
-0.0685362
5.15001
-0.0754591
4.79637
0.0277035
4.57683
0.0957495
4.67438
0.00701424
4.99179
-0.664703
6.08263
-1.92878
7.57344
-4.51229
9.21434
-6.70114
12.4732
-7.11931
10.4381
-6.3116
8.59529
-4.99853
8.17917
-3.73662
8.20949
-2.61491
7.56972
7.51343
2.50988
4.84407
4.0539
5.91795
4.41652
7.70191
4.04839
8.32
4.2091
8.70693
3.62876
11.0577
2.19689
13.2419
1.04768
10.7231
1.02545
7.26595
0.962247
6.36417
0.5351
5.57404
0.0834235
5.24415
-0.4398
5.09778
-0.936714
5.17071
-1.43433
5.49032
-1.67872
6.32702
-2.20864
8.10162
-3.59427
10.6
-4.66818
13.5529
-5.91043
11.6783
-5.67722
8.36797
-5.68601
8.2
-4.92173
7.44837
-2.922
5.57093
4.59243
3.2099
1.63307
6.38887
2.73648
8.50669
5.58199
7.72078
9.11115
5.65642
10.7832
5.09218
11.6271
5.72729
12.6105
5.17507
11.2801
3.70578
8.73826
2.67562
7.39233
1.65548
6.59104
0.671878
6.22408
-0.333867
6.0997
-1.36439
6.19781
-2.4896
6.61134
-3.66045
7.49169
-4.42287
8.85535
-4.93357
11.1041
-4.00497
12.6233
-4.02608
11.7056
-6.50443
10.8563
-7.75531
9.46401
-5.85918
5.55129
-2.98072
2.69173
1.61185
1.20189
0.431039
2.84713
1.09122
4.90464
3.52832
6.33266
7.69428
5.45048
11.6679
5.2974
11.7805
5.51414
12.3931
4.95422
11.8436
3.69562
10.0004
2.5014
8.58713
1.36992
7.72112
0.29541
7.2963
-0.767183
7.16051
-1.86826
7.29676
-3.03381
7.77509
-4.23943
8.69507
-5.4018
10.0147
-6.00692
11.7064
-5.70911
12.3217
-5.70131
11.6939
-6.44687
11.6052
-4.92486
7.95746
-2.84473
3.47737
-1.1916
1.03879
0.42007
0.568088
-0.137441
0.716971
0.942462
0.811472
3.43914
1.15077
7.36662
2.36211
10.4556
3.08582
11.0555
3.59133
11.8822
3.3938
12.0416
2.6213
10.7729
1.74876
9.45837
0.904861
8.56378
0.0791324
8.12129
-0.738649
7.97728
-1.58101
8.13828
-2.45836
8.65117
-3.35195
9.58634
-4.12421
10.7834
-4.26764
11.8464
-3.62356
11.6716
-2.82429
10.8889
-1.58639
10.3673
-0.843647
7.22589
-0.693854
3.33355
-0.526827
0.872043
-0.105701
-0.18478
0.0491518
-0.346135
1.10726
-1.00552
4.10603
-0.745159
7.11381
0.473092
9.2387
1.48294
10.0427
2.06367
11.294
2.12784
11.9727
1.75503
11.1425
1.24109
9.97011
0.695826
9.1071
0.160189
8.65522
-0.390972
8.52776
-0.936816
8.68261
-1.48181
9.19418
-1.96341
10.0653
-2.25826
11.0756
-2.13514
11.7202
-1.49116
11.0224
-0.41789
9.80781
0.765902
9.18573
1.04198
6.96091
0.355321
4.02736
0.146305
1.08902
0.0483867
-0.686643
0.733632
-1.55362
1.97247
-1.90979
4.46959
-1.7473
6.95909
-0.759749
8.25476
0.0951252
9.17074
0.568483
10.827
0.814509
11.7188
0.857597
11.0947
0.732426
10.0928
0.505784
9.3332
0.218153
8.94295
-0.0709113
8.81576
-0.33902
8.95011
-0.524995
9.37818
-0.588615
10.1259
-0.508112
10.9916
-0.274814
11.484
0.190809
10.5508
1.05169
8.94072
2.02928
8.20631
2.0992
6.89542
1.56549
4.56848
0.649759
2.01206
0.687019
-0.574543
1.3001
-1.7622
3.15761
-2.50135
5.21496
-2.45713
6.92159
-1.90531
7.7046
-1.46375
8.72338
-0.925135
10.2794
-0.423705
11.2126
-0.115908
10.7843
0.0074278
9.96807
0.0193793
9.31985
-0.0263911
8.98644
-0.11275
8.89979
-0.170508
9.00467
-0.172
9.37686
-0.0512802
10.0024
0.264513
10.673
0.761196
10.9841
1.25275
10.0566
1.70692
8.48191
2.29295
7.62045
2.34769
6.84686
1.78898
5.13376
0.692363
3.11122
1.37309
-0.568959
1.86649
-1.6128
4.20013
-2.20677
5.81165
-2.33425
7.05138
-2.08015
7.45003
-1.81114
8.4442
-1.38458
9.85058
-0.869593
10.6946
-0.441525
10.3558
-0.18937
9.71503
-0.0815682
9.21001
-0.0547659
8.95695
-0.0275692
8.87058
0.0184789
8.95876
0.148662
9.24519
0.411998
9.73688
0.809204
10.2719
1.31148
10.4793
1.71445
9.65277
1.96238
8.23062
2.2603
7.32275
2.21679
6.8907
1.61259
5.74388
0.616234
4.10747
2.00051
-0.492423
2.36383
-1.46194
5.1666
-2.07184
6.42564
-2.36469
7.34176
-2.30048
7.37827
-2.10829
8.24899
-1.70059
9.44039
-1.13058
10.1262
-0.651657
9.87588
-0.332584
9.39403
-0.132944
9.00664
0.0301475
8.79122
0.158833
8.74027
0.321849
8.7935
0.535311
9.02929
0.862986
9.40645
1.35525
9.77759
1.90498
9.92724
2.25655
9.29924
2.41536
8.06925
2.49396
7.24361
2.18967
7.19502
1.62329
6.31238
0.643226
5.08976
2.65107
-0.550717
2.92229
-1.51855
6.13509
-2.20804
7.11332
-2.46979
7.5994
-2.53467
7.441
-2.41854
8.12993
-2.10271
9.12762
-1.60356
9.6268
-1.10351
9.37391
-0.70529
8.99201
-0.424213
8.72196
-0.221144
8.58601
-0.0199151
8.53893
0.188492
8.58541
0.475995
8.74047
0.857694
9.02234
1.30185
9.33036
1.7742
9.45212
2.11618
8.95849
2.2509
7.93599
2.23397
7.25995
2.00738
7.42119
1.4135
6.90426
0.440605
6.06719
3.09116
-0.426618
3.35826
-1.33212
7.05053
-1.97537
7.7588
-2.20916
7.83339
-2.32026
7.56019
-2.23848
8.05366
-1.91966
8.80674
-1.42175
9.12814
-0.963692
8.91204
-0.605398
8.62988
-0.314638
8.42922
-0.046236
8.31763
0.18916
8.30384
0.453064
8.32039
0.741865
8.44906
1.11021
8.65077
1.58931
8.84847
2.06007
8.97929
2.32905
8.6863
2.39298
7.87272
2.30014
7.35248
1.99785
7.72412
1.36765
7.53613
0.454514
6.98141
3.55737
-0.373833
3.73626
-1.26066
7.94613
-1.93465
8.42473
-2.05953
7.95207
-2.2223
7.72189
-2.13917
7.96929
-1.8719
8.53878
-1.45236
8.70514
-1.00794
8.46496
-0.613793
8.23258
-0.283184
8.09762
-0.0097288
8.04414
0.269746
8.02463
0.54234
8.04739
0.878442
8.11111
1.27325
8.2529
1.68862
8.43025
2.10529
8.5604
2.38802
8.40342
2.45316
7.81016
2.30344
7.50122
2.17181
7.84937
1.44776
8.2515
0.474261
7.95373
4.03695
-0.58084
4.32335
-1.49374
8.86766
-2.1043
9.03072
-2.25526
8.1031
-2.38456
7.85217
-2.42621
8.01536
-2.18572
8.29721
-1.72581
8.24219
-1.28488
8.0206
-0.921243
7.86668
-0.607481
7.78321
-0.291361
7.72793
0.00102676
7.7322
0.320883
7.72627
0.638404
7.79123
0.99799
7.89017
1.43209
7.99338
1.84232
8.14902
2.07793
8.16407
2.10458
7.78911
1.95698
7.65022
1.84153
7.96435
1.23883
8.85769
0.322739
8.87833
4.36069
-0.404779
4.73707
-1.23012
9.7067
-1.85237
9.64663
-1.97887
8.22498
-2.02492
7.8939
-1.98523
7.97433
-1.77981
8.0857
-1.43894
7.89766
-1.06576
7.6455
-0.701319
7.50063
-0.362575
7.44332
-0.0692804
7.43357
0.241862
7.42009
0.535216
7.43185
0.877968
7.447
1.24438
7.52175
1.60014
7.63574
1.96554
7.78324
2.18982
7.93632
2.15932
7.82173
2.12186
7.68977
1.99468
8.09099
1.33114
9.51892
0.482442
9.74341
4.84198
-0.297722
5.04251
-1.01732
10.4369
-1.73889
10.3628
-1.76523
8.24807
-1.82432
7.94965
-1.80096
7.9507
-1.62288
7.90494
-1.2841
7.55624
-0.949362
7.3084
-0.652883
7.20241
-0.369759
7.15888
-0.0627172
7.12553
0.223809
7.132
0.532174
7.12199
0.815289
7.16218
1.12796
7.20719
1.49195
7.27026
1.79868
7.47643
1.95726
7.77421
1.97394
7.80878
1.90413
7.76183
1.98724
8.00707
1.33348
10.1636
0.456073
10.6209
5.29705
-0.594481
5.64116
-1.20091
11.0483
-1.91581
11.0635
-1.95975
8.28372
-1.96085
7.94583
-1.87999
7.86798
-1.66727
7.68558
-1.40027
7.28647
-1.10921
7.01462
-0.808063
6.89946
-0.500069
6.84805
-0.228173
6.8512
0.0669458
6.83525
0.343436
6.84428
0.663591
6.84138
0.965279
6.90458
1.22289
7.01178
1.49855
7.20098
1.70153
7.56862
1.77468
7.7381
1.78074
7.75631
1.64464
8.14291
0.853509
10.9524
0.340352
11.1411
5.64198
-0.358355
6.00246
-0.715004
11.4111
-1.49627
11.8305
-1.62504
8.40851
-1.65986
7.98063
-1.59334
7.80243
-1.44602
7.53496
-1.16549
7.00475
-0.873
6.72026
-0.599197
6.62281
-0.349887
6.59658
-0.0604575
6.56015
0.20872
6.56474
0.497977
6.55382
0.743477
6.59461
1.0236
6.62333
1.3259
6.70841
1.5845
6.94356
1.73309
7.41698
1.78859
7.68592
1.74689
7.79597
1.63247
8.25858
0.841176
11.7302
0.587636
11.4025
6.23835
-0.23825
6.24372
-0.407867
11.5806
-0.986614
12.4073
-1.46471
8.88183
-1.58965
8.10209
-1.47
7.68025
-1.23608
7.29463
-1.04319
6.80801
-0.818479
6.49336
-0.580313
6.38269
-0.307848
6.32154
-0.077453
6.3283
0.178868
6.30719
0.409185
6.32284
0.686557
6.31665
0.916358
6.39295
1.13179
6.49167
1.34811
6.72691
1.56554
7.19588
1.69775
7.55675
1.587
7.90924
1.12029
8.72362
0.486829
12.3439
0.29847
11.5992
6.52655
-0.467378
6.71384
-0.535114
11.6509
-1.00642
12.8835
-1.67802
9.54867
-1.5666
7.98631
-1.49888
7.61133
-1.35007
7.14037
-1.11387
6.57226
-0.880774
6.25798
-0.643926
6.14265
-0.442658
6.11867
-0.189337
6.07356
0.0405248
6.07639
0.295616
6.06646
0.49916
6.11185
0.747666
6.1431
0.981461
6.25696
1.17092
6.53905
1.33372
7.02652
1.38798
7.49851
1.45262
7.84281
0.680419
9.49896
0.0284685
13.0007
0.12216
11.5186
6.63899
-0.268806
6.98681
-0.168564
11.5493
-0.425653
13.1475
-1.26548
10.3883
-1.39561
8.11242
-1.31901
7.53358
-1.09469
6.91403
-0.889427
6.36467
-0.703844
6.06995
-0.511055
5.94953
-0.261653
5.86779
-0.0578119
5.86888
0.17454
5.84306
0.377884
5.86222
0.629884
5.8592
0.815181
5.95721
0.991963
6.078
1.22829
6.30273
1.4207
6.83307
1.52231
7.40032
1.43796
7.92801
0.611847
10.3208
0.299732
13.321
0.310659
11.5351
6.93552
-0.0190751
7.00939
0.127357
11.4077
0.0467672
13.2356
-0.889765
11.324
-1.16504
8.38376
-1.09422
7.46095
-1.01255
6.83018
-0.837662
6.19137
-0.635284
5.86806
-0.434462
5.74599
-0.271782
5.70417
-0.0557999
5.65155
0.136015
5.6501
0.353718
5.64345
0.515699
5.69602
0.726331
5.74475
0.923731
5.87886
1.08164
6.14647
1.19658
6.70938
1.31511
7.27768
1.08908
8.15445
0.13766
11.2648
-0.0848563
13.5549
0.0241057
11.4342
6.97609
-0.17978
7.18907
-0.193771
11.4298
-0.0871751
13.1369
-0.731583
11.9749
-1.36958
9.01299
-1.22162
7.31297
-1.04876
6.65819
-0.857651
5.99766
-0.688402
5.69659
-0.539902
5.59742
-0.329503
5.49302
-0.16039
5.48175
0.0373148
5.45153
0.211794
5.46789
0.422308
5.48512
0.565
5.60197
0.729168
5.71276
0.933715
5.9412
1.04252
6.59921
1.15936
7.16097
0.476374
8.82813
-0.312692
12.0409
-0.169648
13.4172
-0.0560344
11.3143
6.93832
-0.0224231
7.21238
0.0404158
11.3736
0.262253
12.9244
-0.160887
12.4015
-0.919073
9.77107
-0.900437
7.29546
-0.852638
6.61164
-0.726129
5.87143
-0.565874
5.53986
-0.372057
5.40182
-0.228644
5.34908
-0.0384688
5.29088
0.130456
5.28185
0.31843
5.27921
0.463185
5.33895
0.666734
5.39712
0.824327
5.55513
0.944862
5.82283
1.03667
6.50341
1.05025
7.14244
0.332861
9.55092
-0.104787
12.4783
0.166564
13.1534
0.151819
11.3301
7.12674
0.0519458
7.16566
0.109662
11.3236
0.44457
12.5941
0.431561
12.4194
-0.557783
10.7584
-0.922705
7.6588
-0.743458
6.43115
-0.617995
5.74156
-0.484729
5.40687
-0.371343
5.28815
-0.191001
5.16871
-0.0455492
5.14469
0.122681
5.11327
0.264852
5.13624
0.446792
5.15732
0.557248
5.28603
0.694348
5.41466
0.842774
5.67206
1.05041
6.29793
0.721486
7.46857
-0.143289
10.4095
-0.328918
12.6469
0.067456
12.7473
0.0908487
11.3106
7.23973
-0.110317
7.2848
-0.0914838
11.3121
0.184912
12.3202
0.335712
12.2652
-0.284891
11.3813
-0.819392
8.19758
-0.781738
6.39444
-0.672356
5.63493
-0.569856
5.30547
-0.403715
5.12005
-0.281824
5.04646
-0.118113
4.98082
0.023796
4.9711
0.184909
4.97488
0.304754
5.03613
0.47415
5.11558
0.566428
5.32342
0.625388
5.61424
0.697821
6.22339
0.0374509
8.12329
-0.761084
11.2011
-0.448327
12.328
-0.116871
12.4235
-0.0701764
11.2661
7.17536
-0.0262573
7.32177
0.0336647
11.2617
0.266916
12.0862
0.696269
11.836
0.164936
11.9207
-0.501913
8.86793
-0.644861
6.53604
-0.50783
5.49796
-0.40633
5.20207
-0.321263
5.03496
-0.164547
4.89069
-0.036979
4.85303
0.111217
4.8229
0.23873
4.84697
0.395398
4.8795
0.482996
5.02638
0.59311
5.20902
0.737521
5.46755
0.625333
6.32966
-0.0514784
8.81126
-0.60974
11.7489
-0.1458
11.8673
0.132078
12.1425
0.148814
11.2474
7.32377
0.101603
7.23088
0.235311
11.1383
0.368756
11.9529
0.680757
11.5173
0.916373
11.6862
0.00539409
9.78454
-0.465194
7.00442
-0.445124
5.47956
-0.378033
5.13393
-0.255769
4.91287
-0.158984
4.79283
-0.0271891
4.72118
0.0915975
4.70409
0.224354
4.71414
0.321684
4.7814
0.46122
4.8883
0.530836
5.14073
0.591575
5.40857
0.236644
6.6838
-0.725376
9.77559
-0.666408
11.6923
-0.251869
11.4587
-0.0152872
11.9065
0.0152758
11.1992
7.33844
-0.107596
7.35073
-0.0220274
11.0638
0.118078
11.8119
0.42255
11.2154
0.804714
11.3114
0.113912
10.4761
-0.398589
7.52051
-0.482864
5.56519
-0.373216
5.0202
-0.311516
4.85114
-0.198559
4.68212
-0.0945258
4.61709
0.0258958
4.58395
0.13153
4.60834
0.243259
4.66933
0.301856
4.82664
0.409354
5.03227
0.299103
5.5165
-0.22599
7.20644
-1.02865
10.5772
-0.685972
11.355
-0.366008
11.1487
-0.205115
11.7438
-0.060562
11.0337
7.28445
0.0545879
7.30839
0.232959
10.8961
0.302502
11.7409
0.52328
10.9884
1.00788
10.8155
0.913406
10.57
0.0280793
8.41082
-0.329605
5.9228
-0.29588
4.98372
-0.20532
4.76105
-0.125388
4.60164
-0.0242953
4.51591
0.0755463
4.48416
0.177979
4.50609
0.266154
4.58136
0.353943
4.7422
0.402662
4.98243
0.0343708
5.88356
-0.813446
8.05547
-0.930441
10.6895
-0.432168
10.8603
-0.198611
10.9057
-0.0879427
11.6241
0.0302283
10.91
7.31856
0.0905987
7.2301
0.322308
10.6736
0.3888
11.6701
0.59893
10.7808
0.909085
10.5051
1.13551
10.3409
0.481554
9.06649
-0.0771148
6.48103
-0.201686
5.10503
-0.158968
4.71838
-0.0891661
4.53377
-0.0143801
4.44167
0.0728623
4.3977
0.150865
4.42893
0.234664
4.49815
0.290795
4.68463
0.21696
5.05563
-0.245986
6.34707
-1.05201
8.86161
-0.801938
10.4384
-0.467856
10.5212
-0.24753
10.675
-0.182625
11.5499
-0.0202874
10.7621
7.3116
-0.00277649
7.24387
0.176717
10.4996
0.282382
11.5659
0.420763
10.6375
0.679488
10.2442
1.14911
9.86964
0.871421
9.34346
0.0713509
7.28062
-0.201959
5.37838
-0.193933
4.71085
-0.127357
4.46575
-0.0537536
4.36895
0.00757375
4.33802
0.0781316
4.35972
0.144102
4.43292
0.144746
4.68641
-0.131725
5.33244
-1.0469
7.26082
-1.37072
9.19122
-0.818072
9.88131
-0.558068
10.2622
-0.442088
10.5677
-0.39558
11.5167
-0.122136
10.5137
7.20167
0.015616
7.23635
0.293073
10.2281
0.416078
11.4286
0.527506
10.5391
0.763837
10.0098
1.04532
9.58583
1.13681
9.25003
0.60115
7.8199
0.040949
5.94203
-0.0931516
4.84609
-0.060384
4.43753
-0.0114108
4.32167
0.035809
4.29241
0.0896994
4.30752
0.132875
4.39193
-0.00663571
4.82602
-0.574401
5.90185
-1.12464
7.82211
-1.05286
9.12632
-0.743285
9.57477
-0.484228
10.0081
-0.370429
10.4599
-0.272967
11.4178
-0.00265704
10.2731
7.21351
0.0503952
7.1933
0.345904
9.93445
0.578871
11.1997
0.635418
10.4656
0.800917
9.83722
1.0059
9.37721
1.40807
8.84289
0.93323
8.29641
0.267428
6.62132
0.018227
5.09597
-0.0135607
4.46667
0.0107995
4.29838
0.0298291
4.27497
0.0600443
4.279
0.0527902
4.39829
-0.194503
5.07525
-0.947688
6.66297
-1.39091
8.26992
-1.00094
8.74051
-0.725619
9.30326
-0.528324
9.81141
-0.492978
10.4294
-0.290456
11.236
-0.00834066
10.0118
7.20948
-0.0229789
-1.97706
-0.00158798
-1.76139
0.0658418
-1.34444
0.120748
-1.12999
0.19244
-1.00263
0.271613
-0.982315
0.333743
-1.00139
0.393394
-1.08331
0.443856
-1.26181
0.483152
-1.42499
0.495219
-1.48658
0.493151
-1.49173
0.483734
-1.46085
0.473324
-1.41156
0.466455
-1.3634
0.464749
-1.31145
0.465037
-1.27144
0.450336
-1.22456
0.400777
-1.16758
0.225381
-1.05212
0.097002
-0.714928
0.022181
-0.497862
-0.0157795
-0.375041
-0.0242143
-0.316861
-0.0207523
-0.311952
-0.0131387
-0.314005
-0.00336274
-0.323259
0.00357501
-0.336343
0.00546642
-0.346471
-0.350835
0.104158
-1.95436
0.134165
-1.5474
0.119724
-1.02158
0.14997
-0.840909
0.190417
-0.769987
0.236592
-0.771904
0.310901
-0.775831
0.420251
-0.815292
0.503627
-0.964327
0.545379
-1.16241
0.561808
-1.29912
0.553854
-1.35443
0.536422
-1.35646
0.520674
-1.32942
0.507722
-1.2923
0.502377
-1.25094
0.501337
-1.21352
0.49185
-1.17566
0.454849
-1.12435
0.36581
-1.02293
0.155718
-0.762562
0.0549573
-0.509976
0.00242422
-0.370329
-0.019008
-0.291887
-0.0192842
-0.29058
-0.0136024
-0.291406
-0.00526589
-0.297498
0.00172047
-0.306577
0.00347845
-0.313611
-0.315593
0.0218991
-1.81423
0.0526253
-1.30541
0.0617444
-0.784317
0.0954104
-0.685577
0.140107
-0.712027
0.198979
-0.742228
0.261666
-0.734631
0.360358
-0.659778
0.42455
-0.67263
0.485682
-0.890468
0.51376
-1.09304
0.515451
-1.20741
0.505743
-1.24634
0.49763
-1.24591
0.491599
-1.22589
0.488812
-1.19352
0.492632
-1.1613
0.487507
-1.12851
0.455135
-1.08347
0.397385
-1.0249
0.204889
-0.902581
0.0819435
-0.552321
0.0120938
-0.378128
-0.0184274
-0.293858
-0.0236098
-0.267623
-0.0196523
-0.270781
-0.0118762
-0.273876
-0.00359818
-0.279354
0.00101262
-0.283287
-0.283294
0.00333275
-1.63776
0.0210522
-1.06513
0.0409405
-0.696815
0.0782533
-0.682374
0.140866
-0.743418
0.206575
-0.782048
0.27004
-0.767471
0.324844
-0.659561
0.384177
-0.465503
0.455743
-0.606354
0.497096
-0.852519
0.505061
-1.0333
0.497009
-1.12179
0.490323
-1.15769
0.487473
-1.15897
0.486714
-1.14046
0.492474
-1.11474
0.49243
-1.08755
0.470816
-1.05237
0.407566
-1.00035
0.30144
-0.92875
0.123566
-0.653915
0.0293637
-0.406587
-0.0119501
-0.297459
-0.0234771
-0.244002
-0.0209339
-0.251502
-0.0138014
-0.252006
-0.00588827
-0.254193
-0.000663065
-0.255442
-0.254431
0.00877575
-1.46178
0.0287655
-0.872042
0.0462328
-0.675575
0.094595
-0.711152
0.157976
-0.791094
0.226467
-0.856676
0.283773
-0.836059
0.313377
-0.672977
0.340663
-0.421269
0.4132
-0.389111
0.463664
-0.606082
0.48703
-0.846465
0.488136
-0.993374
0.487204
-1.06646
0.488607
-1.09303
0.491808
-1.09402
0.501464
-1.07564
0.504894
-1.05808
0.503213
-1.03289
0.446817
-0.985235
0.369541
-0.939776
0.186695
-0.803161
0.0589019
-0.47594
-0.00220959
-0.310005
-0.0209264
-0.245934
-0.0213831
-0.231745
-0.0147219
-0.232205
-0.00626486
-0.23509
-0.000976001
-0.237674
-0.236561
0.0153877
-1.28161
0.0366157
-0.726404
0.057519
-0.672738
0.107956
-0.743462
0.1746
-0.869542
0.24454
-0.958162
0.303859
-0.931352
0.309683
-0.682986
0.3146
-0.406112
0.355337
-0.262747
0.426963
-0.398067
0.469693
-0.662735
0.482806
-0.861433
0.487893
-0.973741
0.493375
-1.02813
0.500265
-1.04958
0.511721
-1.04579
0.522364
-1.03987
0.51879
-1.02278
0.472146
-0.983182
0.407658
-0.924376
0.325033
-0.854015
0.107006
-0.655236
0.0163915
-0.348468
-0.0147091
-0.24928
-0.0199981
-0.208645
-0.014327
-0.215137
-0.00787915
-0.219626
-0.00345111
-0.222162
-0.216714
0.0200116
-1.10909
0.0397591
-0.631022
0.0675213
-0.680055
0.118834
-0.782628
0.190347
-0.958025
0.266739
-1.06126
0.307041
-1.00127
0.306507
-0.725023
0.292847
-0.398294
0.293209
-0.204769
0.373263
-0.257511
0.427976
-0.506709
0.466174
-0.745516
0.481948
-0.884385
0.494772
-0.961974
0.503581
-1.00792
0.517413
-1.02429
0.532397
-1.02388
0.532025
-1.02078
0.490927
-0.995189
0.442326
-0.922269
0.373662
-0.901785
0.187155
-0.787886
0.0505734
-0.451819
-0.00532905
-0.26789
-0.0172354
-0.210805
-0.0176735
-0.192409
-0.0126891
-0.196717
-0.00620934
-0.197938
-0.194237
0.0200587
-0.956867
0.0420233
-0.604706
0.0744213
-0.69754
0.129635
-0.836728
0.19814
-1.04739
0.260959
-1.14312
0.292508
-1.04303
0.293417
-0.755427
0.254655
-0.379583
0.247453
-0.169125
0.314169
-0.182731
0.381391
-0.393657
0.432874
-0.643399
0.465678
-0.809377
0.488017
-0.905676
0.502362
-0.964881
0.520714
-1.00212
0.539459
-1.01456
0.550332
-1.02106
0.544156
-1.00837
0.458981
-0.948597
0.408897
-0.89532
0.340878
-0.848441
0.108637
-0.732486
0.01544
-0.327991
-0.0123118
-0.214617
-0.0185471
-0.179588
-0.0137765
-0.174499
-0.00665821
-0.169282
-0.167071
0.0218932
-0.83034
0.0403411
-0.600138
0.0717173
-0.721857
0.129041
-0.902324
0.192114
-1.12794
0.24003
-1.19222
0.251313
-1.04891
0.247516
-0.719205
0.204195
-0.334642
0.197595
-0.140475
0.253493
-0.156395
0.321625
-0.32108
0.393349
-0.566747
0.438712
-0.74914
0.474412
-0.866099
0.502359
-0.933527
0.523682
-0.979148
0.544391
-1.00413
0.560428
-1.02292
0.556934
-1.02914
0.479787
-0.996265
0.436831
-0.905121
0.372769
-0.886937
0.272778
-0.810597
0.0593918
-0.481164
-0.000197895
-0.241883
-0.0145859
-0.169743
-0.0114697
-0.151136
-0.00528473
-0.144679
-0.135168
0.0202132
-0.730063
0.0347365
-0.598754
0.0612685
-0.746229
0.114063
-0.974463
0.170524
-1.21777
0.19221
-1.22886
0.180851
-1.01534
0.165109
-0.677746
0.147789
-0.305968
0.161379
-0.13899
0.182467
-0.131093
0.261722
-0.287091
0.345361
-0.520845
0.406749
-0.715266
0.452379
-0.84263
0.492642
-0.914499
0.522969
-0.960514
0.548008
-0.992755
0.570398
-1.02695
0.577866
-1.05705
0.549147
-1.05191
0.458056
-0.964565
0.427006
-0.901216
0.392058
-0.893139
0.142561
-0.784051
0.0320304
-0.343219
-0.00352754
-0.184907
-0.00613492
-0.12688
-0.00139304
-0.128186
-0.130168
0.0156061
-0.650036
0.0240446
-0.592781
0.0446585
-0.76667
0.0778715
-1.03411
0.115069
-1.28875
0.126216
-1.24914
0.0962646
-0.974209
0.0795242
-0.636011
0.0848419
-0.293642
0.102266
-0.13942
0.134024
-0.135714
0.212191
-0.2765
0.298481
-0.487444
0.375143
-0.672001
0.430002
-0.815408
0.472502
-0.896817
0.509518
-0.945272
0.545256
-0.984001
0.578894
-1.02994
0.61885
-1.0865
0.627257
-1.11805
0.499255
-1.12504
0.458373
-0.937735
0.423151
-0.92967
0.368104
-0.926569
0.1032
-0.733247
0.0232229
-0.264487
0.00146545
-0.174005
-0.001599
-0.136897
-0.143512
0.0117448
-0.586207
0.0136289
-0.580246
0.0220405
-0.780244
0.028001
-1.07088
0.0387667
-1.31851
0.0324194
-1.23553
0.0102061
-0.936827
0.00267455
-0.597377
0.0230729
-0.292593
0.0514749
-0.151884
0.090952
-0.157595
0.169011
-0.292933
0.258244
-0.489328
0.340258
-0.650318
0.401762
-0.786534
0.449493
-0.877584
0.493541
-0.931012
0.539342
-0.976126
0.589105
-1.02935
0.627622
-1.08926
0.638148
-1.12781
0.579989
-1.1261
0.486964
-0.995032
0.465887
-0.973177
0.438377
-0.995345
0.28532
-0.893735
0.0686016
-0.455212
0.01624
-0.243907
0.00263535
-0.177194
-0.160484
0.00499925
-0.529252
-0.00208376
-0.560225
-0.00907904
-0.784843
-0.0282753
-1.07892
-0.0433228
-1.31283
-0.0701989
-1.19532
-0.073748
-0.916121
-0.0701039
-0.578147
-0.0420922
-0.306921
0.00387524
-0.188464
0.0521027
-0.201604
0.132984
-0.334018
0.220177
-0.504619
0.30365
-0.649581
0.370375
-0.769995
0.425674
-0.860816
0.473915
-0.920138
0.52691
-0.972463
0.58231
-1.02908
0.628882
-1.08811
0.653492
-1.13046
0.634627
-1.14651
0.511253
-1.0634
0.494657
-1.02373
0.48135
-1.03499
0.443146
-1.02152
0.1475
-0.894368
0.0410876
-0.369063
0.0087482
-0.227475
-0.186216
-0.00237
-0.472389
-0.0201752
-0.530064
-0.0410502
-0.775849
-0.0820152
-1.06236
-0.125724
-1.27528
-0.15295
-1.15668
-0.153384
-0.902754
-0.136846
-0.580043
-0.10304
-0.343995
-0.0480267
-0.248063
0.0203838
-0.275792
0.0993608
-0.393118
0.183746
-0.54247
0.265246
-0.669931
0.335921
-0.766316
0.398354
-0.854094
0.453626
-0.918745
0.511646
-0.975478
0.571261
-1.03417
0.62506
-1.09145
0.662587
-1.13857
0.646342
-1.1676
0.527108
-1.15383
0.506622
-1.0842
0.510212
-1.07651
0.49555
-1.083
0.409219
-1.04329
0.100439
-0.808112
0.0222523
-0.294162
-0.214087
-0.0131131
-0.41075
-0.0414341
-0.493246
-0.078326
-0.750331
-0.138956
-1.02397
-0.210986
-1.20956
-0.226804
-1.13795
-0.229356
-0.90177
-0.200911
-0.616743
-0.155159
-0.408508
-0.0919314
-0.332635
-0.0170628
-0.379735
0.0607645
-0.46282
0.146316
-0.606811