/*--------------------------------*- C++ -*----------------------------------*\
| =========                 |                                                 |
| \\      /  F ield         | OpenFOAM: The Open Source CFD Toolbox           |
|  \\    /   O peration     | Version:  2112                                  |
|   \\  /    A nd           | Website:  www.openfoam.com                      |
|    \\/     M anipulation  |                                                 |
\*---------------------------------------------------------------------------*/
FoamFile
{
    version     2.0;
    format      ascii;
    arch        "LSB;label=32;scalar=64";
    class       surfaceScalarField;
    location    "0.00893";
    object      phi;
}
// * * * * * * * * * * * * * * * * * * * * * * * * * * * * * * * * * * * * * //

dimensions      [1 0 -1 0 0 0 0];

oriented        oriented;

internalField   nonuniform List<scalar> 
27436
(
-0.533465
8.19282
-0.0933054
7.47167
-0.0850297
7.78727
-0.069897
7.78581
-0.0646574
7.78891
-0.0485351
7.7806
-0.0414686
7.78977
-0.0348864
7.78979
-0.0237657
7.78706
-0.0147031
7.78852
-0.00853281
7.79025
0.000491995
7.78836
0.0142283
7.78319
0.0310895
7.78085
0.0462287
7.78231
0.0549128
7.78824
0.0580263
7.79262
0.0658441
7.78971
0.0753446
7.78829
0.0895441
7.78253
0.0961914
7.78791
0.111745
7.78558
0.123786
7.78263
0.573625
7.46051
8.2174
-0.2472
8.44
-0.09615
7.32065
-0.0814018
7.77265
-0.0550786
7.76006
-0.0608118
7.7951
-0.0589331
7.78299
-0.0372794
7.76848
-0.0280431
7.78074
-0.020673
7.78032
-0.0112276
7.78005
0.000914919
7.77878
0.0154117
7.77358
0.0151419
7.78358
0.0216471
7.77434
0.0210699
7.78288
0.0377115
7.7716
0.0465974
7.78373
0.0589654
7.77734
0.0823439
7.76491
0.0776914
7.78719
0.0722208
7.79337
0.102976
7.75482
0.114231
7.77105
0.268338
7.30817
8.48955
-0.227254
8.66723
-0.141227
7.23453
-0.120759
7.75203
-0.107418
7.74673
-0.105694
7.79327
-0.105225
7.78278
-0.0949055
7.75889
-0.0744347
7.75976
-0.0590803
7.76322
-0.0492684
7.76586
-0.0388997
7.76436
-0.0147711
7.74939
-0.0126011
7.78155
-0.0113701
7.77314
-0.00824463
7.77976
0.0127102
7.75063
0.0240807
7.77235
0.0473372
7.75413
0.0609259
7.75132
0.0593983
7.78873
0.0638887
7.78891
0.0786986
7.73992
0.100863
7.74896
0.192175
7.21773
8.67667
-0.169566
8.83678
-0.139621
7.20451
-0.134555
7.74685
-0.11397
7.72618
-0.11516
7.79429
-0.109218
7.77764
-0.0915055
7.74112
-0.0723955
7.73985
-0.0569746
7.74555
-0.0431462
7.75026
-0.0287485
7.74858
-0.00718276
7.72761
0.00298915
7.77153
0.0048929
7.77129
0.0149759
7.76969
0.035312
7.7303
0.0494618
7.75822
0.0697722
7.73386
0.0885545
7.73253
0.0942286
7.78307
0.0944683
7.7887
0.118986
7.71537
0.111692
7.75652
0.162334
7.16604
8.83369
-0.0736376
8.9104
-0.0368324
7.16766
-0.0930485
7.80293
-0.0640436
7.69717
-0.0717261
7.80206
-0.0691135
7.77543
-0.053848
7.72583
-0.0364355
7.72174
-0.023679
7.73052
-0.0138629
7.73849
-0.00140008
7.73482
0.0165315
7.70941
0.0268427
7.76136
0.0276386
7.77055
0.0370519
7.76029
0.0543886
7.71298
0.06449
7.74814
0.0821522
7.71624
0.0969986
7.71769
0.101049
7.77902
0.0968778
7.79291
0.124872
7.68738
0.0903021
7.79129
0.0976874
7.15784
8.92993
0.118475
8.7919
0.0435594
7.24249
-0.0507188
7.89701
-0.0145005
7.66087
-0.0338465
7.82106
-0.0365271
7.77805
-0.0264619
7.71572
-0.0131979
7.70698
-0.00448543
7.71986
-0.00110637
7.73211
0.00569549
7.72699
0.0193042
7.69557
0.0256537
7.75516
0.0250044
7.77127
0.0296721
7.75563
0.0421856
7.70047
0.0463879
7.74395
0.058474
7.70419
0.0684612
7.70771
0.0690414
7.77845
0.0523901
7.8096
0.0884651
7.65128
-0.0137948
7.89397
-0.0209635
7.16487
8.91137
0.304559
8.48729
0.135898
7.41102
-0.00728915
8.04005
0.020619
7.63268
-0.025241
7.86636
-0.0510815
7.8025
-0.0613822
7.72655
-0.0675894
7.71264
-0.0808892
7.73099
-0.0950871
7.7442
-0.111966
7.74327
-0.120348
7.70387
-0.131155
7.76606
-0.146262
7.78644
-0.158032
7.76739
-0.166392
7.70884
-0.185003
7.76258
-0.192958
7.71219
-0.207927
7.7227
-0.22875
7.79928
-0.262794
7.84368
-0.284726
7.67322
-0.354811
7.96443
-0.658377
7.46797
8.2562
0.873249
7.61396
0.521816
7.76228
0.409786
8.15181
0.330631
7.71136
0.26493
7.93148
0.222599
7.84348
0.193577
7.75704
0.171736
7.73457
0.144065
7.75614
0.114328
7.77241
0.0828645
7.77516
0.0608131
7.72618
0.0379575
7.78898
0.00677293
7.81769
-0.0192199
7.79338
-0.0445104
7.73412
-0.0743104
7.79238
-0.100683
7.73859
-0.130622
7.75268
-0.167151
7.83581
-0.228207
7.90478
-0.27902
7.7241
-0.40621
8.09193
-0.693635
7.75527
7.56619
0.592915
7.02091
0.410063
7.94507
0.237242
8.32449
0.187038
7.76078
0.126223
7.9913
0.0925877
7.87413
0.0851909
7.76568
0.0846917
7.73567
0.0809825
7.7584
0.0760145
7.7759
0.0714294
7.78105
0.0705277
7.72703
0.0766903
7.78284
0.0768168
7.81763
0.0769498
7.79323
0.0722193
7.73882
0.0674575
7.79713
0.0629825
7.74311
0.0562185
7.7595
0.0292922
7.86279
-0.0267294
7.96085
-0.046572
7.74399
-0.219279
8.2649
-0.372371
7.90843
7.19432
-3.05091
10.0718
-3.39141
8.28551
-2.76535
7.69759
-2.61992
7.61443
-2.30444
7.67581
-1.94962
7.51851
-1.64861
7.46481
-1.36834
7.45458
-1.08215
7.47262
-0.782908
7.47605
-0.494439
7.49416
-0.209195
7.44139
0.0972767
7.47622
0.4037
7.5113
0.694799
7.50214
0.966078
7.4675
1.26523
7.49796
1.54203
7.4663
1.83594
7.46562
2.19638
7.50233
2.50185
7.65539
2.65995
7.58598
3.23533
7.68956
2.95084
8.19316
10.1434
-4.25778
14.3297
-4.36522
8.39349
-4.19635
7.52662
-3.90159
7.3194
-3.32376
7.09994
-2.79814
6.99463
-2.34536
7.01225
-1.91796
7.02701
-1.47024
7.02641
-1.01995
7.02686
-0.562049
7.03704
-0.121731
7.00043
0.339892
7.01434
0.811791
7.03954
1.25914
7.05484
1.67715
7.04946
2.13227
7.04283
2.57075
7.02781
3.02573
7.01063
3.57768
6.9504
4.13434
7.09869
4.44437
7.27607
4.61509
7.51862
4.56492
8.24327
14.7076
-2.75743
17.088
-4.86314
10.499
-4.98323
7.64392
-4.14465
6.48046
-3.62546
6.58316
-3.17299
6.54383
-2.69463
6.53362
-2.21348
6.54659
-1.71849
6.53415
-1.22425
6.53581
-0.723172
6.53531
-0.244655
6.5211
0.257103
6.51234
0.762041
6.53477
1.2597
6.55732
1.71822
6.59099
2.20557
6.55551
2.69686
6.53656
3.19229
6.5152
3.66817
6.4745
4.24946
6.51736
5.10005
6.42551
4.72237
7.89598
2.77989
10.1852
17.4866
2.36501
14.7233
0.162786
12.7005
-5.01183
12.8161
-3.89536
5.36099
-3.80434
6.49244
-3.30315
6.04205
-2.87346
6.10329
-2.37394
6.04735
-1.8533
6.01602
-1.32918
6.01484
-0.810626
6.01561
-0.307496
6.01706
0.20998
5.9947
0.740126
6.00483
1.26496
6.03278
1.78903
6.06714
2.27998
6.0647
2.75911
6.0575
3.19987
6.07448
3.76079
5.9136
3.97401
6.30425
5.11051
5.28882
-0.179066
13.185
-2.398
12.4033
15.0881
2.45368
12.2688
3.52044
11.6332
3.44238
12.8925
-0.814512
9.62008
-3.627
9.3038
-3.20091
5.61398
-2.97516
5.87624
-2.47829
5.5495
-1.9519
5.48955
-1.46737
5.53086
-0.977991
5.52519
-0.473206
5.51162
0.0254334
5.49602
0.530418
5.50001
1.03401
5.52972
1.53061
5.57109
2.03035
5.56527
2.48381
5.60407
2.61146
5.9467
2.98538
5.53975
-0.0893873
9.37921
-4.15394
9.35483
-3.87687
12.9071
-2.95569
11.4808
12.1314
1.87814
10.3896
3.87594
9.63507
5.7755
10.9921
4.95769
10.4423
4.09175
10.1732
-1.19981
10.9109
-2.38655
7.06544
-2.05049
5.20973
-1.63121
5.06771
-1.1377
5.03639
-0.603077
4.99049
-0.0632077
4.97192
0.46914
4.96392
1.00055
4.96883
1.54059
4.99031
2.05294
5.05971
2.44671
5.17176
2.79802
5.25273
1.50481
7.23993
-3.66564
10.7108
-4.23614
9.95036
-4.8917
10.0111
-3.05177
11.067
-1.3332
9.7614
10.7973
1.09227
9.29657
2.16941
8.55721
3.98546
9.17436
4.9405
9.49069
5.05466
10.0641
5.79495
10.1721
2.76912
10.0902
1.12631
6.85421
-0.054129
6.24977
-0.389589
5.37108
-0.253456
4.85496
0.0392925
4.6801
0.391672
4.61234
0.71337
4.64776
0.927149
4.77753
0.812094
5.1758
-0.510778
6.49533
-2.33823
7.07889
-5.03043
9.93182
-4.27966
9.95989
-3.97178
9.64353
-3.50792
9.54802
-1.86076
9.41921
-0.760803
8.66133
10.0359
2.00531
7.2908
3.17287
7.38984
4.36991
7.97946
5.95161
7.9124
7.05367
8.96777
6.64285
10.5848
4.70903
12.0202
2.15991
9.40673
0.864745
7.54766
0.182012
6.05702
-0.00193711
5.04039
-0.0360551
4.71442
-0.0118653
4.58659
-0.0104991
4.64433
-0.156105
4.92038
-0.812954
5.8306
-2.37664
8.05811
-4.94479
9.64474
-6.74408
11.731
-7.24875
10.4631
-6.42476
8.82035
-4.99912
8.12261
-3.70581
8.12581
-2.5603
7.51568
7.47542
2.53269
4.75709
4.15321
5.76832
4.68547
7.44801
4.33305
8.26705
4.55131
8.75079
4.27636
10.8615
4.15573
12.1401
2.55671
11.0024
1.36197
8.74456
0.599827
6.82247
0.218286
5.4255
-0.0737115
5.01103
-0.366238
4.88305
-0.664048
4.94406
-1.01338
5.27071
-1.89856
6.7154
-3.24646
9.40322
-4.9426
11.3372
-5.86901
12.6573
-6.25042
10.8464
-5.96885
8.54069
-5.94043
8.09544
-4.9653
7.15024
-2.94073
5.49092
4.53451
3.16259
1.59345
6.23542
2.69359
8.47888
5.20211
8.24992
8.49935
6.47141
10.5281
5.92634
11.4064
5.58634
12.4808
4.89581
11.6914
4.15752
9.48186
3.24303
7.73792
1.99491
6.67568
0.823445
6.18484
-0.329222
6.03751
-1.53402
6.14938
-2.89886
6.6355
-3.97967
7.79542
-4.38512
9.80635
-4.76835
11.7175
-4.64243
12.5309
-5.27333
11.4776
-7.53078
10.8002
-7.85771
8.4248
-5.77113
5.06273
-2.959
2.67839
1.57533
1.20126
0.391405
2.92893
0.964732
4.95359
3.17691
6.46866
6.98571
5.75544
11.2407
5.43368
11.7275
5.40161
12.5139
4.85907
12.2341
3.80103
10.5384
2.63768
8.90065
1.49155
7.82163
0.371743
7.30457
-0.756612
7.16563
-1.9124
7.30471
-3.15773
7.88022
-4.45123
9.08797
-5.45841
10.8118
-5.87607
12.1321
-5.80581
12.4589
-6.09374
11.7658
-6.68476
11.394
-4.99073
6.73222
-2.9832
3.05529
-1.21279
0.907747
0.362261
0.581005
-0.190494
0.866285
0.678302
1.00271
3.03978
1.33227
6.65827
2.26049
10.3107
2.9113
11.0752
3.40658
12.0202
3.32052
12.3196
2.65474
11.2019
1.79417
9.7599
0.936732
8.67813
0.0964077
8.14399
-0.73677
7.99821
-1.61445
8.18203
-2.54991
8.81541
-3.48572
10.0232
-4.08901
11.4139
-4.02605
12.0675
-3.41743
11.8489
-2.72864
11.0766
-1.66629
10.3331
-1.14481
6.21228
-0.916942
2.82759
-0.597117
0.587582
-0.235594
-0.154911
-0.0360574
-0.303118
0.825429
-0.695206
3.43109
-0.649207
6.61305
0.395413
9.263
1.30674
10.1632
1.8973
11.43
2.02661
12.1897
1.73228
11.495
1.25295
10.2383
0.701383
9.22891
0.142233
8.70239
-0.418213
8.55834
-0.980367
8.74416
-1.53449
9.36985
-1.97798
10.4671
-2.15927
11.5951
-1.94956
11.8565
-1.26924
11.1674
-0.294996
10.1013
0.801358
9.237
0.689661
6.32503
0.36246
3.15553
0.200478
0.749535
-0.0350095
-0.527539
0.491053
-1.36517
1.66223
-1.78056
3.84575
-1.79421
6.62442
-0.915524
8.38119
-0.0580445
9.30613
0.463133
10.9087
0.768437
11.8839
0.857709
11.4054
0.731755
10.364
0.492922
9.4672
0.209435
8.98559
-0.0764188
8.84426
-0.343732
9.01194
-0.537623
9.56478
-0.596852
10.5277
-0.464109
11.4627
-0.182091
11.5745
0.448146
10.5365
1.30649
9.24286
2.17355
8.36868
2.03282
6.46506
1.50204
3.68627
0.544496
1.70646
0.509381
-0.397014
0.887584
-1.50287
2.76685
-2.42474
4.76585
-2.54411
6.74082
-2.06496
7.90264
-1.59726
8.83893
-1.02825
10.3386
-0.514183
11.3694
-0.16756
11.0595
-0.0116436
10.2085
0.00870325
9.4468
-0.0493659
9.04414
-0.140763
8.93628
-0.20036
9.07249
-0.180745
9.54642
-0.0060741
10.3542
0.355778
11.1017
0.840344
11.0893
1.34953
10.0267
1.92872
8.66207
2.46015
7.83618
2.33771
6.58658
1.36528
4.65897
0.354969
2.71746
0.86494
-0.382662
1.26969
-1.39603
3.77945
-2.18318
5.55183
-2.42195
6.97874
-2.19073
7.67107
-1.88526
8.53315
-1.44877
9.90102
-0.920843
10.8408
-0.472722
10.6126
-0.218415
9.9551
-0.104618
9.3338
-0.0621387
9.00259
-0.0286007
8.90391
0.0256588
9.01952
0.164459
9.40891
0.439198
10.0807
0.874114
10.6673
1.38275
10.5808
1.76986
9.63909
2.10834
8.32385
2.38444
7.55972
2.11898
6.8514
1.3094
5.46788
0.351415
3.67704
1.21636
-0.347164
1.61668
-1.22775
4.66003
-2.04986
6.37242
-2.41018
7.33832
-2.38172
7.64283
-2.15855
8.30904
-1.77418
9.51442
-1.21651
10.282
-0.725738
10.1235
-0.357189
9.58808
-0.139218
9.11725
0.0162576
8.84855
0.14328
8.77826
0.30317
8.86104
0.536668
9.17661
0.935339
9.6829
1.45018
10.1528
1.96491
10.0663
2.2889
9.31541
2.5042
8.10826
2.5103
7.55223
2.14122
7.21882
1.24533
6.36243
0.358516
4.56196
1.57244
-0.46423
2.08197
-1.38217
5.57841
-2.20137
7.1906
-2.53241
7.66869
-2.59101
7.70072
-2.4587
8.17509
-2.16263
9.21608
-1.65557
9.77461
-1.13488
9.60506
-0.74088
9.19582
-0.452251
8.83027
-0.231152
8.62887
-0.0236322
8.57222
0.196132
8.64258
0.494408
8.8797
0.880344
9.29813
1.35554
9.67876
1.83543
9.58669
2.14159
9.00868
2.29755
7.95257
2.24551
7.6059
1.95853
7.50501
1.21534
7.10487
0.373835
5.40236
1.94572
-0.36681
2.45051
-1.22109
6.43317
-1.97043
7.93741
-2.16567
7.86264
-2.35573
7.88962
-2.27146
8.08987
-1.9875
8.93057
-1.4935
9.28112
-1.02514
9.13934
-0.62328
8.79577
-0.316989
8.52564
-0.0571701
8.37062
0.177222
8.33918
0.44091
8.38043
0.751173
8.57067
1.18284
8.86782
1.66841
9.19387
2.10901
9.14741
2.34407
8.7747
2.41337
7.88207
2.20176
7.81604
1.94985
7.75581
1.18623
7.86836
0.36757
6.21777
2.3146
-0.301568
2.75366
-1.19525
7.32983
-1.913
8.65565
-2.08715
8.03618
-2.2325
8.03379
-2.16465
8.0193
-1.91876
8.68287
-1.49095
8.85426
-1.02724
8.67866
-0.639119
8.4095
-0.305366
8.19336
-0.0180903
8.08462
0.265626
8.05697
0.557542
8.08989
0.911492
8.21832
1.30425
8.47662
1.7417
8.75816
2.16352
8.72594
2.37911
8.55902
2.44712
7.81753
2.28815
7.97682
2.10083
7.94149
1.42498
8.54261
0.467682
7.17163
2.7822
-0.538307
3.29387
-1.44512
8.23983
-2.05446
9.26461
-2.22707
8.20899
-2.4024
8.20869
-2.43903
8.0536
-2.24224
8.48568
-1.78884
8.403
-1.35151
8.24422
-0.943957
8.00349
-0.608083
7.85891
-0.295647
7.77367
-0.00293522
7.76573
0.309004
7.77946
0.643091
7.88537
1.06013
8.06085
1.49304
8.32633
1.87608
8.3445
2.07877
8.35709
2.04384
7.85095
1.93479
8.08507
1.72735
8.14927
1.1452
9.12417
0.367061
7.94929
3.1466
-0.439501
3.73421
-1.27307
9.07862
-1.89694
9.88925
-2.03516
8.34497
-2.03859
8.21012
-2.01455
8.02769
-1.82386
8.29527
-1.4708
8.0521
-1.07327
7.84907
-0.719313
7.65063
-0.380089
7.52079
-0.0728056
7.46768
0.241274
7.45307
0.553661
7.46832
0.904577
7.53587
1.26512
7.70159
1.64421
7.94864
2.01333
7.97644
2.15814
8.21396
2.16425
7.84553
2.15027
8.09911
1.9479
8.35178
1.44244
9.63062
0.55083
8.84088
3.69566
-0.420474
4.15528
-0.820132
9.48545
-1.57537
10.6457
-1.75735
8.53021
-1.81881
8.27278
-1.77822
7.9863
-1.65256
8.17089
-1.32466
7.72581
-0.998764
7.52465
-0.660943
7.31371
-0.362618
7.22352
-0.0634343
7.16967
0.223419
7.16733
0.521819
7.17108
0.821027
7.2373
1.18852
7.33492
1.5357
7.60238
1.80464
7.70823
1.92918
8.08982
1.95388
7.8236
1.9385
8.11503
1.89127
8.39913
1.1303
10.3911
0.523905
9.44317
4.21455
-0.663551
4.81768
-1.1173
9.94088
-1.85546
11.381
-1.99042
8.66164
-1.95585
8.23703
-1.88989
7.91988
-1.71295
7.9952
-1.4255
7.4398
-1.10935
7.20892
-0.815083
7.01953
-0.514379
6.92342
-0.228996
6.88504
0.068733
6.87051
0.360083
6.88046
0.670878
6.92755
0.955234
7.05128
1.24851
7.3102
1.54607
7.41152
1.68432
7.95133
1.75872
7.74945
1.75638
8.11866
1.70361
8.45215
0.745594
11.356
0.40268
9.7847
4.61393
-0.466534
5.2862
-0.78636
10.2636
-1.39176
11.9841
-1.59899
8.86656
-1.65484
8.29112
-1.6038
7.86786
-1.45395
7.84554
-1.19145
7.17723
-0.91208
6.92922
-0.611717
6.7195
-0.338901
6.65094
-0.0578461
6.60466
0.209188
6.60398
0.486314
6.60391
0.754311
6.65951
1.07111
6.73472
1.35394
7.02788
1.59595
7.17071
1.74963
7.79749
1.76642
7.73375
1.75573
8.12887
1.41721
8.78918
0.949172
11.8209
0.519906
10.2073
5.13827
-0.342609
5.62742
-0.507227
10.4289
-1.01724
12.4985
-1.52626
9.37964
-1.56735
8.33552
-1.48632
7.79091
-1.26751
7.63016
-1.05508
6.96348
-0.815458
6.68762
-0.576714
6.48042
-0.3209
6.39539
-0.0781361
6.36195
0.181222
6.3449
0.427999
6.35735
0.686292
6.40185
0.917709
6.50354
1.16169
6.78355
1.39378
6.93937
1.57137
7.61948
1.62437
7.68021
1.67644
8.07792
1.22128
9.2453
0.689766
12.349
0.42337
10.4778
5.5606
-0.438472
6.06104
-0.703159
10.7
-0.997809
12.7904
-1.603
9.97978
-1.56279
8.29165
-1.51559
7.73816
-1.37647
7.48529
-1.12719
6.71242
-0.912532
6.47234
-0.661105
6.22885
-0.430553
6.16465
-0.185451
6.11695
0.0412256
6.11822
0.280981
6.11772
0.515003
6.16735
0.779629
6.23897
0.985967
6.5775
1.20261
6.72227
1.35576
7.46668
1.38783
7.64973
1.34372
8.12243
0.709745
9.88096
0.383644
12.6691
0.268284
10.5892
5.82943
-0.262502
6.3175
-0.370251
10.8045
-0.500665
12.9194
-1.24498
10.7219
-1.371
8.41946
-1.34152
7.71199
-1.12655
7.27194
-0.909714
6.49458
-0.697461
6.25816
-0.499144
6.03049
-0.273678
5.93886
-0.0592845
5.90229
0.176741
5.88209
0.39665
5.89769
0.618358
5.94596
0.810445
6.04654
1.03691
6.3502
1.27563
6.48443
1.46136
7.27912
1.4846
7.62363
1.40675
8.19822
0.676522
10.6108
0.59069
12.7386
0.383653
10.7913
6.21325
-0.0501759
6.36208
-0.0686404
10.8188
-0.101208
12.9481
-0.785502
11.4188
-1.18116
8.82166
-1.13693
7.66982
-1.02787
7.16061
-0.834249
6.2974
-0.655944
6.07837
-0.449244
5.82299
-0.258582
5.74796
-0.054345
5.69776
0.134522
5.69291
0.33814
5.69397
0.528761
5.75461
0.758557
5.81691
0.925694
6.18282
1.10827
6.30099
1.27109
7.11911
1.34957
7.54692
0.951922
8.59629
0.305475
11.2526
0.271611
12.7675
0.181166
10.8841
6.40055
-0.229557
6.58867
-0.385857
10.9689
-0.231629
12.79
-0.745249
11.9221
-1.32498
9.39598
-1.23113
7.56956
-1.06321
6.98617
-0.883765
6.11659
-0.690002
5.88449
-0.521195
5.65474
-0.33513
5.56131
-0.157488
5.51967
0.0385616
5.49648
0.218326
5.51377
0.4051
5.56796
0.566776
5.65446
0.772338
5.9765
0.944861
6.12656
1.04972
7.01056
1.11824
7.47707
0.450006
9.2644
-0.103257
11.8088
0.0287544
12.6343
0.0456962
10.8733
6.45215
-0.0413569
6.63205
-0.0679933
10.9894
0.119186
12.5987
-0.177072
12.2261
-0.863368
10.09
-0.937384
7.64786
-0.861542
6.91362
-0.716644
5.97264
-0.572724
5.73941
-0.38462
5.46583
-0.215908
5.39212
-0.0385878
5.34187
0.129393
5.32805
0.306046
5.33705
0.474822
5.39845
0.682383
5.44722
0.81839
5.84056
0.964464
5.98189
1.09478
6.88114
1.02933
7.54283
0.36992
9.9206
0.0676584
12.112
0.223959
12.4898
0.139598
10.9537
6.59304
0.0139024
6.6219
0.070591
10.9309
0.285481
12.3833
0.223839
12.294
-0.526635
10.8469
-0.907549
8.02848
-0.734652
6.73554
-0.636463
5.86931
-0.487517
5.58968
-0.353858
5.33139
-0.197107
5.23497
-0.0451904
5.18936
0.118268
5.16412
0.27113
5.18327
0.423361
5.24606
0.560003
5.30981
0.737471
5.6621
0.835983
5.88249
1.04799
6.67027
0.74893
7.84278
-0.0338385
10.7041
-0.173924
12.2543
0.0262832
12.2842
0.0543583
10.9179
6.62965
-0.123603
6.74817
-0.0964081
10.9031
0.0624568
12.2234
0.13792
12.2054
-0.316856
11.2908
-0.805971
8.50727
-0.775021
6.70102
-0.660115
5.75375
-0.568261
5.49788
-0.414167
5.17856
-0.271818
5.0922
-0.119156
5.03626
0.0247272
5.01969
0.168705
5.03933
0.314775
5.09959
0.476237
5.14835
0.553031
5.58443
0.633218
5.8006
0.71685
6.58414
0.151453
8.40962
-0.481956
11.3475
-0.340706
12.1156
-0.229646
12.1655
-0.0909454
10.7673
6.53619
-0.0283311
6.77921
0.0382728
10.8386
0.188331
12.0708
0.540608
11.8578
0.119251
11.7197
-0.484518
9.12006
-0.645203
6.87054
-0.509976
5.61931
-0.412406
5.40019
-0.30649
5.07124
-0.172744
4.95809
-0.0380026
4.90093
0.107059
4.87421
0.247336
4.89793
0.375514
4.97084
0.490886
5.03281
0.632627
5.44439
0.752055
5.6825
0.626409
6.71109
0.047168
8.98577
-0.318064
11.7011
-0.0663441
11.8614
0.0666482
12.0254
0.138717
10.6844
6.67505
0.0948551
6.68784
0.26224
10.6733
0.308949
12.0265
0.56495
11.599
0.718122
11.5663
-0.0316177
9.86928
-0.466637
7.28987
-0.446347
5.59365
-0.371946
5.32419
-0.268263
4.96726
-0.154587
4.84395
-0.0301454
4.77598
0.0922441
4.75123
0.217213
4.77294
0.336452
4.85052
0.452332
4.91556
0.530522
5.36372
0.594357
5.61666
0.309467
6.99698
-0.492468
9.7907
-0.444894
11.663
-0.160615
11.5748
-0.0920804
11.9414
-0.0167556
10.6028
6.67007
-0.117623
6.80801
-0.00905372
10.5669
0.0935135
11.9218
0.348346
11.3413
0.617838
11.2874
0.069233
10.4124
-0.397071
7.7502
-0.465535
5.66813
-0.38404
5.24459
-0.30707
4.89012
-0.209802
4.74666
-0.0972667
4.66307
0.0247236
4.6289
0.138907
4.65802
0.235123
4.75521
0.312152
4.83919
0.400434
5.27664
0.306394
5.70938
-0.175396
7.47607
-0.854207
10.4725
-0.548755
11.3568
-0.300808
11.3168
-0.2383
11.8708
-0.0633636
10.4341
6.62252
0.0493576
6.76171
0.23502
10.384
0.288447
11.8746
0.470254
11.1736
0.863837
10.9028
0.699051
10.5843
0.00604395
8.45377
-0.301735
5.97581
-0.319024
5.25978
-0.214269
4.78319
-0.129148
4.66099
-0.0282031
4.56163
0.0768903
4.52346
0.180163
4.55484
0.272892
4.65885
0.351734
4.75911
0.381256
5.24607
0.118767
5.9749
-0.539032
8.13373
-0.786104
10.715
-0.338506
10.9012
-0.120834
11.0966
-0.093148
11.8618
0.0263066
10.3357
6.65739
0.0617581
6.70401
0.291584
10.1606
0.399563
11.7666
0.575617
10.988
0.849098
10.6229
0.955951
10.4644
0.307025
9.09466
-0.0808197
6.35414
-0.212839
5.39056
-0.164435
4.73585
-0.0946188
4.5916
-0.0188961
4.48581
0.0744211
4.4296
0.156444
4.47104
0.235347
4.58279
0.309437
4.68335
0.23011
5.32338
-0.164135
6.36645
-0.862639
8.83453
-0.704257
10.5594
-0.400586
10.5946
-0.217411
10.9128
-0.165559
11.8176
0.0104723
10.1724
6.67678
-0.0264417
6.73189
0.144095
9.99556
0.26492
11.6429
0.399193
10.8492
0.617909
10.4081
1.02019
10.0686
0.718421
9.40336
0.0673701
7.00965
-0.22603
5.68746
-0.188577
4.69887
-0.128192
4.53049
-0.0566309
4.41402
0.0102055
4.36283
0.0750105
4.40832
0.139093
4.51667
0.170174
4.65318
-0.0995726
5.59438
-0.76394
7.02882
-1.21857
9.28496
-0.763788
10.1006
-0.536157
10.3655
-0.424245
10.8094
-0.302525
11.713
-0.0748021
9.95448
6.61182
-0.0242329
6.7536
0.227523
9.7411
0.424416
11.4555
0.532979
10.7551
0.739768
10.2072
1.01488
9.79697
0.973939
9.44692
0.361418
7.62284
0.00293724
6.0421
-0.100591
4.8
-0.0637787
4.49407
-0.0139223
4.36427
0.0371073
4.31188
0.0934415
4.3497
0.136814
4.47396
0.0730434
4.71441
-0.275931
5.94388
-0.883156
7.63573
-1.02276
9.42837
-0.697536
9.7788
-0.473314
10.1427
-0.382409
10.7238
-0.160399
11.4983
0.0860309
9.70439
6.70116
0.0197246
6.73947
0.276183
9.49074
0.537508
11.1884
0.611616
10.6664
0.779398
10.0344
0.991728
9.58399
1.31143
9.11691
0.893304
8.03977
0.174457
6.76283
-0.00892458
4.98519
-0.0154575
4.50152
0.00924629
4.33987
0.0327119
4.28871
0.0675948
4.31698
0.0696216
4.47114
-0.108988
4.89134
-0.819608
6.65243
-1.2376
8.0527
-0.957492
9.14507
-0.722758
9.54759
-0.539478
9.96443
-0.45255
10.6365
-0.185136
11.2334
0.0597618
9.45372
6.76359
-0.0506958
-1.09913
-0.0646015
-1.15829
-0.085579
-1.13557
-0.0961114
-1.14415
-0.106609
-1.17433
-0.112551
-1.20998
-0.12293
-1.24688
-0.128468
-1.27783
-0.136282
-1.30705
-0.160679
-1.31889
-0.199308
-1.33441
-0.249079
-1.28102
-0.281024
-1.26646
-0.284978
-1.19911
-0.278441
-1.1609
-0.261469
-1.16089
-0.247668
-1.17447
-0.224891
-1.2156
-0.196762
-1.22262
-0.16286
-1.25467
-0.134715
-1.29544
-0.107288
-1.34248
-0.0809832
-1.3953
-0.0571866
-1.4504
-0.0342204
-1.50635
-0.0156346
-1.5598
-0.00496154
-1.61072
0.00143708
-1.65172
0.00347915
-1.6805
-1.65971
0.0421069
-1.13799
0.0111566
-1.10569
-0.00716353
-1.09906
-0.0368817
-1.09329
-0.0548962
-1.14444
-0.0696643
-1.18137
-0.0842406
-1.22435
-0.0995945
-1.24453
-0.112256
-1.26141
-0.12978
-1.2518
-0.16002
-1.25505
-0.205655
-1.2022
-0.241402
-1.17327
-0.245561
-1.13402
-0.236764
-1.1162
-0.228538
-1.12126
-0.221306
-1.142
-0.197435
-1.16865
-0.173451
-1.19536
-0.14571
-1.23328
-0.121529
-1.26977
-0.0978658
-1.32043
-0.0744633
-1.37337
-0.0531544
-1.42991
-0.0345371
-1.48815
-0.0186964
-1.5455
-0.00782631
-1.59952
-0.000317168
-1.64665
0.00238535
-1.67941
-1.65962
-0.0127104
-1.12013
-0.0490083
-1.04646
-0.0784244
-1.05194
-0.101821
-1.05396
-0.125328
-1.11197
-0.141217
-1.16119
-0.159271
-1.2061
-0.174903
-1.22432
-0.193407
-1.23027
-0.206124
-1.21913
-0.228267
-1.19323
-0.264487
-1.14147
-0.278396
-1.08844
-0.277269
-1.08849
-0.274534
-1.08034
-0.266685
-1.09215
-0.249624
-1.10875
-0.228807
-1.13855
-0.202651
-1.1676
-0.17628
-1.20721
-0.15108
-1.25055
-0.125791
-1.30247
-0.100719
-1.35639
-0.077903
-1.41337
-0.0565428
-1.4717
-0.0373762
-1.52952
-0.0226652
-1.58633
-0.0117255
-1.64534
-0.00350894
-1.70023
-1.67341
-0.048076
-1.06404
-0.084012
-0.990909
-0.123172
-0.997792
-0.15135
-1.0174
-0.181236
-1.07863
-0.204132
-1.13896
-0.225913
-1.1882
-0.241498
-1.21559
-0.257126
-1.22262
-0.261966
-1.20332
-0.281406
-1.14006
-0.304356
-1.06335
-0.305432
-1.04306
-0.307117
-1.04845
-0.306192
-1.05174
-0.296132
-1.0656
-0.271544
-1.08108
-0.25458
-1.11268
-0.228225
-1.14322
-0.201639
-1.18567
-0.176008
-1.23602
-0.14939
-1.28955
-0.123129
-1.34579
-0.0992256
-1.40376
-0.076534
-1.46124
-0.056161
-1.51677
-0.0399316
-1.57382
-0.0252958
-1.66906
-0.0104179
-1.69254
-1.67915
-0.0537615
-1.00126
-0.0906887
-0.934879
-0.130068
-0.943361
-0.16382
-0.976863
-0.198211
-1.04418
-0.228482
-1.11283
-0.256352
-1.16946
-0.271419
-1.20566
-0.287032
-1.21086
-0.291887
-1.19511
-0.305847
-1.12694
-0.320606
-1.04207
-0.31107
-1.02438
-0.320681
-1.02553
-0.318187
-1.03128
-0.304047
-1.044
-0.281383
-1.06066
-0.265794
-1.09413
-0.240649
-1.12719
-0.215921
-1.17302
-0.190642
-1.22632
-0.163989
-1.28105
-0.137425
-1.3392
-0.112867
-1.39822
-0.090378
-1.45603
-0.071466
-1.51114
-0.0557735
-1.56621
-0.0342033
-1.64301
-0.0160453
-1.67087
-1.65584
-0.045921
-0.942976
-0.0930679
-0.870788
-0.137123
-0.889586
-0.176503
-0.930823
-0.215249
-1.0052
-0.252849
-1.08014
-0.281399
-1.15301
-0.304004
-1.19597
-0.316436
-1.21023
-0.322496
-1.19007
-0.332758
-1.1239
-0.34078
-1.04581
-0.333354
-1.0265
-0.337669
-1.01473
-0.332932
-1.01763
-0.309532
-1.02879
-0.294761
-1.04925
-0.277776
-1.08242
-0.254497
-1.11742
-0.230325
-1.16555
-0.204284
-1.22061
-0.177057
-1.27654
-0.15045
-1.3346
-0.125821
-1.39293
-0.103547
-1.45012
-0.0850712
-1.50844
-0.0673534
-1.561
-0.0433218
-1.6218
-0.0204125
-1.65175
-1.63162
-0.0543093
-0.876565
-0.102144
-0.808224
-0.150344
-0.831779
-0.192943
-0.882613
-0.234537
-0.961625
-0.270675
-1.04343
-0.31069
-1.11804
-0.336936
-1.1776
-0.351181
-1.20587
-0.359785
-1.18332
-0.366421
-1.12751
-0.359992
-1.06849
-0.362893
-1.03557
-0.359282
-1.01287
-0.34483
-1.01127
-0.326812
-1.02395
-0.311986
-1.04564
-0.295215
-1.07956
-0.272469
-1.11518
-0.248232
-1.16462
-0.220946
-1.22001
-0.192828
-1.29413
-0.165944
-1.33502
-0.140981
-1.39118
-0.118643
-1.44813
-0.0984753
-1.5091
-0.0773655
-1.56086
-0.0517305
-1.60919
-0.0253437
-1.63456
-1.6067
-0.0576654
-0.804473
-0.112805
-0.739442
-0.172163
-0.762636
-0.213047
-0.838414
-0.259485
-0.915399
-0.299894
-1.00634
-0.343155
-1.07987
-0.372789
-1.15556
-0.392872
-1.19436
-0.401294
-1.18538
-0.404404
-1.13755
-0.395655
-1.09745
-0.394144
-1.0575
-0.384963
-1.02432
-0.362174
-1.01647
-0.349522
-1.02855
-0.331277
-1.0498
-0.31409
-1.08394
-0.29164
-1.11936
-0.267055
-1.16864
-0.242568
-1.22349
-0.208676
-1.2979
-0.181941
-1.33979
-0.157405
-1.39315
-0.135008
-1.45029
-0.113091
-1.51035
-0.0872143
-1.56022
-0.0592421
-1.59989
-0.0293324
-1.61936
-1.5838
-0.0663397
-0.723202
-0.119662
-0.67398
-0.175608
-0.698182
-0.231704
-0.777247
-0.28274
-0.864494
-0.331265
-0.961003
-0.375226
-1.04128
-0.407362
-1.13145
-0.432307
-1.17508
-0.442745
-1.18202
-0.443649
-1.15283
-0.436754
-1.12237
-0.425229
-1.08599
-0.408067
-1.04855
-0.387444
-1.03228
-0.37152
-1.04072
-0.353161
-1.06135
-0.334454
-1.09486
-0.311971
-1.12901
-0.287085
-1.17676
-0.258499
-1.22988
-0.226502
-1.29545
-0.19838
-1.35022
-0.17468
-1.40262
-0.151713
-1.46014
-0.127432
-1.51472
-0.0960004
-1.55989
-0.0660156
-1.59575
-0.0334786
-1.61016
-1.56899
-0.0684448
-0.639604
-0.125157
-0.605326
-0.182118
-0.631544
-0.244844
-0.708996
-0.301795
-0.807014
-0.357408
-0.907833
-0.39704
-1.00617
-0.436944
-1.09484
-0.467965
-1.14626
-0.48144
-1.17414
-0.481041
-1.16834
-0.474618
-1.145
-0.454812
-1.11562
-0.428562
-1.08003
-0.411149
-1.05652
-0.391316
-1.06033
-0.372216
-1.07914
-0.351633
-1.11022
-0.329971
-1.14317
-0.304647
-1.18758
-0.274977
-1.23904
-0.244421
-1.2966
-0.214473
-1.35793
-0.191625
-1.41755
-0.167145
-1.47829
-0.138081
-1.52081
-0.104913
-1.56004
-0.0722979
-1.59573
-0.0367698
-1.60701
-1.55948
-0.0699722
-0.553449
-0.133897
-0.529382
-0.189614
-0.565848
-0.253994
-0.639402
-0.315049
-0.744984
-0.373822
-0.850279
-0.41347
-0.964659
-0.459347
-1.04788
-0.497421
-1.11009
-0.513915
-1.16098
-0.515518
-1.17675
-0.507109
-1.16542
-0.483127
-1.14816
-0.453627
-1.1172
-0.430861
-1.08628
-0.408275
-1.08545
-0.38788
-1.10074
-0.368839
-1.12901
-0.347328
-1.16008
-0.321938
-1.19932
-0.291004
-1.2518
-0.261616
-1.3065
-0.233315
-1.36791
-0.217387
-1.43364
-0.179284
-1.50827
-0.147512
-1.54481
-0.114855
-1.56777
-0.0778052
-1.59888
-0.0395748
-1.6058
-1.55541
-0.0686735
-0.468247
-0.136884
-0.449719
-0.194642
-0.498021
-0.25962
-0.57071
-0.32284
-0.680187
-0.382763
-0.790069
-0.431263
-0.911621
-0.47374
-0.999617
-0.517171
-1.0736
-0.535845
-1.14221
-0.543681
-1.1752
-0.532922
-1.18152
-0.51101
-1.17595
-0.478343
-1.15509
-0.448322
-1.12166
-0.423448
-1.11571
-0.40196
-1.1259
-0.38243
-1.15111
-0.36157
-1.18128
-0.337989
-1.22103
-0.307484
-1.27152
-0.278826
-1.32541
-0.25219
-1.38658
-0.226458
-1.44701
-0.196744
-1.51303
-0.155419
-1.55292
-0.120707
-1.57787
-0.0813216
-1.60353
-0.0411993
-1.60378
-1.55092
-0.0719489
-0.379213
-0.138963
-0.372075
-0.198066
-0.429048
-0.263585
-0.502229
-0.326669
-0.614794
-0.385337
-0.729099
-0.440506
-0.85069
-0.483008
-0.946054
-0.527766
-1.03127
-0.552861
-1.11389
-0.563904
-1.16343
-0.55519
-1.19017
-0.537621
-1.19461
-0.503149
-1.19131
-0.467668
-1.16294
-0.439301
-1.15125
-0.415848
-1.15468
-0.395282
-1.178
-0.375912
-1.20832
-0.355016
-1.26429
-0.324034
-1.31402
-0.295829
-1.34847
-0.268543
-1.40595
-0.236473
-1.46017
-0.202505
-1.52043
-0.16628
-1.55879
-0.124212
-1.58518
-0.0833879
-1.60962
-0.0422383
-1.60486
-1.54951
-0.0738428
-0.288422
-0.139967
-0.296706
-0.198509
-0.360432
-0.261903
-0.438968
-0.323869
-0.551318
-0.384155
-0.664901
-0.44251
-0.785185
-0.489017
-0.881472
-0.532083
-0.98364
-0.563028
-1.07692
-0.578625
-1.14053
-0.577794
-1.18513
-0.560258
-1.20806
-0.533654
-1.21531
-0.490906
-1.20802
-0.455668
-1.19204
-0.427942
-1.19095
-0.407331
-1.21013
-0.391007
-1.24028
-0.36925
-1.29778
-0.338793
-1.32793
-0.3105
-1.37168
-0.281932
-1.43373
-0.247911
-1.47927
-0.213061
-1.52832
-0.171998
-1.56567
-0.129318
-1.59322
-0.0872011
-1.61804
-0.044479
-1.61213
-1.55496
-0.0746131
-0.197606
-0.140247
-0.221684
-0.198207
-0.291584
-0.259276
-0.378017
-0.319591
-0.490224
-0.378892
-0.60232
-0.434677
-0.722919
-0.476702
-0.825082
-0.524255
-0.926229
-0.56345