/*--------------------------------*- C++ -*----------------------------------*\
| =========                 |                                                 |
| \\      /  F ield         | OpenFOAM: The Open Source CFD Toolbox           |
|  \\    /   O peration     | Version:  2112                                  |
|   \\  /    A nd           | Website:  www.openfoam.com                      |
|    \\/     M anipulation  |                                                 |
\*---------------------------------------------------------------------------*/
FoamFile
{
    version     2.0;
    format      ascii;
    arch        "LSB;label=32;scalar=64";
    class       volScalarField;
    location    "0.00709";
    object      k;
}
// * * * * * * * * * * * * * * * * * * * * * * * * * * * * * * * * * * * * * //

dimensions      [0 2 -2 0 0 0 0];

internalField   nonuniform List<scalar> 
13875
(
812.126
3462.57
3540.59
3538.77
3541.63
3539.26
3540.41
3541.35
3541.91
3540.52
3540.47
3541.16
3540.92
3540.16
3540.48
3541.19
3541.92
3541.13
3540.74
3540.24
3541.16
3539.02
3540.09
3462.12
820.344
881.839
2936.63
3013.37
3000.54
3001.56
2998.36
2998.05
2998.22
2998.33
2998.67
2998.38
2998.47
2996.71
2996.38
2996.2
2998.49
2996.24
2997.08
2996.98
2998.62
3000.45
2999.29
3011.65
2934.79
894.285
993.416
2710.9
2777.9
2755.65
2759.28
2754.98
2748.59
2745.17
2744.44
2744.53
2743.84
2744.74
2751.66
2752.22
2750.89
2744.63
2741.2
2742.68
2745.32
2755.12
2757.67
2753.16
2774.53
2706.97
998.175
1091.12
2533.76
2581.45
2562.19
2566.61
2561.88
2555.41
2551.62
2550.3
2548.5
2547.4
2548.85
2559.48
2560.06
2558.86
2548.65
2547.3
2547.54
2551.16
2562.94
2565.49
2559.4
2579.16
2529.48
1093.8
1172.16
2380.53
2413.61
2393.72
2397.74
2393.19
2385.77
2382.98
2381.77
2379.76
2379.02
2379.88
2390.52
2391.42
2389.9
2379.74
2379.17
2379.04
2382.35
2393.94
2396.78
2391.17
2410.48
2375.35
1177.41
1241.09
2237.21
2271.42
2245.75
2250.55
2244.42
2236.07
2233.57
2232.44
2230.35
2229.93
2230.39
2241.16
2242.31
2240.52
2230.2
2230.47
2229.93
2233.09
2245.68
2249.94
2243.73
2267.88
2247.17
1247.35
1321.13
2121.95
2158.67
2120.98
2122.25
2113.82
2103.84
2101.27
2099.68
2097.6
2097.44
2097.6
2108.53
2109.75
2107.57
2097.24
2098.54
2097.71
2101.54
2115.49
2121.68
2119.76
2154.04
2095.62
1323.5
1410.03
2001.02
2073.92
2020.22
2015.22
2000.55
1987.69
1983.87
1981.81
1979.58
1979.86
1979.33
1990.53
1992.02
1989.48
1978.84
1981.42
1980.59
1985.43
2002.14
2013.93
2017.95
2068.27
1992.82
1420.33
1691.97
2029.89
2022.17
1944.81
1923.71
1902.36
1885.7
1880.14
1877.57
1875.06
1876.16
1875.03
1886.43
1888.22
1885.49
1874.71
1878.12
1877.27
1883.32
1903.79
1922.38
1942.17
2017.79
2033.52
1716.51
2510.19
2286.02
2018.37
1901.64
1857.67
1824.23
1804.37
1797.19
1793.68
1791.19
1792.74
1791.26
1802.31
1804.38
1801.72
1792.13
1795.05
1795.23
1801.37
1824.63
1855.53
1891.47
2011.23
2265.98
2529.38
3878.84
3028.03
2153.76
1915.43
1813.86
1771.62
1746.65
1735.44
1730.44
1728.01
1729.51
1727.84
1738.04
1740.43
1738.54
1731.4
1733.51
1735.42
1745.08
1768.47
1813.24
1907.08
2129.43
2936.28
3858.36
5189.8
6463.27
2849.99
1992.21
1852.72
1755.76
1713.34
1696.43
1688.62
1685.97
1686.66
1685.15
1693.61
1696.46
1695.79
1691.45
1693.51
1698.57
1712.45
1757.78
1846.59
1972.38
2787.33
6315.07
5119.74
5060.15
7657.85
7030.29
3320.76
2040.37
1796.66
1741.34
1700.27
1684.07
1677.81
1675.87
1673.77
1679.9
1683.17
1684.46
1684.35
1691.06
1707.39
1747.23
1805.14
2088.46
3227.48
6757.51
7649.24
5009.4
4828.96
6377.84
7170.65
8705.82
5166.02
2323.01
1896.87
1783.98
1749.02
1745.97
1744.45
1742.58
1747.58
1750.88
1753.48
1755.84
1760.45
1794.18
1940.17
2477.73
5625.89
8146.74
6960.26
6331.39
4831.8
4605.64
5524
6041.23
6977.07
6848.63
6703.25
3401.11
2387.65
2140.59
2045.6
2006.53
1992.32
1992.64
1997.18
2008.61
2040.23
2129.48
2391.42
3584.64
6879.9
6841.88
6704.81
5970.63
5490.77
4681.03
4294.69
4805.31
5118.68
5889.89
6087.7
6583.68
5587.31
5156.01
4913.65
4265.54
4333.63
4387.23
4432.34
4419.43
4353.9
4253.7
4821.21
5422.99
5664.16
6661.34
6012.43
5711.42
5079.28
4784.06
4366.7
3733.65
4051.45
4353.39
5097.49
5641.71
6563.17
7441
7778.18
6829.06
6275.15
6558.57
6796.54
6934.68
6885.87
6646.87
6581.03
6819.17
7737.88
7511.05
6576.66
5496.18
4916.29
4242.29
3972.28
3725.83
3067.68
3410.47
3970.99
4895.21
5576.48
6170.6
7235.9
7991.93
6507.49
5409.59
5230.97
5274.6
5352.52
5319.03
5297.41
5716.41
6488.75
7651.65
7251.77
6281.28
5570.77
4832.53
3893.08
3355.69
3033.59
2632.19
3163.76
3887.65
5216.99
6069.57
5759.74
6134.2
6903.91
6128.81
5115.9
4687.4
4579.64
4578.26
4635.44
4787.06
5244.69
5940.55
6614.45
6179.81
5887.81
6284.84
5263.32
3895.07
3159.93
2638.51
2509.52
3364.74
4128.62
5406.26
5823.55
5270
5266.07
5821.19
5612.51
4922.84
4396.6
4100.36
4006.38
4179.57
4531.24
4987.75
5394.17
5589.25
5301.89
5407.11
5960.68
5332.65
4164.5
3406.68
2512.01
4859.91
6976.82
5752.31
4881.48
5031.14
4636.71
4591.14
5057.18
5096.68
4605.76
4055.1
3658.01
3525.21
3771.73
4218.87
4651.72
4888.36
4871.94
4624.91
4754.49
5143.04
4885.45
6050.84
7183.17
5348.24
11184.9
21063.2
6986.46
4242.74
4337.28
4088.13
4068.81
4471.29
4606.15
4234.53
3695.74
3258.92
3109.97
3378.33
3853
4257.82
4410.08
4331.77
4093.83
4175.99
4405.38
4283.68
7551.01
21281.8
11945.4
12370.1
15430.7
6145.46
3770.95
3798.47
3645.5
3629.86
3992.3
4153.33
3844.5
3337.1
2906.73
2751.29
3008.54
3471.46
3852.08
3967.25
3881.84
3647.87
3701.09
3833.74
3806.16
6369.45
15478.8
12385
11739.4
15037.2
5213.85
3418.8
3364.02
3258.92
3252.24
3574.12
3740.91
3463.48
2987.46
2586.71
2447.59
2686.87
3122
3479.55
3572.16
3477.99
3276.67
3310.63
3400.63
3474.72
5436.07
15751.2
11765.6
11330.6
14597.2
4648.89
3154.99
3030.18
2935.6
2944.27
3220.62
3370.49
3120.12
2685.66
2317.83
2192.27
2409.74
2813.81
3142.25
3223.1
3132.12
2962.92
2985.69
3073.87
3218.41
4913.37
15720.2
11402.5
11033
14746.6
4265.34
2916.04
2761.45
2664.42
2691.15
2919.96
3043.28
2815.72
2424.49
2089.92
1975.78
2170.11
2535.63
2834.49
2911.56
2832.83
2694.75
2701.26
2802.65
2969.25
4464.3
15546.8
11205.9
10927.4
13971.5
3877.46
2698.8
2539.2
2435.73
2475.04
2658.22
2743.96
2534.5
2189.17
1893.57
1792.57
1970.09
2301.03
2568.73
2644.91
2581.66
2468.71
2470.88
2588.95
2761.58
4086.65
14950.3
11064.6
10803.1
13584.6
3626.2
2521.21
2361.58
2252.01
2290.9
2435.04
2490.09
2296.77
1991.15
1727.48
1635.72
1795.28
2090.24
2330.6
2408.53
2363.86
2276.5
2278.43
2404.69
2576.88
3815.89
14667.8
10944.3
10589.7
13457.1
3454.25
2369.47
2211.4
2104.44
2132
2240
2267.66
2090.44
1821.32
1585.53
1501.14
1643.39
1904.19
2117.63
2198.79
2173.34
2109.39
2117.38
2243.24
2411.49
3570.65
13805.6
10862.2
10376.1
12795.5
3303.88
2241.01
2072.13
1979.06
1996.71
2066.86
2066.74
1901.53
1665.69
1459.59
1384.63
1515.89
1750.54
1940.96
2021.01
2010.69
1969
1984.8
2101.4
2276.63
3421.37
13368.5
10648.2
10065.7
11905.6
3177.28
2138.24
1956.04
1868.08
1878.01
1917.66
1896.89
1744.5
1536.4
1352.55
1283.83
1401.94
1610.53
1779.88
1861.49
1867.53
1848.13
1867.12
1974.1
2164.28
3264.22
12486.7
10379.1
9790.87
11377.5
3086.76
2063.56
1849.89
1765.94
1772.22
1788.75
1752.73
1610.45
1424.31
1259.18
1195.84
1302.11
1489.07
1642.46
1723.92
1742.88
1740.66
1759.55
1859.53
2078.91
3135.24
11697.1
10085
9563.45
10475.4
2985.13
2007.33
1758.81
1675.85
1673.65
1671.44
1620.11
1487.73
1322.91
1176.01
1119.09
1217.23
1386.68
1524.22
1604.89
1634.44
1642.91
1665.73
1763.25
2015.2
3056.27
11049.8
9833.23
9329.2
9774.34
2880.81
1967.82
1687.5
1596.49
1581.48
1569.02
1508.64
1385.04
1236.38
1103.6
1051.11
1139.96
1293.37
1419.02
1497.9
1536.88
1551.64
1581.67
1683.59
1967.25
2975.85
10181.2
9606.66
9109.97
9280.16
2765.43
1939.44
1640.94
1523.8
1498.94
1476.56
1410.24
1294.44
1160.51
1039.7
991.439
1072.31
1211.26
1325.81
1403.76
1448.11
1468.77
1508.2
1628.07
1938.42
2862.82
9519.59
9364.72
8884.29
8715.17
2649.79
1915.02
1609.61
1461.19
1422.43
1389.66
1321.77
1213.08
1090.73
981.742
937.9
1012.97
1141.2
1246.7
1321.71
1367.25
1395.29
1443.7
1592.16
1918.98
2754.7
9143.89
9128.41
8667.93
8331.57
2548.59
1923.99
1593.9
1410.68
1356.15
1313.07
1242.98
1142.5
1030.97
931.052
890.41
958.825
1076.04
1173.47
1245.42
1293.48
1329.51
1388.87
1570.7
1920.16
2639.73
8693.24
8875.38
8452.78
8119.75
2453.79
1915.87
1591.71
1375.42
1295.84
1244.03
1173.57
1080.43
977.646
885.375
847.532
910.236
1018.49
1108.85
1176.73
1227.15
1269.69
1350.37
1566.12
1925.47
2529.38
8383.38
8640.08
8225.84
7760.73
2339.9
1867.99
1604.1
1353.3
1245.31
1181.91
1109.21
1022.3
928.309
843.84
809.181
867.839
967.962
1051.35
1115.79
1169.01
1219.34
1324.41
1581.01
1904.02
2413.32
8102.13
8423.59
8020.54
7541.85
2232
1815.6
1638.12
1343.69
1205.83
1128.66
1054.3
972.278
884.715
806.268
774.116
828.01
920.877
998.718
1060.49
1117.52
1179.71
1312.02
1599.73
1844.14
2291.91
7764.52
8204.83
7856.25
7382.27
2153.57
1756.71
1669.45
1351.08
1177.74
1085.21
1005.82
927.092
845.333
772.206
742.414
792.207
877.94
951.164
1011.57
1074.8
1153.01
1311.74
1657.87
1785.22
2189.37
7552.54
8001.82
7700.99
7196.09
2067.29
1682.1
1648.82
1368.3
1157.96
1052.82
964.244
885.675
808.395
740.545
713.13
759.842
840.52
909.974
970.891
1042.61
1133.67
1329.82
1677.75
1724.56
2172.78
7408.45
7828.86
7555.99
7052.66
2000.77
1609.28
1602.43
1422.35
1150.52
1028.77
931.451
850.271
776.011
712.153
686.427
729.617
805.004
872.179
936.598
1018.68
1123.21
1364.76
1637.54
1647.63
2100.69
7227.34
7666
7434.7
6906.79
2031.26
1546.13
1541.51
1460.28
1164.03
1011.17
907.993
821.215
747.137
686.071
661.692
701.992
773.485
840.135
910.574
1001.91
1133.89
1442.37
1577.73
1575.94
2072.99
7047.63
7527.58
7309.01
6776.77
1970.27
1483.28
1471.39
1444.27
1200.83
1002.36
888.083
798.069
721.965
662.538
639.373
677.837
746.989
815.245
890.551
993.863
1184.61
1472.73
1508.75
1521.83
2101.47
6876.77
7416.06
7183.1
6626.33
1999.35
1436.74
1401.64
1395.53
1280.05
1016.88
875.615
782.041
703.382
643.02
619.806
656.968
726.31
796.725
875.525
1004.41
1270.27
1425.39
1438.44
1466.43
2067.63
6725.51
7305.49
7057.32
6487.82
2047.64
1405.26
1342.85
1341.48
1307.53
1077.01
871.864
767.565
689.58
628.766
603.17
641.482
710.751
781.395
867.705
1063.6
1310.51
1368.67
1376.29
1423.92
2059.6
6586.05
7181.49
6864.24
6314.56
2035.34
1372.78
1292.4
1286.38
1266.21
1165.38
896.081
756.707
677.563
617.807
590.812
630.097
698.063
770.134
890.026
1161.77
1271.36
1307.87
1323.39
1399.59
2103.98
6403.45
6980.07
6610.11
6087.95
2038.46
1351.47
1250.01
1232.32
1221.99
1200.4
972.623
759.474
668.352
608.856
582.092
620.534
687.162
767.588
953.088
1211.33
1227.48
1248.65
1276.19
1374.5
2078.85
6170.89
6718.13
6029.36
5678.96
2020.97
1331.87
1213.17
1185.31
1173.43
1163.41
1060.05
798.194
666.401
601.242
574.426
612.227
682.395
795.071
1055.99
1178.36
1179.44
1197.02
1234.57
1349.88
2032.9
5749.75
6121.49
1129.24
2559.86
3690.43
3769.56
3249.27
2785.35
2473.25
2323.63
2347.17
2409.86
2387.82
2187.05
1680.88
1278.28
1019.06
880.469
819.965
804.338
810.995
828.848
853.305
883.592
921.871
977.53
1084.07
1364.18
1743
1757.84
1499.95
840.506
1309.72
2881.62
3825.36
3689.25
3098.1
2618.16
2307.66
2167.86
2193.97
2248.35
2252.99
2120.57
1675.96
1283.02
1019.13
872.456
806.525
787.15
791.191
807.446
830.907
860.797
904.181
981.158
1191.14
1667.05
1807.12
1710.49
1490.73
864.337
1472.83
3251.1
3994.03
3597.65
2948.09
2472.43
2180.65
2062.35
2093.39
2145.76
2146.27
1990.26
1579.1
1222.52
982.689
848.483
786.447
767.129
770.179
785.451
808.262
840.077
892.854
1016.92
1370.42
1709.71
1723.67
1622.79
1434.29
865.923
1688.86
3581.83
4091.27
3478.64
2785.17
2308.28
2045.06
1957.39
2010.4
2058.52
2049.2
1894.95
1531.77
1189.85
958.501
828.551
767.333
747.493
749.933
765.062
788.55
825.431
899.336
1121.97
1573.23
1656.14
1645.51
1542.38
1372.01
860.094
1913.29
3857.49
4111.14
3334.4
2622.03
2172.36
1934.02
1868.94
1944.24
1986.47
1960.3
1799.71
1461.71
1134.95
921.729
803.647
747.246
728.488
731.201
747.055
773.227
820.519
947.129
1313.45
1587.22
1582.1
1558.81
1452.64
1302.13
851.799
2162.69
4100.62
4076.53
3181.41
2457.23
2044.16
1851.85
1806.75
1888.94
1932.12
1888.28
1712.85
1387.1
1081.24
885.763
778.734
728.163
711.988
716.223
733.58
766.207
838.547
1067.68
1468.18
1534.34
1502.96
1465.68
1367.68
1238.4
843.291
2378.59
4333.34
4025.39
3027.86
2300.53
1941.66
1788.66
1769.21
1844.43
1893.21
1838.74
1632.93
1307.09
1020.46
847.281
754.358
711.515
699.067
705.714
727.195
772.601
904.964
1274.8
1469.92
1461.13
1421.86
1379.14
1296.27
1183.4
835.008
2600.92
4548.6
3956.84
2873.31
2184.23
1875.55
1745.15
1726.94
1804.27
1859.18
1792.11
1546.19
1216.25
956.439
809.851
734.139
699.612
691.589
701.737
731.338
807.495
1048.26
1381.15
1414.49
1388.39
1348.47
1308.1
1239.54
1135.94
826.457
2812.86
4712.26
3869.08
2742.25
2111.03
1834.62
1703.71
1676.8
1753.33
1807.32
1713.69
1445.96
1113.55
896.864
780.21
720.532
694.55
691.431
707.822
754.913
904.958
1256.13
1369.31
1349.46
1324.97
1283.02
1247.91
1190.12
1089.63
813.841
3031.22
4821.29
3776.89
2670.83
2078.39
1796.42
1644.46
1614.09
1681.53
1703.96
1581.25
1314.18
1012.14
849.739
762.011
716.194
698.383
701.501
731.135
825.014
1099.78
1304.15
1316.04
1290.79
1269.13
1227.18
1196.78
1142.46
1038.94
796.242
3241.05
4893.21
3732.05
2647.1
2063.66
1759.89
1592.18
1545.89
1581.59
1553.81
1409.59
1173.18
940.458
823.393
759.244
724.888
715.15
729.889
793.393
988.733
1233.87
1275.29
1260.83
1239.97
1220.18
1178.06
1148.46
1092.02
984.557
777.007
3429.27
4987.04
3738.27
2665.38
2077.26
1751.68
1566.69
1487.78
1473.91
1402.08
1251.24
1071.99
911.479
821.357
775.455
751.742
754.75
799.896
943.773
1175.82
1239.49
1230.29
1212.62
1195.31
1174.81
1131.9
1098.55
1040.59
934.895
759.108
3599.57
5111.18
3793.33
2722.24
2127.07
1778.92
1566.43
1452.43
1387.22
1294.79
1160.34
1038.58
924.183
855.225
823.146
817.835
851.468
967.877
1147.67
1210.33
1210.73
1189.14
1171.56
1154.59
1130.69
1088.14
1053.66
993.881
893.292
742.874
3758.76
5275.99
3899.59
2824.07
2220.95
1860.15
1624.47
1470.85
1374.33
1276.92
1175.68
1093.96
1013.09
971.453
953.317
978.071
1062.3
1168.29
1206.82
1203.22
1182.92
1152.56
1134.92
1116.74
1088.81
1048.64
1012.45
953.954
857.744
728.391
3916.79
5484.38
4062.19
2976.77
2369.89
2013.94
1779.27
1619.53
1524.6
1446.27
1382.19
1328.37
1282.31
1270.85
1256.59
1254.02
1254.6
1257.22
1228.9
1195.49
1158.82
1126.17
1103.67
1081.3
1051.2
1013.99
977.798
919.505
825.948
714.569
4083.79
5746.96
4296.18
3191.95
2596.08
2255.03
2056.13
1955.36
1916.93
1893.41
1875.77
1869.82
1840.01
1749.42
1621.94
1506.3
1409.98
1328.53
1252.84
1192.48
1139.62
1104.46
1078.61
1051.17
1019.63
983.748
949.404
890.825
796.796
701.13
4270.13
6083.1
4612.16
3487.81
2913.01
2620.56
2541.72
2575
2627.77
2664.71
2692.3
2674.84
2575.24
2381.29
2099.61
1822.92
1592.74
1416.83
1284.14
1188.64
1132.15
1088.89
1057.42
1025.03
992.587
958.375
926.257
865.356
769.838
689.079
4475.42
6506.36
5026.97
3893.41
3350.02
3205.66
3374.57
3523.77
3632.05
3742.59
3811.92
3787.98
3594.87
3236.59
2739.46
2241.38
1828.39
1524.64
1319.72
1202.89
1129.44
1079.63
1041.04
1001.85
969.42
937.869
906.546
841.708
745.801
677.692
4691.67
7024.47
5563.66
4428.67
3976.34
4098.43
4441.37
4666.19
4899.06
5127.88
5258.82
5206.62
4877.68
4296.73
3536.62
2764.88
2117.48
1656.98
1382.9
1226.65
1133.25
1072.71
1026.02
982.109
950.659
922.079
888.072
819.156
723.067
665.456
4952.07
7646.06
6207.55
5111.86
4850.23
5187.59
5577.21
5951.11
6355.87
6726.77
6914
6798.84
6296.49
5458.05
4423.04
3360.02
2457.56
1833.97
1461.44
1258.72
1141.38
1067.5
1011.31
965.026
936.222
909.55
868.782
796.113
700.8
652.559
5361.57
8223.99
6941.81
5970.66
5952.81
6297.82
6748.48
7291.08
7867.32
8347.14
8543.16
8309.3
7611.31
6545.53
5285.75
3966.06
2834.05
2035.88
1557.85
1298.9
1153.2
1061.81
997.229
950.967
924.6
897.208
847.905
772.417
677.999
639.878
5716.95
9030.87
7753.73
7018.02
7108.7
7461.69
7952.44
8608.35
9293.97
9812.05
9920.43
9511.37
8649.92
7448.49
6028.65
4534.16
3228.78
2268.38
1672.94
1347.73
1167.34
1055.53
984.09
939.141
914.944
882.941
825.66
748.362
656.019
628.057
6101.56
9630.01
8568.03
8244.46
8385.28
8716.63
9178.36
9863.35
10597.9
11067.8
11013
10454.1
9464.11
8150.94
6618.08
5052.85
3641.71
2534.27
1809.93
1403.76
1179.98
1049.22
972.314
928.753
905.649
864.908
803.178
725.273
635.905
616.161
6411.37
10359.4
9621.7
9796.92
9918.97
10157.9
10570.3
11242.8
11940
12275.7
12059
11322.1
10177
8736.56
7140.72
5558.81
4079.57
2834.97
1967.74
1461.47
1191.4
1044.51
962.506
920.008
894.9
844.536
780.568
703.188
617.626
604.911
6465.81
11554.8
11441
12017
11972.2
11991.4
12276
12892.8
13525.1
13651.6
13243.6
12284.6
10944.8
9352.36
7681.63
6066.62
4528.03
3161.51
2141.34
1522.19
1206.02
1043.4
957.563
913.106
879.659
822.59
757.675
682.042
600.516
594.037
845.771
1523.19
1778.18
1731.34
1331.74
1069.96
972.083
919.412
882.618
853.087
829.022
811.743
806.336
825.065
891.738
1040.63
1317.44
1740.57
2252.38
2433.45
2448.37
2381.44
2356.36
2517.79
2843.74
3331.42
3876.2
3796.01
2637.87
1158.37
867.623
1513.27
1735.25
1821
1634.92
1164.4
972.751
900.939
859.513
830.648
807.889
792.38
789.697
812.324
884.166
1041.93
1323.82
1730.3
2175.85
2292.9
2285.08
2224.63
2197.35
2346.98
2672.12
3175.76
3797.28
3939.82
2966.56
1345.91
868.499
1451.88
1644.73
1738.73
1713.15
1336.22
1002.36
888.327
838.521
807.793
785.891
771.617
770.126
792.622
860.191
1005.19
1260.99
1631.03
2046.37
2185.11
2179.32
2120.31
2089.52
2214.19
2518.06
3018.5
3699.69
4114.36
3348.69
1513.25
861.884
1386.85
1560.62
1658.28
1664.02
1549.56
1098.05
892.285
823.11
787.855
765.243
751.376
750.799
773.87
840.326
981.494
1227.31
1582.7
1947.75
2087.31
2090.54
2035.61
1982.94
2075.96
2351.11
2847.86
3570.28
4209.41
3691.28
1732.98
851.966
1313.4
1465.98
1570.11
1586.99
1583.83
1279.97
934.468
817.004
771.896
746.944
732.56
731.78
753.728
815.275
944.432
1170.63
1511.77
1849.71
1998.18
2019.14
1969.39
1893.97
1964.17
2210.61
2678.43
3420.86
4222.53
3968.77
1961.64
841.859
1244.47
1376.11
1475.85
1506.01
1535
1455.1
1047.42
831.851
763.822
732.901
716.91
714.827
734.511
789.949
907.01
1113.75
1437.15
1762.95
1925.12
1965.93
1914.93
1832.34
1880.92
2079.36
2507.65
3272.39
4189.72
4211.48
2212.37
833.864
1187.85
1301.8
1386.87
1424.23
1461.45
1464.48
1250.54
892.387
768.201
725.315
705.782
701.429
717.479
764.585
866.205
1050.73
1354.51
1685.9
1873.15
1928.22
1873.72
1795.47
1815.7
1975.97
2349.74
3114.51
4146.51
4451.61
2432.26
824.65
1138.67
1244.85
1311.3
1350.32
1387.31
1412.41
1372.16
1029.13
799.648
728.218
700.993
693.185
704.837
743.307
826.28
985.198
1260.14
1602.42
1824.74
1898.39
1835.89
1754.28
1773.01
1910.31
2232.25
2958.13
4079.31
4670.75
2660.05
812.335
1091.84
1193.6
1251.09
1285.93
1322.85
1347.26
1365.48
1240
891.675
749.887
706.286
692.339
698.719
727.893
793.48
922.578
1154.2
1500.95
1750.14
1848.04
1784.56
1702.95
1731.97
1871.53
2156.93
2821.92
3992.07
4839.5
2875.42
795.104
1041.17
1145.12
1200.89
1230.5
1268.06
1287.9
1313.81
1299.74
1082.11
815.905
728.329
701.794
701.636
722.346
771.99
869.951
1048.9
1359.77
1621.91
1741.8
1710.04
1638.15
1675.14
1834.01
2125.58
2750.64
3900.78
4957.49
3098.88
776.278
986.632
1095.25
1154.39
1181.9
1219.72
1236.47
1259.52
1274.56
1230.35
974.008
788.592
729.657
717.997
730.99
767.257
837.428
970.638
1210.23
1448.11
1584.4
1597.98
1565.15
1622.85
1799.3
2113.15
2726.9
3859.8
5043.92
3308.56
758.058
936.484
1044.08
1106.68
1136.36
1175.43
1191.3
1211.66
1231.17
1240.51
1172.64
936.154
799.991
758.681
758.999
783.462
832.01
930.855
1101.68
1284.16
1426.11
1482.81
1503.09
1594.1
1792.58
2129.65
2745.68
3865.3
5147.02
3502.25
742.393
894.571
997.055
1059.72
1092.74
1132.67
1150.97
1170.74
1191.54
1213.52
1212.7
1148.42
970.564
860.779
831.114
835.534
869.442
940.116
1060.35
1187.58
1318.03
1403.12
1472.69
1596.04
1820.35
2182.74
2804.4
3923.88
5283.25
3676.69
728.852
858.795
956.993
1018.25
1053.18
1091.98
1114.32
1135.43
1157.24
1187.45
1209.05
1213.5
1176.56
1083
1011.97
983.483
1001.54
1044.56
1120.83
1204
1305.83
1401.49
1499.71
1661.22
1907.37
2280.79
2906.41
4033.6
5458.54
3842.15
715.664
827.893
923.283
983.134
1019.21
1055.28
1080.79
1102.45
1124.48
1166.45
1204.43
1241.5
1272.86
1280.26
1299.16
1320.95
1341.79
1359.6
1390.62
1436.22
1495.84
1570.76
1663.47
1826.37
2068.66
2436.65
3060.67
4204.91
5676.66
4008.02
703.93
800.484
895.444
954.195
989.995
1024.73
1052.2
1078.23
1104.62
1144.13
1204.57
1272.3
1355.78
1453.61
1576.7
1714.61
1850.96
1955.55
1992.82
1985.08
1988.72
2004.56
2034.32
2125.43
2322.35
2672.05
3283.9
4449.02
5947.93
4182.69
692.959
775.183
870.837
931.256
965.561
999.021
1028.48
1059.75
1090.32
1135.37
1202.17
1310.73
1459.22
1664.14
1934.71
2246.79
2542.41
2749.51
2844.79
2862.54
2815.3
2769.41
2715.39
2659.03
2713.42
3002.4
3593.16
4773.76
6300.55
4377.96
681.772
752.085
848.111
912.03
945.333
976.855
1007.33
1045.2
1082.37
1134.46
1218.38
1350.74
1581.41
1934.31
2409.76
2963.11
3485.61
3854.61
4040.03
4055.68
3965.59
3828.75
3705.83
3561.93
3354.5
3466.53
4018.03
5198.8
6737.24
4595.82
669.639
729.575
826.277
894.681
931.505
958.406
988.675
1032.15
1078.47
1141.76
1246.35
1420.96
1738
2261.69
2995.02
3846.16
4649.07
5246.06
5564.78
5597.1
5440.18
5169.83
4905.75
4664.36
4324.43
4149.75
4580.78
5754.3
7273.73
4824.62
657.194
707.438
803.878
876.499
920.412
945.483
972.826
1019.55
1076.33
1153.96
1284.62
1511.68
1934.85
2639.26
3646.05
4804.46
5898.77
6763.75
7262.76
7357.16
7137.14
6713.41
6257.19
5850.71
5450.7
5113.04
5315.25
6426.32
7918.71
5094.77
645.355
685.336
780.716
856.316
909.31
936.474
960.225
1007.55
1074.37
1170.06
1330.9
1620.07
2152.5
3043.68
4288.78
5702.14
7025.09
8122.49
8836.09
9062.35
8841.54
8309.08
7665.99
7078.09
6609.11
6270.34
6246.24
7201
8519.01
5524.71
633.848
663.822
757.272
834.424
894.196
929.665
950.403
996.607
1072.15
1188.97
1385.27
1746.6
2410.01
3467.26
4870.12
6446.5
7926.34
9163.81
10044.8
10454.5
10348.3
9796.87
9043.01
8332.27
7815.53
7455.67
7374.42
8065.83
9356.3
5892.08
621.747
643.194
734.111
812.017
874.661
921.203
942.454
987.426
1069.17
1208.02
1447.01
1892.99
2691.17
3891.67
5376.52
7005.86
8597.73
9963.14
10988.2
11554.3
11607.3
11124.6
10341.3
9598.4
9107.26
8767.9
8659.9
8942.91
9984.6
6291.22
610.056
623.976
711.46
789.392
853.758
907.097
935.476
979.714
1067.43
1224.5
1511.95
2059.49
2999.19
4322.45
5853.36
7486.56
9143.06
10647
11846.1
12607.6
12816.8
12473.5
11753.1
11032.4
10581.6
10331
10229.3
10061.7
10768.8
6612.19
598.364
605.85
690.018
767.058
832.186
889.963
928.228
974.112
1067.43
1241.9
1578.54
2244.31
3329.03
4757.22
6334.32
7997.2
9730.96
11396.9
12804.5
13808.1
14223.7
14072.6
13429
12769.7
12446.2
12403.5
12455.6
11901.2
11875.4
6663.99
2982.85
2558.92
2198.54
1924.97
1706.8
1532.54
1393.12
1286.41
1206.95
1151.7
1116.01
1097.06
1093.4
1106.29
1135.82
1183.6
1251.96
1341.9
1454.33
1587.42
1740.34
1909.79
2090.03
2284.56
2498.45
2737.7
2989.3
3229.23
3466.34
3699.56
3923.03
4126.85
4304.89
4455.95
4578.08
4666.43
4715.13
4719.19
4675.15
4577.24
4426.87
4229.28
3991.68
3724.35
3444.55
3164.46
2894.4
2633.06
2385.02
2153.77
1943.86
1758.06
1596.78
1455.34
1329.12
1218.33
1119.42
1031.66
954.603
886.253
826.001
771.78
724.478
683.913
648.783
617.547
589.481
565.142
544.682
527.739
513.667
501.929
492.257
484.429
478.151
472.995
468.633
464.738
461.025
457.367
453.767
450.204
446.738
443.52
440.742
438.575
437.089
436.215
435.931
436.054
436.437
437.037
437.893
439.075
440.64
442.585
444.806
447.214
449.544
451.73
453.901
455.835
457.975
460.228
463.09
465.809
468.606
471.699
475.209
479.288
484.08
491.49
497.317
500.45
503.945
509.855
519.741
533.413
539.304
542.612
547.305
555.442
565.838
576.658
587.43
14948.5
13343.4
11558
10022.4
8733.29
7656.9
6756.4
6023.14
5416.68
4931.74
4551.97
4267.78
4068
3967.05
3958.65
4047.02
4242.94
4542.1
4955.52
5473.73
6098.52
6819.06
7588.89
8408.12
9236.15
10078.2
10944.3
11811.7
12667.9
13522.8
14382.1
15232.7
16056.1
16830.7
17537.3
18154.2
18650.8
18997.5
19167.8
19143.3
18912.4
18469.3
17838.2
17036
16073.6
14990.5
13817.8
12625.2
11419.2
10225.9
9070.34
7980.57
6980.37
6079.43
5280.83
4584.86
3981.03
3458.37
3007.68
2619.66
2289.24
2010.55
1779.89
1591.24
1435.95
1305.61
1193.86
1098.73
1019.3
953.776
899.912
854.929
816.083
781.624
750.833
723.065
697.409
673.26
650.367
628.635
608.093
588.904
571.19
555.011
540.301
526.986
515.059
504.481
495.016
486.725
479.388
472.824
466.974
461.828
457.389
453.636
450.49
447.855
445.493
443.279
441.304
439.408
438.114
437.164
436.742
436.338
436.412
437.714
441.168
447.106
452.844
458.976
463.26
467.288
472.244
479.217
489.864
506.272
517.581
524.123
531.263
542.043
556.768
572.985
589.278
34759.4
32030
28478
25183.2
22220.6
19614.6
17336.5
15377.3
13706.9
12305.3
11165.9
10266.6
9582.32
9112.06
8845.29
8777.62
8941.8
9317.31
9908.44
10704.5
11686.9
12844.7
14139
15521.9
17002.1
18586
20266.5
22021.9
23833.3
25676.8
27539.5
29388.5
31186.6
32894.2
34465.7
35849.8
37009.6
37902.5
38480.3
38718.2
38595.6
38110.8
37306.9
36183.7
34735.1
32985.6
31028.4
28971.3
26816
24602.6
22373.6
20172.2
18044.6
16027.2
14148.3
12430.3
10870.4
9466.78
8202.08
7060.05
6036.02
5135.4
4355.6
3694.43
3145.07
2697.05
2341.04
2062.18
1842.57
1668.66
1530.08
1416.56
1319.44
1235.2
1162.5
1098.65
1041.71
990.267
942.95
898.999
858.02
819.936
784.693
752.609
723.803
697.982
674.765
654.184
636.187
619.937
604.938
591.006
578.148
566.408
555.801
546.345
537.966
530.56
523.851
517.682
512.193
506.999
502.642
499.007
496.094
493.444
491.773
491.838
494.77
501.139
507.301
512.418
516.713
523.1
531.826
540.995
550.972
566.774
583.315
593.853
604.042
616.419
632.491
651.01
670.197
60260.1
56474.3
51261.5
46094.5
41204.5
36714
32656.9
29056
25906.3
23210.7
20966.3
19139.2
17743.6
16762.4
16186.2
16011.7
16239.5
16853.3
17858.8
19234.8
20951.4
22984.7
25294.2
27790.3
30466.6
33319.3
36325.1
39446.7
42634.9
45838.4
49000.1
52056.4
54951.6
57632.3
60046.5
62143.9
63860.3
65140.3
65975.7
66363.2
66286
65760.5
64808.9
63412.3
61606.4
59487.4
57100.4
54465.2
51616.3
48607.9
45502.2
42356.5
39209.6
36098.9
33064.4
30132.9
27312.9
24610.4
22032.3
19576.3
17253.7
15081.2
13058.6
11172.6
9415.05
7808.34
6409.35
5258.35
4360.17
3685.97
3185.48
2809.64
2523.8
2301.22
2121.65
1970.55
1841.61
1727.03
1620.56
1520.63
1426.89
1339.66
1258.96
1184.28
1116.33
1055.63
1002.36
955.325
913.322
875.288
839.875
806.683
775.641
746.973
720.816
697.187
675.974
657.022
639.994
624.742
611.176
598.95
588.588
579.598
572.207
565.563
560.685
558.309
559.822
565.581
570.674
574.684
578.372
585.282
595.346
605.631
616.098
630.838
649.648
663.446
674.728
687.982
705.295
725.03
745.819
88281.2
83911.4
77578.6
70958
64394
58150.6
52346.2
47040.3
42314.5
38225.7
34808.2
32041.3
29936.4
28550.4
27847.1
27821.1
28455.8
29735.3
31644.1
34135.1
37138.1
40580.4
44373.9
48427.4
52591
56906.1
61322.6
65764.1
70155.1
74426.7
78516.4
82361.3
85901.7
89082.8
91855.3
94177.2
96023.2
97378
98201.7
98469.3
98246.5
97531.5
96378.5
94819.8
92887.7
90631.9
88092.1
85306.5
82305.3
79133.4
75828.9
72425.1
68958.8
65460.5
61970.5
58496
55030.9
51570.8
48105.9
44632.8
41176.8
37741
34324.3
30906.4
27487.9
24121.6
20853.1
17742.8
14886
12377.8
10271.1
8575.23
7242.19
6211.52
5418.09
4804.29
4320.13
3929.61
3609.54
3337.99
3097.51
2877.26
2672.43
2481.72
2305.28
2146.17
2005.22
1877.59
1756.62
1638.72
1525.28
1417.84
1317.3
1224.11
1138.67
1061.49
992.615
931.473
877.535
830.361
789.427
754.159
724.397
699.001
677.713
659.406
645.172
635.345
630.973
632.575
634.881
636.794
639.053
644.611
653.889
664.367
675.166
688.914
706.514
724.175
738.584
753.126
770.468
790.042
810.945
116169
111565
104544
97067.9
89477.3
81978.5
74787.9
68101.1
62076.1
56846.1
52497.3
49098.8
46682.2
45253
44814.8
45390.9
46924.8
49367.9
52636.8
56617.5
61166.4
66140.5
71410.2
76862.4
82373.5
87802.7
93196.1
98456.7
103512
108289
112721
116756
120354
123482
126123
128250
129856
130947
131545
131659
131284
130429
129190
127593
125684
123504
121087
118459
115649
112690
109614
106450
103211
99892.6
96517.5
93124.3
89672.6
86136.3
82490.4
78730.8
74892.2
70948.8
66884.3
62689.7
58369.6
53931.9
49391.4
44801.8
40257.5
35850.6
31655.1
27718
24071
20805.9
17948.9
15497.1
13423.1
11700.2
10280.8
9111.83
8144.52
7337.43
6657.72
6076.32
5569.55
5116.52
4701.51
4316.84
3961.12
3632.88
3327.03
3038.55
2765.78
2510.01
2271.65
2050.87
1849.13
1667.31
1505.1
1361.66
1235.65
1127.28
1035.26
958.403
894.359
841.329
798.521
766.518
744.745
733.257
726.12
718.713
714.715
715.328
720.836
729.448
739.543
752.531
768.741
785.004
801.298
816.346
832.771
851.754
871.682
141200
136656
129384
121563
113414
105258
97342.9
89949.5
83247.2
77381.7
72641.5
69186.5
67016
66154.7
66585.3
68276.3
71148.5
75053.6
79807.4
85216.8
91086.7
97240.6
103553
109904
116198
122325
128136
133620
138766
143503
147796
151618
154923
157714
160024
161825
163130
163959
164326
164259
163799
162961
161761
160276
158544
156612
154505
152245
149857
147368
144798
142162
139465
136690
133826
130869
127787
124549
121115
117432
113558
109519
105263
100787
96099.8
91245.5
86212
81010.7
75678.8
70273.7
64843.1
59434.5
54102.1
48905
43919.7
39195.6
34798.4
30820.5
27234.2
24010.7
21131
18583
16345.4
14398
12720.9
11288.3
10065.8
9017.03
8112.17
7323.88
6630.27
6012.08
5453.88
4944.62
4477.31
4045.9
3645.11
3271.77
2925.22
2605.12
2310.84
2044.96
1809.27
1603.03
1426.08
1276.7
1153.77
1055.4
981.687
930.094
894.1
862.683
838.386
823.327
816.212
815.893
819.867
827.127
837.691
849.894
863.015
876.881
890.715
905.866
919.086
160330
156569
149713
141905
133674
125415
117336
109761
102941
97321.4
93003.1
90041.8
88690.8
89005
90871
94145.9
98593.4
103979
110052
116592
123389
130284
137157
143919
150490
156792
162730
168192
173123
177517
181424
184820
187727
190143
192093
193586
194639
195280
195505
195363
194865
194083
193046
191767
190315
188730
187039
185271
183451
181596
179712
177795
175829
173784
171629
169330
166847
164146
161202
157971
154459
150685
146629
142267
137517
132537
127297
121749
115913
109852
103618
97246.2
90792.5
84334.1
77916.7
71574.6
65328.3
59200.9
53255.7
47617.4
42370.2
37512.4