/*--------------------------------*- C++ -*----------------------------------*\
| =========                 |                                                 |
| \\      /  F ield         | OpenFOAM: The Open Source CFD Toolbox           |
|  \\    /   O peration     | Version:  2112                                  |
|   \\  /    A nd           | Website:  www.openfoam.com                      |
|    \\/     M anipulation  |                                                 |
\*---------------------------------------------------------------------------*/
FoamFile
{
    version     2.0;
    format      ascii;
    arch        "LSB;label=32;scalar=64";
    class       volScalarField;
    location    "0.00863";
    object      nut;
}
// * * * * * * * * * * * * * * * * * * * * * * * * * * * * * * * * * * * * * //

dimensions      [0 2 -1 0 0 0 0];

internalField   nonuniform List<scalar> 
13875
(
0.0511675
0.0366252
0.0343666
0.0343292
0.0343013
0.0343346
0.0342979
0.0342788
0.0342935
0.0342951
0.0342928
0.0342972
0.0343226
0.0343416
0.0343303
0.0342931
0.0342675
0.0342897
0.0343025
0.0343264
0.0343038
0.0343343
0.0343815
0.0365659
0.0514326
0.0532618
0.0341197
0.0322229
0.0321066
0.0320657
0.0320863
0.0320444
0.0320254
0.0320352
0.0320318
0.0320263
0.0320483
0.0320542
0.0320724
0.0320603
0.0320468
0.0320035
0.0320346
0.032046
0.0320757
0.0320636
0.0321024
0.0322281
0.0340547
0.053642
0.0564568
0.0335615
0.0318034
0.0315926
0.0315726
0.0315803
0.031485
0.0314426
0.0314494
0.0314419
0.031428
0.03146
0.0315303
0.0315559
0.0315346
0.0314645
0.031408
0.0314454
0.0314781
0.0315674
0.0315644
0.0315802
0.0317945
0.0334958
0.0565968
0.0590702
0.0332327
0.03149
0.0312767
0.0312654
0.0312655
0.0311554
0.0310995
0.0311092
0.0311084
0.0310867
0.0311087
0.0312134
0.03124
0.0312183
0.0311167
0.0310728
0.0311026
0.0311465
0.0312537
0.0312553
0.0312625
0.031485
0.0331702
0.0591438
0.0611254
0.033004
0.0312468
0.0310031
0.0309881
0.0309844
0.0308649
0.0308078
0.0308226
0.0308235
0.0307987
0.0308179
0.0309246
0.0309546
0.0309298
0.0308272
0.0307864
0.0308148
0.0308594
0.0309685
0.0309767
0.0309898
0.0312305
0.0329197
0.0612548
0.0628182
0.0328481
0.0310899
0.0307716
0.0307557
0.0307374
0.0306027
0.0305449
0.0305621
0.0305633
0.0305359
0.0305528
0.0306619
0.0306949
0.0306677
0.0305626
0.030526
0.0305533
0.0305999
0.0307198
0.0307437
0.0307612
0.0310593
0.0328223
0.0629707
0.0648269
0.0330731
0.0311043
0.0306326
0.0305715
0.0305303
0.0303727
0.0303109
0.0303276
0.0303276
0.0302993
0.0303137
0.0304254
0.0304587
0.0304287
0.030322
0.030293
0.0303204
0.0303762
0.030512
0.0305601
0.0306332
0.0311137
0.0330701
0.064866
0.0670936
0.0339365
0.031425
0.0306499
0.0304877
0.0303784
0.0301877
0.0301114
0.0301227
0.0301198
0.0300917
0.0300996
0.0302157
0.0302518
0.0302192
0.0301081
0.0300891
0.0301205
0.0301898
0.0303572
0.0304673
0.0306298
0.0313927
0.0338961
0.0673615
0.0736457
0.0362963
0.0320402
0.0308453
0.0304766
0.0302845
0.0300425
0.0299507
0.0299574
0.0299493
0.0299221
0.029923
0.0300435
0.030083
0.0300497
0.0299352
0.029923
0.0299578
0.0300442
0.0302598
0.0304503
0.0308023
0.0319355
0.0360001
0.0741955
0.0828989
0.0384709
0.0327354
0.0311894
0.030582
0.0302416
0.029966
0.0298691
0.0298635
0.0298472
0.029823
0.02982
0.0299389
0.0299819
0.0299503
0.0298468
0.0298327
0.0298727
0.0299655
0.0302203
0.0305503
0.0310808
0.0326233
0.038105
0.0835481
0.0907128
0.0441351
0.0346495
0.0319976
0.0308193
0.0303534
0.0300341
0.0299061
0.0298741
0.0298459
0.0298216
0.0298161
0.0299278
0.0299737
0.0299511
0.0298722
0.0298564
0.0299036
0.0300355
0.030304
0.0307944
0.0318812
0.0343623
0.0432639
0.089347
0.0950382
0.0545265
0.0403741
0.0334518
0.031873
0.0308316
0.0303278
0.0301373
0.030061
0.0300176
0.0299896
0.0299861
0.0300804
0.0301296
0.0301216
0.0300729
0.0300648
0.0301373
0.0303219
0.0308364
0.0317995
0.0332276
0.0398464
0.0533644
0.0942569
0.0865765
0.068766
0.0516156
0.0417724
0.0343869
0.0319347
0.0312854
0.0308259
0.0306392
0.0305476
0.0305
0.0304924
0.0305637
0.030612
0.030627
0.0306241
0.0306773
0.0308712
0.0313319
0.0320045
0.0347645
0.0415764
0.0509437
0.0687651
0.0865998
0.07957
0.0659388
0.0581559
0.0657482
0.0416666
0.0372364
0.0336706
0.0324331
0.0320354
0.0319699
0.0319297
0.0319234
0.031986
0.0320305
0.0320603
0.0320898
0.032141
0.032535
0.03408
0.0382589
0.043207
0.0657133
0.0578307
0.0661714
0.0816085
0.0752933
0.0642739
0.0565833
0.0606802
0.0560838
0.0540519
0.0444926
0.038827
0.0367301
0.0358797
0.0354939
0.0353714
0.0353938
0.03545
0.0355608
0.0358606
0.0366618
0.0388986
0.0451633
0.0552248
0.0557423
0.0612508
0.0565988
0.064152
0.0746611
0.0671367
0.0618335
0.0543164
0.0573225
0.056015
0.0571982
0.0545262
0.0531038
0.0508044
0.048337
0.0474565
0.0471245
0.0470383
0.047119
0.04728
0.0477705
0.0504027
0.0542974
0.0554552
0.0577245
0.0556155
0.0580108
0.0543119
0.0614955
0.0664777
0.0623795
0.0581963
0.0524878
0.0550905
0.0568045
0.0611485
0.0680814
0.0728804
0.0699576
0.070721
0.0729846
0.0744764
0.075236
0.0749032
0.0733529
0.0725096
0.0699349
0.07279
0.068675
0.0612155
0.0563037
0.0553031
0.0519664
0.0575762
0.062436
0.0569819
0.0546814
0.0530976
0.0569051
0.0598911
0.0629185
0.0709299
0.0791273
0.0742314
0.0703897
0.0692335
0.0693597
0.0698745
0.0695896
0.0697303
0.0725799
0.0738305
0.076687
0.070869
0.0641948
0.0609406
0.0576489
0.0528261
0.0542633
0.0567876
0.0513505
0.0541388
0.0558768
0.0618217
0.066816
0.0646885
0.0674004
0.0752299
0.0742417
0.0704523
0.0686722
0.0683185
0.0684335
0.0689007
0.0697731
0.0716712
0.0728214
0.0731144
0.0677355
0.0667028
0.0696955
0.0630485
0.0562571
0.0544024
0.0521519
0.0493391
0.0573107
0.0603581
0.0657724
0.068611
0.0644204
0.0639303
0.0695826
0.0717864
0.0704007
0.0686886
0.0671936
0.0664941
0.0680258
0.0699657
0.0709207
0.0698988
0.0678242
0.0645529
0.0665463
0.0707729
0.0664761
0.0608694
0.0576245
0.0487755
0.0776748
0.0886166
0.077295
0.0652894
0.0649198
0.0614683
0.0607114
0.0655965
0.0693056
0.0694056
0.0676437
0.0652189
0.0640578
0.0663487
0.0689956
0.06947
0.0672161
0.0641101
0.0614678
0.0634753
0.0667877
0.0669284
0.0798102
0.0918152
0.0825612
0.128545
0.160377
0.089634
0.0619509
0.0607883
0.0584666
0.0580536
0.0626135
0.0668897
0.0677495
0.0658877
0.0628335
0.0613961
0.0640864
0.067225
0.067568
0.0647532
0.0613858
0.0587255
0.0602188
0.0623351
0.0637838
0.0928669
0.164641
0.134658
0.152103
0.142666
0.083612
0.0590861
0.0574387
0.0559025
0.0556908
0.0601679
0.0645918
0.0657332
0.0637123
0.0603277
0.0586861
0.0615105
0.0650063
0.0654883
0.0624604
0.0591011
0.056242
0.0572981
0.0586805
0.0606625
0.083573
0.14289
0.153006
0.160318
0.14324
0.0762663
0.0569243
0.0546468
0.0535826
0.0536497
0.0579323
0.0623622
0.0635486
0.061299
0.057719
0.0561075
0.0589789
0.062696
0.0634051
0.0602241
0.0568477
0.0541614
0.0548231
0.0558745
0.0585339
0.0774858
0.149696
0.160234
0.165882
0.144517
0.072326
0.055374
0.0525931
0.051627
0.0519916
0.0559549
0.060192
0.0612959
0.0589501
0.0553034
0.0537194
0.0565667
0.0604214
0.0612362
0.0581443
0.0548452
0.0523701
0.0527135
0.0538307
0.0569905
0.0742435
0.153605
0.166917
0.173072
0.148397
0.0696908
0.0539018
0.0509961
0.0499712
0.0506363
0.054226
0.0581256
0.0590778
0.056727
0.0530874
0.0515249
0.0542737
0.0581036
0.0590429
0.0562278
0.0530809
0.0507847
0.0508128
0.0521519
0.0553175
0.0714228
0.156537
0.176552
0.182589
0.144963
0.0665889
0.0525035
0.0497597
0.048625
0.0494957
0.0527085
0.0561264
0.0567972
0.0544828
0.0510201
0.0495419
0.0522418
0.0560044
0.056976
0.054481
0.0515445
0.049419
0.0492932
0.0509103
0.0539881
0.0689827
0.154947
0.183847
0.188335
0.144551
0.064797
0.0514404
0.0488076
0.047573
0.0484959
0.0513447
0.0543012
0.0547334
0.0524955
0.0491734
0.0477358
0.0503203
0.0539339
0.0549864
0.0528823
0.0502073
0.0482668
0.0480906
0.0498057
0.0527837
0.0672365
0.155493
0.191341
0.193376
0.146617
0.0637365
0.0505724
0.0480238
0.046829
0.0476306
0.050109
0.0526139
0.0528177
0.0506801
0.0475144
0.0461034
0.0485428
0.051949
0.0530428
0.0513783
0.0490134
0.0472672
0.0471229
0.04881
0.0517238
0.0653482
0.150659
0.199208
0.20032
0.143802
0.0628075
0.0498805
0.0472523
0.0462363
0.0469687
0.049006
0.0509846
0.0509192
0.0488813
0.0459444
0.0446211
0.0470051
0.0502717
0.0513642
0.05001
0.0479438
0.0464438
0.0463526
0.0479025
0.0509584
0.0646082
0.150543
0.202852
0.202507
0.140018
0.0622734
0.049476
0.0465776
0.0456746
0.0463491
0.0479931
0.0495292
0.049266
0.0473384
0.0445676
0.0432864
0.0455444
0.048617
0.0497132
0.0487385
0.0470244
0.045782
0.0456785
0.0470224
0.0503574
0.0636708
0.145587
0.208068
0.204953
0.139696
0.0622195
0.0493614
0.0459592
0.0451048
0.0457605
0.0470877
0.0482331
0.0478038
0.0459608
0.0433208
0.0420786
0.0442033
0.0471266
0.0482616
0.0475817
0.0461929
0.0451521
0.0450057
0.0462501
0.0500252
0.0631413
0.142869
0.210661
0.209085
0.135287
0.0619018
0.0494357
0.0454875
0.0446346
0.0451675
0.0462303
0.0469657
0.0463771
0.0446258
0.0421596
0.0409947
0.0430516
0.0458375
0.0469519
0.046525
0.0454301
0.0445222
0.0444255
0.0456619
0.0499646
0.0630387
0.141265
0.212832
0.210179
0.132791
0.0617201
0.0497384
0.0451931
0.0441953
0.0445275
0.0454313
0.0458506
0.045148
0.0434785
0.0411257
0.0400058
0.0419406
0.0446047
0.0457458
0.0455395
0.0447278
0.0439067
0.0439002
0.0452378
0.0500601
0.0629408
0.137134
0.215435
0.211228
0.132274
0.0614069
0.0501095
0.045242
0.0438001
0.0439422
0.0446528
0.0448271
0.0440221
0.0424315
0.0401891
0.0391207
0.0409499
0.0434786
0.0446247
0.0446127
0.0440295
0.0433351
0.0435041
0.045131
0.0503402
0.0625223
0.134843
0.216147
0.213355
0.130443
0.0610025
0.050502
0.0454992
0.0434887
0.0433879
0.0438721
0.0438585
0.0429762
0.0414323
0.039309
0.0383058
0.0400654
0.0425225
0.0436647
0.0437671
0.0433314
0.0428133
0.0431435
0.0453228
0.0507688
0.0623388
0.135403
0.216971
0.213762
0.130667
0.0608243
0.0513387
0.0459799
0.0433141
0.0429112
0.0431414
0.0429512
0.0420432
0.0405619
0.0385329
0.037573
0.0392308
0.0415819
0.0427192
0.0429456
0.0426788
0.0423442
0.0429019
0.0456953
0.0514189
0.0619785
0.134628
0.218257
0.213803
0.133091
0.0606568
0.0520776
0.0466283
0.0433588
0.0424551
0.0424568
0.0421195
0.0412022
0.0397777
0.0378213
0.0369005
0.0384636
0.0407419
0.0418721
0.0421614
0.0420715
0.0418994
0.0428941
0.0463128
0.0522444
0.0616325
0.135848
0.218044
0.214213
0.13301
0.0600848
0.052232
0.0475068
0.0436255
0.0421257
0.0418403
0.0413216
0.0403833
0.0390142
0.0371585
0.036294
0.0378018
0.0399971
0.0410931
0.041457
0.0415302
0.0415572
0.0430805
0.0471911
0.052699
0.0612284
0.138319
0.217759
0.213388
0.134967
0.0595778
0.0522212
0.0486543
0.0440773
0.0419548
0.0413113
0.0406288
0.0396715
0.0383518
0.0365568
0.0357294
0.0371518
0.0392807
0.0403674
0.0407881
0.0410708
0.0414095
0.0434905
0.0481131
0.0525625
0.0606846
0.138775
0.217671
0.212906
0.137473
0.0593878
0.0520958
0.0499861
0.0447667
0.0419884
0.0409306
0.0400205
0.039017
0.0377348
0.0360018
0.0352161
0.0365665
0.0386086
0.0396941
0.0402193
0.0407324
0.0414832
0.0440996
0.0496979
0.0524338
0.06026
0.140514
0.216708
0.213052
0.139258
0.0590998
0.051663
0.0505507
0.045629
0.042161
0.0407511
0.0395215
0.0384206
0.0371478
0.0354747
0.0347331
0.0360339
0.0380389
0.0391203
0.0397528
0.0405476
0.0416541
0.0450425
0.0508005
0.0522235
0.0606926
0.143427
0.216156
0.212322
0.141458
0.0591025
0.0511165
0.0505332
0.0470227
0.0425619
0.0407378
0.0391798
0.0379107
0.0366294
0.0350018
0.0342914
0.0355229
0.0374675
0.038583
0.039399
0.0405505
0.0420281
0.0462337
0.0508468
0.0516531
0.0606582
0.145901
0.215827
0.211802
0.143767
0.0601199
0.0506195
0.0501571
0.048647
0.0432974
0.0408196
0.0390242
0.037529
0.0361832
0.0345646
0.0338753
0.0350487
0.0369651
0.0381427
0.0391973
0.040667
0.042767
0.0481866
0.0505539
0.0511198
0.0613639
0.148448
0.215025
0.211569
0.145776
0.060095
0.0500813
0.0495544
0.0493996
0.0445855
0.0410896
0.0389634
0.0372796
0.0357947
0.0341692
0.0335041
0.0346429
0.0365601
0.0378523
0.0391482
0.0409673
0.04418
0.0493907
0.0500438
0.0508291
0.0630153
0.150341
0.214204
0.210654
0.147595
0.0612143
0.0497806
0.0488654
0.0491039
0.0467388
0.041793
0.0390478
0.0372074
0.0355772
0.0338687
0.0331909
0.0343037
0.0362856
0.0377349
0.0391928
0.0415751
0.0462001
0.0492196
0.0493935
0.0504697
0.063549
0.151777
0.213747
0.209596
0.149458
0.0627104
0.049702
0.0482904
0.0486259
0.047984
0.0434569
0.0392986
0.0371783
0.03549
0.0337085
0.0329451
0.0341061
0.0361604
0.0377032
0.0393867
0.0430691
0.0477971
0.048771
0.0487693
0.0502384
0.0640873
0.153495
0.212738
0.207598
0.150522
0.0633681
0.0495964
0.0478103
0.0480027
0.0477164
0.0457559
0.040099
0.0372348
0.0354608
0.0336493
0.0328285
0.0340348
0.0361327
0.0377602
0.0401404
0.045399
0.0478483
0.0481464
0.0482561
0.0502321
0.0654787
0.155073
0.210472
0.204254
0.150484
0.0642576
0.0496692
0.0474401
0.0473129
0.047288
0.0472918
0.0418899
0.0375512
0.0355014
0.0336522
0.0328307
0.0340246
0.0361414
0.038006
0.0417474
0.0473111
0.0474471
0.0474001
0.0477981
0.0501784
0.0659981
0.155541
0.207222
0.195447
0.14734
0.0649499
0.0497804
0.0471613
0.0467318
0.0467332
0.0471011
0.0445088
0.0386834
0.0357189
0.0336914
0.032859
0.0340379
0.0362964
0.0389354
0.0443988
0.0474895
0.0469162
0.0467652
0.047411
0.0501602
0.0662702
0.152492
0.198417
0.325062
1.13825
1.41508
1.40949
1.35123
1.26885
1.18294
1.07527
0.950593
0.820085
0.697768
0.59471
0.516035
0.465144
0.436099
0.421778
0.415048
0.41073
0.407079
0.402192
0.39484
0.384316
0.370466
0.354735
0.336606
0.315209
0.288064
0.250925
0.193133
0.116228
0.312553
1.21031
1.49912
1.49876
1.44193
1.35795
1.26481
1.14565
1.00609
0.860105
0.726552
0.615671
0.529913
0.473108
0.439937
0.421826
0.411984
0.405194
0.399893
0.393453
0.385063
0.37425
0.36142
0.345677
0.328121
0.306941
0.280605
0.244147
0.187579
0.114252
0.335781
1.34638
1.59889
1.59154
1.53232
1.44693
1.34823
1.21854
1.06745
0.907414
0.7614
0.641626
0.548768
0.485638
0.446442
0.424066
0.41006
0.401158
0.393413
0.385519
0.376355
0.365212
0.352386
0.337282
0.320138
0.2995
0.273903
0.237968
0.182538
0.112619
0.357905
1.43792
1.70656
1.70233
1.63987
1.54961
1.44118
1.30171
1.13811
0.966351
0.809693
0.678784
0.57641
0.503764
0.456687
0.428366
0.41046
0.398323
0.388143
0.378897
0.368882
0.357518
0.344734
0.330377
0.313507
0.293381
0.268427
0.232807
0.178179
0.111346
0.370112
1.52673
1.82449
1.82032
1.74842
1.65032
1.53227
1.38371
1.21207
1.03146
0.866909
0.725196
0.611311
0.527147
0.470596
0.434531
0.412099
0.396468
0.383846
0.373143
0.362374
0.350828
0.338302
0.324615
0.308101
0.288364
0.263672
0.228341
0.174597
0.110327
0.380998
1.62733
1.95172
1.94219
1.85407
1.7418
1.61272
1.4578
1.28129
1.09649
0.92685
0.776311
0.650655
0.554382
0.487336
0.44318
0.414988
0.395615
0.380861
0.368519
0.357143
0.345578
0.333421
0.320139
0.303858
0.284102
0.259402
0.224219
0.171199
0.109296
0.393238
1.73315
2.08247
2.06273
1.95314
1.82291
1.6818
1.52087
1.34306
1.15903
0.986954
0.829478
0.693248
0.585
0.506665
0.453583
0.419109
0.39575
0.378801
0.365221
0.35316
0.341611
0.329624
0.316098
0.300111
0.280589
0.255702
0.220635
0.168271
0.108475
0.406223
1.84214
2.21332
2.1793
2.04531
1.89674
1.74177
1.57735
1.39882
1.21686
1.04549
0.883674
0.738213
0.618399
0.528487
0.466052
0.42502
0.397655
0.378211
0.363192
0.350483
0.338724
0.326625
0.312823
0.296705
0.277228
0.252459
0.217446
0.1657
0.107758
0.418789
1.94702
2.34033
2.29087
2.13226
1.96419
1.79892
1.63105
1.4517
1.27229
1.10237
0.938298
0.785496
0.654876
0.553365
0.480888
0.432819
0.401035
0.378986
0.362265
0.348715
0.336659
0.324145
0.310007
0.293614
0.273962
0.249363
0.214695
0.163488
0.107175
0.429597
2.04887
2.4615
2.40128
2.21739
2.03206
1.85784
1.68679
1.50482
1.32805
1.15945
0.994167
0.835805
0.695265
0.581983
0.498911
0.442822
0.406125
0.381076
0.362426
0.347829
0.33504
0.32205
0.307645
0.291002
0.271161
0.246516
0.212046
0.161424
0.10664
0.438616
2.14232
2.58094
2.51316
2.30548
2.10407
1.92138
1.74846
1.56107
1.3868
1.21927
1.05288
0.890673
0.741443
0.615962
0.521052
0.455796
0.413168
0.384448
0.363649
0.347656
0.333772
0.320415
0.305772
0.289123
0.268854
0.244029
0.209368
0.159333
0.10621
0.446864
2.23035
2.70054
2.62604
2.39907
2.18275
1.99123
1.81354
1.62297
1.45071
1.28475
1.11788
0.951842
0.794595
0.656931
0.548974
0.472783
0.422634
0.389422
0.366057
0.348134
0.333166
0.319492
0.304353
0.287201
0.266907
0.241601
0.206583
0.157266
0.105883
0.455816
2.31776
2.81824
2.73819
2.49788
2.27022
2.07023
1.88342
1.6932
1.52262
1.35799
1.19066
1.02148
0.85646
0.706814
0.584602
0.495274
0.435579
0.396595
0.369912
0.349913
0.333598
0.318901
0.303024
0.285524
0.265089
0.239272
0.204041
0.155239
0.105433
0.465498
2.40599
2.93104
2.84976
2.60138
2.36618
2.15976
1.96124
1.77238
1.60505
1.44088
1.27278
1.10035
0.928505
0.767553
0.630324
0.525481
0.453617
0.406716
0.375429
0.352688
0.334332
0.317992
0.301504
0.283926
0.263282
0.237111
0.201767
0.153419
0.105094
0.474143
2.49161
3.03862
2.95897
2.70845
2.46907
2.25709
2.04851
1.86167
1.6968
1.53409
1.36539
1.18994
1.0124
0.840907
0.688238
0.565992
0.478724
0.420763
0.382793
0.355981
0.335041
0.317082
0.300083
0.282324
0.261434
0.235056
0.199542
0.151616
0.104827
0.481189
2.5705
3.13641
3.06273
2.81666
2.57723
2.36013
2.14691
1.96087
1.79757
1.63685
1.46838
1.29146
1.10866
0.927784
0.760331
0.619461
0.513319
0.440607
0.392771
0.360331
0.336243
0.316722
0.299063
0.280832
0.259565
0.233164
0.197308
0.149788
0.104668
0.487571
2.64039
3.22269
3.15972
2.92468
2.69094
2.46938
2.25213
2.06841
1.90726
1.74835
1.5806
1.40371
1.21703
1.02818
0.847616
0.687861
0.559641
0.467779
0.406828
0.366876
0.339052
0.317603
0.298651
0.279597
0.25774
0.23139
0.195162
0.147998
0.104698
0.49226
2.70071
3.29722
3.24915
3.02957
2.80727
2.5849
2.36445
2.18433
2.02597
1.86888
1.70227
1.5256
1.3368
1.142
0.950201
0.772111
0.620614
0.505263
0.427091
0.376853
0.343939
0.319571
0.298948
0.278715
0.256386
0.229418
0.193241
0.146609
0.104573
0.500704
2.73958
3.35261
3.32547
3.1289
2.92647
2.70597
2.48537
2.30965
2.15454
1.99903
1.83342
1.6567
1.46708
1.26804
1.06682
0.872469
0.697729
0.555917
0.455512
0.391743
0.351223
0.322717
0.300147
0.278826
0.256008
0.228258
0.191592
0.145379
0.104535
0.503428
2.7624
3.38642
3.38603
3.21978
3.04443
2.8317
2.61579
2.44534
2.29344
2.1391
1.9744
1.79822
1.60759
1.40498
1.19574
0.98726
0.789771
0.621799
0.49622
0.413114
0.361415
0.327366
0.30219
0.280048
0.256081
0.227464
0.190373
0.144584
0.104588
0.508771
2.75625
3.38469
3.42262
3.29866
3.15657
2.96152
2.7571
2.5928
2.44354
2.29008
2.12664
1.95122
1.75881
1.55285
1.33624
1.11461
0.897878
0.704572
0.549766
0.442532
0.375856
0.333791
0.30486
0.280955
0.255988
0.226891
0.189669
0.144025
0.104836
0.510965
2.72998
3.34441
3.42885
3.36427
3.26349
3.09434
2.90786
2.75133
2.60437
2.45247
2.29085
2.11609
1.92193
1.71105
1.48619
1.25164
1.01802
0.801022
0.61758
0.483298
0.396284
0.343293
0.308476
0.281496
0.255678
0.226153
0.189091
0.143456
0.105072
0.515326
2.6577
3.24796
3.39462
3.41077
3.36317
3.22923
3.0664
2.91962
2.7756
2.62522
2.46562
2.2901
2.09311
1.87444
1.63964
1.39387
1.14781
0.912207
0.70285
0.538672
0.426117
0.357018
0.313791
0.283418
0.256098
0.225805
0.188523
0.14279
0.105289
0.514351
2.49255
3.06034
3.29745
3.42968
3.45191
3.36437
3.23104
3.09776
2.95833
2.80809
2.6462
2.46328
2.2611
2.0382
1.79727
1.54492
1.28907
1.03846
0.806087
0.61126
0.468306
0.377458
0.322974
0.287102
0.257488
0.22601
0.188138
0.142162
0.105517
0.501976
2.0086
2.66805
3.11046
3.40842
3.52477
3.49566
3.39783
3.28234
3.15093
3.00139
2.83218
2.63917
2.42981
2.20905
1.96524
1.70794
1.44297
1.17843
0.925897
0.701545
0.525239
0.407231
0.336245
0.29267
0.259474
0.226474
0.187668
0.141469
0.105724
0.115839
0.192253
0.249978
0.287239
0.313931
0.335541
0.353661
0.369376
0.382741
0.393278
0.400696
0.405903
0.409584
0.413772
0.421906
0.43855
0.471928
0.530056
0.617479
0.730758
0.864838
1.0053
1.13563
1.24711
1.33468
1.41929
1.47771
1.47911
1.18584
0.332992
0.11386
0.186733
0.243264
0.279867
0.305998
0.327165
0.344834
0.359851
0.372974
0.383842
0.392137
0.398405
0.404328
0.411511
0.422506
0.443263
0.481479
0.545296
0.640529
0.762296
0.907298
1.06353
1.20864
1.33179
1.42783
1.51337
1.57071
1.56674
1.26125
0.320134
0.112255
0.181745
0.237172
0.273283
0.298919
0.319438
0.336646
0.351349
0.36454
0.375413
0.38423
0.391765
0.400161
0.410665
0.42538
0.451096
0.495389
0.566318
0.668268
0.7988
0.95601
1.12542
1.28157
1.41563
1.51753
1.60487
1.66627
1.66969
1.4013
0.343638
0.111012
0.177508
0.232166
0.26796
0.293229
0.313164
0.329679
0.344471
0.357348
0.368436
0.377768
0.386822
0.397529
0.411149
0.430211
0.46228
0.514691
0.595046
0.706591
0.847455
1.0143
1.19468
1.36252
1.50679
1.61937
1.71345
1.78018
1.78079
1.49364
0.366352
0.110052
0.174081
0.227876
0.263369
0.288449
0.308048
0.324194
0.33844
0.350862
0.362228
0.372653
0.383257
0.396004
0.412916
0.437459
0.476914
0.538934
0.63053
0.752959
0.90359
1.07772
1.26612
1.44138
1.59323
1.71685
1.8208
1.89943
1.9015
1.58279
0.378413
0.10907
0.170849
0.223951
0.259282
0.284306
0.303857
0.319908
0.333484
0.345807
0.357465
0.368527
0.38053
0.395363
0.416553
0.447079
0.494189
0.566385
0.66955
0.802823
0.960988
1.13929
1.32931
1.50895
1.66905
1.80451
1.92427
2.02159
2.03063
1.68384
0.388887
0.108277
0.168075
0.220559
0.255747
0.280743
0.300372
0.316365
0.329892
0.341878
0.353808
0.365588
0.379061
0.396404
0.421085
0.457768
0.513821
0.596751
0.711101
0.853962
1.01781
1.19568
1.38389
1.5639
1.73015
1.88096
2.01993
2.14064
2.1623
1.78963
0.401485
0.107542
0.165571
0.217457
0.252568
0.277541
0.297222
0.313338
0.3271
0.339011
0.351016
0.363819
0.37893
0.39883
0.427285
0.470106
0.535157
0.62888
0.753755
0.904828
1.07122
1.24674
1.43257
1.61239
1.7834
1.94826
2.10805
2.25605
2.29258
1.89766
0.413679
0.106897
0.163243
0.214551
0.249663
0.274637
0.29446
0.310854
0.324551
0.336915
0.349155
0.362927
0.379933
0.402579
0.435217
0.484705
0.558823
0.663307
0.798048
0.954492
1.1216
1.29496
1.47792
1.65934
1.83422
2.01023
2.19108
2.36522
2.41836
2.00228
0.426167
0.106302
0.160917
0.211602
0.246848
0.271963
0.292076
0.308765
0.322666
0.335338
0.348124
0.362972
0.382004
0.407732
0.445023
0.501732
0.585974
0.701347
0.844445
1.00492
1.17222
1.34388
1.5239
1.7085
1.8878
2.07359
2.27352
2.47446
2.53728
2.1023
0.436736
0.105793
0.158651
0.208727
0.244106
0.269549
0.289914
0.306639
0.320938
0.334156
0.347791
0.364038
0.385143
0.414409
0.457329
0.522484
0.617685
0.744036
0.894697
1.05882
1.22673
1.3962
1.57355
1.76281
1.94705
2.14117
2.35931
2.58523
2.65631
2.19418
0.445184
0.105446
0.156746
0.206228
0.241731
0.267557
0.288144
0.30496
0.319614
0.333505
0.348419
0.366426
0.389887
0.423205
0.473026
0.548333
0.655475
0.792793
0.950749
1.11799
1.28667
1.45434
1.62972
1.82463
2.01245
2.21578
2.44951
2.69571
2.77464
2.28056
0.453609
0.105154
0.155084
0.204099
0.239709
0.265861
0.286875
0.303972
0.319255
0.333947
0.350458
0.37037
0.396914
0.435371
0.493781
0.581039
0.701209
0.849433
1.01474
1.18477
1.35423
1.5219
1.69419
1.89065
2.08585
2.29912
2.54576
2.80618
2.89036
2.36664
0.462198
0.104916
0.153469
0.202088
0.237853
0.264327
0.285664
0.302969
0.319127
0.335161
0.353515
0.37623
0.406679
0.452379
0.521869
0.623395
0.757528
0.916559
1.08803
1.26131
1.4318
1.59944
1.76898
1.96376
2.17038
2.39153
2.64727
2.91628
3.00142
2.45399
0.471659
0.104752
0.151839
0.200095
0.236
0.262676
0.283863
0.30181
0.318736
0.336654
0.357039
0.38346
0.419983
0.475662
0.559743
0.677956
0.82674
0.995905
1.17296
1.34917
1.52029
1.68612
1.85572
2.04749
2.26487
2.49276
2.75383
3.02455
3.1072
2.53964
0.480019
0.104702
0.15021
0.198018
0.234057
0.260965
0.282278
0.300784
0.3186
0.338353
0.361525
0.392737
0.438385
0.507513
0.609721
0.746454
0.909969
1.08833
1.27034
1.44814
1.61923
1.78354
1.95178
2.14315
2.3655
2.59984
2.86252
3.12731
3.20287
2.61853
0.486932
0.104553
0.148689
0.196113
0.232187
0.25928
0.281145
0.3005
0.319453
0.341065
0.367849
0.405759
0.46383
0.551808
0.674172
0.829846
1.00723
1.19337
1.37955
1.55777
1.72802
1.89062
2.05738
2.24816
2.47342
2.71255
2.97119
3.22499
3.28764
2.68867
0.493097
0.104401
0.147118
0.194492
0.23091
0.258114
0.280688
0.300992
0.321762
0.345831
0.377948
0.424694
0.499348
0.609646
0.755588
0.929062
1.11874
1.31107
1.49944
1.67739
1.84604
2.00698
2.17149
2.36035
2.58986
2.82888
3.07649
3.31472
3.36129
2.74913
0.497843
0.104403
0.146092
0.192964
0.230364
0.2583
0.280916
0.30252
0.325221
0.353232
0.392284
0.452721
0.547669
0.683299
0.853248
1.04363
1.24343
1.44106
1.63019
1.80785
1.97507
2.1345
2.29574
2.48075
2.71173
2.94926
3.177
3.39113
3.41597
2.78779
0.506576
0.104615
0.145774
0.192233
0.229831
0.258549
0.28236
0.305343
0.330061
0.363476
0.41281
0.491257
0.611722
0.773424
0.966067
1.17164
1.38014
1.5822
1.7721
1.94873
2.11535
2.27338
2.43131
2.61122
2.83919
3.06944
3.26926
3.45157
3.44878
2.81001
0.509226
0.104822
0.145765
0.192045
0.229697
0.25919
0.284054
0.308589
0.336742
0.377534
0.441568
0.543233
0.692979
0.881139
1.09308
1.31228
1.52846
1.73398
1.92556
2.10146
2.26687
2.42381
2.57933
2.75392
2.97171
3.18461
3.3495
3.48844
3.44728
2.80396
0.514604
0.104986
0.14543
0.191893
0.229524
0.259449
0.285628
0.312211
0.346216
0.397714
0.481441
0.610674
0.788843
1.00225
1.23253
1.4642
1.68838
1.89839
2.09194
2.26706
2.43086
2.58629
2.73979
2.90753
3.10835
3.29417
3.41687
3.49628
3.40744
2.77601
0.51672
0.105265
0.144733
0.191469
0.22933
0.260053
0.287664
0.317869
0.360359
0.426987
0.53585
0.694985
0.899988
1.13258
1.37691
1.62084
1.85518
2.07289
2.26884
2.4438
2.60611
2.76077
2.91136
3.06953
3.24735
3.3979
3.46598
3.46409
3.3121
2.70171
0.52078
0.105502
0.143685
0.190858
0.229416
0.261211
0.291222
0.326688
0.380336
0.468276
0.607358
0.797727
1.02677
1.27488
1.52918
1.78158
2.02188
2.24493
2.44575
2.62636
2.79012
2.94599
3.0928
3.23834
3.38739
3.49154
3.48863
3.36827
3.1266
2.53271
0.519709
0.105712
0.142956
0.190124
0.229546
0.262781
0.296183
0.33924
0.408769
0.523705
0.696486
0.917273
1.16773
1.43032
1.69383
1.9512
2.19213
2.41358
2.62253
2.81378
2.98512
3.14029
3.28115
3.41042
3.52418
3.57054
3.4708
3.18141
2.73336
2.03897
0.50706
0.299121
0.289342
0.279843
0.27231
0.267205
0.265819
0.268214
0.274385
0.284288
0.297842
0.314914
0.335262
0.358138
0.382683
0.407952
0.433132
0.457643
0.481159
0.503533
0.524604
0.544387
0.562827
0.579998
0.595815
0.610131
0.623122
0.635013
0.645817
0.655651
0.664497
0.672346
0.679216
0.68515
0.690172
0.69429
0.697499
0.699758
0.701047
0.701371
0.700711
0.699089
0.696444
0.692735
0.687935
0.682035
0.675045
0.666805
0.657283
0.646925
0.635844
0.623743
0.610641
0.596738
0.582093
0.566737
0.550735
0.534204
0.517283
0.500072
0.482667
0.465162
0.447633
0.430134
0.412663
0.39519
0.377699
0.360193
0.342696
0.325251
0.307914
0.29075
0.273838
0.257254
0.241076
0.22539
0.210291
0.195892
0.182304
0.169634
0.157982
0.147437
0.138058
0.129867
0.122848
0.116953
0.1121
0.108184
0.105082
0.102667
0.10082
0.0994287
0.0984024
0.097664
0.0971514
0.0968249
0.0966471
0.0965806
0.09661
0.0967294
0.0969535
0.097272
0.0976444
0.0980667
0.0985602
0.0990798
0.0996003
0.100134
0.100686
0.10128
0.101898
0.102488
0.10298
0.103351
0.103786
0.104336
0.104887
0.105513
0.105842
0.106064
0.106199
0.106303
0.106369
0.106314
0.106133
0.105977
2.50032
2.49567
2.47153
2.46193
2.47517
2.53993
2.64463
2.7919
2.98009
3.20777
3.465
3.74103
4.03038
4.32552
4.61875
4.90226
5.17014
5.419
5.64709
5.85374
6.03881
6.20339
6.34839
6.47356
6.58001
6.67301
6.75379
6.82215
6.87943
6.92666
6.96476
6.99444
7.01627
7.03077
7.03828
7.03903
7.03317
7.02084
7.00091
6.97518
6.94319
6.9049
6.86027
6.80918
6.75148
6.68743
6.61656
6.53626
6.44074
6.32915
6.2051
6.07084
5.92775
5.7789
5.6246
5.46449
5.30076
5.13578
4.96933
4.80167
4.6335
4.46571
4.29884
4.13293
3.96743
3.80227
3.63779
3.47424
3.31182
3.1499
2.98833
2.82694
2.66516
2.50236
2.33809
2.17239
2.00557
1.83856
1.67293
1.51084
1.35474
1.20676
1.06852
0.941309
0.826162
0.72352
0.633324
0.555136
0.488125
0.431277
0.383374
0.343255
0.309762
0.281891
0.258729
0.239505
0.223444
0.209987
0.198763
0.189402
0.181542
0.174991
0.169552
0.165034
0.161139
0.157777
0.155054
0.152803
0.151237
0.150128
0.149129
0.147652
0.146004
0.144994
0.144326
0.144172
0.143795
0.143291
0.142883
0.142674
0.142859
0.143152
0.143133
0.142874
0.142734
4.74744
4.7318
4.69707
4.68385
4.7191
4.816
4.9724
5.19013
5.46781
5.80117
6.18164
6.59655
7.03175
7.47621
7.91751
8.34599
8.75324
9.13263
9.48052
9.79508
10.0758
10.3232
10.5379
10.7214
10.8789
11.0136
11.1263
11.2191
11.2943
11.3534
11.3977
11.4283
11.4461
11.4518
11.4461
11.4296
11.4026
11.3652
11.3178
11.2606
11.1939
11.1177
11.0319
10.9362
10.8306
10.7142
10.588
10.4504
10.3002
10.1373
9.96201
9.77505
9.57698
9.36587
9.14404
8.91317
8.67452
8.43306
8.18865
7.94175
7.69308
7.4434
7.19341
6.94242
6.68967
6.43513
6.17922
5.92252
5.66488
5.40658
5.14741
4.88787
4.62846
4.36959
4.11224
3.85753
3.60685
3.36152
3.12288
2.89205
2.67019
2.45799
2.25591
2.06383
1.88171
1.70929
1.54719
1.39552
1.25457
1.12452
1.00536
0.897152
0.799791
0.713153
0.636783
0.570221
0.51257
0.463106
0.420945
0.385282
0.355144
0.329911
0.308585
0.290621
0.275283
0.262189
0.251476
0.242751
0.236139
0.230468
0.224532
0.218693
0.213481
0.209624
0.207086
0.204545
0.201974
0.199609
0.19762
0.195945
0.194632
0.193375
0.19197
0.190651
0.189981
6.66275
6.64664
6.62778
6.64475
6.71959
6.86162
7.07327
7.35485
7.70275
8.1094
8.56342
9.05074
9.55418
10.0589
10.5539
11.0288
11.476
11.8899
12.2668
12.6048
12.9038
13.164
13.3874
13.5776
13.7381
13.8715
13.9802
14.067
14.1343
14.1836
14.2165
14.2342
14.238
14.2287
14.2071
14.1739
14.1297
14.0747
14.0093
13.934
13.8489
13.7539
13.6491
13.5345
13.4099
13.2753
13.1308
12.9763
12.8115
12.6364
12.4509
12.2547
12.0503
11.8369
11.6145
11.3835
11.1447
10.8975
10.6438
10.3846
10.1201
9.85074
9.57788
9.30029
9.01727
8.72859
8.43543
8.13842
7.83713
7.53109
7.22151
6.90962
6.59634
6.28241
5.96855
5.6561
5.3465
5.04107
4.74092
4.44758
4.16266
3.88703
3.62156
3.36695
3.12383
2.89248
2.6731
2.46578
2.2706
2.08694
1.91426
1.75184
1.59918
1.45614
1.32268
1.1989
1.08443
0.979382
0.883823
0.798148
0.72177
0.654983
0.596385
0.544916
0.499913
0.460169
0.42651
0.398373
0.375431
0.355089
0.334989
0.316487
0.300504
0.287856
0.278608
0.269125
0.261173