/*--------------------------------*- C++ -*----------------------------------*\
| =========                 |                                                 |
| \\      /  F ield         | OpenFOAM: The Open Source CFD Toolbox           |
|  \\    /   O peration     | Version:  2112                                  |
|   \\  /    A nd           | Website:  www.openfoam.com                      |
|    \\/     M anipulation  |                                                 |
\*---------------------------------------------------------------------------*/
FoamFile
{
    version     2.0;
    format      ascii;
    arch        "LSB;label=32;scalar=64";
    class       volScalarField;
    location    "0.00689";
    object      k;
}
// * * * * * * * * * * * * * * * * * * * * * * * * * * * * * * * * * * * * * //

dimensions      [0 2 -2 0 0 0 0];

internalField   nonuniform List<scalar> 
13875
(
812.1
3462.64
3540.5
3539.33
3541.74
3539.66
3540.85
3539.67
3540.68
3542.76
3541.8
3540.81
3540.38
3540.09
3540.42
3541.2
3541.92
3541.17
3540.77
3540.24
3541.16
3539.02
3539.99
3461.96
820.443
881.797
2936.64
3013.13
3000.66
3001.29
2999.13
2997.26
2996.08
2995.84
2996.81
2996.27
2998.04
2996.3
2996.35
2996.17
2998.5
2996.24
2997.1
2996.98
2998.6
3000.45
2999.29
3011.6
2935.01
894.34
993.358
2710.85
2777.52
2755.31
2758.87
2755.78
2746.64
2743.03
2742.05
2741.79
2740.23
2743.77
2751.21
2752.18
2750.87
2744.66
2741.23
2742.7
2745.32
2755.09
2757.67
2753.16
2774.52
2707.31
998.14
1091.05
2533.67
2581
2561.46
2566.68
2563.27
2552.83
2548.58
2548.24
2547.79
2545.67
2547.67
2559.13
2560.03
2558.84
2548.68
2547.35
2547.55
2551.17
2562.92
2565.5
2559.39
2579.17
2529.75
1093.72
1172.09
2380.43
2413.13
2392.79
2397.92
2394.57
2383.49
2380.29
2380.12
2379.41
2377.6
2378.81
2390.15
2391.38
2389.89
2379.76
2379.21
2379.03
2382.35
2393.91
2396.79
2391.16
2410.51
2375.46
1177.25
1240.99
2237.07
2270.86
2244.76
2251.08
2246.08
2233.9
2231.48
2231.33
2230.35
2228.93
2229.34
2240.73
2242.26
2240.51
2230.22
2230.5
2229.9
2233.09
2245.7
2249.95
2243.73
2267.92
2247.1
1247.24
1320.97
2121.76
2158.19
2120.13
2122.98
2116.02
2101.76
2099.55
2099.3
2097.83
2096.86
2096.49
2108.02
2109.68
2107.56
2097.26
2098.57
2097.67
2101.55
2115.51
2121.69
2119.76
2154.09
2095.51
1323.46
1409.77
2000.68
2073.4
2019.29
2016.05
2003.15
1985.86
1982.73
1981.97
1979.94
1979.51
1978.14
1989.94
1991.95
1989.48
1978.85
1981.46
1980.53
1985.45
2002.19
2013.95
2017.97
2068.3
1992.75
1420.41
1691.46
2029.39
2021.78
1944.17
1924.64
1905.46
1883.72
1879.86
1878.64
1875.9
1876.03
1873.74
1885.77
1888.17
1885.5
1874.72
1878.16
1877.22
1883.39
1903.89
1922.41
1942.2
2017.84
2033.57
1716.69
2509.24
2285.29
2017.75
1900.63
1858.7
1826.86
1802.56
1797.56
1795.42
1792.26
1792.64
1789.99
1801.58
1804.35
1801.74
1792.14
1795.1
1795.22
1801.46
1824.79
1855.62
1891.57
2011.26
2266
2529.48
3876.91
3026
2153.52
1915.93
1815.38
1773.18
1746.27
1737.1
1732.77
1729.1
1729.37
1726.69
1737.26
1740.39
1738.58
1731.46
1733.62
1735.49
1745.24
1768.54
1813.36
1907.23
2129.6
2936.58
3858.47
5184.68
6451.46
2852.54
1993.71
1854.71
1758.25
1714.73
1699.44
1691.36
1686.92
1686.61
1684.3
1692.92
1696.43
1695.96
1691.7
1693.79
1698.8
1712.78
1758.16
1847.06
1972.34
2786.82
6316.22
5119.73
5055.77
7611.45
7053.74
3343.82
2045.23
1799.82
1744.93
1704.23
1686.75
1678.5
1676.04
1673.5
1679.58
1683.31
1684.91
1684.95
1691.71
1708.04
1747.91
1804.71
2088.56
3227.17
6755.87
7649.62
5009.36
4824.49
6349.71
7178.66
8773.76
5182.12
2336.44
1905.59
1788.72
1752.04
1747.14
1745.52
1743.46
1748.36
1751.77
1754.69
1757.14
1761.77
1795.88
1942.13
2482.93
5624.39
8151.94
6963.23
6332.25
4831.81
4602.48
5510.11
6046.33
7017.27
6856.08
6744.39
3438.26
2397.14
2148.99
2050.75
2010.67
1996.23
1996.59
2001.18
2012.93
2045.31
2136.21
2397.2
3601.06
6907.68
6829.8
6709.89
5974.67
5491.55
4681.62
4294.78
4802
5126.78
5917.44
6092.3
6594.74
5601.02
5147.6
4953.64
4301.34
4357.47
4412.32
4457.03
4443.21
4377.63
4278.94
4870.17
5398.98
5678.87
6668.72
6008.14
5719.02
5085.87
4786.56
4368.19
3737.86
4054.65
4364.8
5116.86
5650.51
6579.64
7491.27
7876.96
6883.87
6288.55
6573.85
6811.61
6954.69
6894.57
6655.52
6570.83
6878.13
7827.78
7559.15
6593.9
5503.73
4925.16
4250.25
3977.37
3729.59
3072.48
3416.06
3986.56
4909.79
5588.77
6194.8
7320.28
8083.34
6486.7
5391.64
5239.01
5289.94
5370.74
5330.39
5299.58
5682.81
6490.2
7738.27
7314.67
6312.89
5583.1
4835.87
3904.66
3360.31
3037.47
2635.41
3172.91
3916.08
5276.62
6081.8
5748.56
6181.29
6964.77
6116.44
5095.64
4688.07
4591.02
4593.87
4646.52
4783.72
5217.92
5942.23
6664.72
6207.08
5896.79
6323.05
5291.18
3902.41
3161.83
2638.52
2514.21
3369.82
4164.71
5460.37
5810.63
5247.77
5288.04
5870.69
5624.05
4909.62
4390.54
4105.35
4017.12
4183.41
4522.25
4973.69
5411.25
5622.96
5312.72
5413.61
5996.89
5371.35
4171.62
3397.49
2507.87
4705.52
6885.64
5678.97
4887.81
5017.85
4619.58
4607.69
5101.12
5119.07
4599.47
4048.47
3660.56
3533.81
3773.55
4210.34
4646.5
4911.15
4898.31
4631.39
4761.65
5169.56
4874.2
5870.92
6854.31
4961.01
11035.6
20433.9
6923.57
4243.89
4328.61
4076.76
4085.73
4512.7
4633.01
4232.18
3688.99
3259.89
3117.04
3379.52
3845.16
4256.35
4434.92
4354.66
4099.32
4184.12
4426.87
4271.66
7364.57
20971.8
11416.5
12281.3
15445.5
6135.65
3768.69
3792.92
3640.21
3648.7
4031.07
4180.39
3843.15
3330.98
2907.06
2757.35
3010.45
3465.2
3851.46
3991.54
3901.65
3652.8
3710.73
3850.89
3801.48
6266.08
15201.9
12231
11685.4
14990.8
5208.82
3413.4
3362
3260.23
3270.76
3609
3766.15
3462.09
2982.54
2586.9
2453
2689.25
3117.02
3478.9
3595.97
3495.88
3280.46
3321.3
3414.89
3471
5368.85
15357.6
11653.5
11278.4
14436.2
4638.4
3150.33
3031.07
2940.88
2961.69
3251.34
3393.39
3119.54
2682.44
2318.16
2197.26
2412.59
2810.11
3142.23
3245.05
3148.61
2966.39
2995.11
3086.85
3217.81
4849.58
15232.4
11304.6
10966.1
14523.1
4251.09
2914.78
2764.56
2671.71
2707.53
2947.24
3064.54
2816.76
2422.95
2090.46
1980.41
2173.27
2532.83
2834.78
2931.22
2848.62
2698.7
2708.34
2813.94
2971.45
4397.29
14921.2
11104
10828.1
13736.6
3862.73
2699.8
2543.91
2444.35
2491.08
2683.03
2763.45
2537.09
2189.29
1894.31
1796.82
1973.15
2298.83
2569.37
2662.36
2596.9
2473.31
2476.33
2598.19
2765.2
4019.44
14262.6
10960.6
10689.1
13330.3
3611.61
2523.97
2367.41
2261
2306.81
2457.96
2508.61
2300.86
1992.52
1728.33
1639.53
1798.13
2088.21
2331.2
2423.59
2378.45
2282.26
2282.21
2412.81
2580.51
3743.62
13965.4
10822.5
10474.8
13185
3436.86
2372.2
2217.15
2113.59
2147.5
2261.44
2285.04
2095.66
1823.68
1586.33
1504.42
1645.79
1902.1
2117.95
2211.46
2187.02
2115.64
2119.82
2247.64
2414.05
3505.26
13193.3
10711.6
10255.6
12551.8
3287.34
2242.3
2077.44
1988.84
2011.65
2086.6
2082.87
1907.48
1668.48
1460.41
1387.4
1517.78
1747.89
1940.71
2031.64
2023.43
1975.24
1987.17
2103.25
2276.66
3364.07
12841.2
10481
9944.79
11680
3161.8
2138.58
1960.92
1878.07
1892.39
1936.06
1911.78
1750.76
1539.34
1353.26
1286.01
1403.3
1607.28
1778.92
1869.94
1879.13
1854.52
1870.01
1976
2161.4
3211.86
12006.3
10189.6
9665.46
11156.2
3067.06
2063.52
1854.79
1776.08
1786.19
1805.68
1766.6
1616.73
1427.07
1259.83
1197.47
1303.04
1485.16
1640.55
1730.34
1753.32
1747.35
1762.96
1861.63
2075.79
3086.35
11215.6
9914.53
9434.11
10292.8
2971.95
2006.73
1763.9
1685.9
1686.92
1686.59
1632.4
1493.63
1325.4
1176.62
1120.19
1217.72
1382.18
1521.6
1609.47
1643.64
1650
1669.43
1764.71
2011.09
3013.33
10553.4
9659.25
9198.52
9601.69
2876.52
1968.2
1692.09
1606.29
1593.9
1582.5
1519.66
1390.72
1238.39
1104.14
1051.75
1140.25
1288.43
1415.76
1500.63
1544.64
1558.6
1585.22
1684.62
1963.36
2941.75
9783.09
9402.22
8980
9127.09
2763.73
1941.09
1645.38
1532.83
1510.49
1488.62
1419.89
1299.58
1162.25
1040.17
991.643
1072.34
1206.1
1322.1
1404.87
1454.82
1475.06
1512.4
1628.54
1934.8
2836.19
9194.06
9152.46
8751.06
8585.17
2650.94
1917.62
1614.22
1469.43
1433.03
1400.37
1330.29
1217.53
1092
982.05
937.757
1012.93
1135.76
1242.47
1321.76
1373.41
1400.81
1447.26
1593.04
1917.2
2732.7
8875.93
8914.36
8534.69
8211.22
2553.06
1926.63
1598.39
1417.66
1365.72
1322.68
1250.48
1146.22
1032.02
931.155
889.974
958.667
1070.65
1168.99
1244.38
1298.67
1334.13
1391.39
1571.95
1918.48
2620.07
8392.51
8658.71
8320.92
8003.31
2461.16
1923.82
1595.83
1380.95
1304.49
1252.29
1179.95
1083.51
978.374
885.254
846.836
909.917
1013.11
1104.28
1174.89
1231.18
1273.69
1352.15
1568.03
1932.96
2511.04
8015.09
8442.9
8105.68
7639.25
2350.27
1881.56
1608.68
1357.98
1252.91
1188.91
1114.47
1024.68
928.836
843.463
808.234
867.369
962.579
1046.66
1113.24
1172
1222.79
1325.91
1584.96
1920.05
2398.07
7730.89
8244.92
7916.04
7400.68
2241.03
1831.22
1641
1347.15
1212.1
1134.39
1058.64
974.01
885.088
805.667
772.982
827.468
915.463
994.097
1057.42
1119.32
1182.5
1313.64
1605.52
1860.3
2278.7
7420.35
8044.47
7763.61
7234.33
2150.42
1773.02
1680.26
1352.88
1183.33
1089.84
1009.31
928.23
845.639
771.401
741.1
791.559
872.667
946.516
1007.98
1075.42
1155.27
1313.83
1669.62
1801.25
2177.47
7253.21
7842.46
7613.27
7045.26
2060.97
1698.45
1668.31
1370.6
1162.85
1056.38
966.946
886.22
808.631
739.579
711.71
759.153
835.234
905.421
966.949
1042.31
1135.37
1334.09
1693.98
1739.56
2157.56
7104.82
7668.21
7468.46
6902.54
1987.72
1624.51
1622.12
1424.66
1154.52
1031.91
933.665
850.486
776.221
711.078
684.917
728.922
799.959
867.772
932.579
1017.6
1124.64
1371.96
1654.87
1660.8
2078.93
6925.5
7508.88
7348.62
6755.04
2012.11
1559.5
1560.11
1468.51
1167.1
1013.68
910.055
821.021
747.38
684.956
660.125
701.274
768.558
835.858
906.873
1000.34
1135.91
1454.67
1594.45
1587.2
2034.24
6753.55
7377.24
7224.05
6613.38
1952.72
1495.65
1488.32
1458.2
1205.31
1004.37
889.665
797.619
722.251
661.421
637.785
677.203
742.254
811.182
886.889
992.44
1189.07
1487.47
1524.68
1530.28
2046.99
6607.86
7270.4
7103.14
6451.02
1979.82
1447.4
1417.1
1409.35
1288.15
1018.59
876.716
781.465
703.594
641.905
618.248
656.388
721.65
792.895
872.042
1004.19
1278.66
1438.79
1453.18
1473.61
2012.46
6472.17
7162.16
6983.41
6301.64
2026.3
1413.74
1356.9
1355.09
1317.79
1079.44
873.064
767.021
689.76
627.522
601.634
640.864
706.221
777.672
864.689
1065.93
1320.46
1380.51
1389.7
1430.84
2010.08
6329.77
7039.94
6796.21
6121.65
2011.82
1379.39
1305.36
1298.75
1276.78
1170.16
897.393
756.2
677.865
616.483
589.352
629.461
693.619
766.465
888.023
1168.13
1280.77
1318.76
1335.66
1405.61
2054.92
6137.57
6843.74
6550.13
5892.78
2013.32
1356.02
1261.35
1243.93
1231.86
1206.67
975.067
758.957
668.674
607.448
580.697
619.888
682.753
764.059
953.306
1220.2
1236.28
1258.27
1287.15
1379.63
2033.02
5902.04
6589.67
5978.46
5494.21
1992.36
1334.52
1223.77
1195.86
1182.77
1169.93
1063.73
797.799
666.613
599.694
573.067
611.482
678.318
791.961
1059.23
1186.75
1188.3
1206.16
1244.69
1353.28
1990
5491.36
6015.57
1057.68
2343.1
3805.28
4138.32
3718.76
3208.27
2850.73
2709.75
2734.92
2755.28
2599.35
2065.89
1528.42
1167.43
976.12
891.85
865.713
868.581
884.728
909.032
939.238
973.872
1013.28
1056.38
1100.03
1134.82
1145.55
1128.73
1073.97
685.08
1185.48
2784.56
4062.32
4126.15
3560.7
3033.86
2686.86
2535.49
2549.13
2585.9
2528.33
2155.63
1599.57
1203.95
985.298
885.614
850.745
848.757
862.878
885.356
914.043
947.526
986.221
1030.85
1077.37
1125.4
1177.47
1290.13
1440.62
783.909
1324.53
3221.79
4304.82
4068.77
3389.39
2863.63
2541.41
2407.99
2427.9
2454.48
2388.89
2030
1526.53
1172.5
967.411
869.222
831.635
826.909
839.123
859.98
887.002
918.835
955.652
998.331
1048.87
1116.02
1246.66
1554.62
1586.51
831.51
1518.1
3631.56
4475.34
3984.83
3233.58
2701.4
2378.44
2267.28
2308.22
2338.26
2279.6
1974.1
1513.57
1167.88
957.139
853.581
812.103
804.772
815.361
835.272
860.983
891.097
926.769
970.203
1029.21
1135.23
1409.58
1749.13
1601.52
849.817
1730.49
3965.02
4584.92
3869.3
3072.26
2530.23
2217.23
2142.08
2208.69
2229.98
2166.51
1872.68
1459.72
1135.07
935.17
834.134
791.504
782.81
792.209
811.42
836.014
866.175
901.579
948.497
1025.56
1214.96
1660.16
1733.64
1537.98
852.24
1975.06
4281.15
4616.21
3706.21
2877.77
2348.6
2073.94
2029.55
2126.18
2138.5
2056.06
1776.31
1409.81
1098.02
908.606
813.511
771.482
762.544
771.188
789.801
814.861
845.009
881.564
937.307
1057.95
1389.87
1721.05
1627.49
1447.16
854.336
2212.6
4605.58
4616.62
3531.57
2676.53
2196.03
1976.24
1950.62
2049.84
2059.58
1963.42
1695.21
1347.65
1051.95
877.149
790.404
752.114
744.158
753.174
772.519
797.955
828.393
869.44
944.458
1154.8
1571.06
1641.36
1513.9
1366.88
859.06
2464.55
4927.07
4580.61
3360.35
2511.63
2081.79
1903.41
1902.92
1997.52
2006.71
1903.33
1615.07
1272.84
999.964
846.087
768.343
735.288
729.615
739.77
759.896
785.689
817.563
868.404
987.519
1322.02
1561.28
1529.67
1423.26
1307.16
861.692
2713.38
5205.88
4519.13
3196.7
2389.28
2010.84
1864.39
1863.25
1958.09
1971.95
1862.08
1532.93
1189.91
942.437
815.584
749.974
723.065
720.183
731.945
752.737
779.175
816.133
886.149
1085.12
1441.88
1482.52
1433.48
1359.17
1253.96
861.431
2966.86
5423.41
4428.24
3067.69
2320.39
1972.61
1822.05
1806.58
1902.8
1926.8
1786.37
1441.68
1096.87
889.613
789.63
737.596
717.295
717.323
730.704
751.786
779.712
826.036
937.826
1238.11
1428.02
1401.13
1364.3
1307.47
1204.25
853.706
3230.74
5572.14
4343.57
3003.79
2292.55
1939.52
1769.41
1737.02
1818.7
1821.59
1644.57
1317.19
1005.83
849.874
773.803
733.941
719.663
722.373
736.461
757.626
789.491
854.119
1039.02
1335.16
1374.94
1335.97
1311.96
1258.75
1149.9
836.014
3492.83
5698.35
4309.66
2988.16
2286.48
1917.16
1723.13
1658.18
1689.27
1644.15
1448.98
1178.63
939.613
828.743
772.125
740.921
731.018
735.265
748.999
770.702
810.016
914.948
1188.52
1326.63
1323.23
1282.65
1265.65
1203.33
1088
812.31
3731.09
5849.08
4337.39
3008.79
2309.92
1922.2
1701.33
1591.19
1553.5
1461.41
1273.59
1078.78
913.101
829.76
786.347
759.263
751.667
755.547
767.39
791.185
849.956
1025.08
1264.83
1286.81
1275.46
1233.67
1212.83
1141.97
1025.31
790.825
3954.91
6030.81
4417.05
3077.06
2378.83
1966.16
1708.67
1555.52
1461.56
1336.16
1173.24
1042.05
923.548
850.835
812.569
787.87
780.548
782.223
792.104
823.578
930.494
1180.14
1253.13
1244.08
1226.86
1186.49
1157.87
1084.5
973.225
773.973
4168.83
6251.61
4548.2
3196.2
2490.53
2062.59
1780.89
1578.36
1434.8
1296.58
1166.98
1065.3
964.744
895.004
851.142
827.694
817.85
816.14
827.865
886.608
1076.01
1220.69
1218.23
1202.19
1177.75
1141.84
1108.08
1035.05
930.802
759.739
4388.93
6522.23
4737.21
3374.35
2660.23
2226.49
1936.94
1705.43
1528.08
1383.04
1261.52
1155.31
1050.79
974.022
912.558
886.055
869.015
865.348
892.913
1014.23
1194.15
1206.47
1183.67
1162.37
1135.3
1103.6
1065.46
994.005
895.793
747.797
4629.99
6851.42
4999.48
3622.42
2897.24
2464.55
2183.91
1943.03
1749.58
1597.37
1457.39
1331.82
1208.79
1112.11
1021.37
981.187
951.857
956.133
1028.26
1185.25
1216.93
1184.15
1153.11
1126.78
1101.46
1071.66
1029.47
960.995
866.826
736.031
4877.49
7252.08
5353.97
3954.41
3214.52
2789.9
2532.02
2297.95
2107.86
1942.32
1788.04
1644.1
1500.01
1371.85
1236.82
1160.37
1116.96
1146.2
1231.56
1250.63
1216.08
1166.58
1122.81
1096.57
1075.55
1045.11
999.166
935.045
841.982
724.689
5122.05
7735.5
5820.96
4381.62
3620.25
3212.3
2991.06
2793.26
2636.05
2483.19
2346.19
2216.24
2061.06
1886.85
1684.74
1535.43
1445.52
1396.47
1346.26
1284.38
1214.33
1150.59
1104.84
1074.35
1055.76
1022.29
974.307
913.459
819.578
713.038
5399.77
8308.31
6378.42
4901.72
4120.17
3736.31
3553.04
3443.28
3362.79
3305.33
3279.33
3234.56
3080.85
2832.38
2502.33
2123.58
1819.74
1599.97
1436.63
1312.42
1210.99
1131.37
1090.29
1059.25
1039.01
1001.86
954.171
894.414
798.096
702.591
5834.51
8805.06
7006.56
5512.44
4715.99
4348.95
4206.87
4233.07
4318.01
4513.34
4697.93
4679.84
4477.43
4075.42
3486.81
2810.36
2232.99
1809.72
1527.37
1338.16
1201.79
1119.44
1079.26
1048.59
1023.14
982.433
936.129
876.301
777.119
693.984
6172.28
9497.85
7687.14
6224.72
5427.46
5054.31
4963.85
5150.24
5533.41
6020.07
6220.52
6228.07
6000.47
5445
4587.19
3591.54
2697.24
2041.08
1616.71
1359.52
1204.43
1117.88
1072.9
1038.21
1005.55
963.694
917.823
857.421
756.453
686.646
6508.74
9971.08
8319.87
7082.93
6308.48
5916.5
5886.07
6255.26
6943.38
7449.35
7716.31
7755.82
7500.42
6793.75
5686.14
4398.11
3191.65
2277.35
1725.3
1403.91
1221.94
1122.44
1068.34
1024.86
986.893
944.791
896.875
838.005
736.325
679.242
6778.85
10652.8
9222.87
8257.34
7502.82
7073.02
7090.66
7625.4
8311.46
8837.52
9141.08
9165.18
8826.99
7951.69
6644.86
5134.52
3680.14
2570.59
1865.95
1464.31
1246.71
1129.21
1062.42
1008.23
968.102
925.444
880.761
817.677
715.976
670.446
6790.11
11714.6
10930.2
10202.7
9245.07
8689.22
8688.53
9309.52
9814.03
10274
10518.5
10463.6
9965.14
8886.91
7414
5777.73
4183.24
2893.16
2033.58
1539.17
1276.35
1135.29
1051.28
990.788
948.885
906.354
864.303
796.152
695.475
661.157
684.253
1058.7
1118.97
1137.16
1127.19
1094.62
1053.61
1011.48
972.277
937.794
908.323
884.351
868.191
866.887
897.281
990.517
1199.29
1586.35
2150.84
2663.98
2803.41
2772.81
2748.09
2902.73
3268.28
3796.98
4239.43
3912.73
2424.4
1080.58
794.153
1429.99
1268.14
1166.92
1118.21
1071.66
1026.86
984.332
946.512
913.029
885.079
862.582
849.047
852.797
893.227
1002.68
1238.37
1659.43
2232.69
2574.96
2625.01
2584.3
2570.23
2733.8
3089.28
3636.86
4224.86
4167.81
2867.86
1216.44
845.864
1604.4
1524.52
1229.53
1108.73
1043.72
994.168
953.297
917.192
886.043
859.628
839.253
827.931
834.524
877.867
985.691
1205.26
1581.04
2105.42
2433.55
2491.78
2458.22
2439.97
2584
2920.45
3466.24
4177.5
4416.39
3312.25
1359.58
866.015
1626.95
1753.17
1385.98
1125.61
1024.43
966.327
923.885
888.99
859.758
834.661
815.649
806.659
816.229
863.289
976.556
1201.02
1566.26
2042.6
2321.54
2372.71
2337.02
2297.98
2417.24
2754.74
3308.04
4102.46
4602.18
3727.98
1555.83
867.252
1563.18
1750.42
1634.81
1198.66
1018.32
943.9
898.091
863.467
834.444
810.52
792.469
785.022
796.67
844.099
955.011
1167.4
1509.29
1936.48
2206.81
2265.52
2238.76
2171.53
2254.89
2579.72
3147.02
3986.95
4728.34
4074.22
1772
865.23
1467.31
1643.95
1715.95
1359.61
1045.88
931.081
877.238
842.056
813.193
789.077
771.27
764.623
776.79
822.713
928.329
1129.36
1455.3
1834.62
2095.25
2175.57
2157.05
2058.45
2110.52
2396.14
2949.6
3813.2
4762.08
4403.71
2021.92
866.785
1383.13
1525.37
1646.24
1551.46
1135.69
936.247
864.752
825.37
796.116
771.796
753.711
746.348
757.165
799.541
895.825
1082.05
1389.01
1749.17
2002.18
2098.24
2082.89
1980.98
2012.16
2241.5
2742.63
3630.97
4764.73
4740.16
2261.25
867.616
1314.31
1428.96
1534.81
1551.93
1293.05
975.617
862.832
813.941
783.184
758.617
740.16
731.55
739.741
776.8
863.473
1030.05
1318.55
1668.89
1944.18
2049.08
2031.79
1933.77
1937.8
2125.68
2574.05
3454.63
4730.35
5070.55
2516.61
866.566
1258.38
1361.01
1435.35
1480.02
1428.79
1068.27
878.257
811.439
775.952
750.818
731.736
721.625
726.967
757.422
830.246
970.249
1237.72
1589.77
1905.29
2016.59
1989.89
1893.22
1897.51
2053.91
2447.8
3287.03
4666.02
5360.86
2769.25
858.715
1208.56
1305.53
1363.52
1401.26
1420.85
1217.25
926.449
820.076
775.73
749.13
729.681
718.135
720.591
743.825
801.104
912.623
1138.18
1498.89
1832.38
1969.35
1927.11
1833.24
1853.54
2015.7
2376.59
3154.93
4568.68
5591.7
3030.24
841.091
1155.85
1255.58
1311.7
1336.65
1369.69
1326.12
1024.02
846.17
784.623
754.526
735.045
722.614
722.275
739.083
782.403
866.76
1036.2
1365.55
1688.21
1858.34
1836.23
1759.69
1800.72
1982.82
2349.34
3088.42
4476.97
5743.39
3308.16
817.333
1092.11
1200.75
1263.35
1283.69
1318.31
1320.2
1171.57
903.718
804.324
766.929
747.02
734.892
732.808
745.328
778.516
840.54
961.892
1213.43
1486.12
1672.29
1702.95
1678.83
1754.55
1960.06
2344.65
3072.12
4439.46
5872.6
3582.78
795.215
1029.37
1142.59
1211.22
1234.59
1271.06
1279.48
1259.47
1009.91
842.021
787.06
765.234
754.76
752.712
763.168
791.07
837.383
931.151
1103.49
1303.38
1484.97
1574.94
1614.01
1734.76
1966.35
2370.3
3095.94
4466.66
6028.82
3831.72
779.365
976.738
1085.69
1157.22
1186.48
1224.46
1236.31
1251.22
1166.41
918.398
818.943
790.209
781.924
781.789
792.28
816.694
856.297
935.248
1060.26
1197.67
1359.43
1484.72
1582.59
1745.56
2013.88
2441.57
3168.11
4548.16
6216.58
4066.15
765.753
935.41
1036.58
1107.48
1141.01
1178.22
1195.6
1216.73
1218.49
1058.96
879.473
826.545
817.379
820.815
834.124
858.075
902.122
975.138
1079.51
1187.04
1318.89
1459.18
1609.85
1822.28
2115.06
2556.17
3292.27
4684.27
6444.33
4290.05
753.29
901.109
997.256
1065.12
1102.78
1136.11
1157.79
1182.55
1208.07
1191.55
1002.52
891.552
868.699
875.519
896.307
923.935
986.364
1066.25
1172.05
1284.84
1408.27
1558.38
1743.98
1984.98
2284.56
2733.19
3479.18
4878.42
6715.57
4518.28
740.936
873.092
966.368
1030.79
1071.54
1102.59
1124.47
1153.58
1186.82
1220.52
1184.44
1026.97
963.535
965.69
1000.05
1043.72
1134.37
1237.18
1360.11
1490.37
1630.81
1788.67
1990.9
2240.13
2529.51
2977.96
3737.36
5149.9
7049.77
4763.51
728.215
848.65
941.916
1003.49
1046.32
1077.79
1097.11
1125.19
1170.41
1222.94
1260.22
1242.3
1164.2
1148.04
1201.72
1288.3
1422.16
1555.69
1695.3
1842.52
1998.07
2160.35
2356.96
2596.98
2863.52
3305.29
4081.03
5517.99
7460.28
5019.57
715.647
826.442
921.574
981.3
1026.03
1059.05
1076.75
1105.05
1156.79
1224.9
1301.82
1372.11
1434.69
1511.35
1631.76
1806.69
2006.91
2177.49
2318.02
2442.48
2568.46
2709.36
2865.11
3070.64
3297.74
3722.35
4529.56
6009.07
7956.22
5272.11
704.927
805.353
903.474
962.359
1008.31
1043.88
1062.8
1092.99
1142.35
1226.63
1338.34
1479.05
1665.03
1927.59
2286.78
2708.8
3069.13
3310.83
3434.05
3457.63
3451.18
3474.07
3535.15
3649.64
3838.43
4236.51
5068.39
6592.43
8543.45
5556.74
697.141
785.151
886.267
945.613
991.087
1029.94
1052.84
1083.47
1127.75
1224.44
1373.52
1588.18
1908.47
2398.12
3060.55
3792.01
4406.32
4807.33
4976.26
4969.67
4769.69
4505.85
4362.05
4323.01
4469.22
4849.59
5696.21
7246.13
9059.19
6002.89
690.091
764.926
868.921
929.776
973.836
1014.05
1043.95
1079.17
1128.28
1224.17
1402.02
1698.45
2176.26
2925.44
3931.19
4997.3
5882.77
6436.91
6633.27
6575.23
6345.86
5846.38
5352.33
5110.72
5194.98
5580.39
6430.73
7950.93
9763.7
6347.55
682.777
744.649
851.433
913.898
956.46
996.231
1033.38
1077.14
1134.44
1244.61
1447.18
1810.8
2441.03
3470.59
4801.92
6173.78
7313.75
8024.32
8258.79
8159.07
7842.78
7308.27
6562.24
6088.21
6081.28
6481.24
7311.07
8603.61
10256.2
6694.92
674.452
724.408
832.23
898.401
939.443
978.727
1019.05
1074.39
1143.53
1272.63
1513.79
1962.91
2740.73
3975.83
5548.16
7144.8
8498.84
9391.06
9731.34
9655.52
9285.44
8719.69
8071.47
7377.62
7282.83
7706.37
8516.55
9512.82
10925.7
6968.64
665.812
704.29
810.944
882.958
923.186
962.996
1003.45
1066.99
1153.61
1306.42
1595.54
2140.99
3081.75
4479.17
6161.03
7871.59
9404.93
10521.7
11043.3
11074.4
10763.6
10256.7
9763.96
9065.45
8955.27
9486.17
10514.2
11290.5
11983.8
6978.86
2412.05
2067.9
1785.53
1617.94
1485.37
1385.25
1301.18
1237.22
1191.95
1167.97
1160.9
1165.46
1179.07
1204.9
1244.04
1298.74
1372.07
1464.36
1577.17
1709.64
1858.33
2016.17
2176.27
2335.72
2484.64
2617.29
2729.97
2826.35
2911.05
2980.18
3037.42
3082.6
3112.34
3139.23
3162.17
3176.59
3179.07
3167.8
3139.71
3088.91
3012.87
2910.85
2785.5
2636.15
2470.66
2304.49
2141.88
1985.51
1830.76
1684.89
1551.69
1432.95
1326.63
1227.35
1135.85
1054.03
979.011
911.172
848.986
791.96
741.099
695.982
656.675
622.095
591.746
565.769
544.207
526.92
513.487
503.248
495.448
489.226
483.879
478.97
474.148
469.208
464.174
459.239
454.648
450.674
447.563
445.328
443.84
442.921
442.414
442.26
442.395
442.762
443.432
444.503
446.037
448.005
450.285
452.676
454.996
457.116
458.956
460.606
462.039
463.384
464.835
465.939
467.858
469.751
472.624
475.814
479.284
483.114
487.406
493.51
501.055
509.739
519.933
528.756
536.504
545.699
557.984
575.513
594.708
604.81
613.725
623.416
634.612
646.091
656.699
12109.7
10895.7
9577.29
8585.95
7732.94
7009.91
6381.05
5858.05
5427.72
5093.32
4843.74
4661.63
4524.68
4463.23
4487.49
4597.99
4826.55
5171.87
5627.04
6169.24
6790.98
7462.57
8136.05
8815.14
9417.87
9939.18
10385
10772.4
11125
11441.6
11741.1
12025.1
12287.1
12528.3
12737.2
12900.8
13006
13043
13005.8
12880.2
12658
12323.2
11874.1
11314.1
10651.8
9913.29
9134.96
8346.57
7559.99
6793.55
6069.45
5405.2
4807.28
4268.48
3785.01
3354.35
2969.33
2626.63
2321.75
2054.53
1823.32
1627.82
1463.93
1325.48
1207.54
1106.47
1021.57
952.332
896.92
852.517
816.032
784.725
756.666
730.916
706.918
684.187
662.456
641.74
622.257
604.193
587.643
572.802
559.766
548.408
538.45
529.666
521.832
514.649
508.082
502.201
497.064
492.67
488.92
485.62
482.559
479.579
476.55
473.527
470.5
467.607
465.132
462.617
461.002
459.32
458.677
459.212
461.238
464.462
468.063
472.616
478.862
486.291
493.566
500.878
510.197
521.445
535.183
552.236
573.117
591.603
607.924
624.184
642.922
663.592
684.316
37286.4
35026
31851.4
29030.5
26400.7
23981.8
21753
19709.7
17848.1
16165.2
14721.3
13527.4
12555.5
11821.4
11333.7
11074.3
11059.2
11276
11757.1
12439.8
13266.2
14193
15145.3
16116
17045.5
17899.9
18691.2
19437.7
20163.9
20881.8
21599.1
22316.5
23016.5
23695.6
24339.1
24917.8
25404
25775.5
26010.5
26083.6
25964.7
25625.5
25041
24212.5
23159.1
21891.6
20457.4
18918.7
17311.1
15682.5
14083.3
12553.8
11124.3
9812.18
8635.73
7592.95
6665.33
5833.65
5079.87
4401.6
3799.96
3280.18
2836.96
2468.6
2170.2
1930.41
1737.01
1578.36
1448.48
1342
1253.59
1179.04
1114.84
1058.69
1009.46
964.634
923.467
885.282
849.777
816.893
786.638
759.2
734.756
713.543
695.385
679.294
664.193
649.933
636.507
623.979
612.475
602.042
592.643
584.073
576.079
568.49
561.122
553.994
547.094
540.583
534.737
529.382
525.098
521.468
519.289
518.649
519.988
523.359
527.445
533.476
541.317
550.215
559.095
568.897
581.844
597.63
613.683
631.516
653.065
676.097
696.975
717.831
740.428
764.307
788.195
74071.6
71194.9
66453.1
61561.5
56670.3
51768
46976.9
42424.2
38178.6
34301.3
30876.9
27948.7
25520.7
23581.8
22166
21261.8
20844.7
20880.9
21354.7
22188.6
23292.9
24595.7
26017.6
27510.5
29020.1
30520.7
32020.6
33537
35087.9
36678.4
38300.6
39929.2
41519.8
43034.5
44447.9
45723.7
46829.2
47734.4
48401
48781.8
48833.4
48519
47814.4
46721
45266.4
43484.8
41419.1
39113.2
36617.3
33987.4
31277.6
28541.8
25830.6
23194
20672.4
18305.4
16115.3
14103.5
12268.1
10610.3
9120.9
7799.55
6622.83
5573.1
4662.1
3909.48
3316.19
2864.02
2526.58
2274.13
2079.91
1924.39
1796.01
1687.56
1593.89
1508.24
1429.16
1355.38
1286.5
1222.91
1165.34
1113.76
1067.6
1026.66
990.944
958.019
926.361
895.539
865.592
836.741
809.323
783.627
759.888
738.052
717.869
699.116
681.55
665.178
649.921
636.098
623.78
613.196
604.411
596.981
591.562
588.318
587.732
590.646
595.007
600.019
606.96
616.09
626.221
637.589
651.688
668.269
685.677
704.59
727.072
751.714
774.916
797.499
821.178
844.449
865.499
111332
108214
103083
97149.3
90450.7
83606.9
76682.7
69934.7
63528.1
57589
52268.3
47628.2
43741.3
40648.9
38337.7
36886
36216.4
36261.7
36954
38174.6
39803.1
41724.5
43858.5
46143
48520.9
50965.9
53479.7
56066.7
58722.8
61424.9
64134.9
66797
69347.1
71690.3
73804.8
75672
77257.6
78529.5
79450
79968.7
80042.5
79640.4
78752.3
77399.6
75628.8
73483.4
71006.6
68242.6
65241.6
62054.1
58727.3
55301.1
51816.8
48306.8
44803.5
41339.9
37936.5
34606.8
31369.1
28238.1
25224.2
22331
19548.4
16871.9
14305.4
11866.5
9691.51
7892.04
6502.43
5473.06
4718.45
4158.85
3737.67
3417.92
3168.26
2965.43
2791.97
2636.36
2492.21
2357.27
2232.3
2120.59
2023.57
1935.4
1847.52
1759.17
1670.97
1582.65
1494.53
1407.65
1323.46
1243.04
1167.28
1096.91
1032.23
973.267
919.912
872.219
830.193
793.444
761.804
735.026
712.963
694.639
679.991
669.354
662.879
661.522
664.179
666.78
670.795
677.854
687.819
699.444
713.704
731.136
750.605
771.177
793.551
815.155
835.946
857.142
876.164
892.424
907.795
142060
138919
133634
127581
120630
112730
104643
96591.5
88876.8
81703.9
75247
69652.2
65004.3
61375
58816.9
57338.8
56891.8
57400.9
58734.7
60719.7
63166.9
65995.9
69092.3
72368.8
75762.6
79239.3
82787.6
86392.7
90025.4
93638.3
97171.7
100555
103716
106583
109052
111141
112867
114187
115058
115439
115312
114650
113462
111794
109702
107258
104538
101610
98521.2
95304.1
91984
88568.9
85116.8
81627.8
78104.1
74546.3
70945.3
67293.6
63596.7
59845.6
56024.5
52119.4
48117.1
44015.1
39811.9
35533.8
31288.9
27206.1
23404.5
19957.3
16930.3
14349.9
12230.6
10535.8
9205.28
8167.53
7353.06
6703.62
6172.95
5726.23
5338.93
4988.99
4661.07
4353.65
4070.66
3808.85
3562.09
3326.23
3098.22
2875.78
2658.48
2447.3
2244.14
2050.03
1866.15
1695.22
1538.99
1397.88
1272.74
1163.81
1071.19
994.186
930.745
879.894
838.15
805.797
782.501
767.645
760.372
754.981
752.24
753.774
759.72
769.701
783.186
799.655
817.46
836.107
854.314
871.208
887.957
903.712
918.125
932.526
947.68
163897
161033
155982
150103
143324
135730
127382
118999
110910
103437
96764
91081.4
86541.2
83250.5
81258.3
80560
81068.5
82623.7
85029.7
88053
91596.1
95460.8
99527.3
103713
107968
112257
116559
120846
125076
129194
133132
136820
140187
143172
145715
147714
149241
150312
150870
150872
150294
149168
147571
145593
143332
140874
138278
135587
132838
130057
127258
124440
121601
118725
115791
112773
109631
106319
102801
99137.3
95250
91108.8
86706.5
82083
77237.1
72187.8
66988.3
61699.8
56375.8
51077.4
45875.4
40863
36141.5
31804.9
27940.7
24556.2
21596
19025
16793.4
14872.1
13230.1
11827.5
10625.2
9589.88
8695.15
7917.85
7239.32
6640.42
6100.5
5607.39
5152.35
4728.9
4331.5
3955.84
3597.87
3254.95
2928.08
2620.26
2333.3
2070.18
1835.77
1632.05
1458.15
1313.76
1195.69
1100.13
1026.61
972.922
935.985
908.428
886.556
870.794
863.573
864.735
872.398
881.982
892.052
902.725
913.36
924.019
935.307
946.416
958.162
972.477
988.287
176881
174559
170101
164870
158774
151880
144373
136457
128777
121668
115471
110395
106659
104406
103693
104449
106483
109515
113263
117576
122205
127006
131882
136773
141632
146428
151137
155732
160172
164406
168374
172013
175262
178068
180382
182144
183257
183826
183843
183335
182337
180934
179209
177259
175172
173018
170860
168739
166675
164671
162717
160791
158863
156896
154847
152666
150297
147675
144758
141526
137946
133987
129607
124895
119940
114695
109174
103416
97456.6
91304.4
84999.3
78605.3
72212.6
65837.9
59533.5
53365.5
47494.1
42083.6
37206.9
32839.5
28952.4
25518.8
22506.6
19879.8
17602.8
15633.4
13933.6