/*--------------------------------*- C++ -*----------------------------------*\
| =========                 |                                                 |
| \\      /  F ield         | OpenFOAM: The Open Source CFD Toolbox           |
|  \\    /   O peration     | Version:  2112                                  |
|   \\  /    A nd           | Website:  www.openfoam.com                      |
|    \\/     M anipulation  |                                                 |
\*---------------------------------------------------------------------------*/
FoamFile
{
    version     2.0;
    format      ascii;
    arch        "LSB;label=32;scalar=64";
    class       volScalarField;
    location    "0.0093";
    object      p;
}
// * * * * * * * * * * * * * * * * * * * * * * * * * * * * * * * * * * * * * //

dimensions      [1 -1 -2 0 0 0 0];

internalField   nonuniform List<scalar> 
13875
(
951601
984296
973569
975897
973669
974493
975105
974631
975045
975181
975056
975052
974685
974784
974833
974697
974634
975331
975172
973972
973386
975648
972330
982550
945480
733798
659567
672169
677197
669285
669759
677379
679360
679962
679483
679051
678470
670269
669179
670412
678033
679299
679309
677537
669948
669574
676913
672250
657197
730971
736887
635514
664295
653659
649154
647682
647323
647254
648602
649782
647824
648928
645371
645284
645225
648911
646257
648197
647935
647647
648544
652165
661941
632171
733689
743530
636158
665178
653817
649456
647842
646221
645498
645552
645418
643846
644732
645407
645386
645253
644531
643501
644589
646116
647796
648826
652290
662689
632779
739316
757359
639164
667731
654521
650307
648309
646366
645651
645732
645459
643877
644768
645539
645655
645373
644562
643598
644671
646236
648230
649608
652884
664973
635423
750408
759037
647820
673496
656484
652096
649300
646829
646052
646219
645615
644026
644903
645814
646193
645631
644689
643881
644941
646634
649156
651281
654755
670549
643157
751817
765040
668327
685719
661385
655737
651317
647898
646856
647112
645987
644470
645286
646394
646766
646129
644993
644507
645653
647711
651211
654916
660355
682073
665850
755864
791214
718355
711635
674714
663525
655701
650350
648429
648272
646938
645533
646139
647530
647921
647188
645804
645789
647150
649954
655321
662289
673142
707066
715343
781726
908628
827904
766499
704361
679098
664378
655391
651642
650654
649075
647822
648085
649808
650241
649387
647791
648403
650281
654568
663394
676942
700896
760202
823138
909507
1.52405e+06
1.02947e+06
833569
739402
697590
674864
662638
657267
655149
653346
652418
652350
654310
654778
653938
652339
653366
655818
661555
673903
695756
736816
829417
1.02529e+06
1.5171e+06
2.90528e+06
1.3928e+06
957365
796537
726071
691887
675450
667763
664140
662181
661387
660979
662844
663411
662887
661793
662991
666198
673614
689595
722303
789390
941166
1.35137e+06
2.86071e+06
5.60352e+06
2.34588e+06
1.28706e+06
937070
790448
729097
702061
689454
683505
680847
679681
679002
680253
681043
681148
681411
683346
688594
700638
727014
786931
926006
1.2525e+06
2.27469e+06
5.57496e+06
5.38912e+06
4.84686e+06
2.31408e+06
1.4012e+06
980304
828834
766938
741028
729226
723877
721407
720280
720356
721416
722704
725335
730656
742371
769110
834659
990053
1.38731e+06
2.18328e+06
4.87613e+06
5.34371e+06
4.84004e+06
4.65379e+06
4.72336e+06
3.98819e+06
1.63645e+06
1.13577e+06
954721
884990
853296
838314
831540
828414
827137
828580
832213
840347
857704
894049
975555
1.20155e+06
1.83495e+06
4.03302e+06
4.68991e+06
4.71859e+06
4.76434e+06
4.03101e+06
4.13078e+06
4.50671e+06
4.25916e+06
3.99546e+06
2.49221e+06
1.66151e+06
1.37623e+06
1.26399e+06
1.2166e+06
1.19734e+06
1.18948e+06
1.18673e+06
1.18864e+06
1.19602e+06
1.21572e+06
1.26473e+06
1.3838e+06
1.69397e+06
2.68564e+06
4.11478e+06
4.24402e+06
4.51179e+06
4.28683e+06
4.26878e+06
3.53456e+06
3.46211e+06
3.93077e+06
4.05888e+06
4.26701e+06
4.33938e+06
3.69244e+06
3.05533e+06
2.84621e+06
2.68037e+06
2.57465e+06
2.53459e+06
2.51936e+06
2.5249e+06
2.55456e+06
2.63749e+06
2.84661e+06
3.04493e+06
3.75424e+06
4.39025e+06
4.2369e+06
4.07847e+06
4.0536e+06
3.57206e+06
3.74945e+06
2.55217e+06
2.69429e+06
3.06156e+06
3.49434e+06
4.20174e+06
5.13858e+06
6.79217e+06
7.59758e+06
7.9603e+06
8.05692e+06
8.12443e+06
8.13828e+06
8.15078e+06
8.14349e+06
8.14178e+06
8.08484e+06
7.98421e+06
7.67616e+06
6.80754e+06
5.10279e+06
4.19978e+06
3.56049e+06
3.15034e+06
2.81821e+06
2.70469e+06
1.43449e+06
1.72049e+06
2.31272e+06
2.9954e+06
4.17383e+06
5.59049e+06
6.77568e+06
7.42091e+06
7.66163e+06
7.6329e+06
7.55497e+06
7.48849e+06
7.47148e+06
7.48869e+06
7.55779e+06
7.66232e+06
7.72536e+06
7.48988e+06
6.80649e+06
5.57452e+06
4.11876e+06
2.93145e+06
2.19249e+06
1.62238e+06
1.34524e+06
695875
1.02901e+06
1.70918e+06
2.60104e+06
4.0822e+06
5.15796e+06
5.83427e+06
6.33938e+06
6.50206e+06
6.4741e+06
6.43137e+06
6.4458e+06
6.46635e+06
6.46587e+06
6.45446e+06
6.5151e+06
6.59274e+06
6.47616e+06
6.05328e+06
5.39231e+06
4.11658e+06
2.66852e+06
1.72815e+06
1.04291e+06
705259
383825
618258
1.13707e+06
2.20195e+06
3.63194e+06
4.35195e+06
4.68501e+06
5.0166e+06
5.24091e+06
5.39758e+06
5.5418e+06
5.65392e+06
5.69233e+06
5.66548e+06
5.55594e+06
5.40043e+06
5.2333e+06
5.01547e+06
4.74076e+06
4.4379e+06
3.66881e+06
2.19478e+06
1.13123e+06
607569
374391
957874
981383
1.1729e+06
1.88599e+06
2.89366e+06
3.38916e+06
3.71604e+06
4.10219e+06
4.42714e+06
4.6592e+06
4.83505e+06
4.94096e+06
4.96449e+06
4.9405e+06
4.82776e+06
4.63044e+06
4.36513e+06
4.02938e+06
3.68416e+06
3.40832e+06
2.87552e+06
1.85936e+06
1.14712e+06
971335
960777
1.01705e+06
979158
1.15807e+06
1.60417e+06
2.16991e+06
2.62105e+06
3.02045e+06
3.457e+06
3.79583e+06
4.03267e+06
4.2004e+06
4.28888e+06
4.30398e+06
4.2816e+06
4.18425e+06
3.9948e+06
3.72564e+06
3.37194e+06
2.93791e+06
2.60721e+06
2.1284e+06
1.56045e+06
1.12421e+06
947893
988381
1.12519e+06
1.01922e+06
1.13322e+06
1.34419e+06
1.69394e+06
2.08531e+06
2.52532e+06
2.95691e+06
3.26438e+06
3.48406e+06
3.62981e+06
3.70261e+06
3.71559e+06
3.69082e+06
3.60566e+06
3.43967e+06
3.19782e+06
2.89207e+06
2.42212e+06
2.06013e+06
1.6557e+06
1.30953e+06
1.10324e+06
1.00769e+06
1.13966e+06
1.31934e+06
1.15114e+06
1.13607e+06
1.19146e+06
1.44168e+06
1.77833e+06
2.13416e+06
2.53086e+06
2.80218e+06
3.00457e+06
3.12663e+06
3.19213e+06
3.20588e+06
3.1803e+06
3.10427e+06
2.96063e+06
2.74286e+06
2.47255e+06
2.05965e+06
1.73671e+06
1.39556e+06
1.15273e+06
1.10957e+06
1.15731e+06
1.30736e+06
1.37488e+06
1.28114e+06
1.14426e+06
1.13161e+06
1.29631e+06
1.55756e+06
1.83853e+06
2.16748e+06
2.40099e+06
2.58159e+06
2.69578e+06
2.75408e+06
2.76769e+06
2.74403e+06
2.67754e+06
2.55048e+06
2.3555e+06
2.12162e+06
1.78781e+06
1.51355e+06
1.24713e+06
1.10823e+06
1.12192e+06
1.28503e+06
1.36274e+06
1.43323e+06
1.38214e+06
1.16089e+06
1.13208e+06
1.20529e+06
1.39702e+06
1.60784e+06
1.87544e+06
2.07213e+06
2.22859e+06
2.33134e+06
2.38194e+06
2.39472e+06
2.37385e+06
2.31579e+06
2.20168e+06
2.03289e+06
1.83557e+06
1.57418e+06
1.3678e+06
1.16584e+06
1.10861e+06
1.13733e+06
1.36831e+06
1.40896e+06
1.47813e+06
1.41545e+06
1.18006e+06
1.13209e+06
1.15085e+06
1.27182e+06
1.42847e+06
1.63618e+06
1.79844e+06
1.93057e+06
2.02062e+06
2.06516e+06
2.07796e+06
2.05884e+06
2.00618e+06
1.90787e+06
1.76416e+06
1.60255e+06
1.39669e+06
1.24332e+06
1.11923e+06
1.10871e+06
1.16372e+06
1.40553e+06
1.44985e+06
1.5664e+06
1.49145e+06
1.21487e+06
1.12877e+06
1.11053e+06
1.17456e+06
1.27995e+06
1.43963e+06
1.5693e+06
1.68081e+06
1.75708e+06
1.79666e+06
1.81045e+06
1.79352e+06
1.75056e+06
1.66885e+06
1.54924e+06
1.41611e+06
1.2587e+06
1.15402e+06
1.0878e+06
1.10677e+06
1.20067e+06
1.47957e+06
1.53525e+06
1.67444e+06
1.60494e+06
1.2566e+06
1.11768e+06
1.08087e+06
1.09778e+06
1.16088e+06
1.27972e+06
1.38436e+06
1.47476e+06
1.53759e+06
1.57294e+06
1.58414e+06
1.569e+06
1.52884e+06
1.46204e+06
1.36474e+06
1.26077e+06
1.14459e+06
1.08409e+06
1.06334e+06
1.09614e+06
1.22608e+06
1.53161e+06
1.58873e+06
1.73047e+06
1.71244e+06
1.30087e+06
1.10977e+06
1.04914e+06
1.04494e+06
1.06685e+06
1.14952e+06
1.22881e+06
1.3025e+06
1.35366e+06
1.38209e+06
1.39261e+06
1.37796e+06
1.34579e+06
1.29236e+06
1.21433e+06
1.13224e+06
1.04932e+06
1.02695e+06
1.03202e+06
1.08817e+06
1.27204e+06
1.64754e+06
1.6806e+06
1.73146e+06
1.72429e+06
1.33986e+06
1.10683e+06
1.01579e+06
993039
991950
1.03917e+06
1.09841e+06
1.15584e+06
1.19691e+06
1.22233e+06
1.23012e+06
1.21991e+06
1.19159e+06
1.14903e+06
1.08891e+06
1.02951e+06
979643
980967
1.00087e+06
1.08189e+06
1.30169e+06
1.68847e+06
1.71582e+06
1.73728e+06
1.72373e+06
1.41157e+06
1.10751e+06
980046
938004
929425
954268
994260
1.03735e+06
1.06826e+06
1.08603e+06
1.09276e+06
1.0842e+06
1.06309e+06
1.03001e+06
985224
943931
918735
925542
964483
1.08171e+06
1.35145e+06
1.69105e+06
1.72957e+06
1.74974e+06
1.71124e+06
1.46988e+06
1.10951e+06
953319
892126
878621
879766
904917
935730
958585
972887
977178
971399
953451
929516
897758
871982
868612
881196
935493
1.084e+06
1.4158e+06
1.6907e+06
1.73197e+06
1.74948e+06
1.69298e+06
1.54223e+06
1.11858e+06
928169
849362
823204
818058
827602
849210
865455
875367
878909
874202
862515
846694
824571
811847
816237
838015
911744
1.09173e+06
1.52244e+06
1.68285e+06
1.73153e+06
1.74836e+06
1.66635e+06
1.54921e+06
1.14059e+06
917538
818200
778148
764971
764393
774726
785834
793922
796181
793214
782771
771362
760766
760819
771100
806113
899362
1.10921e+06
1.55777e+06
1.66817e+06
1.72979e+06
1.74291e+06
1.64022e+06
1.54369e+06
1.16124e+06
918206
787642
733639
715046
709356
712960
718897
723522
724952
722146
715552
711368
706839
710850
728175
778957
900311
1.14493e+06
1.55767e+06
1.63839e+06
1.72687e+06
1.7316e+06
1.61677e+06
1.53664e+06
1.20609e+06
924844
768271
700166
670658
660674
657798
660047
663815
664590
663094
657576
655901
659076
668921
695944
758839
903969
1.19086e+06
1.54248e+06
1.61223e+06
1.71853e+06
1.70912e+06
1.5875e+06
1.52328e+06
1.29511e+06
942698
754050
668990
632132
616927
612164
610777
612115
611985
611245
608841
610728
615205
627796
662814
743151
916218
1.28318e+06
1.51524e+06
1.58327e+06
1.70098e+06
1.67419e+06
1.56714e+06
1.48675e+06
1.34166e+06
961921
754511
647707
599257
578853
569605
567379
567754
567138
568109
565273
567362
577100
596633
641485
743805
944600
1.3288e+06
1.46317e+06
1.55464e+06
1.66484e+06
1.61688e+06
1.54238e+06
1.4231e+06
1.34036e+06
1.00372e+06
760439
629144
570742
545156
534547
530055
529155
528104
528640
529114
533741
543661
566656
622580
747129
980569
1.32684e+06
1.39665e+06
1.52482e+06
1.62179e+06
1.56219e+06
1.50964e+06
1.36633e+06
1.33622e+06
1.08685e+06
776000
629173
551585
518087
501900
496689
496010
494117
495966
495781
500060
515562
547376
622599
757794
1.04927e+06
1.32134e+06
1.34414e+06
1.49811e+06
1.56418e+06
1.52342e+06
1.47442e+06
1.3148e+06
1.31814e+06
1.18051e+06
795213
631264
538747
494924
476514
468659
465888
464173
465311
468030
475761
492575
532574
626555
784287
1.19145e+06
1.30927e+06
1.301e+06
1.45626e+06
1.49937e+06
1.47974e+06
1.44194e+06
1.28145e+06
1.28126e+06
1.17962e+06
836561
640592
538974
480071
452682
443153
440680
437857
440482
442355
451250
477424
530290
632740
820082
1.18957e+06
1.28062e+06
1.26991e+06
1.42172e+06
1.4597e+06
1.43269e+06
1.39761e+06
1.25267e+06
1.2192e+06
1.17202e+06
919435
661342
541493
471113
436465
422520
417131
414495
416547
421893
435015
466714
531642
648822
891350
1.17974e+06
1.22349e+06
1.24785e+06
1.38864e+06
1.41584e+06
1.40011e+06
1.35698e+06
1.23063e+06
1.16288e+06
1.14653e+06
1.02946e+06
693558
545982
471330
424570
404632
397986
394156
397924
402379
420265
466993
539049
685674
1.03864e+06
1.15786e+06
1.16923e+06
1.23079e+06
1.34799e+06
1.37601e+06
1.36011e+06
1.3201e+06
1.21126e+06
1.11885e+06
1.09515e+06
1.02642e+06
762153
561281
474107
421922
393571
381357
377052
380611
391889
415822
468484
552951
750319
1.03588e+06
1.10951e+06
1.12231e+06
1.21229e+06
1.31128e+06
1.34708e+06
1.31346e+06
1.2749e+06
1.19159e+06
1.08265e+06
1.0425e+06
1.01589e+06
901928
593879
481523
422637
388157
372107
364242
371034
385310
416110
473773
581429
881631
1.02345e+06
1.05267e+06
1.08431e+06
1.19665e+06
1.27533e+06
1.31049e+06
1.26656e+06
1.23586e+06
1.16858e+06
1.05777e+06
996709
988685
900756
652647
494467
424507
388346
367877
353210
365904
385569
418918
488347
643157
896579
995436
1.00542e+06
1.05782e+06
1.17185e+06
1.23308e+06
1.25847e+06
1.17237e+06
1.1795e+06
1.1364e+06
1.03658e+06
960745
939681
894448
775270
521695
432412
390036
368120
353328
366086
386681
426256
515393
764648
891767
942033
964909
1.03712e+06
1.13936e+06
1.17477e+06
1.16727e+06
1.03668e+06
1.10069e+06
1.07973e+06
1.01381e+06
931668
892385
875139
795195
577701
452030
395733
369635
354479
367311
391351
444372
570306
797190
874308
888024
929942
1.0117e+06
1.08126e+06
1.09624e+06
1.03578e+06
99930.9
106983
107287
109966
109578
109579
108395
107896
107705
108281
109330
110211
109558
107914
105634
103964
102998
102530
102347
102291
102262
102615
103464
104385
105081
105474
105534
105228
105009
104629
99640.2
108431
108052
110748
110009
109991
108990
108572
108421
108921
109755
110049
110118
108311
105726
103953
102981
102510
102326
102269
102249
102606
103463
104419
105104
105484
105595
105468
105139
104753
101616
110343
109606
111606
111002
110810
109905
109513
109390
109802
110319
110552
110304
108458
106266
104815
103910
103473
103194
103008
102985
103205
104214
105526
105851
105658
105785
105729
105459
105196
105365
112033
111324
112622
112232
112010
111031
110621
110491
110795
110898
110851
110365
108578
106584
105277
104393
103982
103747
103670
103737
104076
105684
106130
106368
106479
106297
106002
105778
105755
108798
113789
112967
114001
113732
113566
112505
111992
111807
111857
111859
111447
110534
109184
107803
106562
105766
105366
105231
105240
106071
106642
106443
106584
106806
107165
107314
107381
106964
106724
111824
115628
114670
115517
115500
115593
114186
113497
113205
113120
112560
111766
110724
109476
108634
107529
106941
106712
106673
106988
107591
107881
107820
107664
107586
107622
107853
108094
108264
108308
114605
117397
116433
117312
117435
117237
115534
114485
113979
113748
112914
111887
110847
109880
109000
108621
108532
108521
108695
109522
109267
108464
108187
108050
108049
108145
108489
108826
108946
108939
117501
119196
118378
119204
118626
118050
116214
114961
114362
114055
113063
111888
111045
110380
110014
109769
109731
109974
110633
110097
109728
108864
108463
108265
108279
108707
108861
109091
109215
109253
120232
120915
120223
120484
119182
118416
116523
115177
114546
114186
113108
111802
111318
111141
110914
111151
111242
111286
111207
110318
109927
109159
108698
108721
108772
108869
108979
109170
109325
109394
122796
122745
121547
121090
119406
118550
116643
115266
114627
114229
113106
111904
111532
111475
111523
111786
111857
111830
111345
110524
109995
109379
109238
108956
108772
108881
108977
109119
109356
109437
124999
124018
122195
121344
119487
118592
116681
115294
114656
114237
112755
111946
111622
111569
111721
112028
112120
112032
111349
110762
110072
109868
109597
109022
108597
108384
108339
108492
109335
109448
127041
124640
122470
121444
119516
118607
116696
115292
114630
113502
112353
111843
111637
111587
111792
112114
112227
112108
111421
111428
110750
110326
109639
108643
108253
108283
108293
108588
108581
109368
128193
124899
122562
121477
119442
118439
116576
115014
113873
112507
111862
111622
111557
111547
111806
112135
112267
112305
111982
111682
111239
110493
109475
108498
108566
108420
108384
108542
108387
109216
128670
125003
122494
121311
119045
117865
116015
114628
112783
111829
111384
111192
111099
111065
111661
112039
112271
112375
112316
111967
111470
110503
109024
108884
108461
108280
108224
108322
108381
108931
128806
124911
122073
120760
118313
116820
114750
113573
112039
111204
110783
110563
110439
110402
111199
111842
112232
112397
112441
112031
111530
110346
109148
108776
108331
108112
108011
108003
108149
108403
128704
124412
121363
119875
117232
115384
113249
112198
111063
110328
109952
109672
109486
109436
110316
111199
112017
112384
112459
111981
111459
109725
109303
108614
108275
107876
107720
107648
107788
107540
127666
123361
120567
118514
115918
113637
111703
110633
109905
109152
108820
108438
108234
108174
108866
109635
111138
111839
112022
111645
110708
109546
109185
108429
108210
107667
107365
107160
107052
106303
126464
121912
119786
116528
114399
111672
110239
109100
108494
107913
107449
106963
106758
106707
107288
108044
109736
110934
111398
111470
110206
109492
109018
108439
107789
107402
106825
106323
105896
104933
124159
119911
118352
114586
112363
109901
108653
107569
107002
106563
105747
105376
105213
105181
105925
106949
108334
109959
110737
110944
110004
109473
108993
108386
107455
107129
106351
105567
105032
104650
122137
117985
116212
112701
110222
108058
106891
105869
105340
104752
104083
103779
103682
103679
104504
105608
106899
108544
109593
109940
109696
109451
109022
108311
107587
106927
106102
105185
104562
104472
118760
115237
113593
110751
107928
106132
105009
104061
103582
103027
102559
102361
102305
102353
103135
104283
105495
106735
108401
109194
109418
109221
109039
108306
107654
106484
105767
104696
104160
104098
115893
112539
111047
108793
105705
104170
103065
102231
101803
101407
101185
101113
101107
101273
101855
103017
104032
104886
107254
108567
109025
108988
108761
108189
107694
105989
104919
103922
103341
103086
110930
109071
108201
105937
103766
102101
101103
100476
100108
99891
99858.9
99873.9
100061
100226
100523
101684
102457
103181
106008
107813
108548
108637
108612
108053
107335
105695
104528
103514
102997
102729
107960
106007
105862
103844
101828
100214
99316.2
98771.2
98517.1
98470
98500.7
98744.7
98852.3
98945.2
99041.3
100121
100829
101519
104533
106820
108035
108500
108555
108012
107194
105567
104367
103343
102864
102634
97932.8
102169
103303
102037
100519
98631.8
97693.8
97138.8
96939.5
96946.3
97229
97271.8
97291.2
97307.8
97327.9
98257.5
99396
100060
102979
105505
107546
108465
108557
108009
107171
105541
104331
103306
102834
102610
102803
103272
103458
103519
103260
102603
101827
101019
100252
99814.7
99756.3
99812.3
100003
100505
101686
103639
105923
107184
107058
106714
105948
105869
106122
106729
108096
108224
108781
106236
106057
99230.3
103098
103343
103536
103527
103258
102595
101820
101011
100245
99805.4
99742.4
99796.4
99986
100487
101700
103670
106169
107624
107797
107414
106652
106549
106748
107247
108430
108521
109480
106983
107432
98939.6
103539
103672
103737
103711
103601
103325
102556
101602
101016
100778
100751
100810
101002
101451
102408
103998
106288
107814
108581
108314
107665
107482
107647
108112
109189
109395
110180
108391
109258
100799
103993
103993
104047
104551
104475
103956
103399
102436
101775
101528
101551
101582
101711
102047
102802
104298
106397
107926
108989
109155
108987
108711
108850
109261
110139
110481
111182
110008
110839
104451
105362
105357
105386
105538
105521
105383
105193
104339
103459
103182
103240
103282
103371
103591
104103
105190
106807
108317
109362
110096
110295
110233
110368
110752
111389
111920
112542
111613
112536
107755
107090
106946
106697
106239
106134
106517
106723
106819
106183
104736
104696
104768
104812
104933
105256
105963
107172
108580
109977
110876
111620
111662
111899
112556
113091
113609
114044
113270
114308
110644
107858
107738
107529
107269
107083
106979
107119
107446
107721
107749
106669
106682
106687
106730
106875
107329
107876
108939
110267
111353
112452
112569
112966
113830
115196
115722
115793
115029
115996
113326
108209
108116
107906
107527
107390
107191
107257
107592
108297
108990
108867
108638
108581
108634
108895
109206
109463
109712
110444
111559
112833
113036
113482
114453
116306
117045
117763
116939
117711
116046
108374
108285
108085
107689
107640
107391
107386
107598
108423
109614
110165
110217
110285
110264
110193
109988
110078
110356
110784
111617
112983
113337
113835
114793
116841
117685
119059
118799
119399
118624
108443
108345
108158
107807
107704
107820
107935
108136
108574
109782
110826
110902
111055
111170
110950
110494
110523
110619
110842
111606
113030
113510
114029
114990
117071
117968
119686
120069
121167
121048
108462
108360
108179
107831
107645
107874
108007
108429
108969
109850
111221
111449
111552
111517
111220
110720
110715
110693
110752
111175
112939
113539
114089
115044
117156
118084
119969
120697
122286
123105
108428
108360
108180
107819
107471
107671
108021
108309
108792
109957
111521
111717
111758
111628
111255
110793
110771
110679
110840
111078
111702
113509
114102
115034
117184
118127
120091
120982
122829
125073
108216
108169
108097
107763
107692
107531
108074
108672
109134
110235
111653
111878
111847
111654
111251
110805
110770
110623
110808
111144
111476
112360
113639
114918
117140
118135
120139
121089
123057
126174
107877
107661
107679
107522
107628
107607
107808
108687
109438
110589
111701
111999
111916
111645
111165
110774
110530
110499
110620
110846
111202
111436
112703
114888
116725
117951
120129
121103
123145
126630
107156
106666
106655
106816
107484
107598
107799
108659
109460
110715
111582
112038
111936
111621
111053
110544
110022
110098
110220
110406
110658
111008
111532
113738
115852
117459
119677
120730
123012
126759
105297
105365
105788
106290
107343
107568
107946
108685
109558
110750
111232
112042
111935
111572
110823
110040
109342
109414
109538
109727
109973
110173
110721
111806
114443
116552
118840
120011
122563
126683
104728
104968
105373
106084
106914
107330
107922
108829
109632
110622
111373
111633
111490
110979
109882
108932
108269
108336
108563
108740
108972
109160
109495
110413
112384
115271
117610
119006
121741
125705
104147
104440
104874
105638
106439
107207
107945
108843
109662
110469
111018
110753
110244
109457
108252
107462
106883
106939
107138
107381
107701
107873
108176
108875
110460
113752
115664
118291
120344
124602
103580
104107
104435
105121
106125
107060
107877
108883
109673
110272
110381
110184
109464
108209
107104
106113
105397
105383
105466
105715
106250
106483
106773
107389
108679
111769
113698
116981
118429
122386
102763
103330
103805
104687
105844
106848
107703
108684
109585
109961
109816
109322
108141
107062
105848
104781
104027
103818
103860
104020
104487
104901
105190
105786
106946
109521
111741
115014
116590
120437
102409
102471
103159
104033
105342
106534
107488
108486
109243
109433
109211
108437
106751
105917
104610
103458
102764
102507
102462
102517
102778
103262
103516
104036
105032
107202
109705
112499
113938
117173
101637
101968
102724
103843
104906
106133
107307
108234
108626
108897
108549
107459
105356
104711
103458
102229
101702
101432
101202
101139
101269
101534
101758
102174
103037
104935
107814
110053
111365
114404
101462
101792
102535
103804
104711
105959
107186
108082
108204
108195
107634
106028
103761
103223
102274
100973
100670
100447
100099
99920.8
99762.6
99821.3
99928.1
100284
101136
102955
105098
107316
108072
109581
101439
101764
102490
103866
104627
105868
107132
108019
108004
107661
106611
104410
102108
101619
100939
99620.3
99425.6
99292
99047.2
98619.3
98352.2
98189.9
98323.9
98663
99409.9
100971
102985
105097
105120
106650
101508
101790
102496
103753
104603
105839
107122
108005
107922
107246
105706
103085
100737
100177
99479.1
98170.4
97968.6
97825.8
97612.2
97230.5
96991.6
96693
96840.4
97160.4
97956.3
99613.4
101218
102641
101575
96792.8
354833
357409
361718
365274
367344
369876
371956
373016
373474
373659
373754
373918
374021
374120
374249
374490
374793
375181
375677
376167
376592
376840
376992
377029
376989
376708
376218
375484
374551
373393
371982
370321
368429
366291
363959
361603
358811
355889
352854
349702
346409
342970
339403
335695
331821
327807
323648
319349
314918
310341
305642
300829
295916
290916
285833
280688
275491
270251
264978
259676
254352
249007
243654
238294
232949
227607
222280
216969
211701
206486
201335
196267
191296
186440
181709
177115
172669
168431
164411
160439
156415
152500
148905
145614
142470
139414
136489
133701
131073
128570
126234
124022
121943
119994
118221
116554
114930
113483
112110
110767
109495
108285
107258
106374
105621
104937
104353
104075
103690
103515
103517
103546
103592
103837
103979
103973
104025
104032
103714
103176
102936
102787
102240
101925
101603
352124
355170
359602
364371
367694
369943
372119
373243
373888
374289
374523
374693
374838
374960
375091
375257
375458
375757
376183
376605
376865
376982
377029
377053
376869
376483
375895
375116
374085
372795
371257
369473
367447
365195
362750
360121
357254
354229
351056
347744
344289
340702
337032
333245
329122
325047
320828
316497
312063
307480
302819
298057
293203
288274
283267
278203
273082
267909
262694
257443
252167
246873
241567
236267
230981
225743
220588
215450
210339
205191
200121
195162
190309
185580
180970
176468
172077
167816
163679
159661
155777
152054
148498
145088
141868
138776
135867
133125
130556
128145
125899
123796
121834
119990
118245
116620
115086
113641
112261
110958
109735
108620
107594
106694
105924
105288
104762
104430
104018
103894
103897
103916
103970
104182
104466
104534
104653
104650
104232
103826
103489
103239
102715
102232
101961
349758
352407
356913
361256
365251
368271
370529
372007
372918
373479
373832
374082
374296
374500
374717
374952
375226
375592
376049
376493
376728
376839
376876
376890
376681
376272
375626
374798
373719
372393
370815
368990
366924
364629
362125
359424
356514
353429
350190
346810
343293
339650
335896
332023
328008
323877
319637
315307
310914
306150
301509
296759
291916
286993
281988
276929
271808
266630
261409
256146
250873
245593
240312
235042
229781
224472
219127
213817
208759
203888
199028
194155
189309
184485
179798
175274
170905
166687
162628
158716
154936
151297
147812
144479
141315
138315
135485
132845
130344
127998
125797
123740
121833
120061
118423
116894
115486
114180
112931
111760
110630
109589
108616
107748
106977
106334
105829
105364
104977
104833
104847
104850
104893
105106
105332
105653
105737
105634
105294
104812
104415
104192
103275
102848
102610
346688
348930
353411
357774
361689
364896
367377
369214
370531
371468
372162
372715
373203
373663
374101
374531
374976
375482
376044
376580
376872
377010
377085
377116
376934
376547
375959
375103
373990
372616
370983
369098
366973
364619
362049
359277
356313
353178
349884
346454
342894
339212
335413
331495
327455
323301
319038
314669
310196
305590
300891
296096
291225
286304
281046
275888
270698
265447
260169
254871
249549
244205
238859
233526
228202
222934
217705
212539
207211
201934
196807
192034
187430
182967
178527
174112
169768
165506
161327
157322
153512
149897
146478
143249
140190
137295
134564
132026
129649
127425
125382
123466
121675
119980
118405
116934
115554
114260
113034
111903
110856
109930
109079
108312
107648
107044
106565
106129
105874
105737
105767
105813
105830
105922
106126
106708
106904
106859
106684
106311
105762
105262
104039
103766
103676
343435
345127
349447
353697
357543
360825
363505
365634
367315
368662
369773
370726
371571
372340
373054
373736
374428
375158
375894
376550
377022
377297
377424
377463
377412
377057
376472
375607
374466
373047
371349
369385
367171
364730
362090
359253
356230
353041
349704
346228
342634
338926
335107
331175
327129
322971
318699
314315
309814
305193
300462
295624
290682
285645
280508
275289
270011
264711
259423
253782
248384
243039
237693
232371
227048
221758
216475
211240
206066
200967
195897
190670
185527
180633
176107
171777
167573
163499
159597
155818
152167
148648
145254
142036
139047
136280
133711
131319
129080
126980
125009
123143
121400
119780
118269
116822
115484
114231
113060
111974
110962
110054
109228
108489
107861
107303
106875
106583
106388
106392
106418
106493
106500
106535
106710
107184
108228
108325
108263
108037
107516
106387
105781
105157
104643
340161
341345
345537
349594
353335
356643
359478
361873
363898
365628
367128
368453
369640
370722
371727
372689
373657
374644
375604
376455
377153
377533
377766
377864
377887
377613
377027
376131
374914
373401
371610
369554
367257
364731
361993
359061
355948
352676
349269
345744
342102
338365
334528
330588
326539
322381
318112
313728
309226
304605
299867
295007
290023
284919
279703
274404
269048
263669
258296
252920
247539
242161
236813
231535
225640
220344
215016
209726
204495
199325
194233
189257
184380
179525
174588
169785
165311
161213
157335
153613
150053
146696
143586
140683
137929
135315
132836
130501
128337
126331
124461
122716
121075
119502
118009
116597
115276
114037
112835
111636
110606
109760
108951
108206
107573
107034
106627
106359
106158
106140
106151
106192
106283
106445
106796
107604
109304
109454
109418
109240
108799
107911
107273
106538
105898
337120
337844
341998
345922
349570
352879
355824
358420
360708
362733
364537
366156
367627
368985
370268
371524
372786
374044
375236
376291
377172
377750
378025
378138
378169
377979
377355
376408
375085
373439
371533
369362
366949
364301
361449
358405
355178
351795
348293
344700
341021
337257
333402
329461
325417
321274
317035
312690
308230
303646
298931
294073
289073
283937
278686
273348
267963
262570
257194
251832
246485
241132
235772
230398
224989
219555
214147
208813
203062
197716
192505
187392
182424
177617
172969
168481
164001
159527
155268
151462
148038
144842
141826
138997
136372
133956
131734
129664
127691
125796
123972
122212
120549
118991
117522
116140
114825
113563
112337
111183
110138
109177
108284
107505
106873
106368
105996
105768
105609
105600
105612
105664
105796
106076
106674
107920
109206
109612
109602
109501
109217
108627
108242
107991
107340
334074
334528
338817
342641
346255
349596
352642
355394
357873
360104
362119
363953
365649
367252
368812
370368
371919
373415
374788
376014
377075
377645
377918
378029
378059
377846
377132
376073
374677
372869
370785
368499
365970
363204
360223
357033
353659
350128
346487
342810
339060
335235
331329
327326
323218
319047
314814
310500
306072
301520
296833
292000
287038
281950
276758
271484
266172
260875
255611
250354
245076
239740
234363
228927
223445
217953
212478
207048
201666
196320
191069
185982
180453
175561
170838
166300
161975
157896
154028
150184
146470
143041
140151
137535
135095
132795
130633
128609
126715