/*--------------------------------*- C++ -*----------------------------------*\
| =========                 |                                                 |
| \\      /  F ield         | OpenFOAM: The Open Source CFD Toolbox           |
|  \\    /   O peration     | Version:  2112                                  |
|   \\  /    A nd           | Website:  www.openfoam.com                      |
|    \\/     M anipulation  |                                                 |
\*---------------------------------------------------------------------------*/
FoamFile
{
    version     2.0;
    format      ascii;
    arch        "LSB;label=32;scalar=64";
    class       volScalarField;
    location    "0.00946";
    object      nut;
}
// * * * * * * * * * * * * * * * * * * * * * * * * * * * * * * * * * * * * * //

dimensions      [0 2 -1 0 0 0 0];

internalField   nonuniform List<scalar> 
13875
(
0.0511675
0.0366255
0.0343661
0.0343287
0.0342993
0.0343363
0.0342968
0.0342829
0.0342959
0.0342905
0.034289
0.0342973
0.0343237
0.0343416
0.0343303
0.0342933
0.0342675
0.0342897
0.0343025
0.0343264
0.0343038
0.0343344
0.0343816
0.0365678
0.0514313
0.0532618
0.0341198
0.0322226
0.0321068
0.0320651
0.0320859
0.0320473
0.0320335
0.0320436
0.0320288
0.0320229
0.0320487
0.0320553
0.0320725
0.0320604
0.032047
0.0320036
0.0320345
0.032046
0.0320757
0.0320636
0.0321024
0.0322282
0.0340554
0.0536405
0.0564568
0.0335616
0.0318032
0.0315935
0.0315725
0.0315773
0.0314873
0.0314523
0.0314564
0.0314391
0.0314267
0.0314608
0.0315314
0.0315559
0.0315347
0.0314646
0.031408
0.0314453
0.031478
0.0315675
0.0315644
0.0315802
0.0317947
0.0334957
0.0565959
0.0590704
0.0332327
0.0314899
0.0312779
0.0312661
0.0312633
0.031158
0.0311085
0.0311122
0.0311057
0.0310865
0.0311099
0.0312145
0.03124
0.0312183
0.0311168
0.0310728
0.0311025
0.0311465
0.0312538
0.0312553
0.0312625
0.0314851
0.0331697
0.0591435
0.0611257
0.033004
0.0312468
0.0310044
0.0309893
0.0309821
0.0308681
0.0308154
0.0308246
0.0308215
0.0307991
0.0308191
0.0309256
0.0309545
0.0309299
0.0308272
0.0307864
0.0308147
0.0308594
0.0309685
0.0309767
0.0309898
0.0312305
0.0329192
0.0612556
0.0628183
0.0328481
0.03109
0.0307728
0.0307569
0.0307333
0.0306057
0.0305508
0.0305632
0.0305624
0.0305367
0.0305538
0.0306629
0.0306947
0.0306678
0.0305626
0.030526
0.0305533
0.0305999
0.0307199
0.0307437
0.0307612
0.0310593
0.0328222
0.0629722
0.0648267
0.033073
0.0311046
0.0306338
0.0305726
0.0305259
0.0303762
0.0303152
0.0303277
0.0303281
0.0302999
0.0303144
0.0304263
0.0304586
0.0304287
0.0303219
0.0302929
0.0303204
0.0303761
0.030512
0.0305601
0.0306333
0.0311136
0.0330702
0.0648676
0.067093
0.0339363
0.0314254
0.030651
0.0304885
0.0303748
0.0301906
0.0301146
0.0301226
0.0301216
0.0300921
0.0301002
0.0302164
0.0302516
0.030219
0.0301078
0.030089
0.0301205
0.0301898
0.0303572
0.0304673
0.0306299
0.0313926
0.033896
0.0673624
0.0736444
0.0362957
0.0320406
0.0308456
0.0304769
0.0302821
0.0300452
0.029952
0.0299567
0.0299519
0.0299221
0.0299233
0.0300441
0.0300828
0.0300493
0.0299346
0.0299228
0.0299579
0.0300443
0.0302598
0.0304503
0.0308023
0.0319355
0.0359999
0.074195
0.0828972
0.03847
0.0327354
0.0311888
0.0305806
0.03024
0.029968
0.02987
0.029863
0.02985
0.0298228
0.0298201
0.0299394
0.0299818
0.0299498
0.0298459
0.0298322
0.0298727
0.0299656
0.0302204
0.0305504
0.0310809
0.0326234
0.0381051
0.0835475
0.0907119
0.0441327
0.0346479
0.0319942
0.0308161
0.0303506
0.0300338
0.0299062
0.0298744
0.0298486
0.0298214
0.0298163
0.0299283
0.0299732
0.0299506
0.0298714
0.0298556
0.0299033
0.0300356
0.0303043
0.0307946
0.0318815
0.0343625
0.0432641
0.0893472
0.0950446
0.0545204
0.0403639
0.0334455
0.0318681
0.030829
0.0303265
0.0301364
0.0300617
0.0300194
0.0299894
0.0299858
0.0300804
0.0301281
0.0301206
0.030072
0.0300637
0.0301365
0.0303219
0.0308369
0.0318001
0.033228
0.0398464
0.0533641
0.0942573
0.0865829
0.0688004
0.0515639
0.0417548
0.0343751
0.0319252
0.0312844
0.0308261
0.0306401
0.0305484
0.0304998
0.0304906
0.0305617
0.0306097
0.0306255
0.0306229
0.0306763
0.0308704
0.0313316
0.0320048
0.0347651
0.0415764
0.0509417
0.068767
0.0866007
0.0795757
0.0659572
0.0581263
0.0657129
0.041681
0.0372333
0.0336716
0.0324323
0.0320362
0.0319699
0.0319287
0.0319204
0.0319827
0.0320276
0.032058
0.0320879
0.0321402
0.0325348
0.0340803
0.0382603
0.0432108
0.0657117
0.0578303
0.0661726
0.0816096
0.075298
0.0642808
0.0565753
0.0606678
0.0560624
0.0540823
0.0444756
0.038827
0.0367393
0.0358847
0.0354958
0.0353724
0.0353948
0.0354502
0.035561
0.035861
0.0366627
0.0388985
0.0451654
0.0552308
0.0557414
0.0612509
0.0565998
0.0641532
0.0746625
0.0671421
0.0618361
0.0543222
0.0573329
0.0560103
0.0572117
0.0545491
0.0530823
0.0508195
0.0483617
0.0474684
0.0471344
0.0470478
0.0471258
0.0472853
0.0477749
0.0504027
0.0542892
0.0554569
0.057723
0.0556154
0.0580121
0.0543135
0.0614966
0.0664796
0.0623853
0.0582003
0.0524926
0.0551024
0.0568034
0.06117
0.0680825
0.0729021
0.070007
0.0707629
0.0730215
0.0744962
0.07526
0.0749299
0.0733747
0.072522
0.0699656
0.0728141
0.0686803
0.0612157
0.0562994
0.0553048
0.0519674
0.057577
0.0624374
0.0569888
0.0546923
0.0531267
0.0569409
0.059916
0.0629511
0.0709077
0.0791501
0.074302
0.070422
0.0692523
0.0693841
0.0698994
0.0696153
0.0697302
0.0725787
0.0738679
0.0767228
0.0708755
0.0642003
0.0609373
0.0576561
0.052836
0.054267
0.0567901
0.0513694
0.0541829
0.0559451
0.0619141
0.0668947
0.0647254
0.0673793
0.0752291
0.0742713
0.0704868
0.0687063
0.0683024
0.0684162
0.0688787
0.0698085
0.0716938
0.0728422
0.07313
0.0677379
0.0667187
0.0697201
0.0630693
0.0562848
0.0544204
0.0521601
0.0493888
0.0574097
0.0604367
0.0657937
0.0686305
0.0644389
0.0639166
0.0695793
0.0718014
0.0704091
0.0687274
0.0672112
0.0664759
0.0680444
0.0700042
0.0709221
0.0699172
0.067835
0.0645566
0.0665627
0.070788
0.066488
0.0609093
0.0576658
0.0487915
0.077592
0.0889316
0.077545
0.0653008
0.064945
0.0614721
0.0606945
0.0655871
0.069319
0.06942
0.0676528
0.0652246
0.0640467
0.0663465
0.069009
0.0694903
0.0672408
0.0641175
0.061472
0.0634975
0.0668061
0.0669297
0.0799464
0.0918892
0.0823705
0.128511
0.161884
0.090234
0.062021
0.0608165
0.0584629
0.0580356
0.0626029
0.0668991
0.0677576
0.0659032
0.062846
0.0613867
0.0640993
0.0672535
0.0675835
0.0647752
0.061398
0.0587344
0.0602415
0.0623546
0.0638039
0.0931668
0.16549
0.134558
0.152932
0.146278
0.0842897
0.0591523
0.0574526
0.0558902
0.0556719
0.0601607
0.0646032
0.0657403
0.0637155
0.0603328
0.0586806
0.0615149
0.0650165
0.0655043
0.062487
0.0591117
0.0562458
0.057317
0.0587049
0.0607122
0.083939
0.144498
0.153529
0.161453
0.14657
0.0768147
0.0569653
0.0546494
0.0535708
0.0536356
0.0579289
0.0623737
0.0635589
0.0613068
0.0577287
0.056105
0.0589897
0.0627164
0.0634174
0.0602463
0.0568612
0.0541718
0.0548408
0.0558914
0.0585839
0.0777625
0.150613
0.160764
0.167252
0.147483
0.0727355
0.0553909
0.0525885
0.0516173
0.0519835
0.0559565
0.0602021
0.0612999
0.0589511
0.0553132
0.0537189
0.0565809
0.0604307
0.0612434
0.058165
0.054854
0.0523761
0.0527324
0.053852
0.0570376
0.0744745
0.154381
0.167597
0.174521
0.151417
0.0699936
0.0539131
0.0509906
0.0499663
0.0506337
0.0542297
0.0581341
0.0590887
0.0567378
0.053097
0.0515254
0.0542817
0.0581228
0.0590543
0.0562458
0.0530942
0.0507934
0.05083
0.0521674
0.0553561
0.071545
0.157198
0.177273
0.184372
0.147397
0.0667862
0.0525046
0.0497595
0.0486251
0.049497
0.0527129
0.0561326
0.056802
0.0544908
0.051026
0.0495412
0.0522518
0.0560135
0.056983
0.0544962
0.0515541
0.0494246
0.0493089
0.0509288
0.0540172
0.0690115
0.155478
0.184389
0.190093
0.146672
0.0648847
0.0514404
0.0488125
0.04758
0.0485006
0.0513493
0.0543082
0.0547488
0.0525083
0.0491786
0.0477394
0.050325
0.0539457
0.0549974
0.0528974
0.050222
0.0482748
0.0481048
0.0498182
0.0527909
0.0671802
0.155851
0.191983
0.195096
0.148786
0.0637961
0.0505703
0.0480302
0.0468352
0.047635
0.0501127
0.0526203
0.0528251
0.0506899
0.0475217
0.0461065
0.0485522
0.051954
0.0530478
0.0513871
0.0490241
0.0472718
0.0471254
0.0488168
0.0517244
0.0652958
0.151155
0.199968
0.202016
0.145887
0.0628523
0.0498732
0.0472553
0.0462423
0.0469728
0.0490096
0.0509937
0.0509374
0.0488945
0.0459491
0.0446289
0.0470135
0.0502809
0.0513746
0.0500209
0.0479567
0.0464476
0.0463574
0.0479037
0.0509539
0.0646195
0.151792
0.203742
0.204192
0.141884
0.0622938
0.0494616
0.0465712
0.0456793
0.0463542
0.0479987
0.0495398
0.0492752
0.047349
0.0445736
0.0432901
0.0455605
0.048624
0.0497227
0.0487463
0.0470289
0.0457799
0.0456733
0.0470237
0.0503376
0.0636869
0.146722
0.209058
0.206641
0.141688
0.06222
0.0493406
0.0459504
0.0451085
0.0457655
0.0470968
0.0482466
0.0478207
0.0459736
0.0433218
0.0420863
0.0442174
0.0471397
0.0482781
0.0475947
0.0461964
0.0451505
0.0450001
0.0462438
0.0500132
0.0631165
0.143899
0.21158
0.210826
0.137229
0.0619214
0.0494073
0.0454763
0.0446384
0.0451714
0.0462425
0.0469801
0.046387
0.044636
0.0421657
0.0409988
0.043071
0.0458476
0.046966
0.0465286
0.0454321
0.0445207
0.044419
0.0456591
0.0499588
0.0631777
0.143456
0.213351
0.211946
0.134783
0.061756
0.0497115
0.0451726
0.0441975
0.0445321
0.045446
0.0458672
0.0451635
0.0434913
0.041129
0.0400159
0.0419555
0.04462
0.0457635
0.0455427
0.0447337
0.0439048
0.0438957
0.0452415
0.0500881
0.0633022
0.139864
0.216021
0.213005
0.134122
0.0614391
0.0500754
0.0452141
0.0437972
0.0439436
0.0446612
0.0448421
0.0440313
0.0424434
0.0402003
0.0391273
0.0409689
0.0434879
0.0446371
0.0446214
0.0440315
0.0433365
0.0435049
0.0451437
0.0504362
0.0629552
0.137497
0.216886
0.215224
0.132061
0.0610198
0.0504526
0.0454639
0.0434863
0.0433919
0.0438845
0.0438725
0.0429911
0.0414501
0.0393162
0.0383181
0.0400797
0.0425349
0.0436791
0.043779
0.0433321
0.0428161
0.0431475
0.0453546
0.0509266
0.0627436
0.137849
0.217761
0.215628
0.132218
0.060851
0.0512527
0.0459305
0.0433059
0.0429067
0.0431541
0.0429644
0.0420506
0.0405752
0.0385445
0.0375823
0.0392557
0.0415879
0.0427312
0.0429536
0.0426824
0.0423439
0.0429182
0.0457496
0.0516748
0.0622941
0.136447
0.219159
0.21561
0.134831
0.060715
0.0520206
0.0465497
0.0433437
0.0424509
0.0424713
0.0421314
0.0412149
0.039797
0.0378233
0.0369087
0.0384876
0.0407572
0.0418904
0.0421738
0.0420799
0.0419035
0.0429293
0.0463954
0.0524447
0.0618344
0.137546
0.219135
0.215979
0.13498
0.0601773
0.052221
0.0474075
0.043596
0.0421138
0.041852
0.0413335
0.0403901
0.0390267
0.0371587
0.0363001
0.0378261
0.0400078
0.0411116
0.0414657
0.0415388
0.0415665
0.0431241
0.0473035
0.0527811
0.0613901
0.140526
0.218814
0.215079
0.137143
0.0596821
0.0522215
0.0484885
0.0440329
0.0419384
0.0413203
0.0406363
0.0396799
0.0383692
0.0365547
0.0357347
0.0371692
0.039302
0.0403891
0.0408057
0.0410843
0.0414263
0.0435517
0.0482602
0.0526652
0.0608718
0.141708
0.218656
0.214562
0.139767
0.0595128
0.0521177
0.0498846
0.0446791
0.0419661
0.0409341
0.0400267
0.0390223
0.037749
0.0360029
0.0352185
0.036578
0.0386244
0.0397186
0.0402354
0.0407497
0.0415029
0.0441872
0.0498825
0.0525522
0.0605179
0.143868
0.217522
0.214725
0.14164
0.0592153
0.0516979
0.0505732
0.0455118
0.0421327
0.0407528
0.0395241
0.038427
0.0371681
0.0354711
0.0347345
0.0360419
0.0380613
0.0391474
0.0397771
0.0405858
0.0416924
0.0451438
0.0510053
0.0523766
0.0610434
0.146538
0.21684
0.213995
0.14397
0.0592214
0.0511569
0.0505814
0.0468294
0.0425117
0.0407346
0.0391763
0.0379176
0.0366484
0.0349973
0.0342903
0.0355332
0.0374898
0.0386137
0.0394234
0.0406011
0.0420862
0.0463745
0.0510496
0.0518132
0.0609031
0.148447
0.2167
0.213462
0.146427
0.0602801
0.050652
0.0502137
0.0485661
0.0432155
0.0408076
0.0390171
0.0375361
0.0362053
0.0345545
0.0338745
0.0350597
0.0369856
0.0381832
0.0392379
0.0407296
0.042872
0.0483682
0.0507251
0.0512393
0.0613298
0.150635
0.216004
0.213226
0.148568
0.0602874
0.0501156
0.0496059
0.0495093
0.0445136
0.0410712
0.0389568
0.0372846
0.0358198
0.034161
0.0335046
0.0346587
0.0366007
0.0379007
0.0391881
0.0410421
0.0443783
0.049586
0.0501532
0.0508774
0.0625823
0.152901
0.215513
0.212287
0.150458
0.0615157
0.0498248
0.0489319
0.0492084
0.0466963
0.0417589
0.0390388
0.0372099
0.0355928
0.0338667
0.0331942
0.0343323
0.0363291
0.0377854
0.0392383
0.0417235
0.0465407
0.0493505
0.0494647
0.0504384
0.0631206
0.154891
0.215129
0.2112
0.15237
0.0631201
0.0497544
0.0483547
0.0487174
0.0479639
0.0434062
0.0392878
0.0371806
0.0355013
0.0337023
0.0329328
0.0341345
0.0361966
0.0377538
0.0394488
0.0433218
0.0480078
0.0488513
0.0488274
0.0502026
0.0639434
0.156756
0.214075
0.209185
0.153467
0.0638141
0.0496647
0.0478661
0.0480569
0.0476979
0.0457049
0.0400891
0.037238
0.0354704
0.0336395
0.0328026
0.0340613
0.0361633
0.0378264
0.0402568
0.0457446
0.0478648
0.0481762
0.0483198
0.0502575
0.0655528
0.158091
0.211746
0.205772
0.153506
0.0647176
0.0497483
0.0474814
0.0473573
0.047265
0.047259
0.0418621
0.0375463
0.0355236
0.033638
0.0327941
0.0340453
0.0361838
0.0380914
0.0419387
0.0475082
0.0474434
0.0474173
0.0478662
0.0502745
0.0660873
0.158204
0.208397
0.196855
0.150271
0.0655127
0.049844
0.0471824
0.0467501
0.0467163
0.0470996
0.0444891
0.0386672
0.0357422
0.0336844
0.0328115
0.0340754
0.0363415
0.039091
0.0445754
0.0474767
0.0469005
0.0467983
0.0474947
0.0502681
0.0663833
0.154856
0.199461
0.385345
1.57767
2.09288
2.06619
1.85635
1.64219
1.45917
1.29732
1.14063
0.981646
0.824656
0.686861
0.578593
0.50273
0.452335
0.420301
0.398844
0.383325
0.371149
0.358731
0.346599
0.334293
0.319831
0.302963
0.28388
0.261675
0.234827
0.199536
0.151478
0.10761
0.370118
1.65924
2.15406
2.0928
1.8675
1.65066
1.46916
1.31042
1.15877
1.00654
0.854475
0.7171
0.603896
0.522038
0.466351
0.42945
0.404895
0.387008
0.371215
0.357222
0.344477
0.331035
0.315635
0.298515
0.279189
0.257032
0.230163
0.194885
0.147647
0.106165
0.396083
1.82471
2.22026
2.12237
1.88548
1.66702
1.48778
1.33131
1.1829
1.03453
0.885625
0.747818
0.630492
0.541817
0.479799
0.437278
0.408054
0.386298
0.368301
0.353312
0.339932
0.325022
0.30971
0.292635
0.273341
0.251385
0.224784
0.189899
0.144008
0.104813
0.416927
1.90855
2.28763
2.16959
1.92214
1.69958
1.51983
1.36425
1.21881
1.07394
0.927263
0.788516
0.666247
0.569143
0.497581
0.447916
0.413334
0.3877
0.367264
0.351198
0.335987
0.320662
0.305095
0.287862
0.268594
0.246657
0.220036
0.185415
0.140901
0.103676
0.424994
1.98011
2.36459
2.23121
1.97274
1.74514
1.56397
1.40992
1.26776
1.12565
0.980092
0.838504
0.709837
0.602136
0.519961
0.461176
0.420225
0.390257
0.3678
0.34965
0.332465
0.316945
0.301155
0.283617
0.264519
0.242621
0.215921
0.181396
0.138002
0.102656
0.432775
2.05953
2.44877
2.30135
2.03209
1.79919
1.61823
1.46608
1.32668
1.18613
1.04085
0.896894
0.761686
0.643813
0.549764
0.480487
0.431225
0.396156
0.370087
0.349052
0.330665
0.314431
0.297656
0.280296
0.26111
0.239122
0.212268
0.17782
0.135468
0.101786
0.442288
2.14265
2.53775
2.37962
2.09932
1.86202
1.68149
1.53235
1.39448
1.25586
1.1111
0.964818
0.82286
0.694597
0.58816
0.506808
0.447579
0.405109
0.374013
0.349544
0.329783
0.312011
0.29486
0.277308
0.257977
0.235844
0.20886
0.1745
0.133141
0.100988
0.45269
2.22784
2.63203
2.4668
2.17564
1.93373
1.75432
1.60798
1.4721
1.33553
1.19177
1.04309
0.895474
0.757794
0.638698
0.543506
0.471666
0.419161
0.381233
0.352407
0.330206
0.310679
0.292949
0.274664
0.255234
0.2328
0.205656
0.171397
0.130996
0.100325
0.462955
2.3127
2.73281
2.56348
2.26362
2.01632
1.8375
1.69329
1.55976
1.42567
1.28355
1.13378
0.981807
0.835512
0.703307
0.592475
0.505037
0.439648
0.392403
0.35791
0.33196
0.310374
0.291475
0.272586
0.252737
0.229895
0.202594
0.168431
0.129047
0.0996349
0.471792
2.39802
2.83883
2.67012
2.36463
2.11127
1.93159
1.789
1.65752
1.52598
1.38537
1.23573
1.08121
0.927481
0.782719
0.65515
0.549827
0.468495
0.409073
0.36661
0.335737
0.31154
0.290813
0.271198
0.250639
0.227193
0.199676
0.165652
0.127306
0.0991202
0.47995
2.48153
2.94991
2.78664
2.4781
2.21909
2.03698
1.89522
1.76517
1.63552
1.49548
1.34675
1.19106
1.03147
0.875575
0.731767
0.607442
0.507492
0.433201
0.38024
0.342614
0.314315
0.29127
0.270609
0.248651
0.224794
0.196906
0.163039
0.125757
0.0987606
0.487703
2.56589
3.06582
2.91101
2.6022
2.33916
2.15358
2.01116
1.88147
1.75268
1.6135
1.46602
1.30892
1.14448
0.979821
0.821894
0.679236
0.559385
0.467296
0.400739
0.35376
0.319291
0.293084
0.270435
0.247146
0.222679
0.194415
0.160688
0.124294
0.0984332
0.496506
2.6518
3.18395
3.04125
2.73471
2.46972
2.28021
2.13414
2.00459
1.87519
1.73918
1.59321
1.43518
1.26656
1.09474
0.925045
0.765949
0.625976
0.51362
0.429853
0.370047
0.327477
0.296458
0.27086
0.246417
0.221098
0.192329
0.158447
0.122809
0.0980027
0.504303
2.74072
3.3015
3.17459
2.87393
2.60817
2.41378
2.26239
2.13207
2.00426
1.87193
1.72751
1.56867
1.39733
1.21947
1.04034
0.866998
0.708217
0.573603
0.468822
0.392833
0.339388
0.301776
0.272685
0.246537
0.220205
0.190757
0.156889
0.121847
0.0977766
0.511711
2.82636
3.41598
3.30911
3.01862
2.75256
2.55182
2.39507
2.26374
2.13931
2.01057
1.86805
1.709
1.53592
1.35379
1.16705
0.981033
0.804619
0.647231
0.519401
0.423587
0.35597
0.30993
0.276335
0.247829
0.21995
0.189672
0.155886
0.12115
0.097771
0.517576
2.9052
3.52632
3.44307
3.16618
2.89991
2.69307
2.53205
2.40125
2.2801
2.15466
2.01437
1.85637
1.6831
1.49781
1.30427
1.1075
0.915362
0.736868
0.583451
0.464542
0.379207
0.322047
0.28214
0.25009
0.220398
0.189166
0.155203
0.120625
0.0978756
0.524062
2.9745
3.63028
3.57167
3.31248
3.04741
2.83714
2.67356
2.54363
2.42552
2.30316
2.16568
2.00965
1.83743
1.64971
1.45092
1.2449
1.03853
0.841302
0.66337
0.518682
0.411653
0.339747
0.290506
0.253893
0.22169
0.189211
0.154645
0.12013
0.0980792
0.530176
3.03388
3.72529
3.69156
3.45256
3.1936
2.98318
2.81977
2.6907
2.57505
2.45532
2.32115
2.16811
1.99737
1.80841
1.60566
1.39202
1.17346
0.960414
0.760123
0.587922
0.455234
0.364141
0.30302
0.259786
0.224196
0.18994
0.154381
0.11968
0.0982754
0.534575
3.07903
3.80278
3.79798
3.58157
3.33652
3.12976
2.97081
2.84353
2.72978
2.61176
2.48071
2.33158
2.16249
1.97304
1.76736
1.54826
1.32009
1.09242
0.872419
0.67307
0.511898
0.397263
0.320422
0.268242
0.228054
0.191543
0.1547
0.119548
0.0985834
0.53726
3.10975
3.85448
3.88388
3.69477
3.47375
3.27876
3.1261
3.00092
2.88869
2.77304
2.64495
2.50009
2.33283
2.14297
1.93497
1.71138
1.47556
1.23426
0.997148
0.773688
0.582919
0.440549
0.343684
0.279893
0.233715
0.193954
0.155333
0.119642
0.0989226
0.540562
3.11629
3.87174
3.93851
3.78814
3.6029
3.42879
3.28438
3.1626
3.05297
2.94059
2.81613
2.67442
2.50893
2.31889
2.10881
1.88038
1.63738
1.384
1.13189
0.888167
0.668587
0.495405
0.374288
0.295371
0.241382
0.197343
0.156407
0.119743
0.0992451
0.541822
3.10085
3.84353
3.94943
3.85605
3.71958
3.5771
3.44504
3.32931
3.22408
3.11613
2.99609
2.85625
2.69227
2.50195
2.28881
2.05476
1.80426
1.54015
1.27422
1.01237
0.767012
0.562272
0.413128
0.315073
0.250549
0.201332
0.15781
0.119881
0.0995783
0.544527
3.03176
3.74223
3.89269
3.88733
3.81917
3.71838
3.60563
3.50069
3.40274
3.3009
3.18477
3.04721
2.88412
2.69222
2.47431
2.23388
1.97584
1.70232
1.42303
1.14333
0.875717
0.641463
0.461564
0.340202
0.261979
0.206148
0.159589
0.12002
0.0998381
0.540702
2.84908
3.50092
3.74481
3.87055
3.89383
3.84818
3.76427
3.67599
3.58822
3.49344
3.38263
3.24754
3.0844
2.88912
2.66466
2.41763
2.15238
1.87008
1.57819
1.28279
0.996977
0.735427
0.522919
0.37352
0.277737
0.213111
0.16231
0.120393
0.100094
0.527491
2.25259
2.92841
3.42642
3.77447
3.92902
3.95723
3.91526
3.85171
3.77854
3.69315
3.58864
3.4568
3.29242
3.09229
2.86038
2.60587
2.33231
2.04185
1.73981
1.43196
1.13035
0.843645
0.598636
0.417228
0.29904
0.222609
0.165903
0.12112
0.10037
0.107093
0.150556
0.19892
0.234717
0.262046
0.28457
0.30393
0.320121
0.333842
0.345719
0.357183
0.36863
0.381476
0.397573
0.419643
0.452553
0.503522
0.582344
0.694349
0.836232
0.996846
1.15782
1.31564
1.48081
1.66575
1.88243
2.09738
2.12138
1.59271
0.387871
0.105783
0.147087
0.194384
0.230032
0.257172
0.279887
0.299473
0.316635
0.331023
0.344501
0.357506
0.369762
0.384012
0.402459
0.427788
0.465578
0.522099
0.605457
0.720722
0.860617
1.01289
1.16721
1.32154
1.48201
1.67031
1.89122
2.12101
2.18082
1.67361
0.372629
0.104482
0.143745
0.189639
0.224901
0.251719
0.274181
0.29361
0.310598
0.326017
0.340093
0.354297
0.369501
0.386144
0.407092
0.435783
0.478436
0.541026
0.630237
0.747585
0.885937
1.03518
1.18521
1.33469
1.49274
1.68024
1.90869
2.14808
2.2468
1.84015
0.398467
0.103461
0.140763
0.185519
0.220353
0.24727
0.269587
0.289004
0.305988
0.321819
0.337305
0.352366
0.369457
0.388958
0.413795
0.44765
0.496415
0.566946
0.663544
0.784842
0.922965
1.06977
1.21599
1.36274
1.51848
1.70595
1.94141
2.19364
2.31201
1.92317
0.419525
0.102468
0.138037
0.181474
0.216188
0.243293
0.265612
0.285096
0.302044
0.318034
0.334304
0.350486
0.369316
0.391828
0.420815
0.460631
0.517965
0.598172
0.704507
0.83215
0.971829
1.11676
1.26039
1.40545
1.5595
1.74529
1.98422
2.25223
2.38773
1.99358
0.427358
0.101606
0.135591
0.177944
0.212557
0.239828
0.262365
0.281619
0.299055
0.315487
0.332566
0.350392
0.371365
0.397465
0.431722
0.47909
0.546097
0.638019
0.753824
0.887695
1.03003
1.17436
1.31529
1.45676
1.61133
1.79599
2.03615
2.31912
2.47033
2.07227
0.434764
0.100824
0.133352
0.174698
0.209424
0.236807
0.259353
0.278703
0.296509
0.313611
0.331634
0.351614
0.37532
0.405988
0.447133
0.504095
0.582507
0.686337
0.812394
0.952617
1.09759
1.24165
1.38188
1.5201
1.67079
1.85535
2.09958
2.39446
2.55751
2.15521
0.444839
0.100179
0.131243
0.171949
0.206503
0.234107
0.256816
0.276465
0.294829
0.312677
0.331995
0.354433
0.382315
0.419309
0.469826
0.538928
0.630624
0.746632
0.882173
1.02865
1.17623
1.31961
1.45721
1.5936
1.74226
1.92612
2.17351
2.4759
2.64968
2.23985
0.454718
0.0995805
0.129441
0.169272
0.203635
0.231425
0.254455
0.274649
0.293729
0.312514
0.333675
0.359389
0.392871
0.43859
0.501422
0.585544
0.692923
0.822183
0.966411
1.11679
1.26631
1.40882
1.54355
1.67789
1.8241
2.00725
2.26082
2.57028
2.74925
2.32493
0.465246
0.0989568
0.127866
0.166724
0.200879
0.228917
0.252542
0.273404
0.293097
0.313647
0.337498
0.367745
0.408645
0.46575
0.543988
0.645675
0.770137
0.912703
1.06486
1.21785
1.36784
1.50922
1.64127
1.77318
1.91723
2.10146
2.36169
2.67526
2.85444
2.40989
0.474188
0.0984624
0.12635
0.164326
0.198273
0.22651
0.250749
0.272473
0.29352
0.31632
0.344072
0.380685
0.431477
0.50293
0.599279
0.719967
0.861304
1.01598
1.17493
1.32968
1.47846
1.61876
1.74902
1.8793
2.02183
2.20835
2.47429
2.78995
2.9645
2.4934
0.482258
0.0979958
0.12477
0.161923
0.196156
0.224467
0.249408
0.272313
0.295236
0.321264
0.354421
0.40011
0.464042
0.552851
0.669093
0.808688
0.964845
1.12917
1.29352
1.44981
1.59707
1.7353
1.86411
1.99509
2.13764
2.32731
2.59766
2.91313
3.07893
2.57798
0.490575
0.0977525
0.123636
0.160115
0.194262
0.223199
0.248697
0.273145
0.298648
0.329332
0.370245
0.428025
0.508859
0.617867
0.75467
0.911703
1.08027
1.25206
1.42063
1.57865
1.72471
1.85988
1.98648
2.1185
2.26374
2.45679
2.73002
3.04339
3.197
2.66351
0.499189
0.0976039
0.122769
0.158735
0.192891
0.222404
0.248979
0.275075
0.304093
0.341136
0.392587
0.466157
0.567748
0.699216
0.855776
1.02787
1.20665
1.38442
1.5561
1.71528
1.8602
1.99212
2.11664
2.24877
2.39809
2.5956
2.86963
3.17762
3.31573
2.7523
0.507096
0.0975406
0.122111
0.157725
0.192066
0.222248
0.250169
0.278492
0.312101
0.35735
0.422687
0.515868
0.64114
0.796031
0.970973
1.15595
1.34268
1.52497
1.6986
1.85819
2.00138
2.13013
2.25219
2.38405
2.53809
2.7407
3.01427
3.31241
3.43087
2.84036
0.514647
0.0975663
0.121578
0.156944
0.191682
0.222837
0.252522
0.284119
0.323621
0.379572
0.462312
0.57866
0.729748
0.907358
1.09936
1.29571
1.48908
1.67458
1.84812
2.00659
2.14743
2.27265
2.3919
2.52257
2.68169
2.89012
3.16268
3.44754
3.54134
2.92086
0.520772
0.0977092
0.121138
0.156492
0.191707
0.224129
0.255958
0.292184
0.340009
0.409846
0.513816
0.656264
0.833101
1.0312
1.23912
1.44512
1.6438
1.83148
2.00366
2.1596
2.29718
2.41879
2.53453
2.66394
2.82733
3.04053
3.31107
3.57839
3.64617
2.99163
0.527368
0.0980679
0.120959
0.156496
0.192316
0.226421
0.261365
0.303145
0.362175
0.450532
0.579489
0.749784
0.950333
1.16598
1.38689
1.60102
1.80416
1.99297
2.16354
2.31584
2.44948
2.56855
2.68205
2.80989
2.97439
3.18932
3.45416
3.70108
3.7428
3.05287
0.533799
0.0983927
0.120838
0.156672
0.193785
0.229839
0.268662
0.318547
0.392102
0.503033
0.660193
0.8583
1.07976
1.31055
1.541
1.76171
1.96855
2.15805
2.32699
2.47491
2.60505
2.7228
2.8354
2.96133
3.12172
3.3345
3.58676
3.81097
3.8229
3.09976
0.538392
0.0987026
0.12057
0.157036
0.19584
0.234576
0.278671
0.339307
0.431138
0.568686
0.755889
0.978664
1.21747
1.46194
1.70006
1.92631
2.13614
2.32693
2.49393
2.6381
2.76517
2.88052
2.99215
3.11644
3.27168
3.47398
3.70384
3.90081
3.87815
3.13218
0.541265
0.0989293
0.120115
0.157314
0.198064
0.240541
0.291872
0.366195
0.480638
0.647764
0.864362
1.10844
1.36178
1.61744
1.86321
2.09503
2.30778
2.49968
2.66546
2.80705
2.93091
3.04338
3.15333
3.27514
3.42209
3.60471
3.80083
3.95966
3.89899
3.14119
0.544893
0.0991583
0.120011
0.158159
0.201074
0.248041
0.308781
0.400408
0.541092
0.738756
0.981395
1.24402
1.51175
1.77722
2.03093
2.26893
2.48525
2.6783
2.84407
2.98392
3.10458
3.21319
3.31914
3.43597
3.57151
3.72316
3.87207
3.97528
3.87409
3.12758
0.546497
0.099367
0.12028
0.159999
0.205603
0.258121
0.330686
0.443147
0.612782
0.839193
1.10383
1.38322
1.665
1.94055
2.20279
2.4479
2.66932
2.86456
3.03184
3.17001
3.28696
3.39082
3.49028
3.59737
3.7143
3.82485
3.90721
3.92429
3.77577
3.06001
0.549521
0.099626
0.120888
0.16265
0.211921
0.271975
0.359064
0.496671
0.697113
0.950769
1.23384
1.52812
1.82171
2.10719
2.37819
2.63084
2.8596
3.05983
3.22946
3.36629
3.47797
3.57519
3.66536
3.75684
3.84588
3.90235
3.89393
3.77943
3.53602
2.87714
0.546174
0.099935
0.121736
0.165882
0.21991
0.289706
0.395442
0.562445
0.794461
1.07352
1.37301
1.67998
1.98408
2.2799
2.55927
2.81932
3.05654
3.26374
3.43739
3.5741
3.67782
3.76534
3.8416
3.90936
3.95763
3.94169
3.80222
3.46457
2.96703
2.27594
0.533393
0.444737
0.452993
0.463754
0.476559
0.490913
0.506208
0.522277
0.53866
0.555053
0.571246
0.587082
0.602468
0.617335
0.631632
0.645325
0.658382
0.670775
0.68251
0.693669
0.704392
0.714761
0.724776
0.734443
0.743745
0.753034
0.762154
0.770958
0.779494
0.787697
0.795544
0.80301
0.810064
0.816666
0.822798
0.828452
0.833604
0.838302
0.842803
0.847074
0.850921
0.854243
0.856978
0.859051
0.860383
0.860881
0.860458
0.859307
0.857204
0.854028
0.849692
0.844175
0.837638
0.830002
0.821211
0.811256
0.800181
0.788113
0.775093
0.76113
0.746222
0.730383
0.71366
0.696086
0.677787
0.659145
0.640547
0.621744
0.602817
0.583801
0.564731
0.545652
0.526609
0.507658
0.488844
0.470211
0.451802
0.433678
0.41589
0.398424
0.381269
0.364538
0.348367
0.33279
0.317755
0.303106
0.288776
0.274753
0.261053
0.247652
0.234515
0.221652
0.209043
0.196721
0.18478
0.173297
0.162381
0.152187
0.142851
0.134491
0.127173
0.12095
0.115818
0.111724
0.108543
0.106151
0.10439
0.103125
0.102314
0.101849
0.101589
0.101524
0.101567
0.101681
0.101845
0.102023
0.102178
0.102278
0.102202
0.102068
0.101884
0.101653
0.101259
0.100856
0.100518
0.10029
4.79277
4.81151
4.85647
4.93119
5.01812
5.11667
5.22301
5.33579
5.45246
5.57136
5.6905
5.80838
5.92452
6.03849
6.1501
6.25906
6.36479
6.46664
6.56503
6.66144
6.75672
6.85076
6.94317
7.03418
7.11973
7.19948
7.27442
7.34491
7.41095
7.47253
7.52965
7.58232
7.63061
7.67461
7.71441
7.74999
7.78114
7.80766
7.8296
7.84661
7.85923
7.86721
7.87021
7.86781
7.85943
7.84472
7.8208
7.78926
7.74944
7.70069
7.64247
7.57601
7.5015
7.41877
7.32787
7.22908
7.12348
7.01121
6.89208
6.76575
6.6319
6.49022
6.33943
6.17667
5.9963
5.79487
5.58278
5.36908
5.15456
4.93971
4.72577
4.51306
4.30266
4.09535
3.89191
3.69388
3.50301
3.32092
3.14718
2.98363
2.83262
2.69469
2.56809
2.45029
2.3396
2.23503
2.13529
2.03938
1.94567
1.85237
1.75792
1.66087
1.56056
1.45713
1.35099
1.24295
1.13446
1.02676
0.921507
0.82052
0.725515
0.637727
0.557935
0.486584
0.423577
0.369209
0.32229
0.283114
0.250745
0.224055
0.202837
0.185974
0.172673
0.162116
0.153924
0.148039
0.143998
0.140584
0.13722
0.133901
0.13085
0.128095
0.12577
0.123998
0.12276
8.32401
8.38135
8.47976
8.61608
8.77709
8.95439
9.14103
9.33236
9.5244
9.71421
9.89975
10.0799
10.2542
10.4224
10.5842
10.7395
10.8881
11.03
11.1662
11.2979
11.4256
11.5493
11.6679
11.7803
11.885
11.9822
12.0723
12.1548
12.2298
12.2974
12.3577
12.4109
12.4573
12.4971
12.5307
12.5582
12.5798
12.5954
12.6047
12.6074
12.6035
12.5924
12.5737
12.5468
12.511
12.4655
12.4089
12.3415
12.2628
12.1726
12.071
11.9568
11.8323
11.6973
11.5516
11.3959
11.2307
11.0563
10.8723
10.6779
10.4732
10.2578
10.0314
9.79328
9.54266
9.27996
9.00581
8.7187
8.42122
8.11761
7.81234
7.50605
7.20118
6.89873
6.5997
6.30537
6.01724
5.73666
5.46448
5.20198
4.95067
4.71155
4.48423
4.26783
4.06093
3.86268
3.67232
3.48882
3.31108
3.13794
2.96863
2.8024
2.63887
2.47825
2.32073
2.16653
2.01613
1.86958
1.72731
1.5895
1.45649
1.32846
1.20556
1.08835
0.977012
0.872635
0.774737
0.685447
0.60486
0.532812
0.470305
0.416283
0.37005
0.330961
0.298641
0.272821
0.252781
0.236162
0.221245
0.208094
0.196917
0.187812
0.180139
0.174266
0.169737
10.8181
10.9087
11.0494
11.2323
11.4434
11.6709
11.9062
12.1427
12.3758
12.6023
12.8203
13.0287
13.2275
13.4164
13.5956
13.7652
13.9258
14.0778
14.2225
14.3606
14.4927
14.6183
14.7359
14.8435
14.9416
15.0308
15.1114
15.1826
15.2446
15.2978
15.3426
15.3795
15.4091
15.4316
15.4474
15.4569
15.4599
15.4566
15.4467
15.43
15.4062
15.375
15.3357
15.2877
15.2304
15.163
15.0851
14.9963
14.8966
14.7859
14.6641
14.5309
14.3874
14.2339
14.0704
13.8972
13.7129
13.5197
13.3163
13.1016
12.8759
12.6388
12.3903
12.1303
11.8586
11.5754
11.2813
10.976
10.66
10.3337
9.99642
9.65272
9.30662
8.96068
8.61551
8.27339
7.93583
7.6042
7.27976
6.9636
6.65684
6.36021
6.07383
5.79761
5.53117
5.27414
5.02613
4.78653
4.55463
4.32983
4.11154
3.89918
3.69259
3.49181
3.29682
3.10754
2.92391
2.7456
2.57264
2.40484
2.24216
2.08431
1.93095
1.78231
1.63829
1.49956
1.36557
1.23802
1.11677
1.00214
0.895947
0.797863
0.707858
0.62693
0.556841
0.497405
0.447088
0.403265
0.363926
0.328972
0.299531
0.275966
0.256799
0.241726
0.229723
12.8507
12.9593
13.1212
13.3256
13.558
13.8049