/*--------------------------------*- C++ -*----------------------------------*\
| =========                 |                                                 |
| \\      /  F ield         | OpenFOAM: The Open Source CFD Toolbox           |
|  \\    /   O peration     | Version:  2112                                  |
|   \\  /    A nd           | Website:  www.openfoam.com                      |
|    \\/     M anipulation  |                                                 |
\*---------------------------------------------------------------------------*/
FoamFile
{
    version     2.0;
    format      ascii;
    arch        "LSB;label=32;scalar=64";
    class       volScalarField;
    location    "0.00588";
    object      alphat;
}
// * * * * * * * * * * * * * * * * * * * * * * * * * * * * * * * * * * * * * //

dimensions      [1 -1 -1 0 0 0 0];

internalField   nonuniform List<scalar> 
13875
(
0.11986
0.0816018
0.0784511
0.078282
0.0783319
0.0783804
0.0783167
0.078271
0.0783119
0.078327
0.0782942
0.0783062
0.0783863
0.0784125
0.0783946
0.0782985
0.0782584
0.0782891
0.0783
0.078355
0.0783221
0.0782648
0.0784862
0.0814479
0.120891
0.103938
0.0576794
0.0570823
0.0571665
0.0566571
0.0566567
0.057055
0.0571314
0.0571487
0.0571438
0.0571135
0.0571145
0.0566629
0.0566139
0.0566685
0.0570974
0.0571183
0.0571493
0.0570755
0.0566819
0.0566739
0.0571385
0.0570662
0.057339
0.10461
0.11062
0.0553243
0.0558733
0.0547154
0.0545877
0.0544844
0.0543549
0.0543161
0.0542731
0.0541652
0.0541308
0.0543395
0.0542504
0.0542752
0.0542409
0.0543503
0.0541078
0.0542654
0.0542897
0.054463
0.0545338
0.0546027
0.0557796
0.0550846
0.111335
0.115885
0.0546441
0.0553805
0.0543113
0.054051
0.0539443
0.0537392
0.053539
0.0534612
0.0534165
0.0533344
0.0534461
0.0537021
0.0537389
0.0536935
0.053486
0.053367
0.053477
0.0536489
0.0539202
0.0540037
0.0542011
0.0551919
0.0543046
0.115846
0.121031
0.0546334
0.055119
0.0537396
0.0536809
0.0535179
0.0532202
0.0530421
0.052976
0.0529263
0.052843
0.0529589
0.053225
0.0532654
0.0532161
0.0529974
0.0528802
0.0529665
0.0531228
0.0534879
0.05361
0.0536117
0.0550164
0.0543271
0.121331
0.124407
0.0547437
0.0551855
0.0536026
0.0533058
0.0531196
0.0528195
0.0526031
0.0525469
0.0524934
0.0524018
0.0525074
0.0527763
0.0528523
0.0527676
0.0525423
0.0524508
0.0525587
0.0527495
0.0530751
0.0532443
0.0535037
0.0548823
0.0543937
0.124003
0.128745
0.0564732
0.0557813
0.0534501
0.0532816
0.0529299
0.0524344
0.0522453
0.0521606
0.0521161
0.0520211
0.0521251
0.0524151
0.052479
0.0523991
0.0521528
0.0520807
0.0521749
0.0523746
0.0528701
0.0532001
0.0533624
0.0556433
0.0563572
0.128905
0.135703
0.0611947
0.0578358
0.0544092
0.0534167
0.052878
0.052282
0.051987
0.0518778
0.0518298
0.0517383
0.0517979
0.0521087
0.0521906
0.0520864
0.051827
0.0518135
0.0519411
0.0522395
0.0528063
0.0533372
0.0542763
0.0575174
0.061029
0.135548
0.151307
0.0692396
0.0615399
0.0559202
0.0544261
0.0532203
0.0522449
0.0518905
0.0517362
0.0516701
0.051583
0.051603
0.0519544
0.0520416
0.0519291
0.0516316
0.0516688
0.051827
0.0521865
0.053106
0.0542327
0.0556164
0.0610282
0.0684089
0.154236
0.239308
0.0874365
0.0664696
0.059002
0.0554111
0.0537355
0.052527
0.0520401
0.0518599
0.0517624
0.0516889
0.0516683
0.0520348
0.0521448
0.0520208
0.0517337
0.0517938
0.0519877
0.0524725
0.0536317
0.0552917
0.0586742
0.0660227
0.0866888
0.241202
0.365338
0.11839
0.0759713
0.0629217
0.0576429
0.0548292
0.0531919
0.0526838
0.0524086
0.0522715
0.0522112
0.0521665
0.0525156
0.0526457
0.0525539
0.0523192
0.0523764
0.0526283
0.0531046
0.0546768
0.0573537
0.0617283
0.0747887
0.112946
0.365532
0.658223
0.193176
0.104104
0.0745424
0.061605
0.0574111
0.0553507
0.0543927
0.0538831
0.0536472
0.0535574
0.0535055
0.0537792
0.0539387
0.0539304
0.0538222
0.0539056
0.0543237
0.0552332
0.0570836
0.0619674
0.0734589
0.100348
0.182871
0.643472
0.582012
0.43589
0.176352
0.0918464
0.0770136
0.0653784
0.0601923
0.0582596
0.0573163
0.0569084
0.0567765
0.0567123
0.0568626
0.0570328
0.0571526
0.0572218
0.0574667
0.0583169
0.0600186
0.0655352
0.0764291
0.0892603
0.171138
0.434023
0.58116
0.491592
0.400641
0.346759
0.333117
0.118243
0.0810538
0.0746721
0.0686678
0.0660897
0.0651438
0.0648041
0.0646045
0.0646316
0.0648181
0.0651302
0.0655897
0.0665182
0.0691916
0.0757834
0.0846861
0.131877
0.331319
0.337772
0.400871
0.500089
0.407854
0.349888
0.330811
0.339864
0.302609
0.207925
0.129332
0.100787
0.0908401
0.0887298
0.0883216
0.0880451
0.0881068
0.0882857
0.0886876
0.0893147
0.0905274
0.0988081
0.134139
0.210738
0.307289
0.33425
0.331775
0.361479
0.421254
0.331161
0.296365
0.285351
0.308186
0.321781
0.331822
0.263005
0.196879
0.173457
0.152921
0.140271
0.135725
0.133754
0.134776
0.138033
0.148721
0.173977
0.195768
0.25267
0.332932
0.318194
0.3077
0.292175
0.298678
0.342964
0.242055
0.230202
0.234284
0.279854
0.334877
0.414158
0.557203
0.656272
0.643908
0.58814
0.612486
0.624723
0.634786
0.63076
0.616412
0.594284
0.610299
0.657391
0.593104
0.424679
0.336125
0.281629
0.23479
0.237284
0.253908
0.145514
0.159304
0.193735
0.246909
0.342971
0.468131
0.608719
0.687553
0.575874
0.500317
0.493754
0.494872
0.500966
0.499409
0.497569
0.510842
0.566409
0.661254
0.633998
0.477284
0.357141
0.258382
0.189241
0.148594
0.135061
0.0697594
0.105997
0.174712
0.276296
0.388553
0.429791
0.494954
0.548248
0.483758
0.4246
0.411994
0.411021
0.415003
0.416181
0.415906
0.424037
0.467286
0.532315
0.507903
0.444457
0.414335
0.30689
0.181103
0.106848
0.0711992
0.0268358
0.0541025
0.129077
0.274098
0.368458
0.364907
0.38616
0.431584
0.425623
0.392906
0.376032
0.367381
0.366864
0.37157
0.376661
0.384912
0.406433
0.418384
0.386992
0.370126
0.38621
0.291075
0.136013
0.0547575
0.0261061
0.0654959
0.0802116
0.116994
0.207478
0.282949
0.284296
0.306975
0.356024
0.376437
0.358781
0.339151
0.32519
0.322269
0.329462
0.339111
0.349071
0.358195
0.344248
0.303724
0.286009
0.288237
0.210324
0.11823
0.0807555
0.0626284
0.120402
0.128958
0.134839
0.165891
0.211311
0.221559
0.253444
0.304647
0.331737
0.320252
0.29916
0.283091
0.27915
0.287185
0.29928
0.310916
0.316398
0.295143
0.248715
0.220414
0.215492
0.163985
0.138828
0.14105
0.119224
0.155655
0.132701
0.13546
0.139812
0.164814
0.178868
0.214917
0.262377
0.290393
0.281463
0.260978
0.244981
0.240289
0.247983
0.260238
0.271678
0.275354
0.254738
0.211153
0.177148
0.166902
0.14054
0.139064
0.156597
0.156365
0.190868
0.150452
0.133362
0.12532
0.138193
0.154403
0.18473
0.226259
0.251652
0.244042
0.22476
0.210316
0.206203
0.213233
0.224535
0.235048
0.238705
0.21955
0.18226
0.153191
0.139634
0.12517
0.131929
0.155418
0.195238
0.21883
0.16895
0.133034
0.118926
0.121792
0.136342
0.160662
0.194004
0.216556
0.210456
0.194167
0.181282
0.177565
0.183823
0.194393
0.203868
0.206009
0.188337
0.158918
0.135066
0.122392
0.118422
0.131292
0.163532
0.227027
0.245087
0.188288
0.13188
0.114909
0.111638
0.122735
0.1423
0.169169
0.186839
0.181685
0.167794
0.156481
0.153229
0.158547
0.167369
0.175181
0.177728
0.164127
0.140889
0.122578
0.111448
0.113814
0.128566
0.177058
0.252604
0.270164
0.201895
0.12997
0.111197
0.104683
0.111831
0.127317
0.1477
0.161512
0.156695
0.14523
0.135715
0.132951
0.137616
0.145366
0.151912
0.153655
0.142769
0.125371
0.111076
0.104273
0.111027
0.127891
0.195842
0.271534
0.289641
0.216867
0.129374
0.107989
0.100264
0.103131
0.115293
0.130809
0.139934
0.135247
0.125813
0.11809
0.115787
0.119888
0.126216
0.131696
0.134438
0.127102
0.113392
0.102949
0.0990324
0.106923
0.126701
0.211651
0.295018
0.317978
0.234567
0.130259
0.104489
0.0956028
0.0962172
0.105004
0.116059
0.122804
0.118496
0.110388
0.103579
0.101499
0.104974
0.110421
0.114836
0.116595
0.11198
0.103099
0.0956155
0.0952625
0.104046
0.126707
0.221514
0.318168
0.347827
0.251445
0.130704
0.10082
0.0924545
0.0919959
0.0973065
0.104557
0.107587
0.10308
0.0965004
0.0911503
0.0893463
0.0924485
0.0968457
0.100645
0.103433
0.100633
0.0944367
0.09078
0.0912358
0.100185
0.128461
0.237105
0.344604
0.362895
0.264733
0.133637
0.0981861
0.0879728
0.0874958
0.0901357
0.0933948
0.0950157
0.0911152
0.0856225
0.0808472
0.0792114
0.0819768
0.0860644
0.0892759
0.0910932
0.0905472
0.0878523
0.0863128
0.0878489
0.0984586
0.131431
0.257444
0.376289
0.373139
0.269929
0.138004
0.0965874
0.0853018
0.0834312
0.0845295
0.0859675
0.0853108
0.0809752
0.075993
0.072116
0.0705826
0.0730161
0.0761822
0.0791766
0.0819248
0.0822326
0.0815859
0.0822731
0.0839645
0.095451
0.135075
0.270031
0.391634
0.386945
0.269092
0.141967
0.096206
0.0823266
0.0793644
0.0791547
0.0778467
0.0764525
0.0726509
0.0684221
0.0647242
0.0633965
0.0656197
0.0688169
0.0713466
0.0735439
0.0753442
0.0765881
0.0780055
0.0820383
0.095499
0.141271
0.273102
0.398746
0.395783
0.271042
0.150932
0.0973392
0.0797875
0.0760933
0.0743219
0.0723509
0.069428
0.0653216
0.0614103
0.058523
0.0572109
0.0591946
0.0616753
0.0643763
0.0673507
0.0694826
0.0718182
0.0744497
0.0781433
0.0956438
0.149218
0.271825
0.408504
0.400811
0.271091
0.161385
0.0996596
0.0788161
0.0731227
0.0695333
0.0662535
0.0631122
0.0595176
0.056169
0.0531232
0.0520369
0.0538645
0.0564964
0.0586039
0.0608706
0.0641789
0.0671531
0.0715034
0.0778302
0.0973399
0.159231
0.274946
0.416095
0.408166
0.267225
0.162293
0.103144
0.0797034
0.0699736
0.065251
0.0621429
0.0582629
0.0543245
0.0510077
0.0487278
0.0475553
0.0492043
0.0512422
0.0537349
0.0568155
0.0595917
0.0628155
0.067766
0.0775285
0.101826
0.165094
0.27576
0.417346
0.412498
0.26256
0.162182
0.109063
0.0807692
0.0678805
0.0614216
0.0569879
0.0532056
0.0499216
0.0472184
0.0446329
0.0437539
0.0453092
0.04756
0.0494602
0.0519133
0.0558044
0.0596735
0.0664269
0.0791781
0.107163
0.165231
0.271968
0.418732
0.40984
0.256486
0.161745
0.119458
0.0840359
0.0661785
0.0583699
0.0540996
0.0496546
0.0464652
0.0434071
0.0415615
0.0404522
0.0418587
0.0435799
0.0460752
0.048659
0.0518362
0.05611
0.0638513
0.0808232
0.117844
0.165059
0.263108
0.411149
0.405674
0.251473
0.158674
0.131868
0.0869611
0.066222
0.0563481
0.05013
0.0457134
0.0429493
0.0406465
0.0383727
0.0376262
0.0389371
0.0409244
0.0426677
0.0448941
0.0490498
0.0546821
0.0642346
0.0856056
0.135105
0.164033
0.255165
0.399308
0.395975
0.250633
0.153144
0.131966
0.0933448
0.0665503
0.0542194
0.0479716
0.0432202
0.0404798
0.0377063
0.0361422
0.0351335
0.0364072
0.0378959
0.0402674
0.0425585
0.0460412
0.0524662
0.0640493
0.0910112
0.135358
0.159477
0.24808
0.393372
0.384141
0.249764
0.145719
0.132127
0.103391
0.069092
0.0543958
0.0455315
0.0404363
0.0377606
0.0356823
0.0336527
0.0329829
0.0340783
0.0358135
0.037445
0.0398083
0.0445375
0.0526671
0.0665453
0.101529
0.135077
0.152061
0.24699
0.388656
0.379265
0.247967
0.138594
0.128797
0.118185
0.0723796
0.0538853
0.044736
0.0390061
0.0360859
0.0333311
0.0319308
0.0310673
0.0322103
0.0334623
0.0358827
0.0382953
0.0427457
0.0521891
0.0702081
0.117231
0.132132
0.143922
0.24722
0.382304
0.371922
0.247004
0.134124
0.124038
0.118079
0.0793487
0.0555229
0.0443224
0.0372676
0.0339787
0.0318286
0.0299854
0.029376
0.0303258
0.0319252
0.0336995
0.0367987
0.043207
0.0536087
0.0777702
0.117793
0.12703
0.137117
0.24687
0.379191
0.364701
0.24448
0.131867
0.117529
0.116689
0.0911478
0.0577063
0.0446104
0.0371049
0.0332714
0.030075
0.028728
0.0278695
0.0289295
0.0301279
0.0329818
0.0362761
0.0424308
0.0553637
0.0892055
0.116025
0.118136
0.131647
0.247601
0.374862
0.359373
0.241096
0.128704
0.112454
0.112405
0.0978194
0.0637137
0.0453355
0.0366374
0.032098
0.0291924
0.0272097
0.0265626
0.0274339
0.0291339
0.0314879
0.036209
0.0442119
0.0612189
0.09902
0.112651
0.11287
0.129573
0.246866
0.36748
0.353438
0.240093
0.128718
0.107524
0.105756
0.0977315
0.0724779
0.0479451
0.0371656
0.0325492
0.0280751
0.0264337
0.025484
0.0265767
0.028158
0.031887
0.0361304
0.0455356
0.0698989
0.0986051
0.106058
0.106945
0.128404
0.245455
0.362896
0.342965
0.234978
0.128565
0.104585
0.0996086
0.0952575
0.0833431
0.0534452
0.0381259
0.0320574
0.0282642
0.0256673
0.0247546
0.0258102
0.0281095
0.0312579
0.0371476
0.0511308
0.0834119
0.0962253
0.100146
0.104208
0.128658
0.243174
0.353363
0.334465
0.231518
0.128249
0.101476
0.0949295
0.0916349
0.0833501
0.0616347
0.0412421
0.0329861
0.0278834
0.0258053
0.0243509
0.0258805
0.027901
0.0322258
0.0397256
0.0590561
0.0839132
0.092099
0.0955003
0.101692
0.130601
0.238601
0.342086
0.311394
0.222169
0.126335
0.100347
0.0912787
0.0866385
0.0821345
0.0722903
0.0476632
0.0335326
0.0284511
0.0255919
0.0243466
0.0256693
0.0281871
0.0325871
0.0458875
0.0717676
0.0821269
0.0868012
0.092076
0.100979
0.12918
0.227938
0.315616
0.282892
0.208535
0.123484
0.0976253
0.088998
0.0831281
0.0797609
0.0724231
0.0576989
0.0378188
0.0287133
0.0259711
0.0244556
0.0260278
0.0285335
0.0362146
0.0549326
0.0718508
0.0790471
0.083139
0.0894663
0.0987995
0.125821
0.213642
0.28794
0.178058
0.386542
0.435949
0.460027
0.456856
0.455388
0.455864
0.47535
0.519301
0.573326
0.627881
0.677082
0.717508
0.749462
0.771613
0.78671
0.77747
0.704085
0.591613
0.514521
0.463019
0.435553
0.416579
0.400503
0.383024
0.359336
0.325499
0.27361
0.197996
0.0913926
0.169763
0.372261
0.383062
0.384766
0.363727
0.36659
0.374584
0.408964
0.460415
0.522529
0.584867
0.641319
0.686918
0.722773
0.749354
0.767075
0.762545
0.716926
0.610574
0.524358
0.466365
0.425753
0.403104
0.385211
0.366972
0.343127
0.310312
0.261002
0.189409
0.0888823
0.180191
0.366267
0.335883
0.329675
0.31185
0.317526
0.329023
0.364715
0.414767
0.475714
0.539597
0.600928
0.651847
0.692846
0.723799
0.743524
0.745981
0.719828
0.626354
0.533447
0.46558
0.417297
0.387079
0.367325
0.348537
0.324746
0.29315
0.246161
0.178998
0.0859085
0.184861
0.338595
0.285048
0.273258
0.263816
0.270046
0.275047
0.306012
0.36062
0.424721
0.490207
0.555221
0.611764
0.658446
0.693501
0.716419
0.72477
0.710136
0.648456
0.549153
0.467608
0.410714
0.372475
0.351197
0.331698
0.307936
0.277092
0.232086
0.168919
0.0826689
0.180813
0.309069
0.247965
0.247794
0.273516
0.285651
0.27805
0.266432
0.310068
0.370843
0.437008
0.505313
0.567793
0.620858
0.660292
0.686979
0.699076
0.692495
0.653137
0.570241
0.474662
0.405006
0.359844
0.335693
0.315241
0.291452
0.260997
0.217635
0.158058
0.0789521
0.175108
0.281289
0.241005
0.278635
0.308047
0.321122
0.314752
0.28644
0.272374
0.324542
0.388557
0.456789
0.523286
0.580818
0.625399
0.655678
0.672528
0.67082
0.64215
0.599389
0.490063
0.402478
0.350132
0.320238
0.299267
0.275308
0.244839
0.20328
0.148583
0.0764962
0.168127
0.26283
0.266713
0.308693
0.328909
0.345502
0.34366
0.31579
0.269605
0.286067
0.345622
0.410207
0.478381
0.53939
0.588339
0.623392
0.645357
0.650581
0.624588
0.600745
0.523195
0.408105
0.34147
0.305939
0.282688
0.258757
0.229339
0.19081
0.140919
0.0747501
0.160019
0.253719
0.296584
0.330768
0.354923
0.375386
0.373241
0.341978
0.28638
0.259993
0.308024
0.368535
0.435086
0.498795
0.550991
0.590691
0.617805
0.626892
0.609951
0.586885
0.556082
0.432862
0.338161
0.294455
0.268136
0.244152
0.216807
0.180709
0.134386
0.073488
0.152224
0.257871
0.327361
0.353269
0.380136
0.402146
0.399717
0.363755
0.295816
0.250636
0.274497
0.332402
0.396294
0.459971
0.514988
0.558156
0.589359
0.605067
0.598627
0.567269
0.551986
0.49461
0.349925
0.286011
0.255581
0.231475
0.205517
0.171912
0.128102
0.0711405
0.144273
0.28001
0.355146
0.376721
0.396795
0.409288
0.400221
0.37479
0.300571
0.25133
0.247858
0.300902
0.362678
0.424642
0.480163
0.527196
0.56331
0.584212
0.586006
0.549534
0.535986
0.512756
0.390713
0.286825
0.244457
0.21881
0.191784
0.156641
0.115662
0.0654086
0.138431
0.313603
0.38157
0.398167
0.40721
0.40278
0.38267
0.358927
0.296918
0.248373
0.230566
0.27515
0.334593
0.394811
0.449542
0.497705
0.537197
0.564376
0.572319
0.536583
0.516666
0.50461
0.453647
0.299745
0.234848
0.199111
0.171805
0.139812
0.103861
0.0604424
0.135143
0.348742
0.407783
0.418866
0.426029
0.405447
0.367772
0.340485
0.288018
0.243428
0.22006
0.255724
0.313663
0.371623
0.424466
0.472614
0.513847
0.544181
0.55683
0.526936
0.497454
0.485874
0.461356
0.337241
0.22928
0.18544
0.155233
0.127054
0.0956096
0.0573046
0.135271
0.382974
0.432028
0.439564
0.444803
0.40926
0.358676
0.32261
0.278686
0.237244
0.214653
0.247379
0.300858
0.354902
0.404728
0.451649
0.493505
0.526994
0.54446
0.520686
0.479062
0.464945
0.450646
0.398182
0.239915
0.176906
0.144901
0.117539
0.0897535
0.0551607
0.13867
0.414169
0.454858
0.456987
0.457382
0.413908
0.356927
0.308442
0.270901
0.234332
0.214965
0.247759
0.297306
0.344604
0.390851
0.435712
0.476827
0.511191
0.532996
0.524514
0.464887
0.444949
0.433042
0.406366
0.297464
0.17841
0.137996
0.110891
0.0846305
0.0533284
0.143471
0.441685
0.472364
0.46599
0.464934
0.417999
0.360086
0.302548
0.270225
0.241165
0.22444
0.257896
0.298856
0.341388
0.382277
0.423803
0.462493
0.494922
0.516554
0.514766
0.459247
0.428719
0.414772
0.397222
0.350236
0.206649
0.13591
0.105964
0.0805796
0.051535
0.148634
0.465562
0.485358
0.47072
0.473527
0.427011
0.371026
0.310448
0.277822
0.253311
0.24604
0.273663
0.307019
0.341741
0.377596
0.414954
0.450552
0.480611
0.502215
0.501207
0.45386
0.417823
0.398933
0.383202
0.357626
0.282477
0.14822
0.103266
0.077856
0.0500768
0.154835
0.486903
0.495016
0.473854
0.479983
0.439048
0.391666
0.33326
0.298802
0.274981
0.281303
0.296105
0.320086
0.345522
0.376665
0.410718
0.441968
0.469304
0.489621
0.485218
0.440604
0.411165
0.387021
0.369682
0.348966
0.310564
0.202551
0.107957
0.0762027
0.0492871
0.161642
0.505264
0.501683
0.477795
0.481639
0.45082
0.419732
0.369448
0.330279
0.307055
0.317917
0.324522
0.334854
0.352042
0.378899
0.4087
0.43608
0.460812
0.475542
0.463669
0.423485
0.39971
0.377158
0.357108
0.338127
0.311688
0.256937
0.132824
0.078026
0.048964
0.167703
0.518669
0.506027
0.474459
0.474317
0.464268
0.444256
0.403991
0.365129
0.338975
0.344991
0.349246
0.350651
0.362296
0.386172
0.412815
0.434045
0.451263
0.458133
0.436889
0.404968
0.384461
0.366153
0.347895
0.327709
0.303688
0.269654
0.191506
0.0881513
0.0498347
0.174038
0.52947
0.505337
0.465595
0.461956
0.473563
0.469762
0.434017
0.393992
0.361954
0.36083
0.365424
0.366441
0.378185
0.399391
0.417364
0.429826
0.438964
0.43695
0.411943
0.386939
0.369199
0.353384
0.337313
0.317222
0.29493
0.266931
0.219828
0.116341
0.0527947
0.181261
0.52842
0.497276
0.449005
0.452037
0.476332
0.492627
0.47094
0.42891
0.388813
0.378216
0.380339
0.385862
0.394353
0.406823
0.416321
0.421977
0.425348
0.417818
0.391229
0.370599
0.354673
0.340029
0.324114
0.305783
0.285455
0.261336
0.22941
0.164036
0.0602366
0.187099
0.530349
0.482924
0.431118
0.440174
0.469322
0.500908
0.505923
0.476401
0.430687
0.404979
0.397885
0.399877
0.404674
0.408171
0.41022
0.411953
0.411728
0.397867
0.374017
0.355898
0.340725
0.326883
0.311363
0.295888
0.277524
0.25494
0.228934
0.187912
0.0800483
0.182528
0.505158
0.456637
0.413001
0.425616
0.457257
0.489076
0.517188
0.515733
0.479751
0.437227
0.413064
0.405605
0.408115
0.40461
0.40055
0.400333
0.396283
0.380164
0.359644
0.343699
0.328943
0.314734
0.301067
0.287228
0.270694
0.24969
0.227401
0.20147
0.118468
0.181565
0.481647
0.423218
0.39879
0.410797
0.443298
0.474232
0.505864
0.533863
0.524303
0.478063
0.435987
0.412638
0.407498
0.39601
0.387611
0.383408
0.376539
0.35991
0.346588
0.334677
0.320715
0.306074
0.292498
0.279388
0.264679
0.245977
0.23075
0.218932
0.170987
0.158216
0.388156
0.388294
0.390279
0.403312
0.432969
0.459846
0.489798
0.533818
0.557304
0.529349
0.479208
0.433406
0.406867
0.38784
0.375161
0.368907
0.358385
0.347811
0.336579
0.326224
0.312942
0.299115
0.284418
0.272125
0.25906
0.246686
0.236513
0.238329
0.188804
0.0915343
0.198652
0.273972
0.325591
0.359402
0.383138
0.400871
0.417287
0.435909
0.464925
0.519456
0.600968
0.718221
0.776162
0.779609
0.762336
0.740124
0.706703
0.664793
0.614306
0.558623
0.505014
0.462415
0.442515
0.441482
0.442834
0.44759
0.426539
0.379834
0.176574
0.0889122
0.189789
0.261157
0.310335
0.343288
0.367183
0.385835
0.404189
0.42736
0.46863
0.530397
0.620706
0.727326
0.760502
0.759838
0.740793
0.712954
0.675884
0.628739
0.570815
0.507388
0.445717
0.395054
0.361755
0.355069
0.35165
0.371786
0.37219
0.365483
0.168049
0.0858471
0.179159
0.246193
0.293059
0.324924
0.348768
0.368108
0.388459
0.41968
0.468535
0.540562
0.638083
0.721238
0.741573
0.735661
0.71511
0.682918
0.640423
0.588164
0.525594
0.462177
0.401443
0.352619
0.318749
0.309591
0.30328
0.318851
0.325606
0.358947
0.177901
0.0826341
0.169024
0.232166
0.27693
0.308105
0.331964
0.352054
0.373827
0.413495
0.47142
0.557113
0.658242
0.70968
0.719204
0.707984
0.684826
0.6485
0.600379
0.542665
0.47684
0.411741
0.348387
0.295131
0.270121
0.267111
0.259863
0.264564
0.276963
0.331105
0.182996
0.0788313
0.158184
0.217824
0.260827
0.291577
0.315547
0.336596
0.361802
0.408397
0.479477
0.578303
0.656908
0.690727
0.693127
0.678362
0.651685
0.6107
0.556582
0.492961
0.424603
0.359784
0.300103
0.264499
0.284071
0.290591
0.277515
0.249296
0.243531
0.302193
0.178914
0.0762958
0.148624
0.203463
0.24485
0.275455
0.299624
0.3213
0.352426
0.40633
0.495613
0.60526
0.643934
0.668556
0.66654
0.648265
0.616952
0.571024
0.512332
0.445064
0.377594
0.315618
0.268331
0.293409
0.320618
0.324652
0.311796
0.283323
0.242407
0.275745
0.173021
0.074501
0.140871
0.190803
0.229267
0.258946
0.283131
0.306904
0.343972
0.412522
0.527992
0.602279
0.625464
0.646656
0.639633
0.616508
0.58013
0.529932
0.467969
0.399639
0.336299
0.27989
0.275855
0.322786
0.349853
0.348613
0.331843
0.312335
0.269939
0.258839
0.166031
0.0732148
0.134254
0.180712
0.216536
0.244127
0.268359
0.295462
0.341077
0.436812
0.55619
0.58692
0.610121
0.622961
0.612127
0.58388
0.543229
0.489813
0.425614
0.359252
0.2996
0.258088
0.294258
0.35188
0.381448
0.378971
0.357972
0.333694
0.300555
0.252267
0.157476
0.0709346
0.128048
0.171896
0.205167
0.231395
0.255687
0.287016
0.35238
0.494843
0.550874
0.567028
0.597978
0.600798
0.583524
0.551595
0.507868
0.451532
0.387638
0.324951
0.268373
0.25373
0.304147
0.374633
0.404635
0.403942
0.382493
0.356815
0.3316
0.258837
0.149579
0.0652672
0.115736
0.156646
0.191586
0.218743
0.244558
0.287542
0.391174
0.51021
0.534348
0.549892
0.584056
0.579703
0.557211
0.521196
0.473549
0.416817
0.354983
0.295151
0.243787
0.25539
0.30845
0.379577
0.40167
0.408926
0.397544
0.380037
0.359698
0.28326
0.142043
0.060387
0.104046
0.140063
0.172138
0.1994
0.235137
0.299848
0.450929
0.501835
0.515026
0.537518
0.568945
0.559639
0.532182
0.492162
0.443262
0.387608
0.327302
0.270452
0.228728
0.251903
0.304174
0.362017
0.385204
0.406154
0.410456
0.401077
0.386399
0.317339
0.136492
0.0572838
0.0958692
0.127467
0.155679
0.185926
0.229717
0.335379
0.457933
0.483271
0.495836
0.527859
0.553747
0.539747
0.509147
0.467587
0.41883
0.365048
0.306605
0.250775
0.21966
0.247008
0.294186
0.342776
0.371074
0.41043
0.430969
0.422211
0.412269
0.353314
0.133814
0.0551249
0.0899791
0.117974
0.145354
0.177389
0.239438
0.394706
0.447555
0.462465
0.477698
0.522213
0.541166
0.522813
0.489363
0.44722
0.399839
0.349297
0.294493
0.242449
0.214167
0.240753
0.283482
0.324957
0.362944
0.415136
0.449742
0.442048
0.436776
0.387936
0.134606
0.0532646
0.0848085
0.111166
0.138378
0.178345
0.293332
0.403218
0.430173
0.442551
0.465457
0.526848
0.530643
0.507972
0.47328
0.431859
0.386949
0.340284
0.291857
0.24369
0.213542
0.237428
0.274385
0.311471
0.362311
0.420484
0.462411
0.45871
0.459456
0.419385
0.138371
0.0514356
0.08065
0.106141
0.135951
0.204365
0.347316
0.394617
0.412009
0.426669
0.462675
0.515421
0.515272
0.492407
0.459612
0.420504
0.379118
0.337243
0.294469
0.254468
0.222188
0.243242
0.272263
0.306988
0.365713
0.424626
0.470109
0.467517
0.476627
0.447014
0.143269
0.0499516
0.07786
0.103265
0.14725
0.278073
0.35529
0.380807
0.396412
0.416295
0.458492
0.50241
0.500113
0.477608
0.447519
0.41201
0.374744
0.33839
0.303822
0.270405
0.243976
0.25416
0.279161
0.315557
0.376395
0.434881
0.478533
0.47196
0.489494
0.471194
0.148588
0.0491501
0.0761202
0.107508
0.198959
0.308288
0.347109
0.367498
0.384952
0.409323
0.44393
0.486053
0.488016
0.467799
0.440021
0.408008
0.374128
0.343013
0.317383
0.292871
0.278394
0.275511
0.300627
0.340102
0.398432
0.445378
0.484483
0.475718
0.499588
0.492942
0.154779
0.0488258
0.0777869
0.13121
0.254932
0.309976
0.336185
0.35508
0.375774
0.40154
0.425803
0.465617
0.473988
0.458097
0.435122
0.407152
0.377287
0.350351
0.333131
0.32224
0.314813
0.307337
0.332938
0.374981
0.42484
0.45592
0.485722
0.479943
0.506527
0.51156
0.161543
0.0497145
0.0877132
0.188962
0.268052
0.301848
0.324706
0.344873
0.365966
0.386491
0.408171
0.443671
0.457264
0.447587
0.430418
0.410354
0.3848
0.36154
0.350317
0.347675
0.343147
0.340147
0.368653
0.409164
0.448825
0.468395
0.477786
0.477411
0.511159
0.52515
0.167534
0.0526654
0.115573
0.218469
0.265296
0.292683
0.314017
0.336412
0.353946
0.370759
0.39049
0.420681
0.437699
0.436206
0.426439
0.414417
0.396255
0.37741
0.366582
0.364471
0.360266
0.365004
0.398411
0.438996
0.473955
0.476171
0.46398
0.470237
0.511105
0.536249
0.173624
0.0601458
0.163269
0.228187
0.25966
0.283203
0.304355
0.323693
0.340876
0.35597
0.374218
0.396592
0.419052
0.423451
0.41868
0.413637
0.404224
0.393264
0.385606
0.379951
0.378086
0.39294
0.434076
0.475627
0.49601
0.477543
0.453365
0.454555
0.504143
0.534811
0.180874
0.0800762
0.187089
0.22782
0.253423
0.27572
0.29522
0.312079
0.328001
0.342709
0.359621
0.377612
0.401639
0.41082
0.40891
0.407413
0.406244
0.403593
0.399329
0.399049
0.406847
0.436588
0.48294
0.509567
0.502672
0.469633
0.441039
0.436947
0.491045
0.536996
0.186423
0.118265
0.20077
0.226258
0.248069
0.269266
0.287083
0.301642
0.316996
0.331589
0.346578
0.36242
0.385054
0.397976
0.399021
0.398452
0.40326
0.406943
0.405935
0.416084
0.442432
0.488025
0.525012
0.519986
0.489094
0.456141
0.42759
0.418423
0.465492
0.511146
0.181697
0.17066
0.21777
0.229305
0.244326
0.263681
0.279679
0.293695
0.307832
0.32273
0.337051
0.350428
0.368299
0.382362
0.387623
0.388757
0.397077
0.406835
0.415008
0.442118
0.486743
0.53363
0.54361
0.508986
0.474438
0.441865
0.413353
0.406463
0.432294
0.485974
0.181172
0.188331
0.236747
0.23496
0.245255
0.258473
0.272854
0.28628
0.301073
0.315339
0.328138
0.339006
0.350146
0.362632
0.373021
0.380142
0.391523
0.407862
0.438907
0.488229
0.539062
0.563659
0.541467
0.493854
0.460703
0.431507
0.405874
0.398117
0.396226
0.389916
0.159088
0.302872
0.29296
0.279371
0.268485
0.255112
0.243246
0.231875
0.220877
0.21063
0.201475
0.192624
0.185102
0.17758
0.171419
0.165401
0.16038
0.155691
0.151862
0.147076
0.144721
0.144091
0.143812
0.145006
0.147405
0.151923
0.158845
0.1684
0.180552
0.195034
0.211239
0.228784
0.247388
0.265754
0.282805
0.297479
0.309784
0.320206
0.328463
0.335091
0.340699
0.34593
0.351124
0.355524
0.352974
0.343369
0.332071
0.320669
0.314071
0.312529
0.311712
0.310057
0.305491
0.299453
0.29089
0.282336
0.275479
0.268525
0.262015
0.254152
0.245206
0.237535
0.232003
0.2293
0.227886
0.22734
0.228048
0.227884
0.227924
0.228297
0.228643
0.228661
0.227106
0.225329
0.222929
0.220102
0.217102
0.21404
0.211003
0.208056
0.205278
0.202705
0.200312
0.198016
0.195749
0.193522
0.191376
0.189405
0.187724
0.186406
0.185401
0.18454
0.183606
0.18241
0.180834
0.17879
0.176311
0.173571
0.170739
0.168036
0.165681
0.163736
0.162299
0.161103
0.160258
0.159476
0.158776
0.158452
0.15857
0.159038
0.159745
0.160079
0.15994
0.159215
0.15796
0.157249
0.15773
0.15946
0.161722
0.164223
0.166872
0.169929
0.1747
0.183274
0.189699
0.191372
0.50987
0.491214
0.464349
0.442826
0.416806
0.395202
0.374333
0.355772
0.338318
0.324214
0.310943
0.300279
0.290829
0.283502
0.276416
0.271615
0.267465
0.265208
0.26169
0.266576
0.274035
0.285371
0.303223
0.325689
0.354254
0.388029
0.428425
0.475079
0.526765
0.583511
0.644025
0.70421
0.76385
0.821368
0.874843
0.922693
0.96571
1.00108
1.02946
1.05224
1.07187
1.09175
1.11275
1.12648
1.1144
1.086
1.04395
1.00376
0.975496
0.955439
0.9331
0.906822
0.872409
0.829622
0.79331
0.761186
0.731633
0.702348
0.677133
0.648888
0.6204
0.593217
0.570337
0.554182
0.544627
0.538073
0.533309
0.531043
0.529914
0.52895
0.526428
0.520454
0.513038
0.504135
0.494905
0.485553
0.475775
0.465525
0.455
0.44447
0.434087
0.423893
0.413976
0.404498
0.395729
0.387826
0.380793
0.37451
0.368824
0.363508
0.358275
0.352957
0.347521
0.342015
0.336471
0.330886
0.325297
0.319786
0.314393
0.30939
0.304863
0.301404
0.297973
0.294374
0.290049
0.284863
0.278983
0.272497
0.266343
0.261249
0.257834
0.257047
0.258678
0.261737
0.265801
0.270877
0.277919
0.288992
0.310542
0.327362
0.338718
0.346095
0.33994
0.303594
0.26009
0.644772
0.629588
0.604115
0.584073
0.557698
0.532799
0.507172
0.48381
0.461308
0.443209
0.426029
0.412079
0.400096
0.390944
0.382714
0.377461
0.371994
0.370691
0.376235
0.387313
0.402177
0.420181
0.442645
0.468708
0.497535
0.53037
0.56394
0.598769
0.635681
0.672554
0.712754
0.752404
0.793492
0.836207
0.885168
0.937725
0.990462
1.03875
1.08418
1.12479
1.15967
1.18807
1.2092
1.22087
1.21312
1.18448
1.14922
1.11075
1.06947
1.03875
1.01291
0.983853
0.948614
0.913364
0.88851
0.874989
0.86669
0.859406
0.850951
0.840175
0.822301
0.799341
0.774619
0.750095
0.728764
0.71225
0.697688
0.686687
0.678623
0.67176
0.664762
0.65567
0.644222
0.62905
0.61432
0.59995
0.585393
0.570638
0.555924
0.541453
0.52742
0.514033
0.501576
0.490288
0.480212
0.471214
0.463073
0.455452
0.448085
0.440899
0.433987
0.42743
0.42127
0.415511
0.410109
0.404839
0.399491
0.393731
0.387311
0.380035
0.371738
0.36255
0.35298
0.344023
0.336744
0.3304
0.324653
0.319591
0.315289
0.313297
0.314009
0.316831
0.320288
0.325251
0.333328
0.347344
0.36917
0.381297
0.388672
0.386042
0.362094
0.307446
0.279898
0.25875
0.24496
0.694299
0.687817
0.672499
0.661527
0.644602
0.625756
0.602623
0.580543
0.557366
0.539339
0.521801
0.506502
0.495635
0.48569
0.47795
0.475199
0.472283
0.476467
0.486693
0.497689
0.512967
0.527106
0.541597
0.557601
0.570876
0.584435
0.597511
0.609551
0.62448
0.646496
0.678142
0.722427
0.7761
0.840808
0.91628
1.0011
1.09428
1.19171
1.28931
1.38037
1.46139
1.52833
1.5725
1.58229
1.55379
1.49331
1.41876
1.34146
1.26461
1.19138
1.12006
1.0523
0.985105
0.926983
0.881446
0.846764
0.818985
0.795681
0.795792
0.823227
0.868591
0.896069
0.894728
0.87245
0.841101
0.81244
0.78712
0.765448
0.747239
0.731378
0.717565
0.705553
0.693921