/*--------------------------------*- C++ -*----------------------------------*\
| =========                 |                                                 |
| \\      /  F ield         | OpenFOAM: The Open Source CFD Toolbox           |
|  \\    /   O peration     | Version:  2112                                  |
|   \\  /    A nd           | Website:  www.openfoam.com                      |
|    \\/     M anipulation  |                                                 |
\*---------------------------------------------------------------------------*/
FoamFile
{
    version     2.0;
    format      ascii;
    arch        "LSB;label=32;scalar=64";
    class       volScalarField;
    location    "0.0048";
    object      alphat;
}
// * * * * * * * * * * * * * * * * * * * * * * * * * * * * * * * * * * * * * //

dimensions      [1 -1 -1 0 0 0 0];

internalField   nonuniform List<scalar> 
13875
(
0.119858
0.081605
0.0784619
0.0782775
0.0782717
0.0783653
0.0783711
0.0783028
0.0782978
0.0782857
0.0782781
0.0782989
0.0783895
0.0784192
0.0783974
0.078292
0.078226
0.0782885
0.0783353
0.0783722
0.0782848
0.0782591
0.0784864
0.0814924
0.12093
0.10394
0.057682
0.0570938
0.0571657
0.0566452
0.0565809
0.0566573
0.0570304
0.0571583
0.0571665
0.0571405
0.0570988
0.0566619
0.0566215
0.0566718
0.0570804
0.0570641
0.0570602
0.0567052
0.0565873
0.056634
0.0571378
0.0570764
0.057381
0.104488
0.110621
0.0553266
0.0558806
0.0546918
0.054464
0.0543715
0.054306
0.0541788
0.0541623
0.0542571
0.05433
0.054353
0.0542811
0.0543035
0.0542579
0.0543401
0.0540402
0.0542735
0.0543165
0.0543819
0.0544463
0.0545618
0.0557768
0.0550664
0.111154
0.115888
0.0546462
0.0553841
0.0542837
0.0539163
0.0538335
0.0537631
0.053555
0.0534142
0.0533933
0.0534816
0.053583
0.0537379
0.0537681
0.0537143
0.053524
0.0533462
0.0535532
0.0537854
0.0538478
0.0539124
0.0541666
0.0551918
0.0542808
0.11586
0.121036
0.054635
0.0551225
0.053711
0.0535699
0.0534165
0.053322
0.0530785
0.0529221
0.0529005
0.0529831
0.0530895
0.0532619
0.0532986
0.0532411
0.0530387
0.0528633
0.0530392
0.0532945
0.0534084
0.0535333
0.0535714
0.0550082
0.0543187
0.12147
0.124412
0.054744
0.0551842
0.053571
0.0531843
0.0530136
0.0529
0.0526936
0.0525
0.0524746
0.0525511
0.0526346
0.0528453
0.0528905
0.0528098
0.052587
0.0524491
0.0526355
0.0529123
0.053025
0.053162
0.0534681
0.0548796
0.0543898
0.124136
0.128749
0.0564708
0.0557781
0.0534159
0.0531763
0.0528527
0.0526423
0.0523753
0.0521504
0.0521224
0.0521726
0.0522776
0.0525215
0.0525609
0.0524733
0.052222
0.0521133
0.0522687
0.0525904
0.0528526
0.0531355
0.05333
0.0556245
0.056349
0.12901
0.135704
0.0611894
0.0578298
0.0543815
0.0533305
0.0528121
0.0525093
0.0522294
0.0519463
0.0519062
0.0519149
0.0519919
0.0522981
0.0523529
0.0522397
0.0519501
0.0519159
0.0520887
0.0524904
0.0528251
0.0533003
0.0542595
0.0575165
0.0610286
0.135581
0.15133
0.0692423
0.0615497
0.0559112
0.0544005
0.0533445
0.0527062
0.0522804
0.0519553
0.0518862
0.0518613
0.0519302
0.0522908
0.0523631
0.0522358
0.0518924
0.0519194
0.0520912
0.0525711
0.0532859
0.0542832
0.0556794
0.0609892
0.0683522
0.154123
0.239203
0.0873808
0.0664666
0.0590101
0.055611
0.0541597
0.0532764
0.0527416
0.0523909
0.052278
0.0522244
0.0522498
0.0526627
0.0527679
0.0526264
0.0522803
0.052337
0.0525281
0.0531116
0.0540866
0.0556383
0.0587635
0.0660896
0.08677
0.241167
0.365066
0.118418
0.0761324
0.0627008
0.0583658
0.0558706
0.054606
0.0539175
0.05354
0.0533756
0.053298
0.0532762
0.0537049
0.0538537
0.053744
0.0534502
0.0535056
0.0537078
0.0543283
0.0556583
0.0581123
0.0624099
0.0748293
0.112628
0.364941
0.657709
0.193803
0.104409
0.0757243
0.0639178
0.0595449
0.0577583
0.0567463
0.0562409
0.0559919
0.0558603
0.0558041
0.0561754
0.0563934
0.0563604
0.0562041
0.0562739
0.0565577
0.0574778
0.0591081
0.0638341
0.0748731
0.102376
0.184986
0.644081
0.582128
0.426032
0.182747
0.095068
0.0804932
0.0698771
0.0655303
0.0635291
0.062678
0.0622531
0.0620542
0.0619779
0.0622036
0.0624756
0.0626069
0.0626633
0.0629445
0.0635605
0.0653608
0.0698091
0.0801539
0.0921271
0.173462
0.423778
0.579905
0.49681
0.400719
0.356153
0.364102
0.132252
0.0913094
0.0862512
0.0820697
0.0800369
0.0791495
0.0787166
0.0785411
0.0786276
0.0789591
0.0793806
0.0798938
0.0808822
0.0830266
0.0875641
0.0940418
0.151224
0.365732
0.349476
0.400308
0.503929
0.407064
0.349927
0.341841
0.3718
0.305079
0.227593
0.177576
0.13433
0.126266
0.12313
0.121416
0.120595
0.120478
0.121042
0.12211
0.124013
0.127067
0.135754
0.18133
0.234705
0.304861
0.369801
0.337291
0.363303
0.425989
0.345848
0.315266
0.308991
0.360668
0.427431
0.492947
0.429725
0.384758
0.405628
0.420922
0.417321
0.41077
0.408697
0.412957
0.418915
0.422593
0.411264
0.381216
0.42936
0.498497
0.424589
0.363706
0.313793
0.322012
0.359456
0.261554
0.262221
0.303802
0.387067
0.450927
0.503577
0.522385
0.506393
0.489085
0.491107
0.498096
0.501567
0.503234
0.503926
0.500077
0.494349
0.491184
0.500709
0.51287
0.499428
0.455596
0.391939
0.302982
0.269873
0.277241
0.18877
0.232082
0.303971
0.363083
0.40612
0.458803
0.502476
0.518193
0.482434
0.450145
0.441071
0.437984
0.438448
0.440755
0.445797
0.458389
0.493883
0.517845
0.491446
0.457659
0.412385
0.377801
0.305003
0.218228
0.174992
0.0856125
0.165722
0.301311
0.342572
0.36949
0.399263
0.423109
0.44717
0.426637
0.391678
0.372497
0.364766
0.364372
0.367404
0.376698
0.396559
0.429418
0.442166
0.411631
0.396665
0.368693
0.347266
0.30413
0.168035
0.0860133
0.0356271
0.10618
0.223906
0.284529
0.307217
0.33371
0.357205
0.377685
0.371922
0.346613
0.326404
0.316053
0.314832
0.318698
0.329953
0.348039
0.367777
0.368687
0.349596
0.335119
0.313272
0.292025
0.223994
0.104194
0.0348863
0.037545
0.0873139
0.158484
0.212341
0.243988
0.273287
0.297024
0.320868
0.326509
0.309285
0.288394
0.276618
0.274538
0.279921
0.292304
0.30998
0.321062
0.3123
0.292265
0.273119
0.246594
0.214427
0.150852
0.0829976
0.0346474
0.0878481
0.110005
0.126142
0.16487
0.196168
0.226282
0.24942
0.274381
0.286134
0.273405
0.253958
0.241184
0.23883
0.244322
0.257503
0.273411
0.280158
0.266461
0.245195
0.225041
0.19662
0.167175
0.12058
0.106462
0.0849925
0.135445
0.129803
0.120002
0.134266
0.159766
0.188422
0.21135
0.237073
0.251015
0.24104
0.22224
0.210243
0.207266
0.212602
0.224471
0.239894
0.244679
0.2291
0.208053
0.185553
0.159782
0.134905
0.118133
0.128558
0.130588
0.163538
0.14798
0.117028
0.118871
0.137086
0.158392
0.180127
0.205388
0.219304
0.2096
0.193041
0.181924
0.179721
0.184144
0.195243
0.208629
0.213067
0.196874
0.175503
0.157072
0.136817
0.120074
0.115863
0.148877
0.158162
0.184524
0.162896
0.115325
0.111513
0.120854
0.136283
0.155955
0.178235
0.190857
0.182977
0.167502
0.158352
0.156048
0.160427
0.169638
0.182283
0.18619
0.171388
0.152021
0.134668
0.120111
0.111858
0.114937
0.167045
0.180275
0.205451
0.179772
0.113985
0.108242
0.110063
0.120411
0.137103
0.155664
0.166135
0.15902
0.146197
0.137504
0.13586
0.13913
0.147655
0.157786
0.160948
0.14904
0.132771
0.119137
0.109374
0.109124
0.114638
0.177921
0.206631
0.233748
0.187554
0.114436
0.10606
0.102504
0.108853
0.122238
0.136534
0.144637
0.138766
0.127238
0.12049
0.118715
0.121968
0.12859
0.137931
0.140833
0.131122
0.118351
0.106701
0.101279
0.10619
0.115507
0.189008
0.228017
0.255215
0.196729
0.115646
0.102898
0.0979053
0.100262
0.109448
0.120192
0.126045
0.120581
0.111638
0.105446
0.104305
0.106626
0.112901
0.12025
0.122949
0.115903
0.106067
0.0988885
0.0967118
0.103352
0.116822
0.197681
0.256574
0.282816
0.209218
0.118652
0.100254
0.0940468
0.0938251
0.0997834
0.107301
0.11122
0.106584
0.0981527
0.0934385
0.0920274
0.0943218
0.0988168
0.105519
0.108234
0.103243
0.09649
0.0917068
0.0924678
0.0993447
0.117887
0.20636
0.283114
0.316775
0.221577
0.119723
0.0977042
0.0905229
0.0893578
0.0915007
0.0959011
0.0977454
0.0930518
0.0869339
0.082527
0.0816763
0.0832762
0.0877655
0.0928538
0.0955509
0.0924704
0.0881734
0.0873601
0.0887447
0.0970813
0.121335
0.222238
0.304915
0.330877
0.231099
0.124783
0.0957692
0.0867359
0.0841943
0.0845796
0.0866629
0.0869766
0.0831378
0.0771384
0.0739076
0.0727939
0.0746042
0.0777082
0.0826776
0.08556
0.0842877
0.0821119
0.0823178
0.0852477
0.0948967
0.123792
0.235389
0.329479
0.339123
0.236449
0.129402
0.0952548
0.0839341
0.0804998
0.0788815
0.0791842
0.0781782
0.0737559
0.0693108
0.065983
0.0653075
0.0665717
0.0697787
0.0734008
0.076369
0.0765635
0.0761097
0.0788145
0.0821999
0.0942846
0.128917
0.241808
0.342716
0.350298
0.237415
0.137072
0.0961954
0.0807184
0.0758017
0.0736853
0.0724876
0.0706719
0.0669473
0.0622661
0.0598061
0.0588649
0.0603527
0.0626212
0.0666412
0.0696931
0.0707804
0.0712579
0.0740167
0.0790719
0.09472
0.137196
0.244928
0.351903
0.357294
0.239924
0.148876
0.097103
0.0787662
0.0727333
0.0689729
0.0667317
0.0642834
0.0601547
0.0566625
0.0540183
0.0534108
0.054478
0.0570446
0.0600689
0.0631488
0.0650537
0.066984
0.0713885
0.0772375
0.095753
0.146404
0.244182
0.36111
0.358214
0.241306
0.154423
0.101584
0.0779128
0.0692872
0.0645237
0.0619671
0.0590231
0.0555274
0.0516817
0.0496122
0.048736
0.0499953
0.0518882
0.0553191
0.0582911
0.0605892
0.0623983
0.0676314
0.0764383
0.0991975
0.157772
0.242787
0.368193
0.363781
0.239093
0.154124
0.104459
0.0785986
0.0670846
0.0608246
0.0575663
0.0544662
0.0504503
0.0475327
0.0453365
0.0447574
0.0456791
0.0478565
0.0505043
0.0536065
0.0563583
0.0591634
0.0657583
0.0776158
0.104021
0.158609
0.238532
0.369164
0.365649
0.234848
0.15395
0.112831
0.0798232
0.0647672
0.0572805
0.0535861
0.0503985
0.0471933
0.0439049
0.0421268
0.0413161
0.0424384
0.0440778
0.0471898
0.0501224
0.0527969
0.0556974
0.0636117
0.0785487
0.112555
0.156981
0.233011
0.369223
0.363529
0.22985
0.152825
0.124058
0.0832055
0.0647696
0.055297
0.0505036
0.0470093
0.0433271
0.0408381
0.0389101
0.0383658
0.0392059
0.0410806
0.0433856
0.046355
0.0496649
0.0539979
0.0634206
0.0821661
0.125042
0.154548
0.229157
0.364759
0.364372
0.224611
0.148491
0.124908
0.0872659
0.0643635
0.0531643
0.0476068
0.043939
0.0409442
0.0380922
0.0365388
0.0358133
0.0368379
0.0382469
0.0409996
0.0438233
0.0469655
0.0517246
0.0634184
0.0873129
0.126663
0.149843
0.226784
0.35868
0.362651
0.223106
0.141361
0.124091
0.0946359
0.0660629
0.0530024
0.0457776
0.0414907
0.0378717
0.0357277
0.0340565
0.0335747
0.0343381
0.0359615
0.0379716
0.0410267
0.0452329
0.0519804
0.0649413
0.0957312
0.125438
0.14081
0.223956
0.357719
0.35673
0.221861
0.134859
0.12308
0.106625
0.0684994
0.0527816
0.0443256
0.0394461
0.0363364
0.033698
0.0323226
0.0316281
0.0325426
0.0337807
0.0363808
0.0393596
0.0438133
0.0512014
0.0679066
0.108797
0.123172
0.13375
0.224071
0.353744
0.355205
0.220987
0.129057
0.118605
0.106451
0.0736119
0.0534661
0.0442872
0.0382019
0.0339895
0.0318949
0.0303719
0.0299217
0.0305787
0.032075
0.0340358
0.0377159
0.0439221
0.0529368
0.0737958
0.108804
0.118434
0.129653
0.223746
0.348678
0.348183
0.221264
0.125132
0.11251
0.105774
0.0818629
0.0549751
0.0440264
0.0373229
0.0332998
0.0304381
0.0290969
0.0284136
0.0292722
0.0304954
0.0334487
0.0372674
0.0435443
0.0545712
0.0830663
0.107266
0.112522
0.125363
0.221762
0.345318
0.341777
0.221235
0.123873
0.106707
0.103167
0.0896306
0.0593065
0.0448746
0.0374657
0.0318574
0.0292487
0.0275884
0.0271069
0.0277633
0.0293579
0.0317272
0.0370731
0.044447
0.0597098
0.0894045
0.103115
0.106315
0.123253
0.221606
0.341548
0.33665
0.218129
0.121544
0.102709
0.0988745
0.0893811
0.0657378
0.0462306
0.0371748
0.0323187
0.0286413
0.0268318
0.0260501
0.0269744
0.0286464
0.0324117
0.0372494
0.0462312
0.0678527
0.0891271
0.0972847
0.102471
0.122826
0.21889
0.334224
0.33182
0.217381
0.122084
0.098982
0.0933982
0.0877839
0.0759842
0.0502053
0.0381916
0.0317708
0.0284806
0.0260786
0.0253361
0.0262281
0.0284414
0.0316446
0.0380728
0.0505447
0.0755819
0.0869956
0.0916535
0.0984602
0.12226
0.216378
0.331884
0.322994
0.213296
0.122411
0.097812
0.0894788
0.0850347
0.0762527
0.0566593
0.0398863
0.0326685
0.0285429
0.0261733
0.0249523
0.0263265
0.0284511
0.0327538
0.0403378
0.0568966
0.075492
0.0831638
0.0878884
0.0970512
0.121836
0.213156
0.324184
0.316678
0.210294
0.122217
0.0960442
0.0861635
0.0805781
0.0751552
0.0661061
0.0444596
0.0329324
0.028579
0.0259659
0.0249628
0.0261353
0.0286374
0.0330071
0.045615
0.0666381
0.0745124
0.0793039
0.0847908
0.0954711
0.122517
0.210593
0.316514
0.296709
0.202438
0.120698
0.0957767
0.0840164
0.0767985
0.072827
0.0664739
0.0510049
0.0361708
0.0291417
0.0263369
0.0250699
0.0264816
0.0292322
0.0368366
0.0534978
0.0667348
0.0721168
0.0762525
0.0832022
0.0953189
0.120843
0.20223
0.29579
0.268507
0.191408
0.118844
0.0939358
0.0824644
0.0742307
0.0695715
0.065495
0.058526
0.0404764
0.0306786
0.0264859
0.025405
0.0266164
0.030954
0.0409138
0.0582798
0.0656167
0.0689836
0.0737946
0.081607
0.0930745
0.118389
0.19113
0.268806
0.0747006
0.214673
0.293784
0.324425
0.334616
0.340651
0.348955
0.371709
0.449753
0.694412
0.918274
1.00467
1.01332
0.989035
0.959528
0.936743
0.916746
0.892912
0.862066
0.835449
0.807532
0.769057
0.73212
0.699246
0.667018
0.629223
0.576896
0.497046
0.365539
0.150194
0.0704846
0.223384
0.30116
0.329777
0.341886
0.357784
0.394987
0.519404
0.822778
0.949881
1.00613
1.02415
1.01568
0.991726
0.961585
0.933464
0.908484
0.881526
0.850198
0.824501
0.801793
0.764556
0.725176
0.689237
0.653778
0.61305
0.557646
0.475509
0.346995
0.146664
0.0747133
0.241908
0.314937
0.342673
0.365161
0.421787
0.564549
0.850083
0.962551
0.997568
1.0148
1.01688
1.00317
0.975746
0.943073
0.912453
0.88466
0.859518
0.830463
0.807346
0.791025
0.756883
0.714036
0.675283
0.636773
0.592821
0.533226
0.449705
0.324958
0.141419
0.0798575
0.274334
0.36071
0.398271
0.457557
0.616181
0.850067
0.939799
0.974181
0.992219
1.00127
0.997901
0.977796
0.944018
0.906941
0.877939
0.853781
0.83057
0.80326
0.782914
0.77079
0.74402
0.697276
0.656616
0.615871
0.569489
0.507718
0.423476
0.303548
0.136113
0.0965908
0.427234
0.616699
0.700495
0.759237
0.895834
0.917543
0.936184
0.953502
0.967239
0.975621
0.963573
0.933103
0.898405
0.865923
0.83819
0.813984
0.791881
0.767137
0.748439
0.738879
0.721756
0.672501
0.630362
0.588493
0.54126
0.479163
0.395402
0.281103
0.129405
0.15915
0.687013
0.920971
1.06995
1.0819
0.959211
0.903712
0.90424
0.915513
0.930314
0.931786
0.903901
0.878002
0.852113
0.820963
0.791245
0.766946
0.746031
0.7231
0.70558
0.69594
0.683209
0.636132
0.595375
0.55463
0.508341
0.447131
0.367136
0.261226
0.124562
0.188382
0.737261
0.987991
1.12253
1.08545
0.94157
0.867595
0.854562
0.862289
0.872317
0.861139
0.835815
0.819288
0.797596
0.769281
0.73918
0.716527
0.697653
0.676672
0.6603
0.651668
0.642392
0.600173
0.559156
0.519764
0.475162
0.417571
0.343354
0.24492
0.120262
0.209106
0.733714
0.9794
1.04448
0.988188
0.915307
0.822216
0.793999
0.794254
0.79485
0.785067
0.763059
0.751593
0.73668
0.713723
0.685072
0.664502
0.64831
0.630277
0.616456
0.610383
0.605361
0.569486
0.528988
0.490946
0.447612
0.3927
0.322295
0.230548
0.116519
0.230122
0.733946
0.929946
0.921815
0.856732
0.814745
0.782183
0.724768
0.711172
0.712651
0.704679
0.686993
0.680599
0.673854
0.656542
0.630814
0.612315
0.599273
0.584567
0.574148
0.570919
0.567673
0.538983
0.499928
0.463528
0.421761
0.369158
0.302441
0.21698
0.112799
0.250018
0.718572
0.827976
0.786645
0.726407
0.69927
0.689673
0.655839
0.625642
0.62401
0.622814
0.61188
0.610376
0.61359
0.600296
0.578078
0.561711
0.5516
0.539524
0.53363
0.532408
0.52957
0.507728
0.470871
0.436445
0.396569
0.346374
0.283512
0.20439
0.109362
0.267918
0.691342
0.709543
0.649557
0.602994
0.58764
0.586072
0.580867
0.543097
0.536574
0.543216
0.5415
0.547426
0.560739
0.54733
0.528112
0.514705
0.506166
0.496804
0.494683
0.494418
0.491791
0.475698
0.441781
0.409557
0.371817
0.324238
0.265298
0.192472
0.105949
0.28402
0.64454
0.598191
0.53511
0.483465
0.475369
0.487846
0.497887
0.467339
0.455215
0.468068
0.480416
0.497805
0.515212
0.498568
0.482959
0.472022
0.463337
0.4577
0.457041
0.457585
0.454946
0.443195
0.412797
0.382822
0.347295
0.302466
0.247632
0.18101
0.10241
0.295972
0.581699
0.498076
0.434384
0.386456
0.379842
0.389067
0.421689
0.40662
0.387558
0.398947
0.428772
0.454595
0.475424
0.462104
0.442886
0.433587
0.424491
0.421636
0.421714
0.422488
0.419773
0.410561
0.384173
0.356195
0.322786
0.280729
0.230159
0.169637
0.0985041
0.303307
0.516851
0.409132
0.347101
0.308201
0.305325
0.30867
0.348646
0.350945
0.334033
0.344789
0.383074
0.415775
0.438804
0.431833
0.411934
0.399386
0.390222
0.388622
0.389308
0.389803
0.386881
0.378702
0.355837
0.329773
0.298313
0.259181
0.213064
0.158457
0.0944192
0.304607
0.45453
0.335781
0.287403
0.298129
0.304507
0.288483
0.28915
0.304096
0.294402
0.30162
0.343923
0.379241
0.404992
0.40492
0.38788
0.369521
0.360301
0.359126
0.360303
0.360041
0.356703
0.348553
0.32826
0.304017
0.274511
0.238642
0.196982
0.147902
0.0903668
0.301149
0.396647
0.292573
0.313677
0.345943
0.342015
0.318366
0.279733
0.260851
0.261533
0.270745
0.309795
0.344573
0.3718
0.383168
0.367587
0.344021
0.335157
0.332839
0.33383
0.333153
0.329238
0.320401
0.302145
0.279544
0.252202
0.219736
0.182297
0.138342
0.0865484
0.292939
0.352222
0.324029
0.360214
0.384218
0.374914
0.345604
0.299411
0.240181
0.235812
0.246528
0.282438
0.315367
0.342576
0.367025
0.351567
0.323793
0.313246
0.310376
0.310643
0.30917
0.304422
0.294483
0.277846
0.256793
0.231791
0.202578
0.169031
0.129759
0.0830021
0.278515
0.343355
0.369183
0.38933
0.41311
0.409151
0.378883
0.321566
0.245952
0.214501
0.230097
0.262924
0.291291
0.319035
0.355794
0.340356
0.308005
0.294758
0.290961
0.290256
0.287701
0.281933
0.271123
0.255722
0.23605
0.213329
0.187091
0.157066
0.12194
0.0796436
0.258381
0.364333
0.400436
0.404154
0.422172
0.429245
0.412141
0.337795
0.252201
0.205838
0.218584
0.248908
0.272842
0.303218
0.349479
0.332758
0.29533
0.278973
0.273979
0.271955
0.268198
0.261475
0.25046
0.235857
0.217432
0.196756
0.173207
0.146311
0.114785
0.0764617
0.241908
0.397062
0.422783
0.41387
0.431031
0.44073
0.426613
0.3529
0.263816
0.208635
0.213865
0.240337
0.264206
0.29722
0.351589
0.328849
0.285758
0.26565
0.259013
0.255566
0.250867
0.24295
0.232308
0.217777
0.200781
0.181916
0.160832
0.1367
0.108333
0.0734875
0.226723
0.418934
0.437177
0.424453
0.440169
0.45176
0.431646
0.371013
0.285044
0.220008
0.217672
0.24173
0.26616
0.294585
0.344961
0.331296
0.279729
0.254769
0.24564
0.240498
0.234781
0.225863
0.215793
0.201426
0.186093
0.168859
0.149905
0.128137
0.102674
0.0708091
0.222142
0.443919
0.447062
0.432191
0.445324
0.455674
0.438029
0.398023
0.315615
0.240789
0.229191
0.249567
0.270003
0.294105
0.336208
0.346841
0.279467
0.246304
0.233331
0.226083
0.219522
0.210345
0.200621
0.18725
0.173357
0.157555
0.140315
0.120476
0.0976474
0.0683535
0.215548
0.431796
0.446683
0.444765
0.454865
0.455553
0.448491
0.426106
0.354742
0.275246
0.246906
0.263218
0.27878
0.299013
0.334616
0.381241
0.28881
0.24202
0.223184
0.213067
0.205644
0.196867
0.18711
0.174704
0.162018
0.147515
0.131899
0.113655
0.0930749
0.0660417
0.222967
0.431932
0.449824
0.462311
0.46733
0.459138
0.457669
0.447192
0.397218
0.318733
0.270818
0.277968
0.292731
0.308372
0.33701
0.38261
0.311172
0.244718
0.215592
0.20147
0.192953
0.184945
0.174718
0.163289
0.151774
0.138565
0.124428
0.107695
0.0888575
0.0638694
0.201556
0.365915
0.447512
0.480564
0.482495
0.465613
0.46265
0.464033
0.436325
0.358801
0.298153
0.292151
0.308756
0.320502
0.338087
0.370884
0.360203
0.257464
0.213063
0.193071
0.180897
0.173368
0.163419
0.153168
0.142794
0.130774
0.117778
0.102365
0.0850692
0.0618313
0.150547
0.367086
0.499167
0.579695
0.63302
0.671321
0.704215
0.737505
0.773695
0.809704
0.836676
0.863726
0.894448
0.918911
0.939556
0.962566
0.992265
1.01678
1.00885
0.931198
0.721577
0.47279
0.378055
0.351727
0.342033
0.335353
0.324779
0.29377
0.214272
0.0748059
0.14709
0.348665
0.47784
0.560685
0.616959
0.65824
0.694363
0.73055
0.768528
0.802688
0.825323
0.851357
0.882022
0.909268
0.935134
0.963671
0.994233
1.01763
1.02496
1.00715
0.953356
0.841306
0.55148
0.40733
0.362994
0.344064
0.330903
0.3017
0.223457
0.0705026
0.141902
0.326722
0.452226
0.536484
0.596664
0.641207
0.680406
0.719233
0.759913
0.790569
0.807764
0.831196
0.859407
0.884496
0.912455
0.943138
0.976363
1.00324
1.01576
1.01171
0.993641
0.963054
0.862561
0.600365
0.439538
0.373306
0.348493
0.319455
0.244178
0.074848
0.136664
0.30539
0.426157
0.511207
0.573401
0.620352
0.661757
0.702502
0.745384
0.769271
0.782912
0.803673
0.829701
0.852849
0.877089
0.905573
0.942457
0.975421
0.994749
0.996215
0.986393
0.969549
0.939064
0.858822
0.657326
0.48843
0.42572
0.383644
0.286535
0.0814545
0.13007
0.283115
0.398397
0.482859
0.545215
0.592933
0.635338
0.677232
0.721578
0.736916
0.747568
0.766782
0.790354
0.812109
0.836303
0.863824
0.895892
0.928354
0.958051
0.969645
0.960388
0.946802
0.931228
0.915229
0.918362
0.858383
0.813082
0.709611
0.493545
0.106728
0.12527
0.263294
0.370201
0.451023
0.51234
0.558963
0.599995
0.639984
0.682372
0.693456
0.703686
0.721636
0.743685
0.764291
0.788374
0.817891
0.848742
0.872444
0.897069
0.924578
0.922565
0.906883
0.896622
0.897098
0.96792
1.1019
1.08834
0.937599
0.700703
0.165265
0.12095
0.24689
0.346245
0.421275
0.479152
0.524099
0.563756
0.603984
0.641669
0.649599
0.65828
0.674779
0.694873
0.713496
0.736014
0.765794
0.793331
0.81272
0.82913
0.853891
0.863002
0.852035
0.846383
0.862781
0.95782
1.07387
1.10527
0.976472
0.728764
0.191662
0.117178
0.232412
0.324994
0.396052
0.451331
0.494896
0.533086
0.572657
0.603927
0.608682
0.614578
0.628344
0.64544
0.66135
0.68199
0.710104
0.731985
0.744251
0.756416
0.778241
0.785334
0.782075
0.787326
0.827895
0.902635
0.965723
1.02056
0.960259
0.722371
0.211177
0.113417
0.218709
0.304951
0.372215
0.425124
0.467033
0.503465
0.541403
0.565837
0.569356
0.572495
0.582751
0.596557
0.609202
0.628038
0.653059
0.669015
0.673086
0.680549
0.697682
0.702562
0.70057
0.720745
0.776534
0.796401
0.832145
0.896904
0.907447
0.721988
0.232079
0.109927
0.205982
0.285818
0.349151
0.399568
0.43952
0.473911
0.509369
0.527582
0.530708
0.532147
0.53821
0.549212
0.55895
0.575614
0.597174
0.607907
0.602148
0.605797
0.615372
0.613487
0.618363
0.654926
0.676444
0.679897
0.703703
0.760181
0.801383
0.702173
0.251541
0.106458
0.193905
0.267381
0.326726
0.374465
0.412235
0.444403
0.476661
0.489882
0.492848
0.493311
0.495799
0.504169
0.512387
0.526019
0.544584
0.557011
0.5419
0.534701
0.534884
0.526226
0.538037
0.574657
0.571411
0.569535
0.579078
0.626141
0.685848
0.678163
0.269011
0.102862
0.182261
0.249472
0.304681
0.349641
0.385137
0.415116
0.443464
0.453365
0.456163
0.455952
0.456616
0.462184
0.470076
0.481272
0.496871
0.513327
0.493894
0.474768
0.458252
0.447133
0.468377
0.490323
0.473395
0.458774
0.467688
0.517559
0.57912
0.63147
0.284954
0.098881
0.17069
0.231745
0.282687
0.324905
0.358186
0.385984
0.410395
0.418551
0.421298
0.42084
0.420856
0.423868
0.432058
0.441811
0.461294
0.473478
0.45137
0.423629
0.391758
0.383638
0.405502
0.414103
0.37551
0.368083
0.373644
0.420819
0.482668
0.569143
0.296064
0.0947088
0.159298
0.214378
0.260856
0.300234
0.331469
0.357082
0.378483
0.38607
0.388942
0.38875
0.387995
0.38999
0.398413
0.412319
0.431478
0.436028
0.41212
0.378431
0.339651
0.332718
0.350198
0.339663
0.300312
0.300256
0.302037
0.33862
0.397571
0.506121
0.302454
0.0905846
0.148558
0.198036
0.240017
0.2762
0.305457
0.329158
0.348351
0.356254
0.359456
0.359532
0.358663
0.360719
0.369195
0.388824
0.404843
0.40092
0.373736
0.338647
0.298468
0.294694
0.303112
0.283558
0.293105
0.310912
0.304137
0.285334
0.328885
0.444826
0.302697
0.0867002
0.138842
0.183129
0.220843
0.253635
0.28081
0.302899
0.320393
0.32911
0.332873
0.333427
0.332636
0.335222
0.34432
0.368673
0.383503
0.366884
0.339354
0.304467
0.267917
0.261636
0.260173
0.283388
0.321555
0.346676
0.352468
0.319571
0.292612
0.388876
0.298606
0.0830903
0.130123
0.169654
0.203457
0.232967
0.257953
0.278613
0.294756
0.304448
0.309109
0.310392
0.310168
0.313338
0.32472
0.353087
0.367712
0.337592
0.31059
0.278507
0.244565
0.235032
0.244221
0.303929
0.35224
0.380273
0.389575
0.365166
0.330502
0.34921
0.288259
0.0796658
0.122164
0.157473
0.187752
0.214242
0.237083
0.256482
0.271534
0.282065
0.287705
0.290119
0.290797
0.29493
0.309407
0.342219
0.356705
0.314765
0.286111
0.259673
0.228039
0.214082
0.250276
0.328155
0.386547
0.41265
0.41566
0.393681
0.37457
0.345179
0.27245
0.0764005
0.114822
0.146511
0.173651
0.197463
0.218335
0.236583
0.250837
0.261546
0.268214
0.271951
0.273978
0.279507
0.297095
0.334666
0.350463
0.300658
0.268929
0.245028
0.215286
0.206672
0.258411
0.346436
0.418481
0.429564
0.423999
0.408316
0.40531
0.368504
0.251889
0.0733545
0.108198
0.136731
0.161068
0.182415
0.201504
0.218512
0.232695
0.243017
0.250793
0.255584
0.259077
0.266369
0.288061
0.330724
0.348765
0.295666
0.262162
0.237529
0.210697
0.209733
0.271046
0.363141
0.426604
0.440525
0.433972
0.419094
0.428737
0.402319
0.23655
0.0706221
0.10246
0.128102
0.149996
0.169119
0.186555
0.202007
0.216237
0.226126
0.234722
0.240471
0.245788
0.255604
0.282597
0.333653
0.33927
0.29189
0.26368
0.240048
0.215661
0.222097
0.292858
0.382015
0.429078
0.450176
0.442674
0.429461
0.443145
0.42433
0.223751
0.0681839
0.097453
0.120437
0.140317
0.157643
0.173592
0.187568
0.200968
0.210709
0.219662
0.226052
0.233579
0.247256
0.282895
0.352888
0.330385
0.291446
0.266889
0.246953
0.22838
0.244812
0.324926
0.409901
0.438519
0.451999
0.448374
0.437357
0.452291
0.44833
0.220513
0.0658798
0.092927
0.113626
0.131873
0.147547
0.162183
0.174873
0.187408
0.196988
0.205765
0.213063
0.22374
0.243838
0.29342
0.378681
0.330751
0.296229
0.275943
0.260363
0.248262
0.282911
0.366576
0.436581
0.449702
0.451762
0.456782
0.450379
0.451633
0.435812
0.212087
0.063737
0.0887977
0.107663
0.124406
0.138624
0.15189
0.163435
0.17504
0.185
0.193159
0.201705
0.216384
0.247527
0.317113
0.375018
0.331492
0.305827
0.290363
0.273693
0.273277
0.329141
0.41121
0.454716
0.457815
0.456776
0.469773
0.467876
0.454349
0.434519
0.219001
0.0617019
0.0849786
0.102345
0.117772
0.130843
0.142801
0.153303
0.163574
0.173505
0.181124
0.193615
0.214579
0.261919
0.367373
0.362291
0.332983
0.317656
0.306186
0.289811
0.300208
0.368207
0.446447
0.467948
0.461398
0.465169
0.486073
0.486463
0.450809
0.368343
0.198023
0.808925
0.760028
0.72522
0.70616
0.684839
0.665429
0.648036
0.634572
0.617492
0.604634
0.593384
0.583395
0.576746
0.570893
0.566164
0.561003
0.555176
0.548914
0.542619
0.535967
0.528072
0.518537
0.508304
0.497356
0.484773
0.470544
0.455254
0.438592
0.420596
0.402567
0.385168
0.368066
0.351755
0.335982
0.320976
0.306752
0.293066
0.279735
0.266653
0.253701
0.241062
0.2288
0.216846
0.205219
0.1933
0.18449
0.177806
0.170807
0.163747
0.157313
0.151868
0.1474
0.143638
0.140708
0.138482
0.136627
0.135025
0.133611
0.132283
0.131098
0.130047
0.129295
0.129322
0.129897
0.130872
0.132164
0.134394
0.137603
0.1421
0.146297
0.150028
0.153222
0.155941
0.158251
0.15999
0.162485
0.164116
0.164209
0.16422
0.164202
0.162923
0.161918
0.160659
0.158414
0.153448
0.1479
0.141863
0.135303
0.128184
0.120393
0.111677
0.10233
0.0925462
0.0825265
0.0728135
0.0653921
0.0596566
0.0552834
0.0521431
0.0499205
0.0483495
0.0472244
0.046406
0.0458306
0.0454397
0.0452026
0.0451053
0.0451146
0.0452047
0.0453828
0.0456546
0.046006
0.0464371
0.04689
0.0474918
0.0481336
0.048881
0.0498208
0.0509722
0.0520277
0.0533125
0.0547939
0.0562953
0.0579443
0.0597926
1.10093
1.04096
0.988861
0.95579
0.925698
0.901726
0.878401
0.860876
0.842434
0.826088
0.811395
0.79934
0.790753
0.783129
0.777541
0.772544
0.769764
0.768923
0.77045
0.773652
0.777322
0.780859
0.784715
0.787359
0.787065
0.783594
0.776874
0.767627
0.756806
0.742959
0.72557
0.705625
0.684132
0.661572
0.639179
0.619105
0.601004
0.584096
0.568978
0.554697
0.540138
0.52345
0.5044
0.482296
0.462824
0.443225
0.422792
0.400497
0.375828
0.350385
0.325008
0.301871
0.281009
0.263217
0.248132
0.23535
0.224662
0.215989
0.209173
0.204115
0.200708
0.199611
0.199585
0.202021
0.206552
0.213036
0.221801
0.232463
0.244158
0.258431
0.269999
0.274136
0.276339
0.276005
0.274195
0.269795
0.263137
0.257758
0.252115
0.246483
0.241231
0.2363
0.231111
0.224919
0.217824
0.210368
0.202751
0.195083
0.187367
0.179721
0.172432
0.164919
0.157459
0.149822
0.140648
0.126248
0.108476
0.0908823
0.0789218
0.0718426
0.0671739
0.0642208
0.0623577
0.0610937
0.0602216
0.059654
0.0593442
0.0592173
0.0592462
0.0594254
0.0597455
0.0601884
0.0607505
0.0613398
0.0621302
0.0630233
0.0642222
0.0657707
0.0674523
0.0689001
0.0708395
0.0731627
0.0756165
0.0783655
0.0814918
1.04938
1.00533
0.963727
0.938782
0.919366
0.907759
0.89514
0.886518
0.878601
0.869026
0.866368
0.865907
0.867461
0.869805
0.873491
0.879598
0.886259
0.894115
0.902834
0.911722
0.92033
0.927056
0.929422
0.926603
0.918121
0.903843
0.882808
0.854512
0.822265
0.792324
0.768795
0.75068
0.734139
0.717712
0.702161
0.686406
0.672119
0.658981
0.64332
0.622604
0.60825
0.595375
0.582421
0.56954
0.557425
0.547413
0.540404
0.531142
0.519451
0.501754
0.476719
0.446707
0.415416
0.384197
0.355982
0.331533
0.311314
0.295653
0.285005
0.276365
0.272111
0.272714
0.280402
0.292826
0.309372
0.326484
0.337329
0.344279
0.347576
0.348065
0.344698
0.340874
0.336793
0.330489
0.320148
0.308422
0.298698
0.289952
0.281523
0.273705
0.266448
0.259237
0.251706
0.244064
0.236318
0.228534
0.220801
0.213192
0.205832
0.19884
0.192419
0.186839
0.181634
0.176602
0.171793
0.167361
0.162337
0.153985
0.137545
0.116498
0.0975616
0.0859027
0.0787807
0.0744408
0.0719605
0.0704452
0.0695213
0.0689976
0.0687608
0.068765
0.0689781
0.0693528
0.0699025
0.0704875
0.0713836
0.0724315
0.0739194
0.0759107
0.0781555
0.0802471
0.0829768
0.0860375
0.0893377
0.0931424
0.0975206
0.998708
0.966973
0.941096
0.92573
0.911515
0.90624
0.901834
0.897235
0.894354
0.889112
0.891957
0.896504
0.902598
0.911885
0.922368
0.934898
0.947868
0.960987
0.972356
0.979958
0.982371
0.977974
0.96513
0.942911
0.912591
0.877328
0.842116
0.809638
0.774788
0.739525
0.714136
0.699233
0.686848
0.676387
0.668546
0.659097
0.645442
0.635865
0.623617
0.607234
0.587982
0.56898
0.550327
0.533125
0.517943
0.504827
0.495525
0.490204
0.491946
0.499059
0.51156
0.531279
0.537401
0.523198
0.494233
0.457205
0.423617
0.394898
0.375119