/*--------------------------------*- C++ -*----------------------------------*\
| =========                 |                                                 |
| \\      /  F ield         | OpenFOAM: The Open Source CFD Toolbox           |
|  \\    /   O peration     | Version:  2112                                  |
|   \\  /    A nd           | Website:  www.openfoam.com                      |
|    \\/     M anipulation  |                                                 |
\*---------------------------------------------------------------------------*/
FoamFile
{
    version     2.0;
    format      ascii;
    arch        "LSB;label=32;scalar=64";
    class       volVectorField;
    location    "0.0048";
    object      U;
}
// * * * * * * * * * * * * * * * * * * * * * * * * * * * * * * * * * * * * * //

dimensions      [0 1 -1 0 0 0 0];

internalField   nonuniform List<vector> 
13875
(
(2204.16 109.693 1.81273e-18)
(2142.47 5.60813 -9.38734e-19)
(2170.2 -2.21395 -9.41154e-19)
(2167.93 -1.01553 0)
(2170.72 0.127711 0)
(2169.51 -0.31732 9.36356e-19)
(2169.78 -1.41914 -9.36529e-19)
(2169.47 -1.06354 -4.68602e-19)
(2169.46 0.0784907 4.68209e-19)
(2169.23 0.250812 0)
(2169.54 0.186478 -3.88201e-22)
(2169.48 0.904873 -3.88045e-22)
(2169.59 1.00397 0)
(2169.37 -0.0657762 -4.68242e-19)
(2169.41 -0.97958 4.68612e-19)
(2169.68 -1.40454 0)
(2170.19 -0.0865601 9.36586e-19)
(2169.23 1.16758 -9.37527e-19)
(2170.04 1.13834 3.85831e-22)
(2169.63 0.312538 -3.85381e-22)
(2170.89 -0.301963 -9.35866e-19)
(2167.82 0.326149 9.3703e-19)
(2171.01 2.53353 -1.87805e-18)
(2143.69 -8.65949 1.91645e-18)
(2210.37 -106.704 1.76347e-18)
(2253.38 91.932 -1.63248e-18)
(2228.45 -1.13369 1.8834e-18)
(2247.31 0.696962 8.71964e-19)
(2245.47 1.17181 -8.67164e-19)
(2248.51 -0.699026 4.16565e-22)
(2248.02 0.644742 5.20522e-22)
(2247.83 2.0179 4.16145e-22)
(2245.81 1.50167 -4.36146e-19)
(2245.51 -0.134001 4.35269e-19)
(2245.1 -0.451758 2.17528e-19)
(2245.34 -0.228526 -1.6306e-19)
(2245.44 -1.05404 -5.3154e-20)
(2247.73 -1.20132 0)
(2247.82 0.122576 -4.34972e-19)
(2247.54 1.09817 4.33467e-19)
(2245.69 1.49163 4.3586e-19)
(2245.86 0.168042 -4.35172e-19)
(2245.67 -1.52123 5.18582e-22)
(2247.9 -1.69433 -5.19427e-22)
(2248.14 -0.639619 5.20495e-22)
(2248.81 0.944654 -8.71601e-19)
(2245.56 -0.611291 2.59958e-18)
(2247.21 -1.6362 -1.74261e-18)
(2228.97 3.62421 5.4274e-22)
(2256.44 -96.9842 -1.71331e-18)
(2252.38 78.1179 0)
(2236.33 -18.2278 0)
(2249.43 4.42672 0)
(2250.71 -1.92049 0)
(2254.09 -3.1001 -1.65006e-18)
(2253.73 -0.21394 1.64289e-18)
(2254.09 1.80855 1.63926e-18)
(2254 2.07889 -2.57946e-18)
(2253.92 0.838829 8.6055e-19)
(2253.23 0.440384 4.30815e-22)
(2253.01 -0.193612 -4.307e-19)
(2253.13 -2.42407 4.30726e-19)
(2253.99 -2.42276 0)
(2253.87 0.0186137 0)
(2253.96 2.23139 4.08185e-22)
(2253.3 1.70155 0)
(2254.53 -0.195455 8.37997e-22)
(2253.17 -1.9215 4.30002e-19)
(2254.12 -2.30068 -4.1035e-19)
(2253.75 -0.141683 0)
(2254.29 2.94377 0)
(2251 1.53874 0)
(2250.66 -4.77384 0)
(2237.91 13.8479 0)
(2256.93 -74.7048 0)
(2247.84 51.349 0)
(2235.03 -28.6454 1.81427e-18)
(2249.21 7.13605 -3.4169e-18)
(2251.68 -4.90473 3.46507e-18)
(2253.8 -3.79793 -1.64946e-18)
(2253.61 -0.455818 0)
(2254.03 1.59469 -7.93268e-22)
(2254.42 1.62645 0)
(2254.29 0.664608 0)
(2254.28 0.623094 0)
(2254.19 0.0789482 0)
(2253.94 -2.32601 -8.43581e-22)
(2253.95 -2.44649 -4.99953e-20)
(2253.85 -0.0109053 5.09166e-20)
(2253.93 2.17184 0)
(2254.17 1.4629 0)
(2255 -0.113685 7.99888e-22)
(2254.03 -1.23717 -8.63969e-19)
(2254.14 -2.13018 8.11847e-19)
(2253.67 -0.0132321 -1.62025e-18)
(2254.1 3.44389 1.62384e-18)
(2252.11 4.75166 1.74103e-18)
(2249.77 -8.76295 -1.72014e-18)
(2235.68 31.3606 0)
(2251.65 -58.3672 0)
(2244.87 39.2704 1.74903e-18)
(2235.43 -47.8574 0)
(2248.69 10.3664 0)
(2250.44 -8.08394 0)
(2254.14 -5.27147 0)
(2253.71 -1.09416 1.65344e-21)
(2254.14 1.09429 1.66547e-21)
(2254.3 1.46697 4.31131e-19)
(2254.18 0.630043 -4.05399e-19)
(2254.25 0.676438 2.00621e-19)
(2254.21 0.459124 -2.17298e-19)
(2253.97 -2.08246 0)
(2253.89 -2.39757 0)
(2253.79 -0.105896 -1.66753e-21)
(2253.93 1.99109 0)
(2254.23 0.917917 -1.68539e-21)
(2254.95 -0.100295 8.04736e-19)
(2253.84 -0.827701 -8.56031e-19)
(2253.94 -1.93035 1.69708e-18)
(2253.61 0.386805 -1.67499e-18)
(2254.23 4.67644 1.65912e-21)
(2250.78 6.99557 0)
(2250 -11.3385 0)
(2237.24 42.8966 0)
(2250.65 -35.2384 0)
(2241.48 6.73456 0)
(2231.53 -63.5871 9.12431e-19)
(2247.14 12.0951 -8.47597e-19)
(2250.99 -11.7208 0)
(2253.05 -6.13551 8.60598e-19)
(2253.1 -1.59152 -4.29944e-19)
(2253.75 0.749165 -2.66648e-21)
(2254.24 1.0925 -2.16843e-19)
(2254.06 0.439206 -4.27044e-19)
(2254.17 0.656416 1.57718e-19)
(2254.3 0.725269 1.60291e-21)
(2253.84 -1.86129 2.67674e-19)
(2253.7 -2.38063 -2.10968e-19)
(2253.63 -0.160619 3.35325e-21)
(2253.73 1.86917 -4.24396e-19)
(2254.09 0.681385 4.32584e-19)
(2254.83 0.00389317 1.62954e-21)
(2253.94 -0.026272 -1.68171e-21)
(2253.91 -1.42657 -1.66669e-21)
(2253.09 0.582734 -8.43949e-19)
(2253.32 5.13077 8.4947e-19)
(2251.59 11.4388 0)
(2247.42 -14.8932 0)
(2232.45 65.4683 -1.93346e-18)
(2246.18 -18.9338 -1.26567e-19)
(2254.01 2.8876 -4.95234e-20)
(2227.49 -79.3424 6.0245e-20)
(2242.99 12.0156 0)
(2248.61 -16.4171 -2.69136e-23)
(2252.74 -8.28145 -2.62233e-23)
(2252.92 -2.9689 0)
(2253.61 -0.0709634 0)
(2253.84 0.905468 -8.56388e-19)
(2253.73 0.40143 8.53174e-19)
(2253.95 0.676153 0)
(2254.12 1.09572 1.69993e-18)
(2253.8 -1.41501 4.11785e-21)
(2253.48 -2.11129 -1.70961e-18)
(2253.37 -0.329242 -1.69576e-21)
(2253.58 1.45255 0)
(2254.02 0.0979192 3.42798e-18)
(2254.49 -0.00859632 1.80076e-21)
(2253.51 0.340343 -6.88079e-18)
(2253.32 -1.01431 3.42414e-18)
(2252.78 1.74564 2.59652e-23)
(2252.79 7.25017 0)
(2248.63 13.7844 3.52935e-18)
(2244.13 -12.2456 -3.3117e-18)
(2228.87 72.9174 3.81539e-18)
(2247.22 2.84765 -3.1818e-18)
(2218.35 -22.8903 -3.17406e-19)
(2214.71 -87.4623 -7.49736e-18)
(2235.62 3.24941 8.7094e-22)
(2246.16 -23.293 2.61296e-23)
(2249.23 -10.4428 -8.0926e-22)
(2250.9 -4.15506 0)
(2252.53 -0.793531 -3.43041e-18)
(2253.31 0.205192 3.42897e-18)
(2253.22 -0.0320137 0)
(2253.52 0.3301 -8.20718e-22)
(2253.71 1.07031 -8.23778e-22)
(2253.36 -1.08284 0)
(2252.92 -1.96591 0)
(2252.8 -0.302407 -1.65015e-21)
(2253 1.28545 -8.38459e-22)
(2253.54 -0.0333843 2.5971e-23)
(2253.97 0.376068 -8.57027e-22)
(2253.12 1.36274 -2.60958e-23)
(2252.8 0.190027 -1.71626e-18)
(2251.03 2.7449 -1.34722e-20)
(2249.65 9.1263 1.68971e-18)
(2246.48 20.3148 8.86216e-22)
(2236.84 -4.29863 3.45939e-18)
(2216.52 81.6222 -3.53616e-18)
(2222.19 18.1725 2.50355e-23)
(2113.28 -37.9526 9.42452e-19)
(2168.8 -98.6395 0)
(2217.08 -20.3959 -8.3158e-22)
(2235.1 -33.0768 -8.65227e-19)
(2245.97 -19.2738 1.70903e-18)
(2248.97 -8.67457 -1.71751e-18)
(2250.87 -2.90787 7.73208e-21)
(2251.81 -0.29367 8.57577e-19)
(2251.97 0.0245471 0)
(2252.37 0.301599 -8.45214e-19)
(2252.7 1.34797 8.44905e-19)
(2252.57 -0.10369 0)
(2251.93 -1.38922 0)
(2251.7 -0.726757 2.09373e-21)
(2252.03 0.510142 8.353e-22)
(2252.51 -0.673218 8.47563e-19)
(2252.71 0.458416 -8.4924e-19)
(2251.65 1.94535 0)
(2250.79 1.51719 8.5825e-19)
(2248.95 6.33544 -1.71827e-18)
(2246.28 16.1948 8.46717e-19)
(2236.18 29.6924 -8.40087e-22)
(2218.69 16.9598 0)
(2171.04 94.0188 0)
(2116.68 35.4174 0)
(1873.37 -142.274 -6.56959e-17)
(2125.76 -161.014 8.42357e-17)
(2198.43 -55.0857 0)
(2228.15 -56.1955 -2.9804e-17)
(2239.13 -23.0676 3.08924e-17)
(2245.22 -11.2971 0)
(2248.19 -5.14677 -3.00969e-20)
(2249.37 -1.943 -1.47689e-17)
(2249.72 -1.05493 1.4826e-17)
(2250.21 -0.682481 -2.95563e-20)
(2250.63 0.644764 0)
(2250.55 0.189946 -3.72022e-18)
(2249.8 -0.824253 5.58111e-18)
(2249.47 -0.58541 -1.89497e-18)
(2249.79 0.259197 -2.93875e-20)
(2250.27 -0.276056 0)
(2250.36 1.43726 0)
(2249.21 3.92083 -2.97622e-17)
(2248.3 4.89169 2.93582e-17)
(2245.28 9.31577 -3.02329e-17)
(2240.12 21.0669 2.94178e-17)
(2228.72 53.9605 3.2258e-17)
(2199.9 53.8415 -2.92767e-17)
(2128.72 163.01 -8.3358e-17)
(1883.68 138.91 -1.2606e-17)
(1652.57 -216.051 -9.0874e-17)
(2011.41 -308.266 1.37648e-16)
(2158.25 -106.749 0)
(2207.33 -64.9295 6.90244e-17)
(2230.48 -30.2505 -7.1366e-17)
(2238.75 -15.3023 -3.36136e-17)
(2242.59 -5.83852 3.42774e-17)
(2244.13 -1.90919 -3.37489e-17)
(2244.92 -0.706821 3.39944e-17)
(2245.56 -0.210859 3.25347e-20)
(2246.15 1.04937 0)
(2246.21 1.40826 -2.11881e-18)
(2245.42 0.157684 2.16572e-18)
(2244.92 -1.02091 3.28102e-20)
(2245.16 -0.904021 3.26341e-20)
(2245.49 -1.18075 3.35982e-20)
(2245.61 0.42884 0)
(2244.27 3.6667 0)
(2242.6 5.84008 -6.89106e-17)
(2239.17 13.0484 6.73148e-17)
(2231.24 25.6794 -7.18343e-17)
(2210.18 59.3441 1.46892e-16)
(2163.13 97.5553 -7.05388e-17)
(2014.08 298.121 -3.88835e-20)
(1694.83 206.036 8.78814e-20)
(1278.23 -594.131 -1.08945e-16)
(1741.62 -588.514 1.18572e-16)
(2035.19 -177.997 2.18667e-16)
(2167.08 -108.151 -9.40886e-17)
(2204.16 -35.8765 0)
(2221.28 -15.6584 7.42614e-17)
(2229.96 -8.40756 -7.67073e-17)
(2232.66 -4.89231 0)
(2234.1 -3.28126 3.57228e-20)
(2234.91 -2.61872 0)
(2235.64 -0.367366 0)
(2235.83 1.12899 0)
(2235.19 1.05163 4.70567e-18)
(2234.59 -0.0316877 -4.69559e-18)
(2234.6 -0.330584 -3.87241e-20)
(2234.54 0.105652 -3.51803e-20)
(2234.51 1.93293 0)
(2232.77 5.97298 0)
(2230.19 10.3597 0)
(2220.92 14.3452 -7.81774e-17)
(2206.43 34.7299 1.57491e-16)
(2170.84 100.377 -7.32787e-17)
(2050.82 166.324 -1.32487e-16)
(1751.32 592.806 1.00373e-16)
(1280.69 547.468 -5.99763e-20)
(1296.79 -611.961 1.61119e-16)
(1113.83 -1077.96 0)
(1650.74 -485.135 0)
(1903.22 -123.399 -1.11664e-16)
(2131.17 -74.2446 1.11942e-16)
(2179.3 -42.5498 0)
(2194.22 -15.8231 1.25255e-20)
(2199.7 -4.8293 4.21002e-17)
(2202.94 -1.81842 -4.26785e-17)
(2204.28 0.165075 0)
(2205.54 2.12954 -1.04794e-17)
(2206.03 3.10152 1.05155e-17)
(2205.78 2.33729 -5.28764e-18)
(2205.05 -0.702849 5.2849e-18)
(2204.53 -1.70458 3.90425e-20)
(2203.5 -2.58404 -4.18404e-17)
(2202.7 -0.861138 8.31549e-17)
(2199.35 3.76256 8.18264e-19)
(2192.93 14.818 -4.21662e-17)
(2176.62 43.7689 -9.25815e-17)
(2116.18 61.9706 8.70087e-17)
(1891.02 100.081 8.55122e-20)
(1691.01 452.271 2.72374e-20)
(1107.43 1064.32 1.68295e-16)
(1314.15 613.848 7.44184e-18)
(1351.46 -631.78 0)
(1147.18 -1050.66 0)
(1265.39 -740.084 0)
(1168.03 -827.274 0)
(1950.24 -250.114 0)
(1971.11 -38.9333 1.14402e-16)
(2066.09 -20.5981 -1.15105e-16)
(2086.36 -21.7924 1.56353e-19)
(2093.68 -15.4367 -1.1008e-20)
(2097.29 -12.9677 2.57857e-17)
(2101.02 -7.16165 -2.59854e-17)
(2102.98 -2.4221 -3.06853e-19)
(2103.29 2.07682 -8.01819e-19)
(2102.05 6.03557 9.36191e-19)
(2099.96 6.97211 -2.57268e-17)
(2096.6 11.0056 2.55851e-17)
(2092.45 13.4727 1.40626e-19)
(2083.96 21.0502 0)
(2059.16 31.6736 0)
(1949.48 60.8123 0)
(1913.28 321.62 -2.06105e-16)
(1139.37 827.05 -5.7902e-17)
(1278.97 717.688 1.62098e-16)
(1145.49 1014.1 2.04816e-20)
(1361.36 620.79 2.08095e-20)
(1425.63 -619.467 0)
(1254.45 -902.914 4.12755e-20)
(1298.67 -747.099 0)
(1178.43 -834.169 -1.66236e-16)
(1269.72 -705.865 3.40983e-16)
(1306.18 -695.712 -2.20222e-16)
(1718.84 -123.068 0)
(1675.49 -34.9088 -1.34254e-19)
(1681.17 3.59664 0)
(1692.43 18.6536 0)
(1706.64 18.2465 -2.26336e-17)
(1716.72 12.9756 2.31201e-17)
(1718.41 5.09695 2.28688e-17)
(1715.5 -8.41181 -2.29668e-17)
(1705.55 -9.99862 0)
(1695.42 -17.1176 -9.31289e-17)
(1680.25 -2.43624 9.15015e-17)
(1674.16 34.5592 1.00063e-16)
(1713.96 119.997 -8.32594e-17)
(1245.08 699.61 0)
(1261.09 716.71 0)
(1153.17 833.967 -1.67407e-19)
(1304.38 727.74 -1.69943e-16)
(1252.83 894.201 3.74007e-16)
(1411.41 617.412 -1.71512e-16)
(1500.61 -617.865 -1.71891e-16)
(1388.44 -825.366 1.86647e-16)
(1357.48 -691.799 0)
(1213.96 -706.224 -2.23564e-16)
(1225.19 -573.043 -3.7364e-17)
(1028.46 -508.301 3.22418e-16)
(978.032 -299.24 -2.40224e-16)
(713.834 -213.488 1.34852e-16)
(616.67 -131.269 0)
(632.296 -118.329 0)
(660.331 -88.896 -4.33475e-20)
(685.279 -47.0999 1.88428e-19)
(687.697 -0.642019 0)
(682.953 51.3998 0)
(652.801 82.4354 6.58537e-17)
(648.166 124.171 -6.49293e-17)
(611.226 125.691 -1.33081e-16)
(712.347 221.359 2.68224e-16)
(970.282 297.012 4.272e-18)
(991.742 501.65 -1.15033e-16)
(1214.44 576.226 0)
(1186.39 710.718 0)
(1349.72 677.749 -1.82959e-16)
(1344.92 851.815 2.05986e-16)
(1481.48 625.768 -4.55569e-20)
(1617.52 -580.733 1.63227e-16)
(1503.15 -691.788 -9.86003e-20)
(1499.54 -560.669 1.05579e-16)
(1391.34 -495.633 -9.20186e-17)
(1327.38 -383.317 -4.89325e-20)
(1116.09 -432.349 1.09219e-19)
(1014.87 -278.299 1.17236e-16)
(704.578 -177.648 -1.94723e-16)
(540.88 -84.2501 6.57307e-17)
(481.355 -58.7725 0)
(462.813 -33.2083 -3.34122e-17)
(463.403 -17.2866 3.31882e-17)
(461.071 -2.0258 0)
(460.236 17.2041 6.27498e-20)
(459.594 28.6255 -3.3108e-17)
(483.694 60.602 3.34558e-17)
(537.49 75.6416 0)
(695.437 184.465 -1.29226e-16)
(999.62 284.349 1.17396e-16)
(1076.25 430.657 1.0494e-16)
(1301.84 377.103 -2.08249e-16)
(1364.45 517.077 1.13292e-16)
(1489.14 571.273 0)
(1489.88 728.181 1.7501e-16)
(1609.61 595.971 -6.01079e-18)
(1766.24 -478.553 -4.93459e-18)
(1709.71 -410.751 8.89602e-17)
(1566.22 -300.111 -4.09059e-17)
(1400.11 -189.111 -5.64271e-17)
(1381.8 -169.668 7.68472e-17)
(1241.81 -186.814 -5.58747e-17)
(1089.75 -170.419 5.79927e-17)
(812.632 -177.671 -6.32463e-17)
(619.808 -97.6209 -3.64641e-19)
(572.446 -62.9443 3.26744e-17)
(560.423 -29.472 1.63641e-17)
(562.728 -13.2963 -4.35263e-20)
(561.48 -1.06002 -1.64404e-17)
(559.755 13.8398 -5.94299e-20)
(558.779 29.0159 -7.38446e-20)
(576.799 67.4156 -2.03742e-18)
(639.873 99.6604 1.79579e-20)
(851.511 192.042 5.8068e-18)
(1107.54 180.213 -3.75547e-18)
(1240.61 188.764 0)
(1365.3 174.421 1.23803e-17)
(1386.49 184.623 -3.75044e-17)
(1571.16 331.31 4.71546e-17)
(1700.9 455.161 -6.26443e-17)
(1763.99 494.358 5.88164e-17)
(1881.2 -419.803 -9.14804e-20)
(1847.34 -152.247 -1.20468e-19)
(1729.2 11.6719 1.49426e-19)
(1564.44 -35.8739 -6.58007e-21)
(1488.75 -38.2106 -1.7322e-19)
(1373.36 -56.6962 -1.98991e-19)
(1276.97 -60.2103 -7.83583e-21)
(1068.83 -104.204 0)
(865.99 -82.5327 0)
(785.834 -72.7316 6.56007e-17)
(765.807 -50.5137 -6.59684e-17)
(767.037 -26.5671 -8.82167e-21)
(766.555 2.34737 8.81676e-21)
(763.66 32.8763 -8.49152e-18)
(762.521 57.7449 8.23481e-18)
(782.461 86.493 0)
(863.462 88.5854 0)
(1065.12 112.7 -6.0461e-17)
(1264.14 59.3326 5.95969e-17)
(1353.26 64.3053 -1.91239e-19)
(1464.61 55.2092 0)
(1552.49 44.1548 0)
(1739.06 3.57881 -1.5102e-19)
(1845.86 143.654 -1.23647e-19)
(1878.04 425.53 1.3763e-16)
(1837.57 59.5093 -1.57323e-16)
(1821.35 204.476 -2.56044e-16)
(1718.14 317.228 1.23902e-16)
(1662.71 245.766 0)
(1608.71 127.865 2.16213e-19)
(1511.73 63.1266 1.08405e-16)
(1439.42 34.7681 -2.1561e-16)
(1296.53 -33.5088 1.13897e-16)
(1106 -51.5904 -1.25856e-16)
(981.675 -49.4874 1.27189e-16)
(936.131 -33.2074 3.24158e-17)
(922.496 -16.6944 -4.04179e-17)
(920.501 4.17793 -8.13347e-18)
(921.303 24.9751 1.64553e-17)
(936.977 41.9435 0)
(985.255 60.2655 0)
(1111.23 57.7139 1.2326e-16)
(1296.3 43.3636 -2.35293e-16)
(1429.46 -26.6707 1.13786e-16)
(1499.71 -50.2056 2.26349e-19)
(1598.36 -123.652 1.83387e-16)
(1677.34 -239.01 -4.47674e-17)
(1740.09 -301.189 -4.49793e-16)
(1816.19 -230.509 6.34621e-16)
(1844.31 -53.6606 -2.53642e-16)
(1301.67 540.613 1.50613e-19)
(1418.7 825.159 -2.23673e-16)
(1689.6 641.754 1.21054e-16)
(1709.54 455.475 0)
(1682.04 297.444 0)
(1598.57 199.032 0)
(1547.41 138.131 0)
(1438.46 49.4496 0)
(1265.06 8.01987 -5.40758e-17)
(1130.31 -10.4992 1.10477e-16)
(1065.72 -8.74472 -8.42546e-17)
(1048.05 -3.66981 3.16543e-17)
(1042.8 5.71761 -3.5496e-18)
(1048.37 14.1598 1.49988e-20)
(1070.4 19.1045 -5.58327e-17)
(1142.83 22.7705 5.61158e-17)
(1283.02 0.531098 0)
(1446.9 -40.9725 0)
(1542.47 -137.518 -1.76367e-16)
(1594.66 -187.932 1.87909e-16)
(1681.97 -301.387 -1.69726e-19)
(1720.33 -464.471 6.87225e-20)
(1693.95 -645.821 -9.16639e-20)
(1406.24 -846.816 -8.59561e-20)
(1270.87 -527.306 0)
(890.461 681.508 -1.97025e-16)
(1473.5 946.113 1.4084e-16)
(1707.12 820.029 -1.31281e-19)
(1733.06 650.845 1.54258e-16)
(1733.44 446.967 -1.26358e-16)
(1665.23 309.995 0)
(1625.28 227.128 -8.2461e-17)
(1537.56 130.891 8.08027e-17)
(1380.11 68.8575 -4.68483e-17)
(1241.13 33.5204 9.59714e-17)
(1174.69 18.5936 -4.82685e-17)
(1152.86 9.33207 1.81212e-19)
(1149.81 5.04701 0)
(1154.05 -0.610437 2.46045e-17)
(1183.21 -10.1948 2.35306e-17)
(1260.54 -26.7236 -4.84462e-17)
(1401.23 -67.9636 -8.81867e-17)
(1544.88 -130.923 8.79841e-17)
(1619.61 -230.425 -7.41719e-17)
(1664.58 -306.939 8.04637e-17)
(1733.15 -465.957 7.99491e-20)
(1734.75 -672.126 -7.50822e-20)
(1695.93 -838.816 0)
(1450.79 -959.507 6.81545e-20)
(840.352 -648.05 0)
(914.014 597.621 1.64467e-16)
(1519.65 912.722 -1.42139e-16)
(1700.64 929.741 4.71794e-20)
(1753.52 767.929 0)
(1762.73 585.85 0)
(1705.34 435.981 -7.3591e-21)
(1682.11 317.844 0)
(1610.42 209.662 7.8262e-20)
(1472.83 136.554 0)
(1343.45 78.663 4.26168e-17)
(1270.23 45.8906 -6.41666e-17)
(1249.92 22.1589 3.2233e-17)
(1244.4 4.56927 -1.08358e-17)
(1251.64 -14.4077 0)
(1278.53 -38.9617 0)
(1358.96 -71.2294 4.05684e-17)
(1489.58 -130.994 -1.16797e-16)
(1616.24 -204.035 7.65711e-17)
(1675.7 -326.605 -6.33041e-17)
(1704.83 -432.639 7.056e-17)
(1765.41 -590.145 0)
(1758.49 -778.782 0)
(1694.35 -944.827 0)
(1521.14 -909.984 -8.07603e-21)
(862.648 -531.291 -1.90397e-16)
(1053.18 526.702 -3.11555e-20)
(1593.88 854.206 1.14933e-16)
(1707.71 928.979 -9.57455e-17)
(1775.9 818.228 0)
(1781.51 671.812 0)
(1743.85 515.224 7.76142e-21)
(1726.99 388.64 6.46327e-17)
(1662.26 277.025 -6.16649e-17)
(1539.54 188.919 3.23861e-20)
(1420.66 119.725 3.4252e-20)
(1356.29 72.475 3.50904e-20)
(1333.63 35.2016 -1.02027e-20)
(1330.69 3.6951 -1.02106e-20)
(1334.9 -28.8141 1.91618e-17)
(1363.42 -65.9228 -1.93716e-17)
(1434.85 -115.051 4.39584e-20)
(1553.15 -188.16 4.17184e-20)
(1668.46 -271.134 0)
(1722.03 -395.152 -5.6419e-17)
(1742.68 -511.665 6.25863e-17)
(1784.7 -673.376 0)
(1786.32 -824.021 -9.85014e-17)
(1703.78 -942.53 1.00071e-16)
(1581.87 -872.302 6.72329e-21)
(1078.86 -528.879 -1.67497e-16)
(1207.61 487.672 3.69208e-20)
(1636.38 823.569 0)
(1717.26 914.609 0)
(1789.13 840.459 -5.25922e-17)
(1794.03 725.842 4.67938e-17)
(1771.38 581.541 0)
(1764.14 452.816 5.93508e-17)
(1705.73 334.174 -5.65764e-17)
(1597.85 235.974 3.35595e-17)
(1492.43 150.611 -3.34441e-17)
(1429.53 94.0604 1.77992e-17)
(1412.33 46.216 -1.76672e-17)
(1407.58 2.13909 0)
(1413.88 -43.0377 -1.75252e-17)
(1437.66 -92.1186 1.78071e-17)
(1507.68 -149.879 -3.59403e-20)
(1613.63 -239.875 -3.41441e-20)
(1714.22 -333.682 5.48876e-20)
(1761.18 -466.234 5.1446e-17)
(1765.04 -585.934 -5.73137e-17)
(1791.21 -735.888 -4.74975e-20)
(1796.88 -850.276 -4.6497e-20)
(1715.43 -923.521 0)
(1609.61 -831.955 -5.53475e-20)
(1140.02 -465.175 3.7427e-20)
(1216.5 452.073 1.40096e-22)
(1639.87 772.878 0)
(1730.59 875.428 8.9751e-23)
(1801.44 841.841 4.48442e-20)
(1806.69 759.462 -8.59372e-23)
(1797.56 623.039 -5.22912e-17)
(1792.53 501.972 4.74403e-17)
(1742.02 382.727 0)
(1646.53 274.895 -6.26187e-20)
(1550.68 184.501 -1.12429e-22)
(1498.59 116.345 -1.15079e-22)
(1480.39 56.8334 6.83925e-20)
(1478.62 1.59086 0)
(1481.28 -54.1953 0)
(1504.8 -113.971 -1.14366e-22)
(1563.89 -184.227 -1.11582e-22)
(1657.75 -281.165 -2.8334e-17)
(1747.59 -381.02 8.07112e-17)
(1789.74 -509.267 -5.43348e-17)
(1793.58 -621.292 0)
(1801.88 -764.35 -4.46365e-17)
(1808.1 -847.534 4.58367e-17)
(1735.09 -884.025 8.93158e-23)
(1648.7 -782.384 4.88817e-20)
(1222.56 -473.423 1.39079e-22)
(1281.08 470.883 6.4812e-18)
(1676.52 741.329 1.31623e-17)
(1756.94 837.444 9.78836e-17)
(1810.99 832.659 -4.32917e-17)
(1818.29 763.066 4.30202e-17)
(1815.41 654.464 -4.80061e-17)
(1818.13 542.593 4.42661e-17)
(1773.64 418.42 -2.66435e-17)
(1689.17 306.645 2.63296e-17)
(1607 206.372 1.18016e-22)
(1557.33 131.657 1.21297e-22)
(1545.75 64.8096 -1.22138e-22)
(1541.76 1.61846 7.41087e-18)
(1546.78 -62.9457 7.25276e-18)
(1563.75 -131.886 -1.50088e-17)
(1618.91 -205.639 1.17708e-22)
(1701.4 -311.198 5.23948e-17)
(1780.92 -416.747 -1.01875e-16)
(1818.39 -550.946 5.01895e-17)
(1811.17 -651.656 0)
(1812.43 -768.511 -8.69995e-23)
(1808.58 -838.994 8.00499e-23)
(1761.03 -837.965 -8.43142e-23)
(1671.57 -746.524 -1.04076e-16)
(1271.02 -441.052 1.25516e-16)
(1302.75 430.503 1.21117e-19)
(1694.03 675.884 0)
(1781.62 780.791 0)
(1818.93 812.306 4.03084e-20)
(1830.45 757.833 8.10652e-20)
(1839.22 661.834 0)
(1842.38 558.234 4.66763e-17)
(1800.28 439.013 -4.55199e-17)
(1723.79 325.832 4.71708e-20)
(1650.67 227.02 -4.94604e-20)
(1614.1 144.592 -1.38606e-17)
(1601.16 68.5115 1.37742e-17)
(1600.19 -2.00103 3.55987e-18)
(1601.79 -73.842 -3.47511e-18)
(1619.78 -151.048 1.34158e-17)
(1663.65 -234.304 -3.95381e-17)
(1735.88 -341.99 2.61915e-17)
(1806.3 -446.986 -4.96716e-20)
(1839.77 -574.342 4.12963e-20)
(1833.54 -667.15 -4.08444e-17)
(1824.51 -763.973 8.89002e-19)
(1816.18 -823.58 -1.57069e-18)
(1787.51 -790.371 4.12021e-17)
(1693.4 -678.543 4.74874e-20)
(1268.36 -429.586 5.9613e-20)
(1296.96 403.443 1.10668e-16)
(1708.31 628.154 -9.70502e-17)
(1806.04 736.305 0)
(1829.66 787.754 -3.87935e-17)
(1842.94 741.963 1.56773e-19)
(1853 669.72 3.94879e-17)
(1862.08 582.929 4.35169e-17)
(1825.71 463.287 -4.28023e-17)
(1759.54 349.805 -4.95116e-20)
(1698.89 244.161 -2.5266e-17)
(1663.04 157.085 1.21676e-17)
(1655.59 77.0673 1.26344e-17)
(1651.93 1.4384 -5.36229e-20)
(1656.2 -75.7794 0)
(1666.63 -157.943 0)
(1706.73 -241.293 0)
(1768.46 -352.419 4.92779e-20)
(1832.19 -459.793 1.03493e-20)
(1864.16 -588.692 -5.24525e-20)
(1848.68 -666.121 0)
(1837.57 -740.892 3.91674e-20)
(1826.24 -792.008 9.49422e-21)
(1808.22 -740.348 -4.96036e-20)
(1719.69 -628.922 -9.64204e-17)
(1315.32 -398.602 1.14218e-16)
(1294.92 381.787 5.44799e-17)
(1719.2 548.227 -8.70585e-17)
(1828.84 662.222 8.35987e-17)
(1842.11 749.529 -4.02396e-17)
(1856.61 726.039 -3.75745e-17)
(1874.48 658.448 3.77139e-17)
(1882.33 576.879 2.03377e-17)
(1845.89 465.842 -2.04073e-17)
(1786.37 356.466 1.13844e-17)
(1732.93 255.892 -2.31619e-17)
(1709.71 165.443 1.7588e-17)
(1700.62 79.414 -7.43217e-18)
(1700.47 -1.35932 1.48896e-18)
(1701.38 -82.7259 -4.41131e-20)
(1713.92 -170.726 2.31397e-17)
(1742.84 -260.378 -2.36839e-17)
(1795.74 -368.98 4.13472e-20)
(1851.65 -468.596 4.08941e-17)
(1883.22 -588.499 -2.15211e-18)
(1871.23 -662.642 -3.85207e-17)
(1851.27 -727.957 0)
(1839 -762.142 4.06384e-17)
(1826.79 -687.357 -3.70529e-17)
(1723.99 -557.45 -9.3749e-17)
(1310.98 -369.636 -4.6504e-18)
(1341.14 364.448 -5.41809e-17)
(1743.42 480.55 4.5512e-17)
(1849.88 610.031 1.9168e-20)
(1852.11 712.51 -5.40365e-20)
(1875.3 698.942 1.86748e-20)
(1886.78 644.128 3.68507e-17)
(1898.2 575.66 -1.81013e-17)
(1864.39 468.64 -1.95457e-17)
(1814.24 362.647 4.35311e-20)
(1773.03 259.16 -4.51018e-20)
(1749.56 166.626 2.06258e-20)
(1746.53 79.6598 -2.06417e-20)
(1743.32 -3.487 0)
(1746.66 -87.438 5.04005e-21)
(1752.44 -176.245 -1.0893e-17)
(1780.31 -264.379 1.10913e-17)
(1824.02 -374.469 -2.04308e-17)
(1872.77 -475.083 9.85379e-19)
(1901.13 -589.315 1.93042e-17)
(1882.53 -648.712 -5.37511e-20)
(1868.28 -699.535 -3.77067e-17)
(1849.26 -713.021 3.53359e-17)
(1847.64 -606.985 0)
(1729.89 -497.318 -4.53175e-17)
(1319.57 -355.25 5.51109e-17)
(1347.65 335.584 0)
(1757.22 413.011 -3.79923e-17)
(1858.68 528.514 4.37695e-17)
(1867.33 653.195 1.75063e-20)
(1889.97 676.858 1.72299e-20)
(1907.63 630.403 -3.50508e-17)
(1916.01 562.31 3.64475e-17)
(1881.53 463.71 1.95506e-17)
(1837.88 364.699 7.07529e-19)
(1800.78 268.575 -2.03937e-17)
(1788.99 176.045 -2.17156e-20)
(1783.34 85.5484 2.43752e-20)
(1783.77 -0.529761 0)
(1782.94 -86.7829 4.37882e-20)
(1791.25 -179.516 -2.1621e-20)
(1807.99 -269.823 1.01283e-17)
(1844.14 -372.923 -1.01705e-17)
(1886.05 -461.778 -1.96033e-20)
(1919.24 -571.008 -2.06077e-20)
(1906.27 -636.475 1.74416e-20)
(1882.92 -678.833 -3.67187e-17)
(1860.47 -665.94 -5.76767e-18)
(1858.58 -545.048 3.42776e-17)
(1749.44 -421.606 0)
(1343.82 -338.398 5.47709e-17)
(1370.51 321.556 -1.03413e-16)
(1773.35 358.809 4.26059e-17)
(1866.59 466.901 3.30643e-17)
(1882.72 609.233 -3.96091e-17)
(1904.42 639.188 0)
(1920.62 607.069 -2.12717e-21)
(1928.17 552.526 0)
(1896.96 459.42 -2.3318e-21)
(1860.84 362.482 -2.43606e-21)
(1835.1 265.092 0)
(1821.11 172.423 0)
(1821.76 83.6379 -2.56417e-21)
(1819.07 -2.37644 0)
(1821.37 -89.4139 0)
(1822.84 -180.68 -9.79795e-18)
(1840.58 -267.794 9.85823e-18)
(1869.16 -371.718 -2.42274e-21)
(1904.58 -462.695 -1.81719e-17)
(1932.16 -561.648 1.77533e-17)
(1918.94 -610.982 0)
(1897.8 -639.737 3.65013e-17)
(1877.64 -603.213 -7.29406e-17)
(1864.2 -463.048 7.54923e-17)
(1764.56 -374.488 5.26982e-18)
(1360.02 -329.21 -5.1978e-17)
(1400.4 297.843 1.23168e-20)
(1787.81 315.771 -9.82628e-21)
(1854.03 406.144 0)
(1894.84 525.051 0)
(1916.18 601.318 0)
(1940.92 588.316 7.85178e-21)
(1944 529.836 0)
(1912.23 439.82 -8.36464e-21)
(1880.98 352.069 0)
(1855.76 262.979 -8.7821e-21)
(1853.87 173.819 0)
(1851.36 83.9371 -2.37608e-18)
(1852.61 -3.19785 2.35348e-18)
(1850.55 -90.7838 0)
(1855.07 -183.431 9.29689e-18)
(1862.08 -269.609 -1.86437e-17)
(1886.42 -364.574 9.18651e-18)
(1917.63 -442.837 0)
(1949.1 -542.721 1.72693e-17)
(1941.4 -598.052 -1.60873e-17)
(1910.92 -604.47 3.61235e-17)
(1891.16 -534.662 -3.18286e-17)
(1860.92 -395.631 0)
(1780.56 -316.602 0)
(1377.32 -309.729 0)
(1402.03 287.775 -1.22653e-20)
(1788.1 294.42 9.72629e-21)
(1856.25 329.75 0)
(1911.74 451.671 0)
(1927.8 549.064 0)
(1951.72 557.768 -7.95332e-21)
(1955.43 515.205 0)
(1925.96 434.43 8.64521e-21)
(1901.79 350.312 0)
(1887.16 260.053 -8.95948e-18)
(1879.97 170.144 8.99278e-18)
(1883.33 84.0431 -8.44045e-21)
(1881.36 -0.904125 9.29469e-21)
(1882.73 -86.9925 8.43333e-21)
(1880.16 -176.029 0)
(1890.4 -259.393 0)
(1908.4 -356.583 8.87381e-21)
(1932.17 -434.95 -1.71631e-17)
(1959.64 -520.072 1.65936e-17)
(1952.25 -562.803 0)
(1921.3 -553.383 7.97735e-21)
(1905.45 -460.45 0)
(1849.37 -320.864 0)
(1793.06 -294.548 0)
(1406.02 -296.2 0)
(1421.71 271.473 -4.71025e-17)
(1799.97 270.956 3.94047e-17)
(1865.95 278.619 0)
(1917.12 352.369 -1.70681e-20)
(1940.51 497.13 0)
(1965.54 529.467 -1.49949e-17)
(1970.86 490.397 3.24805e-17)
(1940.63 410.497 -1.66957e-17)
(1918.96 333.529 -8.459e-18)
(1902.57 253.179 8.60636e-18)
(1907.16 169.306 4.40262e-21)
(1906.57 82.5874 1.12479e-18)
(1908.78 -2.4854 -1.07942e-18)
(1906.1 -87.7521 8.59274e-18)
(1907.63 -177.741 -8.61974e-18)
(1907.2 -258.34 0)
(1923.24 -344.11 -1.5974e-20)
(1945.27 -413.339 0)
(1977.01 -502.144 0)
(1966.44 -538.517 -1.67769e-17)
(1936.23 -504.727 1.49161e-17)
(1910.38 -353.454 0)
(1858.99 -264.264 3.70334e-17)
(1805.48 -268.214 1.98982e-18)
(1413.66 -271.106 -9.57282e-17)
(1449.82 258.632 4.68648e-17)
(1813.13 253.239 1.86986e-20)
(1875.29 218.134 3.17791e-17)
(1915.44 293.186 -2.36646e-17)
(1947.57 439.547 -1.85281e-17)
(1971.84 481.731 0)
(1979.35 465.373 8.21581e-21)
(1951.7 400.358 1.5976e-17)
(1936.44 326.692 -1.64044e-17)
(1930.63 243.338 0)
(1928.64 159.008 0)
(1933.51 78.0144 -2.59553e-20)
(1932.06 -3.80681 3.24024e-20)
(1932.88 -86.0712 1.68933e-20)
(1927.95 -169.667 4.15443e-18)
(1932.74 -247.814 -4.10321e-18)
(1943.01 -337.78 8.717e-21)
(1958.77 -403.984 1.62293e-17)
(1985.29 -471.728 -3.21982e-17)
(1974.15 -486.124 1.46518e-17)
(1945.51 -437.53 -1.5455e-20)
(1907.05 -284.291 0)
(1867.61 -211.67 1.7538e-20)
(1819.88 -252.544 3.91506e-17)
(1437.46 -248.592 -9.24972e-17)
(1462.57 234.749 -4.59746e-17)
(1827.94 235.298 -3.68221e-17)
(1879.78 194.29 3.50902e-17)
(1891.76 198.763 1.46403e-17)
(1954.9 356.215 -1.93901e-17)
(1980 439.34 0)
(1992.33 437.755 3.91229e-21)
(1966.67 375.402 -1.15751e-20)
(1953.73 310.036 7.86331e-18)
(1942.67 237.336 -1.60855e-17)
(1950.85 160.283 8.0142e-18)
(1951.7 79.1911 2.00163e-18)
(1954.52 -1.52133 -1.87208e-18)
(1951.1 -81.8865 1.86436e-18)
(1950.79 -166.45 -2.00229e-18)
(1945.27 -239.527 0)
(1955.85 -318.066 1.17489e-20)
(1970.57 -376.378 -3.70597e-21)
(1998.31 -448.976 -1.63648e-17)
(1979.7 -450.182 1.42399e-17)
(1954.68 -366.398 0)
(1881.4 -194.412 0)
(1874.47 -186.545 -4.2273e-21)
(1832.6 -231.789 -3.82487e-17)
(1469.33 -219.018 -1.8785e-18)
(1478.78 215.307 -2.14658e-17)
(1836.75 223.835 1.88046e-17)
(1888.55 178.289 4.23745e-21)
(1901.8 145.273 0)
(1960.13 263.554 1.40968e-17)
(1983.25 371.837 -1.73096e-17)
(1995.18 400.324 3.74106e-21)
(1974.96 359.651 3.81341e-21)
(1967.98 301.185 1.45864e-20)
(1968.2 226.356 -1.91469e-18)
(1968.71 148.442 9.77755e-19)
(1974.49 73.4693 1.89544e-18)
(1973.22 -3.23066 -9.70851e-19)
(1973.6 -79.9707 3.87414e-18)
(1967.7 -157.462 -3.86702e-18)
(1969.41 -230.046 0)
(1973.67 -312.037 1.06656e-20)
(1980.09 -363.863 -1.57759e-17)
(2000.4 -403.672 1.46834e-17)
(1985.29 -375.976 3.71774e-21)
(1954.85 -259.508 0)
(1890.31 -133.59 0)
(1884.29 -177.895 4.26896e-21)
(1840.03 -225.354 -3.74472e-17)
(1483.86 -199.588 4.32998e-17)
(1506.05 186.247 2.16254e-20)
(1850.19 201.832 0)
(1905.12 163.104 -7.94272e-21)
(1905.12 74.226 -1.48182e-17)
(1945.38 186.923 1.83878e-17)
(1986.32 323.929 -1.38623e-17)
(1999.35 359.14 1.64266e-17)
(1987.12 325.43 -7.25894e-18)
(1983.19 278.869 7.64291e-18)
(1976.88 215.258 -3.75187e-18)
(1987.11 145.973 3.76446e-18)
(1988.72 71.4796 -1.84372e-18)
(1991.66 -3.47014 2.10398e-18)
(1987.83 -78.2907 -2.49499e-19)
(1986.79 -156.451 3.75918e-18)
(1978.47 -220.866 -7.52554e-18)
(1984.94 -290.112 -3.98234e-18)
(1991.73 -331.757 7.20172e-18)
(2009.18 -369.785 1.45355e-20)
(1988.57 -327.096 -7.54361e-21)
(1940.6 -182.77 0)
(1895.32 -67.9456 0)
(1904.38 -163.475 0)
(1845.8 -205.907 -1.83655e-17)
(1502.75 -175.19 2.11265e-17)
(1515.14 168.344 -2.5983e-21)
(1854.64 181.969 0)
(1921.48 156.941 1.01223e-20)
(1913.73 57.7301 -8.0373e-21)
(1918.36 101.017 -7.51257e-21)
(1982.31 215.411 0)
(1996.89 305.474 -7.30629e-21)
(1990.2 303.021 7.12539e-18)
(1993.51 267.947 -7.57408e-18)
(1999.6 205.54 0)
(2001.95 136.363 1.73295e-21)
(2007.98 68.2615 0)
(2006.99 -2.10201 0)
(2007.16 -72.6427 1.82106e-18)
(2000.82 -143.512 -1.82506e-18)
(2000.56 -208.127 -7.26439e-21)
(1998.24 -278.018 -1.74102e-21)
(1992.78 -308.885 7.23202e-21)
(2001.19 -306.465 -8.40185e-18)
(1989.22 -226.029 6.92154e-18)
(1907.05 -98.2992 -1.73924e-17)
(1903.13 -51.7497 3.22107e-17)