/*--------------------------------*- C++ -*----------------------------------*\
| =========                 |                                                 |
| \\      /  F ield         | OpenFOAM: The Open Source CFD Toolbox           |
|  \\    /   O peration     | Version:  2112                                  |
|   \\  /    A nd           | Website:  www.openfoam.com                      |
|    \\/     M anipulation  |                                                 |
\*---------------------------------------------------------------------------*/
FoamFile
{
    version     2.0;
    format      ascii;
    arch        "LSB;label=32;scalar=64";
    class       volScalarField;
    location    "0.00188";
    object      epsilon;
}
// * * * * * * * * * * * * * * * * * * * * * * * * * * * * * * * * * * * * * //

dimensions      [0 2 -3 0 0 0 0];

internalField   nonuniform List<scalar> 
13875
(
1.15997e+06
2.94714e+07
3.28078e+07
3.28546e+07
3.29657e+07
3.28662e+07
3.2864e+07
3.28814e+07
3.29178e+07
3.29702e+07
3.29128e+07
3.28678e+07
3.28648e+07
3.28519e+07
3.2891e+07
3.29647e+07
3.2923e+07
3.28972e+07
3.28605e+07
3.28517e+07
3.29516e+07
3.28346e+07
3.2796e+07
2.94918e+07
1.17792e+06
1.31371e+06
2.27575e+07
2.53475e+07
2.52534e+07
2.53129e+07
2.52204e+07
2.52088e+07
2.52216e+07
2.52453e+07
2.52578e+07
2.52425e+07
2.52074e+07
2.5205e+07
2.51909e+07
2.52266e+07
2.52543e+07
2.52455e+07
2.52303e+07
2.52036e+07
2.52072e+07
2.52981e+07
2.52215e+07
2.53227e+07
2.27616e+07
1.34204e+06
1.57305e+06
1.97174e+07
2.18266e+07
2.16403e+07
2.17042e+07
2.16328e+07
2.16175e+07
2.16178e+07
2.15532e+07
2.15444e+07
2.15473e+07
2.16067e+07
2.16089e+07
2.15938e+07
2.16229e+07
2.15569e+07
2.15486e+07
2.16205e+07
2.161e+07
2.16203e+07
2.16927e+07
2.16011e+07
2.17859e+07
1.96918e+07
1.58434e+06
1.81399e+06
1.73946e+07
1.9036e+07
1.88916e+07
1.89689e+07
1.89102e+07
1.88939e+07
1.88925e+07
1.8802e+07
1.88068e+07
1.87948e+07
1.88836e+07
1.88848e+07
1.88738e+07
1.88963e+07
1.88169e+07
1.87964e+07
1.88952e+07
1.88876e+07
1.88992e+07
1.89595e+07
1.88575e+07
1.90113e+07
1.73637e+07
1.82057e+06
2.02359e+06
1.54608e+07
1.67713e+07
1.66306e+07
1.67013e+07
1.66533e+07
1.66397e+07
1.66338e+07
1.65431e+07
1.65584e+07
1.65383e+07
1.66285e+07
1.66292e+07
1.66221e+07
1.66371e+07
1.65635e+07
1.65394e+07
1.66347e+07
1.66344e+07
1.66435e+07
1.66936e+07
1.66042e+07
1.67421e+07
1.54274e+07
2.03666e+06
2.20829e+06
1.37254e+07
1.49305e+07
1.47481e+07
1.48261e+07
1.47794e+07
1.47633e+07
1.47486e+07
1.46552e+07
1.46795e+07
1.46511e+07
1.47441e+07
1.47457e+07
1.47424e+07
1.47488e+07
1.46816e+07
1.46531e+07
1.47477e+07
1.47585e+07
1.47705e+07
1.48189e+07
1.47293e+07
1.49018e+07
1.38481e+07
2.22395e+06
2.4256e+06
1.22697e+07
1.34841e+07
1.32192e+07
1.32663e+07
1.32115e+07
1.31875e+07
1.31624e+07
1.30682e+07
1.30988e+07
1.3064e+07
1.31594e+07
1.31631e+07
1.31635e+07
1.31598e+07
1.30989e+07
1.30682e+07
1.31609e+07
1.31836e+07
1.32024e+07
1.32559e+07
1.32017e+07
1.34219e+07
1.19545e+07
2.43149e+06
2.67924e+06
1.06525e+07
1.23347e+07
1.19967e+07
1.2006e+07
1.19233e+07
1.18762e+07
1.18344e+07
1.17372e+07
1.1771e+07
1.17285e+07
1.18242e+07
1.18325e+07
1.18375e+07
1.18219e+07
1.17705e+07
1.17367e+07
1.18294e+07
1.18699e+07
1.19079e+07
1.19863e+07
1.19757e+07
1.22651e+07
1.05459e+07
2.69819e+06
3.51982e+06
1.02549e+07
1.1521e+07
1.10716e+07
1.09717e+07
1.08608e+07
1.07902e+07
1.0728e+07
1.06325e+07
1.06678e+07
1.06171e+07
1.07123e+07
1.07261e+07
1.07347e+07
1.07082e+07
1.06672e+07
1.06331e+07
1.07204e+07
1.07814e+07
1.08411e+07
1.09517e+07
1.10345e+07
1.14835e+07
1.03495e+07
3.58237e+06
6.97373e+06
1.24574e+07
1.13181e+07
1.04841e+07
1.02762e+07
1.00838e+07
9.97834e+06
9.89155e+06
9.81203e+06
9.83602e+06
9.78918e+06
9.87493e+06
9.89372e+06
9.90461e+06
9.87125e+06
9.84215e+06
9.81254e+06
9.88039e+06
9.96021e+06
1.00524e+07
1.02266e+07
1.04128e+07
1.119e+07
1.21617e+07
6.90459e+06
1.51944e+07
1.88814e+07
1.20305e+07
1.06024e+07
9.90003e+06
9.5993e+06
9.4498e+06
9.33695e+06
9.27221e+06
9.28127e+06
9.24284e+06
9.31217e+06
9.33534e+06
9.34779e+06
9.31776e+06
9.29881e+06
9.27867e+06
9.32784e+06
9.42556e+06
9.55111e+06
9.81971e+06
1.04224e+07
1.20101e+07
1.80961e+07
1.50915e+07
2.52133e+07
6.233e+07
2.18027e+07
1.16336e+07
1.03037e+07
9.58506e+06
9.26762e+06
9.11875e+06
9.04469e+06
9.03268e+06
9.00034e+06
9.04639e+06
9.06883e+06
9.08433e+06
9.06614e+06
9.05742e+06
9.05274e+06
9.11011e+06
9.23702e+06
9.50583e+06
1.00628e+07
1.09117e+07
1.84621e+07
6.68889e+07
2.50917e+07
2.64076e+07
6.00568e+07
1.03423e+08
4.6671e+07
1.28658e+07
1.03336e+07
9.84202e+06
9.60728e+06
9.5265e+06
9.52901e+06
9.47163e+06
9.53082e+06
9.52998e+06
9.55159e+06
9.54352e+06
9.54507e+06
9.55608e+06
9.6199e+06
9.78881e+06
1.02713e+07
1.25195e+07
2.78944e+07
8.6718e+07
6.89893e+07
2.6166e+07
2.5952e+07
4.56466e+07
8.0842e+07
1.3456e+08
6.91593e+07
1.89159e+07
1.6195e+07
1.38293e+07
1.3298e+07
1.26472e+07
1.30934e+07
1.23111e+07
1.31268e+07
1.24452e+07
1.26206e+07
1.2607e+07
1.28825e+07
1.34405e+07
1.53809e+07
1.87734e+07
6.99518e+07
1.01472e+08
7.76369e+07
5.08993e+07
2.60432e+07
2.51056e+07
3.7041e+07
5.94181e+07
9.01345e+07
7.99141e+07
5.7078e+07
6.32298e+07
5.82098e+07
5.78173e+07
5.44815e+07
6.38386e+07
5.41838e+07
6.52336e+07
5.86167e+07
5.80943e+07
5.58058e+07
5.4478e+07
5.65442e+07
6.57794e+07
5.76769e+07
7.71153e+07
7.48325e+07
5.93778e+07
4.09438e+07
2.74389e+07
2.54091e+07
3.19352e+07
5.11966e+07
7.23132e+07
7.39607e+07
9.65078e+07
8.55822e+07
5.98463e+07
5.30276e+07
5.65532e+07
5.54192e+07
5.77094e+07
5.72613e+07
5.96784e+07
5.59088e+07
5.71351e+07
5.37658e+07
5.62202e+07
6.99752e+07
1.03688e+08
8.02375e+07
6.48985e+07
5.0651e+07
3.48828e+07
2.81943e+07
2.33578e+07
2.95838e+07
4.66311e+07
6.35528e+07
6.54861e+07
9.16608e+07
6.38899e+07
4.12558e+07
3.62169e+07
3.70891e+07
3.68065e+07
3.77344e+07
3.76192e+07
3.86047e+07
3.66527e+07
3.73405e+07
3.63591e+07
3.84685e+07
5.01602e+07
9.38253e+07
7.41702e+07
6.05775e+07
4.80873e+07
3.15552e+07
2.46158e+07
1.91869e+07
2.94769e+07
4.32931e+07
4.9057e+07
5.0069e+07
7.00084e+07
5.11673e+07
3.39311e+07
2.82048e+07
2.75525e+07
2.69241e+07
2.7181e+07
2.71489e+07
2.76136e+07
2.67286e+07
2.76727e+07
2.8026e+07
3.11239e+07
4.34561e+07
6.72045e+07
5.50482e+07
4.79299e+07
4.53278e+07
3.25284e+07
2.01472e+07
1.55268e+07
2.92014e+07
3.70468e+07
3.80562e+07
3.76596e+07
4.85258e+07
4.44542e+07
3.35137e+07
2.58271e+07
2.25897e+07
2.11294e+07
2.07427e+07
2.06734e+07
2.0931e+07
2.06779e+07
2.19807e+07
2.40315e+07
2.96081e+07
4.00479e+07
4.78665e+07
3.98243e+07
3.80372e+07
3.8419e+07
3.24418e+07
1.6511e+07
1.40932e+07
2.73282e+07
2.98689e+07
3.03275e+07
3.00077e+07
3.63327e+07
3.77213e+07
3.21687e+07
2.47559e+07
1.99735e+07
1.75714e+07
1.66956e+07
1.65133e+07
1.67435e+07
1.71286e+07
1.92113e+07
2.29567e+07
2.932e+07
3.5605e+07
3.633e+07
3.11304e+07
3.04285e+07
3.0662e+07
2.80788e+07
1.53708e+07
1.50283e+07
2.17472e+07
2.4007e+07
2.47444e+07
2.46608e+07
2.91479e+07
3.17462e+07
2.86829e+07
2.24839e+07
1.75846e+07
1.48062e+07
1.36546e+07
1.34008e+07
1.36851e+07
1.452e+07
1.7022e+07
2.11344e+07
2.67527e+07
3.06475e+07
2.94186e+07
2.54753e+07
2.49621e+07
2.4463e+07
2.19564e+07
1.64446e+07
2.00044e+07
2.13786e+07
2.04592e+07
2.09939e+07
2.08851e+07
2.42901e+07
2.67152e+07
2.48137e+07
1.97741e+07
1.52573e+07
1.24914e+07
1.12741e+07
1.0978e+07
1.1288e+07
1.22723e+07
1.47779e+07
1.86333e+07
2.32752e+07
2.60232e+07
2.47264e+07
2.15895e+07
2.11943e+07
2.05628e+07
2.14343e+07
2.02487e+07
2.32438e+07
2.42064e+07
1.8073e+07
1.78949e+07
1.79026e+07
2.05115e+07
2.24826e+07
2.11426e+07
1.70257e+07
1.30853e+07
1.05447e+07
9.37729e+06
9.07095e+06
9.35765e+06
1.03143e+07
1.25932e+07
1.59399e+07
1.97445e+07
2.19064e+07
2.09282e+07
1.84612e+07
1.8084e+07
1.79827e+07
2.40342e+07
2.26263e+07
2.24678e+07
2.4082e+07
1.58823e+07
1.54368e+07
1.54417e+07
1.72874e+07
1.89027e+07
1.78941e+07
1.43685e+07
1.10058e+07
8.84038e+06
7.83298e+06
7.56484e+06
7.83295e+06
8.69755e+06
1.0675e+07
1.35253e+07
1.67239e+07
1.84661e+07
1.76401e+07
1.59497e+07
1.57395e+07
1.5905e+07
2.33649e+07
2.19122e+07
2.18787e+07
2.31544e+07
1.40761e+07
1.35157e+07
1.34393e+07
1.47075e+07
1.59823e+07
1.51454e+07
1.21659e+07
9.32211e+06
7.46989e+06
6.61258e+06
6.38218e+06
6.6179e+06
7.37399e+06
9.08068e+06
1.15245e+07
1.4183e+07
1.56024e+07
1.49678e+07
1.38587e+07
1.38418e+07
1.42112e+07
2.26114e+07
2.13043e+07
2.12252e+07
2.23675e+07
1.28091e+07
1.20309e+07
1.18143e+07
1.26639e+07
1.3585e+07
1.28074e+07
1.03069e+07
7.93647e+06
6.37048e+06
5.63991e+06
5.43173e+06
5.63913e+06
6.28719e+06
7.72684e+06
9.76655e+06
1.19686e+07
1.31896e+07
1.28195e+07
1.21268e+07
1.23041e+07
1.28978e+07
2.14461e+07
2.04412e+07
2.05754e+07
2.16911e+07
1.17705e+07
1.08431e+07
1.04934e+07
1.10028e+07
1.15633e+07
1.07928e+07
8.71359e+06
6.76208e+06
5.45523e+06
4.84971e+06
4.6708e+06
4.85234e+06
5.41384e+06
6.64431e+06
8.36403e+06
1.01862e+07
1.1257e+07
1.11151e+07
1.074e+07
1.1104e+07
1.18752e+07
2.09461e+07
2.01405e+07
2.04071e+07
2.09907e+07
1.09666e+07
9.8321e+06
9.43857e+06
9.68248e+06
9.9431e+06
9.17142e+06
7.42837e+06
5.81811e+06
4.72363e+06
4.21116e+06
4.05143e+06
4.21149e+06
4.69195e+06
5.7217e+06
7.15119e+06
8.67062e+06
9.64401e+06
9.73686e+06
9.62656e+06
1.00547e+07
1.09992e+07
2.0161e+07
1.97219e+07
2.06423e+07
1.99663e+07
1.02391e+07
8.94013e+06
8.54566e+06
8.6034e+06
8.61292e+06
7.85148e+06
6.38395e+06
5.04381e+06
4.12126e+06
3.68733e+06
3.54402e+06
3.68257e+06
4.08636e+06
4.9485e+06
6.14357e+06
7.41178e+06
8.30311e+06
8.59387e+06
8.65991e+06
9.11057e+06
1.02562e+07
1.87915e+07
1.9345e+07
2.00905e+07
1.88957e+07
9.61648e+06
8.14483e+06
7.73393e+06
7.67467e+06
7.48114e+06
6.71268e+06
5.47225e+06
4.37338e+06
3.6103e+06
3.24906e+06
3.12383e+06
3.25001e+06
3.60017e+06
4.32856e+06
5.33748e+06
6.42509e+06
7.25156e+06
7.66221e+06
7.82342e+06
8.29965e+06
9.63423e+06
1.78752e+07
1.97613e+07
1.94103e+07
1.79279e+07
9.14765e+06
7.52073e+06
7.01631e+06
6.87073e+06
6.56527e+06
5.82464e+06
4.76221e+06
3.83832e+06
3.19253e+06
2.88557e+06
2.77414e+06
2.88552e+06
3.18092e+06
3.79546e+06
4.65204e+06
5.58487e+06
6.35175e+06
6.82706e+06
7.06169e+06
7.64367e+06
9.0817e+06
1.69624e+07
1.9037e+07
1.88067e+07
1.70921e+07
8.76541e+06
7.05474e+06
6.3839e+06
6.17223e+06
5.81161e+06
5.09749e+06
4.17857e+06
3.39471e+06
2.84611e+06
2.58185e+06
2.48045e+06
2.58066e+06
2.83306e+06
3.35068e+06
4.08323e+06
4.89463e+06
5.60948e+06
6.10817e+06
6.40863e+06
7.12413e+06
8.65922e+06
1.60474e+07
1.82019e+07
1.78748e+07
1.60067e+07
8.55881e+06
6.67852e+06
5.8496e+06
5.54584e+06
5.14593e+06
4.47557e+06
3.68227e+06
3.01456e+06
2.54567e+06
2.32151e+06
2.23164e+06
2.32338e+06
2.54206e+06
2.9891e+06
3.62602e+06
4.33511e+06
4.98833e+06
5.48649e+06
5.86315e+06
6.70811e+06
8.34654e+06
1.52708e+07
1.76821e+07
1.74105e+07
1.49364e+07
8.34178e+06
6.42542e+06
5.41865e+06
5.02201e+06
4.59265e+06
3.97235e+06
3.27647e+06
2.70126e+06
2.29857e+06
2.10265e+06
2.01962e+06
2.10331e+06
2.29321e+06
2.67408e+06
3.22618e+06
3.85369e+06
4.44903e+06
4.95495e+06
5.42213e+06
6.4018e+06
8.21063e+06
1.43471e+07
1.69985e+07
1.70143e+07
1.40962e+07
7.90195e+06
6.21944e+06
5.09418e+06
4.57323e+06
4.11902e+06
3.54948e+06
2.94268e+06
2.44125e+06
2.08582e+06
1.91466e+06
1.83851e+06
1.9143e+06
2.0795e+06
2.41377e+06
2.89649e+06
3.45014e+06
3.98801e+06
4.50555e+06
5.08839e+06
6.18156e+06
7.91729e+06
1.34407e+07
1.65113e+07
1.63094e+07
1.30773e+07
7.39546e+06
6.05537e+06
4.84413e+06
4.20107e+06
3.71493e+06
3.18009e+06
2.64539e+06
2.21013e+06
1.90257e+06
1.75175e+06
1.68217e+06
1.75328e+06
1.90163e+06
2.19324e+06
2.6181e+06
3.11339e+06
3.60961e+06
4.14308e+06
4.82133e+06
6.04263e+06
7.46387e+06
1.26186e+07
1.60457e+07
1.58843e+07
1.22019e+07
6.92445e+06
6.03027e+06
4.66541e+06
3.91339e+06
3.37878e+06
2.87394e+06
2.40057e+06
2.01834e+06
1.74509e+06
1.61087e+06
1.5467e+06
1.61231e+06
1.74247e+06
2.00052e+06
2.37362e+06
2.81872e+06
3.28175e+06
3.85503e+06
4.6173e+06
5.99119e+06
6.9527e+06
1.16897e+07
1.54699e+07
1.55941e+07
1.13922e+07
6.48192e+06
5.89614e+06
4.56971e+06
3.69531e+06
3.11188e+06
2.62006e+06
2.18876e+06
1.84921e+06
1.60872e+06
1.48866e+06
1.42866e+06
1.48992e+06
1.60529e+06
1.83121e+06
2.1638e+06
2.57311e+06
3.02709e+06
3.63785e+06
4.52173e+06
5.85705e+06
6.46351e+06
1.0857e+07
1.51819e+07
1.51196e+07
1.05946e+07
5.95382e+06
5.57125e+06
4.51808e+06
3.5186e+06
2.90266e+06
2.40409e+06
2.0043e+06
1.70086e+06
1.4863e+06
1.37932e+06
1.32484e+06
1.38214e+06
1.48579e+06
1.68889e+06
1.98847e+06
2.37139e+06
2.83735e+06
3.46571e+06
4.47732e+06
5.55597e+06
5.96942e+06
1.01605e+07
1.49845e+07
1.48565e+07
9.95453e+06
5.46172e+06
5.2305e+06
4.61546e+06
3.42014e+06
2.74532e+06
2.23897e+06
1.851e+06
1.5736e+06
1.38086e+06
1.28417e+06
1.23309e+06
1.28642e+06
1.37915e+06
1.56048e+06
1.83516e+06
2.21016e+06
2.68543e+06
3.35143e+06
4.55282e+06
5.21455e+06
5.45018e+06
9.51329e+06
1.46217e+07
1.46552e+07
9.45775e+06
5.05988e+06
4.86822e+06
4.58057e+06
3.39279e+06
2.62281e+06
2.11331e+06
1.72686e+06
1.46503e+06
1.28725e+06
1.19925e+06
1.15156e+06
1.20021e+06
1.28501e+06
1.45055e+06
1.70979e+06
2.085e+06
2.56993e+06
3.32599e+06
4.51695e+06
4.85339e+06
5.00093e+06
9.01022e+06
1.43968e+07
1.42968e+07
8.98492e+06
4.67282e+06
4.48735e+06
4.34055e+06
3.45865e+06
2.53797e+06
2.01087e+06
1.62767e+06
1.37157e+06
1.20438e+06
1.12335e+06
1.07886e+06
1.12527e+06
1.20333e+06
1.36083e+06
1.61318e+06
1.98795e+06
2.50992e+06
3.41013e+06
4.26356e+06
4.47952e+06
4.68254e+06
8.62474e+06
1.42525e+07
1.40581e+07
8.59225e+06
4.37923e+06
4.12819e+06
4.05644e+06
3.55094e+06
2.53758e+06
1.9357e+06
1.55505e+06
1.29435e+06
1.13286e+06
1.05544e+06
1.01366e+06
1.05743e+06
1.13146e+06
1.28294e+06
1.5376e+06
1.90504e+06
2.50722e+06
3.50343e+06
3.97296e+06
4.11945e+06
4.35505e+06
8.23094e+06
1.3974e+07
1.38723e+07
8.25662e+06
4.18588e+06
3.81723e+06
3.75356e+06
3.45619e+06
2.63914e+06
1.89864e+06
1.49291e+06
1.2355e+06
1.07453e+06
997118
956170
998872
1.0732e+06
1.22405e+06
1.47399e+06
1.85899e+06
2.63772e+06
3.43457e+06
3.66522e+06
3.80958e+06
4.11661e+06
7.89484e+06
1.37978e+07
1.36786e+07
7.87924e+06
3.95535e+06
3.5473e+06
3.45597e+06
3.26008e+06
2.84049e+06
1.92462e+06
1.44635e+06
1.18943e+06
1.03021e+06
948598
907478
950683
1.029e+06
1.17979e+06
1.42947e+06
1.89685e+06
2.793e+06
3.23461e+06
3.37608e+06
3.55126e+06
3.95709e+06
7.61968e+06
1.36578e+07
1.35198e+07
7.5468e+06
3.81465e+06
3.32446e+06
3.19636e+06
3.06135e+06
2.88065e+06
2.12427e+06
1.42993e+06
1.15187e+06
996162
912854
868571
914661
994025
1.14134e+06
1.4076e+06
2.01723e+06
2.77075e+06
3.02161e+06
3.13219e+06
3.32424e+06
3.78116e+06
7.30283e+06
1.3531e+07
1.33822e+07
7.2709e+06
3.70554e+06
3.14238e+06
2.98084e+06
2.8602e+06
2.72924e+06
2.30874e+06
1.51546e+06
1.12469e+06
964244
883470
837676
884793
962538
1.1126e+06
1.46276e+06
2.22057e+06
2.63731e+06
2.81509e+06
2.92867e+06
3.13754e+06
3.63623e+06
7.02755e+06
1.33853e+07
1.30778e+07
6.90961e+06
3.5513e+06
2.97693e+06
2.79422e+06
2.66979e+06
2.56868e+06
2.30723e+06
1.70186e+06
1.1349e+06
937436
856354
812159
857496
937983
1.12671e+06
1.65586e+06
2.27645e+06
2.49924e+06
2.63199e+06
2.75655e+06
2.98166e+06
3.53845e+06
6.76657e+06
1.30746e+07
1.25736e+07
6.52963e+06
3.40554e+06
2.83006e+06
2.63557e+06
2.50244e+06
2.39998e+06
2.20666e+06
1.87666e+06
1.23137e+06
927280
832631
789563
833120
928540
1.2134e+06
1.81421e+06
2.18062e+06
2.34999e+06
2.47062e+06
2.607e+06
2.8384e+06
3.39486e+06
6.40397e+06
1.25641e+07
1.11618e+07
5.98354e+06
3.24554e+06
2.68166e+06
2.49447e+06
2.35675e+06
2.24253e+06
2.09172e+06
1.88797e+06
1.42856e+06
969578
820395
774515
819355
967914
1.3906e+06
1.81984e+06
2.06947e+06
2.20644e+06
2.33132e+06
2.47479e+06
2.69142e+06
3.22817e+06
5.86218e+06
1.11909e+07
362862
197538
186634
184990
184814
184387
184014
183698
183557
183490
183415
183236
182927
182522
182066
181594
181123
180657
180198
179744
179295
178851
178412
177977
177546
177117
176699
176522
180562
299616
223660
146700
141567
140604
140557
140259
140018
139830
139788
139765
139703
139537
139267
138933
138581
138236
137907
137592
137289
136994
136707
136427
136152
135883
135618
135364
135106
135237
139310
195382
181409
131199
126806
126196
126190
126041
125900
125807
125828
125842
125832
125731
125560
125360
125169
125002
124858
124731
124614
124505
124401
124301
124204
124110
124017
123933
123859
124194
128527
173648
172326
127527
122841
122380
122401
122297
122160
122082
122114
122145
122174
122117
122002
121867
121750
121663
121600
121554
121518
121487
121459
121433
121408
121384
121360
121342
121343
121753
126239
169889
172177
127069
122130
121773
121855
121753
121574
121432
121396
121396
121406
121351
121246
121127
121030
120963
120923
120900
120886
120877
120870
120865
120859
120854
120849
120847
120870
121305
125861
169470
172765
127385
122463
122339
122625
122594
122336
121972
121654
121467
121363
121246
121122
120998
120902
120839
120803
120784
120775
120771
120769
120768
120767
120765
120764
120766
120794
121242
125851
169579
173564
128441
123913
124496
125614
126217
125969
124827
123295
122211
121657
121342
121137
120987
120884
120820
120784
120766
120758
120755
120754
120753
120753
120753
120752
120754
120785
121243
125902
169751
175389
131701
128295
130802
134417
137651
138859
136868
131217
125682
122825
121711
121251
121017
120889
120818
120782
120764
120756
120753
120752
120752
120751
120751
120751
120753
120786
121252
125960
169913
180344
140179
139354
145589
153474
161859
169592
172784
164219
144157
129288
123280
121651
121123
120915
120824
120782
120763
120756
120753
120752
120751
120751
120751
120751
120753
120787
121262
126015
170056
192805
155923
152998
156593
163332
173962
187225
201510
213414
207642
165247
133438
123480
121511
121007
120844
120786
120764
120755
120752
120752
120751
120751
120751
120751
120753
120788
121271
126066
170183
202490
160102
155223
159368
168471
182101
198609
216710
235694
252757
252987
190795
136355
123313
121345
120916
120800
120766
120756
120752
120752
120751
120751
120751
120751
120753
120789
121279
126113
170297
203069
159070
155379
162354
174294
190887
211450
233364
255383
276060
295265
294934
208703
136196
122834
121179
120852
120775
120757
120752
120751
120751
120751
120751
120751
120753
120790
121287
126157
170402
201758
157030
155669
166468
182888
202625
226895
251667
277132
300820
321450
340475
332485
210081
132997
122246
121035
120809
120762
120753
120751
120751
120751
120751
120751
120753
120791
121295
126197
170497
199715
155675
158121
174513
196730
220656
247704
274798
300746
326247
349949
369434
386785
359448
194111
128669
121714
120924
120782
120756
120752
120751
120751
120751
120751
120753
120791
121302
126235
170584
196944
156423
164378
188419
217683
246287
274979
302797
329357
352892
377596
400023
418311
431220
360464
168462
125124
121316
120848
120766
120753
120751
120752
120752
120752
120754
120792
121308
126269
170660
196944
160621
176597
210797
248034
280548
309238
334781
361956
382933
405068
428624
449555
467463
467729
319389
146452
122946
121058
120801
120758
120752
120752
120752
120752
120754
120793
121313
126299
170729
198255
170477
196844
243189
289803
323563
349855
370808
395442
414945
433786
455245
478397
498248
516703
480342
246571
132068
121798
120905
120774
120754
120752
120752
120752
120754
120793
121318
126325
170787
203874
187782
232284
292515
345045
374515
396881
409738
427773
446356
462305
480581
503330
526880
547792
560878
449994
178398
125110
121229
120823
120760
120752
120752
120752
120754
120794
121323
126349
170838
222783
220736
285299
357162
415489
437542
450218
449092
457396
473129
487631
503507
524189
549925
574458
599755
574859
339050
142630
122392
120958
120781
120755
120752
120752
120754
120794
121327
126369
170884
232193
266341
368424
456558
507526
512283
507711
494882
488481
496654
508362
521491
540240
566137
595416
625111
636953
545200
218394
127563
121365
120835
120762
120753
120752
120754
120795
121330
126385
170919
261923
347614
479400
578340
650137
642719
595023
551396
521579
515869
525642
535740
553517
576643
607459
641893
668527
648406
404519
151034
122780
120978
120782
120755
120752
120754
120795
121332
126399
170948
279636
474697
676681
834864
989732
918891
745097
634871
576349
547965
551000
551223
563735
584213
613713
650104
692381
699083
603842
238577
128567
121378
120830
120762
120753
120754
120795
121336
126412
170974
379792
680113
1.068e+06
1.52776e+06
1.68776e+06
1.5073e+06
1.10317e+06
836424
699601
620664
591560
575015
577132
592979
619472
655759
703201
724878
702352
427994
151717
122662
120951
120777
120754
120754
120795
121337
126419
170990
482367
1.29268e+06
1.99049e+06
2.69235e+06
2.8041e+06
2.78207e+06
2.00283e+06
1.29916e+06
905702
725571
649038
612762
600433
608329
630877
664695
709846
745721
748971
621175
223405
127164
121250
120812
120759
120754
120795
121337
126424
171001
749316
3.47504e+06
4.36328e+06
5.49484e+06
4.64456e+06
4.88558e+06
3.57746e+06
2.08179e+06
1.21557e+06
885658
744228
676628
643092
636624
650448
679888
719827
765567
780742
735259
389015
142906
122066
120891
120768
120755
120795
121337
126428
171011
299618
180563
176524
176701
177120
177549
177981
178417
178856
179301
179750
180205
180665
181131
181603
182075
182532
182939
183248
183428
183503
183571
183714
184029
184403
184831
185008
186655
197569
363021
195382
139310
135237
135106
135364
135618
135883
136152
136427
136707
136994
137289
137592
137907
138236
138581
138933
139266
139537
139703
139764
139788
139830
140018
140259
140557
140603
141567
146698
223639
173649
128527
124195
123860
123933
124017
124110
124204
124301
124401
124506
124615
124731
124859
125002
125169
125360
125561
125732
125833
125843
125828
125808
125901
126042
126191
126197
126807
131200
181447
169889
126239
121753
121343
121342
121360
121384
121408
121433
121459
121487
121518
121554
121600
121663
121750
121867
122002
122117
122174
122145
122114
122082
122160
122297
122401
122380
122841
127523
172290
169469
125861
121305
120870
120847
120849
120854
120859
120865
120870
120877
120886
120900
120923
120963
121030
121127
121246
121351
121406
121395
121396
121431
121573
121752
121854
121773
122130
127071
172163
169580
125851
121242
120794
120766
120764
120765
120767
120768
120769
120771
120775
120784
120803
120839
120902
120998
121122
121246
121362
121466
121651
121968
122331
122590
122623
122338
122462
127384
172828
169751
125902
121243
120785
120754
120752
120753
120753
120753
120754
120755
120758
120766
120784
120820
120884
120987
121137
121341
121654
122205
123281
124806
125947
126199
125602
124490
123908
128435
173481
169913
125960
121252
120786
120753
120751
120751
120751
120752
120752
120753
120756
120764
120782
120818
120889
121017
121250
121707
122813
125644
131137
136769
138768
137580
134373
130777
128277
131692
175429
170056
126015
121262
120787
120753
120751
120751
120751
120751
120752
120753
120756
120763
120782
120824
120914
121122
121647
123258
129192
143921
163858
172488
169376
161710
153370
145514
139296
140136
180316
170182
126065
121271
120788
120753
120751
120751
120751
120751
120752
120752
120755
120764
120786
120844
121006
121506
123451
133262
164667
206972
212974
201191
186992
173792
163216
156499
152916
155843
192719
170297
126113
121279
120789
120753
120751
120751
120751
120751
120752
120752
120756
120766
120800
120916
121340
123283
136110
189820
252108
252126
235192
216312
198312
181886
168333
159270
155146
160032
202490
170402
126157
121287
120790
120753
120751
120751
120751
120751
120751
120752
120757
120775
120852
121175
122808
135926
207346
293726
294365
275300
254742
232848
211067
190604
174113
162243
155302
158995
202987
170497
126197
121295
120791
120753
120751
120751
120751
120751
120751
120753
120762
120808
121032
122228
132785
208641
331017
339343
320424
299905
276360
251021
226410
202255
182642
166329
155581
156964
201713
170584
126235
121302
120791
120753
120751
120751
120751
120751
120752
120756
120781
120923
121703
128534
192854
357527
385340
368109
348722
325161
299810
273976
247076
220145
196378
174324
158015
155602
199663
170661
126269
121308
120792
120754
120752
120752
120752
120751
120753
120766
120848
121310
125055
167593
357955
429432
416728
398516
376213
351627
328234
301783
274176
245595
217184
188146
164243
156341
196872
170728
126299
121313
120793
120754
120752
120752
120752
120752
120758
120800
121055
122916
145984
316722
465543
465631
447794
426962
403504
381449
360616
333527
308205
279617
247321
210395
176414
160526
196828
170787
126325
121319
120793
120754
120752
120752
120752
120754
120774
120904
121786
131867
244531
477711
514598
496271
476506
453432
432038
413240
393879
369270
348507
322320
288774
242593
196556
170325
198115
170838
126349
121323
120794
120754
120752
120752
120752
120760
120822
121224
125040
177313
446536
558276
545596
524796
501344
478629
460388
444445
426009
407895
395099
372798
343572
291666
231911
187576
203706
170884
126369
121327
120794
120754
120752
120752
120755
120781
120956
122369
142216
335768
571826
597288
572224
547826
522141
501443
485550
470961
455387
446958
448038
435264
413446
355986
284811
220423
222513
170918
126385
121330
120795
120754
120752
120753
120762
120834
121358
127443
216513
541602
634115
622677
593200
564057
538156
519354
506109
494134
486074
492431
505371
509508
505102
455129
367831
266001
232076
170948
126399
121332
120795
120754
120752
120755
120782
120976
122749
150438
400486
644952
665744
639557
605326
574499
551280
533372
523129
513032
518714
547810
591108
637910
646546
576111
478275
347105
261773
170974
126411
121335
120795
120754
120753
120761
120830
121371
128415
236127
599654
696032
689637
647852
611386
581785
561254
548171
547641
544074
572136
629289
735683
906084
981315
830114
674188
474493
279946
170990
126419
121337
120795
120754
120754
120776
120949
122632
151103
423717
698731
721958
700772
653570
617330
590770
574657
571859
587170
615395
691238
825159
1.07888e+06
1.48086e+06
1.65806e+06
1.50905e+06
1.06357e+06
679639
380011
171001
126424
121337
120795
120754
120758
120811
121243
127038
221083
616386
745478
742738
707422
662462
628696
606113
597696
609304
644150
718904
889903
1.26996e+06
1.94431e+06
2.75156e+06
2.79135e+06
2.66812e+06
1.97621e+06
1.29098e+06
483958
171011
126428
121337
120795
120755
120768
120889
122046
142440
384716
731051
777371
762573
717280
677466
648060
633937
639761
672276
738020
876127
1.1875e+06
2.01666e+06
3.49815e+06
4.84473e+06
4.60559e+06
5.35225e+06
4.36939e+06
3.42367e+06
746710
175495
175453
175420
175387
175353
175320
175287
175254
175220
175187
175153
175120
175086
175053
175019
174985
174952
174918
174884
174850
174816
174782
174748
174714
174680
174646
174612
174578
174543
174509
174475
174440
174406
174372
174337
174303
174268
174233
174199
174164
174129
174094
174059
174025
173990
173955
173920
173885
173849
173814
173779
173744
173709
173673
173638
173602
173567
173531
173496
173460
173425
173389
173353
173318
173282
173246
173210
173174
173138
173102
173066
173030
172994
172958
172921
172885
172849
172812
172776
172740
172703
172667
172630
172593
172557
172520
172483
172447
172410
172373
172336
172299
172262
172225
172188
172151
172114
172077
172039
172002
171965
171927
171890
171853
171815
171778
171740
171703
171665
171627
171590
171552
171514
171476
171439
171401
171363
171325
171287
171249
171211
171172
171132
171084
170998
129147
129113
129086
129061
129035
129010
128985
128959
128934
128909
128884
128859
128834
128809
128785
128760
128735
128711
128686
128662
128637
128613
128589
128565
128541
128517
128493
128469
128445
128421
128398
128374
128351
128327
128304
128280
128257
128234
128211
128188
128165
128142
128119
128096
128073
128050
128028
128005
127983
127960
127938
127916
127894
127871
127849
127827
127805
127783
127762
127740
127718
127696
127675
127653
127632
127610
127589
127568
127547
127525
127504
127483
127462
127441
127421
127400
127379
127358
127338
127317
127297
127276
127256
127236
127216
127195
127175
127155
127135
127115
127096
127076
127056
127036
127017
126997
126978
126958
126939
126919
126900
126881
126862
126843
126824
126805
126787
126768
126749
126731
126712
126693
126674
126656
126637
126618
126600
126581
126563
126545
126527
126509
126490
126470
126446
122036
122025
122017
122009
122001
121993
121985
121977
121969
121961
121954
121946
121939
121931
121924
121916
121909
121901
121894
121887
121880
121873
121866
121858
121851
121845
121838
121831
121824
121817
121811
121804
121797
121791
121784
121778
121771
121765
121758
121752
121746
121740
121733
121727
121721
121715
121709
121703
121697
121691
121685
121679
121674
121668
121662
121657
121651
121645
121640
121634
121629
121623
121618
121612
121607
121602
121596
121591
121586
121581
121576
121571
121566
121561
121555
121551
121546
121541
121536
121531
121526
121521
121517
121512
121507
121503
121498
121493
121489
121484
121480
121475
121471
121466
121462
121458
121453
121449
121445
121441
121437
121435
121433
121432
121431
121431
121430
121429
121426
121421
121415
121408
121401
121394
121388
121382
121376
121371
121366
121362
121358
121354
121350
121346
121341
120898
120896
120895
120893
120892
120890
120889
120888
120886
120885
120884
120882
120881
120880
120878
120877
120876
120875
120873
120872
120871
120870
120869
120868
120866
120865
120864
120863
120862
120861
120860
120859
120858
120857
120856
120855
120854
120853
120852
120851
120850
120849
120848
120847
120846
120845
120844
120843
120842
120841
120841
120840
120839
120838
120837
120836
120836
120835
120834
120833
120832
120832
120831
120830
120829
120829
120828
120827
120826
120826
120825
120824
120824
120823
120822
120822
120821
120820
120820
120819
120818
120818
120817
120816
120816
120815
120815
120814
120813
120813
120812
120812
120811
120811
120810
120810
120809
120810
120813
120819
120831
120852
120884
120929
120984
121040
121089
121117
121119
121099
121061
121013
120965
120921
120886
120858
120838
120824
120814
120808
120803
120800
120798
120797
120796
120764
120764
120763
120763
120763
120763
120763
120763
120762
120762
120762
120762
120762
120762
120762
120761
120761
120761
120761
120761
120761
120761
120761
120760
120760