/*--------------------------------*- C++ -*----------------------------------*\
| =========                 |                                                 |
| \\      /  F ield         | OpenFOAM: The Open Source CFD Toolbox           |
|  \\    /   O peration     | Version:  2112                                  |
|   \\  /    A nd           | Website:  www.openfoam.com                      |
|    \\/     M anipulation  |                                                 |
\*---------------------------------------------------------------------------*/
FoamFile
{
    version     2.0;
    format      ascii;
    arch        "LSB;label=32;scalar=64";
    class       volScalarField;
    location    "0.00836";
    object      k;
}
// * * * * * * * * * * * * * * * * * * * * * * * * * * * * * * * * * * * * * //

dimensions      [0 2 -2 0 0 0 0];

internalField   nonuniform List<scalar> 
13875
(
812.094
3462.61
3540.41
3538.66
3541.78
3540.11
3542.05
3540.71
3540.36
3541.59
3542.15
3541.26
3540.4
3540.09
3540.43
3541.2
3541.91
3541.13
3540.75
3540.24
3541.14
3539.01
3539.9
3460.92
820.609
881.793
2936.6
3013.08
3000.32
3001.62
2998.75
2998.81
2997.72
2996.89
2996.23
2996.25
2998.25
2996.31
2996.33
2996.18
2998.51
2996.24
2997.1
2996.97
2998.59
3000.43
2999.29
3011.53
2934.6
894.54
993.359
2710.83
2777.51
2755.25
2759.32
2754.42
2747.72
2744.51
2743.01
2741.76
2740.98
2743.76
2751.19
2752.13
2750.88
2744.67
2741.21
2742.72
2745.31
2755.09
2757.66
2753.16
2774.43
2707.42
998.27
1091.06
2533.67
2581.04
2561.54
2567.23
2562.21
2553.5
2549.32
2548.07
2547.93
2546.52
2547.56
2559.05
2560
2558.85
2548.69
2547.33
2547.56
2551.16
2562.91
2565.48
2559.38
2579.1
2530.13
1093.75
1172.09
2380.45
2413.2
2392.98
2398.49
2393.79
2384.05
2380.19
2379.85
2379.9
2378.35
2378.66
2390.05
2391.4
2389.89
2379.77
2379.19
2379.04
2382.35
2393.91
2396.78
2391.15
2410.46
2375.8
1177.12
1240.98
2237.09
2270.96
2245.03
2251.56
2245.66
2234.19
2230.81
2231.07
2231.21
2229.48
2229.16
2240.59
2242.31
2240.52
2230.22
2230.48
2229.9
2233.09
2245.69
2249.95
2243.72
2267.91
2247.21
1246.99
1320.95
2121.76
2158.32
2120.41
2123.33
2115.57
2101.9
2098.34
2098.94
2099.06
2097.25
2096.31
2107.82
2109.71
2107.58
2097.25
2098.54
2097.66
2101.56
2115.49
2121.68
2119.75
2154.11
2095.47
1323.19
1409.73
2000.67
2073.52
2019.65
2016.33
2002.63
1985.62
1981.14
1981.69
1981.53
1979.84
1977.95
1989.65
1991.92
1989.47
1978.81
1981.4
1980.5
1985.44
2002.17
2013.95
2017.98
2068.37
1992.66
1420.27
1691.38
2029.34
2021.85
1944.3
1924.81
1904.81
1883.27
1877.75
1878.34
1877.7
1876.3
1873.45
1885.31
1888.02
1885.42
1874.6
1878.05
1877.13
1883.35
1903.86
1922.38
1942.19
2017.88
2033.55
1716.8
2509.09
2285.39
2018.02
1900.97
1858.58
1826.14
1801.65
1795.65
1795.32
1793.97
1792.81
1789.47
1800.86
1804.02
1801.5
1791.86
1794.88
1795.02
1801.34
1824.7
1855.59
1891.5
2011.43
2266.26
2529.88
3876.73
3026.01
2153.52
1915.49
1814.51
1772.16
1744.48
1735.48
1732.94
1730.46
1729.33
1725.81
1736.17
1739.7
1738.07
1730.97
1733.16
1735.08
1744.97
1768.26
1813.27
1907.14
2129.5
2936.57
3858.8
5185.46
6451.82
2852.59
1993.94
1853.64
1756.35
1712.5
1697.8
1691.37
1687.52
1685.98
1682.84
1691.23
1695.01
1694.85
1690.77
1692.87
1697.88
1712.27
1757.79
1847.02
1973.83
2789.4
6314.58
5120.15
5056.27
7618.14
7050.03
3339.3
2043.14
1796.81
1742.3
1702.49
1685.93
1677.72
1674.23
1671.03
1676.97
1680.67
1682.62
1682.99
1689.94
1706.51
1746.48
1804.28
2089.04
3232.11
6763.25
7643.94
5009.44
4825.77
6354.28
7174.55
8744.22
5170.91
2333.04
1901.68
1783.94
1748.35
1743.29
1740.5
1737.88
1742.75
1745.96
1749.07
1752.26
1757.84
1792.14
1940.82
2482.39
5618.33
8153.46
6955.06
6328.18
4832.36
4602.52
5509.02
6040.71
6995.37
6831.17
6728.03
3440.19
2379.61
2131
2035.89
1995.84
1981.3
1981.85
1986.25
1997.65
2029.33
2119.08
2386.52
3626.27
6892.43
6819.79
6704.77
5964.44
5485.21
4680.92
4292.18
4795.81
5114.03
5883.49
6063.2
6568.43
5573.56
5169.32
4848.72
4191.55
4267.44
4318.51
4360.17
4346.65
4284.07
4182.6
4743.67
5446.09
5659.4
6634.43
5998.42
5706.13
5070.36
4777.12
4364.82
3727.45
4038.3
4338.49
5070.4
5584.17
6485
7306.68
7562.82
6692.26
6251.4
6502.89
6737.38
6869.87
6816.35
6569.14
6543.76
6700.9
7545.73
7338.37
6460.2
5434.41
4899.46
4224.3
3959.78
3719.28
3063.14
3405.27
3947.57
4856.28
5498.83
6089.43
7079.77
7774.8
6513.88
5478.3
5207.16
5233.25
5302.75
5267.93
5268.86
5784.76
6512.23
7421.5
7024.28
6204.62
5533.22
4802.35
3857.84
3344.56
3026.53
2638.14
3164.41
3848.82
5058.78
5964.12
5764.04
6072.11
6771.9
6125.75
5174.12
4683.69
4544.78
4536.31
4591.53
4781.3
5316.2
5960.44
6451.04
6059.41
5950.48
6246.03
5090.06
3835.99
3149.89
2642.01
2519.68
3396.31
4080.08
5214.53
5770.46
5296.19
5243.17
5725.23
5565.83
4951.01
4412.38
4086.04
3977.89
4160.22
4546.82
5029.01
5358.17
5469.79
5259.75
5484.01
5952.99
5178.75
4088.06
3417.54
2516.6
5106.42
7583.26
6151.87
4841.43
5005.07
4644.86
4571.38
4973.89
5032.16
4620.55
4080.68
3654.23
3503.42
3765.24
4244.16
4672.9
4826.03
4771.5
4602.16
4807.52
5146.82
4955.25
6599.78
8106.77
5945.02
11556.2
23193.5
7686.96
4237.44
4306.65
4083.28
4045.06
4400.5
4538.76
4242.35
3725.06
3260.65
3092.43
3378.74
3882.61
4270.68
4340.73
4241.12
4069.31
4212.36
4409.4
4366.57
8246.52
23187.8
12682.2
13441.3
18578.2
6732.91
3774.25
3766.62
3629.33
3606.77
3931.64
4088.66
3852.94
3367.87
2911.2
2736.67
3011.48
3503.5
3866.83
3899.74
3797.76
3622.16
3718.49
3837.46
3877.53
6827.58
18510.2
13368.7
12676.7
18649.1
5695.65
3427.62
3330.66
3238.06
3233.67
3520.76
3679.28
3475.57
3019.34
2591.8
2435.16
2691.73
3155.72
3497.61
3508.01
3401.52
3251.01
3313.8
3400.65
3531.99
5874.7
19681.4
12778.3
12291.8
18375.2
5078.46
3159.29
3001.1
2916.7
2928.74
3171.61
3316.69
3135.38
2717.03
2323.34
2181.48
2415.41
2847.93
3162.84
3165.86
3062.57
2938.17
2980.06
3072.34
3260.94
5309.18
19867.1
12540
12062.8
18327.1
4637.67
2915.57
2738.01
2647.78
2675.3
2874.05
2997.14
2833.51
2455.6
2095.78
1966.29
2176.08
2569.3
2856.97
2863.83
2770.21
2667.75
2690.56
2801.56
2998.18
4839.68
19742.4
12457.9
12062.6
17112.7
4180.83
2696.36
2525.14
2424.63
2458.04
2615.99
2709.12
2554.49
2218.43
1899.33
1784.31
1976.26
2333.65
2592.15
2606.02
2524.93
2441.26
2457
2589.55
2781.21
4432.47
18646.1
12451.6
11920.4
16333.8
3879.39
2517.26
2351.55
2242.39
2272.82
2396.67
2463.87
2318.36
2019.47
1733.24
1628.36
1801.02
2121.1
2354.69
2379.01
2313.46
2248.18
2265.13
2404.63
2590.26
4123.81
17973.9
12284.5
11624.2
15948.3
3661.68
2364.05
2203.22
2097.29
2113.71
2206.42
2250.16
2112.5
1847.91
1591.31
1494.52
1648.59
1932.29
2141.07
2178.03
2129.86
2081.57
2104.34
2241.25
2423.63
3823.05
16549.2
12173.2
11401.1
14907.7
3470.6
2234.8
2065.99
1970.81
1978.18
2038.52
2056.46
1923.67
1690.42
1464.76
1378.55
1520.7
1776.97
1963.87
2006.49
1973.07
1942.75
1971.27
2096.73
2288.16
3634.29
15717
11896.8
11054.5
13684.3
3315.35
2133.02
1946.02
1858.41
1859.9
1894.27
1892.51
1765.77
1559.49
1357.45
1278.21
1406.24
1634.54
1801.18
1853.07
1836.53
1823.43
1852.78
1962.77
2174.19
3438.99
14374.5
11606.1
10746.9
12918.5
3204.15
2056.41
1838.55
1755.16
1753.89
1769.42
1751.91
1631.05
1446.31
1263.68
1190.65
1305.69
1511.21
1662.81
1719.81
1717.61
1716.84
1744.36
1846.28
2085.26
3279.98
13202.8
11290.4
10482.2
11757.1
3074.78
1997.4
1746.35
1664.45
1655.38
1656.51
1622.88
1507.13
1342.86
1179.99
1114.27
1220.5
1406.99
1543.31
1604.14
1614
1619.43
1650.07
1749.54
2017.1
3161.05
12325.4
10957.9
10187.1
10882.3
2955.98
1955.25
1672.36
1583.81
1563.18
1556.98
1513.13
1403.11
1255.3
1107.1
1046.64
1142.51
1311.92
1436.88
1499.95
1520.35
1529.47
1565.17
1669.17
1961.46
3045.47
11368.4
10632.6
9912.06
10253.2
2830.97
1919.68
1623.5
1510.77
1481.4
1467.02
1416.25
1311.13
1177.95
1042.82
987.315
1074.43
1228.14
1342.5
1407.43
1434.91
1449.09
1493.06
1611.93
1923.61
2918.32
10611.4
10311.8
9643.35
9576.13
2707.95
1888.14
1589.11
1447.45
1405.98
1382.26
1328.13
1228.38
1106.93
984.292
934.046
1014.58
1157.09
1262.41
1325.86
1356.27
1377.96
1428.66
1574.52
1893.49
2807.06
10134.5
10021.7
9396.95
9108.45
2603.55
1884.42
1569.32
1395.51
1340.83
1307.05
1249.73
1156.42
1045.79
933.225
886.847
960.063
1090.66
1187.64
1250.54
1284.69
1313.18
1374.25
1549.45
1879.78
2683.4
9513.61
9733.35
9140.65
8864.13
2504.69
1874.84
1560.14
1359.16
1280.86
1238.95
1179.86
1092.86
991.425
887.206
844.291
911.012
1032.15
1121.86
1181.97
1220.46
1254.39
1335.83
1538.47
1874.83
2561.66
9053.47
9466.74
8861.62
8470.05
2386.76
1830.96
1566.33
1335.84
1230.43
1178.05
1115.36
1033.42
940.671
845.321
806.265
868.424
980.829
1063.3
1121.82
1163.82
1204.57
1309.24
1543.49
1846.62
2445.75
8768.14
9230.93
8604.94
8241.22
2280.56
1780.12
1589.4
1323.44
1191.17
1125.13
1059.58
982.15
896.444
807.643
771.479
828.273
933.016
1009.65
1066.19
1114.03
1166.61
1294.75
1552.71
1788.07
2334.34
8461.18
8992.75
8396.67
8062.35
2218.35
1727.34
1618.29
1324.69
1163.48
1082.16
1010.67
935.866
856.204
773.453
740.077
792.37
889.376
961.263
1017.99
1072.51
1140.79
1291.04
1597.9
1734.37
2246.86
8344.25
8717.96
8204.9
7858.87
2134.34
1658.74
1602.99
1335.25
1143.2
1049.75
968.369
893.811
818.729
741.637
711.056
759.835
851.642
919.344
977
1040.47
1120.95
1304.07
1611.71
1684.29
2288.75
8225.52
8455.14
8027.17
7689.11
2078.24
1589.67
1561.03
1375.47
1134.27
1025.92
934.949
857.4
785.602
713.131
684.619
729.527
815.541
880.811
942.204
1017.31
1109.83
1331.51
1574.74
1616.69
2217.51
8046.11
8233.95
7880.37
7514.65
2120.43
1528.64
1504.97
1421.09
1141.52
1007.04
910.315
827.298
756.391
686.933
660.087
701.657
783.446
847.687
915.134
1000.08
1116.73
1397.84
1523.31
1552.99
2207.83
7837.13
8062.82
7737.06
7360.48
2055.77
1466.6
1440.41
1420.76
1175.11
996.415
889.806
803.103
730.427
663.194
637.949
677.215
756.26
821.771
895.04
990.63
1155.43
1423.76
1464.18
1504.73
2231.02
7654.24
7932.91
7596.77
7188.28
2085.15
1421.96
1375.28
1375.15
1250.42
1004.88
875.681
786.138
711.157
643.361
618.469
655.853
734.481
802.685
879.239
995.181
1225.37
1383.27
1399.37
1449.45
2184.85
7503.01
7810.05
7457.94
7031.65
2130.89
1393.21
1318.58
1323.95
1280
1056.59
868.284
771.207
696.819
628.632
601.785
639.756
718.383
787.29
869.27
1039.59
1269.35
1332.52
1338.72
1407.05
2173.1
7356.61
7671.11
7249.25
6841.88
2112.44
1361.47
1269.18
1268.81
1241.89
1136.95
883.517
759.386
684.541
617.318
589.525
627.901
705.731
775.34
882.729
1122.1
1244.39
1276.08
1287.19
1385.47
2227.33
7158.55
7461.64
6980.1
6592.37
2108.63
1342.3
1227
1213.54
1199.5
1179.24
940.943
757.159
674.906
608.188
581.022
618.21
694.542
770.453
931.799
1179.94
1203.17
1218.18
1241.96
1363.55
2202.34
6883.02
7184.51
6363.23
6151.98
2091.95
1325.27
1191.05
1165.34
1153.89
1148.49
1031.79
786.541
670.988
600.21
573.465
609.293
688.375
791.573
1024.03
1162.49
1159.03
1167.75
1203.13
1346.81
2153.27
6399.6
6541.21
3464.01
4650
4263.01
3772.89
3391.05
3161.18
2934.43
2681.87
2441.64
2228.59
1968.41
1691.91
1423.17
1208.82
1065.48
979.06
927.825
898.832
881.958
864.987
844.287
817.393
786.226
752.908
719.202
680.114
635.176
577.246
509.525
481.306
3617.61
4906.63
4486.67
4022.59
3696.39
3507.06
3237.02
2890.2
2561.9
2275.97
1977.48
1673.14
1397.03
1189.39
1046.53
961.365
910.494
879.533
859.238
839.469
816.673
788.835
757.248
726.098
692.537
654.919
612.279
557.648
494.293
472.324
3859.61
5276.29
4776.11
4344.67
4089.69
3926.87
3605.95
3195.97
2816.82
2463.09
2098.36
1740.21
1434.41
1206.59
1052.94
958.03
899.111
862.224
836.299
812.397
787.441
759.145
731.904
701.529
669.405
633.383
591.925
539.674
480.138
465.62
4138.31
5723.98
5201.44
4811.28
4615.97
4454.21
4065.49
3571.59
3125.16
2702.99
2271.9
1862.29
1516.93
1254.26
1076.35
964.37
894.246
848.929
816.708
787.694
762.034
736.174
709.251
680.723
650.073
614.638
574.081
523.683
467.494
458.977
4447.33
6222.34
5747.53
5397.94
5269.99
5088.24
4626.08
4041.94
3529.42
3028.58
2522.13
2045.92
1644.49
1337.83
1123.8
985.078
897.175
840.451
801.059
770.315
743.821
717.931
691.281
663.552
633.234
598.156
558.261
509.408
456.021
453.413
4789.33
6816.03
6413.58
6091.52
6020.4
5805.86
5265.21
4592
4001.67
3413
2826.13
2277.1
1810.31
1446.46
1189.1
1017.34
908.207
838.713
791.064
757.613
729.48
703.051
675.874
648.496
618.442
583.618
544.166
496.549
445.862
447.516
5159.68
7508.86
7187.6
6884.32
6841.67
6561.42
5927.15
5164.2
4497.44
3832.76
3169.48
2546.5
2004.58
1578.44
1270.1
1059
928.11
843.13
786.509
748.668
718.151
690.821
663.243
635.758
605.565
570.777
531.509
484.986
436.522
442.24
5566.55
8292.68
8083.72
7758.7
7693.75
7309.73
6561.45
5698.33
4960.99
4241.83
3522.75
2837.81
2229.62
1733.67
1368.96
1115.87
955.106
853.882
788.045
743.333
709.489
680.566
653.063
625.14
594.817
559.562
520.365
474.779
428.356
437.4
6006.23
9201.92
9083.17
8697.9
8541.14
7997.44
7111.4
6150.23
5354.47
4605.04
3858.42
3133.61
2470.44
1911.23
1486.23
1185.62
991.957
869.236
793.103
741.026
703.588
673.078
645.094
617.904
587.589
550.367
511.158
466.495
421.672
433.892
6449.76
10184.6
10141.8
9679.83
9335
8599.7
7565.22
6513.6
5676.5
4920.19
4166.33
3421.87
2719.97
2104.59
1620.13
1268.03
1038.61
892.199
801.982
742.193
700.601
668.197
639.881
611.135
579.973
544.951
504.383
460.266
416.499
431.55
6860.52
11212.4
11211.8
10646.3
10091.3
9148.54
7964.66
6829.54
5957.69
5194.37
4443.7
3698.44
2973.32
2311.78
1770.11
1365.07
1094.57
921.878
815.229
746.05
699.813
665.855
636.498
606.209
574.327
539.366
499.461
455.54
412.483
430.156
7227.2
12189.4
12298
11629.9
10853.5
9715.48
8365.54
7137.64
6228.21
5459.54
4711.36
3969.2
3231.66
2536.74
1940.76
1480.92
1163.58
958.995
832.064
753.3
701.697
665.032
634.557
604.002
570.722
534.716
495.96
452.041
409.755
429.723
7573.52
13158.9
13474.4
12679.1
11692.5
10349.7
8805.56
7482.52
6530.52
5746.53
4993.69
4248.68
3501.04
2781.21
2137.6
1619.15
1245.83
1005.28
856.803
764.573
706.274
666.328
633.428
601.576
569.025
532.327
493.504
449.499
407.945
430.52
7949.99
14187.9
14744.3
13804.5
12619.2
11083.3
9325.57
7896.46
6892.02
6082.93
5313.5
4555.66
3793.08
3050.31
2362.49
1785.02
1351.06
1066.73
890.583
781.782
714.707
669.889
634.464
601.355
568.217
531.943
491.715
447.782
406.871
433.159
8336.61
15317.6
16055.2
14962.9
13616.5
11923.6
9948.13
8403.03
7333.71
6484.02
5684.16
4904.05
4121.19
3353.4
2622.3
1986.68
1488.1
1149.02
935.933
805.882
726.583
675.245
635.63
599.685
565.588
529.312
489.646
445.921
405.89
434.697
8678.06
16458.5
17331.3
16125.6
14681.5
12884.4
10697.4
9012.69
7867.62
6958.5
6116.18
5304.36
4496.7
3698.28
2926.97
2232.36
1663.35
1258.41
997.048
838.493
742.923
680.8
634.369
596.372
562.189
526.051
486.772
442.98
403.914
435.423
8931.37
17559.6
18545
17280.1
15805.3
13969.9
11583.6
9743.33
8507.31
7517.04
6614.96
5759.23
4922.06
4090.22
3279.69
2527.36
1883.63
1399.68
1078.33
882.223
762.665
685.547
632.728
592.559
558.286
522.177
484.029
440.72
401.403
436.67
9164.36
18548.4
19708.1
18404.9
16989.7
15169.6
12617.9
10620.9
9265.93
8166.14
7184.84
6272.23
5397.89
4530.89
3682.88
2876.84
2156.28
1584.04
1188.04
940.646
788.049
692.303
633.764
590.727
555.684
518.321
479.049
438.079
400.751
438.522
9401.44
19409.4
20751.2
19550.7
18286.3
16462.8
13783.7
11649.4
10157.7
8925.35
7840.97
6851.9
5921.28
5016.69
4139.07
3284.75
2488.55
1822.52
1333.4
1014.31
820.551
707.887
639.7
592.849
553.461
514.038
475.753
434.326
398.871
441.131
9680.5
20100.1
21633.9
20646.1
19689.6
17885
15114.5
12859
11211
9822.65
8601.69
7511.2
6506.24
5555.5
4646.87
3747.63
2883.07
2118.28
1516.95
1111.22
867.97
730.603
649.667
596.647
553.074
513.455
474.493
432.219
397.911
443.752
9959.38
20420.6
22241.7
21659
21148.5
19460.3
16645.4
14278.3
12458.8
10893.5
9502.14
8276.93
7174.36
6160.75
5206.33
4252.09
3320.4
2458.43
1746.38
1241.69
935.057
762.543
663.824
602.12
555.829
513.882
473.752
430.419
397.892
446.55
10044.3
20704
22547.9
22582.7
22676.3
21215.5
18406.4
15956.1
13950.4
12170.7
10577.4
9179.16
7944.37
6834.31
5803.34
4778.88
3782.29
2838.21
2027.2
1416.8
1028.76
806.739
683.114
609.309
558.22
513.266
471.753
428.155
397.323
449.462
10282.3
20491.4
22465.5
23414.3
24258.5
23172.9
20459.6
17932.3
15729.5
13700
11867.2
10242.6
8817.67
7566.7
6421.63
5319.91
4274.31
3268.63
2370.2
1648.58
1158.11
868.187
708.739
617.676
557.884
510.403
467.473
424.736
395.334
452.113
10246.3
19957.4
22276.2
24307.5
26018.2
25429.7
22881.5
20265.9
17835
15515.2
13383.6
11485.7
9798.41
8348.22
7062.4
5901.59
4807.55
3752.62
2778.06
1944.16
1331.41
952.878
743.719
628.077
558.662
507.657
463.551
421.562
392.85
455.016
9815.86
19563.7
22404.1
25505
28099.1
28061.6
25722.5
23002.5
20308.6
17642.3
15123.8
12854.5
10873
9217.87
7797.16
6546.81
5391.24
4294.03
3246.46
2305.95
1561.06
1071.22
795.323
646.536
564.242
507.829
461.686
419.418
391.067
457.861
478.516
506.523
573.73
631.638
676.236
713.769
749.88
783.682
814.804
841.739
862.189
879.074
896.477
927.082
983.054
1079.91
1240.62
1482.81
1778.48
2075.57
2352.67
2587.09
2854.11
3121.45
3358.2
3593.61
3993.26
4502.9
4912.57
3614.92
469.342
491.409
554.251
609.253
651.756
689.275
720.954
754.103
786.095
813.991
836.561
856.528
877.788
911.036
967.122
1064.59
1227.42
1467.1
1769.06
2101.17
2427.37
2736.62
3098.02
3464.34
3729.37
3922.98
4260.7
4745.44
5187.02
3774.78
462.603
477.387
536.511
589.161
630.482
666.905
697.699
727.044
755.538
784.73
810.045
834.266
861.766
901.938
967.132
1077.13
1253.67
1514.29
1850.68
2242.77
2639.48
3021.51
3431.1
3870.94
4179.3
4345.28
4602.74
5055.95
5577.54
4027.89
456.096
464.927
520.833
571.612
612.124
647.981
678.644
706.274
733.442
759.723
786.122
815.991
850.567
900.291
978.248
1107.19
1310.24
1605.79
1988.85
2436.35
2903.21
3361.53
3842.39
4369.62
4739.56
4906.65
5099.42
5510.49
6050.53
4322.74
450.708
453.647
506.85
556.053
596.036
631.141
662.163
689.431
715.783
742.118
769.195
800.806
843.966
906.192
1003.04
1159.82
1401.16
1744.45
2187.6
2706.62
3255.42
3798.42
4352.22
4970.54
5406.53
5597.61
5719.7
6094.64
6580.75
4647.3
444.871
443.627
494.31
542.269
581.915
616.983
647.387
674.251
700.968
727.858
756.43
792.161
842.684
919.744
1039.47
1229.97
1516.9
1919.08
2431.39
3025.77
3657.58
4290.13
4926.32
5641.84
6149.54
6379.9
6448.11
6799.89
7215.98
5006.57
439.592
434.477
483.081
529.951
569.466
604.596
634.728
661.568
689.011
716.875
748.393
789.784
848.839
940.901
1087.14
1315.23
1653.82
2120.03
2705.37
3371.52
4078
4784.4
5503.87
6314.46
6913.33
7222.34
7271.66
7612.28
7944.76
5399.2
434.808
426.544
473.289
519.29
558.724
594.136
624.738
652.241
680.386
709.727
744.26
791.664
861.64
971.176
1146.42
1417.9
1809.49
2344.17
2991.82
3712.46
4467.09
5223.89
6018.55
6936.67
7659.7
8084.23
8182.74
8543.93
8767.13
5826.93
431.462
420.164
465.429
510.597
549.913
585.506
616.091
644.466
673.384
704.629
743.181
797.058
878.883
1009.5
1216.3
1535.02
1982.64
2576.76
3273.52
4030.92
4804.46
5581.34
6435.24
7455.34
8326.32
8925.84
9158.38
9573.68
9707.01
6287.03
429.364
415.28
459.579
504.242
543.461
578.989
609.765
638.89
668.182
701.138
744.513
807.556
901.73
1055.28
1297.11
1665.22
2169.05
2814.31
3542.45
4306.65
5077.82
5859.82
6755.22
7873.47
8900.27
9708.77
10148.2
10666.5
10721.1
6734.04
428.229
411.581
455.281
499.899
539.123
575.148
605.941
635.309
665.326
700.387
748.087
821.308
931.86
1109.47
1389.48
1807.69
2364.9
3049.64
3790.42
4546.75
5309.65
6098.58
7036.22
8243.66
9426.75
10453.4
11127.5
11763.1
11783.4
7141.43
428.613
409.594
452.487
497.13
536.663
573.364
604.765
633.757
664.327
702.015
754.993
837.703
967.091
1173.54
1496.83
1967.16
2572.88
3282.13
4027.67
4778.39
5538.65
6337.65
7317.11
8620.58
9977.09
11206.6
12121.8
12881.4
12766.7
7507.13
430.872
408.942
450.786
495.541
535.952
571.002
602.989
633.634
665.972
707.06
766.697
859.566
1008.81
1248.76
1623.63
2148.72
2796.86
3524.64
4276.64
5030.45
5797.13
6613.1
7635.94
9048.66
10608
12047.2
13188.5
14094.7
13752.3
7851.29
431.245
407.465
449.595
494.779
534.085
570.181
603.948
635.24
670.267
715.747
783.954
892.071
1066.34
1346.91
1772.25
2353.54
3041.32
3789.18
4555.22
5322.95
6108.31
6952.45
8031.24
9562.83
11339.9
12974.2
14327.4
15392.6
14796.4
8233.87
432.17
405.421
447.633
491.913
532.015
569.48
603.927
638.122
676.809
728.351
807.713
936.308
1144.51
1474.8
1961.05
2588.77
3318.34
4091.62
4879.3
5671.34
6487.11
7372.33
8521.37
10180.8
12186.8
13979.5
15502.4
16723.2
15930.8
8620.36
433.554
403.733
444.55
488.812
529.089
566.833
602.134
639.618
684.425
743.501
838.339
993.445
1247.63
1641.67
2193.38
2874.11
3641.52
4443.46
5257.61
6083.8
6946.36
7894.11
9118.3
10929.1
13163.7
15060.7
16677.6
18009.4
17066.1
8957.9
435.067
401.786
441.157
484.888
525.499
563.325
598.993
639.442
691.274
763.796
876.146
1067.92
1380.34
1850.17
2476.75
3212.4
4017.7
4849.6
5694.09
6563.91
7489.03
8526.24
9847.65
11817.6
14271.6
16213
17843.4
19224.4
18151.2
9208.61
436.795
399.791
437.936
480.949
521.308
559.685
596.737
640.556
699.685
789.919
930.855
1167.83
1549.23
2105.16
2812.9
3602.69
4443.68
5310.08
6191.26
7118.74
8126.89
9280.91
10729.6
12869.3
15507.2
17426.7
18990.2
20351.7
19138.7
9449.87
439.118
398.286
435.175
478.196
518.009
557.314
596.792
646.163
713.994
823.032
1004
1304.23
1768.11
2417.26
3203.8
4046.97
4918.82
5822.97
6758.25
7762.79
8880.47
10174
11766
14065.8
16846.1
18703.2
20111.7
21420.2
20022.7
9692.17
443.016
397.723
433.352
476.935
516.309
557.114
600.403
654.763
734.442
867.23
1097.13
1482.62
2053.54
2794.3
3650.87
4545.23
5449.77
6396.53
7406.9
8515.27
9775.2
11230.5
12986.8
15421
18300.8
20126.2
21235.1
22320.8
20685.7
9970.16
445.845
398.167
432.873
476.741
516.891
559.254
605.931
667.413
763.953
930.744
1220.14
1701.6
2389.07
3230.88
4151.5
5099.51
6046.71
7052.54
8158.31
9406.12
10842.8
12483.8
14419.6
16970.9
19916.3
21637.5
22270.3
22915.8
20984.9
10247.4
448.561
398.58
431.946
475.861
517.29
561.673
613.159
685.876
806.118
1019.42
1388.31
1972.17
2762.61
3692.03
4674.97
5692.31
6713.16
7808.47
9044.6
10468
12117.5
13982.8
16118
18761
21713.4
23213.4
23212.8
23201.3
21253.8
10327.6
451.225
397.794
429.617
472.696
515.441
563.179
622.131
711.664
865.572
1142.81
1611.83
2303.83
3180.56
4170.04
5204.91
6289.07
7420.77
8662.86
10087.9
11741.8
13633.5
15765.5
18122.8
20855
23721
24854.9
24056.9
23094.1
21034.8
10562.2
453.71
395.882
426.651
469.141
513.134
564.644
634.054
747.221
948.829
1311.33
1899.9
2703.01
3655.35
4689.31
5764.63
6906.77
8177.41
9614.48
11296.9
13229.9
15427.8
17872.6
20481.4
23327.4
26044.8
26653.2
24937.3
22872.7
20507.8
10523.2
455.986
393.879
424.438
467.565
513.648
570.028
652.811
798.629
1065.19
1536.15
2255.89
3168.87
4193.69
5271.91
6406.49
7623.38
9027.83
10667.8
12644.1
14937.9
17523
20342.8
23246.5
26227.3
28751.1
28770.1
26139.9
22916
20049.5
10076.2
6377.69
5815.94
5240.82
4779.12
4405.04
4153.73
4006.22
3980.76
4069.83
4279.38
4610.49
5058.53
5613.36
6260.28
6975.31
7731.57
8503.62
9274.59
10032.3
10771.3
11521.2
12249.1
12965.1
13667.9
14338.9
14982.4
15595.3
16175.8
16722.6
17233.2
17702.6
18128.2
18507.4
18836.1
19113.2
19334.4
19491.8
19573.7
19577.2
19512.7
19377.2
19169.3
18890.2
18532.7
18093.8
17575
16981
16319.8
15599.5
14828.8
14024.5
13208.1
12393.9
11585
10783.6
9997.75
9235.34
8501.79
7801.5
7136.59
6505.7
5906.82
5337.68
4796.79
4284.72
3803.6
3356.27
2944.92
2570.64
2234.07
1935.15
1673.06
1446.17
1252.27
1088.86
952.891
840.935
749.607
675.881
616.916
570.094
533.036
503.742
480.616
462.379
448.003
436.684
427.811
420.952
415.789
412.075
409.611
408.233
407.768
408.081
408.991
410.362
412.297
414.681
417.268
420.404
423.743
426.727
429.833
433.295
436.879
440.451
443.968
447.919
452.048
456.708
460.287
463.348
466.726
471.022
473.451
474.368
477.494
477.252
475.304
472.143
468.259
464.342
461.238
458.231
17577.4
16453.6
15182.6
14147.4
13324.6
12815
12584.8
12676.9
13067.7
13775.5
14788.8
16090.1
17647.7
19425
21369.6
23422.3
25528.3
27645
29740.6
31792.5
33764.3
35635.9
37443
39197.7
40883.7
42492.4
44022.9
45471
46832.9
48104.5
49279.8
50351.9
51310.8
52149.6
52855.9
53419.8
53829.5
54079.5
54169.2
54089.6
53841.6
53425.9
52838.2
52076.7
51146.5
50057.1
48820.3
47450.8
45964.5
44378.5
42696.6
40930.1
39098.7
37224
35332.2
33472.7
31645.6
29849.5
28098.2
26396.6
24743.5
23133.2
21557.4
20011.9
18497.7
17025.7
15593.2
14201.8
12853.2
11551
10300.1
9108.1
7983.77
6936.02
5974.47
5107.1
4337.69
3665.46
3086.97
2596.39
2185.22
1843.98
1563.06
1333.32
1146.41
995.136
873.372
775.704
697.624
635.31
585.616
545.959
514.185
488.498
467.511
450.125
435.654
423.447
413.316
404.872
398.006
392.324
387.43
383.595
380.972
379.673
379.424
379.033
378.94
379.706
380.159
379.894
379.722
382.049
387.517
392.769
395.544
397.787
397.757
397.154
396.469
395.199
393.52
392.495
392.426
27868.1
26623.7
25199.7
24006.9
23136.5
22650.4
22570.6
22941.5
23732.3
24957.5
26603.4
28638.8
31015.3
33672.4
36533.6
39515.6
42542.3
45551.3
48496.1
51344.7
54072.1
56649.7
59117
61484.5
63750.2
65920.5
67988.3
69947.1
71795.4
73525.9
75129.5
76590.9
77898.5
79050.4
80035.2
80838.8
81452.5
81872.3
82090.5
82101.3
81901.7
81497.9
80887.9
80071.9
79059
77862.2
76496.5
74977.8
73322.3
71551.6
69679.8
67720.1
65683.5
63581.5
61422
59191.2
56907.1
54583
52224.3
49839.3
47462.3
45082.2
42688.5
40278.4
37855.1
35418.7
32994.8
30598.2
28247.9
25962.2
23757
21640.4
19620.2
17704.2
15896.8
14199.4
12612.4
11139.9
9787.07
8555.82
7444.73
6449.59
5564.11
4781.26
4093.79
3494.54
2978.48
2538.69
2167.3
1855.66
1596.52
1382.8
1207.72
1064.81
948.299
853.532
776.623
714.012
662.987
621.068
586.662
557.778
533.507
513.506
497.345
484.834
475.103
466.349
459.407
453.139
447.12
441.042
435.702
433.585
436.9
440.008
439.862
438.945
435.765
432.249
429.559
427.234
425.276
424
423.384
39521.6
38297.3
36944.2
35865.3
35225
35026.3
35338.9
36219.8
37627.4
39564.7
42002.8
44893.9
48167.4
51736.2
55499.2
59354
63209.5
66993.7
70656.5
74165.6
77501.6
80653.1
83631
86490.5
89236.2
91862.4
94367.7
96748.3
98998.2
101108
103068
104870
106499
107943
109186
110227
111066
111697
112113
112313
112297
112063
111606
110931
110050
108977
107729
106319
104753
103063
101265
99356.9
97344.2
95226.6
93005.2
90681.9
88261.9
85739.8
83111.5
80360.8
77452.6
74416.6
71260.2
67987.1
64636.8
61267.5
57857.8
54419.6
50967.7
47537.3
44143.8
40814.4
37577.1
34450.2
31456.8
28609
25918.9
23396.2
21048.7
18879.2
16887.7
15068.6
13412.3
11907.6
10543.2
9309.5
8195.67
7193.44
6295.74
5495.35
4785.78
4160.9
3613.64
3137.24
2725.51
2373.04
2073.6
1820.23
1605.99
1426
1275.12
1147.72
1040.05
950.463
875.919
814.083
762.298
717.202
678.419
644.603
613.939
585.94
562.51
545.363
537.801
532.212
524.33
514.681
503.922
494.459
487.622
481.766
475.777
470.984
468.373
52825.2
51752.3
50680.6
49985.6
49841.3
50236.6
51213.6
52825.8
55065
57905.3
61292.6
65146.5
69370.3
73850.3
78467.2
83107.5
87676.2
92103.1
96344
100378
104199
107811
111217
114476
117607
120611
123483
126216
128802
131229
133487
135568
137464
139170
140685
142001
143105
143998
144681
145151
145398
145415
145207
144782
144151
143331
142335
141183
139885
138458
136905
135224
133407
131438
129304
126961
124463
121780
118902
115816
112526
109071
105443
101639
97615.2
93340.6
88899.2
84315.3
79663
75034
70416.3
65826
61301
56880.2
52570
48408.8
44418.9
40625.6
37042.1
33676.4
30533.4
27609.4
24899
22396.3
20100.6
18004.9
16098.7
14369.9
12807.4
11398.1
10132.3
8998.68
7984.88
7078.96
6271.22
5554.53
4922.83
4367.87
3879.98
3450.17
3071.53
2738.2
2443.97
2191.01
1972.31
1783.88
1618.5
1466.04
1326.28
1200
1084.63
979.655
889.88
818.428
767.178
724.167
682.288
643.747
609.877
583.067
564.415
549.239
536.46
526.296
518.498
67441.3
66712.4
66102.5
66077.1
66690.7
67946
69846.1
72408.3
75639.7
79500.4
83898
88717.6
93855.1
99155.5
104496
109766
114880
119782
124445
128866
133053
137019
140771
144338
147769
151063
154213
157212
160048
162714
165204
167515
169646
171600
173378
174976
176393
177615
178625
179405
179947
180261
180352
180227
179902
179398
178736
177942
177027
175993
174828
173507
172003
170291
168344
166135
163658
160911
157890
154576
150939
147039
142914
138530
133872
128955
123859
118579
113067
107316
101425
95474.4
89604.2
83824.2
78146.6
72617.4
67274.4
62133.1
57209.7
52512.3
48062.4
43872.2
39947.9
36292.1
32901.9
29772.7
26893.1
24250.8
21835
19636.2
17641.9
15836.9
14202.9
12724.4
11393.4
10202.6
9139.52
8192.7
7351.7
6606.72
5945.13
5355.58
4829.08
4366.6
3962.79
3607.57
3289.96
2992.77
2707.82
2435.66
2180.46
1942.51
1715.25
1515.61
1355.08
1207.02
1064.08
941.292
838.811
757.771
701.231
661.117
628.005
601.395
582.313
82924.1
82708.1
82802.2
83662.8
85263
87572.3
90576
94233.8
98543
103423
108769
114454
120329
126286
132155
137859
143333
148544
153487
158172
162618
166844
170856
174647
178280
181760
185081
188239
191230
194053
196710
199207
201550
203742
205781
207660
209362
210871
212167
213242
214087
214697
215082
215267
215278
215155
214933
214642
214278
213807
213179
212338
211233
209825
208091
206026
203639
200906
197820
194366
190536
186364
181895
177113
171980
166425
160606
154573
148294
141793
135130
128330
121320
114201
107091
100137
93395.3
86851.3
80526.1
74456.3
68661.8
63164.5
57980.6
53105.4
48551
44316.5
40390.4
36758.5
33404
30312.5
27470.9
24865.2
22482.3
20309.2
18330.6
16535.5
14911.8
13448.9
12133
10950.1
9890.72
8943.5
8096.35
7342.13
6675.34
6085.76
5561.85
5086.85
4646.28
4237.33
3847.98
3481.19
3133.2
2809.7
2519.23
2208.3
1892.68
1606.14
1357.36
1154.57
1001.15
885.419
797.697
731.474
684.044
98858.5
99263.3
100266
102177
104906
108387
112558
117329
122658
128439
134570
140904
147294
153687
159876
165822
171486
176859
181951
186783
191381
195757
199912
203834
207534
211066
214420
217606
220629
223504
226243
228850
231328
233670
235868
237908
239773
241450
242920
244173
245210
246036
246667
247141
247506
247821
248127
248433
248708
248882
248868
248587
247974
246979
245573
243760
241536
238890
235803
232289
228372
224104
219519
214570
209214
203398
197189
190670
183829
176627
169117
161489
153694
145768
137795
129755
121693
113694
105919
98482.9
91354.3
84544.6
78095.5
72015.7
66316.5
60995.4
56036.7
51417.2
47127.7
43146.7
39457.7
36040
32879.6
29961.7
27269.5
24790.5
22512.3
20423.9
18514.5
16772.7
15189.1