/*--------------------------------*- C++ -*----------------------------------*\
| =========                 |                                                 |
| \\      /  F ield         | OpenFOAM: The Open Source CFD Toolbox           |
|  \\    /   O peration     | Version:  2112                                  |
|   \\  /    A nd           | Website:  www.openfoam.com                      |
|    \\/     M anipulation  |                                                 |
\*---------------------------------------------------------------------------*/
FoamFile
{
    version     2.0;
    format      ascii;
    arch        "LSB;label=32;scalar=64";
    class       volScalarField;
    location    "0.00836";
    object      T;
}
// * * * * * * * * * * * * * * * * * * * * * * * * * * * * * * * * * * * * * //

dimensions      [0 0 0 1 0 0 0];

internalField   nonuniform List<scalar> 
13875
(
1412.01
1535.58
1482.4
1487.83
1481.99
1484.31
1484.01
1483.87
1484.41
1484.24
1484.16
1484.16
1483.62
1483.94
1483.84
1483.85
1483.43
1484.73
1484.87
1483.12
1481.88
1487.66
1480.53
1533.09
1397.22
1307.02
1356.17
1318.9
1322.22
1316.66
1319.34
1322.14
1323.05
1323.53
1323.41
1323.36
1323.26
1318.17
1317.69
1318.36
1322.76
1322.95
1323.48
1322.32
1317.82
1316.7
1321.87
1319.58
1356.09
1301.98
1307.24
1340.07
1314.27
1311.87
1305.32
1306.01
1305.77
1305.93
1305.94
1304.69
1304.62
1306.02
1303.85
1304.06
1303.91
1305.77
1303.89
1305.95
1306.03
1305.09
1304.86
1311.06
1311.4
1335.86
1297.55
1317.37
1344.8
1314.64
1308.73
1306.1
1306.09
1304.91
1304.22
1303.85
1303.14
1302.76
1303.5
1303.93
1304.1
1304.05
1303.45
1302.43
1303.51
1304.21
1305.48
1305.35
1307.7
1313.93
1343.82
1312.62
1329.52
1342.11
1315.69
1312.46
1304.98
1306
1305.62
1304.19
1303.9
1303.26
1302.81
1303.37
1303.83
1304.24
1303.83
1303.29
1302.52
1304
1305.2
1304.87
1304.75
1311.74
1311.99
1338.54
1316.66
1332.21
1351.13
1318.81
1309.9
1308.08
1307.01
1305.13
1304.52
1303.79
1303.42
1302.95
1303.57
1304.13
1304.52
1304.3
1303.56
1302.64
1303.56
1304.27
1306.56
1307.28
1308.43
1318.99
1349.01
1326.14
1338.98
1360.45
1328.98
1317.5
1308.1
1307.57
1306.73
1304.64
1304.35
1303.85
1303.41
1303.67
1304.29
1304.84
1304.23
1303.58
1303.17
1304.59
1306.19
1306.5
1307.8
1317.6
1325.69
1358.16
1321.23
1359.71
1384.67
1344.02
1321.13
1316.72
1310.36
1306.86
1305.25
1305.04
1304.53
1304.03
1304.21
1305.02
1305.51
1305.22
1304.18
1303.76
1304.96
1306.17
1309.99
1315.31
1320.38
1341.55
1380.93
1349.89
1537.17
1508.33
1387.05
1350.39
1322.02
1315.75
1311.09
1306.88
1306.84
1306.21
1305.61
1305.33
1306.16
1306.86
1306.32
1305.64
1305.63
1307.27
1310.54
1314.2
1321.31
1349.23
1382.75
1505.6
1521.52
1834.83
1574.38
1427.04
1358.38
1338.4
1321.05
1313.91
1310.5
1309.83
1309.13
1308.31
1307.98
1308.76
1309.54
1309.18
1308.57
1308.84
1310.95
1314.09
1320.59
1337.06
1357.17
1424.85
1566.5
1827.3
2507.04
1804.11
1517.23
1406.63
1349.92
1331.84
1325.48
1317.53
1316.38
1315.11
1313.73
1313.26
1313.87
1314.84
1314.71
1314.61
1315.15
1317.71
1326.14
1330.05
1348.72
1419.38
1502.13
1797.68
2429.68
2812.11
2301.39
1735.01
1462.8
1425.83
1361.2
1339.5
1331.02
1329.15
1327.02
1325.28
1324.83
1325.19
1326.18
1326.31
1326.9
1328.19
1331.75
1339.76
1371.38
1405.48
1457.23
1731.31
2306.16
2837.18
2786.34
2654.23
2351.19
2206.36
1524.26
1414.51
1395.54
1372.39
1364.06
1357.44
1353.9
1352.97
1352.86
1353.81
1354.65
1357.52
1363.58
1374.85
1399.64
1421.79
1567.46
2234.69
2245.69
2686.99
2766.19
2722.63
2660.61
2744.11
2785.51
2051.1
1830.59
1520.63
1475.95
1459.17
1447.12
1442.39
1441.12
1440.9
1441.86
1443.12
1447.57
1458.66
1478.73
1541.51
1921.58
2101.2
2803.67
2792.61
2702.93
2701.3
2581.85
2637.83
2685.63
2687.3
2590.24
2365.56
2018.58
1965.17
1865.57
1765.5
1730.63
1719.62
1716.08
1717.78
1724.42
1748.22
1839.68
1961.61
1984.27
2420.71
2637.15
2735.66
2678.02
2651.99
2625.68
2499.76
2536.75
2630.16
2684.65
2657.09
2685.41
2870.68
2942.52
2934.76
3034.52
3113.58
3135.73
3145.45
3139.47
3122.17
3055.74
2902.24
2937.35
2900.85
2717.33
2660.62
2706.31
2624.91
2557.99
2533.09
2313.41
2397.27
2477.53
2531.63
2604.25
2729.6
3032.22
3409.91
3593.22
3684.44
3698.21
3691.47
3688.82
3691.75
3700.6
3701.49
3597.73
3417.84
3055.72
2740.15
2616.14
2565.41
2469.6
2404.04
2328.96
2024.38
2148.52
2302.64
2613.82
2788.23
2829.9
2961.09
3315.18
3528.86
3643.31
3672.73
3672.29
3671.82
3673.64
3674.78
3646.26
3500.44
3291.47
2962.17
2838.46
2806.71
2562.72
2270.05
2140.13
2023.9
1811.93
1877.57
2010.4
2242.79
2722.01
2837.03
2878.68
3106.54
3360.49
3499.57
3544.52
3557.59
3561.41
3561
3548.71
3509.65
3360.79
3118.48
2918.12
2924.29
2679.44
2205.18
2007.38
1882.53
1813.95
2451.7
2339.12
2096.17
2189.53
2507.83
2688.73
2697.98
2843.04
3079.96
3279.77
3388.11
3430.01
3440.69
3432.94
3392.28
3279.48
3067.6
2852.64
2730.71
2712.83
2485.46
2219.79
2135.55
2336.85
2444.33
3277.82
3428.05
2741.75
2300.65
2378.97
2530.81
2547.94
2661.55
2887.09
3109.45
3251.5
3307.13
3316.43
3306.48
3245.17
3090.11
2856.34
2657.42
2558.61
2540.88
2359.09
2324.18
2804.38
3484.61
3280.3
3650.58
3586.25
2805.12
2209.41
2213.45
2367.45
2416.3
2522.87
2737.04
2964.84
3118.15
3179.04
3190.73
3174.41
3102.53
2933.3
2701.98
2521.26
2418.18
2368.48
2189.78
2245.01
2891.07
3633.76
3686.06
3504.57
3106.37
2479.42
2051.88
2061.41
2234.17
2308.44
2415.57
2609.24
2831.2
2989.49
3055.7
3066.34
3050.46
2974.78
2804.72
2582.9
2416.91
2298.45
2233.8
2035.55
2052.25
2466.38
3107.02
3534.7
3522.22
2955.89
2239.45
1898.49
1973.95
2136.1
2204.87
2315.59
2504.18
2716.96
2867.31
2932.11
2946.6
2926.84
2853.27
2690.99
2478.09
2318.43
2202.1
2128.94
1942.74
1889.57
2248.77
2976.23
3548.88
3454.98
2781.79
2089.49
1817.7
1928.05
2064.54
2117.31
2231.45
2409.5
2613.31
2757.94
2820.63
2830.87
2813.88
2740.93
2585.04
2382.55
2228.65
2117.29
2062.95
1897.03
1805.62
2105.4
2824.17
3482.64
3425.62
2745.15
2035.49
1823.49
1903.07
1997.91
2038.87
2148.55
2323.04
2513.99
2649.83
2707.94
2722.76
2703.31
2637.21
2491.74
2299.33
2148.92
2044.5
1998.61
1877.69
1814.05
2036.87
2766.52
3458.35
3351.22
2596.91
1960.87
1825.12
1880.7
1951.99
1975.33
2086.65
2249.54
2429.04
2553.31
2609.1
2618.95
2604.13
2539.82
2407.26
2227.39
2081.39
1976.47
1960.09
1862.02
1819.35
1969.79
2615.61
3372.27
3322.37
2563.85
1969.72
1858.19
1872.95
1904.47
1914.82
2023.96
2184.61
2349.93
2460.88
2509.2
2523.46
2504.99
2448.67
2325.55
2157.31
2018.74
1918.95
1909.54
1854.36
1849.13
1975.51
2611.72
3366.23
3314.61
2537.16
1938.91
1850.63
1842.52
1872.68
1867.99
1977.63
2121.8
2274.65
2374.67
2423.07
2432.01
2420.13
2366.34
2261.6
2106.65
1972.31
1870
1882.72
1834.15
1850.91
1934.07
2514.63
3285.47
3279.63
2539.33
1973.81
1885.79
1843.01
1847.65
1825.9
1929.61
2070.62
2208.94
2297.2
2335.74
2348.78
2332.65
2287.55
2190.15
2048.21
1926.38
1829
1860.52
1830.73
1875.99
1960.73
2524.12
3267.51
3190.35
2450.82
1943.58
1886.36
1804.47
1823.56
1794.13
1904.69
2025.94
2150.97
2224.1
2263.1
2268.99
2259.83
2215.03
2135.29
2006.65
1890.35
1793.04
1835.71
1805.42
1876.87
1940.4
2456.9
3212.07
3159.87
2451.14
1996.2
1913.59
1810.48
1801.64
1770.07
1864.6
1979.33
2090.59
2157.59
2186.74
2197.82
2185.01
2151.32
2077.37
1962.45
1865.9
1769.93
1814.1
1809.9
1894.95
1972.02
2418.7
3141.95
3095.87
2393.45
1995.92
1898.35
1785.08
1770.9
1743.91
1849.04
1945.44
2045.3
2095.83
2126.6
2129.64
2123.76
2088.15
2033.65
1928.83
1836.13
1744.41
1782.29
1790.05
1889.9
1977.17
2384.2
3084.17
3060.87
2370.2
2026.13
1917.34
1805.8
1756.65
1732.26
1823.48
1907.01
1992.98
2040.54
2060.77
2069.87
2059.35
2034.34
1980.46
1889.86
1819.31
1725.41
1767.11
1799.73
1902.33
2009.52
2374.54
3080.27
3022.49
2335.5
2017.28
1913.02
1787.63
1726.37
1701.45
1809.95
1877.56
1953.96
1986.32
2011.21
2012.09
2009.39
1981.44
1948.04
1863.3
1800.6
1701.05
1735.21
1793.1
1905.2
2012.5
2331.03
3039.06
3000.79
2327.73
2023.06
1929.27
1803.25
1733.21
1699.22
1787.55
1845.95
1906.91
1940.7
1954.37
1962.39
1953.89
1934.44
1896.5
1832.18
1788.5
1687.01
1731.71
1806.88
1920.47
2020.6
2340.26
3015.9
2952.43
2283.56
2008.34
1945.88
1794.02
1714.57
1671.12
1776.35
1821.64
1878.53
1895.18
1914.63
1913.33
1912.85
1890.59
1873.26
1802.98
1768.13
1664.29
1718.11
1796.29
1941.35
2003.05
2311.49
2971.97
2941.73
2293.5
2014.9
1984.55
1813.78
1733.6
1675.77
1758.82
1791.4
1832.64
1856.08
1865.65
1872
1865.25
1851.51
1824.83
1780.69
1763
1662.77
1725.41
1812.12
1967.42
2009.12
2282.25
2942.52
2905.86
2270.68
1990.85
1996.02
1821.47
1716.21
1657.88
1747.08
1766.39
1812.22
1818.84
1834.2
1831.05
1832.77
1814.78
1809.07
1746.52
1740.17
1650.67
1715.09
1820.6
2002.1
1976.05
2270.91
2897.76
2858.93
2263.69
1975.01
1994.41
1846.71
1747.73
1676.36
1738.83
1744.47
1768.55
1785.28
1792.17
1796.43
1791.63
1780.74
1762.46
1729.76
1737.31
1660.53
1736.93
1839.74
1986.87
1964.3
2260.52
2857.05
2831.74
2254.68
1945.72
1986.28
1896.41
1736.59
1669.28
1729.02
1719.38
1754.46
1754.31
1766.5
1762
1766.04
1751.44
1754.94
1695.9
1719.17
1667.18
1725.44
1872
1994.12
1936.25
2224.42
2827.78
2796.68
2249.1
1937.08
1977.48
1925.38
1774.54
1707.58
1732.15
1706.37
1714.39
1724.92
1729.31
1732.59
1730.3
1720.63
1713.83
1690.03
1726.3
1695.28
1768.34
1934
1976
1941.99
2257.54
2806.34
2767.04
2226.66
1915.3
1958.41
1923.49
1791.69
1706.18
1731.56
1686.24
1709.53
1701.11
1709.21
1703.38
1709.46
1697.63
1711.32
1658.77
1712.97
1700.27
1773.05
1934.62
1971.5
1922.91
2263.89
2775.95
2734.84
2224.96
1915.93
1930.44
1912.42
1852.46
1750.92
1751.76
1689.31
1676.58
1675.28
1676.56
1678.32
1677.73
1671.52
1680.11
1674.25
1736.78
1731.95
1829.6
1927.19
1941.28
1931.06
2229.61
2740.36
2714.24
2210.97
1901.96
1904.06
1902.7
1896.03
1762.67
1745.57
1677.38
1683.38
1659.4
1661.57
1653.72
1661.93
1654.85
1686.07
1653.12
1728.6
1757.19
1900.11
1916.98
1922.46
1904.53
2210.99
2723.41
2675.89
2191.2
1900.57
1883.58
1874
1884.64
1823.22
1773.28
1703.77
1662.81
1642.92
1634.66
1633.74
1635.16
1636.37
1660.95
1683.08
1759.43
1811.68
1897.63
1896.86
1891.11
1899.82
2200.42
2690.45
2658.99
2189.17
1891.6
1864.38
1848.97
1870.35
1907.79
1798.42
1691.18
1683.21
1641.42
1630.08
1617.12
1629.27
1635.24
1685.56
1664.98
1774.34
1888.63
1879.67
1867.2
1878.46
1888.51
2181.96
2666.23
2610.85
2168.74
1889.08
1853.3
1823.42
1858.88
1888.03
1851.64
1729.29
1667.75
1636.45
1613.18
1605.41
1612.62
1628.21
1667.64
1714.24
1830.27
1898.84
1869.22
1844.92
1857.59
1886.32
2175.19
2612.15
2570.3
2150.15
1871.51
1841.08
1803.59
1820.08
1876.04
1944.82
1738.37
1701.32
1646.3
1630.86
1606.08
1628.6
1638.15
1702.61
1711.48
1922.29
1879.85
1827.77
1819.24
1848.85
1881.23
2155.85
2571.49
2400
2100.07
1853.46
1832.04
1788.89
1798.19
1854.69
1919.34
1822.64
1703.88
1647.13
1614.9
1608.47
1613.69
1633.97
1701.48
1800.92
1926.99
1862.45
1803.14
1799.14
1836.56
1861.96
2101.11
2390.3
840.392
750.746
662.819
600.878
571.391
566.903
563.013
550.152
538.154
531.056
516.875
497.826
474.978
457.475
442.516
430.607
421.827
415.137
411.125
408.332
406.234
404.461
402.58
400.99
400.216
399.313
397.11
393.602
389.31
384.065
834.817
745.313
663.776
609.668
586.455
577.159
564.868
540.731
515.603
498.285
481.489
466.346
453.765
445.587
436.685
429.237
424.197
420.781
418.772
416.942
414.816
412.544
409.757
408.252
406.892
405.392
402.557
398.601
393.293
387.142
839.289
746.479
677.43
633.031
613.129
602.353
579.087
547.111
519.68
498.798
481.072
465.988
453.75
445.073
437.355
431.904
427.924
425.266
423.169
421.09
418.795
416.099
414.421
412.649
410.997
409.355
405.996
401.592
395.823
389.016
868.891
769.761
710.387
671.353
655.142
642.015
610.328
569.337
535.123
509.699
488.538
470.628
457.292
447.101
440.171
436.849
434.796
433.147
431.064
428.19
425.883
423.775
421.796
419.925
418.094
415.551
411.152
405.848
399.265
393.09
887.048
797.018
750.222
720.567
713.185
695.765
661.51
613.153
572.42
539.08
510.153
486.664
469.356
456.997
450.362
446.367
443.403
440.606
437.935
435.309
433.09
430.839
428.233
425.907
423.487
420.23
415.416
409.53
402.548
395.529
907.694
831.877
800.376
781.95
783.933
771.409
729.768
674.331
624.738
581.418
543.389
511.95
488.548
472.925
464.164
458.885
454.542
451.441
448.385
445.975
442.974
439.917
436.201
433.169
430.046
425.886
420.556
414.157
406.885
399.842
931.078
870.331
856.788
851.243
861.587
848.626
801.713
740.892
684.075
632.432
586.001
546.733
515.798
495.323
482.414
473.043
467.485
463.036
458.574
455.211
451.265
447.168
442.473
438.678
434.816
430.173
424.521
418.016
410.993
403.014
954.567
916.582
918.597
922.966
937.237
920.609
864.308
796.789
733.052
676.805
625.367
581.248
544.847
518.254
501.206
489.31
481.128
475.776
470.823
465.933
460.724
455.321
450.04
445.442
440.919
435.666
429.532
422.726
415.448
407.297
985.058
963.617
978.678
991.459
1003.39
976.78
907.194
831.235
763.366
705.376
653.924
608.839
570.297
540.654
520.138
505.087
494.684
487.106
481.212
474.603
468.033
461.593
455.632
450.921
446.304
439.933
433.642
426.667
419.17
411.651
1018.72
1011.11
1038.84
1054.18
1058.9
1014.4
933.049
848.797
778.906
720.024
669.991
626.068
588.248
557.929
535.745
518.995
507.541
498.055
490.661
482.832
475.155
468.008
462.016
456.758
451.805
446.258
438.893
431.381
423.464
416.01
1049.63
1055.23
1094.44
1108.79
1103.77
1043.6
952.26
861.067
788.931
727.92
678.142
635.456
599.745
570.219
547.587
530.057
517.51
506.806
497.909
489.114
480.743
473.384
467.198
461.282
455.909
450.449
443.021
435.334
427.845
420.787
1077.13
1100.18
1145.65
1155.52
1137.15
1067.73
970.655
873.598
798.751
734.629
682.949
640.479
605.804
577.558
555.49
538.071
524.894
513.071
503.001
494.321
485.876
478.675
472.59
466.827
460.866
454.911
448.33
440.897
433.677
426.439
1105.55
1144.3
1189.81
1194.95
1167.82
1092.91
990.864
889.495
811.808
743.174
688.03
643.929
608.804
581.012
559.797
543.041
529.145
517.46
507.39
498.343
489.835
483.005
476.572
470.771
465.206
458.841
452.719
445.609
438.379
431.375
1126.36
1184.8
1227.38
1229.83
1198.57
1122.86
1016.49
911.613
829.28
755.981
696.023
648.353
610.896
582.817
561.422
545.004
531.986
521.049
511.074
501.737
493.502
486.954
480.645
475.333
470.143
464.399
457.854
450.97
443.39
437.335
1147.87
1219.95
1261.22
1263.68
1230.77
1156.43
1046.59
939.279
851.42
774.522
708.649
655.877
614.232
584.125
561.976
545.686
534.372
524.061
514.12
504.629
496.643
490.39
484.077
478.746
473.323
467.965
462.284
455.908
449.016
443.51
1167.34
1251.22
1292.91
1296.32
1263.63
1192.01
1080.22
971.1
878.77
798.949
727.065
668.184
620.98
586.963
562.443
545.986
535.849
526.808
517.239
507.847
500.347
493.471
486.999
481.711
476.4
471.444
466.43
460.156
453.698
447.513
1181.95
1280.76
1322.73
1326.87
1295.77
1228.57
1116.84
1006.83
911.249
828.708
751.394
685.881
632.545
593.096
564.458
546.394
536.594
528.309
520.003
511.192
503.085
495.573
489.412
483.864
478.946
474.479
470.338
464.029
457.273
451.25
1194.87
1307.86
1351.95
1354.65
1326.22
1264.74
1156.35
1046.48
948.695
862.889
781.1
709.111
649.78
603.864
569.454
548.256
537.443
529.37
522.492
514.365
505.214
496.813
491.253
485.907
482.035
477.67
472.933
467.956
461.807
455.362
1206.25
1330.78
1378.45
1383.39
1358.31
1299.42
1196.26
1091.36
989.501
900.873
815.798
737.931
672.313
619.25
578.732
552.968
539.093
530.831
524.565
516.183
506.457
499.016
493.596
488.683
484.552
479.876
475.858
471.065
465.34
459.568
1216.64
1349.51
1401.9
1410.43
1391.16
1333.45
1237.1
1137.46
1036.03
942.14
855.231
772.717
700.632
639.794
592.989
561.306
542.797
532.372
525.075
516.828
508.024
501.221
496.086
491.021
486.379
482.7
478.856
473.974
468.331
463.37
1228.13
1368.34
1423.76
1435.77
1422.52
1367.36
1279.24
1185.25
1086.11
988.426
899.476
814.288
735.367
666.806
613.112
573.535
547.828
532.946
524.589
517.424
510.287
503.042
498.104
492.649
488.335
484.762
481.093
476.332
471.273
466.633
1227.82
1381.74
1441.92
1458.41
1452.08
1401.06
1321.04
1232.93
1139.05
1040.8
948.23
861.536
776.796
700.422
638.425
589.228
555.527
534.624
524.287
518.333
512.564
504.764
499.685
494.332
490.125
486.473
482.9
478.389
473.608
469.322
1235.06
1396.41
1459.25
1479.61
1479.73
1433.89
1362.52
1280.51
1192.01
1097.48
1002.05
912.682
823.275
739.771
668.794
609.773
568.553
540.134
525.933
519.709
514.842
507.041
501.5
496.533
491.442
487.818
484.225
479.986
475.781
471.608
1225.45
1409.03
1474.55
1498.96
1504.64
1466.32
1403.77
1328.2
1244.41
1155.32
1059.32
966.051
874.004
784.672
704.384
637.821
587.683
551.169
530.846
521.946
516.949
510.007
503.731
498.44
493.098
488.935
485.307
481.255
477.43
473.824
1231.89
1436.57
1492.74
1518.95
1527.57
1497.63
1443.66
1374.57
1295.24
1209.43
1116.36
1016.38
923.24
833.676
748.022
673.271
613.406
568.846
539.456
526.184
519.396
513.382
506.316
500.689
495.493
490.812
487.15
483.126
479.288
476.102
382.71
387.898
392.167
395.425
397.492
397.912
399.866
401.627
403.401
405.147
407.275
410.104
414.211
421.126
429.914
441.652
457.417
475.908
496.754
513.605
527.605
536.922
551.888
565.238
569.864
575.714
606.86
669.449
756.663
845.971
385.502
391.783
397.054
400.945
403.567
404.797
405.927
408.47
411.317
413.656
415.681
417.365
419.342
422.715
428.122
435.655
445.733
455.8
468.023
483.193
500.903
519.173
546.674
571.829
584.457
594.371
618.767
672.244
752.191
840.755
387.39
394.365
400.124
404.492
407.63
409.178
410.508
412.251
414.507
417.553
419.905
421.893
424.06
426.888
430.718
436.546
445.394
455.755
468.305
484.169
503.225
526.258
556.321
590.806
613.255
624.249
644.684
689.061
755.265
847.215
391.462
397.822
404.365
409.654
413.815
416.201
418.208
420.008
422.349
424.652
427.071
429.945
432.021
433.722
435.819
440.133
447.93
459.645
474.585
494.64
518.86
547.677
584.638
628.098
657.566
670.802
685.957
724.627
781.404
877.414
394.024
401.068
407.984
413.872
418.529
421.38
424.245
426.606
429.267
431.778
434.022
436.595
439.624
442.43
445.457
450.124
458.464
473.262
493.383
520.189
552.955
590.7
635.269
685.668
717.156
733.379
738.65
767.083
810.695
896.56
398.122
405.281
412.477
418.906
424.052
427.946
431.388
434.411
437.893
441.045
444.016
446.833
450.025
453.797
458.216
464.641
475.479
494.26
521.706
557.398
600.007
647.696
701.186
758.852
797.094
807.976
803.164
819.735
847.481
918.831
401.363
409.294
416.25
422.878
428.202
432.774
436.662
440.414
444.838
448.934
452.98
457.144
461.161
466.082
473.128
483.03
498.804
523.035
558.378
602.09
653.002
708.344
768.849
832.325
875.516
887.592
874.615
878.091
887.584
943.058
405.467
413.608
420.888
427.88
433.58
438.776
443.383
447.968
453.306
458.513
463.68
469.04
474.145
479.989
489.179
502.371
521.747
552.508
593.118
641.302
696.017
755.179
822.024
892.849
946.401
963.055
948.025
940.53
935.314
968.247
410.018
417.487
425.008
432.102
437.982
443.288
447.962
453.293
459.494
465.85
472.294
479.022
485.748
493.619
504.694
521.065
543.622
577.287
619.571
666.656
718.774
778.829
849.553
930.862
998.64
1026.92
1017.27
1000.36
982.08
1000.43
414.595
421.849
429.826
437.282
443.533
448.802
453.493
459.063
465.555
472.56
480.208
488.534
496.31
506.172
518.675
536.657
560.934
594.548
633.001
677.511
728.705
790.047
862.787
952.056
1031.94
1079.61
1077.95
1060.7
1029.69
1034.65
419.28
426.185
433.826
441.424
448.004
453.426
457.978
463.658
470.432
478.06
486.306
495.711
505.052
515.773
529.38
548.602
572.445
602.987
638.876
682.215
733.521
796.555
871.338
967.316
1056.7
1120.29
1130.27
1115.68
1074.69
1064.75
425.195
432.205
439.398
446.914
453.425
459.254
463.861
468.774
475.087
482.822
491.3
500.833
511.157
522.631
536.788
555.304
577.481
606.324
641.473
684.7
737.332
803.474
880.887
982.427
1077.21
1150.83
1174.69
1165.62
1119.79
1092.72
431.437
437.717
444.458
451.666
458.241
463.056
467.956
473.319
479.419
486.754
495.205
504.178
514.761
526.221
540.133
557.864
579.484
607.763
643.12
687.53
743.603
814.025
894.558
1000.72
1100.73
1179.1
1211.71
1207.92
1163.14
1120.42
436.173
442.828
450.089
457.292
462.546
467.493
472.628
477.6
483.4
490.099
498.386
507.512
517.842
529.132
540.973
558.413
580.178
608.693
645.714
693.395
754.348
829.266
914.879
1024.71
1129.04
1208.06
1244.75
1243.84
1202.58
1141.01
441.551
447.623
454.835
460.97
465.961
471.214
476.181
481.037
486.808
492.952
500.835
510.54
520.724
531.109
541.965
558.034
580.464
610.714
651.804
704.492
771.116
849.267
940.384
1053.07
1161.44
1238.89
1277.47
1276.67
1236.65
1162.65
446.08
451.977
458.742
464.687
469.389
474.442
479.424
484.22
490.093
495.733
503.523
513.42
523.442
532.763
542.554
558.387
582.056
616.092
662.751
721.622
794.296
875.357
970.217
1084.72
1196.4
1270.97
1309.04
1307.56
1266.82
1181.67
449.964
455.758
461.966
467.679
472.474
477.322
482.002
486.949
492.571
498.877
505.641
515.987
525.237
533.6
543.286
560.297
587.571
626.388
679.167
744.69
822.874
907.132
1005.06
1119.44
1232.47
1303.36
1338.75
1336.42
1294.53
1196.21
453.867
459.282
465.06
470.519
475.168
479.889
484.158
489.154
494.718
501.433
508.46
517.651
525.893
533.946
544.909
564.882
597.625
642.513
701.424
773.567
856.462
944.2
1044.56
1158.21
1269.09
1334.79
1366.25
1362.5
1320.44
1209.44
457.682
462.845
468.534
473.638
478.054
482.271
486.023
491.415
496.646
503.502
511.586
519.388
526.211
535.155
548.873
573.536
612.441
664.486
729.745
807.947
894.206
984.792
1089.59
1198.87
1304.71
1364.24
1392.52
1388.99
1344.25
1220.76
462.23
466.368
471.794
476.804
480.44
484.28
488.175
493.164
498.266
504.829
513.621
521.016
528.043
538.118
556.466
587.185
632.566
692.162
764.421
847.394
935.6
1031.32
1136.1
1239.95
1339.06
1396.2
1418.95
1412.23
1362.07
1231.3
466.065
470.122
474.855
479.158
482.414
486.14
490.148
494.813
499.736
507.256
514.445
521.132
529.744
543.718
568.704
606.732
659.04
726.327
805.681
891.766
982.228
1081.43
1184
1281.88
1373.18
1427.8
1444.05
1433.51
1380.25
1242.88
468.843
472.926
477.29
481.209
484.374
487.808
491.955
496.678
501.775
509.379
515.682
521.162
531.392
551.09
583.579
631.53
692.382
767.367
852.706
940.887
1034.52
1134.87
1232.27
1323.58
1407.06
1457.86
1466.53
1451.11
1393.18
1242.27
471.017
475.163
479.242
483.011
486.003
489.417
494.003
498.719
504.206
511.732
517.074
522.68
535.896
562.944
603.17
660.757
730.839
814.114
903.915
994.436
1090.82
1188.64
1280.29
1365.28
1439.59
1486.34
1487.83
1468.4
1407.53
1248.89
472.95
477.02
480.853
484.351
487.395
491.192
496.192
501.02
507.257
513.966
519.377
527.434
546.365
581.271
630.067
695.667
775.282
864.682
957.139
1051.14
1148.32
1241.29
1328.12
1406.65
1472.17
1511.19
1506.92
1483.81
1420.02
1239.08
474.837
478.882
482.54
486.039
489.097
493.25
498.522
503.961
510.903
516.672
523.446
535.96
563.595
606.753
665.611
738.577
824.291
915.067
1008.5
1107.65
1202.81
1291.94
1374.25
1446.47
1503.58
1534.06
1526.8
1501.75
1447.29
1244.4
938.08
902.964
873.726
852.497
831.355
819.15
811.751
810.869
813.384
822.218
838.073
860.208
888.098
920.994
957.227
995.186
1033.31
1070.9
1107.28
1141.57
1174.23
1204.3
1232.1
1257.92
1281.31
1302.7
1322.21
1339.89
1355.96
1370.58
1383.76
1395.57
1406.06
1415.15
1422.93
1429.39
1434.41
1437.79
1439.35
1438.95
1437.31
1433.53
1427.67
1419.68
1409.41
1396.63
1381.12
1362.81
1341.67
1317.81
1291.72
1263.49
1233.32
1201.39
1168.01
1133.59
1098.67
1063.75
1029.1
995.124
961.959
929.856
898.702
868.275
838.504
809.325
780.815
753.28
727.01
702.372
679.656
658.93
640.118
623.082
607.82
594.246
582.309
571.789
562.697
554.728
547.804
541.651
536.058
530.985
526.289
521.793
517.621
513.493
509.704
506.109
502.809
499.919
497.248
494.987
493.033
491.267
489.583
488.242
486.863
486.072
485.221
484.259
483.459
483.131
482.88
482.316
481.737
481.681
482.023
482.897
484.662
485.445
485.742
486.246
487.767
488.168
488.194
489.952
489.777
488.757
486.692
484.538
482.869
480.227
476.973
1090.94
1055.93
1020.91
992.422
968.342
952.034
943.769
942.838
948.151
961.314
982.085
1009.65
1042.88
1080.49
1120.79
1162.12
1203.01
1242.48
1279.82
1314.57
1346.57
1375.43
1401.49
1425.28
1446.81
1466.26
1483.87
1499.8
1514.24
1527.35
1539.21
1549.89
1559.36
1567.63
1574.64
1580.37
1584.76
1587.69
1589.09
1588.85
1587.19
1583.83
1578.73
1571.84
1563.11
1552.47
1539.88
1525.34
1508.89
1490.66
1470.7
1449.24
1426.43
1402.41
1377.36
1351.76
1325.64
1298.96
1272.03
1245.03
1218.01
1190.92
1163.58
1135.8
1107.42
1078.53
1048.75
1017.79
985.473
951.896
917.281
881.916
846.046
810.003
774.34
739.83
707.42
677.968
652.037
629.512
610.241
593.869
579.957
568.097
557.856
548.852
540.978
533.881
527.638
521.874
516.796
512.143
508.014
504.367
501.189
498.366
495.778
493.725
491.589
490.131
489.122
488.06
486.813
486.286
485.617
485.256
485.04
485.029
485.445
486.498
487.985
488.278
488.182
488.725
490.551
493.56
493.847
493.995
493.321
492.391
490.618
488.403
486.366
483.726
480.912
1216.95
1186.73
1154.39
1126.48
1104.45
1089.25
1082.34
1082.4
1089.66
1104.71
1127.19
1156.04
1189.94
1227.41
1266.79
1306.49
1345.19
1381.93
1416.14
1447.54
1476.1
1501.91
1525.03
1545.77
1564.44
1581.4
1596.83
1610.85
1623.67
1635.4
1646.07
1655.66
1664.14
1671.6
1678
1683.28
1687.36
1690.22
1691.73
1691.89
1690.68
1688.1
1684.09
1678.59
1671.57
1663.04
1653
1641.51
1628.61
1614.44
1599.08
1582.66
1565.33
1547.2
1528.36
1508.77
1488.65
1468.19
1447.43
1426.43
1405.37
1384.05
1362.24
1339.71
1316.31
1291.57
1265.37
1237.61
1208.35
1177.72
1145.88
1112.78
1078.41
1042.69
1005.61
967.234
927.857
887.988
848.438
810.134
773.658
739.441
707.752
678.756
652.617
629.409
608.998
591.133
575.675
562.162
550.526
540.55
532.038
524.732
518.409
513.029
508.538
504.902
501.961
499.699
497.85
496.041
494.449
493.854
492.876
492.197
491.903
491.751
492.555
493.653
494.55
494.879
494.742
495.329
497.48
500.313
500.485
500.288
498.929
497.713
495.853
493.039
489.682
486.997
484.474
1333.21
1306.68
1278.08
1253.18
1235.05
1223.7
1219.7
1222.43
1232.49
1249.84
1273.71
1303.05
1336.46
1372.46
1409.52
1446.23
1481.46
1514.43
1544.73
1572.21
1596.94
1619.09
1638.9
1656.63
1672.65
1687.2
1700.52
1712.76
1724.05
1734.48
1744.05
1752.8
1760.68
1767.65
1773.6
1778.58
1782.6
1785.6
1787.5
1788.28
1787.99
1786.58
1783.97
1780.14
1775.1
1768.87
1761.49
1752.99
1743.4
1732.84
1721.42
1709.2
1696.27
1682.68
1668.53
1653.85
1638.71
1623.16
1607.22
1590.84
1573.71
1555.94
1537.51
1518.3
1498.32
1477.54
1455.41
1431.77
1406.45
1379.48
1350.68
1320.15
1287.99
1254.19
1218.86
1182.09
1144.06
1105.01
1065.32
1025.38
985.479
945.821
906.501
867.615
829.456
792.118
756.814
723.339
692.369
663.997
638.453
615.91
596.27
579.297
564.544
551.946
541.531
532.939
525.907
520.345
515.7
511.895
509.009
507.018
505.229
503.695
502.465
502.139
502.439
503.64
503.934
504.004
504.054
504.411
505.835
508.158
508.371
507.435
505
503.702
501.563
498.249
493.825
490.744
488.337
1445.05
1421.63
1397.03
1376.34
1362.92
1356.94
1356.59
1362.66
1375.52
1394.81
1419.69
1448.83
1480.9
1514.48
1548.28
1581.12
1612.14
1640.79
1666.82
1690.21
1711.13
1729.83
1746.61
1761.66
1775.37
1787.96
1799.61
1810.45
1820.57
1830.01
1838.75
1846.84
1854.21
1860.88
1866.82
1871.96
1876.23
1879.63
1882.19
1883.87
1884.6
1884.42
1883.26
1881.14
1878.04
1873.97
1868.95
1863.02
1856.23
1848.66
1840.4
1831.49
1822
1811.96
1801.43
1790.17
1778.38
1765.99
1752.97
1739.25
1724.76
1709.53
1693.52
1676.62
1658.56
1639.09
1618.39
1596.36
1573.11
1548.56
1522.48
1494.8
1465.53
1434.66
1402.04
1367.8
1332
1295.02
1257.01
1218.08
1178.44
1138.12
1097.28
1056.19
1015.23
974.758
935.08
896.352
858.585
822.47
788.231
755.582
724.587
695.427
668.31
643.546
621.488
602.117
585.48
571.471
559.926
550.434
542.674
536.893
531.774
527.26
523.391
520.066
518.199
517.698
516.678
515.814
515.634
515.705
516.741
517.992
517.611
515.051
511.913
509.743
506.791
502.853
498.86
495.228
491.757
1550.24
1531.08
1510.58
1495.23
1487.38
1485.86
1490
1499.71
1515
1535.61
1560.55
1588.57
1618.61
1649.21
1679.21
1707.84
1734.5
1758.84
1780.78
1800.43
1818
1833.77
1848.06
1861.08
1873.08
1884.27
1894.79
1904.72
1914.1
1922.94
1931.26
1939.04
1946.24
1952.92
1959.02
1964.55
1969.47
1973.73
1977.26
1979.97
1981.84
1982.87
1983.12
1982.55
1981.14
1978.89
1975.8
1971.97
1967.45
1962.29
1956.53
1950.18
1943.23
1935.66
1927.43
1918.48
1908.75
1898.24
1886.94
1874.8
1861.76
1847.66
1832.6
1816.46
1799.05
1780.33
1760.43
1739.28
1716.69
1692.73
1667.39
1640.76
1612.99
1583.75
1553.04
1521
1487.72
1453.19
1417.48
1380.62
1342.76
1304.06
1264.71
1224.85
1184.67
1144.47
1104.58
1065.05
1026.02
987.734
950.285
913.742
878.12
843.449
810.191
778.791
749.355
721.947
696.617
673.319
652.1
633.059
616.379
602.375
589.942
578.659
568.667
558.851
551.15
545.471
539.752
536.004
531.647
528.385
528.623
528.889
525.872
522.119
518.122
514.039
511.345
508.419
504.281
500.038
496.192
1647.13
1632.91
1618.04
1609.02
1606.18
1608.89
1617.34
1630.35
1647.81
1668.99
1693.14
1719.42
1746.62
1773.96
1800.15
1824.73
1847.35
1867.86
1886.31
1902.88
1917.85
1931.48
1944.05
1955.78
1966.73
1977.15
1987.1
1996.62
2005.73
2014.42
2022.7
2030.57
2038.04
2045.13
2051.77
2057.96
2063.68
2068.8
2073.31
2077.14
2080.27
2082.63
2084.24
2085
2085.07
2084.39
2083.03
2081.1
2078.63
2075.58
2071.88
2067.46
2062.24
2056.16
2049.18
2041.27
2032.55
2022.92
2012.3
2000.58
1987.76
1973.84
1958.83
1942.69
1925.35
1906.66
1886.53
1865.09
1842.28
1818.14
1792.77
1766.24
1738.42
1709.59
1679.68
1648.84
1616.85
1583.82
1549.79
1514.8
1478.99
1442.57
1405.64
1368.3
1330.77
1293.16
1255.35
1217.41
1179.4
1141.49
1103.78
1066.5
1029.96
994.224
959.296
925.526
892.838
861.53
831.132
802.416
775.138
749.56
725.729
703.786
683.579
664.737
647.424
630.877
615.271
601.726
587.715
574.769
563.722
554.281
549.991
544.173
536.573
530.864
525.913
521.056
517.076
513.288
509.29
505.154
501.571
1736.17
1726.72
1718.72
1715.72
1717.63
1724.98
1737.13
1752.81
1771.58
1792.71
1815.78
1839.72
1863.88
1888.05
1910.77
1931.86
1951.16
1968.65
1984.47
1998.86
2012.09
2024.41
2036.03
2047.14
2057.76
2067.96
2077.82
2087.37
2096.58
2105.46
2114.05
2122.38
2130.42
2138.15
2145.53
2152.51
2159.05
2164.92
2170.44
2175.29
2179.56
2183.18
2186.09
2188.28
2189.79
2190.62
2190.91
2190.72
2189.95
2188.56
2186.41
2183.38
2179.39
2174.36
2168.2
2160.89
2152.44
2142.83
2131.94
2119.79
2106.41
2091.92
2076.39
2059.64
2041.56
2022.03
2001.04