/*--------------------------------*- C++ -*----------------------------------*\
| =========                 |                                                 |
| \\      /  F ield         | OpenFOAM: The Open Source CFD Toolbox           |
|  \\    /   O peration     | Version:  2112                                  |
|   \\  /    A nd           | Website:  www.openfoam.com                      |
|    \\/     M anipulation  |                                                 |
\*---------------------------------------------------------------------------*/
FoamFile
{
    version     2.0;
    format      ascii;
    arch        "LSB;label=32;scalar=64";
    class       surfaceScalarField;
    location    "0.00454";
    object      phi;
}
// * * * * * * * * * * * * * * * * * * * * * * * * * * * * * * * * * * * * * //

dimensions      [1 0 -1 0 0 0 0];

oriented        oriented;

internalField   nonuniform List<scalar> 
27436
(
-0.533359
8.19275
-0.0931227
7.47161
-0.0834798
7.78632
-0.0691324
7.78649
-0.0692884
7.79283
-0.0541613
7.78174
-0.0405559
7.7833
-0.0282371
7.78394
-0.0213632
7.79018
-0.0153141
7.79119
-0.00760874
7.78972
0.00142793
7.78793
0.0143979
7.78382
0.0312488
7.78087
0.0472558
7.78169
0.054596
7.78911
0.0542712
7.79492
0.0645081
7.78744
0.074511
7.78565
0.0945537
7.7777
0.0963151
7.79116
0.111554
7.78586
0.123988
7.78246
0.574536
7.46234
8.21942
-0.247274
8.44003
-0.0963942
7.32075
-0.0821417
7.77207
-0.056852
7.76118
-0.0555341
7.79156
-0.0485366
7.77518
-0.0392588
7.77442
-0.0387866
7.78222
-0.0223253
7.76826
-0.00985009
7.77695
0.000375741
7.77934
0.0147322
7.77368
0.0149027
7.78368
0.0211941
7.77458
0.0207552
7.78214
0.0380913
7.77176
0.0498618
7.78314
0.0724718
7.7648
0.0678226
7.79028
0.0748714
7.77066
0.0719032
7.79417
0.10299
7.75475
0.114568
7.77095
0.267878
7.30977
8.4817
-0.227291
8.66732
-0.141364
7.2348
-0.121021
7.75167
-0.108055
7.74807
-0.0982822
7.7815
-0.0929107
7.76998
-0.0888448
7.7704
-0.080342
7.77213
-0.0724722
7.75496
-0.0598005
7.76
-0.0355264
7.75436
-0.0142782
7.75279
-0.0127031
7.78212
-0.0110834
7.77295
-0.00677723
7.77784
0.0151659
7.74981
0.0282723
7.77001
0.0516769
7.74141
0.0549845
7.78697
0.0537418
7.7719
0.0616404
7.78628
0.0782077
7.73815
0.100723
7.74885
0.192561
7.21603
8.66876
-0.169646
8.83694
-0.139615
7.20473
-0.134314
7.74631
-0.112105
7.72569
-0.104482
7.77357
-0.0983179
7.76404
-0.0919417
7.76406
-0.0819663
7.76066
-0.0677683
7.74037
-0.0528955
7.74354
-0.0277947
7.72821
-0.00466008
7.72949
0.00287414
7.7746
0.00547884
7.77033
0.0148963
7.76842
0.0384346
7.72633
0.0528947
7.75556
0.0756886
7.71865
0.0880035
7.77459
0.0867402
7.77315
0.0913129
7.78172
0.117849
7.7117
0.111117
7.75584
0.162212
7.16361
8.83344
-0.0736704
8.9106
-0.0365471
7.1676
-0.0916018
7.8013
-0.0582847
7.6922
-0.0588171
7.77376
-0.0577413
7.7631
-0.0555324
7.76202
-0.047455
7.75152
-0.0368594
7.72911
-0.0240456
7.72963
-0.000358111
7.70333
0.0208765
7.70826
0.0269635
7.76857
0.0282902
7.769
0.0359962
7.76071
0.0577852
7.70462
0.067732
7.74563
0.0875225
7.69894
0.0996181
7.76254
0.0928218
7.77994
0.0928682
7.78168
0.123196
7.68147
0.0893084
7.78998
0.0966346
7.15652
8.93617
0.118332
8.79227
0.0438183
7.24212
-0.0486835
7.89373
-0.00670302
7.65008
-0.0205288
7.78725
-0.0273413
7.76978
-0.0295102
7.76413
-0.0253158
7.74717
-0.0200647
7.72294
-0.0122721
7.72062
0.00653894
7.6837
0.0238081
7.69071
0.027498
7.76495
0.0246238
7.77187
0.0288577
7.75649
0.0450399
7.68851
0.0493991
7.74129
0.0631022
7.68529
0.073392
7.75219
0.0627142
7.79061
0.0477498
7.79663
0.085993
7.64325
-0.0147891
7.89094
-0.0214203
7.16324
8.91869
0.304527
8.48775
0.136279
7.41036
-0.00427402
8.03477
0.0287965
7.61634
-0.00956813
7.82521
-0.0406929
7.80064
-0.0654971
7.78888
-0.0818278
7.76412
-0.095332
7.73622
-0.110097
7.73455
-0.11153
7.6843
-0.115011
7.69349
-0.126368
7.77633
-0.147299
7.7928
-0.159693
7.76891
-0.162741
7.69165
-0.182802
7.76139
-0.190808
7.69339
-0.200056
7.76148
-0.23464
7.82519
-0.267717
7.82969
-0.288332
7.66393
-0.35509
7.95767
-0.658858
7.4668
8.26174
0.873402
7.61435
0.522045
7.76169
0.414784
8.14206
0.339448
7.6915
0.279474
7.88474
0.228461
7.85116
0.187634
7.82936
0.157407
7.79507
0.12966
7.76557
0.100956
7.76277
0.0822152
7.70213
0.0663339
7.70852
0.0412648
7.80135
0.00639923
7.82769
-0.0188949
7.79427
-0.0415579
7.71442
-0.0723946
7.79228
-0.0970925
7.71818
-0.121288
7.78562
-0.170905
7.87479
-0.233075
7.89185
-0.283383
7.71431
-0.407597
8.08177
-0.694567
7.75371
7.56588
0.593661
7.02069
0.410088
7.94531
0.240871
8.31115
0.196196
7.73605
0.143307
7.93722
0.104013
7.89015
0.0804765
7.85252
0.0705785
7.80554
0.0665243
7.77434
0.0635836
7.76561
0.0681955
7.69659
0.0757457
7.70007
0.0814052
7.79553
0.0770536
7.83206
0.0781765
7.79323
0.0742567
7.71846
0.0709777
7.79566
0.0696279
7.71969
0.0625984
7.79277
0.0253407
7.91209
-0.0312169
7.94839
-0.0498003
7.73287
-0.220396
8.25209
-0.372834
7.90589
7.18915
-3.03914
10.0599
-3.37247
8.27874
-2.75223
7.69059
-2.6092
7.59262
-2.29264
7.62071
-1.98561
7.58399
-1.70397
7.57035
-1.40355
7.50407
-1.10318
7.48137
-0.790338
7.45167
-0.504001
7.40967
-0.210209
7.40564
0.101341
7.48376
0.408946
7.52452
0.703554
7.49877
0.972615
7.44955
1.28393
7.48451
1.56099
7.44282
1.89729
7.45662
2.20463
7.60482
2.5058
7.64721
2.63481
7.6039
3.21446
7.67209
2.93901
8.18073
10.1266
-4.23082
14.2909
-4.33547
8.38381
-4.10524
7.45868
-3.77374
7.26026
-3.34099
7.18957
-2.89769
7.14203
-2.42834
7.09976
-1.9632
7.03625
-1.49462
7.01603
-1.02199
6.97692
-0.578693
6.96646
-0.124421
6.95109
0.348069
7.01105
0.828442
7.04428
1.283
7.04441
1.70413
7.02866
2.16298
7.02589
2.60582
7.00026
3.06112
7.00161
3.58797
7.07826
4.06746
7.16792
4.39011
7.28126
4.57395
7.48828
4.52178
8.23222
14.6499
-2.69659
16.9885
-4.88441
10.5708
-4.90197
7.47119
-4.19072
6.54849
-3.79198
6.79669
-3.32381
6.67687
-2.80507
6.57834
-2.28878
6.51467
-1.76421
6.48792
-1.25451
6.46497
-0.753818
6.46674
-0.256146
6.45382
0.265573
6.48935
0.791834
6.51833
1.30951
6.52712
1.78687
6.55175
2.27514
6.53805
2.76727
6.50859
3.26073
6.50863
3.7695
6.57001
4.26314
6.67504
5.04492
6.49998
4.81873
7.71474
2.73142
10.3197
17.3823
2.36224
14.6268
0.479212
12.4529
-4.83757
12.7827
-3.84075
5.55128
-3.99729
6.96235
-3.50654
6.19241
-2.97966
6.04868
-2.48205
6.01106
-1.94402
5.9458
-1.40793
5.92826
-0.864235
5.92532
-0.333975
5.92503
0.221638
5.93446
0.78512
5.9556
1.33898
5.97408
1.88428
6.00734
2.39738
6.02591
2.86316
6.04394
3.34938
6.02348
3.87145
6.0489
3.78737
6.75942
4.89674
5.3913
-0.329601
12.9422
-2.37368
12.3641
15.0089
2.47027
12.1566
3.32871
11.5943
3.64229
12.4669
-0.685058
9.8822
-4.27139
10.5635
-3.62047
5.55551
-3.21404
5.64262
-2.7481
5.54671
-2.19956
5.40013
-1.64466
5.37731
-1.08608
5.37195
-0.544334
5.38711
0.0171
5.37608
0.592593
5.38284
1.16581
5.40357
1.73963
5.43632
2.28425
5.48395
2.71897
5.61166
3.00566
5.73711
3.58038
5.47922
-0.294352
10.639
-4.58045
9.68038
-3.93447
12.2986
-2.93771
11.3681
12.0717
1.73026
10.4271
3.52952
9.79686
5.01025
10.9856
5.44205
9.45256
4.80743
11.2092
0.683454
9.68641
-1.59641
7.92427
-1.80981
5.76989
-1.49385
5.08977
-1.07134
4.95924
-0.589403
4.89394
-0.0903627
4.89065
0.420272
4.86767
0.939928
4.86498
1.46192
4.88349
1.93796
4.96278
2.30934
5.11505
2.14608
5.77906
-0.278092
8.16256
-4.26293
9.46619
-4.65533
11.0379
-4.15235
9.18059
-2.65167
10.8004
-1.23586
9.95422
10.8376
0.773344
9.65577
1.73275
8.84037
3.06203
9.66137
3.57951
8.94272
3.06592
11.7415
1.77848
10.9845
0.412575
9.31164
-0.0813671
6.29801
-0.0745713
5.1174
0.00153521
4.92038
0.0639802
4.86912
0.111155
4.88211
0.174018
4.84385
0.243196
4.83448
0.315502
4.8489
0.371726
4.94333
0.379497
5.14177
0.0277329
6.16122
-1.27695
9.48644
-2.39982
10.5975
-2.74279
11.3975
-2.33991
8.78579
-1.34723
9.81342
-0.385406
8.99675
10.4545
1.73623
7.92422
2.31721
8.26605
2.77071
9.2205
2.34572
9.37612
2.84658
11.2567
3.11762
10.7286
2.16866
10.2704
1.10222
7.38322
0.717504
5.5193
0.477388
5.18067
0.299104
5.06725
0.099174
5.10216
-0.105522
5.06819
-0.304398
5.05319
-0.536061
5.10176
-0.849745
5.2812
-1.46033
5.77212
-2.8021
7.51922
-3.5208
10.2199
-3.01878
10.1056
-2.73048
11.1263
-3.22612
9.29383
-2.8562
9.45618
-2.34576
8.49282
8.11453
2.10597
5.82686
2.67765
7.70737
2.05999
9.85713
1.34753
10.1044
1.64732
10.9757
1.90051
10.4836
2.64312
9.5198
2.45368
7.56718
1.7422
6.22175
1.15229
5.75293
0.573121
5.62854
0.00981326
5.64715
-0.575663
5.63456
-1.20799
5.66659
-1.86257
5.73772
-2.54998
5.94491
-3.23587
6.44281
-3.45379
7.72898
-2.71249
9.47505
-2.92063
10.3192
-2.56206
10.7866
-3.40207
10.1501
-3.76009
9.84072
-2.6794
7.42772
5.4431
3.25479
2.57903
5.60309
5.36898
6.47373
9.00076
6.35943
10.229
6.26695
11.0742
5.78258
10.9663
5.06718
10.2129
3.91027
8.69503
2.77525
7.32561
1.93362
6.55971
1.18896
6.33437
0.512867
6.28241
-0.161966
6.26777
-0.813922
6.27701
-1.48287
6.36521
-2.19551
6.62159
-3.14981
7.36113
-4.11088
8.65601
-4.75735
10.0963
-5.25947
10.8126
-5.37814
10.9089
-5.51291
10.2933
-5.01166
9.3538
-2.9075
5.33365
2.54364
1.42676
1.15602
3.58249
3.22453
4.83302
7.76578
5.45246
9.61575
5.96187
10.5634
5.95452
10.9656
5.23796
10.9091
4.07593
9.83394
2.89316
8.49122
1.88639
7.55654
1.03645
7.17698
0.234736
7.07753
-0.546646
7.04283
-1.33735
7.0614
-2.16678
7.18752
-3.15314
7.59931
-4.34319
8.53526
-5.55325
9.84274
-6.33803
10.8591
-6.40808
10.8685
-6.03289
10.5277
-5.45115
9.71578
-3.70356
7.62493
-1.42302
3.06854
1.12498
0.0119376
1.14695
0.00232914
3.24309
1.32978
6.44913
2.57863
8.36968
3.37504
9.7617
3.691
10.6393
3.56078
11.0236
2.97695
10.4033
2.20714
9.25227
1.46252
8.29957
0.768976
7.87309
0.103506
7.74604
-0.570667
7.72024
-1.24403
7.73873
-1.95999
7.90699
-2.74546
8.38466
-3.55958
9.34222
-4.1692
10.4384
-4.29615
10.9697
-3.92135
10.4792
-3.04576
9.64426
-1.63124
8.3016
-0.185102
6.19091
-0.084471
2.97662
1.04416
-0.753253
1.90291
-0.978156
3.47442
-0.10388
5.57785
0.757644
7.50881
1.57092
8.94135
2.03167
10.17
2.16675
10.8786
1.99271
10.5706
1.59257
9.64789
1.11608
8.77714
0.651188
8.3433
0.172008
8.23039
-0.300697
8.19821
-0.784039
8.22819
-1.25311
8.38251
-1.72331
8.85752
-2.10495
9.72117
-2.23826
10.5661
-2.05964
10.7822
-1.57142
9.98115
-0.715962
8.78027
0.169487
7.41526
0.999805
5.36215
0.709166
3.27554
1.75697
-0.695751
2.6061
-1.37255
4.15574
-1.30078
5.50646
-0.636561
6.84318
0.084315
8.21476
0.490554
9.75831
0.82766
10.5368
0.984
10.4116
0.937091
9.69276
0.751966
8.96332
0.495424
8.60482
0.238252
8.49297
-0.0360033
8.47817
-0.290624
8.48896
-0.536629
8.63455
-0.695898
9.01977
-0.693615
9.7187
-0.495546
10.3677
-0.148605
10.4312
0.294525
9.5349
0.967611
8.09902
1.6105
6.76953
1.58549
5.38402
0.710339
4.15396
2.46965
-0.647665
3.2636
-1.68748
5.2
-1.93647
5.75452
-1.75875
6.66334
-1.43059
7.88125
-0.876583
9.2033
-0.394403
10.0532
-0.0723007
10.0886
0.0787493
9.54034
0.102543
8.94064
0.0710111
8.64041
-0.0150091
8.58389
-0.108214
8.57715
-0.198589
8.58464
-0.232528
8.67291
-0.209566
8.99893
-0.0634884
9.57254
0.264832
10.0428
0.76245
9.93337
1.29489
9.00287
1.66497
7.72506
1.86439
6.56479
1.60383
5.63986
0.62947
5.12965
3.10564
-0.437178
3.70717
-1.34126
6.1024
-1.82928
6.24203
-1.91342
6.74513
-1.73864
7.70313
-1.31416
8.77968
-0.844131
9.58318
-0.453012
9.69684
-0.19439
9.28105
-0.07033
8.8169
-0.0420317
8.61468
-0.0348339
8.58108
-0.0394073
8.5868
-0.0291281
8.57884
-0.000487783
8.64697
0.131947
8.867
0.405516
9.29929
0.8197
9.63126
1.30072
9.45336
1.70591
8.59858
1.89017
7.53793
1.79917
6.65253
1.27493
6.16014
0.482267
5.9181
3.60211
-0.441401
4.14906
-1.23967
6.89584
-1.78816
6.79128
-2.05199
7.00648
-1.97213
7.6213
-1.61086
8.42077
-1.17365
9.14671
-0.746387
9.26925
-0.426815
8.96047
-0.229597
8.62028
-0.083012
8.46977
0.0221113
8.47916
0.129494
8.48346
0.235233
8.47646
0.392364
8.49092
0.613449
8.64583
0.947663
8.96397
1.37911
9.2023
1.799
9.0354
2.13879
8.2601
2.21986
7.45685
1.94214
6.92452
1.42487
6.67368
0.609516
6.72717
4.21056
-0.646574
4.78636
-1.43304
7.6833
-1.89386
7.2527
-2.27064
7.38147
-2.27073
7.62121
-2.04561
8.19718
-1.64703
8.74814
-1.19458
8.81554
-0.823982
8.58921
-0.557871
8.35422
-0.383744
8.29649
-0.208962
8.30701
-0.0480672
8.32538
0.128608
8.30222
0.312215
8.308
0.57393
8.38318
0.938359
8.5994
1.37827
8.7628
1.77087
8.64279
2.00281
8.02807
2.03351
7.42512
1.71211
7.24277
1.2714
7.11322
0.469946
7.53119
4.67233
-0.515441
5.29959
-1.19538
8.36969
-1.65369
7.70934
-1.97575
7.70186
-2.05046
7.69561
-1.85255
8.00111
-1.49818
8.39346
-1.10354
8.41895
-0.762468
8.24734
-0.50164
8.09363
-0.259083
8.05448
-0.0552822
8.10466
0.153708
8.11809
0.358915
8.09848
0.607645
8.05931
0.889482
8.10098
1.24229
8.24436
1.63961
8.36589
1.97385
8.3116
2.14167
7.85943
2.08351
7.48213
1.74355
7.57893
1.25092
7.60162
0.547015
8.23389
5.21681
-0.476779
5.78374
-1.16595
9.06325
-1.63948
8.18315
-1.82221
7.88558
-1.94536
7.8192
-1.8596
7.9153
-1.55002
8.08221
-1.1572
8.02438
-0.801514
7.89119
-0.496133
7.78762
-0.253032
7.81142
-0.00423384
7.85689
0.230799
7.88381
0.483231
7.84696
0.723011
7.81942
1.02643
7.79694
1.39077
7.88014
1.78929
7.96551
2.10113
7.99872
2.17297
7.78707
2.03914
7.61477
1.87994
7.73726
1.38674
8.09594
0.594268
9.03191
5.81817
-0.710785
6.50163
-1.32545
9.67493
-1.88131
8.73897
-2.05403
8.05588
-2.16975
7.93419
-2.08965
7.83534
-1.80633
7.79792
-1.45758
7.67263
-1.11979
7.55232
-0.836578
7.50377
-0.548966
7.52363
-0.290162
7.59826
-0.0189999
7.61289
0.243785
7.58444
0.544655
7.5185
0.842333
7.49906
1.16865
7.55176
1.50192
7.63155
1.77515
7.72731
1.86855
7.69055
1.76434
7.71704
1.61416
7.88395
1.09846
8.60673
0.319917
9.81358
6.14962
-0.441109
6.94849
-1.1516
10.3826
-1.68841
9.27567
-1.79595
8.1629
-1.7978
7.93754
-1.74449
7.78172
-1.53478
7.58616
-1.22453
7.36125
-0.912911
7.23998
-0.604238
7.194
-0.340627
7.25982
-0.0573709
7.31519
0.211735
7.34376
0.494307
7.30201
0.753832
7.25847
1.05755
7.19502
1.38214
7.22695
1.70412
7.30672
1.90697
7.5235
1.91944
7.67841
1.88896
7.74641
1.80691
7.9687
1.15899
9.25452
0.540273
10.4394
6.69601
-0.167775
7.1205
-0.726827
10.9396
-1.53596
10.084
-1.62137
8.24748
-1.65063
7.96698
-1.56779
7.69841
-1.35209
7.37011
-1.1193
7.12581
-0.85456
6.9737
-0.608046
6.94691
-0.324432
6.97603
-0.0633089
7.05396
0.21116
7.06935
0.466691
7.0465
0.753381
6.97164
1.01319
6.9345
1.27522
6.96431
1.50312
7.07697
1.72377
7.30175
1.80298
7.59653
1.77341
7.77573
1.7797
7.9602
1.06181
9.97696
0.424911
11.0734
7.12257
-0.426511
7.54839
-0.886853
11.3976
-1.75575
10.9511
-1.7746
8.26652
-1.75728
7.9513
-1.6662
7.60762
-1.495
7.19767
-1.24679
6.87653
-1.00681
6.73312
-0.729758
6.66954
-0.488582
6.73505
-0.214577
6.78031
0.047956
6.80706
0.32674
6.76798
0.572144
6.72612
0.840706
6.66565
1.09192
6.71145
1.3355
6.8327
1.49208
7.14607
1.55787
7.53184
1.54523
7.79088
1.42793
8.07777
0.605416
10.8028
0.266676
11.4065
7.3902
-0.079872
7.62507
-0.462693
11.7774
-1.10417
11.5922
-1.50492
8.66793
-1.5308
7.97888
-1.40293
7.47919
-1.21513
7.00952
-1.00714
6.66754
-0.777824
6.50295
-0.577691
6.46971
-0.312583
6.47036
-0.0644573
6.5325
0.203318
6.53982
0.448578
6.52311
0.716294
6.45828
0.932775
6.44877
1.14947
6.49505
1.35414
6.62521
1.54668
6.95272
1.66329
7.41307
1.63399
7.82017
1.31164
8.40395
0.618156
11.5008
0.378867
11.6421
7.76908
0.0222753
7.59456
-0.0866451
11.8877
-0.784362
12.2915
-1.40851
9.29239
-1.33098
7.90228
-1.25893
7.40664
-1.10837
6.85894
-0.932557
6.49047
-0.745213
6.31576
-0.501818
6.22701
-0.303576
6.27277
-0.0639333
6.29366
0.163613
6.3131
0.40554
6.28198
0.602422
6.262
0.828867
6.2224
1.02768
6.29529
1.20443
6.44995
1.34442
6.81253
1.42111
7.33809
1.59818
7.64617
0.856335
9.14544
0.244235
12.1152
0.189484
11.6989
7.95709
-0.318556
7.91139
-0.351483
11.919
-0.741554
12.6829
-1.4384
9.9905
-1.42236
7.88741
-1.33532
7.31927
-1.14989
6.67318
-0.976391
6.31675
-0.793874
6.13348
-0.635466
6.06955
-0.403712
6.04211
-0.193447
6.08438
0.0402629
6.08052
0.253386
6.06982
0.489734
6.02606
0.658558
6.05392
0.830735
6.12352
1.00047
6.27706
1.18473
6.62924
1.24079
7.27888
1.17131
7.71587
0.332868
9.98747
-0.0850014
12.5334
-0.00542052
11.6186
7.95015
-0.163661
8.07762
0.0301187
11.7255
-0.235048
12.9495
-1.03866
10.7937
-1.17408
8.02274
-1.09587
7.24034
-0.980343
6.5572
-0.810632
6.14662
-0.64565
5.96893
-0.433713
5.85862
-0.26056
5.86992
-0.0435488
5.86854
0.159033
5.8792
0.375829
5.85418
0.542853
5.86025
0.744799
5.85261
0.918585
5.94929
1.0797
6.11615
1.18138
6.52715
1.33115
7.13235
1.15121
7.89828
0.341195
10.7967
0.119929
12.7559
0.186842
11.5493
8.12598
0.000868948
8.08102
0.147325
11.5819
0.225892
12.8722
-0.503854
11.5199
-1.10824
8.6276
-0.965812
7.09746
-0.861626
6.45353
-0.727424
6.01236
-0.56385
5.806
-0.429907
5.726
-0.232516
5.67394
-0.0572178
5.69445
0.141064
5.68224
0.311722
5.68479
0.509124
5.66384
0.647439
5.71501
0.793658
5.80275
0.942234
5.96814
1.06778
6.40277
1.25285
6.93908
0.618101
8.53165
-0.0719629
11.4853
-0.0727247
12.7612
0.0214307
11.4485
8.14554
-0.223018
8.3087
-0.203991
11.5664
0.0147399
12.6536
-0.411224
11.9424
-1.01521
9.22925
-0.998059
7.08054
-0.916192
6.37236
-0.795437
5.89191
-0.664148
5.67535
-0.473501
5.53638
-0.327022
5.52826
-0.141948
5.51042
0.0241156
5.51731
0.208223
5.50179
0.349663
5.52336
0.534896
5.53012
0.679863
5.65761
0.772141
5.87145
0.800868
6.3729
0.771431
6.96904
0.000175734
9.30187
-0.45461
11.9365
-0.128499
12.4305
-0.0749527
11.3958
8.07829
-0.0618002
8.3748
0.0228999
11.4853
0.415065
12.2598
0.138444
12.2159
-0.638567
10.0053
-0.904332
7.34646
-0.703878
6.17251
-0.629303
5.8169
-0.489398
5.53567
-0.370771
5.41872
-0.195142
5.35374
-0.0405723
5.35675
0.135241
5.34254
0.286066
5.35203
0.466167
5.34415
0.58572
5.411
0.70844
5.53467
0.812055
5.77025
1.03553
6.1491
0.751317
7.25762
-0.0609348
10.1133
-0.195339
12.0734
0.160435
12.0754
0.142081
11.4175
8.23231
0.0540778
8.32391
0.114315
11.4258
0.40664
11.9662
0.559505
12.0598
-0.0912989
10.6526
-0.615278
7.87059
-0.610781
6.16788
-0.546613
5.75309
-0.463451
5.45307
-0.307906
5.26402
-0.186344
5.23296
-0.0333092
5.20445
0.106042
5.20397
0.262779
5.19612
0.379393
5.22824
0.540276
5.25081
0.632873
5.44214
0.715483
5.68527
0.734665
6.1306
0.235116
7.75597
-0.438342
10.7848
-0.258806
11.8979
0.022963
11.7969
0.0350587
11.4085
8.28656
-0.105476
8.43337
-0.0814311
11.4013
0.140611
11.7418
0.483913
11.7132
-0.00513459
11.1397
-0.572882
8.43847
-0.682611
6.2771
-0.574628
5.6445
-0.477929
5.35635
-0.390522
5.17732
-0.249809
5.09282
-0.121855
5.07709
0.0232052
5.05964
0.152793
5.06728
0.300138
5.08159
0.38228
5.16871
0.458421
5.36637
0.570892
5.5715
0.355161
6.34384
-0.379445
8.48306
-0.765535
11.1667
-0.369641
11.5025
-0.187489
11.616
-0.132179
11.355
8.16897
0.0351685
8.40214
0.0790526
11.357
0.253585
11.5661
0.635181
11.3302
0.621168
11.1501
-0.0772633
9.13484
-0.470523
6.67005
-0.466989
5.64055
-0.378525
5.26848
-0.255346
5.0553
-0.155831
4.9941
-0.0250821
4.94704
0.0977177
4.93753
0.22848
4.93723
0.324463
4.98621
0.457731
5.03707
0.559284
5.26508
0.539334
5.59329
0.139113
6.74587
-0.539611
9.15663
-0.428552
11.052
-0.0976333
11.1785
0.0699791
11.4554
0.116827
11.312
8.29581
0.162902
8.24173
0.283396
11.2355
0.402133
11.4455
0.635706
11.0926
0.887393
10.8943
0.250148
9.76931
-0.200928
7.12099
-0.337752
5.77648
-0.279114
5.21006
-0.225557
5.00228
-0.12951
4.89883
-0.0260112
4.84429
0.09305
4.81926
0.194781
4.8363
0.29686
4.88512
0.35234
4.98221
0.435242
5.18278
0.298781
5.72795
-0.197804
7.24413
-0.822795
9.77862
-0.460848
10.686
-0.228827
10.9475
-0.118375
11.3417
-0.0391477
11.2364
8.26123
-0.0262788
8.26973
0.0577296
11.1507
0.140578
11.3616
0.385436
10.847
0.818209
10.4582
0.635199
9.95074
-0.0381372
7.794
-0.362613
6.09964
-0.337239
5.18524
-0.254273
4.92012
-0.176776
4.82214
-0.0827492
4.75116
0.013626
4.72381
0.107562
4.74334
0.177579
4.81583
0.244954
4.91594
0.251434
5.17751
-0.107096
6.08855
-0.883897
8.02324
-0.955029
9.84722
-0.58299
10.3132
-0.337334
10.7058
-0.278397
11.2865
-0.124028
11.0801
8.12763
0.102197
8.16784
0.292039
10.9591
0.350279
11.3016
0.519408
10.6773
0.808277
10.166
0.951029
9.80479
0.330411
8.41355
-0.0827715
6.51104
-0.191319
5.29363
-0.162641
4.89237
-0.0911838
4.75171
-0.0169342
4.678
0.0680961
4.63994
0.143914
4.66862
0.221584
4.73956
0.254707
4.88482
0.108948
5.32415
-0.390211
6.58773
-0.920668
8.54891
-0.682765
9.6047
-0.404634
10.0335
-0.224153
10.5231
-0.167025
11.2244
-0.017354
10.9228
8.10362
0.152278
8.01535
0.377934
10.732
0.446765
11.2318
0.574529
10.5492
0.806871
9.9322
1.21898
9.39132
0.927758
8.70223
0.166744
7.27013
-0.080361
5.54121
-0.096874
4.90968
-0.0480935
4.70404
0.00534321
4.62588
0.0563627
4.59054
0.120589
4.60596
0.169556
4.69169
0.150799
4.90406
-0.115872
5.59272
-0.849157
7.32746
-1.06294
8.75746
-0.692435
9.23083
-0.439666
9.77827
-0.303122
10.3807
-0.241847
11.1568
-0.0555232
10.7218
8.03697
0.0329159
7.98237
0.232183
10.5317
0.340879
11.1209
0.411062
10.4802
0.606962
9.73394
0.893832
9.102
0.950121
8.64533
0.541049
7.67656
0.0249722
6.05652
-0.115871
5.05129
-0.0852863
4.6748
-0.0438646
4.58595
-0.00812723
4.55646
0.0346291
4.56474
0.0461015
4.68175
-0.107315
5.06006
-0.739477
6.2281
-1.14887
7.73343
-0.992305
8.59691
-0.74153
8.9744
-0.573269
9.60334
-0.518919
10.3228
-0.39555
11.0246
-0.154867
10.4686
7.88073
0.0658916
7.91737
0.307615
10.2887
0.460046
10.9685
0.551046
10.3886
0.687891
9.59494
0.880613
8.90851
1.2327
8.29085
0.92395
7.98393
0.262728
6.71777
0.0311892
5.28385
-0.000638241
4.70796
0.0107018
4.57608
0.0165315
4.55233
0.0295616
4.55341
-0.0291311
4.74153
-0.295899
5.32775
-0.850651
6.78702
-1.14919
8.02872
-0.805287
8.2481
-0.651332
8.81497
-0.527827
9.47705
-0.435559
10.226
-0.281291
10.8617
-0.0491709
10.2276
7.83595
0.0972636
7.82283
0.422773
9.96556
0.629419
10.7617
0.636194
10.3813
0.714436
9.51468
0.902313
8.71921
1.09397
8.09801
1.15144
7.92353
0.818663
7.05027
0.184042
5.91956
0.0524535
4.84092
0.0269592
4.60311
0.0134511
4.56752
-0.00920678
4.57766
-0.17346
4.90762
-0.827273
5.98318
-1.13514
7.09447
-1.01343
7.90403
-0.818923
8.05127
-0.647503
8.64035
-0.586521
9.41576
-0.568206
10.2094
-0.367882
10.6595
-0.0555898
9.91604
7.79157
0.0079051
-0.238626
0.00852358
-0.260203
0.00784567
-0.270751
0.00571324
-0.273845
0.00275461
-0.280922
-0.0010842
-0.284239
-0.00419863
-0.291368
-0.00716408
-0.294386
-0.010887
-0.299421
-0.0141991
-0.30578
-0.0176786
-0.317349
-0.0240004
-0.336
-0.048347
-0.404747
-0.13925
-0.729427
-0.485298
-1.82407
-0.564014
-1.97189
-0.54786
-1.98336
-0.542784
-1.86871
-0.522519
-1.80266
-0.494394
-1.71562
-0.466201
-1.61735
-0.436457
-1.54653
-0.400422
-1.49725
-0.357752
-1.4665
-0.308371
-1.44768
-0.253359
-1.43631
-0.190428
-1.4329
-0.122381
-1.4392
-0.0543804
-1.43423
-1.47184
0.0209166
-0.265268
0.0224236
-0.268811
0.0211488
-0.275531
0.0178606
-0.275795
0.0132138
-0.280673
0.0088958
-0.280993
0.0039699
-0.286776
-0.000479961
-0.288505
-0.00473027
-0.294313
-0.00875842
-0.301627
-0.0145682
-0.319148
-0.0357034
-0.374978
-0.113532
-0.634537
-0.411312
-1.72189
-0.515044
-2.04122
-0.50103
-2.05605
-0.50112
-1.95893
-0.49945
-1.84332
-0.484067
-1.7716
-0.458188
-1.67797
-0.435978
-1.5764
-0.411768
-1.50164
-0.379914
-1.44776
-0.340098
-1.4149
-0.292904
-1.39508
-0.239305
-1.38327
-0.177545
-1.38235
-0.112907
-1.39217
-0.0471337
-1.39044
-1.41954
0.00922254
-0.280714
0.00733972
-0.274037
0.00558522
-0.278776
0.00109269
-0.276024
-0.00317679
-0.279126
-0.00784578
-0.275859
-0.0121919
-0.281852
-0.0164209
-0.2851
-0.0209076
-0.294024
-0.026687
-0.309279
-0.0438675
-0.365259
-0.117778
-0.599808
-0.475898
-1.70333
-0.585251
-2.05948
-0.567739
-2.11945
-0.561017
-2.03035
-0.54591
-1.91955
-0.531956
-1.82126
-0.499329
-1.73629
-0.471401
-1.64483
-0.453316
-1.54162
-0.428444
-1.46048
-0.39417
-1.4022
-0.351506
-1.36716
-0.302161
-1.34746
-0.247073
-1.3368
-0.183499
-1.3378
-0.116119
-1.34782
-0.0500872
-1.34852
-1.37012
-0.00144602
-0.28552
-0.0039079
-0.284096
-0.00607412
-0.280583
-0.010497
-0.273519
-0.0151726
-0.27393
-0.0200313
-0.271784
-0.02372
-0.280328
-0.028092
-0.291572
-0.0341237
-0.315924
-0.0494872
-0.379544
-0.116485
-0.623517
-0.470536
-1.75723
-0.638168
-2.1244
-0.630784
-2.18376
-0.624285
-2.09844
-0.598531
-1.9833
-0.572786
-1.87682
-0.540997
-1.79048
-0.500663
-1.69661
-0.468307
-1.61869
-0.450957
-1.51299
-0.429832
-1.42942
-0.399128
-1.36854
-0.358128
-1.33158
-0.308223
-1.3111
-0.252248
-1.29757
-0.189236
-1.2978
-0.121992
-1.30513
-0.0564682
-1.30601
-1.31941
-0.00177545
-0.290356
-0.0053343
-0.278341
-0.00847893
-0.277121
-0.0134273
-0.266716
-0.018638
-0.269777
-0.0234169
-0.276869
-0.0275328
-0.304804
-0.0324969
-0.34932
-0.0456367
-0.438837
-0.107472
-0.710989
-0.409525
-1.90079
-0.608089
-2.21978
-0.629161
-2.27293
-0.640454
-2.18058
-0.62655
-2.04634
-0.597473
-1.9265
-0.562216
-1.82728
-0.519155
-1.72888
-0.477755
-1.64132
-0.446801
-1.58128
-0.435462
-1.48315
-0.41703
-1.39071
-0.388763
-1.32903
-0.350444
-1.29167
-0.303726
-1.27132
-0.251009
-1.25671
-0.189502
-1.25539
-0.123796
-1.25864
-0.061811
-1.25364
-1.26583
-0.00244118
-0.292999
-0.00687225
-0.271012
-0.0105548
-0.269241
-0.0161219
-0.26323
-0.0213691
-0.283918
-0.0262663
-0.335533
-0.0292163
-0.440555
-0.0402455
-0.604429
-0.101389
-0.880298
-0.35072
-2.04545
-0.532095
-2.32969
-0.60121
-2.33144
-0.628649
-2.27349
-0.64213
-2.11676
-0.625465
-1.98241
-0.586336
-1.84544
-0.541969
-1.73151
-0.500342
-1.64124
-0.460483
-1.56629
-0.428465
-1.52427
-0.421282
-1.44344
-0.405676
-1.33691
-0.379813
-1.27841
-0.343144
-1.24247
-0.298301
-1.22264
-0.246816
-1.20971
-0.188019
-1.20463
-0.125343
-1.20539
-0.0602903
-1.2007
-1.20757
-0.00298137
-0.286829
-0.00876217
-0.261822
-0.0137628
-0.265374
-0.0207899
-0.2863
-0.0258658
-0.383499
-0.0297003
-0.585108
-0.0407542
-0.906798
-0.0938868
-1.66066
-0.266078
-2.07815
-0.435837
-2.36056
-0.541074
-2.35762
-0.595678
-2.3169
-0.636801
-2.19101
-0.642154
-2.04041
-0.609372
-1.86655
-0.567979
-1.70875
-0.528037
-1.61077
-0.489665
-1.53578
-0.451492
-1.47234
-0.418391
-1.44363
-0.414336
-1.3898
-0.398576
-1.27908
-0.374164
-1.22154
-0.339029
-1.18705
-0.295476
-1.16831
-0.244278
-1.15742
-0.18644
-1.14996
-0.125377
-1.14858
-0.0625506
-1.14365
-1.14927
-0.00515316
-0.279446
-0.0129318
-0.260994
-0.020965
-0.293931
-0.0344369
-0.417632
-0.0536418
-0.733204
-0.0872683
-1.50911
-0.103576
-1.81407
-0.161272
-2.0333
-0.326337
-2.2933
-0.454264
-2.33086
-0.543093
-2.27794
-0.612306
-2.22203
-0.641063
-2.09673
-0.625195
-1.89508
-0.586406
-1.69006
-0.554658
-1.56453
-0.519653
-1.4857
-0.484831
-1.42292
-0.447872
-1.37039
-0.413288
-1.35004
-0.407895
-1.32032
-0.396757
-1.21866
-0.372809
-1.15952
-0.338296
-1.12778
-0.29504
-1.11054
-0.244473
-1.10108
-0.186528
-1.09376
-0.124812
-1.09159
-0.0615677
-1.08651
-1.0894
-0.00710491
-0.315371
-0.0221321
-0.322738
-0.0473816
-0.452873
-0.10091
-0.83927
-0.173522
-1.60282
-0.152419
-1.87148
-0.143209
-2.05004
-0.199082
-2.13727
-0.348508
-2.26521
-0.465216
-2.22034
-0.549485
-2.1735
-0.616283
-2.1048
-0.621392
-1.92508
-0.595466
-1.69113
-0.568399
-1.51857
-0.544267
-1.41706
-0.513434
-1.35105
-0.481878
-1.29933
-0.445783
-1.25782
-0.411194
-1.24735
-0.401577
-1.23728
-0.396872
-1.1542
-0.372247
-1.09323
-0.338194
-1.06552
-0.294963
-1.0507
-0.24485
-1.04299
-0.187111
-1.03721
-0.125403
-1.03497
-0.0627595
-1.02943
-1.03145
-0.00282943
-0.664071
-0.0493345
-0.728981
-0.134528
-0.982732
-0.276441
-1.59604
-0.227774
-1.95294
-0.177748
-2.05492
-0.163244
-2.13476
-0.220351
-2.17618
-0.365249
-2.16189
-0.469137
-2.08978
-0.545659
-2.01862
-0.590818
-1.89583
-0.583384
-1.69928
-0.568506
-1.49497
-0.553343
-1.34303
-0.534018
-1.25532
-0.506792
-1.20123
-0.477914
-1.16072
-0.443704
-1.13366
-0.410609
-1.13563
-0.394942
-1.14166
-0.394749
-1.08417
-0.370621
-1.0241
-0.337068
-1.00176
-0.293848
-0.990217
-0.243899
-0.984351
-0.187455
-0.981085
-0.125216
-0.980938
-0.0625918
-0.974851
-0.976871
0.0444352
-2.95901
-0.108588
-3.20979
-0.37985
-2.04879
-0.305798
-2.16654
-0.214736
-2.17898
-0.172409
-2.17435
-0.167127
-2.1687
-0.251588
-2.1285
-0.363671
-2.03526
-0.438977
-1.88654
-0.514608
-1.78867
-0.545023
-1.65815
-0.541015
-1.47751
-0.539666
-1.28703
-0.538385
-1.15641
-0.523141
-1.08455
-0.499424
-1.04085
-0.473569
-1.01293
-0.442587
-1.00344
-0.411705
-1.01748
-0.388797
-1.03708
-0.390406
-1.00742
-0.368064
-0.954047
-0.335004
-0.937921
-0.291914
-0.930698
-0.242535
-0.927835
-0.186654
-0.927612
-0.12488
-0.930493
-0.0628158
-0.924865
-0.928064
0.119269
-3.94294
-0.195505
-4.0872
-0.325496
-2.87226
-0.256203
-2.49295
-0.188306
-2.31959
-0.146019
-2.20498
-0.158109
-2.12324
-0.247412
-2.00463
-0.322041
-1.83808
-0.406448
-1.68869
-0.471043
-1.56073
-0.491242
-1.41269
-0.49437
-1.2424
-0.5078
-1.07212
-0.520318
-0.967302
-0.513477
-0.912886
-0.492837
-0.880192
-0.469176
-0.864972
-0.443388
-0.872815
-0.413647
-0.896926
-0.38428
-0.929361
-0.385441
-0.924382
-0.364735
-0.883797
-0.331952
-0.87526
-0.289053
-0.873616
-0.240585
-0.874962
-0.185154
-0.878454
-0.124371
-0.884345
-0.0628044
-0.87993
-0.88439
0.0825322
-4.085
-0.197992
-3.92155
-0.230413
-3.71734
-0.201185
-2.74702
-0.161723
-2.36893
-0.123246
-2.13865
-0.134973
-1.97613
-0.204038
-1.79818
-0.280008
-1.6338
-0.36319
-1.46626
-0.418235
-1.31937
-0.431057
-1.15973
-0.445491
-1.0105
-0.477278
-0.86414
-0.502765
-0.788192
-0.505258
-0.74681
-0.4892
-0.727926
-0.469694
-0.725048
-0.446336
-0.745065
-0.41715
-0.778448
-0.382858
-0.82242
-0.381736
-0.838149
-0.361729
-0.814213
-0.328878
-0.814323
-0.286105
-0.819406
-0.238633
-0.825715
-0.183464
-0.832333
-0.123725
-0.840545
-0.0623882
-0.837992
-0.843077
0.000915566
-3.89567
-0.159879
-3.58889
-0.130334
-3.55492
-0.143318
-2.9669
-0.12516
-2.30825
-0.0998273
-1.94056
-0.101396
-1.72615
-0.154875
-1.53447
-0.222411
-1.38691
-0.302823
-1.2305
-0.360117
-1.08366
-0.371294
-0.924847
-0.39907
-0.800895
-0.450148
-0.655388
-0.487966
-0.628432
-0.497865
-0.59361
-0.488848
-0.588096
-0.468407
-0.596803
-0.447419
-0.625269
-0.422424
-0.666763
-0.384796
-0.718814
-0.379932
-0.751831
-0.359397
-0.74719
-0.326422
-0.755481
-0.283879
-0.767607
-0.23657
-0.778667
-0.181835
-0.78782
-0.123071
-0.797709
-0.0616727
-0.798061
-0.802858
-0.0699786
-3.52531