/*--------------------------------*- C++ -*----------------------------------*\
| =========                 |                                                 |
| \\      /  F ield         | OpenFOAM: The Open Source CFD Toolbox           |
|  \\    /   O peration     | Version:  2112                                  |
|   \\  /    A nd           | Website:  www.openfoam.com                      |
|    \\/     M anipulation  |                                                 |
\*---------------------------------------------------------------------------*/
FoamFile
{
    version     2.0;
    format      ascii;
    arch        "LSB;label=32;scalar=64";
    class       volScalarField;
    location    "0.00087";
    object      k;
}
// * * * * * * * * * * * * * * * * * * * * * * * * * * * * * * * * * * * * * //

dimensions      [0 2 -2 0 0 0 0];

internalField   nonuniform List<scalar> 
13875
(
812.095
3463.04
3540.78
3537.84
3541.12
3540.73
3542.11
3541.94
3542.24
3539.57
3539.41
3542.35
3541.25
3539.31
3542.86
3542.05
3540.94
3540.77
3541.54
3539.12
3541.98
3536.73
3541.34
3461.23
818.989
881.748
2937.29
3013.54
3000.46
3000.15
2997.33
2997.11
2996.47
2996.51
2995.13
2994.76
2998.79
2997.75
2996.36
2997.47
2995.9
2996.36
2996.28
2997.67
2997.38
3001.2
2998.47
3014.69
2933.54
891.849
993.508
2711.83
2778.03
2755.89
2756.44
2753.25
2752.02
2750.94
2750.84
2749.37
2749.44
2748.87
2743.41
2741.32
2742.61
2742.39
2750.47
2750.71
2753.23
2754.33
2757.33
2753.21
2778.55
2705.91
993.801
1091.41
2534.67
2581.29
2562.29
2564.53
2561.44
2559.96
2558.6
2558.47
2557.34
2557.1
2556.66
2549.48
2546.82
2548.59
2549.5
2558.27
2558.62
2561.08
2562.67
2565.06
2559.65
2582.2
2528.88
1089.31
1172.78
2381.53
2413.37
2393.77
2395.74
2392.83
2391.15
2389.65
2389.38
2388.7
2388.17
2387.97
2381.21
2378.71
2380.07
2381.11
2389.47
2390.08
2392.26
2393.95
2396.01
2391.95
2413.64
2374.84
1173.01
1242.2
2238.94
2271.4
2245.99
2248.84
2245.28
2242.72
2240.79
2240.26
2239.93
2239.13
2239.31
2232.52
2230.02
2231.37
2232.65
2240.62
2241.85
2244.07
2246.52
2249.17
2244.88
2270.73
2247.87
1244.15
1322.82
2124.63
2159.46
2121.93
2121.07
2115.88
2112.08
2109.41
2108.43
2108.22
2107.49
2107.84
2100.85
2098.45
2099.92
2101.63
2109.1
2111.17
2113.85
2117.2
2122
2122.25
2157.64
2097.42
1322.05
1415.69
2007.05
2077.1
2022.92
2015.78
2005.96
1999.25
1995.01
1993.11
1992.8
1992
1992.65
1985.37
1982.8
1984.49
1986.61
1993.94
1997.32
2001.38
2007.46
2016.45
2023.63
2073.65
1998.49
1422.65
1700.86
2038.15
2028.59
1950.87
1928.31
1913.41
1903.73
1897.69
1894.8
1894.09
1893.02
1893.97
1886.48
1883.45
1885.31
1887.92
1895.22
1900.3
1906.61
1915.3
1931.61
1952.91
2028.43
2045.4
1727.79
2550.98
2324.21
2038.83
1914.15
1872.66
1847.08
1833.69
1825.84
1821.92
1820.53
1818.93
1819.42
1812.35
1808.72
1810.68
1813.81
1820.79
1827.72
1836.85
1850.42
1876.02
1920.67
2041.18
2327.74
2579.38
3940.61
3050.69
2152.4
1960.16
1856.3
1813.16
1795.12
1784.25
1779.43
1777.15
1774.55
1774.09
1768.11
1764.25
1766.07
1769.73
1776.79
1785.28
1798.8
1818.13
1864.47
1969.27
2154.67
3011.51
3980.74
5135.58
6016.8
3346.72
2159.4
1944.21
1844.81
1803.59
1786.58
1778.19
1773.52
1769.18
1767.49
1763.24
1759.63
1761.07
1765.72
1774.46
1786.5
1808.15
1854.51
1951.6
2213.74
3585.73
5736.03
5124.47
5021.39
6288.16
8547.6
5250.89
2346.05
1987.31
1919.44
1890.73
1881.32
1876.71
1871.65
1870.67
1867.55
1865.14
1866.99
1872.5
1882.19
1898.21
1932.68
2031.13
2442.46
5524.66
9138.11
6008.12
5027.71
4749.23
5490.55
7409.48
10483.5
6186.63
3056.9
2768.29
2500.5
2428.55
2382.39
2404.26
2392.17
2407.43
2407.63
2451.78
2464.8
2536.18
2594.96
2833.08
3340.98
6613.64
8588.53
7520.42
5275.36
4783.27
4531.01
4979.52
6248.12
8212.11
7308.76
5912.4
6291.68
6185.14
5829.14
5849.49
5983.38
5979.21
6054.25
6045.89
6105.91
6130.67
6092.49
6154.84
6334.52
5947.91
7224.1
7222.94
6361.46
4843.24
4615.68
4337.06
4724.03
5947.23
7315.04
7304.98
8939.83
9161.98
6969.37
6426.17
6599.84
6380.28
6455.71
6526.08
6535.57
6324.96
6469.2
6367.93
6808.12
9169.16
9804.04
7534.63
6655.23
5913.86
4574.87
4406.33
4113.59
4674.33
5857.9
7007.36
7089.94
9152.84
7943.46
5646.16
5229.38
5166.76
5114.12
5130.34
5262.77
5224.97
5081.21
5093.6
5135
5535.37
8193.95
10694.8
7719.73
6387.72
5741.31
4506.07
4053.66
3639.34
4872.02
5773.32
6022.27
6063.83
7813.45
6852.82
5172.14
4619.26
4430.32
4363.66
4367.65
4528.68
4465.11
4354.97
4414.32
4664.68
5358.16
7349.85
8821.15
6667
5638.68
5540.49
4823.94
3598.23
3102.63
4852.12
5393.21
5256.38
5113.2
6138.16
6181.07
5226.43
4462.22
4037.88
3859.22
3832.91
4007.78
3941.36
3848.89
4003.63
4490.33
5452.14
6828.28
7001.97
5419.31
4851.9
5009.59
4859.57
3151.65
2884.99
4605.78
4749.15
4626.11
4481.91
5097.75
5514.08
5130.04
4388.39
3808.48
3516.58
3456.17
3644.37
3568.6
3538.29
3838.84
4518.81
5479.42
6128.75
5672.2
4561.29
4221.11
4330.13
4331.89
2983.6
3213.28
3959.46
4136.14
4087.51
3989.8
4448.44
4938.35
4794.61
4153.76
3547.16
3210.18
3145.91
3356.21
3267.32
3276.69
3650.03
4367.32
5187.82
5478.41
4855.74
3982.08
3733.08
3773.82
3665.97
3343.44
4076.69
3984.66
3753.61
3700.82
3614.8
3978.5
4439.29
4400.6
3848.05
3270.05
2932.94
2887.3
3124.17
3016.25
3021.46
3399.25
4080.15
4780.56
4926.07
4320.87
3571.07
3357.19
3368.93
3679.15
3952.61
4741.71
4408.51
3501.31
3366.94
3298.41
3596.91
4005.37
3995.57
3514.92
2989.68
2684.32
2675.39
2942.16
2812.02
2776.94
3111.13
3727.99
4344.55
4461.96
3925.45
3249.46
3043.09
3096.27
3992.61
4381.12
4946.03
4549.89
3240.78
3083.71
3020.25
3257.36
3614.24
3620.21
3172.24
2706.62
2461.11
2510.79
2807.82
2650.59
2566.18
2839.84
3386.69
3946.57
4045.33
3568.33
3027.54
2839.88
2871.63
4058.77
4438.8
5044.91
4496.44
3025.59
2858.32
2791.33
2973.71
3273.67
3270.29
2866.17
2468.03
2280.34
2388.91
2714.34
2531.18
2389.46
2599.97
3075.31
3573.14
3675.47
3276.53
2850.61
2699.22
2718.53
4048.29
4505.24
5131.8
4539.72
2870
2678.8
2599.9
2736.96
2974.55
2952.33
2597
2267.22
2139.67
2301.99
2656.98
2452.29
2254.16
2392.5
2786.98
3213.23
3329.17
3031.95
2704.44
2590.92
2618.14
4073.11
4596.93
5227.09
4682.93
2756.62
2525.63
2444.11
2537.66
2706.19
2655.07
2354.94
2103.01
2042.62
2260.95
2629.91
2406.62
2154.61
2228.07
2541.24
2899.53
3023.73
2818.71
2575.65
2487.51
2558.5
4292.73
4738.17
5454.66
4983.26
2690.04
2399.41
2314.77
2369.94
2475.18
2402.93
2159.65
1976.94
1978.37
2246.06
2636.92
2396.54
2098.68
2099.82
2330.81
2617.98
2743.35
2625.46
2461.27
2386.66
2539.69
4619.93
4992.27
5779.95
5443.1
2676.16
2287.72
2201.41
2224.12
2274.94
2191.87
2002.27
1886.43
1947.4
2260.99
2672.02
2419.85
2082.62
2011.41
2158.11
2379.17
2496.38
2447.27
2343.61
2292.75
2549.12
5009.88
5286.13
6109.9
5866.6
2688.51
2200.84
2098.78
2093.43
2097.78
2014.3
1882.35
1835.15
1962.15
2321.04
2734.13
2465.07
2087.34
1956.83
2033.35
2194.19
2292.19
2286.09
2229
2221.17
2583.99
5545.86
5575.72
6302.42
6299.36
2726.81
2155.28
2003.47
1972.88
1955.88
1882.78
1800.89
1813.81
1998.77
2395.93
2821.41
2542.97
2134.68
1940.65
1945.18
2047.7
2125.78
2139.49
2120.41
2175.46
2613.4
5860.45
5855.41
6548.59
6651.62
2746.58
2139.95
1928.18
1874.71
1841.37
1790.37
1750.5
1821.7
2062.09
2496.22
2929.01
2644.25
2205.57
1954.97
1890.16
1944.87
1995.8
2018.26
2030.64
2150.85
2601.81
6129.31
6162.11
6835.39
6753.02
2684.09
2126.49
1882.43
1792.89
1753.39
1726.75
1736.24
1863.43
2162.3
2625.85
3055.1
2757.58
2290.75
1988.95
1867.06
1872.15
1895.49
1919.71
1965.95
2127.07
2551.26
6447.77
6489.65
7128.49
6897.49
2613.47
2127.71
1869.87
1737.85
1698.21
1693.31
1745.69
1925.02
2273.84
2766.49
3195.74
2895.65
2404.85
2053.81
1874.07
1831.78
1829.82
1851.76
1937.68
2108.65
2480.8
6593.47
6843.25
7439.49
7114.97
2563.36
2115.2
1882.18
1717.58
1675.17
1689.95
1781.01
2010.46
2405.05
2923.42
3351.18
3046.25
2533.97
2140.31
1904.92
1819.55
1794.11
1820.96
1928.57
2088.51
2425.86
6826.99
7231.74
7787.35
7329.9
2531.18
2090.77
1923.68
1733.08
1693.75
1727.96
1857.68
2129.95
2570.05
3103.56
3516.45
3204.77
2673.46
2240.84
1964.11
1840.54
1796.54
1817.99
1945.28
2059.45
2412.5
7245.42
7623.52
8181.15
7789.06
2563.2
2098.65
2002.3
1803.84
1745.39
1803.67
1962.7
2274.22
2746.45
3297.09
3702.43
3392.11
2847.75
2383.07
2069.87
1907.51
1836.99
1864.6
2012.76
2063.09
2451.42
7694.97
8085.36
8620.25
8366.26
2722.46
2170.78
2128.05
1941.18
1855.33
1920.58
2114.47
2462.43
2959.35
3520.33
3915.34
3607.71
3055.7
2564.74
2216.02
2019.24
1933.69
1991.92
2148.27
2114.6
2560.05
8304.79
8596.16
9098.26
8961.97
2946.72
2307.68
2317.9
2192.57
2051.91
2107.38
2326.49
2707.59
3226.74
3783.72
4160.04
3852.94
3298.09
2786.05
2407.01
2183.73
2108.99
2228.88
2339.44
2252.37
2875.08
8984.07
9141.03
9592.7
9714.68
3379.84
2587.21
2583.7
2603.52
2425.18
2389.43
2595.89
2999.77
3537.52
4091.58
4458.62
4158.79
3606.2
3077.18
2670.4
2453.18
2461.92
2648.37
2601.82
2501.08
3235.26
9755.88
9718.25
10097.1
10676.7
4121.85
3054.85
3008.14
3150.09
3109.95
2891.64
2969.09
3354.3
3898.59
4456.31
4808.5
4522.81
3971
3433.08
3044
2944.03
3164.85
3212.41
2997.66
2937.27
3898.83
10899.7
10274.7
10617.3
11890.8
5087.86
3745.45
3647.51
3798.03
4015.95
3891.21
3610.01
3834.99
4338
4877.33
5207.07
4929.21
4398.14
3899.35
3680.97
3952.84
4071.13
3822.23
3604.55
3655.28
5084.12
12255.3
10773.1
11098.5
13212.3
6528.05
4804.47
4551.47
4653.18
4905.82
5163.66
4917.72
4620.42
4905.25
5358.87
5660.47
5407.72
4964.12
4680.41
5008.2
5257.7
4982.86
4644.94
4470.8
4696.87
6547.09
13744
11286.4
11581.9
14678.6
8321.33
6294.51
5795.51
5779.76
5951.11
6354.34
6602.04
6225.68
5853.46
5987.27
6233.05
6034.17
5914.3
6325.4
6771.77
6486.4
6015.19
5742.9
5683.14
6206.01
8401.56
15328.7
11788.5
12084.5
16471.9
10301.9
8114.99
7459.9
7241.52
7272.2
7579.78
8121.42
8341.12
7815.05
6980.39
7080.44
7059.67
7922.91
8536.87
8341
7698.25
7313.58
7189.32
7359.86
8159.84
10564.8
17120.3
12295.1
12240.7
18555.5
12835
10341.2
9540.45
9135.98
8931.53
9042.73
9504.57
10180
10430.1
9041.05
8713.68
9167.31
10662.2
10462.5
9714.74
9153.82
8954.81
9060.62
9459.59
10479.8
13148.8
19339.7
12453.1
12260.5
20342.3
15802.1
13012.6
11914
11387.9
10961.6
10829.9
11087.5
11704.4
12771.2
12367.9
12279.6
12671.7
13094.1
11977.7
11272.7
10928.6
10966.5
11311.3
11879.3
13206.2
16168.4
21203.9
12494.9
12182.9
21193.9
18417.6
15756.1
14426.8
13785.7
13301.4
12916.2
12995.2
13513.4
14669.3
16975
20739.1
17228.5
14935.1
13740.7
13148.4
12993.8
13274.9
13720.9
14465.7
16002.3
18804.4
21784.1
12391.7
11965
21723.8
20290.3
18209.4
16866.4
16196.6
15746.9
15323.2
15304.1
15897.7
17992.2
25241.1
32587.6
25399.1
18231.1
16061.5
15400.4
15348.5
15711
16164.3
16946.4
18453.9
20669.5
22271.4
12180.1
11246.1
21623.4
21668
20218.9
19118.5
18528.1
18202.9
18068
18285.9
19561.6
25365.7
35455.4
39795.8
35599.1
25563.6
19672.1
18310.6
18065.5
18204.6
18548
19236.7
20497.6
22130.8
22239.4
11459.2
774.939
864.047
877.414
878.925
879.468
878.617
877.55
876.555
875.703
874.952
874.262
873.606
872.969
872.344
871.729
871.123
870.525
869.936
869.355
868.782
868.217
867.66
867.11
866.566
866.031
865.505
864.963
864.203
857.856
768.344
659.138
809.696
826.316
827.555
827.79
826.622
825.509
824.645
824.045
823.605
823.253
822.946
822.661
822.389
822.126
821.87
821.622
821.381
821.147
820.92
820.699
820.484
820.274
820.068
819.868
819.676
819.453
818.818
809.301
688.371
650.95
801.779
815.511
816.523
816.636
815.318
814.254
813.519
813.109
812.884
812.753
812.665
812.595
812.532
812.473
812.416
812.362
812.309
812.26
812.212
812.166
812.121
812.077
812.034
811.993
811.955
811.887
811.332
801.355
676.931
654.873
800.157
813.533
814.826
814.924
813.477
812.423
811.699
811.331
811.162
811.089
811.058
811.042
811.031
811.022
811.013
811.005
810.997
810.99
810.983
810.976
810.969
810.962
810.954
810.946
810.941
810.909
810.352
800.213
674.182
655.507
799.32
813.249
814.805
814.82
813.249
812.197
811.462
811.101
810.942
810.879
810.858
810.851
810.849
810.847
810.846
810.845
810.844
810.844
810.843
810.842
810.841
810.839
810.836
810.833
810.833
810.809
810.229
799.909
672.393
655.37
799.269
813.324
814.916
814.839
813.193
812.161
811.428
811.072
810.915
810.855
810.836
810.831
810.83
810.83
810.83
810.83
810.829
810.829
810.829
810.829
810.829
810.828
810.826
810.824
810.824
810.801
810.195
799.677
670.745
655.588
799.787
813.418
814.956
814.815
813.127
812.133
811.412
811.06
810.907
810.849
810.833
810.829
810.828
810.828
810.828
810.828
810.828
810.828
810.828
810.828
810.828
810.827
810.826
810.824
810.823
810.8
810.169
799.453
669.179
656.259
800.308
813.472
814.969
814.759
813.021
812.089
811.386
811.044
810.897
810.846
810.832
810.829
810.828
810.828
810.828
810.828
810.828
810.828
810.828
810.828
810.828
810.828
810.827
810.825
810.824
810.799
810.148
799.241
667.713
656.959
800.67
813.493
814.928
814.649
812.873
812.019
811.344
811.02
810.889
810.844
810.832
810.829
810.828
810.828
810.828
810.828
810.828
810.828
810.828
810.828
810.828
810.828
810.827
810.827
810.824
810.797
810.13
799.047
666.363
657.381
800.845
813.523
814.699
814.457
812.693
811.917
811.293
811.003
810.884
810.843
810.831
810.829
810.828
810.828
810.828
810.828
810.828
810.828
810.828
810.828
810.828
810.828
810.828
810.827
810.826
810.795
810.112
798.868
665.133
657.791
800.938
813.531
814.339
814.204
812.52
811.83
811.257
810.989
810.879
810.841
810.831
810.829
810.828
810.828
810.828
810.828
810.828
810.828
810.828
810.828
810.828
810.828
810.828
810.828
810.827
810.796
810.095
798.703
664.012
657.962
800.931
813.524
813.969
813.924
812.375
811.752
811.224
810.976
810.874
810.84
810.831
810.829
810.828
810.828
810.828
810.828
810.828
810.828
810.828
810.828
810.828
810.828
810.828
810.828
810.827
810.796
810.082
798.551
662.986
657.945
800.453
813.197
813.659
813.652
812.247
811.677
811.192
810.964
810.87
810.839
810.83
810.828
810.828
810.828
810.828
810.828
810.828
810.828
810.828
810.828
810.828
810.828
810.828
810.828
810.827
810.796
810.07
798.41
662.046
657.878
800.096
812.874
813.402
813.39
812.123
811.604
811.16
810.952
810.866
810.837
810.83
810.828
810.828
810.828
810.828
810.828
810.828
810.828
810.828
810.828
810.828
810.828
810.828
810.828
810.827
810.795
810.058
798.278
661.185
657.907
799.801
812.573
813.156
813.136
812.001
811.532
811.129
810.94
810.862
810.836
810.83
810.828
810.828
810.828
810.828
810.828
810.828
810.828
810.828
810.828
810.828
810.828
810.828
810.828
810.827
810.795
810.046
798.161
660.405
657.582
799.524
812.274
812.904
812.888
811.88
811.461
811.099
810.928
810.858
810.835
810.829
810.828
810.828
810.828
810.828
810.828
810.828
810.828
810.828
810.828
810.828
810.828
810.828
810.828
810.827
810.794
810.036
798.054
659.702
657.311
799.259
811.977
812.642
812.641
811.757
811.39
811.069
810.917
810.855
810.834
810.829
810.828
810.828
810.828
810.828
810.828
810.828
810.828
810.828
810.828
810.828
810.828
810.828
810.828
810.827
810.793
810.027
797.958
659.07
657.257
799.093
811.715
812.375
812.393
811.63
811.317
811.038
810.906
810.851
810.833
810.829
810.828
810.828
810.828
810.828
810.828
810.828
810.828
810.828
810.828
810.828
810.828
810.828
810.828
810.827
810.793
810.019
797.874
658.512
657.669
799.851
811.85
812.169
812.157
811.498
811.241
811.006
810.894
810.847
810.833
810.829
810.828
810.828
810.828
810.828
810.828
810.828
810.828
810.828
810.828
810.828
810.828
810.828
810.828
810.827
810.793
810.012
797.801
658.022
659.451
804.62
814.114
812.585
812.017
811.375
811.164
810.972
810.881
810.844
810.832
810.829
810.828
810.828
810.828
810.828
810.828
810.828
810.828
810.828
810.828
810.828
810.828
810.828
810.828
810.827
810.792
810.006
797.738
657.597
665.361
840.962
836.092
817.02
812.606
811.342
811.096
810.937
810.868
810.84
810.831
810.829
810.828
810.828
810.828
810.828
810.828
810.828
810.828
810.828
810.828
810.828
810.828
810.828
810.828
810.827
810.792
810.001
797.686
657.236
688.576
1042.77
1032.85
872.602
818.307
811.93
811.104
810.908
810.855
810.835
810.83
810.828
810.828
810.828
810.828
810.828
810.828
810.828
810.828
810.828
810.828
810.828
810.828
810.828
810.828
810.827
810.792
809.997
797.642
656.934
745.763
1544.62
1805.84
1338.34
895.583
816.591
811.518
810.92
810.845
810.832
810.829
810.828
810.828
810.828
810.828
810.828
810.828
810.828
810.828
810.828
810.828
810.828
810.828
810.828
810.828
810.827
810.792
809.994
797.609
656.689
1035.25
2795.55
2838.05
2489.78
1468.14
871.506
814.149
811.127
810.853
810.829
810.828
810.828
810.828
810.828
810.828
810.828
810.828
810.828
810.828
810.828
810.828
810.828
810.828
810.828
810.828
810.827
810.792
809.992
797.584
656.499
2779.66
8587.99
5103.43
3722.33
2601.86
1255.06
835.46
812.073
810.928
810.831
810.828
810.828
810.828
810.828
810.828
810.828
810.828
810.828
810.828
810.828
810.828
810.828
810.828
810.828
810.828
810.827
810.792
809.991
797.568
656.36
768.343
857.857
864.205
864.966
865.508
866.035
866.571
867.115
867.666
868.224
868.79
869.364
869.945
870.536
871.134
871.742
872.358
872.983
873.621
874.279
874.97
875.722
876.575
877.571
878.639
879.491
878.948
877.44
864.071
774.967
688.37
809.3
818.818
819.453
819.676
819.868
820.068
820.274
820.484
820.699
820.92
821.147
821.381
821.622
821.87
822.126
822.389
822.661
822.946
823.253
823.605
824.045
824.645
825.509
826.621
827.789
827.554
826.317
809.696
659.151
676.929
801.355
811.332
811.887
811.955
811.993
812.034
812.078
812.121
812.166
812.212
812.26
812.31
812.362
812.416
812.473
812.532
812.595
812.666
812.754
812.884
813.11
813.519
814.254
815.318
816.636
816.523
815.512
801.783
650.92
674.181
800.213
810.352
810.909
810.941
810.946
810.954
810.962
810.969
810.976
810.983
810.99
810.997
811.005
811.013
811.022
811.031
811.042
811.058
811.089
811.162
811.331
811.699
812.422
813.476
814.925
814.825
813.534
800.164
654.925
672.393
799.909
810.229
810.809
810.833
810.833
810.836
810.839
810.841
810.842
810.843
810.844
810.844
810.845
810.846
810.847
810.849
810.851
810.858
810.879
810.942
811.101
811.462
812.196
813.248
814.821
814.805
813.248
799.31
655.529
670.744
799.676
810.195
810.801
810.824
810.824
810.826
810.828
810.829
810.829
810.829
810.829
810.829
810.83
810.83
810.83
810.83
810.831
810.836
810.855
810.915
811.072
811.428
812.161
813.192
814.84
814.916
813.324
799.274
655.308
669.179
799.453
810.17
810.8
810.823
810.824
810.826
810.827
810.828
810.828
810.828
810.828
810.828
810.828
810.828
810.828
810.828
810.829
810.833
810.849
810.907
811.061
811.413
812.133
813.127
814.816
814.955
813.419
799.791
655.669
667.714
799.242
810.148
810.799
810.824
810.825
810.827
810.828
810.828
810.828
810.828
810.828
810.828
810.828
810.828
810.828
810.828
810.829
810.832
810.846
810.897
811.044
811.386
812.089
813.021
814.759
814.968
813.471
800.3
656.221
666.363
799.047
810.13
810.797
810.824
810.827
810.827
810.828
810.828
810.828
810.828
810.828
810.828
810.828
810.828
810.828
810.828
810.829
810.832
810.844
810.889
811.02
811.344
812.019
812.874
814.648
814.928
813.494
800.675
656.962
665.134
798.868
810.112
810.795
810.826
810.827
810.828
810.828
810.828
810.828
810.828
810.828
810.828
810.828
810.828
810.828
810.828
810.829
810.831
810.843
810.884
811.003
811.293
811.918
812.694
814.457
814.699
813.524
800.84
657.399
664.011
798.703
810.095
810.796
810.827
810.828
810.828
810.828
810.828
810.828
810.828
810.828
810.828
810.828
810.828
810.828
810.828
810.829
810.831
810.841
810.879
810.989
811.257
811.83
812.52
814.205
814.339
813.533
800.943
657.746
662.986
798.551
810.082
810.796
810.827
810.828
810.828
810.828
810.828
810.828
810.828
810.828
810.828
810.828
810.828
810.828
810.828
810.829
810.831
810.84
810.874
810.976
811.224
811.752
812.375
813.924
813.969
813.523
800.932
657.995
662.047
798.41
810.07
810.796
810.827
810.828
810.828
810.828
810.828
810.828
810.828
810.828
810.828
810.828
810.828
810.828
810.828
810.828
810.83
810.839
810.87
810.964
811.192
811.677
812.247
813.652
813.66
813.195
800.449
657.943
661.186
798.278
810.058
810.795
810.827
810.828
810.828
810.828
810.828
810.828
810.828
810.828
810.828
810.828
810.828
810.828
810.828
810.828
810.83
810.837
810.866
810.952
811.16
811.604
812.123
813.391
813.402
812.874
800.095
657.873
660.405
798.16
810.046
810.795
810.827
810.828
810.828
810.828
810.828
810.828
810.828
810.828
810.828
810.828
810.828
810.828
810.828
810.828
810.83
810.836
810.862
810.94
811.129
811.532
812.001
813.136
813.156
812.574
799.804
657.905
659.702
798.054
810.036
810.794
810.827
810.828
810.828
810.828
810.828
810.828
810.828
810.828
810.828
810.828
810.828
810.828
810.828
810.828
810.829
810.835
810.858
810.928
811.099
811.461
811.88
812.888
812.905
812.274
799.522
657.593
659.071
797.958
810.027
810.793
810.827
810.828
810.828
810.828
810.828
810.828
810.828
810.828
810.828
810.828
810.828
810.828
810.828
810.828
810.829
810.834
810.855
810.917
811.069
811.39
811.757
812.642
812.642
811.977
799.258
657.298
658.511
797.874
810.019
810.793
810.827
810.828
810.828
810.828
810.828
810.828
810.828
810.828
810.828
810.828
810.828
810.828
810.828
810.828
810.829
810.833
810.851
810.906
811.038
811.317
811.63
812.393
812.375
811.716
799.098
657.255
658.022
797.801
810.012
810.793
810.827
810.828
810.828
810.828
810.828
810.828
810.828
810.828
810.828
810.828
810.828
810.828
810.828
810.828
810.829
810.833
810.847
810.894
811.006
811.241
811.498
812.157
812.169
811.852
799.85
657.686
657.597
797.738
810.006
810.792
810.827
810.828
810.828
810.828
810.828
810.828
810.828
810.828
810.828
810.828
810.828
810.828
810.828
810.828
810.829
810.832
810.844
810.881
810.972
811.164
811.375
812.018
812.588
814.123
804.64
659.443
657.235
797.686
810.001
810.792
810.827
810.828
810.828
810.828
810.828
810.828
810.828
810.828
810.828
810.828
810.828
810.828
810.828
810.828
810.829
810.831
810.84
810.868
810.937
811.096
811.343
812.61
817.041
836.179
841.052
665.364
656.935
797.643
809.997
810.792
810.827
810.828
810.828
810.828
810.828
810.828
810.828
810.828
810.828
810.828
810.828
810.828
810.828
810.828
810.828
810.83
810.835
810.855
810.908
811.104
811.934
818.34
872.873
1033.43
1042.92
688.613
656.69
797.609
809.994
810.792
810.827
810.828
810.828
810.828
810.828
810.828
810.828
810.828
810.828
810.828
810.828
810.828
810.828
810.828
810.828
810.829
810.832
810.845
810.92
811.521
816.62
896.019
1340.57
1806.42
1543.92
745.487
656.498
797.584
809.992
810.792
810.827
810.828
810.828
810.828
810.828
810.828
810.828
810.828
810.828
810.828
810.828
810.828
810.828
810.828
810.828
810.828
810.829
810.853
811.128
814.165
871.823
1469.98
2490.24
2837.25
2790.6
1035.18
656.36
797.568
809.991
810.792
810.827
810.828
810.828
810.828
810.828
810.828
810.828
810.828
810.828
810.828
810.828
810.828
810.828
810.828
810.828
810.828
810.831
810.929
812.079
835.6
1256.92
2602.56
3718.52
5085.06
8523.55
2775.93
608.508
608.932
609.367
609.8
610.233
610.665
611.096
611.526
611.955
612.383
612.811
613.237
613.663
614.088
614.512
614.935
615.357
615.778
616.199
616.618
617.037
617.455
617.872
618.288
618.704
619.118
619.532
619.945
620.357
620.768
621.179
621.588
621.997
622.405
622.812
623.219
623.624
624.029
624.433
624.836
625.238
625.64
626.04
626.44
626.839
627.237
627.635
628.032
628.428
628.823
629.217
629.611
630.003
630.395
630.787
631.177
631.567
631.956
632.344
632.731
633.118
633.504
633.889
634.273
634.657
635.04
635.422
635.803
636.184
636.564
636.943
637.322
637.699
638.076
638.452
638.828
639.203
639.577
639.95
640.322
640.694
641.065
641.436
641.806
642.174
642.543
642.91
643.277
643.643
644.009
644.373
644.738
645.101
645.464
645.825
646.187
646.547
646.907
647.266
647.625
647.983
648.34
648.696
649.052
649.407
649.762
650.115
650.468
650.821
651.173
651.524
651.874
652.224
652.573
652.921
653.269
653.616
653.963
654.309
654.654
654.999
655.343
655.685
656.023
656.32
787.276
787.416
787.53
787.64
787.75
787.859
787.967
788.075
788.183
788.289
788.395
788.501
788.606
788.71
788.814
788.918
789.02
789.123
789.224
789.326
789.426
789.526
789.626
789.725
789.824
789.922
790.019
790.116
790.213
790.309
790.404
790.499
790.594
790.688
790.781
790.874
790.967
791.059
791.151
791.242
791.332
791.422
791.512
791.601
791.69
791.778
791.866
791.954
792.041
792.127
792.213
792.299
792.384
792.469
792.553
792.637
792.72
792.803
792.886
792.968
793.05
793.131
793.212
793.293
793.373
793.452
793.532
793.611
793.689
793.767
793.845
793.922
793.999
794.075
794.152
794.227
794.303
794.378
794.452
794.526
794.6
794.674
794.747
794.82
794.892
794.964
795.036
795.107
795.178
795.248
795.318
795.388
795.458
795.527
795.596
795.664
795.732
795.8
795.868
795.935
796.002
796.068
796.134
796.2
796.266
796.331
796.396
796.46
796.524
796.588
796.652
796.715
796.778
796.841
796.903
796.965
797.027
797.088
797.149
797.21
797.271
797.331
797.391
797.452
797.52
808.649
808.672
808.69
808.707
808.724
808.741
808.757
808.774
808.79
808.806
808.822
808.838
808.854
808.869
808.885
808.9
808.915
808.93
808.945
808.96
808.975
808.989
809.004
809.018
809.032
809.046
809.06
809.074
809.088
809.101
809.115
809.128
809.141
809.154
809.167
809.18
809.193
809.206
809.218
809.23
809.243
809.255
809.267
809.279
809.291
809.303
809.315
809.326
809.338
809.349
809.36
809.372
809.383
809.394
809.405
809.416
809.426
809.437
809.448
809.458
809.469
809.479
809.489
809.499
809.509
809.519
809.529
809.539
809.549
809.558
809.568
809.577
809.587
809.596
809.605
809.615
809.624
809.633
809.642
809.65
809.659
809.668
809.677
809.685
809.694
809.702
809.711
809.719
809.727
809.735
809.743
809.751
809.759
809.767
809.775
809.783
809.791
809.798
809.806
809.813
809.821
809.828
809.836
809.843
809.85
809.857
809.864
809.871
809.878
809.885
809.892
809.899
809.906
809.913
809.919
809.926
809.932
809.939
809.945
809.952
809.958
809.965
809.971
809.978
809.985
810.683
810.686
810.687
810.689
810.691
810.692
810.694
810.695
810.697
810.698
810.7
810.701
810.703
810.704
810.705
810.707
810.708
810.71
810.711
810.712
810.714
810.715
810.716
810.717
810.719
810.72
810.721
810.722
810.724
810.725
810.726
810.727
810.728
810.729
810.73
810.731
810.732
810.734
810.735
810.736
810.737
810.738
810.739
810.74
810.741
810.742
810.743
810.744
810.744
810.745
810.746
810.747
810.748
810.749
810.75
810.751
810.751
810.752
810.753
810.754
810.755
810.756
810.756
810.757
810.758
810.759
810.759
810.76
810.761
810.762
810.762
810.763
810.764
810.764
810.765
810.766
810.766
810.767
810.768
810.768
810.769
810.77
810.77
810.771
810.772
810.772
810.773
810.773
810.774
810.774
810.775
810.776
810.776
810.777
810.777
810.778
810.778
810.779
810.779
810.78
810.78
810.781
810.781
810.782
810.782
810.783
810.783
810.784
810.784
810.785
810.785
810.786
810.786
810.786
810.787
810.787
810.788
810.788
810.789
810.789
810.79
810.79
810.79
810.791
810.791
810.821
810.821
810.821
810.821
810.822
810.822
810.822
810.822
810.822
810.822
810.822
810.822
810.822
810.822
810.823
810.823
810.823
810.823
810.823
810.823
810.823
810.823
810.823
810.823
810.823
810.823
810.824
810.824
810.824
810.824
810.824
810.824
810.824
810.824
810.824
810.824
810.824
810.824
810.824
810.824
810.824
810.824
810.825
810.825
810.825
810.825
810.825
810.825
810.825
810.825
810.825
810.825
810.825
810.825
810.825
810.825
810.825
810.825
810.825
810.825
810.825
810.825
810.825
810.826
810.826
810.826
810.826
810.826
810.826
810.826
810.826
810.826
810.826
810.826
810.826
810.826
810.826
810.826
810.826
810.826
810.826
810.826
810.826
810.826
810.826
810.826
810.826
810.826
810.826
810.826
810.826
810.826
810.826
810.826
810.827
810.827
810.827
810.827
810.827
810.827
810.827
810.827
810.827
810.827
810.827
810.827
810.827
810.827
810.827
810.827
810.827
810.827
810.827
810.827
810.827
810.827
810.827
810.827
810.827
810.827
810.827
810.827
810.827
810.827
810.827
810.828
810.828
810.828
810.828
810.828
810.828
810.828
810.828
810.828
810.828
810.828
810.828
810.828
810.828
810.828
810.828
810.828
810.828
810.828
810.828
810.828
810.828
810.828
810.828
810.828
810.828
810.828
810.828
810.828
810.828
810.828
810.828
810.828
810.828
810.828
810.828
810.828
810.828
810.828
810.828
810.828
810.828
810.828
810.828
810.828
810.828
810.828
810.828
810.828
810.828
810.828
810.828
810.828
810.828
810.828
810.828
810.828
810.828
810.828
810.828
810.828
810.828
810.828
810.828
810.828
810.828
810.828
810.828
810.828
810.828
810.828
810.828
810.828
810.828
810.828
810.828
810.828
810.828
810.828
810.828
810.828
810.828
810.828
810.828
810.828
810.828
810.828
810.828
810.828
810.828
810.828
810.828
810.828
810.828
810.828
810.828
810.828
810.828
810.828
810.828
810.828
810.828
810.828
810.828
810.828
810.828
810.828
810.828
810.828
810.828
810.828
810.828
810.828
810.828
810.828
810.828
810.828
810.828
810.828
810.828
810.828
810.828
810.828
810.828
810.828
810.828
810.828
810.828
810.828
810.828
810.828
810.828
810.828
810.828
810.828
810.828
810.828
810.828
810.828
810.828
810.828
810.828
810.828
810.828
810.828
810.828
810.828
810.828
810.828
810.828
810.828
810.828
810.828
810.828
810.828
810.828
810.828
810.828
810.828
810.828
810.828
810.828
810.828
810.828
810.828
810.828
810.828
810.828
810.828
810.828
810.828
810.828
810.828
810.828
810.828
810.828
810.828
810.828
810.828
810.828
810.828
810.828
810.828
810.828
810.828
810.828
810.828
810.828
810.828
810.828
810.828
810.828
810.828
810.828
810.828
810.828
810.828
810.828
810.828
810.828
810.828
810.828
810.828
810.828
810.828
810.828
810.828
810.828
810.828
810.828
810.828
810.828
810.828
810.828
810.828
810.828
810.828
810.828
810.828
810.828
810.828
810.828
810.828
810.828
810.828
810.828
810.828
810.828
810.828
810.828
810.828
810.828
810.828
810.828
810.828
810.828
810.828
810.828
810.828
810.828
810.828
810.828
810.828
810.828
810.828
810.828
810.828
810.828
810.828
810.828
810.828
810.828
810.828
810.828
810.828
810.828
810.828
810.828
810.828
810.828
810.828
810.828
810.828
810.828
810.828
810.828
810.828
810.828
810.828
810.828
810.828
810.828
810.828
810.828
810.828
810.828
810.828
810.828
810.828
810.828
810.828
810.828
810.828
810.828
810.828
810.828
810.828
810.828
810.828
810.828
810.828
810.828
810.828
810.828
810.828
810.828
810.828
810.828
810.828