/*--------------------------------*- C++ -*----------------------------------*\
| =========                 |                                                 |
| \\      /  F ield         | OpenFOAM: The Open Source CFD Toolbox           |
|  \\    /   O peration     | Version:  2112                                  |
|   \\  /    A nd           | Website:  www.openfoam.com                      |
|    \\/     M anipulation  |                                                 |
\*---------------------------------------------------------------------------*/
FoamFile
{
    version     2.0;
    format      ascii;
    arch        "LSB;label=32;scalar=64";
    class       volScalarField;
    location    "0.00108";
    object      p;
}
// * * * * * * * * * * * * * * * * * * * * * * * * * * * * * * * * * * * * * //

dimensions      [1 -1 -2 0 0 0 0];

internalField   nonuniform List<scalar> 
13875
(
951471
984007
973618
975615
973397
974445
974480
974457
974785
974832
975266
975253
975100
974862
974851
974853
974296
974303
973760
973705
973055
975699
972406
982779
945653
733664
659181
672096
677023
670225
668575
668768
670461
677291
678832
679405
679297
679704
679123
678717
678508
672922
669332
668284
668398
670110
677174
672340
657397
730585
736753
635691
664639
653790
648529
646158
645176
645333
645448
648702
649745
647805
648347
649617
647072
645895
645140
644482
644473
645625
647742
652234
662196
632529
733266
743401
636359
665544
653953
648828
646363
645319
645426
644750
646132
646371
646052
645813
647153
645481
644184
645162
644582
644612
645813
648020
652360
662953
633143
738830
757242
639435
668168
654685
649743
646980
645758
645731
644936
646221
646552
646231
645943
647234
645586
644396
645324
644918
645036
646374
648842
652966
665282
635832
749781
759207
648274
674122
656747
651715
648306
646706
646381
645468
646522
647075
646719
646429
647525
645976
644989
645793
645656
645956
647597
650647
654908
670998
643699
752146
765807
669246
686807
661951
655805
651035
648660
647774
646680
647369
648093
647769
647657
648310
646974
646249
646964
647199
647930
650319
654713
660802
682906
666829
757137
793278
720535
713872
676192
664743
656894
652790
650858
649338
649468
650179
650055
650230
650294
649365
648875
649582
650371
651957
655883
663186
674385
708895
717553
784942
915867
833730
771818
708411
683158
668769
661246
657453
655044
654395
654828
655035
655499
654971
654614
654387
655221
656916
660160
667133
680538
704397
764686
828681
918166
1.55211e+06
1.04537e+06
846751
750799
708555
686684
675638
669893
666493
665164
665176
665707
666282
665357
665658
665839
666821
669452
674624
684979
705807
746720
840351
1.03871e+06
1.54537e+06
2.99493e+06
1.44283e+06
1.00246e+06
827519
753817
719802
703355
694935
690170
688124
687664
688213
688677
687838
688601
689507
690959
694476
701764
716728
748029
815631
975668
1.38719e+06
2.94256e+06
5.86515e+06
2.40952e+06
1.46631e+06
1.03642e+06
860986
795234
766110
751843
744742
741571
740384
740334
740740
740503
741522
743566
746617
752625
764911
791298
851955
1.0069e+06
1.38381e+06
2.3242e+06
5.78183e+06
5.68552e+06
4.81296e+06
3.46212e+06
1.83306e+06
1.1707e+06
1.00622e+06
939857
909000
894694
887950
885100
883777
885078
885295
886974
890704
898458
913443
943644
1.00646e+06
1.1637e+06
1.70016e+06
2.98696e+06
4.84592e+06
5.55854e+06
5.17225e+06
4.70166e+06
4.92497e+06
5.04021e+06
2.13749e+06
1.70399e+06
1.5404e+06
1.46181e+06
1.42882e+06
1.41196e+06
1.40754e+06
1.4023e+06
1.41283e+06
1.40713e+06
1.41148e+06
1.41928e+06
1.43993e+06
1.48435e+06
1.57858e+06
1.77525e+06
2.29895e+06
4.83661e+06
5.04139e+06
4.75623e+06
4.97587e+06
4.22342e+06
4.39425e+06
4.86885e+06
5.26796e+06
5.24947e+06
4.15066e+06
3.83778e+06
3.57819e+06
3.52602e+06
3.40234e+06
3.40507e+06
3.35085e+06
3.4032e+06
3.36691e+06
3.39574e+06
3.42027e+06
3.51061e+06
3.67831e+06
3.889e+06
4.23721e+06
5.20359e+06
5.21607e+06
4.96821e+06
4.53198e+06
4.47181e+06
3.84306e+06
3.97387e+06
4.75387e+06
5.50449e+06
6.88871e+06
8.21196e+06
9.59523e+06
9.53276e+06
9.98131e+06
9.85014e+06
1.00423e+07
9.93093e+06
1.00275e+07
9.93641e+06
1.001e+07
9.88904e+06
9.92768e+06
9.61279e+06
9.5254e+06
8.42704e+06
7.05405e+06
5.60395e+06
4.90082e+06
4.13215e+06
4.12066e+06
3.12587e+06
3.73159e+06
4.92621e+06
5.64948e+06
6.88371e+06
7.83274e+06
7.85448e+06
7.71677e+06
7.54373e+06
7.38435e+06
7.23337e+06
7.20948e+06
7.09719e+06
7.19448e+06
7.19088e+06
7.32525e+06
7.4879e+06
7.65498e+06
7.72625e+06
7.88874e+06
7.02126e+06
5.80408e+06
5.03346e+06
3.81409e+06
3.32772e+06
2.65631e+06
3.55791e+06
4.82057e+06
5.36946e+06
5.92143e+06
6.14396e+06
5.87647e+06
5.87067e+06
5.87385e+06
5.88503e+06
5.9026e+06
5.9108e+06
5.91127e+06
5.90904e+06
5.90254e+06
5.8799e+06
5.852e+06
5.84092e+06
5.84844e+06
6.04918e+06
5.92686e+06
5.46583e+06
4.89761e+06
3.39671e+06
2.44032e+06
1.45979e+06
2.55321e+06
3.93514e+06
4.34346e+06
4.54416e+06
4.71159e+06
4.82631e+06
5.00603e+06
5.15998e+06
5.25124e+06
5.3129e+06
5.34119e+06
5.35042e+06
5.33734e+06
5.31012e+06
5.25029e+06
5.15274e+06
5.00659e+06
4.83862e+06
4.71794e+06
4.5349e+06
4.30759e+06
3.92142e+06
2.63333e+06
1.45055e+06
740239
1.74004e+06
2.77554e+06
3.23374e+06
3.44362e+06
3.71743e+06
4.07733e+06
4.39212e+06
4.59724e+06
4.71235e+06
4.79104e+06
4.83298e+06
4.84819e+06
4.83371e+06
4.79367e+06
4.72115e+06
4.60716e+06
4.4125e+06
4.10341e+06
3.72646e+06
3.42058e+06
3.1856e+06
2.71825e+06
1.7337e+06
721163
772736
1.25869e+06
1.89087e+06
2.30873e+06
2.6287e+06
3.02331e+06
3.48002e+06
3.83286e+06
4.04307e+06
4.17572e+06
4.26758e+06
4.31909e+06
4.33831e+06
4.32306e+06
4.27491e+06
4.18977e+06
4.05995e+06
3.85368e+06
3.49956e+06
3.01742e+06
2.59761e+06
2.24353e+06
1.83121e+06
1.18274e+06
744121
953992
1.07515e+06
1.32461e+06
1.74009e+06
2.10143e+06
2.55381e+06
2.98467e+06
3.3075e+06
3.51945e+06
3.6633e+06
3.76377e+06
3.81989e+06
3.84063e+06
3.82299e+06
3.76973e+06
3.67451e+06
3.53232e+06
3.32229e+06
2.99498e+06
2.55221e+06
2.0672e+06
1.68084e+06
1.28121e+06
1.02608e+06
934469
1.34005e+06
1.08084e+06
1.11233e+06
1.4058e+06
1.75385e+06
2.20092e+06
2.57254e+06
2.84997e+06
3.0519e+06
3.19871e+06
3.2966e+06
3.35289e+06
3.37462e+06
3.35472e+06
3.29868e+06
3.20317e+06
3.05647e+06
2.85162e+06
2.57598e+06
2.20716e+06
1.72742e+06
1.36999e+06
1.09757e+06
1.04472e+06
1.34991e+06
1.43232e+06
1.10291e+06
1.10936e+06
1.25584e+06
1.52926e+06
1.89983e+06
2.21989e+06
2.46007e+06
2.64777e+06
2.78294e+06
2.88225e+06
2.93518e+06
2.95795e+06
2.93703e+06
2.87951e+06
2.78305e+06
2.64447e+06
2.45632e+06
2.20337e+06
1.88869e+06
1.52113e+06
1.23163e+06
1.08853e+06
1.07079e+06
1.38277e+06
1.44601e+06
1.14065e+06
1.1185e+06
1.18356e+06
1.37389e+06
1.65664e+06
1.91457e+06
2.13149e+06
2.30073e+06
2.42444e+06
2.51838e+06
2.56881e+06
2.58729e+06
2.56886e+06
2.51449e+06
2.42323e+06
2.29875e+06
2.12627e+06
1.90257e+06
1.63329e+06
1.36991e+06
1.1639e+06
1.09723e+06
1.11245e+06
1.38766e+06
1.44831e+06
1.19746e+06
1.14029e+06
1.14624e+06
1.26771e+06
1.46016e+06
1.67158e+06
1.86051e+06
2.0092e+06
2.12112e+06
2.2033e+06
2.24801e+06
2.26302e+06
2.24621e+06
2.19851e+06
2.1165e+06
2.00159e+06
1.85115e+06
1.6573e+06
1.44002e+06
1.2593e+06
1.12799e+06
1.11896e+06
1.16779e+06
1.39446e+06
1.45727e+06
1.29001e+06
1.18e+06
1.14459e+06
1.18914e+06
1.31415e+06
1.47674e+06
1.63266e+06
1.76335e+06
1.86002e+06
1.93319e+06
1.97033e+06
1.98394e+06
1.9677e+06
1.92664e+06
1.85272e+06
1.75416e+06
1.62096e+06
1.46519e+06
1.29008e+06
1.17042e+06
1.12271e+06
1.15831e+06
1.27358e+06
1.42177e+06
1.49557e+06
1.42174e+06
1.21208e+06
1.13788e+06
1.13441e+06
1.19753e+06
1.318e+06
1.44424e+06
1.55201e+06
1.63721e+06
1.69828e+06
1.73201e+06
1.74455e+06
1.73039e+06
1.69402e+06
1.63185e+06
1.54758e+06
1.43738e+06
1.31093e+06
1.18265e+06
1.11663e+06
1.11912e+06
1.18805e+06
1.40851e+06
1.48829e+06
1.58858e+06
1.54902e+06
1.24059e+06
1.12386e+06
1.09606e+06
1.11782e+06
1.19479e+06
1.28937e+06
1.37689e+06
1.44702e+06
1.50038e+06
1.52745e+06
1.54054e+06
1.52715e+06
1.49734e+06
1.44273e+06
1.37196e+06
1.28124e+06
1.18721e+06
1.10306e+06
1.07976e+06
1.10588e+06
1.2129e+06
1.50667e+06
1.63169e+06
1.78803e+06
1.60593e+06
1.26377e+06
1.11731e+06
1.06365e+06
1.05818e+06
1.09684e+06
1.16148e+06
1.23021e+06
1.28623e+06
1.33088e+06
1.35507e+06
1.36415e+06
1.3541e+06
1.32728e+06
1.28178e+06
1.22672e+06
1.15553e+06
1.08764e+06
1.04354e+06
1.04727e+06
1.1042e+06
1.26119e+06
1.62038e+06
1.76861e+06
1.87649e+06
1.66796e+06
1.30488e+06
1.11367e+06
1.02791e+06
1.00495e+06
1.01839e+06
1.05904e+06
1.10511e+06
1.15032e+06
1.18583e+06
1.20527e+06
1.21393e+06
1.20476e+06
1.18436e+06
1.14844e+06
1.10477e+06
1.05758e+06
1.01294e+06
996252
1.01707e+06
1.10316e+06
1.30093e+06
1.69727e+06
1.89147e+06
1.87642e+06
1.70543e+06
1.38003e+06
1.11738e+06
995776
957041
952061
973744
1.00569e+06
1.03488e+06
1.06388e+06
1.0804e+06
1.08699e+06
1.08023e+06
1.06347e+06
1.03376e+06
1.00485e+06
971636
944256
949652
987243
1.10758e+06
1.36977e+06
1.72998e+06
1.89074e+06
1.86845e+06
1.70735e+06
1.46428e+06
1.12504e+06
973435
913393
898625
902415
920363
940099
958625
971215
977066
970552
958153
939477
918672
897864
891838
905301
965114
1.12352e+06
1.48547e+06
1.73112e+06
1.88569e+06
1.85168e+06
1.70597e+06
1.60955e+06
1.15121e+06
965954
877540
846406
840532
847893
859179
872998
880904
884620
881083
872696
859248
847325
840103
844605
876161
959800
1.14464e+06
1.59913e+06
1.72194e+06
1.86915e+06
1.81827e+06
1.70027e+06
1.63343e+06
1.2e+06
969143
848310
803858
790209
787892
789737
796423
801268
805234
802279
796334
789904
788388
788305
798654
840639
962083
1.18588e+06
1.66233e+06
1.71025e+06
1.83666e+06
1.80446e+06
1.68193e+06
1.62995e+06
1.26623e+06
976602
833531
767747
741083
734758
734775
734564
736306
737698
737046
734976
735074
735208
740237
764544
828449
974462
1.2619e+06
1.66115e+06
1.69262e+06
1.78065e+06
1.77894e+06
1.65647e+06
1.62394e+06
1.40296e+06
1.0015e+06
834534
742882
706617
690085
683505
681622
680583
681518
681756
682256
684063
690567
705417
739389
828226
993189
1.37087e+06
1.64396e+06
1.65897e+06
1.76144e+06
1.73063e+06
1.64055e+06
1.60867e+06
1.45362e+06
1.04965e+06
842688
726545
672890
649374
640611
635656
633522
633484
634073
636196
641321
650617
672294
723375
832520
1.03125e+06
1.46975e+06
1.61014e+06
1.61714e+06
1.7252e+06
1.7086e+06
1.60914e+06
1.57074e+06
1.45008e+06
1.12472e+06
856531
727058
656816
623237
605638
598080
594574
593414
594395
598517
606336
624068
655192
723929
850757
1.10631e+06
1.4682e+06
1.544e+06
1.58802e+06
1.68773e+06
1.67192e+06
1.57508e+06
1.50176e+06
1.44224e+06
1.28214e+06
890757
734184
654946
598241
576732
564507
560125
559544
560353
565283
577734
598226
643932
728002
879164
1.23671e+06
1.45013e+06
1.47392e+06
1.5459e+06
1.66423e+06
1.61137e+06
1.53146e+06
1.44284e+06
1.41979e+06
1.30024e+06
959809
754149
656975
590690
558492
542244
533470
530841
533658
541824
557414
586170
645359
741205
937109
1.28832e+06
1.41251e+06
1.42108e+06
1.52946e+06
1.63697e+06
1.59786e+06
1.4981e+06
1.37831e+06
1.36864e+06
1.29434e+06
1.08597e+06
787612
661951
591138
546289
523730
514058
510832
514067
522856
542088
586305
653254
774140
1.05869e+06
1.28331e+06
1.3409e+06
1.36913e+06
1.5114e+06
1.58342e+06
1.57092e+06
1.47984e+06
1.33398e+06
1.29923e+06
1.27367e+06
1.16329e+06
859591
680155
595568
546688
513688
496809
490112
495503
510022
541886
588221
669019
829132
1.14319e+06
1.26107e+06
1.27752e+06
1.32921e+06
1.49431e+06
1.56624e+06
1.52088e+06
1.46272e+06
1.31675e+06
1.24044e+06
1.22682e+06
1.16053e+06
1.00591e+06
719889
609615
549036
513629
494777
489352
493676
509927
543199
595877
702932
939115
1.14021e+06
1.21374e+06
1.22968e+06
1.31938e+06
1.47605e+06
1.53218e+06
1.49355e+06
1.43337e+06
1.31173e+06
1.2013e+06
1.16352e+06
1.14194e+06
1.05717e+06
794587
639234
555025
514898
495448
490001
494326
511386
549408
617405
777021
1.04557e+06
1.12875e+06
1.15627e+06
1.20412e+06
1.31617e+06
1.43991e+06
1.48035e+06
1.46244e+06
1.40438e+06
1.30428e+06
1.18209e+06
1.11215e+06
1.10309e+06
1.05568e+06
954463
706701
573058
520836
498153
492186
496657
515660
564327
658876
921711
1.04546e+06
1.09951e+06
1.11069e+06
1.18658e+06
1.30574e+06
1.39776e+06
1.44963e+06
1.40828e+06
1.35239e+06
1.28961e+06
1.1801e+06
1.09702e+06
1.05766e+06
1.04693e+06
998553
848867
613655
536363
505291
497926
503245
526668
599773
743871
989744
1.03896e+06
1.05306e+06
1.08761e+06
1.17794e+06
1.28656e+06
1.34307e+06
1.40564e+06
1.36727e+06
1.32039e+06
1.26454e+06
1.17852e+06
1.08934e+06
1.03096e+06
1.02622e+06
997447
931435
695808
569469
521589
511775
519390
553103
681565
914726
990525
1.023e+06
1.01809e+06
1.07505e+06
1.16546e+06
1.25861e+06
1.31595e+06
1.35255e+06
1.283e+06
1.27444e+06
1.24275e+06
1.17433e+06
1.09033e+06
1.03108e+06
1.00081e+06
993658
962170
870314
641269
559323
544859
555850
608514
851859
959247
988616
992696
1.0146e+06
1.07514e+06
1.16343e+06
1.24056e+06
1.27482e+06
1.26014e+06
1.13338e+06
1.20233e+06
1.20013e+06
1.16335e+06
1.09013e+06
1.0321e+06
1.00083e+06
991281
968284
917018
762028
643205
622867
637790
721533
912867
964406
983124
989178
1.0154e+06
1.07629e+06
1.15609e+06
1.20771e+06
1.20535e+06
1.11962e+06
71189.6
71058
71094.8
71101.1
71232.8
71133
71012.3
70862.3
70751.9
70689.9
70659.4
70645.5
70639.8
70637.8
70637.1
70637
70636.9
70636.9
70636.9
70636.9
70636.8
70636.7
70636.3
70635.8
70635.6
70636.5
70630.7
70643.8
70609.2
70665.5
71187.6
71035.5
71025.1
71073.8
71236.7
71154.6
71048.8
70892.7
70770.2
70699.2
70663.6
70647.2
70640.4
70637.9
70637.2
70637
70636.9
70636.9
70636.9
70636.9
70636.8
70636.6
70636.2
70635.8
70635.7
70636.6
70631.5
70643.3
70622
70653.2
71185.5
70989.8
70966.8
71069.6
71252.5
71185.6
71084.7
70914.4
70781.5
70704.1
70665.4
70647.7
70640.5
70637.9
70637.2
70637
70636.9
70636.9
70636.9
70636.9
70636.8
70636.5
70636.1
70635.9
70635.9
70636.7
70633.3
70641.8
70630.2
70645.6
71195.9
70937.7
70919.6
71075.9
71289.6
71219.2
71117.6
70931.6
70790.3
70707.6
70666.3
70647.8
70640.5
70637.9
70637.2
70637
70636.9
70636.9
70636.9
70636.9
70636.8
70636.5
70636.1
70635.9
70636.1
70636.7
70634.8
70640.5
70633.5
70642
71199.1
70893.4
70896.6
71091
71325
71246.8
71140.1
70941.4
70794.9
70708.7
70666.4
70647.7
70640.4
70637.9
70637.1
70637
70636.9
70636.9
70636.9
70636.9
70636.8
70636.5
70636.1
70636
70636.2
70636.7
70635.9
70639.6
70635.5
70639.7
71196.7
70860.4
70895.5
71143.3
71354.5
71257.6
71148.3
70941.2
70794.7
70708.4
70666.1
70647.5
70640.2
70637.8
70637.1
70637
70636.9
70636.9
70636.9
70636.9
70636.8
70636.6
70636.2
70636
70636.3
70636.7
70636.7
70639
70636.6
70638.5
71181.8
70840.3
70900.7
71201.9
71374
71255.7
71146.7
70937.2
70792.8
70707.2
70665.5
70647.1
70639.9
70637.7
70637.1
70637
70636.9
70636.9
70636.9
70636.9
70636.8
70636.6
70636.3
70636.1
70636.3
70636.7
70637
70638.6
70637.2
70637.8
71170.6
70830.7
70905.9
71252
71378.7
71250
71141.2
70929.6
70789.4
70705.5
70664.3
70646.2
70639.5
70637.6
70637.1
70637
70636.9
70636.9
70636.9
70636.9
70636.9
70636.7
70636.4
70636.2
70636.3
70636.7
70637.2
70638.2
70637.4
70637.7
71168.1
70830.8
70944
71289.9
71377.9
71237.9
71130.1
70917
70783.8
70702.2
70662.1
70645.1
70639.2
70637.5
70637
70637
70636.9
70636.9
70636.9
70636.9
70636.9
70636.8
70636.6
70636.4
70636.3
70636.7
70637.2
70637.7
70637.6
70637.6
71177.9
70900.5
70973.4
71311.1
71371.4
71210.6
71109.3
70899.5
70774.4
70696.6
70659.4
70644.3
70639
70637.4
70637
70636.9
70636.9
70636.9
70636.9
70636.9
70636.9
70636.8
70636.7
70636.6
70636.4
70636.7
70637
70637.5
70637.6
70638.1
71184.3
70968.7
70990.7
71317.1
71355.3
71175
71082
70878.2
70762.6
70691.2
70657.5
70643.6
70638.8
70637.4
70637
70636.9
70636.9
70636.9
70636.9
70636.9
70636.9
70636.9
70636.8
70636.7
70636.6
70636.6
70637.1
70637.3
70637.6
70638.5
71191
71016.1
71003.7
71320.2
71319.1
71129.6
71048.9
70857.1
70752.5
70687
70655.9
70643
70638.6
70637.3
70637
70636.9
70636.9
70636.9
70636.9
70636.9
70636.9
70636.9
70636.9
70636.8
70636.7
70636.5
70637
70637
70637.1
70637.5
71152.9
71050.4
71012.1
71287.9
71273.9
71080.6
71014.7
70838.2
70743.3
70683
70654.3
70642.5
70638.4
70637.3
70637
70636.9
70636.9
70636.9
70636.9
70636.9
70636.9
70636.9
70636.9
70636.9
70636.9
70636.7
70636.5
70636.7
70636.7
70637.2
71151.2
71081.9
71026.3
71201.9
71221.5
71035.4
70981
70820.4
70734.4
70679.1
70652.8
70641.9
70638.2
70637.2
70637
70636.9
70636.9
70636.9
70636.9
70636.9
70636.9
70636.9
70636.9
70636.9
70636.9
70636.9
70636.6
70636.6
70636.8
70637.2
71184.2
71166.9
71092.8
71153.1
71167.2
70995
70947.5
70803.1
70725.4
70675.3
70651.3
70641.4
70638.1
70637.2
70637
70636.9
70636.9
70636.9
70636.9
70636.9
70636.9
70636.9
70636.9
70636.9
70637
70637
70636.9
70636.8
70637
70637.2
71270.7
71372.3
71318.2
71259.9
71160.5
70964.3
70915
70785.6
70716.4
70671.4
70649.8
70640.9
70637.9
70637.1
70637
70636.9
70636.9
70636.9
70636.9
70636.9
70636.9
70636.9
70636.9
70636.9
70637
70637
70637
70637
70637
70637.2
71551.5
72044.4
72125.1
71806.7
71381.7
71008.7
70894.4
70769.3
70707.3
70667.4
70648.3
70640.4
70637.8
70637.1
70637
70636.9
70636.9
70636.9
70636.9
70636.9
70636.9
70636.9
70636.9
70636.9
70637
70637
70637
70637
70637
70637.1
72504.7
74533.1
75551.7
74632
72579.5
71324.2
70954.4
70765.6
70699.3
70663.4
70646.8
70639.9
70637.7
70637.1
70637
70636.9
70636.9
70636.9
70636.9
70636.9
70636.9
70636.9
70636.9
70636.9
70637
70637
70637
70637
70637
70637.1
75444.3
81660.6
88372.9
86544
78521.4
73112
71302.4
70827.4
70702.7
70660.3
70645.2
70639.4
70637.5
70637.1
70637
70636.9
70636.9
70636.9
70636.9
70636.9
70636.9
70636.9
70636.9
70637
70637
70637
70637
70637
70637
70637.1
83579.9
90114.4
101875
116790
109133
81721.3
73197.2
71136.6
70752.4
70664.5
70644.3
70639
70637.4
70637
70636.9
70636.9
70636.9
70636.9
70636.9
70636.9
70636.9
70636.9
70636.9
70637
70637
70637
70637
70637
70637
70637.1
92575.4
89584.6
99676.8
121301
137539
126741
82233.6
72639.4
70973.8
70695.6
70647.2
70638.8
70637.3
70637
70636.9
70636.9
70636.9
70636.9
70636.9
70636.9
70636.9
70636.9
70636.9
70637
70637
70637
70637
70637
70637.1
70637.1
93853.4
83330.3
86628.5
113862
140173
154974
124248
79209.1
71910.2
70820.5
70662.9
70640.1
70637.3
70637
70636.9
70636.9
70636.9
70636.9
70636.9
70636.9
70636.9
70636.9
70636.9
70637
70637
70637
70637
70637.1
70637.1
70637.1
72348.2
63388.9
70375.6
97040.4
133001
158528
163765
109296
75466
71281.7
70719.7
70646.2
70637.7
70637
70636.9
70636.9
70636.9
70636.9
70636.9
70636.9
70636.9
70636.9
70636.9
70637
70637
70637
70637.1
70637.1
70637.1
70637.1
73016.3
63509.2
66760.8
77925
122614
151903
177663
162388
87297.7
72799.3
70891.1
70666.9
70639.5
70637.1
70636.9
70636.9
70636.9
70636.9
70636.9
70636.9
70636.9
70636.9
70636.9
70637
70637
70637
70637.1
70637.1
70637.1
70637.1
43102.5
44335.4
60101.7
67928
117545
149332
182377
186103
126223
76659.4
71370.3
70718.1
70645
70637.4
70636.9
70636.9
70636.9
70636.9
70636.9
70636.9
70636.9
70636.9
70637
70637
70637
70637
70637.1
70637.1
70637.1
70637.2
70665.5
70609.2
70643.8
70630.7
70636.5
70635.6
70635.8
70636.3
70636.7
70636.8
70636.9
70636.9
70636.9
70636.9
70637
70637.1
70637.8
70639.8
70645.5
70659.3
70689.9
70751.8
70862.2
71012.2
71132.8
71232.7
71101
71094.7
71057.9
71189.9
70653.2
70622
70643.3
70631.5
70636.6
70635.7
70635.8
70636.2
70636.6
70636.8
70636.9
70636.9
70636.9
70636.9
70637
70637.2
70637.9
70640.4
70647.2
70663.6
70699.2
70770.1
70892.6
71048.7
71154.4
71236.7
71073.7
71024.9
71035.4
71187.7
70645.6
70630.2
70641.8
70633.3
70636.7
70635.9
70635.9
70636.1
70636.5
70636.8
70636.9
70636.9
70636.9
70636.9
70637
70637.2
70637.9
70640.5
70647.7
70665.3
70704
70781.5
70914.3
71084.6
71185.5
71252.6
71069.5
70966.7
70989.7
71185.6
70642
70633.5
70640.5
70634.8
70636.7
70636.1
70635.9
70636.1
70636.5
70636.8
70636.9
70636.9
70636.9
70636.9
70637
70637.2
70637.9
70640.5
70647.8
70666.3
70707.5
70790.3
70931.5
71117.6
71219.2
71289.7
71075.7
70919.5
70937.6
71196.1
70639.7
70635.5
70639.6
70635.9
70636.7
70636.2
70636
70636.1
70636.5
70636.8
70636.9
70636.9
70636.9
70636.9
70637
70637.1
70637.9
70640.4
70647.7
70666.4
70708.7
70794.9
70941.4
71140.3
71246.9
71325
71090.8
70896.5
70893.3
71199.2
70638.5
70636.6
70639
70636.7
70636.7
70636.3
70636
70636.2
70636.6
70636.8
70636.9
70636.9
70636.9
70636.9
70637
70637.1
70637.8
70640.2
70647.5
70666.1
70708.4
70794.7
70941.3
71148.4
71257.6
71354.5
71143.2
70895.3
70860.3
71196.5
70637.8
70637.2
70638.6
70637
70636.7
70636.3
70636.1
70636.3
70636.6
70636.8
70636.9
70636.9
70636.9
70636.9
70637
70637.1
70637.7
70639.9
70647.1
70665.5
70707.3
70792.9
70937.3
71146.8
71255.7
71374
71202
70900.6
70840.2
71181.5
70637.7
70637.4
70638.2
70637.2
70636.7
70636.3
70636.2
70636.4
70636.7
70636.9
70636.9
70636.9
70636.9
70636.9
70637
70637.1
70637.6
70639.5
70646.2
70664.3
70705.4
70789.4
70929.6
71141.2
71249.8
71378.7
71251.8
70905.9
70830.8
71170.5
70637.6
70637.6
70637.7
70637.2
70636.7
70636.3
70636.4
70636.6
70636.8
70636.9
70636.9
70636.9
70636.9
70636.9
70637
70637
70637.5
70639.2
70645.1
70662.1
70702.2
70783.7
70916.8
71130
71237.6
71378
71289.9
70944
70830.8
71167.9
70638.1
70637.6
70637.5
70637
70636.7
70636.4
70636.6
70636.7
70636.8
70636.9
70636.9
70636.9
70636.9
70636.9
70636.9
70637
70637.4
70639
70644.3
70659.4
70696.6
70774.4
70899.5
71109.2
71210.4
71371.6
71311.1
70973.3
70900.4
71177.9
70638.5
70637.6
70637.3
70637.1
70636.6
70636.6
70636.7
70636.8
70636.9
70636.9
70636.9
70636.9
70636.9
70636.9
70636.9
70637
70637.4
70638.8
70643.6
70657.5
70691.2
70762.6
70878.3
71082
71175
71355.3
71317
70990.7
70968.6
71184.6
70637.5
70637.1
70637
70637
70636.5
70636.7
70636.8
70636.9
70636.9
70636.9
70636.9
70636.9
70636.9
70636.9
70636.9
70637
70637.3
70638.6
70643
70655.9
70687
70752.5
70857.1
71048.9
71129.7
71319
71319.9
71003.7
71016.3
71191.1
70637.2
70636.7
70636.7
70636.5
70636.7
70636.9
70636.9
70636.9
70636.9
70636.9
70636.9
70636.9
70636.9
70636.9
70636.9
70637
70637.3
70638.4
70642.5
70654.3
70683
70743.3
70838.2
71014.7
71080.6
71273.9
71288
71012.3
71050.6
71153
70637.2
70636.8
70636.6
70636.6
70636.9
70636.9
70636.9
70636.9
70636.9
70636.9
70636.9
70636.9
70636.9
70636.9
70636.9
70637
70637.2
70638.2
70641.9
70652.8
70679.1
70734.4
70820.4
70981
71035.4
71221.5
71201.9
71026.5
71082.1
71151.2
70637.2
70637
70636.8
70636.9
70637
70637
70636.9
70636.9
70636.9
70636.9
70636.9
70636.9
70636.9
70636.9
70636.9
70637
70637.2
70638.1
70641.4
70651.3
70675.3
70725.4
70803.1
70947.5
70995
71167.2
71153.2
71093
71167.1
71184.1
70637.2
70637
70637
70637
70637
70637
70636.9
70636.9
70636.9
70636.9
70636.9
70636.9
70636.9
70636.9
70636.9
70637
70637.1
70637.9
70640.9
70649.8
70671.4
70716.4
70785.7
70915
70964.4
71160.7
71260.3
71318.4
71372.6
71270.4
70637.1
70637
70637
70637
70637
70637
70636.9
70636.9
70636.9
70636.9
70636.9
70636.9
70636.9
70636.9
70636.9
70637
70637.1
70637.8
70640.4
70648.3
70667.4
70707.3
70769.3
70894.5
71009
71382.6
71808.2
72126.7
72045.2
71552
70637.1
70637
70637
70637
70637
70637
70636.9
70636.9
70636.9
70636.9
70636.9
70636.9
70636.9
70636.9
70636.9
70637
70637.1
70637.7
70639.9
70646.8
70663.4
70699.3
70765.7
70954.7
71325.2
72582.9
74637.4
75556
74534.2
72505.8
70637.1
70637
70637
70637
70637
70637
70637
70636.9
70636.9
70636.9
70636.9
70636.9
70636.9
70636.9
70636.9
70637
70637.1
70637.5
70639.4
70645.2
70660.3
70702.8
70827.7
71303.7
73117
78531.7
86562.6
88382.2
81657.7
75443.7
70637.1
70637
70637
70637
70637
70637
70637
70636.9
70636.9
70636.9
70636.9
70636.9
70636.9
70636.9
70636.9
70636.9
70637
70637.4
70639
70644.3
70664.6
70752.6
71137.7
73202.5
81737.1
109147
116745
101849
90085.2
83549.6
70637.1
70637.1
70637
70637
70637
70637
70637
70636.9
70636.9
70636.9
70636.9
70636.9
70636.9
70636.9
70636.9
70636.9
70637
70637.3
70638.8
70647.2
70695.8
70974.5
72643.3
82247
126719
137416
121228
99641.7
89555.5
92513.2
70637.1
70637.1
70637.1
70637
70637
70637
70637
70636.9
70636.9
70636.9
70636.9
70636.9
70636.9
70636.9
70636.9
70636.9
70637
70637.3
70640.1
70663
70821
71913
79217.8
124177
154795
140023
113803
86578.6
83298.9
93814.8
70637.1
70637.1
70637.1
70637.1
70637
70637
70637
70636.9
70636.9
70636.9
70636.9
70636.9
70636.9
70636.9
70636.9
70636.9
70637
70637.7
70646.3
70720
71283.3
75474.8
109315
163608
158307
132785
97063.5
70361.7
63402.2
72277.7
70637.1
70637.1
70637.1
70637.1
70637
70637
70637
70636.9
70636.9
70636.9
70636.9
70636.9
70636.9
70636.9
70636.9
70636.9
70637.1
70639.5
70667
70891.8
72803.2
87326.2
162270
177439
151670
122413
78019.1
66870.6
63622
72566.4
70637.2
70637.1
70637.1
70637.1
70637
70637
70637
70637
70636.9
70636.9
70636.9
70636.9
70636.9
70636.9
70636.9
70636.9
70637.4
70645
70718.4
71372.4
76669.8
126230
185905
182111
149080
117357
67936.7
60255.9
44476.1
42829.5
70637.1
70637.1
70637
70637
70637
70637
70637
70637
70637
70637
70637
70637
70637
70637
70637
70637
70637
70637
70637
70637
70637
70637
70637
70637
70637
70637
70637
70637
70637
70637
70637
70637
70637
70637
70637
70637
70637
70637
70637
70637
70637
70637
70637
70637
70637
70637
70637
70637
70637
70637
70637
70637
70637
70637
70637
70637
70637
70637
70637
70637
70637
70637
70637
70637
70637
70637
70637
70637
70637
70637
70637
70637
70637
70637
70637
70637
70637
70637
70637
70637
70637
70637
70637
70637
70637
70637
70637
70637
70637
70637
70637
70637
70637
70637
70637
70637
70637
70637
70637
70637
70637
70637
70637
70637
70637
70637
70637
70637
70637
70637
70637
70637
70637
70637
70637.1
70637.1
70637.1
70637.1
70637.1
70637.1
70637.1
70637.1
70637.1
70637.2
70637.2
70637
70637
70637
70637
70637
70637
70637
70637
70637
70637
70637
70637
70637
70637
70637
70637
70637
70637
70637
70637
70637
70637
70637
70637
70637
70637
70637
70637
70637
70637
70637
70637
70637
70637
70637
70637
70637
70637
70637
70637
70637
70637
70637
70637
70637
70637
70637
70637
70637
70637
70637
70637
70637
70637
70637
70637
70637
70637
70637
70637
70637
70637
70637
70637
70637
70637
70637
70637
70637
70637
70637
70637
70637
70637
70637
70637
70637
70637
70637
70637
70637
70637
70637
70637
70637
70637
70637
70637
70637
70637
70637
70637
70637
70637
70637
70637
70637
70637
70637
70637
70637
70637
70637
70637
70637
70637
70637
70637
70637
70637
70637
70637
70637
70637
70637
70637
70637
70637
70637
70637
70637
70637.1
70637.1
70637.1
70637.1
70637
70637
70637
70637
70637
70637
70637
70637
70637
70637
70637
70637
70637
70637
70637
70637
70637
70637
70637
70637
70637
70637
70637
70637
70637
70637
70637
70637
70637
70637
70637
70637
70637
70637
70637
70637
70637
70637
70637
70637
70637
70637
70637
70637
70637
70637
70637
70637
70637
70637
70637
70637
70637
70637
70637
70637
70637
70637
70637
70637
70637
70637
70637
70637
70637
70637
70637
70637
70637
70637
70637
70637
70637
70637
70637
70637
70637
70637
70637
70637
70637
70637
70637
70637
70637
70637
70637
70637
70637
70637
70637
70637
70637
70637
70637
70637
70637
70637
70637
70637
70637
70637
70637
70637
70637
70637
70637
70637
70637
70637
70637
70637
70637
70637
70637
70637
70637
70637
70637
70637
70637
70637.1
70637.1
70637.1
70637.1
70637
70637
70637
70637
70637
70637
70637
70637
70637
70637
70637
70637
70637
70637
70637
70637
70637
70637
70637
70637
70637
70637
70637
70637
70637
70637
70637
70637
70637
70637
70637
70637
70637
70637
70637
70637
70637
70637
70637
70637
70637
70637
70637
70637
70637
70637
70637
70637
70637
70637
70637
70637
70637
70637
70637
70637
70637
70637
70637
70637
70637
70637
70637
70637
70637
70637
70637
70637
70637
70637
70637
70637
70637
70637
70637
70637
70637
70637
70637
70637
70637
70637
70637
70637
70637
70637
70637
70637
70637
70637
70637
70637
70637
70637
70637
70637
70637
70637
70637
70637
70637
70637
70637
70637
70637
70637
70637
70637
70637
70637
70637
70637
70637
70637
70637
70637
70637
70637
70637
70637
70637
70637.1
70637.1
70637.1
70637.1
70637
70637
70637
70637
70637
70637
70637
70637
70637
70637
70637
70637
70637
70637
70637
70637
70637
70637
70637
70637
70637
70637
70637
70637
70637
70637
70637
70637
70637
70637
70637
70637
70637
70637
70637
70637
70637
70637
70637
70637
70637
70637
70637
70637
70637
70637
70637
70637
70637
70637
70637
70637
70637
70637
70637
70637
70637
70637
70637
70637
70637
70637
70637
70637
70637
70637
70637
70637
70637
70637
70637
70637
70637
70637
70637
70637
70637
70637
70637
70637
70637
70637
70637
70637
70637
70637
70637
70637
70637
70637
70637
70637
70637
70637
70637
70637
70637
70637
70637
70637
70637
70637
70637
70637
70637
70637
70637
70637
70637
70637
70637
70637
70637
70637
70637
70637
70637
70637
70637
70637
70637
70637
70637
70637
70637
70637
70637
70637
70637
70637
70637
70637
70637
70637
70637
70637
70637
70637
70637
70637
70637
70637
70637
70637
70637
70637
70637
70637
70637
70637
70637
70637
70637
70637
70637
70637
70637
70637
70637
70637
70637
70637
70637
70637
70637
70637
70637
70637
70637
70637
70637
70637
70637
70637
70637
70637
70637
70637
70637
70637
70637
70637
70637
70637
70637
70637
70637
70637
70637
70637
70637
70637
70637
70637
70637
70637
70637
70637
70637
70637
70637
70637
70637
70637
70637
70637
70637
70637
70637
70637
70637
70637
70637
70637
70637
70637
70637
70637
70637
70637
70637
70637
70637
70637
70637
70637
70637
70637
70637
70637
70637
70637
70637
70637
70637
70637
70637
70637
70637
70637
70637
70637
70637
70637
70637
70637
70637
70637
70637
70637
70637
70637
70637
70637
70637
70637
70637
70637
70637
70637
70637
70637
70637
70637
70637
70637
70637
70637
70637
70637
70637
70637
70637
70637
70637
70637
70637
70637
70637
70637
70637
70637
70637
70637
70637
70637
70637
70637
70637
70637
70637
70637
70637
70637
70637
70637
70637
70637
70637
70637
70637
70637
70637
70637
70637
70637
70637
70637
70637
70637
70637
70637
70637
70637
70637
70637
70637
70637
70637
70637
70637
70637
70637
70637
70637
70637
70637
70637
70637
70637
70637
70637
70637
70637
70637
70637
70637
70637
70637
70637
70637
70637
70637
70637
70637
70637
70637
70637
70637
70637
70637
70637
70637
70637
70637
70637
70637
70637
70637
70637
70637
70637
70637
70637
70637
70637
70637
70637
70637
70637
70637
70637
70637
70637
70637
70637
70637
70637
70637
70637
70637
70637
70637
70637
70637
70637
70637
70637
70637
70637
70637
70637
70637
70637
70637
70637
70637
70637
70637
70637
70637
70637
70637