/*--------------------------------*- C++ -*----------------------------------*\
| =========                 |                                                 |
| \\      /  F ield         | OpenFOAM: The Open Source CFD Toolbox           |
|  \\    /   O peration     | Version:  2112                                  |
|   \\  /    A nd           | Website:  www.openfoam.com                      |
|    \\/     M anipulation  |                                                 |
\*---------------------------------------------------------------------------*/
FoamFile
{
    version     2.0;
    format      ascii;
    arch        "LSB;label=32;scalar=64";
    class       volVectorField;
    location    "0.00054";
    object      U;
}
// * * * * * * * * * * * * * * * * * * * * * * * * * * * * * * * * * * * * * //

dimensions      [0 1 -1 0 0 0 0];

internalField   nonuniform List<vector> 
13875
(
(2210.93 110.942 1.79928e-18)
(2139.74 9.52241 -9.33436e-19)
(2169.47 -1.82891 -9.42369e-19)
(2171.08 -1.43485 0)
(2169.4 -0.0535799 0)
(2169.1 -1.54022 9.37134e-19)
(2169.04 -1.23867 -9.37678e-19)
(2170.36 -0.404183 -4.6818e-19)
(2169.49 0.442987 4.67943e-19)
(2169.75 0.900994 0)
(2169.77 0.394864 -3.85895e-22)
(2169.79 0.0930894 -3.85739e-22)
(2169.85 0.019697 0)
(2169.83 -0.0360654 -4.67942e-19)
(2169.62 -0.774648 4.68399e-19)
(2169.46 -1.01102 0)
(2169.72 -0.263734 9.37137e-19)
(2169.29 0.102259 -9.37741e-19)
(2168.61 0.444604 3.88594e-22)
(2168.63 1.16885 -3.88257e-22)
(2169.28 1.50864 -9.35768e-19)
(2171.44 2.38524 9.34417e-19)
(2167.59 2.95013 -1.88771e-18)
(2139.71 -9.24476 1.92567e-18)
(2204.92 -107.991 1.78072e-18)
(2257.05 94.0949 -1.63132e-18)
(2227.57 -3.48449 1.88148e-18)
(2247.03 -1.21771 8.70395e-19)
(2247.8 2.11994 -8.67249e-19)
(2247.93 0.799861 4.17641e-22)
(2247.71 1.43918 5.19954e-22)
(2246.26 0.853443 4.1616e-22)
(2246.77 0.942958 -4.3511e-19)
(2245.82 -0.113371 4.34921e-19)
(2247.17 -1.43143 2.16435e-19)
(2247.99 -0.528228 -1.6259e-19)
(2248.18 -0.000711285 -5.28975e-20)
(2248.22 -0.0383843 0)
(2248.11 0.0275425 -4.34607e-19)
(2247.8 1.26562 4.33324e-19)
(2246.57 1.05196 4.35842e-19)
(2245.74 0.0438615 -4.34813e-19)
(2245.5 0.358725 5.18094e-22)
(2245.29 -0.0746086 -5.18369e-22)
(2245.78 -1.19619 5.18678e-22)
(2247.17 -2.5114 -8.68711e-19)
(2247.7 -3.07634 2.60318e-18)
(2245.8 0.256 -1.72156e-18)
(2227.63 5.71275 5.42802e-22)
(2255.66 -94.3243 -1.69646e-18)
(2257.21 80.1308 0)
(2233.85 -13.9829 0)
(2248.52 3.14066 0)
(2252.82 -2.21047 0)
(2253.02 -0.868953 -1.71106e-18)
(2253.3 1.28338 1.64597e-18)
(2253.12 1.07554 1.642e-18)
(2253.74 -0.270788 -2.46116e-18)
(2253.91 -0.88709 8.61714e-19)
(2254.21 -1.80054 4.28604e-22)
(2254.5 -0.824857 -4.09584e-19)
(2254.64 -0.272773 4.09786e-19)
(2254.66 0.00264958 0)
(2254.56 0.306295 0)
(2254.35 1.26714 4.08164e-22)
(2254.45 2.00929 0)
(2253.62 1.31114 8.40035e-22)
(2253.22 0.447712 4.31015e-19)
(2252.61 -0.148624 -4.31132e-19)
(2252.48 -1.23963 0)
(2252.6 -1.00983 0)
(2252.25 1.09532 0)
(2245.75 -1.91029 0)
(2233.13 14.4153 0)
(2253.38 -73.5776 0)
(2250.74 54.0163 0)
(2233.02 -29.6931 1.81885e-18)
(2248.21 5.22499 -3.42009e-18)
(2251.47 -4.37961 3.42461e-18)
(2252.76 -2.09607 -1.72232e-18)
(2253.27 1.03515 0)
(2253.06 1.11456 -7.80274e-22)
(2253.66 -0.618975 0)
(2254.12 -1.4181 0)
(2254.21 -1.8873 0)
(2254.47 -0.88524 0)
(2254.61 -0.338793 -7.92066e-22)
(2254.61 0.000674669 -5.04537e-20)
(2254.54 0.380931 5.05514e-20)
(2254.33 1.25869 0)
(2254.44 2.38825 0)
(2253.82 2.01272 8.41178e-22)
(2253.32 0.876054 -8.63327e-19)
(2252.66 0.153747 8.55195e-19)
(2252.73 -0.706208 -1.70516e-18)
(2252.7 0.420295 1.72334e-18)
(2250.83 3.4837 1.73661e-18)
(2245 -6.15815 -1.73199e-18)
(2233.56 30.5653 0)
(2251.17 -61.9302 0)
(2249.45 43.1945 1.73552e-18)
(2232.61 -41.856 0)
(2247.43 9.22697 0)
(2252.36 -7.99133 0)
(2252.28 -2.85334 0)
(2252.79 0.83445 1.62391e-21)
(2252.87 1.01639 1.60654e-21)
(2253.52 -1.6056 4.26688e-19)
(2254.07 -2.45452 -4.3072e-19)
(2254.12 -2.00032 2.09241e-19)
(2254.38 -1.02579 -2.11584e-19)
(2254.48 -0.49118 0)
(2254.49 0.0641707 0)
(2254.44 0.568755 -1.64275e-21)
(2254.24 1.28416 0)
(2254.29 2.96057 -1.68692e-21)
(2253.54 3.18705 8.62202e-19)
(2253.39 1.78805 -8.5712e-19)
(2252.36 0.399716 1.71866e-18)
(2252.35 -0.336702 -1.67878e-18)
(2251.81 1.60152 1.69567e-21)
(2251.77 7.52873 0)
(2244.14 -8.18745 0)
(2231.71 40.0928 0)
(2246.46 -35.0407 0)
(2243.33 11.0726 0)
(2228.83 -63.1505 9.15705e-19)
(2245.25 10.0704 -8.47754e-19)
(2249.7 -10.6021 0)
(2251.83 -4.48622 8.65074e-19)
(2252.49 -0.144813 -4.2479e-19)
(2252.28 0.595079 -2.44534e-21)
(2252.98 -2.34403 -2.18052e-19)
(2254.1 -3.06083 -4.32754e-19)
(2253.94 -1.94919 1.57847e-19)
(2254.16 -0.989097 1.66306e-21)
(2254.25 -0.465735 2.68074e-19)
(2254.25 -0.0111462 -2.12427e-19)
(2254.23 0.556622 3.3125e-21)
(2254.05 1.18052 -4.16304e-19)
(2254.03 2.99488 4.30101e-19)
(2253.7 3.85901 1.68744e-21)
(2252.84 2.48019 -1.68019e-21)
(2252.21 0.942434 -1.68284e-21)
(2252.32 0.78689 -8.46448e-19)
(2251.73 3.64508 8.62665e-19)
(2249.04 10.5379 0)
(2241.11 -11.4962 0)
(2228.39 61.3613 -1.9304e-18)
(2243.96 -27.5585 -1.20383e-19)
(2263.41 6.21553 -4.93596e-20)
(2223.46 -74.1165 6.07138e-20)
(2238.93 10.8021 0)
(2248.93 -18.1514 -2.62935e-23)
(2249.96 -5.27495 -2.66532e-23)
(2250.84 -0.837 0)
(2252.31 -0.966657 0)
(2253 -3.95727 -8.58289e-19)
(2253.6 -4.09043 8.51009e-19)
(2253.52 -2.10999 0)
(2253.72 -1.21204 1.68751e-18)
(2253.8 -0.488795 1.00735e-21)
(2253.81 0.12718 -1.718e-18)
(2253.79 0.762251 -1.69452e-21)
(2253.63 1.36616 0)
(2253.48 3.31463 3.37353e-18)
(2253.39 5.04886 1.05326e-20)
(2252.97 3.84836 -6.86594e-18)
(2251.98 2.13754 3.41217e-18)
(2250.8 1.88605 2.62515e-23)
(2249.36 5.85991 0)
(2247.16 17.752 3.50399e-18)
(2234.36 -8.62968 -3.38873e-18)
(2218.24 67.6012 3.86284e-18)
(2235.68 -0.916194 -3.23883e-18)
(2209.77 -19.4532 -3.45383e-19)
(2206.44 -86.8109 -7.61335e-18)
(2229.41 0.390104 8.8941e-22)
(2239.67 -21.9016 2.59421e-23)
(2246.28 -8.34594 -8.26469e-22)
(2249.33 -3.81116 0)
(2250.37 -2.34359 -3.36584e-18)
(2251.74 -4.54464 3.40876e-18)
(2252.5 -3.96948 0)
(2252.55 -1.76037 -8.22145e-22)
(2252.83 -0.972591 -8.35963e-22)
(2252.9 -0.479449 0)
(2252.9 0.106462 0)
(2252.9 0.685507 -1.66289e-21)
(2252.78 1.08264 -8.35742e-22)
(2252.56 2.7976 2.55803e-23)
(2252.48 5.08085 -8.52254e-22)
(2251.79 4.69184 -2.5965e-23)
(2250.22 3.43672 -1.71274e-18)
(2249.31 5.1781 -2.41772e-20)
(2245.76 11.0054 1.71177e-18)
(2236.08 23.1619 9.07987e-22)
(2221.85 4.11952 3.58862e-18)
(2194.35 85.0885 -3.60381e-18)
(2175.42 15.1269 2.57638e-23)
(2080.35 -37.0651 9.48592e-19)
(2145 -98.5586 0)
(2201.49 -25.1472 -8.43901e-22)
(2230.85 -39.7846 -8.61086e-19)
(2237.51 -16.5743 1.74076e-18)
(2243.88 -8.23443 -1.73523e-18)
(2248.7 -7.56657 1.22954e-20)
(2249.78 -7.41941 8.49548e-19)
(2250.36 -5.34954 0)
(2250.67 -2.63571 -8.45461e-19)
(2251.02 -1.33663 8.59887e-19)
(2251.06 -0.219844 0)
(2251.04 0.215032 0)
(2251.04 0.568258 2.10091e-21)
(2250.98 1.2648 8.34789e-22)
(2250.66 3.32357 8.50082e-19)
(2250.51 6.34825 -8.40721e-19)
(2249.99 7.88728 0)
(2248.53 7.71727 8.67235e-19)
(2243.84 10.7515 -1.7342e-18)
(2235.2 21.2965 8.53614e-19)
(2224.41 46.2403 -8.3762e-22)
(2183.81 36.508 0)
(2102.39 115.322 0)
(1950.78 52.2465 0)
(1808.19 -153.324 -7.05711e-17)
(2080.08 -178.928 8.88831e-17)
(2167.85 -66.7158 0)
(2212.45 -60.0065 -3.06324e-17)
(2229.25 -29.5591 3.13777e-17)
(2238.92 -16.9704 0)
(2242.94 -9.86338 -3.04204e-20)
(2245.28 -7.30014 -1.47687e-17)
(2246.19 -3.77766 1.46729e-17)
(2246.77 -1.70107 -3.00173e-20)
(2247.21 -1.46363 0)
(2247.21 -0.271274 -3.74806e-18)
(2247.17 0.224859 5.5964e-18)
(2247.18 0.69187 -1.90493e-18)
(2247.18 1.36934 -2.99188e-20)
(2246.74 2.16011 0)
(2246.49 4.97692 0)
(2245.41 8.19253 -2.98022e-17)
(2243.19 11.3663 2.97703e-17)
(2238.31 21.6477 -3.07896e-17)
(2226.4 40.7388 2.92688e-17)
(2198.2 72.7876 3.59496e-17)
(2143.61 114.391 -3.07185e-17)
(1986.85 263.033 -1.0929e-16)
(1524.16 188.303 -2.46277e-17)
(1584.52 -235.103 -1.00587e-16)
(1924.73 -337.335 1.42469e-16)
(2089.31 -141.248 0)
(2179.77 -90.8011 6.88745e-17)
(2205.3 -36.8573 -7.46217e-17)
(2225.06 -24.287 -3.41995e-17)
(2232.39 -18.6093 3.46332e-17)
(2235.83 -11.4165 -3.37896e-17)
(2237.52 -6.20498 3.40334e-17)
(2238.55 -3.2819 3.2702e-20)
(2238.93 -1.28828 0)
(2238.84 0.00749165 -2.14079e-18)
(2238.79 0.263891 2.17942e-18)
(2238.82 0.484577 3.28271e-20)
(2238.92 1.21277 3.2752e-20)
(2238.4 3.05405 3.50909e-20)
(2237.84 6.70692 0)
(2235.81 12.5682 0)
(2233.19 18.5673 -7.04712e-17)
(2223.19 26.6993 6.83815e-17)
(2200.15 47.4321 -7.78044e-17)
(2162.6 127.261 1.56316e-16)
(2028.6 186.007 -7.75553e-17)
(1772.61 519.842 -4.51311e-20)
(1159.84 567.388 7.63416e-20)
(1170.06 -566.392 -1.20542e-16)
(1472.78 -717.151 9.61582e-17)
(1795.89 -200.723 2.66715e-16)
(2058.19 -159.993 -1.20767e-16)
(2145.2 -79.0539 0)
(2190.66 -42.5412 7.6565e-17)
(2201.78 -13.9381 -7.97551e-17)
(2210.97 -5.43292 0)
(2215.31 -1.55377 3.52565e-20)
(2217.62 -1.3387 0)
(2217.95 -1.59235 0)
(2217.55 -0.490275 0)
(2217.42 0.14645 4.8055e-18)
(2217.55 0.824062 -4.80784e-18)
(2217.97 1.74455 -4.18178e-20)
(2217.45 1.48317 -3.53689e-20)
(2215.64 2.14514 0)
(2210.21 5.93842 0)
(2205.15 18.9642 0)
(2187.44 52.5262 -8.56284e-17)
(2141.02 97.9154 1.776e-16)
(1965.48 154.881 -9.6769e-17)
(1749.79 440.343 -1.94457e-16)
(1217.54 946.789 1.13417e-16)
(1108.93 610.132 -8.22204e-20)
(1184.81 -565.567 1.71587e-16)
(1058.31 -940.343 0)
(1118.77 -760.716 0)
(1599.34 -499.205 -1.19606e-16)
(1861.89 -113.354 1.62978e-16)
(2054.71 -71.7233 0)
(2121.69 -62.7405 1.58271e-20)
(2137.19 -35.135 4.55488e-17)
(2146.54 -20.86 -4.64427e-17)
(2151.39 -7.35689 0)
(2149.62 -0.0551667 -1.14171e-17)
(2146.84 1.62786 1.14489e-17)
(2145.58 0.342718 -5.75326e-18)
(2146.72 -0.893791 5.76089e-18)
(2149.55 0.282127 4.02178e-20)
(2151.03 6.60282 -4.57005e-17)
(2146.82 19.5064 9.20467e-17)
(2137.06 38.231 1.97683e-18)
(2123.42 50.695 -4.5191e-17)
(2024.76 61.7604 -1.3377e-16)
(1914.93 204.577 1.08072e-16)
(1367.2 660.489 7.78984e-20)
(1275.76 712.935 2.08911e-20)
(1176.27 948.031 1.66008e-16)
(1121.52 602.186 3.15887e-18)
(1243.17 -574.45 0)
(1076.3 -957.205 0)
(1127.48 -815.458 0)
(1106.32 -754.532 0)
(1130.58 -777.184 0)
(1632.15 -457.041 1.39667e-16)
(1835.73 -29.9567 -1.66345e-16)
(1865.17 26.8016 2.33366e-19)
(1897.73 32.599 -1.25559e-20)
(1907.29 9.08701 3.26087e-17)
(1894.09 -2.84729 -3.30062e-17)
(1879.81 -3.16157 -4.80523e-19)
(1872.32 -0.692239 -1.047e-18)
(1879.07 2.05106 1.27201e-18)
(1893.65 3.79311 -3.27255e-17)
(1905.92 -5.30109 3.23785e-17)
(1895.19 -27.5072 2.07856e-19)
(1866.38 -14.7207 0)
(1854.59 72.8579 0)
(1550.06 540.909 0)
(1262.49 759.09 -1.83497e-16)
(1140.48 797.535 -1.21107e-17)
(1254.25 746.781 1.6832e-16)
(1178.53 906.293 2.12064e-20)
(1157.75 564.371 2.25974e-20)
(1321.07 -562.686 0)
(1174.79 -842.659 4.1632e-20)
(1178.5 -776.579 0)
(1132.37 -757.505 -1.85494e-16)
(1102.94 -734.323 3.76654e-16)
(1044.2 -691.374 -1.92096e-16)
(999.631 -572.434 0)
(1028.41 -494.861 -1.45901e-19)
(1018.11 -220.452 0)
(970.551 -25.6221 0)
(894.568 59.7239 -3.10664e-17)
(828.288 64.2111 3.06498e-17)
(780.358 4.45974 3.06722e-17)
(820.335 -57.1941 -3.1252e-17)
(896.51 -62.1415 0)
(964.589 12.984 -1.22999e-16)
(1019.61 197.848 1.17462e-16)
(1043.79 465.041 1.13475e-16)
(1061.04 550.728 -9.27946e-17)
(1062.11 694.483 0)
(1166.02 705.153 0)
(1174.24 772.607 -1.74095e-19)
(1277.88 723.905 -1.71127e-16)
(1238.49 813.483 3.80626e-16)
(1191.83 546.229 -1.90334e-16)
(1388.47 -565.85 -1.80851e-16)
(1290.55 -801.486 1.98741e-16)
(1281.77 -693.647 0)
(1170.32 -674.498 -2.17668e-16)
(1129.25 -591.297 -3.28176e-17)
(1023.84 -525.564 3.33666e-16)
(934.393 -395.23 -2.34582e-16)
(685.71 -177.069 1.17942e-16)
(460.558 -39.529 0)
(298.947 19.9615 0)
(149.106 47.9768 -4.67603e-20)
(21.839 31.2307 1.61512e-19)
(-39.1107 -3.22842 0)
(8.40956 -36.4422 0)
(126.849 -59.9104 6.75752e-17)
(275.745 -46.2132 -6.78105e-17)
(441.85 10.373 -1.29277e-16)
(674.137 145.815 2.53263e-16)
(984.607 374.609 -2.21852e-17)
(1060.17 516.908 -1.27954e-16)
(1174.8 568.759 0)
(1192.24 662.208 0)
(1317.26 650.108 -1.8816e-16)
(1301.77 744.396 2.14285e-16)
(1261.69 555.089 -5.02276e-20)
(1509.38 -520.744 1.75921e-16)
(1411.38 -619.81 -1.0357e-19)
(1414.4 -501.783 1.09418e-16)
(1338.73 -484.555 -9.1164e-17)
(1287.25 -393.315 -5.16185e-20)
(1133.73 -275.479 1.08713e-19)
(1044.01 -123.974 1.23896e-16)
(796.562 -101.363 -1.81489e-16)
(623.768 -64.6487 6.45539e-17)
(523.128 -95.5472 0)
(466.512 -87.7747 -3.21949e-17)
(441.057 -72.1232 3.34356e-17)
(437.298 -12.8393 0)
(435.096 53.7817 6.0024e-20)
(452.02 78.6802 -3.35877e-17)
(506.325 82.3494 3.19299e-17)
(604.719 64.0401 0)
(787.453 97.1268 -1.20297e-16)
(1064.2 135.808 1.22371e-16)
(1147.68 272.278 1.04715e-16)
(1300.53 381.809 -2.09623e-16)
(1349.34 473.399 1.10492e-16)
(1442.14 524.398 0)
(1445.92 639.681 1.8358e-16)
(1402.58 507.119 -7.03772e-18)
(1652.85 -411.135 -4.95051e-18)
(1576.27 -389.784 9.6467e-17)
(1447.13 -241.01 -4.28468e-17)
(1291.52 -134.369 -6.07439e-17)
(1251.3 -68.0557 8.11505e-17)
(1163.86 -32.637 -5.58262e-17)
(1138.47 -89.6006 5.65216e-17)
(1044.23 -163.852 -5.86461e-17)
(953.377 -169.151 3.869e-19)
(850.323 -158.842 3.07443e-17)
(763.25 -114.358 1.55016e-17)
(699.033 -58.1476 -6.68272e-20)
(678.206 3.05136 -1.56709e-17)
(704.853 62.0487 -5.84676e-20)
(771.606 112.758 -7.35905e-20)
(860.299 148.777 -1.92004e-18)
(957.973 160.233 -3.85034e-20)
(1054.63 147.511 5.49219e-18)
(1139.4 62.7808 -3.53373e-18)
(1169.98 28.0943 0)
(1279.09 84.8667 1.26075e-17)
(1310.69 139.61 -3.90827e-17)
(1483.2 255.883 4.85082e-17)
(1554.78 358.273 -6.7647e-17)
(1564.91 386.454 6.67952e-17)
(1772.09 -273.882 -1.25947e-19)
(1724.14 23.5615 -1.41599e-19)
(1624.95 89.298 1.53485e-19)
(1503.38 21.7457 -6.6329e-21)
(1364.47 46.0187 -1.79945e-19)
(1288.34 25.1983 -2.02221e-19)
(1271.25 -49.9394 -7.71416e-21)
(1227.68 -108.14 0)
(1153.45 -136.26 0)
(1050.02 -129.305 5.95555e-17)
(949.564 -95.4985 -6.00996e-17)
(874.5 -49.492 -7.85103e-21)
(846.16 -1.28306 7.85322e-21)
(867.941 46.0999 -7.8451e-18)
(936.665 90.5444 7.57969e-18)
(1036.05 123.873 0)
(1141.35 135.657 0)
(1221.88 114.05 -5.59139e-17)
(1258.24 57.5115 5.5644e-17)
(1278.66 -19.8063 -1.91355e-19)
(1377.41 -59.9456 0)
(1515.81 -40.1948 0)
(1643.13 -58.5726 -1.54133e-19)
(1681.58 -56.1827 -1.46391e-19)
(1702.41 190.435 1.70193e-16)
(1533.83 121.551 -2.1077e-16)
(1531.72 473.707 -2.59323e-16)
(1587.02 457.382 1.47455e-16)
(1579.64 312.949 0)
(1481.31 227.51 2.30935e-19)
(1417.87 143.721 1.0962e-16)
(1375.91 51.5115 -2.16395e-16)
(1343.09 -11.9229 1.07362e-16)
(1285.17 -54.2243 -1.14652e-16)
(1197.59 -64.6339 1.13211e-16)
(1104.33 -55.0282 2.95856e-17)
(1031.32 -30.4948 -3.70601e-17)
(1002.67 1.40971 -7.48456e-18)
(1025.02 33.2127 1.50743e-17)
(1093.6 57.2323 0)
(1187.2 66.22 0)
(1277.8 56.5166 1.10104e-16)
(1340.74 19.1818 -2.20283e-16)
(1376.04 -46.6332 1.1144e-16)
(1431.34 -145.674 2.39643e-19)
(1495.85 -249.387 1.87732e-16)
(1591.77 -328.18 -5.11377e-17)
(1601.2 -465.679 -5.30459e-16)
(1514.25 -514.695 6.47436e-16)
(1386.42 -158.773 -3.17279e-16)
(818.909 603.76 1.3471e-19)
(1370.72 851.689 -1.94245e-16)
(1581.6 734.25 1.4347e-16)
(1595.81 573.146 0)
(1555.22 385.672 0)
(1503.06 262.515 0)
(1455.03 159.85 0)
(1422.3 88.9856 0)
(1375.53 35.1614 -4.98503e-17)
(1307.21 4.67683 9.94672e-17)
(1230.4 -9.4684 -7.6073e-17)
(1168.28 -7.18533 2.87708e-17)
(1144.43 4.48089 -3.23007e-18)
(1166.44 15.5085 1.37201e-20)
(1227.31 16.1819 -5.03558e-17)
(1304.6 0.206288 5.08599e-17)
(1374.9 -32.4268 0)
(1426.08 -85.1301 0)
(1466.77 -160.876 -1.79359e-16)
(1525.16 -271.672 1.90916e-16)
(1570.51 -410.032 -1.76735e-19)
(1595.58 -593.839 7.26207e-20)
(1556.48 -755.221 -9.26622e-20)
(1370.82 -830.362 -8.73977e-20)
(711.412 -581.29 0)
(739.066 490.828 -1.8734e-16)
(1406.69 809.604 1.76469e-16)
(1533.98 892.393 -1.408e-19)
(1626.05 713.136 1.59458e-16)
(1596.94 543.689 -1.35816e-16)
(1559.87 385.902 0)
(1519.69 260.328 -8.43497e-17)
(1486.23 177.767 7.84469e-17)
(1450.07 112.657 -4.34251e-17)
(1400.05 64.7365 8.63582e-17)
(1341.22 30.8383 -4.32674e-17)
(1292.52 13.0815 1.62672e-19)
(1274.23 4.54434 0)
(1293.43 -5.07214 2.21377e-17)
(1342.34 -25.3034 2.09857e-17)
(1401.49 -61.5342 -4.38772e-17)
(1453.16 -112.135 -8.07852e-17)
(1494.71 -180.595 8.54069e-17)
(1534.35 -268.638 -7.57832e-17)
(1579.73 -403.021 8.2028e-17)
(1611.11 -568.907 8.34618e-20)
(1620.99 -733.901 -7.9345e-20)
(1511.81 -905.223 0)
(1394 -808.673 7.26112e-20)
(683.615 -492.827 0)
(877.544 422.185 1.74342e-16)
(1422.07 774.722 -1.61298e-16)
(1528.79 897.111 5.33413e-20)
(1640.44 784.907 0)
(1617.76 649.987 0)
(1604.01 492.292 -7.71417e-21)
(1570.55 366.655 0)
(1543.48 270.401 7.70044e-20)
(1517.51 186.554 0)
(1482.69 120.692 3.86783e-17)
(1439.8 68.6571 -5.73578e-17)
(1403.59 31.979 2.88366e-17)
(1389.91 3.99789 -9.68939e-18)
(1404.3 -24.4481 0)
(1441.12 -62.4189 0)
(1485.13 -115.987 3.64273e-17)
(1522.47 -186.271 -1.08141e-16)
(1554.24 -270.034 7.48803e-17)
(1585.74 -365.98 -6.52573e-17)
(1622.21 -500.444 7.18665e-17)
(1630.47 -660.877 0)
(1647.28 -795.155 0)
(1518 -901.679 0)
(1415.31 -779.207 -9.28069e-21)
(851.117 -406.606 -1.90613e-16)
(999.984 413.529 -3.24566e-20)
(1449.53 718.289 1.27079e-16)
(1538.81 866.965 -1.2346e-16)
(1640.11 793.49 0)
(1636.73 702.788 0)
(1633.19 562.303 8.07025e-21)
(1611.37 443.522 6.64155e-17)
(1595.92 340.429 -6.09828e-17)
(1578.44 247.639 3.00079e-20)
(1554.98 168.347 3.07087e-20)
(1525.06 101.987 3.12013e-20)
(1499.89 48.5601 -9.11408e-21)
(1490.71 3.8862 -9.12533e-21)
(1501.38 -41.5674 1.69789e-17)
(1528.16 -96.4096 -1.7384e-17)
(1559.51 -164.097 3.95284e-20)
(1585.92 -245.881 3.8646e-20)
(1606.36 -338.587 0)
(1627.32 -442.138 -5.84794e-17)
(1651.76 -567.404 6.44409e-17)
(1647.76 -710.178 0)
(1646.83 -802.883 -1.13424e-16)
(1530.79 -868.679 1.14287e-16)
(1436.49 -718.985 7.71194e-21)
(992.188 -419.072 -1.73705e-16)
(1114.83 436.791 3.8365e-20)
(1473.29 649.708 0)
(1550.34 806.225 0)
(1637.28 786.135 -5.31207e-17)
(1643.67 722.362 5.37412e-17)
(1653.05 615.088 0)
(1645.02 504.067 6.0884e-17)
(1638.9 397.133 -5.6089e-17)
(1630.43 296.949 3.12596e-17)
(1616.62 207.49 -2.97892e-17)
(1597.98 129.113 1.57667e-17)
(1581.97 61.5092 -1.55268e-17)
(1576.01 1.52602 0)
(1583.41 -59.4506 -1.54051e-17)
(1600.86 -128.172 1.58177e-17)
(1620.71 -207.971 -3.24203e-20)
(1636.59 -299.91 -3.18222e-20)
(1647.19 -401.005 5.38275e-20)
(1657.53 -509.646 5.44299e-17)
(1666.8 -624.02 -5.94224e-17)
(1653.62 -731.997 -5.10279e-20)
(1643.65 -795.335 -5.09947e-20)
(1550.31 -807.497 0)
(1466.5 -660.279 -6.59459e-20)
(1091.11 -420.189 3.82254e-20)
(1163.84 429.209 1.4209e-22)
(1491.46 577.693 0)
(1573.96 730.303 1.09946e-22)
(1631.29 767.174 5.15057e-20)
(1644.73 721.036 -9.39092e-23)
(1664.06 642.526 -5.43759e-17)
(1669.63 545.439 5.08909e-17)
(1673.14 441.167 0)
(1673.94 338.37 -5.77225e-20)
(1669.18 241.839 -9.96305e-23)
(1659.91 153.591 -1.00625e-22)
(1651.29 74.158 5.97451e-20)
(1647.78 1.21977 0)
(1652.28 -72.4135 0)
(1661.84 -152.4 -1.004e-22)
(1672.41 -241.02 -9.93754e-23)
(1679.02 -338.419 -2.62197e-17)
(1680.57 -441.84 7.92044e-17)
(1680.31 -546.806 -5.53158e-17)
(1675.24 -648.63 0)
(1654.17 -728.575 -5.009e-17)
(1636.69 -775.461 5.12738e-17)
(1574.54 -732.673 1.0984e-22)
(1487.08 -574.935 6.01289e-20)
(1160.72 -445.588 1.40072e-22)
(1227.19 413.19 4.52714e-19)
(1501.33 491.665 1.34451e-17)
(1589.3 647.533 1.24293e-16)
(1627.44 727.878 -4.89875e-17)
(1650.33 711.408 5.02665e-17)
(1674.15 648.479 -4.94746e-17)
(1690.07 566.395 4.74583e-17)
(1701.39 467.106 -2.54717e-17)
(1709.1 364.371 2.40628e-17)
(1712.19 265.69 1.03716e-22)
(1711.01 171.755 1.04931e-22)
(1708.72 84.1401 -1.05547e-22)
(1707.53 1.29133 6.36516e-18)
(1709.73 -82.0077 6.23032e-18)
(1713 -169.97 -1.30221e-17)
(1715.21 -264.645 1.03702e-22)
(1713.31 -364.791 4.81083e-17)
(1707.23 -468.973 -9.84075e-17)
(1697.72 -569.886 5.04934e-17)
(1683.03 -655.062 0)
(1656.74 -720.263 -9.38913e-23)
(1627.42 -737.05 9.68588e-23)
(1581.86 -655.241 -1.02898e-22)
(1500.32 -489.882 -1.22394e-16)
(1220.5 -395.682 1.3047e-16)
(1230.42 384.096 1.18798e-19)
(1497.13 417.045 0)
(1585.74 568.828 0)
(1627.03 679.375 4.73896e-20)
(1661.06 694.458 9.04324e-20)
(1687.13 643.072 0)
(1710.2 571.954 4.61495e-17)
(1728.25 482.444 -4.40077e-17)
(1741.28 381.57 4.22815e-20)
(1749.56 279.891 -4.27147e-20)
(1753.58 180.647 -1.1836e-17)
(1755.18 86.5852 1.16647e-17)
(1755.2 -3.44725 3.02315e-18)
(1754.82 -93.8839 -2.9527e-18)
(1753.05 -187.787 1.14783e-17)
(1749.38 -286.61 -3.42901e-17)
(1741.58 -388.806 2.34919e-17)
(1729.36 -490.401 -4.6702e-20)
(1712.1 -580.907 4.25275e-20)
(1689.7 -652.593 -4.59351e-17)
(1660.36 -701.165 -3.22925e-18)
(1631.38 -679.392 -8.06958e-18)
(1588.14 -553.756 4.85829e-17)
(1472.19 -417.409 6.01256e-20)
(1216.45 -384.928 5.7349e-20)
(1208.37 373.28 1.19593e-16)
(1455.77 361.934 -1.1016e-16)
(1593.54 437.229 0)
(1637.94 603.954 -4.31689e-17)
(1666.87 664.779 4.66399e-18)
(1698.31 637.996 4.32972e-17)
(1725.02 575.238 4.20953e-17)
(1749.37 493.548 -4.10559e-17)
(1767.53 398.157 -4.34857e-20)
(1780.83 297.849 -2.16369e-17)
(1789.25 196.174 1.01702e-17)
(1794.05 97.3774 1.06075e-17)
(1795.41 1.94682 -4.48427e-20)
(1794.23 -93.8037 0)
(1789.84 -192.863 0)
(1782 -294.533 0)
(1769.37 -395.209 4.33238e-20)
(1752.05 -491.612 9.7576e-21)
(1728.4 -575.113 -5.17217e-20)
(1700.63 -641.343 0)
(1664.44 -673.643 4.24789e-20)
(1633.04 -621.142 1.14817e-20)
(1591.87 -447.086 -6.21063e-20)
(1459.45 -354.916 -1.09993e-16)
(1204.91 -367.713 1.18133e-16)
(1187.65 346.123 5.68636e-17)
(1453.79 301.625 -1.0324e-16)
(1570.66 341.568 9.91533e-17)
(1640.39 540.612 -5.29471e-17)
(1670.16 626.348 -3.9432e-17)
(1711.28 621.35 4.13617e-17)
(1740.94 565.751 1.92673e-17)
(1770.23 490.402 -1.91856e-17)
(1791.97 399.958 9.79375e-18)
(1808.26 299.931 -1.94222e-17)
(1819.48 197.154 1.46301e-17)
(1826.19 96.3152 -6.15203e-18)
(1828.05 -1.89796 1.23558e-18)
(1825.75 -100.422 -3.6913e-20)
(1818.78 -200.831 1.9348e-17)
(1807.45 -302.836 -1.9922e-17)
(1791.42 -402.782 3.62069e-20)
(1769.96 -493.717 3.84231e-17)
(1741.06 -568.825 4.08154e-19)
(1711.4 -624.539 -3.92714e-17)
(1667.21 -631.846 0)
(1633.3 -539.828 5.40338e-17)
(1555.03 -340.887 -4.41447e-17)
(1448.44 -300.63 -1.061e-16)
(1168.2 -330.817 3.43204e-18)
(1139.53 292.629 -5.50066e-17)
(1433.7 255.553 5.1579e-17)
(1526.85 247.274 2.48506e-20)
(1628.13 435.984 -6.43004e-20)
(1670.35 581.168 1.8895e-20)
(1720.78 599.734 3.61408e-17)
(1753.39 552.203 -1.91314e-17)
(1783.08 481.306 -1.81396e-17)
(1809.59 397.845 3.68059e-20)
(1827.43 302.13 -3.71572e-20)
(1839.59 199.223 1.71319e-20)
(1846.75 97.026 -1.72011e-20)
(1848.83 -2.7385 0)
(1845.88 -102.833 3.33672e-21)
(1838.04 -204.963 -8.96217e-18)
(1825.72 -307.104 9.24318e-18)
(1807.8 -402.502 -1.79181e-17)
(1781.02 -485.748 6.69089e-20)
(1751.45 -556.544 1.81789e-17)
(1717.88 -601.516 -5.45793e-20)
(1671.42 -578.057 -4.47054e-17)
(1628.86 -423.281 3.90037e-17)
(1512.95 -239.93 0)
(1415.98 -250.623 -5.14408e-17)
(1117.74 -282.151 5.44353e-17)
(1018.46 223.315 0)
(1366.11 197.425 -4.98441e-17)
(1502.17 162.688 4.86721e-17)
(1606.01 301.166 2.03152e-20)
(1676.07 503.009 1.8493e-20)
(1720.61 567.328 -3.43815e-17)
(1762.3 539.507 3.55471e-17)
(1793.63 473.922 1.69793e-17)
(1820.58 393.876 9.53574e-20)
(1841.63 304.062 -1.69287e-17)
(1855.45 204.138 -1.74819e-20)
(1863.11 101.691 1.958e-20)
(1865.39 0.430009 0)
(1862.76 -101.123 3.50963e-20)
(1854.94 -203.615 -1.74771e-20)
(1841.12 -303.284 8.45509e-18)
(1820.11 -392.877 -8.5548e-18)
(1793.3 -473.604 -1.69145e-20)
(1761.85 -539.676 -1.89795e-20)
(1718.41 -570.916 1.7304e-20)
(1671.92 -512.68 -4.5416e-17)
(1603.35 -304.643 -1.44181e-17)
(1501.87 -160.849 4.17031e-17)
(1366.33 -196.094 0)
(1017.43 -213.61 4.77597e-17)
(946.039 189.974 -8.21452e-17)
(1351.01 163.887 4.66518e-17)
(1509.14 114.924 4.15384e-17)
(1602.23 211.583 -4.83162e-17)
(1676.27 428.4 0)
(1718.37 524.21 -2.0855e-21)
(1765.19 513.269 0)
(1800.47 458.281 -1.98111e-21)
(1828.16 381.974 -1.97072e-21)
(1850.01 294.521 0)
(1864.78 196.885 0)
(1873.03 96.7999 -1.95024e-21)
(1875.74 -2.12926 0)
(1872.53 -101.323 0)
(1863.7 -201.279 -7.79933e-18)
(1848.47 -298.247 7.97318e-18)
(1826.57 -384.831 -1.97202e-21)
(1798.9 -460.41 -1.625e-17)
(1763.19 -514.446 1.61057e-17)
(1716.49 -524.532 0)
(1672.13 -423.895 4.67107e-17)
(1594.78 -210.367 -8.47509e-17)
(1504.18 -118.998 8.83219e-17)
(1334.14 -166.137 6.83924e-20)
(929.589 -190.103 -4.08697e-17)
(920.61 177.643 9.04787e-21)
(1346.35 155.204 -1.05463e-20)
(1512.92 114.854 0)
(1608.29 168.707 0)
(1668.89 365.628 0)
(1710.87 480.998 8.181e-21)
(1755.96 484.039 0)
(1791.75 434.955 -7.54892e-21)
(1822.9 365.48 0)
(1846.85 283.024 -7.3535e-21)
(1862.55 190.807 0)
(1871.36 94.878 -1.78399e-18)
(1874.31 -1.79436 1.76725e-18)
(1871.05 -98.8486 0)
(1861.74 -194.92 7.35858e-18)
(1845.49 -286.957 -1.50815e-17)
(1821.51 -368.928 7.58152e-18)
(1790.41 -437.248 0)
(1754.76 -485.351 1.67189e-17)
(1711.22 -479.407 -1.57063e-17)
(1670.6 -362.777 4.53022e-17)
(1610.92 -170.345 -3.51798e-17)
(1510.28 -118.892 0)
(1338.26 -155.625 0)
(911.887 -177.774 0)
(901.632 173.236 -8.15538e-21)
(1334.19 151.348 1.03428e-20)
(1511.77 123.431 0)
(1606.94 147.709 0)
(1665.43 317.195 0)
(1702.36 439.872 -7.81129e-21)
(1742.67 456.228 0)
(1775.79 413.153 7.29463e-21)
(1805.33 348.23 0)
(1830.22 271.137 -7.30267e-18)
(1850.31 185.173 7.27016e-18)
(1861.17 93.4086 -6.9321e-21)
(1864.61 0.0213921 6.99342e-21)
(1860.93 -93.5259 6.94895e-21)
(1849.51 -185.021 0)
(1829.69 -270.637 0)
(1804.7 -347.695 7.22136e-21)
(1775.03 -413.08 -1.5364e-17)
(1741.84 -457.898 1.48142e-17)
(1700.16 -444.452 0)
(1663.43 -326.868 8.60752e-21)
(1607.15 -153.219 0)
(1510.55 -125.015 0)
(1333.57 -151.116 0)
(900.943 -175.279 0)
(892.146 170.379 -2.97209e-17)
(1331.25 143.804 4.18287e-17)
(1508.51 143.156 0)
(1590.7 135.695 -1.95482e-20)
(1651.62 285.154 0)
(1687.44 412.084 -1.48113e-17)
(1728.7 433.409 3.01302e-17)
(1758.55 392.128 -1.48192e-17)
(1784.73 329.002 -7.04523e-18)
(1807.49 254.337 7.08787e-18)
(1825.7 172.425 3.42585e-21)
(1837.1 86.4585 9.0434e-19)
(1840.78 -1.59169 -8.69863e-19)
(1836.52 -89.7688 6.95164e-18)
(1824.99 -175.709 -7.01266e-18)
(1806.77 -257.226 0)
(1783.8 -331.716 -1.38848e-20)
(1757.38 -394.568 0)
(1727.5 -435.078 0)
(1686.63 -412.122 -1.8319e-17)
(1650.18 -282.871 1.57133e-17)
(1587.89 -133.444 0)
(1502.61 -139.557 4.07709e-17)
(1321.21 -143.595 8.84375e-19)
(883.645 -174.1 -6.00742e-17)
(882.924 164.25 2.92743e-17)
(1315.05 123.668 1.92607e-20)
(1494.29 148.031 3.92879e-17)
(1564.84 121.665 -2.37248e-17)
(1602.31 237.44 -2.06805e-17)
(1663.79 374.056 0)
(1705.57 413.227 6.8297e-21)
(1739.47 378.195 1.38519e-17)
(1763.5 317.008 -1.40176e-17)
(1782.71 243.885 0)
(1797.6 164.276 0)
(1806.76 81.7399 -1.96742e-20)
(1809.77 -1.73469 2.63027e-20)
(1806.42 -85.3195 1.31892e-20)
(1797.04 -167.843 3.40047e-18)
(1781.91 -247.094 -3.38877e-18)
(1762.46 -319.827 6.63462e-21)
(1738.31 -380.603 1.46286e-17)
(1704.23 -415.048 -2.98856e-17)
(1662.75 -374.741 1.46972e-17)
(1597.83 -236.848 -1.67481e-20)
(1559.89 -120.326 0)
(1489.05 -144.358 1.98394e-20)
(1309.5 -123.918 4.11143e-17)
(876.782 -163.092 -5.73136e-17)
(896.561 160.005 -2.89111e-17)
(1267.74 106.848 -3.70711e-17)
(1460.35 145.862 3.96539e-17)
(1520.96 119.648 1.72485e-17)
(1541.27 190.258 -1.95686e-17)
(1599.11 303.295 0)
(1666 373.428 3.32513e-21)
(1709.04 360.305 -1.02986e-20)
(1738.08 308.179 6.76295e-18)
(1758.04 239.601 -1.34603e-17)
(1771.65 162.86 6.68206e-18)
(1779.78 82.1088 1.64649e-18)
(1782.52 -0.0188379 -1.54334e-18)
(1779.75 -82.3441 1.53884e-18)
(1771.59 -163.379 -1.66258e-18)
(1757.87 -240.247 0)
(1737.69 -309.222 1.00023e-20)
(1708.47 -362.287 -3.52801e-21)
(1664.67 -376.399 -1.63138e-17)
(1597.04 -304.109 1.45481e-17)
(1537.22 -189.165 0)
(1515.94 -116.376 0)
(1456.85 -142.636 -4.85847e-21)
(1267.53 -103.318 -3.95901e-17)
(897.721 -157.186 -1.79868e-18)
(949.08 169.802 -1.33952e-17)
(1220.68 124.758 1.83031e-17)
(1400.92 164.93 4.46976e-21)
(1463.7 138.56 0)
(1487.61 177.986 1.53913e-17)
(1511.22 243.111 -1.74392e-17)
(1572.88 293.21 3.45383e-21)
(1645.26 312.295 3.36822e-21)
(1692.55 283.324 1.38794e-20)
(1720.86 225.314 -1.65832e-18)
(1738.89 154.985 8.4017e-19)
(1749.26 78.3164 1.60914e-18)
(1752.76 -1.3581 -8.20824e-19)
(1749.16 -81.0601 3.29912e-18)
(1738.65 -157.624 -3.28266e-18)
(1720.35 -227.402 0)
(1691.88 -284.647 1.06104e-20)
(1644.87 -313.13 -1.50655e-17)
(1571.86 -293.543 1.39061e-17)
(1511.15 -242.826 3.66112e-21)
(1488.34 -176.103 0)
(1461.32 -136.658 0)
(1395.55 -165.273 4.46829e-21)
(1212.76 -126.616 -3.61698e-17)
(952.751 -170.751 2.68885e-17)
(1019.2 193.459 1.39062e-20)
(1185.52 177.86 0)
(1333.42 220.781 -8.00181e-21)
(1400.92 194.568 -1.50697e-17)
(1436.29 210.635 1.75376e-17)
(1453.12 233.173 -1.4384e-17)
(1480.57 237.09 1.55523e-17)
(1526.1 230.846 -6.71743e-18)
(1583.82 215.222 7.15032e-18)
(1633.95 182.481 -3.33184e-18)
(1668.27 130.428 3.38878e-18)
(1686.39 66.8012 -1.62874e-18)
(1691.86 -1.97009 1.86359e-18)
(1686.07 -70.8309 -2.19469e-19)
(1667.58 -134.476 3.39614e-18)
(1632.78 -186.065 -6.77336e-18)
(1582.43 -218.377 -3.83928e-18)
(1524.21 -233.723 6.68968e-18)
(1478.36 -240.386 1.35185e-20)
(1450.04 -236.453 -7.5335e-21)
(1432.9 -211.061 0)
(1397.09 -194.962 0)
(1328.69 -223.258 0)
(1181.19 -179.778 -1.6933e-17)
(1015.83 -191.912 1.34678e-17)
(1084.4 209.306 -1.81155e-21)
(1154.07 245.178 0)
(1257.52 299.517 9.21017e-21)
(1319.57 279.755 -7.41418e-21)
(1368.48 278.015 -7.29362e-21)
(1399.46 269.45 0)
(1421.51 243.662 -6.7272e-21)
(1444.6 209.612 6.72123e-18)
(1473.93 172.475 -7.04697e-18)
(1507.37 132.757 0)
(1536.88 90.8313 1.76828e-21)
(1555.86 46.2041 0)
(1562.62 -0.189555 0)
(1555.91 -46.5876 1.68173e-18)
(1536.83 -91.0055 -1.65677e-18)
(1507.33 -132.728 -6.21335e-21)
(1474.4 -172.278 -1.7524e-21)
(1445.7 -209.034 6.43091e-21)
(1423.35 -243.311 -7.43159e-18)
(1401.08 -270.242 6.98446e-18)
(1369.93 -278.707 -1.58632e-17)
(1321.96 -281.151 3.00355e-17)
(1256.47 -303.698 -1.37926e-17)