/*--------------------------------*- C++ -*----------------------------------*\
| =========                 |                                                 |
| \\      /  F ield         | OpenFOAM: The Open Source CFD Toolbox           |
|  \\    /   O peration     | Version:  2112                                  |
|   \\  /    A nd           | Website:  www.openfoam.com                      |
|    \\/     M anipulation  |                                                 |
\*---------------------------------------------------------------------------*/
FoamFile
{
    version     2.0;
    format      ascii;
    arch        "LSB;label=32;scalar=64";
    class       volScalarField;
    location    "5e-05";
    object      alphat;
}
// * * * * * * * * * * * * * * * * * * * * * * * * * * * * * * * * * * * * * //

dimensions      [1 -1 -1 0 0 0 0];

internalField   nonuniform List<scalar> 
13875
(
1.31402
12.5738
16.3894
18.7536
19.969
20.5457
20.79
20.8831
20.9154
20.9256
20.9286
20.9294
20.9295
20.9292
20.9283
20.9254
20.9153
20.8834
20.7906
20.5467
19.9701
18.7537
16.3878
12.5613
1.3151
1.38246
10.8129
13.5822
15.1201
15.8826
16.2284
16.3681
16.4189
16.4359
16.4412
16.4427
16.4431
16.4431
16.4429
16.4423
16.4405
16.435
16.418
16.3675
16.2285
15.884
15.1235
13.5902
10.8288
1.40609
1.20403
10.0485
13.0553
14.5736
15.2823
15.5863
15.7018
15.7412
15.7532
15.7562
15.7565
15.7565
15.7564
15.7562
15.756
15.7552
15.752
15.74
15.7008
15.5856
15.2819
14.5738
13.0602
10.0255
1.20006
1.15626
10.7375
13.5061
14.4543
14.8664
15.0275
15.0832
15.1004
15.1052
15.1064
15.1066
15.1064
15.1062
15.1061
15.106
15.1056
15.1043
15.0994
15.0822
15.0265
14.8651
14.4516
13.5006
10.7168
1.14866
0.772211
6.96462
8.63532
9.1536
9.34457
9.40935
9.42955
9.43539
9.43693
9.4373
9.43736
9.43725
9.43712
9.43704
9.43695
9.43674
9.43621
9.43446
9.42845
9.40813
9.34326
9.15237
8.63414
6.95865
0.76796
0.357128
2.36768
2.87479
3.02617
3.07405
3.08832
3.09245
3.09361
3.09393
3.09402
3.09403
3.09398
3.09391
3.09387
3.09381
3.09373
3.09357
3.09316
3.09188
3.08761
3.07324
3.02553
2.87424
2.36488
0.356041
0.0942285
0.208089
0.244078
0.252009
0.254334
0.25503
0.255239
0.255305
0.255328
0.255339
0.255341
0.255335
0.255328
0.255323
0.255317
0.255307
0.255291
0.255261
0.255186
0.254963
0.254252
0.25194
0.244068
0.20766
0.0937645
0.0491936
0.221381
0.230424
0.226438
0.22487
0.224329
0.22416
0.22411
0.224095
0.22409
0.22409
0.224094
0.224098
0.2241
0.224104
0.224109
0.224117
0.224136
0.224191
0.224366
0.224912
0.226471
0.230421
0.22146
0.0492133
0.0488325
0.264151
0.301515
0.302662
0.302677
0.302675
0.302675
0.302675
0.302675
0.302675
0.302675
0.302675
0.302675
0.302675
0.302675
0.302675
0.302675
0.302675
0.302675
0.302676
0.302677
0.302662
0.301538
0.264532
0.048851
0.0454663
0.25565
0.301043
0.302833
0.302868
0.302867
0.302867
0.302867
0.302867
0.302867
0.302867
0.302867
0.302867
0.302867
0.302867
0.302867
0.302867
0.302867
0.302867
0.302867
0.302868
0.302833
0.301054
0.255819
0.0456342
0.0401379
0.244478
0.299898
0.302797
0.302868
0.302866
0.302866
0.302866
0.302866
0.302866
0.302866
0.302866
0.302866
0.302866
0.302866
0.302866
0.302866
0.302866
0.302866
0.302867
0.302868
0.302791
0.299726
0.242867
0.0396322
0.0363281
0.234318
0.298642
0.302748
0.302869
0.302867
0.302866
0.302866
0.302866
0.302866
0.302866
0.302866
0.302866
0.302866
0.302866
0.302866
0.302866
0.302866
0.302866
0.302867
0.302869
0.30275
0.298682
0.234562
0.0362561
0.0334271
0.224642
0.297256
0.302683
0.302869
0.302867
0.302866
0.302866
0.302866
0.302866
0.302866
0.302866
0.302866
0.302866
0.302866
0.302866
0.302866
0.302866
0.302866
0.302867
0.302869
0.302694
0.297486
0.22613
0.033577
0.0313251
0.217013
0.29603
0.302613
0.302868
0.302868
0.302866
0.302866
0.302866
0.302866
0.302866
0.302866
0.302866
0.302866
0.302866
0.302866
0.302866
0.302866
0.302866
0.302867
0.302868
0.302636
0.296492
0.219602
0.0321181
0.0302407
0.210984
0.295
0.302541
0.302866
0.302868
0.302866
0.302866
0.302866
0.302866
0.302866
0.302866
0.302866
0.302866
0.302866
0.302866
0.302866
0.302866
0.302866
0.302868
0.302866
0.302494
0.294241
0.207458
0.0297342
0.0277539
0.199768
0.292561
0.302363
0.302861
0.302868
0.302866
0.302866
0.302866
0.302866
0.302866
0.302866
0.302866
0.302866
0.302866
0.302866
0.302866
0.302866
0.302866
0.302869
0.302861
0.302325
0.292025
0.197672
0.0272553
0.0274921
0.199851
0.29285
0.302359
0.302855
0.302867
0.302866
0.302866
0.302866
0.302866
0.302866
0.302866
0.302866
0.302866
0.302866
0.302866
0.302866
0.302866
0.302866
0.302867
0.302856
0.302378
0.29312
0.200981
0.027545
0.0274118
0.201734
0.293265
0.302351
0.302847
0.302866
0.302866
0.302866
0.302866
0.302866
0.302866
0.302866
0.302866
0.302866
0.302866
0.302866
0.302866
0.302866
0.302866
0.302866
0.302846
0.302344
0.2932
0.201493
0.0274356
0.0260537
0.187966
0.289258
0.301954
0.302815
0.302863
0.302866
0.302866
0.302866
0.302866
0.302866
0.302866
0.302866
0.302866
0.302866
0.302866
0.302866
0.302866
0.302866
0.302863
0.302823
0.302064
0.290315
0.19135
0.0265091
0.0253302
0.177672
0.285235
0.301485
0.302774
0.302859
0.302865
0.302866
0.302866
0.302866
0.302866
0.302866
0.302866
0.302866
0.302866
0.302866
0.302866
0.302866
0.302865
0.302859
0.302772
0.30145
0.284899
0.176675
0.0250302
0.0281944
0.190167
0.289119
0.301895
0.302805
0.302862
0.302866
0.302866
0.302866
0.302866
0.302866
0.302866
0.302866
0.302866
0.302866
0.302866
0.302866
0.302866
0.302866
0.302861
0.302796
0.301779
0.288032
0.186753
0.027645
0.0312779
0.204807
0.293095
0.302282
0.302834
0.302864
0.302866
0.302866
0.302866
0.302866
0.302866
0.302866
0.302866
0.302866
0.302866
0.302866
0.302866
0.302866
0.302866
0.302864
0.302831
0.302247
0.292755
0.203623
0.0311888
0.034409
0.218111
0.295958
0.302517
0.302849
0.302865
0.302866
0.302866
0.302866
0.302866
0.302866
0.302866
0.302866
0.302866
0.302866
0.302866
0.302866
0.302866
0.302866
0.302865
0.30285
0.302538
0.296261
0.219833
0.0347643
0.0375497
0.230921
0.298112
0.302666
0.302857
0.302866
0.302866
0.302866
0.302866
0.302866
0.302866
0.302866
0.302866
0.302866
0.302866
0.302866
0.302866
0.302866
0.302866
0.302866
0.302858
0.302665
0.298095
0.230727
0.0374388
0.0395462
0.237777
0.299052
0.302723
0.30286
0.302866
0.302866
0.302866
0.302866
0.302866
0.302866
0.302866
0.302866
0.302866
0.302866
0.302866
0.302866
0.302866
0.302866
0.302866
0.30286
0.302719
0.298982
0.237243
0.0394742
0.0417914
0.24402
0.299781
0.30276
0.302862
0.302866
0.302866
0.302866
0.302866
0.302866
0.302866
0.302866
0.302866
0.302866
0.302866
0.302866
0.302866
0.302866
0.302866
0.302866
0.302862
0.302766
0.299893
0.245049
0.0420217
0.0441969
0.250856
0.300474
0.302793
0.302864
0.302866
0.302866
0.302866
0.302866
0.302866
0.302866
0.302866
0.302866
0.302866
0.302866
0.302866
0.302866
0.302866
0.302866
0.302866
0.302863
0.302788
0.300369
0.24974
0.0438622
0.0459682
0.254979
0.300843
0.302809
0.302864
0.302866
0.302866
0.302866
0.302866
0.302866
0.302866
0.302866
0.302866
0.302866
0.302866
0.302866
0.302866
0.302866
0.302866
0.302866
0.302864
0.302808
0.300833
0.254898
0.0460719
0.0479375
0.258767
0.301149
0.302821
0.302865
0.302866
0.302866
0.302866
0.302866
0.302866
0.302866
0.302866
0.302866
0.302866
0.302866
0.302866
0.302866
0.302866
0.302866
0.302866
0.302865
0.302825
0.301264
0.260241
0.0483027
0.0503403
0.264276
0.301551
0.302835
0.302865
0.302866
0.302866
0.302866
0.302866
0.302866
0.302866
0.302866
0.302866
0.302866
0.302866
0.302866
0.302866
0.302866
0.302866
0.302866
0.302865
0.302832
0.30146
0.262945
0.0498672
0.05178
0.266976
0.301727
0.302841
0.302865
0.302866
0.302866
0.302866
0.302866
0.302866
0.302866
0.302866
0.302866
0.302866
0.302866
0.302866
0.302866
0.302866
0.302866
0.302866
0.302865
0.302841
0.301733
0.267091
0.0519572
0.0532409
0.268935
0.301842
0.302845
0.302865
0.302866
0.302866
0.302866
0.302866
0.302866
0.302866
0.302866
0.302866
0.302866
0.302866
0.302866
0.302866
0.302866
0.302866
0.302866
0.302866
0.302846
0.301896
0.269838
0.0534695
0.0551331
0.27242
0.302038
0.30285
0.302866
0.302866
0.302866
0.302866
0.302866
0.302866
0.302866
0.302866
0.302866
0.302866
0.302866
0.302866
0.302866
0.302866
0.302866
0.302866
0.302866
0.302849
0.301997
0.271654
0.0548496
0.0562815
0.274146
0.302126
0.302853
0.302866
0.302866
0.302866
0.302866
0.302866
0.302866
0.302866
0.302866
0.302866
0.302866
0.302866
0.302866
0.302866
0.302866
0.302866
0.302866
0.302866
0.302853
0.302137
0.274363
0.0564512
0.0574027
0.275236
0.302177
0.302854
0.302866
0.302866
0.302866
0.302866
0.302866
0.302866
0.302866
0.302866
0.302866
0.302866
0.302866
0.302866
0.302866
0.302866
0.302866
0.302866
0.302866
0.302855
0.302208
0.275873
0.0575441
0.0589028
0.277623
0.302288
0.302857
0.302866
0.302866
0.302866
0.302866
0.302866
0.302866
0.302866
0.302866
0.302866
0.302866
0.302866
0.302866
0.302866
0.302866
0.302866
0.302866
0.302866
0.302856
0.302255
0.276896
0.0586376
0.059824
0.278782
0.302337
0.302858
0.302866
0.302866
0.302866
0.302866
0.302866
0.302866
0.302866
0.302866
0.302866
0.302866
0.302866
0.302866
0.302866
0.302866
0.302866
0.302866
0.302866
0.302858
0.302343
0.278911
0.0599533
0.0607071
0.279452
0.302364
0.302858
0.302866
0.302866
0.302866
0.302866
0.302866
0.302866
0.302866
0.302866
0.302866
0.302866
0.302866
0.302866
0.302866
0.302866
0.302866
0.302866
0.302866
0.302859
0.302385
0.27998
0.0608179
0.0618623
0.281158
0.302432
0.30286
0.302866
0.302866
0.302866
0.302866
0.302866
0.302866
0.302866
0.302866
0.302866
0.302866
0.302866
0.302866
0.302866
0.302866
0.302866
0.302866
0.302866
0.302859
0.302407
0.280539
0.0616474
0.0625714
0.281952
0.302461
0.302861
0.302866
0.302866
0.302866
0.302866
0.302866
0.302866
0.302866
0.302866
0.302866
0.302866
0.302866
0.302866
0.302866
0.302866
0.302866
0.302866
0.302866
0.302861
0.302465
0.28204
0.0626691
0.0632349
0.28234
0.302475
0.302861
0.302866
0.302866
0.302866
0.302866
0.302866
0.302866
0.302866
0.302866
0.302866
0.302866
0.302866
0.302866
0.302866
0.302866
0.302866
0.302866
0.302866
0.302861
0.302492
0.282803
0.0633246
0.0640879
0.28359
0.30252
0.302862
0.302866
0.302866
0.302866
0.302866
0.302866
0.302866
0.302866
0.302866
0.302866
0.302866
0.302866
0.302866
0.302866
0.302866
0.302866
0.302866
0.302866
0.302861
0.302502
0.283092
0.0639322
0.064604
0.28414
0.302538
0.302862
0.302866
0.302866
0.302866
0.302866
0.302866
0.302866
0.302866
0.302866
0.302866
0.302866
0.302866
0.302866
0.302866
0.302866
0.302866
0.302866
0.302866
0.302862
0.30254
0.28418
0.0646664
0.0650728
0.284339
0.302544
0.302862
0.302866
0.302866
0.302866
0.302866
0.302866
0.302866
0.302866
0.302866
0.302866
0.302866
0.302866
0.302866
0.302866
0.302866
0.302866
0.302866
0.302866
0.302862
0.302557
0.284733
0.0651395
0.0656573
0.285255
0.302574
0.302863
0.302866
0.302866
0.302866
0.302866
0.302866
0.302866
0.302866
0.302866
0.302866
0.302866
0.302866
0.302866
0.302866
0.302866
0.302866
0.302866
0.302866
0.302862
0.302562
0.284889
0.0655613
0.066001
0.285632
0.302586
0.302863
0.302866
0.302866
0.302866
0.302866
0.302866
0.302866
0.302866
0.302866
0.302866
0.302866
0.302866
0.302866
0.302866
0.302866
0.302866
0.302866
0.302866
0.302863
0.302586
0.285623
0.0660318
0.0663016
0.285705
0.302588
0.302863
0.302866
0.302866
0.302866
0.302866
0.302866
0.302866
0.302866
0.302866
0.302866
0.302866
0.302866
0.302866
0.302866
0.302866
0.302866
0.302866
0.302866
0.302863
0.302598
0.286029
0.0663456
0.0666565
0.286367
0.302609
0.302863
0.302866
0.302866
0.302866
0.302866
0.302866
0.302866
0.302866
0.302866
0.302866
0.302866
0.302866
0.302866
0.302866
0.302866
0.302866
0.302866
0.302866
0.302863
0.302601
0.286116
0.0666027
0.0668545
0.286619
0.302616
0.302863
0.302866
0.302866
0.302866
0.302866
0.302866
0.302866
0.302866
0.302866
0.302866
0.302866
0.302866
0.302866
0.302866
0.302866
0.302866
0.302866
0.302866
0.302863
0.302613
0.286534
0.0668547
0.067031
0.286736
0.302618
0.302863
0.302866
0.302866
0.302866
0.302866
0.302866
0.302866
0.302866
0.302866
0.302866
0.302866
0.302866
0.302866
0.302866
0.302866
0.302866
0.302866
0.302866
0.302864
0.302621
0.286855
0.0670452
0.138209
0.299677
0.302899
0.302918
0.302917
0.302916
0.302915
0.302914
0.302913
0.302912
0.302911
0.302911
0.30291
0.302909
0.302908
0.302908
0.302907
0.302906
0.302906
0.302905
0.302905
0.302904
0.302903
0.302903
0.302902
0.302902
0.302901
0.302898
0.301811
0.156133
0.130695
0.300893
0.302858
0.302867
0.302867
0.302867
0.302867
0.302867
0.302867
0.302867
0.302867
0.302867
0.302867
0.302867
0.302867
0.302867
0.302867
0.302867
0.302867
0.302867
0.302867
0.302867
0.302867
0.302867
0.302867
0.302867
0.302867
0.302863
0.301671
0.154496
0.13672
0.301426
0.30286
0.302866
0.302866
0.302866
0.302866
0.302866
0.302866
0.302866
0.302866
0.302866
0.302866
0.302866
0.302866
0.302866
0.302866
0.302866
0.302866
0.302866
0.302866
0.302866
0.302866
0.302866
0.302866
0.302866
0.302866
0.302863
0.301631
0.153013
0.140122
0.301393
0.30286
0.302866
0.302866
0.302866
0.302866
0.302866
0.302866
0.302866
0.302866
0.302866
0.302866
0.302866
0.302866
0.302866
0.302866
0.302866
0.302866
0.302866
0.302866
0.302866
0.302866
0.302866
0.302866
0.302866
0.302866
0.302862
0.301602
0.151757
0.139914
0.301297
0.30286
0.302866
0.302866
0.302866
0.302866
0.302866
0.302866
0.302866
0.302866
0.302866
0.302866
0.302866
0.302866
0.302866
0.302866
0.302866
0.302866
0.302866
0.302866
0.302866
0.302866
0.302866
0.302866
0.302866
0.302866
0.302862
0.30157
0.150614
0.139593
0.301284
0.30286
0.302866
0.302866
0.302866
0.302866
0.302866
0.302866
0.302866
0.302866
0.302866
0.302866
0.302866
0.302866
0.302866
0.302866
0.302866
0.302866
0.302866
0.302866
0.302866
0.302866
0.302866
0.302866
0.302866
0.302866
0.302862
0.301537
0.149523
0.139597
0.301295
0.30286
0.302866
0.302866
0.302866
0.302866
0.302866
0.302866
0.302866
0.302866
0.302866
0.302866
0.302866
0.302866
0.302866
0.302866
0.302866
0.302866
0.302866
0.302866
0.302866
0.302866
0.302866
0.302866
0.302866
0.302866
0.302862
0.301505
0.14849
0.139966
0.301312
0.30286
0.302866
0.302866
0.302866
0.302866
0.302866
0.302866
0.302866
0.302866
0.302866
0.302866
0.302866
0.302866
0.302866
0.302866
0.302866
0.302866
0.302866
0.302866
0.302866
0.302866
0.302866
0.302866
0.302866
0.302866
0.302862
0.301476
0.147533
0.140339
0.301317
0.302861
0.302866
0.302866
0.302866
0.302866
0.302866
0.302866
0.302866
0.302866
0.302866
0.302866
0.302866
0.302866
0.302866
0.302866
0.302866
0.302866
0.302866
0.302866
0.302866
0.302866
0.302866
0.302866
0.302866
0.302866
0.302862
0.30145
0.146665
0.140571
0.301314
0.302861
0.302866
0.302866
0.302866
0.302866
0.302866
0.302866
0.302866
0.302866
0.302866
0.302866
0.302866
0.302866
0.302866
0.302866
0.302866
0.302866
0.302866
0.302866
0.302866
0.302866
0.302866
0.302866
0.302866
0.302866
0.302862
0.301425
0.145879
0.140641
0.301305
0.302861
0.302866
0.302866
0.302866
0.302866
0.302866
0.302866
0.302866
0.302866
0.302866
0.302866
0.302866
0.302866
0.302866
0.302866
0.302866
0.302866
0.302866
0.302866
0.302866
0.302866
0.302866
0.302866
0.302866
0.302866
0.302862
0.301403
0.145167
0.14061
0.301297
0.302861
0.302866
0.302866
0.302866
0.302866
0.302866
0.302866
0.302866
0.302866
0.302866
0.302866
0.302866
0.302866
0.302866
0.302866
0.302866
0.302866
0.302866
0.302866
0.302866
0.302866
0.302866
0.302866
0.302866
0.302866
0.302861
0.301381
0.144518
0.140555
0.301289
0.302861
0.302866
0.302866
0.302866
0.302866
0.302866
0.302866
0.302866
0.302866
0.302866
0.302866
0.302866
0.302866
0.302866
0.302866
0.302866
0.302866
0.302866
0.302866
0.302866
0.302866
0.302866
0.302866
0.302866
0.302866
0.302861
0.301362
0.143927
0.140458
0.301283
0.302861
0.302866
0.302866
0.302866
0.302866
0.302866
0.302866
0.302866
0.302866
0.302866
0.302866
0.302866
0.302866
0.302866
0.302866
0.302866
0.302866
0.302866
0.302866
0.302866
0.302866
0.302866
0.302866
0.302866
0.302866
0.302861
0.301344
0.143388
0.140448
0.301279
0.302861
0.302866
0.302866
0.302866
0.302866
0.302866
0.302866
0.302866
0.302866
0.302866
0.302866
0.302866
0.302866
0.302866
0.302866
0.302866
0.302866
0.302866
0.302866
0.302866
0.302866
0.302866
0.302866
0.302866
0.302866
0.302861
0.301327
0.142902
0.14036
0.301272
0.302861
0.302866
0.302866
0.302866
0.302866
0.302866
0.302866
0.302866
0.302866
0.302866
0.302866
0.302866
0.302866
0.302866
0.302866
0.302866
0.302866
0.302866
0.302866
0.302866
0.302866
0.302866
0.302866
0.302866
0.302866
0.302861
0.301312
0.142466
0.14031
0.301269
0.302861
0.302866
0.302866
0.302866
0.302866
0.302866
0.302866
0.302866
0.302866
0.302866
0.302866
0.302866
0.302866
0.302866
0.302866
0.302866
0.302866
0.302866
0.302866
0.302866
0.302866
0.302866
0.302866
0.302866
0.302866
0.302861
0.301299
0.142077
0.140292
0.301265
0.302861
0.302866
0.302866
0.302866
0.302866
0.302866
0.302866
0.302866
0.302866
0.302866
0.302866
0.302866
0.302866
0.302866
0.302866
0.302866
0.302866
0.302866
0.302866
0.302866
0.302866
0.302866
0.302866
0.302866
0.302866
0.302861
0.301287
0.141734
0.14024
0.30126
0.302861
0.302866
0.302866
0.302866
0.302866
0.302866
0.302866
0.302866
0.302866
0.302866
0.302866
0.302866
0.302866
0.302866
0.302866
0.302866
0.302866
0.302866
0.302866
0.302866
0.302866
0.302866
0.302866
0.302866
0.302866
0.302861
0.301277
0.141435
0.140234
0.301259
0.302861
0.302866
0.302866
0.302866
0.302866
0.302866
0.302866
0.302866
0.302866
0.302866
0.302866
0.302866
0.302866
0.302866
0.302866
0.302866
0.302866
0.302866
0.302866
0.302866
0.302866
0.302866
0.302866
0.302866
0.302866
0.302861
0.301269
0.141176
0.140235
0.301256
0.302861
0.302866
0.302866
0.302866
0.302866
0.302866
0.302866
0.302866
0.302866
0.302866
0.302866
0.302866
0.302866
0.302866
0.302866
0.302866
0.302866
0.302866
0.302866
0.302866
0.302866
0.302866
0.302866
0.302866
0.302866
0.302861
0.301261
0.140958
0.140229
0.301254
0.302861
0.302866
0.302866
0.302866
0.302866
0.302866
0.302866
0.302866
0.302866
0.302866
0.302866
0.302866
0.302866
0.302866
0.302866
0.302866
0.302866
0.302866
0.302866
0.302866
0.302866
0.302866
0.302866
0.302866
0.302866
0.302861
0.301255
0.140776
0.14027
0.301254
0.302861
0.302866
0.302866
0.302866
0.302866
0.302866
0.302866
0.302866
0.302866
0.302866
0.302866
0.302866
0.302866
0.302866
0.302866
0.302866
0.302866
0.302866
0.302866
0.302866
0.302866
0.302866
0.302866
0.302866
0.302866
0.302861
0.301251
0.140629
0.140305
0.301254
0.302861
0.302866
0.302866
0.302866
0.302866
0.302866
0.302866
0.302866
0.302866
0.302866
0.302866
0.302866
0.302866
0.302866
0.302866
0.302866
0.302866
0.302866
0.302866
0.302866
0.302866
0.302866
0.302866
0.302866
0.302866
0.302861
0.301247
0.140516
0.140348
0.301394
0.302862
0.302866
0.302866
0.302866
0.302866
0.302866
0.302866
0.302866
0.302866
0.302866
0.302866
0.302866
0.302866
0.302866
0.302866
0.302866
0.302866
0.302866
0.302866
0.302866
0.302866
0.302866
0.302866
0.302866
0.302866
0.302861
0.301246
0.140433
0.156132
0.301811
0.302898
0.302901
0.302902
0.302902
0.302903
0.302903
0.302904
0.302905
0.302905
0.302906
0.302906
0.302907
0.302908
0.302908
0.302909
0.30291
0.302911
0.302911
0.302912
0.302913
0.302914
0.302915
0.302916
0.302917
0.302918
0.302899
0.299674
0.138172
0.154495
0.301671
0.302863
0.302867
0.302867
0.302867
0.302867
0.302867
0.302867
0.302867
0.302867
0.302867
0.302867
0.302867
0.302867
0.302867
0.302867
0.302867
0.302867
0.302867
0.302867
0.302867
0.302867
0.302867
0.302867
0.302867
0.302867
0.302858
0.300894
0.130712
0.153011
0.301631
0.302863
0.302866
0.302866
0.302866
0.302866
0.302866
0.302866
0.302866
0.302866
0.302866
0.302866
0.302866
0.302866
0.302866
0.302866
0.302866
0.302866
0.302866
0.302866
0.302866
0.302866
0.302866
0.302866
0.302866
0.302866
0.30286
0.301426
0.136688
0.151756
0.301602
0.302862
0.302866
0.302866
0.302866
0.302866
0.302866
0.302866
0.302866
0.302866
0.302866
0.302866
0.302866
0.302866
0.302866
0.302866
0.302866
0.302866
0.302866
0.302866
0.302866
0.302866
0.302866
0.302866
0.302866
0.302866
0.30286
0.301396
0.140167
0.150615
0.30157
0.302862
0.302866
0.302866
0.302866
0.302866
0.302866
0.302866
0.302866
0.302866
0.302866
0.302866
0.302866
0.302866
0.302866
0.302866
0.302866
0.302866
0.302866
0.302866
0.302866
0.302866
0.302866
0.302866
0.302866
0.302866
0.30286
0.301295
0.139932
0.149522
0.301537
0.302862
0.302866
0.302866
0.302866
0.302866
0.302866
0.302866
0.302866
0.302866
0.302866
0.302866
0.302866
0.302866
0.302866
0.302866
0.302866
0.302866
0.302866
0.302866
0.302866
0.302866
0.302866
0.302866
0.302866
0.302866
0.30286
0.301283
0.13953
0.14849
0.301506
0.302862
0.302866
0.302866
0.302866
0.302866
0.302866
0.302866
0.302866
0.302866
0.302866
0.302866
0.302866
0.302866
0.302866
0.302866
0.302866
0.302866
0.302866
0.302866
0.302866
0.302866
0.302866
0.302866
0.302866
0.302866
0.30286
0.301298
0.139681
0.147534
0.301476
0.302862
0.302866
0.302866
0.302866
0.302866
0.302866
0.302866
0.302866
0.302866
0.302866
0.302866
0.302866
0.302866
0.302866
0.302866
0.302866
0.302866
0.302866
0.302866
0.302866
0.302866
0.302866
0.302866
0.302866
0.302866
0.30286
0.301308
0.13992
0.146664
0.30145
0.302862
0.302866
0.302866
0.302866
0.302866
0.302866
0.302866
0.302866
0.302866
0.302866
0.302866
0.302866
0.302866
0.302866
0.302866
0.302866
0.302866
0.302866
0.302866
0.302866
0.302866
0.302866
0.302866
0.302866
0.302866
0.302861
0.301319
0.140345
0.14588
0.301425
0.302862
0.302866
0.302866
0.302866
0.302866
0.302866
0.302866
0.302866
0.302866
0.302866
0.302866
0.302866
0.302866
0.302866
0.302866
0.302866
0.302866
0.302866
0.302866
0.302866
0.302866
0.302866
0.302866
0.302866
0.302866
0.302861
0.301313
0.14059
0.145166
0.301402
0.302862
0.302866
0.302866
0.302866
0.302866
0.302866
0.302866
0.302866
0.302866
0.302866
0.302866
0.302866
0.302866
0.302866
0.302866
0.302866
0.302866
0.302866
0.302866
0.302866
0.302866
0.302866
0.302866
0.302866
0.302866
0.302861
0.301304
0.140596
0.144518
0.301381
0.302861
0.302866
0.302866
0.302866
0.302866
0.302866
0.302866
0.302866
0.302866
0.302866
0.302866
0.302866
0.302866
0.302866
0.302866
0.302866
0.302866
0.302866
0.302866
0.302866
0.302866
0.302866
0.302866
0.302866
0.302866
0.302861
0.301299
0.140647
0.143927
0.301362
0.302861
0.302866
0.302866
0.302866
0.302866
0.302866
0.302866
0.302866
0.302866
0.302866
0.302866
0.302866
0.302866
0.302866
0.302866
0.302866
0.302866
0.302866
0.302866
0.302866
0.302866
0.302866
0.302866
0.302866
0.302866
0.302861
0.301288
0.14055
0.143388
0.301343
0.302861
0.302866
0.302866
0.302866
0.302866
0.302866
0.302866
0.302866
0.302866
0.302866
0.302866
0.302866
0.302866
0.302866
0.302866
0.302866
0.302866
0.302866
0.302866
0.302866
0.302866
0.302866
0.302866
0.302866
0.302866
0.302861
0.301283
0.140454
0.142902
0.301327
0.302861
0.302866
0.302866
0.302866
0.302866
0.302866
0.302866
0.302866
0.302866
0.302866
0.302866
0.302866
0.302866
0.302866
0.302866
0.302866
0.302866
0.302866
0.302866
0.302866
0.302866
0.302866
0.302866
0.302866
0.302866
0.302861
0.30128
0.140445
0.142467
0.301312
0.302861
0.302866
0.302866
0.302866
0.302866
0.302866
0.302866
0.302866
0.302866
0.302866
0.302866
0.302866
0.302866
0.302866
0.302866
0.302866
0.302866
0.302866
0.302866
0.302866
0.302866
0.302866
0.302866
0.302866
0.302866
0.302861
0.301272
0.140372
0.142077
0.301299
0.302861
0.302866
0.302866
0.302866
0.302866
0.302866
0.302866
0.302866
0.302866
0.302866
0.302866
0.302866
0.302866
0.302866
0.302866
0.302866
0.302866
0.302866
0.302866
0.302866
0.302866
0.302866
0.302866
0.302866
0.302866
0.302861
0.301268
0.1403
0.141734
0.301287
0.302861
0.302866
0.302866
0.302866
0.302866
0.302866
0.302866
0.302866
0.302866
0.302866
0.302866
0.302866
0.302866
0.302866
0.302866
0.302866
0.302866
0.302866
0.302866
0.302866
0.302866
0.302866
0.302866
0.302866
0.302866
0.302861
0.301265
0.140289
0.141435
0.301277
0.302861
0.302866
0.302866
0.302866
0.302866
0.302866
0.302866
0.302866
0.302866
0.302866
0.302866
0.302866
0.302866
0.302866
0.302866
0.302866
0.302866
0.302866
0.302866
0.302866
0.302866
0.302866
0.302866
0.302866
0.302866
0.302861
0.30126
0.140255
0.141176
0.301268
0.302861
0.302866
0.302866
0.302866
0.302866
0.302866
0.302866
0.302866
0.302866
0.302866
0.302866
0.302866
0.302866
0.302866
0.302866
0.302866
0.302866
0.302866
0.302866
0.302866
0.302866
0.302866
0.302866
0.302866
0.302866
0.302861
0.301258
0.140222
0.140957
0.301261
0.302861
0.302866
0.302866
0.302866
0.302866
0.302866
0.302866
0.302866
0.302866
0.302866
0.302866
0.302866
0.302866
0.302866
0.302866
0.302866
0.302866
0.302866
0.302866
0.302866
0.302866
0.302866
0.302866
0.302866
0.302866
0.302861
0.301257
0.140233
0.140776
0.301255
0.302861
0.302866
0.302866
0.302866
0.302866
0.302866
0.302866
0.302866
0.302866
0.302866
0.302866
0.302866
0.302866
0.302866
0.302866
0.302866
0.302866
0.302866
0.302866
0.302866
0.302866
0.302866
0.302866
0.302866
0.302866
0.302861
0.301254
0.140244
0.140629
0.301251
0.302861
0.302866
0.302866
0.302866
0.302866
0.302866
0.302866
0.302866
0.302866
0.302866
0.302866
0.302866
0.302866
0.302866
0.302866
0.302866
0.302866
0.302866
0.302866
0.302866
0.302866
0.302866
0.302866
0.302866
0.302866
0.302861
0.301253
0.140257
0.140515
0.301247
0.302861
0.302866
0.302866
0.302866
0.302866
0.302866
0.302866
0.302866
0.302866
0.302866
0.302866
0.302866
0.302866
0.302866
0.302866
0.302866
0.302866
0.302866
0.302866
0.302866
0.302866
0.302866
0.302866
0.302866
0.302866
0.302861
0.301255
0.140306
0.140433
0.301246
0.302861
0.302866
0.302866
0.302866
0.302866
0.302866
0.302866
0.302866
0.302866
0.302866
0.302866
0.302866
0.302866
0.302866
0.302866
0.302866
0.302866
0.302866
0.302866
0.302866
0.302866
0.302866
0.302866
0.302866
0.302866
0.302862
0.301394
0.140349
0.114335
0.114545
0.114755
0.114966
0.115176
0.115386
0.115597
0.115807
0.116017
0.116228
0.116438
0.116648
0.116859
0.117069
0.117279
0.11749
0.1177
0.11791
0.118121
0.118331
0.118541
0.118752
0.118962
0.119172
0.119383
0.119593
0.119803
0.120014
0.120224
0.120434
0.120645
0.120855
0.121065
0.121276
0.121486
0.121696
0.121907
0.122117
0.122327
0.122538
0.122748
0.122958
0.123169
0.123379
0.123589
0.1238
0.12401
0.124221
0.124431
0.124641
0.124852
0.125062
0.125272
0.125483
0.125693
0.125903
0.126114
0.126324
0.126534
0.126745
0.126955
0.127165
0.127376
0.127586
0.127796
0.128007
0.128217
0.128427
0.128638
0.128848
0.129058
0.129269
0.129479
0.12969
0.1299
0.13011
0.130321
0.130531
0.130741
0.130952
0.131162
0.131372
0.131583
0.131793
0.132003
0.132214
0.132424
0.132634
0.132845
0.133055
0.133266
0.133476
0.133686
0.133897
0.134107
0.134317
0.134528
0.134738
0.134948
0.135159
0.135369
0.135579
0.13579
0.136
0.13621
0.136421
0.136631
0.136842
0.137052
0.137262
0.137473
0.137683
0.137893
0.138104
0.138314
0.138524
0.138735
0.138945
0.139156
0.139366
0.139576
0.139787
0.139997
0.140207
0.140418
0.299633
0.299659
0.299678
0.299697
0.299715
0.299734
0.299752
0.29977
0.299788
0.299806
0.299824
0.299841
0.299859
0.299876
0.299894
0.299911
0.299928
0.299945
0.299961
0.299978
0.299995
0.300011
0.300027
0.300044
0.30006
0.300076
0.300092
0.300108
0.300123
0.300139
0.300154
0.30017
0.300185
0.3002
0.300215
0.30023
0.300245
0.30026
0.300274
0.300289
0.300303
0.300318
0.300332
0.300346
0.30036
0.300374
0.300388
0.300402
0.300416
0.300429
0.300443
0.300456
0.300469
0.300483
0.300496
0.300509
0.300522
0.300535
0.300548
0.30056
0.300573
0.300586
0.300598
0.300611
0.300623
0.300635
0.300647
0.300659
0.300671
0.300683
0.300695
0.300707
0.300719
0.30073
0.300742
0.300753
0.300765
0.300776
0.300787
0.300799
0.30081
0.300821
0.300832
0.300843
0.300854
0.300864
0.300875
0.300886
0.300896
0.300907
0.300917
0.300928
0.300938
0.300948
0.300958
0.300968
0.300978
0.300988
0.300998
0.301008
0.301018
0.301028
0.301038
0.301047
0.301057
0.301066
0.301076
0.301085
0.301094
0.301104
0.301113
0.301122
0.301131
0.30114
0.301149
0.301158
0.301167
0.301176
0.301185
0.301194
0.301202
0.301211
0.301219
0.301228
0.301238
0.30285
0.30285
0.30285
0.30285
0.30285
0.30285
0.302851
0.302851
0.302851
0.302851
0.302851
0.302851
0.302851
0.302852
0.302852
0.302852
0.302852
0.302852
0.302852
0.302852
0.302852
0.302853
0.302853
0.302853
0.302853
0.302853
0.302853
0.302853
0.302853
0.302854
0.302854
0.302854
0.302854
0.302854
0.302854
0.302854
0.302854
0.302854
0.302855
0.302855
0.302855
0.302855
0.302855
0.302855
0.302855
0.302855
0.302855
0.302856
0.302856
0.302856
0.302856
0.302856
0.302856
0.302856
0.302856
0.302856
0.302856
0.302856
0.302856
0.302857
0.302857
0.302857
0.302857
0.302857
0.302857
0.302857
0.302857
0.302857
0.302857
0.302857
0.302857
0.302858
0.302858
0.302858
0.302858
0.302858
0.302858
0.302858
0.302858
0.302858
0.302858
0.302858
0.302858
0.302858
0.302858
0.302859
0.302859
0.302859
0.302859
0.302859
0.302859
0.302859
0.302859
0.302859
0.302859
0.302859
0.302859
0.302859
0.302859
0.302859
0.302859
0.302859
0.30286
0.30286
0.30286
0.30286
0.30286
0.30286
0.30286
0.30286
0.30286
0.30286
0.30286
0.30286
0.30286
0.30286
0.30286
0.30286
0.30286
0.30286
0.30286
0.302861
0.302861
0.302861
0.302861
0.302866
0.302866
0.302866
0.302866
0.302866
0.302866
0.302866
0.302866
0.302866
0.302866
0.302866
0.302866
0.302866
0.302866
0.302866
0.302866
0.302866
0.302866
0.302866
0.302866
0.302866
0.302866
0.302866
0.302866
0.302866
0.302866
0.302866
0.302866
0.302866
0.302866
0.302866
0.302866
0.302866
0.302866
0.302866
0.302866
0.302866
0.302866
0.302866
0.302866
0.302866
0.302866
0.302866
0.302866
0.302866
0.302866
0.302866
0.302866
0.302866
0.302866
0.302866
0.302866
0.302866
0.302866
0.302866
0.302866
0.302866
0.302866
0.302866
0.302866
0.302866
0.302866
0.302866
0.302866
0.302866
0.302866
0.302866
0.302866
0.302866
0.302866
0.302866
0.302866
0.302866
0.302866
0.302866
0.302866
0.302866
0.302866
0.302866
0.302866
0.302866
0.302866
0.302866
0.302866
0.302866
0.302866
0.302866
0.302866
0.302866
0.302866
0.302866
0.302866
0.302866
0.302866
0.302866
0.302866
0.302866
0.302866
0.302866
0.302866
0.302866
0.302866
0.302866
0.302866
0.302866
0.302866
0.302866
0.302866
0.302866
0.302866
0.302866
0.302866
0.302866
0.302866
0.302866
0.302866
0.302866
0.302866
0.302866
0.302866
0.302866
0.302866
0.302866
0.302866
0.302866
0.302866
0.302866
0.302866
0.302866
0.302866
0.302866