/*--------------------------------*- C++ -*----------------------------------*\
| =========                 |                                                 |
| \\      /  F ield         | OpenFOAM: The Open Source CFD Toolbox           |
|  \\    /   O peration     | Version:  2112                                  |
|   \\  /    A nd           | Website:  www.openfoam.com                      |
|    \\/     M anipulation  |                                                 |
\*---------------------------------------------------------------------------*/
FoamFile
{
    version     2.0;
    format      ascii;
    arch        "LSB;label=32;scalar=64";
    class       volScalarField;
    location    "5e-05";
    object      epsilon;
}
// * * * * * * * * * * * * * * * * * * * * * * * * * * * * * * * * * * * * * //

dimensions      [0 2 -3 0 0 0 0];

internalField   nonuniform List<scalar> 
13875
(
1.19841e+09
4.39366e+09
5.75126e+09
6.73322e+09
7.24816e+09
7.49054e+09
7.59134e+09
7.62897e+09
7.64159e+09
7.64533e+09
7.64624e+09
7.64635e+09
7.64625e+09
7.64608e+09
7.64576e+09
7.64475e+09
7.64109e+09
7.6287e+09
7.59133e+09
7.49079e+09
7.24856e+09
6.73334e+09
5.75105e+09
4.39224e+09
1.21126e+09
1.48363e+09
2.84254e+09
3.63792e+09
4.17724e+09
4.45468e+09
4.57952e+09
4.62924e+09
4.64696e+09
4.6526e+09
4.65415e+09
4.65447e+09
4.65445e+09
4.65436e+09
4.65426e+09
4.6541e+09
4.65364e+09
4.65204e+09
4.64649e+09
4.62896e+09
4.5795e+09
4.45498e+09
4.17783e+09
3.6391e+09
2.84454e+09
1.50061e+09
9.00328e+08
1.62001e+09
2.03577e+09
2.31965e+09
2.45954e+09
2.5192e+09
2.54183e+09
2.54953e+09
2.55186e+09
2.55245e+09
2.55254e+09
2.55249e+09
2.55243e+09
2.55238e+09
2.55231e+09
2.55213e+09
2.55148e+09
2.54915e+09
2.5415e+09
2.51895e+09
2.45935e+09
2.31942e+09
2.03493e+09
1.61891e+09
8.92226e+08
3.98968e+08
9.45489e+08
1.16645e+09
1.30602e+09
1.36878e+09
1.39374e+09
1.4025e+09
1.40526e+09
1.40602e+09
1.4062e+09
1.40621e+09
1.40618e+09
1.40614e+09
1.40611e+09
1.40608e+09
1.40602e+09
1.40582e+09
1.40503e+09
1.40227e+09
1.39351e+09
1.36854e+09
1.30567e+09
1.16552e+09
9.44104e+08
3.95562e+08
1.26619e+08
4.42024e+08
5.4688e+08
6.05393e+08
6.29017e+08
6.37745e+08
6.40578e+08
6.41408e+08
6.4162e+08
6.41661e+08
6.41658e+08
6.4164e+08
6.41622e+08
6.41611e+08
6.41601e+08
6.41581e+08
6.41518e+08
6.41285e+08
6.4044e+08
6.37603e+08
6.28877e+08
6.05251e+08
5.46715e+08
4.41768e+08
1.25532e+08
3.06837e+07
1.73177e+08
2.13834e+08
2.34118e+08
2.41634e+08
2.44219e+08
2.45014e+08
2.45237e+08
2.45293e+08
2.45303e+08
2.45302e+08
2.45293e+08
2.45286e+08
2.45282e+08
2.45277e+08
2.45269e+08
2.4525e+08
2.45184e+08
2.44949e+08
2.44146e+08
2.4156e+08
2.34063e+08
2.13809e+08
1.73036e+08
3.04808e+07
2.69135e+06
1.7264e+07
2.16633e+07
2.35277e+07
2.42039e+07
2.44362e+07
2.45086e+07
2.45297e+07
2.45355e+07
2.45373e+07
2.45374e+07
2.45362e+07
2.45351e+07
2.45345e+07
2.45336e+07
2.45322e+07
2.45294e+07
2.45222e+07
2.44995e+07
2.44253e+07
2.41916e+07
2.35182e+07
2.16628e+07
1.72278e+07
2.67711e+06
1.4335e+06
380994
374323
382704
385948
387073
387428
387534
387565
387577
387577
387569
387560
387554
387546
387534
387515
387473
387356
386990
385853
382629
374335
380798
1.43336e+06
1.42437e+06
296319
260592
259620
259605
259607
259607
259608
259608
259608
259608
259608
259608
259608
259608
259608
259608
259607
259607
259607
259605
259620
260580
295922
1.42478e+06
1.5399e+06
306851
261083
259390
259338
259336
259336
259336
259336
259336
259336
259336
259336
259336
259336
259336
259336
259336
259336
259336
259338
259390
261075
306664
1.53466e+06
1.73333e+06
321325
262288
259451
259340
259335
259335
259335
259335
259335
259335
259335
259335
259335
259335
259335
259335
259335
259335
259335
259340
259461
262463
323494
1.75386e+06
1.89359e+06
335329
263567
259528
259344
259335
259335
259334
259334
259334
259334
259334
259334
259334
259334
259334
259334
259334
259335
259335
259344
259524
263527
334956
1.89697e+06
2.03139e+06
349574
264933
259617
259349
259336
259335
259334
259334
259334
259334
259334
259334
259334
259334
259334
259334
259334
259335
259335
259348
259599
264691
347182
2.02214e+06
2.13865e+06
361388
266089
259699
259355
259336
259335
259334
259334
259334
259334
259334
259334
259334
259334
259334
259334
259334
259335
259336
259352
259666
265613
357099
2.09314e+06
2.1931e+06
371126
266992
259769
259359
259336
259335
259335
259334
259334
259334
259334
259334
259334
259334
259334
259334
259335
259335
259337
259364
259838
267783
377613
2.22622e+06
2.34228e+06
391077
269260
259954
259371
259337
259335
259335
259334
259334
259334
259334
259334
259334
259334
259334
259334
259335
259335
259338
259376
260007
269838
395321
2.38043e+06
2.33709e+06
389498
268625
259883
259364
259337
259335
259335
259334
259334
259334
259334
259334
259334
259334
259334
259334
259335
259335
259336
259362
259860
268363
387288
2.33324e+06
2.3042e+06
384267
267712
259790
259355
259335
259335
259334
259334
259334
259334
259334
259334
259334
259334
259334
259334
259334
259335
259335
259354
259787
267706
384511
2.29632e+06
2.32919e+06
408259
270423
259966
259357
259334
259334
259334
259334
259334
259334
259334
259334
259334
259334
259334
259334
259334
259334
259334
259354
259894
269557
401611
2.3036e+06
2.34564e+06
428048
273493
260218
259366
259334
259334
259334
259334
259334
259334
259334
259334
259334
259334
259334
259334
259334
259334
259334
259367
260243
273780
430334
2.36581e+06
2.15657e+06
401203
270095
259926
259351
259334
259334
259334
259334
259334
259334
259334
259334
259334
259334
259334
259334
259334
259334
259334
259354
259998
270980
407837
2.1865e+06
1.99292e+06
374571
266865
259683
259342
259334
259334
259334
259334
259334
259334
259334
259334
259334
259334
259334
259334
259334
259334
259334
259343
259702
267126
376490
1.99618e+06
1.85267e+06
353373
264611
259540
259338
259334
259334
259334
259334
259334
259334
259334
259334
259334
259334
259334
259334
259334
259334
259334
259338
259527
264377
350829
1.83885e+06
1.73194e+06
335179
262951
259452
259336
259334
259334
259334
259334
259334
259334
259334
259334
259334
259334
259334
259334
259334
259334
259334
259336
259452
262965
335449
1.73588e+06
1.66114e+06
326124
262228
259419
259335
259334
259334
259334
259334
259334
259334
259334
259334
259334
259334
259334
259334
259334
259334
259334
259335
259421
262280
326797
1.6633e+06
1.58854e+06
318274
261669
259396
259335
259334
259334
259334
259334
259334
259334
259334
259334
259334
259334
259334
259334
259334
259334
259334
259335
259393
261585
317039
1.58201e+06
1.51852e+06
310142
261143
259377
259335
259334
259334
259334
259334
259334
259334
259334
259334
259334
259334
259334
259334
259334
259334
259334
259335
259379
261221
311422
1.52716e+06
1.46974e+06
305404
260862
259367
259335
259334
259334
259334
259334
259334
259334
259334
259334
259334
259334
259334
259334
259334
259334
259334
259335
259368
260870
305491
1.46712e+06
1.41977e+06
301182
260631
259360
259335
259334
259334
259334
259334
259334
259334
259334
259334
259334
259334
259334
259334
259334
259334
259334
259335
259358
260546
299607
1.41186e+06
1.36505e+06
295309
260332
259352
259335
259334
259334
259334
259334
259334
259334
259334
259334
259334
259334
259334
259334
259334
259334
259334
259335
259354
260398
296692
1.37474e+06
1.33298e+06
292486
260199
259349
259335
259334
259334
259334
259334
259334
259334
259334
259334
259334
259334
259334
259334
259334
259334
259334
259335
259349
260195
292370
1.32942e+06
1.30211e+06
290464
260112
259347
259334
259334
259334
259334
259334
259334
259334
259334
259334
259334
259334
259334
259334
259334
259334
259334
259334
259346
260072
289563
1.29802e+06
1.26559e+06
286980
259967
259344
259334
259334
259334
259334
259334
259334
259334
259334
259334
259334
259334
259334
259334
259334
259334
259334
259334
259344
259997
287729
1.27044e+06
1.24355e+06
285267
259900
259342
259334
259334
259334
259334
259334
259334
259334
259334
259334
259334
259334
259334
259334
259334
259334
259334
259334
259342
259893
285063
1.24084e+06
1.22278e+06
284191
259862
259342
259334
259334
259334
259334
259334
259334
259334
259334
259334
259334
259334
259334
259334
259334
259334
259334
259334
259341
259839
283579
1.22057e+06
1.19717e+06
281897
259780
259340
259334
259334
259334
259334
259334
259334
259334
259334
259334
259334
259334
259334
259334
259334
259334
259334
259334
259341
259804
282583
1.20112e+06
1.18137e+06
280783
259743
259339
259334
259334
259334
259334
259334
259334
259334
259334
259334
259334
259334
259334
259334
259334
259334
259334
259334
259339
259739
280668
1.17952e+06
1.16661e+06
280142
259723
259339
259334
259334
259334
259334
259334
259334
259334
259334
259334
259334
259334
259334
259334
259334
259334
259334
259334
259339
259707
279647
1.16508e+06
1.14876e+06
278547
259673
259338
259334
259334
259334
259334
259334
259334
259334
259334
259334
259334
259334
259334
259334
259334
259334
259334
259334
259339
259690
279116
1.1516e+06
1.13758e+06
277800
259650
259338
259334
259334
259334
259334
259334
259334
259334
259334
259334
259334
259334
259334
259334
259334
259334
259334
259334
259338
259648
277725
1.13633e+06
1.12731e+06
277437
259640
259338
259334
259334
259334
259334
259334
259334
259334
259334
259334
259334
259334
259334
259334
259334
259334
259334
259334
259338
259628
277011
1.12622e+06
1.11517e+06
276291
259608
259337
259334
259334
259334
259334
259334
259334
259334
259334
259334
259334
259334
259334
259334
259334
259334
259334
259334
259338
259620
276741
1.11699e+06
1.10754e+06
275781
259594
259337
259334
259334
259334
259334
259334
259334
259334
259334
259334
259334
259334
259334
259334
259334
259334
259334
259334
259337
259593
275750
1.10683e+06
1.1007e+06
275598
259589
259337
259334
259334
259334
259334
259334
259334
259334
259334
259334
259334
259334
259334
259334
259334
259334
259334
259334
259337
259580
275240
1.1e+06
1.09296e+06
274770
259568
259337
259334
259334
259334
259334
259334
259334
259334
259334
259334
259334
259334
259334
259334
259334
259334
259334
259334
259337
259576
275097
1.09391e+06
1.08814e+06
274424
259559
259337
259334
259334
259334
259334
259334
259334
259334
259334
259334
259334
259334
259334
259334
259334
259334
259334
259334
259337
259559
274437
1.08783e+06
1.08394e+06
274359
259558
259337
259334
259334
259334
259334
259334
259334
259334
259334
259334
259334
259334
259334
259334
259334
259334
259334
259334
259337
259550
274067
1.08358e+06
1.07963e+06
273768
259543
259337
259334
259334
259334
259334
259334
259334
259334
259334
259334
259334
259334
259334
259334
259334
259334
259334
259334
259337
259549
273989
1.08e+06
1.07699e+06
273537
259538
259336
259334
259334
259334
259334
259334
259334
259334
259334
259334
259334
259334
259334
259334
259334
259334
259334
259334
259336
259540
273615
1.07693e+06
1.07519e+06
273417
259536
259336
259334
259334
259334
259334
259334
259334
259334
259334
259334
259334
259334
259334
259334
259334
259334
259334
259334
259336
259533
273312
1.07514e+06
558900
262405
259545
259521
259518
259515
259512
259509
259507
259504
259502
259499
259497
259494
259492
259490
259488
259485
259483
259481
259479
259477
259475
259474
259472
259470
259468
259469
260367
492096
589472
261143
259351
259337
259337
259337
259337
259337
259337
259337
259336
259336
259336
259336
259336
259336
259336
259336
259336
259336
259336
259336
259336
259336
259336
259336
259336
259338
260333
496489
563896
260641
259344
259335
259335
259335
259335
259335
259335
259335
259335
259335
259334
259334
259334
259334
259334
259334
259334
259334
259334
259334
259334
259334
259334
259334
259334
259337
260364
501056
549820
260649
259343
259335
259334
259334
259334
259334
259334
259334
259334
259334
259334
259334
259334
259334
259334
259334
259334
259334
259334
259334
259334
259334
259334
259334
259334
259337
260389
504998
550312
260728
259343
259335
259334
259334
259334
259334
259334
259334
259334
259334
259334
259334
259334
259334
259334
259334
259334
259334
259334
259334
259334
259334
259334
259334
259334
259338
260416
508636
551297
260735
259343
259335
259334
259334
259334
259334
259334
259334
259334
259334
259334
259334
259334
259334
259334
259334
259334
259334
259334
259334
259334
259334
259334
259334
259334
259338
260443
512161
550999
260718
259342
259335
259334
259334
259334
259334
259334
259334
259334
259334
259334
259334
259334
259334
259334
259334
259334
259334
259334
259334
259334
259334
259334
259334
259334
259338
260470
515545
549247
260696
259342
259335
259334
259334
259334
259334
259334
259334
259334
259334
259334
259334
259334
259334
259334
259334
259334
259334
259334
259334
259334
259334
259334
259334
259334
259338
260494
518715
547477
260683
259341
259335
259334
259334
259334
259334
259334
259334
259334
259334
259334
259334
259334
259334
259334
259334
259334
259334
259334
259334
259334
259334
259334
259334
259334
259338
260516
521630
546273
260680
259341
259335
259334
259334
259334
259334
259334
259334
259334
259334
259334
259334
259334
259334
259334
259334
259334
259334
259334
259334
259334
259334
259334
259334
259334
259338
260537
524293
545717
260681
259340
259335
259334
259334
259334
259334
259334
259334
259334
259334
259334
259334
259334
259334
259334
259334
259334
259334
259334
259334
259334
259334
259334
259334
259334
259338
260556
526732
545574
260684
259340
259335
259334
259334
259334
259334
259334
259334
259334
259334
259334
259334
259334
259334
259334
259334
259334
259334
259334
259334
259334
259334
259334
259334
259334
259338
260574
528973
545536
260686
259340
259335
259334
259334
259334
259334
259334
259334
259334
259334
259334
259334
259334
259334
259334
259334
259334
259334
259334
259334
259334
259334
259334
259334
259334
259338
260590
531033
545677
260687
259340
259335
259334
259334
259334
259334
259334
259334
259334
259334
259334
259334
259334
259334
259334
259334
259334
259334
259334
259334
259334
259334
259334
259334
259334
259338
260605
532925
545476
260687
259340
259335
259334
259334
259334
259334
259334
259334
259334
259334
259334
259334
259334
259334
259334
259334
259334
259334
259334
259334
259334
259334
259334
259334
259334
259339
260619
534641
545601
260690
259340
259335
259334
259334
259334
259334
259334
259334
259334
259334
259334
259334
259334
259334
259334
259334
259334
259334
259334
259334
259334
259334
259334
259334
259334
259339
260632
536189
545583
260689
259340
259335
259334
259334
259334
259334
259334
259334
259334
259334
259334
259334
259334
259334
259334
259334
259334
259334
259334
259334
259334
259334
259334
259334
259334
259339
260643
537582
545450
260690
259340
259335
259334
259334
259334
259334
259334
259334
259334
259334
259334
259334
259334
259334
259334
259334
259334
259334
259334
259334
259334
259334
259334
259334
259334
259339
260652
538812
545464
260691
259339
259335
259334
259334
259334
259334
259334
259334
259334
259334
259334
259334
259334
259334
259334
259334
259334
259334
259334
259334
259334
259334
259334
259334
259334
259339
260661
539892
545309
260690
259339
259334
259334
259334
259334
259334
259334
259334
259334
259334
259334
259334
259334
259334
259334
259334
259334
259334
259334
259334
259334
259334
259334
259334
259334
259339
260668
540829
545135
260690
259339
259334
259334
259334
259334
259334
259334
259334
259334
259334
259334
259334
259334
259334
259334
259334
259334
259334
259334
259334
259334
259334
259334
259334
259334
259339
260674
541622
545006
260689
259339
259334
259334
259334
259334
259334
259334
259334
259334
259334
259334
259334
259334
259334
259334
259334
259334
259334
259334
259334
259334
259334
259334
259334
259334
259339
260679
542285
544701
260687
259339
259334
259334
259334
259334
259334
259334
259334
259334
259334
259334
259334
259334
259334
259334
259334
259334
259334
259334
259334
259334
259334
259334
259334
259334
259339
260683
542820
544431
260685
259339
259334
259334
259334
259334
259334
259334
259334
259334
259334
259334
259334
259334
259334
259334
259334
259334
259334
259334
259334
259334
259334
259334
259334
259334
259339
260686
543233
544188
260560
259338
259334
259334
259334
259334
259334
259334
259334
259334
259334
259334
259334
259334
259334
259334
259334
259334
259334
259334
259334
259334
259334
259334
259334
259334
259339
260687
543537
492098
260367
259469
259468
259470
259472
259474
259475
259477
259479
259481
259483
259485
259488
259490
259492
259494
259497
259499
259502
259504
259507
259509
259512
259515
259518
259521
259546
262408
559049
496491
260333
259338
259336
259336
259336
259336
259336
259336
259336
259336
259336
259336
259336
259336
259336
259336
259336
259336
259336
259337
259337
259337
259337
259337
259337
259337
259351
261142
589395
501062
260364
259337
259334
259334
259334
259334
259334
259334
259334
259334
259334
259334
259334
259334
259334
259334
259334
259335
259335
259335
259335
259335
259335
259335
259335
259335
259344
260642
564022
505000
260389
259337
259334
259334
259334
259334
259334
259334
259334
259334
259334
259334
259334
259334
259334
259334
259334
259334
259334
259334
259334
259334
259334
259334
259334
259335
259343
260646
549643
508634
260416
259338
259334
259334
259334
259334
259334
259334
259334
259334
259334
259334
259334
259334
259334
259334
259334
259334
259334
259334
259334
259334
259334
259334
259334
259335
259343
260730
550241
512164
260443
259338
259334
259334
259334
259334
259334
259334
259334
259334
259334
259334
259334
259334
259334
259334
259334
259334
259334
259334
259334
259334
259334
259334
259334
259335
259343
260735
551547
515543
260470
259338
259334
259334
259334
259334
259334
259334
259334
259334
259334
259334
259334
259334
259334
259334
259334
259334
259334
259334
259334
259334
259334
259334
259334
259335
259342
260715
550666
518712
260494
259338
259334
259334
259334
259334
259334
259334
259334
259334
259334
259334
259334
259334
259334
259334
259334
259334
259334
259334
259334
259334
259334
259334
259334
259335
259342
260699
549428
521630
260516
259338
259334
259334
259334
259334
259334
259334
259334
259334
259334
259334
259334
259334
259334
259334
259334
259334
259334
259334
259334
259334
259334
259334
259334
259335
259341
260682
547453
524291
260537
259338
259334
259334
259334
259334
259334
259334
259334
259334
259334
259334
259334
259334
259334
259334
259334
259334
259334
259334
259334
259334
259334
259334
259334
259335
259341
260680
546196
526734
260556
259338
259334
259334
259334
259334
259334
259334
259334
259334
259334
259334
259334
259334
259334
259334
259334
259334
259334
259334
259334
259334
259334
259334
259334
259335
259340
260682
545897
528974
260574
259338
259334
259334
259334
259334
259334
259334
259334
259334
259334
259334
259334
259334
259334
259334
259334
259334
259334
259334
259334
259334
259334
259334
259334
259335
259340
260682
545428
531031
260590
259338
259334
259334
259334
259334
259334
259334
259334
259334
259334
259334
259334
259334
259334
259334
259334
259334
259334
259334
259334
259334
259334
259334
259334
259335
259340
260687
545559
532924
260605
259338
259334
259334
259334
259334
259334
259334
259334
259334
259334
259334
259334
259334
259334
259334
259334
259334
259334
259334
259334
259334
259334
259334
259334
259335
259340
260688
545695
534642
260619
259339
259334
259334
259334
259334
259334
259334
259334
259334
259334
259334
259334
259334
259334
259334
259334
259334
259334
259334
259334
259334
259334
259334
259334
259335
259340
260686
545490
536188
260631
259339
259334
259334
259334
259334
259334
259334
259334
259334
259334
259334
259334
259334
259334
259334
259334
259334
259334
259334
259334
259334
259334
259334
259334
259335
259340
260690
545552
537581
260643
259339
259334
259334
259334
259334
259334
259334
259334
259334
259334
259334
259334
259334
259334
259334
259334
259334
259334
259334
259334
259334
259334
259334
259334
259335
259340
260690
545627
538814
260652
259339
259334
259334
259334
259334
259334
259334
259334
259334
259334
259334
259334
259334
259334
259334
259334
259334
259334
259334
259334
259334
259334
259334
259334
259335
259340
260689
545461
539891
260661
259339
259334
259334
259334
259334
259334
259334
259334
259334
259334
259334
259334
259334
259334
259334
259334
259334
259334
259334
259334
259334
259334
259334
259334
259335
259339
260691
545402
540828
260668
259339
259334
259334
259334
259334
259334
259334
259334
259334
259334
259334
259334
259334
259334
259334
259334
259334
259334
259334
259334
259334
259334
259334
259334
259334
259339
260691
545360
541624
260674
259339
259334
259334
259334
259334
259334
259334
259334
259334
259334
259334
259334
259334
259334
259334
259334
259334
259334
259334
259334
259334
259334
259334
259334
259334
259339
260689
545144
542283
260679
259339
259334
259334
259334
259334
259334
259334
259334
259334
259334
259334
259334
259334
259334
259334
259334
259334
259334
259334
259334
259334
259334
259334
259334
259334
259339
260689
544943
542819
260683
259339
259334
259334
259334
259334
259334
259334
259334
259334
259334
259334
259334
259334
259334
259334
259334
259334
259334
259334
259334
259334
259334
259334
259334
259334
259339
260688
544755
543234
260686
259339
259334
259334
259334
259334
259334
259334
259334
259334
259334
259334
259334
259334
259334
259334
259334
259334
259334
259334
259334
259334
259334
259334
259334
259334
259339
260684
544428
543538
260687
259339
259334
259334
259334
259334
259334
259334
259334
259334
259334
259334
259334
259334
259334
259334
259334
259334
259334
259334
259334
259334
259334
259334
259334
259334
259338
260560
544180
659551
658418
657290
656165
655044
653926
652813
651703
650598
649495
648397
647302
646211
645124
644040
642960
641884
640811
639742
638676
637614
636555
635500
634449
633401
632356
631315
630277
629242
628211
627184
626160
625139
624121
623107
622096
621088
620083
619082
618084
617089
616098
615109
614124
613142
612163
611187
610214
609244
608278
607314
606354
605396
604442
603490
602542
601597
600654
599714
598778
597844
596913
595985
595060
594138
593219
592302
591389
590478
589570
588665
587762
586863
585966
585071
584180
583291
582405
581522
580641
579763
578887
578015
577145
576277
575412
574550
573690
572833
571978
571126
570277
569430
568585
567743
566904
566067
565232
564400
563570
562743
561918
561096
560276
559458
558643
557830
557020
556211
555406
554602
553801
553002
552206
551411
550619
549830
549042
548257
547474
546694
545915
545139
544365
543593
262048
262026
262010
261994
261978
261963
261947
261932
261916
261901
261886
261871
261856
261842
261827
261813
261798
261784
261770
261756
261741
261728
261714
261700
261686
261673
261659
261646
261633
261620
261607
261594
261581
261568
261555
261543
261530
261518
261505
261493
261481
261469
261457
261445
261433
261421
261409
261398
261386
261374
261363
261352
261340
261329
261318
261307
261296
261285
261275
261264
261253
261243
261232
261222
261211
261201
261191
261180
261170
261160
261150
261140
261130
261121
261111
261101
261092
261082
261073
261063
261054
261045
261035
261026
261017
261008
260999
260990
260981
260972
260963
260955
260946
260937
260929
260920
260912
260903
260895
260887
260879
260870
260862
260854
260846
260838
260830
260822
260814
260807
260799
260791
260784
260776
260768
260761
260753
260746
260739
260731
260724
260717
260709
260702
260694
259348
259348
259348
259348
259348
259347
259347
259347
259347
259347
259347
259347
259347
259346
259346
259346
259346
259346
259346
259346
259346
259346
259345
259345
259345
259345
259345
259345
259345
259345
259345
259345
259344
259344
259344
259344
259344
259344
259344
259344
259344
259344
259344
259344
259343
259343
259343
259343
259343
259343
259343
259343
259343
259343
259343
259343
259343
259342
259342
259342
259342
259342
259342
259342
259342
259342
259342
259342
259342
259342
259342
259342
259341
259341
259341
259341
259341
259341
259341
259341
259341
259341
259341
259341
259341
259341
259341
259341
259341
259340
259340
259340
259340
259340
259340
259340
259340
259340
259340
259340
259340
259340
259340
259340
259340
259340
259340
259340
259340
259340
259339
259339
259339
259339
259339
259339
259339
259339
259339
259339
259339
259339
259339
259339
259339
259335
259335
259335
259335
259335
259335
259335
259335
259335
259335
259335
259335
259335
259335
259335
259335
259335
259335
259335
259335
259335
259335
259335
259335
259335
259335
259335
259335
259335
259335
259335
259335
259335
259335
259335
259335
259335
259335
259335
259335
259335
259335
259335
259335
259335
259335
259335
259335
259335
259335
259335
259335
259335
259335
259335
259335
259335
259335
259335
259335
259335
259335
259335
259335
259335
259335
259335
259335
259335
259335
259335
259335
259335
259335
259335
259335
259335
259335
259335
259335
259335
259335
259335
259335
259334
259334
259334
259334
259334
259334
259334
259334
259334
259334
259334
259334
259334
259334
259334
259334
259334
259334
259334
259334
259334
259334
259334
259334
259334
259334
259334
259334
259334
259334
259334
259334
259334
259334
259334
259334
259334
259334
259334
259334
259334
259334
259334
259334
259334
259334
259334
259334
259334
259334
259334
259334
259334
259334
259334
259334
259334
259334
259334
259334
259334
259334
259334
259334
259334
259334
259334
259334
259334
259334
259334
259334
259334
259334
259334
259334
259334
259334
259334
259334
259334
259334
259334
259334
259334
259334
259334
259334
259334
259334
259334
259334
259334
259334
259334
259334
259334
259334
259334
259334
259334
259334
259334
259334
259334
259334
259334
259334
259334
259334
259334
259334
259334
259334
259334
259334
259334
259334
259334
259334
259334
259334
259334
259334
259334
259334
259334
259334
259334
259334
259334
259334
259334
259334
259334
259334
259334
259334
259334
259334
259334
259334
259334
259334
259334
259334
259334
259334
259334
259334
259334
259334
259334
259334
259334
259334
259334
259334
259334
259334
259334
259334
259334
259334
259334
259334
259334
259334
259334
259334
259334
259334
259334
259334
259334
259334
259334
259334
259334
259334
259334
259334
259334
259334
259334
259334
259334
259334
259334
259334
259334
259334
259334
259334
259334
259334
259334
259334
259334
259334
259334
259334
259334
259334
259334
259334
259334
259334
259334
259334
259334
259334
259334
259334
259334
259334
259334
259334
259334
259334
259334
259334
259334
259334
259334
259334
259334
259334
259334
259334
259334
259334
259334
259334
259334
259334
259334
259334
259334
259334
259334
259334
259334
259334
259334
259334
259334
259334
259334
259334
259334
259334
259334
259334
259334
259334
259334
259334
259334
259334
259334
259334
259334
259334
259334
259334
259334
259334
259334
259334
259334
259334
259334
259334
259334
259334
259334
259334
259334
259334
259334
259334
259334
259334
259334
259334
259334
259334
259334
259334
259334
259334
259334
259334
259334
259334
259334
259334
259334
259334
259334
259334
259334
259334
259334
259334
259334
259334
259334
259334
259334
259334
259334
259334
259334
259334
259334
259334
259334
259334
259334
259334
259334
259334
259334
259334
259334
259334
259334
259334
259334
259334
259334
259334
259334
259334
259334
259334
259334
259334
259334
259334
259334
259334
259334
259334
259334
259334
259334
259334
259334
259334
259334
259334
259334
259334
259334
259334
259334
259334
259334
259334
259334
259334
259334
259334
259334
259334
259334
259334
259334
259334
259334
259334
259334
259334
259334
259334
259334
259334
259334
259334
259334
259334
259334
259334
259334
259334
259334
259334
259334
259334
259334
259334
259334
259334
259334
259334
259334
259334
259334
259334
259334
259334
259334
259334
259334
259334
259334
259334
259334
259334
259334
259334
259334
259334
259334
259334
259334
259334
259334
259334
259334
259334
259334
259334
259334
259334
259334
259334
259334
259334
259334
259334
259334
259334
259334
259334
259334
259334
259334
259334
259334
259334
259334
259334
259334
259334
259334
259334
259334
259334
259334
259334
259334
259334
259334
259334
259334
259334
259334
259334
259334
259334
259334
259334
259334
259334
259334
259334
259334
259334
259334
259334
259334
259334
259334
259334
259334
259334
259334
259334
259334
259334
259334
259334
259334
259334
259334
259334
259334
259334
259334
259334
259334
259334
259334
259334
259334
259334
259334
259334
259334
259334
259334
259334
259334
259334
259334
259334
259334
259334
259334
259334
259334
259334
259334
259334
259334
259334
259334
259334
259334
259334
259334
259334
259334
259334
259334
259334
259334
259334
259334
259334
259334
259334
259334
259334
259334
259334
259334
259334
259334
259334
259334
259334
259334
259334
259334
259334
259334
259334
259334
259334
259334
259334
259334
259334
259334
259334
259334
259334
259334
259334
259334
259334
259334
259334
259334
259334
259334
259334
259334
259334
259334
259334
259334
259334
259334
259334
259334
259334
259334
259334
259334
259334
259334
259334
259334
259334
259334
259334
259334
259334
259334
259334
259334
259334
259334
259334
259334
259334
259334
259334
259334
259334
259334
259334
259334
259334
259334
259334
259334
259334
259334
259334
259334
259334
259334
259334
259334
259334
259334
259334
259334
259334
259334
259334
259334
259334
259334
259334
259334
259334
259334
259334
259334
259334
259334
259334
259334
259334
259334
259334
259334
259334
259334
259334
259334
259334
259334
259334
259334
259334
259334
259334
259334
259334
259334
259334
259334
259334
259334
259334
259334
259334
259334
259334
259334
259334
259334
259334
259334
259334
259334
259334
259334
259334
259334
259334
259334
259334
259334
259334
259334
259334
259334
259334
259334
259334
259334
259334
259334
259334
259334
259334
259334
259334
259334
259334
259334
259334
259334
259334
259334
259334
259334
259334
259334
259334
259334
259334
259334
259334
259334
259334
259334
259334
259334
259334
259334
259334
259334
259334
259334
259334
259334
259334
259334
259334
259334
259334
259334
259334
259334
259334
259334
259334
259334
259334
259334
259334
259334
259334
259334
259334
259334
259334
259334
259334
259334
259334
259334
259334
259334
259334
259334
259334
259334
259334
259334
259334
259334
259334
259334