/*--------------------------------*- C++ -*----------------------------------*\
| =========                 |                                                 |
| \\      /  F ield         | OpenFOAM: The Open Source CFD Toolbox           |
|  \\    /   O peration     | Version:  2112                                  |
|   \\  /    A nd           | Website:  www.openfoam.com                      |
|    \\/     M anipulation  |                                                 |
\*---------------------------------------------------------------------------*/
FoamFile
{
    version     2.0;
    format      ascii;
    arch        "LSB;label=32;scalar=64";
    class       volScalarField;
    location    "5e-05";
    object      k;
}
// * * * * * * * * * * * * * * * * * * * * * * * * * * * * * * * * * * * * * //

dimensions      [0 2 -2 0 0 0 0];

internalField   nonuniform List<scalar> 
13875
(
83393.3
523593
683688
786423
839552
864384
874703
878557
879854
880244
880343
880360
880354
880339
880309
880207
879830
878557
874727
864429
839607
786446
683661
523371
83987.2
99253
422568
541752
611475
646432
661989
668155
670348
671048
671244
671287
671288
671280
671269
671250
671195
670996
670307
668136
662000
646481
611567
541918
422787
100009
72854.3
300657
379824
424646
445834
454686
457997
459112
459448
459534
459547
459541
459534
459527
459517
459493
459401
459065
457957
454655
445808
424608
379691
300409
72417.9
43625.3
209505
259729
285547
296540
300768
302220
302670
302793
302821
302823
302818
302812
302807
302803
302794
302762
302635
302184
300731
296496
285476
259535
209116
43377.3
20607.5
116590
143855
156304
161015
162681
163206
163357
163395
163402
163401
163398
163395
163393
163391
163387
163376
163333
163179
162652
160985
156272
143817
116514
20486.6
8279.19
50729.6
62068.6
66702.7
68307.4
68833.8
68991.1
69034.7
69045.4
69047.6
69047.2
69045.5
69043.9
69042.9
69041.9
69040.1
69036
69022.8
68976.7
68817.2
68289.6
66688.4
62061.7
50688.7
8240.74
1659.68
6235.26
7552.77
8000.03
8151.74
8201.84
8217.25
8221.78
8223.1
8223.55
8223.59
8223.3
8223.02
8222.85
8222.62
8222.24
8221.54
8219.89
8214.94
8199.03
8148.46
7997.36
7552.47
6223.04
1652.42
933.098
1019.93
1031.26
1033.68
1034.45
1034.71
1034.79
1034.82
1034.83
1034.83
1034.83
1034.83
1034.83
1034.82
1034.82
1034.82
1034.81
1034.8
1034.77
1034.68
1034.42
1033.65
1031.26
1019.84
933.165
928.222
985.024
987
987.045
987.045
987.045
987.045
987.045
987.045
987.045
987.045
987.045
987.045
987.045
987.045
987.045
987.045
987.045
987.045
987.045
987.045
987.045
987.008
985.062
928.397
927.636
985.409
987.035
986.905
986.88
986.877
986.877
986.877
986.877
986.877
986.877
986.877
986.877
986.877
986.877
986.877
986.877
986.877
986.877
986.877
986.88
986.905
987.037
985.429
927.82
921.878
985.497
987.244
986.939
986.882
986.875
986.875
986.875
986.875
986.875
986.875
986.875
986.875
986.875
986.875
986.875
986.875
986.875
986.875
986.875
986.883
986.944
987.269
985.483
921.204
915.417
985.234
987.415
986.978
986.888
986.876
986.875
986.874
986.874
986.874
986.874
986.874
986.874
986.874
986.874
986.874
986.874
986.874
986.875
986.876
986.888
986.976
987.41
985.221
915.292
908.97
984.736
987.537
987.015
986.894
986.877
986.875
986.875
986.874
986.874
986.874
986.874
986.874
986.874
986.874
986.874
986.874
986.875
986.875
986.877
986.893
987.005
987.5
984.712
909.146
903.044
984.072
987.574
987.039
986.9
986.878
986.875
986.875
986.874
986.874
986.874
986.874
986.874
986.874
986.874
986.874
986.874
986.875
986.875
986.877
986.897
987.024
987.515
984.148
904.924
899.123
983.375
987.519
987.046
986.903
986.878
986.875
986.875
986.874
986.874
986.874
986.874
986.874
986.874
986.874
986.874
986.874
986.875
986.875
986.879
986.909
987.078
987.617
983.364
897.921
890.623
982.243
987.506
987.079
986.912
986.88
986.875
986.875
986.874
986.874
986.874
986.874
986.874
986.874
986.874
986.874
986.874
986.875
986.875
986.881
986.916
987.103
987.589
982.221
889.306
887.574
981.212
987.097
986.993
986.898
986.878
986.875
986.875
986.874
986.874
986.874
986.874
986.874
986.874
986.874
986.874
986.874
986.875
986.875
986.878
986.896
986.986
987.085
981.252
887.729
883.683
980.113
986.521
986.878
986.879
986.875
986.875
986.874
986.874
986.874
986.874
986.874
986.874
986.874
986.874
986.874
986.874
986.874
986.875
986.875
986.877
986.866
986.45
979.935
883.139
872.519
976.637
985.41
986.68
986.848
986.871
986.874
986.874
986.874
986.874
986.874
986.874
986.874
986.874
986.874
986.874
986.874
986.874
986.874
986.872
986.853
986.707
985.553
977.197
874.695
866.452
973.6
984.567
986.498
986.818
986.867
986.873
986.874
986.874
986.874
986.874
986.874
986.874
986.874
986.874
986.874
986.874
986.874
986.873
986.866
986.817
986.491
984.529
973.466
865.183
876.396
975.13
984.926
986.576
986.832
986.869
986.874
986.874
986.874
986.874
986.874
986.874
986.874
986.874
986.874
986.874
986.874
986.874
986.874
986.868
986.827
986.541
984.764
974.489
874.204
886.467
977.319
985.468
986.686
986.85
986.872
986.874
986.874
986.874
986.874
986.874
986.874
986.874
986.874
986.874
986.874
986.874
986.874
986.874
986.871
986.848
986.673
985.406
977.079
886.057
895.44
979.162
985.881
986.759
986.861
986.873
986.874
986.874
986.874
986.874
986.874
986.874
986.874
986.874
986.874
986.874
986.874
986.874
986.874
986.873
986.862
986.765
985.925
979.404
896.471
903.374
980.803
986.201
986.807
986.867
986.874
986.874
986.874
986.874
986.874
986.874
986.874
986.874
986.874
986.874
986.874
986.874
986.874
986.874
986.874
986.868
986.808
986.2
980.788
903.115
907.617
981.562
986.335
986.826
986.87
986.874
986.874
986.874
986.874
986.874
986.874
986.874
986.874
986.874
986.874
986.874
986.874
986.874
986.874
986.874
986.87
986.825
986.325
981.492
907.429
912.005
982.197
986.438
986.839
986.871
986.874
986.874
986.874
986.874
986.874
986.874
986.874
986.874
986.874
986.874
986.874
986.874
986.874
986.874
986.874
986.871
986.84
986.455
982.318
912.511
916.445
982.896
986.539
986.849
986.872
986.874
986.874
986.874
986.874
986.874
986.874
986.874
986.874
986.874
986.874
986.874
986.874
986.874
986.874
986.874
986.872
986.848
986.522
982.768
915.747
919.3
983.274
986.59
986.855
986.873
986.874
986.874
986.874
986.874
986.874
986.874
986.874
986.874
986.874
986.874
986.874
986.874
986.874
986.874
986.874
986.873
986.854
986.588
983.261
919.477
922.366
983.615
986.634
986.859
986.873
986.874
986.874
986.874
986.874
986.874
986.874
986.874
986.874
986.874
986.874
986.874
986.874
986.874
986.874
986.874
986.873
986.86
986.653
983.776
923.076
926.147
984.15
986.696
986.864
986.874
986.874
986.874
986.874
986.874
986.874
986.874
986.874
986.874
986.874
986.874
986.874
986.874
986.874
986.874
986.874
986.874
986.863
986.681
984.01
925.307
928.056
984.382
986.721
986.866
986.874
986.874
986.874
986.874
986.874
986.874
986.874
986.874
986.874
986.874
986.874
986.874
986.874
986.874
986.874
986.874
986.874
986.866
986.723
984.393
928.325
929.917
984.539
986.738
986.867
986.874
986.874
986.874
986.874
986.874
986.874
986.874
986.874
986.874
986.874
986.874
986.874
986.874
986.874
986.874
986.874
986.874
986.868
986.746
984.631
930.316
932.467
984.856
986.768
986.869
986.874
986.874
986.874
986.874
986.874
986.874
986.874
986.874
986.874
986.874
986.874
986.874
986.874
986.874
986.874
986.874
986.874
986.869
986.761
984.779
932.005
933.784
984.993
986.78
986.87
986.874
986.874
986.874
986.874
986.874
986.874
986.874
986.874
986.874
986.874
986.874
986.874
986.874
986.874
986.874
986.874
986.874
986.87
986.783
985.019
934.062
935.02
985.074
986.788
986.87
986.874
986.874
986.874
986.874
986.874
986.874
986.874
986.874
986.874
986.874
986.874
986.874
986.874
986.874
986.874
986.874
986.874
986.871
986.792
985.134
935.246
936.835
985.282
986.805
986.872
986.874
986.874
986.874
986.874
986.874
986.874
986.874
986.874
986.874
986.874
986.874
986.874
986.874
986.874
986.874
986.874
986.874
986.871
986.799
985.211
936.421
937.795
985.37
986.812
986.872
986.874
986.874
986.874
986.874
986.874
986.874
986.874
986.874
986.874
986.874
986.874
986.874
986.874
986.874
986.874
986.874
986.874
986.872
986.813
985.387
937.993
938.684
985.419
986.816
986.872
986.874
986.874
986.874
986.874
986.874
986.874
986.874
986.874
986.874
986.874
986.874
986.874
986.874
986.874
986.874
986.874
986.874
986.872
986.819
985.465
938.857
940.008
985.565
986.827
986.873
986.874
986.874
986.874
986.874
986.874
986.874
986.874
986.874
986.874
986.874
986.874
986.874
986.874
986.874
986.874
986.874
986.874
986.872
986.822
985.506
939.673
940.699
985.623
986.831
986.873
986.874
986.874
986.874
986.874
986.874
986.874
986.874
986.874
986.874
986.874
986.874
986.874
986.874
986.874
986.874
986.874
986.874
986.873
986.832
985.636
940.849
941.328
985.651
986.833
986.873
986.874
986.874
986.874
986.874
986.874
986.874
986.874
986.874
986.874
986.874
986.874
986.874
986.874
986.874
986.874
986.874
986.874
986.873
986.835
985.691
941.475
942.293
985.759
986.84
986.873
986.874
986.874
986.874
986.874
986.874
986.874
986.874
986.874
986.874
986.874
986.874
986.874
986.874
986.874
986.874
986.874
986.874
986.873
986.837
985.712
942.037
942.78
985.798
986.843
986.873
986.874
986.874
986.874
986.874
986.874
986.874
986.874
986.874
986.874
986.874
986.874
986.874
986.874
986.874
986.874
986.874
986.874
986.874
986.843
985.807
942.882
943.212
985.813
986.844
986.874
986.874
986.874
986.874
986.874
986.874
986.874
986.874
986.874
986.874
986.874
986.874
986.874
986.874
986.874
986.874
986.874
986.874
986.874
986.846
985.846
943.335
943.897
985.893
986.849
986.874
986.874
986.874
986.874
986.874
986.874
986.874
986.874
986.874
986.874
986.874
986.874
986.874
986.874
986.874
986.874
986.874
986.874
986.874
986.847
985.858
943.716
944.225
985.919
986.851
986.874
986.874
986.874
986.874
986.874
986.874
986.874
986.874
986.874
986.874
986.874
986.874
986.874
986.874
986.874
986.874
986.874
986.874
986.874
986.851
985.923
944.281
944.504
985.926
986.851
986.874
986.874
986.874
986.874
986.874
986.874
986.874
986.874
986.874
986.874
986.874
986.874
986.874
986.874
986.874
986.874
986.874
986.874
986.874
986.853
985.953
944.603
944.967
985.985
986.855
986.874
986.874
986.874
986.874
986.874
986.874
986.874
986.874
986.874
986.874
986.874
986.874
986.874
986.874
986.874
986.874
986.874
986.874
986.874
986.853
985.96
944.834
945.171
986.001
986.856
986.874
986.874
986.874
986.874
986.874
986.874
986.874
986.874
986.874
986.874
986.874
986.874
986.874
986.874
986.874
986.874
986.874
986.874
986.874
986.856
985.996
945.156
945.596
985.998
986.856
986.874
986.874
986.874
986.874
986.874
986.874
986.874
986.874
986.874
986.874
986.874
986.874
986.874
986.874
986.874
986.874
986.874
986.874
986.874
986.857
986.008
945.642
976.319
987.348
987.326
987.313
987.305
987.298
987.292
987.285
987.279
987.272
987.266
987.26
987.254
987.249
987.243
987.238
987.233
987.227
987.222
987.217
987.213
987.208
987.203
987.199
987.195
987.19
987.186
987.182
987.118
976.058
974.547
986.958
986.888
986.881
986.881
986.881
986.88
986.88
986.88
986.88
986.88
986.88
986.879
986.879
986.879
986.879
986.879
986.879
986.879
986.879
986.878
986.878
986.878
986.878
986.878
986.878
986.878
986.878
986.819
975.257
975.269
986.921
986.879
986.875
986.875
986.875
986.875
986.875
986.875
986.875
986.875
986.875
986.875
986.875
986.875
986.875
986.875
986.875
986.875
986.875
986.875
986.875
986.875
986.875
986.875
986.875
986.875
986.874
986.814
975.021
975.37
986.897
986.878
986.875
986.874
986.874
986.874
986.874
986.874
986.874
986.874
986.874
986.874
986.874
986.874
986.874
986.874
986.874
986.874
986.874
986.874
986.874
986.874
986.874
986.874
986.874
986.874
986.874
986.813
974.822
975.194
986.891
986.878
986.875
986.874
986.874
986.874
986.874
986.874
986.874
986.874
986.874
986.874
986.874
986.874
986.874
986.874
986.874
986.874
986.874
986.874
986.874
986.874
986.874
986.874
986.874
986.874
986.874
986.811
974.638
975.03
986.885
986.877
986.875
986.874
986.874
986.874
986.874
986.874
986.874
986.874
986.874
986.874
986.874
986.874
986.874
986.874
986.874
986.874
986.874
986.874
986.874
986.874
986.874
986.874
986.874
986.874
986.874
986.81
974.459
974.89
986.878
986.877
986.875
986.874
986.874
986.874
986.874
986.874
986.874
986.874
986.874
986.874
986.874
986.874
986.874
986.874
986.874
986.874
986.874
986.874
986.874
986.874
986.874
986.874
986.874
986.874
986.874
986.808
974.288
974.772
986.869
986.877
986.875
986.874
986.874
986.874
986.874
986.874
986.874
986.874
986.874
986.874
986.874
986.874
986.874
986.874
986.874
986.874
986.874
986.874
986.874
986.874
986.874
986.874
986.874
986.874
986.874
986.807
974.128
974.649
986.861
986.876
986.875
986.874
986.874
986.874
986.874
986.874
986.874
986.874
986.874
986.874
986.874
986.874
986.874
986.874
986.874
986.874
986.874
986.874
986.874
986.874
986.874
986.874
986.874
986.874
986.874
986.805
973.981
974.518
986.853
986.876
986.875
986.874
986.874
986.874
986.874
986.874
986.874
986.874
986.874
986.874
986.874
986.874
986.874
986.874
986.874
986.874
986.874
986.874
986.874
986.874
986.874
986.874
986.874
986.874
986.874
986.804
973.846
974.383
986.847
986.876
986.875
986.874
986.874
986.874
986.874
986.874
986.874
986.874
986.874
986.874
986.874
986.874
986.874
986.874
986.874
986.874
986.874
986.874
986.874
986.874
986.874
986.874
986.874
986.874
986.874
986.803
973.722
974.249
986.842
986.876
986.875
986.874
986.874
986.874
986.874
986.874
986.874
986.874
986.874
986.874
986.874
986.874
986.874
986.874
986.874
986.874
986.874
986.874
986.874
986.874
986.874
986.874
986.874
986.874
986.874
986.802
973.609
974.119
986.837
986.876
986.875
986.874
986.874
986.874
986.874
986.874
986.874
986.874
986.874
986.874
986.874
986.874
986.874
986.874
986.874
986.874
986.874
986.874
986.874
986.874
986.874
986.874
986.874
986.874
986.874
986.801
973.505
973.993
986.832
986.875
986.875
986.874
986.874
986.874
986.874
986.874
986.874
986.874
986.874
986.874
986.874
986.874
986.874
986.874
986.874
986.874
986.874
986.874
986.874
986.874
986.874
986.874
986.874
986.874
986.874
986.8
973.409
973.872
986.827
986.875
986.875
986.874
986.874
986.874
986.874
986.874
986.874
986.874
986.874
986.874
986.874
986.874
986.874
986.874
986.874
986.874
986.874
986.874
986.874
986.874
986.874
986.874
986.874
986.874
986.874
986.799
973.322
973.757
986.824
986.875
986.875
986.874
986.874
986.874
986.874
986.874
986.874
986.874
986.874
986.874
986.874
986.874
986.874
986.874
986.874
986.874
986.874
986.874
986.874
986.874
986.874
986.874
986.874
986.874
986.874
986.798
973.244
973.647
986.82
986.875
986.875
986.874
986.874
986.874
986.874
986.874
986.874
986.874
986.874
986.874
986.874
986.874
986.874
986.874
986.874
986.874
986.874
986.874
986.874
986.874
986.874
986.874
986.874
986.874
986.874
986.798
973.173
973.543
986.816
986.875
986.874
986.874
986.874
986.874
986.874
986.874
986.874
986.874
986.874
986.874
986.874
986.874
986.874
986.874
986.874
986.874
986.874
986.874
986.874
986.874
986.874
986.874
986.874
986.874
986.874
986.797
973.111
973.446
986.813
986.875
986.874
986.874
986.874
986.874
986.874
986.874
986.874
986.874
986.874
986.874
986.874
986.874
986.874
986.874
986.874
986.874
986.874
986.874
986.874
986.874
986.874
986.874
986.874
986.874
986.874
986.797
973.056
973.355
986.81
986.875
986.874
986.874
986.874
986.874
986.874
986.874
986.874
986.874
986.874
986.874
986.874
986.874
986.874
986.874
986.874
986.874
986.874
986.874
986.874
986.874
986.874
986.874
986.874
986.874
986.874
986.796
973.009
973.271
986.807
986.875
986.874
986.874
986.874
986.874
986.874
986.874
986.874
986.874
986.874
986.874
986.874
986.874
986.874
986.874
986.874
986.874
986.874
986.874
986.874
986.874
986.874
986.874
986.874
986.874
986.874
986.796
972.968
973.195
986.805
986.875
986.874
986.874
986.874
986.874
986.874
986.874
986.874
986.874
986.874
986.874
986.874
986.874
986.874
986.874
986.874
986.874
986.874
986.874
986.874
986.874
986.874
986.874
986.874
986.874
986.874
986.795
972.935
973.124
986.803
986.874
986.874
986.874
986.874
986.874
986.874
986.874
986.874
986.874
986.874
986.874
986.874
986.874
986.874
986.874
986.874
986.874
986.874
986.874
986.874
986.874
986.874
986.874
986.874
986.874
986.874
986.795
972.908
973.061
986.8
986.874
986.874
986.874
986.874
986.874
986.874
986.874
986.874
986.874
986.874
986.874
986.874
986.874
986.874
986.874
986.874
986.874
986.874
986.874
986.874
986.874
986.874
986.874
986.874
986.874
986.874
986.795
972.887
973.06
986.8
986.874
986.874
986.874
986.874
986.874
986.874
986.874
986.874
986.874
986.874
986.874
986.874
986.874
986.874
986.874
986.874
986.874
986.874
986.874
986.874
986.874
986.874
986.874
986.874
986.874
986.874
986.795
972.871
976.058
987.118
987.182
987.186
987.19
987.195
987.199
987.203
987.208
987.213
987.218
987.222
987.227
987.233
987.238
987.243
987.249
987.255
987.26
987.266
987.272
987.279
987.285
987.292
987.299
987.306
987.313
987.326
987.348
976.316
975.257
986.819
986.878
986.878
986.878
986.878
986.878
986.878
986.878
986.878
986.879
986.879
986.879
986.879
986.879
986.879
986.879
986.879
986.88
986.88
986.88
986.88
986.88
986.88
986.881
986.881
986.881
986.888
986.958
974.55
975.021
986.814
986.874
986.875
986.875
986.875
986.875
986.875
986.875
986.875
986.875
986.875
986.875
986.875
986.875
986.875
986.875
986.875
986.875
986.875
986.875
986.875
986.875
986.875
986.875
986.875
986.875
986.879
986.921
975.265
974.821
986.813
986.874
986.874
986.874
986.874
986.874
986.874
986.874
986.874
986.874
986.874
986.874
986.874
986.874
986.874
986.874
986.874
986.874
986.874
986.874
986.874
986.874
986.874
986.874
986.874
986.875
986.878
986.897
975.374
974.638
986.811
986.874
986.874
986.874
986.874
986.874
986.874
986.874
986.874
986.874
986.874
986.874
986.874
986.874
986.874
986.874
986.874
986.874
986.874
986.874
986.874
986.874
986.874
986.874
986.874
986.875
986.878
986.891
975.196
974.459
986.81
986.874
986.874
986.874
986.874
986.874
986.874
986.874
986.874
986.874
986.874
986.874
986.874
986.874
986.874
986.874
986.874
986.874
986.874
986.874
986.874
986.874
986.874
986.874
986.874
986.875
986.877
986.885
975.024
974.288
986.808
986.874
986.874
986.874
986.874
986.874
986.874
986.874
986.874
986.874
986.874
986.874
986.874
986.874
986.874
986.874
986.874
986.874
986.874
986.874
986.874
986.874
986.874
986.874
986.874
986.875
986.877
986.878
974.897
974.128
986.807
986.874
986.874
986.874
986.874
986.874
986.874
986.874
986.874
986.874
986.874
986.874
986.874
986.874
986.874
986.874
986.874
986.874
986.874
986.874
986.874
986.874
986.874
986.874
986.874
986.875
986.877
986.869
974.768
973.981
986.805
986.874
986.874
986.874
986.874
986.874
986.874
986.874
986.874
986.874
986.874
986.874
986.874
986.874
986.874
986.874
986.874
986.874
986.874
986.874
986.874
986.874
986.874
986.874
986.874
986.875
986.876
986.861
974.649
973.846
986.804
986.874
986.874
986.874
986.874
986.874
986.874
986.874
986.874
986.874
986.874
986.874
986.874
986.874
986.874
986.874
986.874
986.874
986.874
986.874
986.874
986.874
986.874
986.874
986.874
986.875
986.876
986.853
974.519
973.722
986.803
986.874
986.874
986.874
986.874
986.874
986.874
986.874
986.874
986.874
986.874
986.874
986.874
986.874
986.874
986.874
986.874
986.874
986.874
986.874
986.874
986.874
986.874
986.874
986.874
986.875
986.876
986.847
974.381
973.609
986.802
986.874
986.874
986.874
986.874
986.874
986.874
986.874
986.874
986.874
986.874
986.874
986.874
986.874
986.874
986.874
986.874
986.874
986.874
986.874
986.874
986.874
986.874
986.874
986.874
986.875
986.876
986.841
974.25
973.505
986.801
986.874
986.874
986.874
986.874
986.874
986.874
986.874
986.874
986.874
986.874
986.874
986.874
986.874
986.874
986.874
986.874
986.874
986.874
986.874
986.874
986.874
986.874
986.874
986.874
986.875
986.876
986.837
974.119
973.409
986.8
986.874
986.874
986.874
986.874
986.874
986.874
986.874
986.874
986.874
986.874
986.874
986.874
986.874
986.874
986.874
986.874
986.874
986.874
986.874
986.874
986.874
986.874
986.874
986.874
986.875
986.875
986.832
973.993
973.322
986.799
986.874
986.874
986.874
986.874
986.874
986.874
986.874
986.874
986.874
986.874
986.874
986.874
986.874
986.874
986.874
986.874
986.874
986.874
986.874
986.874
986.874
986.874
986.874
986.874
986.875
986.875
986.828
973.872
973.244
986.798
986.874
986.874
986.874
986.874
986.874
986.874
986.874
986.874
986.874
986.874
986.874
986.874
986.874
986.874
986.874
986.874
986.874
986.874
986.874
986.874
986.874
986.874
986.874
986.874
986.875
986.875
986.824
973.757
973.173
986.798
986.874
986.874
986.874
986.874
986.874
986.874
986.874
986.874
986.874
986.874
986.874
986.874
986.874
986.874
986.874
986.874
986.874
986.874
986.874
986.874
986.874
986.874
986.874
986.874
986.875
986.875
986.82
973.648
973.111
986.797
986.874
986.874
986.874
986.874
986.874
986.874
986.874
986.874
986.874
986.874
986.874
986.874
986.874
986.874
986.874
986.874
986.874
986.874
986.874
986.874
986.874
986.874
986.874
986.874
986.874
986.875
986.816
973.543
973.056
986.797
986.874
986.874
986.874
986.874
986.874
986.874
986.874
986.874
986.874
986.874
986.874
986.874
986.874
986.874
986.874
986.874
986.874
986.874
986.874
986.874
986.874
986.874
986.874
986.874
986.874
986.875
986.813
973.445
973.009
986.796
986.874
986.874
986.874
986.874
986.874
986.874
986.874
986.874
986.874
986.874
986.874
986.874
986.874
986.874
986.874
986.874
986.874
986.874
986.874
986.874
986.874
986.874
986.874
986.874
986.874
986.875
986.81
973.356
972.968
986.796
986.874
986.874
986.874
986.874
986.874
986.874
986.874
986.874
986.874
986.874
986.874
986.874
986.874
986.874
986.874
986.874
986.874
986.874
986.874
986.874
986.874
986.874
986.874
986.874
986.874
986.875
986.807
973.271
972.935
986.796
986.874
986.874
986.874
986.874
986.874
986.874
986.874
986.874
986.874
986.874
986.874
986.874
986.874
986.874
986.874
986.874
986.874
986.874
986.874
986.874
986.874
986.874
986.874
986.874
986.874
986.875
986.805
973.194
972.908
986.795
986.874
986.874
986.874
986.874
986.874
986.874
986.874
986.874
986.874
986.874
986.874
986.874
986.874
986.874
986.874
986.874
986.874
986.874
986.874
986.874
986.874
986.874
986.874
986.874
986.874
986.874
986.803
973.125
972.887
986.795
986.874
986.874
986.874
986.874
986.874
986.874
986.874
986.874
986.874
986.874
986.874
986.874
986.874
986.874
986.874
986.874
986.874
986.874
986.874
986.874
986.874
986.874
986.874
986.874
986.874
986.874
986.8
973.061
972.871
986.795
986.874
986.874
986.874
986.874
986.874
986.874
986.874
986.874
986.874
986.874
986.874
986.874
986.874
986.874
986.874
986.874
986.874
986.874
986.874
986.874
986.874
986.874
986.874
986.874
986.874
986.874
986.8
973.059
966.985
967.043
967.1
967.157
967.214
967.271
967.328
967.384
967.44
967.496
967.552
967.608
967.663
967.719
967.774
967.829
967.883
967.938
967.992
968.046
968.1
968.154
968.208
968.261
968.315
968.368
968.42
968.473
968.526
968.578
968.63
968.682
968.734
968.786
968.837
968.889
968.94
968.991
969.042
969.093
969.143
969.193
969.244
969.294
969.343
969.393
969.443
969.492
969.541
969.59
969.639
969.688
969.737
969.785
969.833
969.881
969.929
969.977
970.025
970.072
970.12
970.167
970.214
970.261
970.308
970.354
970.401
970.447
970.493
970.54
970.585
970.631
970.677
970.722
970.768
970.813
970.858
970.903
970.948
970.992
971.037
971.081
971.125
971.169
971.213
971.257
971.301
971.345
971.388
971.431
971.474
971.518
971.56
971.603
971.646
971.688
971.731
971.773
971.815
971.857
971.899
971.941
971.983
972.024
972.066
972.107
972.148
972.189
972.23
972.271
972.311
972.352
972.392
972.433
972.473
972.513
972.553
972.593
972.633
972.672
972.712
972.751
972.791
972.83
972.868
986.715
986.716
986.717
986.718
986.719
986.72
986.721
986.721
986.722
986.723
986.724
986.725
986.726
986.727
986.728
986.729
986.729
986.73
986.731
986.732
986.733
986.734
986.734
986.735
986.736
986.737
986.738
986.738
986.739
986.74
986.741
986.741
986.742
986.743
986.744
986.745
986.745
986.746
986.747
986.747
986.748
986.749
986.75
986.75
986.751
986.752
986.752
986.753
986.754
986.754
986.755
986.756
986.756
986.757
986.758
986.758
986.759
986.76
986.76
986.761
986.762
986.762
986.763
986.763
986.764
986.765
986.765
986.766
986.767
986.767
986.768
986.768
986.769
986.769
986.77
986.771
986.771
986.772
986.772
986.773
986.773
986.774
986.774
986.775
986.776
986.776
986.777
986.777
986.778
986.778
986.779
986.779
986.78
986.78
986.781
986.781
986.782
986.782
986.783
986.783
986.784
986.784
986.785
986.785
986.786
986.786
986.787
986.787
986.788
986.788
986.788
986.789
986.789
986.79
986.79
986.791
986.791
986.792
986.792
986.792
986.793
986.793
986.794
986.794
986.795
986.874
986.874
986.874
986.874
986.874
986.874
986.874
986.874
986.874
986.874
986.874
986.874
986.874
986.874
986.874
986.874
986.874
986.874
986.874
986.874
986.874
986.874
986.874
986.874
986.874
986.874
986.874
986.874
986.874
986.874
986.874
986.874
986.874
986.874
986.874
986.874
986.874
986.874
986.874
986.874
986.874
986.874
986.874
986.874
986.874
986.874
986.874
986.874
986.874
986.874
986.874
986.874
986.874
986.874
986.874
986.874
986.874
986.874
986.874
986.874
986.874
986.874
986.874
986.874
986.874
986.874
986.874
986.874
986.874
986.874
986.874
986.874
986.874
986.874
986.874
986.874
986.874
986.874
986.874
986.874
986.874
986.874
986.874
986.874
986.874
986.874
986.874
986.874
986.874
986.874
986.874
986.874
986.874
986.874
986.874
986.874
986.874
986.874
986.874
986.874
986.874
986.874
986.874
986.874
986.874
986.874
986.874
986.874
986.874
986.874
986.874
986.874
986.874
986.874
986.874
986.874
986.874
986.874
986.874
986.874
986.874
986.874
986.874
986.874
986.874
986.874
986.874
986.874
986.874
986.874
986.874
986.874
986.874
986.874
986.874
986.874
986.874
986.874
986.874
986.874
986.874
986.874
986.874
986.874
986.874
986.874
986.874
986.874
986.874
986.874
986.874
986.874
986.874
986.874
986.874
986.874
986.874
986.874
986.874
986.874
986.874
986.874
986.874
986.874
986.874
986.874
986.874
986.874
986.874
986.874
986.874
986.874
986.874
986.874
986.874
986.874
986.874
986.874
986.874
986.874
986.874
986.874
986.874
986.874
986.874
986.874
986.874
986.874
986.874
986.874
986.874
986.874
986.874
986.874
986.874
986.874
986.874
986.874
986.874
986.874
986.874
986.874
986.874
986.874
986.874
986.874
986.874
986.874
986.874
986.874
986.874
986.874
986.874
986.874
986.874
986.874
986.874
986.874
986.874
986.874
986.874
986.874
986.874
986.874
986.874
986.874
986.874
986.874
986.874
986.874
986.874
986.874
986.874
986.874
986.874
986.874
986.874
986.874
986.874
986.874
986.874
986.874
986.874
986.874
986.874
986.874
986.874
986.874
986.874
986.874
986.874
986.874
986.874
986.874
986.874
986.874
986.874
986.874
986.874
986.874
986.874
986.874
986.874
986.874
986.874
986.874
986.874
986.874
986.874
986.874
986.874
986.874
986.874
986.874
986.874
986.874
986.874
986.874
986.874
986.874
986.874
986.874
986.874
986.874
986.874
986.874
986.874
986.874
986.874
986.874
986.874
986.874
986.874
986.874
986.874
986.874
986.874
986.874
986.874
986.874
986.874
986.874
986.874
986.874
986.874
986.874
986.874
986.874
986.874
986.874
986.874
986.874
986.874
986.874
986.874
986.874
986.874
986.874
986.874
986.874
986.874
986.874
986.874
986.874
986.874
986.874
986.874
986.874
986.874
986.874
986.874
986.874
986.874
986.874
986.874
986.874
986.874
986.874
986.874
986.874
986.874
986.874
986.874
986.874
986.874
986.874
986.874
986.874
986.874
986.874
986.874
986.874
986.874
986.874
986.874
986.874
986.874
986.874
986.874
986.874
986.874
986.874
986.874
986.874
986.874
986.874
986.874
986.874
986.874
986.874
986.874
986.874
986.874
986.874
986.874
986.874
986.874
986.874
986.874
986.874
986.874
986.874
986.874
986.874
986.874
986.874
986.874
986.874
986.874
986.874
986.874
986.874
986.874
986.874
986.874
986.874
986.874
986.874
986.874
986.874
986.874
986.874
986.874
986.874
986.874
986.874
986.874
986.874
986.874
986.874
986.874
986.874
986.874
986.874
986.874
986.874
986.874
986.874
986.874
986.874
986.874
986.874
986.874
986.874
986.874
986.874
986.874
986.874
986.874
986.874
986.874
986.874
986.874
986.874
986.874
986.874
986.874
986.874
986.874
986.874
986.874
986.874
986.874
986.874
986.874
986.874
986.874
986.874
986.874
986.874
986.874
986.874
986.874
986.874
986.874
986.874
986.874
986.874
986.874
986.874
986.874
986.874
986.874
986.874
986.874
986.874
986.874
986.874
986.874
986.874
986.874
986.874
986.874
986.874
986.874
986.874
986.874
986.874
986.874
986.874
986.874
986.874
986.874
986.874
986.874
986.874
986.874
986.874
986.874
986.874
986.874
986.874
986.874
986.874
986.874
986.874
986.874
986.874
986.874
986.874
986.874
986.874
986.874
986.874
986.874
986.874
986.874
986.874
986.874
986.874
986.874
986.874
986.874
986.874
986.874
986.874
986.874
986.874
986.874
986.874
986.874
986.874
986.874
986.874
986.874
986.874
986.874
986.874
986.874
986.874
986.874
986.874
986.874
986.874
986.874
986.874
986.874
986.874
986.874
986.874
986.874
986.874
986.874
986.874
986.874
986.874
986.874
986.874
986.874
986.874
986.874
986.874
986.874
986.874
986.874
986.874
986.874
986.874
986.874
986.874
986.874
986.874
986.874
986.874
986.874
986.874
986.874
986.874
986.874
986.874
986.874
986.874
986.874
986.874
986.874
986.874
986.874
986.874
986.874
986.874
986.874
986.874
986.874
986.874
986.874
986.874
986.874
986.874
986.874
986.874
986.874
986.874
986.874
986.874
986.874
986.874
986.874
986.874
986.874
986.874
986.874
986.874
986.874
986.874
986.874
986.874
986.874
986.874
986.874
986.874
986.874
986.874
986.874
986.874
986.874
986.874
986.874
986.874
986.874
986.874
986.874
986.874
986.874
986.874
986.874
986.874
986.874
986.874
986.874
986.874
986.874
986.874
986.874
986.874
986.874
986.874
986.874
986.874
986.874
986.874
986.874
986.874
986.874
986.874
986.874
986.874
986.874
986.874
986.874
986.874
986.874
986.874
986.874
986.874
986.874
986.874
986.874
986.874
986.874
986.874
986.874
986.874
986.874
986.874
986.874
986.874