/*--------------------------------*- C++ -*----------------------------------*\
| =========                 |                                                 |
| \\      /  F ield         | OpenFOAM: The Open Source CFD Toolbox           |
|  \\    /   O peration     | Version:  2112                                  |
|   \\  /    A nd           | Website:  www.openfoam.com                      |
|    \\/     M anipulation  |                                                 |
\*---------------------------------------------------------------------------*/
FoamFile
{
    version     2.0;
    format      ascii;
    arch        "LSB;label=32;scalar=64";
    class       volScalarField;
    location    "5e-05";
    object      nut;
}
// * * * * * * * * * * * * * * * * * * * * * * * * * * * * * * * * * * * * * //

dimensions      [0 2 -1 0 0 0 0];

internalField   nonuniform List<scalar> 
13875
(
0.522277
5.61569
7.31467
8.2667
8.75207
8.97723
9.07078
9.10576
9.11759
9.12121
9.12218
9.12239
9.12239
9.12229
9.12204
9.12113
9.11769
9.10608
9.0713
8.97788
8.75271
8.26702
7.31436
5.61275
0.524123
0.597593
5.65365
7.2609
8.05583
8.44252
8.61239
8.67935
8.7031
8.71072
8.7129
8.71342
8.71349
8.71344
8.71335
8.71316
8.71258
8.71042
8.70293
8.67938
8.61271
8.44324
8.05712
7.26299
5.65553
0.599865
0.530581
5.0219
6.37794
6.9964
7.27337
7.38589
7.42714
7.44081
7.44489
7.44594
7.44611
7.44608
7.44601
7.44594
7.44584
7.44557
7.44448
7.4404
7.42679
7.38561
7.27307
6.99583
6.3761
5.01702
0.529005
0.42932
4.17806
5.20494
5.61883
5.78196
5.84152
5.86121
5.86712
5.8687
5.86905
5.86908
5.86902
5.86895
5.8689
5.86885
5.86875
5.86834
5.8667
5.86075
5.84101
5.78128
5.61758
5.20134
4.16868
0.428108
0.301851
2.76773
3.40565
3.632
3.70947
3.7348
3.74235
3.74442
3.74491
3.745
3.74499
3.74493
3.74489
3.74486
3.74483
3.74478
3.74462
3.74405
3.74193
3.73433
3.70892
3.63135
3.40486
2.7657
0.300902
0.201053
1.33744
1.62147
1.71039
1.73788
1.74609
1.74839
1.749
1.74915
1.74919
1.74918
1.74915
1.74912
1.7491
1.74908
1.74905
1.74898
1.74878
1.74812
1.74577
1.73751
1.71006
1.62131
1.33638
0.200516
0.0921135
0.20268
0.23699
0.24482
0.247091
0.24776
0.247957
0.248017
0.248038
0.248047
0.248049
0.248043
0.248037
0.248033
0.248028
0.24802
0.248006
0.247979
0.24791
0.247701
0.247018
0.244755
0.236977
0.20231
0.0917942
0.0546639
0.245736
0.2557
0.251276
0.249536
0.248936
0.248748
0.248692
0.248676
0.24867
0.24867
0.248674
0.248679
0.248682
0.248685
0.248691
0.248701
0.248722
0.248783
0.248977
0.249583
0.251313
0.255695
0.245819
0.0546769
0.0544406
0.294698
0.336446
0.337737
0.337756
0.337754
0.337753
0.337753
0.337753
0.337753
0.337753
0.337753
0.337753
0.337753
0.337753
0.337753
0.337753
0.337753
0.337753
0.337754
0.337756
0.337738
0.336467
0.295116
0.0544456
0.0502928
0.284806
0.335837
0.33794
0.337991
0.337992
0.337992
0.337992
0.337992
0.337992
0.337992
0.337992
0.337992
0.337992
0.337992
0.337992
0.337992
0.337992
0.337992
0.337992
0.337991
0.33794
0.335849
0.28499
0.0504845
0.0441275
0.272025
0.334437
0.337884
0.33799
0.337992
0.337992
0.337992
0.337992
0.337992
0.337992
0.337992
0.337992
0.337992
0.337992
0.337992
0.337992
0.337992
0.337992
0.337992
0.33799
0.337875
0.33423
0.270194
0.0435473
0.0398286
0.260526
0.332928
0.337811
0.337989
0.337992
0.337992
0.337992
0.337992
0.337992
0.337992
0.337992
0.337992
0.337992
0.337992
0.337992
0.337992
0.337992
0.337992
0.337992
0.337989
0.337814
0.332976
0.260809
0.0397467
0.0366056
0.249656
0.331294
0.33772
0.337986
0.337992
0.337992
0.337992
0.337992
0.337992
0.337992
0.337992
0.337992
0.337992
0.337992
0.337992
0.337992
0.337992
0.337992
0.337992
0.337986
0.337737
0.331571
0.251365
0.0367874
0.0343179
0.24117
0.329879
0.33763
0.337983
0.337992
0.337992
0.337992
0.337992
0.337992
0.337992
0.337992
0.337992
0.337992
0.337992
0.337992
0.337992
0.337992
0.337992
0.337992
0.337984
0.337663
0.330431
0.244104
0.0352102
0.0331759
0.234509
0.328727
0.337544
0.337979
0.337992
0.337992
0.337992
0.337992
0.337992
0.337992
0.337992
0.337992
0.337992
0.337992
0.337992
0.337992
0.337992
0.337992
0.337992
0.337977
0.337477
0.327821
0.230475
0.032595
0.0304783
0.222033
0.32595
0.337326
0.337969
0.337992
0.337992
0.337992
0.337992
0.337992
0.337992
0.337992
0.337992
0.337992
0.337992
0.337992
0.337992
0.337992
0.337992
0.337992
0.337967
0.337273
0.325306
0.21964
0.0299012
0.0303373
0.222465
0.326449
0.337359
0.337969
0.337992
0.337992
0.337992
0.337992
0.337992
0.337992
0.337992
0.337992
0.337992
0.337992
0.337992
0.337992
0.337992
0.337992
0.337992
0.33797
0.337384
0.326761
0.223753
0.0303979
0.030501
0.224989
0.327181
0.337401
0.337968
0.337991
0.337992
0.337992
0.337992
0.337992
0.337992
0.337992
0.337992
0.337992
0.337992
0.337992
0.337992
0.337992
0.337992
0.337991
0.337968
0.337397
0.327141
0.224765
0.0305681
0.0294163
0.210268
0.323171
0.337037
0.337944
0.337989
0.337992
0.337992
0.337992
0.337992
0.337992
0.337992
0.337992
0.337992
0.337992
0.337992
0.337992
0.337992
0.337992
0.33799
0.337952
0.33715
0.324304
0.213994
0.0298916
0.0288052
0.199302
0.318998
0.336587
0.337912
0.337987
0.337991
0.337992
0.337992
0.337992
0.337992
0.337992
0.337992
0.337992
0.337992
0.337992
0.337992
0.337992
0.337991
0.337987
0.33791
0.33655
0.318638
0.198189
0.0284759
0.0320538
0.213306
0.323246
0.337019
0.337941
0.337989
0.337992
0.337992
0.337992
0.337992
0.337992
0.337992
0.337992
0.337992
0.337992
0.337992
0.337992
0.337992
0.337992
0.337989
0.337933
0.336902
0.322085
0.209561
0.0314571
0.0354877
0.229499
0.327518
0.337409
0.337965
0.33799
0.337992
0.337992
0.337992
0.337992
0.337992
0.337992
0.337992
0.337992
0.337992
0.337992
0.337992
0.337992
0.337992
0.33799
0.337963
0.337375
0.327158
0.228217
0.035397
0.038951
0.244185
0.330585
0.337645
0.337978
0.337991
0.337992
0.337992
0.337992
0.337992
0.337992
0.337992
0.337992
0.337992
0.337992
0.337992
0.337992
0.337992
0.337992
0.337991
0.337979
0.337666
0.330908
0.246076
0.039334
0.0424076
0.258303
0.332888
0.337793
0.337985
0.337991
0.337992
0.337992
0.337992
0.337992
0.337992
0.337992
0.337992
0.337992
0.337992
0.337992
0.337992
0.337992
0.337992
0.337991
0.337985
0.337792
0.33287
0.258087
0.0422872
0.0446314
0.265886
0.333897
0.337849
0.337987
0.337992
0.337992
0.337992
0.337992
0.337992
0.337992
0.337992
0.337992
0.337992
0.337992
0.337992
0.337992
0.337992
0.337992
0.337992
0.337987
0.337845
0.333823
0.265301
0.044555
0.0471236
0.272797
0.33468
0.337887
0.337989
0.337992
0.337992
0.337992
0.337992
0.337992
0.337992
0.337992
0.337992
0.337992
0.337992
0.337992
0.337992
0.337992
0.337992
0.337992
0.337989
0.337893
0.334799
0.273927
0.0473706
0.0497776
0.280347
0.335423
0.337919
0.33799
0.337992
0.337992
0.337992
0.337992
0.337992
0.337992
0.337992
0.337992
0.337992
0.337992
0.337992
0.337992
0.337992
0.337992
0.337992
0.33799
0.337915
0.335311
0.279123
0.0494207
0.0517509
0.284916
0.335819
0.337935
0.33799
0.337992
0.337992
0.337992
0.337992
0.337992
0.337992
0.337992
0.337992
0.337992
0.337992
0.337992
0.337992
0.337992
0.337992
0.337992
0.33799
0.337935
0.335808
0.284827
0.051863
0.0539301
0.28911
0.336146
0.337947
0.337991
0.337992
0.337992
0.337992
0.337992
0.337992
0.337992
0.337992
0.337992
0.337992
0.337992
0.337992
0.337992
0.337992
0.337992
0.337992
0.337991
0.337951
0.336269
0.290725
0.0543159
0.056553
0.295181
0.336575
0.337961
0.337991
0.337992
0.337992
0.337992
0.337992
0.337992
0.337992
0.337992
0.337992
0.337992
0.337992
0.337992
0.337992
0.337992
0.337992
0.337992
0.337991
0.337958
0.336479
0.293722
0.0560523
0.0581524
0.298171
0.336764
0.337967
0.337991
0.337992
0.337992
0.337992
0.337992
0.337992
0.337992
0.337992
0.337992
0.337992
0.337992
0.337992
0.337992
0.337992
0.337992
0.337992
0.337991
0.337967
0.33677
0.298296
0.0583421
0.05977
0.300342
0.336888
0.337971
0.337991
0.337992
0.337992
0.337992
0.337992
0.337992
0.337992
0.337992
0.337992
0.337992
0.337992
0.337992
0.337992
0.337992
0.337992
0.337992
0.337991
0.337972
0.336945
0.301333
0.0600096
0.0618322
0.304184
0.337097
0.337976
0.337991
0.337992
0.337992
0.337992
0.337992
0.337992
0.337992
0.337992
0.337992
0.337992
0.337992
0.337992
0.337992
0.337992
0.337992
0.337992
0.337991
0.337975
0.337053
0.303344
0.0615353
0.063106
0.306096
0.337192
0.337978
0.337992
0.337992
0.337992
0.337992
0.337992
0.337992
0.337992
0.337992
0.337992
0.337992
0.337992
0.337992
0.337992
0.337992
0.337992
0.337992
0.337992
0.337979
0.337203
0.306331
0.0632819
0.0643481
0.307305
0.337247
0.33798
0.337992
0.337992
0.337992
0.337992
0.337992
0.337992
0.337992
0.337992
0.337992
0.337992
0.337992
0.337992
0.337992
0.337992
0.337992
0.337992
0.337992
0.33798
0.337279
0.308006
0.0644958
0.0659801
0.309937
0.337364
0.337982
0.337992
0.337992
0.337992
0.337992
0.337992
0.337992
0.337992
0.337992
0.337992
0.337992
0.337992
0.337992
0.337992
0.337992
0.337992
0.337992
0.337992
0.337982
0.33733
0.30914
0.0657049
0.0669995
0.311222
0.337418
0.337984
0.337992
0.337992
0.337992
0.337992
0.337992
0.337992
0.337992
0.337992
0.337992
0.337992
0.337992
0.337992
0.337992
0.337992
0.337992
0.337992
0.337992
0.337984
0.337423
0.311361
0.0671329
0.067976
0.311965
0.337446
0.337984
0.337992
0.337992
0.337992
0.337992
0.337992
0.337992
0.337992
0.337992
0.337992
0.337992
0.337992
0.337992
0.337992
0.337992
0.337992
0.337992
0.337992
0.337985
0.337469
0.312546
0.0680906
0.069227
0.313845
0.337519
0.337986
0.337992
0.337992
0.337992
0.337992
0.337992
0.337992
0.337992
0.337992
0.337992
0.337992
0.337992
0.337992
0.337992
0.337992
0.337992
0.337992
0.337992
0.337985
0.337493
0.313167
0.0690071
0.0700101
0.314726
0.33755
0.337986
0.337992
0.337992
0.337992
0.337992
0.337992
0.337992
0.337992
0.337992
0.337992
0.337992
0.337992
0.337992
0.337992
0.337992
0.337992
0.337992
0.337992
0.337986
0.337554
0.314819
0.0701094
0.0707423
0.315156
0.337565
0.337986
0.337992
0.337992
0.337992
0.337992
0.337992
0.337992
0.337992
0.337992
0.337992
0.337992
0.337992
0.337992
0.337992
0.337992
0.337992
0.337992
0.337992
0.337987
0.337583
0.315666
0.070833
0.0716595
0.316532
0.337612
0.337987
0.337992
0.337992
0.337992
0.337992
0.337992
0.337992
0.337992
0.337992
0.337992
0.337992
0.337992
0.337992
0.337992
0.337992
0.337992
0.337992
0.337992
0.337987
0.337594
0.315987
0.0715037
0.0722277
0.317142
0.337632
0.337988
0.337992
0.337992
0.337992
0.337992
0.337992
0.337992
0.337992
0.337992
0.337992
0.337992
0.337992
0.337992
0.337992
0.337992
0.337992
0.337992
0.337992
0.337988
0.337634
0.317184
0.0722896
0.0727434
0.317363
0.337639
0.337988
0.337992
0.337992
0.337992
0.337992
0.337992
0.337992
0.337992
0.337992
0.337992
0.337992
0.337992
0.337992
0.337992
0.337992
0.337992
0.337992
0.337992
0.337988
0.337653
0.317796
0.0728085
0.073365
0.31837
0.337671
0.337988
0.337992
0.337992
0.337992
0.337992
0.337992
0.337992
0.337992
0.337992
0.337992
0.337992
0.337992
0.337992
0.337992
0.337992
0.337992
0.337992
0.337992
0.337988
0.337658
0.31797
0.0732728
0.0737412
0.318789
0.337683
0.337988
0.337992
0.337992
0.337992
0.337992
0.337992
0.337992
0.337992
0.337992
0.337992
0.337992
0.337992
0.337992
0.337992
0.337992
0.337992
0.337992
0.337992
0.337988
0.337683
0.318776
0.0737705
0.0740702
0.318868
0.337685
0.337988
0.337992
0.337992
0.337992
0.337992
0.337992
0.337992
0.337992
0.337992
0.337992
0.337992
0.337992
0.337992
0.337992
0.337992
0.337992
0.337992
0.337992
0.337989
0.337696
0.319226
0.0741104
0.0744394
0.319596
0.337707
0.337989
0.337992
0.337992
0.337992
0.337992
0.337992
0.337992
0.337992
0.337992
0.337992
0.337992
0.337992
0.337992
0.337992
0.337992
0.337992
0.337992
0.337992
0.337989
0.337699
0.319322
0.0743926
0.0746538
0.319876
0.337714
0.337989
0.337992
0.337992
0.337992
0.337992
0.337992
0.337992
0.337992
0.337992
0.337992
0.337992
0.337992
0.337992
0.337992
0.337992
0.337992
0.337992
0.337992
0.337989
0.337712
0.319781
0.0746558
0.074846
0.320014
0.337717
0.337989
0.337992
0.337992
0.337992
0.337992
0.337992
0.337992
0.337992
0.337992
0.337992
0.337992
0.337992
0.337992
0.337992
0.337992
0.337992
0.337992
0.337992
0.337989
0.33772
0.320144
0.0748568
0.153494
0.334357
0.338026
0.338049
0.338048
0.338047
0.338046
0.338045
0.338044
0.338043
0.338042
0.338042
0.338041
0.33804
0.338039
0.338038
0.338038
0.338037
0.338036
0.338035
0.338035
0.338034
0.338033
0.338033
0.338032
0.338031
0.338031
0.338027
0.336818
0.174238
0.145006
0.335707
0.337979
0.337993
0.337993
0.337993
0.337993
0.337993
0.337993
0.337993
0.337993
0.337993
0.337993
0.337993
0.337993
0.337993
0.337993
0.337993
0.337993
0.337993
0.337993
0.337992
0.337992
0.337992
0.337992
0.337992
0.337992
0.337989
0.336658
0.172413
0.151807
0.336329
0.337982
0.337992
0.337992
0.337992
0.337992
0.337992
0.337992
0.337992
0.337992
0.337992
0.337992
0.337992
0.337992
0.337992
0.337992
0.337992
0.337992
0.337992
0.337992
0.337992
0.337992
0.337992
0.337992
0.337992
0.337992
0.337988
0.336614
0.170759
0.155726
0.336303
0.337983
0.337992
0.337992
0.337992
0.337992
0.337992
0.337992
0.337992
0.337992
0.337992
0.337992
0.337992
0.337992
0.337992
0.337992
0.337992
0.337992
0.337992
0.337992
0.337992
0.337992
0.337992
0.337992
0.337992
0.337992
0.337988
0.336581
0.169357
0.155531
0.336196
0.337983
0.337992
0.337992
0.337992
0.337992
0.337992
0.337992
0.337992
0.337992
0.337992
0.337992
0.337992
0.337992
0.337992
0.337992
0.337992
0.337992
0.337992
0.337992
0.337992
0.337992
0.337992
0.337992
0.337992
0.337992
0.337988
0.336545
0.168082
0.1552
0.336184
0.337983
0.337992
0.337992
0.337992
0.337992
0.337992
0.337992
0.337992
0.337992
0.337992
0.337992
0.337992
0.337992
0.337992
0.337992
0.337992
0.337992
0.337992
0.337992
0.337992
0.337992
0.337992
0.337992
0.337992
0.337992
0.337987
0.336509
0.166864
0.15524
0.3362
0.337984
0.337992
0.337992
0.337992
0.337992
0.337992
0.337992
0.337992
0.337992
0.337992
0.337992
0.337992
0.337992
0.337992
0.337992
0.337992
0.337992
0.337992
0.337992
0.337992
0.337992
0.337992
0.337992
0.337992
0.337992
0.337987
0.336473
0.165711
0.155697
0.336224
0.337984
0.337992
0.337992
0.337992
0.337992
0.337992
0.337992
0.337992
0.337992
0.337992
0.337992
0.337992
0.337992
0.337992
0.337992
0.337992
0.337992
0.337992
0.337992
0.337992
0.337992
0.337992
0.337992
0.337992
0.337992
0.337987
0.336441
0.164644
0.156161
0.336234
0.337984
0.337992
0.337992
0.337992
0.337992
0.337992
0.337992
0.337992
0.337992
0.337992
0.337992
0.337992
0.337992
0.337992
0.337992
0.337992
0.337992
0.337992
0.337992
0.337992
0.337992
0.337992
0.337992
0.337992
0.337992
0.337987
0.336411
0.163674
0.156463
0.336233
0.337985
0.337992
0.337992
0.337992
0.337992
0.337992
0.337992
0.337992
0.337992
0.337992
0.337992
0.337992
0.337992
0.337992
0.337992
0.337992
0.337992
0.337992
0.337992
0.337992
0.337992
0.337992
0.337992
0.337992
0.337992
0.337987
0.336384
0.162798
0.156579
0.336227
0.337985
0.337992
0.337992
0.337992
0.337992
0.337992
0.337992
0.337992
0.337992
0.337992
0.337992
0.337992
0.337992
0.337992
0.337992
0.337992
0.337992
0.337992
0.337992
0.337992
0.337992
0.337992
0.337992
0.337992
0.337992
0.337987
0.336358
0.162003
0.156577
0.33622
0.337985
0.337992
0.337992
0.337992
0.337992
0.337992
0.337992
0.337992
0.337992
0.337992
0.337992
0.337992
0.337992
0.337992
0.337992
0.337992
0.337992
0.337992
0.337992
0.337992
0.337992
0.337992
0.337992
0.337992
0.337992
0.337987
0.336335
0.161279
0.156546
0.336213
0.337985
0.337992
0.337992
0.337992
0.337992
0.337992
0.337992
0.337992
0.337992
0.337992
0.337992
0.337992
0.337992
0.337992
0.337992
0.337992
0.337992
0.337992
0.337992
0.337992
0.337992
0.337992
0.337992
0.337992
0.337992
0.337986
0.336313
0.160619
0.156466
0.336209
0.337985
0.337992
0.337992
0.337992
0.337992
0.337992
0.337992
0.337992
0.337992
0.337992
0.337992
0.337992
0.337992
0.337992
0.337992
0.337992
0.337992
0.337992
0.337992
0.337992
0.337992
0.337992
0.337992
0.337992
0.337992
0.337986
0.336293
0.160017
0.156484
0.336206
0.337985
0.337992
0.337992
0.337992
0.337992
0.337992
0.337992
0.337992
0.337992
0.337992
0.337992
0.337992
0.337992
0.337992
0.337992
0.337992
0.337992
0.337992
0.337992
0.337992
0.337992
0.337992
0.337992
0.337992
0.337992
0.337986
0.336274
0.159475
0.156411
0.336199
0.337985
0.337992
0.337992
0.337992
0.337992
0.337992
0.337992
0.337992
0.337992
0.337992
0.337992
0.337992
0.337992
0.337992
0.337992
0.337992
0.337992
0.337992
0.337992
0.337992
0.337992
0.337992
0.337992
0.337992
0.337992
0.337986
0.336258
0.158989
0.156381
0.336198
0.337985
0.337992
0.337992
0.337992
0.337992
0.337992
0.337992
0.337992
0.337992
0.337992
0.337992
0.337992
0.337992
0.337992
0.337992
0.337992
0.337992
0.337992
0.337992
0.337992
0.337992
0.337992
0.337992
0.337992
0.337992
0.337986
0.336243
0.158554
0.156386
0.336195
0.337985
0.337992
0.337992
0.337992
0.337992
0.337992
0.337992
0.337992
0.337992
0.337992
0.337992
0.337992
0.337992
0.337992
0.337992
0.337992
0.337992
0.337992
0.337992
0.337992
0.337992
0.337992
0.337992
0.337992
0.337992
0.337986
0.33623
0.158172
0.156351
0.336191
0.337985
0.337992
0.337992
0.337992
0.337992
0.337992
0.337992
0.337992
0.337992
0.337992
0.337992
0.337992
0.337992
0.337992
0.337992
0.337992
0.337992
0.337992
0.337992
0.337992
0.337992
0.337992
0.337992
0.337992
0.337992
0.337986
0.336219
0.157838
0.156366
0.336191
0.337986
0.337992
0.337992
0.337992
0.337992
0.337992
0.337992
0.337992
0.337992
0.337992
0.337992
0.337992
0.337992
0.337992
0.337992
0.337992
0.337992
0.337992
0.337992
0.337992
0.337992
0.337992
0.337992
0.337992
0.337992
0.337986
0.336209
0.157549
0.156389
0.336189
0.337986
0.337992
0.337992
0.337992
0.337992
0.337992
0.337992
0.337992
0.337992
0.337992
0.337992
0.337992
0.337992
0.337992
0.337992
0.337992
0.337992
0.337992
0.337992
0.337992
0.337992
0.337992
0.337992
0.337992
0.337992
0.337986
0.336201
0.157306
0.156402
0.336188
0.337986
0.337992
0.337992
0.337992
0.337992
0.337992
0.337992
0.337992
0.337992
0.337992
0.337992
0.337992
0.337992
0.337992
0.337992
0.337992
0.337992
0.337992
0.337992
0.337992
0.337992
0.337992
0.337992
0.337992
0.337992
0.337986
0.336194
0.157102
0.156466
0.33619
0.337986
0.337992
0.337992
0.337992
0.337992
0.337992
0.337992
0.337992
0.337992
0.337992
0.337992
0.337992
0.337992
0.337992
0.337992
0.337992
0.337992
0.337992
0.337992
0.337992
0.337992
0.337992
0.337992
0.337992
0.337992
0.337986
0.336189
0.156939
0.156524
0.33619
0.337986
0.337992
0.337992
0.337992
0.337992
0.337992
0.337992
0.337992
0.337992
0.337992
0.337992
0.337992
0.337992
0.337992
0.337992
0.337992
0.337992
0.337992
0.337992
0.337992
0.337992
0.337992
0.337992
0.337992
0.337992
0.337986
0.336185
0.156813
0.156593
0.336351
0.337987
0.337992
0.337992
0.337992
0.337992
0.337992
0.337992
0.337992
0.337992
0.337992
0.337992
0.337992
0.337992
0.337992
0.337992
0.337992
0.337992
0.337992
0.337992
0.337992
0.337992
0.337992
0.337992
0.337992
0.337992
0.337986
0.336184
0.15672
0.174237
0.336818
0.338027
0.338031
0.338031
0.338032
0.338033
0.338033
0.338034
0.338035
0.338035
0.338036
0.338037
0.338038
0.338038
0.338039
0.33804
0.338041
0.338042
0.338042
0.338043
0.338044
0.338045
0.338046
0.338047
0.338048
0.338049
0.338026
0.334353
0.153452
0.172412
0.336658
0.337989
0.337992
0.337992
0.337992
0.337992
0.337992
0.337992
0.337993
0.337993
0.337993
0.337993
0.337993
0.337993
0.337993
0.337993
0.337993
0.337993
0.337993
0.337993
0.337993
0.337993
0.337993
0.337993
0.337993
0.337993
0.337979
0.335708
0.145025
0.170757
0.336614
0.337988
0.337992
0.337992
0.337992
0.337992
0.337992
0.337992
0.337992
0.337992
0.337992
0.337992
0.337992
0.337992
0.337992
0.337992
0.337992
0.337992
0.337992
0.337992
0.337992
0.337992
0.337992
0.337992
0.337992
0.337992
0.337982
0.336329
0.151772
0.169356
0.336581
0.337988
0.337992
0.337992
0.337992
0.337992
0.337992
0.337992
0.337992
0.337992
0.337992
0.337992
0.337992
0.337992
0.337992
0.337992
0.337992
0.337992
0.337992
0.337992
0.337992
0.337992
0.337992
0.337992
0.337992
0.337992
0.337983
0.336306
0.155777
0.168083
0.336545
0.337988
0.337992
0.337992
0.337992
0.337992
0.337992
0.337992
0.337992
0.337992
0.337992
0.337992
0.337992
0.337992
0.337992
0.337992
0.337992
0.337992
0.337992
0.337992
0.337992
0.337992
0.337992
0.337992
0.337992
0.337992
0.337983
0.336194
0.155551
0.166863
0.336508
0.337987
0.337992
0.337992
0.337992
0.337992
0.337992
0.337992
0.337992
0.337992
0.337992
0.337992
0.337992
0.337992
0.337992
0.337992
0.337992
0.337992
0.337992
0.337992
0.337992
0.337992
0.337992
0.337992
0.337992
0.337992
0.337983
0.336183
0.155128
0.165712
0.336473
0.337987
0.337992
0.337992
0.337992
0.337992
0.337992
0.337992
0.337992
0.337992
0.337992
0.337992
0.337992
0.337992
0.337992
0.337992
0.337992
0.337992
0.337992
0.337992
0.337992
0.337992
0.337992
0.337992
0.337992
0.337992
0.337984
0.336204
0.155336
0.164645
0.336441
0.337987
0.337992
0.337992
0.337992
0.337992
0.337992
0.337992
0.337992
0.337992
0.337992
0.337992
0.337992
0.337992
0.337992
0.337992
0.337992
0.337992
0.337992
0.337992
0.337992
0.337992
0.337992
0.337992
0.337992
0.337992
0.337984
0.33622
0.155645
0.163674
0.336411
0.337987
0.337992
0.337992
0.337992
0.337992
0.337992
0.337992
0.337992
0.337992
0.337992
0.337992
0.337992
0.337992
0.337992
0.337992
0.337992
0.337992
0.337992
0.337992
0.337992
0.337992
0.337992
0.337992
0.337992
0.337992
0.337984
0.336236
0.156168
0.162799
0.336384
0.337987
0.337992
0.337992
0.337992
0.337992
0.337992
0.337992
0.337992
0.337992
0.337992
0.337992
0.337992
0.337992
0.337992
0.337992
0.337992
0.337992
0.337992
0.337992
0.337992
0.337992
0.337992
0.337992
0.337992
0.337992
0.337985
0.336232
0.156486
0.162002
0.336358
0.337987
0.337992
0.337992
0.337992
0.337992
0.337992
0.337992
0.337992
0.337992
0.337992
0.337992
0.337992
0.337992
0.337992
0.337992
0.337992
0.337992
0.337992
0.337992
0.337992
0.337992
0.337992
0.337992
0.337992
0.337992
0.337985
0.336225
0.156527
0.161279
0.336335
0.337987
0.337992
0.337992
0.337992
0.337992
0.337992
0.337992
0.337992
0.337992
0.337992
0.337992
0.337992
0.337992
0.337992
0.337992
0.337992
0.337992
0.337992
0.337992
0.337992
0.337992
0.337992
0.337992
0.337992
0.337992
0.337985
0.336222
0.156619
0.16062
0.336313
0.337986
0.337992
0.337992
0.337992
0.337992
0.337992
0.337992
0.337992
0.337992
0.337992
0.337992
0.337992
0.337992
0.337992
0.337992
0.337992
0.337992
0.337992
0.337992
0.337992
0.337992
0.337992
0.337992
0.337992
0.337992
0.337985
0.336212
0.15654
0.160018
0.336293
0.337986
0.337992
0.337992
0.337992
0.337992
0.337992
0.337992
0.337992
0.337992
0.337992
0.337992
0.337992
0.337992
0.337992
0.337992
0.337992
0.337992
0.337992
0.337992
0.337992
0.337992
0.337992
0.337992
0.337992
0.337992
0.337985
0.336209
0.15646
0.159475
0.336274
0.337986
0.337992
0.337992
0.337992
0.337992
0.337992
0.337992
0.337992
0.337992
0.337992
0.337992
0.337992
0.337992
0.337992
0.337992
0.337992
0.337992
0.337992
0.337992
0.337992
0.337992
0.337992
0.337992
0.337992
0.337992
0.337985
0.336207
0.15648
0.158989
0.336258
0.337986
0.337992
0.337992
0.337992
0.337992
0.337992
0.337992
0.337992
0.337992
0.337992
0.337992
0.337992
0.337992
0.337992
0.337992
0.337992
0.337992
0.337992
0.337992
0.337992
0.337992
0.337992
0.337992
0.337992
0.337992
0.337985
0.3362
0.156426
0.158555
0.336243
0.337986
0.337992
0.337992
0.337992
0.337992
0.337992
0.337992
0.337992
0.337992
0.337992
0.337992
0.337992
0.337992
0.337992
0.337992
0.337992
0.337992
0.337992
0.337992
0.337992
0.337992
0.337992
0.337992
0.337992
0.337992
0.337985
0.336197
0.156369
0.158171
0.33623
0.337986
0.337992
0.337992
0.337992
0.337992
0.337992
0.337992
0.337992
0.337992
0.337992
0.337992
0.337992
0.337992
0.337992
0.337992
0.337992
0.337992
0.337992
0.337992
0.337992
0.337992
0.337992
0.337992
0.337992
0.337992
0.337985
0.336196
0.156383
0.157838
0.336219
0.337986
0.337992
0.337992
0.337992
0.337992
0.337992
0.337992
0.337992
0.337992
0.337992
0.337992
0.337992
0.337992
0.337992
0.337992
0.337992
0.337992
0.337992
0.337992
0.337992
0.337992
0.337992
0.337992
0.337992
0.337992
0.337985
0.336191
0.156368
0.15755
0.336209
0.337986
0.337992
0.337992
0.337992
0.337992
0.337992
0.337992
0.337992
0.337992
0.337992
0.337992
0.337992
0.337992
0.337992
0.337992
0.337992
0.337992
0.337992
0.337992
0.337992
0.337992
0.337992
0.337992
0.337992
0.337992
0.337986
0.33619
0.156352
0.157305
0.336201
0.337986
0.337992
0.337992
0.337992
0.337992
0.337992
0.337992
0.337992
0.337992
0.337992
0.337992
0.337992
0.337992
0.337992
0.337992
0.337992
0.337992
0.337992
0.337992
0.337992
0.337992
0.337992
0.337992
0.337992
0.337992
0.337986
0.33619
0.156386
0.157103
0.336194
0.337986
0.337992
0.337992
0.337992
0.337992
0.337992
0.337992
0.337992
0.337992
0.337992
0.337992
0.337992
0.337992
0.337992
0.337992
0.337992
0.337992
0.337992
0.337992
0.337992
0.337992
0.337992
0.337992
0.337992
0.337992
0.337986
0.336188
0.156419
0.156939
0.336189
0.337986
0.337992
0.337992
0.337992
0.337992
0.337992
0.337992
0.337992
0.337992
0.337992
0.337992
0.337992
0.337992
0.337992
0.337992
0.337992
0.337992
0.337992
0.337992
0.337992
0.337992
0.337992
0.337992
0.337992
0.337992
0.337986
0.336189
0.156451
0.156812
0.336185
0.337986
0.337992
0.337992
0.337992
0.337992
0.337992
0.337992
0.337992
0.337992
0.337992
0.337992
0.337992
0.337992
0.337992
0.337992
0.337992
0.337992
0.337992
0.337992
0.337992
0.337992
0.337992
0.337992
0.337992
0.337992
0.337986
0.336191
0.156525
0.15672
0.336184
0.337986
0.337992
0.337992
0.337992
0.337992
0.337992
0.337992
0.337992
0.337992
0.337992
0.337992
0.337992
0.337992
0.337992
0.337992
0.337992
0.337992
0.337992
0.337992
0.337992
0.337992
0.337992
0.337992
0.337992
0.337992
0.337987
0.336351
0.156595
0.127595
0.12783
0.128064
0.128299
0.128534
0.128769
0.129003
0.129238
0.129473
0.129708
0.129942
0.130177
0.130412
0.130646
0.130881
0.131116
0.131351
0.131585
0.13182
0.132055
0.13229
0.132524
0.132759
0.132994
0.133228
0.133463
0.133698
0.133933
0.134167
0.134402
0.134637
0.134872
0.135106
0.135341
0.135576
0.13581
0.136045
0.13628
0.136515
0.136749
0.136984
0.137219
0.137454
0.137688
0.137923
0.138158
0.138393
0.138627
0.138862
0.139097
0.139332
0.139566
0.139801
0.140036
0.14027
0.140505
0.14074
0.140975
0.141209
0.141444
0.141679
0.141914
0.142148
0.142383
0.142618
0.142853
0.143087
0.143322
0.143557
0.143792
0.144026
0.144261
0.144496
0.144731
0.144965
0.1452
0.145435
0.14567
0.145904
0.146139
0.146374
0.146609
0.146843
0.147078
0.147313
0.147548
0.147782
0.148017
0.148252
0.148487
0.148721
0.148956
0.149191
0.149426
0.14966
0.149895
0.15013
0.150365
0.150599
0.150834
0.151069
0.151304
0.151538
0.151773
0.152008
0.152243
0.152477
0.152712
0.152947
0.153182
0.153416
0.153651
0.153886
0.154121
0.154355
0.15459
0.154825
0.15506
0.155294
0.155529
0.155764
0.155999
0.156233
0.156468
0.156703
0.334384
0.334413
0.334434
0.334455
0.334475
0.334496
0.334516
0.334537
0.334557
0.334577
0.334596
0.334616
0.334636
0.334655
0.334674
0.334694
0.334713
0.334731
0.33475
0.334769
0.334787
0.334806
0.334824
0.334842
0.33486
0.334878
0.334896
0.334913
0.334931
0.334948
0.334965
0.334983
0.335
0.335017
0.335033
0.33505
0.335067
0.335083
0.335099
0.335116
0.335132
0.335148
0.335164
0.33518
0.335195
0.335211
0.335226
0.335242
0.335257
0.335272
0.335287
0.335302
0.335317
0.335332
0.335347
0.335361
0.335376
0.33539
0.335404
0.335419
0.335433
0.335447
0.335461
0.335475
0.335488
0.335502
0.335516
0.335529
0.335543
0.335556
0.335569
0.335582
0.335595
0.335608
0.335621
0.335634
0.335647
0.335659
0.335672
0.335684
0.335697
0.335709
0.335722
0.335734
0.335746
0.335758
0.33577
0.335782
0.335793
0.335805
0.335817
0.335828
0.33584
0.335851
0.335863
0.335874
0.335885
0.335896
0.335907
0.335919
0.335929
0.33594
0.335951
0.335962
0.335973
0.335983
0.335994
0.336004
0.336015
0.336025
0.336035
0.336046
0.336056
0.336066
0.336076
0.336086
0.336096
0.336106
0.336115
0.336125
0.336135
0.336145
0.336154
0.336164
0.336175
0.337973
0.337974
0.337974
0.337974
0.337974
0.337974
0.337974
0.337975
0.337975
0.337975
0.337975
0.337975
0.337975
0.337976
0.337976
0.337976
0.337976
0.337976
0.337976
0.337976
0.337977
0.337977
0.337977
0.337977
0.337977
0.337977
0.337977
0.337978
0.337978
0.337978
0.337978
0.337978
0.337978
0.337978
0.337978
0.337979
0.337979
0.337979
0.337979
0.337979
0.337979
0.337979
0.337979
0.33798
0.33798
0.33798
0.33798
0.33798
0.33798
0.33798
0.33798
0.33798
0.33798
0.337981
0.337981
0.337981
0.337981
0.337981
0.337981
0.337981
0.337981
0.337981
0.337981
0.337982
0.337982
0.337982
0.337982
0.337982
0.337982
0.337982
0.337982
0.337982
0.337982
0.337982
0.337982
0.337983
0.337983
0.337983
0.337983
0.337983
0.337983
0.337983
0.337983
0.337983
0.337983
0.337983
0.337983
0.337983
0.337984
0.337984
0.337984
0.337984
0.337984
0.337984
0.337984
0.337984
0.337984
0.337984
0.337984
0.337984
0.337984
0.337984
0.337984
0.337985
0.337985
0.337985
0.337985
0.337985
0.337985
0.337985
0.337985
0.337985
0.337985
0.337985
0.337985
0.337985
0.337985
0.337985
0.337985
0.337985
0.337986
0.337986
0.337986
0.337986
0.337986
0.337992
0.337992
0.337992
0.337992
0.337992
0.337992
0.337992
0.337992
0.337992
0.337992
0.337992
0.337992
0.337992
0.337992
0.337992
0.337992
0.337992
0.337992
0.337992
0.337992
0.337992
0.337992
0.337992
0.337992
0.337992
0.337992
0.337992
0.337992
0.337992
0.337992
0.337992
0.337992
0.337992
0.337992
0.337992
0.337992
0.337992
0.337992
0.337992
0.337992
0.337992
0.337992
0.337992
0.337992
0.337992
0.337992
0.337992
0.337992
0.337992
0.337992
0.337992
0.337992
0.337992
0.337992
0.337992
0.337992
0.337992
0.337992
0.337992
0.337992
0.337992
0.337992
0.337992
0.337992
0.337992
0.337992
0.337992
0.337992
0.337992
0.337992
0.337992
0.337992
0.337992
0.337992
0.337992
0.337992
0.337992
0.337992
0.337992
0.337992
0.337992
0.337992
0.337992
0.337992
0.337992
0.337992
0.337992
0.337992
0.337992
0.337992
0.337992
0.337992
0.337992
0.337992
0.337992
0.337992
0.337992
0.337992
0.337992
0.337992
0.337992
0.337992
0.337992
0.337992
0.337992
0.337992
0.337992
0.337992
0.337992
0.337992
0.337992
0.337992
0.337992
0.337992
0.337992
0.337992
0.337992
0.337992
0.337992
0.337992
0.337992
0.337992
0.337992
0.337992
0.337992
0.337992
0.337992
0.337992
0.337992