/*--------------------------------*- C++ -*----------------------------------*\
| =========                 |                                                 |
| \\      /  F ield         | OpenFOAM: The Open Source CFD Toolbox           |
|  \\    /   O peration     | Version:  2112                                  |
|   \\  /    A nd           | Website:  www.openfoam.com                      |
|    \\/     M anipulation  |                                                 |
\*---------------------------------------------------------------------------*/
FoamFile
{
    version     2.0;
    format      ascii;
    arch        "LSB;label=32;scalar=64";
    class       surfaceScalarField;
    location    "5e-05";
    object      phi;
}
// * * * * * * * * * * * * * * * * * * * * * * * * * * * * * * * * * * * * * //

dimensions      [1 0 -1 0 0 0 0];

oriented        oriented;

internalField   nonuniform List<scalar> 
27436
(
-1.16001
8.57719
-0.752144
7.53911
-0.415636
7.48825
-0.240919
7.54319
-0.143167
7.56538
-0.090201
7.57743
-0.0606063
7.5831
-0.0419973
7.58556
-0.0279638
7.58656
-0.0156343
7.58697
-0.00388757
7.58714
0.00767314
7.58722
0.0191931
7.58723
0.0307628
7.58721
0.0425266
7.58712
0.0548686
7.58689
0.0688768
7.58641
0.0873644
7.58541
0.11677
7.583
0.169428
7.57743
0.266759
7.56552
0.441028
7.54344
0.776913
7.4892
1.18163
7.54509
8.62395
-0.744478
8.47784
-0.509785
6.96977
-0.297231
6.98966
-0.169849
7.15903
-0.101272
7.24938
-0.0649868
7.29355
-0.0448098
7.31297
-0.0316938
7.3207
-0.0213518
7.32352
-0.0120036
7.32447
-0.00298811
7.32473
0.00592461
7.32481
0.0148152
7.32485
0.0237397
7.32482
0.0327771
7.32475
0.0421455
7.32449
0.0524878
7.32355
0.0655456
7.3207
0.0855738
7.31299
0.121611
7.29365
0.189863
7.24968
0.316897
7.15941
0.531363
6.98911
0.770436
6.97002
8.50093
-0.274794
9.40058
-0.251125
8.4183
-0.222479
8.44238
-0.173187
8.43794
-0.135705
8.46537
-0.110818
8.48357
-0.0934078
8.49175
-0.0794187
8.49484
-0.0667759
8.49589
-0.0546464
8.49628
-0.0427009
8.49653
-0.0307927
8.49662
-0.018892
8.49661
-0.00697406
8.49661
0.00500051
8.4966
0.0171498
8.4965
0.0298016
8.49615
0.0438132
8.49508
0.0612131
8.49198
0.086077
8.4838
0.123686
8.46557
0.172344
8.43809
0.197388
8.44534
0.225748
8.41739
9.35957
0.103627
7.75116
0.0354091
7.27756
-0.0966169
7.37129
-0.121549
7.34875
-0.112516
7.36014
-0.0981886
7.36917
-0.0837599
7.37322
-0.0698732
7.37481
-0.056355
7.37543
-0.0430034
7.37567
-0.029708
7.37583
-0.016439
7.37591
-0.00317737
7.37589
0.0100972
7.37588
0.0233974
7.37585
0.0367656
7.37573
0.0503031
7.37544
0.0641933
7.37474
0.0785865
7.37305
0.0927664
7.36897
0.101411
7.36002
0.0761876
7.34854
-0.0546662
7.37298
-0.134524
7.28089
7.69866
0.20227
5.35881
0.0858637
5.33571
-0.0161443
5.36585
-0.0395531
5.35429
-0.0411683
5.35771
-0.0359405
5.35938
-0.0292375
5.36045
-0.0223807
5.36104
-0.0155793
5.36134
-0.00880256
5.36148
-0.00204168
5.36157
0.00469462
5.36159
0.0114224
5.36157
0.0181573
5.36154
0.0249032
5.3615
0.0316723
5.36141
0.0384838
5.36123
0.0453374
5.36084
0.0520159
5.3601
0.057159
5.35887
0.0553147
5.35716
0.0305899
5.35422
-0.070818
5.36599
-0.181389
5.33145
5.34834
0.0220664
1.50903
0.0116146
1.50871
-0.00444724
1.53189
-0.00743534
1.52582
-0.00795901
1.52564
-0.0067983
1.52615
-0.0052795
1.52655
-0.00372372
1.52676
-0.00218053
1.52686
-0.000637509
1.52691
0.00090324
1.52692
0.00243193
1.5269
0.00395655
1.52687
0.00548426
1.52685
0.0070151
1.52681
0.00855148
1.52676
0.0100963
1.52668
0.0116528
1.52653
0.0131718
1.52626
0.0143184
1.52577
0.0137032
1.52518
0.0103639
1.52548
-0.00549103
1.532
-0.0141849
1.50723
1.50396
-0.00160749
0.0770547
-0.000461821
0.0820682
-0.000447902
0.084444
-0.0006834
0.084344
-0.0010421
0.0843615
-0.00133039
0.0843944
-0.00160744
0.0844143
-0.00188544
0.0844245
-0.00216492
0.08443
-0.00244421
0.0844341
-0.0027237
0.084436
-0.00300422
0.0844356
-0.00328513
0.0844345
-0.00356565
0.0844333
-0.00384583
0.0844319
-0.00412557
0.0844299
-0.00440458
0.0844266
-0.00468178
0.084421
-0.00495728
0.0844104
-0.00524354
0.0843896
-0.00560935
0.0843561
-0.00596491
0.0843459
-0.00567396
0.0844702
-0.00392839
0.0819853
0.0766943
0.000810252
0.0180204
0.000937732
0.0188515
0.000884309
0.018985
0.00080451
0.018991
0.000726986
0.0189912
0.000649492
0.0189915
0.000571904
0.0189916
0.000494252
0.0189918
0.000416574
0.0189918
0.000338893
0.0189919
0.000261206
0.0189919
0.000183508
0.0189918
0.000105806
0.0189918
2.81093e-05
0.0189917
-4.95847e-05
0.0189917
-0.000127272
0.0189916
-0.000204952
0.0189915
-0.000282608
0.0189914
-0.000360202
0.0189913
-0.000437709
0.018991
-0.000515404
0.0189907
-0.000596371
0.0189905
-0.000662138
0.0189846
-0.000584214
0.0188487
0.0179785
0.000316573
0.0151855
0.000231931
0.0173654
0.000171463
0.0179419
0.000162681
0.0180352
0.000162883
0.0180434
0.000164097
0.0180441
0.000165409
0.0180441
0.00016673
0.0180441
0.000168051
0.0180441
0.000169373
0.0180441
0.000170694
0.0180441
0.000172016
0.0180441
0.000173337
0.0180441
0.000174658
0.0180441
0.00017598
0.0180441
0.000177301
0.0180441
0.000178622
0.0180441
0.000179943
0.0180441
0.000181253
0.0180441
0.00018244
0.0180441
0.000182354
0.0180434
0.000170298
0.0180352
7.26553e-05
0.0179444
-2.50136e-05
0.0173759
0.0152609
-0.00481183
0.0151277
-0.00628134
0.0162016
-0.00646797
0.0171381
-0.00590908
0.0173043
-0.00524059
0.0173313
-0.00455923
0.0173341
-0.00387652
0.0173343
-0.00319369
0.0173343
-0.00251085
0.0173343
-0.00182801
0.0173343
-0.00114518
0.0173343
-0.000462338
0.0173343
0.0002205
0.0173343
0.000903338
0.0173343
0.00158618
0.0173343
0.00226901
0.0173343
0.00295185
0.0173343
0.00363468
0.0173343
0.00431739
0.0173343
0.00499874
0.017334
0.00566725
0.0173309
0.00622677
0.0173012
0.00605249
0.0171041
0.00463741
0.0160399
0.0149097
-0.00629217
0.0143614
-0.00871527
0.0147688
-0.00928025
0.0160454
-0.00850607
0.0162548
-0.00750351
0.0162932
-0.00647172
0.0162975
-0.00543665
0.016298
-0.00440127
0.0162981
-0.00336587
0.0162981
-0.00233046
0.0162981
-0.00129506
0.0162981
-0.000259649
0.0162981
0.000775758
0.0162981
0.00181117
0.0162981
0.00284657
0.0162981
0.00388198
0.0162981
0.00491738
0.0162981
0.00595276
0.0162981
0.00698779
0.016298
0.00801922
0.0162975
0.00901879
0.0162932
0.00977281
0.0162539
0.00911825
0.0160415
0.00652058
0.0147287
0.0144172
-0.00634504
0.0133667
-0.00919589
0.013423
-0.0101378
0.0148797
-0.00940285
0.0151232
-0.00833937
0.0151746
-0.00722937
0.0151809
-0.00611365
0.0151816
-0.00499734
0.0151817
-0.00388097
0.0151817
-0.0027646
0.0151817
-0.00164822
0.0151817
-0.000531852
0.0151817
0.00058452
0.0151817
0.00170089
0.0151817
0.00281726
0.0151817
0.00393364
0.0151817
0.00505
0.0151817
0.00616632
0.0151817
0.00728206
0.0151816
0.00839221
0.015181
0.00945669
0.0151751
0.0101954
0.0151266
0.00925638
0.0148968
0.00640552
0.0134746
0.0135111
-0.00589576
0.0126194
-0.00897131
0.0123535
-0.0102117
0.0137566
-0.0095715
0.0139918
-0.00851914
0.0140478
-0.0074031
0.0140551
-0.00627858
0.014056
-0.0051531
0.0140561
-0.00402752
0.0140561
-0.00290194
0.0140561
-0.00177636
0.0140561
-0.000650772
0.0140561
0.000474812
0.0140561
0.0016004
0.0140561
0.00272598
0.0140561
0.00385156
0.0140561
0.00497714
0.0140561
0.00610263
0.0140561
0.00722725
0.014056
0.00834407
0.0140553
0.00940161
0.014049
0.0100679
0.0140001
0.00890828
0.0137945
0.00593599
0.0125186
0.0130102
-0.00528339
0.012319
-0.00835762
0.0116461
-0.00977647
0.01276
-0.0092739
0.0129486
-0.00831261
0.0129985
-0.00727524
0.0130054
-0.00622701
0.0130063
-0.00517743
0.0130064
-0.00412772
0.0130064
-0.00307799
0.0130064
-0.00202825
0.0130064
-0.000978523
0.0130064
7.12079e-05
0.0130064
0.00112094
0.0130064
0.00217067
0.0130064
0.0032204
0.0130064
0.00427012
0.0130064
0.00531971
0.0130064
0.00636812
0.0130062
0.00740683
0.0130052
0.00837715
0.0129973
0.00892893
0.0129421
0.00766118
0.0127268
0.00482537
0.0115402
0.0116294
-0.00399421
0.0110606
-0.00673764
0.0108266
-0.00814219
0.0117997
-0.00772622
0.0119795
-0.00685246
0.0120291
-0.00589793
0.0120366
-0.00493109
0.0120376
-0.00396264
0.0120377
-0.002994
0.0120377
-0.00202534
0.0120377
-0.00105668
0.0120377
-8.80128e-05
0.0120377
0.00088065
0.0120377
0.00184931
0.0120377
0.00281797
0.0120377
0.00378663
0.0120377
0.00475527
0.0120377
0.00572367
0.0120377
0.00669003
0.0120375
0.00764135
0.0120363
0.00849681
0.012027
0.00883385
0.0119677
0.00723237
0.0117585
0.00423729
0.0106622
0.0108352
-0.00382933
0.0117387
-0.00653202
0.0106091
-0.00802417
0.0110188
-0.00769352
0.011048
-0.00684484
0.011066
-0.00589564
0.0110687
-0.00492983
0.0110691
-0.00396163
0.0110692
-0.00299314
0.0110692
-0.00202461
0.0110692
-0.00105608
0.0110692
-8.75463e-05
0.0110692
0.000880986
0.0110692
0.00184952
0.0110692
0.00281805
0.0110692
0.00378658
0.0110692
0.00475507
0.0110692
0.00572321
0.0110692
0.00668864
0.0110691
0.00763535
0.0110688
0.00847024
0.0110664
0.00873821
0.0110504
0.00706176
0.0110357
0.00409502
0.010612
0.0119
-0.00240313
0.0119366
-0.00425268
0.010671
-0.00535231
0.0105527
-0.00516757
0.0104723
-0.00463724
0.0104624
-0.00404148
0.0104608
-0.00343471
0.0104606
-0.00282631
0.0104605
-0.00221768
0.0104605
-0.00160904
0.0104605
-0.00100039
0.0104605
-0.000391735
0.0104605
0.000216916
0.0104605
0.000825567
0.0104605
0.00143422
0.0104605
0.00204287
0.0104605
0.00265149
0.0104605
0.00325992
0.0104605
0.00386684
0.0104606
0.00446352
0.0104608
0.00499851
0.0104628
0.00520021
0.0104749
0.00413184
0.0105574
0.00232641
0.0107227
0.0119714
-0.000815846
0.0121165
-0.0013271
0.0106846
-0.00163874
0.0104335
-0.00161605
0.0103524
-0.00150516
0.0103334
-0.00137807
0.0103306
-0.00124819
0.0103302
-0.00111788
0.0103302
-0.000987509
0.0103301
-0.000857135
0.0103301
-0.00072676
0.0103301
-0.000596386
0.0103301
-0.000466011
0.0103301
-0.000335636
0.0103301
-0.000205262
0.0103301
-7.48876e-05
0.0103301
5.54816e-05
0.0103301
0.000185812
0.0103301
0.000315855
0.0103302
0.00044403
0.0103303
0.000561417
0.0103314
0.000624114
0.0103384
0.000496888
0.0103867
0.000307265
0.010502
0.0118604
0.00305539
0.0108636
0.00496573
0.0101586
0.00608871
0.0108059
0.00587281
0.0109192
0.00531344
0.0109569
0.00469222
0.0109627
0.00406055
0.0109635
0.00342731
0.0109636
0.00279387
0.0109636
0.0021604
0.0109636
0.00152693
0.0109636
0.000893463
0.0109636
0.000259993
0.0109636
-0.000373476
0.0109636
-0.00100695
0.0109636
-0.00164041
0.0109636
-0.00227386
0.0109636
-0.00290715
0.0109636
-0.00353918
0.0109635
-0.00416267
0.0109628
-0.00473441
0.0109579
-0.0050115
0.0109251
-0.00410303
0.0108336
-0.00252067
0.0102442
0.011147
0.00396193
0.0100574
0.00710043
0.010322
0.00907503
0.0116059
0.00880098
0.0119383
0.00787718
0.012025
0.00682515
0.0120389
0.00575128
0.0120409
0.00467422
0.0120411
0.00359674
0.0120411
0.00251922
0.0120411
0.00144169
0.0120411
0.000364161
0.0120411
-0.000713368
0.0120411
-0.0017909
0.0120411
-0.00286842
0.0120411
-0.00394595
0.0120411
-0.00502342
0.0120411
-0.00610048
0.0120411
-0.00717426
0.0120409
-0.00822573
0.0120387
-0.00914641
0.0120239
-0.00940273
0.0119322
-0.00735833
0.0115878
-0.00412928
0.0102334
0.0100342
0.00399761
0.0109605
0.00705521
0.0115021
0.0088125
0.0127261
0.00844213
0.0130124
0.00751374
0.0130794
0.00648293
0.0130893
0.00543583
0.0130906
0.00438652
0.0130907
0.00333695
0.0130907
0.00228735
0.0130907
0.00123775
0.0130907
0.000188154
0.0130907
-0.000861445
0.0130907
-0.00191104
0.0130907
-0.00296064
0.0130907
-0.00401024
0.0130907
-0.0050598
0.0130907
-0.00610906
0.0130907
-0.00715577
0.0130906
-0.00818392
0.013089
-0.00909705
0.0130775
-0.00939699
0.0130012
-0.00743573
0.0126786
-0.00414492
0.011348
0.010627
0.00447087
0.0122411
0.00721924
0.0127624
0.00853266
0.0137873
0.00804513
0.0140042
0.00715663
0.0140488
0.00620273
0.0140546
0.00523937
0.0140553
0.00427484
0.0140554
0.00331019
0.0140554
0.00234552
0.0140554
0.00138086
0.0140554
0.000416188
0.0140554
-0.000548479
0.0140554
-0.00151315
0.0140554
-0.00247781
0.0140554
-0.00344248
0.0140554
-0.00440713
0.0140554
-0.00537165
0.0140554
-0.00633488
0.0140553
-0.00728786
0.0140546
-0.0081709
0.0140484
-0.00863322
0.0140024
-0.00725217
0.0137788
-0.00443113
0.0127463
0.0121095
0.0046652
0.0133669
0.00703709
0.013924
0.00796674
0.0147275
0.00743643
0.0148784
0.00662891
0.0149057
0.00578102
0.0149089
0.0049278
0.0149093
0.00407398
0.0149093
0.0032201
0.0149093
0.00236622
0.0149093
0.00151233
0.0149093
0.000658451
0.0149093
-0.000195432
0.0149093
-0.00104931
0.0149093
-0.0019032
0.0149093
-0.00275708
0.0149093
-0.00361096
0.0149093
-0.00446478
0.0149093
-0.00531804
0.0149093
-0.00616629
0.0149089
-0.00697649
0.0149059
-0.00752484
0.0148803
-0.00667864
0.0147394
-0.00444953
0.0139787
0.0135484
0.00448258
0.0146745
0.0063707
0.0149335
0.0069376
0.0155541
0.0063799
0.015655
0.00564225
0.0156717
0.00488109
0.0156734
0.00411711
0.0156736
0.00335284
0.0156736
0.00258855
0.0156736
0.00182425
0.0156736
0.00105995
0.0156736
0.000295657
0.0156736
-0.00046864
0.0156736
-0.00123294
0.0156736
-0.00199724
0.0156736
-0.00276153
0.0156736
-0.00352583
0.0156736
-0.0042901
0.0156736
-0.00505408
0.0156736
-0.00581524
0.0156734
-0.0065529
0.0156716
-0.00710975
0.0156547
-0.00652936
0.0155519
-0.00460577
0.0149191
0.014647
0.00484113
0.0154163
0.00659641
0.0157627
0.00699989
0.0163357
0.00639905
0.0164213
0.00565624
0.0164342
0.00489637
0.0164354
0.00413459
0.0164356
0.00337264
0.0164356
0.00261067
0.0164356
0.00184869
0.0164356
0.00108672
0.0164356
0.000324746
0.0164356
-0.000437227
0.0164356
-0.0011992
0.0164356
-0.00196117
0.0164356
-0.00272315
0.0164356
-0.00348512
0.0164356
-0.00424707
0.0164356
-0.00500885
0.0164356
-0.00576865
0.0164354
-0.00651089
0.0164342
-0.00710763
0.0164213
-0.00668472
0.0163349
-0.00489085
0.0157584
0.0153359
0.00484817
0.0161577
0.0064612
0.0165646
0.00675609
0.0170647
0.00617451
0.0171341
0.00547976
0.0171437
0.00477213
0.0171446
0.00406315
0.0171447
0.00335404
0.0171447
0.00264492
0.0171447
0.0019358
0.0171447
0.00122668
0.0171447
0.000517562
0.0171447
-0.000191556
0.0171447
-0.000900675
0.0171447
-0.00160979
0.0171447
-0.00231891
0.0171447
-0.00302803
0.0171447
-0.00373714
0.0171447
-0.00444614
0.0171447
-0.00515385
0.0171446
-0.0058494
0.0171438
-0.00643736
0.0171344
-0.00618105
0.0170677
-0.00465709
0.016582
0.0163327
0.00457929
0.0171046
0.00592412
0.0173402
0.00606763
0.0177598
0.00548569
0.0178132
0.00481959
0.0178202
0.00414447
0.0178207
0.00346844
0.0178208
0.00279234
0.0178208
0.00211624
0.0178208
0.00144013
0.0178208
0.000764023
0.0178208
8.79173e-05
0.0178208
-0.000588189
0.0178208
-0.00126429
0.0178208
-0.0019404
0.0178208
-0.00261651
0.0178208
-0.00329261
0.0178208
-0.00396871
0.0178208
-0.00464473
0.0178208
-0.00531978
0.0178207
-0.00598518
0.0178201
-0.00656093
0.0178126
-0.00637063
0.0177545
-0.00490575
0.0173058
0.0169165
0.00478643
0.017687
0.00607462
0.0180265
0.00616267
0.0184176
0.00559073
0.018465
0.00494827
0.0184707
0.00429857
0.0184712
0.00364818
0.0184712
0.00299773
0.0184712
0.00234728
0.0184712
0.00169683
0.0184712
0.00104638
0.0184712
0.00039593
0.0184712
-0.00025452
0.0184712
-0.00090497
0.0184712
-0.00155542
0.0184712
-0.00220587
0.0184712
-0.00285632
0.0184712
-0.00350677
0.0184712
-0.00415716
0.0184712
-0.00480685
0.0184712
-0.00544922
0.0184708
-0.00602067
0.0184653
-0.00593647
0.0184197
-0.00466349
0.0180438
0.0176464
0.00466496
0.0182138
0.00586065
0.0186976
0.00590738
0.0190287
0.00537224
0.0190669
0.00477837
0.0190712
0.00417864
0.0190715
0.00357838
0.0190715
0.00297808
0.0190715
0.00237778
0.0190715
0.00177747
0.0190715
0.00117717
0.0190715
0.000576864
0.0190715
-2.34399e-05
0.0190715
-0.000623744
0.0190715
-0.00122405
0.0190715
-0.00182435
0.0190715
-0.00242466
0.0190715
-0.00302496
0.0190715
-0.00362522
0.0190715
-0.00422502
0.0190715
-0.00481958
0.0190712
-0.00536117
0.0190672
-0.00536439
0.0190324
-0.00431127
0.0187253
0.018496
0.00392145
0.0191468
0.00480284
0.0193458
0.00474863
0.0195893
0.00424743
0.0196151
0.0037051
0.019618
0.00315883
0.0196182
0.00261223
0.0196182
0.0020656
0.0196182
0.00151897
0.0196182
0.000972335
0.0196182
0.000425704
0.0196182
-0.000120928
0.0196182
-0.00066756
0.0196182
-0.00121419
0.0196182
-0.00176082
0.0196182
-0.00230745
0.0196182
-0.00285409
0.0196182
-0.00340072
0.0196182
-0.00394732
0.0196182
-0.00449353
0.0196182
-0.00503534
0.0196179
-0.00553131
0.0196147
-0.00553504
0.0195847
-0.00448938
0.0193064
0.0188295
0.00408046
0.0196351
0.00494485
0.0198689
0.00488765
0.0200957
0.00442306
0.0201185
0.00392364
0.020121
0.00342098
0.0201211
0.00291806
0.0201211
0.00241511
0.0201211
0.00191216
0.0201211
0.00140921
0.0201211
0.000906263
0.0201211
0.000403315
0.0201211
-9.96336e-05
0.0201211
-0.000602582
0.0201211
-0.00110553
0.0201211
-0.00160848
0.0201211
-0.00211143
0.0201211
-0.00261437
0.0201211
-0.0031173
0.0201211
-0.00361996
0.0201211
-0.00411943
0.020121
-0.00458454
0.0201187
-0.00465255
0.0200973
-0.00383236
0.0198853
0.0196372
0.004035
0.0199303
0.0048489
0.0203839
0.00476969
0.0205846
0.00431841
0.0206042
0.00383635
0.0206061
0.00335149
0.0206062
0.0028664
0.0206062
0.0023813
0.0206062
0.00189619
0.0206062
0.00141109
0.0206062
0.000925981
0.0206062
0.000440876
0.0206062
-4.42295e-05
0.0206062
-0.000529335
0.0206062
-0.00101444
0.0206062
-0.00149955
0.0206062
-0.00198465
0.0206062
-0.00246976
0.0206062
-0.00295485
0.0206062
-0.00343973
0.0206062
-0.00392206
0.0206061
-0.00437618
0.0206043
-0.00448136
0.0205864
-0.00375632
0.0204008
0.0201792
0.00329014
0.0207096
0.00389637
0.020876
0.00378225
0.0210218
0.00337661
0.0210352
0.00294845
0.0210365
0.00251829
0.0210365
0.00208798
0.0210366
0.00165766
0.0210366
0.00122734
0.0210366
0.000797014
0.0210366
0.000366691
0.0210366
-6.36319e-05
0.0210366
-0.000493955
0.0210366
-0.000924278
0.0210366
-0.0013546
0.0210366
-0.00178492
0.0210366
-0.00221525
0.0210366
-0.00264557
0.0210366
-0.00307588
0.0210366
-0.00350602
0.0210365
-0.00393396
0.0210365
-0.00433728
0.021035
-0.00442503
0.0210198
-0.0037147
0.0208558
0.020504
0.00339658
0.0211064
0.00399834
0.021281
0.00389391
0.0214176
0.00352109
0.0214296
0.00312865
0.0214308
0.00273449
0.0214308
0.0023402
0.0214309
0.0019459
0.0214309
0.0015516
0.0214309
0.00115731
0.0214309
0.000763006
0.0214309
0.000368708
0.0214309
-2.55911e-05
0.0214309
-0.00041989
0.0214309
-0.000814189
0.0214309
-0.00120849
0.0214309
-0.00160279
0.0214309
-0.00199708
0.0214309
-0.00239137
0.0214309
-0.00278554
0.0214308
-0.00317806
0.0214308
-0.00355177
0.0214298
-0.00366994
0.0214189
-0.0031261
0.0212951
0.0211421
0.00340085
0.0212429
0.00397023
0.021686
0.00384874
0.0218112
0.00347629
0.021822
0.00308582
0.0218229
0.00269378
0.021823
0.00230164
0.021823
0.00190948
0.021823
0.00151732
0.021823
0.00112516
0.021823
0.000733006
0.021823
0.000340849
0.021823
-5.13089e-05
0.021823
-0.000443466
0.021823
-0.000835624
0.021823
-0.00122778
0.021823
-0.00161994
0.021823
-0.0020121
0.021823
-0.00240425
0.021823
-0.00279629
0.021823
-0.0031869
0.021823
-0.00356083
0.021822
-0.00369689
0.0218121
-0.00318493
0.0216956
0.0215102
0.00267915
0.0219297
0.00309575
0.0220725
0.00296315
0.0221606
0.00263221
0.022168
0.0022878
0.0221686
0.00194224
0.0221687
0.0015966
0.0221687
0.00125096
0.0221687
0.000905315
0.0221687
0.000559671
0.0221687
0.000214027
0.0221687
-0.000131617
0.0221687
-0.00047726
0.0221687
-0.000822904
0.0221687
-0.00116855
0.0221687
-0.00151419
0.0221687
-0.00185984
0.0221687
-0.00220548
0.0221687
-0.00255112
0.0221687
-0.00289666
0.0221687
-0.00324091
0.0221686
-0.00357
0.0221678
-0.00367957
0.022159
-0.00316038
0.0220534
0.0216686
0.00276369
0.0222414
0.00318873
0.0223874
0.00307641
0.0224699
0.00278094
0.0224766
0.00247351
0.0224771
0.00216508
0.0224772
0.00185657
0.0224772
0.00154807
0.0224772
0.00123956
0.0224772
0.000931052
0.0224772
0.000622544
0.0224772
0.000314036
0.0224772
5.52865e-06
0.0224772
-0.000302979
0.0224772
-0.000611487
0.0224772
-0.000919995
0.0224772
-0.0012285
0.0224772
-0.00153701
0.0224772
-0.00184551
0.0224772
-0.00215395
0.0224772
-0.00246142
0.0224771
-0.00275744
0.0224766
-0.00287924
0.0224707
-0.00250132
0.0223967
0.0222654
0.00275957
0.0222978
0.003161
0.0227004
0.00303862
0.0227773
0.00274402
0.0227834
0.00243828
0.0227839
0.0021316
0.0227839
0.00182486
0.0227839
0.00151811
0.0227839
0.00121137
0.0227839
0.00090462
0.0227839
0.000597874
0.0227839
0.000291127
0.0227839
-1.56196e-05
0.0227839
-0.000322366
0.0227839
-0.000629113
0.0227839
-0.000935859
0.0227839
-0.00124261
0.0227839
-0.00154935
0.0227839
-0.0018561
0.0227839
-0.00216278
0.0227839
-0.00246861
0.0227839
-0.00276418
0.0227834
-0.00289735
0.0227779
-0.00254396
0.0227087
0.0225687
0.00207811
0.0228774
0.0023576
0.0229967
0.00223344
0.0230475
0.00197463
0.0230514
0.00170751
0.0230517
0.0014397
0.0230518
0.00117184
0.0230518
0.000903983
0.0230518
0.000636125
0.0230518
0.000368266
0.0230518
0.000100408
0.0230518
-0.000167451
0.0230518
-0.00043531
0.0230518
-0.000703168
0.0230518
-0.000971027
0.0230518
-0.00123889
0.0230518
-0.00150674
0.0230518
-0.0017746
0.0230518
-0.00204246
0.0230518
-0.00231026
0.0230518
-0.00257726
0.0230517
-0.0028347
0.0230513
-0.00294025
0.0230462
-0.00256871
0.0229809
0.0225888
0.00214656
0.0231123
0.00244249
0.023232
0.00234361
0.0232793
0.00212026
0.0232829
0.00188944
0.0232832
0.00165801
0.0232832
0.00142654
0.0232832
0.00119507
0.0232832
0.000963597
0.0232832
0.000732124
0.0232832
0.00050065
0.0232832
0.000269177
0.0232832
3.77037e-05
0.0232832
-0.00019377
0.0232832
-0.000425243
0.0232832
-0.000656716
0.0232832
-0.00088819
0.0232832
-0.00111966
0.0232832
-0.00135113
0.0232832
-0.00158257
0.0232832
-0.00181342
0.0232832
-0.00203719
0.023283
-0.00214349
0.0232798
-0.00188893
0.0232384
0.0231265
0.00214636
0.023094
0.00242549
0.0234641
0.00232032
0.0235099
0.00209759
0.0235134
0.00186782
0.0235136
0.00163747
0.0235136
0.00140708
0.0235136
0.00117668
0.0235136
0.000946292
0.0235136
0.0007159
0.0235136
0.000485508
0.0235136
0.000255116
0.0235136
2.47237e-05
0.0235136
-0.000205669
0.0235136
-0.000436061
0.0235136
-0.000666453
0.0235136
-0.000896845
0.0235136
-0.00112724
0.0235136
-0.00135763
0.0235136
-0.00158798
0.0235136
-0.00181782
0.0235136
-0.00204127
0.0235134
-0.00215553
0.0235105
-0.00192057
0.0234722
0.023364
0.0015049
0.0235819
0.00168434
0.0236812
0.00158246
0.0237081
0.00139128
0.0237102
0.00119498
0.0237104
0.000998254
0.0237104
0.000801506
0.0237104
0.000604756
0.0237104
0.000408007
0.0237104
0.000211257
0.0237104
1.45076e-05
0.0237104
-0.000182242
0.0237104
-0.000378992
0.0237104
-0.000575741
0.0237104
-0.000772491
0.0237104
-0.00096924
0.0237104
-0.00116599
0.0237104
-0.00136274
0.0237104
-0.00155949
0.0237104
-0.0017562
0.0237104
-0.00195242
0.0237104
-0.00214259
0.0237102
-0.00222977
0.0237073
-0.00197151
0.0236688
0.0232992
0.00156077
0.0237506
0.00175863
0.0238472
0.00168198
0.0238721
0.00152324
0.023874
0.00135986
0.0238741
0.00119612
0.0238742
0.00103235
0.0238742
0.000868573
0.0238742
0.000704801
0.0238742
0.000541028
0.0238742
0.000377255
0.0238742
0.000213482
0.0238742
4.97095e-05
0.0238742
-0.000114063
0.0238742
-0.000277836
0.0238742
-0.000441609
0.0238742
-0.000605382
0.0238742
-0.000769154
0.0238742
-0.000932926
0.0238742
-0.00109667
0.0238742
-0.00126008
0.0238741
-0.00141912
0.023874
-0.00150116
0.0238724
-0.00133611
0.0238508
0.023752
0.00156804
0.0236724
0.00175484
0.0240084
0.00167487
0.0240344
0.00151732
0.0240363
0.00135536
0.0240365
0.00119306
0.0240365
0.00103072
0.0240365
0.000868389
0.0240365
0.000706056
0.0240365
0.000543722
0.0240365
0.000381388
0.0240365
0.000219055
0.0240365
5.6721e-05
0.0240365
-0.000105613
0.0240365
-0.000267946
0.0240365
-0.00043028
0.0240365
-0.000592614
0.0240365
-0.000754947
0.0240365
-0.00091728
0.0240365
-0.00107959
0.0240365
-0.00124159
0.0240365
-0.0013997
0.0240364
-0.00148743
0.0240349
-0.0013407
0.0240159
0.0239285
0.000980501
0.024073
0.00108675
0.0241549
0.0010135
0.0241676
0.000884589
0.0241686
0.000752647
0.0241687
0.000620466
0.0241687
0.000488269
0.0241687
0.000356072
0.0241687
0.000223875
0.0241687
9.16773e-05
0.0241687
-4.052e-05
0.0241687
-0.000172717
0.0241687
-0.000304915
0.0241687
-0.000437112
0.0241687
-0.00056931
0.0241687
-0.000701507
0.0241687
-0.000833704
0.0241687
-0.000965902
0.0241687
-0.0010981
0.0241687
-0.00123028
0.0241687
-0.00136215
0.0241687
-0.00149034
0.0241686
-0.00155253
0.024167
-0.00138362
0.0241461
0.0238385
0.00102417
0.0241845
0.00114598
0.0242619
0.00109376
0.0242733
0.000991154
0.0242742
0.000885824
0.0242742
0.000780276
0.0242742
0.000674714
0.0242742
0.000569152
0.0242742
0.000463589
0.0242742
0.000358027
0.0242742
0.000252464
0.0242742
0.000146902
0.0242742
4.13391e-05
0.0242742
-6.42235e-05
0.0242742
-0.000169786
0.0242742
-0.000275349
0.0242742
-0.000380911
0.0242742
-0.000486474
0.0242742
-0.000592035
0.0242742
-0.000697585
0.0242742
-0.000802932
0.0242742
-0.000905729
0.0242742
-0.000961275
0.0242734
-0.000861222
0.024263
0.0241718
0.00103728
0.0240632
0.00115313
0.0243614
0.00110069
0.0243756
0.00100103
0.0243766
0.000898788
0.0243767
0.000796332
0.0243767
0.000693863
0.0243767
0.000591394
0.0243767
0.000488924
0.0243767
0.000386455
0.0243767
0.000283985
0.0243767
0.000181516
0.0243767
7.90466e-05
0.0243767
-2.34229e-05
0.0243767
-0.000125892
0.0243767
-0.000228362
0.0243767
-0.000330831
0.0243767
-0.000433301
0.0243767
-0.000535769
0.0243767
-0.000638228
0.0243767
-0.000740511
0.0243767
-0.000840605
0.0243767
-0.000899557
0.024376
-0.000819004
0.024368
0.0243001
0.000514563
0.0243807
0.000565272
0.0244476
0.000520782
0.0244523
0.000446419
0.0244527
0.000370494
0.0244528
0.000294448
0.0244528
0.000218394
0.0244528
0.000142339
0.0244528
6.62846e-05
0.0244528
-9.76989e-06
0.0244528
-8.58244e-05
0.0244528
-0.000161879
0.0244528
-0.000237933
0.0244528
-0.000313988
0.0244528
-0.000390042
0.0244528
-0.000466097
0.0244528
-0.000542151
0.0244528
-0.000618206
0.0244528
-0.00069426
0.0244528
-0.000770303
0.0244528
-0.00084618
0.0244528
-0.000919994
0.0244527
-0.00095564
0.024452
-0.000853928
0.0244419
0.0242251
0.000545089
0.0244449
0.000604151
0.0245145
0.000573112
0.0245113
0.000515945
0.0245114
0.000457387
0.0245114
0.000398718
0.0245114
0.000340042
0.0245114
0.000281366
0.0245114
0.00022269
0.0245114
0.000164014
0.0245114
0.000105338
0.0245114
4.66617e-05
0.0245114
-1.20144e-05
0.0245114
-7.06905e-05
0.0245114
-0.000129367
0.0245114
-0.000188043
0.0245114
-0.000246719
0.0245114
-0.000305395
0.0245114
-0.000364071
0.0245114
-0.00042274
0.0245114
-0.000481297
0.0245114
-0.000538433
0.0245114
-0.000568763
0.0245111
-0.000509566
0.0245121
0.0244198
0.000518204
0.0244273
0.000610595
0.0246183
0.000583133
0.0245672
0.000529526
0.0245668
0.000474378
0.0245667
0.00041911
0.0245667
0.000363835
0.0245667
0.000308559
0.0245667
0.000253283
0.0245667
0.000198007
0.0245667
0.00014273
0.0245667
8.74544e-05
0.0245667
3.21783e-05
0.0245667
-2.30978e-05
0.0245667
-7.83739e-05
0.0245667
-0.00013365
0.0245667
-0.000188926
0.0245667
-0.000244202
0.0245667
-0.000299478
0.0245667
-0.000354746
0.0245667
-0.000409908
0.0245667
-0.000463678
0.0245668
-0.000494085
0.0245675
-0.000417767
0.024623
0.0244812
-0.0134888
0.0548746
-0.0144303
0.0554714
-0.0140164
0.0559516
-0.0135005
0.0559657
-0.0129814
0.0559662
-0.0124621
0.0559662
-0.0119428
0.0559662
-0.0114236
0.0559662
-0.0109043
0.0559662
-0.0103851
0.0559662
-0.00986583
0.0559662
-0.00934658
0.0559662
-0.00882732
0.0559662
-0.00830807
0.0559662
-0.00778881
0.0559662
-0.00726956
0.0559662
-0.00675031
0.0559662
-0.00623105
0.0559662
-0.0057118
0.0559662
-0.00519254
0.0559662
-0.00467329
0.0559662
-0.00415403
0.0559662
-0.00363478
0.0559662
-0.00311553
0.0559662
-0.00259627
0.0559662
-0.00207702
0.0559662
-0.00155771
0.0559662
-0.00103613
0.0559661
-0.000430969
0.0559555
0.0559464
-0.0153934
0.0564464
-0.0163269
0.0549841
-0.0158584
0.0553697
-0.0152742
0.0553784
-0.0146869
0.0553788
-0.0140994
0.0553788
-0.013512
0.0553788
-0.0129245
0.0553788
-0.012337
0.0553788
-0.0117495
0.0553788
-0.011162
0.0553788
-0.0105746
0.0553788
-0.0099871
0.0553788
-0.00939962
0.0553788
-0.00881214
0.0553788
-0.00822467
0.0553788
-0.00763719
0.0553788
-0.00704972
0.0553788
-0.00646224
0.0553788
-0.00587476
0.0553788
-0.00528729
0.0553788
-0.00469981
0.0553788
-0.00411233
0.0553788
-0.00352486
0.0553788
-0.00293738
0.0553788
-0.0023499
0.0553788
-0.00176241
0.0553788
-0.0011743
0.0553787
-0.000585528
0.0553785
0.0553477
-0.0130318
0.0553231
-0.0137036
0.0545895
-0.0132936
0.0548806
-0.012803
0.0548861
-0.0123107
0.0548863
-0.0118183
0.0548863
-0.0113258
0.0548863
-0.0108334
0.0548863
-0.010341
0.0548863
-0.00984855
0.0548863
-0.00935613
0.0548863
-0.0088637
0.0548863
-0.00837127
0.0548863
-0.00787884
0.0548863
-0.00738641
0.0548863
-0.00689399
0.0548863
-0.00640156
0.0548863
-0.00590913
0.0548863
-0.0054167
0.0548863
-0.00492428
0.0548863
-0.00443185
0.0548863
-0.00393942
0.0548863
-0.00344699
0.0548863
-0.00295457
0.0548863
-0.00246214
0.0548863
-0.00196971
0.0548863
-0.00147727
0.0548863
-0.000984401
0.0548863
-0.000491448
0.0548863
0.0548548
-0.0110937
0.0545312
-0.0116221
0.0542138
-0.0112688
0.0544637
-0.0108529
0.0544687
-0.0104355
0.0544689
-0.0100181
0.0544689
-0.00960067
0.0544689
-0.00918325
0.0544689
-0.00876583
0.0544689
-0.00834841
0.0544689
-0.00793099
0.0544689
-0.00751357
0.0544689
-0.00709615
0.0544689
-0.00667873
0.0544689
-0.00626131
0.0544689
-0.00584389
0.0544689
-0.00542647
0.0544689
-0.00500905
0.0544689
-0.00459162
0.0544689
-0.0041742
0.0544689
-0.00375678
0.0544689
-0.00333936
0.0544689
-0.00292194
0.0544689
-0.00250452
0.0544689
-0.0020871
0.0544689
-0.00166968
0.0544689
-0.00125225
0.0544689
-0.000834453
0.0544689
-0.000416603
0.0544688
0.0544374
-0.0105682
0.054106
-0.0110802
0.0538416
-0.0107434
0.0540661
-0.0103469
0.0540708
-0.00994906
0.0540709
-0.0095511
0.0540709
-0.00915313
0.0540709
-0.00875517
0.0540709
-0.00835721
0.0540709
-0.00795925
0.0540709
-0.00756128
0.0540709
-0.00716332
0.0540709
-0.00676536
0.0540709
-0.0063674
0.0540709
-0.00596944
0.0540709
-0.00557147
0.0540709
-0.00517351
0.0540709
-0.00477555
0.0540709
-0.00437759
0.0540709
-0.00397962
0.0540709
-0.00358166
0.0540709
-0.0031837
0.0540709
-0.00278574
0.0540709
-0.00238777
0.0540709
-0.00198981
0.0540709