/*--------------------------------*- C++ -*----------------------------------*\
| =========                 |                                                 |
| \\      /  F ield         | OpenFOAM: The Open Source CFD Toolbox           |
|  \\    /   O peration     | Version:  2112                                  |
|   \\  /    A nd           | Website:  www.openfoam.com                      |
|    \\/     M anipulation  |                                                 |
\*---------------------------------------------------------------------------*/
FoamFile
{
    version     2.0;
    format      ascii;
    arch        "LSB;label=32;scalar=64";
    class       volVectorField;
    location    "5e-05";
    object      U;
}
// * * * * * * * * * * * * * * * * * * * * * * * * * * * * * * * * * * * * * //

dimensions      [0 1 -1 0 0 0 0];

internalField   nonuniform List<vector> 
13875
(
(2281.43 204.104 1.33817e-18)
(2275.94 134.828 -7.59463e-19)
(2309.02 64.4521 -6.74409e-19)
(2330.75 32.9697 0)
(2341.29 15.0997 0)
(2345.82 6.36011 6.13191e-19)
(2347.56 2.44664 -6.1219e-19)
(2348.15 0.871079 -3.04976e-19)
(2348.31 0.293844 3.04566e-19)
(2348.34 0.0969269 0)
(2348.33 0.0314648 -3.16463e-22)
(2348.32 0.00830886 -3.16472e-22)
(2348.32 -0.00274454 0)
(2348.32 -0.0144312 -3.04493e-19)
(2348.34 -0.0397765 3.04806e-19)
(2348.36 -0.107871 0)
(2348.36 -0.305002 6.0961e-19)
(2348.22 -0.877671 -6.10108e-19)
(2347.64 -2.44248 3.17037e-22)
(2345.89 -6.33702 -3.18389e-22)
(2341.34 -15.0483 -6.26757e-19)
(2330.72 -32.8761 6.32487e-19)
(2308.85 -64.3407 -1.34923e-18)
(2275.32 -134.671 1.37543e-18)
(2279.95 -203.564 1.39123e-18)
(2200.2 165.619 -1.62129e-18)
(2179.83 98.655 1.88094e-18)
(2189.35 54.445 8.82038e-19)
(2197.25 27.1607 -8.70727e-19)
(2200.89 11.9026 4.86799e-22)
(2202.23 4.78978 3.93857e-22)
(2202.66 1.78037 4.84884e-22)
(2202.77 0.624735 -4.25084e-19)
(2202.78 0.21454 4.24901e-19)
(2202.76 0.0755475 2.12008e-19)
(2202.75 0.0277123 -1.58974e-19)
(2202.74 0.00904608 -5.1763e-20)
(2202.74 -0.00125729 0)
(2202.74 -0.0124902 -4.25375e-19)
(2202.75 -0.0342446 4.24494e-19)
(2202.77 -0.086448 4.2492e-19)
(2202.8 -0.22819 -4.24943e-19)
(2202.81 -0.63569 3.9184e-22)
(2202.72 -1.77863 -3.92348e-22)
(2202.3 -4.76001 3.93788e-22)
(2200.95 -11.8259 -8.60892e-19)
(2197.27 -27.0247 2.60894e-18)
(2189.24 -54.3208 -1.76314e-18)
(2179.69 -98.4975 4.21245e-22)
(2206.11 -167.159 -1.69099e-18)
(2021.51 58.9104 0)
(1964.26 6.89308 0)
(1949.75 18.6083 0)
(1951.16 11.2065 0)
(1952.93 5.26098 -2.13024e-18)
(1953.74 2.19451 2.11832e-18)
(1954.03 0.836858 2.12182e-18)
(1954.12 0.301523 -3.17964e-18)
(1954.14 0.106087 1.06037e-18)
(1954.14 0.0378009 4.52641e-22)
(1954.14 0.0150247 -5.30115e-19)
(1954.14 0.00624769 5.30388e-19)
(1954.13 4.74973e-05 0)
(1954.13 -0.00687715 0)
(1954.13 -0.0186411 4.52711e-22)
(1954.14 -0.0456074 0)
(1954.14 -0.117292 1.15146e-21)
(1954.13 -0.315247 5.29899e-19)
(1954.04 -0.848489 -5.30295e-19)
(1953.76 -2.19183 0)
(1952.93 -5.22063 0)
(1951.12 -11.0645 0)
(1949.62 -18.4439 0)
(1964.48 -5.76607 0)
(2020.13 -57.1232 0)
(1464.42 -13.9236 0)
(1413.68 -46.8161 2.26227e-18)
(1405.14 -6.69868 -4.42914e-18)
(1409.98 -1.2007 4.43363e-18)
(1413.1 0.431941 -2.20796e-18)
(1414.42 0.414952 0)
(1414.9 0.221801 -9.76909e-22)
(1415.06 0.0997354 0)
(1415.11 0.0433161 0)
(1415.13 0.020076 0)
(1415.13 0.010047 0)
(1415.13 0.00449045 -9.773e-22)
(1415.13 0.000445794 -6.88496e-20)
(1415.12 -0.00377685 6.88494e-20)
(1415.11 -0.00997072 0)
(1415.1 -0.0216343 0)
(1415.07 -0.0473083 1.07238e-21)
(1415.01 -0.105523 -1.10347e-18)
(1414.84 -0.226207 1.10159e-18)
(1414.35 -0.408534 -2.20384e-18)
(1413.01 -0.391273 2.20615e-18)
(1409.86 1.35618 2.22337e-18)
(1404.95 6.98266 -2.21393e-18)
(1413.23 47.1175 0)
(1460.34 14.7925 0)
(812.991 -22.1517 2.33512e-18)
(833.93 -38.02 0)
(846.058 -6.9385 0)
(851.617 -2.69419 0)
(853.834 -0.428031 0)
(854.688 0.0136718 1.49098e-21)
(854.976 0.0606676 1.49085e-21)
(855.068 0.0409975 5.26379e-19)
(855.097 0.0243677 -5.23397e-19)
(855.105 0.0146052 2.60972e-19)
(855.106 0.00762751 -2.63953e-19)
(855.101 0.00305595 0)
(855.096 0.000612637 0)
(855.091 -0.00166216 -1.49104e-21)
(855.085 -0.00498347 0)
(855.075 -0.0106207 -1.49102e-21)
(855.056 -0.0208233 1.04615e-18)
(855.015 -0.0382716 -1.04615e-18)
(854.909 -0.0572897 2.10078e-18)
(854.609 -0.00570728 -2.09962e-18)
(853.746 0.453636 1.49171e-21)
(851.53 2.78271 0)
(846.069 6.98207 0)
(833.681 37.7495 0)
(810.542 22.2112 0)
(397.254 -3.37201 0)
(412.654 -9.10527 7.14676e-19)
(420.99 -1.24808 -7.10424e-19)
(422.322 -0.934337 0)
(422.91 -0.148952 7.05912e-19)
(423.18 0.00708282 -3.55145e-19)
(423.286 0.024282 -2.16786e-21)
(423.326 0.0176859 -1.78679e-19)
(423.342 0.0121936 -3.55205e-19)
(423.35 0.00821216 1.34581e-19)
(423.352 0.00430343 2.20612e-21)
(423.349 0.00184796 2.19805e-19)
(423.345 0.00107767 -1.76506e-19)
(423.342 0.000339675 3.03199e-21)
(423.337 -0.00102433 -3.53002e-19)
(423.33 -0.00323928 3.55212e-19)
(423.319 -0.00684871 2.2063e-21)
(423.297 -0.0127858 -2.20621e-21)
(423.249 -0.0198592 -2.20604e-21)
(423.137 -0.00241405 -7.05835e-19)
(422.861 0.160681 7.03648e-19)
(422.285 0.97582 0)
(421.053 1.21484 0)
(412.55 8.84736 -1.44809e-18)
(396.277 3.28867 -2.07253e-20)
(88.405 0.817033 -1.49084e-20)
(92.4257 0.0492762 1.48002e-20)
(94.5272 0.138894 0)
(94.3575 -0.0544697 -6.14407e-24)
(94.3592 -0.00289971 -6.1439e-24)
(94.3871 0.00524726 0)
(94.4057 0.00429532 0)
(94.4152 0.00286942 -2.41331e-19)
(94.4201 0.00212931 2.41338e-19)
(94.4233 0.00159258 0)
(94.4243 0.00101124 4.82683e-19)
(94.4232 0.000686094 1.42425e-21)
(94.4218 0.000645563 -4.82687e-19)
(94.4206 0.000587201 -1.43461e-21)
(94.4189 0.000403766 0)
(94.4164 0.000109216 9.65397e-19)
(94.4125 -0.000336255 -2.48111e-23)
(94.4064 -0.00113487 -1.93075e-18)
(94.3952 -0.00265046 9.6538e-19)
(94.3739 -0.0036768 6.14498e-24)
(94.3433 0.00542452 0)
(94.3474 0.0609896 9.65924e-19)
(94.5402 -0.14912 -9.65709e-19)
(92.3356 -0.142928 9.46358e-19)
(88.1423 -0.883377 -9.53611e-19)
(12.7029 0.05852 1.46047e-21)
(13.1948 0.0381012 -1.45185e-18)
(13.3564 0.00571323 1.76542e-22)
(13.346 0.000572502 6.91433e-24)
(13.3447 0.000141324 -1.69617e-22)
(13.3456 8.91869e-05 0)
(13.3464 4.84635e-05 -7.26398e-19)
(13.3468 2.89428e-05 7.26382e-19)
(13.3471 2.0951e-05 0)
(13.3472 1.50301e-05 -1.76524e-22)
(13.3473 8.45245e-06 -1.76523e-22)
(13.3472 4.56656e-06 0)
(13.3471 3.91471e-06 0)
(13.347 3.17768e-06 -3.46122e-22)
(13.3469 1.23465e-06 -1.76517e-22)
(13.3467 -1.68746e-06 6.91496e-24)
(13.3465 -5.89699e-06 -1.83428e-22)
(13.3462 -1.35281e-05 -6.91459e-24)
(13.3456 -3.26822e-05 -3.63157e-19)
(13.3447 -7.40123e-05 -5.83121e-24)
(13.3436 -0.000105086 3.63323e-19)
(13.3452 -0.000299492 1.83415e-22)
(13.3566 -0.00415636 7.26098e-19)
(13.186 -0.0221727 -7.26706e-19)
(12.6249 -0.0425471 6.78485e-24)
(9.36284 -0.0398347 1.80982e-19)
(9.98536 -0.0582449 0)
(10.0653 -0.011804 -1.77005e-22)
(10.077 -0.00169723 -1.80404e-19)
(10.0782 -0.000178278 3.60988e-19)
(10.0783 -1.44376e-05 -3.60813e-19)
(10.0783 -5.36622e-07 8.8087e-23)
(10.0783 4.26701e-07 1.80409e-19)
(10.0783 4.25304e-07 0)
(10.0783 3.38345e-07 -1.80146e-19)
(10.0783 2.50337e-07 1.80589e-19)
(10.0783 2.05164e-07 0)
(10.0783 1.96216e-07 0)
(10.0783 1.84721e-07 4.42092e-22)
(10.0783 1.5864e-07 1.77003e-22)
(10.0783 1.1956e-07 1.80417e-19)
(10.0783 7.9633e-08 -1.80241e-19)
(10.0783 1.23508e-07 0)
(10.0783 1.32452e-06 1.8042e-19)
(10.0783 1.81184e-05 -3.60754e-19)
(10.0782 0.000214697 1.80245e-19)
(10.077 0.00218384 -1.7701e-22)
(10.0654 0.0142453 0)
(9.98642 0.0849004 0)
(9.38949 0.0658984 0)
(8.70577 -0.737845 -1.25711e-17)
(9.58982 -0.829079 1.26296e-17)
(9.93644 -0.128308 0)
(9.99317 -0.0188951 -6.26642e-18)
(10.0007 -0.00192513 6.26555e-18)
(10.0015 -0.000186163 0)
(10.0016 -1.50956e-05 -6.21197e-21)
(10.0016 -1.05391e-06 -3.13105e-18)
(10.0016 -5.07411e-08 3.1245e-18)
(10.0016 1.50679e-08 -6.20907e-21)
(10.0016 1.82811e-08 0)
(10.0016 1.73783e-08 -7.8222e-19)
(10.0016 1.72841e-08 1.16698e-18)
(10.0016 1.7205e-08 -3.9715e-19)
(10.0016 1.70393e-08 -6.10721e-21)
(10.0016 2.07303e-08 0)
(10.0016 8.8635e-08 0)
(10.0016 1.10766e-06 -6.24944e-18)
(10.0016 1.53056e-05 6.2416e-18)
(10.0015 0.000187561 -6.24616e-18)
(10.0007 0.00193337 6.23835e-18)
(9.99312 0.0188502 6.24453e-18)
(9.93623 0.127572 -6.23543e-18)
(9.59682 0.813355 -1.25583e-17)
(8.69219 0.721372 -5.97111e-20)
(8.61828 -1.31812 -1.42141e-17)
(9.14073 -1.46353 1.43581e-17)
(9.86069 -0.236118 0)
(9.9783 -0.040648 1.42204e-17)
(9.99776 -0.00455533 -1.42227e-17)
(9.99983 -0.000476958 -7.11508e-18)
(10 -4.25478e-05 7.12617e-18)
(10 -3.34178e-06 -7.12331e-18)
(10 -2.3731e-07 7.1276e-18)
(10 -1.69972e-08 6.96456e-21)
(10 -2.33695e-09 0)
(10 -1.42018e-09 -4.4618e-19)
(10 -1.33774e-09 4.53372e-19)
(10 -1.21632e-09 6.97825e-21)
(10 -1.74831e-10 6.98116e-21)
(10 1.60432e-08 6.98386e-21)
(10 2.59808e-07 0)
(10 3.67675e-06 0)
(10 4.66219e-05 -1.43131e-17)
(9.9998 0.000520174 1.43255e-17)
(9.99749 0.00493571 -1.43317e-17)
(9.976 0.04343 2.8687e-17)
(9.84786 0.249441 -1.43491e-17)
(9.06752 1.52357 -7.02068e-21)
(8.52703 1.3712 7.09536e-21)
(8.66305 -1.67078 -1.56648e-17)
(8.85135 -1.848 1.74735e-19)
(9.80427 -0.31999 3.1305e-17)
(9.96461 -0.0628363 -1.56524e-17)
(9.99591 -0.00779211 0)
(9.99957 -0.000891365 1.564e-17)
(9.99996 -8.63147e-05 -1.56434e-17)
(10 -7.33902e-06 0)
(10 -5.66189e-07 7.64132e-21)
(10 -4.02491e-08 0)
(10 -2.35756e-09 0)
(10 1.29908e-10 0)
(10 2.93338e-10 9.78646e-19)
(10 4.53149e-10 -9.78684e-19)
(10 2.83488e-09 -7.64602e-21)
(10 3.91546e-08 -7.64604e-21)
(10 5.45268e-07 0)
(10 7.10147e-06 0)
(9.99997 8.39288e-05 0)
(9.99959 0.000870679 -1.56567e-17)
(9.99606 0.00765192 3.13273e-17)
(9.96552 0.0623037 -1.56694e-17)
(9.80951 0.317604 -1.5696e-17)
(8.8593 1.85777 1.56871e-17)
(8.73224 1.68602 -7.7229e-21)
(8.71612 -1.93078 1.71449e-17)
(8.69607 -2.12639 0)
(9.76833 -0.392213 0)
(9.9531 -0.0854254 -1.69193e-17)
(9.99412 -0.0115283 1.69211e-17)
(9.99934 -0.00142385 0)
(9.99994 -0.000149751 2.06513e-21)
(9.99999 -1.38601e-05 8.45829e-18)
(10 -1.15301e-06 -8.45558e-18)
(10 -8.91987e-08 0)
(10 -6.37577e-09 -2.11396e-18)
(10 -4.27224e-10 2.11576e-18)
(10 -1.32455e-11 -1.05667e-18)
(10 3.57113e-10 1.05849e-18)
(10 5.62243e-09 8.25103e-21)
(10 7.93907e-08 -8.44661e-18)
(10 1.03214e-06 1.689e-17)
(10 1.25103e-05 1.72319e-24)
(9.99994 0.000136382 -8.43827e-18)
(9.99941 0.00131162 -1.68707e-17)
(9.99472 0.0107258 1.68536e-17)
(9.95697 0.0811136 1.02903e-20)
(9.78753 0.373967 2.05928e-21)
(8.76119 2.08194 1.70718e-17)
(8.84949 1.8975 1.64752e-19)
(8.93767 -2.06769 0)
(8.72934 -2.26249 0)
(9.77024 -0.434389 0)
(9.94861 -0.102982 0)
(9.99314 -0.0148197 0)
(9.99917 -0.00195495 1.79017e-17)
(9.99991 -0.000220759 -1.78885e-17)
(9.99999 -2.20529e-05 1.74518e-20)
(10 -1.9871e-06 -2.17953e-21)
(10 -1.6682e-07 4.45961e-18)
(10 -1.28737e-08 -4.47286e-18)
(10 -9.23519e-10 -3.69493e-20)
(10 -7.48394e-12 -1.38968e-19)
(10 8.20082e-10 1.54008e-19)
(10 1.14205e-08 -4.43759e-18)
(10 1.48062e-07 4.43269e-18)
(10 1.76583e-06 1.51341e-20)
(9.99999 1.96202e-05 0)
(9.99993 0.000197034 0)
(9.99928 0.00175442 0)
(9.99405 0.013389 -1.76305e-17)
(9.95519 0.0943426 -1.91354e-21)
(9.79509 0.404831 1.75926e-17)
(8.86889 2.14451 2.15343e-21)
(9.00458 1.9503 2.17107e-21)
(9.16877 -2.02569 0)
(8.96774 -2.22438 4.5542e-21)
(9.80328 -0.447465 0)
(9.95357 -0.112045 -1.86011e-17)
(9.99341 -0.0170996 3.72387e-17)
(9.99915 -0.00238819 -1.86312e-17)
(9.99991 -0.000287992 0)
(9.99999 -3.08588e-05 -1.8223e-20)
(10 -2.99676e-06 0)
(10 -2.71492e-07 0)
(10 -2.27341e-08 -2.31501e-18)
(10 -1.76033e-09 2.37151e-18)
(10 4.5166e-11 2.34113e-18)
(10 2.35947e-09 -2.36089e-18)
(10 3.01233e-08 0)
(10 3.55725e-07 -9.38117e-18)
(10 3.87694e-06 9.36819e-18)
(9.99999 3.92277e-05 9.3963e-18)
(9.99987 0.000358824 -9.39669e-18)
(9.99883 0.00290175 0)
(9.99112 0.0202504 0)
(9.9403 0.126999 -1.83841e-20)
(9.7484 0.500338 -1.88944e-17)
(8.78253 2.34072 3.80074e-17)
(8.85684 2.11681 -1.89367e-17)
(9.34671 -2.15933 -2.01781e-17)
(8.98419 -2.34672 2.037e-17)
(9.79945 -0.50729 0)
(9.94738 -0.139208 -2.01196e-17)
(9.99196 -0.0232131 -3.33968e-22)
(9.9989 -0.00350354 3.02365e-17)
(9.99987 -0.000458416 -2.01815e-17)
(9.99999 -5.33208e-05 1.00994e-17)
(10 -5.62315e-06 0)
(10 -5.53988e-07 0)
(10 -5.06634e-08 -4.94346e-21)
(10 -4.30033e-09 1.48419e-20)
(10 6.24914e-11 0)
(10 5.06151e-09 0)
(10 5.92087e-08 5.07637e-18)
(10 6.43563e-07 -5.07953e-18)
(10 6.48946e-06 -1.01652e-17)
(9.99998 6.10542e-05 2.03272e-17)
(9.99984 0.000519929 6.16674e-23)
(9.99866 0.00393122 -1.01723e-17)
(9.99041 0.0257598 0)
(9.93834 0.152137 0)
(9.76963 0.546843 -2.04757e-17)
(8.83852 2.50424 2.04989e-17)
(9.25785 2.31093 -5.06022e-21)
(10.4608 -1.64066 2.04102e-17)
(9.67335 -1.74128 -9.91336e-21)
(9.95953 -0.345944 1.00939e-17)
(9.98526 -0.0982594 -1.01035e-17)
(9.99791 -0.0159162 -4.92357e-21)
(9.9997 -0.00242879 9.84577e-21)
(9.99996 -0.000325347 1.00805e-17)
(10 -3.93633e-05 -1.51185e-17)
(10 -4.36763e-06 5.04359e-18)
(10 -4.59047e-07 0)
(10 -4.51608e-08 -2.51355e-18)
(10 -4.15648e-09 2.5131e-18)
(10 -3.93557e-11 0)
(10 3.71205e-09 4.91586e-21)
(10 4.04872e-08 -2.51136e-18)
(10 4.1294e-07 2.51561e-18)
(10 3.94635e-06 0)
(10 3.5842e-05 -1.00471e-17)
(9.99998 0.000298744 1.00541e-17)
(9.9998 0.00225593 1.00416e-17)
(9.99856 0.0149452 -2.01027e-17)
(9.98883 0.0942948 1.0051e-17)
(9.97612 0.329687 0)
(9.72138 1.72341 2.02971e-17)
(10.6629 1.63235 1.20937e-19)
(11.59 -0.476079 1.23432e-20)
(10.2158 -0.480738 1.0071e-17)
(10.0694 -0.091073 -5.01559e-18)
(10.0113 -0.0263651 -5.00855e-18)
(10.0018 -0.00415918 7.51561e-18)
(10.0002 -0.000643306 -5.00587e-18)
(10 -8.71628e-05 5.00603e-18)
(10 -1.07634e-05 -5.0044e-18)
(10 -1.23083e-06 -4.8861e-21)
(10 -1.34094e-07 2.50122e-18)
(10 -1.36869e-08 1.24549e-18)
(10 -1.3134e-09 -4.27296e-21)
(10 -3.91996e-11 -1.25063e-18)
(10 8.858e-10 -4.27165e-21)
(10 9.26885e-09 -5.49094e-21)
(10 9.05879e-08 -1.56153e-19)
(10 8.29566e-07 -1.56272e-27)
(10 7.2205e-06 4.68257e-19)
(10 5.8122e-05 -3.12103e-19)
(10.0002 0.000426686 0)
(10.0018 0.00272695 1.25276e-18)
(10.0112 0.0167211 -3.74824e-18)
(10.0671 0.0554806 4.99457e-18)
(10.2185 0.262483 -7.5206e-18)
(11.4915 0.256451 7.5387e-18)
(11.0321 1.77501 -1.95411e-20)
(9.71772 1.82995 -2.02115e-20)
(9.98373 0.354916 2.0175e-20)
(9.98854 0.101242 -6.30485e-22)
(9.99866 0.0158233 -1.95277e-20)
(9.99981 0.00241162 -2.07758e-20)
(9.99998 0.000323498 -6.2918e-22)
(10 3.92418e-05 0)
(10 4.39583e-06 0)
(10 4.70429e-07 5.12435e-18)
(10 4.71618e-08 -5.14111e-18)
(10 4.43231e-09 -6.27166e-22)
(10 9.62934e-11 6.26664e-22)
(10 -3.3608e-09 -6.62074e-19)
(10 -3.60296e-08 6.41579e-19)
(10 -3.61416e-07 0)
(10 -3.4045e-06 0)
(10 -3.08044e-05 -5.11652e-18)
(10 -0.000258053 5.09276e-18)
(10 -0.00196256 -1.99564e-20)
(10 -0.0131315 0)
(9.99698 -0.0864973 0)
(10.0141 -0.305317 -2.05233e-20)
(9.86382 -1.61222 -2.05286e-20)
(11.1261 -1.55521 2.04548e-17)
(9.04211 2.51061 -2.09344e-17)
(8.64142 2.72268 -2.10048e-17)
(9.69833 0.656991 2.09011e-17)
(9.92032 0.182092 0)
(9.98744 0.0312902 2.04949e-20)
(9.99824 0.0048311 1.05207e-17)
(9.99979 0.000648422 -2.10133e-17)
(9.99998 7.69222e-05 1.05129e-17)
(10 8.28407e-06 -1.05296e-17)
(10 8.30952e-07 1.0546e-17)
(10 7.71584e-08 2.62256e-18)
(10 6.63881e-09 -3.2825e-18)
(10 -1.14778e-11 -6.58866e-19)
(10 -6.77513e-09 1.32822e-18)
(10 -7.87631e-08 0)
(10 -8.48799e-07 0)
(10 -8.46381e-06 1.05543e-17)
(9.99998 -7.86442e-05 -2.11147e-17)
(9.99978 -0.000663047 1.05806e-17)
(9.99817 -0.00493936 2.06296e-20)
(9.98704 -0.0319422 2.11331e-17)
(9.91748 -0.186352 -3.21562e-20)
(9.69385 -0.665868 -6.33078e-17)
(8.58813 -2.79398 6.34418e-17)
(9.13403 -2.59357 -2.13946e-17)
(8.57361 2.16084 9.26419e-21)
(8.67903 2.40328 -1.90281e-17)
(9.69585 0.567442 1.89338e-17)
(9.93009 0.141512 0)
(9.98953 0.0227654 0)
(9.99862 0.00328211 0)
(9.99985 0.00040831 0)
(9.99998 4.46783e-05 0)
(10 4.43315e-06 -4.76088e-18)
(10 4.07106e-07 9.53898e-18)
(10 3.43867e-08 -7.16702e-18)
(10 2.67908e-09 2.6804e-18)
(10 -4.53391e-11 -2.99078e-19)
(10 -3.27272e-09 -7.18633e-32)
(10 -4.14912e-08 -4.79054e-18)
(10 -4.85936e-07 4.79358e-18)
(10 -5.23619e-06 0)
(9.99998 -5.21649e-05 0)
(9.99981 -0.00047079 -1.91986e-17)
(9.99833 -0.00373191 1.92185e-17)
(9.98754 -0.0255511 -1.87773e-20)
(9.91846 -0.155499 9.39344e-21)
(9.6509 -0.614669 -9.39457e-21)
(8.52181 -2.52981 -9.41829e-21)
(8.39933 -2.27148 0)
(8.75736 1.7807 -1.73753e-17)
(8.94952 1.97659 1.70978e-17)
(9.7789 0.419428 -1.68275e-20)
(9.95485 0.0926786 1.72411e-17)
(9.9939 0.0132539 -1.72412e-17)
(9.99926 0.00174085 0)
(9.99992 0.00019688 -8.62537e-18)
(9.99999 1.96506e-05 8.61847e-18)
(10 1.78624e-06 -4.31414e-18)
(10 1.50813e-07 8.64639e-18)
(10 1.17056e-08 -4.30689e-18)
(10 8.39209e-10 1.68586e-20)
(10 -8.8827e-12 0)
(10 -9.62947e-10 2.16671e-18)
(10 -1.33245e-08 2.15841e-18)
(10 -1.70359e-07 -4.30858e-18)
(10 -2.0015e-06 -8.64271e-18)
(9.99999 -2.17929e-05 8.64282e-18)
(9.99991 -0.000215856 -8.64277e-18)
(9.99916 -0.00188503 8.63419e-18)
(9.99317 -0.0141844 8.43121e-21)
(9.95046 -0.0972656 -8.42952e-21)
(9.75857 -0.436706 0)
(8.88834 -2.00548 8.42685e-21)
(8.60864 -1.79623 0)
(8.99253 1.4469 1.59152e-17)
(9.22386 1.59883 -1.56879e-17)
(9.85311 0.30355 6.7442e-21)
(9.97333 0.0597137 0)
(9.99677 0.0075821 0)
(9.99964 0.000909639 -9.63094e-22)
(9.99997 9.34971e-05 0)
(10 8.51367e-06 7.69968e-21)
(10 7.10434e-07 0)
(10 5.54394e-08 3.93178e-18)
(10 3.97962e-09 -5.90705e-18)
(10 2.64961e-10 2.938e-18)
(10 9.42354e-13 -9.82795e-19)
(10 -2.50594e-10 0)
(10 -3.76842e-09 0)
(10 -5.24756e-08 3.92157e-18)
(10 -6.71822e-07 -1.17788e-17)
(10 -8.03883e-06 7.8459e-18)
(9.99997 -8.81604e-05 -7.85098e-18)
(9.99967 -0.000858051 7.84546e-18)
(9.99699 -0.00715467 0)
(9.97523 -0.0565335 0)
(9.86324 -0.288061 0)
(9.27711 -1.53623 -9.56968e-22)
(9.04542 -1.38848 -1.56492e-17)
(9.3394 1.15016 -2.67149e-21)
(9.48569 1.26006 1.46049e-17)
(9.91491 0.20827 -1.45605e-17)
(9.98605 0.0369135 0)
(9.9985 0.00414151 0)
(9.99985 0.000457217 8.90424e-22)
(9.99999 4.27678e-05 7.29905e-18)
(10 3.56762e-06 -7.29299e-18)
(10 2.74459e-07 3.56327e-21)
(10 1.99306e-08 3.56373e-21)
(10 1.33054e-09 3.56418e-21)
(10 8.28094e-11 -8.91148e-22)
(10 5.48663e-14 -8.91246e-22)
(10 -8.1765e-11 1.82189e-18)
(10 -1.31661e-09 -1.8292e-18)
(10 -1.97362e-08 4.4575e-21)
(10 -2.71898e-07 4.45785e-21)
(10 -3.54056e-06 0)
(9.99999 -4.25348e-05 -7.30029e-18)
(9.99985 -0.00045586 7.3025e-18)
(9.99851 -0.0041345 0)
(9.98604 -0.037074 -1.46057e-17)
(9.91527 -0.209398 1.46163e-17)
(9.4808 -1.27624 8.91892e-22)
(9.37515 -1.16832 -1.4613e-17)
(9.49039 1.0511 3.38783e-21)
(9.56086 1.14034 0)
(9.9355 0.171579 0)
(9.99021 0.0280339 -6.95332e-18)
(9.99905 0.00285407 6.94697e-18)
(9.99991 0.000295608 0)
(9.99999 2.55652e-05 6.94535e-18)
(10 1.97669e-06 -6.95282e-18)
(10 1.41494e-07 3.47842e-18)
(10 9.64922e-09 -3.47872e-18)
(10 6.03216e-10 1.73441e-18)
(10 3.53863e-11 -1.74471e-18)
(10 -1.98622e-13 0)
(10 -3.67565e-11 -1.73475e-18)
(10 -6.2644e-10 1.74163e-18)
(10 -1.0012e-08 -3.39514e-21)
(10 -1.4672e-07 -3.39527e-21)
(10 -2.0465e-06 6.79075e-21)
(9.99999 -2.64259e-05 6.95051e-18)
(9.99991 -0.000304697 -6.95064e-18)
(9.99901 -0.00293837 -6.79113e-21)
(9.98978 -0.028683 -6.79114e-21)
(9.93248 -0.175461 0)
(9.54575 -1.15252 -6.796e-21)
(9.44506 -1.06079 3.39275e-21)
(9.50782 0.92617 1.25862e-23)
(9.62706 1.00381 0)
(9.94847 0.141956 1.25757e-23)
(9.99279 0.0215339 6.42516e-21)
(9.99935 0.00204966 -1.25719e-23)
(9.99994 0.000201867 -6.59018e-18)
(10 1.6437e-05 6.58902e-18)
(10 1.19837e-06 0)
(10 8.1144e-08 -6.43223e-21)
(10 5.25743e-09 -1.25606e-23)
(10 3.11457e-10 -1.25581e-23)
(10 1.75759e-11 6.44101e-21)
(10 2.79965e-13 0)
(10 -1.62715e-11 0)
(10 -2.90125e-10 -1.25476e-23)
(10 -4.90205e-09 -1.25448e-23)
(10 -7.57758e-08 -3.28782e-18)
(10 -1.12191e-06 9.85472e-18)
(10 -1.54262e-05 -6.57252e-18)
(9.99995 -0.000190326 0)
(9.99941 -0.00193724 -6.56272e-18)
(9.9934 -0.0205154 6.57415e-18)
(9.9528 -0.13536 1.25231e-23)
(9.6539 -0.97305 6.41131e-21)
(9.55746 -0.897953 1.25185e-23)
(9.62656 0.787532 -7.34307e-20)
(9.71636 0.850692 -7.69924e-20)
(9.96419 0.109859 1.25198e-17)
(9.99531 0.0156016 -6.27368e-18)
(9.99961 0.00137456 6.26318e-18)
(9.99997 0.000129208 -6.27131e-18)
(10 9.87636e-06 6.27317e-18)
(10 6.80369e-07 -3.1375e-18)
(10 4.36277e-08 3.13841e-18)
(10 2.69601e-09 1.19755e-23)
(10 1.5166e-10 1.19788e-23)
(10 7.93746e-12 -1.19822e-23)
(10 8.65209e-14 7.7913e-19)
(10 -8.9145e-12 7.85686e-19)
(10 -1.64654e-10 -1.57791e-18)
(10 -2.91572e-09 1.19949e-23)
(10 -4.70848e-08 6.2904e-18)
(10 -7.32797e-07 -1.25778e-17)
(10 -1.06198e-05 6.2935e-18)
(9.99996 -0.00013842 0)
(9.99956 -0.00146804 -1.20097e-23)
(9.99478 -0.0165863 1.20123e-23)
(9.96039 -0.116818 -1.20137e-23)
(9.68775 -0.893991 -1.25366e-17)
(9.60961 -0.829109 1.26656e-17)
(9.68195 0.731847 1.178e-20)
(9.74518 0.786645 0)
(9.97008 0.0954198 0)
(9.99629 0.0127477 5.89114e-21)
(9.99971 0.00105574 1.17819e-20)
(9.99998 9.56653e-05 0)
(10 6.93859e-06 6.02586e-18)
(10 4.54954e-07 -6.03732e-18)
(10 2.7835e-08 5.88973e-21)
(10 1.65275e-09 -5.88936e-21)
(10 8.87794e-11 -1.50758e-18)
(10 4.56207e-12 1.51336e-18)
(10 1.80361e-13 3.88442e-19)
(10 -4.75409e-12 -3.76813e-19)
(10 -9.09916e-11 1.51302e-18)
(10 -1.68702e-09 -4.52103e-18)
(10 -2.84246e-08 3.00787e-18)
(10 -4.63411e-07 -5.88571e-21)
(10 -7.04994e-06 5.88516e-21)
(9.99998 -9.67905e-05 -6.0258e-18)
(9.9997 -0.0010693 -5.78456e-21)
(9.99622 -0.0127884 1.10692e-21)
(9.96915 -0.0956903 6.03037e-18)
(9.7431 -0.777103 5.88513e-21)
(9.61899 -0.720669 5.87671e-21)
(9.63899 0.651483 1.16501e-17)
(9.77592 0.700361 -1.1548e-17)
(9.97448 0.0818705 0)
(9.99704 0.0103336 -5.79686e-18)
(9.99978 0.000820983 -5.73513e-21)
(9.99998 7.19037e-05 5.79523e-18)
(10 5.00391e-06 5.79654e-18)
(10 3.15111e-07 -5.7851e-18)
(10 1.85631e-08 -5.65351e-21)
(10 1.0635e-09 -2.88816e-18)
(10 5.5038e-11 1.44792e-18)
(10 2.56427e-12 1.44187e-18)
(10 2.09701e-13 -5.64473e-21)
(10 -2.14142e-12 0)
(10 -4.77252e-11 0)
(10 -9.23098e-10 0)
(10 -1.61525e-08 5.64079e-21)
(10 -2.75848e-07 1.40978e-21)
(10 -4.40161e-06 -7.04682e-21)
(9.99999 -6.3919e-05 0)
(9.99982 -0.000731801 5.63406e-21)
(9.99755 -0.00936979 1.40808e-21)
(9.97892 -0.0741011 -7.03763e-21)
(9.80909 -0.655611 -1.14856e-17)
(9.72058 -0.610163 1.15786e-17)
(9.7412 0.515914 5.56246e-18)
(9.85149 0.55444 -1.10801e-17)
(9.98439 0.0591574 1.10965e-17)
(9.99829 0.00713761 -5.54561e-18)
(9.99988 0.000531216 -5.559e-18)
(9.99999 4.50163e-05 5.55416e-18)
(10 2.96737e-06 2.77466e-18)
(10 1.79044e-07 -2.78512e-18)
(10 1.01041e-08 1.38489e-18)
(10 5.5915e-10 -2.77617e-18)
(10 2.79266e-11 2.08555e-18)
(10 1.11493e-12 -8.71198e-19)
(10 -8.14781e-14 1.73988e-19)
(10 -1.17281e-12 -5.44013e-21)
(10 -3.18393e-11 2.78627e-18)
(10 -6.36925e-10 -2.79263e-18)
(10 -1.14725e-08 5.44551e-21)
(10 -2.02707e-07 5.5821e-18)
(10 -3.35544e-06 6.81094e-21)
(9.99999 -5.06196e-05 -5.57616e-18)
(9.99985 -0.000594578 0)
(9.99793 -0.00793669 5.58859e-18)
(9.98134 -0.066177 -5.58586e-18)
(9.82346 -0.608328 -1.11274e-17)
(9.73062 -0.568038 4.69745e-20)
(9.82757 0.486199 -5.41453e-18)
(9.87069 0.518606 5.37937e-18)
(9.98748 0.051848 2.63549e-21)
(9.99866 0.00596721 -7.90583e-21)
(9.99991 0.00042053 2.63499e-21)
(9.99999 3.49435e-05 5.39847e-18)
(10 2.20553e-06 -2.69497e-18)
(10 1.2827e-07 -2.69202e-18)
(10 6.98682e-09 5.2675e-21)
(10 3.77164e-10 -5.26686e-21)
(10 1.79425e-11 2.63311e-21)
(10 9.0313e-13 -2.63278e-21)
(10 -9.30644e-14 0)
(10 -7.8494e-13 5.4224e-36)
(10 -1.77787e-11 -1.34483e-18)
(10 -3.75413e-10 1.35255e-18)
(10 -6.96949e-09 -2.69947e-18)
(10 -1.27603e-07 -2.6307e-21)
(10 -2.18859e-06 2.69084e-18)
(9.99999 -3.45197e-05 -7.88994e-21)
(9.99991 -0.00041729 -5.3854e-18)
(9.99867 -0.00586307 5.3768e-18)
(9.98739 -0.0508181 0)
(9.87311 -0.501811 -5.37009e-18)
(9.76971 -0.468433 5.4041e-18)
(9.78182 0.447932 0)
(9.87946 0.477803 -5.26212e-18)
(9.98852 0.0468834 5.25231e-18)
(9.99884 0.00517422 2.56674e-21)
(9.99992 0.00035561 2.56638e-21)
(9.99999 2.88634e-05 -5.25742e-18)
(10 1.77096e-06 5.25696e-18)
(10 1.00082e-07 2.62712e-18)
(10 5.30952e-09 3.20607e-22)
(10 2.79555e-10 -2.62601e-18)
(10 1.29135e-11 -2.56407e-21)
(10 4.32956e-13 2.88413e-21)
(10 5.85012e-14 0)
(10 -3.53747e-13 5.12457e-21)
(10 -1.14988e-11 -2.56245e-21)
(10 -2.48711e-10 1.31176e-18)
(10 -4.72687e-09 -1.31123e-18)
(10 -8.95934e-08 -2.5612e-21)
(10 -1.59031e-06 -2.88087e-21)
(10 -2.61749e-05 2.56034e-21)
(9.99994 -0.000322436 -5.24267e-18)
(9.99902 -0.00476723 2.96901e-21)
(9.99042 -0.0429619 5.24108e-18)
(9.89617 -0.451788 0)
(9.83808 -0.423798 5.23994e-18)
(9.83236 0.35837 -1.02052e-17)
(9.91905 0.38267 5.07919e-18)
(9.99274 0.0348332 5.09411e-18)
(9.99929 0.00374891 -5.09462e-18)
(9.99996 0.000245533 0)
(10 1.95089e-05 -3.11088e-22)
(10 1.14827e-06 0)
(10 6.30542e-08 -3.11204e-22)
(10 3.24115e-09 -3.11262e-22)
(10 1.66746e-10 0)
(10 7.43839e-12 0)
(10 9.53457e-14 -3.11434e-22)
(10 2.23738e-13 0)
(10 -2.93801e-13 0)
(10 -8.58333e-12 -1.27632e-18)
(10 -1.85311e-10 1.27655e-18)
(10 -3.59964e-09 -3.11713e-22)
(10 -6.98524e-08 -2.55401e-18)
(10 -1.27217e-06 2.55476e-18)
(10 -2.15107e-05 0)
(9.99995 -0.000269861 5.11065e-18)
(9.99917 -0.00409316 -1.02228e-17)
(9.99148 -0.0384082 1.02229e-17)
(9.9057 -0.414418 -1.84532e-20)
(9.82211 -0.389297 -5.13196e-18)
(9.89714 0.34063 1.21958e-21)
(9.92965 0.361468 -1.21924e-21)
(9.99412 0.0312554 0)
(9.99943 0.0032471 0)
(9.99997 0.000204199 0)
(10 1.60826e-05 1.21832e-21)
(10 9.15461e-07 0)
(10 4.89864e-08 -1.21807e-21)
(10 2.45359e-09 0)
(10 1.24286e-10 -1.21781e-21)
(10 5.54844e-12 0)
(10 -5.14045e-14 -3.11621e-19)
(10 2.76893e-14 3.10347e-19)
(10 3.33107e-14 0)
(10 -5.19592e-12 1.24635e-18)
(10 -1.19199e-10 -2.49243e-18)
(10 -2.36051e-09 1.24486e-18)
(10 -4.70578e-08 0)
(10 -8.78072e-07 2.49158e-18)
(10 -1.53869e-05 -2.49129e-18)
(9.99997 -0.000196341 4.98076e-18)
(9.99946 -0.00310434 -4.98142e-18)
(9.99434 -0.0297451 0)
(9.93358 -0.341816 0)
(9.86287 -0.320903 0)
(9.85572 0.320691 -1.19662e-21)
(9.9312 0.340276 1.19652e-21)
(9.99426 0.0292459 0)
(9.99947 0.00294205 0)
(9.99997 0.000182456 0)
(10 1.41245e-05 -1.19584e-21)
(10 7.88929e-07 0)
(10 4.13472e-08 1.19564e-21)
(10 2.03326e-09 0)
(10 1.00947e-10 -1.22292e-18)
(10 4.22037e-12 1.22341e-18)
(10 1.10585e-13 -1.1947e-21)
(10 5.88698e-14 1.19475e-21)
(10 -4.21035e-14 1.19467e-21)
(10 -3.9528e-12 0)
(10 -9.08252e-11 0)
(10 -1.82894e-09 1.19466e-21)
(10 -3.74128e-08 -2.44643e-18)
(10 -7.15477e-07 2.4462e-18)
(10 -1.29452e-05 0)
(9.99997 -0.000166771 1.1942e-21)
(9.99956 -0.00273686 0)
(9.9953 -0.0270038 0)
(9.94131 -0.324839 0)
(9.90818 -0.306489 0)
(9.88212 0.256426 -4.79747e-18)
(9.95403 0.272667 4.77327e-18)
(9.99634 0.0219102 0)
(9.99967 0.00218288 -2.3374e-21)
(9.99998 0.000130145 0)
(10 9.91952e-06 -2.39428e-18)
(10 5.35516e-07 4.78698e-18)
(10 2.75127e-08 -2.3927e-18)
(10 1.31927e-09 -1.20005e-18)
(10 6.42885e-11 1.1979e-18)
(10 2.77836e-12 5.85005e-22)
(10 1.99253e-13 1.55576e-19)
(10 -1.28648e-13 -1.49742e-19)
(10 -2.47783e-13 1.19247e-18)
(10 -3.02406e-12 -1.19884e-18)
(10 -7.42159e-11 0)
(10 -1.51955e-09 -2.34221e-21)
(10 -3.15647e-08 0)
(10 -6.14666e-07 0)
(10 -1.13054e-05 -2.39952e-18)
(9.99998 -0.000147798 2.40223e-18)
(9.99959 -0.00245112 0)
(9.99543 -0.0250053 4.79747e-18)
(9.94337 -0.302867 -1.574e-20)
(9.87043 -0.285775 -9.61989e-18)
(9.93146 0.24432 4.71497e-18)
(9.96052 0.258369 2.30242e-21)
(9.99704 0.0199717 4.71365e-18)
(9.99973 0.00193119 -2.35415e-18)
(9.99999 0.000111773 -2.35643e-18)
(10 8.50229e-06 0)
(10 4.47139e-07 1.15043e-21)
(10 2.25422e-08 2.35475e-18)
(10 1.0602e-09 -2.35341e-18)
(10 5.13415e-11 0)
(10 2.01221e-12 0)
(10 -4.35763e-14 -3.44858e-21)
(10 1.24054e-13 4.59855e-21)
(10 -8.14102e-14 2.2991e-21)
(10 -1.9045e-12 5.89799e-19)
(10 -4.91153e-11 -5.88602e-19)
(10 -1.01847e-09 1.14952e-21)
(10 -2.16143e-08 2.35402e-18)
(10 -4.27797e-07 -4.70766e-18)
(10 -8.10545e-06 2.35364e-18)
(9.99999 -0.000107291 -2.29828e-21)
(9.99974 -0.00184274 0)
(9.99708 -0.0189102 2.29784e-21)
(9.96203 -0.243228 4.69942e-18)
(9.8961 -0.229013 -9.43262e-18)
(9.89565 0.231125 -4.65285e-18)
(9.96049 0.244329 -4.65146e-18)
(9.99702 0.0189065 4.64693e-18)
(9.99974 0.00178177 2.32413e-18)
(9.99999 0.000102422 -2.32455e-18)
(10 7.68977e-06 0)
(10 3.99473e-07 5.67305e-22)
(10 1.98347e-08 -1.70181e-21)
(10 9.21332e-10 1.16169e-18)
(10 4.38633e-11 -2.32322e-18)
(10 1.59566e-12 1.16153e-18)
(10 -5.10776e-14 2.89669e-19)
(10 2.44567e-13 -2.7157e-19)
(10 6.07132e-14 2.69911e-19)
(10 -1.67289e-12 -2.91422e-19)
(10 -3.92535e-11 0)
(10 -8.24678e-10 1.70077e-21)
(10 -1.78613e-08 -5.66883e-22)
(10 -3.60151e-07 -2.32179e-18)
(10 -7.00995e-06 2.32106e-18)
(9.99999 -9.30176e-05 0)
(9.99979 -0.00164815 0)
(9.99767 -0.017303 -5.66674e-22)
(9.96764 -0.23149 -4.63402e-18)
(9.94014 -0.219132 1.00049e-20)
(9.91219 0.181213 -2.29263e-18)
(9.97445 0.19215 2.28197e-18)
(9.99813 0.0139788 5.57871e-22)
(9.99985 0.00132197 0)
(9.99999 7.34465e-05 2.28618e-18)
(10 5.45062e-06 -2.28367e-18)
(10 2.7526e-07 5.58148e-22)
(10 1.34903e-08 5.58214e-22)
(10 6.14008e-10 2.23312e-21)
(10 2.91019e-11 -2.85874e-19)
(10 1.38307e-12 1.42954e-19)
(10 -1.92932e-13 2.80793e-19)
(10 -3.12393e-13 -1.43482e-19)
(10 1.04978e-13 5.74122e-19)
(10 -1.23626e-12 -5.72052e-19)
(10 -3.41778e-11 0)
(10 -7.27263e-10 1.67642e-21)
(10 -1.5904e-08 -2.28634e-18)
(10 -3.24997e-07 2.28716e-18)
(10 -6.38427e-06 5.58999e-22)
(9.99999 -8.56547e-05 0)
(9.9998 -0.0015197 0)
(9.99756 -0.0164412 5.59182e-22)
(9.96707 -0.218761 -4.5737e-18)
(9.90404 -0.207151 4.59475e-18)
(9.95313 0.172993 2.20856e-21)
(9.97875 0.182461 0)
(9.99854 0.0128887 -1.10329e-21)
(9.99988 0.00118709 -2.25832e-18)
(9.99999 6.45612e-05 2.26039e-18)
(10 4.80564e-06 -2.26137e-18)
(10 2.37748e-07 2.26014e-18)
(10 1.14916e-08 -1.12946e-18)
(10 5.15485e-10 1.12719e-18)
(10 2.39665e-11 -5.64664e-19)
(10 1.0636e-12 5.64632e-19)
(10 1.44876e-13 -2.77769e-19)
(10 8.51981e-14 3.175e-19)
(10 -1.17741e-14 -3.74723e-20)
(10 -1.0077e-12 5.65604e-19)
(10 -2.28382e-11 -1.12784e-18)
(10 -4.88405e-10 -5.66641e-19)
(10 -1.08679e-08 1.1255e-18)