/*--------------------------------*- C++ -*----------------------------------*\
| =========                 |                                                 |
| \\      /  F ield         | OpenFOAM: The Open Source CFD Toolbox           |
|  \\    /   O peration     | Version:  2112                                  |
|   \\  /    A nd           | Website:  www.openfoam.com                      |
|    \\/     M anipulation  |                                                 |
\*---------------------------------------------------------------------------*/
FoamFile
{
    version     2.0;
    format      ascii;
    arch        "LSB;label=32;scalar=64";
    class       volScalarField;
    location    "0.00945";
    object      epsilon;
}
// * * * * * * * * * * * * * * * * * * * * * * * * * * * * * * * * * * * * * //

dimensions      [0 2 -3 0 0 0 0];

internalField   nonuniform List<scalar> 
13875
(
1.16001e+06
2.94624e+07
3.28265e+07
3.28351e+07
3.29162e+07
3.28462e+07
3.29187e+07
3.2912e+07
3.28972e+07
3.29246e+07
3.29273e+07
3.29053e+07
3.28683e+07
3.28438e+07
3.28609e+07
3.29106e+07
3.29486e+07
3.29128e+07
3.28933e+07
3.28609e+07
3.28997e+07
3.28306e+07
3.28047e+07
2.94968e+07
1.17773e+06
1.31389e+06
2.27471e+07
2.53572e+07
2.52367e+07
2.52886e+07
2.52241e+07
2.52505e+07
2.52448e+07
2.52279e+07
2.52301e+07
2.52282e+07
2.5243e+07
2.52084e+07
2.51936e+07
2.52006e+07
2.52502e+07
2.52463e+07
2.52363e+07
2.52251e+07
2.52291e+07
2.52699e+07
2.52197e+07
2.53285e+07
2.27622e+07
1.34192e+06
1.57303e+06
1.97062e+07
2.18311e+07
2.16266e+07
2.1704e+07
2.16315e+07
2.15789e+07
2.15504e+07
2.15286e+07
2.15232e+07
2.15125e+07
2.15354e+07
2.16056e+07
2.16025e+07
2.15973e+07
2.15474e+07
2.15321e+07
2.15302e+07
2.15485e+07
2.16408e+07
2.16834e+07
2.16017e+07
2.17904e+07
1.96903e+07
1.58442e+06
1.8137e+06
1.7385e+07
1.90392e+07
1.88804e+07
1.89705e+07
1.89053e+07
1.88335e+07
1.87996e+07
1.87829e+07
1.87859e+07
1.87723e+07
1.87748e+07
1.88828e+07
1.88806e+07
1.88766e+07
1.87878e+07
1.87944e+07
1.878e+07
1.88065e+07
1.8915e+07
1.89522e+07
1.88579e+07
1.9015e+07
1.73618e+07
1.82052e+06
2.02274e+06
1.54522e+07
1.6773e+07
1.6622e+07
1.6706e+07
1.66515e+07
1.65699e+07
1.6545e+07
1.65373e+07
1.65397e+07
1.65281e+07
1.65222e+07
1.66248e+07
1.66275e+07
1.66198e+07
1.65338e+07
1.65478e+07
1.65305e+07
1.65526e+07
1.66546e+07
1.66902e+07
1.66051e+07
1.67446e+07
1.54263e+07
2.03664e+06
2.20641e+06
1.37118e+07
1.49288e+07
1.47397e+07
1.4833e+07
1.47734e+07
1.4677e+07
1.4661e+07
1.46584e+07
1.46588e+07
1.4649e+07
1.46367e+07
1.47356e+07
1.47425e+07
1.4732e+07
1.46468e+07
1.46679e+07
1.46473e+07
1.46668e+07
1.47749e+07
1.48193e+07
1.47293e+07
1.49038e+07
1.38467e+07
2.2235e+06
2.4225e+06
1.22507e+07
1.34783e+07
1.32083e+07
1.32709e+07
1.32008e+07
1.30876e+07
1.3074e+07
1.30739e+07
1.3072e+07
1.30641e+07
1.30464e+07
1.31423e+07
1.31518e+07
1.31381e+07
1.30552e+07
1.30838e+07
1.3061e+07
1.30855e+07
1.32005e+07
1.32569e+07
1.32015e+07
1.34216e+07
1.19516e+07
2.43019e+06
2.6659e+06
1.06151e+07
1.2313e+07
1.1976e+07
1.20004e+07
1.18882e+07
1.17514e+07
1.17335e+07
1.17332e+07
1.1727e+07
1.17225e+07
1.16974e+07
1.17913e+07
1.18043e+07
1.17881e+07
1.17051e+07
1.1743e+07
1.17201e+07
1.17515e+07
1.18844e+07
1.19812e+07
1.19656e+07
1.22643e+07
1.05448e+07
2.69538e+06
3.49621e+06
1.02118e+07
1.14822e+07
1.10295e+07
1.09401e+07
1.07875e+07
1.06227e+07
1.05993e+07
1.05998e+07
1.05885e+07
1.05881e+07
1.05561e+07
1.06477e+07
1.06645e+07
1.06472e+07
1.05657e+07
1.06087e+07
1.05858e+07
1.06251e+07
1.07805e+07
1.09224e+07
1.10214e+07
1.14743e+07
1.03386e+07
3.57446e+06
6.83501e+06
1.22193e+07
1.11961e+07
1.04276e+07
1.01667e+07
9.9269e+06
9.74867e+06
9.71926e+06
9.71345e+06
9.69777e+06
9.69885e+06
9.66455e+06
9.74951e+06
9.7694e+06
9.75257e+06
9.68249e+06
9.71935e+06
9.70769e+06
9.74541e+06
9.9155e+06
1.01433e+07
1.036e+07
1.11611e+07
1.21302e+07
6.89327e+06
1.49116e+07
1.86762e+07
1.20466e+07
1.03225e+07
9.61733e+06
9.31488e+06
9.12239e+06
9.06771e+06
9.04625e+06
9.0242e+06
9.02481e+06
8.99086e+06
9.06547e+06
9.08797e+06
9.07727e+06
9.02745e+06
9.05553e+06
9.06113e+06
9.12401e+06
9.28533e+06
9.60888e+06
1.02676e+07
1.18773e+07
1.79389e+07
1.4999e+07
2.54601e+07
6.87264e+07
1.81475e+07
1.07007e+07
9.70565e+06
9.00782e+06
8.70766e+06
8.61183e+06
8.56372e+06
8.53435e+06
8.5307e+06
8.50106e+06
8.55925e+06
8.5835e+06
8.58295e+06
8.55538e+06
8.57985e+06
8.61e+06
8.70289e+06
9.01803e+06
9.65529e+06
1.05531e+07
1.75759e+07
6.72507e+07
2.50322e+07
2.65717e+07
7.58828e+07
8.67938e+07
2.40583e+07
1.09329e+07
9.10573e+06
8.73756e+06
8.46498e+06
8.34849e+06
8.29168e+06
8.27283e+06
8.24353e+06
8.28256e+06
8.3066e+06
8.32039e+06
8.3244e+06
8.3792e+06
8.49135e+06
8.76257e+06
9.15281e+06
1.12973e+07
2.26167e+07
8.08134e+07
7.64746e+07
2.60815e+07
2.63352e+07
5.50663e+07
7.97115e+07
1.0479e+08
5.77485e+07
1.31692e+07
9.67148e+06
8.83434e+06
8.58784e+06
8.55627e+06
8.54125e+06
8.51663e+06
8.54661e+06
8.56751e+06
8.58931e+06
8.61182e+06
8.65239e+06
8.88628e+06
9.95191e+06
1.45098e+07
6.57412e+07
9.10649e+07
7.52754e+07
5.44696e+07
2.57558e+07
2.53146e+07
4.24733e+07
5.80573e+07
7.26669e+07
7.49244e+07
7.54169e+07
2.40093e+07
1.31386e+07
1.11256e+07
1.03976e+07
1.01023e+07
9.99e+06
9.98741e+06
1.00173e+07
1.01014e+07
1.03378e+07
1.10271e+07
1.31818e+07
2.62817e+07
7.7544e+07
7.50252e+07
6.60582e+07
5.65689e+07
4.22144e+07
2.64162e+07
2.46916e+07
3.34693e+07
4.33483e+07
5.4416e+07
5.91426e+07
6.79069e+07
5.12732e+07
4.54041e+07
4.16417e+07
3.26637e+07
3.45218e+07
3.56052e+07
3.63675e+07
3.60764e+07
3.49359e+07
3.29692e+07
4.02637e+07
4.90859e+07
5.20335e+07
6.86324e+07
5.81914e+07
5.05217e+07
4.26034e+07
3.34014e+07
2.57971e+07
2.00369e+07
2.52135e+07
3.22612e+07
4.20001e+07
4.94113e+07
6.18676e+07
7.05791e+07
7.05616e+07
5.7532e+07
4.96764e+07
5.21702e+07
5.4854e+07
5.64403e+07
5.58023e+07
5.29291e+07
5.31015e+07
5.78503e+07
7.04908e+07
7.06417e+07
6.13185e+07
4.71459e+07
3.9062e+07
3.08999e+07
2.4508e+07
1.99398e+07
1.48174e+07
1.90947e+07
2.64576e+07
3.73695e+07
4.53628e+07
5.29758e+07
6.36365e+07
6.86812e+07
5.14418e+07
3.84023e+07
3.52842e+07
3.5552e+07
3.62143e+07
3.58836e+07
3.58102e+07
4.14595e+07
5.17314e+07
6.46519e+07
6.26519e+07
5.40598e+07
4.52275e+07
3.60257e+07
2.53756e+07
1.85584e+07
1.45191e+07
1.22194e+07
1.67015e+07
2.40015e+07
3.73281e+07
4.7796e+07
4.61869e+07
4.92397e+07
5.4806e+07
4.54507e+07
3.4208e+07
2.87768e+07
2.71925e+07
2.7044e+07
2.75038e+07
2.95015e+07
3.55109e+07
4.39439e+07
5.12005e+07
4.87613e+07
4.79387e+07
5.05203e+07
3.69669e+07
2.35921e+07
1.64474e+07
1.20618e+07
1.1638e+07
1.82579e+07
2.49612e+07
3.6958e+07
4.34458e+07
3.91662e+07
3.87023e+07
4.23461e+07
3.88008e+07
3.13119e+07
2.55398e+07
2.23823e+07
2.14043e+07
2.29055e+07
2.66297e+07
3.21132e+07
3.70001e+07
3.96815e+07
3.85676e+07
4.07806e+07
4.51523e+07
3.62457e+07
2.47803e+07
1.83424e+07
1.17177e+07
3.01164e+07
6.01017e+07
4.52432e+07
3.22268e+07
3.45727e+07
3.15593e+07
3.09643e+07
3.38879e+07
3.28533e+07
2.76864e+07
2.21788e+07
1.8441e+07
1.72366e+07
1.92253e+07
2.35169e+07
2.83289e+07
3.1216e+07
3.19405e+07
3.10095e+07
3.28487e+07
3.57585e+07
3.30612e+07
5.0124e+07
6.553e+07
3.86785e+07
9.3188e+07
3.01016e+08
6.17072e+07
2.61208e+07
2.73573e+07
2.56494e+07
2.53529e+07
2.77932e+07
2.76926e+07
2.39076e+07
1.89841e+07
1.5246e+07
1.40111e+07
1.60376e+07
2.02135e+07
2.43283e+07
2.62099e+07
2.63517e+07
2.53744e+07
2.65799e+07
2.81295e+07
2.7014e+07
6.78357e+07
2.95026e+08
1.08183e+08
1.10634e+08
2.33689e+08
5.10544e+07
2.17419e+07
2.21576e+07
2.11945e+07
2.10157e+07
2.30893e+07
2.32739e+07
2.03347e+07
1.60447e+07
1.26534e+07
1.14798e+07
1.3269e+07
1.70108e+07
2.05782e+07
2.19342e+07
2.19462e+07
2.09881e+07
2.17585e+07
2.26297e+07
2.24393e+07
5.18127e+07
2.24953e+08
1.08021e+08
9.44236e+07
2.35749e+08
3.99884e+07
1.8608e+07
1.82288e+07
1.76154e+07
1.75404e+07
1.92285e+07
1.95193e+07
1.71215e+07
1.34068e+07
1.0484e+07
9.50718e+06
1.10599e+07
1.43175e+07
1.73906e+07
1.84064e+07
1.83021e+07
1.75586e+07
1.80578e+07
1.866e+07
1.92886e+07
4.13813e+07
2.42095e+08
9.42811e+07
8.64381e+07
2.2525e+08
3.33525e+07
1.62437e+07
1.53896e+07
1.48397e+07
1.48468e+07
1.6154e+07
1.64378e+07
1.44494e+07
1.12868e+07
8.79018e+06
7.96827e+06
9.28625e+06
1.20977e+07
1.4721e+07
1.5525e+07
1.53782e+07
1.48312e+07
1.51846e+07
1.58109e+07
1.68797e+07
3.51603e+07
2.39567e+08
8.75462e+07
7.98752e+07
2.19194e+08
2.87475e+07
1.42125e+07
1.32251e+07
1.26364e+07
1.27175e+07
1.36871e+07
1.39014e+07
1.2249e+07
9.58474e+06
7.45046e+06
6.74975e+06
7.85482e+06
1.02447e+07
1.24641e+07
1.31371e+07
1.30014e+07
1.26077e+07
1.28377e+07
1.3575e+07
1.46925e+07
3.01444e+07
2.30366e+08
8.20238e+07
7.64001e+07
1.92919e+08
2.43139e+07
1.24701e+07
1.15371e+07
1.0887e+07
1.09804e+07
1.1668e+07
1.17681e+07
1.0356e+07
8.1429e+06
6.36494e+06
5.78033e+06
6.73123e+06
8.76643e+06
1.06297e+07
1.12264e+07
1.11234e+07
1.08472e+07
1.10345e+07
1.18802e+07
1.29439e+07
2.59966e+07
2.06224e+08
7.85278e+07
7.21502e+07
1.74949e+08
2.13554e+07
1.10935e+07
1.02038e+07
9.51728e+06
9.58142e+06
1.00565e+07
1.00636e+07
8.85571e+06
7.00507e+06
5.49942e+06
4.99748e+06
5.80334e+06
7.52241e+06
9.09374e+06
9.63938e+06
9.58884e+06
9.41716e+06
9.60791e+06
1.04635e+07
1.14635e+07
2.29325e+07
1.90097e+08
7.36912e+07
6.66046e+07
1.64517e+08
1.92775e+07
9.94595e+06
9.10149e+06
8.45266e+06
8.43561e+06
8.73549e+06
8.66603e+06
7.6177e+06
6.07386e+06
4.79702e+06
4.35865e+06
5.04195e+06
6.4797e+06
7.79145e+06
8.31575e+06
8.32504e+06
8.24214e+06
8.45713e+06
9.26772e+06
1.02284e+07
2.01872e+07
1.65994e+08
6.97793e+07
6.16617e+07
1.46371e+08
1.75334e+07
9.00301e+06
8.12903e+06
7.55777e+06
7.49344e+06
7.6271e+06
7.47099e+06
6.55473e+06
5.27059e+06
4.20291e+06
3.83268e+06
4.43067e+06
5.66457e+06
6.77265e+06
7.25138e+06
7.30488e+06
7.30505e+06
7.53836e+06
8.2572e+06
9.24497e+06
1.8481e+07
1.52438e+08
6.54091e+07
5.71938e+07
1.26558e+08
1.61152e+07
8.25898e+06
7.3068e+06
6.80133e+06
6.7133e+06
6.72679e+06
6.51493e+06
5.7056e+06
4.6301e+06
3.72051e+06
3.39587e+06
3.91182e+06
4.95479e+06
5.8848e+06
6.34642e+06
6.45271e+06
6.52727e+06
6.75406e+06
7.37189e+06
8.43205e+06
1.6793e+07
1.31976e+08
6.06115e+07
5.33346e+07
1.13338e+08
1.50327e+07
7.69155e+06
6.60555e+06
6.1421e+06
6.04739e+06
5.98366e+06
5.73263e+06
5.01751e+06
4.10251e+06
3.31637e+06
3.03182e+06
3.47451e+06
4.37067e+06
5.16839e+06
5.60043e+06
5.74578e+06
5.8661e+06
6.07606e+06
6.62621e+06
7.80398e+06
1.544e+07
1.15849e+08
5.63562e+07
4.97478e+07
9.70196e+07
1.39205e+07
7.24001e+06
6.01913e+06
5.58138e+06
5.45529e+06
5.34258e+06
5.05266e+06
4.41396e+06
3.64106e+06
2.97135e+06
2.72493e+06
3.11798e+06
3.8938e+06
4.57531e+06
4.982e+06
5.15831e+06
5.29346e+06
5.5059e+06
6.02212e+06
7.31398e+06
1.44864e+07
1.03177e+08
5.2502e+07
4.67305e+07
8.44487e+07
1.29087e+07
6.89613e+06
5.54917e+06
5.09966e+06
4.93345e+06
4.8042e+06
4.49902e+06
3.92996e+06
3.26626e+06
2.68118e+06
2.46454e+06
2.8042e+06
3.48018e+06
4.0716e+06
4.4503e+06
4.65049e+06
4.78775e+06
5.01257e+06
5.52876e+06
6.92347e+06
1.35978e+07
8.92242e+07
4.89684e+07
4.40054e+07
7.49978e+07
1.1898e+07
6.59095e+06
5.21767e+06
4.68214e+06
4.48806e+06
4.33635e+06
4.03115e+06
3.51767e+06
2.94627e+06
2.43488e+06
2.24224e+06
2.5405e+06
3.12747e+06
3.64243e+06
4.0004e+06
4.2077e+06
4.35597e+06
4.60672e+06
5.16917e+06
6.63352e+06
1.25275e+07
7.7864e+07
4.60683e+07
4.12365e+07
6.627e+07
1.09503e+07
6.32287e+06
4.96969e+06
4.3275e+06
4.09525e+06
3.92032e+06
3.62301e+06
3.16323e+06
2.6655e+06
2.21759e+06
2.05047e+06
2.31516e+06
2.83941e+06
3.2921e+06
3.61952e+06
3.82091e+06
3.98606e+06
4.25399e+06
4.91853e+06
6.39846e+06
1.15898e+07
7.02791e+07
4.3394e+07
3.9088e+07
5.98703e+07
1.01604e+07
6.18781e+06
4.79028e+06
4.03768e+06
3.76321e+06
3.56458e+06
3.27542e+06
2.86417e+06
2.42929e+06
2.03388e+06
1.88414e+06
2.11835e+06
2.5787e+06
2.97741e+06
3.28066e+06
3.48197e+06
3.65984e+06
3.95959e+06
4.73044e+06
6.26004e+06
1.06441e+07
6.27018e+07
4.07142e+07
3.6958e+07
5.57566e+07
9.44191e+06
6.03948e+06
4.66288e+06
3.82494e+06
3.47181e+06
3.2554e+06
2.97664e+06
2.61044e+06
2.22749e+06
1.87208e+06
1.7389e+06
1.94561e+06
2.35854e+06
2.71154e+06
2.9857e+06
3.18954e+06
3.37605e+06
3.74556e+06
4.61762e+06
6.11821e+06
9.77509e+06
5.7502e+07
3.85134e+07
3.46288e+07
5.09168e+07
8.66245e+06
5.75183e+06
4.60492e+06
3.66768e+06
3.22689e+06
2.9859e+06
2.71165e+06
2.38092e+06
2.04347e+06
1.72949e+06
1.61207e+06
1.79888e+06
2.16878e+06
2.48199e+06
2.73485e+06
2.93849e+06
3.13939e+06
3.58387e+06
4.5758e+06
5.86786e+06
8.98933e+06
5.38039e+07
3.64024e+07
3.27488e+07
4.74631e+07
7.97406e+06
5.44277e+06
4.60594e+06
3.55915e+06
3.03554e+06
2.75896e+06
2.48816e+06
2.18868e+06
1.88895e+06
1.60482e+06
1.49939e+06
1.66463e+06
1.99968e+06
2.27877e+06
2.51144e+06
2.72328e+06
2.95625e+06
3.4774e+06
4.55728e+06
5.5199e+06
8.26724e+06
4.9775e+07
3.4227e+07
3.12383e+07
4.45715e+07
7.57437e+06
5.14518e+06
4.67699e+06
3.49513e+06
2.89227e+06
2.57402e+06
2.29751e+06
2.01996e+06
1.75087e+06
1.49458e+06
1.39972e+06
1.54718e+06
1.84796e+06
2.10105e+06
2.32229e+06
2.54543e+06
2.82283e+06
3.41489e+06
4.69077e+06
5.20757e+06
7.6613e+06
4.64811e+07
3.24079e+07
2.9801e+07
4.18209e+07
7.04353e+06
4.79125e+06
4.58102e+06
3.4777e+06
2.77866e+06
2.43245e+06
2.1352e+06
1.87108e+06
1.62724e+06
1.39443e+06
1.31009e+06
1.4438e+06
1.72072e+06
1.95036e+06
2.16468e+06
2.40885e+06
2.71602e+06
3.42112e+06
4.68267e+06
4.92297e+06
7.68063e+06
4.35326e+07
3.09559e+07
2.86073e+07
3.94297e+07
6.69442e+06
4.45134e+06
4.35212e+06
3.55446e+06
2.70393e+06
2.32355e+06
2.00611e+06
1.74468e+06
1.5193e+06
1.30642e+06
1.23005e+06
1.35015e+06
1.60194e+06
1.81554e+06
2.03133e+06
2.30394e+06
2.64293e+06
3.48234e+06
4.45532e+06
4.56088e+06
7.17954e+06
4.09233e+07
2.96268e+07
2.7619e+07
3.70962e+07
6.88495e+06
4.16247e+06
4.07545e+06
3.70874e+06
2.68623e+06
2.23256e+06
1.90837e+06
1.64069e+06
1.42623e+06
1.2273e+06
1.15767e+06
1.26621e+06
1.49829e+06
1.70148e+06
1.92792e+06
2.22053e+06
2.63581e+06
3.68954e+06
4.17798e+06
4.23736e+06
6.98439e+06
3.85033e+07
2.85432e+07
2.66435e+07
3.5132e+07
6.48305e+06
3.87457e+06
3.77742e+06
3.70284e+06
2.76457e+06
2.169e+06
1.82631e+06
1.55656e+06
1.34441e+06
1.15709e+06
1.09352e+06
1.19351e+06
1.41315e+06
1.61178e+06
1.84629e+06
2.16453e+06
2.74823e+06
3.73182e+06
3.87843e+06
3.99818e+06
7.11329e+06
3.63114e+07
2.76634e+07
2.57782e+07
3.30916e+07
6.58239e+06
3.6709e+06
3.49631e+06
3.49007e+06
2.99158e+06
2.16289e+06
1.76464e+06
1.49426e+06
1.28132e+06
1.09909e+06
1.0377e+06
1.13144e+06
1.34273e+06
1.54267e+06
1.77959e+06
2.15819e+06
2.96905e+06
3.52664e+06
3.58509e+06
3.74787e+06
6.88881e+06
3.4371e+07
2.6812e+07
2.49534e+07
3.12672e+07
6.73574e+06
3.53571e+06
3.25301e+06
3.26577e+06
3.05809e+06
2.29551e+06
1.72316e+06
1.43901e+06
1.23284e+06
1.0538e+06
988473
1.08231e+06
1.28828e+06
1.48538e+06
1.73244e+06
2.28012e+06
3.06562e+06
3.29653e+06
3.32429e+06
3.56015e+06
6.76e+06
3.25674e+07
2.59521e+07
2.37928e+07
2.93951e+07
6.56198e+06
3.38956e+06
3.04295e+06
3.03204e+06
2.8981e+06
2.51981e+06
1.74605e+06
1.39333e+06
1.19087e+06
1.01801e+06
950971
1.04467e+06
1.24378e+06
1.43949e+06
1.75655e+06
2.5266e+06
2.92374e+06
3.05851e+06
3.10543e+06
3.45286e+06
6.85404e+06
3.05373e+07
2.47455e+07
2.23999e+07
2.73171e+07
6.44261e+06
3.2942e+06
2.86518e+06
2.81027e+06
2.72856e+06
2.63134e+06
1.88932e+06
1.37195e+06
1.15722e+06
987491
923082
1.01224e+06
1.20571e+06
1.41259e+06
1.88609e+06
2.66864e+06
2.75446e+06
2.82664e+06
2.913e+06
3.33649e+06
6.62041e+06
2.84105e+07
2.3273e+07
1.94409e+07
2.42875e+07
6.27537e+06
3.20946e+06
2.71495e+06
2.61998e+06
2.55594e+06
2.51655e+06
2.14226e+06
1.43309e+06
1.13678e+06
961384
897721
984170
1.17867e+06
1.45814e+06
2.14104e+06
2.56803e+06
2.5819e+06
2.63164e+06
2.74686e+06
3.22587e+06
6.33412e+06
2.52736e+07
2.02104e+07
8.7994e+06
5.0719e+06
3.54842e+06
2.4824e+06
1.75126e+06
1.34345e+06
1.10369e+06
937799
792261
643118
492180
362688
265159
199217
156374
129885
113414
102871
95918.9
90641.5
85891.3
81901.4
77713
72925.8
67994.6
63138
59077.9
56877.8
61906.2
115741
9.74738e+06
5.41087e+06
3.74083e+06
2.58676e+06
1.80492e+06
1.37722e+06
1.12901e+06
960581
818563
677455
530927
399941
293971
220351
171547
140152
120692
108116
99265.4
91940.3
86625.7
82265.4
77222.8
72030.1
66992.3
62325.1
58493.8
56592
62110.5
116072
9.96032e+06
5.55932e+06
3.90609e+06
2.68725e+06
1.86647e+06
1.4212e+06
1.16692e+06
993841
850416
711323
567161
434390
323163
241600
186347
150526
126886
111135
99750.1
91611.2
85937.4
80544.5
75391.8
70337.9
65393.8
61001.7
57523.6
56059.4
62084.8
115923
1.04933e+07
5.94919e+06
4.19492e+06
2.85575e+06
1.97204e+06
1.49379e+06
1.22472e+06
1.04313e+06
897071
758293
615589
480795
362777
271651
206986
163622
135041
115487
101530
92240.6
85612
79393.6
74216
69225.3
64388.1
60172.1
56897.2
55699.9
62311.5
116072
1.11661e+07
6.40663e+06
4.54771e+06
3.07615e+06
2.11266e+06
1.59365e+06
1.30279e+06
1.1101e+06
961251
821616
677630
537180
411188
307527
231729
179300
144458
120594
104100
93405.2
85037.7
78541.5
73357.9
68201.8
63519.7
59442.8
56340.7
55413.7
62561.7
116076
1.18873e+07
6.91495e+06
4.93693e+06
3.33224e+06
2.28132e+06
1.71475e+06
1.40131e+06
1.19669e+06
1.04275e+06
898665
751074
605291
469121
353025
263734
200646
157732
128329
108803
95302.6
85339.6
78423.3
72690.4
67492
62982.2
59040.2
56095.7
55423.4
63049.2
116388
1.26723e+07
7.4351e+06
5.35741e+06
3.62838e+06
2.47853e+06
1.85859e+06
1.52004e+06
1.30387e+06
1.13917e+06
989656
837225
684719
537867
407866
304239
228389
175459
139205
114737
97961.6
86375.5
78450.9
72122.9
67043.8
62517.2
58698.1
55913.4
55514.2
63707.9
116839
1.34249e+07
7.98546e+06
5.82116e+06
3.97188e+06
2.71087e+06
2.0284e+06
1.66194e+06
1.42913e+06
1.25247e+06
1.09576e+06
937921
777294
619691
476457
357134
266009
200281
154405
123386
102163
88376.5
78861.3
72050.9
66692.4
62163.1
58390.6
55786.1
55678.3
64411.5
117519
1.4184e+07
8.56295e+06
6.3444e+06
4.36735e+06
2.99133e+06
2.23439e+06
1.8317e+06
1.57627e+06
1.38466e+06
1.21888e+06
1.05486e+06
886456
718988
562009
425135
315627
233488
175048
135388
108677
91556.7
79970.8
72348
66409.6
61828.5
58056.8
55623.6
55801.8
65132.2
118154
1.48904e+07
9.18254e+06
6.91706e+06
4.82304e+06
3.33159e+06
2.48699e+06
2.03617e+06
1.7509e+06
1.53879e+06
1.36046e+06
1.18738e+06
1.01148e+06
835701
665113
509783
379124
277160
202819
151869
118006
96289.4
82076.2
72966
66446
61588.4
57708.3
55444.2
55952.4
65881.2
118403
1.56289e+07
9.81405e+06
7.54246e+06
5.3462e+06
3.73843e+06
2.796e+06
2.28366e+06
1.95923e+06
1.71872e+06
1.52186e+06
1.33368e+06
1.14987e+06
966561
783361
610082
457348
332917
239329
174309
131083
103263
85526.3
74177.9
66803.9
61406.4
57348.7
55207.7
56075
66586.6
119274
1.63944e+07
1.048e+07
8.22698e+06
5.93562e+06
4.21469e+06
3.17047e+06
2.584e+06
2.20733e+06
1.92702e+06
1.70298e+06
1.4959e+06
1.30153e+06
1.10803e+06
912418
723604
550317
402844
287435
205032
149581
113595
90506.8
76300.5
67632.6
61232.7
57101.5
54973
56185.1
67144.7
120323
1.73071e+07
1.11791e+07
8.95533e+06
6.59142e+06
4.76169e+06
3.61839e+06
2.946e+06
2.49689e+06
2.16572e+06
1.90232e+06
1.67724e+06
1.46882e+06
1.26276e+06
1.05347e+06
849998
658559
488912
349686
246376
174935
127903
97653.7
79508.8
68649.8
61371.7
56936.9
54770.1
56230.2
67565.2
121090
1.81689e+07
1.19254e+07
9.71171e+06
7.3072e+06
5.38718e+06
4.14472e+06
3.37213e+06
2.83006e+06
2.43473e+06
2.12998e+06
1.88092e+06
1.65313e+06
1.43084e+06
1.20791e+06
990476
782492
591924
428404
300308
208415
146971
107575
83999.4
70242.1
61885
56976
54667.2
56085.8
67975.8
121687
1.89673e+07
1.26845e+07
1.04815e+07
8.07874e+06
6.10516e+06
4.76032e+06
3.86742e+06
3.21562e+06
2.74528e+06
2.39353e+06
2.11006e+06
1.8565e+06
1.61416e+06
1.37716e+06
1.14597e+06
922640
711680
523098
367323
251363
172125
120862
90358.8
72840.7
62857.4
57188.1
54669
56391.9
68709
122941
1.966e+07
1.34107e+07
1.12672e+07
8.91011e+06
6.9192e+06
5.46859e+06
4.44093e+06
3.6685e+06
3.11453e+06
2.70223e+06
2.37198e+06
2.08398e+06
1.81757e+06
1.56489e+06
1.31938e+06
1.07995e+06
848555
635306
451531
307202
205593
139002
99388.8
76903.4
64375.2
57640.2
54783.2
56829.1
69544.9
124778
2.04186e+07
1.40496e+07
1.20554e+07
9.77876e+06
7.82296e+06
6.27398e+06
5.10818e+06
4.20758e+06
3.55487e+06
3.06651e+06
2.67515e+06
2.34189e+06
2.04434e+06
1.77153e+06
1.50908e+06
1.25342e+06
1.00283e+06
765181
553992
379110
250645
164312
112439
82598.7
66526.8
58341.2
55063.9
57343.4
70528.2
126949
2.11413e+07
1.46302e+07
1.28458e+07
1.06791e+07
8.80232e+06
7.1887e+06
5.88753e+06
4.85388e+06
4.08672e+06
3.50182e+06
3.03006e+06
2.63722e+06
2.29913e+06
1.9992e+06
1.71574e+06
1.44259e+06
1.17348e+06
912672
676341
470654
310266
198864
130424
90772.7
69842.5
59527.3
55560.7
57797.8
71479.6
129090
2.16886e+07
1.50493e+07
1.35465e+07
1.1597e+07
9.84084e+06
8.22627e+06
6.79832e+06
5.63452e+06
4.73813e+06
4.03246e+06
3.45486e+06
2.98294e+06
2.59167e+06
2.2535e+06
1.94248e+06
1.64819e+06
1.36166e+06
1.08012e+06
818185
582483
387009
245103
155074
102466
74585.9
61335.9
56418.1
58441.7
72411.3
131125
2.20109e+07
1.54735e+07
1.41092e+07
1.24944e+07
1.09292e+07
9.39919e+06
7.87825e+06
6.58852e+06
5.5352e+06
4.6778e+06
3.97065e+06
3.39641e+06
2.93468e+06
2.54364e+06
2.19433e+06
1.87239e+06
1.56537e+06
1.2652e+06
976015
712276
482387
305353
188002
118259
81254.1
63882
57481.9
59160.5
73454.1
133460
2.24056e+07
1.56533e+07
1.44578e+07
1.3301e+07
1.20825e+07
1.07357e+07
9.1813e+06
7.74574e+06
6.50623e+06
5.46751e+06
4.60446e+06
3.90435e+06
3.34483e+06
2.88179e+06
2.4799e+06
2.12144e+06
1.78645e+06
1.4646e+06
1.14839e+06
858134
596396
381603
231094
139427
90244.7
67322.5
58761
59658.9
74165.6
135667
2.25497e+07
1.58515e+07
1.46107e+07
1.39917e+07
1.33298e+07
1.22726e+07
1.07552e+07
9.15501e+06
7.69958e+06
6.44589e+06
5.39393e+06
4.53601e+06
3.84429e+06
3.28472e+06
2.81215e+06
2.40212e+06
2.02798e+06
1.67771e+06
1.33461e+06
1.01692e+06
725056
473339
285693
167078
101955
71327.3
59863.4
59786.7
74372.9
137581
2.28458e+07
1.5763e+07
1.45989e+07
1.45758e+07
1.46964e+07
1.40779e+07
1.26508e+07
1.08742e+07
9.17342e+06
7.66619e+06
6.38335e+06
5.31882e+06
4.45885e+06
3.772e+06
3.20305e+06
2.71967e+06
2.29281e+06
1.90634e+06
1.53478e+06
1.18686e+06
863219
577443
352989
202851
117339
76306.2
60949.9
59654.4
73897.4
139345
2.23287e+07
1.62017e+07
1.4979e+07
1.54743e+07
1.64031e+07
1.62816e+07
1.49571e+07
1.29943e+07
1.10128e+07
9.19413e+06
7.61267e+06
6.28934e+06
5.21386e+06
4.36203e+06
3.66287e+06
3.08002e+06
2.58543e+06
2.15312e+06
1.74868e+06
1.36913e+06
1.01553e+06
699862
437324
250275
138742
83819.7
62958.7
59922.7
73367.1
140813
2.06967e+07
2.08176e+07
1.78638e+07
1.76375e+07
1.88448e+07
1.90843e+07
1.78007e+07
1.56237e+07
1.33073e+07
1.11006e+07
9.13918e+06
7.48657e+06
6.14034e+06
5.07212e+06
4.20575e+06
3.49531e+06
2.91293e+06
2.4185e+06
1.9748e+06
1.5659e+06
1.1857e+06
841430
540225
312582
168752
94926.5
66354.4
60737.6
73415.1
142256
114275
61136.1
56411.3
58877.9
63099
68031.6
72971.2
77325.7
81197.6
84834.2
89054.9
94238.9
101460
112207
128759
155255
197662
265429
365700
498205
652887
804678
953945
1.12296e+06
1.36425e+06
1.79395e+06
2.55891e+06
3.66217e+06
5.20182e+06
8.99216e+06
114633
61611.8
56307
58360.5
62259.4
67197.2
72448.8
77378.8
81721.7
86321.1
91278.6
97099.1
105717
118582
138136
169232
217825
292132
398845
530911
675528
818658
963235
1.13965e+06
1.40563e+06
1.8459e+06
2.66036e+06
3.85417e+06
5.5363e+06
9.95198e+06
114902
61956.2
55914.5
57492.6
61005.8
65685.4
70657.8
75701.2
80504.4
85668.6
92014.8
99596.3
109598
124638
147582
183709
238481
319183
428709
560294
702328
843336
987477
1.16734e+06
1.44282e+06
1.90948e+06
2.75913e+06
4.01744e+06
5.68156e+06
1.01612e+07
115217
62286.3
55798.2
57047.9
60273.2
64704.9
69554.9
74534
79934.9
85771.1
92888.1
102333
115222
133919
161514
203527
266781
356312
471202
603307
744270
883685
1.02987e+06
1.21454e+06
1.50601e+06
2.02076e+06
2.92998e+06
4.30625e+06
6.06869e+06
1.06875e+07
115371
62617.1
55605.8
56539.1
59745.9
63908.9
68677.5
73533.7
79073.3
85654
93465.3
104775
120462
143214
176585
227050
300591
401763
525103
660961
802172
942973
1.09461e+06
1.28662e+06
1.59455e+06
2.15133e+06
3.1542e+06
4.66294e+06
6.52679e+06
1.13582e+07
115766
63152.9
55588.6
56282.4
59338.6
63458.3
68104.5
73037.4
78731.2
86102
95272.1
108753
128074
156080
197027
257548
343925
457164
590204
731047
874795
1.01737e+06
1.17755e+06
1.3849e+06
1.70658e+06
2.30344e+06
3.40935e+06
5.05739e+06
7.03492e+06
1.20841e+07
116268
63742.2
55631.7
56126.8
59070.8
63115.4
67524.5
72681.3
78769.2
87007.2
98097.3
114339
138203
172905
223335
295728
396011
522468
665784
814329
963935
1.11343e+06
1.27668e+06
1.49663e+06
1.84711e+06
2.49147e+06
3.71092e+06
5.48043e+06
7.55628e+06
1.28692e+07
116998
64410.4
55801.5
56170.4
58906.7
62800.8
67275
72654.7
79401.4
88840.3
102458
122558
152511
196248
258921
345772
460693
600476
755155
912296
1.06774e+06
1.22443e+06
1.40204e+06
1.63947e+06
2.01636e+06
2.71939e+06
4.04474e+06
5.94966e+06
8.11201e+06
1.36306e+07
117680
64874.4
56066.7
56003.6
58610.3
62442.2
67112.5
73010.9
80491.5
91628.7
108377
133755
171890
227544
305903
410854
543303
696552
860113
1.02657e+06
1.18942e+06
1.35483e+06
1.54745e+06
1.80687e+06
2.22163e+06
3.00184e+06
4.43785e+06
6.47754e+06
8.69249e+06
1.43971e+07
118089
65655.8
56190.4
55815.4
58285.4
62198.1
67173.8
73638
82455.2
96008.5
117037
149277
197960
268818
366336
492402
644048
811322
982981
1.15806e+06
1.33101e+06
1.50884e+06
1.72101e+06
2.00968e+06
2.47423e+06
3.34434e+06
4.89424e+06
7.06167e+06
9.31832e+06
1.51091e+07
118412
66257.4
56270.3
55478.2
57925.1
61983.3
67419.7
74732.1
85602.2
102749
129407
170450
232541
321967
441421
589887
760500
941673
1.12196e+06
1.30462e+06
1.49136e+06
1.68843e+06
1.92838e+06
2.25488e+06
2.78197e+06
3.75375e+06
5.41639e+06
7.69412e+06
9.96018e+06
1.58731e+07
118997
66572.9
56199.9
55277.8
57468.5
61861
67907.9
76665.8
90311.5
112244
146812
199650
278440
389368
532161
701831
889186
1.08378e+06
1.27446e+06
1.46658e+06
1.66896e+06
1.89306e+06
2.1741e+06
2.551e+06
3.15357e+06
4.23097e+06
6.00411e+06
8.3785e+06
1.06368e+07
1.666e+07
119656
67138.1
56193.1
55151.2
57276
61884.6
68942.4
79680.8
97229.4
125855
170931
239344
338731
473622
639659
828481
1.03029e+06
1.2385e+06
1.44326e+06
1.64998e+06
1.87138e+06
2.12575e+06
2.46089e+06
2.90761e+06
3.59591e+06
4.78209e+06
6.66665e+06
9.1183e+06
1.13499e+07
1.75809e+07
120847
67892
56440.9
55054
57342.7
62330.4
70571.6
84065.8
106882
144390
203454
291852
415987
576124
764076
970245
1.1861e+06
1.40825e+06
1.62992e+06
1.85727e+06
2.10405e+06
2.39746e+06
2.79653e+06
3.33011e+06
4.11917e+06
5.41176e+06
7.39075e+06
9.89254e+06
1.21069e+07
1.84595e+07
122279
68720
56817.7
55181.1
57587.9
63194.1
72984.6
90139.1
119802
168923
245798
358487
510758
696665
904967
1.12706e+06
1.35679e+06
1.5935e+06
1.83501e+06
2.08806e+06
2.36997e+06
2.71303e+06
3.18508e+06
3.82504e+06
4.73059e+06
6.12657e+06
8.16775e+06
1.06695e+07
1.28767e+07
1.92787e+07
123939
69579
57223.6
55424.1
58088.8
64660.8
76541.1
98568
136951
201122
300063
441484
623782
835798
1.06454e+06
1.30262e+06
1.54688e+06
1.7981e+06
2.06251e+06
2.34948e+06
2.67591e+06
3.07933e+06
3.63531e+06
4.39985e+06
5.44191e+06
6.94174e+06
9.00675e+06
1.14553e+07
1.36232e+07
1.99949e+07
125678
70401.9
57642.9
55747
58814
66598.5
81966.9
110366
160209
243442
369337
542267
754557
993614
1.24194e+06
1.49573e+06
1.75622e+06
2.02583e+06
2.3194e+06
2.64926e+06
3.03464e+06
3.51091e+06
4.16418e+06
5.06507e+06
6.25374e+06
7.85056e+06
9.88719e+06
1.22497e+07
1.42838e+07
2.07853e+07
127806
71472.2
58244.8
56175.8
59918.9
69482
89163.6
126497
191917
299240
456680
661868
902104
1.16498e+06
1.4328e+06
1.70436e+06
1.98432e+06
2.27985e+06
2.61122e+06
2.99718e+06
3.46228e+06
4.0356e+06
4.79751e+06
5.83865e+06
7.1726e+06
8.83813e+06
1.08004e+07
1.30477e+07
1.48853e+07
2.15474e+07
130437
72931.3
59057.5
56898
61496
73588.8
99080.5
148254
233968
370673
563158
799713
1.06628e+06
1.34887e+06
1.63639e+06
1.92978e+06
2.23573e+06
2.56852e+06
2.94994e+06
3.41148e+06
3.98221e+06
4.67885e+06
5.56583e+06
6.73988e+06
8.2122e+06
9.89034e+06
1.17326e+07
1.37676e+07
1.53215e+07
2.21132e+07
132781
73922.5
59632
57989.4
63651.9
79090.5
112805
177357
288592
459740
686819
951490
1.24359e+06
1.54505e+06
1.85459e+06
2.17594e+06
2.52095e+06
2.90421e+06
3.35489e+06
3.91465e+06
4.61066e+06
5.46e+06
6.50486e+06
7.8103e+06
9.38745e+06
1.09953e+07
1.26474e+07
1.43552e+07
1.57605e+07
2.24786e+07
134374
73916.5
59706.8
58901.7
66304.5
86507.2
130995
215390
357494
566023
825790
1.11551e+06
1.43101e+06
1.75491e+06
2.09276e+06
2.45113e+06
2.85082e+06
3.30403e+06
3.85167e+06
4.5342e+06
5.38121e+06
6.41136e+06
7.64371e+06
9.09464e+06
1.07226e+07
1.21624e+07
1.34718e+07
1.47221e+07
1.59564e+07
2.29146e+07
135852
73749.9
59713.7
59548
69474.1
96174.7
154612
263562
440309
684995
974845
1.29157e+06
1.631e+06
1.98342e+06
2.35986e+06
2.76986e+06
3.24131e+06
3.79189e+06
4.46809e+06
5.30657e+06
6.33654e+06
7.57796e+06
9.03136e+06
1.06525e+07
1.22528e+07
1.34248e+07
1.4187e+07
1.4893e+07
1.6176e+07
2.30946e+07
137339
73773.3
59952
60734.6
73776.6
109077
185213
323037
534692
812025
1.12987e+06
1.4765e+06
1.84436e+06
2.23384e+06
2.66317e+06
3.14467e+06
3.71104e+06
4.39489e+06
5.23326e+06
6.27294e+06
7.53126e+06
9.02324e+06
1.07265e+07
1.25269e+07
1.4057e+07
1.48214e+07
1.4815e+07
1.48978e+07
1.61048e+07
2.34567e+07
138816
73860.4
60442.5
62669
80110.5
126754
225326
396460
644510
951142
1.29589e+06
1.6705e+06
2.0726e+06
2.50959e+06
3.00727e+06
3.58658e+06
4.28287e+06
5.13863e+06
6.18582e+06
7.47471e+06
9.02361e+06
1.08235e+07
1.28133e+07
1.48106e+07
1.62586e+07
1.65646e+07
1.57553e+07
1.52847e+07
1.65599e+07
2.29821e+07
140428
74037.2
61182
65348.3
88925.1
150400
277498
486274
771635
1.10646e+06
1.47749e+06
1.88154e+06
2.32629e+06
2.82246e+06
3.40469e+06
4.11068e+06
4.97755e+06
6.05926e+06
7.37222e+06
8.9764e+06
1.08901e+07
1.30717e+07
1.5401e+07
1.76316e+07
1.90689e+07
1.90639e+07
1.79695e+07
1.81907e+07
2.12676e+07
2.13681e+07
2.72976e+07
2.86056e+07
3.04786e+07
3.28552e+07
3.5687e+07
3.88935e+07
4.24664e+07
4.63106e+07
5.03581e+07
5.45506e+07
5.88394e+07
6.3185e+07
6.75476e+07