/*--------------------------------*- C++ -*----------------------------------*\
| =========                 |                                                 |
| \\      /  F ield         | OpenFOAM: The Open Source CFD Toolbox           |
|  \\    /   O peration     | Version:  2112                                  |
|   \\  /    A nd           | Website:  www.openfoam.com                      |
|    \\/     M anipulation  |                                                 |
\*---------------------------------------------------------------------------*/
FoamFile
{
    version     2.0;
    format      ascii;
    arch        "LSB;label=32;scalar=64";
    class       volVectorField;
    location    "0.00989";
    object      U;
}
// * * * * * * * * * * * * * * * * * * * * * * * * * * * * * * * * * * * * * //

dimensions      [0 1 -1 0 0 0 0];

internalField   nonuniform List<vector> 
13875
(
(2204.17 109.694 1.81271e-18)
(2142.47 5.62626 -9.38736e-19)
(2170.23 -2.16579 -9.41121e-19)
(2167.89 -0.779279 0)
(2170.33 0.0241958 0)
(2169.53 -1.50928 9.3642e-19)
(2169.47 -1.48485 -9.36815e-19)
(2170.19 -0.165784 -4.68286e-19)
(2169.33 0.589499 4.68114e-19)
(2169.05 0.340452 0)
(2169.45 0.158794 -3.88275e-22)
(2169.51 0.938086 -3.8806e-22)
(2169.63 0.919744 0)
(2169.4 -0.0277083 -4.68218e-19)
(2169.45 -0.919179 4.68587e-19)
(2169.6 -1.28925 0)
(2169.87 -0.269949 9.37056e-19)
(2169.23 0.345817 -9.37801e-19)
(2169.14 0.947671 3.87943e-22)
(2169.81 1.18753 -3.85755e-22)
(2170.45 -0.165659 -9.36284e-19)
(2167.85 0.294394 9.3716e-19)
(2171.11 2.47495 -1.87803e-18)
(2143.44 -8.70003 1.91689e-18)
(2210.36 -106.95 1.76406e-18)
(2253.4 91.9332 -1.63244e-18)
(2228.46 -1.1592 1.88335e-18)
(2247.39 0.656995 8.71808e-19)
(2245.48 0.961652 -8.67201e-19)
(2248.44 -0.493218 4.16913e-22)
(2247.65 2.20025 5.20144e-22)
(2245.86 1.76663 4.15744e-22)
(2245.65 0.359274 -4.35782e-19)
(2244.89 -0.370452 4.35924e-19)
(2244.83 -0.487673 2.17598e-19)
(2245.19 -0.305949 -1.63113e-19)
(2245.43 -1.21189 -5.31621e-20)
(2247.74 -1.14441 0)
(2247.86 0.0949318 -4.34974e-19)
(2247.56 1.04385 4.33452e-19)
(2245.59 1.43026 4.36031e-19)
(2245.51 0.50274 -4.35308e-19)
(2245.21 -0.242887 5.18485e-22)
(2245.69 -1.56909 -5.18686e-22)
(2247.84 -1.96898 5.19787e-22)
(2248.39 0.745401 -8.71457e-19)
(2245.59 -0.719089 2.59967e-18)
(2247.26 -1.56559 -1.74255e-18)
(2228.97 3.50219 5.42809e-22)
(2256.84 -96.8979 -1.71206e-18)
(2252.4 78.1214 0)
(2236.34 -18.2422 0)
(2249.49 4.42881 0)
(2250.59 -1.87051 0)
(2253.53 -2.62272 -1.63881e-18)
(2253.35 1.46704 1.64233e-18)
(2253.46 1.93773 1.71928e-18)
(2254.16 0.68515 -2.58074e-18)
(2253.31 0.67076 8.60747e-19)
(2252.71 0.264416 4.30811e-22)
(2253.29 -0.288546 -4.30827e-19)
(2253.09 -2.50799 4.3043e-19)
(2254.12 -2.5442 0)
(2253.99 0.0373781 0)
(2254.04 2.37309 4.08174e-22)
(2253.18 2.00806 0)
(2254.06 0.218133 8.38095e-22)
(2253.13 -0.294177 4.30563e-19)
(2253.09 -2.5121 -4.30672e-19)
(2253.54 -1.75472 0)
(2253.72 2.3546 0)
(2250.91 1.32875 0)
(2250.67 -4.81813 0)
(2238.18 13.6959 0)
(2257.3 -74.4621 0)
(2247.86 51.3581 0)
(2235.04 -28.6698 1.81428e-18)
(2249.28 7.21437 -3.41703e-18)
(2251.55 -4.75305 3.46602e-18)
(2253.3 -3.16937 -1.63484e-18)
(2253.23 1.15294 0)
(2253.91 1.22396 -8.41825e-22)
(2254.4 0.295342 0)
(2253.81 0.775303 0)
(2253.78 -0.166778 0)
(2254.46 -0.392861 0)
(2254.12 -2.26312 -8.44079e-22)
(2254.09 -2.48915 -5.07672e-20)
(2253.97 0.00414672 5.06884e-20)
(2254.01 2.2855 0)
(2254.26 1.80734 0)
(2254.74 0.25302 7.99404e-22)
(2254.18 0.389789 -8.57215e-19)
(2253.82 -1.74324 8.56152e-19)
(2253.42 -1.48845 -1.62407e-18)
(2253.56 2.74777 1.62362e-18)
(2251.98 4.34137 1.74096e-18)
(2249.75 -8.89875 -1.72058e-18)
(2235.76 31.2518 0)
(2251.34 -58.7127 0)
(2244.88 39.2821 1.74899e-18)
(2235.45 -47.8549 0)
(2248.75 10.5055 0)
(2250.32 -7.71507 0)
(2253.52 -4.42355 0)
(2253.35 0.477784 1.67878e-21)
(2253.68 0.804054 1.68568e-21)
(2254.27 0.186668 4.32808e-19)
(2253.74 0.82526 -4.09797e-19)
(2253.73 -0.276337 2.02353e-19)
(2254.42 -0.428714 -2.02492e-19)
(2254.19 -1.84992 0)
(2254.1 -2.34934 0)
(2253.89 -0.0097534 -1.65603e-21)
(2254.06 2.0844 0)
(2254.3 1.3543 -1.68505e-21)
(2254.71 0.260587 8.07222e-19)
(2254.02 0.725429 -8.50786e-19)
(2253.5 -1.22154 1.71552e-18)
(2253.54 -0.83516 -1.69117e-18)
(2253.61 3.75967 1.65338e-21)
(2250.68 6.46816 0)
(2250.03 -11.5631 0)
(2237.2 42.8233 0)
(2250.22 -35.2889 0)
(2241.5 6.75645 0)
(2231.55 -63.5947 9.12439e-19)
(2247.21 12.3205 -8.47545e-19)
(2250.87 -11.2252 0)
(2252.51 -5.1835 8.60137e-19)
(2252.86 -0.267873 -4.37479e-19)
(2253.74 -0.00739898 -3.10493e-21)
(2254.12 -0.059754 -2.15572e-19)
(2253.62 0.831584 -4.28515e-19)
(2253.72 -0.544308 1.62388e-19)
(2254.39 -0.601957 1.6616e-21)
(2254.11 -1.62506 2.67843e-19)
(2253.98 -2.21723 -2.15375e-19)
(2253.76 -0.100564 3.3612e-21)
(2253.89 1.88909 -4.27471e-19)
(2254.22 1.15307 4.33251e-19)
(2254.65 0.313304 1.6364e-21)
(2254.13 1.33494 -1.68368e-21)
(2253.74 -0.3336 -1.6797e-21)
(2252.96 -0.363433 -8.59044e-19)
(2252.77 4.13165 8.4607e-19)
(2251.44 10.69 0)
(2247.38 -15.1983 0)
(2232.43 65.547 -1.93329e-18)
(2246.15 -18.6659 -1.26323e-19)
(2254.03 2.90144 -4.95252e-20)
(2227.5 -79.3333 6.02417e-20)
(2243.07 12.2845 0)
(2248.52 -15.6769 -2.69162e-23)
(2252.18 -7.12559 -2.62486e-23)
(2252.55 -1.56877 0)
(2253.29 -0.589039 0)
(2253.74 -0.0369278 -8.48079e-19)
(2253.31 0.804191 8.37881e-19)
(2253.57 -0.824437 0)
(2254.24 -0.686281 1.71986e-18)
(2254.06 -1.16539 3.94581e-21)
(2253.87 -1.86151 -1.72211e-18)
(2253.62 -0.111859 -1.71184e-21)
(2253.87 1.44561 0)
(2254.19 0.685236 3.44583e-18)
(2254.43 0.358864 1.74522e-21)
(2253.76 1.72079 -6.9057e-18)
(2253.09 0.320219 3.45177e-18)
(2252.83 0.956676 2.64079e-23)
(2252.28 6.10014 0)
(2248.52 12.9711 3.52726e-18)
(2244.19 -12.5348 -3.30823e-18)
(2228.88 73.0828 3.81542e-18)
(2247.28 2.93769 -3.17886e-18)
(2218.37 -22.8396 -3.16857e-19)
(2214.71 -87.4716 -7.49624e-18)
(2235.68 3.54016 8.70626e-22)
(2246.13 -22.5178 2.61132e-23)
(2248.83 -9.33041 -8.10142e-22)
(2251.27 -3.26041 0)
(2252.72 -1.60301 -3.43753e-18)
(2253.32 -0.465598 3.40839e-18)
(2253.08 0.362705 0)
(2253.49 -1.43507 -8.39354e-22)
(2253.95 -0.933767 -8.31529e-22)
(2253.78 -0.943906 0)
(2253.55 -1.66151 0)
(2253.31 -0.124848 -1.65998e-21)
(2253.48 1.2599 -8.38929e-22)
(2253.93 0.528368 2.60061e-23)
(2254.14 0.666315 -8.55985e-22)
(2253.54 2.459 -2.62936e-23)
(2252.91 1.77704 -1.73302e-18)
(2251.4 2.39924 -1.62572e-20)
(2249.25 8.05352 1.68868e-18)
(2246.39 19.3991 8.85505e-22)
(2236.71 -4.81533 3.45902e-18)
(2216.52 81.5445 -3.53785e-18)
(2222.45 18.1539 2.50129e-23)
(2113.27 -37.8563 9.42632e-19)
(2168.61 -98.6061 0)
(2217.13 -20.1618 -8.31535e-22)
(2234.96 -32.3876 -8.65684e-19)
(2245.81 -17.7757 1.71416e-18)
(2248.72 -7.20591 -1.72943e-18)
(2251.12 -3.41635 9.10806e-21)
(2252.09 -0.946011 8.51194e-19)
(2252.22 0.148865 0)
(2252.95 -1.77234 -8.52267e-19)
(2253.34 -0.858992 8.49043e-19)
(2253.26 -0.332185 0)
(2252.98 -1.18291 0)
(2252.72 -0.270106 2.1039e-21)
(2252.96 0.548127 8.34537e-22)
(2253.3 0.0381702 8.42251e-19)
(2253.33 0.87194 -8.44284e-19)
(2252.55 3.27229 0)
(2251.27 3.41363 8.60865e-19)
(2249.49 6.05275 -1.72858e-18)
(2246.23 15.1647 8.44911e-19)
(2236.18 28.8835 -8.40874e-22)
(2219.04 16.6517 0)
(2171.37 93.9704 0)
(2117.2 35.3616 0)
(1873.55 -142.219 -6.57099e-17)
(2125.72 -161.373 8.42483e-17)
(2198.89 -54.8165 0)
(2229.34 -54.3087 -2.99333e-17)
(2239.89 -22.5337 3.09691e-17)
(2246.62 -11.7443 0)
(2249.21 -6.22154 -2.94908e-20)
(2250.7 -2.4539 -1.45268e-17)
(2251.18 -1.43817 1.44425e-17)
(2251.76 -2.74011 -2.91175e-20)
(2252.08 -1.19578 0)
(2252.07 -0.267445 -3.71228e-18)
(2251.8 -0.854781 5.5893e-18)
(2251.53 -0.304269 -1.90158e-18)
(2251.71 0.418027 -2.92755e-20)
(2252.02 0.367287 0)
(2251.9 1.74012 0)
(2250.96 5.02604 -2.94693e-17)
(2249.44 7.59927 2.90825e-17)
(2246.68 10.2742 -3.05966e-17)
(2240.47 20.4815 2.91748e-17)
(2229.4 52.9901 3.22074e-17)
(2199.88 52.4875 -2.92242e-17)
(2128.72 161.828 -8.33891e-17)
(1884.66 138.368 -1.25834e-17)
(1652.95 -215.514 -9.08616e-17)
(2011.36 -307.497 1.37615e-16)
(2159.56 -104.769 0)
(2210.84 -65.3359 6.83796e-17)
(2232.68 -29.8852 -7.12349e-17)
(2241.63 -14.5908 -3.39161e-17)
(2244.85 -6.16624 3.36345e-17)
(2247.43 -2.71608 -3.29493e-17)
(2248.47 -1.79105 3.30159e-17)
(2249.25 -2.34043 3.2131e-20)
(2249.66 -0.508877 0)
(2249.73 0.378839 -2.11742e-18)
(2249.49 -0.282049 2.16779e-18)
(2249.19 -0.462557 3.29641e-20)
(2249.28 -0.441785 3.28596e-20)
(2249.38 -0.413102 3.3074e-20)
(2249.14 0.853717 0)
(2248.03 4.5236 0)
(2245.1 7.63153 -6.77088e-17)
(2242.28 15.4494 6.81871e-17)
(2233.7 26.9674 -7.13495e-17)
(2211.55 59.014 1.47072e-16)
(2166.09 99.4497 -6.99429e-17)
(2016.8 298.59 -3.86822e-20)
(1697.84 206.047 8.75366e-20)
(1281.42 -592.631 -1.08972e-16)
(1742.22 -591.431 1.18881e-16)
(2046 -181.184 2.16976e-16)
(2173.72 -107.225 -9.37403e-17)
(2208.07 -36.0829 0)
(2229.72 -19.2806 7.40413e-17)
(2238.08 -11.7496 -7.49636e-17)
(2241.25 -6.82353 0)
(2242.84 -4.95607 3.55117e-20)
(2243.96 -4.03226 0)
(2244.51 -1.25578 0)
(2244.69 0.0859489 0)
(2244.57 0.0528153 4.67364e-18)
(2244.24 -0.241498 -4.63851e-18)
(2244.21 -0.00501323 -3.72126e-20)
(2243.97 0.814261 -3.55541e-20)
(2243.37 2.80271 0)
(2241.74 7.18343 0)
(2238.06 13.9224 0)
(2228.5 19.0915 -7.89359e-17)
(2211.52 37.2898 1.56926e-16)
(2176.42 102.677 -7.23173e-17)
(2052.66 161.788 -1.33648e-16)
(1750.21 592.112 1.00497e-16)
(1286 543.639 -5.99386e-20)
(1301.75 -610.897 1.60793e-16)
(1112.65 -1085.37 0)
(1699.88 -455.085 0)
(1928.63 -130.553 -1.07992e-16)
(2150.99 -84.1329 1.09045e-16)
(2201.61 -41.4888 0)
(2215.51 -12.8152 1.12568e-20)
(2224.03 -5.78895 4.04485e-17)
(2228.1 -2.76605 -4.08765e-17)
(2230.76 -1.60914 0)
(2231.9 0.362999 -1.00449e-17)
(2232.36 0.829819 1.01263e-17)
(2232.45 0.638878 -5.0865e-18)
(2232.12 -0.103809 5.0906e-18)
(2231.77 -0.70398 3.85836e-20)
(2230.64 -1.09932 -4.05739e-17)
(2228.21 -0.144807 8.05125e-17)
(2223.71 4.25498 1.04478e-18)
(2214.2 13.4739 -4.04014e-17)
(2197.96 45.0764 -9.08542e-17)
(2134.01 72.1951 8.43704e-17)
(1912.42 109.713 8.25476e-20)
(1758.33 455.971 2.60569e-20)
(1103.63 1071.06 1.67451e-16)
(1319.43 612.42 7.17479e-18)
(1358.82 -629.496 0)
(1142.31 -1058.08 0)
(1290.78 -752.716 0)
(1200.17 -810.928 0)
(1954.65 -255.897 0)
(2054.47 -61.7543 1.01369e-16)
(2157.19 -47.3596 -1.03986e-16)
(2175.51 -30.0546 1.15231e-19)
(2185.14 -19.7764 -1.03053e-20)
(2192.04 -10.8339 2.25936e-17)
(2194.38 -4.78139 -2.28522e-17)
(2195.33 -1.35757 -2.25748e-19)
(2195.56 0.346285 -7.07405e-19)
(2195.19 1.32128 8.02729e-19)
(2194.41 3.46099 -2.26685e-17)
(2191.97 8.25799 2.24472e-17)
(2185.28 17.4728 9.91437e-20)
(2174.63 31.6116 0)
(2149.55 51.7324 0)
(2017.24 86.365 0)
(1918.52 324.289 -2.11429e-16)
(1167.8 812.635 -6.18189e-17)
(1296.77 702.309 1.64042e-16)
(1135.43 1023 2.05601e-20)
(1368.84 619.006 2.08613e-20)
(1436.83 -621.037 0)
(1273.27 -925.257 3.94576e-20)
(1320.45 -784.694 0)
(1237.94 -858.371 -1.67335e-16)
(1335.23 -808.331 3.16884e-16)
(1650.17 -548.959 -2.05173e-16)
(1937.8 -115.058 0)
(1960.37 -13.2979 -1.02494e-19)
(2008.7 14.4302 0)
(2045.63 8.52901 0)
(2057.05 5.86836 -1.40782e-17)
(2060.85 2.47806 1.43993e-17)
(2061.8 1.63515 1.4199e-17)
(2061.27 0.998572 -1.42638e-17)
(2058.89 -0.518029 0)
(2050.15 -4.32545 -5.8624e-17)
(2017.76 -10.0861 5.91506e-17)
(1962.64 17.7226 7.11778e-17)
(1937.51 143.278 -5.96607e-17)
(1595.51 587.85 0)
(1308.51 794.893 0)
(1202.94 850.704 -1.72001e-19)
(1331.27 779.166 -1.70884e-16)
(1266.93 918.032 3.66695e-16)
(1425.17 619.067 -1.69424e-16)
(1519.35 -630.989 -1.69285e-16)
(1387.39 -854.705 1.87114e-16)
(1384.65 -759.23 0)
(1282.97 -819.316 -1.89538e-16)
(1308.4 -786.353 -6.21784e-18)
(1308.11 -745.24 2.76979e-16)
(1256.5 -592.472 -2.00256e-16)
(1322.11 -519.912 1.18012e-16)
(1544.62 -269.839 0)
(1565.22 -120.224 0)
(1549.63 -59.1245 -4.08275e-20)
(1546.01 -21.6388 2.73045e-19)
(1542.79 -3.64636 0)
(1544.52 11.7779 0)
(1548.01 41.8947 5.79714e-17)
(1558.31 109.121 -5.51004e-17)
(1573.45 230.466 -1.10548e-16)
(1333.92 526.131 2.24418e-16)
(1246.97 597.586 1.81919e-17)
(1286.32 746.462 -9.0419e-17)
(1301.13 779.426 0)
(1252.78 823.488 0)
(1382.4 761.087 -1.73783e-16)
(1350.93 888.047 2.02894e-16)
(1502.21 641.02 -4.59568e-20)
(1660.28 -609.787 1.5731e-16)
(1562.42 -748.451 -9.70376e-20)
(1528.72 -687.071 9.48315e-17)
(1466.38 -727.826 -8.50716e-17)
(1399.74 -683.949 -4.46319e-20)
(1340.67 -599.556 8.75165e-20)
(1189.84 -447.83 1.1562e-16)
(871.598 -241.456 -1.80311e-16)
(697.151 -124.986 6.39222e-17)
(535.635 -56.7125 0)
(409.763 -20.1668 -3.3735e-17)
(369.567 -6.71899 3.36713e-17)
(352.623 1.01573 0)
(359.838 9.34009 6.3257e-20)
(389.877 17.0896 -3.35952e-17)
(498.227 49.2284 3.38255e-17)
(737.541 121.59 0)
(874.126 252.778 -1.16445e-16)
(1178.24 439.639 1.16658e-16)
(1327.8 595.515 8.9173e-17)
(1389.06 685.264 -1.86196e-16)
(1434.04 744.546 9.96601e-17)
(1520.13 708.931 0)
(1547.54 776.222 1.68781e-16)
(1650.26 625.033 -3.30191e-18)
(1815.31 -551.902 -3.30392e-18)
(1746.04 -604.052 8.00384e-17)
(1689.23 -552.012 -3.63218e-17)
(1542.57 -425.982 -5.7246e-17)
(1421.72 -358.762 7.33469e-17)
(1385.59 -279.988 -5.12843e-17)
(1291.22 -255.027 5.29229e-17)
(949.739 -200.053 -5.85476e-17)
(735.439 -107.347 -4.99667e-19)
(599.083 -58.5811 3.3e-17)
(502.613 -29.9082 1.65084e-17)
(470.296 -15.0878 -1.54992e-19)
(457.51 1.99006 -1.66952e-17)
(464.949 21.9605 -6.04484e-20)
(497.071 30.9165 -7.51411e-20)
(590.233 54.1928 -2.06849e-18)
(793.684 102.378 2.17899e-20)
(972.095 193.73 5.37726e-18)
(1282.77 227.95 -3.54071e-18)
(1365.14 305.298 0)
(1408.95 398.318 1.09181e-17)
(1552.79 479.239 -3.45077e-17)
(1689.47 591.251 4.13676e-17)
(1741.54 634.87 -5.64943e-17)
(1810.23 569.776 5.3083e-17)
(1999.09 -510.019 -8.7137e-20)
(1954.88 -328.758 -1.04625e-19)
(1882.47 -320.898 1.21491e-19)
(1791.31 -219.23 -5.4797e-21)
(1534.92 -71.0888 -1.82822e-19)
(1416.76 -26.7277 -2.00805e-19)
(1375.59 -72.6897 -7.15106e-21)
(1199.03 -93.179 0)
(966.808 -105.185 0)
(819.556 -122.437 6.56576e-17)
(735.822 -102.795 -6.71869e-17)
(696.405 -50.9931 -8.84801e-21)
(680.772 1.76976 8.83147e-21)
(686.615 51.8733 -8.64315e-18)
(719.568 114.325 8.3782e-18)
(807.547 147.077 0)
(985.732 127.557 0)
(1175.3 108.818 -5.65046e-17)
(1341.65 72.6479 5.61093e-17)
(1368.67 17.1742 -1.94142e-19)
(1537.71 76.2065 0)
(1801.6 229.736 0)
(1887.04 324.304 -1.23898e-19)
(1953.3 331.407 -1.07331e-19)
(2000.38 523.685 1.23034e-16)
(1494.61 -179.681 -1.87874e-16)
(1740.63 -125.086 -2.39047e-16)
(1847.35 114.219 1.22296e-16)
(1797.77 142.051 0)
(1649.24 185.403 1.98769e-19)
(1517.62 146.018 1.08138e-16)
(1503.25 34.7113 -2.088e-16)
(1407.58 -21.0199 1.06208e-16)
(1224.47 -57.3282 -1.20979e-16)
(1061.73 -84.2861 1.25268e-16)
(935.928 -74.5782 3.29981e-17)
(862.183 -29.1163 -4.11172e-17)
(839.658 5.99452 -8.32142e-18)
(856.168 40.4576 1.68389e-17)
(930.016 91.5031 0)
(1069.5 109.215 0)
(1246.42 77.7161 1.16569e-16)
(1392.01 37.7488 -2.20876e-16)
(1486.51 -37.9581 1.09333e-16)
(1498.87 -155.514 2.27257e-19)
(1662.95 -195.733 1.53128e-16)
(1790.35 -154.356 -9.78421e-17)
(1830.94 -135.64 -4.9027e-16)
(1738.97 134.972 6.21401e-16)
(1486.42 189.717 -2.49336e-16)
(-47.0456 -74.3752 1.11869e-19)
(483.308 -109.592 -2.55767e-16)
(1395.79 297.61 1.74261e-16)
(1671.51 495.173 0)
(1672.61 417.433 0)
(1610.79 277.589 0)
(1601.61 138.578 0)
(1531.6 64.9833 0)
(1374.66 18.3332 -5.16099e-17)
(1210.11 -21.1472 1.08413e-16)
(1077.47 -26.1898 -8.4685e-17)
(1000.93 -6.91527 3.21732e-17)
(977.582 8.617 -3.62802e-18)
(1000.48 21.0746 1.58267e-20)
(1084.55 44.8032 -5.58411e-17)
(1234.98 41.1072 5.54726e-17)
(1403.99 -1.523 0)
(1527.35 -53.3603 0)
(1599.59 -139.68 -1.73362e-16)
(1603.62 -294.234 1.85814e-16)
(1677.56 -422.846 -1.61948e-19)
(1651.08 -502.14 7.3042e-20)
(1355.71 -269.43 -9.49882e-20)
(413.042 153.154 -1.15875e-19)
(-122.389 94.0538 0)
(-265.248 -39.3675 -2.24205e-16)
(378.859 262.362 2.29009e-16)
(1249.71 633.43 -1.72308e-19)
(1624.61 740.642 1.63803e-16)
(1724.53 573.814 -1.21577e-16)
(1687.05 390.225 0)
(1673.77 234.263 -8.1967e-17)
(1613.35 157.414 7.45987e-17)
(1476.63 95.0488 -4.45233e-17)
(1326.25 38.2863 9.33749e-17)
(1195.43 10.5252 -4.81857e-17)
(1118.96 10.4468 1.8337e-19)
(1099.86 7.26793 0)
(1124.98 3.09615 2.49324e-17)
(1214.07 1.74138 2.31236e-17)
(1359.73 -29.0331 -4.73369e-17)
(1506.57 -90.4781 -8.13655e-17)
(1609.92 -150.085 8.39315e-17)
(1678.35 -238.261 -7.21778e-17)
(1683.78 -414.134 7.96156e-17)
(1727.46 -592.161 7.98073e-20)
(1587.9 -766.295 -7.60368e-20)
(1191.47 -623.803 0)
(318.529 -269.313 1.12891e-19)
(-270.862 20.8751 0)
(236.322 218.386 1.91577e-16)
(837.831 700.588 -1.8881e-16)
(1394.56 861.066 6.19133e-20)
(1669.72 866.091 0)
(1775.43 673.699 0)
(1736.96 508.54 -7.32009e-21)
(1718.97 352.612 0)
(1669.06 249.415 7.3972e-20)
(1554.51 167.885 0)
(1417.74 96.24 4.15852e-17)
(1300.07 51.371 -6.39691e-17)
(1229.35 24.3404 3.2623e-17)
(1208.03 6.14345 -1.10142e-17)
(1234.68 -15.1178 0)
(1316 -41.4896 0)
(1445.89 -90.198 3.88313e-17)
(1576.87 -161.595 -1.09116e-16)
(1662.71 -247.598 7.3049e-17)
(1732.11 -345.431 -6.1097e-17)
(1737.08 -513.881 6.9834e-17)
(1784.44 -678.893 0)
(1662.24 -886.425 0)
(1387.84 -880.819 0)
(872.729 -733.769 -1.17057e-20)
(245.8 -204.864 -2.0158e-16)
(309.473 76.452 -3.57734e-20)
(1077.56 718.966 1.56194e-16)
(1527.95 927.065 -1.20231e-16)
(1734.56 907.092 0)
(1805.97 734.453 0)
(1761.82 594.803 7.5959e-21)
(1756.11 441.783 6.45589e-17)
(1713.84 327.944 -5.69981e-17)
(1614.19 226.315 3.03042e-20)
(1495.44 140.345 3.29322e-20)
(1388.41 76.9269 3.48646e-20)
(1322.71 38.3158 -1.03578e-20)
(1304.88 4.25032 -1.03927e-20)
(1328.18 -30.5001 1.93086e-17)
(1404.3 -71.5334 -1.93341e-17)
(1522.3 -137.343 4.21762e-20)
(1636.5 -222.356 3.8834e-20)
(1707.09 -328.733 0)
(1766.77 -434.061 -5.42161e-17)
(1770.01 -591.048 6.22319e-17)
(1818.66 -739.915 0)
(1735.06 -919.882 -9.91935e-17)
(1523.99 -929.796 1.22295e-16)
(1067.71 -711.52 9.04965e-21)
(322.524 -57.4623 -1.88104e-16)
(479.485 112.576 4.17038e-20)
(1239.57 744.828 0)
(1627.83 925.808 0)
(1779.29 914.599 -4.76015e-17)
(1819.54 776.865 4.5958e-17)
(1780.14 652.602 0)
(1787.95 507.831 5.87698e-17)
(1750.82 388.517 -5.24774e-17)
(1664.29 274.479 3.17806e-17)
(1556.98 179.363 -3.21237e-17)
(1465.07 104.937 1.76914e-17)
(1408.24 47.6321 -1.77978e-17)
(1390.28 2.05546 0)
(1414.6 -46.3854 -1.76242e-17)
(1481.52 -105.187 1.76833e-17)
(1583.48 -183.934 -3.47271e-20)
(1686.05 -273.87 -3.2042e-20)
(1744.66 -397.598 5.16868e-20)
(1794.24 -507.682 4.97434e-17)
(1784.28 -656.507 -5.72996e-17)
(1832.4 -781.134 -4.56476e-20)
(1777.19 -930.912 -4.46374e-20)
(1622.62 -923.941 0)
(1214.25 -732.973 -7.23244e-20)
(463.444 -99.7517 4.21647e-20)
(532.801 144.171 1.59763e-22)
(1321.85 692.796 0)
(1693.87 872.932 9.31149e-23)
(1780.24 909.407 4.04269e-20)
(1823.66 803.6 -8.57184e-23)
(1794.98 699.694 -5.19485e-17)
(1813.97 560.04 4.60534e-17)
(1784.55 439.276 0)
(1708.99 315.363 -5.90356e-20)
(1618.35 213.24 -1.0782e-22)
(1533.9 124.321 -1.13793e-22)
(1481.81 59.2602 6.89681e-20)
(1467.68 0.985033 0)
(1486.7 -57.3875 0)
(1547.48 -124.865 -1.13054e-22)
(1640.55 -216.681 -1.06694e-22)
(1729.96 -314.767 -2.63013e-17)
(1777.62 -445.18 7.51779e-17)
(1817.4 -557.999 -5.32621e-17)
(1799.58 -699.951 0)
(1838.92 -800.798 -4.40033e-17)
(1782.86 -916.101 4.418e-17)
(1697.73 -870.274 9.2823e-23)
(1315.69 -670.206 6.23896e-20)
(524.193 -134.162 1.60283e-22)
(658.063 205.632 3.29648e-18)
(1447.56 676.279 1.25529e-17)
(1742.6 850.468 9.73696e-17)
(1791.16 895.978 -4.11781e-17)
(1837.17 804.749 4.2576e-17)
(1813.09 716.088 -4.76844e-17)
(1841.12 587.772 4.29078e-17)
(1811.62 472.61 -2.51284e-17)
(1745.68 345.092 2.4649e-17)
(1664.31 240.734 1.14825e-22)
(1594.96 146.418 1.20589e-22)
(1551.31 66.1249 -1.23065e-22)
(1536.01 0.735054 7.43998e-18)
(1555.46 -67.1617 7.24799e-18)
(1606.94 -148.34 -1.48457e-17)
(1684.81 -247.348 1.13872e-22)
(1766.63 -342.108 4.88744e-17)
(1807.24 -478.118 -9.50871e-17)
(1844.96 -583.665 4.89244e-17)
(1812.41 -720.67 0)
(1848.39 -802.681 -8.34352e-23)
(1793.88 -900.534 7.90305e-23)
(1739.47 -851.318 -8.42974e-23)
(1440.78 -674.21 -1.21643e-16)
(657.711 -212.33 1.50208e-16)
(714.939 220.118 1.40818e-19)
(1501 635.145 0)
(1762.07 801.164 0)
(1797.06 866.531 3.96104e-20)
(1845.02 792.114 8.05905e-20)
(1831.93 725.664 0)
(1866.23 605.835 4.49098e-17)
(1838.2 493.773 -4.22504e-17)
(1779.17 363.354 4.43601e-20)
(1711.77 257.718 -4.75489e-20)
(1648.37 153.328 -1.37352e-17)
(1609.12 71.6101 1.37647e-17)
(1598.61 -2.96005 3.57085e-18)
(1613.82 -78.2207 -3.47502e-18)
(1660.87 -163.023 1.32411e-17)
(1731.64 -272.13 -3.78177e-17)
(1801.63 -372.183 2.46533e-17)
(1832.48 -508.717 -4.63444e-20)
(1865.06 -612.257 3.9449e-20)
(1830.95 -733.98 -4.05444e-17)
(1852.22 -796.695 8.45702e-19)
(1805.51 -865.519 -2.06957e-18)
(1766.44 -790.048 4.12428e-17)
(1473.98 -603.803 5.68437e-20)
(651.499 -211.849 6.91695e-20)
(713.552 205.075 1.35486e-16)
(1536.21 579.714 -1.09629e-16)
(1791.61 760.806 0)
(1816.68 841.223 -3.82191e-17)
(1860.11 781.784 3.11574e-19)
(1852.05 720.284 3.95029e-17)
(1890.18 613.071 4.16594e-17)
(1859.97 512.149 -3.98846e-17)
(1810.14 383.774 -4.68298e-20)
(1749.47 279.22 -2.4571e-17)
(1699.47 173.513 1.19196e-17)
(1666.53 79.9943 1.26099e-17)
(1653.69 1.00669 -5.38932e-20)
(1668.82 -80.4145 0)
(1707.11 -174.176 0)
(1763.86 -285.963 0)
(1829.84 -378.433 4.6398e-20)
(1857.06 -514.855 9.65379e-21)
(1890.91 -607.265 -4.98043e-20)
(1850.79 -721.178 0)
(1865.86 -780.59 3.81651e-20)
(1820.11 -840.344 9.39984e-21)
(1795.82 -762.06 -4.87353e-20)
(1558.21 -584.644 -1.0692e-16)
(774.732 -239.306 1.36009e-16)
(766.75 233.426 6.58303e-17)
(1563.73 521.997 -9.67969e-17)
(1808.69 680.114 8.24114e-17)
(1828.4 785.822 -4.11324e-17)
(1871.58 752.184 -3.73837e-17)
(1869.61 706.917 3.76893e-17)
(1910.63 614.581 1.92474e-17)
(1880.92 518.924 -1.89666e-17)
(1836.83 389.91 1.0827e-17)
(1788.49 285.966 -2.23377e-17)
(1741.98 173.577 1.73754e-17)
(1712.41 83.5073 -7.40859e-18)
(1704.73 -2.04584 1.4891e-18)
(1715.82 -87.9948 -4.38681e-20)
(1751.63 -179.617 2.28432e-17)
(1803.53 -298.676 -2.28181e-17)
(1859.32 -395.038 3.87164e-20)
(1877.78 -528.225 3.7879e-17)
(1910.24 -615.079 -1.82999e-18)
(1863.08 -712.577 -3.84696e-17)
(1875.8 -756.975 0)
(1836.06 -789.004 4.10178e-17)
(1812.83 -690.852 -3.6671e-17)
(1567.21 -525.9 -1.03629e-16)
(773.535 -247.404 -1.17914e-18)
(888.792 262.472 -6.27327e-17)
(1630.89 479.69 4.84167e-17)
(1835.7 637.622 1.90644e-20)
(1847.26 746.928 -5.38601e-20)
(1891.8 737.197 1.81652e-20)
(1891.96 684.827 3.60768e-17)
(1933.39 595.094 -1.72737e-17)
(1897.89 512.358 -1.83315e-17)
(1862.25 390.335 4.13883e-20)
(1817.54 291.714 -4.4133e-20)
(1782.58 181.803 2.02894e-20)
(1759.33 83.5407 -2.05441e-20)
(1749.68 -3.61892 0)
(1761.79 -93.3298 5.23738e-21)
(1790.02 -191.428 -1.07067e-17)
(1830.13 -308.703 1.07646e-17)
(1883.43 -395.139 -1.92638e-17)
(1898.38 -525.712 9.72075e-19)
(1932.13 -598.183 1.81094e-17)
(1887.67 -689.208 -5.33e-20)
(1889.95 -742.317 -3.66319e-17)
(1854.31 -746.861 3.48637e-17)
(1841.18 -637.408 0)
(1624.04 -481.093 -4.88524e-17)
(853.447 -270.252 6.26813e-17)
(911.274 268.358 0)
(1645.27 433.114 -4.28889e-17)
(1840.32 554.802 4.24688e-17)
(1867.14 671.79 1.77476e-20)
(1902.95 698.102 1.71334e-20)
(1911.44 662.879 -3.45324e-17)
(1946.41 591.249 3.41393e-17)
(1915 515.134 1.82974e-17)
(1885.36 395.296 7.96494e-19)
(1852 297.293 -1.96689e-17)
(1818.48 182.211 -2.14722e-20)
(1796.56 90.1254 2.43119e-20)
(1791.4 -0.871908 0)
(1798.16 -91.9752 4.36749e-20)
(1825 -183.914 -2.13819e-20)
(1862.27 -307.404 9.74854e-18)
(1907.05 -396.762 -9.63482e-18)
(1914.03 -521.518 -1.82664e-20)
(1946.37 -590.789 -1.91297e-20)
(1904.18 -665.283 1.75657e-20)
(1901.94 -706.001 -3.63114e-17)
(1872.53 -684.575 -6.34245e-18)
(1851.97 -570.631 3.37854e-17)
(1664.23 -435.83 0)
(953.489 -281.605 6.02548e-17)
(1019.22 286.795 -1.1417e-16)
(1687.34 397.778 4.50627e-17)
(1856.21 498.377 3.25801e-17)
(1890.86 624.981 -4.06636e-17)
(1920.4 672.03 0)
(1933.52 643.056 -2.0713e-21)
(1966.31 568.383 0)
(1929.95 498.119 -2.1938e-21)
(1907.44 386.802 -2.32581e-21)
(1874.69 296.036 0)
(1851.06 185.997 0)
(1835.36 87.4394 -2.55748e-21)
(1827.71 -2.41188 0)
(1836.63 -95.6263 0)
(1856.44 -192.672 -9.6376e-18)
(1883.35 -310.432 9.61944e-18)
(1928.57 -388.219 -2.30562e-21)
(1933.23 -509.067 -1.7138e-17)
(1965.12 -571.459 1.632e-17)
(1929.77 -644.158 0)
(1916.57 -679.277 3.57795e-17)
(1891.3 -638.595 -7.27579e-17)
(1866.54 -511.751 7.24943e-17)
(1692.29 -388.294 4.2427e-18)
(986.633 -256.344 -5.74312e-17)
(1071.07 273.698 1.3589e-20)
(1705.74 366.971 -1.04999e-20)
(1859.95 435.318 0)
(1908.55 545.148 0)
(1930.39 616.292 0)
(1951.71 611.3 7.69392e-21)
(1976.23 555.691 0)
(1943.1 488.767 -7.8739e-21)
(1927.54 381.561 0)
(1904.63 291.629 -8.49347e-21)
(1880.81 176.654 0)
(1864.43 87.4407 -2.36405e-18)
(1861.64 -3.55615 2.34564e-18)
(1865.76 -95.4918 0)
(1886.16 -183.985 9.18656e-18)
(1911.73 -307.705 -1.80252e-17)
(1948.48 -388.771 8.72653e-18)
(1946.19 -499.793 0)
(1977.44 -560.647 1.59259e-17)
(1943.86 -617.298 -1.59497e-17)
(1930.27 -627.399 3.56253e-17)
(1910.43 -557.688 -3.15623e-17)
(1857.89 -446.652 0)
(1700.26 -354.71 0)
(1032.98 -253.609 0)
(1120.19 265.45 -1.31685e-20)
(1728.71 347.165 1.03067e-20)
(1877.92 378.744 0)
(1928.84 469.58 0)
(1948.52 579.396 0)
(1970.57 593.095 -7.63934e-21)
(1996.9 533.085 0)
(1957.81 468.507 8.20272e-21)
(1948.32 369.517 0)
(1923.92 289.672 -8.80234e-18)
(1908.09 182.791 8.84044e-18)
(1897.25 87.9592 -8.37761e-21)
(1890.91 -0.712874 9.26693e-21)
(1897.55 -93.3417 8.36846e-21)
(1911.17 -184.79 0)
(1928.18 -299.832 0)
(1968.01 -368.576 8.48113e-21)
(1962.99 -478.01 -1.62482e-17)
(1996.52 -536.922 1.50912e-17)
(1967.42 -594.059 0)
(1940.79 -588.487 7.84777e-21)
(1928.18 -483.24 0)
(1875.83 -386.481 0)
(1727.63 -339.012 0)
(1130.06 -264.725 0)
(1143.85 238.03 -5.08282e-17)
(1738.87 315.513 4.19823e-17)
(1887.81 322.861 0)
(1937.53 389.111 -1.67364e-20)
(1957.19 517.082 0)
(1981.6 548.633 -1.45317e-17)
(2004.26 514.169 3.01169e-17)
(1970.4 457.095 -1.58613e-17)
(1964.87 360.82 -8.13658e-18)
(1949.71 281.359 8.34092e-18)
(1932.74 170.266 4.34674e-21)
(1919.88 86.105 1.11798e-18)
(1918.61 -2.63395 -1.07401e-18)
(1920.8 -92.8084 8.52293e-18)
(1937.42 -175.065 -8.5173e-18)
(1953.44 -295.841 0)
(1984.47 -366.307 -1.51682e-20)
(1975.04 -466.023 0)
(2006.03 -521.873 0)
(1978.72 -559.225 -1.62814e-17)
(1952.37 -524.855 1.46713e-17)
(1935.94 -398.364 0)
(1883.67 -324.458 3.66079e-17)
(1734.47 -314.455 2.03689e-18)
(1143.5 -244.244 -1.0413e-16)
(1201.84 222.455 5.0674e-17)
(1765.22 293.313 1.94005e-20)
(1902.03 274.856 3.08801e-17)
(1942.06 321.86 -2.3186e-17)
(1970.2 476.503 -1.76114e-17)
(1996.61 519.077 0)
(2022.94 488.009 7.5242e-21)
(1984.91 430.535 1.51948e-17)
(1984.1 341.023 -1.57861e-17)
(1964.82 270.933 0)
(1954.51 170.664 0)
(1947.52 82.2445 -2.58296e-20)
(1942.41 -3.3627 3.22061e-20)
(1947.9 -93.4079 1.68051e-20)
(1957.47 -176.756 4.08236e-18)
(1966.98 -285.095 -4.03708e-18)
(2002.95 -345.494 8.38368e-21)
(1992.84 -444.601 1.5559e-17)
(2023.28 -495.471 -2.89066e-17)
(1994.28 -523.408 1.40432e-17)
(1965.78 -483.784 -1.48942e-20)
(1940.27 -318.752 0)
(1901.12 -275.865 1.69553e-20)
(1760.35 -296.253 4.08055e-17)
(1190.76 -227.953 -1.00508e-16)
(1203.77 186.279 -4.98496e-17)
(1765.78 260.828 -3.83096e-17)
(1905.5 232.171 3.49896e-17)
(1932.99 250.184 1.45101e-17)
(1977.77 393.887 -1.82209e-17)
(2005.66 459.695 0)
(2028.04 462.219 3.667e-21)
(1996.09 418.231 -1.1088e-20)
(1998.98 335.024 7.58757e-18)
(1987.79 265.006 -1.56178e-17)
(1975.97 160.401 7.8916e-18)
(1965.31 83.3421 1.98683e-18)
(1965.21 -1.44673 -1.86007e-18)
(1965.57 -87.8987 1.84603e-18)
(1979.61 -161.485 -1.97614e-18)
(1988.71 -276.261 0)
(2016.83 -337.588 1.12213e-20)
(2003.17 -424.677 -3.56517e-21)
(2029.1 -474.758 -1.48422e-17)
(2004.26 -474.186 1.36901e-17)
(1974.48 -401.947 0)
(1928.62 -256.643 0)
(1907.28 -233.489 -4.09659e-21)
(1773.65 -267.633 -4.02521e-17)
(1219.33 -200.361 -1.79573e-18)
(1246.93 170.906 -2.34729e-17)
(1782.97 242.194 1.96659e-17)
(1919.75 210.699 4.1075e-21)
(1931.24 183.064 0)
(1987.13 325.006 1.35063e-17)
(2017.9 420.863 -1.61304e-17)
(2039.99 433.161 3.41144e-21)
(2009.74 389.078 3.66813e-21)
(2017.18 312.824 1.39912e-20)
(2000.19 252.1 -1.88972e-18)
(1993.04 159.486 9.55914e-19)
(1988.91 78.4889 1.87639e-18)
(1984.69 -2.54309 -9.63627e-19)
(1988.5 -88.7008 3.82577e-18)
(1995.46 -163.046 -3.81572e-18)
(2000.12 -263.964 0)
(2034.83 -317.366 1.01801e-20)
(2019.96 -401.662 -1.51291e-17)
(2041.46 -441.511 1.32385e-17)
(2016.78 -431.083 3.47481e-21)
(1984.42 -335.978 0)
(1929.52 -177.22 0)
(1925.92 -211.739 4.12473e-21)
(1785.69 -245.912 -3.94937e-17)
(1234.11 -176.19 4.69061e-17)
(1283.23 144.59 2.34671e-20)
(1792.58 209.851 0)
(1931.66 181.762 -7.80919e-21)
(1936.27 129.681 -1.43776e-17)
(1985.42 242.587 1.77664e-17)
(2019.94 351.026 -1.31114e-17)
(2041.28 392.404 1.51826e-17)
(2018.92 367.983 -7.02532e-18)
(2028.81 302.815 7.35886e-18)
(2020.04 243.437 -3.64435e-18)
(2011.54 145.593 3.70021e-18)
(2002.59 75.8152 -1.82773e-18)
(2003.33 -3.22065 2.08796e-18)
(2002.65 -85.13 -2.4728e-19)
(2014.97 -151.264 3.69612e-18)
(2019.78 -257.806 -7.30147e-18)
(2046.1 -308.525 -3.76162e-18)
(2029.03 -378.791 7.00177e-18)
(2045.05 -409.935 1.34816e-20)
(2021.32 -366.363 -7.0041e-21)
(1983.76 -242.463 0)
(1934.56 -135.336 0)
(1935.69 -183.293 0)
(1787.37 -207.115 -1.94054e-17)
(1255.35 -142.308 2.30671e-17)
(1305.59 141.442 -2.78944e-21)
(1801.61 191.281 0)
(1948.36 166.934 9.83597e-21)
(1942.23 86.2889 -7.91821e-21)
(1973.27 168.601 -7.21781e-21)
(2029.89 299.481 0)
(2049.49 352.06 -6.61516e-21)
(2030.26 337.706 6.85861e-18)
(2044.92 280.859 -7.24886e-18)
(2030.26 231.142 0)
(2025.37 147.077 1.70411e-21)
(2022.86 74.1148 0)
(2019.6 -1.25199 0)
(2022.31 -82.4601 1.79738e-18)
(2027.08 -147.866 -1.80033e-18)
(2027.79 -240.803 -7.23674e-21)
(2062.04 -285.039 -1.65512e-21)
(2042.63 -349.279 6.99666e-21)
(2050.15 -362.231 -7.50511e-18)
(2030.79 -320.03 6.37695e-18)