/*--------------------------------*- C++ -*----------------------------------*\
| =========                 |                                                 |
| \\      /  F ield         | OpenFOAM: The Open Source CFD Toolbox           |
|  \\    /   O peration     | Version:  2112                                  |
|   \\  /    A nd           | Website:  www.openfoam.com                      |
|    \\/     M anipulation  |                                                 |
\*---------------------------------------------------------------------------*/
FoamFile
{
    version     2.0;
    format      ascii;
    arch        "LSB;label=32;scalar=64";
    class       volScalarField;
    location    "0.0012";
    object      epsilon;
}
// * * * * * * * * * * * * * * * * * * * * * * * * * * * * * * * * * * * * * //

dimensions      [0 2 -3 0 0 0 0];

internalField   nonuniform List<scalar> 
13875
(
1.15996e+06
2.9472e+07
3.28061e+07
3.28571e+07
3.29638e+07
3.28631e+07
3.28563e+07
3.28858e+07
3.29353e+07
3.29323e+07
3.28993e+07
3.28909e+07
3.28847e+07
3.28781e+07
3.29153e+07
3.29105e+07
3.2882e+07
3.28762e+07
3.29006e+07
3.28665e+07
3.29444e+07
3.28331e+07
3.27974e+07
2.94859e+07
1.17784e+06
1.31367e+06
2.27585e+07
2.53471e+07
2.52564e+07
2.53123e+07
2.52179e+07
2.52023e+07
2.52178e+07
2.52368e+07
2.52496e+07
2.52433e+07
2.52393e+07
2.52146e+07
2.52364e+07
2.52645e+07
2.52451e+07
2.52185e+07
2.52154e+07
2.52351e+07
2.52182e+07
2.52923e+07
2.52218e+07
2.53245e+07
2.2761e+07
1.34199e+06
1.57303e+06
1.97186e+07
2.18271e+07
2.16436e+07
2.17045e+07
2.16306e+07
2.16116e+07
2.1612e+07
2.15504e+07
2.15568e+07
2.15712e+07
2.15693e+07
2.15265e+07
2.15478e+07
2.15774e+07
2.15679e+07
2.16011e+07
2.16161e+07
2.16361e+07
2.16269e+07
2.16859e+07
2.16027e+07
2.17879e+07
1.96956e+07
1.58409e+06
1.81399e+06
1.73957e+07
1.90367e+07
1.88944e+07
1.89695e+07
1.89088e+07
1.88897e+07
1.88888e+07
1.88175e+07
1.88121e+07
1.88323e+07
1.88341e+07
1.8801e+07
1.87983e+07
1.88243e+07
1.88265e+07
1.88777e+07
1.88897e+07
1.89089e+07
1.89045e+07
1.89536e+07
1.88592e+07
1.90125e+07
1.73696e+07
1.82058e+06
2.02366e+06
1.54618e+07
1.67722e+07
1.66329e+07
1.67023e+07
1.66527e+07
1.66358e+07
1.66314e+07
1.65643e+07
1.6555e+07
1.65749e+07
1.65766e+07
1.65531e+07
1.65428e+07
1.65623e+07
1.65698e+07
1.66216e+07
1.66313e+07
1.66499e+07
1.66472e+07
1.66885e+07
1.66056e+07
1.67426e+07
1.54333e+07
2.03683e+06
2.20851e+06
1.3727e+07
1.49315e+07
1.475e+07
1.48276e+07
1.47796e+07
1.47592e+07
1.47473e+07
1.46856e+07
1.46699e+07
1.46869e+07
1.46894e+07
1.46747e+07
1.46568e+07
1.46704e+07
1.46856e+07
1.47383e+07
1.47479e+07
1.47696e+07
1.4773e+07
1.48147e+07
1.47311e+07
1.49034e+07
1.38571e+07
2.22508e+06
2.42616e+06
1.2272e+07
1.34858e+07
1.32211e+07
1.32684e+07
1.32126e+07
1.31835e+07
1.31633e+07
1.31077e+07
1.30838e+07
1.3097e+07
1.31004e+07
1.30935e+07
1.30693e+07
1.30787e+07
1.31017e+07
1.31572e+07
1.31673e+07
1.31921e+07
1.32048e+07
1.32527e+07
1.32045e+07
1.34252e+07
1.19657e+07
2.43468e+06
2.68066e+06
1.06572e+07
1.2338e+07
1.20002e+07
1.20091e+07
1.19254e+07
1.18735e+07
1.18375e+07
1.17853e+07
1.17534e+07
1.17595e+07
1.17621e+07
1.17622e+07
1.17337e+07
1.17378e+07
1.17725e+07
1.18304e+07
1.18459e+07
1.18791e+07
1.19123e+07
1.19866e+07
1.19809e+07
1.22759e+07
1.05625e+07
2.70426e+06
3.52142e+06
1.02602e+07
1.15268e+07
1.10765e+07
1.09778e+07
1.0865e+07
1.07903e+07
1.07388e+07
1.06898e+07
1.06512e+07
1.0647e+07
1.06486e+07
1.06534e+07
1.06225e+07
1.06233e+07
1.06687e+07
1.0729e+07
1.07537e+07
1.07985e+07
1.08512e+07
1.09547e+07
1.10446e+07
1.15002e+07
1.03718e+07
3.6017e+06
6.99046e+06
1.24957e+07
1.1337e+07
1.05066e+07
1.02836e+07
1.00906e+07
9.98507e+06
9.91793e+06
9.87002e+06
9.82752e+06
9.81314e+06
9.81193e+06
9.8181e+06
9.78817e+06
9.78929e+06
9.83801e+06
9.89796e+06
9.93932e+06
9.9981e+06
1.00764e+07
1.02445e+07
1.04254e+07
1.12318e+07
1.23141e+07
6.94904e+06
1.52395e+07
1.88652e+07
1.20223e+07
1.06375e+07
9.92168e+06
9.61344e+06
9.47163e+06
9.38194e+06
9.33154e+06
9.28528e+06
9.26187e+06
9.25703e+06
9.26054e+06
9.23627e+06
9.24276e+06
9.28979e+06
9.34766e+06
9.40857e+06
9.49118e+06
9.60189e+06
9.86561e+06
1.04851e+07
1.20375e+07
1.82301e+07
1.53247e+07
2.51972e+07
6.0268e+07
2.26643e+07
1.18191e+07
1.03489e+07
9.62458e+06
9.31961e+06
9.18887e+06
9.11172e+06
9.05008e+06
9.02027e+06
9.01161e+06
9.00709e+06
8.99196e+06
9.0082e+06
9.05408e+06
9.11196e+06
9.19919e+06
9.3308e+06
9.60429e+06
1.02049e+07
1.12606e+07
2.00132e+07
6.3578e+07
2.53157e+07
2.63939e+07
5.77518e+07
1.04729e+08
5.25845e+07
1.31577e+07
1.04418e+07
9.95483e+06
9.74541e+06
9.64337e+06
9.59951e+06
9.54991e+06
9.56257e+06
9.53467e+06
9.53467e+06
9.54784e+06
9.59974e+06
9.66434e+06
9.77394e+06
9.96421e+06
1.05184e+07
1.30165e+07
3.52838e+07
9.52809e+07
6.27067e+07
2.61555e+07
2.5878e+07
4.40889e+07
8.00757e+07
1.34893e+08
7.12218e+07
1.95088e+07
1.68869e+07
1.46294e+07
1.42587e+07
1.36481e+07
1.40931e+07
1.34314e+07
1.42951e+07
1.36038e+07
1.38026e+07
1.3776e+07
1.41647e+07
1.46736e+07
1.64042e+07
1.98142e+07
7.35857e+07
1.06701e+08
7.93093e+07
4.70134e+07
2.57833e+07
2.49792e+07
3.59832e+07
5.87851e+07
9.04786e+07
8.1362e+07
5.80133e+07
6.32256e+07
5.98249e+07
6.11292e+07
6.06036e+07
6.69784e+07
6.23343e+07
7.19047e+07
6.58589e+07
6.51776e+07
6.22001e+07
5.99652e+07
5.9504e+07
6.44443e+07
5.89581e+07
7.96133e+07
7.79268e+07
6.01486e+07
3.84377e+07
2.69405e+07
2.54049e+07
3.16814e+07
5.11811e+07
7.24618e+07
7.55006e+07
1.00583e+08
8.70051e+07
5.87728e+07
5.31051e+07
5.63627e+07
5.39079e+07
5.69381e+07
5.59541e+07
5.73458e+07
5.50847e+07
5.5577e+07
5.24374e+07
5.61424e+07
7.44191e+07
1.06316e+08
8.01418e+07
6.61754e+07
5.15849e+07
3.32369e+07
2.7583e+07
2.36622e+07
3.00205e+07
4.71618e+07
6.36567e+07
6.67253e+07
9.24803e+07
6.45105e+07
4.03482e+07
3.64673e+07
3.6863e+07
3.59915e+07
3.72051e+07
3.71561e+07
3.74394e+07
3.64278e+07
3.65835e+07
3.58496e+07
3.89214e+07
5.4755e+07
9.66631e+07
7.17133e+07
6.05758e+07
4.92065e+07
3.05778e+07
2.40587e+07
1.95733e+07
3.05488e+07
4.29495e+07
4.87055e+07
5.09048e+07
6.97786e+07
5.10832e+07
3.34683e+07
2.84365e+07
2.73718e+07
2.64127e+07
2.67805e+07
2.67867e+07
2.68969e+07
2.67418e+07
2.7366e+07
2.81769e+07
3.2693e+07
4.75461e+07
6.93599e+07
5.27327e+07
4.70437e+07
4.51188e+07
3.18292e+07
1.96527e+07
1.58736e+07
2.95748e+07
3.64035e+07
3.74999e+07
3.78237e+07
4.82698e+07
4.42255e+07
3.32462e+07
2.59658e+07
2.25542e+07
2.0812e+07
2.04532e+07
2.03851e+07
2.04841e+07
2.07962e+07
2.20449e+07
2.47142e+07
3.15878e+07
4.29749e+07
4.88563e+07
3.84812e+07
3.70533e+07
3.75677e+07
3.10318e+07
1.60073e+07
1.44024e+07
2.67507e+07
2.93064e+07
2.97763e+07
2.98609e+07
3.60637e+07
3.74879e+07
3.19325e+07
2.47757e+07
1.99602e+07
1.73943e+07
1.64822e+07
1.62783e+07
1.64799e+07
1.73284e+07
1.9544e+07
2.39341e+07
3.1229e+07
3.74267e+07
3.65541e+07
3.01973e+07
2.96639e+07
2.98854e+07
2.67031e+07
1.47678e+07
1.51696e+07
2.11608e+07
2.34968e+07
2.42476e+07
2.44286e+07
2.88497e+07
3.15214e+07
2.85125e+07
2.24643e+07
1.75546e+07
1.46951e+07
1.35105e+07
1.32231e+07
1.35407e+07
1.47533e+07
1.74848e+07
2.22317e+07
2.84288e+07
3.18135e+07
2.93194e+07
2.47296e+07
2.43138e+07
2.38061e+07
2.09788e+07
1.57772e+07
1.92705e+07
2.03144e+07
1.9938e+07
2.05462e+07
2.06519e+07
2.40017e+07
2.65336e+07
2.46443e+07
1.97171e+07
1.52622e+07
1.24517e+07
1.11861e+07
1.08535e+07
1.12167e+07
1.25447e+07
1.53197e+07
1.96686e+07
2.46634e+07
2.68497e+07
2.45138e+07
2.09536e+07
2.06377e+07
2.00486e+07
2.0635e+07
1.95597e+07
2.20466e+07
2.2591e+07
1.76068e+07
1.75394e+07
1.76829e+07
2.02525e+07
2.23853e+07
2.10329e+07
1.69595e+07
1.30819e+07
1.0552e+07
9.33988e+06
8.99272e+06
9.34182e+06
1.06022e+07
1.31123e+07
1.68829e+07
2.09971e+07
2.26192e+07
2.06997e+07
1.78927e+07
1.76011e+07
1.75451e+07
2.35736e+07
2.19978e+07
2.14339e+07
2.265e+07
1.55449e+07
1.51698e+07
1.52356e+07
1.70965e+07
1.88434e+07
1.78109e+07
1.42963e+07
1.1016e+07
8.87363e+06
7.82684e+06
7.52221e+06
7.85549e+06
8.98882e+06
1.11764e+07
1.43837e+07
1.78342e+07
1.90791e+07
1.74683e+07
1.5486e+07
1.53139e+07
1.55145e+07
2.32531e+07
2.14387e+07
2.08861e+07
2.17515e+07
1.38068e+07
1.3302e+07
1.32648e+07
1.45753e+07
1.59591e+07
1.50869e+07
1.20956e+07
9.32929e+06
7.51546e+06
6.62179e+06
6.36228e+06
6.66475e+06
7.66001e+06
9.54655e+06
1.22829e+07
1.51719e+07
1.61677e+07
1.48859e+07
1.35027e+07
1.34773e+07
1.38188e+07
2.24418e+07
2.09858e+07
2.02614e+07
2.07824e+07
1.25254e+07
1.18358e+07
1.16717e+07
1.25698e+07
1.35673e+07
1.27543e+07
1.02442e+07
7.94842e+06
6.42248e+06
5.65711e+06
5.42786e+06
5.69733e+06
6.55593e+06
8.16093e+06
1.04295e+07
1.28135e+07
1.37054e+07
1.28141e+07
1.18631e+07
1.199e+07
1.25284e+07
2.1112e+07
2.02045e+07
1.96266e+07
1.99825e+07
1.1504e+07
1.06805e+07
1.03804e+07
1.09416e+07
1.15572e+07
1.07533e+07
8.64763e+06
6.76513e+06
5.51173e+06
4.87225e+06
4.67758e+06
4.91764e+06
5.66396e+06
7.02633e+06
8.92788e+06
1.09198e+07
1.17313e+07
1.11629e+07
1.05333e+07
1.08301e+07
1.15236e+07
2.04426e+07
1.99619e+07
1.94614e+07
1.93422e+07
1.06764e+07
9.67929e+06
9.34617e+06
9.63964e+06
9.93586e+06
9.12288e+06
7.37042e+06
5.82903e+06
4.77943e+06
4.23536e+06
4.06616e+06
4.27578e+06
4.91002e+06
6.06007e+06
7.63067e+06
9.28367e+06
1.00658e+07
9.81136e+06
9.4727e+06
9.80463e+06
1.0674e+07
1.96289e+07
1.97895e+07
1.97117e+07
1.85612e+07
9.9855e+06
8.80048e+06
8.46539e+06
8.57466e+06
8.60518e+06
7.80789e+06
6.33081e+06
5.05665e+06
4.18145e+06
3.71467e+06
3.56132e+06
3.74461e+06
4.27793e+06
5.23524e+06
6.53492e+06
7.91949e+06
8.67874e+06
8.69468e+06
8.56981e+06
8.89293e+06
9.9605e+06
1.86e+07
1.95823e+07
1.93066e+07
1.76312e+07
9.38888e+06
8.03857e+06
7.67874e+06
7.64848e+06
7.46846e+06
6.67048e+06
5.43436e+06
4.39453e+06
3.66885e+06
3.27764e+06
3.14653e+06
3.30804e+06
3.76444e+06
4.57382e+06
5.66118e+06
6.84368e+06
7.57867e+06
7.76711e+06
7.76986e+06
8.10996e+06
9.37444e+06
1.81475e+07
2.00141e+07
1.88373e+07
1.68083e+07
8.95291e+06
7.45444e+06
6.95933e+06
6.8519e+06
6.5528e+06
5.79205e+06
4.73923e+06
3.86736e+06
3.25217e+06
2.91585e+06
2.79716e+06
2.93779e+06
3.32196e+06
4.00325e+06
4.91432e+06
5.92409e+06
6.63832e+06
6.94592e+06
7.03073e+06
7.49317e+06
8.93031e+06
1.76642e+07
1.94235e+07
1.83373e+07
1.61054e+07
8.60575e+06
6.99371e+06
6.35462e+06
6.15808e+06
5.80148e+06
5.07369e+06
4.16709e+06
3.43154e+06
2.90679e+06
2.61428e+06
2.50665e+06
2.62857e+06
2.95244e+06
3.52603e+06
4.29863e+06
5.17559e+06
5.85668e+06
6.22548e+06
6.4069e+06
7.02063e+06
8.623e+06
1.69646e+07
1.87076e+07
1.75007e+07
1.51591e+07
8.33935e+06
6.6336e+06
5.82787e+06
5.53915e+06
5.13898e+06
4.46281e+06
3.68649e+06
3.05712e+06
2.60561e+06
2.3546e+06
2.2595e+06
2.36705e+06
2.64497e+06
3.14099e+06
3.80543e+06
4.57199e+06
5.21797e+06
5.61122e+06
5.88168e+06
6.65742e+06
8.456e+06
1.64888e+07
1.82724e+07
1.72294e+07
1.4381e+07
8.13222e+06
6.37568e+06
5.41512e+06
5.02522e+06
4.59423e+06
3.97174e+06
3.29023e+06
2.75062e+06
2.35837e+06
2.13683e+06
2.04863e+06
2.14359e+06
2.38127e+06
2.80663e+06
3.38342e+06
4.0582e+06
4.6538e+06
5.08972e+06
5.46876e+06
6.4199e+06
8.41398e+06
1.57838e+07
1.76288e+07
1.69743e+07
1.37492e+07
7.749e+06
6.19163e+06
5.10018e+06
4.59764e+06
4.13473e+06
3.56075e+06
2.96597e+06
2.49403e+06
2.1448e+06
1.95019e+06
1.87107e+06
1.95309e+06
2.15669e+06
2.53211e+06
3.03587e+06
3.63201e+06
4.19056e+06
4.65988e+06
5.16885e+06
6.31448e+06
8.17666e+06
1.50311e+07
1.71857e+07
1.639e+07
1.30217e+07
7.27574e+06
6.06393e+06
4.85742e+06
4.24606e+06
3.74022e+06
3.20329e+06
2.67796e+06
2.26415e+06
1.96028e+06
1.78777e+06
1.71616e+06
1.79057e+06
1.97053e+06
2.30235e+06
2.75075e+06
3.2844e+06
3.80386e+06
4.31207e+06
4.94295e+06
6.29383e+06
7.78618e+06
1.4301e+07
1.67151e+07
1.60888e+07
1.23586e+07
6.85717e+06
6.03448e+06
4.71953e+06
3.98284e+06
3.4272e+06
2.91249e+06
2.43956e+06
2.07472e+06
1.80034e+06
1.64946e+06
1.58617e+06
1.65157e+06
1.80617e+06
2.1025e+06
2.50318e+06
2.98587e+06
3.48736e+06
4.04472e+06
4.83163e+06
6.42551e+06
7.29552e+06
1.35297e+07
1.60823e+07
1.58729e+07
1.16947e+07
6.47471e+06
5.9281e+06
4.66969e+06
3.76637e+06
3.18891e+06
2.67502e+06
2.2377e+06
1.908e+06
1.66435e+06
1.5301e+06
1.47298e+06
1.53143e+06
1.66645e+06
1.9302e+06
2.29304e+06
2.74162e+06
3.24171e+06
3.84885e+06
4.84998e+06
6.37761e+06
6.81759e+06
1.27672e+07
1.56481e+07
1.55154e+07
1.10947e+07
5.98498e+06
5.61481e+06
4.7451e+06
3.60675e+06
2.99498e+06
2.47528e+06
2.06447e+06
1.76194e+06
1.54318e+06
1.42563e+06
1.37689e+06
1.42923e+06
1.54893e+06
1.78643e+06
2.1227e+06
2.5559e+06
3.06568e+06
3.73891e+06
5.02153e+06
6.01938e+06
6.38957e+06
1.21781e+07
1.53213e+07
1.52747e+07
1.06891e+07
5.56561e+06
5.25255e+06
4.77599e+06
3.55958e+06
2.84735e+06
2.34005e+06
1.92873e+06
1.64219e+06
1.44058e+06
1.33646e+06
1.29428e+06
1.34032e+06
1.44559e+06
1.66136e+06
1.97815e+06
2.415e+06
2.92964e+06
3.71845e+06
5.10219e+06
5.60686e+06
5.86543e+06
1.17508e+07
1.49686e+07
1.50873e+07
1.04366e+07
5.24374e+06
4.88402e+06
4.62507e+06
3.60486e+06
2.74492e+06
2.22651e+06
1.8247e+06
1.54272e+06
1.35618e+06
1.26151e+06
1.22578e+06
1.26657e+06
1.36174e+06
1.56082e+06
1.86367e+06
2.30134e+06
2.84166e+06
3.83859e+06
4.97322e+06
5.16578e+06
5.47954e+06
1.14974e+07
1.47086e+07
1.48741e+07
1.02176e+07
4.89651e+06
4.51177e+06
4.34797e+06
3.78717e+06
2.72101e+06
2.1381e+06
1.74123e+06
1.46239e+06
1.28454e+06
1.19918e+06
1.16888e+06
1.2058e+06
1.29288e+06
1.48184e+06
1.78381e+06
2.21487e+06
2.84853e+06
4.06624e+06
4.64816e+06
4.77196e+06
5.27777e+06
1.13956e+07
1.44351e+07
1.46923e+07
1.00404e+07
4.71255e+06
4.18068e+06
4.06245e+06
3.82404e+06
2.8661e+06
2.09291e+06
1.67685e+06
1.4067e+06
1.22908e+06
1.14697e+06
1.12067e+06
1.15506e+06
1.23766e+06
1.42143e+06
1.71441e+06
2.16239e+06
2.97314e+06
4.08155e+06
4.31113e+06
4.41188e+06
5.03126e+06
1.13329e+07
1.4145e+07
1.45448e+07
9.96958e+06
4.6367e+06
3.91355e+06
3.77512e+06
3.59703e+06
3.11287e+06
2.16483e+06
1.63194e+06
1.35964e+06
1.18917e+06
1.10903e+06
1.0874e+06
1.11797e+06
1.19871e+06
1.37643e+06
1.66648e+06
2.19732e+06
3.28191e+06
3.84972e+06
3.99035e+06
4.11931e+06
4.90884e+06
1.12947e+07
1.38595e+07
1.45158e+07
9.9492e+06
4.5175e+06
3.67266e+06
3.50052e+06
3.37948e+06
3.16691e+06
2.40809e+06
1.62493e+06
1.32714e+06
1.16146e+06
1.08587e+06
1.06856e+06
1.09642e+06
1.17359e+06
1.34796e+06
1.65632e+06
2.44141e+06
3.37999e+06
3.61444e+06
3.70655e+06
3.89401e+06
4.94002e+06
1.13047e+07
1.37027e+07
1.45087e+07
1.00541e+07
4.53232e+06
3.48903e+06
3.27296e+06
3.15964e+06
2.99672e+06
2.66899e+06
1.77095e+06
1.31616e+06
1.14411e+06
1.07192e+06
1.0625e+06
1.08528e+06
1.15543e+06
1.33046e+06
1.76381e+06
2.73695e+06
3.20452e+06
3.38306e+06
3.46955e+06
3.69513e+06
4.92013e+06
1.14104e+07
1.36336e+07
1.44427e+07
1.02078e+07
4.63428e+06
3.36107e+06
3.07963e+06
2.95433e+06
2.84123e+06
2.70144e+06
2.10013e+06
1.38651e+06
1.13853e+06
1.06219e+06
1.06326e+06
1.07986e+06
1.14907e+06
1.37901e+06
2.08197e+06
2.83062e+06
3.03516e+06
3.16272e+06
3.26491e+06
3.5453e+06
4.99022e+06
1.15562e+07
1.3527e+07
1.41496e+07
1.03077e+07
4.65459e+06
3.25708e+06
2.90859e+06
2.78449e+06
2.68661e+06
2.5864e+06
2.35381e+06
1.63268e+06
1.17932e+06
1.06962e+06
1.0778e+06
1.08917e+06
1.18464e+06
1.58693e+06
2.36622e+06
2.71775e+06
2.87563e+06
2.98602e+06
3.09456e+06
3.46111e+06
5.1081e+06
1.1613e+07
1.33001e+07
1.37341e+07
1.03087e+07
4.67607e+06
3.19073e+06
2.7798e+06
2.63792e+06
2.54765e+06
2.47642e+06
2.34414e+06
1.97769e+06
1.35367e+06
1.10863e+06
1.11896e+06
1.12836e+06
1.31592e+06
1.97423e+06
2.41877e+06
2.60681e+06
2.7233e+06
2.82951e+06
2.95788e+06
3.38859e+06
5.10342e+06
1.15265e+07
1.29383e+07
1.22966e+07
9.88943e+06
4.66522e+06
3.14237e+06
2.67857e+06
2.52096e+06
2.43891e+06
2.37454e+06
2.26737e+06
2.136e+06
1.73527e+06
1.25998e+06
1.22471e+06
1.26038e+06
1.68658e+06
2.20028e+06
2.36253e+06
2.50648e+06
2.59853e+06
2.69929e+06
2.83536e+06
3.31588e+06
5.01759e+06
1.09672e+07
1.16435e+07
378091
208839
196367
195033
195207
195364
195493
195342
195023
194634
194241
193859
193489
193129
192776
192429
192087
191750
191417
191089
190765
190446
190130
189820
189513
189212
188916
188850
193523
321757
279967
174124
165485
164710
164966
165074
165123
164923
164628
164328
164070
163849
163651
163468
163295
163129
162968
162812
162659
162511
162366
162225
162088
161955
161825
161701
161581
161829
167626
250820
252916
165513
158034
157519
157755
157832
157857
157648
157398
157184
157037
156939
156868
156812
156764
156721
156679
156640
156602
156565
156530
156496
156463
156431
156401
156374
156358
156737
162939
240768
247530
164135
156603
156138
156362
156476
156510
156291
156054
155863
155747
155685
155651
155633
155621
155612
155605
155598
155591
155584
155578
155572
155566
155561
155556
155553
155564
155977
162325
240106
248272
164203
156369
155919
156148
156299
156339
156102
155862
155670
155558
155501
155475
155463
155459
155456
155455
155454
155453
155452
155451
155450
155448
155448
155448
155449
155466
155892
162343
240597
248806
164224
156312
155896
156163
156311
156342
156080
155839
155645
155533
155478
155453
155443
155439
155438
155437
155437
155437
155437
155436
155436
155435
155436
155436
155437
155457
155895
162451
241202
248887
164143
156298
155913
156198
156334
156350
156072
155833
155640
155530
155475
155450
155440
155437
155436
155436
155435
155435
155435
155435
155435
155434
155434
155435
155436
155458
155907
162568
241790
248588
164046
156297
155999
156225
156345
156348
156060
155827
155637
155528
155473
155449
155439
155436
155436
155435
155435
155435
155435
155435
155435
155434
155434
155435
155436
155459
155919
162679
242332
248260
163994
156314
156076
156240
156356
156340
156039
155816
155631
155524
155471
155447
155439
155436
155436
155435
155435
155435
155435
155435
155435
155434
155434
155435
155436
155460
155930
162780
242825
248080
163978
156327
156145
156250
156360
156323
156007
155799
155621
155519
155468
155446
155438
155436
155435
155435
155435
155435
155435
155435
155435
155435
155434
155435
155436
155460
155940
162873
243269
248046
163982
156390
156201
156256
156347
156283
155971
155775
155606
155511
155465
155445
155438
155436
155435
155435
155435
155435
155435
155435
155435
155435
155435
155435
155436
155461
155949
162959
243672
248129
164089
156438
156242
156258
156293
156233
155928
155748
155591
155505
155462
155444
155438
155436
155435
155435
155435
155435
155435
155435
155435
155435
155435
155435
155436
155461
155958
163039
244044
248259
164229
156550
156319
156249
156230
156173
155883
155722
155579
155499
155460
155444
155438
155436
155435
155435
155435
155435
155435
155435
155435
155435
155435
155435
155436
155462
155966
163112
244381
248487
164539
156864
156584
156338
156186
156113
155840
155697
155566
155494
155458
155443
155437
155436
155435
155435
155435
155435
155435
155435
155435
155435
155435
155435
155436
155462
155974
163179
244687
248841
165368
157895
157460
156822
156343
156106
155808
155673
155554
155489
155456
155442
155437
155436
155435
155435
155435
155435
155435
155435
155435
155435
155435
155435
155436
155462
155980
163240
244964
250255
168045
162286
162189
159574
157222
156337
155843
155659
155543
155483
155454
155441
155437
155436
155435
155435
155435
155435
155435
155435
155435
155435
155435
155435
155436
155462
155987
163295
245211
254894
177194
180425
188894
180188
164312
157676
156104
155706
155541
155479
155452
155441
155437
155436
155435
155435
155435
155435
155435
155435
155435
155435
155435
155435
155436
155463
155993
163345
245433
268211
203053
231309
287422
297637
225074
170582
157651
155950
155581
155481
155450
155440
155436
155436
155435
155435
155435
155435
155435
155435
155435
155435
155435
155435
155437
155464
155998
163387
245627
300099
231276
297663
413238
490180
480650
287884
172676
157285
155769
155509
155452
155439
155436
155436
155435
155435
155435
155435
155435
155435
155435
155435
155435
155435
155437
155464
156002
163425
245796
313440
277496
412597
597211
723906
741849
657828
306216
168576
156669
155629
155468
155441
155436
155435
155435
155435
155435
155435
155435
155435
155435
155435
155435
155435
155437
155464
156006
163457
245941
315927
382555
604658
845881
1.07783e+06
1.05777e+06
979254
737546
264968
162542
156114
155532
155448
155437
155436
155435
155435
155435
155435
155435
155435
155435
155435
155435
155435
155437
155464
156009
163483
246062
335467
604156
940145
1.2305e+06
1.62931e+06
1.50773e+06
1.33622e+06
1.13957e+06
671350
207877
158466
155747
155476
155440
155436
155435
155435
155435
155435
155435
155435
155435
155435
155435
155435
155437
155464
156011
163504
246163
348436
1.0577e+06
1.42594e+06
2.17609e+06
2.78166e+06
2.21336e+06
1.80482e+06
1.52602e+06
1.15055e+06
454282
173021
156526
155558
155449
155436
155435
155435
155435
155435
155435
155435
155435
155435
155435
155436
155437
155465
156013
163520
246243
602417
2.45431e+06
3.56919e+06
5.94372e+06
5.54176e+06
3.53611e+06
2.50966e+06
1.96672e+06
1.54707e+06
947186
245122
159826
155787
155476
155439
155436
155435
155435
155435
155435
155435
155435
155435
155435
155436
155437
155465
156014
163532
246304
2.81263e+06
1.38785e+07
2.23507e+07
2.21571e+07
1.39585e+07
6.33209e+06
3.68832e+06
2.54263e+06
1.95329e+06
1.38436e+06
513373
174405
156433
155537
155446
155436
155435
155435
155435
155435
155435
155435
155435
155435
155436
155437
155465
156015
163540
246349
321759
193524
188851
188917
189214
189516
189823
190134
190449
190770
191094
191422
191756
192093
192435
192783
193136
193498
193868
194250
194644
195034
195354
195505
195377
195220
195046
196383
208864
378232
250821
167626
161829
161581
161701
161825
161955
162088
162225
162366
162511
162659
162812
162968
163129
163295
163468
163651
163849
164070
164328
164628
164923
165123
165074
164966
164710
165484
174123
279939
240770
162940
156737
156358
156374
156401
156431
156463
156496
156530
156565
156602
156640
156679
156721
156765
156813
156868
156939
157037
157184
157398
157648
157858
157833
157755
157519
158034
165513
252960
240106
162325
155977
155564
155553
155556
155561
155566
155572
155578
155584
155591
155598
155605
155612
155621
155633
155651
155685
155747
155863
156054
156292
156510
156476
156361
156138
156602
164130
247479
240596
162343
155892
155466
155449
155448
155448
155448
155450
155451
155452
155453
155454
155455
155456
155459
155463
155475
155501
155558
155670
155862
156102
156339
156299
156148
155919
156369
164208
248253
241203
162452
155895
155457
155437
155436
155436
155435
155436
155436
155437
155437
155437
155437
155438
155439
155443
155453
155478
155533
155645
155839
156080
156342
156311
156163
155896
156312
164223
248889
241789
162568
155907
155458
155436
155435
155434
155434
155435
155435
155435
155435
155435
155436
155436
155437
155440
155450
155475
155530
155640
155833
156072
156350
156333
156198
155913
156297
164138
248780
242332
162679
155919
155459
155436
155435
155434
155434
155435
155435
155435
155435
155435
155435
155436
155436
155439
155449
155473
155528
155637
155827
156060
156348
156345
156225
155999
156298
164052
248652
242825
162780
155930
155460
155436
155435
155434
155434
155435
155435
155435
155435
155435
155435
155436
155436
155439
155447
155471
155524
155631
155816
156038
156340
156356
156240
156076
156314
163991
248250
243269
162873
155940
155460
155436
155435
155434
155435
155435
155435
155435
155435
155435
155435
155435
155436
155438
155446
155468
155519
155621
155798
156007
156323
156360
156250
156145
156327
163981
248053
243673
162959
155949
155461
155436
155435
155435
155435
155435
155435
155435
155435
155435
155435
155435
155436
155438
155445
155465
155511
155606
155775
155971
156283
156346
156256
156201
156390
163982
248105
244045
163038
155958
155461
155436
155435
155435
155435
155435
155435
155435
155435
155435
155435
155435
155436
155438
155444
155462
155505
155591
155748
155928
156233
156293
156258
156242
156438
164086
248079
244381
163112
155966
155462
155436
155435
155435
155435
155435
155435
155435
155435
155435
155435
155435
155436
155438
155444
155460
155499
155579
155722
155883
156173
156230
156249
156319
156551
164232
248271
244687
163179
155974
155462
155436
155435
155435
155435
155435
155435
155435
155435
155435
155435
155435
155436
155437
155443
155458
155494
155566
155697
155840
156113
156186
156339
156584
156864
164540
248492
244964
163240
155980
155462
155436
155435
155435
155435
155435
155435
155435
155435
155435
155435
155435
155436
155437
155442
155456
155489
155554
155673
155808
156106
156343
156823
157461
157896
165367
248845
245211
163295
155987
155462
155436
155435
155435
155435
155435
155435
155435
155435
155435
155435
155435
155436
155437
155441
155454
155483
155543
155659
155843
156338
157224
159577
162193
162291
168047
250238
245433
163345
155993
155463
155436
155435
155435
155435
155435
155435
155435
155435
155435
155435
155435
155436
155437
155441
155452
155479
155541
155706
156105
157678
164314
180178
188878
180427
177185
254903
245627
163388
155998
155464
155437
155435
155435
155435
155435
155435
155435
155435
155435
155435
155435
155436
155436
155440
155450
155481
155581
155951
157651
170567
224928
297276
287170
231233
203002
268186
245795
163425
156002
155464
155437
155435
155435
155435
155435
155435
155435
155435
155435
155435
155435
155436
155436
155439
155453
155509
155769
157286
172648
287422
479281
488817
412584
297442
231173
299969
245941
163457
156006
155464
155437
155435
155435
155435
155435
155435
155435
155435
155435
155435
155435
155435
155436
155441
155468
155629
156669
168559
305657
655372
738931
721176
596050
412154
277261
313321
246063
163483
156009
155464
155437
155435
155435
155435
155435
155435
155435
155435
155435
155435
155435
155436
155437
155448
155532
156114
162531
264522
734595
974669
1.05269e+06
1.07275e+06
844146
603945
382106
315678
246163
163504
156011
155464
155437
155435
155435
155435
155435
155435
155435
155435
155435
155435
155435
155436
155440
155476
155748
158465
207700
668608
1.13407e+06
1.32887e+06
1.4985e+06
1.6202e+06
1.22749e+06
939110
603718
334839
246243
163520
156013
155465
155437
155436
155435
155435
155435
155435
155435
155435
155435
155435
155435
155436
155449
155558
156528
173008
453147
1.14504e+06
1.51692e+06
1.79185e+06
2.19373e+06
2.76012e+06
2.1657e+06
1.42406e+06
1.05573e+06
348489
246304
163532
156014
155465
155437
155436
155435
155435
155435
155435
155435
155435
155435
155435
155436
155439
155476
155788
159828
244881
943003
1.53814e+06
1.9516e+06
2.48408e+06
3.48356e+06
5.44832e+06
5.87338e+06
3.54994e+06
2.45052e+06
599752
246349
163540
156015
155465
155437
155436
155435
155435
155435
155435
155435
155435
155435
155435
155436
155446
155537
156436
174427
512540
1.3778e+06
1.93992e+06
2.51761e+06
3.63531e+06
6.1886e+06
1.3493e+07
2.15631e+07
2.2003e+07
1.36581e+07
2.78116e+06
262347
262205
262073
261941
261809
261678
261546
261414
261282
261151
261019
260888
260756
260625
260493
260362
260231
260100
259968
259837
259706
259575
259444
259313
259182
259052
258921
258790
258660
258529
258399
258268
258138
258007
257877
257747
257616
257486
257356
257226
257096
256966
256836
256707
256577
256447
256318
256188
256058
255929
255799
255670
255541
255412
255282
255153
255024
254895
254766
254637
254509
254380
254251
254122
253994
253865
253737
253608
253480
253352
253223
253095
252967
252839
252711
252583
252455
252327
252200
252072
251944
251817
251689
251562
251434
251307
251180
251053
250925
250798
250671
250544
250417
250291
250164
250037
249911
249784
249657
249531
249405
249278
249152
249026
248900
248774
248648
248522
248396
248270
248144
248019
247893
247768
247642
247517
247391
247266
247141
247016
246891
246766
246640
246509
246345
168752
168684
168629
168575
168522
168470
168417
168365
168313
168262
168210
168159
168108
168057
168007
167956
167906
167856
167806
167757
167708
167659
167610
167561
167513
167464
167416
167369
167321
167273
167226
167179
167132
167086
167039
166993
166947
166901
166856
166810
166765
166720
166675
166631
166586
166542
166498
166454
166410
166367
166323
166280
166237
166195
166152
166110
166067
166025
165983
165942
165900
165859
165818
165777
165736
165695
165655
165614
165574
165534
165495
165455
165416
165376
165337
165298
165259
165221
165182
165144
165106
165068
165030
164993
164955
164918
164881
164844
164807
164770
164734
164697
164661
164625
164589
164553
164517
164482
164447
164411
164376
164342
164307
164272
164238
164203
164169
164135
164101
164068
164034
164001
163967
163934
163901
163868
163836
163803
163770
163738
163706
163674
163642
163608
163569
156854
156840
156829
156819
156808
156798
156788
156778
156768
156759
156749
156739
156730
156720
156711
156701
156692
156683
156674
156665
156656
156647
156638
156629
156620
156612
156603
156595
156586
156578
156570
156561
156553
156545
156537
156529
156521
156513
156506
156498
156490
156483
156475
156468
156460
156453
156446
156438
156431
156424
156417
156410
156403
156396
156389
156383
156376
156369
156362
156356
156349
156343
156336
156330
156324
156317
156311
156305
156299
156293
156287
156281
156275
156269
156263
156257
156251
156246
156240
156234
156229
156223
156218
156212
156207
156201
156196
156191
156186
156180
156175
156170
156165
156160
156155
156150
156145
156140
156135
156130
156125
156121
156116
156111
156107
156102
156097
156093
156088
156084
156079
156075
156071
156066
156062
156058
156053
156049
156045
156041
156037
156033
156029
156024
156019
155544
155543
155542
155540
155539
155538
155537
155536
155535
155534
155533
155531
155530
155529
155528
155527
155526
155525
155524
155523
155522
155522
155521
155520
155519
155518
155517
155516
155515
155514
155514
155513
155512
155511
155510
155509
155509
155508
155507
155506
155506
155505
155504
155503
155503
155502
155501
155501
155500
155499
155499
155498
155497
155497
155496
155495
155495
155494
155493
155493
155492
155492
155491
155490
155490
155489
155489
155488
155488
155487
155487
155486
155486
155485
155485
155484
155484
155483
155483
155482
155482
155481
155481
155480
155480
155479
155479
155478
155478
155478
155477
155477
155476
155476
155475
155475
155475
155474
155474
155473
155473
155473
155472
155472
155472
155471
155471
155471