/*--------------------------------*- C++ -*----------------------------------*\
| =========                 |                                                 |
| \\      /  F ield         | OpenFOAM: The Open Source CFD Toolbox           |
|  \\    /   O peration     | Version:  2112                                  |
|   \\  /    A nd           | Website:  www.openfoam.com                      |
|    \\/     M anipulation  |                                                 |
\*---------------------------------------------------------------------------*/
FoamFile
{
    version     2.0;
    format      ascii;
    arch        "LSB;label=32;scalar=64";
    class       volScalarField;
    location    "0.00326";
    object      epsilon;
}
// * * * * * * * * * * * * * * * * * * * * * * * * * * * * * * * * * * * * * //

dimensions      [0 2 -3 0 0 0 0];

internalField   nonuniform List<scalar> 
13875
(
1.15997e+06
2.94638e+07
3.28124e+07
3.28487e+07
3.29658e+07
3.28651e+07
3.28628e+07
3.28827e+07
3.29186e+07
3.29343e+07
3.29144e+07
3.29142e+07
3.28778e+07
3.28368e+07
3.28624e+07
3.29082e+07
3.29843e+07
3.29056e+07
3.28769e+07
3.28281e+07
3.29392e+07
3.2836e+07
3.28026e+07
2.94915e+07
1.1775e+06
1.31388e+06
2.27486e+07
2.53481e+07
2.52451e+07
2.53112e+07
2.52172e+07
2.52054e+07
2.52214e+07
2.5241e+07
2.52436e+07
2.52432e+07
2.52192e+07
2.52197e+07
2.51929e+07
2.52025e+07
2.52429e+07
2.52638e+07
2.52357e+07
2.52239e+07
2.5198e+07
2.5291e+07
2.52211e+07
2.53259e+07
2.27554e+07
1.34182e+06
1.57305e+06
1.97076e+07
2.1824e+07
2.16306e+07
2.1702e+07
2.16283e+07
2.16128e+07
2.16171e+07
2.15544e+07
2.15413e+07
2.15436e+07
2.15223e+07
2.16178e+07
2.16034e+07
2.16005e+07
2.1555e+07
2.1553e+07
2.1554e+07
2.16242e+07
2.16197e+07
2.16947e+07
2.16004e+07
2.17873e+07
1.96846e+07
1.58447e+06
1.81381e+06
1.7386e+07
1.90336e+07
1.88835e+07
1.89672e+07
1.8906e+07
1.88896e+07
1.88923e+07
1.88093e+07
1.88071e+07
1.87935e+07
1.87925e+07
1.88921e+07
1.88814e+07
1.8878e+07
1.88045e+07
1.88196e+07
1.88094e+07
1.89003e+07
1.88979e+07
1.89618e+07
1.88569e+07
1.90119e+07
1.73587e+07
1.82073e+06
2.02296e+06
1.5453e+07
1.67684e+07
1.66236e+07
1.66997e+07
1.66494e+07
1.66356e+07
1.66338e+07
1.65511e+07
1.65587e+07
1.6539e+07
1.65416e+07
1.66334e+07
1.6628e+07
1.66241e+07
1.6547e+07
1.65688e+07
1.65517e+07
1.66406e+07
1.66454e+07
1.66972e+07
1.66035e+07
1.6742e+07
1.54256e+07
2.03694e+06
2.2068e+06
1.37135e+07
1.49251e+07
1.47407e+07
1.48237e+07
1.47749e+07
1.47586e+07
1.47485e+07
1.46642e+07
1.46796e+07
1.46548e+07
1.46598e+07
1.47461e+07
1.47466e+07
1.47408e+07
1.46581e+07
1.46885e+07
1.46656e+07
1.47574e+07
1.47758e+07
1.48244e+07
1.47286e+07
1.49008e+07
1.38483e+07
2.22378e+06
2.42314e+06
1.22527e+07
1.34752e+07
1.32094e+07
1.32614e+07
1.32055e+07
1.31815e+07
1.31611e+07
1.30784e+07
1.30978e+07
1.30683e+07
1.3076e+07
1.31594e+07
1.31656e+07
1.31559e+07
1.30686e+07
1.31069e+07
1.3081e+07
1.31753e+07
1.32094e+07
1.3262e+07
1.32009e+07
1.34204e+07
1.19545e+07
2.43075e+06
2.66753e+06
1.06201e+07
1.23134e+07
1.19806e+07
1.19951e+07
1.19128e+07
1.1867e+07
1.18303e+07
1.17482e+07
1.17676e+07
1.17317e+07
1.17407e+07
1.18228e+07
1.18361e+07
1.18219e+07
1.17278e+07
1.17773e+07
1.1751e+07
1.18518e+07
1.19138e+07
1.19926e+07
1.19741e+07
1.22621e+07
1.05445e+07
2.69634e+06
3.49951e+06
1.02131e+07
1.14867e+07
1.10421e+07
1.09498e+07
1.08425e+07
1.07744e+07
1.07194e+07
1.06403e+07
1.06572e+07
1.06156e+07
1.06258e+07
1.07081e+07
1.07278e+07
1.07091e+07
1.06112e+07
1.0668e+07
1.0646e+07
1.07483e+07
1.0841e+07
1.09534e+07
1.10318e+07
1.14799e+07
1.03447e+07
3.57887e+06
6.84525e+06
1.22454e+07
1.12136e+07
1.04317e+07
1.02333e+07
1.00502e+07
9.95118e+06
9.87448e+06
9.80571e+06
9.81188e+06
9.77135e+06
9.7813e+06
9.86316e+06
9.88707e+06
9.86659e+06
9.77717e+06
9.82414e+06
9.81612e+06
9.90601e+06
1.00311e+07
1.02165e+07
1.04121e+07
1.11816e+07
1.2143e+07
6.89326e+06
1.49528e+07
1.871e+07
1.21069e+07
1.04382e+07
9.80113e+06
9.54102e+06
9.39742e+06
9.29739e+06
9.23625e+06
9.23008e+06
9.19505e+06
9.2005e+06
9.28154e+06
9.30727e+06
9.28974e+06
9.22189e+06
9.25248e+06
9.26037e+06
9.34599e+06
9.4972e+06
9.78367e+06
1.03968e+07
1.19862e+07
1.80603e+07
1.50597e+07
2.54242e+07
6.7612e+07
1.88925e+07
1.09994e+07
1.0072e+07
9.44839e+06
9.16278e+06
9.02216e+06
8.94817e+06
8.92794e+06
8.89718e+06
8.89515e+06
8.96899e+06
8.99613e+06
8.98616e+06
8.94837e+06
8.97427e+06
9.00853e+06
9.11975e+06
9.40352e+06
1.00021e+07
1.08354e+07
1.81708e+07
6.71222e+07
2.50586e+07
2.66393e+07
7.00466e+07
9.0604e+07
2.84917e+07
1.17415e+07
9.9279e+06
9.54058e+06
9.35643e+06
9.29129e+06
9.26086e+06
9.23545e+06
9.23024e+06
9.29314e+06
9.31764e+06
9.32136e+06
9.31203e+06
9.34493e+06
9.38921e+06
9.53579e+06
1.00019e+07
1.21223e+07
2.64207e+07
8.52796e+07
7.06924e+07
2.61295e+07
2.64231e+07
5.17401e+07
8.11396e+07
1.16981e+08
5.75815e+07
1.6065e+07
1.31713e+07
1.16927e+07
1.12651e+07
1.1099e+07
1.10291e+07
1.10044e+07
1.10609e+07
1.10971e+07
1.1123e+07
1.11721e+07
1.13547e+07
1.18206e+07
1.33997e+07
1.7213e+07
6.52542e+07
1.00474e+08
7.68798e+07
5.16253e+07
2.59567e+07
2.58243e+07
4.13129e+07
5.99643e+07
8.09821e+07
7.21869e+07
5.74981e+07
6.01923e+07
4.48133e+07
4.36762e+07
4.50111e+07
4.64531e+07
4.60883e+07
4.70786e+07
4.66899e+07
4.668e+07
4.53772e+07
4.40189e+07
4.53699e+07
6.22716e+07
5.90679e+07
7.35536e+07
7.32396e+07
5.82213e+07
4.12255e+07
2.71766e+07
2.62514e+07
3.43331e+07
5.01463e+07
6.72914e+07
7.1217e+07
8.54963e+07
7.12022e+07
5.29104e+07
5.45129e+07
5.8864e+07
5.97312e+07
6.00721e+07
6.06677e+07
6.08933e+07
6.01975e+07
5.96658e+07
5.4247e+07
5.20866e+07
6.89561e+07
8.53622e+07
7.27573e+07
6.23334e+07
4.87872e+07
3.41124e+07
2.7481e+07
2.37362e+07
3.05612e+07
4.42543e+07
6.0432e+07
6.74076e+07
7.97475e+07
5.41899e+07
3.86696e+07
3.73946e+07
3.80597e+07
3.85147e+07
3.87196e+07
3.89907e+07
3.91366e+07
3.89056e+07
3.85108e+07
3.72604e+07
3.87262e+07
5.18874e+07
7.9759e+07
6.81018e+07
5.74186e+07
4.37479e+07
2.94975e+07
2.33574e+07
1.91715e+07
2.90398e+07
4.32302e+07
4.88572e+07
5.26293e+07
6.05179e+07
4.34984e+07
3.1608e+07
2.93026e+07
2.84185e+07
2.80433e+07
2.79159e+07
2.80949e+07
2.82081e+07
2.8446e+07
2.87968e+07
2.9366e+07
3.19188e+07
4.26212e+07
5.94155e+07
5.20167e+07
4.6857e+07
4.4044e+07
2.92069e+07
1.86558e+07
1.53198e+07
2.91054e+07
3.88342e+07
3.87675e+07
3.91917e+07
4.44382e+07
3.88597e+07
3.05038e+07
2.60109e+07
2.3301e+07
2.18846e+07
2.13285e+07
2.13372e+07
2.14809e+07
2.20255e+07
2.31928e+07
2.54709e+07
2.97966e+07
3.77205e+07
4.34724e+07
3.83591e+07
3.80405e+07
3.97656e+07
3.09827e+07
1.51697e+07
1.40139e+07
3.31413e+07
3.30567e+07
3.1413e+07
3.11622e+07
3.47578e+07
3.4175e+07
2.91848e+07
2.42528e+07
2.04514e+07
1.81625e+07
1.71757e+07
1.70326e+07
1.73082e+07
1.82846e+07
2.03664e+07
2.3912e+07
2.87045e+07
3.32598e+07
3.38385e+07
3.06157e+07
3.10871e+07
3.23841e+07
3.02295e+07
1.43015e+07
1.57828e+07
2.71865e+07
2.71598e+07
2.57729e+07
2.56045e+07
2.85825e+07
2.94315e+07
2.61155e+07
2.17054e+07
1.7866e+07
1.52814e+07
1.40493e+07
1.38216e+07
1.42183e+07
1.55002e+07
1.79871e+07
2.1675e+07
2.59011e+07
2.87336e+07
2.78419e+07
2.52888e+07
2.57574e+07
2.64752e+07
2.41702e+07
1.56965e+07
2.3669e+07
2.77633e+07
2.32425e+07
2.17868e+07
2.16556e+07
2.41541e+07
2.51063e+07
2.26875e+07
1.89624e+07
1.54274e+07
1.28828e+07
1.16026e+07
1.13251e+07
1.17586e+07
1.30974e+07
1.55637e+07
1.89464e+07
2.24519e+07
2.44998e+07
2.3654e+07
2.1469e+07
2.18509e+07
2.24231e+07
2.59782e+07
2.28948e+07
2.71342e+07
3.08247e+07
2.03991e+07
1.84445e+07
1.85499e+07
2.05301e+07
2.12627e+07
1.93634e+07
1.62734e+07
1.32014e+07
1.08772e+07
9.65672e+06
9.36181e+06
9.75782e+06
1.10001e+07
1.32344e+07
1.61557e+07
1.90499e+07
2.06517e+07
2.00832e+07
1.8351e+07
1.84658e+07
1.9484e+07
2.96021e+07
2.61163e+07
2.60511e+07
2.98911e+07
1.76004e+07
1.58623e+07
1.59437e+07
1.7295e+07
1.7923e+07
1.63916e+07
1.37531e+07
1.11319e+07
9.13583e+06
8.0745e+06
7.81294e+06
8.17377e+06
9.27238e+06
1.12056e+07
1.36893e+07
1.61664e+07
1.74202e+07
1.68892e+07
1.58151e+07
1.59301e+07
1.69437e+07
2.85112e+07
2.51182e+07
2.5121e+07
2.80459e+07
1.53971e+07
1.38734e+07
1.38166e+07
1.46648e+07
1.51711e+07
1.38913e+07
1.16702e+07
9.45601e+06
7.73626e+06
6.82073e+06
6.59531e+06
6.90741e+06
7.8583e+06
9.53806e+06
1.16423e+07
1.37215e+07
1.47619e+07
1.42986e+07
1.3665e+07
1.39246e+07
1.49442e+07
2.74431e+07
2.42937e+07
2.40822e+07
2.64955e+07
1.38186e+07
1.23601e+07
1.20808e+07
1.25727e+07
1.29008e+07
1.17828e+07
9.92273e+06
8.07019e+06
6.60954e+06
5.82121e+06
5.61976e+06
5.88815e+06
6.69506e+06
8.11331e+06
9.86575e+06
1.15983e+07
1.25225e+07
1.22375e+07
1.18806e+07
1.2324e+07
1.34701e+07
2.61457e+07
2.32515e+07
2.30766e+07
2.51572e+07
1.25361e+07
1.10991e+07
1.06679e+07
1.08624e+07
1.09715e+07
9.97257e+06
8.43134e+06
6.89638e+06
5.66938e+06
5.0088e+06
4.83708e+06
5.07048e+06
5.76337e+06
6.96994e+06
8.44128e+06
9.88622e+06
1.0721e+07
1.06156e+07
1.04911e+07
1.10732e+07
1.23586e+07
2.54561e+07
2.28199e+07
2.2657e+07
2.41255e+07
1.15851e+07
1.00207e+07
9.54929e+06
9.52205e+06
9.43235e+06
8.51732e+06
7.22666e+06
5.94703e+06
4.91578e+06
4.35382e+06
4.20051e+06
4.40346e+06
4.99122e+06
5.9986e+06
7.22202e+06
8.43329e+06
9.21292e+06
9.31114e+06
9.38224e+06
9.97804e+06
1.14309e+07
2.42124e+07
2.23668e+07
2.26629e+07
2.27512e+07
1.07367e+07
9.07572e+06
8.59735e+06
8.42943e+06
8.16993e+06
7.3308e+06
6.24385e+06
5.16802e+06
4.29455e+06
3.81454e+06
3.6778e+06
3.85175e+06
4.34428e+06
5.18574e+06
6.20911e+06
7.22898e+06
7.95781e+06
8.23334e+06
8.43288e+06
9.01751e+06
1.06167e+07
2.24103e+07
2.19679e+07
2.19286e+07
2.12722e+07
1.00194e+07
8.24743e+06
7.74202e+06
7.48873e+06
7.09784e+06
6.31307e+06
5.38676e+06
4.48921e+06
3.76531e+06
3.36373e+06
3.24475e+06
3.40123e+06
3.82595e+06
4.53495e+06
5.39806e+06
6.27921e+06
6.97075e+06
7.35472e+06
7.6163e+06
8.20836e+06
9.95482e+06
2.13166e+07
2.227e+07
2.11003e+07
2.00206e+07
9.48202e+06
7.58426e+06
6.99638e+06
6.68814e+06
6.23365e+06
5.51327e+06
4.71251e+06
3.94659e+06
3.33165e+06
2.98842e+06
2.88305e+06
3.02028e+06
3.37844e+06
3.97603e+06
4.71169e+06
5.47661e+06
6.12421e+06
6.56872e+06
6.87129e+06
7.55162e+06
9.38372e+06
2.01083e+07
2.1272e+07
2.03385e+07
1.90155e+07
9.03503e+06
7.09358e+06
6.34629e+06
5.99983e+06
5.52642e+06
4.85565e+06
4.15416e+06
3.4938e+06
2.97139e+06
2.67501e+06
2.57915e+06
2.70065e+06
3.00655e+06
3.51079e+06
4.14191e+06
4.81486e+06
5.42561e+06
5.88917e+06
6.23501e+06
7.04506e+06
8.94304e+06
1.8988e+07
2.02563e+07
1.9252e+07
1.77485e+07
8.76101e+06
6.68955e+06
5.79449e+06
5.38178e+06
4.90476e+06
4.29216e+06
3.6778e+06
3.10569e+06
2.65841e+06
2.40559e+06
2.32134e+06
2.43106e+06
2.6959e+06
3.13173e+06
3.68448e+06
4.27702e+06
4.83941e+06
5.30051e+06
5.70402e+06
6.64065e+06
8.65638e+06
1.80612e+07
1.95971e+07
1.87413e+07
1.65913e+07
8.53477e+06
6.41365e+06
5.34776e+06
4.86713e+06
4.38732e+06
3.83227e+06
3.28516e+06
2.78474e+06
2.40003e+06
2.17947e+06
2.10191e+06
2.19992e+06
2.42923e+06
2.80239e+06
3.28552e+06
3.81518e+06
4.33162e+06
4.79835e+06
5.27074e+06
6.3491e+06
8.55218e+06
1.69226e+07
1.87659e+07
1.83149e+07
1.56278e+07
8.12888e+06
6.20237e+06
5.01066e+06
4.43117e+06
3.94359e+06
3.44307e+06
2.95904e+06
2.51796e+06
2.17816e+06
1.98484e+06
1.91399e+06
2.00132e+06
2.20087e+06
2.52918e+06
2.95518e+06
3.42507e+06
3.89401e+06
4.37121e+06
4.95037e+06
6.17467e+06
8.28191e+06
1.57944e+07
1.81469e+07
1.75016e+07
1.4484e+07
7.60267e+06
6.02504e+06
4.7574e+06
4.06928e+06
3.56524e+06
3.10134e+06
2.66849e+06
2.28035e+06
1.98629e+06
1.81694e+06
1.7523e+06
1.8328e+06
2.01061e+06
2.29806e+06
2.67529e+06
3.09818e+06
3.53414e+06
4.02719e+06
4.71051e+06
6.0658e+06
7.80035e+06
1.47995e+07
1.75744e+07
1.69913e+07
1.35261e+07
7.12284e+06
5.99352e+06
4.57277e+06
3.79137e+06
3.25211e+06
2.81612e+06
2.42724e+06
2.0835e+06
1.82158e+06
1.67054e+06
1.6114e+06
1.68435e+06
1.84039e+06
2.09645e+06
2.43005e+06
2.81041e+06
3.22166e+06
3.75453e+06
4.53505e+06
6.07298e+06
7.253e+06
1.36734e+07
1.68818e+07
1.66273e+07
1.26318e+07
6.67756e+06
5.87244e+06
4.47717e+06
3.57837e+06
3.00478e+06
2.57797e+06
2.21844e+06
1.90965e+06
1.67887e+06
1.54375e+06
1.4889e+06
1.55598e+06
1.694e+06
1.91844e+06
2.21804e+06
2.57171e+06
2.98016e+06
3.55129e+06
4.47448e+06
5.96394e+06
6.71937e+06
1.26844e+07
1.64994e+07
1.60762e+07
1.1751e+07
6.1363e+06
5.55921e+06
4.42481e+06
3.41143e+06
2.81247e+06
2.375e+06
2.03542e+06
1.75682e+06
1.55094e+06
1.43014e+06
1.38072e+06
1.44262e+06
1.56628e+06
1.76894e+06
2.04062e+06
2.37508e+06
2.79822e+06
3.39632e+06
4.46875e+06
5.66407e+06
6.17999e+06
1.18603e+07
1.62285e+07
1.57548e+07
1.10414e+07
5.63028e+06
5.23222e+06
4.53087e+06
3.31462e+06
2.66728e+06
2.21738e+06
1.88267e+06
1.6255e+06
1.44064e+06
1.33181e+06
1.2852e+06
1.342e+06
1.45252e+06
1.63387e+06
1.88479e+06
2.21806e+06
2.65418e+06
3.30262e+06
4.6008e+06
5.30999e+06
5.62295e+06
1.11173e+07
1.57525e+07
1.55057e+07
1.04792e+07
5.22465e+06
4.88398e+06
4.50487e+06
3.28716e+06
2.55739e+06
2.09859e+06
1.75803e+06
1.51333e+06
1.34308e+06
1.24343e+06
1.20014e+06
1.25145e+06
1.35186e+06
1.5182e+06
1.7575e+06
2.0969e+06
2.54888e+06
3.31524e+06
4.59472e+06
4.93598e+06
5.16318e+06
1.05502e+07
1.54252e+07
1.50964e+07
9.94789e+06
4.82267e+06
4.50995e+06
4.28378e+06
3.34412e+06
2.47981e+06
1.9993e+06
1.6576e+06
1.41682e+06
1.25635e+06
1.16499e+06
1.12438e+06
1.17279e+06
1.26475e+06
1.42222e+06
1.65853e+06
2.0026e+06
2.5022e+06
3.45967e+06
4.33661e+06
4.55219e+06
4.85886e+06
1.00909e+07
1.51873e+07
1.48191e+07
9.49428e+06
4.52474e+06
4.15762e+06
4.01393e+06
3.46912e+06
2.47924e+06
1.92448e+06
1.58382e+06
1.33611e+06
1.18168e+06
1.09458e+06
1.05625e+06
1.10133e+06
1.18747e+06
1.33991e+06
1.58179e+06
1.9256e+06
2.53069e+06
3.55518e+06
4.03626e+06
4.18255e+06
4.52255e+06
9.63401e+06
1.48208e+07
1.46027e+07
9.10258e+06
4.3354e+06
3.85381e+06
3.73219e+06
3.42359e+06
2.58818e+06
1.88087e+06
1.5191e+06
1.27437e+06
1.12059e+06
1.0341e+06
996115
1.0397e+06
1.12475e+06
1.27735e+06
1.51704e+06
1.89007e+06
2.69561e+06
3.45955e+06
3.71767e+06
3.86639e+06
4.28853e+06
9.20809e+06
1.45608e+07
1.43735e+07
8.67489e+06
4.0988e+06
3.58305e+06
3.44766e+06
3.23552e+06
2.79943e+06
1.89401e+06
1.46895e+06
1.22752e+06
1.07467e+06
983788
945210
989174
1.07728e+06
1.2302e+06
1.47189e+06
1.95152e+06
2.86161e+06
3.25484e+06
3.41732e+06
3.60078e+06
4.14695e+06
8.83612e+06
1.43577e+07
1.41864e+07
8.29617e+06
3.95962e+06
3.3574e+06
3.19099e+06
3.04262e+06
2.85512e+06
2.06947e+06
1.44691e+06
1.18749e+06
1.03905e+06
946710
904600
951620
1.03965e+06
1.18869e+06
1.45527e+06
2.11801e+06
2.82049e+06
3.0397e+06
3.16416e+06
3.36818e+06
3.97358e+06
8.43205e+06
1.4168e+07
1.40206e+07
7.97286e+06
3.85958e+06
3.1775e+06
2.97842e+06
2.84337e+06
2.70829e+06
2.2706e+06
1.51667e+06
1.1583e+06
1.00547e+06
916087
872454
920555
1.00589e+06
1.15875e+06
1.53031e+06
2.30581e+06
2.67645e+06
2.82768e+06
2.95458e+06
3.18145e+06
3.83449e+06
8.06485e+06
1.39647e+07
1.36836e+07
7.57406e+06
3.7052e+06
3.01565e+06
2.79366e+06
2.65156e+06
2.55056e+06
2.29974e+06
1.69596e+06
1.16368e+06
976973
888276
845722
892485
979408
1.17904e+06
1.74324e+06
2.31636e+06
2.52564e+06
2.64181e+06
2.77783e+06
3.02919e+06
3.73769e+06
7.70896e+06
1.35928e+07
1.31463e+07
7.14186e+06
3.56112e+06
2.87026e+06
2.6361e+06
2.48618e+06
2.38403e+06
2.19889e+06
1.87136e+06
1.25421e+06
965142
863699
822200
867178
969619
1.27828e+06
1.89002e+06
2.21158e+06
2.36714e+06
2.47912e+06
2.62653e+06
2.88294e+06
3.58367e+06
7.25203e+06
1.30291e+07
1.16626e+07
6.52752e+06
3.4007e+06
2.72365e+06
2.49519e+06
2.34237e+06
2.22907e+06
2.08471e+06
1.88827e+06
1.4486e+06
1.00608e+06
850988
806499
853118
1.01439e+06
1.46461e+06
1.87059e+06
2.09309e+06
2.2184e+06
2.33913e+06
2.48841e+06
2.73223e+06
3.4048e+06
6.59809e+06
1.15762e+07
158411
114331
107138
105846
104657
104583
104694
105693
107558
110371
113955
118048
122595
127751
133599
139895
146704
154157
162584
172483
183679
196943
212422
229598
235273
193411
172320
168159
170596
286932
127141
98570.9
96284.6
96682.6
96635.8
97433.6
98370
100158
102687
106079
110185
114685
119195
123874
129189
135164
141035
147289
154199
162112
171431
181979
194283
208430
223375
214100
141020
114196
111761
149432
109858
90726.8
90320.2
91509.5
92010.9
93359.5
94982.5
97542.8
100840
104942
109557
114292
118850
123359
128208
133777
139586
145648
152135
159196
167335
176087
185680
195810
206604
214027
184476
109334
91724.1
109784
103847
88318.2
88115.8
89868
90709.5
92637.2
94933.9
98248.7
102330
107144
112221
117272
122057
126625
131406
136701
142910
149185
155861
162832
170336
179024
188144
197723
207518
216728
218476
163428
95424.1
100738
102575
87946.1
87822.4
89875.8
91207
93764
96798.8
100840
105567
110926
116488
121946
127014
131729
136592
141815
148275
154870
161764
168834
176305
184515
193887
203392
212994
222275
231044
224542
139866
106266
102819
88119.5
88103.2
90320.9
92376.2
95807.5
99807.6
104751
110274
116159
122102
127840
133178
138070
143010
148456
154876
161788
168769
175922
183405
191383
200132
209940
219964
229457
239778
250654
222403
151167
103619
88563.3
88754.9
91162.2
94032.2
98291.2
103471
109593
116113
122685
129015
134995
140597
145789
150667
156318
162508
169626
176549
183685
191009
198624
207028
216527
226947
237239
249003
267807
295380
375715
104918
89397.6
89888.3
92583.9
96211.5
101509
107991
115405
123074
130601
137518
143913
149770
155048
159906
164879
170801
177657
184519
191373
198449
205927
214153
223472
233897
243395
259951
294996
431112
556672
106905
90634.5
91540.1
94680.4
99435.7
106179
114208
122976
131835
140230
147918
154454
160250
165521
170145
174105
179386
185530
192294
198802
205730
213263
221582
230833
240158
251809
275897
355529
702744
651033
109322
92184.3
93659
97677.9
104074
112602
122342
132541
142556
151770
159916
166292
171770
176583
180478
183981
188130
193426
199878
206278
213108
220728
229170
238348
246869
262932
307769
501242
924832
716408
112191
94039.8
96410.3
101909
110452
120999
132561
144181
155183
164761
172877
178896
183946
187565
190812
193835
196890
201429
207354
213841
220560
228173
236603
245301
256281
279517
378114
782237
994854
759394
115052
96270.6
100083
107797
118930
131647
145046
157832
169319
178825
186524
191762
195644
198222
200668
203167
205333
209150
214468
221117
227705
235192
243466
251242
266696
309054
524987
937276
998282
783884
118453
99244.4
105194
115767
129809
144753
159735
172708
183859
192530
199237
203502
206238
207820
209478
211437
212901
215976
220785
227352
233905
241218
249403
258874
279967
372234
802433
985860
983575
803143
121979
103304
112231
126293
143286
160094
175214
187552
197647
204860
210337
213466
214986
215627
216574
217841
218853
221199
225637
231990
238613
245794
253729
266257
302805
513379
953179
994268
959928
820012
127282
109269
121745
139540
158993
176403
190468
201305
209484
214870
219007
220814
221071
220902
221168
221597
222374
224006
228208
234380
241334
248656
256687
274415
354170
770836
983954
982737
934043
832078
133341
117566
134098
155311
175911
192344
204419
212878
218539
221908
224525
224805
223816
223143
222852
222457
222966
223915
227806
233935
241555
249366
259740
288508
475285
922340
975821
962357
911236
841966
143451
129191
149770
173004
192888
207044
216451
221631
224514
225604
226396
224985
223076
221896
220720
220031
220376
220905
224443
230714
239154
247796
261847
323189
686486
950607
953637
939098
893301
847912
153421
143942
167944
191861
209554
220646
227039
228782
228604
226935
225929
223097
220203
218172
216871
216112
215651
215888
218996
225349
234473
243552
266448
407592
850190
936293
928968
913533
876937
848887
167026
162264
189160
210888
227388
236045
240604
239883
235741
230497
226873
222063
217634
214688
213396
211836
210349
210308
212795
218871
228384
239531
282834
565418
887727
911176
905910
887962
857940
843597
178644
185352
212836
235482
254724
264547
269282
264956
254738
242982
234411
225893
218914
214239
211796
208480
205795
205285
206194
211931
221612
237108
326188
729586
878039
884857
882259
864248
836875
832885
195137
214778
247758
275195
310375
325884
333354
318950
297377
272451
255583
240264
228429
219118
211508
204426
200668
199272
198842
204769
214419
240163
430134
799492
855741
859782
859877
842240
816404
817706
218475
270342
316659
389945
441175
453915
454536
422914
379498
332323
300257
272900
251043
231206
215344
205593
199323
195787
193752
198576
208694
258664
568527
808808
829993
835555
840578
821241
795880
799195
269038
358147
487522
585741
636116
653228
656745
599341
520193
438765
377668
330733
289290
253797
229648
215141
204351
197406
193000
194655
207938
308178
689243
793619
805457
811979
823677
801102
774590
778952
344632
756984
786202
819681
881921
930145
940397
856451
735925
605756
493612
412346
347025
295327
258433
235606
216751
205155
196765
194459
217256
422171
729699
773025
783999
791663
806521
781387
752705
757415
538529
1.87062e+06
1.40154e+06
1.08689e+06
1.13884e+06
1.18575e+06
1.2421e+06
1.18086e+06
1.0409e+06
847130
657589
527689
436377
364799
306506
271301
239359
219860
205353
199771
246902
554366
734737
753570
765907
774627
790320
762812
731887
735365
286932
170591
168131
172190
192380
234472
229438
212267
196750
183481
172268
162369
153972
146523
139736
133459
127631
122504
117979
113899
110329
107533
105680
104690
104582
104661
105844
107147
114372
158562
149425
111738
114004
139672
212441
222989
208123
193951
181654
171110
161764
153856
146957
140741
134936
129019
123721
119079
114595
110109
106018
102642
100129
98352
97425.3
96629.3
96684.6
96297.3
98564.1
127150
109761
91612.8
108407
182290
213378
206192
195372
185257
175684
166941
158867
151821
145342
139327
133494
127992
123152
118675
114153
109454
104865
100781
97499.3
94953.7
93343.5
92002.5
91514.7
90330.1
90730.8
109848
100649
94819.9
161041
217671
216282
207049
197246
187692
178582
169930
162462
155536
148887
142620
136439
131109
126369
121839
117095
112087
107045
102251
98194.7
94902.2
92622
90708.6
89872
88131.9
88331.2
103807
105855
137797
223368
230602
221820
212492
202887
193419
184096
175905
168463
161437
154573
147995
141549
136233
131437
126763
121738
116325
110812
105489
100804
96797
93786.7
91246.4
89911.5
87859.3
87972.1
102553
149045
220142
250110
239363
228974
219457
209463
199678
190947
183006
175561
168443
161490
154599
148174
142621
137725
132891
127601
121905
116052
110238
104769
99867.1
95893.3
92481
90417.3
88187.3
88186.1
102873
370334
293642
267396
248568
236780
226483
216067
206570
198185
190604
183319
176218
169319
162218
155956
150413
145531
140362
134822
128882
122635
116219
109774
103678
98474.3
94208.8
91331
88890
88682.1
103666
554428
429038
294420
259529
243019
233472
223023
213692
205476
198028
190988
184168
177331
170482
164466
159821
154947
149631
143826
137536
130751
123350
115663
108246
101727
96407.3
92800.8
90078.6
89575.2
105086
649924
701334
354792
275506
251448
239764
230378
221104
212794
205288
198387
191910
185176
179044
173925
170012
165509
160213
154463
148103
140527
132117
123295
114499
106454
99676
94918.8
91786.3
90873.3
107153
716072
926661
500541
307316
262547
246435
237878
228673
220231
212635
205832
199465
193056
187801
183840
180467
176631
171905
166434
160251
152160
142993
132927
122701
112948
104379
97964.6
93936.7
92473.4
109667
760177
998262
783100
377759
279103
255831
244845
236091
227660
220071
213385
206941
201089
196624
193787
190795
187662
184358
179423
173539
165311
155654
144615
133021
121431
110843
102258
96718.4
94367.7
112659
785371
1.00221e+06
939430
525332
308679
266242
250745
242955
234681
227219
220674
214076
208870
205179
203160
200729
198424
196240
192541
187284
179490
169818
158224
145543
132174
119435
108232
100435
96619.7
115541
805057
987700
988632
804437
372135
279503
258365
248900
240722
233430
226930
220418
215773
212882
211453
209708
208290
206936
204404
199948
193229
184337
173285
160235
145359
130443
116325
105610
99593.9
118914
822447
964031
997376
955625
514332
302429
265762
253180
245305
238148
231604
225319
221098
218960
218000
216969
216281
215677
214348
210962
205600
198174
188158
175980
160909
144105
127010
112751
103675
122468
834910
937930
985936
986538
773694
354264
273915
256144
248152
240869
234044
227970
224019
222621
222018
221781
221668
221805
221650
219548
215551
210097
201893
191339
177393
160040
140503
122432
109671
127830
843974
914595
965480
978508
924668
476748
288131
259240
248862
241109
233685
227711
224080
223397
223005
223643
224061
224740
225669
224999
222460
219109
213475
205340
193365
177104
156500
134964
118028
133972
849862
896082
942026
956192
952809
689832
323336
261418
247339
238811
230605
224573
221324
220993
221054
221987
223029
224103
225876
226723
225979
224956
222293
217437
208124
194151
174299
150663
129700
144033
850301
879271
916185
931400
938641
853160
409264
266220
243151
234329
225443
219384
216673
216603
217500
218510
219637
221213
223883
226241
227363
229217
229572
228153
221826
210787
193187
169020
144800
154349
845029
860012
890135
908214
913580
890529
568940
283049
239517
228449
219179
213358
211387
211634
213453
214947
216167
218634
222936
227310
230867
236675
241181
242287
237659
228849
212216
190555
163465
168028
833933
838527
866152
884361
887298
880776
734220
327457
237234
221830
212455
206916
206205
206973
210115
212884
215415
219874
227375
235578
244475
256765
267340
272466
267122
257668
237553
214538
186902
179909
818657
817963
844074
861982
862231
858416
803214
433706
240677
214679
205460
199933
200291
201706
205391
212183
219845
228926
242053
257452
275723
302109
323491
338442
330470
315339
278939
250528
216554
196469
800010
797463
822943
842788
837870
832692
812230
573497
259909
209427
199549
194953
197122
200607
206596
216514
231955
250843
275215
302004
336133
387510
432530
464838
462376
448730
396818
321172
273722
219991
779293
775871
802436
825563
814154
808355
796947
693945
310902
208885
195865
194226
198901
205705
216265
231285
255983
289663
334540
379408
441025
528699
611934
674875
668369
649114
601720
501062
365315
272067
757785
753935
782507
808337
794029
787115
776203
733499
426588
218555
195655
197842
206416
218020
236996
260518
298892
349640
421027
499313
610006
745539
871077
955796
942391
886854
828413
806223
771371
348390
735708
732753
763879
792101
777050
769240
756856
738152
559637
248622
201091
206156
220995
240805
272999
309914
370253
441702
539056
668702
861406
1.0615e+06
1.20797e+06
1.2675e+06
1.20296e+06
1.1446e+06
1.10126e+06
1.42079e+06
1.86617e+06
542740
93285.6
93289
93298.2
93307.3
93316.3
93325.2
93334.1
93343
93352
93360.9
93369.9
93378.8
93387.8
93396.7
93405.7
93414.7
93423.7
93432.7
93441.6
93450.6
93459.6
93468.7
93477.7
93486.7
93495.7
93504.7
93513.7
93522.8
93531.8
93540.8
93549.8
93558.9
93567.9
93576.9
93586
93595.9
93711.9
102823
560447
2.3776e+06
4.58235e+06
6.27454e+06
7.01488e+06
7.61312e+06
7.89514e+06
7.8008e+06
7.58456e+06
7.29481e+06
7.03209e+06
6.79854e+06
6.57983e+06
6.37278e+06
6.16818e+06
5.94447e+06
5.70167e+06
5.43652e+06
5.1479e+06
4.83868e+06
4.52254e+06
4.20803e+06
3.9006e+06
3.60755e+06
3.33349e+06
3.08107e+06
2.84816e+06
2.62892e+06
2.42126e+06
2.23196e+06
2.06008e+06
1.90589e+06
1.76789e+06
1.64399e+06
1.53258e+06
1.4327e+06
1.34322e+06
1.26263e+06
1.18978e+06
1.12417e+06
1.06514e+06
1.01144e+06
962420
917414
875551
836215
799408
765255
733191
703557
676210
651335
629203
609851
593180
578610
565654
553999
543570
534494
526902
520755
515956
512360
509886
508486
508080
508492
509581
511311
513775
517133
521488
526880
533496
541721
551085
561727
573646
587355
602431
618676
635905
654098
673233
692977
713651
79286.2
79286.4
79289
79291.7
79294.5
79297.1
79299.8
79302.4
79305
79307.5
79310.1
79312.6
79315
79317.5
79319.9
79322.3
79324.6
79326.9
79329.2
79331.5
79333.8
79336
79338.2
79340.3
79342.5
79344.6
79346.6
79348.7
79350.7
79352.7
79354.7
79356.6
79358.6
79360.5
79362.3
79364.4
79374.4
80413
249257
3.53381e+06
9.69251e+06
1.51835e+07
1.48103e+07
1.30015e+07
1.11912e+07
9.62664e+06
8.46023e+06
7.51898e+06
6.8188e+06
6.32278e+06
5.99602e+06
5.75647e+06
5.567e+06
5.42081e+06
5.28124e+06
5.14481e+06
5.01992e+06
4.887e+06
4.728e+06
4.53065e+06
4.30185e+06
4.05345e+06
3.78826e+06
3.50973e+06
3.22621e+06
2.94887e+06
2.70371e+06
2.48738e+06
2.30032e+06
2.14201e+06
2.0012e+06
1.87609e+06
1.76364e+06
1.66277e+06
1.5718e+06
1.48922e+06
1.4135e+06
1.34507e+06
1.28424e+06
1.22759e+06
1.17498e+06
1.12584e+06
1.08001e+06
1.03708e+06
996589
958559
922391
887460
854983
824574
796567
771192
748947
729250
711225
694439
679028
665343
653408
643007
633621
624970
617177
610454
604730
599807
595606
592010
588968
586628
585144
584734
585829
588625
592240
596866
603243
611670
621908
633481
647466
663021
679596
696263
713583
78327.1
78326.9
78327.2
78327.6
78327.9
78328.2
78328.6
78328.9
78329.2
78329.5
78329.8
78330.1
78330.4
78330.6
78330.9
78331.2
78331.4
78331.6
78331.9
78332.1
78332.3
78332.5
78332.7
78332.9
78333.1
78333.3
78333.5
78333.7
78333.8
78334
78334.1
78334.3
78334.4
78334.6
78334.8
78337.3
78421.7
87973.8
730999
5.81466e+06
1.00355e+07
9.64835e+06
8.76694e+06
8.4609e+06
9.03521e+06
9.01615e+06
8.60788e+06
8.17173e+06
7.81164e+06
7.42599e+06
7.06788e+06
6.74112e+06
6.47089e+06
6.26518e+06
6.10714e+06
5.98744e+06
5.91909e+06
5.91436e+06
5.95151e+06
5.99183e+06
5.95937e+06
5.80638e+06
5.52611e+06
5.14368e+06
4.72136e+06
4.31055e+06
3.91007e+06
3.53575e+06
3.19481e+06
2.89739e+06
2.6447e+06
2.42441e+06
2.23223e+06
2.06615e+06
1.92226e+06
1.79609e+06
1.68502e+06
1.58813e+06
1.50348e+06
1.42793e+06
1.35919e+06
1.29716e+06
1.24052e+06
1.18807e+06
1.13946e+06
1.09474e+06
1.05282e+06
1.01296e+06
975713
941507
910678
882557
857516
835387
815111
795894
777949
761864
747453
734649
722989
712064
702005
692866
684900
678034
672040
666680
661832
657431
653765
650965
649417
649095
649654
651414
654856
660272
667502
676442
687808
701243
715389
730498
746628
78217.5
78217.6
78217.7
78217.9
78218
78218.2
78218.3
78218.4
78218.6
78218.7
78218.8
78218.9
78219.1
78219.2
78219.3
78219.4
78219.5
78219.7
78219.8
78219.9
78220
78220.1
78220.2
78220.3
78220.4
78220.5
78220.6
78220.7
78220.8
78220.9
78221
78221.1
78221.2
78221.3
78222.9
78287
86031.8
641921