/*--------------------------------*- C++ -*----------------------------------*\
| =========                 |                                                 |
| \\      /  F ield         | OpenFOAM: The Open Source CFD Toolbox           |
|  \\    /   O peration     | Version:  2112                                  |
|   \\  /    A nd           | Website:  www.openfoam.com                      |
|    \\/     M anipulation  |                                                 |
\*---------------------------------------------------------------------------*/
FoamFile
{
    version     2.0;
    format      ascii;
    arch        "LSB;label=32;scalar=64";
    class       volScalarField;
    location    "0.00326";
    object      p;
}
// * * * * * * * * * * * * * * * * * * * * * * * * * * * * * * * * * * * * * //

dimensions      [1 -1 -2 0 0 0 0];

internalField   nonuniform List<scalar> 
13875
(
951586
984261
973638
975690
973385
974416
974556
974384
974866
974875
975063
975233
974692
974835
974786
974775
974466
974703
973808
973865
973090
975583
972397
982515
945407
733803
659532
672275
677226
670281
668563
668606
670306
677597
679065
679174
679009
670313
669353
670359
677792
678673
677111
670198
668182
669254
676939
672338
657262
730900
736893
635538
664407
653491
648207
645900
645027
645522
647346
646430
648389
646213
645729
645563
645455
648457
645200
647594
646115
646255
647643
651883
661950
632191
733648
743539
636183
665289
653640
648486
646091
645166
645579
645187
644404
645277
644821
645813
645671
645523
645644
643645
645322
646203
646465
647926
652005
662697
632798
739328
757375
639193
667838
654328
649344
646661
645578
645820
645264
644546
645358
644976
646059
645964
645765
645719
643828
645405
646513
647039
648739
652595
664982
635445
750493
759093
647859
673607
656277
651189
647876
646444
646390
645571
644986
645673
645424
646584
646568
646302
645994
644365
645729
647220
648234
650507
654480
670567
643196
751914
765175
668397
685857
661208
655003
650366
648197
647620
646458
645998
646470
646460
647706
647792
647412
646692
645544
646745
648823
650767
654406
660184
682142
665966
756117
791523
718514
711904
674766
663337
655704
651836
650284
648688
648191
648310
648627
650023
650287
649719
648443
647983
649176
652152
655833
662414
673254
707327
715691
782312
909518
828336
767255
705250
680398
666457
659205
655876
653634
652829
652447
653114
654839
655363
654489
652565
653002
654584
658958
665903
678584
701885
761088
824089
911091
1.52713e+06
1.03055e+06
836220
743642
702977
682098
671502
666289
663524
662224
661459
662449
664668
665468
664353
661921
662948
665107
670511
681244
701299
740724
832141
1.02777e+06
1.52289e+06
2.91627e+06
1.39694e+06
967497
809330
741809
710044
694746
687265
683583
681529
680600
681624
684374
685481
684488
682079
683116
686014
692615
707208
737319
800949
950158
1.3572e+06
2.87717e+06
5.63689e+06
2.3559e+06
1.32744e+06
976174
830460
772292
746449
734222
728279
725406
724339
724887
727974
729412
728791
727470
728872
733441
744152
768395
824005
961441
1.28976e+06
2.29187e+06
5.61529e+06
5.42936e+06
4.839e+06
2.471e+06
1.53113e+06
1.08303e+06
943689
885604
858935
846793
841664
839686
839251
842054
843940
844363
845784
850106
861138
887117
944807
1.08348e+06
1.498e+06
2.34285e+06
4.89729e+06
5.38671e+06
4.91009e+06
4.71029e+06
4.99479e+06
4.46039e+06
1.88501e+06
1.496e+06
1.34766e+06
1.27612e+06
1.24802e+06
1.23642e+06
1.23219e+06
1.23089e+06
1.23299e+06
1.23482e+06
1.23829e+06
1.24493e+06
1.25955e+06
1.29291e+06
1.37724e+06
1.55807e+06
2.03969e+06
4.51149e+06
4.97432e+06
4.7788e+06
4.82096e+06
4.16768e+06
4.3171e+06
4.86474e+06
4.83731e+06
4.57627e+06
3.44137e+06
3.25682e+06
2.94638e+06
2.80326e+06
2.74282e+06
2.71773e+06
2.70611e+06
2.70456e+06
2.7078e+06
2.72058e+06
2.75029e+06
2.81638e+06
2.96801e+06
3.31965e+06
3.53912e+06
4.55199e+06
4.81969e+06
4.87814e+06
4.47371e+06
4.41046e+06
3.80648e+06
3.86343e+06
4.52443e+06
5.13617e+06
6.46456e+06
7.76292e+06
8.64692e+06
8.5738e+06
8.79623e+06
8.71135e+06
8.77755e+06
8.70409e+06
8.74975e+06
8.71397e+06
8.7591e+06
8.72037e+06
8.78642e+06
8.60196e+06
8.69443e+06
7.8959e+06
6.5471e+06
5.19969e+06
4.63653e+06
4.02119e+06
4.0438e+06
3.03624e+06
3.44509e+06
4.53173e+06
5.38014e+06
6.69261e+06
7.53908e+06
7.78035e+06
7.70528e+06
7.5297e+06
7.40058e+06
7.32718e+06
7.28706e+06
7.26303e+06
7.27114e+06
7.31306e+06
7.38075e+06
7.5151e+06
7.6887e+06
7.74438e+06
7.59493e+06
6.79123e+06
5.44969e+06
4.63744e+06
3.5583e+06
3.21023e+06
2.37885e+06
3.17823e+06
4.54556e+06
5.33918e+06
6.09153e+06
6.23993e+06
6.06653e+06
6.03869e+06
6.03335e+06
6.04049e+06
6.04323e+06
6.03686e+06
6.03508e+06
6.03584e+06
6.03974e+06
6.03004e+06
6.01839e+06
6.0176e+06
6.04585e+06
6.18707e+06
6.1151e+06
5.44236e+06
4.58296e+06
2.95768e+06
2.18901e+06
1.24638e+06
2.0733e+06
3.85747e+06
4.33621e+06
4.57912e+06
4.77171e+06
4.9336e+06
5.12671e+06
5.29797e+06
5.40243e+06
5.45622e+06
5.4826e+06
5.49231e+06
5.48288e+06
5.45705e+06
5.3998e+06
5.29943e+06
5.1362e+06
4.96257e+06
4.83083e+06
4.66537e+06
4.45957e+06
3.90789e+06
2.20778e+06
1.23604e+06
603341
1.33187e+06
2.89153e+06
3.23299e+06
3.41618e+06
3.72648e+06
4.12726e+06
4.46552e+06
4.69579e+06
4.83007e+06
4.91253e+06
4.96089e+06
4.98068e+06
4.96771e+06
4.92509e+06
4.84693e+06
4.7215e+06
4.50084e+06
4.16584e+06
3.76477e+06
3.45555e+06
3.23102e+06
2.72578e+06
1.47708e+06
625176
684327
1.20392e+06
1.82622e+06
2.26371e+06
2.59368e+06
3.0248e+06
3.51456e+06
3.87441e+06
4.11457e+06
4.26704e+06
4.36843e+06
4.42914e+06
4.45271e+06
4.43746e+06
4.38434e+06
4.28856e+06
4.14299e+06
3.90565e+06
3.52232e+06
3.00967e+06
2.57379e+06
2.23761e+06
1.75624e+06
1.10667e+06
672468
998059
1.0677e+06
1.23833e+06
1.70886e+06
2.05697e+06
2.55887e+06
3.0061e+06
3.33449e+06
3.57072e+06
3.73147e+06
3.83876e+06
3.90211e+06
3.92644e+06
3.90898e+06
3.8511e+06
3.74737e+06
3.58943e+06
3.35333e+06
3.00686e+06
2.53291e+06
2.00996e+06
1.67536e+06
1.19552e+06
1.00063e+06
937899
1.39497e+06
1.0736e+06
1.07072e+06
1.38316e+06
1.71024e+06
2.21691e+06
2.58809e+06
2.87078e+06
3.09471e+06
3.25232e+06
3.35594e+06
3.41755e+06
3.43998e+06
3.42038e+06
3.3615e+06
3.25778e+06
3.09927e+06
2.87184e+06
2.57861e+06
2.20367e+06
1.6548e+06
1.34881e+06
1.04869e+06
1.02432e+06
1.39219e+06
1.44457e+06
1.09338e+06
1.07666e+06
1.23344e+06
1.49945e+06
1.91424e+06
2.22251e+06
2.47813e+06
2.67785e+06
2.82039e+06
2.92306e+06
2.98123e+06
3.00376e+06
2.98273e+06
2.92544e+06
2.82038e+06
2.67308e+06
2.46913e+06
2.19492e+06
1.88578e+06
1.46958e+06
1.1982e+06
1.0523e+06
1.05442e+06
1.41125e+06
1.44394e+06
1.12999e+06
1.09297e+06
1.16248e+06
1.35745e+06
1.66399e+06
1.91734e+06
2.14861e+06
2.32579e+06
2.45462e+06
2.54766e+06
2.60332e+06
2.62119e+06
2.60342e+06
2.54942e+06
2.45124e+06
2.31675e+06
2.13533e+06
1.8884e+06
1.62803e+06
1.33324e+06
1.13325e+06
1.06721e+06
1.10291e+06
1.4108e+06
1.44851e+06
1.18673e+06
1.12792e+06
1.12735e+06
1.25154e+06
1.46122e+06
1.67103e+06
1.87132e+06
2.02476e+06
2.14006e+06
2.22466e+06
2.26958e+06
2.28903e+06
2.26904e+06
2.22145e+06
2.13335e+06
2.01065e+06
1.85331e+06
1.64349e+06
1.42815e+06
1.2353e+06
1.10555e+06
1.10053e+06
1.17001e+06
1.4112e+06
1.45875e+06
1.27889e+06
1.16862e+06
1.12777e+06
1.17674e+06
1.31146e+06
1.47819e+06
1.64428e+06
1.77591e+06
1.87667e+06
1.94839e+06
1.98851e+06
2.0014e+06
1.98625e+06
1.94018e+06
1.86597e+06
1.75802e+06
1.62256e+06
1.45191e+06
1.27693e+06
1.15249e+06
1.10584e+06
1.15077e+06
1.30185e+06
1.42612e+06
1.49553e+06
1.46537e+06
1.20724e+06
1.12526e+06
1.122e+06
1.19164e+06
1.31634e+06
1.44889e+06
1.55865e+06
1.64687e+06
1.71087e+06
1.7432e+06
1.75707e+06
1.74034e+06
1.70352e+06
1.63776e+06
1.54441e+06
1.43242e+06
1.29734e+06
1.16748e+06
1.10305e+06
1.10594e+06
1.18633e+06
1.46689e+06
1.4694e+06
1.58039e+06
1.55626e+06
1.23279e+06
1.11564e+06
1.08648e+06
1.10961e+06
1.195e+06
1.29487e+06
1.38394e+06
1.45671e+06
1.50804e+06
1.53871e+06
1.54768e+06
1.5348e+06
1.50076e+06
1.44627e+06
1.36771e+06
1.27522e+06
1.17481e+06
1.08775e+06
1.06857e+06
1.09946e+06
1.21311e+06
1.52366e+06
1.56729e+06
1.76246e+06
1.60675e+06
1.24734e+06
1.1009e+06
1.05136e+06
1.04796e+06
1.094e+06
1.16243e+06
1.23118e+06
1.29137e+06
1.33712e+06
1.35987e+06
1.36917e+06
1.35518e+06
1.32871e+06
1.28115e+06
1.21665e+06
1.14531e+06
1.07499e+06
1.02926e+06
1.03374e+06
1.08501e+06
1.23885e+06
1.59008e+06
1.72651e+06
1.84067e+06
1.64241e+06
1.27201e+06
1.08634e+06
1.01206e+06
993320
1.01398e+06
1.05835e+06
1.10835e+06
1.15469e+06
1.18916e+06
1.21085e+06
1.21669e+06
1.20738e+06
1.18237e+06
1.14561e+06
1.09626e+06
1.04522e+06
999967
979957
998908
1.07292e+06
1.25818e+06
1.62463e+06
1.86376e+06
1.84064e+06
1.66161e+06
1.31523e+06
1.08336e+06
978156
946017
944510
970059
1.00258e+06
1.0356e+06
1.06515e+06
1.07987e+06
1.08695e+06
1.07783e+06
1.05917e+06
1.02812e+06
991893
958319
931069
932732
963712
1.06826e+06
1.28901e+06
1.65008e+06
1.8623e+06
1.83353e+06
1.66341e+06
1.36952e+06
1.08514e+06
948204
899412
888906
897662
918943
940108
959082
972285
976149
970144
952823
932282
908389
886477
876210
886875
935535
1.07143e+06
1.346e+06
1.65704e+06
1.85693e+06
1.81871e+06
1.66296e+06
1.4823e+06
1.09649e+06
926580
857029
835640
832301
842331
854115
869384
876930
881230
875385
864707
848368
834822
823952
826958
847349
914928
1.07924e+06
1.4367e+06
1.65436e+06
1.83768e+06
1.78954e+06
1.66014e+06
1.56312e+06
1.12389e+06
919012
823025
788688
779978
781226
786155
793146
799316
800922
797595
788602
780550
774554
771680
780300
814554
911366
1.10345e+06
1.58813e+06
1.64905e+06
1.7986e+06
1.76169e+06
1.64212e+06
1.56118e+06
1.15284e+06
920956
796045
746742
728987
724780
724658
728003
730432
731845
728060
724523
719981
719012
722511
739592
788533
915804
1.15012e+06
1.59115e+06
1.63477e+06
1.72696e+06
1.7172e+06
1.60469e+06
1.55657e+06
1.2133e+06
931433
780433
712546
686469
677521
674584
673359
673978
673457
672005
670457
670972
673141
680747
706765
774819
923555
1.21646e+06
1.58054e+06
1.59878e+06
1.6867e+06
1.66925e+06
1.55695e+06
1.54391e+06
1.33416e+06
956895
780728
687415
648555
633341
627051
624508
622528
622536
621499
622503
624620
629774
643599
681028
775604
945512
1.35038e+06
1.55836e+06
1.54421e+06
1.64653e+06
1.63726e+06
1.51243e+06
1.50865e+06
1.34411e+06
988009
784204
672396
619742
598673
589507
583358
580757
579704
580271
581569
586630
595466
615269
668646
784011
991638
1.35701e+06
1.51265e+06
1.49768e+06
1.61008e+06
1.60096e+06
1.47297e+06
1.43841e+06
1.34098e+06
1.05401e+06
797666
672882
597634
566535
552459
546348
541925
541537
541850
545307
550869
563981
594430
668970
796386
1.06476e+06
1.3502e+06
1.41721e+06
1.45857e+06
1.58459e+06
1.55701e+06
1.43417e+06
1.36148e+06
1.32958e+06
1.18645e+06
826538
677119
587044
544146
526197
515273
511116
509220
510557
514135
523801
542231
585112
673038
824353
1.2132e+06
1.33251e+06
1.33767e+06
1.42639e+06
1.54901e+06
1.52446e+06
1.40267e+06
1.30052e+06
1.29743e+06
1.186e+06
868717
683460
587333
528098
499674
487533
481491
480388
480650
486920
497870
525768
585829
688022
884578
1.21264e+06
1.29446e+06
1.28242e+06
1.396e+06
1.50452e+06
1.47681e+06
1.37417e+06
1.2532e+06
1.23312e+06
1.1787e+06
957478
702210
591277
523410
485889
465209
458433
455645
457837
464063
483373
520565
588893
713003
991746
1.19614e+06
1.22339e+06
1.23655e+06
1.3658e+06
1.46964e+06
1.42599e+06
1.34422e+06
1.21835e+06
1.17075e+06
1.1581e+06
1.04359e+06
739451
602263
524182
470826
446844
435922
433682
435460
446067
469874
521354
598519
763226
1.04669e+06
1.15995e+06
1.16077e+06
1.2065e+06
1.33866e+06
1.42682e+06
1.38771e+06
1.30967e+06
1.19043e+06
1.1189e+06
1.11118e+06
1.03966e+06
804150
622022
526370
470670
436988
421574
416029
420818
435920
469955
526642
623020
869355
1.04133e+06
1.08915e+06
1.10775e+06
1.18363e+06
1.30259e+06
1.37545e+06
1.34684e+06
1.27669e+06
1.17095e+06
1.07554e+06
1.04543e+06
1.02718e+06
938238
665033
535816
472253
436339
411543
404261
410744
433856
471049
537940
666561
927543
1.02022e+06
1.02615e+06
1.06651e+06
1.16613e+06
1.26895e+06
1.34157e+06
1.30034e+06
1.23498e+06
1.15018e+06
1.04779e+06
997377
997844
937589
752970
558229
477257
436978
411056
399063
410590
434382
474988
562750
754740
924331
975585
979113
1.03882e+06
1.1467e+06
1.2326e+06
1.29758e+06
1.2589e+06
1.19983e+06
1.13021e+06
1.02868e+06
957644
942975
926309
844265
601082
487660
438742
411471
399542
411177
437537
486934
617915
840925
913004
923148
943961
1.02172e+06
1.12619e+06
1.19491e+06
1.24838e+06
1.17577e+06
1.14744e+06
1.10088e+06
1.01401e+06
933776
898985
900500
842501
691644
511135
445571
413648
401627
413206
445391
510684
727333
839291
886088
883255
923298
1.00666e+06
1.09632e+06
1.1408e+06
1.1613e+06
1.04665e+06
1.07654e+06
1.05994e+06
993328
914808
860466
851997
831958
765880
561269
463645
419947
407195
419301
464237
560340
763059
827571
842398
849387
907075
986511
1.05261e+06
1.07046e+06
1.03602e+06
77414.5
75976.1
75454.4
76246.1
75827.6
76205.9
76218.1
76408.3
76821.8
77441.8
78139.2
78729.4
79396.3
80520.9
82338.4
84591
87232.5
90208.1
93644.8
97660.9
101701
105863
109456
111451
105590
81898
73681.2
71374.7
70753
70720.9
77005.7
75270.1
75223.6
76022.2
75874
76185.3
76147.1
76228
76459.7
76895.7
77503.8
78037.2
78368.3
78948.8
80475.2
83004.2
85601.8
88624.7
92242.5
96459.5
101266
106180
111074
115218
117776
113172
83536.1
73722.1
71272.1
70843
76609.8
74882.6
75146.3
76020.9
76015.4
76271.1
76218.9
76251.3
76405
76716.2
77145.7
77513.4
77730
78088.3
79138.8
81429.4
84288.9
87663.1
91529.9
95931.7
101122
106471
111950
117052
121563
123533
111764
80588.8
72895.6
71218.9
75429
74751.6
75069.2
76014.9
76076.2
76310.4
76267.3
76272.2
76391.6
76648.4
76957.5
77240
77403.7
77645.6
78491.2
80314.8
83509.1
87082.8
91139.1
95628.1
100685
106485
112199
117722
122696
126415
125371
104223
78085
72545.6
74803.1
74738
75064.1
76065.8
76292.4
76562.9
76563.3
76532
76530.9
76672.7
76918.9
77168
77315.6
77515.4
78274.4
79854.2
83015.8
86730.3
90872.2
95323.5
100263
105938
112157
117799
122871
126984
129005
125239
94906.8
77692.4
74658.9
75049.5
75333.5
76418.9
76905
77393.7
77457.2
77410.9
77334.3
77278.7
77319
77404.1
77489.8
77617.6
78246
79762.6
82681.2
86516.7
90697.1
95144.6
99953.9
105210
111069
117293
122768
127037
130579
133111
125407
98788.2
74676.7
75549.7
75815.4
76903.9
77533.7
78003.4
78203.8
78296
78238.2
78091.2
77926.1
77831.1
77868.5
78041.9
78343.2
79805.8
82361.3
86218.9
90360.1
94799.3
99436.5
104321
109741
115754
121771
126787
131286
139149
152567
212072
75138.8
76257.6
76504.5
77407.4
77824.4
78206.6
78476.6
78730.1
78844.9
78872.6
78698.1
78600.9
78617.9
78697.6
78891.6
79793.5
81998.4
85554.2
89642.9
93925.1
98408.4
103124
108248
113980
120087
124643
131989
146436
183071
292880
76099
77201.5
77380.4
77884.8
78076.2
78434.2
78765.4
79131.3
79461.8
79639.2
79690.6
79524.7
79406.2
79465
79606.9
79787.9
81496.1
84492.6
88498.6
92618.5
97036.6
101746
106775
112219
117456
123378
133795
158634
240082
305253
77379.3
78254.2
78292.7
78462.3
78567
78926
79270.8
79723.6
80235.5
80601.4
80763.1
80473.7
80229.7
80127.9
79943.2
79961.1
80981.4
83387.6
87193.3
91283.1
95642.6
100346
105316
110530
114774
123040
139681
185661
283707
304893
78689.2
79238.4
79156.7
79158.4
79247.9
79559
79919.3
80477.6
81145.2
81499.3
81652.9
81337.7
81040.5
80446.4
80152.8
80091.3
80569.5
82523.4
85980.4
90108.2
94397.4
99030.8
103871
108632
114006
124518
150757
258016
292119
295277
79773.4
80054.8
79919.8
79915.8
79972.8
80193.2
80629.2
81343.6
82027.8
82379.2
82571.5
82155.2
81492.1
80670.4
80254
80135.3
80271.3
81856
84915.8
89098.9
93311.8
97825.6
102478
106428
113933
129447
172947
284115
290505
278898
80541.2
80690.2
80632.9
80632.3
80673.8
80852
81442.9
82053
82594.2
82891.8
83063.7
82555.1
81710.4
80772
80289.8
80124.9
80061
81295.7
84035.1
88121.6
92301.3
96658.7
101157
105916
115143
139901
237350
286588
284641
264883
81028.4
81218.2
81297.3
81321.2
81349
81567.3
81860.9
82368.6
82864.3
83143
83301.7
82733.3
81799.3
80823.2
80305.7
80023.5
79863
80758.7
83230.6
87129.4
91292.2
95518
99734.4
105922
119123
162119
269170
286305
275168
255391
81415.8
81720.4
81863.6
81875.7
81899.2
81987.8
82016.8
82485.7
82955.4
83237.8
83387.7
82785.6
81817.1
80834.7
80221.2
79718.9
79530.4
80077.9
82333.6
86024.8
90237.5
94425.5
98481.6
106748
128025
219674
274143
281890
264326
248614
81804
82157.7
82337.2
82264
82182.2
82115.9
82060.4
82508.1
82964.5
83253.7
83401.8
82759.9
81687.3
80721.6
80008.4
79257.2
78992.3
79160.2
81147.1
84655.5
89024.7
93336.1
98415.1
109691
148007
255026
273895
274647
255174
244849
82196.3
82448.6
82658.6
82623.2
82333.3
82136.9
82076.2
82361.6
82787.6
83061.8
83183.6
82325.8
81176.5
80163.8
79104.4
78335.1
78094.9
77988.2
79643.1
83022.6
87587.8
92182.5
98774
116360
193850
262076
269543
266735
249567
242822
82757.8
82827.3
83064.4
82994.5
82503.3
82093.3
81926.2
81960.4
82233.2
82447
82586.9
81640
80424
79310.4
78466.2
77710.8
77049.6
76747
78047.1
81236.8
85945.8
90541
100405
130863
237978
262459
263359
258337
246001
241772
83053.9
82974.2
82947.9
83083.8
82630.6
81953.6
81666.8
81570.4
81748.6
81820.8
81769.9
80805.5
79671.2
78708.3
78260.1
77367.9
76235.7
75716.5
76615.3
79516.2
84278.1
89736.5
104266
165080
250218
260510
257381
250837
242467
240613
83787.3
83559.6
83998.6
83727.4
83313.6
82235.7
81602
81300.3
81086.3
81032.3
80686
79768.4
79046.9
78441.4
78226.3
76819.1
75555.9
75065.9
75165.5
77860
82750.3
90054.9
111876
210787
252877
257212
251243
245306
239762
239102
83698
83549.7
83077.7
83363.9
82686.2
82458.1
81663
80642.4
79950.9
79650.4
79505.6
79018
78569
77822.8
76504.1
74750.9
73731.1
73264.8
73215.1
76083
81157.2
91510.3
134386
233947
252846
253597
245733
241386
237830
237396
85180.2
84067.3
84711.3
84726.6
83775.4
81915.3
81091.4
80133.3
79445.4
79024.7
78775
78695.7
78104.2
76310.4
74562.9
73692.3
72871
72055
71524.2
74369.8
79917.1
95199.1
170473
241990
250848
249522
241619
238377
235935
235412
82630.3
83530.8
82708.6
82511.8
81769.9
81487
80911.3
80041
79365.7
78782.2
78486.9
78031.7
76547.8
74590.1
73617.4
73282.9
72646.6
71666.8
70949.1
72786.3
79938.7
104131
208994
243818
248012
244560
238674
235922
234174
233500
88562.3
83698.9
84454.2
83552.2
82993
81706.6
81039.7
79571.3
78584.9
78139.5
77433.6
76208.1
74582.5
73549.1
73170.1
73166.1
72801.4
71977.4
71003.6
71650.7
81447.6
131111
225188
243561
245164
239847
235569
233597
232291
231660
66788.2
80101.9
81391.8
81884
81322.5
80601.1
80054.6
78435.3
77738.7
76775.8
75876.3
74342.1
73431.2
72974.4
72815
73083
72906.4
72180.9
71082
71631.1
85615.4
167121
232018
241858
242254
235494
232612
231430
230365
229821
70719.8
70748.3
71353.7
73583.6
81504.3
105089
111287
109345
105779
101642
97596.6
93581.5
90168.4
87187.6
84551.6
82296.9
80478.8
79363.5
78702.6
78112.4
77408.1
76788.2
76372.5
76177.7
76158.3
75777.5
76182.7
75402.7
75932.3
77384.7
70838
71251.7
73621.7
83070.3
112586
117645
115139
111010
106138
101221
96378.9
92151.8
88523.1
85517.7
82961.7
80461.5
78930.2
78366.2
78038.3
77501.2
76887.7
76450.6
76216.1
76129.2
76164.5
75844.7
75995.8
75206.1
75229.1
76977.1
71201.7
72819.9
80277.2
110884
123365
121519
117010
111925
106452
101092
95938.1
91529.8
87645.8
84284.5
81382.3
79133.5
78071.5
77717.7
77508.2
77150
76722.5
76408.2
76250.7
76215.7
76268.1
76011
76026.2
75155.4
74880.7
76577.1
72482.4
77856.4
103304
125205
126372
122668
117700
112196
106475
100689
95641.9
91163.2
87109.5
83515.7
80323.8
78452.1
77624.7
77386.2
77231.7
76964.6
76660.4
76398.3
76278.3
76275.4
76321.2
76090.3
76029.7
75094.7
74771.2
75425.9
77468.4
94183.2
124976
128940
126967
122846
117782
112167
105987
100305
95358.5
90916.6
86778.4
83056.9
79882.5
78207.1
77490
77296
77159.7
76928
76694.2
76559.1
76572.1
76614.6
76623.8
76357.5
76120.6
75115.2
74772
74828.3
97937.9
124579
132949
130544
127022
122763
117331
111135
105271
100013
95206.7
90761.3
86580.7
82740.4
79796.6
78177.7
77583.3
77478.2
77410.8
77342.3
77342.8
77425.2
77522.3
77585.2
77536.3
77056.5
76557.2
75452.7
75141.6
74702.1
209559
152005
139073
131260
126796
121822
115837
109827
104400
99514.6
94879.8
90440.7
86294.2
82422.1
79796.8
78400.2
78087.3
77921.1
77922
78024.6
78222.1
78472.9
78584.9
78505.4
78275.6
77789
77145
76014.1
75721.8
74787.4
292528
182776
146320
131976
124722
120188
114090
108348
103211
98492.2
94010.9
89728
85630
82051.1
79760.4
79114.5
78893.7
78771.5
78790.4
78934.6
79189.4
79262.2
79120.3
78843.6
78528.5
78120.6
77728.3
76793.8
76522.9
75326.2
305395
239797
158598
133853
123485
117596
112337
106875
101836
97122.3
92698
88572.5
84556.8
81550.9
79932.3
79812.7
79741.7
79662.9
79807.5
80063.1
80093.6
79881
79571.4
79147.9
78789.6
78409.5
78232.3
77751.9
77560.3
76382
305109
283981
185524
139747
123152
114889
110640
105409
100427
95718.2
91351.9
87257.8
83450.9
81065
80151.4
80227.8
80430.3
80590.7
80864.8
81263.2
81114.2
80742.2
80161.5
79647.7
79295.3
78929.5
78840.2
78697.6
78681
77752.4
295806
292546
258173
150864
124621
114113
108751
103958
99108
94468.9
90174.7
86050.5
82619.2
80709.2
80355.8
80429.7
80770.8
81553.6
81951.5
82364.3
82106.2
81633.2
80879.4
80302.8
79947.6
79644.6
79564.1
79577.5
79707.6
79134.3
279533
290982
284490
173134
129560
114036
106514
102560
97897.5
93380.4
89171.4
84999.2
81994
80480.5
80435.5
80570
81045.1
82094.5
82890.4
83312.6
83035.6
82495.9
81636.8
80978.7
80598.4
80402.1
80346.5
80352.5
80529.8
80239.3
265457
285162
286993
237830
140042
115227
105985
101235
96728.2
92370.3
88204.1
84135.3
81482.2
80343.6
80450.5
80703.5
81300
82377.3
83321.8
83713.5
83508.1
83040.6
82438.8
81755.9
81260.9
81125.3
81093.2
81079.1
81135.7
80941.5
256012
275711
286697
269529
162381
119200
105985
99766.3
95576.3
91354.8
87223.3
83356
80996.5
80209.9
80404
80801.5
81440.8
82485.8
83492.5
83889.6
83726
83313
82792.4
82324.1
82056.8
81853.2
81815.6
81759.2
81626.6
81388
249255
264848
282221
274449
220352
128140
106778
98494.1
94455.4
90283.3
86135.7
82498.2
80371.6
79954.5
80207.8
80813.5
81477.8
82512.4
83539.7
83951.8
83798.5
83416.9
82936.2
82543.7
82535.9
82479.4
82443.8
82354.9
82098.5
81767.6
245079
255524
274928
274165
255263
148267
109706
98421.2
93336
89057.1
84798.7
81378.4
79534.9
79530
79806.2
80707
81466.1
82469.2
83529.5
83956.3
83804.5
83431.5
82974.1
82622.8
82671.3
82785.4
82864.7
82831.5
82550.2
82174.4
242953
249718
266951
269684
262140
194427
116389
98768.2
92171.8
87649.3
83228.3
79984.9
78497
78725.8
79129.1
80082
81082.8
82051.9
83117
83658.1
83555.1
83237
82868
82643.9
82693.3
82900.1
83182.5
83101.1
82841.6
82593.5
241576
245976
258473
263352
262469
238155
131088
100429
90519.8
86092.6
81551.3
78521.9
77467.9
77848
78749.1
79628.2
80383.3
81295
82336.8
83014.1
82937.8
82713.3
82478.5
82446.8
82584.4
82956
83429.1
83426.9
83218.4
83267.3
240417
242293
250706
257217
260394
250204
165596
104348
89911.7
84540.8
79958.5
77219.5
76659.8
77276.1
78583.7
79411.5
79768.6
80490.1
81430.8
82149.2
82080.7
82049.2
81980.3
82050.5
82340.8
82994.8
83325.2
83231.5
83316.4
83530.4
238778
239405
244996
250902
256994
252762
211490
112147
90299.1
83106.2
78457.2
75922.1
75951.5
76513.7
78064.1
79088.3
79261.4
79724.1
80465.3
81293.6
81681.6
81557.1
81644.1
81880.9
82389.1
83463.1
83951.7
84311.1
83919.6
84274.5
237011
237441
241022
245338
253332
252695
234245
135228
91901.4
81558.5
76817.3
74192.7
74302
74747.9
75706.7
77301.4
78322.7
78866
79256.5
79985.5
80230
80623.5
80877.1
81475.2
82396.7
82639
83400.9
83286.1
83833.5
84131.8
234984
235519
238009
241285
249204
250726
242276
171788
95829.9
80629.2
75283.6
72570
73223.8
73937.9
74479.9
75238.9
76619.3
77970.5
78654.9
78917.9
79153.6
79653.9
80372.5
81314.8
82007.7
83391
84328.4
84809.5
84356.9
85619.2
232876
233578
235433
238223
244186
248032
244154
210391
105286
80810.5
73880.7
72024.5
72882.1
73676.8
73901.4
74116.2
74885.2
76467.2
78103.3
78415.5
78537.3
78909.2
79680.1
80871.9
81535
81918.9
82916.8
83287.8
83829.4
82947.8
231099
231727
233084
235117
239538
245340
243923
226435
133066
82541.1
72818.1
72002.5
72984
73595.1
73641.5
73459.1
73859.7
74895.8
76763.6
77818.6
78250.3
78499
79190.4
80566.8
81293.6
82694.9
83534.7
84726.4
83879.6
88824
229373
229873
230956
232292
235421
242670
242422
233280
169643
86924.5
72808.6
71953.8
73077.3
73576.1
73426.5
73047.2
73327.1
73878.9
74736.5
76252.1
77286.3
78187.7
78916.4
80626
80764.7
81157.9
82039.1
81484.8
80026.1
66810
70637
70637
70637
70637
70637
70637
70637
70637
70637
70637
70637
70637
70637
70637
70637
70637
70637
70637
70637
70637
70637
70637
70637
70637
70637
70637
70637
70637
70637
70637
70637
70637
70637
70637
70637
70638
70751.5
74889.7
185947
594348
1.02076e+06
1.55484e+06
1.81123e+06
1.94898e+06
2.06404e+06
2.12099e+06
2.16523e+06
2.18395e+06
2.19502e+06
2.20423e+06
2.20797e+06
2.20857e+06
2.20343e+06
2.18104e+06
2.14417e+06
2.09223e+06
2.02452e+06
1.93572e+06
1.83371e+06
1.72441e+06
1.61156e+06
1.49991e+06
1.39452e+06
1.29723e+06
1.20723e+06
1.12102e+06
1.03726e+06
961415
893085
832090
777928
729390
685951
647112
612145
580337
551196
524781
501019
479284
459420
441169
424109
408022
392959
378736
365048
352174
340015
328676
318312
308960
300603
293066
286130
279622
273479
267743
262435
257496
252834
248425
244345
240631
237256
234143
231262
228639
226331
224423
222971
221892
221181
221028
221086
221351
221721
222471
223272
224004
224755
225416
226177
226875
227849
70637
70637
70637
70636.9
70636.9
70636.9
70636.9
70636.9
70636.9
70636.9
70636.9
70636.9
70636.9
70636.9
70636.9
70636.9
70636.9
70636.9
70636.9
70636.9
70636.9
70636.9
70636.9
70636.9
70636.9
70636.9
70636.9
70636.9
70636.9
70636.9
70636.9
70636.9
70636.9
70636.9
70636.9
70637.2
70645.3
71022.8
82777.5
302469
894770
1.89194e+06
2.32161e+06
2.43382e+06
2.43898e+06
2.40685e+06
2.3441e+06
2.24146e+06
2.11653e+06
2.00875e+06
1.94664e+06
1.91635e+06
1.89283e+06
1.87074e+06
1.84406e+06
1.81253e+06
1.78425e+06
1.75567e+06
1.72041e+06
1.67175e+06
1.6095e+06
1.53723e+06
1.45523e+06
1.36313e+06
1.26223e+06
1.15577e+06
1.05931e+06
971558
893277
826633
767447
714720
668249
627583
591942
560072
531371
506266
484762
465027
446587
429405
413307
398212
384132
371032
358430
346044
334398
323620
313821
304942
296915
289602
282831
276443
270381
264697
259430
254533
249912
245543
241503
237809
234435
231309
228422
225789
223452
221494
219898
218760
218102
217961
217992
218111
218447
219090
220059
221182
222777
224331
225803
226979
228212
70637
70637
70637
70637
70637
70637
70636.9
70636.9
70636.9
70636.9
70636.9
70636.9
70636.9
70636.9
70636.9
70636.9
70636.9
70636.9
70636.9
70636.9
70636.9
70636.9
70636.9
70636.9
70636.9
70636.9
70636.9
70636.9
70636.9
70636.9
70636.9
70636.9
70636.9
70636.9
70637
70640
70711.9
72230.6
94944.3
310168
830200
1.1116e+06
1.27261e+06
1.50575e+06
2.06137e+06
2.47799e+06
2.60949e+06
2.62306e+06
2.59385e+06
2.4652e+06
2.28914e+06
2.10636e+06
1.94432e+06
1.8216e+06
1.73304e+06
1.66314e+06
1.60847e+06
1.57551e+06
1.55726e+06
1.54276e+06
1.51861e+06
1.47395e+06
1.40743e+06
1.31924e+06
1.2232e+06
1.13636e+06
1.0493e+06
965666
889174
821244
763199
711651
665656
624751
588537
556183
526952
501295
479101
459032
440534
423334
407234
392326
378595
365866
353807
342083
330783
320165
310488
301717
293902
286817
280208
273900
267856
262146
256810
251820
247138
242747
238683
234952
231535
228384
225478
222877
220613
218658
217157
216092
215562
215504
215577
215861
216537
217729
219088
220621
222483
224468
226126
227506
228997
70637
70637
70637
70637
70637
70637
70636.9
70636.9
70636.9
70636.9
70636.9
70636.9
70636.9
70636.9
70636.9
70636.9
70636.9
70636.9
70636.9
70636.9
70636.9
70636.9
70636.9
70636.9
70636.9
70636.9
70636.9
70636.9
70636.9
70636.9
70636.9
70636.9
70636.9
70637
70638.8
70693.3
71990.5
92980.1
290873
603101
775962
864605
931533
1.02427e+06
1.16666e+06
1.36354e+06
1.62465e+06
2.18359e+06
2.51025e+06
2.59867e+06
2.6022e+06
2.55283e+06
2.40017e+06
2.18244e+06
1.96682e+06
1.79787e+06
1.67288e+06
1.5803e+06
1.51801e+06
1.46781e+06
1.40665e+06
1.33061e+06
1.25313e+06
1.1788e+06
1.11216e+06
1.05061e+06
986227
914671
848649
789640
737184
690093
647450
608808
573864
542552
513878
488170
465113
444430
425791
408681
392743
378207
365098
353087
341955
331517
321406
311360
301783
293307
286076
279646
273501
267441
261505
255785
250352
245234
240458
236027
231929
228128
224609
221365
218415
215874
213720
211912
210558
209491
209237
209307
209589
210256
211576
213483
215506
217900
220619
223498
226022
227919
229786
70637
70637
70637
70637
70637
70637
70637
70636.9
70636.9
70636.9
70636.9
70636.9
70636.9
70636.9
70636.9
70636.9
70636.9
70636.9
70636.9
70636.9
70636.9
70636.9
70636.9
70636.9
70636.9
70636.9
70636.9
70636.9
70636.9
70636.9
70636.9
70636.9
70637
70638
70673.6
71664
89688.5
301244
587312
698251
752130
793266
827629
867518
920133
992763
1.07879e+06
1.19621e+06
1.36157e+06
1.62018e+06
2.13877e+06
2.3487e+06
2.38953e+06
2.35685e+06
2.2275e+06
2.07016e+06
1.93343e+06
1.83777e+06
1.74817e+06
1.60546e+06
1.41858e+06
1.24541e+06
1.13052e+06
1.04908e+06
954581
870078
801289
758640
728584
701831
671154
639799
608598
577190
546342
516081
488274
462584
438498
418527
401215
385431
371157
358334
346648
335885
325893
316466
307433
298633
290129
282153
274831
268590
263007
257564
252060
246597
241249
236157
231400
227012
222987
219268
215829
212671
209916
207514
205483
203919
202584
202222
202340
202776
203710
205329
207298
209891
213031
216754
220475
223619
226507
229397
232363
70637
70637
70637
70637
70637
70637
70637
70637
70636.9
70636.9
70636.9
70636.9
70636.9
70636.9
70636.9
70636.9
70636.9
70636.9
70636.9
70636.9
70636.9
70636.9
70636.9
70636.9
70636.9
70636.9
70636.9
70636.9
70636.9
70636.9
70636.9
70637
70637.5
70654.9
71221.7
82515.9
253294
577876
688723
729598
749618
770250
791074
809602
829025
854596
887024
926908
983017
1.0602e+06
1.18481e+06
1.34779e+06
1.59164e+06
2.01987e+06
2.24125e+06
2.31036e+06
2.31968e+06
2.29941e+06
2.16193e+06
1.91379e+06
1.6316e+06
1.34187e+06
1.11247e+06
929000
817696
752230
702752
662165
633126
608494
581031
554817
530098
509876
491927
475234
456511
435696
414662
394946
377800
362779
349490
337326
326174
315971
306775
298391
290694
283548
276821
270348
264139
258100
252399
246988
241584
236147
230769
225555
220650
216079