/*--------------------------------*- C++ -*----------------------------------*\
| =========                 |                                                 |
| \\      /  F ield         | OpenFOAM: The Open Source CFD Toolbox           |
|  \\    /   O peration     | Version:  2112                                  |
|   \\  /    A nd           | Website:  www.openfoam.com                      |
|    \\/     M anipulation  |                                                 |
\*---------------------------------------------------------------------------*/
FoamFile
{
    version     2.0;
    format      ascii;
    arch        "LSB;label=32;scalar=64";
    class       volScalarField;
    location    "0.00278";
    object      epsilon;
}
// * * * * * * * * * * * * * * * * * * * * * * * * * * * * * * * * * * * * * //

dimensions      [0 2 -3 0 0 0 0];

internalField   nonuniform List<scalar> 
13875
(
1.15995e+06
2.9466e+07
3.28096e+07
3.28565e+07
3.29637e+07
3.28656e+07
3.28523e+07
3.28801e+07
3.29348e+07
3.29464e+07
3.28902e+07
3.28817e+07
3.28911e+07
3.28855e+07
3.28878e+07
3.29266e+07
3.29002e+07
3.29062e+07
3.28647e+07
3.28536e+07
3.29524e+07
3.28345e+07
3.27975e+07
2.94977e+07
1.17762e+06
1.31382e+06
2.2751e+07
2.53469e+07
2.52529e+07
2.53106e+07
2.52189e+07
2.51994e+07
2.52141e+07
2.5232e+07
2.52511e+07
2.52359e+07
2.52308e+07
2.52172e+07
2.5212e+07
2.52376e+07
2.5266e+07
2.52413e+07
2.5239e+07
2.52073e+07
2.52086e+07
2.52981e+07
2.5221e+07
2.53235e+07
2.27626e+07
1.34174e+06
1.57302e+06
1.97101e+07
2.18241e+07
2.16382e+07
2.17023e+07
2.16304e+07
2.16098e+07
2.16102e+07
2.15389e+07
2.1551e+07
2.15587e+07
2.15586e+07
2.15494e+07
2.15981e+07
2.1558e+07
2.15705e+07
2.15506e+07
2.16305e+07
2.16139e+07
2.16215e+07
2.16923e+07
2.16006e+07
2.17864e+07
1.96902e+07
1.5842e+06
1.81382e+06
1.73882e+07
1.90338e+07
1.88898e+07
1.89679e+07
1.89081e+07
1.88892e+07
1.88884e+07
1.8803e+07
1.88054e+07
1.88211e+07
1.88221e+07
1.88228e+07
1.88707e+07
1.88171e+07
1.88141e+07
1.87979e+07
1.89025e+07
1.88906e+07
1.89002e+07
1.89592e+07
1.88572e+07
1.90115e+07
1.73612e+07
1.82054e+06
2.02307e+06
1.5455e+07
1.67689e+07
1.66286e+07
1.67006e+07
1.66513e+07
1.66366e+07
1.6632e+07
1.65502e+07
1.65504e+07
1.65682e+07
1.6568e+07
1.65648e+07
1.6612e+07
1.65591e+07
1.65535e+07
1.65433e+07
1.66422e+07
1.6637e+07
1.66445e+07
1.66933e+07
1.66041e+07
1.6742e+07
1.54257e+07
2.03678e+06
2.20713e+06
1.37166e+07
1.49267e+07
1.47456e+07
1.48251e+07
1.47769e+07
1.47603e+07
1.47464e+07
1.46689e+07
1.46663e+07
1.46845e+07
1.46839e+07
1.46761e+07
1.47251e+07
1.4671e+07
1.46621e+07
1.46602e+07
1.47564e+07
1.4761e+07
1.47715e+07
1.48188e+07
1.47293e+07
1.49013e+07
1.38478e+07
2.22405e+06
2.42374e+06
1.22572e+07
1.34772e+07
1.32144e+07
1.32636e+07
1.32077e+07
1.31836e+07
1.316e+07
1.30885e+07
1.30808e+07
1.30966e+07
1.30958e+07
1.30886e+07
1.31345e+07
1.30832e+07
1.307e+07
1.308e+07
1.31713e+07
1.31865e+07
1.32034e+07
1.32556e+07
1.32017e+07
1.34212e+07
1.19548e+07
2.43145e+06
2.67047e+06
1.06276e+07
1.23196e+07
1.19872e+07
1.19991e+07
1.19158e+07
1.18699e+07
1.18297e+07
1.17632e+07
1.17492e+07
1.17578e+07
1.17574e+07
1.17538e+07
1.17962e+07
1.17457e+07
1.17276e+07
1.1753e+07
1.18422e+07
1.18735e+07
1.19091e+07
1.19862e+07
1.19758e+07
1.2264e+07
1.0546e+07
2.69777e+06
3.50505e+06
1.0224e+07
1.1495e+07
1.10511e+07
1.09558e+07
1.08475e+07
1.07788e+07
1.07229e+07
1.06621e+07
1.06425e+07
1.06414e+07
1.06384e+07
1.06402e+07
1.06808e+07
1.06288e+07
1.06083e+07
1.06482e+07
1.07356e+07
1.07863e+07
1.08411e+07
1.0951e+07
1.10344e+07
1.14826e+07
1.03488e+07
3.58112e+06
6.8903e+06
1.22888e+07
1.12425e+07
1.0438e+07
1.02451e+07
1.00569e+07
9.95796e+06
9.8879e+06
9.83305e+06
9.80792e+06
9.79736e+06
9.78973e+06
9.79413e+06
9.83447e+06
9.78431e+06
9.76683e+06
9.81061e+06
9.89207e+06
9.96601e+06
1.0053e+07
1.02268e+07
1.04143e+07
1.1189e+07
1.21557e+07
6.90095e+06
1.4979e+07
1.87922e+07
1.20997e+07
1.04809e+07
9.82841e+06
9.55323e+06
9.4149e+06
9.32436e+06
9.27145e+06
9.24022e+06
9.22301e+06
9.21094e+06
9.21309e+06
9.25078e+06
9.21026e+06
9.20191e+06
9.24483e+06
9.32116e+06
9.42235e+06
9.5491e+06
9.81872e+06
1.04216e+07
1.20071e+07
1.8095e+07
1.50836e+07
2.51886e+07
6.69449e+07
1.9739e+07
1.11887e+07
1.01379e+07
9.4911e+06
9.20533e+06
9.07675e+06
8.99976e+06
8.95455e+06
8.93239e+06
8.91597e+06
8.90896e+06
8.94352e+06
8.91648e+06
8.92528e+06
8.97498e+06
9.06687e+06
9.20842e+06
9.49317e+06
1.00819e+07
1.0926e+07
1.84011e+07
6.70582e+07
2.5087e+07
2.64539e+07
6.71805e+07
9.36598e+07
3.332e+07
1.20809e+07
1.00822e+07
9.66751e+06
9.45151e+06
9.38101e+06
9.32496e+06
9.30224e+06
9.29241e+06
9.2727e+06
9.30012e+06
9.28951e+06
9.31125e+06
9.37237e+06
9.46548e+06
9.67609e+06
1.01862e+07
1.24011e+07
2.73763e+07
8.6432e+07
6.97268e+07
2.61652e+07
2.61889e+07
4.99925e+07
8.07099e+07
1.23043e+08
6.08906e+07
1.68482e+07
1.41767e+07
1.22566e+07
1.16988e+07
1.14642e+07
1.14458e+07
1.13652e+07
1.1453e+07
1.14037e+07
1.14728e+07
1.15464e+07
1.18549e+07
1.24588e+07
1.44584e+07
1.80154e+07
6.77646e+07
1.01623e+08
7.7684e+07
5.12787e+07
2.60431e+07
2.55023e+07
3.99847e+07
5.95376e+07
8.4131e+07
7.48945e+07
5.6936e+07
6.21469e+07
5.23693e+07
4.73795e+07
4.87406e+07
5.20553e+07
5.03299e+07
5.42493e+07
5.17315e+07
5.21775e+07
5.02639e+07
4.91459e+07
5.24825e+07
6.50325e+07
5.62319e+07
7.49473e+07
7.44395e+07
5.90745e+07
4.11538e+07
2.73913e+07
2.58477e+07
3.35945e+07
5.05237e+07
6.92452e+07
7.28202e+07
9.39494e+07
7.67344e+07
5.73334e+07
5.40059e+07
5.82593e+07
5.92185e+07
5.98355e+07
6.0979e+07
6.08897e+07
5.94601e+07
5.92933e+07
5.46975e+07
5.55604e+07
7.22996e+07
9.41385e+07
7.43278e+07
6.3709e+07
4.98188e+07
3.45024e+07
2.79296e+07
2.36191e+07
3.0238e+07
4.56451e+07
6.27855e+07
6.68649e+07
8.85694e+07
5.77302e+07
3.99797e+07
3.69948e+07
3.79284e+07
3.83111e+07
3.87394e+07
3.91056e+07
3.92637e+07
3.84867e+07
3.84371e+07
3.71934e+07
3.88435e+07
5.26761e+07
8.942e+07
6.86129e+07
5.82704e+07
4.5815e+07
3.04641e+07
2.4042e+07
1.9295e+07
2.99332e+07
4.39382e+07
4.93805e+07
5.16938e+07
6.69758e+07
4.71931e+07
3.25243e+07
2.87442e+07
2.83117e+07
2.78854e+07
2.79169e+07
2.80303e+07
2.81535e+07
2.80501e+07
2.86443e+07
2.89801e+07
3.19678e+07
4.46994e+07
6.52063e+07
5.17879e+07
4.61081e+07
4.37767e+07
3.08272e+07
1.93924e+07
1.56368e+07
3.03498e+07
3.81822e+07
3.84859e+07
3.85427e+07
4.73039e+07
4.20295e+07
3.20072e+07
2.58799e+07
2.31866e+07
2.17818e+07
2.13019e+07
2.12474e+07
2.1385e+07
2.16877e+07
2.29361e+07
2.50468e+07
3.02265e+07
4.004e+07
4.65586e+07
3.80145e+07
3.67549e+07
3.76301e+07
3.11417e+07
1.57515e+07
1.43036e+07
2.9257e+07
3.07939e+07
3.08215e+07
3.06228e+07
3.59702e+07
3.6328e+07
3.08614e+07
2.45345e+07
2.0391e+07
1.80792e+07
1.71356e+07
1.6934e+07
1.71801e+07
1.79721e+07
2.00735e+07
2.37253e+07
2.95059e+07
3.50946e+07
3.53014e+07
3.00804e+07
2.98413e+07
3.05077e+07
2.82792e+07
1.46279e+07
1.54011e+07
2.33504e+07
2.5017e+07
2.52176e+07
2.51357e+07
2.9093e+07
3.08885e+07
2.76311e+07
2.2176e+07
1.78777e+07
1.52135e+07
1.4009e+07
1.37289e+07
1.40813e+07
1.52191e+07
1.7731e+07
2.16655e+07
2.67386e+07
3.00831e+07
2.86072e+07
2.47702e+07
2.46461e+07
2.44811e+07
2.24372e+07
1.57419e+07
2.10907e+07
2.34906e+07
2.13662e+07
2.13855e+07
2.12657e+07
2.43624e+07
2.61575e+07
2.39709e+07
1.94704e+07
1.54856e+07
1.28345e+07
1.15666e+07
1.12434e+07
1.1631e+07
1.2854e+07
1.53548e+07
1.9011e+07
2.32138e+07
2.55413e+07
2.40775e+07
2.10254e+07
2.09628e+07
2.07061e+07
2.26452e+07
2.09865e+07
2.4354e+07
2.64978e+07
1.88243e+07
1.81867e+07
1.82131e+07
2.06215e+07
2.20753e+07
2.04492e+07
1.67595e+07
1.32736e+07
1.08343e+07
9.62426e+06
9.29131e+06
9.6474e+06
1.07937e+07
1.30603e+07
1.62262e+07
1.97003e+07
2.15251e+07
2.03987e+07
1.79862e+07
1.78292e+07
1.81147e+07
2.58531e+07
2.39726e+07
2.35021e+07
2.60176e+07
1.64394e+07
1.56674e+07
1.56849e+07
1.73736e+07
1.85788e+07
1.7319e+07
1.41642e+07
1.11846e+07
9.08948e+06
8.04127e+06
7.75034e+06
8.07846e+06
9.09806e+06
1.10599e+07
1.37473e+07
1.67046e+07
1.81689e+07
1.7197e+07
1.55596e+07
1.54765e+07
1.5958e+07
2.5248e+07
2.31486e+07
2.28652e+07
2.47324e+07
1.45044e+07
1.37046e+07
1.36208e+07
1.47556e+07
1.57142e+07
1.4674e+07
1.20166e+07
9.48501e+06
7.68287e+06
6.78687e+06
6.53888e+06
6.82647e+06
7.71111e+06
9.40824e+06
1.16912e+07
1.41701e+07
1.53833e+07
1.46061e+07
1.35289e+07
1.35949e+07
1.41936e+07
2.44752e+07
2.24762e+07
2.2162e+07
2.36985e+07
1.31455e+07
1.21963e+07
1.19475e+07
1.26794e+07
1.33576e+07
1.24291e+07
1.02038e+07
8.08067e+06
6.55194e+06
5.78717e+06
5.56716e+06
5.81821e+06
6.57061e+06
8.00426e+06
9.90171e+06
1.19612e+07
1.30347e+07
1.2536e+07
1.18449e+07
1.20936e+07
1.28843e+07
2.35059e+07
2.15851e+07
2.14721e+07
2.29098e+07
1.20402e+07
1.09694e+07
1.05887e+07
1.09883e+07
1.13646e+07
1.04951e+07
8.64889e+06
6.8899e+06
5.60998e+06
4.97446e+06
4.78811e+06
5.00831e+06
5.65573e+06
6.87783e+06
8.46912e+06
1.01806e+07
1.1145e+07
1.08957e+07
1.05119e+07
1.09239e+07
1.18856e+07
2.30238e+07
2.1258e+07
2.13076e+07
2.22555e+07
1.12106e+07
9.92728e+06
9.51041e+06
9.65348e+06
9.76945e+06
8.93861e+06
7.39349e+06
5.93066e+06
4.85666e+06
4.31919e+06
4.15524e+06
4.34831e+06
4.89747e+06
5.92031e+06
7.23826e+06
8.66514e+06
9.56228e+06
9.56805e+06
9.44221e+06
9.89229e+06
1.10405e+07
2.20081e+07
2.08757e+07
2.15678e+07
2.12242e+07
1.04479e+07
9.01195e+06
8.59204e+06
8.56453e+06
8.46301e+06
7.67382e+06
6.37261e+06
5.14463e+06
4.23744e+06
3.78095e+06
3.63551e+06
3.80233e+06
4.26188e+06
5.11721e+06
6.21566e+06
7.40642e+06
8.24138e+06
8.46647e+06
8.52196e+06
8.97538e+06
1.02875e+07
2.04985e+07
2.05418e+07
2.10163e+07
2.00943e+07
9.8027e+06
8.21111e+06
7.76461e+06
7.62777e+06
7.35417e+06
6.5877e+06
5.48284e+06
4.4633e+06
3.71189e+06
3.33157e+06
3.20544e+06
3.35578e+06
3.75149e+06
4.47399e+06
5.39665e+06
6.41621e+06
7.20157e+06
7.56144e+06
7.71325e+06
8.18935e+06
9.67472e+06
1.95993e+07
2.09149e+07
2.02682e+07
1.90739e+07
9.32467e+06
7.57564e+06
7.03659e+06
6.82618e+06
6.46283e+06
5.74149e+06
4.78731e+06
3.91918e+06
3.28294e+06
2.9584e+06
2.84647e+06
2.97841e+06
3.31084e+06
3.92004e+06
4.70289e+06
5.57684e+06
6.30788e+06
6.74926e+06
6.97144e+06
7.54489e+06
9.15284e+06
1.86113e+07
2.00757e+07
1.95905e+07
1.81939e+07
8.92422e+06
7.10522e+06
6.40042e+06
6.13563e+06
5.73406e+06
5.04669e+06
4.2121e+06
3.4679e+06
2.92758e+06
2.6471e+06
2.54507e+06
2.66204e+06
2.94437e+06
3.45842e+06
4.12717e+06
4.88562e+06
5.5712e+06
6.04366e+06
6.33059e+06
7.04532e+06
8.74488e+06
1.76376e+07
1.91639e+07
1.85791e+07
1.70234e+07
8.70694e+06
6.72266e+06
5.86273e+06
5.51632e+06
5.09182e+06
4.45072e+06
3.7204e+06
3.08066e+06
2.61933e+06
2.37991e+06
2.28955e+06
2.3949e+06
2.638e+06
3.08212e+06
3.66507e+06
4.32594e+06
4.9539e+06
5.43173e+06
5.79383e+06
6.64254e+06
8.47235e+06
1.68245e+07
1.85957e+07
1.81e+07
1.59153e+07
8.48766e+06
6.46461e+06
5.42723e+06
5.00122e+06
4.5574e+06
3.96401e+06
3.31529e+06
2.7618e+06
2.36535e+06
2.15585e+06
2.07208e+06
2.16643e+06
2.37558e+06
2.75479e+06
3.26165e+06
3.84678e+06
4.4178e+06
4.90744e+06
5.35552e+06
6.34858e+06
8.37404e+06
1.58009e+07
1.78615e+07
1.77104e+07
1.49944e+07
8.06956e+06
6.26883e+06
5.10032e+06
4.55906e+06
4.0973e+06
3.55182e+06
2.98007e+06
2.49637e+06
2.14696e+06
1.96294e+06
1.88615e+06
1.97014e+06
2.15093e+06
2.48394e+06
2.92858e+06
3.44324e+06
3.95859e+06
4.46315e+06
5.02538e+06
6.17068e+06
8.12092e+06
1.47777e+07
1.73233e+07
1.69739e+07
1.38899e+07
7.55229e+06
6.10545e+06
4.85228e+06
4.19138e+06
3.70188e+06
3.18783e+06
2.68115e+06
2.26009e+06
1.95836e+06
1.79662e+06
1.72615e+06
1.80378e+06
1.96438e+06
2.25485e+06
2.64684e+06
3.10716e+06
3.58181e+06
4.10402e+06
4.7716e+06
6.05151e+06
7.65643e+06
1.38742e+07
1.68171e+07
1.65395e+07
1.29565e+07
7.07756e+06
6.09458e+06
4.67302e+06
3.90674e+06
3.37167e+06
2.88455e+06
2.43378e+06
2.06398e+06
1.79612e+06
1.65222e+06
1.58732e+06
1.65784e+06
1.79762e+06
2.05551e+06
2.4006e+06
2.81211e+06
3.25766e+06
3.81864e+06
4.58192e+06
6.0457e+06
7.13059e+06
1.2853e+07
1.61917e+07
1.6251e+07
1.21026e+07
6.62624e+06
5.96457e+06
4.58248e+06
3.68855e+06
3.10717e+06
2.63084e+06
2.21947e+06
1.89053e+06
1.65556e+06
1.52717e+06
1.46669e+06
1.53164e+06
1.65466e+06
1.87995e+06
2.18851e+06
2.56952e+06
3.00787e+06
3.60409e+06
4.5034e+06
5.92665e+06
6.61848e+06
1.19435e+07
1.5859e+07
1.57641e+07
1.12758e+07
6.08381e+06
5.63383e+06
4.53022e+06
3.51312e+06
2.89975e+06
2.41496e+06
2.03194e+06
1.7383e+06
1.52935e+06
1.41492e+06
1.36035e+06
1.42059e+06
1.53009e+06
1.73287e+06
2.01207e+06
2.37082e+06
2.82007e+06
3.4384e+06
4.48178e+06
5.62722e+06
6.10143e+06
1.1182e+07
1.56315e+07
1.54879e+07
1.06315e+07
5.57831e+06
5.29227e+06
4.63554e+06
3.41229e+06
2.7415e+06
2.24834e+06
1.87564e+06
1.60739e+06
1.42035e+06
1.31751e+06
1.26637e+06
1.32209e+06
1.41978e+06
1.60063e+06
1.8575e+06
2.21197e+06
2.6718e+06
3.33478e+06
4.59248e+06
5.27929e+06
5.55908e+06
1.04846e+07
1.52139e+07
1.52688e+07
1.0138e+07
5.17632e+06
4.93118e+06
4.60316e+06
3.3856e+06
2.61959e+06
2.12079e+06
1.74934e+06
1.49522e+06
1.32352e+06
1.23e+06
1.18268e+06
1.23345e+06
1.32217e+06
1.48773e+06
1.73249e+06
2.09114e+06
2.5623e+06
3.33671e+06
4.57462e+06
4.91458e+06
5.10411e+06
9.94935e+06
1.49359e+07
1.48873e+07
9.67164e+06
4.7825e+06
4.54594e+06
4.36531e+06
3.45212e+06
2.53535e+06
2.0159e+06
1.64824e+06
1.39886e+06
1.23755e+06
1.15199e+06
1.10803e+06
1.15636e+06
1.23787e+06
1.39486e+06
1.63691e+06
1.9949e+06
2.51343e+06
3.47032e+06
4.31661e+06
4.53714e+06
4.79231e+06
9.52052e+06
1.47429e+07
1.46227e+07
9.27978e+06
4.49054e+06
4.18405e+06
4.08314e+06
3.55666e+06
2.53343e+06
1.93915e+06
1.57382e+06
1.31816e+06
1.16335e+06
1.08197e+06
1.04095e+06
1.08651e+06
1.16335e+06
1.31605e+06
1.56209e+06
1.918e+06
2.53835e+06
3.54867e+06
4.01939e+06
4.16998e+06
4.45799e+06
9.08999e+06
1.44136e+07
1.44151e+07
8.93819e+06
4.30889e+06
3.87742e+06
3.78645e+06
3.47477e+06
2.63956e+06
1.9e+06
1.50888e+06
1.25634e+06
1.1026e+06
1.02194e+06
981793
1.0263e+06
1.10328e+06
1.25629e+06
1.49859e+06
1.88386e+06
2.69931e+06
3.44205e+06
3.70459e+06
3.8536e+06
4.2157e+06
8.69285e+06
1.41899e+07
1.41947e+07
8.55064e+06
4.08144e+06
3.60611e+06
3.4921e+06
3.28013e+06
2.84949e+06
1.92391e+06
1.46019e+06
1.20863e+06
1.05639e+06
971865
931712
976742
1.05784e+06
1.21045e+06
1.45506e+06
1.94845e+06
2.84804e+06
3.23929e+06
3.40681e+06
3.58699e+06
4.06304e+06
8.35365e+06
1.40166e+07
1.40125e+07
8.19939e+06
3.9468e+06
3.38064e+06
3.23305e+06
3.08303e+06
2.89835e+06
2.12464e+06
1.44264e+06
1.16889e+06
1.0209e+06
935042
891722
939885
1.02192e+06
1.17002e+06
1.43988e+06
2.1161e+06
2.79563e+06
3.02654e+06
3.15349e+06
3.35186e+06
3.88621e+06
7.97681e+06
1.38541e+07
1.38487e+07
7.89602e+06
3.84862e+06
3.19995e+06
3.01901e+06
2.88326e+06
2.74683e+06
2.3189e+06
1.52694e+06
1.14026e+06
987352
904740
860028
909359
989431
1.14107e+06
1.51718e+06
2.28774e+06
2.65314e+06
2.81532e+06
2.94344e+06
3.16266e+06
3.74402e+06
7.63625e+06
1.36764e+07
1.35152e+07
7.51235e+06
3.69507e+06
3.03721e+06
2.83367e+06
2.69298e+06
2.58592e+06
2.32528e+06
1.71886e+06
1.14928e+06
959147
876929
833675
881582
963578
1.16288e+06
1.72291e+06
2.28701e+06
2.50451e+06
2.62885e+06
2.76615e+06
3.00788e+06
3.64487e+06
7.30963e+06
1.33346e+07
1.29841e+07
7.0891e+06
3.5506e+06
2.88982e+06
2.67498e+06
2.52709e+06
2.41716e+06
2.22344e+06
1.89402e+06
1.2461e+06
947843
852357
810351
856683
954807
1.25886e+06
1.8589e+06
2.1849e+06
2.3484e+06
2.4663e+06
2.61461e+06
2.8607e+06
3.49286e+06
6.88174e+06
1.27969e+07
1.15168e+07
6.48041e+06
3.38962e+06
2.74131e+06
2.53205e+06
2.38196e+06
2.26028e+06
2.10781e+06
1.9037e+06
1.44556e+06
990237
839609
794769
842897
998774
1.43617e+06
1.83775e+06
2.06856e+06
2.20132e+06
2.32732e+06
2.47673e+06
2.70994e+06
3.31848e+06
6.2695e+06
1.13834e+07
253590
161934
147449
143445
141529
140386
140301
141335
143560
147221
152607
159634
168281
178627
190734
204072
215443
205744
183210
175819
173304
172328
171688
171139
170620
170096
169570
169287
172660
289157
167303
126547
121179
120204
119969
120407
121650
123873
127037
131303
136872
143633
151576
160730
171232
182977
196183
206259
180125
134619
121467
118842
117977
117454
117013
116609
116157
116035
118026
159530
134722
111854
109287
109641
110044
111364
113477
116564
120442
125242
131123
138026
145916
154584
163863
173814
183903
193765
196747
158592
111890
100674
98813.8
98282.6
98003.2
97804.4
97592.1
97660.8
99508.3
124809
126980
107225
104915
105702
106317
108273
111091
115048
119819
125423
131934
139247
147399
156399
166170
176094
185784
194863
203053
201827
149543
102881
93791.2
92493.5
92172
92055.9
91980.7
92159.5
94175.3
116397
126402
106264
103910
104970
105741
108342
111840
116689
122400
128821
135965
143809
152312
161232
170605
180692
190992
200388
208827
216744
210345
141048
98409.7
91666.5
90754.3
90562.8
90516.7
90736.9
92846.2
114607
126729
105803
103646
104698
105875
109177
113551
119399
126100
133313
140871
149121
157959
167001
176361
186029
196247
206576
215950
224546
232105
216183
130189
95437.9
90924.3
90312.7
90201.2
90420.8
92558.6
114270
126845
105517
103700
104866
106695
110792
116233
123208
130958
138949
146887
155217
164406
173566
182895
192382
202276
212890
223478
232855
241994
248129
213829
118324
93363.8
90587.3
90201
90372.7
92510.4
114206
126942
105638
104257
105760
108509
113604
120119
128178
136926
145637
153956
162534
171660
181165
190505
199949
209635
219915
231011
241803
251396
261447
263778
198916
108194
92014.6
90406.2
90406.5
92516.6
114186
127640
106063
105245
107405
111398
117912
125903
135280
144989
154344
163016
171054
180254
189787
199351
208723
218311
228261
239114
250702
261695
272246
283274
276822
173218
100478
91221.3
90537.6
92548
114171
128523
106707
106754
110020
115681
124010
133871
144801
155583
165642
174545
182134
190478
199480
209477
218690
228186
237951
248365
259914
272118
283738
296059
307376
281795
144754
95543.9
90997
92630.7
114173
129810
107784
108887
113918
121972
132699
144768
157169
168778
179267
188014
195326
202405
210644
220503
229745
239105
248728
258830
269951
282545
295774
308875
323524
331975
265106
120665
93064.9
92889.8
114236
131282
109197
111843
119549
131149
144997
159763
173194
184893
194739
203006
209778
215771
223031
232010
241468
250574
260066
270022
280767
293227
307373
322147
337710
354984
353182
222881
105750
93868
114489
133882
111444
116228
127325
142863
160004
177155
191389
202729
211509
218826
224754
229523
235634
243286
252645
261576
270953
280946
291649
303920
318193
334417
351485
370674
389983
361770
171476
99236.5
115354
136534
114713
122660
137858
157400
177421
196131
210694
221300
228500
234038
238529
242252
247020
253210
262032
271030
280312
290475
301483
313829
328037
345013
364078
384447
408113
423348
332267
130154
118567
141659
120247
132162
152045
175449
197620
216746
230675
239551
244619
248101
251155
253624
256288
261106
269163
278446
287620
297986
309394
321989
336370
353677
374163
396950
421862
449139
446713
255340
132933
147229
128530
145390
170521
196786
219442
237689
249979
256396
259119
260587
261705
262432
263031
266781
274103
283405
292682
303180
314988
327850
342722
360276
381283
406210
433557
464105
495198
440161
199319
158068
140813
163852
193117
220829
242836
258750
267848
270890
270721
270183
269311
268239
268171
270213
276738
285844
295336
305888
318061
331235
346796
364659
386013
411948
441872
474338
514299
537845
435238
167388
157443
187230
219903
247598
266450
278519
283673
283050
279266
276107
273719
271566
270899
271747
277384
286205
295747
306102
318606
332312
348580
366910
388665
415249
446874
480837
525616
591620
760898
183012
179723
215934
249896
276247
291514
300343
301197
294054
285788
280124
276667
273352
272111
271648
275359
283872
293588
303622
316589
331102
347797
366991
389491
416348
448540
483256
537594
651821
1.12745e+06
193715
209528
251605
286519
313132
328864
334721
325618
310959
297010
287964
282001
275209
270267
266993
268845
277884
288278
299833
312723
327842
344787
364551
388111
415611
447211
486893
560007
746298
1.47262e+06
213785
247157
297117
338911
386325
404191
399904
378380
352481
323926
304748
288998
276434
268936
263586
264242
273252
283424
295090
307878
323108
340603
360618
384601
413046
443519
489837
586037
878842
1.82083e+06
235177
310173
377075
465583
544761
558807
542442
496880
440263
374812
333904
306872
288837
276856
268473
265862
272910
281335
291384
303056
317790
335187
355672
379494
408081
437554
491787
627320
1.03213e+06
2.01344e+06
286165
408976
568895
732544
842961
835590
809486
726031
591451
466518
394292
349160
318222
296797
281979
273537
276038
281179
288486
298520
312551
329305
349885
373648
401226
434721
498107
690272
1.18343e+06
2.04804e+06
356926
795453
906567
1.08841e+06
1.19801e+06
1.23801e+06
1.24555e+06
1.08534e+06
840858
631147
498186
420305
367108
329946
303837
284692
276569
277816
283434
294023
307253
323780
343863
367695
395377
432365
508369
783614
1.33851e+06
2.01521e+06
567451
2.18898e+06
1.74184e+06
1.53383e+06
1.61038e+06
1.68333e+06
1.75022e+06
1.58253e+06
1.24597e+06
901167
659948
525614
438940
377141
329081
298042
281231
279853
282446
290975
303230
319211
338668
362097
389757
431241
524244
912330
1.49727e+06
1.93685e+06
289159
172661
169289
169573
170100
170624
171143
171693
172331
173299
175768
182971
205169
215225
203992
190673
178575
168238
159599
152574
147210
143561
141343
140317
140408
141557
143475
147466
161989
253769
159530
118026
116035
116157
116609
117013
117453
117974
118830
121396
134195
178984
205787
195932
182756
171038
160561
151429
143508
136767
131219
126969
123821
121608
120374
119941
120179
121156
126527
167299
124809
99508.5
97661
97592.3
97804.6
98003.2
98281.1
98805.6
100620
111503
157316
196074
193350
183554
173511
163597
154351
145715
137854
130977
125118
120338
116480
113409
111306
109993
109593
109242
111813
134724
116397
94175.3
92159.5
91980.7
92055.7
92170.7
92486.9
93750.4
102538
148091
200931
202502
194390
185376
175738
165859
156126
147159
139036
131753
125269
119691
114946
111009
108205
106258
105646
104861
107170
126899
114607
92846.1
90736.8
90516.5
90561.8
90749.5
91637.3
98134.3
139534
209180
216069
208246
199869
190536
180290
170246
160909
152027
143560
135753
128639
122251
116570
111747
108266
105676
104909
103852
106210
126322
114270
92558.7
90420.7
90200.6
90309.2
90903.9
95242.6
128822
214562
231262
223842
215311
206008
195740
185571
175946
166626
157625
148822
140612
133087
125914
119252
113437
109087
105800
104629
103582
105738
126695
114206
92510.2
90372.3
90198.7
90573.8
93240.4
117235
211407
247052
241167
232089
222792
212270
201707
191858
182415
173127
164013
154858
146570
138674
130729
123022
116090
110686
106617
104797
103631
105442
126698
114185
92516.3
90405.1
90397.6
91944.5
107431
196003
262464
260526
250522
240995
230280
219244
209013
199373
189972
180670
171217
162079
153550
145299
136647
127971
119969
113497
108427
105692
104186
105569
126878
114171
92547.1
90532.4
91182.9
100001
170225
275025
282243
271270
260750
249849
238336
227537
217635
208093
198768
189239
179760
170545
162613
154031
144731
135074
125739
117792
111318
107341
105183
106004
127583
114172
92627.6
90976.1
95292.4
142389
279203
306234
295043
282711
271163
259042
247558
237204
227489
218036
208877
198910
189968
181687
174174
165310
155309
144587
133702
123901
115614
109980
106724
106683
128462
114233
92878.8
92947
119280
261092
330624
322519
307810
294726
281595
269088
258039
248006
238439
229113
219937
210095
201907
194888
187632
178932
168472
156971
144634
132621
121949
113926
108912
107811
129827
114478
93817.1
105000
218469
351396
354055
336681
321046
306355
292313
279939
269285
259412
249988
240904
231516
222544
215268
209308
202608
194415
184524
173060
159751
145049
131242
119653
111943
109289
131343
115313
98914.7
168126
359177
389116
369775
350414
333366
317241
303070
290896
280285
270370
261076
252176
242856
235201
228780
224076
218298
211115
202578
191320
177426
160302
143159
127593
116425
111613
134069
118405
128511
327555
422332
407400
383501
363054
344063
327173
313053
300805
289887
279773
270571
261622
252792
246590
241646
237756
233356
228137
221362
210808
196491
177820
157798
138228
122981
114970
136850
132191
250724
445138
448701
421176
396042
373260
352824
335585
321281
308768
297438
287112
277989
268766
260656
255594
253355
251016
248136
244768
239998
231184
217275
198197
176011
152556
132633
120613
142132
195560
436936
494945
463784
432894
405418
380477
359492
341993
327184
314378
302644
292198
282949
273712
266220
263006
262297
262020
260904
259649
257150
250959
238352
220117
197519
171213
145978
128972
147806
428469
537354
514450
474099
441353
411290
385309
363953
346136
330644
317516
305413
294930
285446
276459
269930
268439
268448
269745
270619
271434
271897
268649
259497
243413
221532
193992
164444
141475
158893
754851
591790
525941
480770
446504
414694
388066
366306
348014
331810
318167
305761
295455
285895
277381
271739
271485
272081
274279
276774
280107
284016
284349
279353
267047
248185
220771
188230
158422
168328
1.12411e+06
651787
537875
483238
448253
415853
388965
366520
347371
330713
316273
303433
293339
283689
275494
271848
272788
273984
277743
281231
286856
295089
301694
301060
292371
277142
250742
217108
180883
183963
1.4728e+06
746406
560152
486888
446995
415212
387671
364195
344468
327555
312461
299493
288125
277801
269097
267490
270779
275533
282734
289089
298579
312525
326872
335842
330620
315587
288088
253300
211101
194636
1.82661e+06
879963
586262
489923
443473
412881
384318
360357
340355
322879
307613
294756
283269
273194
264667
264505
269939
277508
289949
305255
325935
354784
380863
404066
409351
391503
341898
299877
249202
214636
2.02035e+06
1.03509e+06
627800
492034
437531
407881
379354
355433
334915
317445
302634
290874
281003
272776
266215
269473
277972
290183
308944
334959
378588
444556
502218
549097
566741
557817
473104
381684
313412
236161
2.05536e+06
1.18842e+06
691255
498394
434804
401241
373453
349598
328870
311946
297811
287866
280774
275801
273522
282783
297757
319623
351957
396176
473011
601955
737865
823461
842583
849961
747059
581594
414685
288195
2.02237e+06
1.34565e+06
785360
508848
432507
395358
367469
343440
323184
306595
293280
283230
277800
276312
284240
303885
330853
368412
424108
500211
639032
859698
1.10754e+06
1.26398e+06
1.24812e+06
1.20581e+06
1.10569e+06
928044
813692
360196
1.94302e+06
1.50651e+06
915491
524889
431353
389639
361708
338059
318559
302775
290718
282201
278922
281597
298032
329695
378788
440509
531121
661571
912127
1.27428e+06
1.62088e+06
1.77016e+06
1.6905e+06
1.62792e+06
1.56097e+06
1.78937e+06
2.22742e+06
578078
113712
113709
113713
113717
113720
113724
113727
113731
113734
113738
113741
113745
113748
113752
113755
113758
113762
113765
113768
113772
113775
113778
113782
113785
113788
113792
113795
113798
113801
113804
113808
113811
113814
113817
113820
113823
113826
113829
113832
113835
113838
113841
113844
113847
113850
113853
113855
113858
113861
113864
113866
113869
113872
113875
113877
113880
113896
114124
118821
216799
1.19434e+06
3.59688e+06
5.84449e+06
7.5876e+06
8.98472e+06
1.01322e+07
1.02077e+07
9.90594e+06
9.49791e+06
9.09271e+06
8.5761e+06
7.91214e+06
7.189e+06
6.51299e+06
5.93694e+06
5.44712e+06
5.01205e+06
4.62697e+06
4.29315e+06
4.00358e+06
3.74846e+06
3.52022e+06
3.31091e+06
3.11655e+06
2.93822e+06
2.77469e+06
2.62469e+06
2.48607e+06
2.35786e+06
2.23989e+06
2.13181e+06
2.03231e+06
1.94015e+06
1.85421e+06
1.77418e+06
1.70046e+06
1.63286e+06
1.5709e+06
1.51908e+06
1.47613e+06
1.44073e+06
1.4106e+06
1.38546e+06
1.3658e+06
1.35062e+06
1.33877e+06
1.32975e+06
1.32324e+06
1.31959e+06
1.31837e+06
1.31896e+06
1.32261e+06
1.33009e+06
1.34249e+06
1.3603e+06
1.38331e+06
1.41177e+06
1.44567e+06
1.48332e+06
1.524e+06
1.5687e+06
1.62535e+06
1.68167e+06
1.75538e+06
1.84694e+06
93108.7
93101.5
93097.6
93094
93090.5
93086.9
93083.3
93079.7
93076.1
93072.5
93068.9
93065.2
93061.5
93057.9
93054.2
93050.5
93046.7
93043
93039.2
93035.5
93031.7
93027.9
93024.1
93020.3
93016.5
93012.6
93008.8
93004.9
93001
92997.2
92993.3
92989.3
92985.4
92981.5
92977.6
92973.6
92969.6
92965.7
92961.7
92957.7
92953.7
92949.7
92945.7
92941.6
92937.6
92933.5
92929.5
92925.4
92921.3
92917.2
92913.1
92909
92904.9
92900.8
92897.2
92902.9
93270.3
127379
1.07812e+06
4.53619e+06
6.84637e+06
7.09087e+06
6.70888e+06
6.48576e+06
6.34998e+06
6.40308e+06
6.63305e+06
7.00005e+06
7.48554e+06
8.0489e+06
8.71669e+06
9.59253e+06
9.93221e+06
9.72824e+06
9.29848e+06
8.69272e+06
7.99235e+06
7.27941e+06
6.60395e+06
5.99546e+06
5.46231e+06
5.00326e+06
4.62546e+06
4.29996e+06
4.01886e+06
3.77318e+06
3.55198e+06
3.35188e+06
3.17242e+06
3.01079e+06
2.86267e+06
2.72487e+06
2.59833e+06
2.48335e+06
2.37684e+06
2.27732e+06
2.18642e+06
2.10567e+06
2.03426e+06
1.9731e+06
1.91782e+06
1.86618e+06
1.81863e+06
1.77624e+06
1.74045e+06
1.70937e+06
1.68102e+06
1.65402e+06
1.62785e+06
1.60259e+06
1.57947e+06
1.55957e+06
1.54347e+06
1.53251e+06
1.52689e+06
1.52651e+06
1.53181e+06
1.54748e+06
1.56537e+06
1.58503e+06
1.60812e+06
1.6423e+06
1.68121e+06
1.71176e+06
1.65077e+06
90610.2
90606.7
90604.2
90601.8
90599.4
90597.1
90594.8
90592.4
90590.1
90587.8
90585.5
90583.2
90581
90578.7
90576.4
90574.2
90571.9
90569.7
90567.4
90565.2
90563
90560.8
90558.6
90556.4
90554.2
90552
90549.9
90547.7
90545.6
90543.4
90541.3
90539.2
90537
90534.9
90532.8
90530.7
90528.6
90526.6
90524.5
90522.4
90520.4
90518.3
90516.3
90514.3
90512.2
90510.2
90508.2
90506.2
90504.2
90502.3
90500.3
90498.3
90496.4
90494.9
90505.8
91275.7
169957
1.95739e+06
6.0711e+06
7.25165e+06
6.65686e+06
5.81602e+06
5.15828e+06
4.62678e+06
4.20882e+06
3.9368e+06
3.812e+06
3.82932e+06
3.98251e+06
4.29722e+06
4.79701e+06
5.53464e+06
6.52859e+06
7.70277e+06
9.00004e+06
1.02949e+07
1.14254e+07
1.23103e+07
1.24615e+07
1.20425e+07
1.13728e+07
1.04884e+07
9.34493e+06
8.27001e+06
7.37104e+06
6.63634e+06
6.03176e+06
5.51451e+06
5.07505e+06
4.70378e+06
4.38262e+06
4.10156e+06
3.85557e+06
3.63965e+06
3.44567e+06
3.27033e+06
3.11392e+06
2.97568e+06
2.85424e+06
2.74652e+06
2.65151e+06
2.56726e+06
2.48925e+06
2.4266e+06
2.37778e+06
2.33773e+06
2.30266e+06
2.26985e+06
2.23891e+06
2.20935e+06
2.18123e+06
2.15248e+06
2.12439e+06