/*--------------------------------*- C++ -*----------------------------------*\
| =========                 |                                                 |
| \\      /  F ield         | OpenFOAM: The Open Source CFD Toolbox           |
|  \\    /   O peration     | Version:  2112                                  |
|   \\  /    A nd           | Website:  www.openfoam.com                      |
|    \\/     M anipulation  |                                                 |
\*---------------------------------------------------------------------------*/
FoamFile
{
    version     2.0;
    format      ascii;
    arch        "LSB;label=32;scalar=64";
    class       volVectorField;
    location    "0.00278";
    object      U;
}
// * * * * * * * * * * * * * * * * * * * * * * * * * * * * * * * * * * * * * //

dimensions      [0 1 -1 0 0 0 0];

internalField   nonuniform List<vector> 
13875
(
(2204.21 109.702 1.81255e-18)
(2142.58 5.62238 -9.38563e-19)
(2170.12 -2.22584 -9.41179e-19)
(2168.29 -1.22798 0)
(2170.82 0.0872104 0)
(2169.59 -0.103201 9.36402e-19)
(2169.58 -0.426086 -9.36801e-19)
(2169.76 -1.42135 -4.68458e-19)
(2169.67 -1.09171 4.68111e-19)
(2169.81 -0.006879 0)
(2169.41 0.19501 -3.88293e-22)
(2169.39 0.0930451 -3.88236e-22)
(2169.16 0.448222 0)
(2169.59 0.118482 -4.68164e-19)
(2169.26 -0.307187 4.68634e-19)
(2169.66 0.21254 0)
(2169.45 0.719771 9.36661e-19)
(2170.27 0.852331 -9.36551e-19)
(2169.7 0.398665 3.85522e-22)
(2169.6 0.0282583 -3.85499e-22)
(2170.98 -0.225439 -9.35739e-19)
(2167.91 0.447277 9.36926e-19)
(2170.99 2.54131 -1.87806e-18)
(2143.7 -8.66806 1.9164e-18)
(2210.39 -106.715 1.76338e-18)
(2253.4 91.915 -1.63233e-18)
(2228.51 -1.12313 1.88344e-18)
(2247.28 0.634586 8.71844e-19)
(2245.6 1.39176 -8.67238e-19)
(2248.51 -0.43818 4.16355e-22)
(2248.13 0.485659 5.20488e-22)
(2248.04 0.520671 4.1622e-22)
(2247.72 1.72191 -4.36342e-19)
(2245.56 1.27765 4.33286e-19)
(2245.26 -0.00424071 2.17473e-19)
(2245.14 -0.0784587 -1.62929e-19)
(2245.15 0.243491 -5.3158e-20)
(2245.38 -0.650287 0)
(2246.48 -0.287403 -4.3697e-19)
(2245.38 0.470349 4.33696e-19)
(2245.34 -0.357768 4.35375e-19)
(2245.62 -1.18408 -4.36094e-19)
(2248.1 -1.12163 5.19563e-22)
(2248.22 -0.306661 -5.20337e-22)
(2248.14 -0.447514 5.20188e-22)
(2248.66 0.686445 -8.71019e-19)
(2245.54 -0.738086 2.60008e-18)
(2247.19 -1.61086 -1.74275e-18)
(2228.99 3.63128 5.42727e-22)
(2256.46 -96.9178 -1.71291e-18)
(2252.44 78.1009 0)
(2236.41 -18.2216 0)
(2249.36 4.36091 0)
(2250.94 -2.00972 0)
(2254.16 -3.03096 -1.65447e-18)
(2253.91 -0.648124 1.64347e-18)
(2254.15 0.320133 1.63991e-18)
(2254.24 2.14835 -2.45754e-18)
(2253.69 2.29911 8.59816e-19)
(2253.35 0.40577 4.30494e-22)
(2252.9 -0.0638561 -4.31046e-19)
(2252.77 -0.496546 4.30832e-19)
(2253.09 -1.25789 0)
(2253.18 0.219037 0)
(2252.81 1.40632 4.30368e-22)
(2252.86 -0.0370005 0)
(2253.14 -2.57083 8.3898e-22)
(2254.44 -2.54632 4.09385e-19)
(2254.31 -0.310612 -4.09995e-19)
(2253.97 0.577166 0)
(2254.35 2.97265 0)
(2250.99 1.4009 0)
(2250.6 -4.79292 0)
(2237.9 13.8358 0)
(2256.89 -74.6648 0)
(2247.87 51.3443 0)
(2235.04 -28.5571 1.8145e-18)
(2249.13 7.14378 -3.41728e-18)
(2251.67 -4.72927 3.46504e-18)
(2253.81 -3.8186 -1.65617e-18)
(2253.76 -0.952624 0)
(2254.12 0.259545 -7.87625e-22)
(2254.23 2.07611 0)
(2254.28 2.30037 0)
(2254.19 0.965428 0)
(2253.65 0.511738 0)
(2253.38 -0.187739 -8.43564e-22)
(2253.07 -1.17696 -5.14242e-20)
(2253.17 0.193065 4.92502e-20)
(2253.16 1.10832 0)
(2253.64 -0.673905 0)
(2253.96 -2.8906 8.3927e-22)
(2254.41 -2.61715 -8.04894e-19)
(2254.25 -0.318566 8.01004e-19)
(2253.86 0.844633 -1.626e-18)
(2254.1 3.59928 1.63304e-18)
(2252.02 4.69422 1.74114e-18)
(2249.7 -8.82068 -1.72046e-18)
(2235.65 31.2976 0)
(2251.59 -58.5134 0)
(2244.93 39.2982 1.74894e-18)
(2235.51 -47.7618 0)
(2248.61 10.376 0)
(2250.66 -8.25193 0)
(2254.18 -5.43608 0)
(2253.87 -1.70705 1.66033e-21)
(2254.09 0.032592 1.63239e-21)
(2254.27 1.8037 4.23161e-19)
(2254.35 2.00258 -4.29284e-19)
(2254.29 1.26842 2.13993e-19)
(2253.82 0.985596 -2.17397e-19)
(2253.53 0.138886 0)
(2253.02 -1.06893 0)
(2253.1 0.199867 -1.59126e-21)
(2253.08 0.95852 0)
(2253.65 -1.06237 -1.68704e-21)
(2254.02 -3.09125 8.54833e-19)
(2254.34 -2.6045 -8.2343e-19)
(2254.15 -0.230487 1.65043e-18)
(2253.9 1.547 -1.68899e-18)
(2254.34 5.03681 1.66544e-21)
(2250.78 6.92643 0)
(2249.94 -11.4246 0)
(2237.21 42.8096 0)
(2250.65 -35.1763 0)
(2241.49 6.77854 0)
(2231.53 -63.3914 9.12606e-19)
(2247.05 12.1715 -8.48071e-19)
(2250.94 -11.6042 0)
(2253.03 -6.36594 8.613e-19)
(2253.19 -2.2197 -4.31322e-19)
(2253.77 -0.114468 -2.19016e-21)
(2254.03 1.55478 -2.15931e-19)
(2254.22 1.78008 -4.29758e-19)
(2254.19 1.85601 1.6333e-19)
(2253.79 1.89491 1.58144e-21)
(2253.52 0.691423 2.68739e-19)
(2252.87 -0.917983 -2.16467e-19)
(2252.94 0.102137 3.33144e-21)
(2253.04 0.731714 -4.32412e-19)
(2253.61 -1.75869 4.34488e-19)
(2253.85 -3.35444 1.64368e-21)
(2254.11 -2.6181 -1.62063e-21)
(2253.82 -0.249742 -1.62561e-21)
(2253.28 1.87331 -8.50115e-19)
(2253.33 5.64604 8.52452e-19)
(2251.49 11.447 0)
(2247.33 -15.016 0)
(2232.42 65.3182 -1.93351e-18)
(2246.17 -19.1018 -1.26508e-19)
(2254.18 2.94203 -4.95281e-20)
(2227.51 -79.1761 6.0241e-20)
(2242.91 12.1048 0)
(2248.78 -16.6451 -2.69118e-23)
(2252.67 -8.6898 -2.62308e-23)
(2252.92 -3.7116 0)
(2253.45 -0.781731 0)
(2253.79 0.831029 -8.45664e-19)
(2253.88 1.23137 8.47576e-19)
(2253.83 2.01707 0)
(2253.6 2.3243 1.72953e-18)
(2253.31 1.24148 3.09185e-21)
(2252.57 -0.691739 -1.73053e-18)
(2252.62 0.0880575 -1.71214e-21)
(2252.8 0.363214 0)
(2253.45 -2.21373 3.44656e-18)
(2253.6 -3.27855 -4.95867e-22)
(2253.83 -2.17971 -6.6815e-18)
(2253.44 0.35598 3.35381e-18)
(2252.95 3.33129 2.59109e-23)
(2252.83 8.02594 0)
(2248.62 13.8281 3.53154e-18)
(2244.05 -12.3688 -3.31192e-18)
(2228.8 72.7856 3.81543e-18)
(2247.16 2.77311 -3.18261e-18)
(2218.04 -22.84 -3.17272e-19)
(2214.57 -87.2201 -7.50061e-18)
(2235.3 3.44281 8.72191e-22)
(2246 -23.2307 2.61604e-23)
(2248.96 -10.7978 -8.09912e-22)
(2250.64 -4.80477 0)
(2252.02 -1.19168 -3.35247e-18)
(2252.77 0.631599 3.37498e-18)
(2253.04 1.26577 0)
(2253.01 2.47812 -8.33048e-22)
(2252.97 2.96387 -8.43883e-22)
(2252.93 1.87755 0)
(2252.1 -0.340888 0)
(2252.07 -0.177255 -1.66387e-21)
(2252.42 -0.258794 -8.47602e-22)
(2252.99 -3.04182 2.61689e-23)
(2252.87 -3.39229 -8.483e-22)
(2252.88 -2.0532 -2.55556e-23)
(2252.11 0.634378 -1.6869e-18)
(2250.84 4.24087 -1.34907e-20)
(2249.47 9.89469 1.6897e-18)
(2246.33 20.3129 8.88362e-22)
(2236.64 -4.48642 3.46052e-18)
(2216.37 81.4577 -3.53733e-18)
(2221.93 18.1164 2.50375e-23)
(2111.84 -38.0048 9.42533e-19)
(2168.42 -98.4511 0)
(2216.66 -20.3468 -8.3145e-22)
(2235.18 -33.1213 -8.64884e-19)
(2245.4 -19.9326 1.70595e-18)
(2248.49 -9.81424 -1.70526e-18)
(2250.35 -3.94079 7.36005e-21)
(2251.31 -1.10237 8.4821e-19)
(2251.6 0.265113 0)
(2251.66 1.95201 -8.52899e-19)
(2251.7 2.88797 8.60638e-19)
(2251.81 2.6221 0)
(2251.07 0.28483 0)
(2250.91 -0.187179 2.1027e-21)
(2251.33 -0.83378 8.39799e-22)
(2251.81 -3.16273 8.55965e-19)
(2251.63 -2.5852 -8.47622e-19)
(2251.5 -0.559729 0)
(2250.39 2.82357 8.53233e-19)
(2248.69 8.51418 -1.70496e-18)
(2246.01 17.2306 8.46284e-19)
(2236.15 29.6926 -8.40078e-22)
(2218.41 16.8146 0)
(2170.74 93.9017 0)
(2115.75 35.4469 0)
(1868.23 -142.754 -6.59297e-17)
(2123.81 -160.41 8.45428e-17)
(2196.51 -54.908 0)
(2226.21 -57.304 -2.96845e-17)
(2237.5 -23.2594 3.08428e-17)
(2243.63 -11.5489 0)
(2246.71 -4.55443 -3.00381e-20)
(2248.17 -0.999843 -1.47888e-17)
(2248.68 0.8089 1.48615e-17)
(2248.8 2.25985 -3.00189e-20)
(2249.01 2.93977 0)
(2249.27 3.09381 -3.73164e-18)
(2248.69 0.989684 5.56905e-18)
(2248.47 -0.426542 -1.89761e-18)
(2248.86 -1.62175 -2.9635e-20)
(2249.16 -3.64934 0)
(2248.86 -2.55543 0)
(2248.37 -0.437682 -2.96917e-17)
(2246.72 3.54509 2.95993e-17)
(2243.68 10.1944 -3.0222e-17)
(2238.8 21.8375 2.95595e-17)
(2227.18 54.5904 3.21962e-17)
(2198.68 53.5473 -2.93146e-17)
(2127.5 162.753 -8.35347e-17)
(1880.91 139.206 -1.265e-17)
(1650.07 -223.86 -9.10001e-17)
(2009.91 -309.533 1.38252e-16)
(2153.58 -110.992 0)
(2202.01 -64.1654 6.91971e-17)
(2227.48 -31.7037 -7.15528e-17)
(2235.49 -17.1395 -3.34917e-17)
(2239.87 -7.81136 3.42772e-17)
(2241.81 -3.26551 -3.37492e-17)
(2242.67 -0.353648 3.41013e-17)
(2242.94 1.21017 3.28358e-20)
(2243.29 2.21926 0)
(2243.66 3.34346 -2.12631e-18)
(2243.32 1.675 2.16099e-18)
(2243.14 -0.247942 3.28666e-20)
(2243.38 -1.69463 3.29016e-20)
(2243.43 -2.88637 3.40547e-20)
(2242.98 -1.47355 0)
(2242.15 1.908 0)
(2240.14 6.19628 -6.89093e-17)
(2235.58 15.1365 6.73501e-17)
(2228.4 27.5525 -7.21474e-17)
(2206.4 58.8883 1.47502e-16)
(2160.59 99.4844 -7.06976e-17)
(2011.81 299.366 -3.89262e-20)
(1690.36 206.628 8.82719e-20)
(1240.34 -579.455 -1.15004e-16)
(1744.64 -578.598 1.17961e-16)
(2002.2 -169.228 2.24305e-16)
(2155.17 -114.837 -9.58737e-17)
(2196.59 -37.5422 0)
(2212.69 -14.9425 7.51982e-17)
(2222.44 -5.83747 -7.66437e-17)
(2225.94 -0.592369 0)
(2228.05 0.97872 3.56265e-20)
(2228.81 1.63123 0)
(2229.33 2.17425 0)
(2229.8 3.14205 0)
(2229.79 2.21557 4.72141e-18)
(2229.72 -0.138138 -4.71524e-18)
(2229.69 -1.88562 -3.99889e-20)
(2229.29 -3.28478 -3.53027e-20)
(2228.43 -2.57347 0)
(2226.32 -0.438981 0)
(2222.94 5.18348 0)
(2211.81 12.2218 -7.90239e-17)
(2198.92 35.4537 1.60159e-16)
(2161.92 103.356 -7.45631e-17)
(2035.97 163.151 -1.3323e-16)
(1746.41 590.51 1.01634e-16)
(1272.25 550.709 -6.01361e-20)
(1267.45 -623.938 1.70432e-16)
(1137.51 -1045.07 0)
(1533.8 -565.367 0)
(1866.44 -141.88 -1.1481e-16)
(2108.36 -79.0228 1.1711e-16)
(2154.29 -51.8175 0)
(2168.95 -25.2017 1.38302e-20)
(2178.97 -14.3585 4.32636e-17)
(2183.99 -6.06319 -4.38411e-17)
(2185.61 -2.17993 0)
(2186.25 -0.0823839 -1.08049e-17)
(2186.87 2.34728 1.08348e-17)
(2186.9 1.79135 -5.44032e-18)
(2187.12 0.747531 5.44661e-18)
(2186.63 -0.0880953 3.91271e-20)
(2185.72 0.649613 -4.29906e-17)
(2183.66 4.29448 8.6515e-17)
(2178.4 12.9733 1.09836e-18)
(2168.35 24.5878 -4.33455e-17)
(2151.82 53.0921 -9.57396e-17)
(2094.4 61.594 8.9131e-17)
(1866.9 99.6108 8.66148e-20)
(1634.58 493.47 2.77404e-20)
(1103.47 1052.9 1.69479e-16)
(1305.14 615.984 7.40583e-18)
(1327.25 -631.473 0)
(1158.27 -1027.55 0)
(1222.25 -735.055 0)
(1107.79 -837.271 0)
(1910.67 -258.702 0)
(1901.86 -16.4003 1.25718e-16)
(1949.89 16.7216 -1.28791e-16)
(1999.03 18.6365 1.90164e-19)
(2020.58 7.72555 -1.13604e-20)
(2027.22 4.23857 2.7808e-17)
(2027.39 3.85205 -2.81351e-17)
(2030.3 1.35494 -3.63129e-19)
(2027.39 2.21283 -8.7347e-19)
(2029.05 -0.286733 1.03909e-18)
(2026.79 -0.993344 -2.80422e-17)
(2024.56 -3.78598 2.79234e-17)
(2015.11 -8.24424 1.71172e-19)
(1991.34 -16.2942 0)
(1936.96 -14.0453 0)
(1888.98 33.8135 0)
(1874.4 325.77 -2.15266e-16)
(1099.39 817.787 -5.59656e-17)
(1246.29 701.718 1.67266e-16)
(1136.57 992.482 2.06909e-20)
(1348.73 621.546 2.09005e-20)
(1400.83 -617.411 0)
(1256.45 -891.241 4.14304e-20)
(1262.47 -731.567 0)
(1127.57 -825.42 -1.74628e-16)
(1219.36 -681.675 3.45434e-16)
(1138.99 -610.284 -2.31646e-16)
(1189.43 -417.034 0)
(1456.01 -218.845 -1.54218e-19)
(1412.65 -102.42 0)
(1439 -36.9502 0)
(1400.84 -23.8078 -2.90116e-17)
(1426.24 -0.464393 2.95411e-17)
(1393.31 -2.65383 2.96509e-17)
(1417.73 4.26244 -2.9463e-17)
(1398.5 15.854 0)
(1421.96 40.4141 -1.17927e-16)
(1390.62 105.525 1.16126e-16)
(1426.93 209.847 1.19742e-16)
(1198.06 425.321 -1.09154e-16)
(1102.47 601.092 0)
(1193.75 687.399 0)
(1104.37 812.112 -1.7256e-19)
(1274.72 696.594 -1.73355e-16)
(1255.3 868.76 3.78743e-16)
(1391.04 615.828 -1.7384e-16)
(1470.72 -612.027 -1.75191e-16)
(1360.58 -808.231 1.89698e-16)
(1316.7 -643.744 0)
(1161.22 -649.168 -2.38541e-16)
(1179.37 -531.274 -4.34764e-17)
(925.795 -405.845 3.54038e-16)
(511.232 -121.935 -2.54138e-16)
(484.378 -106.86 1.35838e-16)
(269.037 -10.1939 0)
(265.599 -18.0511 0)
(165.337 1.35542 -4.30299e-20)
(219.455 -1.54939 1.60707e-19)
(143.493 9.04213 0)
(205.045 0.0562652 0)
(169.013 11.3535 6.67391e-17)
(234.384 16.2633 -6.80733e-17)
(255.557 11.35 -1.34102e-16)
(457.036 100.213 2.75903e-16)
(490.3 117.928 -6.55278e-18)
(860.846 353.068 -1.32894e-16)
(1155.67 524.803 0)
(1143.28 651.233 0)
(1312.84 613.981 -1.89071e-16)
(1313.51 810.539 2.15293e-16)
(1450.91 618.395 -4.57685e-20)
(1574.97 -546.114 1.68736e-16)
(1487.06 -625.528 -9.6849e-20)
(1469.21 -451.964 1.07805e-16)
(1308.24 -373.316 -9.92644e-17)
(1232.43 -248.674 -5.12956e-20)
(977.838 -128.907 1.21728e-19)
(633.944 -62.6014 1.29327e-16)
(600.596 -132.277 -1.99747e-16)
(474.024 -75.0877 6.75584e-17)
(468.753 -79.1267 0)
(444.673 -42.4883 -3.29009e-17)
(460.452 -31.1787 3.29787e-17)
(443.504 -4.54691 0)
(455.926 15.8163 5.90631e-20)
(443.77 33.219 -3.31981e-17)
(454.338 64.5555 3.30636e-17)
(460.038 75.8217 0)
(580.024 121.878 -1.3406e-16)
(602.01 86.7642 1.30851e-16)
(892.092 121.483 1.19169e-16)
(1204.96 256.295 -2.19136e-16)
(1266.77 360.804 1.20784e-16)
(1435.17 446.042 0)
(1464.07 657.623 1.78599e-16)
(1564.58 567.382 -9.88868e-18)
(1710.67 -399.958 -6.30059e-18)
(1612.75 -253.799 9.6548e-17)
(1451.31 -172.07 -4.4147e-17)
(1323.49 -36.9501 -5.7813e-17)
(1304.91 -105.857 7.90772e-17)
(1117.62 -165.15 -5.75793e-17)
(901.562 -178.15 6.28987e-17)
(886.708 -164.909 -6.38952e-17)
(821.983 -126.629 -8.67188e-20)
(777.311 -100.679 3.22571e-17)
(741.589 -51.4405 1.60388e-17)
(748.432 -32.953 -5.75288e-20)
(724.452 4.51398 -1.60983e-17)
(743.843 32.3954 -6.2215e-20)
(743.606 59.1577 -7.71803e-20)
(774.298 101.95 -2.01451e-18)
(827.357 139.83 1.5489e-21)
(896.138 168.183 5.98297e-18)
(922.14 175.8 -3.88056e-18)
(1110.64 155.46 0)
(1288.13 116.062 1.29463e-17)
(1300.72 61.1705 -4.0017e-17)
(1451.87 170.079 4.87545e-17)
(1606.5 276.731 -6.84258e-17)
(1704.73 422.372 6.44926e-17)
(1811.43 -286.219 -1.04434e-19)
(1761.79 38.5503 -1.38113e-19)
(1611.45 108.422 1.62359e-19)
(1471.22 7.66618 -7.14233e-21)
(1466.19 -65.3199 -1.69456e-19)
(1381.32 -123.136 -1.96069e-19)
(1171.47 -155.842 -7.98306e-21)
(1055.36 -145.059 0)
(974.37 -97.86 0)
(923.541 -83.6862 6.46213e-17)
(871.958 -46.5092 -6.41618e-17)
(868.847 -30.8071 -8.26879e-21)
(844.233 -0.429964 8.25504e-21)
(862.372 27.256 -8.29602e-18)
(868.473 48.9566 8.06912e-18)
(912.374 79.7235 0)
(968.302 101.644 0)
(1039.63 141.217 -6.19995e-17)
(1141.52 160.536 6.01276e-17)
(1351.27 133.294 -1.88446e-19)
(1441.44 99.2371 0)
(1450.38 17.6785 0)
(1610.28 -95.8638 -1.67537e-19)
(1753.23 -37.2582 -1.42098e-19)
(1805.41 301.423 1.52534e-16)
(1783.64 172.616 -1.68688e-16)
(1711.76 401.957 -2.27392e-16)
(1677.55 373.044 1.38595e-16)
(1620.76 223.927 0)
(1606.29 59.8746 2.22508e-19)
(1552.16 -24.3496 1.06563e-16)
(1395.22 -58.2708 -2.18041e-16)
(1233.9 -71.9139 1.15008e-16)
(1113.25 -54.5066 -1.27272e-16)
(1041.45 -51.6459 1.26425e-16)
(983.219 -29.9797 3.21076e-17)
(967.687 -20.7072 -3.99458e-17)
(946.809 0.846716 -8.04144e-18)
(961.311 20.1255 1.6278e-17)
(978.767 34.3365 0)
(1029.68 50.4253 0)
(1103.84 61.3644 1.24174e-16)
(1214.46 75.4396 -2.41321e-16)
(1372.08 72.4771 1.15504e-16)
(1534.19 41.4945 2.2676e-19)
(1594.33 -34.8847 1.92987e-16)
(1618.81 -207.764 -2.17273e-17)
(1695.71 -344.329 -4.71546e-16)
(1713.66 -390.572 5.58904e-16)
(1781.98 -208.943 -2.97645e-16)
(1493.38 531.361 1.14276e-19)
(1515.26 879.595 -1.97703e-16)
(1720.52 601.133 1.25867e-16)
(1712.61 385.702 0)
(1694.79 205.842 0)
(1650.72 112.699 0)
(1518.46 69.2952 0)
(1367.77 21.5337 0)
(1242.31 5.806 -5.48569e-17)
(1159.89 -16.1 1.1104e-16)
(1090.11 -7.28581 -8.39701e-17)
(1070.03 -8.75877 3.14759e-17)
(1047.44 2.39357 -3.52678e-18)
(1064.66 11.1093 1.3022e-20)
(1086.57 13.9394 -5.5924e-17)
(1152.03 19.1186 5.6802e-17)
(1237.17 4.26476 0)
(1355.51 -15.1202 0)
(1507.14 -55.5307 -1.74648e-16)
(1642.45 -102.062 1.89005e-16)
(1690.26 -188.984 -1.70555e-19)
(1715.91 -380.925 6.9952e-20)
(1718.95 -604.467 -9.32672e-20)
(1549.95 -839.172 -7.28501e-20)
(1483.43 -555.443 0)
(1180.31 836.106 -1.84879e-16)
(1569.62 1003.29 1.18453e-16)
(1780.5 750.216 -1.31349e-19)
(1762.46 540.973 1.50532e-16)
(1749.18 344.861 -1.29896e-16)
(1705.48 241.63 0)
(1597.8 183.328 -8.42187e-17)
(1465.09 111.765 8.26514e-17)
(1342.76 66.6649 -4.76807e-17)
(1258.47 30.081 9.67497e-17)
(1190.68 19.4234 -4.82262e-17)
(1164.65 5.36025 1.80825e-19)
(1146.46 3.16728 0)
(1161.17 -1.91784 2.45744e-17)
(1190.91 -11.7877 2.37084e-17)
(1256.84 -27.0954 -4.91887e-17)
(1344.45 -58.6632 -9.10212e-17)
(1460.38 -110.056 9.03816e-17)
(1591.47 -177.317 -7.39374e-17)
(1700.09 -236.912 8.16339e-17)
(1748.31 -340.762 7.95953e-20)
(1765.68 -549.798 -7.81625e-20)
(1764.75 -766.484 0)
(1579.24 -997.88 6.45573e-20)
(1158.84 -854.491 0)
(1148.97 784.744 1.45201e-16)
(1617.26 952.376 -1.31068e-16)
(1800.76 821.916 5.068e-20)
(1778.28 682.603 0)
(1771.74 495.003 0)
(1732.23 380.932 -7.45429e-21)
(1652.83 288.219 0)
(1544.51 192.829 8.00109e-20)
(1433.94 130.003 0)
(1352.12 70.7788 4.30455e-17)
(1282.45 46.8337 -6.42455e-17)
(1259.02 18.4527 3.21552e-17)
(1238.34 3.35851 -1.0793e-17)
(1255.94 -14.5542 0)
(1282.78 -38.9272 0)
(1351.16 -65.7573 4.14241e-17)
(1435.31 -120.154 -1.20353e-16)
(1537.66 -188.444 7.84223e-17)
(1645.9 -278.743 -6.44068e-17)
(1725.3 -381.583 7.11542e-17)
(1771.42 -489.6 0)
(1786.46 -674.435 0)
(1798.85 -830.315 0)
(1631.59 -928.502 -7.00106e-21)
(1122.04 -766.404 -1.66722e-16)
(1264.03 680.227 -2.77636e-20)
(1704.94 836.886 1.06973e-16)
(1787.42 858.748 -9.89276e-17)
(1786.36 748.087 0)
(1780.07 600.765 0)
(1754.73 481.448 7.68203e-21)
(1693.46 364.788 6.56011e-17)
(1598.35 259.541 -6.38824e-17)
(1499.69 184.401 3.30881e-20)
(1428.03 115.439 3.46129e-20)
(1366.15 72.7771 3.52026e-20)
(1340.34 32.882 -1.01576e-20)
(1323.89 4.11716 -1.01577e-20)
(1337.4 -27.8342 1.91648e-17)
(1367.26 -63.2595 -1.94868e-17)
(1428.9 -109.413 4.47469e-20)
(1503.11 -173.485 4.2892e-20)
(1594.89 -253.995 0)
(1691.05 -353.644 -5.76601e-17)
(1753.04 -479.916 6.34962e-17)
(1780.79 -600.073 0)
(1796.7 -740.447 -1.00032e-16)
(1782.09 -866.914 1.03423e-16)
(1708.07 -835.853 6.40904e-21)
(1276.41 -672.147 -1.51065e-16)
(1360.73 580.955 3.41586e-20)
(1736.19 776.984 0)
(1772.95 858.882 0)
(1785.04 791.073 -5.39641e-17)
(1786.11 677.23 4.75482e-17)
(1777.31 558.54 0)
(1728.97 428.861 6.02307e-17)
(1646.79 313.229 -5.85617e-17)
(1561.81 227.446 3.41203e-17)
(1497.78 145.516 -3.3864e-17)
(1438.61 96.9232 1.78294e-17)
(1419.16 43.8149 -1.76489e-17)
(1400.84 3.66533 0)
(1417.09 -40.3813 -1.75523e-17)
(1441.03 -90.0519 1.79244e-17)
(1501.56 -142.645 -3.6566e-20)
(1569.17 -221.19 -3.501e-20)
(1645.37 -314.533 5.64628e-20)
(1727.09 -424.633 5.27915e-17)
(1775.66 -562.462 -5.79803e-17)
(1779.93 -681.686 -4.86293e-20)
(1792.63 -786.739 -4.79697e-20)
(1773.42 -864.267 0)
(1735.55 -766.113 -5.14833e-20)
(1342.37 -567.156 3.47337e-20)
(1401.29 521.117 1.2612e-22)
(1752.27 713.633 0)
(1768.99 847.399 8.50934e-23)
(1787.38 810.107 4.44364e-20)
(1793.15 723.845 -8.78922e-23)
(1797.69 608.063 -5.26703e-17)
(1756.42 477.348 4.89215e-17)
(1683.89 363.12 0)
(1610.35 269.47 -6.38385e-20)
(1556.98 182.358 -1.13697e-22)
(1506.89 118.504 -1.15458e-22)
(1486.23 55.9182 6.81691e-20)
(1471.83 4.54489 0)
(1483.82 -50.6467 0)
(1509.2 -109.332 -1.1517e-22)
(1560.67 -178.28 -1.13617e-22)
(1617.63 -261.174 -2.92953e-17)
(1683.84 -360.632 8.30182e-17)
(1755.43 -469.583 -5.52395e-17)
(1799.34 -605.516 0)
(1791.48 -725.533 -4.49501e-17)
(1793.72 -805.354 4.77155e-17)
(1770.33 -853.117 8.36773e-23)
(1748.91 -720.771 4.60882e-20)
(1404.3 -504.72 1.26026e-22)
(1441.4 452.051 7.13134e-18)
(1744.35 690.775 1.05703e-17)
(1765.83 826.898 9.00823e-17)
(1791.6 805.204 -4.29837e-17)
(1805.26 745.068 4.32342e-17)
(1818.15 640.777 -4.83935e-17)
(1779.87 516.494 4.55352e-17)
(1719.6 397.528 -2.72573e-17)
(1659 298.184 2.69748e-17)
(1612.51 202.966 1.1937e-22)
(1564.83 136.233 1.21502e-22)
(1551.77 64.8428 -1.21845e-22)
(1535.63 5.5359 7.38726e-18)
(1549.96 -59.1513 7.26149e-18)
(1568.09 -127.607 -1.50929e-17)
(1616.87 -198.723 1.19679e-22)
(1668.13 -290.64 5.41076e-17)
(1720.08 -397.17 -1.04431e-16)
(1778.52 -509.606 5.11014e-17)
(1819.75 -635.604 0)
(1801.76 -743.623 -8.83137e-23)
(1796.51 -801.306 8.14984e-23)
(1767.37 -826.816 -8.09295e-23)
(1734.95 -694.298 -9.96775e-17)
(1428.62 -453.388 1.16281e-16)
(1430.73 457.468 1.10643e-19)
(1717.65 663.58 0)
(1770.12 777.491 0)
(1796.05 789.525 4.08216e-20)
(1821.21 742.212 8.23413e-20)
(1836.04 649.527 0)
(1799.64 533.111 4.78024e-17)
(1748 422.597 -4.70036e-17)
(1696.64 322.391 4.82936e-20)
(1658.8 226.017 -4.99656e-20)
(1620.19 147.585 -1.38785e-17)
(1605.38 68.7442 1.37499e-17)
(1594.11 2.71988 3.54911e-18)
(1604.54 -69.2352 -3.47315e-18)
(1624.31 -144.045 1.35097e-17)
(1664.44 -228.27 -4.01614e-17)
(1705.65 -321.731 2.68707e-17)
(1750.26 -427.95 -5.10376e-20)
(1798.28 -536.045 4.21586e-20)
(1836.48 -653.254 -4.14868e-17)
(1818.59 -745.766 1.17272e-18)
(1799.38 -787.665 -1.48504e-18)
(1777.49 -776.189 4.10926e-17)
(1716.81 -664.663 4.63991e-20)
(1422.17 -463.992 5.4362e-20)
(1399.66 459.171 1.08045e-16)
(1723.72 629.831 -9.20351e-17)
(1794.22 723.78 0)
(1808.65 766.452 -3.99255e-17)
(1834.69 732.895 7.57403e-20)
(1851.45 658.227 3.98581e-17)
(1818.57 558.44 4.45027e-17)
(1779.01 446.212 -4.41147e-17)
(1738.37 342.723 -5.04926e-20)
(1705.76 240.765 -2.55625e-17)
(1668.1 161.822 1.2218e-17)
(1660.35 77.8018 1.26256e-17)
(1646.02 5.88212 -5.34607e-20)
(1659.12 -71.7899 0)
(1670.59 -151.999 0)
(1709.02 -234.849 0)
(1746.5 -333.145 5.05523e-20)
(1778.65 -442.611 1.06172e-20)
(1815.19 -549.494 -5.36594e-20)
(1851.08 -650.537 0)
(1830.85 -728.673 3.95835e-20)
(1810.36 -760.505 9.78295e-21)
(1794.49 -722.087 -5.02511e-20)
(1733.1 -637.165 -9.06866e-17)
(1412.27 -468.212 1.0591e-16)
(1388.06 443.87 5.17644e-17)
(1739.06 567.162 -8.54212e-17)
(1811.72 652.459 8.38221e-17)
(1821.42 728.074 -4.13508e-17)
(1851.33 713.395 -3.79699e-17)
(1864.91 644.892 3.82447e-17)
(1834.04 553.716 2.08889e-17)
(1802.17 452.942 -2.10674e-17)
(1767.75 353.976 1.16338e-17)
(1742.35 254.533 -2.33384e-17)
(1713.69 167.949 1.76169e-17)
(1703.68 79.3378 -7.41994e-18)
(1694.45 3.55557 1.48547e-18)
(1703.3 -78.1704 -4.40706e-20)
(1717.42 -162.133 2.32627e-17)
(1747.28 -254.8 -2.39481e-17)
(1776.7 -350.645 4.24814e-20)
(1805 -453.508 4.21019e-17)
(1831.31 -552.342 -2.10519e-18)
(1863.44 -643.855 -3.93157e-17)
(1848.23 -712.905 0)
(1820.35 -729.513 4.19416e-17)
(1811.29 -665.638 -3.79838e-17)
(1736.61 -582.302 -9.18041e-17)
(1393.58 -446.633 -4.21165e-18)
(1414.66 414.587 -5.11208e-17)
(1761.36 496.046 4.55173e-17)
(1833.01 604.553 1.93072e-20)
(1837.16 692.235 -5.51442e-20)
(1868.95 691.689 1.87214e-20)
(1876.1 632.348 3.74458e-17)
(1850.56 554.072 -1.85518e-17)
(1827.99 455.012 -2.00859e-17)
(1802.39 355.772 4.42221e-20)
(1781.64 254.593 -4.55253e-20)
(1752.61 170.398 2.06824e-20)
(1749.86 79.9595 -2.0616e-20)
(1737.03 0.979995 0)
(1749.18 -83.7281 4.99984e-21)
(1755.37 -169.719 -1.09521e-17)
(1785.13 -258.14 1.12133e-17)
(1811.11 -356.704 -2.10349e-17)
(1827.65 -460.817 9.09728e-19)
(1846.06 -552.821 1.96531e-17)
(1874.72 -629.448 -5.45796e-20)
(1863.58 -689.311 -3.75921e-17)
(1839.58 -685 3.60542e-17)
(1833.57 -594.362 0)
(1760.38 -512.817 -4.55796e-17)
(1394.42 -424.701 4.91532e-17)
(1427.63 376.871 0)
(1776.54 424.246 -3.75581e-17)
(1841.15 524.428 4.37252e-17)
(1853.3 636.51 1.7933e-20)
(1882.58 666.329 1.74397e-20)
(1890.63 614.309 -3.57102e-17)
(1866.38 540.553 3.75023e-17)
(1847.35 452.206 2.0051e-17)
(1825.8 361.116 6.72672e-19)
(1811.81 265.876 -2.05229e-17)
(1791.61 177.462 -2.17254e-20)
(1785.5 84.4583 2.43163e-20)
(1777.15 3.75044 0)
(1784.23 -83.0004 4.36934e-20)
(1793.72 -170.686 -2.16625e-20)
(1814.53 -264.656 1.02415e-17)
(1835.03 -355.691 -1.04217e-17)
(1850.87 -451.252 -2.01539e-20)
(1861.39 -536.992 -2.10412e-20)
(1886.74 -611.556 1.78663e-20)
(1875.82 -665.622 -3.70367e-17)
(1852.68 -644.053 -5.38724e-18)
(1845.77 -536.585 3.50514e-17)
(1778.46 -428.979 0)
(1434.62 -387.947 5.20898e-17)
(1450.4 351.439 -9.85766e-17)
(1790.53 365.519 4.26092e-17)
(1848.63 464.638 3.37207e-17)
(1870.25 597.728 -3.99329e-17)
(1896.69 630.841 0)
(1903.12 593.66 -2.16181e-21)
(1880.73 531.707 0)
(1869.39 446.654 -2.37904e-21)
(1855.21 354.859 -2.46535e-21)
(1845.81 259.056 0)
(1823.22 175.114 0)
(1824.51 83.1197 -2.55894e-21)
(1812.24 1.44743 0)
(1823.18 -86.8489 0)
(1824.82 -174.044 -9.85002e-18)
(1846.91 -262.017 9.94737e-18)
(1864.22 -354.933 -2.48053e-21)
(1871.63 -451.605 -1.87419e-17)
(1874.44 -530.02 1.81001e-17)
(1900.53 -588.739 0)
(1891.3 -629.032 3.65866e-17)
(1869.13 -591.735 -7.35211e-17)
(1854.07 -462.749 7.616e-17)
(1794.82 -371.519 6.25693e-18)
(1449.86 -351.533 -4.79839e-17)
(1477.96 317.992 1.18625e-20)
(1802.44 316.253 -9.66309e-21)
(1834.32 406.506 0)
(1883.29 515.919 0)
(1906.87 590.478 0)
(1917.29 569.477 8.03178e-21)
(1895.52 506.267 0)
(1886.93 428.874 -8.5755e-21)
(1875.32 347.742 0)
(1869.58 259.236 -8.82188e-21)
(1855.81 174.881 0)
(1853.09 81.9142 -2.37329e-18)
(1845.62 0.539538 2.35041e-18)
(1851.48 -88.1041 0)
(1856.98 -174.906 9.3305e-18)
(1870.17 -264.844 -1.88092e-17)
(1883.73 -348.315 9.38292e-18)
(1893.53 -434.815 0)
(1889.76 -510.555 1.76631e-17)
(1912.48 -570.226 -1.65273e-17)
(1901.68 -591.801 3.62329e-17)
(1882.82 -530.245 -3.24023e-17)
(1849.05 -403.322 0)
(1805.9 -302.701 0)
(1471.71 -318.504 0)
(1481.54 297.758 -1.18332e-20)
(1802.68 290.904 9.54442e-21)
(1834.57 334.217 0)
(1900.74 445.04 0)
(1917.15 539.794 0)
(1929.26 541.742 -8.10843e-21)
(1909.32 496.232 0)
(1906.5 423.384 8.79814e-21)
(1902.4 341.823 0)
(1899.97 252.349 -9.00765e-18)
(1881.44 172.65 9.03632e-18)
(1886.11 82.756 -8.42922e-21)
(1874.36 2.5995 9.28972e-21)
(1884.2 -85.5422 8.42755e-21)
(1881.6 -170.072 0)
(1897.68 -253.65 0)
(1908.48 -339.24 9.05854e-21)
(1911.42 -426.061 -1.76933e-17)
(1904.24 -493.307 1.69545e-17)
(1924.62 -538.295 0)
(1910.02 -541.277 7.99685e-21)
(1896.39 -460.012 0)
(1830.52 -335.643 0)
(1814.39 -275.563 0)
(1494.88 -287.534 0)
(1504.29 274.45 -4.49115e-17)
(1811.33 263.518 3.93065e-17)
(1843.98 283.48 0)
(1906.64 347.305 -1.71585e-20)
(1925.12 482.328 0)
(1939.04 509.111 -1.53419e-17)
(1924.15 466.947 3.32441e-17)
(1923.45 401.192 -1.70985e-17)
(1919.67 328.924 -8.61416e-18)
(1917.34 248.367 8.63603e-18)
(1908.57 170.333 4.41006e-21)
(1908.39 79.8078 1.1241e-18)
(1901.67 1.03125 -1.07875e-18)
(1906.69 -86.1888 8.59629e-18)
(1908.88 -169.402 -8.64425e-18)
(1915.38 -252.913 0)
(1925.23 -327.512 -1.63119e-20)
(1932.65 -406.764 0)
(1920.23 -472.047 0)
(1933.49 -510.783 -1.71849e-17)
(1918.63 -485.401 1.51349e-17)
(1904.19 -354.558 0)
(1840.58 -279.616 3.77186e-17)
(1816.63 -251.146 1.66253e-18)
(1511.45 -267.1 -9.15751e-17)
(1526.98 258.042 4.53126e-17)
(1820.28 245.453 1.84037e-20)
(1852.49 224.864 3.22852e-17)
(1904.94 287.936 -2.36571e-17)
(1931.01 427.266 -1.84817e-17)
(1945.62 463.445 0)
(1935.22 447.368 8.3483e-21)
(1941.86 391.495 1.62455e-17)
(1943.73 319.518 -1.66103e-17)
(1944.12 235.903 0)
(1928.59 160.996 0)
(1936.07 75.9657 -2.58901e-20)
(1924.81 -0.0760054 3.24232e-20)
(1934.12 -84.9646 1.68733e-20)
(1928.06 -163.599 4.18188e-18)
(1939.77 -242.004 -4.13635e-18)
(1946.74 -320.359 8.88954e-21)
(1948.81 -396.926 1.67862e-17)
(1934.54 -448.044 -3.29809e-17)
(1943.59 -462.196 1.49351e-17)
(1927.52 -424.087 -1.55888e-20)
(1900.44 -286.521 0)
(1849.88 -224.3 1.78118e-20)
(1825.26 -241.222 3.81005e-17)
(1528.47 -254.892 -8.88778e-17)
(1541.46 236.922 -4.44552e-17)
(1833.55 227.192 -3.63818e-17)
(1858.67 197.92 3.563e-17)
(1883.84 195.672 1.48642e-17)
(1934.37 343.647 -1.93405e-17)
(1949.26 417.524 0)
(1948.29 413.827 4.04317e-21)
(1957.8 366.975 -1.18775e-20)
(1958.91 305.658 8.01292e-18)
(1957.11 232.879 -1.61307e-17)
(1951.41 161.389 8.05295e-18)
(1953.23 75.6146 2.00223e-18)
(1946.95 2.2871 -1.87328e-18)
(1951.03 -80.2123 1.86704e-18)
(1951.28 -157.84 -2.0106e-18)
(1953.08 -235.589 0)
(1960.99 -301.852 1.19728e-20)
(1967.63 -370.898 -3.84015e-21)
(1946.75 -418.465 -1.71112e-17)
(1943.33 -420.831 1.46618e-17)
(1931.52 -349.717 0)
(1881.44 -197.365 0)
(1858.12 -194.38 -4.30253e-21)
(1838.35 -223.493 -3.74901e-17)
(1552.35 -235.184 -1.364e-18)
(1551.83 219.943 -2.08745e-17)
(1840.73 217.051 1.85895e-17)
(1867.46 180.165 4.29402e-21)
(1892.66 142.03 0)
(1938.97 258.105 1.43447e-17)
(1953.01 351.14 -1.74926e-17)
(1955.52 380.722 3.81639e-21)
(1972.47 352.732 3.87647e-21)
(1979.04 295.859 1.47366e-20)
(1981.16 220.255 -1.92172e-18)
(1967.65 150.154 9.87114e-19)
(1976.56 70.9261 1.89533e-18)
(1965.39 1.00067 -9.72535e-19)
(1974.21 -78.94 3.8775e-18)
(1967.06 -150.922 -3.8931e-18)
(1975.75 -224.455 0)
(1978.75 -294.858 1.08888e-20)
(1979.77 -356.429 -1.62775e-17)
(1957.65 -380.191 1.5042e-17)
(1949.64 -352.244 3.77609e-21)
(1932.12 -257.044 0)
(1887.14 -136.228 0)
(1867.07 -179.891 4.3352e-21)
(1847.76 -219.206 -3.68584e-17)
(1558.28 -220.59 4.17159e-17)
(1574.5 194.459 2.09884e-20)
(1855.12 195.47 0)
(1885.44 161.896 -8.04961e-21)
(1896.08 72.5705 -1.50189e-17)
(1923.07 180.146 1.84293e-17)
(1951.43 303.537 -1.42233e-17)
(1959.4 333.988 1.69033e-17)
(1984.68 318.018 -7.42394e-18)
(1990.68 274.273 7.79934e-18)
(1989.73 211.118 -3.76395e-18)
(1986.41 147.364 3.78855e-18)
(1989.6 67.8272 -1.84609e-18)
(1983.45 0.829968 2.10877e-18)
(1987.28 -76.4997 -2.49908e-19)
(1986.61 -147.393 3.7867e-18)
(1985.8 -217.505 -7.57117e-18)
(1990.43 -273.283 -4.07557e-18)
(1993.45 -324.58 7.42707e-18)
(1960.32 -336.684 1.51918e-20)
(1950.17 -299.944 -7.70317e-21)
(1918.25 -177.5 0)
(1894 -69.7346 0)
(1887.49 -163.317 0)
(1857.13 -200.515 -1.81776e-17)
(1574.13 -198.178 2.02523e-17)
(1579.58 177.039 -2.53192e-21)
(1861.08 176.057 0)
(1902.38 154.578 1.02592e-20)
(1904.4 55.4483 -8.08558e-21)
(1898.9 102.015 -7.61487e-21)
(1949.45 196.801 0)
(1961.08 283.401 -7.50988e-21)
(1991.87 294.969 7.1964e-18)
(2006.05 263.231 -7.68631e-18)
(2011.18 201.079 0)
(1999.65 138.043 1.75333e-21)
(2009.53 65.3931 0)
(1998.53 2.62297 0)
(2007.14 -71.4668 1.82445e-18)
(1999.17 -136.328 -1.83999e-18)
(2005.7 -202.433 -7.32583e-21)
(2003.07 -259.903 -1.78062e-21)
(1997.91 -296.737 7.36752e-21)
(1965.57 -281.881 -8.64621e-18)
(1949.05 -210.04 7.12448e-18)
(1888.73 -104.04 -1.74498e-17)
(1898.04 -50.9587 3.25628e-17)