/*--------------------------------*- C++ -*----------------------------------*\
| =========                 |                                                 |
| \\      /  F ield         | OpenFOAM: The Open Source CFD Toolbox           |
|  \\    /   O peration     | Version:  2112                                  |
|   \\  /    A nd           | Website:  www.openfoam.com                      |
|    \\/     M anipulation  |                                                 |
\*---------------------------------------------------------------------------*/
FoamFile
{
    version     2.0;
    format      ascii;
    arch        "LSB;label=32;scalar=64";
    class       volScalarField;
    location    "0.00653";
    object      alphat;
}
// * * * * * * * * * * * * * * * * * * * * * * * * * * * * * * * * * * * * * //

dimensions      [1 -1 -1 0 0 0 0];

internalField   nonuniform List<scalar> 
13875
(
0.11986
0.0816021
0.0784486
0.0782767
0.0783233
0.0783801
0.0783089
0.0782855
0.0783183
0.0783135
0.0782868
0.0783045
0.0783762
0.0784119
0.0783946
0.0782986
0.0782561
0.0782917
0.0783007
0.0783545
0.0783209
0.0782661
0.0784866
0.0814915
0.120923
0.103938
0.0576791
0.0570819
0.0571594
0.0566545
0.0566706
0.0570325
0.0571148
0.0572011
0.0572073
0.057122
0.0571149
0.0566557
0.0566138
0.0566679
0.0570979
0.0571183
0.0571491
0.0570739
0.0566803
0.0566742
0.0571388
0.0570684
0.0573637
0.104478
0.110618
0.0553245
0.055875
0.0547253
0.0545657
0.0544439
0.0542207
0.0541477
0.0542513
0.0543849
0.05425
0.0543481
0.0542489
0.054277
0.0542403
0.0543503
0.054107
0.0542489
0.0542826
0.0544538
0.0545308
0.0546026
0.0557869
0.0550657
0.111197
0.115884
0.0546442
0.0553818
0.0543161
0.0540278
0.0538995
0.053619
0.0534922
0.0535125
0.0535136
0.0534001
0.0534897
0.0537038
0.0537401
0.0536924
0.0534819
0.0533613
0.0534623
0.0536386
0.0539087
0.0539999
0.0542029
0.0551969
0.0542845
0.115889
0.121031
0.054634
0.0551213
0.0537483
0.0536679
0.0534796
0.0531091
0.0530079
0.0530219
0.0530146
0.0529118
0.0530026
0.0532248
0.0532651
0.0532154
0.0529932
0.052874
0.0529539
0.0531124
0.0534777
0.0536076
0.0536124
0.0550209
0.0543239
0.12147
0.124407
0.0547446
0.0551871
0.0536101
0.0532856
0.0530591
0.0527123
0.0525864
0.0525984
0.0525701
0.0524759
0.0525438
0.0527801
0.0528492
0.0527662
0.0525377
0.0524448
0.0525465
0.052738
0.0530578
0.0532394
0.0535049
0.0548849
0.054391
0.124118
0.128745
0.0564746
0.055783
0.0534569
0.0532638
0.0528615
0.0523451
0.0522251
0.052207
0.0521725
0.0520928
0.052166
0.0524173
0.0524762
0.0523977
0.0521476
0.0520745
0.0521626
0.0523623
0.0528637
0.0531961
0.0533633
0.0556429
0.0563541
0.128982
0.135703
0.061197
0.057837
0.0544127
0.0534031
0.0528222
0.0521925
0.0519912
0.0519364
0.0518773
0.0517936
0.0518381
0.0521176
0.0521863
0.0520826
0.0518209
0.0518058
0.0519277
0.0522242
0.0527928
0.0533284
0.054278
0.0575157
0.0610304
0.135544
0.151308
0.0692457
0.0615424
0.0559162
0.0544061
0.0531311
0.0522006
0.0518821
0.0517553
0.0516822
0.0516253
0.0516483
0.0519629
0.052034
0.0519228
0.0516236
0.0516579
0.0518095
0.0521705
0.0530998
0.0542296
0.0556194
0.0610253
0.0684042
0.154137
0.23934
0.0874463
0.0664682
0.0590071
0.0554144
0.0537251
0.0525499
0.052094
0.0518694
0.0517245
0.0517093
0.0517118
0.0520483
0.0521261
0.0520062
0.0517212
0.0517768
0.0519657
0.0524522
0.0536193
0.0552724
0.0586685
0.066019
0.0866885
0.241159
0.365467
0.11845
0.0759774
0.0628631
0.0575886
0.0548445
0.0532771
0.0526814
0.0523682
0.0522227
0.0522138
0.0521989
0.0525268
0.0526098
0.0525203
0.0522932
0.0523453
0.0525883
0.0530686
0.054646
0.0573447
0.0617
0.0748057
0.112973
0.365649
0.658479
0.193221
0.10404
0.074486
0.0615884
0.0575169
0.055397
0.0542762
0.0537552
0.0535743
0.0535205
0.053501
0.0537676
0.0538758
0.0538563
0.0537529
0.0538378
0.0542418
0.0551933
0.0568993
0.0619322
0.0734396
0.100331
0.182948
0.643644
0.582352
0.436774
0.176405
0.0926462
0.0770166
0.0653322
0.0599896
0.0580139
0.0571047
0.0567857
0.0566464
0.0566151
0.0567691
0.056905
0.0569939
0.0570544
0.0573113
0.0581196
0.0599967
0.0654501
0.0764166
0.0892881
0.171261
0.434126
0.581304
0.492095
0.401519
0.348431
0.327298
0.116958
0.0810251
0.073945
0.068121
0.0656565
0.0648241
0.0644212
0.0642577
0.0642923
0.0644661
0.0647458
0.065196
0.0661001
0.0687848
0.0753985
0.0833016
0.131976
0.331643
0.337809
0.401378
0.500207
0.408966
0.350447
0.331207
0.33651
0.300719
0.199797
0.127039
0.0984415
0.0890746
0.0874559
0.0869371
0.0866445
0.0866993
0.0868817
0.087301
0.0880848
0.0889046
0.0967703
0.134773
0.216285
0.304496
0.333256
0.331807
0.360847
0.421614
0.331008
0.294907
0.283821
0.304227
0.316368
0.324061
0.255012
0.194854
0.170363
0.149673
0.137255
0.133498
0.131519
0.132671
0.135607
0.145397
0.173117
0.195558
0.252769
0.327228
0.310865
0.306237
0.292857
0.299379
0.342761
0.240773
0.229117
0.228901
0.270829
0.32505
0.405365
0.531002
0.610178
0.597382
0.561881
0.589138
0.600904
0.612518
0.60718
0.594078
0.577216
0.576923
0.609911
0.56372
0.411097
0.32249
0.274127
0.233705
0.236925
0.253522
0.142802
0.154908
0.189017
0.229575
0.325891
0.456098
0.593161
0.664012
0.560683
0.499985
0.494273
0.493948
0.499451
0.497978
0.4997
0.521235
0.566492
0.641692
0.604984
0.46334
0.33487
0.237872
0.18334
0.146267
0.134044
0.0689143
0.103747
0.166798
0.255542
0.370813
0.423686
0.494159
0.545153
0.482375
0.43113
0.421628
0.419807
0.423407
0.42639
0.428791
0.43973
0.478373
0.534354
0.498484
0.432119
0.387945
0.280067
0.173351
0.105757
0.0706408
0.0263859
0.0523926
0.11775
0.246765
0.363352
0.368216
0.387912
0.428602
0.421075
0.395571
0.385039
0.377202
0.375953
0.3831
0.388236
0.392839
0.407121
0.414883
0.386961
0.372907
0.377995
0.259747
0.122179
0.0522986
0.0252713
0.070864
0.0818462
0.112122
0.193601
0.282589
0.288521
0.308324
0.353441
0.371375
0.35975
0.346176
0.33295
0.329594
0.339029
0.348594
0.353829
0.35561
0.339965
0.305467
0.291076
0.287652
0.19168
0.111009
0.0798399
0.0684488
0.118649
0.12579
0.125263
0.159155
0.210273
0.22475
0.253518
0.30214
0.326638
0.319858
0.305089
0.290009
0.285433
0.295908
0.307912
0.314247
0.312578
0.289831
0.248183
0.224299
0.213461
0.154441
0.125741
0.125297
0.11911
0.158447
0.13254
0.12748
0.135513
0.163341
0.180068
0.214572
0.260558
0.285601
0.280391
0.265427
0.250151
0.245338
0.254811
0.267425
0.27453
0.271734
0.250352
0.208817
0.178807
0.165802
0.135529
0.12775
0.134565
0.160073
0.201893
0.155708
0.128605
0.123823
0.137549
0.155429
0.18364
0.224866
0.247072
0.242807
0.228866
0.215206
0.210637
0.219507
0.23118
0.237831
0.235336
0.215284
0.17922
0.153555
0.138037
0.123286
0.129221
0.159627
0.198563
0.223118
0.18409
0.131736
0.118216
0.121616
0.136111
0.159829
0.192705
0.211978
0.208898
0.197129
0.18481
0.181184
0.188684
0.199842
0.206141
0.203038
0.185172
0.15635
0.134066
0.121956
0.119389
0.132342
0.190586
0.21586
0.245072
0.212897
0.132282
0.114963
0.111542
0.123406
0.141239
0.16785
0.183151
0.180239
0.170477
0.159906
0.156349
0.163171
0.172406
0.177453
0.175448
0.161025
0.138388
0.121067
0.111745
0.115727
0.132229
0.208301
0.238271
0.268214
0.230518
0.133375
0.11203
0.105283
0.110982
0.126588
0.146056
0.157857
0.155221
0.147181
0.138121
0.135571
0.141161
0.14939
0.1538
0.151778
0.140509
0.12352
0.108932
0.105457
0.11287
0.133952
0.22436
0.260064
0.29167
0.24627
0.132909
0.107874
0.0992093
0.102977
0.114582
0.12906
0.13712
0.134277
0.12776
0.120598
0.118085
0.123386
0.130074
0.133779
0.133182
0.124825
0.112077
0.10131
0.0998304
0.108981
0.132994
0.239368
0.291072
0.322699
0.269775
0.137424
0.105749
0.0972523
0.0962465
0.104112
0.114256
0.120031
0.117437
0.111883
0.105349
0.103463
0.10759
0.113426
0.116544
0.115935
0.110329
0.102058
0.0941817
0.0965598
0.106269
0.135042
0.254496
0.319466
0.353511
0.289404
0.139417
0.101879
0.0918198
0.0915743
0.0963822
0.102873
0.105697
0.102717
0.0981074
0.0931105
0.0911138
0.0951932
0.0998311
0.102572
0.103105
0.0992533
0.0939308
0.0888924
0.0910865
0.102087
0.137545
0.278032
0.345619
0.367515
0.300252
0.144323
0.0998164
0.0901538
0.0875609
0.0896362
0.0918333
0.0932392
0.0906401
0.0869016
0.0822438
0.0807745
0.0839947
0.0883813
0.0907813
0.0912503
0.0894013
0.0875704
0.085354
0.0885499
0.100047
0.141169
0.294746
0.369107
0.376992
0.303315
0.147234
0.0983601
0.0858541
0.0826369
0.083879
0.0844383
0.0842707
0.081118
0.0774577
0.0737568
0.0720247
0.0751839
0.078539
0.0808684
0.0823133
0.0815877
0.0816892
0.0805364
0.0841048
0.0975077
0.144831
0.296598
0.380442
0.390941
0.300772
0.15426
0.0990808
0.0839718
0.0791998
0.0793135
0.0767492
0.0754614
0.0726019
0.0696246
0.0659464
0.0646911
0.0671984
0.0706445
0.0726635
0.0740807
0.0746892
0.0772288
0.0771672
0.0822444
0.097533
0.15258
0.299698
0.391952
0.398757
0.298108
0.163523
0.0999654
0.0804924
0.0752259
0.0736821
0.0709968
0.0689652
0.0658019
0.0627725
0.0599134
0.0584382
0.0610166
0.0637106
0.0659222
0.0680047
0.0689661
0.0721927
0.0731231
0.0785085
0.0979486
0.160875
0.295531
0.399312
0.403729
0.294888
0.165793
0.10289
0.0806366
0.0732688
0.0699812
0.0656943
0.0627627
0.0597331
0.057283
0.0542481
0.0531623
0.055177
0.0580003
0.0597601
0.0617088
0.0638851
0.0682408
0.0709979
0.0780258
0.0993135
0.166155
0.297667
0.406255
0.409159
0.287978
0.164254
0.105819
0.080715
0.069212
0.0647604
0.0610074
0.0582418
0.055011
0.052219
0.0498912
0.0486321
0.0507629
0.0529246
0.0551349
0.0575208
0.0591243
0.0632246
0.0673978
0.0777168
0.103061
0.165727
0.296166
0.407777
0.410141
0.287251
0.164253
0.1113
0.0825198
0.0681157
0.0624232
0.0567378
0.0535482
0.050318
0.0482002
0.0456804
0.0447469
0.046425
0.0488101
0.050466
0.0529979
0.0555112
0.0607818
0.0659964
0.0794772
0.107125
0.165589
0.291556
0.410363
0.402836
0.284412
0.162469
0.120754
0.0846274
0.0657068
0.0583162
0.0529712
0.0500916
0.0471578
0.0445178
0.0425298
0.0413969
0.0431507
0.0450179
0.0472228
0.0494915
0.0512589
0.0565966
0.0635402
0.0808107
0.115879
0.163834
0.284183
0.404781
0.401284
0.281579
0.159253
0.127239
0.0878263
0.0666638
0.05718
0.050039
0.0464842
0.0433765
0.0415482
0.0393384
0.038494
0.039879
0.0420259
0.043484
0.0461116
0.0489214
0.0552094
0.0642394
0.0853322
0.129232
0.16256
0.282093
0.401147
0.395567
0.281052
0.15207
0.127709
0.0931136
0.0664965
0.0540775
0.0468717
0.0437234
0.0411231
0.038721
0.0369915
0.0359577
0.0374907
0.039147
0.0412103
0.0433304
0.0454974
0.052552
0.0641117
0.0898633
0.12987
0.157346
0.279101
0.398016
0.387472
0.280524
0.145391
0.126924
0.101927
0.0693757
0.0547782
0.0455669
0.0413726
0.0381559
0.0364242
0.0344722
0.0337431
0.034942
0.0367756
0.038176
0.0410227
0.0444114
0.0526965
0.0664262
0.0989278
0.128888
0.150323
0.281892
0.392791
0.383861
0.278905
0.138121
0.124601
0.114062
0.0713558
0.0536402
0.0436423
0.0393611
0.0366175
0.0342514
0.0326906
0.0317893
0.0331569
0.0346144
0.0366323
0.0388744
0.0423199
0.0520354
0.0689657
0.113122
0.127642
0.144368
0.281771
0.382825
0.376998
0.280177
0.134318
0.119455
0.113626
0.0774179
0.0553601
0.0440815
0.0381002
0.0342902
0.0324597
0.0307087
0.0300782
0.0311194
0.0327855
0.0343304
0.0378642
0.0426857
0.0532236
0.0746925
0.113165
0.122613
0.138557
0.279184
0.378143
0.369539
0.277476
0.132185
0.114324
0.112682
0.0867548
0.0564605
0.0434586
0.0372945
0.0335365
0.0308987
0.0294025
0.0285461
0.0297488
0.0311629
0.0334205
0.0366188
0.0419427
0.0543239
0.0836105
0.112674
0.115658
0.133504
0.277845
0.372296
0.363774
0.27465
0.130291
0.108456
0.108645
0.0962608
0.0613476
0.0447042
0.0373707
0.0321605
0.0296347
0.0278389
0.0272195
0.028166
0.0298685
0.0319704
0.0370134
0.0435396
0.0597794
0.0980113
0.109767
0.109807
0.132025
0.275476
0.364561
0.3573
0.273154
0.130669
0.105085
0.102764
0.0960296
0.068777
0.0458836
0.0371658
0.0325184
0.028846
0.0270079
0.0261019
0.0272925
0.0290382
0.0320754
0.0364563
0.0445684
0.06759
0.0977695
0.105442
0.105835
0.13017
0.273677
0.360417
0.345565
0.266513
0.132167
0.101649
0.0972747
0.0941737
0.0813166
0.0509872
0.0383148
0.0320326
0.0285457
0.0261508
0.0253096
0.0263916
0.0286868
0.0316597
0.0376322
0.0495898
0.0801068
0.095664
0.0990767
0.102085
0.131119
0.271189
0.351101
0.336684
0.262283
0.131449
0.100246
0.0932896
0.0907201
0.0813134
0.0575228
0.0398462
0.0326898
0.0285256
0.0261901
0.0247999
0.0263985
0.0286962
0.0322504
0.0388305
0.0568855
0.0804968
0.0918257
0.0951792
0.10098
0.132506
0.265447
0.339858
0.31141
0.251363
0.130646
0.0983446
0.0898175
0.086246
0.0803143
0.0687591
0.0446527
0.0329177
0.0286115
0.025941
0.0248031
0.0261525
0.0287354
0.0326374
0.0436255
0.0686302
0.0797808
0.0869139
0.0910428
0.0991874
0.132481
0.253736
0.313294
0.283037
0.235178
0.126619
0.0974031
0.0875025
0.0821678
0.0779242
0.0690764
0.0513648
0.035965
0.0291928
0.0263616
0.0249096
0.0265351
0.0292329
0.0352376
0.0495016
0.0693766
0.0774788
0.0821317
0.0887575
0.098372
0.12856
0.237594
0.285747
0.124661
0.233233
0.23621
0.272293
0.289611
0.288293
0.292103
0.285183
0.267939
0.251226
0.279467
0.327143
0.377483
0.428759
0.479836
0.525983
0.563537
0.591755
0.614154
0.633873
0.648212
0.662219
0.66952
0.660818
0.608085
0.425
0.295637
0.225578
0.15973
0.0724236
0.104448
0.208223
0.243347
0.282327
0.293744
0.301466
0.314872
0.304793
0.282507
0.25034
0.244263
0.291793
0.345861
0.400313
0.452151
0.499518
0.540161
0.571138
0.594492
0.615214
0.634229
0.650112
0.662655
0.667724
0.656405
0.562585
0.32939
0.224972
0.152961
0.0698095
0.106573
0.214606
0.258872
0.295934
0.307077
0.326759
0.33613
0.328093
0.300406
0.257607
0.240645
0.283934
0.332315
0.381052
0.428827
0.475217
0.518595
0.551126
0.577009
0.600077
0.622989
0.645306
0.666456
0.679983
0.677606
0.629975
0.415008
0.230445
0.147637
0.0671724
0.100826
0.211788
0.272416
0.302062
0.317235
0.336226
0.343347
0.3382
0.310553
0.261285
0.234758
0.256205
0.307428
0.356703
0.403511
0.450338
0.493443
0.528639
0.557082
0.582525
0.60758
0.633168
0.654795
0.668196
0.671878
0.64783
0.5334
0.264779
0.146239
0.0657392
0.0968713
0.224561
0.285822
0.308144
0.333628
0.348376
0.345177
0.330679
0.31074
0.26249
0.234283
0.243049
0.29007
0.336321
0.380291
0.425069
0.468103
0.505052
0.53557
0.561821
0.58789
0.612672
0.633575
0.645544
0.650104
0.634462
0.570462
0.366336
0.157377
0.0654326
0.0927052
0.240355
0.300325
0.316892
0.343203
0.346434
0.329175
0.314794
0.297003
0.254465
0.231931
0.230116
0.273001
0.317399
0.359109
0.401513
0.443231
0.480138
0.51119
0.538645
0.564414
0.587295
0.606732
0.618003
0.621309
0.607732
0.564187
0.44645
0.201712
0.069392
0.0911376
0.257125
0.316907
0.337198
0.360032
0.348815
0.316519
0.297845
0.281335
0.244792
0.226072
0.22087
0.260377
0.301299
0.339403
0.379878
0.419939
0.456081
0.487589
0.515397
0.539487
0.55971
0.576924
0.587301
0.58955
0.576543
0.540429
0.46808
0.286763
0.089102
0.0909876
0.27444
0.333185
0.360051
0.369474
0.342607
0.303501
0.278323
0.262794
0.234418
0.2181
0.214148
0.248884
0.285552
0.321464
0.360451
0.399712
0.434055
0.465205
0.492078
0.514602
0.532132
0.54688
0.556069
0.557653
0.546564
0.517264
0.466888
0.373743
0.168853
0.092338
0.293778
0.350072
0.377668
0.374645
0.336524
0.291731
0.256907
0.243884
0.224633
0.209704
0.210787
0.240247
0.272858
0.307443
0.344638
0.382236
0.415693
0.446054
0.471124
0.491292
0.50643
0.518705
0.527306
0.529681
0.523319
0.507418
0.485078
0.462511
0.222058
0.094898
0.312824
0.366562
0.38971
0.373563
0.331511
0.278842
0.239576
0.22983
0.217985
0.205003
0.210525
0.234906
0.266646
0.298529
0.3331
0.366723
0.400145
0.429283
0.453231
0.470695
0.483901
0.494236
0.502348
0.50722
0.509369
0.511339
0.530094
0.598271
0.24105
0.0983083
0.331572
0.383212
0.399604
0.377015
0.331765
0.274087
0.231872
0.223368
0.215205
0.206274
0.211816
0.234753
0.263972
0.293524
0.325342
0.355831
0.386111
0.413607
0.436302
0.452359
0.463727
0.47316
0.481449
0.48947
0.501874
0.5292
0.612439
0.647517
0.246645
0.102119
0.348578
0.392839
0.409148
0.385638
0.334525
0.272212
0.228488
0.222115
0.216152
0.212932
0.217982
0.240998
0.26649
0.292749
0.321083
0.349359
0.375959
0.401085
0.420838
0.436166
0.446876
0.45535
0.464325
0.47635
0.500533
0.563596
0.729567
0.646036
0.246841
0.106935
0.361837
0.401812
0.414565
0.394761
0.343709
0.283017
0.238061
0.229773
0.223445
0.225092
0.23428
0.253059
0.274235
0.295774
0.320524
0.34553
0.368804
0.39091
0.408038
0.421887
0.431758
0.440127
0.449313
0.46607
0.506677
0.62024
0.753184
0.615874
0.243165
0.111514
0.374382
0.40796
0.41677
0.403612
0.359179
0.308311
0.263206
0.250155
0.243266
0.249478
0.257729
0.269591
0.285381
0.302641
0.322925
0.343796
0.363318
0.38152
0.396615
0.408623
0.41743
0.425267
0.436709
0.462539
0.531954
0.718566
0.724822
0.566886
0.238918
0.116353
0.385237
0.412024
0.419162
0.410964
0.375932
0.339447
0.301412
0.284094
0.278613
0.284647
0.283827
0.287839
0.297474
0.310701
0.326738
0.343309
0.358107
0.372638
0.385685
0.395815
0.403063
0.411092
0.426452
0.466672
0.57246
0.725247
0.674786
0.526862
0.234045
0.120769
0.394092
0.415893
0.420796
0.41759
0.389355
0.360917
0.332804
0.316514
0.311134
0.309185
0.305293
0.304375
0.308841
0.318462
0.330683
0.342614
0.353443
0.364115
0.374697
0.382491
0.388327
0.397995
0.421267
0.486619
0.65794
0.693288
0.624088
0.497569
0.228875
0.125205
0.402269
0.419955
0.420218
0.420798
0.40408
0.381945
0.354119
0.336714
0.327916
0.323798
0.320081
0.316501
0.317634
0.325104
0.332739
0.34072
0.347844
0.355462
0.363072
0.36867
0.375006
0.38849
0.424554
0.517426
0.664436
0.652786
0.585039
0.476206
0.225561
0.129192
0.409498
0.421877
0.419108
0.420001
0.417288
0.408283
0.381759
0.361294
0.34846
0.341398
0.334893
0.327434
0.326653
0.328403
0.332849
0.337161
0.341419
0.346491
0.351437
0.355865
0.36412
0.384028
0.438647
0.580544
0.642302
0.616632
0.55703
0.461433
0.222703
0.131885
0.414842
0.421341
0.412896
0.414749
0.425337
0.431259
0.415703
0.393809
0.375551
0.362567
0.351266
0.340745
0.335303
0.330404
0.331071
0.332032
0.334019
0.33755
0.340896
0.345414
0.356947
0.387255
0.467061
0.604034
0.614158
0.583751
0.535869
0.45223
0.220608
0.134754
0.418904
0.417797
0.40228
0.406779
0.424193
0.441518
0.443853
0.425393
0.405427
0.388155
0.37271
0.356698
0.344846
0.332153
0.327811
0.325717
0.32611
0.328907
0.331952
0.338175
0.355091
0.401795
0.527017
0.595137
0.584873
0.556977
0.519419
0.446547
0.220519
0.137878
0.41482
0.408301
0.388448
0.394239
0.415513
0.439135
0.456867
0.450788
0.436382
0.41941
0.400948
0.3794
0.359084
0.336522
0.325741
0.32035
0.319739
0.322138
0.325993
0.335523
0.361185
0.431961
0.562518
0.577471
0.561984
0.536831
0.506948
0.43899
0.222159
0.140318
0.409664
0.395492
0.372547
0.379056
0.40285
0.429119
0.454686
0.465546
0.465179
0.456212
0.438352
0.413163
0.383137
0.347809
0.329183
0.31901
0.316597
0.31901
0.323828
0.338132
0.377921
0.489645
0.562076
0.559251
0.537474
0.521019
0.494521
0.429564
0.22038
0.137856
0.389798
0.371794
0.352194
0.360858
0.388585
0.41668
0.444936
0.46857
0.486003
0.491454
0.480553
0.456152
0.418499
0.371079
0.342011
0.324759
0.318477
0.319417
0.325574
0.347449
0.410567
0.530673
0.550244
0.537436
0.51723
0.508362
0.483749
0.419119
0.217509
0.138644
0.367668
0.347529
0.331384
0.343018
0.371972
0.402532
0.432262
0.45841
0.489704
0.509728
0.512534
0.497276
0.464795
0.409544
0.365666
0.338653
0.326665
0.3246
0.333453
0.367945
0.473113
0.53537
0.536295
0.51327
0.503884
0.497794
0.473379
0.408531
0.214569
0.120253
0.281432
0.300973
0.309847
0.327635
0.356907
0.38858
0.419558
0.444844
0.480904
0.510243
0.523138
0.530933
0.513506
0.461412
0.402511
0.364413
0.344335
0.33824
0.350922
0.405257
0.50824
0.527009
0.518114
0.497328
0.494325
0.488011
0.463067
0.396827
0.212284
0.0720386
0.159454
0.22573
0.297078
0.429134
0.605072
0.654641
0.662956
0.655899
0.642866
0.628622
0.608534
0.5848
0.55488
0.517457
0.471483
0.420756
0.369886
0.321253
0.27384
0.251906
0.271986
0.288582
0.294146
0.289822
0.292196
0.275048
0.237059
0.229624
0.123272
0.0694828
0.152651
0.225115
0.329718
0.553394
0.642291
0.659151
0.655444
0.644509
0.629611
0.60992
0.58866
0.563731
0.532369
0.492492
0.444519
0.392916
0.338906
0.286137
0.242188
0.255661
0.288365
0.31041
0.316792
0.305116
0.296193
0.285417
0.245942
0.207166
0.102936
0.0668163
0.147372
0.230139
0.411464
0.62347
0.66978
0.669454
0.655873
0.638537
0.617909
0.594913
0.570038
0.543567
0.510988
0.469636
0.422456
0.37468
0.326608
0.278651
0.240737
0.263132
0.307619
0.334512
0.340223
0.329112
0.31058
0.299293
0.262529
0.21338
0.10465
0.0653482
0.145759
0.262798
0.529521
0.644916
0.668672
0.66466
0.649491
0.628394
0.601455
0.57615
0.549843
0.522149
0.487774
0.445211
0.397515
0.350676
0.302151
0.251325
0.23829
0.267711
0.31843
0.342978
0.347369
0.339394
0.321057
0.304977
0.275592
0.212843
0.0988442
0.0649206
0.155918
0.361991
0.5697
0.634934
0.650101
0.645443
0.63223
0.611047
0.585607
0.559462
0.530962
0.501157
0.464763
0.42088
0.374693
0.33111
0.285665
0.239765
0.238321
0.268147
0.314895
0.334161
0.348557
0.352635
0.337333
0.31135
0.289451
0.226563
0.0953435
0.0682742
0.198138
0.445669
0.566461
0.609878
0.6225
0.619157
0.60739
0.587584
0.564434
0.538711
0.51008
0.47654
0.439744
0.397882
0.354186
0.313076
0.269353
0.227946
0.23541
0.259259
0.300588
0.317304
0.332558
0.351037
0.34752
0.320907
0.304401
0.242426
0.0910512
0.0856058
0.281682
0.469963
0.543692
0.57935
0.591607
0.589397
0.578691
0.561121
0.540732
0.515541
0.486738
0.453297
0.416808
0.376694
0.335152
0.297723
0.257723
0.219258
0.228991
0.248654
0.284684
0.299915
0.319449
0.353254
0.365102
0.341911
0.321573
0.259452
0.0899784
0.158935
0.368534
0.469548
0.520408
0.549656
0.5601
0.558448
0.549005
0.533884
0.516036
0.492561
0.464256
0.431702
0.396734
0.357704
0.317896
0.282044
0.246646
0.212713
0.220803
0.237583
0.26571
0.280182
0.306169
0.346748
0.374591
0.364707
0.338113
0.277161
0.0900827
0.217806
0.456936
0.485386
0.509263
0.52553
0.531566
0.52926
0.520638
0.507812
0.492244
0.470455
0.443671
0.412928
0.378846
0.341957
0.303711
0.269303
0.238594
0.209476
0.212293
0.227581
0.246345
0.258635
0.294619
0.340741
0.379517
0.382214
0.355321
0.296857
0.0915451
0.239334
0.594894
0.52955
0.511647
0.510218
0.508012
0.503115
0.494869
0.48405
0.470109
0.450854
0.426103
0.39728
0.363981
0.33007
0.294103
0.26308
0.233681
0.208874
0.20746
0.220587
0.231753
0.241378
0.282252
0.335595
0.378551
0.394268
0.372491
0.316871
0.0945024
0.246872
0.650874
0.609101
0.528749
0.501328
0.488918
0.480865
0.472744
0.463306
0.450982
0.434056
0.411319
0.384015
0.354117
0.323136
0.290825
0.26092
0.233998
0.209959
0.208249
0.217238
0.224719
0.233583
0.277439
0.336318
0.382129
0.403078
0.387761
0.33603
0.0980922
0.248182
0.651649
0.730568
0.564061
0.499872
0.475137
0.462835
0.454411
0.44545
0.434203
0.419122
0.399045
0.37506
0.347711
0.319875
0.291921
0.263892
0.239737
0.216292
0.213016
0.217076
0.22204
0.229855
0.276062
0.33955
0.391249
0.412917
0.397539
0.35323
0.102191
0.244364
0.622167
0.756213
0.616459
0.50733
0.46592
0.448167
0.438195
0.42939
0.419509
0.406073
0.388769
0.367787
0.344604
0.319821
0.296007
0.272541
0.251754
0.23291
0.22365
0.222838
0.228399
0.238866
0.287042
0.348868
0.400195
0.418086
0.405546
0.366606
0.106998
0.240903
0.574445
0.729198
0.718276
0.532014
0.462332
0.435821
0.423431
0.414849
0.40597
0.394355
0.379728
0.362049
0.343076
0.322252
0.302954
0.284161
0.268779
0.25686
0.246999
0.241218
0.249013
0.263997
0.312174
0.364494
0.408931
0.420264
0.411179
0.379333
0.111809
0.23523
0.534846
0.681061
0.727864
0.568979
0.465664
0.425604
0.409725
0.400955
0.393116
0.383243
0.370964
0.357138
0.342633
0.326187
0.311328
0.296744
0.287479
0.283504
0.282253
0.275813
0.283938
0.303687
0.344006
0.38118
0.41631
0.422599
0.414898
0.389681
0.116743
0.230647
0.505035
0.631054
0.699118
0.654353
0.483652
0.419795
0.396906
0.386846
0.380273
0.37228
0.362409
0.351931
0.341932
0.330218
0.318674
0.308665
0.30457
0.305245
0.308068
0.309835
0.317414
0.336479
0.366159
0.395404
0.423242
0.424083
0.418696
0.398255
0.121305
0.227208
0.482736
0.590158
0.661125
0.666198
0.513945
0.422191
0.387202
0.373734
0.367167
0.361116
0.353931
0.346381
0.340204
0.332679
0.323781
0.317912
0.317157
0.32053
0.323444
0.327991
0.338613
0.358731
0.387729
0.410421
0.426599
0.423581
0.422748
0.406417
0.125622
0.224612
0.468773
0.56046
0.618146
0.646573
0.574089
0.434552
0.382287
0.363017
0.354853
0.3501
0.345342
0.340477
0.33701
0.333641
0.328419
0.327373
0.328259
0.335798
0.341921
0.349393
0.364154
0.387089
0.414334
0.423313
0.425839
0.423039
0.424708
0.413091
0.129627
0.223475
0.456578
0.53897
0.584638
0.619241
0.6051
0.461653
0.384623
0.355962
0.344923
0.340402
0.337018
0.334039
0.332379
0.332741
0.3317
0.336671
0.342198
0.353689
0.36518
0.378307
0.39783
0.421822
0.437445
0.431078
0.420363
0.417691
0.424547
0.418169
0.132324
0.224706
0.448319
0.521947
0.558978
0.587812
0.598341
0.517108
0.397546
0.353989
0.337949
0.332299
0.329348
0.326787
0.32678
0.330403
0.335147
0.347501
0.359428
0.376666
0.393651
0.411249
0.431081
0.450363
0.447484
0.429596
0.411615
0.40745
0.421573
0.422569
0.134997
0.223725
0.440748
0.509959
0.53943
0.564646
0.580894
0.562865
0.426989
0.359212
0.335088
0.326637
0.323218
0.320964
0.322215
0.32929
0.34065
0.363629
0.384273
0.40668
0.427561
0.445448
0.458067
0.463357
0.444494
0.420379
0.398489
0.393718
0.413172
0.419209
0.137809
0.221816
0.432716
0.497503
0.523168
0.541394
0.562604
0.566279
0.479814
0.374639
0.33781
0.324637
0.320178
0.31862
0.322168
0.334195
0.354015
0.390009
0.421029
0.446259
0.465933
0.476287
0.474094
0.461676
0.434971
0.407879
0.382594
0.376639
0.401112
0.415362
0.140186
0.219146
0.42251
0.487148
0.510858
0.52169
0.537851
0.555247
0.531469
0.40604
0.346411
0.326421
0.320921
0.321226
0.329
0.349334
0.380958
0.429212
0.467013
0.490185
0.501531
0.497805
0.478176
0.452084
0.422633
0.393646
0.364324
0.354263
0.377399
0.396689
0.137665
0.217824
0.412446
0.477161
0.500362
0.508318
0.522235
0.542352
0.540801
0.465135
0.365222
0.333495
0.326533
0.330598
0.344669
0.37522
0.423755
0.478638
0.510362
0.522262
0.519037
0.500596
0.46787
0.438687
0.408187
0.376707
0.346552
0.333063
0.352899
0.374274
0.138366
0.215695
0.40214
0.467196
0.491291
0.498669
0.504521
0.525742
0.53401
0.510658
0.400491
0.350516
0.340497
0.350033
0.373235
0.415219
0.478466
0.52862
0.544984
0.532468
0.518575
0.490822
0.454299
0.425948
0.393814
0.361457
0.331311
0.311837
0.305072
0.286172
0.120248
0.339199
0.337777
0.339423
0.340873
0.341801
0.341709
0.340798
0.340645
0.3395
0.337592
0.340252
0.346485
0.354618
0.364427
0.375601
0.389489
0.399218
0.409371
0.421192
0.434791
0.44807
0.459784
0.471974
0.479699
0.4849
0.486202
0.482149
0.474309
0.462368
0.447488
0.430338
0.410917
0.390181
0.368628
0.347971
0.329536
0.313334
0.299164
0.286637
0.275056
0.264126
0.25414
0.245263
0.237617
0.231347
0.226652
0.223505
0.221517
0.219358
0.217409
0.215211
0.212759
0.210176
0.207337
0.204362
0.201386
0.198207
0.194888
0.191488
0.187624
0.183905
0.180206
0.177086
0.173983
0.170843
0.167838
0.164879
0.161868
0.158808
0.155667
0.152509
0.149388
0.146296
0.143286
0.14037
0.137617
0.135059
0.132747
0.130717
0.128957
0.127449
0.126207
0.125267
0.124593
0.124041
0.123479
0.122835
0.122106
0.121296
0.120437
0.11955
0.118663
0.117814
0.117097
0.116558
0.116281
0.116108
0.116097
0.116291
0.116498
0.117203
0.118043
0.119007
0.120187
0.12167
0.12394
0.126582
0.129599
0.133275
0.137514
0.14232
0.147326
0.152279
0.157729
0.164192
0.17015
0.175219
0.180796
0.188079
0.19588
0.201586
0.204702
0.207479
0.210407
0.213122
1.04999
1.04734
1.05289
1.06965
1.09603
1.12231
1.1542
1.18283
1.21014
1.23035
1.26343
1.28868
1.3135
1.34144
1.37279
1.41203
1.46373
1.52956
1.61168
1.71417
1.83316
1.94935
2.06549
2.16962
2.2543
2.31895
2.35179
2.3487
2.32612
2.28067
2.21815
2.1419
2.05431
1.95891
1.85838
1.75774
1.66104
1.57058
1.48646
1.4062
1.32795
1.25336
1.18498
1.1236
1.06929
1.02173
0.981198
0.9449
0.909725
0.875381
0.842055
0.808462
0.776143
0.743588
0.710441
0.677729
0.646754
0.617702
0.591031
0.565845
0.540793
0.516501
0.492503
0.470099
0.448808
0.429556
0.412654
0.397478
0.383201
0.369282
0.355693
0.34269
0.330474
0.319024
0.308157
0.297875
0.288238
0.279265
0.271003
0.263599
0.2571
0.251445
0.246548
0.242193
0.238131
0.23411
0.229977
0.225722
0.221401
0.217108
0.212909
0.20888
0.205056
0.201617
0.198592
0.196191
0.19414
0.192504
0.191315
0.190274
0.19026
0.190887
0.192064
0.19361
0.195879
0.19942
0.204299
0.209976
0.217203
0.225962
0.235335
0.245642
0.257604
0.268201
0.278529
0.29035
0.304032
0.317246
0.327772
0.337655
0.347635
0.35791
0.368267
0.377395
0.389658
2.23521
2.211
2.21989
2.25533
2.31882
2.38827
2.45938
2.52887
2.58723
2.62884
2.643
2.64858
2.65457
2.65217
2.62594
2.59027
2.55185
2.53341
2.54544
2.5896
2.68391
2.82473
2.9825
3.12587
3.2418
3.32461
3.37006
3.37539
3.34682
3.28819
3.20507
3.10582
2.99385
2.87308
2.74724
2.62034
2.49591
2.37628
2.26218
2.15107
2.04227
1.93577
1.83203
1.73282
1.63993
1.55401
1.47556
1.40131
1.32884
1.25699
1.18843
1.12251
1.06009
1.00125
0.945427
0.894238
0.849425
0.811079
0.780102
0.754427
0.731337
0.710613
0.690488
0.66751
0.640593
0.613146
0.585805
0.558836
0.532736
0.507953
0.48476
0.463576
0.444535
0.427549
0.412463
0.398876
0.38632
0.374525
0.363479
0.353283
0.344098
0.336043
0.32901
0.322687
0.316725
0.310777
0.304631
0.298275
0.291814
0.285401
0.279213
0.273356
0.267919
0.262988
0.258678
0.255107
0.252155
0.249697
0.247662
0.246038
0.245497
0.245863
0.246684
0.248066
0.250132
0.253636
0.259134
0.265912
0.273902
0.283697
0.294047
0.304414
0.314951
0.326144
0.337586
0.34952
0.360503
0.369061
0.377208
0.389459
0.404614
0.418108
0.432083
0.44619
0.457509
3.97932
3.9706
3.97351
4.00906
4.06157
4.12572
4.1879
4.23443
4.26015
4.26198
4.24662
4.2031
4.13586
4.0578
3.98561
3.91566
3.84415
3.78549
3.77225
3.81391
3.91044
4.05055
4.20603
4.35471
4.47787
4.56228
4.59953
4.58796
4.53051
4.43814
4.31967
4.18525
4.04147
3.89388
3.74648
3.60225
3.46326
3.33043
3.19893
3.06879
2.93891
2.80878
2.67923
2.55153
2.42656
2.30462
2.18498
2.0659
1.94518
1.8228
1.70019
1.57871
1.46082
1.3493
1.24506
1.14808
1.05988
0.982318
0.914673
0.855816
0.810688
0.785735
0.777239
0.773847
0.766551
0.74971
0.725166
0.697448
0.66898
0.640657
0.612308
0.584694
0.558426
0.534351
0.51309
0.494616
0.478342
0.463678
0.44992
0.43677
0.424417
0.413178
0.403117
0.393933
0.385129
0.376219
0.366947
0.357337