/*--------------------------------*- C++ -*----------------------------------*\
| =========                 |                                                 |
| \\      /  F ield         | OpenFOAM: The Open Source CFD Toolbox           |
|  \\    /   O peration     | Version:  2112                                  |
|   \\  /    A nd           | Website:  www.openfoam.com                      |
|    \\/     M anipulation  |                                                 |
\*---------------------------------------------------------------------------*/
FoamFile
{
    version     2.0;
    format      ascii;
    arch        "LSB;label=32;scalar=64";
    class       volScalarField;
    location    "0.00947";
    object      p;
}
// * * * * * * * * * * * * * * * * * * * * * * * * * * * * * * * * * * * * * //

dimensions      [1 -1 -2 0 0 0 0];

internalField   nonuniform List<scalar> 
13875
(
951598
984300
973571
975978
973685
974716
974911
974692
975017
975159
975069
975030
974735
974807
974831
974697
974630
975333
975175
973972
973384
975629
972319
982523
945029
733799
659572
672187
677305
669480
671067
677412
678887
679174
679076
678923
678539
670338
669185
670410
678028
679294
679309
677538
669949
669568
676898
672184
657332
730576
736889
635529
664311
653761
649405
648304
648354
649320
648968
647097
646814
649001
645408
645314
645247
648902
646251
648241
647923
647641
648547
652158
661949
632152
733320
743533
636174
665194
653923
649712
648471
647277
646193
644943
643869
643294
644384
645442
645417
645276
644558
643523
644632
646116
647791
648830
652282
662701
632753
739055
757366
639180
667746
654635
650573
648953
647417
646255
644986
643916
643355
644415
645566
645684
645397
644589
643620
644713
646237
648224
649613
652874
664996
635387
750353
759042
647835
673510
656608
652368
649973
647854
646478
645151
644098
643554
644536
645823
646219
645655
644714
643904
644980
646638
649150
651288
654745
670595
643108
751837
765040
668336
685728
661511
656000
651974
648845
647025
645576
644575
644050
644897
646372
646794
646154
645015
644529
645688
647718
651206
654926
660352
682147
665792
755978
791200
718349
711627
674810
663718
656226
651156
648396
646694
645737
645129
645693
647443
647952
647213
645816
645809
647180
649966
655321
662302
673150
707160
715298
782021
908571
827862
766442
704367
679121
664577
655917
651401
649197
648210
647386
647525
649616
650282
649410
647782
648417
650305
654587
663403
676958
700920
760293
823145
909956
1.52384e+06
1.02932e+06
833411
739203
697344
674700
662569
656557
653986
652938
651882
651608
653968
654851
653956
652274
653359
655840
661588
673929
695776
736837
829463
1.02532e+06
1.51745e+06
2.90468e+06
1.39234e+06
956954
796002
725391
691094
674680
666852
663495
662049
660652
660007
662292
663505
662922
661678
662951
666212
673660
689652
722341
789390
941121
1.35128e+06
2.86073e+06
5.60202e+06
2.34327e+06
1.28609e+06
935984
789047
727654
701065
688926
683327
680648
678680
677830
679470
681005
681206
681366
683282
688578
700680
727102
787012
926028
1.25235e+06
2.2743e+06
5.57377e+06
5.38734e+06
4.83643e+06
2.31107e+06
1.40021e+06
979116
827950
766630
741109
729175
723283
720215
719025
719364
721040
722670
725392
730639
742331
769126
834771
990208
1.38731e+06
2.18294e+06
4.87509e+06
5.34246e+06
4.83679e+06
4.64465e+06
4.70999e+06
3.99154e+06
1.64017e+06
1.13781e+06
955531
885274
852993
837366
830314
827266
826029
827776
831842
840304
857757
894073
975581
1.20175e+06
1.8353e+06
4.03297e+06
4.68903e+06
4.71743e+06
4.76301e+06
4.02576e+06
4.12505e+06
4.49654e+06
4.25857e+06
4.00922e+06
2.52351e+06
1.66334e+06
1.3762e+06
1.26365e+06
1.21583e+06
1.19645e+06
1.18855e+06
1.18564e+06
1.1875e+06
1.19504e+06
1.21505e+06
1.2643e+06
1.38358e+06
1.69418e+06
2.68718e+06
4.11542e+06
4.24515e+06
4.5114e+06
4.28556e+06
4.26736e+06
3.53035e+06
3.45873e+06
3.92739e+06
4.06082e+06
4.27205e+06
4.34175e+06
3.69569e+06
3.05543e+06
2.84786e+06
2.68129e+06
2.57482e+06
2.53387e+06
2.5184e+06
2.52348e+06
2.55267e+06
2.63538e+06
2.84512e+06
3.04314e+06
3.75491e+06
4.38956e+06
4.2374e+06
4.07938e+06
4.05404e+06
3.57166e+06
3.74856e+06
2.54984e+06
2.69299e+06
3.06401e+06
3.50166e+06
4.2067e+06
5.13901e+06
6.79174e+06
7.59996e+06
7.95895e+06
8.06126e+06
8.12613e+06
8.13727e+06
8.15004e+06
8.13776e+06
8.13623e+06
8.07796e+06
7.97853e+06
7.67242e+06
6.80501e+06
5.10239e+06
4.20001e+06
3.56119e+06
3.15055e+06
2.81789e+06
2.70443e+06
1.43445e+06
1.72198e+06
2.31756e+06
3.00382e+06
4.17599e+06
5.58577e+06
6.77373e+06
7.41957e+06
7.66416e+06
7.6384e+06
7.56061e+06
7.49556e+06
7.47843e+06
7.49442e+06
7.56269e+06
7.66403e+06
7.72396e+06
7.48578e+06
6.8042e+06
5.57439e+06
4.11558e+06
2.93412e+06
2.1933e+06
1.62256e+06
1.34514e+06
695628
1.02916e+06
1.71082e+06
2.61253e+06
4.08855e+06
5.1529e+06
5.83208e+06
6.33713e+06
6.50462e+06
6.47848e+06
6.43679e+06
6.45119e+06
6.47206e+06
6.47253e+06
6.46208e+06
6.52378e+06
6.59823e+06
6.47649e+06
6.05165e+06
5.3917e+06
4.11701e+06
2.67311e+06
1.72863e+06
1.04282e+06
705080
384866
620376
1.14185e+06
2.21599e+06
3.63655e+06
4.34833e+06
4.68134e+06
5.01837e+06
5.24013e+06
5.39605e+06
5.54181e+06
5.65563e+06
5.69551e+06
5.66959e+06
5.56081e+06
5.40487e+06
5.23664e+06
5.01525e+06
4.73746e+06
4.43371e+06
3.66962e+06
2.20095e+06
1.13381e+06
608734
375012
960666
983725
1.17493e+06
1.89314e+06
2.89414e+06
3.38332e+06
3.71655e+06
4.10482e+06
4.42547e+06
4.65679e+06
4.83321e+06
4.94015e+06
4.96505e+06
4.94191e+06
4.83017e+06
4.63332e+06
4.3675e+06
4.02947e+06
3.68196e+06
3.40724e+06
2.87629e+06
1.86074e+06
1.14841e+06
972694
962713
1.01737e+06
980608
1.15918e+06
1.60688e+06
2.17024e+06
2.61671e+06
3.02242e+06
3.45786e+06
3.79339e+06
4.02993e+06
4.19879e+06
4.28802e+06
4.30349e+06
4.2821e+06
4.18585e+06
3.99685e+06
3.72787e+06
3.37259e+06
2.93628e+06
2.60583e+06
2.12886e+06
1.56088e+06
1.12511e+06
948403
988419
1.12618e+06
1.01969e+06
1.13287e+06
1.34469e+06
1.69296e+06
2.08192e+06
2.5269e+06
2.95649e+06
3.26282e+06
3.48216e+06
3.62792e+06
3.70151e+06
3.71551e+06
3.69142e+06
3.60667e+06
3.44146e+06
3.19982e+06
2.89302e+06
2.42143e+06
2.05925e+06
1.65533e+06
1.3096e+06
1.10382e+06
1.00835e+06
1.14067e+06
1.31841e+06
1.15036e+06
1.13553e+06
1.19101e+06
1.44032e+06
1.77604e+06
2.13388e+06
2.53008e+06
2.80114e+06
3.00323e+06
3.1255e+06
3.19121e+06
3.2054e+06
3.18054e+06
3.1052e+06
2.96192e+06
2.7443e+06
2.47328e+06
2.05963e+06
1.7365e+06
1.39514e+06
1.15287e+06
1.11007e+06
1.15793e+06
1.30807e+06
1.37621e+06
1.28009e+06
1.14348e+06
1.1307e+06
1.2949e+06
1.55595e+06
1.83753e+06
2.16701e+06
2.40044e+06
2.58066e+06
2.69541e+06
2.7541e+06
2.76814e+06
2.745e+06
2.67834e+06
2.55132e+06
2.35675e+06
2.12234e+06
1.78825e+06
1.51375e+06
1.24659e+06
1.10818e+06
1.12218e+06
1.28492e+06
1.36307e+06
1.43353e+06
1.38578e+06
1.16005e+06
1.13114e+06
1.20388e+06
1.39574e+06
1.60689e+06
1.87488e+06
2.07153e+06
2.22803e+06
2.33132e+06
2.3824e+06
2.39509e+06
2.37449e+06
2.31658e+06
2.20255e+06
2.03386e+06
1.8362e+06
1.57461e+06
1.36812e+06
1.1658e+06
1.1085e+06
1.13733e+06
1.36847e+06
1.40937e+06
1.47503e+06
1.4153e+06
1.17887e+06
1.13117e+06
1.14956e+06
1.27085e+06
1.42754e+06
1.63588e+06
1.79816e+06
1.93053e+06
2.021e+06
2.06565e+06
2.07854e+06
2.05956e+06
2.00698e+06
1.90874e+06
1.76513e+06
1.60323e+06
1.39715e+06
1.24359e+06
1.11918e+06
1.10857e+06
1.16332e+06
1.40509e+06
1.44969e+06
1.56257e+06
1.48425e+06
1.21297e+06
1.1278e+06
1.10926e+06
1.17395e+06
1.27939e+06
1.43934e+06
1.56892e+06
1.6808e+06
1.75772e+06
1.79738e+06
1.81097e+06
1.79415e+06
1.75139e+06
1.66963e+06
1.54996e+06
1.41665e+06
1.2591e+06
1.1544e+06
1.08781e+06
1.10651e+06
1.19948e+06
1.47782e+06
1.53398e+06
1.67293e+06
1.60362e+06
1.25531e+06
1.11666e+06
1.08018e+06
1.09741e+06
1.16007e+06
1.27966e+06
1.38434e+06
1.47516e+06
1.5382e+06
1.57331e+06
1.58472e+06
1.56964e+06
1.52953e+06
1.46277e+06
1.36544e+06
1.26134e+06
1.14489e+06
1.08402e+06
1.06305e+06
1.09573e+06
1.22515e+06
1.52981e+06
1.58662e+06
1.72848e+06
1.7138e+06
1.30084e+06
1.1093e+06
1.04861e+06
1.04445e+06
1.06636e+06
1.14964e+06
1.22881e+06
1.3029e+06
1.35421e+06
1.38281e+06
1.39331e+06
1.37855e+06
1.34643e+06
1.29296e+06
1.21485e+06
1.1326e+06
1.04952e+06
1.02703e+06
1.03203e+06
1.08809e+06
1.27166e+06
1.64565e+06
1.67763e+06
1.73038e+06
1.72523e+06
1.33985e+06
1.10692e+06
1.01577e+06
993024
991813
1.03939e+06
1.09854e+06
1.15651e+06
1.19747e+06
1.22278e+06
1.2307e+06
1.22047e+06
1.19218e+06
1.14958e+06
1.08936e+06
1.02986e+06
979609
980916
1.0008e+06
1.08202e+06
1.30148e+06
1.68373e+06
1.71217e+06
1.73724e+06
1.72495e+06
1.41156e+06
1.1076e+06
980093
938130
929551
954583
994457
1.03798e+06
1.06879e+06
1.08667e+06
1.0933e+06
1.08475e+06
1.06368e+06
1.03054e+06
985544
944192
918931
925717
964653
1.08187e+06
1.35176e+06
1.692e+06
1.73046e+06
1.75071e+06
1.71355e+06
1.47109e+06
1.10976e+06
953725
892643
878974
880365
905315
936396
959131
973430
977653
971886
953975
929966
898104
872338
868559
881147
935542
1.0842e+06
1.41621e+06
1.69211e+06
1.73057e+06
1.75059e+06
1.69539e+06
1.54296e+06
1.11901e+06
928667
849957
823697
818661
828002
849711
865864
875716
879293
874592
862952
847085
824874
812055
816509
838286
912145
1.09203e+06
1.52291e+06
1.68373e+06
1.72926e+06
1.74961e+06
1.66675e+06
1.55003e+06
1.14131e+06
918497
819183
778762
765522
764841
775235
786323
794525
796628
793617
783144
771690
760984
761049
771250
806233
899711
1.10959e+06
1.5563e+06
1.66797e+06
1.72615e+06
1.74472e+06
1.6383e+06
1.54459e+06
1.16239e+06
919193
788524
734164
715427
709741
713365
719191
723712
725203
722421
715838
711646
707097
711106
728480
779234
900657
1.14533e+06
1.55613e+06
1.63643e+06
1.7232e+06
1.73468e+06
1.61451e+06
1.53749e+06
1.20797e+06
925898
769183
700841
671025
661004
658194
660567
664477
664939
663423
657860
656178
659301
669134
696129
759075
904369
1.1913e+06
1.54081e+06
1.61051e+06
1.7163e+06
1.71408e+06
1.58639e+06
1.52371e+06
1.29829e+06
943853
754551
669151
632245
617218
612477
611042
612218
612095
611429
609074
610910
615372
628031
663216
743742
916779
1.28364e+06
1.5131e+06
1.58147e+06
1.70259e+06
1.67737e+06
1.56586e+06
1.48591e+06
1.34159e+06
963153
755013
648031
599485
579120
569968
567828
568342
567402
568337
565490
567611
577287
596756
641714
744418
945464
1.32953e+06
1.46006e+06
1.5557e+06
1.67537e+06
1.61653e+06
1.53977e+06
1.42112e+06
1.34013e+06
1.00513e+06
760883
629241
570887
545510
534945
530248
528962
528201
528779
529285
533883
543781
566833
623003
747801
982068
1.32761e+06
1.39557e+06
1.52577e+06
1.62083e+06
1.55959e+06
1.50636e+06
1.36404e+06
1.33553e+06
1.08855e+06
776212
629272
551702
518309
502173
497068
496481
494187
496065
495914
500269
515770
547583
623036
758544
1.05059e+06
1.32209e+06
1.34359e+06
1.49401e+06
1.55917e+06
1.52028e+06
1.47126e+06
1.31261e+06
1.31674e+06
1.18005e+06
794822
631341
538820
495230
476880
468769
465671
464145
465360
468132
475835
492664
532750
627071
785167
1.1924e+06
1.30977e+06
1.29972e+06
1.45093e+06
1.49627e+06
1.47718e+06
1.43908e+06
1.27994e+06
1.27843e+06
1.17892e+06
834873
640631
539043
480226
452813
443362
440887
437796
440454
442414
451427
477670
530780
633393
821242
1.19045e+06
1.28059e+06
1.26858e+06
1.41787e+06
1.45878e+06
1.4308e+06
1.39615e+06
1.25108e+06
1.21707e+06
1.17117e+06
915011
661232
541513
471307
436817
422550
416865
414408
416510
421910
434930
466876
532159
649704
892993
1.18041e+06
1.22238e+06
1.24623e+06
1.38685e+06
1.41551e+06
1.39806e+06
1.35683e+06
1.22964e+06
1.16083e+06
1.14566e+06
1.02989e+06
693383
545924
471517
424690
404674
398057
394047
397769
402386
420554
467180
539616
686979
1.04109e+06
1.1579e+06
1.16751e+06
1.23033e+06
1.34733e+06
1.37571e+06
1.35812e+06
1.3201e+06
1.21153e+06
1.11792e+06
1.09422e+06
1.02682e+06
761907
561046
474265
421793
393509
381058
376916
380608
391963
416045
468692
553596
752425
1.03799e+06
1.10843e+06
1.12056e+06
1.21173e+06
1.31123e+06
1.34635e+06
1.3121e+06
1.27472e+06
1.19359e+06
1.08272e+06
1.04215e+06
1.01638e+06
901583
593355
481632
422484
387924
372049
364119
370986
385417
416338
474020
582215
885319
1.02479e+06
1.05207e+06
1.08327e+06
1.19669e+06
1.27573e+06
1.30999e+06
1.26571e+06
1.23539e+06
1.17032e+06
1.05809e+06
996969
989262
900427
651625
494508
424331
388109
367524
353155
365965
385682
419159
488642
644228
896989
995254
1.00506e+06
1.05739e+06
1.17211e+06
1.23348e+06
1.25838e+06
1.17249e+06
1.17888e+06
1.13765e+06
1.0385e+06
961798
940251
894178
773360
521594
432165
389786
367767
353279
366149
386797
426539
515732
766237
892077
941894
964897
1.03738e+06
1.13994e+06
1.17502e+06
1.16728e+06
1.03693e+06
1.10075e+06
1.08016e+06
1.01515e+06
933059
892998
875051
795031
577319
451639
395452
369267
354430
367390
391407
444768
570726
797625
874467
887776
929818
1.01236e+06
1.08173e+06
1.09666e+06
1.03584e+06
100549
106667
106503
108849
108220
108005
106883
106403
106191
106422
107365
108455
108999
109118
108288
107178
106219
106465
106922
105923
105819
106013
104763
103860
103551
103303
103115
103105
103155
102416
100255
108010
107258
109660
108707
108429
107654
107356
107212
107670
108240
108781
109000
109285
109376
108289
107839
107453
106322
105980
106170
105112
104510
104063
103737
103539
103347
103243
102862
102373
101881
109888
108767
110691
109663
109271
108752
108398
108275
108725
109217
109406
109478
109766
109807
108930
108286
107516
106315
106162
106031
104832
104402
103935
103436
103098
102958
102805
102790
102710
105385
111580
110542
111827
110776
110328
109915
109419
109317
109534
109845
109961
109961
109955
109752
109083
108316
107302
106651
106862
105425
104836
104428
103575
103118
102767
102650
102585
102590
102772
108674
113399
112400
113330
112313
111842
111042
110666
110575
110820
111068
110947
110441
110155
109684
109070
108174
107468
107431
106821
105337
104981
104135
103537
103090
102797
102617
102522
102478
102853
111651
115314
114329
115070
114307
113481
112891
112349
111942
111756
111683
111286
110586
110170
109616
108921
108049
107797
107361
106506
105509
104906
103989
103623
103000
102751
102596
102537
102614
102918
114383
117165
116318
117074
116086
114852
114156
113603
112670
112214
111984
111447
110616
110185
109492
108861
108085
107739
107366
106121
105763
104769
104081
103410
102970
102710
102593
102561
102609
102922
117143
119005
118286
118953
116973
115515
114750
114209
112996
112405
112103
111499
110669
110164
109461
108848
108137
107677
107236
106363
105940
104820
104169
103213
102965
102692
102604
102571
102635
102852
119664
120827
120153
119901
117375
115792
114993
114468
113109
112460
112133
111508
110684
110176
109453
108844
108144
107548
106968
106321
105810
104967
103971
103250
103086
102614
102604
102572
102613
102165
121955
122689
121403
120327
117537
115919
115072
114557
113136
112466
112025
111441
110684
110181
109445
108812
108132
107418
106796
106267
105775
105089
103988
103664
103120
102666
102545
102514
102473
102120
123793
124005
122004
120494
117608
116003
115088
114583
113101
112193
111336
110907
110469
110018
109252
108600
108022
107229
106723
106271
105928
104854
104224
104215
102963
102706
102421
102380
102280
101975
125605
124644
122252
120561
117642
116033
115084
114486
112611
111414
110461
109992
109624
109111
108454
107901
107567
107078
106656
106255
105907
104874
104500
103982
103013
102596
102283
101876
101341
101437
126720
124901
122336
120569
117580
116037
114868
113782
111618
110142
109388
108965
108566
107817
107304
107078
107014
106875
106605
106156
105819
105081
104716
103934
103052
102604
101961
100678
100279
100089
127186
124996
122094
120144
117298
115894
114277
112555
110077
108845
108140
107757
107296
106648
106337
106239
106474
106579
106425
106063
105860
105174
104826
104130
103210
102660
101470
100660
100128
99825.7
127316
124818
121435
119450
116758
115375
113252
110844
108527
107389
106798
106410
106043
105717
105591
105558
105928
106106
106183
106099
105844
105233
105031
104715
103654
102711
101238
100622
100088
99737.9
127229
124050
120583
118450
115853
114333
111844
109083
106962
105900
105357
105069
104965
104943
104931
104938
105201
105809
106088
106048
105836
105377
105343
104661
103725
102619
101276
100799
100175
99858.2
126354
122763
119497
117088
114598
112787
110051
107071
105326
104426
103998
103816
103770
104003
104209
104351
104598
105212
105878
106121
106162
106003
105735
104700
103924
102671
101387
100788
100088
99837.8
125385
121080
118269
115228
113095
110831
107921
105030
103594
102889
102581
102485
102484
103004
103358
103633
103942
104513
105636
106149
106368
106342
105987
105140
104143
102736
101911
101285
100170
99804
123471
118792
116515
113309
111276
108643
105381
103049
101899
101367
101158
101101
101236
101965
102432
102779
103308
104009
105384
106143
106441
106517
106180
105229
104251
102759
102177
101372
100644
100076
121634
116791
114137
111445
109016
106392
103042
101105
100170
99780.7
99655.8
99623.3
100019
100909
101493
101892
102560
103657
104693
105921
106462
106606
106269
105353
104269
102966
102299
101135
100571
100075
118466
114053
111618
109150
106784
104121
100860
99213.1
98478.7
98250.5
98214.8
98232.8
98812.4
99861.3
100562
101074
101773
103160
103924
105621
106460
106628
106291
105414
104284
103081
102342
101225
100620
100126
115770
111391
109188
107024
104594
101780
98918.8
97496.6
96909.3
96767.1
96755.1
97029
97692.1
98873.3
99683.7
100233
100885
102480
103269
104836
106057
106366
105989
105349
104293
103162
102380
101299
100679
100261
110991
108024
106519
104105
102608
99636.1
97110.9
95877.8
95411.6
95323.1
95488
95898.7
96653.4
97935.5
98709.6
99144.8
99792
101559
102477
103456
104826
105406
105494
105266
104313
103190
102385
101283
100695
100253
108086
105024
104345
101981
100586
97749.1
95501
94408.5
94012.6
93940.1
94288.5
94882.2
95707.4
96897.8
97487.8
97768
98411.8
100198
101298
102099
103859
104924
105335
105321
104484
103278
102680
101508
100758
100326
98277
101145
102010
100188
99081.4
96199.5
94088.2
93065.6
92701.6
92636.9
93048.9
93827.1
94696.6
95586.7
96004.2
96180.4
96770.8
98237.7
99677.8
100981
103035
104630
105254
105325
104807
103895
102853
101795
101000
100411
99902.5
100386
100907
101378
101900
102342
103092
103529
103346
102779
102788
102628
102794
103486
104767
105860
105911
106140
105807
104815
105037
105353
105989
107194
108013
106618
107136
104877
105103
99268.3
100555
100674
101132
101596
101748
102161
102455
103210
103514
103669
104374
104084
103382
103634
104793
106506
106960
106541
106302
105802
105087
105361
106264
106695
107603
107686
107870
105556
106307
98971.8
101175
101304
101482
101616
101647
101932
102388
102648
103600
104374
104879
105790
106053
106272
106592
107390
107951
107716
107096
106548
105897
105904
106131
106424
107905
109418
109021
106882
108062
100452
101710
101692
101486
101283
101564
101896
102409
102552
103203
104655
105217
106364
106891
107146
107446
107926
108475
108299
107909
107392
107002
107007
107211
107207
108165
109918
110407
108579
109674
103809
101935
101719
101327
101249
101394
101923
102306
102517
103104
104653
105442
106533
107244
107547
107852
108316
108818
109130
109294
108925
108474
108515
108867
108745
108964
110365
111785
110581
111445
106964
101994
101731
101165
101316
101414
101901
102145
102638
103274
104636
105778
106585
107368
107664
107947
108471
109168
109494
110023
110137
110023
110097
109938
110603
110647
111070
113402
112560
113351
109858
102010
101521
101185
101540
101651
101834
102153
102881
103504
104575
105814
106600
107390
107694
108048
108583
109280
109691
110361
110770
110925
111311
111639
111901
112096
112843
115137
114592
115205
112594
102002
101258
101525
101510
101761
101920
102360
103540
103819
104568
105575
106571
107391
107705
108086
108649
109368
109858
110522
111033
111335
111933
112786
113068
113392
114017
116177
116366
117047
115317
101863
101483
101434
101490
101802
102184
102769
103563
104125
104646
105569
106490
107385
107708
108101
108681
109419
109950
110575
111125
111495
112128
113337
113634
114064
114954
117307
118368
118864
117820
100913
101367
101404
101159
101700
102283
102843
103595
104401
104905
105546
106322
107174
107639
108093
108692
109441
109985
110587
111141
111531
112180
113552
113844
114357
115444
117877
119814
120723
120102
100198
100720
101121
101226
101219
102172
102824
103683
104476
104863
105516
106187
106780
107363
107888
108593
109424
109979
110466
110830
111400
112174
113612
113898
114498
115694
118184
120532
122065
121954
99294.4
99688.5
100256
101164
101341
101804
102888
103790
104597
104950
105595
106133
106387
106788
107263
107995
108807
109417
109853
110147
110685
111644
113587
113902
114566
115786
118307
120838
122716
123795
98986
99282.6
99993.8
100783
101347
101850
102912
104012
105001
105244
105766
106118
106158
106257
106492
107009
107606
108319
108889
109319
109777
110740
112989
113691
114595
115818
118347
120947
122984
124942
98752.1
99100.6
99856.1
100757
101350
101984
102941
104169
105059
105472
105833
106112
106047
105842
105812
105948
106319
107069
107710
108232
108726
109836
112250
113327
114574
115724
118096
120963
123079
125434
98560.9
98906.8
99649.2
100703
101502
102285
103133
104265
105021
105524
105849
105978
105880
105551
105052
105119
105329
105797
106326
106833
107369
108544
111045
112592
114092
115214
117502
120240
123093
125578
98386.6
98710.5
99526.3
100623
101610
102280
103832
104478
105035
105526
105823
105905
105743
105256
104578
104578
104599
104670
104896
105361
105882
106949
109105
111285
113192
114430
116803
119407
122516
125560
98523.6
98877.7
99822.1
100594
101676
102456
103735
104748
105071
105604
105810
105775
105530
104989
104233
103979
103816
103608
103648
103829
104259
105182
106892
109551
111870
113368
115808
118348
121344
124763
99074.9
99589.7
100310
100837
101848
102976
103861
104866
105437
105716
105814
105678
105195
104259
103653
103321
102941
102403
102341
102415
102677
103330
104723
107470
110120
112036
114208
117221
119793
123852
99006.8
99503.6
100186
101482
102155
103097
104280
105065
105674
105836
105767
105430
104643
103477
102935
102608
102046
101265
100923
100963
101143
101647
102739
104927
108077
110383
112456
115541
117585
122017
98875.8
99316
100117
101293
102310
103349
104360
105138
105773
105875
105645
104951
103842
102645
102136
101786
101195
100131
99471.1
99475.2
99551.5
99878.9
100741
102610
105922
108324
110664
113297
115640
120276
98904.8
99382.8
100245
100987
102350
103534
104441
105147
105800
105880
105431
104321
103144
101834
101356
100928
100291
99011.3
98098.9
97952.5
97994.6
98210.5
98885.7
100432
103628
106173
108559
110796
112992
117226
98879.8
99407.7
100226
101162
102371
103795
104471
105073
105687
105523
104730
103511
102457
101005
100535
100068
99335.8
97981
96939.1
96452
96470.8
96608.9
97167.1
98532
101341
104070
106441
108424
110415
114605
98883.7
99422.3
100268
101213
102405
103797
104435
104827
104811
104449
103358
102607
101562
99944
99465.5
99057.4
98321.8
97074.8
95850.2
95113.6
95001.3
95085.5
95537.9
96738.5
99211.3
102133
103791
105753
107136
109944
98885.9
99423
100266
101323
102768
103737
104455
104578
104349
103611
102045
101367
100343
98600.9
98023.3
97781.2
97287.1
96284.9
94946.4
93955.4
93552
93626.5
94024.8
95111
97347.8
100226
101591
103585
104210
107077
99079.4
99563.6
100319
101413
102907
103766
104452
104428
104074
103003
101049
100171
98985.5
97154.1
96377.2
96268.7
96016.2
95433.4
94359.2
92843.1
92222.8
92283.6
92641.9
93661.4
95780.6
98712.7
99791.4
101275
100498
97430
342710
343072
344064
345046
346560
348490
350719
352853
354766
356372
357701
358877
359954
360974
361952
362894
363809
364713
365613
366509
367378
368165
368874
369332
369614
369708
369728
369605
369229
368616
367781
366725
365451
363972
362288
360374
358273
356104
353531
350701
347761
344649
341349
337867
334203
330317
326251
321998
317562
312950
308156
303199
298094
292855
287497
282034
276486
270871
265202
259494
253759
248012
242259
236522
230806
225135
219516
213971
208520
203171
197938
192830
187856
183030
178370
173889
169592
165534
161682
157844
153959
150129
146565
143474
140688
137908
135215
132700
130383
128217
126222
124366
122620
120998
119419
117783
116208
114805
113427
112093
110846
109721
108719
107857
107098
106351
105567
104881
104739
104455
104432
104441
104471
104486
104500
104527
104648
104605
104519
104374
103981
102815
100720
99621.3
99307.5
344184
344165
344759
346090
347841
349957
352158
354245
356083
357602
358843
359908
360866
361764
362621
363447
364256
365066
365884
366699
367488
368242
368708
368927
369014
369035
368946
368619
368051
367250
366219
364968
363499
361820
359936
357848
355574
353102
350373
347464
344375
341104
337654
334047
330320
326203
321980
317637
313134
308493
303722
298799
293745
288585
283342
278027
272661
267252
261808
256336
250843
245336
239823
234312
228824
223364
217942
212619
207409
202241
197135
192082
187189
182455
177866
173424
169129
164997
161028
157182
153428
149813
146398
143227
140250
137441
134736
132216
129874
127673
125613
123693
121900
120211
118612
117099
115665
114311
113004
111757
110588
109521
108535
107672
106894
106185
105502
104950
104837
104677
104674
104687
104727
104757
104817
104939
105190
105115
105001
104883
104518
103519
101185
100042
99707.8
344069
343957
344352
345844
347720
349869
352068
354122
355920
357422
358675
359761
360740
361654
362528
363378
364218
365058
365900
366737
367539
368211
368586
368752
368810
368822
368644
368217
367551
366641
365489
364091
362459
360609
358560
356315
353879
351250
348394
345351
342135
338746
335187
331467
327592
323536
319309
314925
310413
305798
300898
295922
290951
285894
280789
275648
270452
265204
259914
254589
249229
243851
238460
233063
227666
222278
216925
211540
206183
200929
195955
191146
186351
181601
176937
172399
168072
163940
160005
156241
152623
149134
145798
142644
139681
136896
134276
131814
129527
127347
125299
123363
121540
119813
118174
116627
115171
113830
112565
111389
110295
109304
108411
107626
106944
106340
105826
105360
105325
105330
105322
105329
105365
105400
105495
105581
105744
105848
105676
105296
104883
104164
102398
100878
100497
343030
342878
343337
345128
347236
349474
351698
353754
355560
357107
358433
359598
360655
361644
362594
363523
364439
365357
366273
367176
368039
368761
369135
369295
369350
369359
369114
368595
367822
366787
365498
363969
362213
360237
358034
355625
353013
350207
347210
344027
340674
337157
333478
329642
325646
321485
317175
312727
308155
303479
298695
293814
288862
283875
278877
273649
268459
263341
258165
252954
247704
242397
237035
231640
226230
220816
215451
210142
204882
199675
194373
189179
184320
179745
175337
171055
166834
162716
158730
154866
151201
147743
144492
141431
138563
135869
133322
130905
128623
126463
124414
122496
120671
118964
117357
115853
114440
113121
111878
110728
109666
108709
107869
107129
106513
105968
105561
105247
105252
105264
105314
105428
105606
105600
105610
105680
105890
106238
106280
106163
105807
104929
103100
102175
101649
341187
341018
341738
343835
346129
348495
350778
352880
354752
356404
357857
359159
360357
361489
362583
363659
364729
365795
366849
367873
368841
369629
370014
370184
370244
370254
369976
369384
368515
367369
365959
364297
362396
360255
357905
355352
352595
349639
346495
343173
339682
336035
332237
328292
324200
319965
315597
311105
306501
301794
296996
292132
287220
282282
277330
272347
267318
262238
257121
251970
246496
241094
235757
230377
224993
219593
214206
208830
203506
198258
193145
188159
183106
178072
173243
168870
164746
160784
156982
153378
149917
146591
143403
140344
137464
134779
132276
129935
127734
125650
123665
121775
119961
118227
116589
115080
113657
112343
111127
110021
109018
108111
107297
106571
105969
105477
105116
104906
104911
104931
104980
105116
105349
105397
105429
105538
105839
106495
106597
106525
106241
105600
104301
103391
103098
338899
338713
339792
342173
344629
347105
349483
351679
353673
355457
357067
358539
359916
361232
362515
363781
365043
366290
367508
368681
369806
370664
371083
371263
371318
371325
370984
370318
369350
368047
366461
364628
362577
360330
357854
355145
352217
349086
345770
342287
338647
334853
330923
326868
322690
318392
313984
309472
304863
300167
295402
290585
285735
280859
275955
271007
266007
260942
255806
250605
245327
239973
234570
229161
223795
217810
212465
207102
201796
196561
191409
186359
181462
176711
172103
167390
162838
158693
154921
151362
147968
144748
141727
138922
136280
133765
131362
129062
126853
124755
122781
120921
119169
117513
115935
114434
113012
111670
110428
109281
108132
107107
106348
105693
105118
104647
104303
104130
104133
104148
104193
104291
104464
104675
104811
105112
105776
106480
106471
106411
106180
105628
104501
103950
103723
336241
336060
337673
340282
342885
345486
347980
350299
352423
354356
356129
357781
359349
360867
362357
363826
365305
366759
368155
369473
370705
371640
372072
372250
372304
372306
371821
370937
369761
368338
366651
364726
362567
360152
357497
354604
351480
348148
344637
340967
337163
333224
329166
325021
320793
316476
312077
307593
303024
298383
293689
288955
284190
279393
274550
269645
264664
259594
254433
249182
243847
238458
233029
227578
222122
216658
211196
205792
200502
194692
189520
184470
179554
174782
170201
165814
161607
157390
153236
149347
145982
142895
139991
137238
134638
132201
129927
127801
125805
123891
122035
120231
118483
116786
115175
113667
112254
110930
109684
108503
107404
106413
105569
104817
104185
103672
103281
103014
102927
102929
102938
102966
103043
103233
103544
104154
105361
105865
105859
105832
105701
105335
104549
104437
104446
333385
333273
335497
338314
341072
343797
346394
348815
351048
353108
355028
356847
358603
360326
362031
363713
365344
366976
368547
370023
371385
372124
372479
372624
372667
372671
372186
371070
369709
368078
366236
364165
361845
359261
356414
353307
349960
346404
342662
338753
334739
330609
326394
322133
317838
313480
309071
304593
300046
295455
290848
286231
281602
276945
272222
267405
262468
257416
252281
247044
241733
236366
230951
225505
220039
214568
209128
203729
198397
193138
187934
182854
177995
172586
168090
163685
159471