/*--------------------------------*- C++ -*----------------------------------*\
| =========                 |                                                 |
| \\      /  F ield         | OpenFOAM: The Open Source CFD Toolbox           |
|  \\    /   O peration     | Version:  2112                                  |
|   \\  /    A nd           | Website:  www.openfoam.com                      |
|    \\/     M anipulation  |                                                 |
\*---------------------------------------------------------------------------*/
FoamFile
{
    version     2.0;
    format      ascii;
    arch        "LSB;label=32;scalar=64";
    class       volVectorField;
    location    "0.00956";
    object      U;
}
// * * * * * * * * * * * * * * * * * * * * * * * * * * * * * * * * * * * * * //

dimensions      [0 1 -1 0 0 0 0];

internalField   nonuniform List<vector> 
13875
(
(2204.17 109.696 1.81271e-18)
(2142.47 5.63187 -9.38747e-19)
(2170.25 -2.16902 -9.41095e-19)
(2167.89 -0.746393 0)
(2170.34 0.175974 0)
(2169.41 -1.33278 9.36824e-19)
(2169.2 -1.15363 -9.37251e-19)
(2169.7 0.0441821 -4.68467e-19)
(2169.14 0.228376 4.68271e-19)
(2169.16 -0.02419 0)
(2169.47 0.0714277 -3.88214e-22)
(2169.46 0.909149 -3.88086e-22)
(2169.62 0.928465 0)
(2169.4 -0.0232057 -4.68221e-19)
(2169.45 -0.91892 4.68589e-19)
(2169.6 -1.29002 0)
(2169.87 -0.269761 9.37055e-19)
(2169.23 0.346631 -9.37799e-19)
(2169.14 0.947926 3.87942e-22)
(2169.81 1.18841 -3.85757e-22)
(2170.45 -0.16405 -9.36288e-19)
(2167.84 0.302174 9.37172e-19)
(2171.1 2.49379 -1.87819e-18)
(2143.41 -8.62638 1.91687e-18)
(2210 -106.82 1.76535e-18)
(2253.4 91.9351 -1.63244e-18)
(2228.46 -1.16767 1.88337e-18)
(2247.42 0.671706 8.71809e-19)
(2245.52 0.91448 -8.671e-19)
(2248.49 -0.605537 4.16924e-22)
(2247.75 2.05916 5.20271e-22)
(2245.82 1.48625 4.15884e-22)
(2245.7 -0.205231 -4.35806e-19)
(2245.06 -0.229324 4.36086e-19)
(2245.04 0.0463422 2.17583e-19)
(2245.37 -0.0909002 -1.63033e-19)
(2245.45 -1.20208 -5.31479e-20)
(2247.74 -1.16869 0)
(2247.85 0.0873494 -4.34975e-19)
(2247.56 1.04003 4.33457e-19)
(2245.59 1.42888 4.36029e-19)
(2245.51 0.505712 -4.35307e-19)
(2245.2 -0.24173 5.18485e-22)
(2245.69 -1.57041 -5.18689e-22)
(2247.84 -1.97154 5.1979e-22)
(2248.4 0.743178 -8.71463e-19)
(2245.59 -0.715155 2.59973e-18)
(2247.28 -1.55715 -1.74252e-18)
(2228.8 3.58784 5.43043e-22)
(2256.61 -97.2759 -1.71373e-18)
(2252.4 78.1212 0)
(2236.34 -18.2528 0)
(2249.5 4.40219 0)
(2250.65 -1.86643 0)
(2253.54 -2.60941 -1.63908e-18)
(2253.3 1.56532 1.64238e-18)
(2253.36 2.05769 1.72156e-18)
(2253.46 0.936199 -2.58182e-18)
(2252.61 0.60605 8.61086e-19)
(2252.66 -0.0972032 4.30427e-22)
(2253.41 -0.239833 -4.30687e-19)
(2253.11 -2.35033 4.30449e-19)
(2254.12 -2.52865 0)
(2253.99 0.0388764 0)
(2254.04 2.37055 4.08177e-22)
(2253.18 2.00636 0)
(2254.07 0.216237 8.38094e-22)
(2253.13 -0.295416 4.30562e-19)
(2253.1 -2.51006 -4.30667e-19)
(2253.54 -1.75549 0)
(2253.72 2.35189 0)
(2250.91 1.30597 0)
(2250.68 -4.78445 0)
(2238.1 13.6948 0)
(2257.51 -74.2537 0)
(2247.86 51.3528 0)
(2235.05 -28.696 1.81422e-18)
(2249.3 7.17854 -3.41679e-18)
(2251.62 -4.75451 3.46589e-18)
(2253.33 -3.10523 -1.63482e-18)
(2253.18 1.33695 0)
(2253.61 1.66723 -8.28449e-22)
(2253.82 0.57747 0)
(2253.63 0.166498 0)
(2253.88 -0.698839 0)
(2254.49 -0.387153 0)
(2254.12 -2.1265 -8.44045e-22)
(2254.09 -2.46734 -5.07492e-20)
(2253.97 0.00994181 5.06767e-20)
(2254 2.28256 0)
(2254.26 1.80547 0)
(2254.74 0.252175 7.99403e-22)
(2254.18 0.391031 -8.56844e-19)
(2253.82 -1.74164 8.56277e-19)
(2253.42 -1.48864 -1.62404e-18)
(2253.56 2.74547 1.62357e-18)
(2251.97 4.32357 1.74091e-18)
(2249.74 -8.87448 -1.72064e-18)
(2235.86 31.193 0)
(2251.75 -58.5353 0)
(2244.89 39.2802 1.74899e-18)
(2235.44 -47.8897 0)
(2248.74 10.4368 0)
(2250.34 -7.68188 0)
(2253.49 -4.28789 0)
(2253.21 0.753033 1.66805e-21)
(2253.4 1.45418 1.64596e-21)
(2253.7 0.474699 4.10889e-19)
(2253.56 -0.0266892 -4.20837e-19)
(2253.9 -0.986179 2.13845e-19)
(2254.48 -0.455479 -2.06485e-19)
(2254.18 -1.73225 0)
(2254.1 -2.30955 0)
(2253.9 -0.00353405 -1.65461e-21)
(2254.05 2.08144 0)
(2254.3 1.35388 -1.68504e-21)
(2254.71 0.26001 8.073e-19)
(2254.02 0.724019 -8.50189e-19)
(2253.5 -1.22183 1.71594e-18)
(2253.54 -0.834167 -1.69124e-18)
(2253.61 3.75886 1.65341e-21)
(2250.68 6.45584 0)
(2250.03 -11.553 0)
(2237.26 42.6981 0)
(2250.2 -35.5656 0)
(2241.5 6.75542 0)
(2231.53 -63.6171 9.12442e-19)
(2247.2 12.2579 -8.4767e-19)
(2250.82 -11.1752 0)
(2252.53 -4.92512 8.61401e-19)
(2252.63 0.270686 -4.35959e-19)
(2253.42 0.959779 -2.64919e-21)
(2253.66 0.211845 -2.15369e-19)
(2253.61 -0.452567 -4.30909e-19)
(2253.96 -1.55795 1.63985e-19)
(2254.39 -0.560695 1.67924e-21)
(2254.07 -1.50014 2.6801e-19)
(2253.97 -2.168 -2.15285e-19)
(2253.77 -0.090891 3.35901e-21)
(2253.89 1.88722 -4.27602e-19)
(2254.21 1.15375 4.33286e-19)
(2254.65 0.314975 1.63685e-21)
(2254.12 1.3332 -1.68321e-21)
(2253.74 -0.336493 -1.67982e-21)
(2252.96 -0.361665 -8.59173e-19)
(2252.77 4.13216 8.46132e-19)
(2251.44 10.6841 0)
(2247.37 -15.1926 0)
(2232.42 65.3611 -1.93279e-18)
(2245.95 -18.7142 -1.26148e-19)
(2254.02 2.90108 -4.95248e-20)
(2227.48 -79.3423 6.02431e-20)
(2243.04 12.2566 0)
(2248.41 -15.5954 -2.69197e-23)
(2252.08 -6.65984 -2.62637e-23)
(2252.27 -0.733591 0)
(2252.89 0.572544 0)
(2253.3 -0.0686843 -8.49852e-19)
(2253.44 -0.8666 8.65499e-19)
(2253.95 -1.83065 0)
(2254.26 -0.512925 1.67054e-18)
(2254.08 -1.04555 4.27595e-21)
(2253.85 -1.78227 -1.72142e-18)
(2253.62 -0.0933218 -1.71278e-21)
(2253.87 1.44696 0)
(2254.19 0.688835 3.44615e-18)
(2254.43 0.363142 1.76047e-21)
(2253.75 1.70942 -6.90574e-18)
(2253.09 0.312543 3.45121e-18)
(2252.83 0.958336 2.64136e-23)
(2252.28 6.10235 0)
(2248.52 12.9691 3.52735e-18)
(2244.19 -12.5243 -3.30762e-18)
(2228.9 73.0359 3.81564e-18)
(2247.12 2.95011 -3.18116e-18)
(2218.35 -22.8345 -3.1699e-19)
(2214.68 -87.4539 -7.49655e-18)
(2235.63 3.55557 8.70683e-22)
(2245.94 -22.324 2.61183e-23)
(2248.72 -8.75034 -8.08847e-22)
(2250.89 -2.25501 0)
(2252.59 -0.590355 -3.40612e-18)
(2253.22 -0.830441 3.40463e-18)
(2253.41 -1.63431 0)
(2253.8 -2.28849 -8.38989e-22)
(2253.96 -0.633978 -8.20816e-22)
(2253.78 -0.865688 0)
(2253.52 -1.56955 0)
(2253.32 -0.122782 -1.66186e-21)
(2253.48 1.26218 -8.38548e-22)
(2253.93 0.532761 2.60046e-23)
(2254.14 0.67367 -8.56339e-22)
(2253.53 2.45401 -2.62902e-23)
(2252.91 1.76599 -1.73246e-18)
(2251.4 2.4046 -1.6261e-20)
(2249.25 8.0546 1.68874e-18)
(2246.39 19.4012 8.85525e-22)
(2236.71 -4.80243 3.45903e-18)
(2216.52 81.5875 -3.53878e-18)
(2222.38 18.1658 2.50227e-23)
(2113.26 -37.8516 9.42637e-19)
(2168.6 -98.5945 0)
(2217.1 -20.1244 -8.31464e-22)
(2234.82 -32.2336 -8.65744e-19)
(2245.67 -17.1746 1.71018e-18)
(2248.46 -6.14445 -1.7279e-18)
(2250.94 -2.40795 8.35829e-21)
(2252.27 -1.63366 8.55392e-19)
(2252.78 -2.06545 0)
(2253.25 -2.42057 -8.45281e-19)
(2253.35 -0.435047 8.47533e-19)
(2253.29 -0.301404 0)
(2252.95 -1.05411 0)
(2252.73 -0.24609 2.10589e-21)
(2252.97 0.549263 8.33895e-22)
(2253.31 0.0487582 8.42039e-19)
(2253.34 0.891542 -8.44539e-19)
(2252.54 3.26074 0)
(2251.25 3.39486 8.60746e-19)
(2249.48 6.0542 -1.72879e-18)
(2246.23 15.1618 8.44941e-19)
(2236.18 28.8897 -8.40861e-22)
(2219.02 16.6627 0)
(2171.34 94.0165 0)
(2117.22 35.3622 0)
(1873.58 -142.203 -6.57056e-17)
(2125.7 -161.339 8.42493e-17)
(2198.82 -54.6841 0)
(2229.14 -54.0058 -2.99487e-17)
(2239.66 -21.4704 3.07757e-17)
(2246.33 -10.3858 0)
(2249.62 -6.05467 -2.93813e-20)
(2251.11 -3.83559 -1.47118e-17)
(2251.57 -3.4381 1.47086e-17)
(2252.05 -2.89706 -2.91445e-20)
(2252.13 -0.723797 0)
(2252.14 -0.23239 -3.70373e-18)
(2251.78 -0.690233 5.58981e-18)
(2251.53 -0.294227 -1.90189e-18)
(2251.72 0.425783 -2.92508e-20)
(2252.03 0.380513 0)
(2251.92 1.76818 0)
(2250.96 5.02484 -2.94819e-17)
(2249.44 7.56529 2.90866e-17)
(2246.68 10.2846 -3.0603e-17)
(2240.46 20.4917 2.91806e-17)
(2229.39 53.0048 3.22083e-17)
(2199.86 52.492 -2.92237e-17)
(2128.69 161.869 -8.33879e-17)
(1884.76 138.356 -1.25755e-17)
(1653.05 -215.526 -9.08478e-17)
(2011.35 -307.549 1.37632e-16)
(2159.53 -104.259 0)
(2210.87 -64.5408 6.82441e-17)
(2232.7 -28.8544 -7.08532e-17)
(2241.79 -14.3834 -3.38843e-17)
(2245.43 -6.95446 3.38288e-17)
(2248.07 -4.3922 -3.35595e-17)
(2248.95 -3.20135 3.35137e-17)
(2249.62 -2.03896 3.23352e-20)
(2249.78 -0.104079 0)
(2249.85 0.451627 -2.11547e-18)
(2249.51 -0.0740012 2.16844e-18)
(2249.2 -0.413378 3.2972e-20)
(2249.3 -0.466995 3.2824e-20)
(2249.42 -0.399393 3.30675e-20)
(2249.17 0.907973 0)
(2248.03 4.57002 0)
(2245.08 7.62551 -6.77112e-17)
(2242.27 15.4222 6.8177e-17)
(2233.69 26.9684 -7.13614e-17)
(2211.52 59.0299 1.47092e-16)
(2166.08 99.4486 -6.99443e-17)
(2016.78 298.606 -3.86825e-20)
(1697.95 206.028 8.75396e-20)
(1281.64 -592.608 -1.08956e-16)
(1741.98 -591.153 1.18827e-16)
(2046.91 -180.381 2.1681e-16)
(2174.17 -105.969 -9.3521e-17)
(2208.46 -35.9561 0)
(2230.04 -19.9924 7.40883e-17)
(2238.64 -13.4249 -7.53789e-17)
(2241.91 -8.12614 0)
(2243.38 -5.55024 3.54586e-20)
(2244.41 -3.31254 0)
(2244.77 -0.816822 0)
(2244.86 0.297643 0)
(2244.63 0.341783 4.67019e-18)
(2244.28 -0.160224 -4.63589e-18)
(2244.25 -0.0234666 -3.71162e-20)
(2244.02 0.787459 -3.54547e-20)
(2243.41 2.8323 0)
(2241.75 7.28393 0)
(2238.06 13.9734 0)
(2228.48 19.0887 -7.89349e-17)
(2211.51 37.2731 1.56917e-16)
(2176.4 102.656 -7.23234e-17)
(2052.66 161.767 -1.33651e-16)
(1750.2 592.09 1.00502e-16)
(1286.06 543.648 -5.99411e-20)
(1302.07 -610.658 1.6076e-16)
(1112.88 -1086.08 0)
(1704.53 -451.042 0)
(1929.94 -129.888 -1.0794e-16)
(2151.12 -84.7826 1.09188e-16)
(2201.77 -43.5323 0)
(2216.18 -14.3667 1.1283e-20)
(2224.69 -6.45784 4.04526e-17)
(2228.64 -2.75759 -4.08353e-17)
(2231.28 -0.765458 0)
(2232.33 0.814299 -1.00336e-17)
(2232.6 1.24308 1.01276e-17)
(2232.58 1.04296 -5.08491e-18)
(2232.19 0.0658479 5.08927e-18)
(2231.85 -0.675492 3.86065e-20)
(2230.7 -1.13538 -4.0586e-17)
(2228.28 -0.128837 8.04778e-17)
(2223.74 4.34663 1.0483e-18)
(2214.19 13.5752 -4.04105e-17)
(2197.95 45.1556 -9.08633e-17)
(2134.04 72.2048 8.43617e-17)
(1912.59 109.722 8.25255e-20)
(1758.63 455.712 2.60563e-20)
(1103.66 1071.04 1.67461e-16)
(1319.46 612.406 7.17545e-18)
(1359.17 -629.367 0)
(1142.69 -1059 0)
(1292.93 -751.77 0)
(1199.37 -811.657 0)
(1955.21 -257.233 0)
(2050.72 -62.7515 1.02042e-16)
(2157.17 -47.3506 -1.0417e-16)
(2176.22 -30.4623 1.15163e-19)
(2185.65 -19.3506 -1.03084e-20)
(2192.54 -10.1285 2.25907e-17)
(2194.87 -4.1007 -2.28463e-17)
(2195.61 -0.666543 -2.25487e-19)
(2195.76 0.961692 -7.06859e-19)
(2195.3 1.70973 8.02157e-19)
(2194.54 3.64341 -2.26446e-17)
(2192.07 8.27702 2.24262e-17)
(2185.43 17.4238 9.90979e-20)
(2174.71 31.6861 0)
(2149.55 51.8647 0)
(2017.3 86.4575 0)
(1918.65 324.171 -2.11404e-16)
(1167.48 812.121 -6.19075e-17)
(1296.96 702.078 1.6403e-16)
(1135.46 1022.98 2.05608e-20)
(1368.88 618.972 2.0862e-20)
(1437.23 -621.002 0)
(1273.49 -926.572 3.94381e-20)
(1321.91 -784.717 0)
(1237.04 -859.234 -1.67409e-16)
(1335.17 -805.487 3.18342e-16)
(1641.13 -557.254 -2.04539e-16)
(1938.59 -119.942 0)
(1960.22 -13.8482 -1.02524e-19)
(2008.5 14.8989 0)
(2045.49 9.2707 0)
(2057.2 6.62802 -1.40821e-17)
(2060.97 3.24847 1.44059e-17)
(2061.94 2.21986 1.4208e-17)
(2061.31 1.45932 -1.42824e-17)
(2058.96 -0.197385 0)
(2050.22 -4.18513 -5.86277e-17)
(2018.09 -9.78991 5.91221e-17)
(1962.95 17.9853 7.11593e-17)
(1937.51 143.343 -5.96494e-17)
(1596.05 587.584 0)
(1308.7 794.942 0)
(1203.13 850.869 -1.72144e-19)
(1331.37 779.062 -1.709e-16)
(1266.93 918.012 3.66716e-16)
(1425.21 619.014 -1.69429e-16)
(1519.73 -630.989 -1.69223e-16)
(1387.78 -856.071 1.8698e-16)
(1385.26 -759.939 0)
(1281.97 -820.25 -1.89462e-16)
(1307.96 -784.964 -6.20948e-18)
(1305.21 -746.618 2.77304e-16)
(1258.42 -594.346 -1.99581e-16)
(1323.17 -523.518 1.18055e-16)
(1540.3 -271.037 0)
(1564.14 -121.247 0)
(1549.02 -58.5898 -4.08343e-20)
(1545.26 -20.9293 2.73298e-19)
(1542.33 -2.60195 0)
(1543.85 12.8261 0)
(1547.39 42.7445 5.7992e-17)
(1557.77 110.177 -5.51063e-17)
(1572.84 230.596 -1.10536e-16)
(1334.94 526.366 2.24259e-16)
(1246.84 597.737 1.82243e-17)
(1286.27 746.365 -9.0421e-17)
(1301.31 779.449 0)
(1252.93 823.611 0)
(1382.48 761.002 -1.73763e-16)
(1350.94 888.054 2.02881e-16)
(1502.22 640.968 -4.59576e-20)
(1660.56 -609.735 1.5725e-16)
(1562.5 -748.974 -9.70255e-20)
(1528.19 -687.651 9.48513e-17)
(1465.76 -728.623 -8.49962e-17)
(1399.02 -683.976 -4.46233e-20)
(1338.66 -600.364 8.76782e-20)
(1191.9 -448.359 1.1554e-16)
(874.664 -242.621 -1.80098e-16)
(694.944 -124.732 6.39102e-17)
(535.163 -57.0532 0)
(409.844 -20.3875 -3.37361e-17)
(368.702 -6.5577 3.36694e-17)
(351.733 1.02622 0)
(358.861 9.38349 6.32576e-20)
(388.328 17.244 -3.3599e-17)
(496.932 49.0926 3.38337e-17)
(737.577 121.531 0)
(874.766 253.44 -1.16418e-16)
(1177.73 439.679 1.16683e-16)
(1327.57 595.605 8.9149e-17)
(1389.44 685.094 -1.86202e-16)
(1434.02 744.39 9.96318e-17)
(1520.07 708.802 0)
(1547.51 776.148 1.6879e-16)
(1650.26 624.979 -3.30288e-18)
(1815.41 -551.726 -3.30427e-18)
(1746.41 -604.072 7.99841e-17)
(1688.88 -552.233 -3.63356e-17)
(1541 -426.514 -5.72394e-17)
(1421.43 -360.457 7.32953e-17)
(1383.03 -279.226 -5.12934e-17)
(1292.48 -254.669 5.28875e-17)
(953.719 -201.221 -5.84844e-17)
(733.846 -107.372 -5.03991e-19)
(599.019 -58.7523 3.29941e-17)
(502.953 -30.2907 1.6506e-17)
(469.887 -15.3547 -1.54738e-19)
(456.956 1.3318 -1.66962e-17)
(464.527 21.5464 -6.04654e-20)
(496.159 30.8106 -7.51595e-20)
(589.39 54.1684 -2.06864e-18)
(793.883 102.838 2.18289e-20)
(973.007 195.008 5.37509e-18)
(1282.96 228.882 -3.54028e-18)
(1365.66 305.213 0)
(1409.11 397.791 1.092e-17)
(1552.42 479.373 -3.45161e-17)
(1689.48 591.161 4.13567e-17)
(1741.47 634.823 -5.64901e-17)
(1810.2 569.697 5.30854e-17)
(1999.22 -509.83 -8.72452e-20)
(1954.38 -328.31 -1.04728e-19)
(1882.52 -320.223 1.21559e-19)
(1790.57 -219.187 -5.47852e-21)
(1533.58 -71.9198 -1.82945e-19)
(1414.46 -26.7672 -2.00838e-19)
(1375.02 -72.1422 -7.14651e-21)
(1201.21 -93.139 0)
(967.64 -105.502 0)
(819.868 -122.016 6.56284e-17)
(736.103 -103.32 -6.71481e-17)
(695.686 -51.3951 -8.84571e-21)
(680.277 2.0396 8.82889e-21)
(686.689 52.1081 -8.64024e-18)
(719.456 114.66 8.37615e-18)
(807.538 147.56 0)
(986.478 127.818 0)
(1175.68 108.736 -5.6482e-17)
(1342.32 72.5294 5.61031e-17)
(1369.89 17.1797 -1.94145e-19)
(1538.18 77.2541 0)
(1801.65 229.943 0)
(1886.93 324.238 -1.23889e-19)
(1953.19 330.892 -1.07363e-19)
(2000.41 523.583 1.23061e-16)
(1493.08 -178.467 -1.87964e-16)
(1739.45 -123.702 -2.39238e-16)
(1845.91 116.139 1.21883e-16)
(1797.07 142.77 0)
(1649 185.071 1.98695e-19)
(1516 145.534 1.08138e-16)
(1502.3 34.8087 -2.08775e-16)
(1408.01 -20.4281 1.0612e-16)
(1224.73 -57.161 -1.2092e-16)
(1061.43 -83.9602 1.25239e-16)
(935.574 -74.2084 3.29897e-17)
(862.862 -29.3387 -4.10965e-17)
(839.635 5.80712 -8.31895e-18)
(855.996 40.6279 1.68317e-17)
(930.104 91.7593 0)
(1069.86 109.493 0)
(1246.93 77.528 1.16547e-16)
(1391.93 37.4144 -2.20795e-16)
(1486.62 -38.1663 1.09325e-16)
(1499.03 -155.516 2.27216e-19)
(1662.8 -195.544 1.53132e-16)
(1790.16 -154.506 -9.78338e-17)
(1830.75 -135.914 -4.90285e-16)
(1738.7 134.662 6.21407e-16)
(1486.17 189.453 -2.49295e-16)
(-47.7668 -73.7298 1.11906e-19)
(484.4 -109.904 -2.55709e-16)
(1392.73 301.531 1.74518e-16)
(1672.13 494.7 0)
(1672.59 417.107 0)
(1609.63 277.36 0)
(1600.39 138.66 0)
(1530.72 66.1754 0)
(1374.59 18.8806 -5.15992e-17)
(1210.2 -20.9469 1.08384e-16)
(1077.05 -26.2049 -8.46795e-17)
(1000.52 -6.41679 3.21749e-17)
(978.141 9.17526 -3.62729e-18)
(1001.22 21.5623 1.58291e-20)
(1085.26 45.1256 -5.58222e-17)
(1235.32 41.278 5.54555e-17)
(1404.16 -1.61642 0)
(1527.04 -53.6801 0)
(1599.53 -139.846 -1.73407e-16)
(1603.38 -294.664 1.85894e-16)
(1677.22 -422.821 -1.61981e-19)
(1650.84 -501.888 7.30824e-20)
(1355.57 -268.976 -9.49757e-20)
(412.163 153.442 -1.15858e-19)
(-122.572 94.1633 0)
(-264.361 -37.6589 -2.24571e-16)
(381.55 264.228 2.28875e-16)
(1250.87 634.421 -1.71989e-19)
(1625.81 739.455 1.63739e-16)
(1723.85 573.844 -1.21535e-16)
(1686.07 390.134 0)
(1672.81 234.447 -8.1959e-17)
(1611.83 158.561 7.45989e-17)
(1475.9 95.7693 -4.45421e-17)
(1325.96 38.7307 9.34002e-17)
(1195.31 11.2109 -4.81902e-17)
(1119.66 10.5979 1.83321e-19)
(1100.42 7.20678 0)
(1125.36 3.19681 2.49254e-17)
(1214.46 1.95891 2.31172e-17)
(1359.97 -28.821 -4.73263e-17)
(1506.66 -90.5683 -8.1369e-17)
(1609.55 -150.378 8.39208e-17)
(1678.11 -238.573 -7.22127e-17)
(1683.27 -414.773 7.96513e-17)
(1726.8 -592.269 7.97987e-20)
(1587.55 -765.965 -7.60471e-20)
(1191.14 -622.791 0)
(317.905 -269.397 1.12911e-19)
(-269.098 20.4502 0)
(237.19 218.829 1.91787e-16)
(840.673 700.619 -1.88966e-16)
(1395.49 861.296 6.19349e-20)
(1670.35 865.224 0)
(1774.65 673.74 0)
(1736.15 508.213 -7.32238e-21)
(1717.98 352.975 0)
(1667.4 250.621 7.39675e-20)
(1553.85 168.484 0)
(1417.55 96.4907 4.1606e-17)
(1299.79 51.8298 -6.39929e-17)
(1229.39 25.1617 3.26325e-17)
(1208.77 6.79843 -1.10138e-17)
(1235.56 -14.699 0)
(1316.63 -41.2594 0)
(1445.97 -90.0881 3.88334e-17)
(1576.7 -161.54 -1.09136e-16)
(1662.27 -247.868 7.30408e-17)
(1731.83 -345.533 -6.11348e-17)
(1736.66 -514.42 6.98502e-17)
(1783.7 -679.052 0)
(1661.84 -886.244 0)
(1386.79 -881.041 0)
(871.379 -731.411 -1.17193e-20)
(244.038 -205.247 -2.01651e-16)
(309.994 77.4475 -3.58436e-20)
(1080.57 721.745 1.5615e-16)
(1529.26 926.934 -1.20059e-16)
(1734.59 906.219 0)
(1804.92 734.271 0)
(1761.08 595.031 7.595e-21)
(1755.75 442.008 6.45101e-17)
(1712.37 328.662 -5.70265e-17)
(1613.58 227.025 3.03409e-20)
(1495.01 140.875 3.29563e-20)
(1388.4 77.6575 3.48739e-20)
(1323.21 38.5301 -1.03572e-20)
(1305.31 4.31101 -1.03927e-20)
(1328.51 -30.4496 1.93073e-17)
(1404.55 -71.3075 -1.93319e-17)
(1522.33 -137.088 4.21751e-20)
(1636.47 -222.25 3.88319e-20)
(1706.75 -329.024 0)
(1766.33 -434.296 -5.42499e-17)
(1769.57 -591.407 6.22547e-17)
(1817.96 -740.226 0)
(1734.76 -919.716 -9.92013e-17)
(1523.97 -930.052 1.22336e-16)
(1067.58 -713.867 9.04491e-21)
(323.62 -56.6704 -1.88173e-16)
(485.268 115.019 4.16875e-20)
(1242.45 744.193 0)
(1628.34 925.97 0)
(1779.35 913.95 -4.77067e-17)
(1818.81 776.752 4.59876e-17)
(1779.77 652.572 0)
(1787.79 508.025 5.87461e-17)
(1749.67 389.053 -5.25e-17)
(1663.65 275.003 3.18194e-17)
(1556.65 179.711 -3.2146e-17)
(1464.81 105.37 1.76963e-17)
(1408.09 48.4855 -1.78041e-17)
(1390.62 2.75988 0)
(1415.17 -45.9901 -1.76232e-17)
(1481.95 -105.026 1.76828e-17)
(1583.38 -184.063 -3.47323e-20)
(1685.74 -273.828 -3.20523e-20)
(1744.37 -397.686 5.16939e-20)
(1793.71 -507.642 4.97788e-17)
(1783.9 -656.68 -5.73041e-17)
(1831.93 -781.369 -4.56686e-20)
(1776.7 -931.079 -4.46622e-20)
(1622.62 -923.747 0)
(1213.84 -732.152 -7.23002e-20)
(462.741 -99.2263 4.21761e-20)
(521.354 132.441 1.59717e-22)
(1319.09 691.097 0)
(1694.49 871.982 9.31138e-23)
(1780.35 908.656 4.05378e-20)
(1823.12 803.357 -8.57959e-23)
(1795.21 700.117 -5.19526e-17)
(1814.73 560.201 4.60281e-17)
(1783.69 439.617 0)
(1708.5 315.783 -5.91066e-20)
(1617.99 213.612 -1.0789e-22)
(1533.86 124.962 -1.1381e-22)
(1482.12 59.3612 6.89621e-20)
(1467.78 1.00107 0)
(1486.72 -57.442 0)
(1547.44 -124.758 -1.13063e-22)
(1640.34 -216.529 -1.06711e-22)
(1729.83 -314.719 -2.63052e-17)
(1777.5 -445.369 7.52125e-17)
(1816.81 -558.023 -5.32717e-17)
(1798.96 -699.997 0)
(1838.69 -801.07 -4.40041e-17)
(1782.53 -916.233 4.42063e-17)
(1697.71 -870.161 9.28193e-23)
(1315.06 -670.955 6.24126e-20)
(523.848 -135.28 1.60266e-22)
(661.526 212.676 2.93979e-18)
(1447.23 672.746 1.23546e-17)
(1743.9 846.702 9.75883e-17)
(1791.43 895.248 -4.12011e-17)
(1836.64 804.725 4.26563e-17)
(1813.83 716.25 -4.76746e-17)
(1841.89 587.906 4.28963e-17)
(1810.89 472.863 -2.51388e-17)
(1745.07 345.297 2.46737e-17)
(1663.94 240.789 1.14846e-22)
(1594.68 146.606 1.2061e-22)
(1550.89 66.8224 -1.23114e-22)
(1536.02 1.37653 7.44134e-18)
(1555.66 -66.809 7.24825e-18)
(1607.03 -148.269 -1.48478e-17)
(1684.58 -247.58 1.13899e-22)
(1766.14 -342.141 4.8906e-17)
(1807.16 -478.108 -9.51012e-17)
(1844.47 -583.634 4.89307e-17)
(1811.76 -720.62 0)
(1848.16 -802.843 -8.34458e-23)
(1793.64 -900.698 7.90679e-23)
(1739.28 -851.609 -8.43357e-23)
(1441.6 -674.17 -1.21553e-16)
(659.764 -214.033 1.50163e-16)
(717.853 224.865 1.40851e-19)
(1503.43 634.36 0)
(1762.54 800.183 0)
(1797.34 865.91 3.96329e-20)
(1845.14 792.067 8.06729e-20)
(1833.29 725.852 0)
(1867.22 606.067 4.48993e-17)
(1837.6 493.846 -4.22652e-17)
(1778.94 363.384 4.43833e-20)
(1711.53 257.709 -4.75573e-20)
(1648.41 153.701 -1.37352e-17)
(1609.33 71.3936 1.37641e-17)
(1598.43 -3.09693 3.57151e-18)
(1613.48 -78.3588 -3.4761e-18)
(1660.53 -162.969 1.32441e-17)
(1731.31 -271.957 -3.78301e-17)
(1801.33 -372.241 2.46529e-17)
(1832.5 -508.859 -4.63659e-20)
(1864.74 -612.255 3.94577e-20)
(1830.24 -733.881 -4.057e-17)
(1851.91 -796.732 8.48514e-19)
(1805.6 -865.725 -2.0492e-18)
(1766.65 -790.806 4.12426e-17)
(1474.54 -606.325 5.67851e-20)
(652.854 -212.874 6.91442e-20)
(714.761 206.11 1.35111e-16)
(1538.51 581.006 -1.09748e-16)
(1792 761.052 0)
(1816.9 840.908 -3.82516e-17)
(1860.55 781.384 3.28086e-19)
(1853.45 720.381 3.94821e-17)
(1891.37 613.134 4.16425e-17)
(1859.5 511.953 -3.9889e-17)
(1809.78 383.609 -4.68571e-20)
(1749.29 279.179 -2.45656e-17)
(1699.27 173.483 1.19216e-17)
(1666.04 80.4673 1.26156e-17)
(1653.43 1.45261 -5.39019e-20)
(1668.7 -80.075 0)
(1706.92 -174.19 0)
(1763.45 -286.192 0)
(1829.32 -378.476 4.64277e-20)
(1857.03 -514.911 9.65572e-21)
(1890.64 -607.414 -4.98126e-20)
(1850.15 -721.102 0)
(1865.59 -780.699 3.81806e-20)
(1820.03 -840.652 9.39556e-21)
(1795.93 -763.183 -4.87359e-20)
(1560.49 -586.366 -1.07012e-16)
(774.28 -244.134 1.33393e-16)
(763.587 232.184 6.58415e-17)
(1563.29 522.307 -9.69831e-17)
(1809.42 681.868 8.23394e-17)
(1829.57 786.052 -4.1102e-17)
(1872.84 752.086 -3.73586e-17)
(1871.15 707.386 3.76615e-17)
(1911.58 614.332 1.92461e-17)
(1880.46 518.83 -1.89698e-17)
(1836.99 389.832 1.08245e-17)
(1788.51 285.884 -2.23368e-17)
(1742.11 173.744 1.73751e-17)
(1712.57 83.1201 -7.40747e-18)
(1704.32 -2.33521 1.48943e-18)
(1715.25 -88.2318 -4.38822e-20)
(1751.04 -179.618 2.28491e-17)
(1803.11 -298.564 -2.28213e-17)
(1858.77 -395.088 3.87253e-20)
(1877.8 -528.285 3.7896e-17)
(1910.26 -615.112 -1.82444e-18)
(1862.64 -712.613 -3.84829e-17)
(1875.6 -757.125 0)
(1836.66 -789.567 4.09583e-17)
(1813.29 -692.468 -3.66389e-17)
(1568.31 -527.584 -1.0386e-16)
(770.712 -241.893 -1.55287e-18)
(889.73 263.408 -6.26969e-17)
(1629.57 479.607 4.84964e-17)
(1836.28 636.555 1.90679e-20)
(1848.12 746.308 -5.38568e-20)
(1892.77 737.24 1.81586e-20)
(1893.37 684.816 3.60469e-17)
(1934.32 594.813 -1.72729e-17)
(1897.54 512.184 -1.83281e-17)
(1862.23 390.03 4.13946e-20)
(1817.38 291.799 -4.41198e-20)
(1782.5 181.744 2.02888e-20)
(1758.8 83.9347 -2.05512e-20)
(1749.23 -3.3817 0)
(1761.41 -93.2092 5.2368e-21)
(1789.64 -191.461 -1.07084e-17)
(1829.67 -308.832 1.0768e-17)
(1883 -395.245 -1.92688e-17)
(1898.31 -525.863 9.70025e-19)
(1932.12 -598.489 1.81092e-17)
(1887.45 -689.245 -5.33212e-20)
(1890.09 -742.509 -3.66444e-17)
(1853.81 -747.973 3.48567e-17)
(1840.9 -638.485 0)
(1623.2 -475.791 -4.89088e-17)
(847.027 -260.182 6.27497e-17)
(914.535 272.11 0)
(1647.3 433.433 -4.27939e-17)
(1841.45 556.589 4.2441e-17)
(1867.94 672.982 1.7728e-20)
(1903.93 698.665 1.71267e-20)
(1912.55 663.354 -3.45249e-17)
(1947.29 590.934 3.4138e-17)
(1915.01 515.117 1.82905e-17)
(1885.74 395.223 7.977e-19)
(1852.15 297.412 -1.96641e-17)
(1818.6 182.235 -2.14706e-20)
(1796.73 89.6466 2.43007e-20)
(1790.94 -1.23525 0)
(1797.52 -92.2989 4.36829e-20)
(1824.29 -184.015 -2.13851e-20)
(1861.75 -307.447 9.75032e-18)
(1906.4 -396.759 -9.63823e-18)
(1913.98 -521.593 -1.82682e-20)
(1946.43 -591.098 -1.9131e-20)
(1903.81 -665.676 1.75752e-20)
(1901.95 -705.958 -3.63283e-17)
(1872.73 -684.252 -6.41044e-18)
(1851.21 -570.079 3.37819e-17)
(1660.12 -435.866 0)
(940.199 -272.212 6.04039e-17)
(1007.5 280.9 -1.14464e-16)
(1686.24 397.577 4.5116e-17)
(1856.63 499.824 3.25536e-17)
(1892.47 625.482 -4.05945e-17)
(1921.8 672.295 0)
(1934.67 642.97 -2.0703e-21)
(1966.9 568.152 0)
(1929.79 497.941 -2.19305e-21)
(1907.53 386.932 -2.3249e-21)
(1874.54 296.417 0)
(1850.98 185.828 0)
(1834.78 87.7774 -2.55814e-21)
(1827.29 -2.31013 0)
(1836.19 -95.6027 0)
(1855.84 -192.759 -9.63901e-18)
(1882.97 -310.488 9.62084e-18)
(1928.26 -388.351 -2.30567e-21)
(1933.19 -509.116 -1.71509e-17)
(1965.38 -571.664 1.63159e-17)
(1930.03 -644.369 0)
(1916.72 -679.757 3.57831e-17)
(1891.34 -638.748 -7.27972e-17)
(1866.68 -512.064 7.24906e-17)
(1692.83 -390.907 4.07435e-18)
(1011.99 -280.508 -5.71319e-17)
(1068.07 271.81 1.35852e-20)
(1705.38 366.639 -1.04988e-20)
(1859.7 434.399 0)
(1908.39 544.785 0)
(1930.3 616.608 0)
(1951.79 611.609 7.69927e-21)
(1976.75 555.677 0)
(1943.26 489.032 -7.86952e-21)
(1927.67 381.721 0)
(1904.67 291.837 -8.49192e-21)
(1880.78 176.531 0)
(1864.59 86.8966 -2.36275e-18)
(1861.19 -3.94728 2.34552e-18)
(1865.16 -95.7887 0)
(1885.62 -184.13 9.18643e-18)
(1911.19 -307.98 -1.80285e-17)
(1948.02 -388.847 8.72735e-18)
(1946.11 -499.781 0)
(1977.48 -561.031 1.59314e-17)
(1943.84 -617.514 -1.59545e-17)
(1930.71 -627.143 3.5625e-17)
(1911.09 -557.633 -3.15463e-17)
(1859.05 -446.702 0)
(1704.01 -355.645 0)
(1042.51 -257.399 0)
(1114.84 263.794 -1.31879e-20)
(1727.7 344.968 1.03211e-20)
(1878.19 377.851 0)
(1928.92 470 0)
(1948.64 579.449 0)
(1970.82 592.913 -7.642e-21)
(1997.56 532.884 0)
(1958.09 468.662 8.19604e-21)
(1948.12 369.696 0)
(1923.88 289.987 -8.79976e-18)
(1907.96 182.493 8.83798e-18)
(1896.76 88.1671 -8.37834e-21)
(1890.59 -0.679646 9.26518e-21)
(1897.17 -93.4315 8.36768e-21)
(1910.54 -184.833 0)
(1927.88 -299.847 0)
(1967.69 -368.722 8.47941e-21)
(1962.98 -478.01 -1.62468e-17)
(1996.68 -537.198 1.50929e-17)
(1967.41 -594.425 0)
(1940.58 -589.009 7.85255e-21)
(1927.88 -484.436 0)
(1875.67 -388.758 0)
(1729.89 -338.654 0)
(1110.84 -251.052 0)
(1141.53 236.176 -5.08448e-17)
(1737.92 314.593 4.19904e-17)
(1888.35 323.183 0)
(1937.76 390.478 -1.67263e-20)
(1957.36 517.235 0)
(1981.96 548.989 -1.45341e-17)
(2005.18 514.321 3.00803e-17)
(1970.39 457.15 -1.58514e-17)
(1964.37 361.119 -8.12641e-18)
(1949.73 281.554 8.34032e-18)
(1932.66 169.99 4.34553e-21)
(1920.04 85.6314 1.11735e-18)
(1918.31 -2.96988 -1.0738e-18)
(1920.43 -92.9964 8.52186e-18)
(1937.08 -175.254 -8.51592e-18)
(1953.2 -295.997 0)
(1984.33 -366.441 -1.51694e-20)
(1975.33 -466.138 0)
(2006.44 -522.215 0)
(1979.26 -559.456 -1.62757e-17)
(1953.07 -524.982 1.46611e-17)
(1936.54 -398.292 0)
(1883.12 -327.444 3.66977e-17)
(1729.64 -310.571 2.09915e-18)
(1125 -233.502 -1.04646e-16)
(1204.55 224.919 5.06791e-17)
(1767 293.891 1.93689e-20)
(1902.58 275.866 3.08598e-17)
(1941.23 322.545 -2.32015e-17)
(1969.25 476.279 -1.76364e-17)
(1995.93 518.123 0)
(2022.88 488.071 7.52021e-21)
(1985.18 430.625 1.51727e-17)
(1983.65 341.14 -1.57705e-17)
(1964.98 270.926 0)
(1954.27 170.194 0)
(1947.14 82.3996 -2.58294e-20)
(1942.29 -3.38147 3.21983e-20)
(1947.65 -93.5813 1.6804e-20)
(1957.17 -176.825 4.08151e-18)
(1966.77 -285.246 -4.03663e-18)
(2002.8 -345.785 8.38216e-21)
(1992.72 -444.402 1.55602e-17)
(2023.38 -495.576 -2.89112e-17)
(1994.48 -523.531 1.40423e-17)
(1965.74 -484.016 -1.48953e-20)
(1941 -318.101 0)
(1901.06 -276.822 1.69556e-20)
(1756.51 -294.304 4.07948e-17)
(1183.66 -227.668 -1.00681e-16)
(1209.35 187.145 -4.97853e-17)
(1767.57 261.159 -3.82568e-17)
(1905.64 233.289 3.49411e-17)
(1931.27 249.684 1.45322e-17)
(1977.02 393.094 -1.82468e-17)
(2005.88 459.68 0)
(2028.95 462.997 3.66045e-21)
(1996.77 417.944 -1.10707e-20)
(1998.21 335.196 7.58214e-18)
(1988.1 264.989 -1.56153e-17)
(1975.82 160.137 7.89001e-18)
(1965.57 82.905 1.98574e-18)
(1965.12 -1.71806 -1.85969e-18)
(1965.53 -88.0439 1.84562e-18)
(1979.42 -161.62 -1.97585e-18)
(1988.74 -276.186 0)
(2017.05 -337.699 1.12166e-20)
(2003.51 -425.074 -3.5638e-21)
(2029.07 -474.967 -1.48456e-17)
(2004.28 -474.337 1.36896e-17)
(1974.29 -402.279 0)
(1929.09 -255.581 0)
(1906.51 -232.049 -4.10656e-21)
(1770.97 -263.939 -4.02192e-17)
(1221.29 -198.08 -1.59763e-18)
(1252.15 171.585 -2.3445e-17)
(1783.2 243.106 1.9619e-17)
(1918.15 211.657 4.11049e-21)
(1930.77 184.44 0)
(1987.47 325.106 1.3493e-17)
(2018.43 420.662 -1.61331e-17)
(2040.8 433.483 3.40745e-21)
(2009.95 388.901 3.66471e-21)
(2016.55 313.057 1.3981e-20)
(2000.47 252.042 -1.88973e-18)
(1992.86 159.054 9.55594e-19)
(1988.77 78.6752 1.87646e-18)
(1984.84 -2.5615 -9.6331e-19)
(1988.51 -88.8743 3.82527e-18)
(1995.55 -163.211 -3.81453e-18)
(2000.04 -264.061 0)
(2035.04 -317.472 1.01781e-20)
(2020.61 -401.33 -1.51203e-17)
(2042 -441.606 1.32272e-17)
(2017.06 -431.318 3.4726e-21)
(1984.06 -336.322 0)
(1928.74 -175.169 0)
(1924.71 -210.04 4.12832e-21)
(1785.56 -247.013 -3.93237e-17)
(1251.96 -182.068 4.70268e-17)
(1286 144.333 2.33953e-20)
(1791.78 210.723 0)
(1929.99 182.146 -7.81649e-21)
(1934.69 129.532 -1.44028e-17)
(1983.91 241.049 1.78054e-17)
(2019.32 350.697 -1.31299e-17)
(2041.22 392.688 1.51865e-17)
(2019.22 367.664 -7.01615e-18)
(2028.18 303.084 7.35636e-18)
(2020.54 243.347 -3.64406e-18)
(2011.43 145.36 3.69974e-18)
(2002.97 75.4978 -1.82695e-18)
(2003.45 -3.46815 2.08761e-18)
(2002.83 -85.3253 -2.47229e-19)
(2015.09 -151.334 3.69541e-18)
(2019.92 -257.801 -7.29931e-18)
(2046.34 -308.654 -3.75961e-18)
(2029.04 -378.789 7.00201e-18)
(2044.97 -409.537 1.34853e-20)
(2021.46 -365.77 -7.0018e-21)
(1984.05 -241.95 0)
(1934.37 -133.536 0)
(1935.76 -182.997 0)
(1790.71 -211.865 -1.9332e-17)
(1267.64 -149.824 2.302e-17)
(1307.5 140.188 -2.78692e-21)
(1799.98 191.568 0)
(1947.35 167.46 9.84879e-21)
(1941.02 86.2658 -7.92415e-21)
(1971.23 166.452 -7.21811e-21)
(2030.25 298.894 0)
(2050.56 352.078 -6.60403e-21)
(2031.09 337.433 6.85025e-18)
(2044.68 281.188 -7.24721e-18)
(2030.71 230.984 0)
(2025.33 146.849 1.70421e-21)
(2023.03 74.2831 0)
(2019.95 -1.18748 0)
(2022.63 -82.6397 1.79712e-18)
(2027.34 -148.016 -1.79998e-18)
(2027.99 -240.667 -7.23442e-21)
(2062.61 -285.162 -1.65406e-21)
(2043.56 -349.557 6.98725e-21)
(2050.33 -362.26 -7.50378e-18)
(2030.47 -319.464 6.37857e-18)
(1974.08 -181.892 -1.73235e-17)
(1939.2 -80.1055 3.09558e-17)