/*--------------------------------*- C++ -*----------------------------------*\
| =========                 |                                                 |
| \\      /  F ield         | OpenFOAM: The Open Source CFD Toolbox           |
|  \\    /   O peration     | Version:  2112                                  |
|   \\  /    A nd           | Website:  www.openfoam.com                      |
|    \\/     M anipulation  |                                                 |
\*---------------------------------------------------------------------------*/
FoamFile
{
    version     2.0;
    format      ascii;
    arch        "LSB;label=32;scalar=64";
    class       volScalarField;
    location    "0.00456";
    object      k;
}
// * * * * * * * * * * * * * * * * * * * * * * * * * * * * * * * * * * * * * //

dimensions      [0 2 -2 0 0 0 0];

internalField   nonuniform List<scalar> 
13875
(
812.08
3462.64
3540.13
3539.23
3542.76
3540.04
3539.7
3541.93
3542.22
3540.69
3540.3
3541.6
3540.8
3540.11
3540.31
3541.43
3542.58
3540.7
3540.71
3539.5
3542.12
3538.94
3539.91
3459.78
820.575
881.805
2936.66
3012.92
3000.4
3000.98
2996.78
2995.57
2997.35
2997.07
2997.36
2998.04
2998.75
2996.91
2996.63
2996.21
2998.51
2995.94
2997.08
2997.83
2997.49
3000.44
2998.86
3011.34
2933.4
894.686
993.387
2710.89
2777.33
2754.82
2756.48
2753.01
2751.3
2752.02
2745.39
2744.38
2744.4
2745.67
2752.09
2752.67
2751.09
2745.57
2741.56
2745.06
2753.42
2754.7
2757
2752.44
2774.05
2706.64
998.535
1091.12
2533.71
2580.88
2561.03
2564.39
2561.29
2559.37
2559.84
2553.16
2549.47
2548.55
2550.02
2559.86
2560.47
2559.03
2550.2
2548.39
2550.46
2560.94
2562.59
2564.86
2558.75
2578.67
2529.92
1093.98
1172.17
2380.47
2413.04
2392.38
2395.51
2392.76
2390.83
2391.07
2385.24
2380.85
2379.47
2380.74
2391.06
2391.8
2390.29
2380.98
2380.16
2381.34
2392
2394.12
2396.13
2390.53
2410.08
2375.97
1177.31
1241.07
2237.13
2270.72
2244.3
2248.37
2245.2
2242.66
2242.17
2236.87
2231.75
2229.9
2231.22
2242.12
2243.04
2241.38
2231.3
2231.67
2231.89
2243.03
2246.8
2249.27
2243.19
2267.43
2247.44
1246.89
1321.02
2121.74
2158.05
2119.67
2120.14
2115.49
2111.9
2110.61
2105.67
2099.78
2097.09
2098.7
2110.33
2111.48
2109.38
2098.66
2100.4
2099.97
2111.74
2117.23
2121.21
2119.26
2153.79
2095.65
1322.95
1409.88
2000.71
2073.29
2019.06
2013.56
2004.63
1998.33
1995.07
1990.05
1983.64
1979.48
1981.38
1993.96
1995.69
1993.12
1981.4
1984.84
1983.88
1996.59
2005.92
2014.13
2018.4
2067.73
1992.08
1419.89
1691.39
2028.92
2021.79
1944.45
1923.69
1910.4
1901.08
1895.26
1889.62
1882.82
1877.33
1879.44
1893.03
1895.5
1892.49
1880.06
1884.7
1883.29
1896.99
1911.13
1925.23
1942.84
2018.06
2033.78
1717.04
2507.96
2284.8
2017.69
1898.84
1864.17
1840.29
1826.92
1818.25
1811.57
1804.43
1798.56
1800.58
1814.79
1818.05
1814.9
1803.31
1807.33
1806.79
1819.67
1838.56
1863.33
1896.75
2012.05
2264.99
2526.86
3875.76
3025.59
2156.26
1925.35
1835.03
1798.94
1779.57
1767.21
1759.04
1751.83
1746.34
1747.75
1762.05
1766.08
1763.66
1754.57
1756.88
1757.85
1770.35
1792.81
1832.81
1920.79
2139.95
2944.95
3862.34
5172.54
6424.36
2896.38
2020.29
1892.32
1809.29
1769.81
1750.86
1739.59
1732.21
1727.32
1727.94
1740.92
1745.77
1744.84
1739.32
1741.15
1744.89
1760.72
1802.21
1879.34
1995.29
2821.24
6323.74
5116.64
5058.1
7358.8
7289.63
3558.45
2132.35
1893.77
1834.17
1811.62
1795.97
1787.45
1782.87
1783.38
1793.72
1799.06
1800.2
1798.73
1803.03
1813.01
1833.31
1890.91
2181.09
3445.74
6970.13
7351.13
5009.97
4825.24
6193.59
7292.4
9391.2
5318.61
2632.01
2215.8
2072.85
2026.02
2008.17
2000.04
2000.09
2007.15
2013.05
2016.71
2021.67
2037.21
2082.41
2233.9
2772.27
5861.08
8698.25
7022.32
6174.5
4845.47
4635.5
5477.55
6191.7
7524.71
6638.7
6291
5624.7
4154.34
4187.33
4200.07
4194.91
4177.97
4194.3
4201.15
4208.37
4203.8
4189.76
4185.94
5782.93
6650.41
6718.14
7169.03
6054.86
5443.44
4735.21
4412.86
4898.37
5584.24
6776.22
6798.57
7233.98
6577.24
5608.36
6042.81
6433.13
6470.6
6448.61
6468.78
6512.47
6488.72
6440.87
6024.97
5511.58
6566.42
7441.2
6843.18
6554.96
5476.08
4849
4496.12
4032.91
4496.05
5262.25
6311.02
6463.84
6824.51
6513.09
5701.67
5097.64
5121.14
5152.03
5147.59
5165.35
5190.18
5176.99
5148.41
5153.32
5694.23
6381.6
6921.38
6521.73
6229.69
5144.61
4368.03
4004.37
3450.26
4254.87
5367.99
5741.77
5678.17
6222.33
6102.73
5569.57
4771.75
4386.87
4285.89
4258.64
4272.99
4299.29
4342.39
4474.02
4876.61
5540.44
5905.83
6142.54
5681.46
5746.33
5367.66
4173.96
3388.94
2904.1
4310.38
5241.87
5281.73
5071.99
5310.75
5393.71
5281.6
4734.8
4115.46
3791.58
3675.22
3667.66
3700
3808.05
4105.86
4707.87
5195.98
5242.67
5248.57
5057.06
5283.94
5246.45
4325.98
2883.8
2714.4
4686.67
4914.83
4764.62
4555.77
4657.12
4784.49
4842.33
4531.26
3918.37
3452.92
3253
3224.14
3281.94
3473.96
3899.55
4469.14
4740.81
4677.97
4624.69
4582.05
4796.9
4901.53
4651.67
2693.11
3287.3
4226.77
4316.06
4220.08
4068.4
4139.75
4261.16
4385.88
4210.58
3662.49
3151.19
2900.29
2857.74
2941.75
3196.36
3666.18
4147.81
4285.01
4184.34
4136.1
4121.06
4266.69
4322.25
4201.04
3228.68
4686.18
4897.69
3881.26
3771.25
3660.04
3725.27
3816.89
3965.64
3871.29
3384.77
2871.54
2598.69
2544.15
2639.81
2917.85
3388.56
3804.39
3866.82
3752.09
3728.33
3720.9
3809.57
3898.29
5036.4
4739.6
5328.19
5463.26
3555.96
3373.69
3309.03
3357.16
3428.56
3590.06
3535.51
3099.58
2608.56
2334.34
2272.43
2364.18
2638.23
3091.72
3467.49
3494.16
3359.9
3346.76
3356.47
3404.59
3559.76
5659.11
5425.85
5505.17
5426.07
3256.86
3058.05
2992.8
3011.42
3088.29
3256.89
3216.68
2804.21
2347.77
2095.97
2038.18
2125.86
2381.88
2806.13
3158.83
3169.48
3021.29
3002.88
3035.91
3096.93
3284.62
5599.5
5606.39
5607.39
5416.66
3029.35
2820.7
2724.31
2723.93
2804.78
2960.82
2924.34
2542.24
2120.42
1890.9
1838.79
1918.48
2153.31
2550.02
2877.05
2883.06
2740.22
2710.01
2757.45
2858.04
3067.43
5626.32
5736.83
5717.05
5401.74
2868.02
2628.64
2501.94
2489.93
2563.89
2696.81
2656.26
2305.9
1923.61
1715.6
1667.73
1738.95
1949.36
2307.84
2607.94
2623.34
2500.48
2465.36
2517.64
2655.59
2889.34
5432.25
5863.26
5836.12
5192.68
2731.76
2456.43
2318.81
2291.56
2353.84
2458.01
2404.33
2086.56
1746.32
1563.22
1521.49
1585.76
1776.01
2100.74
2375.55
2401.25
2297.01
2265.29
2327.93
2482.07
2757.57
5317.05
6032.02
5983.82
5069.44
2625.89
2306.32
2173.8
2132.02
2174.67
2251.44
2186.05
1897.46
1595.96
1433.61
1395.47
1453.18
1621.8
1909.35
2159.72
2200.58
2121.56
2100.45
2173.34
2322.54
2645.63
5216.6
6170.52
6148.96
5029.75
2531.18
2175.31
2046.54
1998.42
2020.17
2070.81
1994.47
1733.54
1465.81
1321.01
1286.16
1337.13
1484.5
1737.83
1966.34
2023.56
1969.01
1961.4
2036.14
2182.26
2546.04
5092.13
6223.2
6160.29
4987.15
2456.28
2055.48
1927.94
1880.84
1884.62
1905.16
1814.07
1579.1
1347.59
1222.13
1191.16
1238.4
1370.08
1594.03
1801.56
1871.21
1841.05
1846.54
1916.57
2064.51
2481.21
5103.85
6303.2
6100.86
4896.97
2408.39
1961.43
1824.46
1774.34
1765.69
1764.75
1664.15
1451.68
1247.48
1136.07
1107.88
1150.51
1265.52
1462.4
1652.25
1735.04
1726.34
1740.83
1809.89
1966.47
2428.69
5049.74
6268.62
6070.44
4829.98
2375.54
1895.83
1730.57
1677.75
1661.03
1640.72
1534.18
1340.4
1160.69
1061.29
1035.04
1073.76
1174.99
1347.53
1520.88
1613.71
1625.64
1646.34
1714.05
1895.51
2402.91
4916.31
6197.45
5987.35
4674.78
2367.21
1844.85
1649.64
1587.66
1562.77
1526.45
1415.86
1240.78
1082.07
994.319
970.554
1006.62
1096.87
1251.33
1410.99
1507.48
1533.46
1559.4
1632.76
1844.32
2393.46
4796.17
6147.62
5945.78
4536.07
2363.28
1818.84
1584.91
1509.21
1474.25
1427.55
1315.47
1155.46
1015.13
936.148
913.782
946.822
1027.19
1163.44
1309.35
1410.58
1449.2
1483.72
1569.25
1814.88
2392.08
4618.82
6072.32
5918.71
4440.17
2313.36
1805.66
1540.05
1438.63
1392.33
1338.76
1228.45
1082.5
955.75
884.24
863.279
893.61
965.46
1088.49
1222.39
1323.19
1369.84
1415.39
1527.12
1807.12
2357.03
4445.51
6018.26
5837.93
4270.2
2235.71
1799.78
1511.46
1378.36
1318.6
1256.16
1148.04
1014.61
902.08
837.948
818.477
847.183
912.707
1023.27
1146.57
1246.51
1300.65
1359.15
1501.32
1816.49
2293.47
4308.94
5977.31
5779.36
4138.04
2165.18
1827.47
1497.39
1332.23
1253.91
1183.4
1079.04
957.682
855.094
796.38
778.103
804.828
863.957
964.546
1077.18
1174.31
1238.77
1314.72
1489.25
1853.96
2205.27
4155.43
5881.21
5753.39
4011.61
2098.92
1831.26
1505.17
1299.09
1199.91
1120.12
1017.94
905.675
813.102
759.372
742.104
767.209
820.815
911.03
1015.52
1111.92
1186.48
1285.11
1507.32
1863.69
2120.14
4026.45
5808.1
5685.52
3869.47
1999.86
1781.15
1518.53
1276.5
1156.25
1063.21
962.088
858.627
774.245
725.228
709.322
733.151
782.261
865.591
962.456
1057.47
1145.45
1266.19
1533.63
1820.76
2029.07
3926.51
5762.47
5636.93
3774.83
1901.08
1728.07
1570.51
1270.33
1125.35
1017.34
914.697
817.246
740.011
694.968
679.708
702.062
746.816
822.816
914.641
1012.34
1114.52
1265.54
1594.39
1757.01
1921.34
3816.68
5697.65
5603.72
3711.56
1825.51
1664.58
1587.13
1280.93
1100.59
983.38
875.175
781.412
709.077
667.075
652.647
673.377
714.768
785.716
874.348
978.014
1091.46
1289.42
1618.16
1682.28
1830.43
3739.97
5647.08
5542.8
3640.4
1745.36
1587.76
1549.81
1313.37
1084.37
955.769
842.486
749.389
680.798
641.824
628.038
647.968
686.608
754.534
843.072
952.384
1083.88
1348.33
1570.86
1605.28
1780.16
3689.28
5615.29
5490.88
3587.13
1689.72
1512.88
1494.29
1366.09
1090.25
934.853
819.568
723.495
656.219
618.663
605.348
624.334
661.161
727.299
819.765
931.469
1097.51
1395.68
1507.39
1528.66
1711.91
3617.16
5560.82
5453.33
3544.65
1672.35
1450.63
1431.07
1371.3
1128.47
923.083
800.393
704.028
636.063
598.383
585.031
603.589
640.346
707.142
800.875
922.724
1151.78
1388.7
1434.52
1462.72
1669.78
3552.2
5524.61
5417.74
3479.18
1628.93
1392.63
1364.61
1327.18
1199.59
929.038
785.881
690.061
621.45
581.615
567.666
586.668
625.034
693.302
788.899
944.036
1218.27
1338.79
1362.84
1407.89
1659.56
3499.04
5499.34
5384.18
3419.72
1622.14
1347.31
1302.91
1278.09
1228.61
979.996
780.547
678.323
610.945
569.771
553.79
574.649
613.68
681.365
786.691
998.499
1224.89
1283.23
1301.52
1358.45
1633.95
3429.64
5477.33
5353.2
3370.3
1627.85
1313.62
1251.4
1225.42
1190.84
1061.88
805.307
670.783
601.218
560.487
543.337
565.278
603.844
673.863
817.003
1076.95
1188.01
1227.24
1250.9
1320.61
1619.57
3366.98
5445.07
5279.53
3293.13
1607.11
1281.64
1206.11
1173.26
1149.48
1094.3
873.467
674.324
593.314
552.413
535.311
557.077
596.937
685.466
902.396
1099.01
1149
1177.81
1208.35
1292.95
1622.09
3307.79
5362.43
5137.85
3195.46
1589.26
1253.79
1167.55
1128.41
1104.65
1065.2
952.122
712.809
591.97
545.379
528.372
549.761
596.441
731.558
968.698
1069.17
1105.51
1134.43
1171.5
1263.92
1600.62
3210.06
5215.48
4756.05
3025.99
1565.43
1225.65
1133.73
1090.31
1061.35
1030.98
973.556
797.527
612.276
543.107
524.679
546.96
620.064
814.568
971.189
1033.98
1063.65
1096.96
1138.56
1233.15
1569.02
3033.97
4830.27
260.969
407.103
474.865
500.325
509.568
516.175
524.479
534.388
546.22
559.558
574.626
592.247
633.543
833.984
1264.9
1401.62
1436.8
1462.69
1477.62
1472.41
1446.62
1417.28
1395.11
1379.56
1364.01
1339.28
1293.19
1197.99
1013.44
631.133
253.225
408.569
474.795
498.812
508.314
516.321
526.459
538.871
553.405
569.144
587.561
625.936
821.298
1355.4
1510.88
1515.29
1516.33
1526.23
1525.67
1506.63
1472.6
1438.65
1413.08
1394.48
1375.2
1345.58
1293.05
1189.85
1002.4
635.404
253.355
416.592
477.323
499.328
509.343
519.091
532.021
547.038
564.737
585.056
623.918
800.872
1340.54
1570.88
1574.15
1561.62
1559.03
1560.36
1547.42
1522.54
1487.54
1452.64
1425.64
1404.57
1381.45
1346.61
1286.85
1173.68
981.786
636.403
255.707
423.585
479.991
501.587
512.943
525.577
541.633
560.609
584.879
630.766
810.489
1338.41
1616.88
1641.94
1624.27
1605.66
1593.65
1580.12
1555.37
1527.78
1491.21
1456.61
1428.69
1405.22
1378.48
1338.37
1271.93
1150.78
955.309
633.768
258.305
427.093
483.192
505.496
519.733
536.896
560.695
594.155
655.471
851.654
1354.74
1631.34
1688.75
1683.06
1659.42
1632.48
1607.7
1579.12
1547.85
1519.85
1484.92
1445.07
1416.09
1391.15
1362.15
1318.99
1247.61
1121.89
926.339
630.47
262.084
431.55
487.794
512.404
533.277
567.872
631.92
736.961
952.349
1366.85
1590.05
1681.42
1708.55
1696.84
1667.47
1630
1594.31
1561.56
1528.9
1502.15
1471.6
1427.07
1396.15
1369.05
1337.41
1291.62
1217.12
1090.8
901.01
626.692
266.367
437.425
495.117
528.138
584.205
710.286
915.337
1134.48
1351.74
1499.72
1598.92
1669.86
1691.77
1676.55
1637.57
1596.73
1563.18
1531.97
1500.75
1476.82
1454.3
1408.6
1375.21
1346.2
1312.43
1264.07
1187.61
1061.1
876.17
622.271
271.523
446.089
513.11
601.437
815.339
1113.72
1277.5
1344.16
1419.93
1486.21
1561.57
1624.4
1641.73
1618.33
1578.99
1547.37
1519.52
1492.83
1465.24
1444.68
1429.64
1386.95
1350.99
1321.17
1286.21
1236.08
1157.56
1031.12
851.785
616.579
280.418
475.103
608.811
919.328
1274.05
1356.91
1376.8
1380.62
1408.64
1444.09
1500.82
1553.46
1559.97
1537.84
1509.19
1486.23
1465.19
1444.49
1421.1
1404.8
1396.07
1359.48
1321.44
1291.69
1256.26
1205.02
1124.69
999.212
826.487
609.893
323.315
687.39
1019.89
1417.46
1445.27
1423.47
1393.31
1371.42
1373.42
1383.7
1420.73
1459.6
1465.7
1453.5
1432.44
1416.7
1402.52
1387.66
1368.94
1357.29
1353.68
1325.37
1286.51
1257.43
1222.02
1170
1088.84
965.512
800.548
601.953
532.441
1410.61
1633.91
1577.66
1489.43
1436.89
1384.88
1340.23
1320.39
1307.13
1329.82
1363.17
1375.76
1369.28
1354.1
1343.49
1334.73
1325.18
1311.24
1303.82
1303.77
1284.49
1246.73
1218.52
1183.45
1131.1
1049.82
929.721
773.409
592.404
713.161
1735.28
1834.87
1625.22
1509.89
1443.09
1377.94
1311.99
1265.49
1241.24
1248.31
1274.01
1292.84
1292
1279.4
1271.05
1265.19
1260
1250.87
1246.83
1249.27
1237.86
1202.63
1175.46
1140.88
1088.35
1007.64
891.547
744.901
580.856
868.48
1804.17
1879.63
1703.62
1571.88
1499.85
1416.91
1317.8
1244.43
1194.52
1180.68
1195.12
1221.36
1226.15
1211.87
1202.03
1197.06
1195.04
1190
1189.06
1193.15
1187.63
1155.41
1129.27
1095.07
1042.31
963.071
851.877
715.772
567.732
1015.54
1854.66
1959.12
1907.2
1772.53
1683.01
1557.98
1399.31
1273.1
1181.56
1137.99
1132.87
1162.43
1170.45
1153.38
1138.28
1133.2
1132.18
1131.24
1133.33
1137.61
1135.71
1106.61
1081.42
1047.49
994.779
918.278
812.812
687.376
553.985
1157.16
1923.72
2156.4
2266.53
2220.62
2081.98
1862.06
1593.18
1372.75
1213.73
1126.33
1090.55
1113.58
1131.91
1105.22
1081.59
1075.55
1074.19
1076.45
1080.55
1084.43
1083.95
1057.56
1033.28
999.68
947.857
874.84
775.695
660.214
540.145
1280.89
2083.3
2560.29
2912.91
3026.21
2801.94
2404.36
1938.76
1565.32
1295.83
1148.18
1070.62
1075.4
1103.27
1066.8
1034.59
1024.63
1022.47
1026.25
1031.87
1035.02
1033.85
1009.52
985.983
952.816
902.549
833.232
740.52
634.424
526.243
1410.11
2407.83
3348.74
4011.37
4292.46
3912.6
3242.4
2474.16
1865
1430.56
1199.16
1070.46
1053.73
1079.79
1037.51
995.748
980.137
977.403
981.921
988.225
990.106
986.098
963.961
940.735
907.778
859.284
793.628
707.191
610.162
512.278
1578.75
2978.15
4725.95
5724.57
5981.08
5223.75
4293.83
3219.58
2271.63
1612.77
1270.3
1091.61
1045.46
1062.37
1015.18
966.128
943.505
939.628
944.189
949.72
949.674
941.927
921.36
898.343
865.236
818.648
756.492
676.005
587.394
498.392
1817.49
3998.92
6767.67
7342.87
6999.41
5889.26
4868.23
3818.55
2735.52
1823.35
1349.57
1130.76
1055.21
1055.43
998.323
942.715
914.939
908.827
913.229
916.612
913.711
902.082
882.072
858.943
825.728
781.263
722.371
647.275
566.026
484.818
2175.53
5614.52
8491.12
8270.09
7496.65
6140.92
5011.37
4161.87
3094.08
2067.24
1436.16
1178.81
1078.67
1051.89
987.319
927.697
895.267
885.996
887.322
887.562
881.668
867.047
846.352
822.622
789.727
747.389
691.471
621.123
546.333
471.79
2585.14
7471.47
9836.59
9157.62
7994.5
6314.21
5026.46
4280.66
3349.68
2315.42
1549.04
1242.35
1112
1057.23
981.884
918.182
880.762
867.87
865.075
862.844
852.492
835.541
814.577
789.812
757.527
716.961
663.633
597.32
528.59
459.386
3126.15
9261.45
11207.3
10325.9
8821.81
6753.49
5136.62
4262.54
3494.33
2532.51
1685.35
1304.71
1140.61
1061.52
987.239
916.076
870.894
853.115
845.683
840.18
827.139
809.031
787.104
760.827
728.772
689.434
638.383
575.422
512.588
447.458
4471.27
10765.7
12242.4
11753.4
10074.1
7464.98
5419.73
4326.77
3630.08
2739.98
1854.87
1380.74
1170.79
1066.38
1003.74
918.601
862.662
839.743
827.911
821.714
805.417
784.992
762.859
735.054
702.796
664.436
615.51
555.195
497.661
435.921
4840.09
12688.3
13720
13758
11990
8409.44
5849.86
4521.78
3773.02
2967.13
2045.18
1475.43
1210.89
1083.85
1043.73
927.225
854.371
826.404
812.767
804.648
783.515
762.517
740.046
712.565
680.171
642.69
595.306
536.942
483.276
424.888
5287.88
12886.6
15799.7
16568.3
14593.2
9649.36
6508.98
4840.09
3945.14
3159.7
2209.79
1564.93
1254.48
1131.13
1108.12
957.341
854.816
818.745
801.706
786.195
763.259
744.12
719.777
693.066
660.497
623.793
577.639
520.801
469.845
414.456
631.679
1015.05
1199.74
1294.96
1341.3
1366.39
1382.31
1398.37
1420.87
1450.29
1475.35
1481.36
1466.1
1439.04
1404.74
1275.11
847.509
637.558
593.559
575.585
560.183
546.584
534.701
524.84
516.443
509.907
500.769
475.166
407.158
261.198
636.179
1004.34
1191.99
1295.25
1348.06
1378.13
1397.75
1416.9
1442.55
1475.78
1508.42
1528.4
1529.79
1518.79
1516.89
1512.55
1372.34
838.995
630.478
589.097
570.022
553.981
539.386
526.941
516.853
508.62
499.009
474.991
408.679
253.724
637.421
984.071
1176.29
1289.57
1349.69
1384.91
1408.28
1429.68
1456.52
1490.15
1523
1547.67
1562.68
1561.1
1562.75
1574.11
1573.25
1366.55
821.871
629.6
586.753
565.804
547.89
532.702
519.882
509.799
499.52
477.456
416.709
253.865
635.11
957.93
1153.91
1275.21
1342.06
1382.37
1409.41
1433.18
1460.63
1492.92
1526.39
1553.96
1579.14
1593.72
1605.57
1623.14
1640.4
1619.8
1371.48
836.817
639.235
588.173
562.444
542.716
526.42
513.622
501.981
480.04
423.225
256.069
632.078
929.203
1125.48
1251.36
1323.15
1366.41
1395.73
1420.91
1449.4
1486.06
1517.16
1544.61
1575.44
1604.77
1630.61
1657.08
1679.85
1684.95
1630.93
1387.23
889.431
672.996
602.83
564.779
538.786
520.733
506.207
483.264
426.953
258.511
628.454
904.017
1094.59
1221.2
1296.17
1342.05
1373.99
1401.24
1431.83
1472.05
1498.97
1524.55
1556.22
1589.09
1625.73
1663.4
1691.93
1701.97
1671.49
1581.52
1384.3
1003.08
773.225
655.004
577.311
536.114
513.374
488.102
431.631
262.221
624.148
879.23
1064.98
1191.76
1268.61
1317.12
1351.23
1380.39
1413.28
1453.71
1473.89
1496.5
1526.02
1556.82
1590.72
1631.12
1669.38
1682.83
1656.76
1582.88
1486.32
1352.14
1180.39
980.296
751.193
601.184
532.14
496.006
437.692
266.795
618.536
854.927
1035.06
1161.78
1240.55
1290.77
1326.01
1355.96
1390.95
1428.16
1441.88
1461.04
1486.69
1512.51
1540.3
1571.09
1609.02
1630.7
1609.7
1544.51
1470.34
1406.93
1344.06
1292.52
1168.55
873.817
625.983
518.386
447.583
272.155
611.896
829.664
1003.18
1128.97
1209.31
1260.63
1296.29
1326.01
1362.66
1393.76
1401.77
1416.74
1438.17
1457.87
1478.49
1500.56
1528.12
1547.83
1537.98
1484.3
1429.8
1397.45
1372.44
1373.36
1366.11
1315.58
991.897
644.098
491.4
283.736
603.96
803.728
969.464
1093.08
1174.13
1226.13
1261.69
1290.66
1327.67
1350.8
1354.1
1364.47
1381.31
1395.15
1408.82
1423.62
1444.25
1454.28
1444.17
1404.7
1370.86
1363.31
1362.27
1386.36
1421.14
1454.14
1464.25
1121.41
793.954
344.994
594.364
776.493
933.556
1053.96
1135.14
1187.29
1222.37
1250.4
1286.06
1300.71
1300.69
1306.9
1319.09
1327.61
1336.04
1345.84
1361.29
1365.34
1349.5
1316.99
1297.33
1312.47
1332.26
1378.11
1432.04
1489.31
1590.28
1724.57
1522.99
574.004
582.709
747.759
895.16
1011.62
1092.32
1144.44
1178.88
1205.8
1238.88
1246.44
1243.88
1246.8
1254.62
1258.65
1264.48
1272.43
1286.18
1283.58
1261.82
1239.32
1236.25
1262.16
1308.52
1375.86
1442.72
1513.28
1638.55
1844.14
1734.4
732.383
569.449
718.337
855.144
966.819
1046.25
1098.4
1132.3
1158.19
1188.18
1190.72
1186.4
1186.53
1190.5
1191.41
1196.34
1206.65
1222.66
1213.02
1184.97
1176.63
1195.42
1248.08
1323.04
1426.55
1514.64
1595.13
1737.3
1880.72
1793.04
882.207
555.562
689.635
815.673
921.721
998.511
1050.66
1084.16
1109.13
1135.99
1135.75
1130.82
1128.27
1128.9
1128.61
1133.65
1150.14
1168.69
1154.61
1125.71
1139.91
1190.02
1286.77
1417.87
1589.01
1727.21
1834.35
1964.09
1971.22
1847.96
1026.53
541.58
662.218
778.201
877.969
951.248
1002.79
1035.83
1059.81
1084.17
1083.28
1078.43
1073.96
1071.64
1072.15
1078.07
1103.85
1131.66
1105.68
1087.35
1134.83
1231.46
1401.18
1634.21
1929.59
2174.3
2341.3
2345.95
2193.66
1923.61
1166.6
527.538
636.188
742.757
836.092
905.647
955.899
988.448
1011.62
1033.96
1034.71
1030.39
1024.34
1020.16
1022.09
1032.42
1066.93
1103.09
1070.95
1072.51
1163.3
1325.05
1613.71
2014
2520.06
2945.96
3200.6
3038.95
2634.71
2101.4
1289.04
513.412
611.644
709.119
796.18
862.103
910.743
943.137
965.86
986.287
990.419
987.341
980.523
975.757
978.178
994.568
1038.07
1079.52
1052.09
1076.41
1220.41
1472.62
1940.18
2606.31
3434.88
4138.89
4536.48
4212.15
3475.06
2445.65
1423.72
499.314
588.584
677.474
758.605
821.077
867.933
900.69
922.995
942.408
950.294
949.414
943.253
938.536
942.3
965.751
1015.21
1063.1
1046.76
1103.09
1298.15
1668.87
2393.61
3396.45
4478.02
5420.65
6202.6
5987.07
4934.07
3057.51
1604.9
485.51
566.879
648.233
723.956
783.208
828.081
861.346
883.846
902.85
913.913
916.468
912.657
908.2
914.386
943.173
998.279
1056.52
1061.98
1146.57
1382.92
1898.34
2858.55
3956.26
4978.59
6029.92
7155.03
7519.29
7009.71
4159.14
1860.83
472.296
546.759
621.672
692.559
748.865
791.645
825.049
848.534
868.125
881.395
887.206
886.609
885.5
895.309
929.89
988.401
1053.61
1089.09
1199.66
1478.37
2156.23
3210.41
4243.5
5069.73
6251.82
7644.16
8404.23
8671.49
5833.92
2240.22
459.737
528.54
597.709
664.464
718.159
759.05
791.776
816.695
836.985
852.297
862.405
864.463
867.403
881.108
921.883
985.322
1056.69
1120.87
1264.19
1600.86
2412.98
3457.04
4322.2
5074.92
6445.84
8177.97
9325.7
9994.5
7694.67
2665.82
447.674
512.228
575.804
639.129
690.584
730.18
762.365
788.626
810.178
827.204
839.595
845.405
853.216
872.342
921.607
992.079
1056.23
1146.1
1322.88
1736.76
2619
3570.77
4312.62
5225.04
6937.52
9052.23
10527.2
11358.4
9465.2
3212.73
436.022
497.334
555.571
616.135
665.451
704.218
736.422
763.905
785.821
805.96
820.927
827.715
839.821
863.909
923.684
1009.45
1061.91
1174.74
1399.21
1906.04
2811.25
3685.38
4399.36
5558.54
7693.29
10378.3
12021.1
12391.5
10899
4572.19
424.84
483.167
537.161
595.705
643.45
681.439
713.681
741.252
763.607
784.219
803.781
813.087
827.206
855.156
930.76
1051.59
1081.87
1211.54
1498.1
2100.38
3031.95
3833.91
4612.83
6028.87
8689.02
12361.2
14096.5
13870.8
12725.2
4922.23
414.243
469.731
520.767
577.681
624.185
661.534
694.095
721.078
745.145
764.336
786.151
801.079
819.814
858.031
963.136
1102.85
1138.44
1261.29
1588.11
2269.74
3223.47
4020.03
4952.05
6714.65
10003.2
15036.9
16914.8
15948.3
12972.8
5342.23
3201.13
3107.54
3000.44
2899.81
2812.59
2711.44
2624.57
2541.56
2459.93
2393.57
2328.04
2270.78
2218.41
2167.87
2118.4
2072.79
2030.18
1989.54
1951.89
1916.51
1882.48
1850.66
1820.93
1793
1765.59
1736.25
1705.67
1674.27
1642.14
1610.02
1578.6
1547.36
1516.32
1486.27
1457.78
1431.07
1405.09
1377.14
1345.14
1308.34
1267.04
1219.19
1168.21
1115.24
1061.91
1008.98
956.192
897.711
849.221
809.269
774.407
746.023
723.38
704.873
688.87
674.655
661.717
649.837
638.93
628.745
619.085
609.93
601.468
593.452
585.257
576.564
567.441
557.999
548.571
539.381
530.784
523.04
516.136
509.851
503.914
497.997
491.75
484.901
476.912
467.495
456.958
445.797
434.42
423.118
412.092
401.453
391.355
381.996
373.515
365.872
358.891
352.451
346.504
341.152
336.51
332.628
329.483
326.996
325.089
323.69
322.765
322.277
322.19
322.481
323.086
323.933
324.98
326.229
327.72
329.494
331.566
333.957
336.691
339.69
342.945
346.678
351.043
356.035
361.269
366.35
372.361
379.252
386.789
395.107
404.304
3023.9
2921.08
2740.8
2571.86
2411.7
2268.01
2166.74
2069.3
1979.69
1893.76
1821.84
1762.47
1711.07
1663.5
1622.17
1588.19
1560.41
1538.26
1519.83
1504.11
1492.12
1484.91
1482.14
1484.19
1491.03
1502.3
1517.25
1536.56
1561.74
1596.09
1642.17
1701.07
1769.01
1844.86
1929.64
2023.67
2124.73
2228.5
2329.46
2410.51
2459.38
2463.05
2432.11
2374.96
2298.49
2187.46
2016.75
1823.38
1624.92
1445.37
1291.43
1168.4
1073.49
1000.09
942.084
894.797
856.493
825.289
799.923
779.155
761.639
745.973
731.756
718.957
707.391
696.851
687.217
677.84
667.984
658.865
651.375
645.748
641.723
638.855
636.645
634.392
631.745
628.523
625.962
619.545
606.794
591.859
575.17
556.959
538.509
520.296
502.296
484.899
468.822
454.502
441.835
430.559
420.637
411.925
404.584
398.562
393.664
389.693
386.478
383.889
381.774
380.063
378.678
377.647
377.004
376.802
377
377.507
378.475
379.803
381.419
383.594
386.152
388.646
391.192
394.913
400.579
406.428
411.038
415.516
421.85
429.488
437.767
446.789
457.521
2619.5
2506.24
2355.55
2224.29
2127.31
2026.16
1943.91
1875.83
1810.5
1753.66
1707.77
1668.22
1632.14
1601.76
1576.26
1554
1536.53
1523.6
1515.3
1512.73
1517.64
1530.29
1550.99
1580.05
1617.49
1662.13
1718.12
1789.48
1876.75
1986.76
2131.51
2317.89
2544.41
2820.77
3160.29
3549.41
3955.27
4343.69
4694.74
4981.46
5149.52
5216.65
5242.07
5214.83
5123.44
4889.65
4540.89
4145.71
3675.19
3161.88
2678.4
2245.93
1898.93
1622.72
1413.55
1260.11
1147.33
1063.36
999.761
950.371
911.812
881.685
858.946
841.391
826.993
814.26
803.485
795.292
789.987
786.052
782.382
779.655
778.957
779.791
781.647
783.573
785.735
785.925
781.76
775.684
766.542
755.075
743.127
729.654
713.077
692.302
667.129
637.525
604.114
569.756
539.969
513.066
489.87
471.485
457.352
446.505
438.022
431.26
425.898
421.75
418.635
416.378
414.899
414.056
413.651
413.545
413.712
414.137
414.814
415.849
417.322
419.331
421.475
423.62
426.012
429.727
435.885
443.391
449.904
455.928
463.439
471.964
481.706
493.049
506.18
2279.28
2196.76
2115.37
2049.97
1995.46
1923.49
1857.81
1796.96
1744.05
1705.18
1675.48
1648.03
1621.59
1601.16
1583.59
1568.38
1557.36
1552.37
1555.9
1569.8
1595.54
1634.14
1687.11
1755.6
1841.35
1949.8
2089.52
2263.5
2477.35
2747.91
3108.65
3610.54
4275.93
5087.03
5977.04
6841.51
7610.01
8225.26
8659.84
8923.08
8990.41
8973.04
8856.42
8652.87
8410.82
8130.07
7763.83
7302.36
6757.93
6179.1
5583.32
4936
4178.14
3419.56
2747.22
2215.35
1829.33
1561.2
1375.61
1245.08
1155.07
1092.81
1048.58
1015.62
991.31
976.726
967.384
962.695
958.938
953.087
946.772
941.475
936.325
930.963
925.383
917.497
908.244
896.361
885.032
875.467
865.034
854.177
843.306
832.464
821.842
811.542
801.398
790.877
778.295
759.791
729.207
686.876
635.169
585.889
549.014
521.091
501.748
488.838
479.671
473.016
468.194
464.886
462.551
460.823
459.609
458.843
458.514
458.58
459.052
459.962
461.431
463.611
466.071
468.664
471.409
475.177
481.815
489.909
496.966
503.456
511.954
521.96
533.562
546.774
561.581
2177.5
2107.4
2047.6
1989.35
1933.25
1870.23
1813.99
1759.42
1716.84
1686.52
1663.02
1639.95
1621.31
1606.92
1594.55
1587.27
1589.98
1604.27
1633.66
1678.99
1744.08
1831.54
1945.4
2090.1
2270.8
2494.12
2769.38
3116.64
3575.77
4200.27
5028.99
6035.1
7126.31
8138.85
8908.47
9446.86
9808.58
10016.8
10091.8
10084.3
10002.9
9867.32
9687.93
9465.43
9233.92
9015.5
8789.5
8508.83
8142.37
7721.22
7267.4
6819.17
6361.78
5808.44
5068.41
4191.75
3350.76
2669.83
2164.94
1816.65
1584.3
1431.53
1336.07
1278.71
1250.31
1238.04
1230.8
1222.29
1212.55
1197.55
1177.53
1152.79
1129.68
1105.25
1080.85
1056.42
1034.11
1014.48
996.447
980.147
964.949
950.66
937.362
925.093
913.837
903.416
893.59
884.212
875.548
868.306
862.503
856.597
844.082
812.725
757.024
689.197
626.503
582.785
553.093
534.295
521.961
513.412
507.475
503.436
500.831
499.17
498.092
497.442
497.236
497.678
499.006
501.103
503.311
505.701
508.66
513.075
520.443
529.467
537.71
545.54
554.56
564.897
577.073
591.23
607.089
2186.52
2108.2
2044.22
1977.15
1910.67
1844.74
1788.9
1738.57
1697.78
1664.56
1635.36
1613.58
1600.73
1595.13
1598.14
1611.02
1641.55
1686.88
1754.86
1848.77
1974.22
2135.81
2336.47
2579.33
2875.17
3237.09
3702.02
4332.07
5192.87
6250.26
7301.27
8116.75
8747.1
9255.17
9630.78
9880.31
9978.78
9926.76
9831.35
9715.23
9610.54
9510.4
9404.05
9247.53
9045.45
8866.96
8727.22
8596.93
8437.48
8203.45
7900.53
7569.35
7257.18
6943.06
6574.07
6097.67
5387.64
4500.55
3649.9
2952.54
2434.23
2084.6
1856.12
1736.43
1671.24
1610.01
1553.99
1505.04
1459.7
1420.47
1385.02
1350.18
1316.04
1281.21
1246.41
1213.14
1182.54
1154.24
1127.76
1103.39
1080.87
1059.97
1040.52
1022.48
1005.96
990.975
977.599
965.919
955.842
947.22
939.812
933.808
929.797
928.218
926.576
917.243
887.224
813.14
731.048
661.532
613.965
583.718
565.335
553.95
546.939
542.204
538.731
536.367
534.591
533.629
533.869
535.383
537.807
540.21
542.47
546.642
553.83
562.87
570.708
578.393
588.196
599.925
613.116
627.871
643.997
2222.99
2132.69
2053.88
1972.43
1892.94
1818.98
1758.52
1710.8
1671.19
1641.17
1619.31
1606.27
1602.57
1608.03
1634.8
1676.61
1738.62
1826.52
1947.09
2104.11
2302.6
2540.47
2823.68
3161.94
3575.77
4128.38
4867.12
5802.11
6688.28
7453.49
8159.05
8744.45
9204.83
9549.73
9798.44
9955.2
10055.2
10101.8
10067.7
9926.9
9703.18
9472.53
9291.17
9152.4
9003.46
8823.9
8653.36
8525.22
8433.52
8328.65
8177.08
7958.49
7690.71
7413.99
7148.88
6934.38
6669.13
6159
5436.78
4629.79
3875.5
3238.16
2744.06
2396.9
2125.17
1927.08
1803.41
1717
1658.88
1623.02
1588.06
1548.72
1507.38
1468.04
1430.24
1393.34
1356.8
1319.96
1283.54
1249.27
1218.07
1189.44
1162.75
1137.74
1114.52
1093.09
1073.25
1055.03
1038.87
1025.14
1013.73
1004.54
997.42
992.664
990.677
991.322
993.722
995.416
988.302
951.303
855.165
762.782
692.902
645.347
615.708
597.669
586.376
579.554
575.221
572.462
571.428
572.187
573.623
575.033
576.936
580.621
587.263
595.61
602.985
612.003
622.263
632.797
645.527
660.431
676.834
2273.02
2165.39
2072.81
1972.97
1875.35
1791.09
1733.23
1686.62
1654.62
1631.28
1616.81
1614.34
1624.16
1647.49
1690.89
1760.94
1860.65
1996.38
2169.56
2376.82
2619.16
2900.55
3227.6
3638.32
4186.71
4905.77
5700.81
6456.92
7193.57
7892.56
8510.96
9070.06
9575.76
9964.96
10274.3
10526.5
10731.8
10965.8
11243.4
11345.8
11146.8
10750.7
10329.5
9936.26
9586.85
9270.03
8988.85
8759.97
8601.56
8498.02
8405.62
8276.18
8080.01
7830.74
7572.55
7322.9
7139.56
6971.03
6779.47
6443.28
5722.57
4749.39
3843.92
3153.5
2658.74
2343.26