/*--------------------------------*- C++ -*----------------------------------*\
| =========                 |                                                 |
| \\      /  F ield         | OpenFOAM: The Open Source CFD Toolbox           |
|  \\    /   O peration     | Version:  2112                                  |
|   \\  /    A nd           | Website:  www.openfoam.com                      |
|    \\/     M anipulation  |                                                 |
\*---------------------------------------------------------------------------*/
FoamFile
{
    version     2.0;
    format      ascii;
    arch        "LSB;label=32;scalar=64";
    class       volScalarField;
    location    "0.00501";
    object      nut;
}
// * * * * * * * * * * * * * * * * * * * * * * * * * * * * * * * * * * * * * //

dimensions      [0 2 -1 0 0 0 0];

internalField   nonuniform List<scalar> 
13875
(
0.0511665
0.0366263
0.0343678
0.034324
0.0342752
0.0343491
0.0343167
0.0342959
0.0342747
0.0342958
0.0342871
0.0342882
0.034324
0.0343458
0.0343317
0.0342916
0.0342744
0.0342765
0.0342914
0.0343302
0.034297
0.0343379
0.0343866
0.0365744
0.0514278
0.0532614
0.0341205
0.0322244
0.032102
0.0320377
0.0320947
0.0320557
0.0320275
0.0320111
0.0320299
0.0320247
0.0320374
0.0320544
0.0320746
0.0320628
0.0320462
0.0320282
0.032033
0.0320374
0.0320825
0.0320596
0.0321061
0.0322334
0.0340584
0.0536376
0.0564566
0.0335622
0.0318046
0.0315877
0.031534
0.0315845
0.0314991
0.0314353
0.0314113
0.031431
0.0314254
0.0314508
0.0315295
0.0315567
0.0315391
0.0314662
0.0314273
0.0314544
0.0314768
0.0315747
0.0315612
0.031584
0.0318002
0.0334967
0.0565955
0.0590704
0.0332332
0.0314911
0.0312713
0.0312286
0.0312726
0.0311844
0.0311036
0.0310732
0.0310928
0.0310833
0.0311024
0.0312118
0.0312404
0.031223
0.0311195
0.0310793
0.0311144
0.0311487
0.0312602
0.0312516
0.0312654
0.0314898
0.0331703
0.0591463
0.0611256
0.0330045
0.0312478
0.0309975
0.0309537
0.0309922
0.0309044
0.0308185
0.0307869
0.0308069
0.0307961
0.0308123
0.030923
0.0309558
0.0309348
0.0308294
0.0307912
0.0308283
0.030862
0.0309795
0.0309729
0.030992
0.0312352
0.0329207
0.0612623
0.062818
0.0328485
0.0310903
0.0307653
0.0307219
0.0307457
0.0306519
0.030559
0.0305266
0.0305473
0.0305352
0.0305491
0.0306613
0.0306968
0.0306735
0.0305647
0.0305288
0.0305692
0.0306046
0.0307317
0.0307386
0.0307617
0.0310629
0.0328256
0.0629815
0.0648261
0.0330734
0.0311052
0.0306266
0.0305401
0.0305428
0.0304307
0.0303303
0.0302946
0.0303135
0.0303003
0.0303136
0.0304269
0.0304617
0.0304359
0.030325
0.0302947
0.0303395
0.0303846
0.0305265
0.0305578
0.0306352
0.0311191
0.033076
0.0648802
0.0670937
0.0339374
0.031427
0.0306435
0.0304577
0.0303949
0.0302543
0.030138
0.0300949
0.0301103
0.0300965
0.0301044
0.0302212
0.0302579
0.0302298
0.0301129
0.0300906
0.030144
0.0302057
0.0303755
0.0304625
0.0306309
0.0313963
0.0338988
0.0673735
0.0736477
0.036299
0.0320455
0.0308443
0.0304562
0.030314
0.0301272
0.0299892
0.0299369
0.0299493
0.0299352
0.0299397
0.0300577
0.0300973
0.0300673
0.0299459
0.0299292
0.0299892
0.0300684
0.0302868
0.0304573
0.0308128
0.0319499
0.036017
0.0742229
0.0829052
0.0384821
0.0327363
0.0311674
0.0305897
0.0303035
0.0300618
0.0299199
0.0298636
0.0298678
0.0298541
0.0298589
0.0299696
0.030014
0.0299829
0.0298714
0.0298535
0.0299142
0.0300029
0.0302631
0.030568
0.0311443
0.0326422
0.0381178
0.083527
0.0907538
0.0441695
0.0346774
0.0320306
0.0308938
0.0304427
0.0301513
0.0299763
0.029913
0.0299057
0.029891
0.0298951
0.0299928
0.0300405
0.0300163
0.0299295
0.0299099
0.0299704
0.0301033
0.0303776
0.0308567
0.0319591
0.0344444
0.0433423
0.0894432
0.0950487
0.054676
0.0404962
0.0335414
0.0320043
0.0310111
0.0304859
0.0302681
0.0301779
0.0301545
0.0301369
0.0301419
0.030222
0.0302697
0.0302577
0.0301998
0.0301884
0.0302671
0.0304581
0.0309715
0.0319326
0.0333321
0.0399549
0.0534991
0.0943295
0.0866395
0.068405
0.0524814
0.0420913
0.0346383
0.0321417
0.0315778
0.0310873
0.0309053
0.0308347
0.0307972
0.0307946
0.0308606
0.0309047
0.0309142
0.0308989
0.030947
0.0311316
0.0316088
0.0322271
0.0350612
0.0419175
0.0513046
0.067867
0.0866439
0.0795288
0.0656983
0.0586393
0.0677426
0.0428147
0.0380076
0.034275
0.0331519
0.0327414
0.0326662
0.0326536
0.0326694
0.0327441
0.032781
0.0327837
0.0327547
0.0328061
0.033307
0.0347375
0.0391583
0.0448957
0.066792
0.0580492
0.0656526
0.0816386
0.0753547
0.0644368
0.0571539
0.0621214
0.0563136
0.0569936
0.0457715
0.0411061
0.0396815
0.0389034
0.038782
0.038821
0.0389445
0.038965
0.0388992
0.0389907
0.0397852
0.0414017
0.046824
0.0584532
0.0563116
0.0621538
0.0566959
0.0640666
0.0748376
0.067429
0.0622715
0.0554553
0.059493
0.0576376
0.0598113
0.057262
0.0554117
0.0577306
0.0567182
0.0553045
0.0551364
0.0554383
0.0552587
0.0549053
0.0564426
0.0590318
0.0563767
0.0582091
0.0605433
0.0572916
0.0596147
0.0547997
0.06153
0.0668272
0.0633316
0.0597576
0.0546561
0.058575
0.0603275
0.0649858
0.074787
0.0892297
0.0858772
0.078645
0.0750402
0.0733463
0.0731172
0.0736678
0.0750504
0.0779736
0.0856187
0.0912108
0.0767386
0.0656836
0.0604453
0.0588235
0.0536986
0.0585964
0.0633039
0.058106
0.0570238
0.0582049
0.0629066
0.0653061
0.069297
0.0791266
0.092916
0.0826968
0.0743541
0.071206
0.0698506
0.0699327
0.0704135
0.0714751
0.0744484
0.0827213
0.0920727
0.080071
0.0704798
0.0669675
0.0643093
0.0578297
0.05615
0.0578245
0.0515116
0.0578677
0.0632361
0.070054
0.0716682
0.0681113
0.0721321
0.0815733
0.0803063
0.0743712
0.0700502
0.0677414
0.0674956
0.0679758
0.0695692
0.0735891
0.079863
0.0817883
0.0731377
0.0686594
0.073301
0.0723191
0.0641876
0.0581837
0.0522096
0.0485585
0.0623019
0.0689721
0.0723089
0.0699635
0.0652857
0.0665956
0.0741317
0.0772366
0.0735008
0.0683151
0.0649668
0.0643801
0.0652426
0.0678952
0.0726497
0.0766893
0.0741742
0.0671615
0.0659516
0.0716303
0.0737019
0.0694431
0.0625047
0.048138
0.0615916
0.0651322
0.0641445
0.0672949
0.0652484
0.0616121
0.06262
0.0693674
0.0741488
0.0714606
0.0657461
0.0618061
0.0610563
0.0623228
0.0657083
0.0707422
0.0734726
0.0692854
0.0629991
0.0623002
0.0668605
0.0684656
0.0650585
0.0661454
0.060662
0.0849377
0.0789384
0.0625184
0.0624858
0.0613427
0.058454
0.0595577
0.0658012
0.0711763
0.0687748
0.0627631
0.0585582
0.0576746
0.0591569
0.0628979
0.0680909
0.0704394
0.0657906
0.0599003
0.0589639
0.0627897
0.0637199
0.0637072
0.0840225
0.0862572
0.0988134
0.0875392
0.0612983
0.0590963
0.0578263
0.0556126
0.0568806
0.0629564
0.0683549
0.0658486
0.0597165
0.0554384
0.0544522
0.0559539
0.0598081
0.0651418
0.0676299
0.0630606
0.0571858
0.0558731
0.0588733
0.0602618
0.062476
0.0923019
0.101976
0.109819
0.0891975
0.059669
0.0565993
0.0547238
0.0531675
0.0545626
0.0604754
0.0656723
0.0627923
0.0565667
0.0524577
0.0515364
0.0530609
0.0568744
0.0622394
0.0649487
0.0604886
0.054821
0.0534088
0.0556333
0.0578397
0.0612218
0.0921614
0.112075
0.11668
0.0893897
0.058577
0.0548551
0.0523182
0.0511222
0.0527161
0.0582809
0.0629433
0.0599515
0.0537995
0.0498609
0.0489819
0.0504878
0.05425
0.0595689
0.0622337
0.0581752
0.0529027
0.0513597
0.0530817
0.0559102
0.0601717
0.0921872
0.119547
0.124151
0.0904399
0.0579398
0.0532196
0.0505281
0.0495187
0.0512348
0.0563202
0.0603155
0.0572771
0.0513855
0.0476217
0.0467512
0.0482161
0.0518201
0.0568837
0.0594777
0.0560581
0.0513435
0.0497119
0.0511033
0.0540805
0.0589265
0.0910995
0.127528
0.131244
0.0897831
0.0571715
0.0517829
0.0491901
0.0482847
0.050085
0.0545852
0.057701
0.0546564
0.0491398
0.045646
0.044819
0.0462674
0.0497441
0.0545821
0.0570665
0.0541921
0.0500017
0.048404
0.0497141
0.0526109
0.0581018
0.0909585
0.133228
0.136484
0.0900165
0.0567744
0.0506458
0.0482307
0.0474168
0.0490959
0.0530161
0.0553982
0.0523507
0.0472323
0.0439573
0.0431395
0.0445419
0.0478183
0.0523295
0.0547494
0.052505
0.0489147
0.0474378
0.0486376
0.0512916
0.057417
0.091349
0.139764
0.142732
0.0906246
0.0565205
0.0497503
0.0474389
0.0468018
0.0482969
0.0516235
0.0533068
0.0503181
0.0455576
0.0424728
0.0416639
0.0429893
0.0460262
0.0502234
0.0526168
0.0510106
0.0480162
0.0467073
0.0476711
0.0502151
0.0569403
0.091139
0.14577
0.148975
0.0906268
0.0563401
0.0489965
0.0467362
0.0463412
0.0476767
0.0503057
0.0512047
0.04823
0.0439353
0.0411294
0.0403581
0.0416712
0.0445254
0.0484251
0.0507661
0.0496847
0.0472439
0.0460973
0.0468721
0.0494533
0.0569491
0.0926695
0.150211
0.151825
0.0904241
0.0564636
0.0485549
0.0461735
0.0458413
0.0470499
0.0491136
0.0494074
0.0465094
0.0425474
0.0399376
0.0391829
0.0404411
0.043056
0.0466733
0.0490044
0.0484845
0.0465696
0.045527
0.0461954
0.0489204
0.0569973
0.0926664
0.155045
0.155038
0.091198
0.0567578
0.0484864
0.0456585
0.0453416
0.0464405
0.0479787
0.0477916
0.0449367
0.0413009
0.0388738
0.0381302
0.0393358
0.0417358
0.0450593
0.0473844
0.0473446
0.045916
0.0449785
0.0455927
0.0487112
0.0572779
0.092656
0.157973
0.158787
0.0907954
0.0573479
0.0485908
0.0452864
0.0448861
0.0457957
0.0468464
0.0462086
0.0434508
0.0401028
0.0378806
0.0371686
0.03835
0.0405754
0.0437092
0.045986
0.0462789
0.0452391
0.044449
0.0451477
0.0487453
0.0579791
0.0933012
0.160798
0.160977
0.0908172
0.0579437
0.049029
0.0451422
0.0444908
0.0451307
0.0458
0.0448317
0.0421453
0.0390717
0.0370044
0.0363015
0.0374407
0.0394906
0.0423666
0.0446127
0.0452517
0.0445847
0.0440144
0.0449858
0.049092
0.0587005
0.092772
0.163781
0.163353
0.0917363
0.0580205
0.0496093
0.0452867
0.0441081
0.0444484
0.044794
0.0436077
0.0410166
0.0381312
0.0361998
0.0355097
0.0366062
0.0385009
0.041216
0.0434037
0.0442559
0.0438996
0.0436179
0.0451147
0.0497207
0.0589557
0.0925719
0.165642
0.165968
0.0914295
0.0578644
0.050294
0.0456973
0.0438443
0.0438202
0.0437922
0.0424206
0.0398982
0.0372451
0.0354619
0.0347962
0.0358822
0.0376493
0.0401813
0.0423315
0.0433529
0.0432947
0.0433584
0.045501
0.0506049
0.0589095
0.0932207
0.167675
0.167433
0.0919668
0.0577683
0.0515088
0.04631
0.0437476
0.0432602
0.0428865
0.0413832
0.0389788
0.0364735
0.034793
0.0341413
0.0351919
0.0368308
0.0392324
0.0412957
0.0424597
0.042766
0.0432673
0.0460917
0.0518795
0.0585563
0.0931855
0.169635
0.169257
0.0926787
0.0577431
0.0524367
0.0472862
0.043883
0.0428258
0.04209
0.0404516
0.0381123
0.0357753
0.0341943
0.033555
0.034578
0.0360963
0.0383304
0.0403583
0.0416794
0.0423349
0.0434376
0.0471858
0.0528163
0.0580832
0.0937605
0.170768
0.171181
0.0927596
0.0571521
0.0524675
0.0483203
0.0442109
0.0425417
0.0413653
0.039575
0.0373189
0.0351093
0.0336249
0.0330135
0.0340195
0.0354461
0.0375819
0.0395459
0.0409882
0.0420511
0.0437682
0.0483623
0.0529779
0.0575367
0.0948667
0.172207
0.17223
0.0936839
0.0564554
0.0524248
0.050018
0.044838
0.0424981
0.0408204
0.0388505
0.0366219
0.0345301
0.0331232
0.0325217
0.0334976
0.0348283
0.0368401
0.0387985
0.0404475
0.0419736
0.0444508
0.050118
0.0527396
0.0567594
0.0952957
0.173777
0.173373
0.0951841
0.0561318
0.0521364
0.0511252
0.0457697
0.0425702
0.0405126
0.0382766
0.0360384
0.0340073
0.0326548
0.0320658
0.0330037
0.0342692
0.0362158
0.0381932
0.0401097
0.0420505
0.0455255
0.0513065
0.0522592
0.056169
0.0962639
0.174666
0.17456
0.0961345
0.0555917
0.0515
0.0512046
0.0471087
0.0428102
0.0403513
0.0378402
0.0355111
0.0335206
0.0322248
0.0316499
0.0325758
0.0337856
0.0357146
0.0377809
0.0399692
0.0424093
0.0471997
0.0512281
0.0516755
0.0562715
0.0979847
0.175703
0.175084
0.0974974
0.0554284
0.0508222
0.0508406
0.0488228
0.0435218
0.0403392
0.0376496
0.035142
0.0331154
0.0318312
0.031262
0.0321647
0.0333493
0.0352913
0.0375454
0.0399472
0.0431761
0.0488325
0.0507482
0.0510015
0.0559442
0.098869
0.17663
0.175713
0.0993629
0.0560231
0.0503308
0.0502445
0.0495883
0.0448991
0.0405437
0.037556
0.0349346
0.0328186
0.0314959
0.0309211
0.0318123
0.0330221
0.0350414
0.0374362
0.0401624
0.0447289
0.0494834
0.049979
0.0504611
0.0561136
0.099964
0.177202
0.176551
0.100287
0.0560079
0.0498364
0.0495049
0.0492742
0.0469994
0.0411814
0.0375702
0.0348814
0.0326731
0.0312466
0.0306482
0.031561
0.0328503
0.0349932
0.0374983
0.0410235
0.0468719
0.0490665
0.0491725
0.0500939
0.0569046
0.101446
0.177832
0.17688
0.101532
0.0567946
0.049579
0.048798
0.0487847
0.0482118
0.0428583
0.0378597
0.0348907
0.0326569
0.031143
0.0304708
0.0314468
0.0327952
0.0349746
0.0377899
0.0426988
0.0478788
0.0484725
0.0485051
0.0497827
0.0573035
0.102246
0.178567
0.177117
0.103046
0.0579163
0.0495534
0.0482586
0.0481409
0.0478732
0.0452656
0.0389406
0.0350338
0.0326656
0.0311231
0.0303986
0.0314214
0.032792
0.0351021
0.038877
0.0451173
0.0475566
0.0478229
0.0480079
0.0496703
0.0579395
0.103243
0.178737
0.176722
0.103597
0.0584377
0.0495199
0.0478094
0.0474581
0.047416
0.046565
0.0411025
0.0355023
0.0327283
0.0311318
0.0304051
0.0314298
0.0328837
0.0357333
0.0412895
0.0463294
0.0471109
0.047263
0.0476656
0.049796
0.0590278
0.104472
0.178013
0.174717
0.103758
0.0590861
0.0495882
0.0474884
0.0469111
0.0468317
0.0463083
0.0436156
0.0369636
0.0330068
0.0311778
0.0304409
0.0314658
0.0331686
0.0373083
0.0436009
0.0460545
0.0465508
0.0467942
0.0474118
0.0498447
0.0595412
0.10452
0.176015
0.168451
0.102249
0.0596824
0.0496561
0.0472599
0.0464955
0.0462249
0.0459088
0.044716
0.0397173
0.0339621
0.0313813
0.0305814
0.031645
0.034171
0.039982
0.0443581
0.045622
0.0459786
0.0464104
0.0472319
0.049854
0.059893
0.102726
0.169814
0.0836079
0.297597
0.425925
0.487572
0.519528
0.548915
0.56734
0.565322
0.568066
0.578922
0.58921
0.594909
0.598438
0.599962
0.598904
0.596476
0.594611
0.593447
0.591812
0.588906
0.586119
0.583162
0.574864
0.561267
0.542447
0.514913
0.47222
0.404451
0.296434
0.129041
0.0897141
0.3552
0.483902
0.539045
0.573088
0.595807
0.590691
0.583755
0.576406
0.581905
0.589654
0.593967
0.597194
0.599127
0.598065
0.594737
0.591818
0.589816
0.58777
0.584518
0.58162
0.579145
0.571475
0.556613
0.535998
0.506577
0.46207
0.392893
0.285885
0.127415
0.0992081
0.360707
0.483526
0.53728
0.573769
0.588418
0.580795
0.576191
0.568568
0.570548
0.579088
0.585313
0.589972
0.59276
0.591953
0.588212
0.584893
0.582753
0.580778
0.577638
0.574956
0.572384
0.565461
0.549462
0.527107
0.495764
0.449523
0.379331
0.27424
0.125847
0.10719
0.351979
0.471401
0.526805
0.556441
0.558707
0.553918
0.55493
0.555269
0.556895
0.563317
0.571252
0.577671
0.582078
0.582296
0.578651
0.574996
0.572876
0.571165
0.56845
0.566109
0.563303
0.557
0.540082
0.51619
0.483165
0.435463
0.365019
0.26294
0.124115
0.113615
0.340148
0.456252
0.507619
0.522752
0.516092
0.514572
0.524815
0.538808
0.540473
0.544125
0.552669
0.560909
0.566876
0.5684
0.565444
0.561706
0.560005
0.558874
0.556767
0.554808
0.551919
0.545921
0.528402
0.503271
0.468828
0.41996
0.349982
0.251533
0.1221
0.120764
0.333764
0.440697
0.480045
0.478584
0.467244
0.469751
0.487269
0.511244
0.520256
0.5241
0.532558
0.540897
0.548386
0.55114
0.549364
0.545944
0.544788
0.544193
0.54262
0.540963
0.537915
0.531688
0.513606
0.487479
0.452168
0.402997
0.333804
0.239399
0.119642
0.128545
0.332713
0.423485
0.444198
0.431426
0.420849
0.425995
0.446415
0.475651
0.494581
0.501209
0.51125
0.519314
0.52743
0.53118
0.531215
0.52856
0.52782
0.527486
0.525947
0.523991
0.520566
0.513424
0.495478
0.468985
0.433492
0.38456
0.31756
0.228393
0.117542
0.136179
0.334513
0.402423
0.406213
0.391678
0.38422
0.388371
0.406278
0.436449
0.464471
0.474999
0.487224
0.496253
0.505192
0.510654
0.511611
0.510373
0.509979
0.509817
0.507992
0.505441
0.501554
0.493843
0.476343
0.449832
0.414657
0.367023
0.302993
0.218945
0.115702
0.144118
0.33501
0.379154
0.375681
0.366334
0.36263
0.363324
0.373003
0.397916
0.430628
0.446
0.460621
0.471636
0.482355
0.490831
0.492015
0.491684
0.491619
0.491536
0.489522
0.48688
0.482952
0.474935
0.457987
0.431752
0.397039
0.350707
0.289324
0.209982
0.113967
0.152033
0.33079
0.360283
0.361889
0.361642
0.36185
0.35593
0.353566
0.365685
0.393206
0.415296
0.433271
0.446134
0.45899
0.470999
0.473923
0.472866
0.473015
0.472724
0.470728
0.46834
0.464287
0.455855
0.439366
0.41368
0.379711
0.334875
0.276209
0.201653
0.112286
0.1594
0.323748
0.355578
0.373581
0.38704
0.388694
0.372347
0.352348
0.345587
0.360189
0.386225
0.406163
0.420599
0.435146
0.451034
0.456221
0.454126
0.454419
0.453674
0.451882
0.449728
0.445465
0.436604
0.420476
0.395536
0.362551
0.319405
0.263571
0.193732
0.110673
0.166133
0.32189
0.375708
0.423955
0.457088
0.45543
0.420143
0.374133
0.342725
0.33756
0.357877
0.380157
0.39597
0.412394
0.431248
0.438742
0.436735
0.43609
0.434762
0.433228
0.431186
0.426639
0.417395
0.401545
0.37747
0.345675
0.304396
0.251515
0.186399
0.109117
0.173087
0.332352
0.434708
0.534159
0.591024
0.571347
0.512931
0.421279
0.360014
0.329003
0.333952
0.355667
0.372288
0.390765
0.412376
0.422152
0.420701
0.418226
0.416406
0.415001
0.412961
0.408067
0.398477
0.382843
0.359671
0.329168
0.289864
0.240036
0.179473
0.107583
0.181063
0.364997
0.550046
0.692075
0.711419
0.664973
0.601977
0.497657
0.394965
0.334232
0.318755
0.334217
0.349863
0.370154
0.394635
0.406997
0.4055
0.401079
0.398886
0.397401
0.395253
0.390008
0.380075
0.364626
0.342301
0.313095
0.275793
0.229054
0.172799
0.106006
0.19196
0.435086
0.716573
0.794942
0.772761
0.707703
0.659135
0.563781
0.437841
0.349857
0.313038
0.316068
0.329649
0.351196
0.378166
0.393194
0.391647
0.385506
0.382318
0.380643
0.378239
0.372633
0.362361
0.347056
0.325466
0.29749
0.262166
0.218501
0.166342
0.104368
0.206865
0.554046
0.847372
0.84742
0.78865
0.714933
0.676319
0.607302
0.476669
0.368147
0.313191
0.303317
0.312693
0.334701
0.361541
0.380624
0.379531
0.371631
0.367149
0.364937
0.362025
0.356025
0.34548
0.330206
0.309258
0.282458
0.249123
0.208469
0.160307
0.102723
0.226206
0.700011
0.934921
0.873014
0.782466
0.703386
0.656245
0.621435
0.497718
0.38305
0.31576
0.294747
0.299583
0.320296
0.3463
0.369545
0.369465
0.359292
0.353234
0.350256
0.346682
0.340234
0.329466
0.314167
0.293801
0.268209
0.236901
0.199177
0.154778
0.101141
0.249235
0.8355
0.999392
0.897046
0.784136
0.69441
0.637159
0.61587
0.501481
0.383131
0.317401
0.289579
0.290606
0.30879
0.333204
0.361783
0.361874
0.348762
0.340673
0.336597
0.332252
0.325247
0.314241
0.29897
0.27923
0.254947
0.225651
0.190696
0.149697
0.0996471
0.274487
0.951045
1.06093
0.927515
0.796553
0.695135
0.628255
0.603736
0.502619
0.378824
0.316797
0.286557
0.286056
0.301242
0.3239
0.353254
0.35782
0.340862
0.32952
0.323929
0.318658
0.311033
0.299782
0.284675
0.265651
0.242743
0.215359
0.182948
0.145039
0.0982183
0.301538
1.05377
1.12462
0.970242
0.820316
0.704037
0.627444
0.592128
0.506541
0.384993
0.315672
0.288902
0.286195
0.298393
0.31823
0.343483
0.359557
0.336687
0.319794
0.31228
0.305951
0.29772
0.286189
0.271344
0.253077
0.231476
0.205898
0.175824
0.140801
0.0968448
0.331594
1.15149
1.18869
1.02703
0.854561
0.719563
0.635048
0.590807
0.507037
0.394748
0.323133
0.297
0.290804
0.299502
0.315829
0.336891
0.363396
0.339445
0.312968
0.301946
0.294034
0.285232
0.273535
0.258824
0.241399
0.221056
0.197233
0.169258
0.13695
0.0955436
0.365322
1.25027
1.25859
1.09303
0.901656
0.746422
0.651051
0.595202
0.515963
0.404609
0.337707
0.309293
0.2992
0.303676
0.316659
0.333738
0.356224
0.351049
0.311479
0.293016
0.283086
0.273488
0.261827
0.247319
0.230802
0.211665
0.189422
0.163237
0.133449
0.0943431
0.419612
1.30303
1.31208
1.1667
0.965221
0.787292
0.676342
0.607262
0.531139
0.420442
0.353039
0.323075
0.309877
0.309737
0.319661
0.332689
0.348122
0.364359
0.31853
0.287321
0.27344
0.262377
0.251115
0.237098
0.221414
0.203381
0.182507
0.157894
0.130231
0.0932331
0.444884
1.35622
1.36468
1.25906
1.05366
0.846512
0.713138
0.631122
0.549947
0.44031
0.367121
0.33626
0.321254
0.317202
0.322741
0.332069
0.340879
0.358133
0.334471
0.286936
0.265666
0.253222
0.241228
0.227994
0.213076
0.196081
0.176425
0.153219
0.127325
0.0922119
0.456245
1.24597
1.41138
1.37889
1.17257
0.928131
0.764365
0.665068
0.574419
0.465401
0.382264
0.351112
0.335348
0.327043
0.326831
0.331754
0.335757
0.347626
0.348834
0.29439
0.261252
0.245696
0.232669
0.219503
0.20561
0.189615
0.171063
0.149112
0.124824
0.0912736
0.129263
0.297537
0.405754
0.473592
0.516261
0.543771
0.56244
0.575398
0.582887
0.585829
0.588517
0.591196
0.592751
0.594032
0.595998
0.598423
0.59916
0.597164
0.593412
0.587599
0.577068
0.567247
0.567375
0.571809
0.555174
0.527525
0.49439
0.434181
0.306395
0.0859937
0.127654
0.287023
0.394279
0.463537
0.507996
0.537373
0.557747
0.571731
0.578716
0.5813
0.584081
0.587016
0.588955
0.591079
0.594105
0.597424
0.598084
0.595606
0.592078
0.587413
0.578575
0.57542
0.585638
0.588797
0.592995
0.570646
0.536148
0.481421
0.353242
0.0904132
0.126085
0.275355
0.380738
0.451017
0.497203
0.528475
0.550515
0.565436
0.571901
0.574545
0.57713
0.57988
0.581723
0.583949
0.587329
0.591
0.591337
0.588008
0.583113
0.576461
0.568525
0.567113
0.573804
0.575829
0.582489
0.568071
0.53261
0.478563
0.356144
0.0998727
0.12435
0.264027
0.366443
0.436945
0.484607
0.517547
0.541076
0.556785
0.56286
0.565619
0.567908
0.570198
0.571705
0.573876
0.577589
0.581058
0.58027
0.575283
0.568641
0.559937
0.554683
0.554098
0.549444
0.546442
0.550723
0.548688
0.520896
0.465928
0.347578
0.108165
0.122342
0.252624
0.35142
0.421507
0.470315
0.50464
0.529368
0.545626
0.551471
0.554238
0.556195
0.557892
0.558756
0.560459
0.564225
0.56687
0.564726
0.558204
0.549506
0.541258
0.537915
0.535036
0.517116
0.505771
0.506887
0.51394
0.500422
0.450344
0.336135
0.114764
0.119897
0.240507
0.335322
0.40461
0.453691
0.488877
0.514594
0.531369
0.53744
0.540338
0.542036
0.543241
0.543547
0.544687
0.548024
0.549367
0.546012
0.538142
0.529891
0.521256
0.517209
0.504715
0.478545
0.460742
0.458133
0.469137
0.471878
0.434306
0.330029
0.121782
0.1178
0.229521
0.31913
0.386246
0.435059
0.470389
0.496419
0.513221
0.520072
0.523386
0.525373
0.526586
0.526635
0.527388
0.529812
0.529224
0.524978
0.516513
0.508609
0.498222
0.491032
0.467587
0.437521
0.417785
0.412585
0.424045
0.436096
0.416817
0.329065
0.129156
0.115944
0.220028
0.30452
0.368719
0.416303
0.451317
0.477297
0.493824
0.501367
0.505067
0.50754
0.508999
0.508878
0.509337
0.510127
0.508953
0.502755
0.493423
0.484467
0.471903
0.461272
0.427997
0.398321
0.382342
0.378583
0.386331
0.399572
0.395845
0.330544
0.136697
0.11419
0.211006
0.290777
0.352323
0.39863
0.433167
0.458844
0.475002
0.482921
0.486716
0.489266
0.490849
0.490651
0.490817
0.49115
0.489244
0.479964
0.468806
0.458003
0.442678
0.423983
0.390395
0.367901
0.360363
0.360336
0.363756
0.371605
0.373874
0.331154
0.144596
0.112491
0.202613
0.277573
0.336405
0.381232
0.415009
0.440142
0.456021
0.464384
0.468311
0.47067
0.472226
0.472207
0.472188
0.473303
0.469531
0.456558
0.44337
0.430813
0.412185
0.386809
0.360826
0.351876
0.356598
0.363479
0.362909
0.361351
0.357255
0.327073
0.152464
0.110856
0.194608
0.264835
0.320847
0.364
0.396784
0.421219
0.436876
0.445674
0.449844
0.451982
0.453347
0.45379
0.453618
0.455795
0.44968
0.432698
0.418147
0.403864
0.383451
0.355734
0.344423
0.354734
0.377863
0.395681
0.393961
0.377817
0.355908
0.321111
0.159721
0.109277
0.187177
0.252661
0.305741
0.347041
0.378652
0.402297
0.417771
0.426947
0.431427
0.433426
0.434624
0.435684
0.436714
0.438493
0.429974
0.410456
0.393848
0.377808
0.354052
0.336158
0.345949
0.381771
0.433562
0.471447
0.473275
0.435094
0.380723
0.321146
0.166703
0.107719
0.180162
0.241067
0.291118
0.330462
0.360808
0.383639
0.398956
0.408469
0.413285
0.415278
0.416412
0.418131
0.420927
0.422099
0.411211
0.389065
0.370348
0.35382
0.331596
0.331175
0.368403
0.436823
0.534601
0.592828
0.614028
0.554301
0.446118
0.334557
0.173702
0.106114
0.173401
0.229976
0.276956
0.314323
0.343403
0.365476
0.380656
0.390489
0.395635
0.39772
0.399079
0.401265
0.40595
0.407046
0.393806
0.36865
0.348068
0.332467
0.319211
0.340448
0.408508
0.520298
0.621963
0.680821
0.72901
0.710476
0.568877
0.371652
0.182074
0.104443
0.166849
0.219318
0.263232
0.298654
0.326539
0.347942
0.363029
0.37314
0.37865
0.381046
0.382774
0.386058
0.392336
0.393232
0.376651
0.349866
0.328083
0.31565
0.316172
0.359539
0.455605
0.585878
0.676324
0.721673
0.785828
0.808957
0.736221
0.448595
0.193691
0.102766
0.160716
0.209164
0.250075
0.28355
0.310298
0.331109
0.346204
0.356519
0.362466
0.365366
0.367715
0.372387
0.380491
0.380391
0.359829
0.333372
0.311591
0.304415
0.318354
0.380432
0.495885
0.627243
0.685389
0.727248
0.800759
0.860662
0.863417
0.57375
0.209522
0.101156
0.1551
0.199733
0.237721
0.269209
0.294798
0.315064
0.330202
0.340754
0.347166
0.35071
0.353791
0.36024
0.37052
0.368965
0.344485
0.318679
0.298702
0.296903
0.322817
0.396153
0.515714
0.635769
0.661405
0.714501
0.7972
0.888306
0.949812
0.721261
0.22946
0.099642
0.149942
0.191131
0.226343
0.255835
0.280174
0.299859
0.314979
0.325812
0.332746
0.337056
0.341294
0.34995
0.36296
0.360672
0.331689
0.307288
0.290181
0.292281
0.324462
0.394684
0.517839
0.626422
0.643937
0.706459
0.80187
0.916553
1.01619
0.855341
0.253083
0.0981999
0.145165
0.183305
0.215962
0.243524
0.266534
0.285532
0.300512
0.311662
0.319164
0.32439
0.330163
0.342262
0.358715
0.350582
0.322604
0.300079
0.285861
0.288923
0.322667
0.390271
0.519147
0.613216
0.637193
0.708127
0.816085
0.951221
1.08068
0.969285
0.278352
0.0968091
0.140808
0.176132
0.206432
0.232194
0.253913
0.272157
0.286888
0.298327
0.306392
0.312727
0.320572
0.338376
0.360461
0.340898
0.316987
0.297388
0.286129
0.290894
0.320348
0.396238
0.522477
0.602391
0.637407
0.71687
0.84111
0.997055
1.14727
1.07186
0.304907
0.0954866
0.136912
0.169535
0.197695
0.221697
0.242169
0.25961
0.274188
0.28577
0.294405
0.30241
0.314093
0.341293
0.361065
0.334711
0.314625
0.298487
0.290647
0.298616
0.32775
0.404576
0.522018
0.601448
0.645982
0.73319
0.877041
1.05663
1.21439
1.16966
0.334822
0.094275
0.133454
0.163508
0.189809
0.212181
0.231447
0.248026
0.262451
0.274014
0.283514
0.293603
0.313154
0.353097
0.353006
0.331584
0.315546
0.302589
0.298898
0.310611
0.341718
0.414212
0.530562
0.606025
0.662702
0.761799
0.925444
1.12588
1.28764
1.26818
0.368502
0.0931733
0.130297
0.158119
0.182802
0.203768
0.221915
0.237682
0.251648
0.262897
0.273998
0.288317
0.320796
0.362271
0.345021
0.330449
0.317843
0.308628
0.309572
0.323747
0.356523
0.430757
0.545704
0.619437
0.688769
0.804333
0.991518
1.20154
1.34472
1.32206
0.41966
0.0921547
0.12741
0.153409
0.17666
0.196383
0.213489
0.228481
0.241663
0.253738
0.266401
0.288513
0.336966
0.354604
0.338158
0.329858
0.320599
0.315987
0.320818
0.337405
0.371279
0.452038
0.563967
0.644028
0.726822
0.865238
1.08148
1.29422
1.39922
1.37688
0.444476
0.091222
0.124852
0.1493
0.171287
0.1899
0.205972
0.219909
0.233104
0.246174
0.262194
0.296663
0.347727
0.344323
0.333651
0.329818
0.324998
0.325899
0.335978
0.35327
0.38806
0.478112
0.588063
0.678118
0.779616
0.949596
1.2025
1.41389
1.44166
1.26483
0.45625
0.182405
0.181392
0.179552
0.178131
0.177043
0.175985
0.175147
0.174219
0.173353
0.172385
0.171503
0.170435
0.169459
0.168295
0.167097
0.165833
0.164423
0.16299
0.161427
0.159806
0.158138
0.156451
0.154738
0.152994
0.151245
0.149504
0.147765
0.146014
0.144225
0.142405
0.140606
0.138855
0.137177
0.135528
0.133885
0.132212
0.130493
0.128739
0.127009
0.125253
0.123362
0.121312
0.119226
0.117713
0.116361
0.114954
0.113545
0.112175
0.110831
0.109574
0.108475
0.107585
0.106959
0.106566
0.106462
0.106456
0.106634
0.106893
0.107392
0.108269
0.109842
0.112185
0.115417
0.119203
0.122343
0.124974
0.127139
0.128801
0.129933
0.130693
0.131166
0.13152
0.131948
0.132395
0.132618
0.132536
0.132128
0.131372
0.130241
0.129063
0.127928
0.126885
0.125979
0.125229
0.124679
0.1244
0.124313
0.124188
0.123895
0.123414
0.122763
0.121986
0.121166
0.120257
0.119202
0.117969
0.116537
0.114864
0.112857
0.110327
0.106938
0.102181
0.0963915
0.0904808
0.0867671
0.0844744
0.0831861
0.0825658
0.0823343
0.0823149
0.0824313
0.0826335
0.0829006
0.0832283
0.0835835
0.0840344
0.0845562
0.0851314
0.0856523
0.0862911
0.0869987
0.0877449
0.0885591
0.0894557
0.0903856
0.252
0.251356
0.249357
0.247988
0.247269
0.246718
0.246208
0.245753
0.245245
0.245002
0.244991
0.245505
0.24625
0.247797
0.249538
0.251905
0.254992
0.2583
0.262356
0.266458
0.27074
0.274694
0.278336
0.281782
0.28535
0.289496
0.294375
0.299777
0.305382
0.310938
0.316727
0.323053
0.33051
0.338469
0.346644
0.354371
0.360931
0.365666
0.368668
0.369989
0.369133
0.365539
0.360345
0.354637
0.348468
0.340003
0.328753
0.31494
0.299245
0.28258
0.26537
0.249269
0.235181
0.222916
0.212326
0.203161
0.195433
0.190046
0.187497
0.18931
0.197578
0.207472
0.213724
0.217091
0.220478
0.223637
0.227011
0.230289
0.233422
0.236615
0.239577
0.241882
0.243793
0.245471
0.246918
0.248596
0.249415
0.249037
0.247652
0.245757
0.243355
0.240541
0.237419
0.234083
0.230607
0.227048
0.223369
0.219541
0.215569
0.211496
0.207386
0.20322
0.198864
0.194556
0.190442
0.186477
0.182643
0.178942
0.175341
0.171697
0.167994
0.164228
0.159929
0.153549
0.14275
0.129613
0.118305
0.112193
0.109237
0.108174
0.107916
0.107982
0.108246
0.10865
0.109085
0.109718
0.110707
0.11214
0.113284
0.114226
0.115417
0.116859
0.118603
0.120569
0.122633
0.263483
0.265348
0.265412
0.266234
0.26764
0.268991
0.270576
0.272413
0.274587
0.277137
0.280293
0.284042
0.288348
0.293395
0.29848
0.304059
0.309704
0.315368
0.321258
0.327349
0.333846
0.340889
0.3487
0.357223
0.366807
0.37829
0.392778
0.411118
0.432774
0.456174
0.479962
0.504129
0.529708
0.554197
0.575258
0.593602
0.609207
0.621447
0.629403
0.632058
0.631195
0.628229
0.623617
0.61697
0.609108
0.598121
0.583009
0.562481
0.536506
0.505226
0.469405
0.433238
0.398137
0.365387
0.337112
0.313795
0.295714
0.282316
0.277691
0.280466
0.280709
0.277523
0.274495
0.272029
0.270929
0.270858
0.270783
0.271069
0.271772
0.27302
0.274001
0.274716
0.275105
0.275205
0.274925
0.274594
0.274252
0.273315
0.271963
0.270087
0.267424
0.264137
0.260493
0.256635
0.252612
0.248425
0.244092
0.239695
0.235297
0.230915
0.22652
0.222215
0.218126
0.213973
0.209722
0.205726
0.201977
0.198515
0.195383
0.19243
0.189493
0.187041
0.184716
0.182291
0.17976
0.175879
0.168581
0.15335
0.139096
0.130812
0.126864
0.125427
0.125042
0.125103
0.125422
0.126051
0.127236
0.129026
0.130784
0.132459
0.134514
0.136769
0.139356
0.142358
0.145685
0.265576
0.269201
0.270987
0.273509
0.276184
0.279074
0.282407
0.28613
0.290405
0.295034
0.300288
0.306159
0.312491
0.319348
0.326393