/*--------------------------------*- C++ -*----------------------------------*\
| =========                 |                                                 |
| \\      /  F ield         | OpenFOAM: The Open Source CFD Toolbox           |
|  \\    /   O peration     | Version:  2112                                  |
|   \\  /    A nd           | Website:  www.openfoam.com                      |
|    \\/     M anipulation  |                                                 |
\*---------------------------------------------------------------------------*/
FoamFile
{
    version     2.0;
    format      ascii;
    arch        "LSB;label=32;scalar=64";
    class       volScalarField;
    location    "0.00915";
    object      nut;
}
// * * * * * * * * * * * * * * * * * * * * * * * * * * * * * * * * * * * * * //

dimensions      [0 2 -1 0 0 0 0];

internalField   nonuniform List<scalar> 
13875
(
0.0511677
0.0366253
0.0343669
0.0343303
0.034303
0.0343331
0.0342932
0.0342657
0.0342904
0.0343072
0.0343028
0.0342945
0.0343181
0.0343413
0.0343296
0.034293
0.0342675
0.0342896
0.0343025
0.0343265
0.0343039
0.0343341
0.034383
0.0365642
0.0514277
0.0532619
0.0341199
0.0322234
0.0321076
0.0320659
0.0320884
0.0320376
0.0320091
0.0320289
0.0320452
0.0320386
0.0320461
0.0320508
0.0320726
0.0320598
0.0320468
0.0320035
0.0320345
0.032046
0.0320758
0.0320637
0.0321024
0.0322288
0.0340467
0.0536435
0.0564568
0.0335618
0.0318039
0.0315935
0.0315721
0.0315817
0.0314771
0.0314262
0.0314411
0.0314517
0.0314337
0.0314585
0.0315275
0.0315564
0.0315343
0.0314644
0.0314079
0.0314453
0.031478
0.0315675
0.0315643
0.0315802
0.0317942
0.0334893
0.0566042
0.0590702
0.0332329
0.0314903
0.0312775
0.0312644
0.031266
0.0311495
0.0310876
0.031108
0.0311166
0.0310885
0.0311082
0.0312111
0.0312406
0.0312181
0.0311168
0.0310728
0.0311025
0.0311465
0.0312538
0.0312551
0.0312625
0.0314841
0.0331679
0.0591523
0.0611257
0.0330041
0.0312469
0.0310035
0.0309867
0.0309842
0.0308603
0.0308005
0.0308226
0.0308293
0.0307989
0.0308181
0.0309229
0.0309551
0.0309298
0.0308272
0.0307864
0.0308147
0.0308594
0.0309686
0.0309765
0.0309898
0.0312294
0.0329207
0.061267
0.0628187
0.0328482
0.0310897
0.0307715
0.0307543
0.0307358
0.0305993
0.0305412
0.0305632
0.0305671
0.0305351
0.0305534
0.0306609
0.0306953
0.0306678
0.0305627
0.030526
0.0305533
0.0305999
0.0307199
0.0307435
0.0307612
0.031058
0.0328249
0.0629742
0.0648276
0.0330732
0.031104
0.0306322
0.0305702
0.0305284
0.0303707
0.0303108
0.0303309
0.0303295
0.0302973
0.0303145
0.0304253
0.0304593
0.0304288
0.0303221
0.030293
0.0303204
0.0303762
0.030512
0.0305599
0.0306331
0.0311129
0.0330719
0.0648624
0.0670945
0.0339367
0.0314249
0.0306492
0.0304861
0.0303758
0.0301875
0.0301142
0.0301264
0.0301198
0.0300887
0.0301006
0.0302165
0.0302525
0.0302194
0.0301083
0.0300891
0.0301205
0.0301898
0.0303572
0.0304671
0.0306297
0.0313924
0.0338962
0.067351
0.0736472
0.0362969
0.0320402
0.0308442
0.0304743
0.0302819
0.0300441
0.029958
0.0299615
0.0299475
0.0299186
0.0299244
0.0300456
0.0300839
0.0300502
0.0299357
0.0299232
0.0299579
0.0300441
0.0302597
0.0304501
0.0308021
0.0319354
0.0360009
0.0741858
0.0829029
0.0384718
0.0327357
0.0311874
0.0305785
0.0302414
0.0299703
0.0298771
0.0298668
0.0298441
0.0298203
0.0298225
0.029943
0.029983
0.0299514
0.0298482
0.0298333
0.0298729
0.0299654
0.0302201
0.0305501
0.0310806
0.0326233
0.0381054
0.0835436
0.0907196
0.0441338
0.0346463
0.0319914
0.0308159
0.0303581
0.0300425
0.0299121
0.0298751
0.0298427
0.0298203
0.0298196
0.0299339
0.0299757
0.0299529
0.0298744
0.0298575
0.0299041
0.0300356
0.0303037
0.030794
0.0318809
0.0343624
0.0432624
0.0893464
0.0950513
0.0545161
0.0403678
0.0334482
0.0318702
0.0308376
0.0303363
0.0301421
0.0300605
0.0300158
0.0299904
0.0299902
0.0300878
0.0301337
0.0301242
0.0300751
0.0300665
0.0301383
0.0303224
0.0308362
0.0317992
0.0332267
0.0398454
0.0533617
0.0942607
0.0865892
0.0687442
0.0516115
0.0417887
0.0343955
0.0319488
0.0312908
0.0308267
0.0306385
0.0305485
0.0305029
0.0304973
0.0305708
0.0306187
0.0306315
0.0306274
0.0306801
0.0308732
0.0313325
0.0320033
0.0347641
0.0415751
0.0509421
0.0687638
0.0866034
0.0795831
0.0659337
0.0581375
0.06572
0.0416881
0.0372311
0.0336637
0.0324337
0.0320349
0.0319728
0.0319332
0.0319294
0.0319924
0.0320373
0.0320666
0.0320955
0.0321457
0.0325389
0.0340826
0.0382637
0.0432157
0.0657184
0.0578321
0.0661711
0.0816112
0.0753058
0.0642775
0.056569
0.0606319
0.0561479
0.0539945
0.0444689
0.0388304
0.0367259
0.03588
0.0354953
0.0353764
0.0353984
0.0354539
0.035565
0.0358664
0.0366686
0.0389036
0.0451785
0.0552506
0.0557352
0.0612541
0.0566012
0.0641515
0.0746626
0.0671472
0.0618411
0.0543107
0.0572917
0.0560494
0.0571964
0.0544962
0.0531154
0.0507877
0.0483196
0.047447
0.0471207
0.0470349
0.0471147
0.047277
0.0477709
0.0504131
0.0543008
0.0554752
0.0577285
0.0556109
0.0580126
0.0543141
0.0614945
0.0664788
0.0623875
0.0582021
0.0524815
0.0550767
0.0568232
0.0611648
0.0681205
0.072888
0.0699428
0.0707105
0.0730091
0.0744986
0.0752626
0.0749308
0.0733761
0.0725271
0.0699745
0.0728332
0.0687022
0.0612125
0.0562959
0.0553033
0.0519643
0.0575732
0.0624349
0.0569859
0.0546905
0.0531139
0.0569221
0.0598886
0.0629112
0.0709909
0.079166
0.0742395
0.0703896
0.0692595
0.0693785
0.0698922
0.0696037
0.0697432
0.0725848
0.0738591
0.0767249
0.0708827
0.0642146
0.0609526
0.0576578
0.0528292
0.0542622
0.0567867
0.0513579
0.05416
0.055915
0.0618329
0.0667948
0.0646917
0.0674378
0.0752513
0.0742417
0.0704386
0.0686913
0.0683443
0.0684579
0.0689336
0.0698088
0.0716892
0.0728408
0.0731247
0.0677414
0.0667406
0.0697299
0.0630555
0.0562719
0.0544115
0.0521552
0.0493587
0.0573571
0.0603945
0.0657053
0.0685649
0.0644366
0.0639582
0.0695947
0.0718038
0.0704053
0.0687037
0.0672175
0.0665199
0.0680645
0.0699979
0.0709351
0.0699125
0.067827
0.0645566
0.0665669
0.0707986
0.0664853
0.0608987
0.0576524
0.0487838
0.0775324
0.0887735
0.0774511
0.065265
0.064887
0.0614808
0.0607279
0.0655996
0.0693273
0.0694304
0.0676701
0.0652446
0.0640818
0.0663834
0.0690354
0.0694998
0.0672307
0.064108
0.0614698
0.0634953
0.0668045
0.0669356
0.0799417
0.0918865
0.0824192
0.128344
0.161856
0.0900489
0.0619819
0.0607689
0.0584834
0.058068
0.0626151
0.0669192
0.0677829
0.0659125
0.0628549
0.0614172
0.0641247
0.0672688
0.0675962
0.0647656
0.0613853
0.0587284
0.0602337
0.0623451
0.0638155
0.0931731
0.165525
0.134606
0.152746
0.145719
0.0841375
0.0591296
0.0574343
0.0559242
0.0557032
0.0601657
0.0646241
0.0657728
0.0637361
0.060344
0.0587034
0.0615416
0.0650467
0.0655216
0.062478
0.059099
0.0562393
0.0573084
0.0586947
0.0607168
0.0839375
0.144504
0.15349
0.161253
0.146155
0.0767167
0.0569695
0.0546555
0.0536085
0.0536597
0.0579273
0.0623989
0.0635894
0.0613188
0.0577318
0.0561241
0.0590119
0.0627388
0.0634335
0.0602362
0.0568491
0.0541645
0.0548277
0.0558805
0.0585868
0.0777654
0.150707
0.160718
0.167061
0.147165
0.0726813
0.0554164
0.0526095
0.0516501
0.0519982
0.0559514
0.0602312
0.0613351
0.0589664
0.0553144
0.0537353
0.056596
0.0604542
0.0612621
0.0581562
0.0548447
0.052371
0.0527218
0.0538417
0.0570348
0.0744934
0.154546
0.16752
0.174358
0.150722
0.069958
0.0539398
0.0510143
0.0499907
0.0506394
0.0542237
0.0581618
0.0591124
0.0567418
0.0530969
0.0515393
0.0542983
0.058138
0.0590654
0.0562357
0.0530843
0.0507889
0.0508212
0.0521583
0.0553506
0.0715499
0.157258
0.177194
0.183858
0.147191
0.0667868
0.0525355
0.0497801
0.0486408
0.0494981
0.0527124
0.0561602
0.0568252
0.0544945
0.0510269
0.0495557
0.0522623
0.0560254
0.0569944
0.0544881
0.0515455
0.0494218
0.0493037
0.0509225
0.0540099
0.0690208
0.155563
0.184338
0.189808
0.146551
0.064926
0.0514654
0.0488282
0.0475873
0.0484992
0.0513495
0.0543271
0.0547548
0.0525051
0.0491789
0.0477472
0.0503353
0.0539548
0.055002
0.052888
0.0502126
0.0482709
0.0481009
0.0498139
0.0527862
0.0671968
0.155916
0.191992
0.194987
0.14835
0.0638026
0.0505879
0.0480426
0.0468375
0.0476324
0.0501145
0.052633
0.0528302
0.0506856
0.0475165
0.0461146
0.0485561
0.0519578
0.0530543
0.0513811
0.0490164
0.0472676
0.0471222
0.0488142
0.0517219
0.065298
0.151157
0.200073
0.20191
0.145355
0.0628245
0.0498767
0.0472589
0.0462383
0.0469696
0.049008
0.0509934
0.0509257
0.048885
0.045946
0.0446295
0.0470132
0.0502822
0.0513731
0.0500125
0.0479483
0.0464429
0.0463554
0.0479007
0.0509477
0.0646111
0.151746
0.20379
0.204058
0.141403
0.0622746
0.0494555
0.0465692
0.0456708
0.0463447
0.0479915
0.049532
0.0492658
0.0473377
0.0445655
0.0432948
0.0455552
0.0486186
0.0497211
0.0487387
0.047023
0.045776
0.0456723
0.0470181
0.050334
0.0637047
0.146899
0.209043
0.206495
0.141095
0.0621846
0.0493332
0.0459435
0.0450995
0.0457574
0.0470826
0.0482286
0.0477993
0.0459619
0.0433196
0.0420833
0.0442107
0.0471338
0.0482693
0.0475842
0.046192
0.0451466
0.0449992
0.0462392
0.0500101
0.0631129
0.14364
0.211549
0.210615
0.136571
0.0618564
0.0493913
0.0454643
0.0446236
0.0451535
0.0462203
0.0469582
0.0463711
0.0446258
0.0421578
0.0409998
0.0430634
0.0458407
0.0469592
0.046523
0.0454283
0.0445167
0.0444176
0.045655
0.0499521
0.0631443
0.142951
0.213385
0.211705
0.134183
0.0616945
0.0496836
0.0451622
0.0441805
0.0445144
0.0454221
0.0458401
0.0451442
0.0434842
0.0411271
0.0400084
0.0419489
0.0446165
0.0457547
0.0455377
0.0447288
0.0439028
0.0438938
0.0452374
0.0500789
0.0632644
0.139542
0.215933
0.212737
0.133788
0.0613978
0.0500601
0.0452004
0.0437787
0.0439228
0.0446377
0.0448191
0.044018
0.0424374
0.0401918
0.0391231
0.0409624
0.0434891
0.0446323
0.0446165
0.0440295
0.0433354
0.0435029
0.04514
0.0504329
0.0629635
0.137462
0.216806
0.214873
0.132069
0.0610097
0.0504453
0.0454481
0.0434685
0.0433716
0.0438624
0.0438504
0.0429778
0.0414471
0.0393136
0.0383066
0.0400746
0.0425399
0.0436745
0.0437746
0.0433328
0.0428163
0.0431448
0.0453539
0.0509341
0.0627641
0.137935
0.217681
0.215233
0.132356
0.0608575
0.0512476
0.0459134
0.043288
0.042893
0.0431311
0.0429469
0.0420457
0.040577
0.0385395
0.0375764
0.0392491
0.041594
0.0427328
0.0429527
0.0426874
0.0423458
0.0429185
0.0457505
0.0516961
0.0623184
0.136536
0.219081
0.215208
0.134952
0.0607348
0.0520231
0.0465509
0.0433273
0.0424375
0.0424466
0.0421173
0.041211
0.0398009
0.0378272
0.0369033
0.0384808
0.0407642
0.0418924
0.042173
0.0420862
0.0419063
0.0429295
0.0463996
0.0524532
0.0618497
0.137491
0.218956
0.2156
0.134933
0.0601976
0.0522226
0.0474065
0.0435839
0.0421084
0.0418338
0.0413242
0.0403923
0.0390348
0.0371708
0.0362997
0.0378225
0.0400156
0.0411167
0.0414672
0.041547
0.0415711
0.0431269
0.0472994
0.0527779
0.0613689
0.140017
0.21862
0.21477
0.13693
0.0596846
0.0522239
0.0484934
0.0440147
0.0419354
0.0413053
0.0406318
0.0396865
0.038382
0.0365719
0.0357344
0.0371694
0.0393115
0.0403966
0.0408075
0.0410916
0.0414295
0.0435523
0.0482631
0.0526552
0.0608197
0.141144
0.218553
0.214299
0.139474
0.0594799
0.0521107
0.0499099
0.0446808
0.0419651
0.0409272
0.0400293
0.0390339
0.0377664
0.0360242
0.0352206
0.0365797
0.0386356
0.0397279
0.0402375
0.0407562
0.041508
0.0441811
0.0498719
0.0525383
0.0604635
0.143414
0.217438
0.214453
0.141287
0.0591838
0.051689
0.0505689
0.0455232
0.0421289
0.0407519
0.0395328
0.0384442
0.0371882
0.035494
0.0347375
0.0360436
0.0380742
0.0391623
0.0397826
0.0405887
0.0416947
0.0451373
0.0509932
0.0523558
0.0609997
0.146092
0.216687
0.213688
0.143581
0.059168
0.0511427
0.0505673
0.0468602
0.04252
0.0407416
0.0391924
0.0379376
0.0366708
0.0350197
0.034292
0.0355331
0.0375034
0.0386282
0.039429
0.0406023
0.0420817
0.0463607
0.0510313
0.051792
0.0608349
0.147953
0.21653
0.213123
0.145929
0.0602062
0.050641
0.0501831
0.0485926
0.0432435
0.0408199
0.0390351
0.0375621
0.0362255
0.034575
0.0338763
0.0350583
0.0369983
0.0381935
0.0392411
0.0407326
0.0428618
0.0483349
0.0507061
0.051217
0.0612123
0.150118
0.21585
0.212864
0.147928
0.060201
0.0501014
0.0495959
0.0494954
0.0445314
0.0410852
0.03898
0.037314
0.0358373
0.0341769
0.033504
0.0346531
0.0366074
0.0379076
0.0391922
0.0410382
0.0443543
0.0495528
0.0501357
0.0508505
0.0624324
0.152437
0.215367
0.211929
0.149766
0.0613786
0.0498036
0.0489194
0.0491912
0.0467027
0.0417875
0.0390672
0.0372395
0.0356112
0.0338811
0.0331913
0.0343204
0.0363271
0.0377928
0.0392428
0.0417069
0.0464891
0.0493292
0.0494443
0.0504089
0.0630119
0.154413
0.21498
0.210861
0.151621
0.06298
0.04974
0.0483409
0.0487019
0.0479625
0.0434334
0.0393158
0.0372075
0.0355175
0.0337159
0.0329264
0.0341143
0.0361893
0.0377572
0.0394491
0.0432966
0.0479818
0.0488388
0.0488152
0.050185
0.0639074
0.156177
0.21389
0.208855
0.15273
0.0636686
0.0496288
0.0478562
0.0480639
0.047702
0.0457136
0.0401144
0.0372639
0.035482
0.0336536
0.0327946
0.0340382
0.0361521
0.0378227
0.0402405
0.0457167
0.0478706
0.0481663
0.0483074
0.0502638
0.0655282
0.157337
0.211547
0.205438
0.152733
0.0646291
0.0497101
0.0474673
0.0473471
0.0472638
0.0472649
0.0418944
0.0375716
0.0355273
0.033647
0.0327859
0.0340209
0.0361761
0.0380804
0.0419092
0.0475073
0.0474536
0.0474198
0.047859
0.0502988
0.0660547
0.157302
0.208202
0.196563
0.149531
0.0653832
0.0498178
0.0471718
0.0467535
0.0467192
0.0470974
0.0445117
0.0386907
0.0357412
0.033685
0.0328042
0.0340446
0.0363181
0.0390605
0.0445544
0.0474958
0.0469075
0.0467946
0.0475005
0.0502935
0.0663155
0.153941
0.199275
0.376623
1.52105
1.99675
1.99227
1.82452
1.6411
1.46865
1.30046
1.12665
0.951346
0.786104
0.649055
0.547113
0.478868
0.436444
0.411421
0.395023
0.383136
0.373121
0.363626
0.35365
0.342691
0.330554
0.316579
0.299931
0.279982
0.254558
0.219525
0.167876
0.11106
0.360709
1.60369
2.06733
2.03573
1.84854
1.65677
1.48212
1.31683
1.14968
0.980869
0.816475
0.676097
0.567907
0.49283
0.445088
0.415584
0.396166
0.382115
0.370467
0.360011
0.349471
0.338224
0.325904
0.311757
0.294898
0.274761
0.249258
0.214202
0.163282
0.10948
0.385403
1.7617
2.13983
2.07671
1.87348
1.67417
1.49812
1.33506
1.1723
1.00826
0.84595
0.702997
0.590021
0.50807
0.454039
0.419786
0.397187
0.380824
0.367579
0.356019
0.344654
0.333077
0.320562
0.30627
0.289409
0.269217
0.243608
0.208479
0.158541
0.10778
0.40522
1.84677
2.21611
2.13033
1.91084
1.70241
1.5235
1.36224
1.20437
1.04482
0.885474
0.739042
0.618023
0.527687
0.466155
0.426384
0.400046
0.381122
0.366218
0.353476
0.341433
0.329456
0.316834
0.302324
0.285266
0.264776
0.239041
0.203973
0.154803
0.106534
0.41281
1.92056
2.29968
2.19353
1.95785
1.74035
1.55801
1.39732
1.24301
1.08676
0.928315
0.779405
0.651073
0.551179
0.48133
0.435069
0.404309
0.382466
0.365714
0.351644
0.338929
0.3266
0.313896
0.29914
0.281796
0.260945
0.23501
0.200034
0.151661
0.10548
0.42017
2.00388
2.3882
2.26288
2.01043
1.78393
1.59835
1.43752
1.28513
1.13152
0.975101
0.823854
0.68898
0.579304
0.499886
0.446315
0.41046
0.385372
0.366491
0.350981
0.337447
0.324799
0.311627
0.296514
0.278834
0.257711
0.231489
0.196372
0.148849
0.104597
0.429464
2.09045
2.47956
2.33646
2.06859
1.83414
1.64509
1.48439
1.33306
1.18181
1.02647
0.872817
0.732408
0.613401
0.523479
0.461
0.418948
0.389886
0.368406
0.351284
0.336762
0.32352
0.309648
0.294103
0.276074
0.254899
0.228407
0.192912
0.146203
0.103794
0.439645
2.17913
2.5742
2.41692
2.132
1.8895
1.69911
1.53844
1.38836
1.23933
1.08447
0.928193
0.783478
0.655738
0.554234
0.480993
0.431176
0.396894
0.372037
0.352792
0.336834
0.322521
0.307892
0.291721
0.27343
0.251945
0.225217
0.189664
0.143739
0.10308
0.449963
2.26455
2.6714
2.50386
2.2043
1.95355
1.76229
1.60223
1.45297
1.30629
1.15239
0.995578
0.845716
0.708635
0.59472
0.508602
0.448669
0.407321
0.37776
0.355589
0.337593
0.321876
0.306398
0.28973
0.270993
0.249164
0.222097
0.186565
0.141459
0.102477
0.458571
2.34831
2.77093
2.59829
2.28757
2.02832
1.8354
1.67579
1.52811
1.38414
1.2313
1.07435
0.919321
0.773144
0.645822
0.545009
0.47246
0.421197
0.385472
0.359505
0.338943
0.321711
0.305361
0.287829
0.268777
0.246547
0.219209
0.183698
0.139413
0.102006
0.466429
2.42852
2.87301
2.70102
2.38262
2.11499
1.91942
1.76061
1.61472
1.47377
1.32065
1.16366
1.00498
0.850747
0.710661
0.594068
0.505195
0.441049
0.396309
0.364803
0.341225
0.322183
0.304033
0.28605
0.266584
0.243894
0.2163
0.180945
0.137573
0.101672
0.47372
2.50779
2.97864
2.81156
2.48896
2.21376
2.01481
1.85688
1.71294
1.57222
1.41996
1.26361
1.10282
0.942683
0.790827
0.657345
0.549762
0.469432
0.412769
0.373487
0.345411
0.322714
0.303196
0.284451
0.264452
0.241311
0.213572
0.178216
0.135822
0.101383
0.482268
2.5884
3.0869
2.92839
2.60496
2.32401
2.12174
1.96438
1.82021
1.67774
1.52835
1.37369
1.21246
1.04775
0.88557
0.736054
0.608358
0.508718
0.436143
0.385963
0.350976
0.324479
0.303032
0.283208
0.262449
0.238903
0.210924
0.175598
0.134189
0.101111
0.489994
2.67185
3.19551
3.0488
2.726
2.44327
2.23964
2.08122
1.93451
1.79183
1.6469
1.49437
1.3332
1.16499
0.99441
0.830385
0.682915
0.560393
0.468145
0.404025
0.360214
0.328402
0.304014
0.282454
0.260617
0.236833
0.20855
0.173262
0.132713
0.10089
0.496992
2.75198
3.30087
3.16987
2.85349
2.57133
2.36521
2.20267
2.05444
1.91521
1.77516
1.62531
1.46458
1.29359
1.1167
0.939851
0.773609
0.627597
0.512818
0.43089
0.374748
0.335676
0.306877
0.28286
0.259716
0.23528
0.206633
0.171352
0.131549
0.100756
0.502437
2.82345
3.40164
3.28882
2.98557
2.70648
2.4999
2.33146
2.18228
2.04823
1.9126
1.76536
1.60588
1.43342
1.25205
1.06515
0.881891
0.71278
0.572653
0.468298
0.39561
0.346272
0.311257
0.284238
0.259839
0.234411
0.205315
0.170004
0.130721
0.100731
0.507759
2.88607
3.49576
3.40365
3.11905
2.84788
2.64042
2.46751
2.3189
2.18969
2.05827
1.91363
1.75555
1.58233
1.39793
1.2038
1.00594
0.815031
0.64817
0.517311
0.423703
0.360666
0.31801
0.286933
0.260528
0.233957
0.204378
0.169079
0.130087
0.100772
0.513915
2.93605
3.57873
3.51179
3.2516
2.99326
2.78477
2.61053
2.46402
2.33865
2.21095
2.06893
1.91199
1.73784
1.55027
1.3499
1.14012
0.930411
0.7381
0.57857
0.461202
0.38073
0.327733
0.290961
0.261732
0.233601
0.203285
0.16777
0.129133
0.100778
0.517911
2.97331
3.64251
3.60881
3.37933
3.13859
2.93164
2.75986
2.61679
2.49396
2.36896
2.22988
2.0738
1.89816
1.70657
1.49957
1.27909
1.05535
0.841717
0.655911
0.510899
0.408294
0.341314
0.296623
0.263298
0.23346
0.201986
0.16633
0.127678
0.100662
0.520184
2.99551
3.68322
3.68752
3.49578
3.28083
3.08198
2.91578
2.77673
2.65521
2.53142
2.39595
2.24012
2.06227
1.86676
1.65421
1.42582
1.19141
0.960355
0.749084
0.574553
0.445875
0.360635
0.305243
0.266321
0.233977
0.201552
0.165217
0.126657
0.10056
0.52367
2.99516
3.69381
3.73965
3.59537
3.41714
3.23521
3.07718
2.94208
2.82206
2.70029
2.56798
2.41117
2.23097
2.03278
1.81579
1.58134
1.33773
1.09174
0.856949
0.653542
0.495431
0.387223
0.31773
0.271664
0.235899
0.201627
0.164419
0.125844
0.100603
0.524856
2.97303
3.66224
3.75686
3.67355
3.54382
3.38927
3.24317
3.11358
2.99597
2.87784
2.74825
2.58808
2.40703
2.20636
1.98433
1.74414
1.49108
1.23254
0.978198
0.747784
0.558564
0.423032
0.335611
0.279928
0.239438
0.202677
0.164197
0.125311
0.100718
0.527644
2.90197
3.56573
3.71586
3.72155
3.65611
3.54142
3.41265
3.29152
3.17819
3.06426
2.93524
2.77425
2.59098
2.38577
2.15707
1.91078
1.64883
1.38027
1.10966
0.85538
0.635308
0.469457
0.359725
0.291366
0.244397
0.204543
0.164284
0.124786
0.100749
0.524249
2.72898
3.34814
3.59658
3.7302
3.7495
3.6862
3.58373
3.47573
3.36887
3.26071
3.12813
2.96696
2.7789
2.56672
2.33127
2.07889
1.81014
1.53217
1.24768
0.97219
0.724332
0.52705
0.390709
0.305826
0.250499
0.206897
0.164844
0.124507
0.100875
0.511132
2.17669
2.83666
3.33077
3.67435
3.81284
3.81661
3.75195
3.66382
3.5662
3.46072
3.32857
3.165
2.9697
2.75015
2.50937
2.25178
1.97724
1.68761
1.39109
1.09649
0.823784
0.595765
0.42955
0.324302
0.258478
0.210044
0.166026
0.124479
0.101007
0.110644
0.167034
0.21883
0.253808
0.279129
0.299292
0.316064
0.330107
0.3421
0.352874
0.36255
0.371634
0.381657
0.394061
0.411423
0.43848
0.484043
0.557956
0.666464
0.810917
0.9832
1.16208
1.33609
1.50536
1.68233
1.87262
2.04604
2.04801
1.5525
0.381536
0.109081
0.162631
0.21362
0.248662
0.274103
0.294383
0.311261
0.325385
0.337497
0.348597
0.358933
0.369113
0.380708
0.395308
0.41564
0.446841
0.497704
0.577663
0.691025
0.83801
1.00714
1.17831
1.34597
1.51255
1.69245
1.89101
2.08548
2.11786
1.63503
0.365429
0.107373
0.157995
0.208014
0.243182
0.268704
0.289024
0.305998
0.320187
0.332355
0.343642
0.3548
0.366264
0.379537
0.396496
0.419987
0.455603
0.512133
0.597522
0.715603
0.863716
1.02964
1.19563
1.35845
1.52284
1.70455
1.91104
2.12271
2.19084
1.79644
0.39017
0.106164
0.154492
0.203587
0.238767
0.264525
0.285045
0.302136
0.31657
0.329067
0.340861
0.352551
0.36526
0.380233
0.399703
0.426821
0.467635
0.530791
0.623496
0.7488
0.898577
1.06038
1.22088
1.37948
1.54328
1.7284
1.94468
2.17315
2.26491
1.88186
0.410278
0.10514
0.151393
0.19971
0.234948
0.261019
0.281907
0.299124
0.313796
0.326656
0.338954
0.351318
0.365236
0.382155
0.404273
0.435501
0.482241
0.553149
0.654372
0.78504
0.936632
1.09635
1.25336
1.40876
1.57232
1.76157
1.98826
2.23465
2.34631
1.95467
0.417568
0.104266
0.1485
0.196126
0.231609
0.258099
0.279387
0.296875
0.311805
0.325147
0.33792
0.351123
0.366336
0.385332
0.410522
0.446419
0.499908
0.579465
0.689137
0.824821
0.977665
1.13555
1.28968
1.44344
1.60799
1.80054
2.03675
2.30102
2.43358
2.03677
0.424465
0.103488
0.145904
0.192789
0.228494
0.255571
0.277137
0.294999
0.310198
0.324061
0.337576
0.351895
0.36861
0.390015
0.418886
0.460389
0.52178
0.610941
0.728965
0.869423
1.02323
1.17982
1.33238
1.48525
1.65014
1.84566
2.09001
2.37217
2.52289
2.12232
0.4342
0.102821
0.143581
0.189734
0.225704
0.25298
0.274922
0.293263
0.308932
0.323386
0.337909
0.35379
0.37247
0.396879
0.430468
0.479039
0.549955
0.649127
0.775843
0.921354
1.07612
1.23246
1.38295
1.53538
1.70022
1.89716
2.15027
2.44937
2.61581
2.2094
0.443756
0.102285
0.141507
0.186998
0.223041
0.250347
0.272538
0.291352
0.307834
0.323102
0.338804
0.356606
0.378135
0.406563
0.446545
0.504517
0.587335
0.698306
0.833487
0.983527
1.13976
1.29457
1.44302
1.5944
1.75892
1.95748
2.21884
2.53245
2.71114
2.29399
0.454204
0.101943
0.139777
0.184329
0.220236
0.247888
0.270473
0.289534
0.306755
0.323175
0.340407
0.3605
0.38594
0.420222
0.469083
0.539351
0.636479
0.760895
0.904217
1.05844
1.21564
1.36828
1.5142
1.66444
1.82837
2.02886
2.29906
2.62395
2.80813
2.37664
0.46275
0.101588
0.13804
0.18175
0.217502
0.245468
0.268302
0.288022
0.305972
0.323763
0.343082
0.366179
0.396755
0.439292
0.50029
0.585597
0.698686
0.836243
0.987899
1.14525
1.30293
1.45434
1.5972
1.74598
1.90926
2.11257
2.39166
2.72474
2.90846
2.45641
0.470316
0.101293
0.136442
0.179219
0.214918
0.243023
0.266326
0.286642
0.30564
0.325034
0.347111
0.3747
0.412429
0.466236
0.542599
0.646314
0.776192
0.924917
1.08346
1.24301
1.4
1.55166
1.69226
1.83937
2.00198
2.20874
2.49584
2.83338
3.01284
2.53603
0.478156
0.101016
0.13494
0.176891
0.212532
0.240785
0.264563
0.285619
0.305865
0.327313
0.352988
0.386747
0.434609
0.503659
0.598829
0.722424
0.868375
1.02761
1.19095
1.35149
1.50665
1.65675
1.79866
1.94496
2.10704
2.31704
2.60993
2.94869
3.12012
2.61678
0.486642
0.100806
0.133588
0.174799
0.210389
0.238932
0.263206
0.285256
0.307109
0.331483
0.361958
0.403981
0.465212
0.553297
0.670913
0.814357
0.975237
1.14331
1.31063
1.4713
1.62429
1.77049
1.91387
2.06179
2.2241
2.43553
2.72999
3.0668
3.22771
2.70002
0.494366
0.100663
0.132481
0.173077
0.20851
0.237575
0.262506
0.285817
0.309829
0.338338
0.375803
0.429468
0.507887
0.618147
0.759086
0.921894
1.09594
1.27122
1.44148
1.60206
1.75229
1.89378
2.03474
2.18458
2.34976
2.56216
2.85589
3.1872
3.33241
2.77992
0.501375
0.1006
0.131709
0.171814
0.20735
0.236843
0.262639
0.28747
0.314475
0.348765
0.396079
0.465727
0.566059
0.70143
0.866036
1.04596
1.23093
1.4113
1.58331
1.74311
1.89031
2.02674
2.16285
2.31322
2.48463
2.69829
2.98844
3.3062
3.43243
2.85149
0.507083
0.100617
0.131208
0.171002
0.206721
0.236611
0.263315
0.290038
0.321114
0.363199
0.423751
0.5143
0.641044
0.803612
0.990892
1.18604
1.37919
1.56259
1.73505
1.89291
2.03711
2.16868
2.29929
2.44957
2.62679
2.84108
3.12276
3.4217
3.52643
2.91422
0.512376
0.100627
0.130558
0.170194
0.20619
0.236589
0.26412
0.293243
0.329324
0.381337
0.459653
0.57579
0.731521
0.920792
1.12799
1.33612
1.53534
1.7218
1.89427
2.05031
2.19139
2.31861
2.44454
2.59316
2.77315
2.98828
3.25643
3.53115
3.61052
2.96499
0.518719
0.100517
0.129333
0.168854
0.205239
0.236443
0.266438
0.299135
0.34273
0.407333
0.507782
0.651006
0.83509
1.04765
1.2705
1.4896
1.69579
1.88628
2.05855
2.21356
2.35128
2.47526
2.59784
2.74316
2.92223
3.13657
3.38638
3.63055
3.67547
3.00259
0.522851
0.100218
0.127784
0.167211
0.204107
0.237081
0.269626
0.307518
0.361464
0.443617
0.569631
0.742061
0.952239
1.18421
1.41951
1.64756
1.85998
2.05475
2.22921
2.38088
2.51525
2.63773
2.75887
2.89981
3.07377
3.28195
3.50658
3.71199
3.71723
3.02531
0.525245
0.100207
0.126722
0.166246
0.204069
0.238802
0.274501
0.319495
0.386903
0.491665
0.646993
0.847935
1.08199
1.33026
1.57571
1.81118
2.0282
2.22652
2.40393
2.55528
2.68499
2.80554
2.92532
3.06225
3.22831
3.42132
3.6104
3.76672
3.72866
3.0255
0.528988
0.10027
0.125909
0.165739
0.204798
0.24151
0.281604
0.336034
0.420662
0.552361
0.738417
0.966551
1.22102
1.48266
1.7375
1.97896
2.2014
2.40276
2.58316
2.73803
2.86319
2.9803
3.0984
3.23037
3.38401
3.55101
3.69276
3.78586
3.69865
3.00338
0.530629
0.100354
0.125296
0.165478
0.206062
0.245346
0.291241
0.357581
0.463532
0.624903
0.841803
1.09469
1.36607
1.63819
1.90221
2.15026
2.37976
2.58513
2.76802
2.92684
3.05
3.16335
3.27808
3.40256
3.53882
3.66655
3.74495
3.74914
3.60243
2.93127
0.533814
0.100521
0.12515
0.166
0.208089
0.250696
0.30406
0.38547
0.516709
0.708785
0.953692
1.22913
1.51507
1.79525
2.06711
2.32262
2.55974
2.77282
2.96098
3.12086
3.24784
3.35517
3.46406
3.57675
3.68705
3.76362
3.75777
3.63315
3.3849
2.75353
0.531138
0.100766
0.125314
0.167348
0.211275
0.258149
0.320769
0.420441
0.580011
0.802928
1.07294
1.36787
1.66678
1.95701
2.23513
2.49708
2.74129
2.96382
3.16031
3.32377
3.4521
3.55521
3.6541
3.74821
3.82164
3.83131
3.7062
3.37027
2.87374
2.1948
0.517774
0.365385
0.368002
0.375966
0.387462
0.403053
0.420697
0.439699
0.459683
0.480128
0.500481
0.520453
0.539861
0.558559
0.576424
0.593398
0.609481
0.624667
0.638937
0.652155
0.664343
0.675681
0.686326
0.696332
0.705714
0.714474
0.722623
0.730178
0.737167
0.743626
0.749589
0.755098
0.76019
0.764886
0.769437
0.773927
0.777895
0.781298
0.784035
0.78614
0.787604
0.788395
0.78846
0.787709
0.786411
0.784435
0.781699
0.778127
0.773611
0.768185
0.761883
0.754586
0.746225
0.736747
0.726169
0.714569
0.701967
0.688397
0.673918
0.658621
0.642701
0.626456
0.609976
0.59312
0.575957
0.558524
0.540864
0.523047
0.505125
0.487156
0.46918
0.451235
0.43335
0.415566
0.397928
0.380486
0.363286
0.346367
0.32976
0.313487
0.297547
0.281944
0.266673
0.251739
0.237167
0.222981
0.209233
0.195979
0.183297
0.171273
0.160012
0.149617
0.140198
0.131833
0.124578
0.118445
0.113382
0.109323
0.106132
0.10368
0.101864
0.100568
0.0997028
0.0991675
0.0988724
0.0987566
0.0987857
0.0989035
0.0990477
0.0992615
0.0995201
0.0997248
0.10001
0.100313
0.100576
0.100838
0.101137
0.101317
0.101335
0.101295
0.101272
0.101295
0.101328
0.101305
0.101243
0.101085
4.25763
4.34562
4.47537
4.62649
4.78357
4.94323
5.10193
5.25584
5.40055
5.53399
5.65832
5.77508
5.88506
5.98883
6.08742
6.18239
6.27436
6.36205
6.44104
6.51191
6.58016
6.64978
6.7198
6.789
6.85618
6.9207
6.98231
7.04109
7.09721
7.15109
7.20365
7.25619
7.30294
7.33973
7.36748
7.38747
7.40109
7.40903
7.4117
7.40943
7.40247
7.39103
7.37588
7.35402
7.32683
7.29403
7.25507
7.20925
7.15533
7.095
7.02696
6.95067
6.86577
6.77217
6.67051
6.56058
6.44194
6.31401
6.17614
6.02742
5.86527
5.69054
5.50845
5.32426
5.13838
4.95056
4.76207
4.57254
4.38265
4.19342
4.00592
3.82128
3.64071
3.46557
3.29728
3.13621
2.98245
2.83584
2.69594
2.56189
2.43253
2.30649
2.18236
2.05904
1.93558
1.8115
1.68662
1.56118
1.43577
1.31129
1.18919
1.07078
0.957482
0.850737
0.751645
0.66104
0.579472
0.506985
0.443431
0.388543
0.341943
0.302808
0.270269
0.243223
0.220907
0.2027
0.188064
0.176196
0.166433
0.158735
0.152177
0.147129
0.143663
0.141077
0.139064
0.137381
0.135387
0.133078
0.131104
0.129541
0.128317
0.127426
0.126693
0.126194
0.125734
7.27115
7.38602
7.57553
7.812
8.07023
8.34057
8.61391
8.88322
9.14281
9.38881
9.61959
9.83476
10.0346
10.22
10.3924
10.5534
10.7038
10.8434
10.9706
11.0854
11.1918
11.2936
11.3913
11.4835
11.5696
11.6495
11.7233
11.7914
11.8541
11.9118
11.9651
12.0094
12.0446
12.0698
12.0849
12.0905
12.0872
12.0757
12.0565
12.0301
11.9967
11.9564
11.909
11.8534
11.7897
11.7174
11.6362
11.5449
11.4428
11.3305
11.2078
11.0742
10.9293
10.7736
10.6079
10.4325
10.2474
10.0523
9.84735
9.63259
9.4081
9.17408
8.93058
8.67592
8.41155
8.1403
7.8652
7.58805
7.30899
7.02892
6.74894
6.46984
6.19261
5.91869
5.64906
5.38463
5.12603
4.87376
4.62827
4.38982
4.15814
3.93282
3.71351
3.49994
3.29203
3.08989
2.89343
2.70302
2.51885
2.3414
2.17075
2.00714
1.85063
1.70105
1.55813
1.4218
1.29202
1.16895
1.05275
0.943747
0.842951
0.750611
0.667294
0.592575
0.526481
0.468886
0.419337
0.376854
0.340323
0.310011
0.283962
0.262905
0.246727
0.233676
0.223038
0.21437
0.206012
0.197763
0.19088
0.185354
0.180876
0.177329
0.174355
0.17168
0.169336
9.56598
9.69676
9.91762
10.196
10.5033
10.8237
11.1475
11.467
11.7765
12.072
12.3513
12.613
12.8571
13.084
13.2945
13.4897
13.6703
13.8364
13.9881
14.1251
14.2495
14.364
14.4698
14.5665
14.6534
14.7312
14.8004
14.8613
14.914
14.9585
14.9925
15.0165
15.0301
15.0332
15.0261
15.0092
14.9832
14.9488
14.9067
14.8572
14.8006
14.7367
14.6655
14.5862
14.4988
14.4027
14.2974
14.1825
14.0572
13.9216
13.7758
13.6196
13.453
13.276
13.089
12.8936
12.6892
12.4752
12.2518
12.0193
11.7778
11.527
11.2667
10.9971
10.7185
10.431
10.1335
9.82652
9.51278
9.19369
8.872
8.54824
8.22356
7.89925
7.57653
7.25654
6.94018
6.62834
6.32165
6.02092
5.72677
5.43955
5.15974
4.88776
4.62396
4.36855
4.12157
3.88322
3.65362
3.43253
3.2202
3.01638
2.82092
2.63341
2.45326
2.28023
2.11392
1.95411
1.80088
1.65393
1.51377
1.38031
1.2542
1.13536
1.02401
0.920722
0.82559
0.739152
0.660684
0.590627
0.528462
0.476031
0.433597
0.397838
0.366574
0.339632
0.31477
0.292154
0.273453
0.258343
0.246081
0.236154
0.228084
0.221384
0.215795
11.6154