/*--------------------------------*- C++ -*----------------------------------*\
| =========                 |                                                 |
| \\      /  F ield         | OpenFOAM: The Open Source CFD Toolbox           |
|  \\    /   O peration     | Version:  2112                                  |
|   \\  /    A nd           | Website:  www.openfoam.com                      |
|    \\/     M anipulation  |                                                 |
\*---------------------------------------------------------------------------*/
FoamFile
{
    version     2.0;
    format      ascii;
    arch        "LSB;label=32;scalar=64";
    class       volScalarField;
    location    "0.00921";
    object      k;
}
// * * * * * * * * * * * * * * * * * * * * * * * * * * * * * * * * * * * * * //

dimensions      [0 2 -2 0 0 0 0];

internalField   nonuniform List<scalar> 
13875
(
812.095
3462.6
3540.36
3538.88
3541.66
3540.28
3541.79
3541.5
3539.93
3540.89
3542.46
3541.46
3540.48
3540.13
3540.44
3541.19
3541.9
3541.15
3540.76
3540.23
3541.15
3538.99
3540.01
3460.02
820.58
881.795
2936.61
3013.03
3000.28
3001.38
2998.25
2998.53
2998.62
2997.02
2996.07
2997.17
2998.58
2996.24
2996.31
2996.18
2998.51
2996.23
2997.11
2996.97
2998.58
3000.44
2999.28
3011.55
2933.58
894.658
993.361
2710.84
2777.49
2755.1
2759.16
2755.08
2747.81
2745.4
2743.35
2742.33
2741.83
2744.17
2751.07
2752.1
2750.87
2744.67
2741.21
2742.71
2745.31
2755.07
2757.65
2753.16
2774.37
2706.75
998.522
1091.06
2533.67
2581.03
2561.34
2567.06
2562.7
2553.73
2550.07
2548.14
2547.88
2547.19
2548
2558.9
2559.97
2558.84
2548.69
2547.33
2547.56
2551.17
2562.9
2565.47
2559.39
2578.99
2529.95
1093.98
1172.1
2380.45
2413.21
2392.8
2398.34
2394.03
2384.26
2380.76
2379.8
2379.76
2378.97
2379.02
2389.9
2391.37
2389.88
2379.77
2379.19
2379.04
2382.36
2393.9
2396.77
2391.15
2410.35
2375.98
1177.35
1240.99
2237.11
2270.97
2244.92
2251.58
2245.9
2234.33
2231.16
2230.87
2231.02
2230.03
2229.43
2240.45
2242.27
2240.51
2230.22
2230.48
2229.9
2233.1
2245.69
2249.94
2243.72
2267.79
2247.49
1246.96
1320.95
2121.79
2158.36
2120.39
2123.42
2115.9
2101.96
2098.43
2098.68
2098.91
2097.71
2096.5
2107.7
2109.68
2107.56
2097.24
2098.54
2097.65
2101.56
2115.5
2121.67
2119.74
2154.02
2095.68
1322.97
1409.74
2000.7
2073.57
2019.73
2016.51
2002.97
1985.55
1981.03
1981.36
1981.52
1980.24
1978.09
1989.53
1991.88
1989.46
1978.81
1981.4
1980.49
1985.44
2002.18
2013.95
2017.98
2068.32
1992.7
1419.91
1691.4
2029.38
2021.93
1944.41
1925.04
1905.15
1883.38
1877.44
1877.9
1877.86
1876.6
1873.57
1885.18
1887.97
1885.4
1874.61
1878.05
1877.13
1883.35
1903.87
1922.39
1942.18
2017.88
2033.46
1716.56
2509.15
2285.44
2018.12
1901.2
1858.89
1826.2
1801.75
1795.34
1794.93
1794.27
1793.03
1789.49
1800.72
1803.95
1801.48
1791.87
1794.88
1795.01
1801.34
1824.73
1855.62
1891.53
2011.49
2266.21
2529.78
3877.03
3026.35
2153.67
1915.8
1814.77
1771.98
1744.46
1735.11
1732.72
1730.91
1729.5
1725.75
1736.02
1739.58
1738.03
1730.98
1733.15
1735.04
1744.97
1768.23
1813.3
1907.19
2129.61
2936.45
3858.82
5186.17
6453.22
2853.07
1994.3
1853.79
1756.25
1712.34
1697.45
1691.39
1688.07
1686.1
1682.77
1691.15
1694.82
1694.77
1690.77
1692.86
1697.84
1712.27
1757.8
1847.1
1973.96
2789.38
6314.48
5120.56
5057.28
7621.95
7048.76
3338.93
2042.96
1796.43
1742.07
1702.35
1686.17
1678.27
1674.2
1670.92
1677.01
1680.43
1682.41
1682.93
1689.94
1706.54
1746.47
1804.1
2089.02
3232.07
6762.54
7644.8
5009.83
4826.9
6357.29
7171.69
8741.94
5174.03
2332.83
1901.13
1783.99
1748.64
1743.57
1740.26
1737.73
1742.86
1745.74
1748.72
1752.04
1757.85
1792.29
1941.16
2483.34
5617.8
8153.43
6954.77
6328.82
4832.75
4603.58
5511.6
6039.16
6991.53
6830.66
6735.52
3440.82
2379.62
2131.98
2036.61
1996.04
1981.5
1982.22
1986.43
1997.66
2029.32
2119.18
2386.92
3631.63
6897
6816.44
6704.95
5964.75
5485.62
4681.25
4293.48
4798.22
5113.95
5881.22
6061.08
6569.74
5576.34
5159.49
4848.99
4194.8
4268.3
4319.5
4361.93
4348.49
4286
4183.66
4742.4
5444.54
5662.28
6634.04
5996.69
5706.87
5070.77
4777.32
4365.24
3728.43
4039.92
4337.6
5066.62
5578.65
6481.21
7298.52
7561.98
6696.38
6249.81
6501.74
6735.84
6870.01
6816.39
6569.07
6546.58
6703.29
7546.27
7336.01
6455.7
5430.28
4899.3
4224.23
3959.71
3719.33
3064.65
3408.14
3951.87
4858.63
5494.9
6085.87
7063.69
7780.28
6528.77
5480.23
5207.85
5231.69
5300.72
5265.4
5266.69
5787.09
6517
7417.95
7018.36
6205.8
5529.88
4802.69
3859.88
3345.4
3026.92
2642.48
3172.63
3859.89
5061.88
5963.86
5765.79
6061.09
6771.45
6134.81
5176.97
4683.92
4543.05
4534.65
4589.89
4782.11
5319.19
5962.6
6446.62
6056.7
5959.44
6247.5
5085.8
3840.4
3154.04
2644.2
2528.35
3412.62
4089.09
5194.24
5760.31
5298.42
5237.32
5723.78
5573.15
4954.26
4410.92
4083.62
3976.57
4159.9
4547.21
5030
5358.29
5466.26
5259.74
5490.79
5953.55
5170.41
4093.6
3428.72
2520.75
5107.03
7705.54
6240.85
4833.64
4999.72
4645.27
4566.68
4971.51
5036.42
4624.26
4080.43
3652.01
3502.34
3764.25
4244.45
4674.43
4825.45
4768
4602.46
4813.48
5148.74
4957.65
6675.86
8189.3
5959.11
11569.4
23231.4
7862.62
4242.1
4303.7
4083.33
4041.3
4398.63
4541.33
4243.65
3723.65
3258.32
3091.58
3378.77
3883.11
4271.14
4339.39
4237.73
4069.44
4217.76
4412.58
4375.65
8380.38
23299.2
12730.6
13720
19473.6
6908.66
3779.79
3763.9
3628.79
3603.55
3930.29
4089.67
3853.52
3366.5
2908.86
2735.98
3011.12
3503.28
3867.21
3898.89
3794.65
3621.97
3722.68
3840.92
3890.04
6948.37
19000.7
13570.4
13004.1
19584.1
5836.16
3430.72
3328.42
3237.54
3231.51
3519.85
3678.87
3474.85
3017.96
2589.78
2434.7
2692.13
3156.24
3497.81
3507.02
3398.59
3250.86
3317.42
3403.64
3542.5
5975.49
20132.3
12977.9
12661.9
19226.5
5188.86
3160.03
2998.72
2916.12
2927.41
3171.12
3315.86
3134.14
2715.52
2321.64
2181.23
2415.85
2848.16
3163.05
3165.12
3060.05
2937.8
2983.09
3075.83
3270.09
5392.56
20306.8
12762.7
12442.6
19113.6
4721.63
2916.15
2736.24
2647.4
2674.66
2873.76
2995.49
2831.76
2454.53
2094.63
1965.98
2176.52
2570.5
2857.76
2863.29
2768.09
2667.09
2692.77
2805.38
3006.05
4894.05
20070
12709.8
12462.7
17773.8
4243.13
2695.41
2524.24
2424.47
2457.94
2615.83
2707.54
2552.88
2217.53
1898.37
1784.17
1976.89
2334.51
2592.97
2605.84
2523.2
2440.3
2458.8
2593.14
2787.59
4464.03
18876.9
12693.1
12312.3
16913.7
3924.43
2516.35
2351.16
2242.92
2273.13
2396.32
2461.97
2316.96
2019.16
1732.84
1628.28
1801.53
2122.57
2356.11
2379.08
2312.25
2247.04
2266.05
2406.87
2593.58
4137.4
18147.1
12557.7
11996.9
16497.4
3697.24
2362.81
2202.95
2097.77
2114.09
2205.96
2248.63
2111.36
1847.81
1591.09
1494.63
1649.4
1933.49
2142.41
2178.4
2128.92
2080.25
2104.17
2242.22
2424.77
3827.05
16704.6
12483.1
11758.3
15407.8
3499.44
2232.46
2065.53
1971.37
1978.61
2037.86
2055.08
1923.24
1690.94
1464.91
1378.66
1521.39
1778.68
1965.65
2007.06
1972.51
1941.32
1970.25
2096.34
2287.7
3641.4
16055.6
12190
11386
14129.1
3340.14
2129.84
1944.27
1858.78
1860.18
1893.72
1891.75
1765.6
1560.06
1357.65
1278.28
1407.28
1635.98
1802.99
1853.89
1836.26
1822.02
1851.23
1962.58
2171.84
3449.62
14709.3
11874
11060.8
13348.7
3222.71
2053.2
1836.71
1755.44
1754.17
1769.09
1751.44
1631.38
1447.55
1263.97
1190.67
1306.51
1513.05
1664.95
1720.94
1717.45
1715.52
1742.99
1845.19
2082.74
3294.33
13623.5
11516.1
10785.9
12127.7
3093.13
1993.41
1744.32
1664.54
1655.14
1656.4
1622.96
1507.75
1344.13
1180.42
1114.21
1221.52
1408.56
1545.42
1605.2
1613.99
1618.37
1648.51
1747.87
2014.9
3189.95
12800.5
11165.4
10476.2
11208.2
2974.66
1951.61
1669.87
1583.7
1562.95
1557.23
1513.6
1404.28
1257.03
1107.49
1046.58
1143.28
1313.89
1439.19
1501.09
1520.79
1528.61
1563.75
1666.99
1962.61
3092.54
11768.7
10834.7
10186.3
10557.1
2849.64
1915.01
1619.87
1510.35
1480.82
1466.94
1417.11
1312.25
1179.62
1043.43
987.128
1075.25
1229.76
1344.55
1408.79
1435.33
1448.64
1492.45
1610.05
1927.78
2962.8
10925.3
10523
9905.62
9853.97
2725.22
1882.5
1584.95
1446.91
1405.75
1382.86
1329.17
1229.97
1108.92
984.682
934.069
1015.28
1158.95
1264.56
1327.35
1356.98
1377.48
1428.33
1574.32
1902.62
2845.88
10403.8
10234.5
9650.03
9368.46
2621.53
1877.02
1563.89
1394.66
1339.92
1307.58
1250.83
1157.69
1047.47
933.755
886.771
961.099
1092.08
1189.54
1251.77
1285.75
1312.74
1374.38
1550.53
1895.69
2717.44
9761
9943.34
9384.26
9119.67
2526.01
1868.11
1553.73
1358.21
1280.16
1239.8
1180.96
1094.39
993.362
887.375
844.259
912.037
1033.97
1123.96
1183.28
1221.82
1254.24
1336.82
1542.99
1888.17
2593.35
9354.18
9671.7
9093.59
8710.8
2409.29
1827.34
1558.4
1333.84
1229.25
1178.87
1116.54
1034.79
942.236
845.343
806.109
869.416
982.367
1065.28
1122.89
1165.21
1204.66
1310.63
1550.86
1855.12
2477.24
9123.12
9403.2
8826.67
8475.24
2300.86
1777.72
1577.79
1320.88
1189.85
1125.92
1060.55
983.466
898.212
807.635
771.344
829.074
934.971
1011.72
1067.38
1115.41
1166.87
1297.19
1563.18
1797.27
2364.95
8809.97
9122.05
8610.47
8293.45
2237.85
1726.78
1611.15
1319.51
1161.82
1082.61
1011.55
936.996
857.687
773.413
739.854
792.925
891.029
963.376
1019.2
1073.91
1141.2
1294.83
1612.62
1743.85
2269.22
8586.35
8851.95
8412.55
8089
2151.76
1659.8
1603.36
1328.22
1141.11
1050.23
969.068
894.83
820.376
741.474
710.852
760.356
853.529
921.528
978.393
1042.52
1121.8
1310.01
1629.31
1692.69
2282.33
8394.73
8631.14
8228.27
7921.92
2095.68
1590.91
1562.62
1362.75
1131.04
1026.04
935.163
858.281
786.97
712.79
684.383
730.073
817.351
883.011
943.529
1019.64
1111.65
1339.23
1589.78
1620.41
2203.15
8197.91
8435.63
8074.56
7752.82
2141.78
1530.02
1506.6
1415.53
1137.16
1006.34
910.179
828.05
757.753
686.47
659.885
702.306
785.12
849.96
916.952
1002.55
1120.43
1407.55
1534.02
1552.98
2178.13
8011.11
8264.72
7926.04
7601.79
2078.18
1468.12
1441.96
1425.42
1170.38
995.418
889.645
803.669
731.516
662.705
637.829
677.882
758.44
824.14
896.774
993.357
1163.4
1433.25
1469.72
1502.59
2217.8
7836.58
8127.79
7779.66
7427.99
2116.07
1424.46
1377.02
1379.34
1246.49
1003.16
875.299
786.403
711.915
643.065
618.433
656.766
736.376
805.112
881.019
999.992
1237.66
1389.99
1403.03
1448.17
2189.89
7673.53
7996.48
7633.89
7265.28
2169.79
1396.74
1320.39
1327.15
1276.45
1052.97
867.602
771.318
697.315
628.296
601.223
640.31
719.918
789.63
871.413
1047.04
1277.91
1337.11
1342.22
1407.86
2182.22
7515.88
7849.06
7418.75
7069.46
2151.67
1366.19
1270.83
1270.93
1239.11
1132.05
882.37
759.48
685.046
617.089
588.556
628.374
706.979
778.025
886.05
1132.13
1246.66
1279.07
1290.69
1387.74
2227.76
7307.87
7623.77
7139.21
6816.58
2147.71
1347.04
1227.93
1214.57
1196.58
1175.93
937.848
756.683
675.713
607.698
579.856
618.4
696.429
773.283
936.955
1186.48
1204.75
1219.9
1244.19
1364.79
2199.69
7046.45
7335.07
6502.23
6353.88
2132.16
1331.28
1191.61
1165.32
1151.51
1147.55
1029.38
784.84
671.798
599.797
572.062
609.952
689.784
795.581
1029.3
1163.94
1159.86
1170
1204.41
1342.53
2156.45
6571.68
6686.52
5932.49
9025.77
8716.75
7450.32
6128.29
5174.62
4460.39
3863.06
3273.03
2673.6
2096.15
1619.13
1259.97
1014.54
857.391
762.588
702.507
662.456
632.927
609.373
587.837
567.05
546.13
523.002
495.983
464.934
428.993
388.373
349.184
390.236
6089
9595.96
9144.37
7711.96
6257.8
5248.57
4512.31
3921.07
3357.92
2788.66
2219.17
1725.54
1344.04
1073.75
896.204
786.58
716.649
669.753
635.298
608.761
585.231
563.234
541.22
516.944
488.874
456.995
421.541
381.949
344.679
387.309
6351.63
10201.3
9536.91
7945.3
6394.73
5333.83
4581.69
3989.3
3440.03
2887.59
2329.32
1825.63
1425.61
1132.29
934.937
809.883
729.592
675.148
635.674
605.461
579.32
555.9
533.117
508.007
479.42
447.348
412.451
374.397
339.635
383.217
6676.43
10823.5
10083.3
8301.84
6625.45
5491.51
4704.65
4100.7
3560.47
3027.49
2478.85
1963.61
1535.95
1210.57
987.463
843.072
749.517
685.932
640.325
605.832
577.145
552.322
528.78
502.714
473.456
441.19
406.605
369.071
335.978
380.434
6945.65
11466.3
10720.1
8744.69
6920.85
5704.72
4877.18
4255.34
3715.3
3190.72
2644.21
2120.07
1667.36
1307.07
1052.6
884.981
774.893
699.938
646.963
607.621
576.389
550.443
525.94
498.834
468.841
436.548
402.562
365.212
333.51
378.757
7226.76
12191.2
11407.7
9237.22
7262.3
5960.5
5092.52
4447.61
3899.24
3377.57
2831.26
2300.26
1822.37
1425
1135.62
939.642
809.31
720.745
658.543
613.349
578.869
551.411
525.026
496.4
465.661
433.521
399.079
362.372
332.002
378.094
7548.34
12932.5
12125.4
9781.62
7657.6
6267.58
5348.26
4676.51
4118.25
3591.42
3042.46
2499.74
2004.4
1571.91
1242.18
1010.75
855.104
748.989
674.982
622.378
583.394
554.395
525.983
495.139
463.292
429.814
395.529
359.887
330.818
377.822
7868.78
13706
12888.4
10393.7
8107.91
6618.26
5649.77
4950.78
4375.66
3841.85
3286.72
2735.64
2216.34
1747.6
1376.44
1104.03
916.834
787.52
698.028
635.377
591.721
556.358
523.855
491.826
459.964
427.274
393.025
357.502
330.569
378.577
8195.94
14476
13704.5
11078.4
8633.79
7030.98
6008.27
5273.64
4679.33
4138.5
3578.78
3016.47
2471.6
1966.34
1544.69
1222.13
995.031
837.459
728.25
652.319
599.195
556.63
521.061
488.038
456.144
423.846
389.677
354.748
329.538
378.686
8483.99
15269.3
14565.2
11844.9
9253.79
7524.1
6434.23
5657.19
5037.64
4487.02
3923.87
3346.83
2775.16
2234.11
1759.48
1380.22
1103.21
905.61
768.374
674.037
607.635
558.017
519.144
485.034
452.683
420.236
386.296
351.946
328.549
379.06
8768.32
16051.3
15478.3
12702.9
9979.07
8112.6
6938.66
6111.1
5457.43
4891.59
4308.83
3719.57
3129.32
2554.45
2029.41
1588.64
1250.47
1000.51
825.229
704.766
620.987
562.792
519.423
483.302
449.738
416.649
382.835
349.211
327.597
379.491
9049.31
16853.8
16455.1
13648.5
10812.8
8807.97
7534.32
6641.88
5941.25
5342.38
4732.66
4134.17
3530.53
2930.02
2355.66
1851.44
1439.26
1124.5
899.767
746.002
641.803
572.398
521.983
482.781
447.64
413.077
379.445
346.619
326.968
380.287
9383.23
17696.1
17483.3
14674.4
11747.8
9614.98
8233.31
7259.99
6493.82
5831.08
5203.2
4593.88
3979.27
3354.08
2735.2
2166.36
1674.52
1283.11
998.418
804.182
673.426
586.51
526.923
482.83
444.802
409.73
376.189
344.202
326.623
381.33
9694.48
18586.1
18539.6
15771.8
12775.5
10534.4
9041.24
7964.74
7108.13
6380.31
5733.39
5105.38
4474.69
3824.24
3168.09
2538.21
1964.76
1489.37
1132.93
885.451
719.661
610.198
536.959
485.246
443.651
407.027
373.334
342.152
326.52
382.673
9971.1
19465.3
19600
16923.9
13899.8
11563.8
9953.47
8755.71
7787.73
7008.02
6328.02
5672.81
5020.3
4341.78
3654.24
2969.99
2319.39
1754.93
1313.81
997.458
784.625
643.451
551.314
489.829
443.984
405.373
371.129
340.527
326.815
384.434
10200.1
20268.1
20655.3
18110.1
15129.3
12716.6
10985.9
9639.88
8556.54
7719.19
6989.45
6295.28
5613.36
4907.08
4190.73
3463.07
2740.51
2084.58
1546.35
1143.84
870.605
688.536
572.013
497.733
445.924
404.383
368.731
338.411
327.039
386.411
10417.9
20984.9
21691.6
19314.2
16445.9
13996.7
12141.2
10641.2
9441.21
8524.91
7726.37
6977.7
6250.58
5509.39
4760.34
3994.35
3210.42
2469.22
1829.88
1331.8
981.48
747.607
600.645
509.1
447.686
402.479
367.035
337.846
325.891
387.884
10657
21594.4
22680
20522.3
17835
15407.3
13425.7
11789.8
10465.1
9437.84
8546.13
7726.19
6928.21
6138.06
5346.24
4531.17
3698.19
2891.96
2162.06
1565.45
1125.07
826.598
639.777
523.631
452.457
403.497
366.048
336.765
325.891
388.663
10808.5
22061.1
23492.6
21704.3
19278.5
16940.7
14861.4
13105.4
11646.6
10473
9458.21
8543.65
7648.92
6793.98
5952.2
5093.08
4220.66
3366.23
2552.25
1850.83
1310.09
932.957
693.305
546.98
460.879
405.282
364.696
334.815
324.904
389.672
10890.4
22458.4
24127.1
22785.2
20735.2
18589.6
16485
14606.3
12997.7
11657.1
10491.2
9429.36
8427.24
7494.03
6600.07
5701.88
4790.48
3884.48
2996.47
2195.29
1546.23
1073.61
766.224
581.537
473.782
408.908
364.369
333.429
324.237
391.603
11014
22591.3
24485.3
23710.3
22178.2
20354.1
18315.6
16319
14541.3
13013.6
11671.7
10427.1
9291.9
8265.23
7304.12
6353.43
5397.07
4437.92
3485.89
2594.33
1835.97
1254.07
865.562
629.774
493.669
415.602
365.905
333.3
324.233
393.842
11046.6
22640.5
24518.5
24447.7
23622.4
22256.8
20360.3
18269.8
16322
14595.4
13028
11584.2
10283.2
9135.49
8076.14
7047.8
6034.65
5018.56
4010.11
3041.54
2180.31
1481.8
997.131
695.133
521.955
425.873
369.206
334.066
324.257
394.964
11141.3
22284.3
24157.1
24875.6
25057.3
24307.4
22648.9
20499.4
18380.5
16434.8
14596.7
12924.1
11431.2
10118.7
8921.65
7783.46
6697.39
5620.53
4559.86
3528.23
2573.84
1762.49
1164.52
779.448
558.533
439.515
373.557
334.638
324.441
397.247
10981.8
21835.9
23607.1
25222.4
26584.9
26567
25207.6
23050.2
20761.8
18555.7
16435.5
14489.4
12753.3
11212.4
9837.03
8559.11
7393.24
6252.49
5130.14
4040.15
3000.9
2082.73
1368.3
885.952
605.167
455.784
377.811
334.671
323.679
399.275
10431.8
21915
23463.7
25796.4
28307.4
29090.7
28068.2
25957.9
23520.5
21007.1
18559.1
16284.7
14240.1
12423.9
10838.4
9407.51
8151.64
6930.59
5735.08
4577.02
3458.79
2445.31
1613.67
1021.12
665.856
478.053
384.153
335.947
322.702
401.071
387.48
347.406
386.713
426.631
461.535
492.677
520.017
543.429
563.911
584.212
605.157
627.862
657.612
699.533
762.781
862.853
1027.54
1288.72
1665.1
2166.92
2763.43
3369.82
3955.72
4556.93
5296.79
6301.19
7688.23
9008.26
9286.23
6071.62
384.435
342.999
380.175
419.445
454.244
485.94
514.005
538.356
559.819
581.315
604.271
630.377
664.75
713.315
785.978
900.401
1084.5
1366.02
1762.58
2273.35
2853.24
3427.42
3990.13
4588.94
5350.1
6415.74
7939.31
9433.16
9857.77
6228.69
380.38
337.798
372.555
410.926
445.674
477.666
505.92
530.502
552.859
575.837
600.976
630.649
669.659
724.959
807.804
936.474
1139.03
1438.76
1853.7
2365.15
2932.5
3490.61
4039.91
4642.24
5420.79
6539.55
8167.66
9824.71
10473.4
6495.32
377.761
334.515
367.747
405.417
440.072
472.614
501.444
526.917
550.696
575.242
602.392
636.045
681.294
745.293
839.999
986.265
1212.05
1540.62
1981.14
2497.72
3051.1
3590.06
4132.24
4747.75
5562.95
6759.89
8519.33
10375.3
11101
6824.03
376.28
332.153
364.035
401.289
436.18
469.327
498.75
524.982
550.001
576.327
606.147
644.174
696.699
771.043
880.75
1047.45
1300.64
1661.18
2120.27
2648.24
3193.79
3722.29
4265.65
4903.21
5768.23
7047.28
8956.41
11014.4
11750.1
7090.73
375.767
330.78
361.459
398.698
433.799
467.221
497.617
524.832
551.077
579.613
613.132
656.578
717.546
804.35
932.009
1123.62
1408.46
1801.63
2280.7
2814.89
3359.6
3885.76
4436.15
5098.27
6014.54
7382.23
9445.63
11698.3
12475.6
7368.9
375.913
330.397
360.26
397.242
431.396
464.74
496.397
525.026
553.088
584.237
622.478
673.171
744.767
847.427
998.036
1220.75
1541.38
1965.84
2465.13
3005.25
3555.09
4084.65
4645.81
5339.54
6305.24
7764.57
9986.47
12414
13215.4
7692.54
377.635
330.771
358.17
394.677
429.528
462.62
494.491
525.124
555.776
590.673
635.267
695.811
781.314
904.641
1084.72
1346
1706.99
2164.99
2682.79
3231.28
3787.85
4325.45
4904.26
5629.61
6642.94
8203.89
10595.4
13181.9
13984.5
8006.75
377.67
329.974
355.846
391.651
426.934
460.229
492.652
524.91
559.027
599.175
651.886
725.561
830.408
981.171
1199.48
1508.59
1918.91
2412.73
2947.93
3505.11
4066.33
4612.89
5212.61
5974.74
7042.43
8718.18
11268.7
13996.3
14753
8333.82
378.224
329.063
353.373
388.414
423.777
457.84
490.802
525.289
563.437
610.833
674.378
765.27
896.206
1084.51
1351.16
1716.19
2179.01
2705.54
3264.88
3833.56
4399.08
4956.09
5584.79
6388.7
7524.81
9330.25
12028.8
14851.6
15548.7
8618.4
378.58
328.235
350.905
385.086
420.277
454.858
489.151
526.315
569.985
626.638
705.199
819.304
984.998
1222.31
1548.99
1975.6
2487.47
3052.02
3632.66
4217.06
4791.7
5361.95
6026.85
6882.56
8103.98
10050.1
12885.8
15765.4
16332.7
8901.04
379.388
327.659
348.532
381.997
416.721
451.937
487.868
528.014
578.315
646.937
745.846
891.315
1104.27
1403.76
1801
2290.63
2849.76
3442.3
4039.37
4638.84
5239.73
5834.74
6545.33
7467.57
8790.26
10879.2
13829.4
16744.2
17141.9
9190.89
380.459
327.345
346.407
379.493
413.583
449.417
487.619
532.364
591.064
675.47
800.254
985.624
1256.52
1628.77
2103.94
2658.54
3264.18
3881.99
4492.67
5101.34
5729.8
6381.48
7154.61
8159.28
9594.47
11816.2
14854.9
17773.2
17991.9
9529.26
381.778
327.25
344.661
376.742
411.13
447.148
488.566
539.982
611.88
718.43
877.8
1113.85
1455.18
1910.23
2465.32
3081.97
3728.67
4372.04
4998.9
5624.01
6272.59
6999.59
7854.55
8964.76
10511.7
12844
15947.5
18826.3
18885.1
9842.92
383.316
327.624
343.415
374.719
409.459
447.381
492.796
552.909
642.065
779.83
986.244
1288.12
1712.66
2257.23
2888.57
3562.27
4243.35
4914.37
5562.72
6213.54
6893.07
7679.98
8645.63
9880.37
11546.7
13969.7
17088.6
19882.4
19764
10122.4
385.063
328.399
342.731
373.69
408.754
449.991
501.417
574.042
687.473
863.186
1131.28
1516.97
2038.59
2676.9
3380.14
4102.74
4813.15
5510.3
6178.92
6868.86
7596.95
8444
9531.54
10907.7
12703.9
15212.1
18289.4
20932.8
20566.1
10359.3
386.514
328.741
342.034
372.778
408.248
453.619
512.731
601.86
745.124
969.629
1315.75
1800.63
2427.54
3156.87
3926.54
4689.55
5431.04
6158.63
6853.14
7596.3
8394.96
9320.06
10528
12060.3
13986.6
16544.5
19512.4
21965.1
21285.5
10582.6
387.051
327.746
339.972
370.496
409.188
458.609
528.421
639.472
821.118
1107.86
1541.69
2131.66
2858.77
3663.39
4486.56
5293.44
6079.85
6855.86
7623.03
8416.92
9293.04
10330
11669.3
13350.4
15402.3
17942.6
20743.9
22960.5
21897.8
10826.5
386.679
325.649
337.688
369.185
410.714
466.024
550.254
691.656
923.631
1287.66
1819.04
2512.08
3327.02
4190.83
5059.53
5915.03
6753.21
7596.85
8461.4
9336.55
10330.3
11488.9
12968.4
14789.8
16947.4
19397.4
21946.6
23792.1
22365.1
10982.5
388.682
325.65
336.905
368.773
413.663
477.581
581.867
762.132
1058.76
1518.79
2154.98
2950.08
3843.17
4760.29
5675.46
6570.03
7461.19
8380.34
9358.14
10364.4
11509
12841.2
14456.8
16396.7
18607.9
20874.5
23048.8
24436.1
22769.7
11074.8
390.822
326.055
336.808
369.772
418.971
494.438
625.249
855.102
1231.16
1798.77
2545.55
3433.65
4391.34
5361.08
6320.66
7268.52
8225.07
9238.05
10345.4
11551.5
12854.4
14373.3
16159
18218.6
20378.2
22335
23970.4
24809.7
22909.9
11210.4
392.727
325.631
336.355
371.769
426.689
517.774
682.8
974.221
1444.64
2129.51
2984.71
3955.67
4965.89
5990.55
7001.5
8026.87
9078.57
10214.8
11492
12908.8
14417.6
16142.2
18102.8
20253.2
22286.5
23789.4
24708.8
24854.9
22965
11257.8
394.495
324.7
335.909
374.946
437.599
549.1
757.978
1126.2
1704.04
2503.66
3456.89
4497.21
5559.79
6640.64
7721.83
8857.97
10046.2
11347.2
12822.3
14463.6
16244.2
18188.6
20327.3
22537
24344.8
25235.9
25158.3
24498.3
22614.9
11367.1
396.478
324.607
336.844
379.287
452.205
590.141
852.59
1311.34
2001.59
2906.08
3944.81
5042.67
6168.29
7314.42
8482.64
9759.98
11128
12651.9
14366.8
16284
18368.8
20556.9
22874.1
25095.9
26611
26775.5
25521.1
23952.8
22126.2
11219.1
398.496
325.255
339.317
386.193
472.662
643.689
971.684
1533.62
2338.95
3337.87
4453.9
5606.02
6811.2
8039.03
9312.77
10749.6
12329
14139.7
16165.5
18411.1
20821.8
23297
25776
27960.8
29145.2
28524
26114.5
23811.1
22183.9
10643.6
8700.96
8815.52
9153.91
9716.01
10451.8
11300.7
12253.2
13253.5
14293.4
15359.3
16437.6
17513.3
18572.4
19607.4
20612.8
21583.2
22512.8
23397.8
24226.7
24999.4
25728.9
26425.3
27084.8
27705.6
28285.8
28825.3
29324
29783.5
30206.1
30594.8
30952.7
31291
31605.7
31887.3
32149.7
32390.6
32588.3
32735.4
32833
32880.3
32876.2
32816.7
32693.7
32514.7
32290.2
32005.1
31654.1
31230.2
30731.5
30170.1
29540.5
28839.3
28065.8
27223.5
26322.5
25369.5
24370.1
23330.3
22257.1
21160.9
20056.7
18972.6
17908.4
16858.3
15828.9
14823.2
13843.8
12894
11976.6
11094.4
10249.6
9443.42
8676.95
7950.87
7265.91
6622.62
6020.78
5459.62
4938.18
4454.55
4006.86
3592.83
3210.48
2858.21
2534.51
2238.33
1968.87
1725.39
1507.19
1313.72
1144.14
997.722
873.272
769.328
684.186
615.773
561.77
519.775
487.616
463.373
445.502
432.696
423.801
417.804
413.924
411.644
410.618
410.256
410.168
410.523
411.69
413.06
413.816
414.596
415.273
416.08
415.677
414.07
412.276
410.49
409.107
407.673
405.827
403.704
401.162
24646.3
25484.8
26752.5
28440.4
30404.3
32580.3
34909.4
37341.6
39806.9
42276.3
44746.3
47198.4
49608.7
51968.7
54268.2
56500.6
58656.9
60720.1
62673.5
64519.7
66294.7
68017.3
69669.3
71241.5
72732.6
74142.7
75472.5
76725
77906.4
79032.9
80109.2
81098.8
81986.5
82767.3
83440.3
83986.7
84406.4
84708.1
84891
84954.7
84897.4
84717.3
84418.8
83958.7
83374.1
82646.9
81766.3
80722.9
79514.6
78153.9
76636.7
74959.3
73123.6
71139.4
69025.7
66794.9
64456
62018.7
59494
56896.4
54236.8
51512.3
48745.9
45976.5
43263.3
40619.7
38042.7
35545.3
33125.3
30794.4
28563.2
26437.8
24423.8
22525.6
20747.6
19090.4
17551.9
16127.3
14810.5
13593.3
12466.2
11418.6
10440.6
9522.04
8656.09
7836.92
7062.2
6329.98
5640.25
4993.6
4391.3
3834.99
3325.91
2864.85
2452.25
2088.03
1770.77
1497.94
1266.84
1073.47
914.223
785.025
681.783
600.351
536.708
487.509
449.855
421.308
399.238
382.442
370.324
361.331
356.174
354.622
354.062
354.104
351.525
346.595
341.7
337.086
333.568
330.742
328.92
327.498
326.33
38992.8
40341.7
42314.4
44785.3
47559.2
50537.3
53643.4
56819.2
60019.7
63212.3
66377.2
69499.7
72568.9
75577.6
78520.5
81389
84170.4
86852
89429.4
91899.2
94286.5
96606.4
98855.1
101008
103064
105029
106905
108698
110420
112076
113628
115065
116371
117540
118562
119428
120139
120698
121106
121363
121465
121410
121193
120794
120211
119438
118460
117267
115854
114195
112332
110251
107954
105455
102772
99933.6
96946.6
93821.8
90572.2
87214.5
83764.5
80227.3
76608.9
72919.5
69161.5
65361.9
61573.8
57880.5
54282.2
50784.1
47406.6
44155.5
41038.8
38065.8
35245.8
32582.8
30077.9
27728.7
25532.4
23485.6
21581.4
19811.6
18167.5
16640
15220.9
13904.2
12682.2
11548.2
10496.3
9521.89
8619.67
7784.3
7011.03
6295.65
5632.94
5019.01
4450.5
3925.27
3442.36
2999.88
2599.15
2239.91
1922.6
1645.49
1406.17
1203.39
1033.85
894.78
779.898
687.626
614.081
554.85
511.838
481.507
459.51
443.431
426.681
408.462
392.361
378.983
368.141
359.546
353.045
347.675
343.019
55310.4
57191.5
59852.1
63025.5
66480.7
70097.6
73794.9
77516.9
81228.9
84911.2
88553
92148.5
95695
99190.3
102630
106006
109305
112518
115640
118670
121618
124496
127304
130027
132656
135200
137662
140044
142348
144553
146643
148595
150395
152031
153494
154778
155885
156820
157583
158174
158593
158832
158883
158729
158356
157750
156896
155780
154385
152699
150736
148496
145983
143213
140154
136914
133480
129854
126050
122077
117973
113723
109328
104799
100162
95439.2
90645.2
85758.7
80833.3
75946.3
71224.8
66638.5
62197.7
57935.5
53860.8
49981.3
46306.2
42837.1
39571.6
36508.5
33644.2
30972.9
28486.8
26178.6
24039.7
22061.6
20233.4
18544.8
16987.2
15549
14221.4
12996.3
11866.2
10822.7
9856.64
8960.96
8128.87
7354.23
6633.43
5960.66
5334.85
4752.63
4214.3
3718.39
3263.74
2850.9
2477.84
2146.41
1853.38
1596.88
1373.35
1182.54
1031.37
913.388
817.963
738.611
666.912
601.636
547.548
504.681
471.791
446.596
425.668
409.194
396.201
73690.7
76102.5
79397.5
83192.2
87231.5
91379.5
95557.4
99720.5
103846
107927
111967
115971
119946
123890
127800
131664
135469
139207
142878
146479
150004
153457
156845
160169
163421
166599
169703
172723
175649
178469
181156
183684
186033
188190
190149
191911
193482
194868
196077
197110
197967
198640
199114
199367
199378
199124
198581
197726
196538
195008
193134
190920
188373
185501
182316
178860
175151
171199
167015
162497
157841
152965
147850
142509
136975
131295
125475
119525
113474
107371
101187
95007.9
88919.5
83090.1
77488.1
72118.6
67011.8
62166.4
57583.6
53272.9
49231.9
45457.2
41937.4
38664.7
35627.4
32813
30209.2
27801.6
25577.7
23522
21622.4
19868.6
18247.3
16746.8
15356.6
14066.7
12869.4
11755.9
10719.7
9753.11
8853.91
8017.25
7240.32
6518.64
5847.3
5226.81
4652.13
4125.81
3646.25
3208.59
2803.53
2437.59
2125.21
1868.13
1643.73
1445.18
1260.97
1088.79
940.3
819.029
722.756
645.713
584.679
537.053
500.4
93437.7
96337.4
100147
104446
108951
113519
118078
122598
127072
131508
135922
140326
144728
149126
153511
157867
162179
166442
170669
174851
178955
182981
186946
190875
194769
198602
202359
206022
209565
212989
216250
219319
222173
224802
227210
229406
231411
233238
234902
236409
237757
238933
239914
240669
241168
241379
241268
240804
239959
238719
237082
235048
232628
229829
226672
223180
219376
215273
210873
206153
201135
195810
190159
184172
177794
171248
164476
157474
150263
142975
135600
128172
120727
113281
105936
98784.2
91998.9
85549.3
79435.5
73680.8
68281.2
63225.7
58513
54131.1
50062.4
46289.7
42791.2
39549.5
36543.2
33753.7
31164
28753.8
26511.1
24424.7
22482.6
20673.8
18988.9
17420.2
15956.4
14592.4
13325.5
12145.3
11048.9
10032.8
9090.05
8219.43
7412.06
6665.32
5978.32
5346.03
4755.58
4210.29
3726
3324.6
2973.92
2645.97
2330.15
2020.52
1731.54
1477.21
1261.51
1079.33
928.964
808.141
714.532
113734
117034
121204
125851
130677
135539
140378
145177
149944
154699
159462
164248
169058
173886
178714
183522
188297
193040
197774
202485
207101
211627
216102
220574
225053
229465
233789
237993
242039
245898
249552
252961
256104
258988
261633
264072
266339
268458
270445
272313
274056
275658
277082
278291
279250
279917
280248
280202
279749
278876
277580
275867
273749
271234
268329
265045
261396
257394
253038
248315
243219
237745
231887
225622
218950
211934
204586
196894
188655
180368
171908
163283
154575
145941
137386
128918
120531
112352
104503
97149.3
90251
83809
77817.9
72256.7
67101.5
62319.6
57882.8
53760.2
49919.4
46332.2
42973.2
39826.8
36877.5
34111.9
31517.1
29080.6
26793.4
24650.8
22647
20771.4
19017.4
17382.9
15864.5
14457.5
13151.9
11945
10827.8
9793.54
8839.18
7960.48
7147.13
6398.68
5724.92
5156.23
4677.35
4224.57
3780.74
3342.71
2914.41
2514.84
2159.03
1841.57
1560.13
1318.79
1123.63
133679
137262
141641
146484
151485
156510
161515
166499
171481
176486
181533
186629
191766
196927
202085
207221
212329
217427
222536
227583
232504
237343
242145
246978
251829
256576
261194
265642
269870
273812
277456
280769
283766
286476
288955
291257
293426
295487
297456
299359
301191
302925
304519
305929
307118
308038
308637
308868
308714
308171
307251
305977
304363
302397
300055
297322
294203
290710
286844
282587
277927
272848
267324
261333
254884
247989
240650
232879
224639
216017
207048
197750
187990
178414
168859
159333
149906
140666
131631
122793
114357
106467
99180.7
92444.8
86226
80468.1
75122.8
70140.8
65478
61095.7
56963.2
53061.2
49365.4
45863.7
42545.1
39400.8
36426.4
33618.5
30973.4
28484.8
26146.9
23957.6
21913.1
20006.3
18233.1
16590.7
15071.2
13662
12360.7
11162.6
10060.7
9052.92
8143.21
7357.05
6702.27