/*--------------------------------*- C++ -*----------------------------------*\
| =========                 |                                                 |
| \\      /  F ield         | OpenFOAM: The Open Source CFD Toolbox           |
|  \\    /   O peration     | Version:  2112                                  |
|   \\  /    A nd           | Website:  www.openfoam.com                      |
|    \\/     M anipulation  |                                                 |
\*---------------------------------------------------------------------------*/
FoamFile
{
    version     2.0;
    format      ascii;
    arch        "LSB;label=32;scalar=64";
    class       surfaceScalarField;
    location    "0.00184";
    object      phi;
}
// * * * * * * * * * * * * * * * * * * * * * * * * * * * * * * * * * * * * * //

dimensions      [1 0 -1 0 0 0 0];

oriented        oriented;

internalField   nonuniform List<scalar> 
27436
(
-0.533419
8.19262
-0.0934622
7.47124
-0.0828262
7.78555
-0.0693139
7.7865
-0.0692397
7.79278
-0.0544385
7.78226
-0.0399881
7.78259
-0.028214
7.78456
-0.0196983
7.78835
-0.0185175
7.79406
-0.0101773
7.78882
0.00363757
7.78324
0.0182037
7.78256
0.0340335
7.7817
0.0445379
7.78541
0.0475254
7.79195
0.0544692
7.78975
0.0638974
7.786
0.0784621
7.78234
0.0952799
7.78059
0.095558
7.79241
0.111051
7.78546
0.123661
7.78237
0.573471
7.46075
8.21689
-0.246984
8.43961
-0.0964723
7.32072
-0.0818656
7.77093
-0.0574013
7.76204
-0.0553884
7.79077
-0.0475023
7.77438
-0.038301
7.77337
-0.0409477
7.78715
-0.0222674
7.76956
-0.00984032
7.78163
0.00618649
7.77295
0.00748217
7.78199
0.0139923
7.776
0.0206164
7.77519
0.0207383
7.78536
0.0423573
7.77118
0.0625311
7.76973
0.0576741
7.79071
0.0665252
7.7736
0.075428
7.77162
0.0735205
7.79413
0.103132
7.75584
0.114346
7.77091
0.268406
7.30792
8.48884
-0.2274
8.66701
-0.141465
7.23482
-0.120858
7.75032
-0.107938
7.74915
-0.0983297
7.78117
-0.0935268
7.76953
-0.0907993
7.77057
-0.0890965
7.78537
-0.0621887
7.74239
-0.0520189
7.77131
-0.0258959
7.74663
-0.023312
7.77934
-0.016411
7.76905
-0.0118769
7.7707
-0.00399344
7.77704
0.0119555
7.75504
0.0397035
7.74222
0.0443191
7.78597
0.0478742
7.77023
0.0523792
7.76712
0.0628653
7.78365
0.0787773
7.73999
0.100901
7.7488
0.192151
7.21733
8.67757
-0.170009
8.837
-0.140211
7.20502
-0.134767
7.74487
-0.112678
7.72708
-0.104695
7.77319
-0.0992795
7.76405
-0.0960132
7.76722
-0.0836198
7.77293
-0.060895
7.71999
-0.0451861
7.75556
-0.0210207
7.72232
-0.0104156
7.76863
-0.00228276
7.76087
0.00584328
7.76257
0.0186038
7.76377
0.035427
7.73792
0.059787
7.71734
0.0752764
7.77031
0.0792371
7.76644
0.0850229
7.76131
0.0923625
7.77636
0.11845
7.71397
0.111745
7.75566
0.162671
7.16568
8.83556
-0.0742794
8.91127
-0.0373833
7.16814
-0.0916482
7.79914
-0.0586032
7.69403
-0.0592758
7.77388
-0.0591367
7.76385
-0.05947
7.76747
-0.0474818
7.76092
-0.0288295
7.70176
-0.0144296
7.74113
0.00601671
7.70161
0.0158735
7.75863
0.0226772
7.75403
0.0270635
7.75811
0.0406055
7.74962
0.052239
7.72578
0.0731786
7.69577
0.0890058
7.75426
0.0887568
7.76684
0.0898773
7.76016
0.0928127
7.77347
0.123916
7.68298
0.0902527
7.78945
0.0977325
7.15758
8.93145
0.116184
8.79509
0.0428004
7.24154
-0.0492447
7.89119
-0.00780297
7.65262
-0.021479
7.78757
-0.0292421
7.7716
-0.0335658
7.77176
-0.025314
7.75272
-0.0123426
7.68895
-0.00260851
7.73141
0.0125168
7.68599
0.0203437
7.75062
0.0234847
7.7508
0.0240455
7.75738
0.0337872
7.73933
0.0406491
7.71817
0.0552649
7.68083
0.0673726
7.74186
0.063411
7.77088
0.057426
7.76614
0.0464822
7.78455
0.0865185
7.64307
-0.013867
7.8901
-0.0199777
7.16354
8.91304
0.302726
8.49241
0.135188
7.40914
-0.00438774
8.03136
0.0284482
7.61926
-0.0104722
7.82653
-0.0431722
7.80429
-0.0690568
7.79764
-0.078643
7.76239
-0.0851156
7.69554
-0.100438
7.74677
-0.106381
7.6913
-0.113863
7.75791
-0.128006
7.76486
-0.151299
7.78045
-0.153154
7.74049
-0.16982
7.73407
-0.180478
7.69086
-0.185813
7.74691
-0.209927
7.79506
-0.241816
7.79807
-0.269568
7.81247
-0.287962
7.6616
-0.354708
7.95712
-0.657806
7.46625
8.25767
0.871322
7.6212
0.520891
7.75965
0.415081
8.13729
0.338737
7.69562
0.278471
7.88688
0.225977
7.85684
0.184134
7.83953
0.160686
7.78588
0.136066
7.72022
0.107061
7.77596
0.0875165
7.71018
0.067683
7.77754
0.0383629
7.79411
0.00721722
7.81146
-0.017332
7.76416
-0.0430132
7.75874
-0.0675704
7.71506
-0.0900384
7.76907
-0.128773
7.83378
-0.177945
7.84731
-0.234887
7.86965
-0.282792
7.70968
-0.406955
8.08155
-0.693895
7.75312
7.56686
0.597144
7.02437
0.408869
7.94821
0.242741
8.30357
0.197051
7.74155
0.143906
7.94019
0.104117
7.89673
0.0804315
7.86329
0.0777495
7.78861
0.07515
7.72289
0.0741108
7.77734
0.0732456
7.71028
0.0812963
7.76939
0.0795493
7.7959
0.0738292
7.81726
0.0769808
7.76018
0.0738554
7.76026
0.0699159
7.71877
0.0710632
7.76785
0.052356
7.85258
0.0167467
7.88297
-0.0332758
7.91981
-0.049441
7.72601
-0.220152
8.25268
-0.373328
7.90653
7.19425
-3.02709
10.0514
-3.40468
8.32601
-2.77359
7.6729
-2.61688
7.58518
-2.31037
7.63404
-2.008
7.59432
-1.7085
7.56368
-1.38065
7.46081
-1.10168
7.44443
-0.796126
7.47223
-0.510759
7.42412
-0.205377
7.46415
0.101622
7.48909
0.407757
7.5116
0.703138
7.46468
0.99094
7.47032
1.25715
7.45239
1.5943
7.43147
1.90225
7.54507
2.20216
7.58316
2.50415
7.61745
2.63466
7.59547
3.21188
7.6756
2.93518
8.18387
10.1281
-4.26695
14.3196
-4.7318
8.7929
-4.15643
7.09899
-3.82238
7.25282
-3.40011
7.21212
-2.9189
7.11296
-2.41254
7.05669
-1.94773
6.99627
-1.50065
6.99844
-1.02895
7.00125
-0.585832
6.98056
-0.118611
6.99747
0.3538
7.01699
0.832035
7.03421
1.28105
7.01633
1.72188
7.0272
2.15279
7.02128
2.60488
6.98062
3.13126
7.01974
3.62807
7.08642
4.06322
7.18156
4.38687
7.27141
4.5877
7.47475
4.51716
8.25542
14.6447
-2.54922
16.8721
-5.45143
11.6944
-4.8711
6.51589
-4.17065
6.5543
-3.82821
6.86993
-3.35907
6.64274
-2.8291
6.52588
-2.31339
6.48147
-1.7968
6.48386
-1.27695
6.48302
-0.772902
6.47739
-0.257647
6.48357
0.278315
6.48173
0.803811
6.50999
1.31271
6.50921
1.82282
6.51683
2.33162
6.51305
2.82343
6.49096
3.34454
6.50095
3.84807
6.58362
4.27336
6.75498
5.0243
6.51855
4.88843
7.61045
2.69119
10.4545
17.3364
2.12244
14.754
1.40028
12.4082
-3.7048
11.6473
-3.60265
6.46136
-4.03988
7.3076
-3.59537
6.19609
-3.04058
5.97082
-2.4992
5.94202
-1.94921
5.93695
-1.43735
5.97423
-0.858419
5.90135
-0.341333
5.96895
0.24535
5.89659
0.793924
5.96323
1.34329
5.96318
1.88942
5.97383
2.42305
5.98211
2.94589
5.9725
3.49826
5.95288
3.94352
6.14057
3.78651
6.90885
4.76857
5.53294
-0.675785
13.0538
-2.3872
12.1693
14.9499
2.50029
12.2575
3.35976
11.5412
3.63089
11.3707
-0.0222628
10.1269
-4.43205
11.7201
-4.15638
5.9206
-3.45668
5.27063
-3.01967
5.50782
-2.24331
5.16387
-1.82328
5.55866
-1.08327
5.16491
-0.627701
5.51703
0.0552402
5.21613
0.619465
5.4019
1.25822
5.32731
1.82802
5.40747
2.45341
5.36111
2.97546
5.45603
3.64027
5.29316
3.7138
6.06952
-0.485867
11.1073
-4.70213
9.74938
-3.74624
12.0995
-2.91532
11.3405
12.0346
1.89167
10.3663
3.6979
9.73362
5.05173
10.0119
5.58759
9.5975
5.65326
11.6621
2.4091
9.17139
1.04547
6.63862
-0.230894
6.78946
-0.474776
5.41628
-0.668307
5.75826
-0.17449
4.68133
-0.0704407
5.41825
0.517352
4.63713
0.713216
5.21203
1.08112
4.96712
1.13518
5.35908
1.07499
5.4281
-0.0759142
6.61382
-1.50811
6.73244
-4.27832
8.84159
-4.58911
11.4168
-4.16077
9.32408
-2.47092
10.4143
-1.13394
10.005
10.8988
0.995625
9.36942
1.66102
9.06698
2.77041
8.90281
3.67734
8.69555
3.54206
11.8029
1.42827
11.2911
0.221426
7.85634
-0.109335
7.12834
-0.068312
5.38679
-0.20756
5.90619
0.169642
4.3139
-0.0427273
5.64098
0.274057
4.33097
0.338956
5.15826
0.455226
4.8595
0.535852
5.29021
0.658274
5.31725
0.38377
6.90166
-0.148137
7.27176
-1.65576
10.3533
-2.15942
11.9327
-2.06
9.2311
-0.97289
9.33227
-0.274332
9.30671
10.6234
1.29545
8.07498
1.98962
8.37776
1.16425
9.73396
0.321178
9.54042
-0.434649
12.5607
-0.565117
11.4262
0.347872
6.94176
0.998432
6.47536
0.721239
5.66276
1.00349
5.62251
0.291795
5.02072
0.518312
5.41335
-0.051655
4.89679
-0.115102
5.21956
-0.417654
5.15865
-0.511446
5.38407
-0.859951
5.6664
-0.350597
6.3919
0.257224
6.66197
0.932291
9.67512
0.0213068
12.8503
-1.39931
10.6617
-2.24688
10.1868
-1.97149
9.03418
8.65192
1.51725
6.56315
1.00033
8.90083
0.292556
10.4463
-0.292562
10.1275
1.14915
11.1188
2.54247
10.0309
1.93167
7.54948
1.71299
6.6915
1.2683
6.10446
0.94287
5.94415
0.368928
5.59034
0.0850495
5.69367
-0.468585
5.44598
-0.841941
5.5895
-1.28751
5.60128
-1.7214
5.81485
-2.14964
6.09103
-2.2639
6.50254
-2.84155
7.23526
-2.61645
9.4441
-0.935158
11.1708
-1.50594
11.2414
-2.2489
10.9364
-2.16783
8.95735
6.48681
3.26684
3.30044
5.62263
6.55283
5.84148
10.2273
5.77793
10.191
6.2696
10.6263
5.9147
10.3839
4.61868
8.84255
3.67952
7.62788
2.90075
6.88123
2.19891
6.64518
1.43934
6.34712
0.753107
6.37669
0.0113799
6.18319
-0.701289
6.29789
-1.43914
6.33488
-2.17208
6.54431
-2.91516
6.8316
-3.8107
7.39538
-5.16906
8.59222
-6.00053
10.2727
-5.57984
10.747
-4.77902
10.4398
-4.61614
10.7714
-3.016
7.36606
3.47652
1.50128
1.8018
3.58808
4.47377
5.10179
8.7143
5.68913
9.60369
6.22162
10.0936
6.11665
10.4875
5.04133
9.91568
3.83206
8.83459
2.81493
7.89595
1.95625
7.5031
1.1246
7.17704
0.318152
7.18129
-0.512936
7.01214
-1.339
7.12163
-2.18029
7.17332
-3.08418
7.44564
-4.12964
7.87508
-5.43511
8.7004
-6.71423
9.87097
-6.93028
10.4847
-6.32964
10.1421
-5.65582
9.76322
-3.99296
9.10731
-1.54928
4.92723
1.93034
0.234968
1.56915
0.289917
4.37865
1.75364
7.29781
2.97614
8.3815
3.78118
9.2878
4.03627
10.2319
3.58205
10.368
2.83598
9.57829
2.10698
8.62325
1.44394
8.16532
0.760735
7.85905
0.100014
7.84086
-0.595294
7.70722
-1.27189
7.79677
-1.97334
7.87342
-2.68148
8.15267
-3.45848
8.6517
-4.30269
9.54574
-4.79317
10.3602
-4.46661
10.1545
-3.5655
9.23836
-2.28431
8.48169
-0.675404
7.50137
-0.25634
4.51945
1.67701
-0.979842
2.55245
-0.836925
4.23626
0.308331
6.15641
1.23985
7.45045
1.9502
8.57736
2.25308
9.92687
2.20504
10.4142
1.89071
9.89126
1.46551
9.04771
1.03741
8.59309
0.593226
8.30379
0.129926
8.30585
-0.351299
8.18987
-0.823249
8.26929
-1.27208
8.32222
-1.71064
8.59117
-2.13082
9.07411
-2.43551
9.85375
-2.44632
10.3729
-2.11137
9.81705
-1.34364
8.46882
-0.326466
7.46491
0.773992
6.40656
0.982576
4.31399
2.66166
-0.863452
3.42315
-1.19524
4.56949
-0.800073
5.76334
-0.16324
6.81311
0.368648
8.04552
0.684454
9.61101
0.899151
10.1982
0.9721
9.81835
0.870183
9.14981
0.677954
8.78485
0.425643
8.55642
0.180957
8.55188
-0.0937012
8.46679
-0.341199
8.51819
-0.582733
8.56374
-0.753711
8.76197
-0.814106
9.13638
-0.703107
9.74751
-0.465365
10.1377
-0.174964
9.52438
0.342904
7.9509
0.971642
6.836
1.34489
6.0368
0.894812
4.76564
3.55543
-0.74231
4.16143
-1.52118
5.34783
-1.64337
5.88745
-1.43131
6.60071
-1.13141
7.74488
-0.722611
9.20051
-0.321673
9.7967
-0.073849
9.57128
0.0244688
9.05288
0.0517787
8.75741
0.0119179
8.59484
-0.0743609
8.64004
-0.17135
8.56674
-0.257938
8.6068
-0.292979
8.59856
-0.275315
8.74369
-0.182459
9.04395
0.0611825
9.50685
0.48379
9.71775
0.922218
9.08509
1.20976
7.66404
1.46028
6.58626
1.41278
6.08668
0.707016
5.47223
4.25114
-0.420463
4.58427
-1.19972
6.1325
-1.63126
6.31992
-1.69429
6.66361
-1.5609
7.61227
-1.18136
8.82089
-0.740468
9.35574
-0.407837
9.24063
-0.213487
8.86015
-0.125791
8.67121
-0.109848
8.58112
-0.0911283
8.62412
-0.0937503
8.57267
-0.0786624
8.59462
-0.0598068
8.58191
0.0321208
8.652
0.251036
8.8252
0.600313
9.15896
1.05609
9.26552
1.44569
8.69605
1.54985
7.56183
1.45901
6.679
1.05652
6.49123
0.339591
6.1908
4.58414
-0.301933
4.88726
-1.10352
6.93618
-1.71893
6.93571
-1.89822
6.84293
-1.84639
7.55975
-1.50803
8.48164
-1.07953
8.92724
-0.711624
8.87325
-0.457336
8.60695
-0.273401
8.48784
-0.122701
8.43106
-0.0162094
8.51827
0.0723812
8.48608
0.175502
8.49403
0.3292
8.43008
0.52359
8.45855
0.784993
8.56414
1.15973
8.78501
1.59312
8.83223
1.91515
8.37218
1.96143
7.51613
1.78752
6.85464
1.22549
7.05407
0.423014
6.99561
5.0108
-0.387402
5.27181
-1.41037
7.95846
-1.85128
7.37403
-2.16499
7.15692
-2.19868
7.59526
-1.93936
8.22346
-1.52905
8.51707
-1.12392
8.46957
-0.811726
8.29602
-0.593328
8.27105
-0.433832
8.27242
-0.260457
8.34671
-0.0894079
8.31652
0.0859761
8.32108
0.256585
8.26221
0.481883
8.23508
0.794344
8.25254
1.1786
8.4027
1.56753
8.44616
1.83016
8.11159
1.82587
7.52165
1.55984
7.12224
1.15364
7.46074
0.210276
7.93887
5.22841
-0.406298
5.67367
-1.19081
8.75274
-1.5878
7.77647
-1.93683
7.50785
-1.97795
7.63685
-1.76137
8.00582
-1.41311
8.1682
-1.06419
8.12099
-0.775823
8.00785
-0.527798
8.02459
-0.285672
8.03221
-0.0863208
8.14771
0.109808
8.12144
0.312073
8.11985
0.554808
8.02099
0.807068
7.98394
1.09771
7.96247
1.44965
8.05152
1.79145
8.10494
1.9718
7.93072
1.94006
7.55547
1.60562
7.45773
1.21035
7.85703
0.438953
8.71288
5.67648
-0.529967
6.19344
-1.12357
9.34582
-1.55259
8.20916
-1.75632
7.71077
-1.91239
7.79672
-1.77927
7.87388
-1.45946
7.84815
-1.10153
7.76218
-0.784982
7.69061
-0.516016
7.75523
-0.289276
7.80436
-0.0386514
7.89671
0.201029
7.88242
0.451354
7.87048
0.67499
7.79819
0.942569
7.71719
1.26193
7.64376
1.61337
7.70131
1.91919
7.80117
2.03628
7.8143
1.8675
7.72529
1.68243
7.64496
1.34613
8.19607
0.729265
9.33142
6.42094
-0.898296
7.0837
-1.35064
9.79587
-1.77623
8.63899
-1.97227
7.90303
-2.0867
7.91023
-1.9951
7.78291
-1.7231
7.57601
-1.41296
7.45245
-1.12365
7.402
-0.855213
7.48778
-0.563893
7.51429
-0.31282
7.64729
-0.0483874
7.61835
0.208693
7.61436
0.500846
7.50739
0.774321
7.44451
1.05135
7.36745
1.34843
7.40586
1.6079
7.54317
1.68449
7.73845
1.63008
7.77918
1.44645
7.82593
1.11437
8.52793
0.579659
9.86166
6.99227
-0.59549
7.67631
-1.20592
10.4123
-1.57891
9.01738
-1.75472
8.08349
-1.75173
7.9112
-1.67091
7.70061
-1.45803
7.36126
-1.17992
7.17288
-0.894574
7.11499
-0.613575
7.20526
-0.365998
7.26579
-0.0813557
7.36038
0.18947
7.34778
0.467573
7.33567
0.713117
7.26127
0.988175
7.16806
1.26949
7.08427
1.53466
7.14042
1.73839
7.33897
1.79879
7.67971
1.76538
7.81498
1.56754
8.02691
1.32581
8.77422
0.828739
10.357
7.81525
-0.264268
7.94017
-0.721119
10.8801
-1.45681
9.75671
-1.56108
8.18686
-1.58763
7.92737
-1.49187
7.60499
-1.2925
7.1614
-1.08628
6.96485
-0.859364
6.88721
-0.619833
6.96538
-0.333064
6.97981
-0.0791654
7.10869
0.185446
7.08287
0.436025
7.08654
0.71606
6.98229
0.951106
6.93371
1.16429
6.87017
1.38012
6.92263
1.58444
7.13529
1.68
7.58299
1.6793
7.81106
1.66501
8.03519
1.00185
9.43019
0.527433
10.8329
8.34112
-0.487455
8.44276
-0.888918
11.2802
-1.71308
10.5727
-1.72229
8.19195
-1.71421
7.92388
-1.60316
7.49267
-1.43667
6.99257
-1.21329
6.74
-0.988004
6.66048
-0.736141
6.71183
-0.505578
6.7476
-0.232517
6.83341
0.0291233
6.8203
0.302627
6.81129
0.535728
6.74864
0.787088
6.68165
1.01671
6.63994
1.22753
6.70998
1.36876
6.99221
1.46584
7.48557
1.41949
7.86078
1.32189
8.13249
0.555901
10.1824
0.226562
11.1561
8.56769
-0.117685
8.56104
-0.468668
11.6377
-1.12079
11.2201
-1.45271
8.52047
-1.4686
7.93485
-1.33523
7.35737
-1.16457
6.81964
-0.986444
6.55903
-0.796939
6.46958
-0.59084
6.50511
-0.32006
6.47627
-0.0769021
6.58942
0.182775
6.55904
0.421447
6.57234
0.683686
6.4863
0.885927
6.47934
1.06363
6.46024
1.24886
6.52117
1.43607
6.8024
1.56371
7.35635
1.56208
7.85895
1.40471
8.2892
0.574456
11.0031
0.261139
11.4709
8.83622
0.0545489
8.50841
-0.0835965
11.7694
-0.756503
11.8871
-1.36951
9.11599
-1.28527
7.84629
-1.2111
7.28199
-1.0684
6.67675
-0.910474
6.40064
-0.722412
6.2806
-0.504656
6.28617
-0.317378
6.28772
-0.0789257
6.34954
0.147024
6.3307
0.384393
6.33231
0.572192
6.29721
0.788159
6.26392
0.972861
6.27761
1.11396
6.3798
1.25905
6.65553
1.33307
7.27705
1.48091
7.70478
0.812584
8.9453
0.224545
11.5844
-0.0090489
11.7039
8.83872
-0.239496
8.73624
-0.333524
11.8593
-0.697409
12.2393
-1.35593
9.77728
-1.35392
7.84291
-1.27501
7.20243
-1.10978
6.51055
-0.950432
6.24015
-0.801612
6.1304
-0.647632
6.13101
-0.409289
6.04705
-0.206325
6.14368
0.019979
6.10157
0.226248
6.12421
0.461008
6.06047
0.615873
6.10675
0.764065
6.12728
0.928798
6.21515
1.08933
6.49529
1.13378
7.23387
1.0942
7.74298
0.394158
9.64061
-0.0852292
12.0522
-0.136283
11.7505
8.69883
-0.0713709
8.80506
0.0407327
11.739
-0.202775
12.4717
-0.963108
10.5407
-1.16194
8.03546
-1.05714
7.0971
-0.951574
6.40464
-0.802324
6.09041
-0.632769
5.96012
-0.43145
5.92816
-0.272637
5.88658
-0.0545902
5.92339
0.145038
5.89936
0.359094
5.9069
0.51247
5.90516
0.708841
5.91
0.877202
5.95943
1.00432
6.08743
1.12604
6.37263
1.26844
7.09037
1.05136
7.9575
0.377835
10.3001
0.138457
12.2831
0.173034
11.7024
8.85537
0.0647661
8.74495
0.175147
11.6223
0.234224
12.4081
-0.453146
11.2226
-1.02576
8.61111
-0.907448
6.9803
-0.822013
6.32021
-0.702409
5.97052
-0.562489
5.81921
-0.430853
5.79518
-0.230127
5.68434
-0.0662517
5.75772
0.123262
5.70722
0.284102
5.74369
0.486423
5.69996
0.616905
5.77707
0.74971
5.82517
0.876773
5.96149
0.956886
6.29482
1.13134
6.91642
0.618988
8.47138
-0.0243899
10.9391
-0.0709782
12.3249
0.00835234
11.6119
8.85456
-0.18316
8.93045
-0.162339
11.601
0.0482671
12.2027
-0.353226
11.6202
-0.93972
9.19134
-1.00812
7.04429
-0.881761
6.19365
-0.791107
5.87927
-0.657551
5.68486
-0.473031
5.6096
-0.334989
5.54413
-0.153296
5.57388
0.00929781
5.54288
0.193174
5.55738
0.325237
5.56513
0.500073
5.59882
0.633328
5.69012
0.70817
5.88606
0.803137
6.19942
0.66311
7.05273
-0.00773766
9.13639
-0.42879
11.3637
-0.142824
12.0301
-0.0654996
11.5318
8.78294
-0.0268456
8.95704
0.0574395
11.5203
0.41334
11.8358
0.159237
11.8696
-0.576074
9.93066
-0.826869
7.30054
-0.669264
6.03778
-0.603586
5.81334
-0.484888
5.56631
-0.371889
5.49599
-0.195173
5.36632
-0.0489822
5.42643
0.120006
5.37254
0.262036
5.41354
0.440053
5.38569
0.555302
5.48368
0.668888
5.57571
0.737927
5.81515
0.894032
6.04458
0.687298
7.26729
-0.0261194
9.86521
-0.221508
11.5541
0.127706
11.6616
0.160927
11.5048
8.94514
0.0838003
8.87509
0.148143
11.47
0.41633
11.5708
0.551029
11.7356
-0.0321639
10.4973
-0.5406
7.80636
-0.634388
6.13005
-0.537601
5.71533
-0.459691
5.48685
-0.308231
5.34369
-0.195738
5.25293
-0.0417547
5.27154
0.0932841
5.23673
0.248798
5.25662
0.358504
5.27293
0.510976
5.32509
0.587993
5.49473
0.685703
5.71448
0.629746
6.09821
0.179686
7.69788
-0.317358
10.3509
-0.276629
11.5218
0.00155404
11.3946
0.0585351
11.4538
9.01561
-0.109023
8.99001
-0.0578603
11.4247
0.142016
11.368
0.484783
11.3799
0.0391121
10.9419
-0.493432
8.33136
-0.638986
6.2774
-0.553503
5.62967
-0.474175
5.40858
-0.396643
5.26526
-0.251665
5.10753
-0.135356
5.15443
0.00758372
5.09325
0.133104
5.1307
0.275891
5.13109
0.347671
5.25528
0.421524
5.42077
0.492247
5.63917
0.267224
6.32211
-0.35354
8.31209
-0.716904
10.7155
-0.371917
11.1794
-0.212581
11.2422
-0.146705
11.3877
8.87402
0.0422251
8.95116
0.0961615
11.3778
0.262013
11.2115
0.580878
11.0757
0.632157
10.8913
0.0165157
8.9487
-0.416913
6.70711
-0.466465
5.67739
-0.372353
5.31268
-0.255147
5.14784
-0.167155
5.01977
-0.0325831
5.01919
0.0858115
4.97434
0.213594
5.00196
0.304768
5.03776
0.429165
5.12571
0.511447
5.3342
0.474057
5.67449
0.0888271
6.70044
-0.528529
8.9033
-0.427947
10.6118
-0.118246
10.8973
0.0488623
11.0956
0.10967
11.326
8.99089
0.173806
8.77495
0.29021
11.2631
0.393566
11.0988
0.618856
10.8277
0.900263
10.6008
0.32382
9.52288
-0.129691
7.16282
-0.318417
5.86505
-0.2701
5.26525
-0.228069
5.10511
-0.130332
4.92214
-0.0341995
4.92218
0.0815065
4.85815
0.177207
4.90579
0.276079
4.94102
0.327202
5.07493
0.382557
5.27602
0.26039
5.79255
-0.187799
7.14547
-0.761281
9.47531
-0.480008
10.3241
-0.241703
10.6403
-0.135635
10.9879
-0.0614963
11.2543
8.9298
-0.0162144
8.78458
0.0699721
11.1764
0.149974
11.0179
0.379826
10.6116
0.801924
10.184
0.661464
9.66991
0.00303127
7.81899
-0.338354
6.20437
-0.33281
5.2578
-0.25367
5.02456
-0.182352
4.8507
-0.0905979
4.82967
0.00164557
4.76477
0.090964
4.81537
0.154562
4.87448
0.214101
5.01519
0.19366
5.29403
-0.128729
6.1102
-0.820097
7.81919
-0.878274
9.5448
-0.575949
10.0281
-0.362946
10.4409
-0.287357
10.9059
-0.164846
11.1195
8.75184
0.11065
8.67005
0.290972
10.9941
0.351219
10.9497
0.530706
10.4303
0.808044
9.90759
0.957492
9.51731
0.465523
8.31314
-0.0272551
6.69044
-0.173367
5.40377
-0.166969
5.01797
-0.0925083
4.77649
-0.023637
4.75944
0.0551006
4.6851
0.125504
4.74376
0.192749
4.80698
0.216288
4.99226
0.0709313
5.43708
-0.387342
6.56347
-0.824216
8.26298
-0.666294
9.3906
-0.431677
9.79904
-0.24361
10.2344
-0.175691
10.8319
-0.0371949
10.9813
8.71314
0.174963
8.49071
0.375927
10.7896
0.447005
10.8716
0.569338
10.2964
0.796556
9.68493
1.15048
9.1647
0.859215
8.60452
0.218762
7.31624
-0.0352668
5.65395
-0.0927019
5.07188
-0.05178
4.73372
-0.00299656
4.70923
0.0436307
4.63732
0.0991725
4.68758
0.139162
4.76482
0.120401
5.01007
-0.127896
5.68118
-0.816871
7.24307
-1.00628
8.4591
-0.672809
9.06733
-0.448792
9.58209
-0.314158
10.0882
-0.248474
10.7568
-0.091847
10.8174
8.61712
0.0434294
8.44823
0.243007
10.5855
0.34817
10.7681
0.433084
10.2178
0.6077
9.50863
0.843489
8.92563
0.960004
8.48763
0.617432
7.65929
0.0704705
6.19926
-0.107582
5.25055
-0.0867656
4.71323
-0.0519366
4.67312
-0.0252837
4.60937
0.0117706
4.64938
0.00513821
4.7719
-0.124246
5.13954
-0.714014
6.26993
-1.06078
7.5934
-0.967687
8.37684
-0.742098
8.84932
-0.587633
9.42514
-0.524249
10.037
-0.424289
10.6652
-0.193857
10.5895
8.42992
0.0865959
8.36681
0.323153
10.3497
0.463809
10.6224
0.539503
10.1368
0.668469
9.38156
0.824164
8.76829
1.17069
8.14004
0.918565
7.91099
0.324768
6.78822
0.0469429
5.52282
-0.00128888
4.75861
2.38033e-05
4.67086
0.00174833
4.60641
0.00640111
4.64369
-0.0526668
4.83057
-0.303673
5.38836
-0.822249
6.78446
-1.11942
7.89453
-0.807754
8.07468
-0.644774
8.69279
-0.513664
9.29747
-0.43691
9.96096
-0.313129
10.5389
-0.0780008
10.3612
8.36172
0.118156
8.25843
0.448959
10.033
0.621193
10.4592
0.653875
10.1085
0.711658
9.3186
0.869479
8.61276
1.02637
7.98704
1.16308
7.77704
0.869804
7.08135
0.20778
6.18236
0.0550165
4.91087
0.0195732
4.70463
-0.00173153
4.62646
-0.0327048
4.67282
-0.193591
4.99008
-0.811676
6.00542
-1.07487
7.05149
-0.959646
7.78541
-0.812555
7.93891
-0.656179
8.5507
-0.59327
9.24461
-0.563362
9.93435
-0.401652
10.392
-0.0762841
10.0641
8.29836
-0.00305718
0.041543
-0.00341896
0.0431398
-0.00358465
0.0477433
-0.00388729
0.0463956
-0.00464273
0.0484747
-0.0053506
0.0489492
-0.00538021
0.049458
-0.00503766
0.048917
-0.00471824
0.0483151
-0.00475907
0.0486196
-0.00530129
0.0497136
-0.00610415
0.0513636
-0.00680543
0.0530373
-0.00719072
0.0543321
-0.0072316
0.0551526
-0.00701102
0.0555968
-0.00663594
0.0558123
-0.00618005
0.0559101
-0.0056882
0.0559506
-0.00517821
0.0559643
-0.00465991
0.0559681
-0.00413755
0.0559672
-0.00361024
0.0559634
-0.00307801
0.0559566
-0.00250866
0.0559383
-0.00199428
0.0559354
-0.0012146
0.0556757
-0.000871413
0.0560114
0.000576892
0.0536914
0.0573639
-0.00450216
0.0459126
-0.00592228
0.0445998
-0.00597026
0.0481046
-0.00621398
0.0466079
-0.00681141
0.0485103
-0.00738346
0.0490609
-0.00748306
0.0494174
-0.00707388
0.0489897
-0.00654445
0.048408
-0.00628461
0.0487959
-0.00657705
0.0499336
-0.00720239
0.0514417
-0.00782338
0.0529036
-0.00817154
0.0540087
-0.00818605
0.0546998
-0.00792841
0.0550743
-0.00750215
0.0552542
-0.00698866
0.0553339
-0.00643451
0.0553664
-0.0058593
0.0553761
-0.00527383
0.055378
-0.00468327
0.0553752
-0.00408803
0.0553688
-0.00348745
0.0553576
-0.00286599
0.0553245
-0.0022797
0.0553471
-0.00161966
0.0550276
-0.00110957
0.0554928
-0.00104973
0.0536453
0.056312
-0.00260764
0.0479083
-0.00393914
0.0455875
-0.00384337
0.0480015
-0.00413114
0.0467182
-0.00484193
0.048228
-0.00547029
0.048451
-0.00577793
0.0488423
-0.00539499
0.0487617
-0.00478665
0.0485332
-0.00443123
0.049169
-0.00465629
0.0502209
-0.00531332
0.0515636
-0.00605001
0.0528097
-0.00654186
0.0537387
-0.00669701
0.0543192
-0.00656545
0.0546344
-0.00625083
0.0547849
-0.00584133
0.0548498
-0.00538661
0.0548756
-0.00490815
0.0548827
-0.00441895
0.0548832
-0.00392381
0.0548793
-0.00342513
0.0548716
-0.00292427
0.0548586
-0.00241869
0.0548257
-0.00193251
0.0548588
-0.00148331
0.0545857
-0.0010221
0.0550265
-0.0011799
0.0538105
0.0551339
-0.00121443
0.0482621
-0.00227983
0.0459922
-0.00204269
0.0472876
-0.00229181
0.0457025
-0.00307164
0.0467002
-0.00383518
0.0465959
-0.00424795
0.0472206
-0.00386055
0.0477819
-0.00323035
0.048256
-0.00281965
0.0495307
-0.00304009
0.0505373
-0.00375987
0.05171
-0.00461436
0.0527494
-0.00523673
0.0535164
-0.00551243
0.0539993
-0.00548592
0.054262
-0.00526297
0.0543865
-0.00493638
0.0544392
-0.00456027
0.0544592
-0.00415853
0.0544646
-0.00374548
0.0544639
-0.00332661
0.0544593
-0.00290488
0.0544516
-0.00248371
0.0544396
-0.00206488
0.0544127
-0.00165529
0.0544484
-0.00130455
0.0542402
-0.00087842
0.0545971
-0.000890213
0.0538281
0.0542468
-0.00126517
0.0476679
-0.00202759
0.0447796
-0.00157937
0.0446801
-0.00158725
0.0419407
-0.00224449
0.0415753
-0.00304605
0.0410045
-0.00349873
0.0425224
-0.00319544
0.0446434
-0.00260219
0.046639
-0.00220339
0.0492449
-0.00246491
0.0506912
-0.00323754
0.0517974
-0.0041612
0.0526734
-0.00484776
0.053299
-0.00517714
0.0536912
-0.00519229
0.0539043
-0.00500104
0.0540049
-0.00469983
0.0540466
-0.00434562
0.0540621
-0.00396484
0.054066
-0.00357224
0.0540647
-0.00317416
0.0540602
-0.00277376
0.0540532
-0.00237438
0.054043
-0.0019816
0.0540248
-0.00158628
0.054052
-0.00125291
0.0539106
-0.000828624
0.0541702
-0.000680877
0.0536845
0.0535689
-0.0011993
0.0453314
-0.00156258
0.0397522
-0.000731754
0.0371141
-0.000204661
0.0313127
-0.000477606
0.0277409
-0.00109184
0.0262558
-0.00164372
0.0292218
-0.00172595
0.0349063
-0.00145669
0.0414204
-0.00140422
0.046862
-0.00190554
0.0499868
-0.00280098
0.0516447
-0.00379591
0.0525276
-0.00452935
0.0530673
-0.00489547
0.0533879
-0.00494013
0.0535589
-0.00477283
0.0536381
-0.00449199
0.0536698
-0.00415626
0.0536821
-0.00379369
0.0536848
-0.00341939
0.0536835
-0.00303953
0.0536795
-0.00265783
0.0536735
-0.00227706
0.0536655
-0.00190328
0.0536552
-0.00152299
0.0536711
-0.00119485
0.053585
-0.000785152
0.0537586
-0.000545361
0.0534482
0.0530287
-0.00070053
0.0372694
-0.000330288
0.0255941
0.00122765
0.0172462
0.00294341
0.00163834
0.00425324
-0.0111108
0.00455273
-0.0176616
0.00381157
-0.0131446
0.00256205
0.00130657
0.00139974
0.022804
0.000297286
0.0380063
-0.000959775
0.0465119
-0.00221438
0.0504286
-0.00334351
0.052102
-0.00413602
0.0527814
-0.0045383
0.0530828
-0.00461218
0.0532277
-0.0044711
0.0532918
-0.00421422
0.0533164
-0.00390197
0.0533254
-0.00356323
0.0533273
-0.00321311
0.0533261
-0.00285709
0.0533229
-0.00249947
0.053318
-0.0021426
0.0533121
-0.00179104
0.053307
-0.00143359
0.0533134
-0.0011149
0.0532676
-0.000732986
0.0533742
-0.000453748
0.0531708
0.0525789
0.000786103
0.0140307
0.0020405
-0.013123
0.00458395
-0.032533
0.00894393
-0.0637205
0.014602
-0.0963944
0.0192368
-0.118781
0.0198323
-0.119741
0.0154167
-0.0934406
0.00975596
-0.043542
0.00464083
0.00487632
0.00112921
0.0340611
-0.00114203
0.0461324
-0.0026725
0.0506236
-0.00360829
0.0522127
-0.00406984
0.0527443
-0.00418099
0.0529167
-0.00407236
0.0529752
-0.00384655
0.0529938
-0.00356486
0.0529993
-0.00325691
0.0530007
-0.00293825
0.0529997
-0.00261355
0.0529975
-0.00228717
0.0529937
-0.00196124
0.0529895
-0.00163821
0.0529871
-0.00131237
0.0529881
-0.00101242
0.0529684
-0.00066813
0.0530275
-0.000384499
0.0528891
0.0522004
0.00331342
-0.0454123
0.00614462
-0.0929776
0.00992752
-0.126176
0.0172074
-0.222082
0.0313101
-0.29969
0.0498329
-0.3703
0.0662372
-0.419474
0.0527763
-0.400483
0.0353564
-0.214582
0.0182084
-0.105765
0.00698468
-0.0150637
0.00124239
0.0312212
-0.00161926
0.0460182
-0.00297691
0.0507844
-0.00357127
0.0522046
-0.00373734
0.052586
-0.00366497
0.0526818
-0.00347078
0.0527015
-0.00321987
0.0527042
-0.00294306
0.052705
-0.00265606
0.0527048
-0.00236358
0.0527038
-0.00206883
0.0527014
-0.001774
0.0526982
-0.00148028
0.0526967
-0.00118715
0.052696
-0.00090943
0.0526905
-0.000602954
0.0527181
-0.000331126
0.0526179
0.0518752
0.00657966
-0.187853
0.00657369
-0.269739
0.00680296
-0.294676
0.0144385
-0.320708
0.0354423
-0.364804
0.0680391
-0.436925
0.111366
-0.523249
0.157516
-0.60663
0.139656
-0.65067
0.0643331
-0.518722
0.0269694
-0.171113
0.00838942
-0.0295263
0.000865453
0.0306359
-0.00202318
0.0465375
-0.00303443
0.0509659
-0.00331969
0.0521217
-0.00329431
0.0523827
-0.00313052
0.0524322
-0.00290705
0.0524366
-0.00265847
0.0524374
-0.00239962
0.0524379
-0.00213628
0.0524381
-0.00187037
0.0524373
-0.00160371
0.0524352
-0.00133714
0.0524337
-0.00107296
0.0524325
-0.000816931
0.052434
-0.000544084
0.0524421
-0.000289805
0.0523636
0.0515908
0.00681638
-0.281619
0.00372958
-0.306572
0.00301275
-0.305827
0.0047446
-0.323658
0.0220734
-0.365236
0.0568077
-0.438926
0.108412
-0.531528
0.172214
-0.626053
0.235252
-0.729972
0.270706
-0.802907
0.098883
-0.712558
0.0348754
-0.218039
0.00870103
-0.0325493
0.000383597
0.0326615
-0.0022417
0.0474519
-0.00289766
0.0511475
-0.00296804
0.0519974
-0.00283969
0.0521641
-0.00264051
0.0521902
-0.00241531
0.0521944
-0.0021806
0.0521955
-0.0019418
0.0521967
-0.0017007
0.0521969
-0.00145843
0.0521959
-0.00121544
0.0521947
-0.000974967
0.0521935
-0.000738728
0.0521973
-0.000493592
0.052195
-0.000257546
0.0521277
0.0513389
0.00454707
-0.276132
-0.00202744
-0.284864
-0.00691696
-0.288631
-0.0122388
-0.305945
0.000523393
-0.334569
0.0337564
-0.399266
0.0901553
-0.50999
0.162712
-0.62797
0.241992
-0.7386
0.317606
-0.837436
0.369888
-0.931515
0.126611
-0.819997
0.0389771
-0.229684
0.00795088
-0.022494
-0.000162899
0.0364595
-0.00226867
0.0485179
-0.00263862
0.0512748
-0.00258086
0.0518525
-0.0024081
0.0519548
-0.00220385
0.0519713
-0.00199024
0.051974
-0.00177276
0.0519759
-0.00155318
0.0519771
-0.00133239
0.051977
-0.00111036
0.0519762
-0.000889428
0.0519758
-0.000671218
0.0519795
-0.000449489
0.0519716
-0.000231172
0.0519092
0.0511121
-0.00390457
-0.239832
-0.0119067
-0.232546
-0.0211835
-0.238507
-0.0299777
-0.252484
-0.0270334
-0.281989
0.00304222
-0.33198
0.0589659
-0.435075
0.139448
-0.572601
0.232234
-0.725642
0.323497
-0.849494
0.405448
-0.94456
0.46159
-1.04255
0.138374
-0.860645
0.0371722
-0.200507
0.00629579
-0.0050673
-0.000666412
0.0407984
-0.0021471
0.0494901
-0.00230875
0.0513485
-0.00218649
0.0517063