/*--------------------------------*- C++ -*----------------------------------*\
| =========                 |                                                 |
| \\      /  F ield         | OpenFOAM: The Open Source CFD Toolbox           |
|  \\    /   O peration     | Version:  2112                                  |
|   \\  /    A nd           | Website:  www.openfoam.com                      |
|    \\/     M anipulation  |                                                 |
\*---------------------------------------------------------------------------*/
FoamFile
{
    version     2.0;
    format      ascii;
    arch        "LSB;label=32;scalar=64";
    class       volVectorField;
    location    "0.00487";
    object      U;
}
// * * * * * * * * * * * * * * * * * * * * * * * * * * * * * * * * * * * * * //

dimensions      [0 1 -1 0 0 0 0];

internalField   nonuniform List<vector> 
13875
(
(2204.16 109.692 1.81273e-18)
(2142.47 5.60743 -9.38741e-19)
(2170.22 -2.20257 -9.41135e-19)
(2167.91 -0.928479 0)
(2170.77 0.178884 0)
(2169.5 -0.315197 9.3627e-19)
(2169.87 -1.4042 -9.36417e-19)
(2169.5 -1.18663 -4.68523e-19)
(2170.02 0.0101618 4.68021e-19)
(2169.37 0.394192 0)
(2169.4 0.238891 -3.88255e-22)
(2169.53 0.86729 -3.88039e-22)
(2169.62 0.900381 0)
(2169.39 -0.0437866 -4.68226e-19)
(2169.4 -0.975069 4.68611e-19)
(2169.73 -1.38831 0)
(2170.09 -0.11195 9.36707e-19)
(2169.19 0.843798 -9.37565e-19)
(2169.88 1.10587 3.86419e-22)
(2169.56 0.644992 -3.85553e-22)
(2170.76 -0.241294 -9.35993e-19)
(2167.8 0.33392 9.37088e-19)
(2171.01 2.53235 -1.87806e-18)
(2143.68 -8.66247 1.91647e-18)
(2210.39 -106.714 1.76342e-18)
(2253.38 91.9338 -1.63248e-18)
(2228.45 -1.13381 1.88338e-18)
(2247.34 0.691584 8.71916e-19)
(2245.47 1.01609 -8.67172e-19)
(2248.72 -0.753702 4.16593e-22)
(2248.05 0.639907 5.2059e-22)
(2247.87 1.79307 4.16245e-22)
(2245.86 1.34275 -4.35861e-19)
(2245.67 -0.0507165 4.35176e-19)
(2245.02 -0.208122 2.17557e-19)
(2245.07 -0.186301 -1.6303e-19)
(2245.4 -1.10941 -5.31606e-20)
(2247.76 -1.10926 0)
(2247.86 0.113174 -4.34976e-19)
(2247.53 1.06847 4.3347e-19)
(2245.7 1.48039 4.35907e-19)
(2245.77 0.273509 -4.35187e-19)
(2245.57 -0.949273 5.1858e-22)
(2247.39 -1.6329 -5.19067e-22)
(2248.01 -1.20301 5.20356e-22)
(2248.68 0.806808 -8.71476e-19)
(2245.54 -0.668307 2.59977e-18)
(2247.21 -1.63998 -1.74265e-18)
(2228.97 3.61743 5.42734e-22)
(2256.45 -96.9712 -1.71324e-18)
(2252.38 78.1189 0)
(2236.33 -18.2424 0)
(2249.46 4.41614 0)
(2250.72 -2.0186 0)
(2254.03 -3.13142 -1.64218e-18)
(2253.59 -0.0627484 1.6429e-18)
(2253.94 1.97831 1.64035e-18)
(2253.58 2.16136 -2.57903e-18)
(2253.84 0.895355 8.60431e-19)
(2252.9 0.602163 4.30554e-22)
(2252.83 -0.156366 -4.30843e-19)
(2253 -2.64761 4.30768e-19)
(2254.07 -2.54714 0)
(2253.93 0.033728 0)
(2253.97 2.25707 4.08197e-22)
(2253.33 1.76907 0)
(2254.46 -0.135771 8.37956e-22)
(2253.3 -1.6089 4.29943e-19)
(2254.28 -2.30175 -4.30355e-19)
(2253.78 -0.412979 0)
(2254.24 2.84108 0)
(2250.97 1.48246 0)
(2250.66 -4.78909 0)
(2237.92 13.8412 0)
(2256.93 -74.7114 0)
(2247.85 51.348 0)
(2235.04 -28.6557 1.81422e-18)
(2249.23 7.12469 -3.41679e-18)
(2251.67 -4.95218 3.46519e-18)
(2253.74 -3.76797 -1.64077e-18)
(2253.48 -0.252862 0)
(2253.9 1.84742 -7.96843e-22)
(2254.12 1.68117 0)
(2254.52 0.620814 0)
(2254.01 0.626859 0)
(2254.04 -0.169762 0)
(2253.94 -2.53709 -8.44095e-22)
(2254.03 -2.54178 -5.00751e-20)
(2253.89 0.0160641 5.0696e-20)
(2253.94 2.19714 0)
(2254.2 1.51046 0)
(2255.02 -0.188975 7.99607e-22)
(2254.1 -0.975666 -8.54214e-19)
(2254.36 -1.94469 8.60083e-19)
(2253.69 -0.205402 -1.62435e-18)
(2254.05 3.36969 1.62957e-18)
(2252.1 4.67778 1.74101e-18)
(2249.77 -8.78709 -1.72023e-18)
(2235.68 31.3561 0)
(2251.64 -58.3757 0)
(2244.87 39.2659 1.74902e-18)
(2235.44 -47.8788 0)
(2248.71 10.3579 0)
(2250.45 -8.08809 0)
(2254.01 -5.16859 0)
(2253.51 -0.794445 1.65154e-21)
(2253.86 1.52053 1.67565e-21)
(2253.99 1.36707 4.31744e-19)
(2254.48 0.535825 -4.01507e-19)
(2254.02 0.667654 2.11823e-19)
(2254.11 0.107363 -2.17452e-19)
(2254.01 -2.29828 0)
(2253.99 -2.47004 0)
(2253.82 -0.0732833 -1.65873e-21)
(2253.94 2.02026 0)
(2254.27 0.935132 -1.6852e-21)
(2254.97 -0.209352 8.00676e-19)
(2253.92 -0.675717 -8.43523e-19)
(2254.1 -1.73189 1.71571e-18)
(2253.7 0.356292 -1.68641e-18)
(2254.21 4.63519 1.66198e-21)
(2250.76 6.92734 0)
(2250 -11.366 0)
(2237.23 42.8944 0)
(2250.64 -35.2366 0)
(2241.49 6.72925 0)
(2231.54 -63.5998 9.12404e-19)
(2247.16 12.0953 -8.47615e-19)
(2250.97 -11.6401 0)
(2252.94 -5.96752 8.60791e-19)
(2252.93 -1.21036 -4.29909e-19)
(2253.74 1.10926 -2.51753e-21)
(2254.06 0.743562 -2.17736e-19)
(2254.41 0.224382 -4.21845e-19)
(2254.04 0.773236 1.57892e-19)
(2254.05 0.281313 1.6526e-21)
(2253.87 -2.12485 2.66805e-19)
(2253.83 -2.41958 -2.1229e-19)
(2253.65 -0.0912932 3.34405e-21)
(2253.75 1.88395 -4.23748e-19)
(2254.11 0.684573 4.32544e-19)
(2254.86 -0.14029 1.61774e-21)
(2253.98 -0.0397994 -1.67568e-21)
(2254.08 -1.2023 -1.66454e-21)
(2253.15 0.644121 -8.52187e-19)
(2253.3 5.1212 8.5115e-19)
(2251.59 11.3603 0)
(2247.42 -14.9214 0)
(2232.45 65.4742 -1.93346e-18)
(2246.18 -18.9234 -1.26567e-19)
(2254.01 2.87948 -4.95225e-20)
(2227.5 -79.3635 6.02437e-20)
(2243.03 12.0176 0)
(2248.62 -16.314 -2.69129e-23)
(2252.58 -8.00607 -2.62388e-23)
(2252.7 -2.4087 0)
(2253.28 0.5131 0)
(2253.77 0.329433 -8.61465e-19)
(2254.09 0.13934 8.51246e-19)
(2253.86 0.959603 0)
(2253.93 0.634904 1.70479e-18)
(2253.79 -1.7214 3.60642e-21)
(2253.62 -2.13963 -1.71696e-18)
(2253.38 -0.243549 -1.68455e-21)
(2253.61 1.4228 0)
(2254.06 0.0684476 3.43101e-18)
(2254.53 -0.151407 1.23255e-21)
(2253.52 0.268691 -6.87896e-18)
(2253.47 -0.807438 3.41512e-18)
(2252.86 1.8618 2.62575e-23)
(2252.8 7.24584 0)
(2248.62 13.7113 3.52894e-18)
(2244.13 -12.2721 -3.31166e-18)
(2228.87 72.9175 3.8154e-18)
(2247.23 2.84819 -3.18166e-18)
(2218.39 -22.8901 -3.17342e-19)
(2214.73 -87.4718 -7.49705e-18)
(2235.64 3.26523 8.7088e-22)
(2246.13 -23.117 2.61285e-23)
(2249.11 -10.1198 -8.09208e-22)
(2250.85 -3.59207 0)
(2252.65 -0.655202 -3.43864e-18)
(2253.45 -0.655793 3.44517e-18)
(2253.6 -0.379018 0)
(2253.47 0.840961 -8.15302e-22)
(2253.52 0.686594 -8.26669e-22)
(2253.3 -1.51475 0)
(2253.08 -1.96398 0)
(2252.81 -0.119591 -1.63428e-21)
(2253.02 1.28751 -8.30438e-22)
(2253.6 -0.0726928 2.59302e-23)
(2254.04 0.268052 -8.52579e-22)
(2253.14 1.20651 -2.60469e-23)
(2252.96 0.40997 -1.71238e-18)
(2251.28 3.08311 -1.43305e-20)
(2249.75 9.17181 1.69372e-18)
(2246.51 20.2724 8.85809e-22)
(2236.85 -4.31912 3.45932e-18)
(2216.53 81.6227 -3.53609e-18)
(2222.21 18.1716 2.50347e-23)
(2113.39 -37.9386 9.42373e-19)
(2168.85 -98.6376 0)
(2217.11 -20.3762 -8.31511e-22)
(2235.12 -32.9191 -8.65238e-19)
(2245.83 -18.8272 1.70994e-18)
(2248.63 -7.69108 -1.72199e-18)
(2250.72 -2.51954 8.37558e-21)
(2252.06 -1.47924 8.60257e-19)
(2252.36 -0.420026 0)
(2252.41 1.02695 -8.39335e-19)
(2252.6 1.20197 8.43962e-19)
(2252.48 -0.607431 0)
(2252.09 -1.47998 0)
(2251.76 -0.612541 2.0769e-21)
(2252.08 0.356319 8.27619e-22)
(2252.59 -0.790301 8.42396e-19)
(2252.8 0.332959 -8.44499e-19)
(2251.7 1.76629 0)
(2250.9 1.71784 8.55072e-19)
(2248.87 6.46361 -1.72527e-18)
(2246.26 16.0155 8.48276e-19)
(2236.16 29.6555 -8.40111e-22)
(2218.72 16.9549 0)
(2171.05 94.0222 0)
(2116.75 35.4128 0)
(1873.62 -142.214 -6.56893e-17)
(2125.84 -161.019 8.42228e-17)
(2198.52 -55.0416 0)
(2228.21 -55.869 -2.98047e-17)
(2239.19 -22.594 3.08689e-17)
(2245.27 -11.0836 0)
(2248.23 -6.03001 -2.98007e-20)
(2249.66 -3.41756 -1.48156e-17)
(2250.1 -1.57003 1.47129e-17)
(2250.38 0.111054 -2.92645e-20)
(2250.63 0.694594 0)
(2250.49 -0.518671 -3.71094e-18)
(2250.02 -0.997724 5.58925e-18)
(2249.64 -0.262053 -1.88771e-18)
(2249.92 0.380234 -2.92013e-20)
(2250.41 -0.227573 0)
(2250.47 1.5094 0)
(2249.37 3.79189 -2.96532e-17)
(2248.26 5.33859 2.91489e-17)
(2245.58 10.1896 -3.04175e-17)
(2240.4 21.5321 2.94657e-17)
(2228.97 53.8801 3.22541e-17)
(2200.02 53.8438 -2.92742e-17)
(2128.81 163.04 -8.33482e-17)
(1883.89 138.892 -1.26038e-17)
(1652.94 -215.96 -9.08503e-17)
(2011.45 -308.149 1.37655e-16)
(2158.38 -106.028 0)
(2207.69 -64.3545 6.88922e-17)
(2230.64 -29.2751 -7.14595e-17)
(2239.04 -14.675 -3.3855e-17)
(2242.51 -6.2023 3.41837e-17)
(2244.72 -2.93678 -3.37515e-17)
(2245.35 -0.632255 3.37305e-17)
(2246.01 0.992296 3.22125e-20)
(2246.41 1.63814 0)
(2246.43 0.846798 -2.12546e-18)
(2245.87 -0.200708 2.16922e-18)
(2245.37 -1.07443 3.28955e-20)
(2245.54 -1.19129 3.2739e-20)
(2245.83 -1.5484 3.34415e-20)
(2245.89 0.11525 0)
(2244.66 3.48724 0)
(2242.27 5.35555 -6.80303e-17)
(2239.45 12.7491 6.7626e-17)
(2231.5 25.6721 -7.19796e-17)
(2210.63 59.4961 1.46795e-16)
(2163.43 97.4786 -7.05105e-17)
(2014.28 298.081 -3.88783e-20)
(1695.23 206 8.78455e-20)
(1279.12 -593.802 -1.08942e-16)
(1741.28 -588.72 1.18536e-16)
(2037.43 -177.921 2.18334e-16)
(2168.34 -107.126 -9.38048e-17)
(2205.39 -36.6715 0)
(2222.95 -18.0725 7.49064e-17)
(2231.01 -11.825 -7.62441e-17)
(2233.88 -6.22313 0)
(2235.02 -3.81895 3.56188e-20)
(2236.12 -1.76179 0)
(2236.74 -0.336716 0)
(2236.94 0.260209 0)
(2236.51 0.608052 4.7053e-18)
(2235.93 0.279655 -4.68438e-18)
(2235.8 0.216266 -3.83662e-20)
(2235.55 0.623094 -3.50565e-20)
(2235.42 2.51725 0)
(2233.76 6.4336 0)
(2230.57 12.4073 0)
(2222.32 15.8994 -7.86211e-17)
(2207.27 35.2209 1.57137e-16)
(2171.68 100.346 -7.31684e-17)
(2052.05 166.796 -1.32483e-16)
(1751.63 593.376 1.00276e-16)
(1281.4 547.212 -5.99637e-20)
(1297.8 -611.836 1.61049e-16)
(1113.42 -1078.97 0)
(1661.19 -476.794 0)
(1907.72 -122.775 -1.1121e-16)
(2133.55 -73.8661 1.11503e-16)
(2182.51 -39.0871 0)
(2195.08 -10.6565 1.23633e-20)
(2203.15 -4.36433 4.20125e-17)
(2205.85 0.0937308 -4.23964e-17)
(2208.05 2.57481 0)
(2209.65 3.56085 -1.04302e-17)
(2210.6 3.38007 1.04992e-17)
(2210.73 1.88159 -5.25767e-18)
(2209.86 -1.42281 5.24726e-18)
(2208.75 -2.98585 3.89339e-20)
(2206.94 -4.04781 -4.16282e-17)
(2205.82 -2.43995 8.27448e-17)
(2202.54 2.55189 8.81015e-19)
(2193.24 9.49439 -4.18288e-17)
(2179.52 40.114 -9.24154e-17)
(2118.88 62.6365 8.6149e-17)
(1894.6 100.184 8.49729e-20)
(1696.66 448.63 2.71636e-20)
(1107.6 1065.51 1.68152e-16)
(1314.92 613.675 7.43344e-18)
(1352.85 -631.474 0)
(1147.08 -1052.3 0)
(1269.48 -740.805 0)
(1174.93 -825.924 0)
(1954.39 -251.364 0)
(1985.08 -53.9208 1.11981e-16)
(2082.13 -53.7408 -1.12124e-16)
(2100.12 -27.8235 1.47684e-19)
(2108.3 -21.0641 -1.08678e-20)
(2114.05 -16.9686 2.50339e-17)
(2120.01 -11.7155 -2.52648e-17)
(2124.25 -5.36053 -2.82778e-19)
(2125.76 1.93512 -7.76299e-19)
(2123.93 7.99809 8.97533e-19)
(2119.82 11.8689 -2.50683e-17)
(2113.23 16.4305 2.48855e-17)
(2107.79 19.1444 1.318e-19)
(2098.07 28.6977 0)
(2076.39 57.7829 0)
(1964.2 70.8008 0)
(1909.87 321.145 -2.09296e-16)
(1145.31 825.383 -5.77181e-17)
(1281.87 718.783 1.61475e-16)
(1145.37 1015.04 2.04828e-20)
(1362.45 620.735 2.08032e-20)
(1427.56 -619.355 0)
(1255.74 -906.498 4.11575e-20)
(1301.84 -749.363 0)
(1185.89 -833.734 -1.65913e-16)
(1273.16 -715.938 3.37051e-16)
(1359.84 -685.545 -2.19247e-16)
(1737.51 -56.4725 0)
(1722.82 -5.18996 -1.3069e-19)
(1745 18.9898 0)
(1767.85 30.9586 0)
(1793.83 27.787 -2.09904e-17)
(1814.15 18.2678 2.14565e-17)
(1820.71 5.31206 2.09409e-17)
(1815.2 -9.3492 -2.1058e-17)
(1797.56 -18.7299 0)
(1772.65 -28.8191 -8.90572e-17)
(1748.51 -18.092 8.75208e-17)
(1722.66 2.94476 9.58462e-17)
(1728.65 74.8269 -8.07284e-17)
(1368.53 649.117 0)
(1249.97 744.388 0)
(1162.92 831.47 -1.66986e-19)
(1307.5 730.341 -1.69588e-16)
(1254.65 897.345 3.73142e-16)
(1413.17 617.647 -1.71329e-16)
(1503.22 -618.496 -1.7141e-16)
(1390.77 -825.877 1.86549e-16)
(1360.55 -699.346 0)
(1219.63 -718.269 -2.19061e-16)
(1228.24 -590.093 -3.45571e-17)
(1068.76 -561.155 3.10826e-16)
(1026.24 -368.661 -2.31831e-16)
(811.99 -349.404 1.31149e-16)
(714.47 -215.92 0)
(745.34 -210.254 0)
(799.937 -177.589 -4.15012e-20)
(841.877 -100.688 2.07196e-19)
(846.764 -5.49705 0)
(840.405 87.8662 0)
(804.75 166.96 6.23432e-17)
(767.819 214.946 -6.00521e-17)
(721.833 226.043 -1.27687e-16)
(789.958 344.518 2.56858e-16)
(990.653 372.773 9.71312e-18)
(1061.71 549.644 -1.09229e-16)
(1215.91 610.715 0)
(1195.29 724.243 0)
(1353.49 687.245 -1.81452e-16)
(1347.47 853.133 2.05707e-16)
(1483.72 627.416 -4.55132e-20)
(1621.14 -583.995 1.62771e-16)
(1507.44 -702.435 -9.86537e-20)
(1503.41 -576.267 1.04707e-16)
(1400.6 -536.663 -9.02027e-17)
(1325.78 -409.874 -4.95705e-20)
(1145.4 -452.089 1.06139e-19)
(1033.59 -289.771 1.19729e-16)
(702.938 -153.016 -1.9124e-16)
(461.55 -58.9392 6.59407e-17)
(390.914 -45.8757 0)
(383.604 -24.2056 -3.38008e-17)
(392.008 -12.4423 3.3162e-17)
(386.107 1.87323 0)
(385.206 17.7453 6.06119e-20)
(375.773 23.4617 -3.30554e-17)
(396.346 48.0446 3.40203e-17)
(454.22 50.8496 0)
(681.278 149.016 -1.26138e-16)
(993.694 294.529 1.21011e-16)
(1130.46 449.244 1.02524e-16)
(1303.2 410.949 -2.07357e-16)
(1374.23 545.887 1.11146e-16)
(1492.52 588.261 0)
(1494.63 736.072 1.74257e-16)
(1612.84 599.607 -5.61135e-18)
(1770.47 -485.646 -4.7641e-18)
(1714.19 -431.118 8.81351e-17)
(1576.02 -311.228 -4.06581e-17)
(1397.82 -203.755 -5.7306e-17)
(1368.48 -161.183 7.70505e-17)
(1240.67 -163.033 -5.6092e-17)
(1108.46 -135.127 5.79961e-17)
(774.152 -134.175 -6.27184e-17)
(574.987 -56.2199 -1.37173e-19)
(532.131 -38.1027 3.32487e-17)
(532.274 -12.6584 1.65269e-17)
(539.982 -5.12278 -1.85992e-20)
(537.915 1.53551 -1.65426e-17)
(535.163 11.4253 -6.3126e-20)
(527.367 16.6015 -7.72251e-20)
(540.637 43.4482 -2.07283e-18)
(592.829 52.3148 1.68533e-21)
(794.373 129.181 5.78473e-18)
(1105 148.565 -3.79027e-18)
(1245.29 180.346 0)
(1354.35 164.835 1.22871e-17)
(1388.22 202.888 -3.74458e-17)
(1581.22 348.911 4.70561e-17)
(1704.74 475.336 -6.19398e-17)
(1767.55 502.594 5.81423e-17)
(1885.9 -425.681 -9.09964e-20)
(1850.09 -168.963 -1.19213e-19)
(1740.22 3.63889 1.47673e-19)
(1569.35 -33.8545 -6.51178e-21)
(1475.04 -22.9433 -1.75155e-19)
(1363.2 -35.2219 -1.99134e-19)
(1290.32 -49.6097 -7.87168e-21)
(1086.63 -103.268 0)
(889.198 -91.5462 0)
(816.78 -69.0408 6.57352e-17)
(806.241 -36.8487 -6.58831e-17)
(812.174 -15.025 -9.04745e-21)
(810.799 3.33946 9.05522e-21)
(809.415 24.9653 -8.50368e-18)
(803.448 46.2974 8.25776e-18)
(815.752 85.2872 0)
(875.388 100.579 0)
(1062.41 114.491 -6.12901e-17)
(1265.51 51.9264 5.87325e-17)
(1345.93 41.7792 -1.91062e-19)
(1449.97 32.6986 0)
(1553.99 37.9398 0)
(1748.56 10.0739 -1.48836e-19)
(1847.06 159.74 -1.22486e-19)
(1882.04 432.124 1.36762e-16)
(1837.88 49.4958 -1.56991e-16)
(1821.71 191.373 -2.58802e-16)
(1720.8 320.751 1.23302e-16)
(1663.23 256.376 0)
(1599 145.524 2.18301e-19)
(1504.52 77.5154 1.08172e-16)
(1449.48 34.2369 -2.1438e-16)
(1317.96 -35.9497 1.13292e-16)
(1123.63 -60.1249 -1.25526e-16)
(993.142 -51.3889 1.26658e-16)
(948.893 -28.3698 3.24586e-17)
(940.628 -11.4217 -4.04815e-17)
(940.381 4.27523 -8.14714e-18)
(939.244 21.5519 1.64819e-17)
(948.446 38.3097 0)
(993.225 64.5373 0)
(1118.34 68.8502 1.22644e-16)
(1310.81 50.2696 -2.3513e-16)
(1437.85 -26.6373 1.12628e-16)
(1492.1 -71.9075 2.29425e-19)
(1586.89 -147.125 1.83592e-16)
(1673.72 -253.356 -4.8456e-17)
(1737.99 -308.185 -4.53165e-16)
(1815.24 -218.036 6.39823e-16)
(1842.57 -43.2637 -2.51341e-16)
(1278.02 546.085 1.55086e-19)
(1411.48 819.058 -2.2626e-16)
(1684.85 657.389 1.20959e-16)
(1705.14 473.496 0)
(1676.84 311.33 0)
(1595.74 206.444 0)
(1555.22 135.934 0)
(1454.41 49.3684 0)
(1278.68 5.48929 -5.38929e-17)
(1136.78 -10.0955 1.10274e-16)
(1068.65 -5.58418 -8.43156e-17)
(1053 -0.707175 3.17179e-17)
(1049.49 4.97279 -3.55869e-18)
(1053.04 11.5607 1.47061e-20)
(1071.96 15.5704 -5.58981e-17)
(1145.46 23.6563 5.62497e-17)
(1290.33 4.75601 0)
(1461.48 -37.5926 0)
(1550.52 -136.008 -1.76459e-16)
(1591.37 -201.961 1.87543e-16)
(1675.22 -317.351 -1.70706e-19)
(1712.56 -486.108 6.8233e-20)
(1683.81 -661.383 -9.08592e-20)
(1394.56 -842.853 -8.78619e-20)
(1243.52 -522.501 0)
(850.403 651.111 -1.97789e-16)
(1456.04 943.503 1.45375e-16)
(1695.32 838.111 -1.30874e-19)
(1730.33 667.557 1.53809e-16)
(1730.66 459.719 -1.26325e-16)
(1664.94 314.127 0)
(1629.76 224.836 -8.23283e-17)
(1548.37 131.704 8.02674e-17)
(1390 70.7218 -4.66476e-17)
(1246.87 35.8071 9.5722e-17)
(1176.67 21.1317 -4.82805e-17)
(1154.63 11.0634 1.8125e-19)
(1152.86 4.0505 0)
(1155.89 -2.987 2.46431e-17)
(1183.77 -14.0154 2.35239e-17)
(1262.73 -28.7809 -4.84738e-17)
(1407.4 -68.4393 -8.75546e-17)
(1556.9 -128.885 8.80011e-17)
(1625.4 -227.652 -7.40675e-17)
(1664.33 -315.449 8.03358e-17)
(1728.76 -480.451 8.04316e-20)
(1729.64 -691.261 -7.53033e-20)
(1680.24 -861.004 0)
(1428.64 -951.706 6.82899e-20)
(789.442 -609.678 0)
(884.857 571.196 1.67019e-16)
(1510.84 911.479 -1.4442e-16)
(1693.33 940.932 4.70199e-20)
(1751.36 780.676 0)
(1762.18 594.056 0)
(1705.73 438.546 -7.35598e-21)
(1684.15 318.949 0)
(1616.22 212.085 7.78445e-20)
(1478.6 140.525 0)
(1348.14 81.5682 4.25169e-17)
(1273.09 47.8609 -6.41701e-17)
(1251.82 23.2256 3.22534e-17)
(1246.66 3.6026 -1.08431e-17)
(1253.44 -16.1637 0)
(1279.86 -42.2028 0)
(1361.25 -73.7246 4.04671e-17)
(1493.98 -134.171 -1.16229e-16)
(1624.19 -204.799 7.65753e-17)
(1678.99 -326.104 -6.31446e-17)
(1706.83 -436.222 7.05741e-17)
(1765.56 -597.726 0)
(1756.67 -793.74 0)
(1688.02 -948.67 0)
(1501.37 -904.747 -8.14926e-21)
(819.289 -503.903 -1.93563e-16)
(1019.9 498.108 -3.16238e-20)
(1576.59 854.684 1.1552e-16)
(1699.94 935.498 -9.77824e-17)
(1775.55 826.845 0)
(1781.96 677.028 0)
(1742.99 517.519 7.74256e-21)
(1726.8 392.615 6.4733e-17)
(1665.57 280.738 -6.13222e-17)
(1542.55 192.93 3.22065e-20)
(1424.33 122.274 3.41263e-20)
(1359.75 74.1813 3.50512e-20)
(1336.03 35.9725 -1.02145e-20)
(1333.13 3.13713 -1.02193e-20)
(1337.41 -29.8363 1.91614e-17)
(1365.95 -68.1432 -1.93725e-17)
(1436.83 -117.125 4.38305e-20)
(1556.44 -191.468 4.15691e-20)
(1674.42 -273.613 0)
(1723.31 -396.533 -5.62756e-17)
(1743.38 -514.262 6.25526e-17)
(1786.38 -678.335 0)
(1785.08 -833.345 -9.87509e-17)
(1698.98 -944.768 1.00103e-16)
(1571.95 -868.405 6.85917e-21)
(1049.88 -508.491 -1.70214e-16)
(1178.95 468.951 3.74182e-20)
(1622.79 821.368 0)
(1709.4 916.684 0)
(1790.23 843.94 -5.22024e-17)
(1792.6 729.585 4.69169e-17)
(1768.57 584.495 0)
(1762.68 458.191 5.9408e-17)
(1706.92 338.578 -5.63423e-17)
(1598.72 240.367 3.34387e-17)
(1494.85 153.024 -3.33336e-17)
(1433.26 95.84 1.77799e-17)
(1415.45 46.6772 -1.76612e-17)
(1410.5 2.10696 0)
(1416.92 -43.2717 -1.75137e-17)
(1440.51 -93.437 1.77997e-17)
(1509.89 -151.08 -3.58603e-20)
(1615.93 -243.494 -3.40502e-20)
(1718.25 -337.151 5.47385e-20)
(1760.53 -469.433 5.13759e-17)
(1764.68 -588.001 -5.73325e-17)
(1793.03 -737.861 -4.7487e-20)
(1797.34 -855.168 -4.63268e-20)
(1714.02 -924.109 0)
(1599.74 -831.119 -5.58927e-20)
(1116.14 -453.868 3.7938e-20)
(1189.01 436.39 1.41526e-22)
(1623.21 770.287 0)
(1728.09 870.616 9.00808e-23)
(1800.37 843.713 4.44484e-20)
(1803.63 761.565 -8.63051e-23)
(1794 626.104 -5.2325e-17)
(1790.1 507.659 4.73647e-17)
(1742.46 386.905 0)
(1646.22 278.593 -6.24949e-20)
(1552.12 187.091 -1.12067e-22)
(1502.03 118.221 -1.1486e-22)
(1484 57.5758 6.83761e-20)
(1482.05 2.05976 0)
(1484.91 -53.9131 0)
(1507.99 -115.067 -1.14186e-22)
(1565.6 -185.253 -1.11173e-22)
(1659.65 -284.022 -2.8232e-17)
(1750.84 -384.258 8.04201e-17)
(1788.22 -513.048 -5.43856e-17)
(1791.55 -623.855 0)
(1802.29 -765.659 -4.47733e-17)
(1808.36 -849.553 4.55144e-17)
(1735.96 -882.707 8.92157e-23)
(1639.48 -776.235 4.92328e-20)
(1190.6 -458.704 1.40322e-22)
(1258.03 466.058 5.92352e-18)
(1665.12 737.712 1.31047e-17)
(1756.83 830.727 9.8203e-17)
(1806.04 832.035 -4.31073e-17)
(1813.82 763.272 4.32452e-17)
(1811.12 657.121 -4.80248e-17)
(1816.06 547.713 4.42221e-17)
(1773.15 422.431 -2.66043e-17)
(1687.97 310.77 2.62877e-17)
(1607.62 209.084 1.17777e-22)
(1560.01 133.851 1.21156e-22)
(1549.54 65.7728 -1.22056e-22)
(1545.9 2.42836 7.3999e-18)
(1550.66 -62.5349 7.2423e-18)
(1566.62 -132.66 -1.49863e-17)
(1620.61 -206.616 1.17404e-22)
(1702.44 -313.924 5.22368e-17)
(1783.45 -419.478 -1.01543e-16)
(1816.94 -554.856 5.0197e-17)
(1808.39 -653.891 0)
(1810.33 -769.134 -8.70966e-23)
(1806.99 -839.533 7.98456e-23)
(1762.97 -830.77 -8.41469e-23)
(1661.15 -738.932 -1.04744e-16)
(1249.45 -433.164 1.271e-16)
(1291.14 431.337 1.22277e-19)
(1686.55 673.411 0)
(1780.9 773.448 0)
(1815.19 809.421 4.03381e-20)
(1826.04 756.634 8.1299e-20)
(1835.49 663.585 0)
(1840.53 562.644 4.6599e-17)
(1799.8 442.447 -4.5441e-17)
(1722.39 329.264 4.71284e-20)
(1650.7 229.741 -4.9333e-20)
(1616.17 146.963 -1.3831e-17)
(1605.11 69.6991 1.37599e-17)
(1604.8 -1.08484 3.55529e-18)
(1605.72 -73.4531 -3.46992e-18)
(1621.87 -152.096 1.33795e-17)
(1665.02 -235.219 -3.94369e-17)
(1736.62 -344.57 2.61316e-17)
(1808.07 -449.118 -4.95187e-20)
(1838.28 -577.782 4.13042e-20)
(1831.32 -668.166 -4.09072e-17)
(1822.42 -763.763 7.677e-19)
(1814.51 -823.181 -1.66356e-18)
(1788.32 -785.59 4.10472e-17)
(1687.14 -670.6 4.77076e-20)
(1248.93 -422.818 6.03006e-20)
(1288.87 404.032 1.11594e-16)
(1704.24 627.499 -9.71898e-17)
(1805.54 729.881 0)
(1827.08 783.251 -3.8839e-17)
(1838.57 740.18 2.52122e-19)
(1849.28 670.147 3.96137e-17)
(1861.18 586.166 4.34365e-17)
(1824.91 466.44 -4.28102e-17)
(1758.04 353.7 -4.95727e-20)
(1698.34 246.697 -2.5205e-17)
(1664.16 159.804 1.2139e-17)
(1659.36 78.4647 1.26218e-17)
(1656.71 2.29099 -5.35893e-20)
(1660.12 -75.3863 0)
(1668.13 -159.151 0)
(1707.62 -242.04 0)
(1769.05 -354.885 4.92386e-20)
(1833.67 -461.448 1.03174e-20)
(1862.91 -591.975 -5.24088e-20)
(1845.87 -666.66 0)
(1834.4 -739.588 3.9384e-20)
(1823.87 -789.407 9.50594e-21)
(1807.96 -733.41 -4.95985e-20)
(1713.69 -623.4 -9.65279e-17)
(1303.08 -395.949 1.15645e-16)
(1288.66 382.709 5.46807e-17)
(1716.93 548.786 -8.72673e-17)
(1829.2 656.415 8.32956e-17)
(1840.84 744.137 -4.03594e-17)
(1853.51 723.473 -3.76487e-17)
(1871.89 658.683 3.77956e-17)
(1881.86 579.23 2.03027e-17)
(1845.42 468.389 -2.04112e-17)
(1784.92 359.501 1.13877e-17)
(1731.97 257.99 -2.31186e-17)
(1710.46 168.155 1.7556e-17)
(1704.16 80.8664 -7.42558e-18)
(1705.12 -0.503245 1.48775e-18)
(1704.98 -82.5841 -4.40327e-20)
(1714.6 -172.183 2.30685e-17)
(1743.24 -260.972 -2.3609e-17)
(1796.05 -371.479 4.13365e-20)
(1852.77 -469.48 4.08354e-17)
(1882.45 -590.598 -2.05571e-18)
(1869.44 -662.418 -3.8433e-17)
(1849.86 -725.968 0)
(1837.43 -759.312 4.07979e-17)
(1827.39 -681.408 -3.69627e-17)
(1719.74 -553.206 -9.3787e-17)
(1300.55 -369.218 -4.2222e-18)
(1336.54 365.249 -5.43379e-17)
(1742.85 481.722 4.55498e-17)
(1851.67 603.437 1.91091e-20)
(1852.29 706.986 -5.41149e-20)
(1872.23 697.34 1.87244e-20)
(1885.39 643.601 3.6809e-17)
(1898.56 577.368 -1.8141e-17)
(1863.88 470.775 -1.9574e-17)
(1812.75 365.587 4.35703e-20)
(1771.89 260.818 -4.50183e-20)
(1749.92 169.402 2.05981e-20)
(1749.62 81.0722 -2.06205e-20)
(1747.45 -2.85345 0)
(1749.89 -87.4155 5.04773e-21)
(1752.67 -177.968 -1.08638e-17)
(1780.13 -264.25 1.10476e-17)
(1824.56 -377.031 -2.0432e-17)
(1873.8 -476.08 9.69184e-19)
(1900.79 -591.168 1.92884e-17)
(1880.54 -648.234 -5.3777e-20)
(1866.41 -697.462 -3.78275e-17)
(1849.26 -707.221 3.54e-17)
(1848.53 -600.707 0)
(1730.64 -496.604 -4.52953e-17)
(1313.46 -356.53 5.54589e-17)
(1344.58 334.731 0)
(1758.5 413.688 -3.80332e-17)
(1862.94 521.986 4.35222e-17)
(1867.57 649.135 1.75024e-20)
(1888.13 674.407 1.72746e-20)
(1907.81 629.992 -3.50142e-17)
(1916.54 563.56 3.64319e-17)
(1881.72 465.217 1.95519e-17)
(1836.18 366.775 6.97521e-19)
(1799.48 269.724 -2.03741e-17)
(1789 178.568 -2.17011e-20)
(1785.74 86.9257 2.43585e-20)
(1787.19 0.00298585 0)
(1785.8 -86.8173 4.37293e-20)
(1791.34 -181.658 -2.15824e-20)
(1807.29 -269.682 1.00965e-17)
(1844.43 -374.727 -1.01641e-17)
(1886.92 -462.095 -1.95718e-20)
(1919.68 -572.149 -2.05889e-20)
(1906 -635.618 1.74456e-20)
(1881.91 -677.393 -3.68073e-17)
(1861.06 -661.763 -5.80564e-18)
(1861.91 -539.559 3.41962e-17)
(1752.02 -423.345 0)
(1340.08 -338.108 5.49643e-17)
(1368.19 319.823 -1.03588e-16)
(1774.68 356.881 4.26798e-17)
(1870.24 463.599 3.30042e-17)
(1882.59 607.48 -3.94998e-17)
(1903.65 636.924 0)
(1921.4 606.596 -2.12607e-21)
(1929.06 553.754 0)
(1897.17 460.524 -2.33452e-21)
(1859.18 364.573 -2.43728e-21)
(1833.98 265.777 0)
(1821.06 174.619 0)
(1823.54 84.734 -2.56247e-21)
(1821.7 -2.1245 0)
(1823.53 -89.6388 0)
(1822.9 -182.494 -9.78163e-18)
(1839.74 -267.325 9.8279e-18)
(1869.64 -373.965 -2.4206e-21)
(1905.57 -462.797 -1.81684e-17)
(1932.83 -563.064 1.77468e-17)
(1919.09 -609.959 0)
(1897.54 -637.249 3.65961e-17)
(1878.12 -601.16 -7.29362e-17)
(1868.21 -461.404 7.5112e-17)
(1767.79 -375.365 5.15777e-18)
(1357.85 -328.789 -5.20584e-17)
(1399.19 296.242 1.23307e-20)
(1788.95 314.448 -9.82564e-21)
(1856.17 404.583 0)
(1895.28 523.217 0)
(1916.01 598.592 0)
(1942.54 588.554 7.84011e-21)
(1945.35 530.758 0)
(1912.82 440.435 -8.36385e-21)
(1879.31 353.535 0)
(1854.92 263.213 -8.78031e-21)
(1853.51 175.543 0)
(1852.55 84.8133 -2.37449e-18)
(1854.48 -3.07094 2.35108e-18)
(1852.24 -90.9339 0)
(1855.15 -185.626 9.28677e-18)
(1861.01 -269.07 -1.86119e-17)
(1886.53 -366.176 9.1787e-18)
(1918.75 -442.362 0)
(1950.28 -543.87 1.72712e-17)
(1942.36 -597.629 -1.60752e-17)
(1911.11 -602.502 3.6229e-17)
(1891.96 -531.798 -3.18381e-17)
(1862.92 -395.992 0)
(1782.87 -319.362 0)
(1374.28 -307.836 0)
(1401.11 286.605 -1.22831e-20)
(1788.64 294.26 9.72595e-21)
(1858.05 329.211 0)
(1912.32 449.919 0)
(1928.08 547.127 0)
(1953.71 557.69 -7.93944e-21)
(1956.99 516.02 0)
(1926.46 434.789 8.64862e-21)
(1900.47 351.824 0)
(1886.58 260.056 -8.96204e-18)
(1879.66 171.393 8.9912e-18)
(1883.96 84.5294 -8.4341e-21)
(1882.6 -0.938709 9.28698e-21)
(1883.74 -87.1249 8.42486e-21)
(1880.44 -177.266 0)
(1890 -259.012 0)
(1908.46 -358.957 8.86506e-21)
(1933.02 -434.653 -1.7159e-17)
(1961.05 -520.994 1.65807e-17)
(1953.67 -562.15 0)
(1921.72 -551.305 7.99028e-21)
(1905.85 -457.141 0)
(1852.88 -322.87 0)
(1794.53 -297.315 0)
(1404.57 -294.56 0)
(1419.96 270.418 -4.71412e-17)
(1800.29 271.848 3.94036e-17)
(1867.73 278.922 0)
(1917.74 350.817 -1.70606e-20)
(1941.3 495.642 0)
(1967.59 529.485 -1.49619e-17)
(1972.63 491.102 3.24363e-17)
(1941.57 410.694 -1.66882e-17)
(1917.87 334.568 -8.46595e-18)
(1902.27 252.783 8.6105e-18)
(1906.6 170.175 4.40316e-21)
(1906.96 82.8173 1.12405e-18)
(1909.46 -2.58192 -1.07831e-18)
(1906.75 -87.8719 8.58612e-18)
(1907.71 -179.373 -8.61234e-18)
(1906.92 -257.4 0)
(1923.28 -345.985 -1.59704e-20)
(1946.4 -412.835 0)
(1978.2 -502.855 0)
(1967.99 -537.805 -1.67889e-17)
(1936.98 -503.407 1.49234e-17)
(1910.94 -351.914 0)
(1861.08 -266.539 3.69454e-17)
(1805.54 -270.885 1.95996e-18)
(1411.32 -270.465 -9.58647e-17)
(1447.79 257.515 4.69035e-17)
(1813.02 254.232 1.86889e-20)
(1876.95 218.668 3.17568e-17)
(1915.97 291.917 -2.36104e-17)
(1948.48 438.712 -1.85326e-17)
(1974.05 481.353 0)
(1981.41 465.713 8.20006e-21)
(1952.51 400.393 1.59731e-17)
(1935.75 327.793 -1.64259e-17)
(1930.41 242.988 0)
(1928.36 159.495 0)
(1933.61 77.9111 -2.59357e-20)
(1932.43 -3.89355 3.23764e-20)
(1933.11 -85.9482 1.68791e-20)
(1928.13 -170.369 4.15245e-18)
(1933.19 -247.342 -4.10332e-18)
(1943.08 -339.998 8.71909e-21)
(1959.66 -403.393 1.62234e-17)
(1986.65 -472.006 -3.21818e-17)
(1975.89 -485.205 1.46383e-17)
(1946.32 -435.772 -1.54764e-20)
(1907.64 -282.244 0)
(1869.92 -213.753 1.75035e-20)
(1819.74 -254.667 3.91366e-17)
(1434.89 -247.814 -9.26404e-17)
(1460.62 233.359 -4.60314e-17)
(1827.56 236.211 -3.68198e-17)
(1881.9 194.916 3.50348e-17)
(1892.31 198.404 1.46447e-17)
(1956.47 355.714 -1.93619e-17)
(1982.23 439.024 0)
(1994.49 438.081 3.9042e-21)
(1967.64 375.38 -1.1567e-20)
(1953.33 310.892 7.87117e-18)
(1942.55 236.724 -1.60964e-17)
(1950.55 160.54 8.01774e-18)
(1951.79 79.0746 2.00077e-18)
(1954.61 -1.57969 -1.87065e-18)
(1951.28 -81.7944 1.86324e-18)
(1950.84 -167.443 -2.002e-18)
(1945.64 -238.433 0)
(1956.12 -319.849 1.17579e-20)
(1971.62 -375.715 -3.70134e-21)
(1999.61 -449.109 -1.63681e-17)
(1981.43 -449.383 1.42268e-17)
(1956.16 -365.998 0)
(1882.26 -194.227 0)
(1876.48 -188.238 -4.2183e-21)
(1832.7 -233.152 -3.82701e-17)
(1467.27 -217.955 -1.8884e-18)
(1477.19 214.246 -2.15063e-17)
(1836.3 224.143 1.88062e-17)
(1890.62 178.985 4.22915e-21)
(1901.98 145.473 0)
(1961.23 263.193 1.40975e-17)
(1985.65 371.474 -1.72881e-17)
(1997.5 400.189 3.73401e-21)
(1975.93 359.576 3.81344e-21)
(1967.94 301.945 1.4606e-20)
(1968.05 225.866 -1.91647e-18)
(1968.79 148.509 9.78058e-19)
(1974.47 73.2775 1.89506e-18)
(1973.33 -3.27959 -9.7025e-19)
(1973.64 -79.6892 3.87332e-18)
(1967.91 -157.737 -3.86626e-18)
(1970.12 -229.222 0)
(1973.96 -313.732 1.06794e-20)
(1980.98 -363.107 -1.57674e-17)
(2002.01 -403.372 1.46713e-17)
(1987.23 -375.259 3.71452e-21)
(1956.08 -258.473 0)
(1891.41 -133.612 0)
(1887.1 -179.911 4.26097e-21)
(1839.73 -226.308 -3.74572e-17)
(1480.64 -199.005 4.3405e-17)
(1504.62 185.807 2.16517e-20)
(1849.96 202.341 0)
(1906.66 163.778 -7.9345e-21)
(1905.48 74.9601 -1.48209e-17)
(1947.09 186.365 1.83559e-17)
(1988.67 323.618 -1.38353e-17)
(2001.72 359.283 1.64102e-17)
(1987.81 325.225 -7.25952e-18)
(1983.09 279.443 7.65419e-18)
(1976.71 214.77 -3.75575e-18)
(1987.28 146.004 3.76659e-18)
(1988.94 71.4414 -1.84353e-18)
(1991.75 -3.50437 2.10337e-18)
(1988.07 -78.0481 -2.49442e-19)
(1986.88 -156.881 3.76122e-18)
(1979.04 -219.709 -7.53371e-18)
(1985.38 -291.49 -3.99239e-18)
(1992.89 -330.645 7.19128e-18)
(2010.86 -369.697 1.45283e-20)
(1990.57 -326.582 -7.53456e-21)
(1942.63 -183.205 0)
(1895.92 -69.9661 0)
(1906.58 -165.116 0)
(1846.11 -205.952 -1.83714e-17)
(1500.15 -175.346 2.11533e-17)
(1514.19 168.055 -2.60264e-21)
(1854.77 182.749 0)
(1923.01 157.577 1.01083e-20)
(1914.04 58.4088 -8.03302e-21)
(1919.32 100.85 -7.51402e-21)
(1984.51 215.192 0)
(1999.35 304.845 -7.2957e-21)
(1991.15 302.814 7.12201e-18)
(1993.95 268.494 -7.58443e-18)
(1999.39 205.106 0)
(2002.54 136.247 1.73375e-21)
(2008.19 68.2966 0)
(2007.29 -2.10497 0)
(2007.35 -72.2387 1.82143e-18)
(2001.22 -143.527 -1.82548e-18)
(2001.18 -206.971 -7.27129e-21)
(1998.68 -279.216 -1.7434e-21)
(1993.63 -308.189 7.23445e-21)
(2003.09 -305.846 -8.39876e-18)
(1991.34 -225.37 6.91395e-18)
(1909.28 -98.3041 -1.73659e-17)
(1904.72 -52.8203 3.21663e-17)