/*--------------------------------*- C++ -*----------------------------------*\
| =========                 |                                                 |
| \\      /  F ield         | OpenFOAM: The Open Source CFD Toolbox           |
|  \\    /   O peration     | Version:  2112                                  |
|   \\  /    A nd           | Website:  www.openfoam.com                      |
|    \\/     M anipulation  |                                                 |
\*---------------------------------------------------------------------------*/
FoamFile
{
    version     2.0;
    format      ascii;
    arch        "LSB;label=32;scalar=64";
    class       volScalarField;
    location    "0.00292";
    object      epsilon;
}
// * * * * * * * * * * * * * * * * * * * * * * * * * * * * * * * * * * * * * //

dimensions      [0 2 -3 0 0 0 0];

internalField   nonuniform List<scalar> 
13875
(
1.15995e+06
2.9465e+07
3.28107e+07
3.28524e+07
3.29662e+07
3.28657e+07
3.28726e+07
3.28927e+07
3.29153e+07
3.29172e+07
3.29301e+07
3.29235e+07
3.28107e+07
3.28419e+07
3.2944e+07
3.29053e+07
3.29075e+07
3.29283e+07
3.28766e+07
3.28369e+07
3.29312e+07
3.28349e+07
3.28e+07
2.94984e+07
1.17762e+06
1.31384e+06
2.27498e+07
2.53473e+07
2.52495e+07
2.53116e+07
2.5219e+07
2.52136e+07
2.52284e+07
2.52519e+07
2.5256e+07
2.52658e+07
2.52609e+07
2.51936e+07
2.52069e+07
2.52748e+07
2.5255e+07
2.52479e+07
2.52498e+07
2.52228e+07
2.52056e+07
2.52861e+07
2.52204e+07
2.53249e+07
2.27632e+07
1.34173e+06
1.57302e+06
1.97087e+07
2.18239e+07
2.16353e+07
2.17025e+07
2.16305e+07
2.16198e+07
2.16228e+07
2.15612e+07
2.15631e+07
2.15827e+07
2.15907e+07
2.16153e+07
2.16186e+07
2.15997e+07
2.15683e+07
2.15577e+07
2.15889e+07
2.16242e+07
2.16246e+07
2.16872e+07
2.15997e+07
2.17872e+07
1.96905e+07
1.58416e+06
1.81379e+06
1.7387e+07
1.90336e+07
1.88878e+07
1.89675e+07
1.89078e+07
1.88948e+07
1.88961e+07
1.88087e+07
1.88072e+07
1.88308e+07
1.88438e+07
1.88889e+07
1.88895e+07
1.8852e+07
1.88165e+07
1.88057e+07
1.88604e+07
1.89012e+07
1.89048e+07
1.89568e+07
1.88563e+07
1.90119e+07
1.73612e+07
1.82049e+06
2.02297e+06
1.54539e+07
1.67686e+07
1.66272e+07
1.66999e+07
1.66508e+07
1.66395e+07
1.66369e+07
1.65528e+07
1.65474e+07
1.65681e+07
1.65775e+07
1.66349e+07
1.66337e+07
1.65833e+07
1.65582e+07
1.65492e+07
1.66035e+07
1.66447e+07
1.66497e+07
1.6693e+07
1.66033e+07
1.67422e+07
1.54256e+07
2.03672e+06
2.20688e+06
1.37149e+07
1.49259e+07
1.47444e+07
1.48243e+07
1.47762e+07
1.4762e+07
1.47517e+07
1.46688e+07
1.46584e+07
1.46765e+07
1.46851e+07
1.47489e+07
1.47514e+07
1.46869e+07
1.46676e+07
1.46628e+07
1.4721e+07
1.4764e+07
1.4777e+07
1.482e+07
1.47286e+07
1.49013e+07
1.38475e+07
2.22401e+06
2.42322e+06
1.22544e+07
1.34758e+07
1.3213e+07
1.32628e+07
1.3207e+07
1.31853e+07
1.31655e+07
1.30853e+07
1.30678e+07
1.30835e+07
1.30932e+07
1.31579e+07
1.31659e+07
1.30916e+07
1.30751e+07
1.30753e+07
1.31402e+07
1.31861e+07
1.32084e+07
1.32575e+07
1.32013e+07
1.34211e+07
1.19545e+07
2.43143e+06
2.66902e+06
1.06239e+07
1.23162e+07
1.19851e+07
1.19979e+07
1.19153e+07
1.18724e+07
1.18366e+07
1.17578e+07
1.17284e+07
1.17398e+07
1.17519e+07
1.1816e+07
1.18308e+07
1.17486e+07
1.17322e+07
1.17419e+07
1.18152e+07
1.18694e+07
1.19127e+07
1.19883e+07
1.19754e+07
1.22638e+07
1.05459e+07
2.69777e+06
3.50226e+06
1.02175e+07
1.149e+07
1.10476e+07
1.09545e+07
1.08475e+07
1.07835e+07
1.07302e+07
1.06534e+07
1.06109e+07
1.06155e+07
1.06314e+07
1.06936e+07
1.07162e+07
1.06292e+07
1.06115e+07
1.06329e+07
1.07121e+07
1.07784e+07
1.08428e+07
1.09518e+07
1.10346e+07
1.14824e+07
1.03487e+07
3.58112e+06
6.86949e+06
1.22646e+07
1.12258e+07
1.04343e+07
1.02443e+07
1.00608e+07
9.96512e+06
9.89094e+06
9.81678e+06
9.76833e+06
9.7641e+06
9.7808e+06
9.83928e+06
9.86692e+06
9.78587e+06
9.76824e+06
9.79476e+06
9.87242e+06
9.95249e+06
1.00481e+07
1.02249e+07
1.04151e+07
1.11889e+07
1.21557e+07
6.90099e+06
1.49796e+07
1.87356e+07
1.21024e+07
1.04618e+07
9.82497e+06
9.56014e+06
9.41921e+06
9.32004e+06
9.24795e+06
9.19786e+06
9.1845e+06
9.19714e+06
9.24872e+06
9.27795e+06
9.21487e+06
9.20349e+06
9.23192e+06
9.30312e+06
9.40362e+06
9.53575e+06
9.81131e+06
1.04187e+07
1.20062e+07
1.80932e+07
1.5083e+07
2.53758e+07
6.73154e+07
1.91984e+07
1.1083e+07
1.01215e+07
9.48766e+06
9.19866e+06
9.0595e+06
8.96983e+06
8.91272e+06
8.89061e+06
8.8945e+06
8.93173e+06
8.96306e+06
8.92333e+06
8.92853e+06
8.96697e+06
9.04982e+06
9.18807e+06
9.47176e+06
1.0063e+07
1.0912e+07
1.83719e+07
6.70624e+07
2.50882e+07
2.65058e+07
6.87168e+07
9.13791e+07
3.04809e+07
1.19054e+07
1.00239e+07
9.62645e+06
9.41697e+06
9.34074e+06
9.27798e+06
9.25432e+06
9.25297e+06
9.27494e+06
9.30815e+06
9.28969e+06
9.312e+06
9.36449e+06
9.43918e+06
9.63851e+06
1.01473e+07
1.2353e+07
2.72671e+07
8.62469e+07
6.98438e+07
2.6164e+07
2.617e+07
5.0889e+07
8.1323e+07
1.20322e+08
5.91493e+07
1.65024e+07
1.38044e+07
1.20406e+07
1.15441e+07
1.13421e+07
1.12925e+07
1.12596e+07
1.13233e+07
1.13399e+07
1.13655e+07
1.14324e+07
1.16761e+07
1.22585e+07
1.42467e+07
1.78923e+07
6.76961e+07
1.01331e+08
7.7519e+07
5.13155e+07
2.6034e+07
2.55608e+07
4.05551e+07
6.00244e+07
8.28157e+07
7.36861e+07
5.66897e+07
6.10688e+07
4.99148e+07
4.63518e+07
4.80224e+07
5.05723e+07
4.98344e+07
5.21191e+07
5.07748e+07
5.10241e+07
4.88305e+07
4.75381e+07
5.16087e+07
6.58606e+07
5.63024e+07
7.4631e+07
7.41318e+07
5.8857e+07
4.11333e+07
2.73532e+07
2.59527e+07
3.39013e+07
5.0512e+07
6.83548e+07
7.24971e+07
9.17425e+07
7.46402e+07
5.56326e+07
5.46838e+07
5.86252e+07
5.96446e+07
6.02283e+07
6.08557e+07
6.07908e+07
5.99524e+07
5.9222e+07
5.48162e+07
5.53946e+07
7.26555e+07
9.19763e+07
7.35414e+07
6.33025e+07
4.94869e+07
3.43372e+07
2.78214e+07
2.37004e+07
3.03089e+07
4.49706e+07
6.19571e+07
6.77354e+07
8.59735e+07
5.63708e+07
3.9266e+07
3.7341e+07
3.79721e+07
3.84824e+07
3.88456e+07
3.90679e+07
3.91265e+07
3.87464e+07
3.84385e+07
3.73855e+07
3.90272e+07
5.30435e+07
8.77944e+07
6.81232e+07
5.78319e+07
4.51399e+07
3.01067e+07
2.385e+07
1.93173e+07
2.99491e+07
4.37576e+07
4.9195e+07
5.25395e+07
6.48353e+07
4.57038e+07
3.20497e+07
2.90796e+07
2.84009e+07
2.80279e+07
2.79709e+07
2.80628e+07
2.81204e+07
2.82707e+07
2.87339e+07
2.91273e+07
3.20436e+07
4.47017e+07
6.45143e+07
5.14961e+07
4.61178e+07
4.36657e+07
3.0182e+07
1.91647e+07
1.56578e+07
3.05646e+07
3.8354e+07
3.85246e+07
3.89468e+07
4.63902e+07
4.08393e+07
3.13384e+07
2.59492e+07
2.32861e+07
2.18998e+07
2.13701e+07
2.13099e+07
2.13991e+07
2.18765e+07
2.30718e+07
2.52205e+07
3.03317e+07
3.99228e+07
4.60886e+07
3.78617e+07
3.69522e+07
3.80045e+07
3.08561e+07
1.55351e+07
1.43578e+07
2.97644e+07
3.09877e+07
3.08875e+07
3.08546e+07
3.56005e+07
3.55449e+07
3.01687e+07
2.4395e+07
2.04411e+07
1.81827e+07
1.72127e+07
1.7007e+07
1.72284e+07
1.81423e+07
2.02354e+07
2.39076e+07
2.9573e+07
3.49281e+07
3.50198e+07
3.00391e+07
3.00384e+07
3.08607e+07
2.86205e+07
1.44627e+07
1.54915e+07
2.37885e+07
2.52326e+07
2.52843e+07
2.52971e+07
2.89418e+07
3.03827e+07
2.70354e+07
2.19486e+07
1.7873e+07
1.5297e+07
1.40829e+07
1.38006e+07
1.41427e+07
1.53677e+07
1.78838e+07
2.18172e+07
2.6776e+07
2.99458e+07
2.84282e+07
2.47611e+07
2.48166e+07
2.47963e+07
2.27577e+07
1.55819e+07
2.12846e+07
2.40645e+07
2.15527e+07
2.14348e+07
2.13907e+07
2.43079e+07
2.58197e+07
2.34839e+07
1.92237e+07
1.5445e+07
1.28955e+07
1.16311e+07
1.13086e+07
1.16911e+07
1.2977e+07
1.54836e+07
1.91302e+07
2.32318e+07
2.54292e+07
2.3957e+07
2.1022e+07
2.10958e+07
2.09856e+07
2.31761e+07
2.13402e+07
2.45687e+07
2.7049e+07
1.89865e+07
1.82245e+07
1.83189e+07
2.061e+07
2.1836e+07
2.00475e+07
1.65209e+07
1.32181e+07
1.08804e+07
9.67814e+06
9.34851e+06
9.70028e+06
1.08916e+07
1.31633e+07
1.63181e+07
1.97049e+07
2.14286e+07
2.0305e+07
1.79814e+07
1.79127e+07
1.83284e+07
2.6453e+07
2.44404e+07
2.37402e+07
2.65122e+07
1.65756e+07
1.57077e+07
1.57692e+07
1.73707e+07
1.83958e+07
1.69758e+07
1.39569e+07
1.11361e+07
9.1297e+06
8.08743e+06
7.79953e+06
8.12366e+06
9.17424e+06
1.1139e+07
1.38173e+07
1.67009e+07
1.80813e+07
1.71119e+07
1.55462e+07
1.55207e+07
1.60885e+07
2.57642e+07
2.35418e+07
2.31081e+07
2.52045e+07
1.46243e+07
1.37473e+07
1.36873e+07
1.47501e+07
1.55643e+07
1.43856e+07
1.18418e+07
9.44889e+06
7.72116e+06
6.82714e+06
6.58106e+06
6.86428e+06
7.76944e+06
9.46927e+06
1.17434e+07
1.41562e+07
1.53057e+07
1.45284e+07
1.35031e+07
1.36107e+07
1.42724e+07
2.49017e+07
2.28179e+07
2.23911e+07
2.40924e+07
1.32449e+07
1.22398e+07
1.19968e+07
1.26678e+07
1.32306e+07
1.2195e+07
1.00653e+07
8.05738e+06
6.58868e+06
5.82226e+06
5.60373e+06
5.84964e+06
6.61489e+06
8.05021e+06
9.93953e+06
1.19402e+07
1.29643e+07
1.24649e+07
1.1808e+07
1.20934e+07
1.29376e+07
2.39071e+07
2.1886e+07
2.1678e+07
2.3178e+07
1.21178e+07
1.10083e+07
1.06255e+07
1.09685e+07
1.12551e+07
1.03117e+07
8.54484e+06
6.87943e+06
5.64552e+06
5.0053e+06
4.81919e+06
5.03452e+06
5.68958e+06
6.91233e+06
8.49617e+06
1.01558e+07
1.108e+07
1.08295e+07
1.0472e+07
1.09123e+07
1.19291e+07
2.34363e+07
2.15332e+07
2.1488e+07
2.24419e+07
1.12646e+07
9.95896e+06
9.53476e+06
9.63043e+06
9.6789e+06
8.79687e+06
7.31689e+06
5.92913e+06
4.89059e+06
4.34676e+06
4.18138e+06
4.3699e+06
4.92356e+06
5.9462e+06
7.25857e+06
8.64025e+06
9.50094e+06
9.50568e+06
9.40107e+06
9.87288e+06
1.10748e+07
2.24014e+07
2.11499e+07
2.17077e+07
2.13698e+07
1.04902e+07
9.03504e+06
8.60659e+06
8.53872e+06
8.38629e+06
7.56242e+06
6.31592e+06
5.15e+06
4.2694e+06
3.80533e+06
3.65757e+06
3.82021e+06
4.28245e+06
5.13706e+06
6.23102e+06
7.38497e+06
8.18701e+06
8.40865e+06
8.48013e+06
8.95219e+06
1.03182e+07
2.08711e+07
2.08154e+07
2.1122e+07
2.01856e+07
9.83252e+06
8.22642e+06
7.76947e+06
7.59937e+06
7.28804e+06
6.50065e+06
5.44222e+06
4.47303e+06
3.74084e+06
3.35301e+06
3.224e+06
3.37112e+06
3.76857e+06
4.49004e+06
5.40982e+06
6.39842e+06
7.15275e+06
7.5082e+06
7.67297e+06
8.1647e+06
9.70076e+06
1.99675e+07
2.11795e+07
2.03775e+07
1.91318e+07
9.34637e+06
7.58297e+06
7.03397e+06
6.79619e+06
6.40211e+06
5.66916e+06
4.75735e+06
3.93169e+06
3.30852e+06
2.97686e+06
2.86242e+06
2.99201e+06
3.32607e+06
3.93404e+06
4.71481e+06
5.56498e+06
6.26813e+06
6.70194e+06
6.93311e+06
7.52013e+06
9.17222e+06
1.89561e+07
2.03098e+07
1.97072e+07
1.82374e+07
8.93814e+06
7.10721e+06
6.39168e+06
6.10365e+06
5.67765e+06
4.98638e+06
4.1902e+06
3.48052e+06
2.94949e+06
2.66314e+06
2.55896e+06
2.6746e+06
2.95885e+06
3.47208e+06
4.13946e+06
4.87944e+06
5.5409e+06
6.00375e+06
6.2964e+06
7.02124e+06
8.75697e+06
1.79789e+07
1.93792e+07
1.8697e+07
1.70563e+07
8.71315e+06
6.71796e+06
5.84773e+06
5.482e+06
5.03806e+06
4.39984e+06
3.70563e+06
3.09317e+06
2.63779e+06
2.39347e+06
2.30185e+06
2.40677e+06
2.65245e+06
3.09613e+06
3.67819e+06
4.32539e+06
4.93297e+06
5.39886e+06
5.76325e+06
6.61894e+06
8.47546e+06
1.71619e+07
1.87879e+07
1.82319e+07
1.59493e+07
8.49761e+06
6.45412e+06
5.40834e+06
4.96339e+06
4.50687e+06
3.922e+06
3.30539e+06
2.77257e+06
2.38072e+06
2.16745e+06
2.08307e+06
2.17779e+06
2.39009e+06
2.76971e+06
3.27591e+06
3.85059e+06
4.4048e+06
4.88167e+06
5.32597e+06
6.32646e+06
8.38801e+06
1.61399e+07
1.80314e+07
1.78371e+07
1.50484e+07
8.08398e+06
6.25528e+06
5.07612e+06
4.52131e+06
4.05049e+06
3.51708e+06
2.97383e+06
2.50595e+06
2.1596e+06
1.97261e+06
1.89598e+06
1.98105e+06
2.16556e+06
2.49943e+06
2.94386e+06
3.45079e+06
3.9526e+06
4.44246e+06
4.99818e+06
6.15332e+06
8.15162e+06
1.50938e+07
1.7471e+07
1.70915e+07
1.39699e+07
7.56672e+06
6.08853e+06
4.82557e+06
4.15408e+06
3.66065e+06
3.16102e+06
2.67769e+06
2.26789e+06
1.96831e+06
1.80463e+06
1.73487e+06
1.81427e+06
1.97892e+06
2.27104e+06
2.66299e+06
3.11691e+06
3.58062e+06
4.08857e+06
4.75011e+06
6.03898e+06
7.6859e+06
1.41686e+07
1.69476e+07
1.66379e+07
1.30601e+07
7.09463e+06
6.07607e+06
4.64493e+06
3.87228e+06
3.33486e+06
2.86351e+06
2.43221e+06
2.07043e+06
1.80404e+06
1.65859e+06
1.59494e+06
1.66759e+06
1.81176e+06
2.07193e+06
2.41731e+06
2.82332e+06
3.25906e+06
3.80681e+06
4.56503e+06
6.03691e+06
7.15959e+06
1.3112e+07
1.63035e+07
1.63188e+07
1.22186e+07
6.64747e+06
5.94751e+06
4.55426e+06
3.65591e+06
3.07633e+06
2.61589e+06
2.21938e+06
1.89588e+06
1.66188e+06
1.53219e+06
1.47326e+06
1.54062e+06
1.66824e+06
1.89611e+06
2.20495e+06
2.58095e+06
3.01117e+06
3.59575e+06
4.49116e+06
5.92121e+06
6.64463e+06
1.21694e+07
1.59542e+07
1.58091e+07
1.13905e+07
6.10651e+06
5.62021e+06
4.50475e+06
3.48499e+06
2.87413e+06
2.40435e+06
2.03322e+06
1.74253e+06
1.53433e+06
1.41879e+06
1.36596e+06
1.4287e+06
1.54293e+06
1.74841e+06
2.02777e+06
2.38188e+06
2.82427e+06
3.4313e+06
4.47305e+06
5.62623e+06
6.12519e+06
1.13779e+07
1.57153e+07
1.55126e+07
1.07301e+07
5.60168e+06
5.28272e+06
4.61381e+06
3.38866e+06
2.72157e+06
2.24162e+06
1.87782e+06
1.61083e+06
1.4244e+06
1.32049e+06
1.27111e+06
1.32921e+06
1.43158e+06
1.61504e+06
1.87188e+06
2.22239e+06
2.67585e+06
3.32739e+06
4.58997e+06
5.28256e+06
5.57985e+06
1.06533e+07
1.52856e+07
1.5279e+07
1.02123e+07
5.19716e+06
4.92391e+06
4.58557e+06
3.36563e+06
2.60483e+06
2.11824e+06
1.75201e+06
1.49861e+06
1.32704e+06
1.23223e+06
1.1867e+06
1.23961e+06
1.33285e+06
1.50099e+06
1.74546e+06
2.1002e+06
2.56584e+06
3.3289e+06
4.57566e+06
4.91994e+06
5.12134e+06
1.00965e+07
1.5001e+07
1.48846e+07
9.71636e+06
4.79848e+06
4.54132e+06
4.35284e+06
3.43848e+06
2.52408e+06
2.01429e+06
1.65122e+06
1.40246e+06
1.24079e+06
1.1538e+06
1.11143e+06
1.16164e+06
1.24743e+06
1.40652e+06
1.64796e+06
2.00294e+06
2.51455e+06
3.45909e+06
4.3197e+06
4.54627e+06
4.80933e+06
9.65028e+06
1.48094e+07
1.46204e+07
9.29328e+06
4.50043e+06
4.18096e+06
4.07272e+06
3.54403e+06
2.52411e+06
1.93871e+06
1.57728e+06
1.32186e+06
1.16642e+06
1.08358e+06
1.04389e+06
1.09101e+06
1.17175e+06
1.326e+06
1.57151e+06
1.92451e+06
2.53926e+06
3.54551e+06
4.0234e+06
4.17958e+06
4.47408e+06
9.21231e+06
1.44829e+07
1.44181e+07
8.92283e+06
4.31071e+06
3.87307e+06
3.77759e+06
3.46528e+06
2.63147e+06
1.9001e+06
1.51382e+06
1.26067e+06
1.10568e+06
1.02346e+06
984363
1.03007e+06
1.11058e+06
1.26467e+06
1.50652e+06
1.88857e+06
2.70211e+06
3.44922e+06
3.71041e+06
3.86139e+06
4.23322e+06
8.8117e+06
1.42576e+07
1.42023e+07
8.5108e+06
4.07666e+06
3.59985e+06
3.48327e+06
3.27097e+06
2.84144e+06
1.92262e+06
1.46655e+06
1.21389e+06
1.05999e+06
973443
934018
979996
1.06424e+06
1.21778e+06
1.46138e+06
1.95162e+06
2.85569e+06
3.24598e+06
3.413e+06
3.59403e+06
4.08422e+06
8.46901e+06
1.40828e+07
1.40282e+07
8.14272e+06
3.93804e+06
3.3715e+06
3.22252e+06
3.07353e+06
2.89019e+06
2.12174e+06
1.44999e+06
1.17492e+06
1.02482e+06
937001
893971
942809
1.02755e+06
1.17647e+06
1.44501e+06
2.12057e+06
2.80787e+06
3.03271e+06
3.15858e+06
3.3589e+06
3.91047e+06
8.08981e+06
1.39165e+07
1.38766e+07
7.82696e+06
3.83473e+06
3.18915e+06
3.00712e+06
2.87358e+06
2.73892e+06
2.31269e+06
1.53568e+06
1.14701e+06
991740
907047
862178
912010
994609
1.14677e+06
1.52182e+06
2.29512e+06
2.66405e+06
2.82117e+06
2.94776e+06
3.16945e+06
3.77069e+06
7.74686e+06
1.37346e+07
1.35496e+07
7.43764e+06
3.68064e+06
3.02635e+06
2.82105e+06
2.68227e+06
2.57884e+06
2.31908e+06
1.7261e+06
1.15724e+06
963956
879614
835843
884240
968474
1.16814e+06
1.72994e+06
2.2958e+06
2.51354e+06
2.63416e+06
2.76944e+06
3.01478e+06
3.67287e+06
7.41558e+06
1.33844e+07
1.30265e+07
7.0185e+06
3.53578e+06
2.87933e+06
2.66229e+06
2.51605e+06
2.41054e+06
2.21784e+06
1.89658e+06
1.25453e+06
953157
855361
812598
859320
959429
1.26541e+06
1.86822e+06
2.19214e+06
2.35568e+06
2.47101e+06
2.61781e+06
2.86751e+06
3.52016e+06
6.98309e+06
1.28426e+07
1.15563e+07
6.42352e+06
3.37552e+06
2.72991e+06
2.51941e+06
2.37067e+06
2.25275e+06
2.1025e+06
1.90292e+06
1.45186e+06
996003
842943
797109
845555
1.00386e+06
1.44594e+06
1.8468e+06
2.07471e+06
2.20716e+06
2.33105e+06
2.47951e+06
2.71593e+06
3.34419e+06
6.36253e+06
1.14174e+07
215588
144738
132225
129126
127521
126686
126793
127938
130044
133210
137636
143322
150277
158469
167898
178717
191309
205541
220210
220537
188950
175433
171862
170708
170029
169461
168912
168616
171908
288340
151772
117131
112125
111614
111378
111844
113086
115291
118334
122194
126923
132518
139023
146411
154705
163994
174370
186083
198991
211784
199660
140431
119905
116245
115255
114713
114202
114036
115767
156075
124378
104343
102137
102781
102973
104324
106399
109492
113327
117828
122904
128609
135019
142110
150084
158802
167885
177421
187177
196896
202879
173908
113973
97997.4
95578.4
94999.1
94673.5
94679.8
96195.4
119675
116768
100005
98508.8
99431.1
99931.1
101821
104438
108359
113088
118414
124046
130202
137075
144464
152362
160863
170205
179774
189084
198053
206235
207875
161507
102663
90532.4
88964.3
88610.6
88688.8
90364.5
110542
115947
99264.4
97905.6
99054
99852.8
102264
105435
110006
115449
121570
127863
134418
141769
149552
157755
166244
175015
184503
194481
203507
211706
219868
216725
149681
96668.1
88146.4
87109.1
87107.6
88858.2
108515
116448
99156.6
97968.4
99122.3
100376
103409
107391
112824
119121
125970
132826
139798
147510
155717
164094
172596
181327
190373
199968
209756
218705
227433
235810
223812
135255
92767.8
87307.4
86834.2
88535.1
108113
118043
99604.2
98666
99958.8
101853
105632
110583
117054
124384
132112
139631
146715
154485
162658
171302
179733
188309
197025
206250
216267
226335
235610
245427
253044
224209
120499
90195.2
87133.6
88533.9
108043
119625
100327
99751
101509
104267
109190
115430
123098
131502
140051
148145
155522
162605
170500
179305
187725
196218
204846
213802
223534
234084
244580
254752
265863
270533
211112
108207
88781.1
88755.7
108081
121141
101204
101140
103722
107851
114314
122233
131253
140752
149977
158490
165927
172552
179736
188128
196819
205224
213790
222595
231921
242338
253672
264955
276671
289110
286252
185756
99189.3
89661.9
108315
122533
102156
102845
106696
113031
121678
131658
142178
152463
161961
170370
177594
183903
190401
198034
206753
215132
223578
232276
241321
251412
262953
275516
288163
301959
315044
295408
153742
94810.4
109183
124345
103375
105078
110812
119776
130952
143151
155355
166124
175312
183469
190330
196325
202032
208777
216890
225406
233639
242250
251206
261123
272573
285860
300134
314778
330882
341887
284749
124582
112580
126238
104985
108193
116199
128007
141766
156131
169660
181080
190093
197482
203532
208963
213339
219461
226626
235224
243218
251744
260811
270828
282222
295728
311255
327741
344970
363051
365089
234886
128037
129174
107506
112756
123665
138749
155087
171259
185685
197432
205882
212249
216861
220964
224426
229385
235735
243875
251853
260269
269503
279719
291268
304862
320907
339214
358388
378355
399222
374552
203200
132255
111106
119276
133923
152294
170973
188790
203246
214584
222102
226809
230008
232928
235433
238022
243895
251221
259380
267609
276983
287322
299183
312946
329198
348461
369835
391521
417950
444338
420550
137685
116789
128597
147530
169250
189812
207917
221463
231525
237065
239798
241586
243116
244755
245746
250513
256946
265337
273437
282974
293455
305714
319650
335981
355620
378361
401421
434923
498232
736856
143371
125109
141395
165142
189523
210397
227480
238882
246579
249476
250322
250515
250794
251315
251829
255081
260787
269208
277372
287061
297811
310364
324439
340919
360692
383260
410358
459909
601881
1.18653e+06
153783
137097
159179
186521
211988
231591
246146
254163
258790
258770
257495
256352
255533
255126
255307
256881
262258
270722
279147
288985
300054
312629
326869
343643
363629
383420
419245
497732
778560
1.43479e+06
162831
153067
181386
211294
235913
251972
262965
267512
269014
265221
261404
258910
257192
256164
256032
255937
261325
269506
278534
288379
299732
312248
326898
344236
364614
386874
431691
557832
987644
1.53341e+06
177284
174122
207928
237595
260632
273384
282130
283403
279301
269947
264024
260379
257766
255914
255182
253067
257959
265763
275448
285367
296943
309792
324786
342643
363832
390473
450032
656718
1.22052e+06
1.55939e+06
187812
201714
239963
269595
293021
306888
314936
309082
295878
280705
271466
265075
259167
253646
249051
246710
250080
258748
269293
280246
292315
305847
321332
339439
359936
393541
475951
814130
1.46095e+06
1.5273e+06
206788
236218
281042
316464
358520
376208
379776
362756
337343
308315
289708
275168
261519
251529
245244
242072
243598
251655
262548
273724
286392
300461
316667
335177
356487
396638
515046
1.02609e+06
1.49395e+06
1.46746e+06
228357
295360
354833
437888
507760
525889
517952
478794
423573
366027
327493
296150
274027
259190
249992
243794
241857
247642
257157
267252
279907
294317
310966
329987
353625
402446
574076
1.27348e+06
1.44506e+06
1.40984e+06
278316
388697
536986
680177
769162
771352
758666
687183
578695
467238
391626
339177
303822
279330
263470
252095
245099
248036
254742
262355
273729
287914
304577
323853
350429
413584
667867
1.4884e+06
1.40014e+06
1.36526e+06
348196
768378
865202
997267
1.07996e+06
1.11441e+06
1.12943e+06
1.01084e+06
828763
634368
496916
411402
354777
314091
286968
267996
252854
250419
253444
259315
268821
282014
298083
317230
347767
435072
832826
1.55169e+06
1.35664e+06
1.32118e+06
553612
2.04355e+06
1.62302e+06
1.37105e+06
1.43259e+06
1.49435e+06
1.57929e+06
1.47478e+06
1.2077e+06
893321
659762
520162
434659
369384
322849
288240
261910
251913
252127
257739
265591
277459
292381
310590
347220
473056
1.0296e+06
1.54202e+06
1.31416e+06
1.28868e+06
288342
171909
168618
168915
169464
170032
170708
171847
175371
188493
219888
220040
205428
191204
178615
167804
158388
150211
143269
137592
133187
130034
127940
126803
126701
127540
129147
132243
144788
215755
156075
115767
114036
114201
114712
115251
116227
119779
139673
198357
211347
198687
185809
174125
163775
154509
146239
138874
132391
126815
122108
118266
115240
113047
111813
111352
111590
112103
117110
151773
119676
96195.6
94679.9
94673.2
94996.9
95566.4
97908.6
113344
172301
202184
196427
186763
177055
167558
158513
149829
141882
134817
128431
122752
117700
113222
109408
106331
104267
102922
102734
102094
104303
124374
110541
90364.4
88688.4
88608.9
88955.4
90470.2
102128
159599
206949
205622
197510
188607
179350
169829
160525
152056
144189
136832
129986
123858
118247
112942
108245
104353
101752
99870.5
99373.1
98449.8
99944.3
116672
108514
88857.9
87106.3
87102.8
88105.4
96257.6
147604
215510
219156
211056
202913
193956
184034
174588
165856
157405
149237
141490
134160
127614
121371
115297
109890
105344
102192
99789.6
98993.9
97845.1
99205.2
115854
108113
88534.4
86829.9
87280.5
92488.4
133385
222156
234974
226695
218001
209123
199397
189851
180849
172159
163697
155354
147186
139445
132563
125765
118956
112691
107286
103327
100309
99059
97907.9
99097.2
116426
108042
88531
87116.5
90025.6
118976
221686
252031
244624
234822
225605
215606
205637
196455
187781
179246
170859
162246
154111
146420
139371
131885
124200
116910
110471
105548
101789
99900.9
98612.6
99552.9
117955
108078
88745.3
88687.4
107206
207856
269352
265037
253924
243770
233346
222856
213171
204258
195670
187212
178840
170060
162268
155223
147887
139819
131310
122953
115321
109116
104215
101468
99718.4
100300
119604
108304
89614.5
98567.4
182258
284715
288292
275834
264083
252864
241600
231236
221962
213208
204683
196305
187666
179292
172183
165596
158245
149746
140529
131102
122150
114271
107837
103719
101152
101216
121118
109141
94499.4
150957
293278
314257
301197
287313
274674
262175
250688
240655
231675
223034
214637
206282
197605
189980
183448
177159
169928
161562
152080
141884
131657
121724
113094
106762
102920
102222
122545
112405
122953
281142
341023
330243
314006
299295
285063
271827
260430
250573
241687
233133
224959
216472
208373
201578
195738
189627
182935
175040
166031
155420
143356
131192
120019
111018
105230
103511
124486
127235
230948
363873
362591
344345
326963
310469
294972
281503
270160
260212
251209
242726
234792
226225
218992
212634
208263
203070
197209
190043
181234
170004
156445
142088
128333
116502
108441
105199
126444
199226
372205
398949
377966
357762
338493
320174
304136
290573
279075
268918
259745
251361
243431
235328
228390
224304
220854
216839
212154
206096
197875
186189
171765
155494
139140
124036
113096
107803
129519
414410
443684
417812
391109
369256
347808
328507
312242
298503
286690
276398
267085
258888
250751
243478
237474
235452
232948
230149
226883
222455
215257
203874
189429
171468
152804
134411
119694
111496
132752
730691
497681
434770
401130
377874
355012
335317
318973
305057
292843
282410
272945
264901
256522
250206
245856
244943
243267
241887
240279
237764
232357
222164
208598
190404
169835
148126
129144
117260
138379
1.18439e+06
600927
459652
410117
382872
360110
340288
323809
309763
297257
286560
276948
268857
260459
254994
252217
251632
251122
251035
251060
250471
247433
239619
228177
211048
190193
165852
142052
125620
144133
1.43668e+06
778547
497528
419051
383086
363104
343072
326335
312139
299595
288566
278791
270475
262066
257048
255705
255570
255969
257119
258496
259916
259480
254784
246624
232138
212756
187377
159700
137772
154425
1.53703e+06
989933
557703
431524
386584
364203
343741
326464
311862
299381
288042
278176
269360
261212
256299
256553
256876
258011
260068
262549
266385
269556
268044
263520
252705
236968
212486
182454
153930
163439
1.56375e+06
1.22608e+06
656921
449927
390247
363584
342248
324408
309421
296611
285060
275110
265631
257830
253260
255504
256660
258721
261741
265395
271351
280110
284115
283204
274792
262204
239317
209645
175151
177906
1.53205e+06
1.46845e+06
815393
475941
393454
359962
339141
320981
305479
291950
279925
269126
258718
250084
247275
249601
254410
259833
266213
272811
282204
297626
310739
317120
309665
296316
271923
242061
203245
188528
1.47215e+06
1.50111e+06
1.0295e+06
515440
396531
356161
334900
316299
300064
285940
273361
262291
251767
244228
243057
246428
252809
262687
276463
290476
310203
340280
366586
385650
382475
364050
319581
284139
238333
207735
1.41438e+06
1.45175e+06
1.28121e+06
575238
402251
353285
329624
310522
293861
279468
266899
256891
247591
242600
244949
251488
261005
276195
299039
328499
368753
428900
485853
527707
536106
520776
445595
358507
298880
229715
1.36986e+06
1.40664e+06
1.49706e+06
670813
413545
350059
323407
304093
287470
273402
262060
254421
247771
245777
253166
265128
281681
306388
343644
393682
473055
590448
700734
775814
783168
781930
699327
550751
394577
281180
1.32531e+06
1.36248e+06
1.55743e+06
839073
435525
347392
316632
297577
281552
268472
259048
253661
250773
253176
269377
289243
317268
357869
417712
499412
640913
849529
1.03977e+06
1.15442e+06
1.1323e+06
1.0928e+06
1.01544e+06
887806
786983
352998
1.29103e+06
1.31888e+06
1.54617e+06
1.03826e+06
474326
346801
309963
291839
276959
265399
257839
252854
253579
262797
289897
325479
373380
438118
529084
662681
901940
1.23153e+06
1.51034e+06
1.59858e+06
1.50124e+06
1.44706e+06
1.38939e+06
1.66405e+06
2.07372e+06
563921
107109
107109
107115
107121
107126
107132
107138
107143
107149
107154
107160
107166
107171
107177
107182
107188
107194
107199
107205
107210
107216
107221
107227
107232
107238
107243
107249
107254
107260
107265
107271
107276
107281
107287
107292
107298
107303
107308
107314
107319
107324
107330
107335
107340
107345
107350
107356
107361
107366
107371
107384
107538
111114
209299
1.50096e+06
4.93272e+06
8.14841e+06
1.07175e+07
1.1013e+07
1.06506e+07
1.01926e+07
9.66698e+06
8.91761e+06
8.09238e+06
7.35717e+06
6.7244e+06
6.18301e+06
5.73141e+06
5.34718e+06
5.01555e+06
4.72376e+06
4.46518e+06
4.22958e+06
4.00349e+06
3.78487e+06
3.57449e+06
3.37144e+06
3.17162e+06
2.97706e+06
2.78967e+06
2.61535e+06
2.45562e+06
2.30964e+06
2.17469e+06
2.04964e+06
1.93563e+06
1.8322e+06
1.7376e+06
1.65057e+06
1.57031e+06
1.49666e+06
1.42918e+06
1.36727e+06
1.3095e+06
1.25477e+06
1.20644e+06
1.1643e+06
1.12818e+06
1.09748e+06
1.07166e+06
1.05005e+06
1.03158e+06
1.01588e+06
1.00311e+06
993262
986039
981134
977981
976168
975796
977253
981155
987514
996478
1.00836e+06
1.02353e+06
1.04217e+06
1.06318e+06
1.086e+06
1.1114e+06
1.13933e+06
1.16937e+06
1.2002e+06
1.2304e+06
1.26004e+06
88758.5
88753.8
88752.1
88750.7
88749.3
88747.8
88746.4
88744.9
88743.4
88741.9
88740.3
88738.8
88737.2
88735.6
88733.9
88732.3
88730.6
88729
88727.3
88725.5
88723.8
88722
88720.3
88718.5
88716.7
88714.8
88713
88711.1
88709.2
88707.3
88705.4
88703.5
88701.5
88699.6
88697.6
88695.6
88693.6
88691.6
88689.5
88687.4
88685.4
88683.3
88681.2
88679
88676.9
88674.8
88672.6
88670.4
88668.4
88671.1
88831.2
106495
816888
4.53245e+06
7.17927e+06
7.31439e+06
7.10326e+06
7.24535e+06
7.59791e+06
8.10982e+06
8.78542e+06
9.83616e+06
1.08652e+07
1.0844e+07
1.05031e+07
1.00551e+07
9.47491e+06
8.83329e+06
8.16059e+06
7.48258e+06
6.83834e+06
6.26832e+06
5.77069e+06
5.3176e+06
4.90259e+06
4.53204e+06
4.20494e+06
3.91362e+06
3.65557e+06
3.42681e+06
3.21886e+06
3.02849e+06
2.85321e+06
2.69114e+06
2.54247e+06
2.40711e+06
2.28393e+06
2.17105e+06
2.06777e+06
1.97309e+06
1.88628e+06
1.80576e+06
1.73188e+06
1.6642e+06
1.60077e+06
1.53946e+06
1.48548e+06
1.44017e+06
1.4009e+06
1.36597e+06
1.33364e+06
1.30335e+06
1.27553e+06
1.25031e+06
1.22878e+06
1.21097e+06
1.19619e+06
1.18327e+06
1.17165e+06
1.1613e+06
1.15205e+06
1.14424e+06
1.13847e+06
1.13491e+06
1.13357e+06
1.13536e+06
1.14048e+06
1.14878e+06
1.16003e+06
1.1735e+06
1.18881e+06
1.20625e+06
1.22636e+06
1.24942e+06
1.28154e+06
86766
86763.5
86761.9
86760.3
86758.8
86757.3
86755.8
86754.3
86752.8
86751.3
86749.8
86748.3
86746.8
86745.3
86743.8
86742.3
86740.9
86739.4
86737.9
86736.4
86735
86733.5
86732.1
86730.6
86729.1
86727.7
86726.2
86724.8
86723.4
86721.9
86720.5
86719.1
86717.6
86716.2
86714.8
86713.4
86712
86710.5
86709.1
86707.7
86706.3
86704.9
86703.6
86702.2
86700.8
86699.4
86698
86696.8
86700.3
86926.7
117502
1.30651e+06
5.59433e+06
7.18906e+06
6.58322e+06
5.73277e+06
5.12686e+06
4.6907e+06
4.42247e+06
4.35516e+06
4.49374e+06
4.92716e+06
5.73646e+06
6.89184e+06
8.39905e+06
1.02364e+07
1.23398e+07
1.42886e+07
1.50399e+07
1.50378e+07
1.44795e+07
1.33775e+07
1.18375e+07
1.03131e+07
9.03311e+06
7.97036e+06
7.09768e+06
6.38993e+06
5.80433e+06
5.29818e+06
4.84726e+06
4.45217e+06
4.10755e+06
3.80335e+06
3.53471e+06
3.29797e+06
3.08863e+06
2.90327e+06
2.74e+06
2.59519e+06
2.46618e+06
2.34924e+06
2.24173e+06
2.14396e+06
2.05467e+06
1.9724e+06
1.89717e+06
1.83234e+06
1.77388e+06
1.72129e+06