/*--------------------------------*- C++ -*----------------------------------*\
| =========                 |                                                 |
| \\      /  F ield         | OpenFOAM: The Open Source CFD Toolbox           |
|  \\    /   O peration     | Version:  2112                                  |
|   \\  /    A nd           | Website:  www.openfoam.com                      |
|    \\/     M anipulation  |                                                 |
\*---------------------------------------------------------------------------*/
FoamFile
{
    version     2.0;
    format      ascii;
    arch        "LSB;label=32;scalar=64";
    class       surfaceScalarField;
    location    "0.00361";
    object      phi;
}
// * * * * * * * * * * * * * * * * * * * * * * * * * * * * * * * * * * * * * //

dimensions      [1 0 -1 0 0 0 0];

oriented        oriented;

internalField   nonuniform List<scalar> 
27436
(
-0.53337
8.19273
-0.093192
7.47158
-0.0833643
7.78614
-0.0693655
7.78654
-0.0694544
7.79288
-0.0540716
7.78157
-0.0394313
7.78218
-0.027799
7.78465
-0.0201633
7.78876
-0.0139116
7.78999
-0.00760241
7.78999
-0.000838645
7.78872
0.0130089
7.78344
0.0311371
7.78034
0.0466752
7.78215
0.0539211
7.78931
0.054733
7.79407
0.0629695
7.78804
0.0746524
7.78434
0.0942507
7.778
0.0962544
7.79097
0.111451
7.7857
0.123712
7.78266
0.572357
7.4619
8.21198
-0.247244
8.43998
-0.0963462
7.32067
-0.0818908
7.77167
-0.0567258
7.76132
-0.055445
7.7916
-0.0479415
7.77392
-0.0396924
7.77425
-0.0420827
7.78789
-0.0230254
7.76957
-0.0114916
7.77984
0.000784192
7.77867
0.0183269
7.77427
0.0168946
7.78501
0.0217283
7.77522
0.0209393
7.78281
0.0388419
7.77121
0.051249
7.78164
0.0718923
7.7674
0.0679091
7.78841
0.0752082
7.77076
0.0720595
7.79409
0.102761
7.75498
0.114134
7.77153
0.267789
7.30593
8.47936
-0.227278
8.66725
-0.141236
7.23464
-0.120733
7.75118
-0.107559
7.74818
-0.0981901
7.7822
-0.0938847
7.7695
-0.0912398
7.77156
-0.0865002
7.78273
-0.0665452
7.7492
-0.0535709
7.767
-0.0328979
7.76226
-0.0176329
7.75573
-0.0127488
7.77958
-0.0111623
7.7736
-0.00680353
7.77847
0.0151816
7.74925
0.0279908
7.76885
0.0513313
7.74423
0.0539997
7.78579
0.0536161
7.77118
0.0618746
7.7858
0.0782529
7.7387
0.100167
7.74929
0.192314
7.21407
8.67968
-0.169653
8.8369
-0.139565
7.20456
-0.134278
7.74591
-0.112054
7.72595
-0.104603
7.7747
-0.0995075
7.76431
-0.0955137
7.7675
-0.0822059
7.76918
-0.0642655
7.73014
-0.0471345
7.74961
-0.0257519
7.743
-0.00902418
7.73678
0.00168394
7.7681
0.00519187
7.77004
0.0148164
7.76891
0.0395905
7.72469
0.0540082
7.75443
0.0764542
7.72169
0.0871586
7.77508
0.0867422
7.77158
0.0915782
7.78095
0.117933
7.71237
0.110976
7.75584
0.161493
7.16559
8.84513
-0.073694
8.91059
-0.0364812
7.16736
-0.0914297
7.80087
-0.0584862
7.69304
-0.0594025
7.77558
-0.0592717
7.76406
-0.0587635
7.76658
-0.0466525
7.75562
-0.0319457
7.71409
-0.0170422
7.73459
0.000389697
7.72762
0.015071
7.72006
0.0260799
7.75625
0.0272111
7.76876
0.0354141
7.76075
0.059021
7.70101
0.0683656
7.74507
0.0879619
7.7019
0.098004
7.76499
0.0929588
7.77661
0.0930292
7.78086
0.123382
7.68198
0.0894988
7.78937
0.097179
7.15874
8.94075
0.1182
8.7924
0.0437839
7.24178
-0.0487382
7.8934
-0.0073314
7.65164
-0.0216457
7.78983
-0.0293369
7.77164
-0.0325987
7.76936
-0.0254867
7.74694
-0.0153524
7.70361
-0.00525118
7.72408
0.00879618
7.71401
0.0182746
7.70849
0.025856
7.74774
0.0234661
7.77102
0.0283561
7.75604
0.04704
7.68215
0.051684
7.74039
0.0646899
7.68878
0.0718597
7.75773
0.0623105
7.78611
0.0475681
7.79558
0.086182
7.64335
-0.0141363
7.88921
-0.0197297
7.16444
8.91608
0.304407
8.48803
0.136203
7.41001
-0.00426034
8.03435
0.0283281
7.61847
-0.0110575
7.82914
-0.0433886
7.80378
-0.068117
7.79332
-0.0800834
7.75665
-0.0904862
7.71408
-0.102802
7.73561
-0.105881
7.71598
-0.120235
7.7206
-0.127842
7.7546
-0.149515
7.79262
-0.161943
7.76863
-0.160687
7.68075
-0.181402
7.76105
-0.190708
7.69795
-0.202965
7.76989
-0.236052
7.81916
-0.268066
7.82759
-0.288062
7.66335
-0.354701
7.95553
-0.657569
7.46785
8.25397
0.873383
7.61473
0.521858
7.76159
0.414457
8.14178
0.338655
7.6942
0.277723
7.89008
0.225737
7.85579
0.184845
7.83383
0.157353
7.78157
0.130733
7.74034
0.106962
7.75828
0.0873865
7.73262
0.0627711
7.74305
0.0387462
7.77844
0.00512283
7.8264
-0.0189847
7.79301
-0.0387302
7.7005
-0.0684888
7.79069
-0.0951116
7.72443
-0.122881
7.79756
-0.172354
7.86861
-0.233256
7.88847
-0.282791
7.71281
-0.407494
8.08
-0.693632
7.75403
7.55721
0.594016
7.02085
0.410095
7.9455
0.240697
8.31099
0.195701
7.73904
0.141906
7.94402
0.102653
7.89548
0.0795036
7.85657
0.0705237
7.78685
0.068159
7.74091
0.0708105
7.75453
0.0732988
7.72487
0.0759823
7.73984
0.0776514
7.77799
0.0750641
7.82972
0.0780201
7.79055
0.0760402
7.70247
0.0727058
7.79391
0.0668046
7.73027
0.0590868
7.80527
0.0229997
7.90475
-0.0315174
7.94309
-0.0495257
7.73087
-0.220468
8.2509
-0.372469
7.90613
7.18687
-3.03618
10.0572
-3.37181
8.28094
-2.7548
7.69366
-2.61138
7.59589
-2.30411
7.63825
-1.99908
7.59234
-1.69368
7.54988
-1.38838
7.47747
-1.09804
7.44896
-0.793362
7.44904
-0.502902
7.42757
-0.204652
7.44641
0.0982047
7.47832
0.408726
7.52051
0.70789
7.49216
0.976037
7.43408
1.29177
7.47805
1.56279
7.45926
1.90062
7.46748
2.20439
7.60106
2.50552
7.64212
2.63318
7.6033
3.21078
7.67363
2.93781
8.17898
10.1278
-4.22828
14.2849
-4.35042
8.40144
-4.13141
7.47348
-3.8173
7.28327
-3.37074
7.19592
-2.8837
7.10801
-2.39976
7.06403
-1.95137
7.02631
-1.49416
6.99301
-1.02628
6.98288
-0.579982
6.97614
-0.117317
6.99519
0.34827
7.01761
0.830044
7.0406
1.28874
7.03463
1.7077
7.01469
2.16685
7.01873
2.61919
7.007
3.07894
7.00795
3.60879
7.07146
4.07866
7.1726
4.39454
7.28761
4.57749
7.49142
4.51951
8.23794
14.6474
-2.69303
16.9765
-4.93788
10.6434
-4.93766
7.47099
-4.19745
6.54877
-3.78636
6.79114
-3.31222
6.63561
-2.80465
6.55376
-2.29466
6.51632
-1.77321
6.47682
-1.26017
6.47573
-0.763139
6.48097
-0.24939
6.49638
0.270461
6.50351
0.801696
6.51207
1.31698
6.52107
1.79508
6.53656
2.28876
6.52503
2.79398
6.50175
3.29932
6.50298
3.80165
6.56968
4.25883
6.7161
5.02896
6.51819
4.83356
7.68769
2.71904
10.3531
17.367
2.36512
14.609
0.586572
12.4195
-4.79792
12.8549
-3.81863
5.57754
-4.01663
6.99857
-3.52957
6.14908
-2.98806
6.01194
-2.46324
5.99655
-1.94053
5.96514
-1.40771
5.95457
-0.87236
5.95612
-0.325186
5.95991
0.232177
5.94975
0.792219
5.95412
1.34013
5.97488
1.86956
6.00789
2.38412
6.01086
2.87287
6.01312
3.40061
5.97583
3.91451
6.0567
3.83528
6.79697
4.88525
5.46964
-0.41155
12.9874
-2.37865
12.3227
14.9892
2.46192
12.1429
3.28136
11.5978
3.69153
12.4473
-0.628473
9.90892
-4.3244
10.7003
-3.89354
5.72343
-3.30079
5.425
-2.83537
5.54086
-2.25821
5.40338
-1.69978
5.40921
-1.12282
5.38669
-0.552765
5.39365
0.0300175
5.36807
0.61481
5.37037
1.20115
5.38991
1.77724
5.43337
2.34471
5.44485
2.78334
5.5751
3.29117
5.46896
3.56478
5.78593
-0.290588
10.6523
-4.58071
9.76414
-3.88577
12.2954
-2.93047
11.3676
12.0601
1.70062
10.4401
3.45011
9.84794
5.05873
10.842
5.49913
9.4738
4.83624
11.3765
1.06918
9.48781
-0.820795
7.31005
-1.40047
6.13079
-1.23093
5.24251
-0.918543
5.10131
-0.487416
4.95509
-0.0528425
4.95505
0.412929
4.89859
0.860532
4.91986
1.31108
4.93696
1.6757
5.06751
1.89426
5.22631
1.36979
6.10139
-0.67638
7.51438
-4.22727
9.34156
-4.70913
11.1412
-4.19564
9.25592
-2.5783
10.6848
-1.20266
9.99421
10.8588
0.774251
9.66392
1.67277
8.94882
2.90748
9.60809
3.57132
8.81367
3.23486
11.7151
1.77957
10.947
0.400132
8.71261
-0.239499
6.79997
-0.197887
5.23719
-0.12426
5.0608
-0.00108408
4.86615
0.037205
4.95063
0.114702
4.85492
0.190485
4.87563
0.316864
4.84371
0.402187
5.01165
0.472021
5.18524
0.077811
6.5227
-1.22191
8.83027
-2.38372
10.5165
-2.72586
11.4772
-2.16705
8.69465
-1.25398
9.76945
-0.338432
9.08934
10.5343
1.62793
8.0353
2.22778
8.35068
2.32954
9.51145
1.5245
9.62343
0.570682
12.6835
0.39479
11.1177
0.822275
8.27979
0.710929
6.91548
0.478133
5.4691
0.353998
5.18243
0.186656
5.03298
0.098301
5.03773
-0.0371537
4.99079
-0.16448
5.00151
-0.366488
5.04043
-0.564773
5.20622
-0.931188
5.54886
-1.27226
6.86438
-0.722873
8.27959
-0.958861
10.7663
-2.08928
12.6277
-2.84899
9.46717
-2.69215
9.63744
-2.28201
8.6802
8.25349
1.79398
6.24476
1.83928
8.31178
1.07643
10.2818
0.280424
10.4309
1.58066
11.4054
2.41633
10.2819
2.38939
8.29259
2.24824
7.04174
1.54282
6.16407
0.955257
5.7615
0.399875
5.57973
-0.0924274
5.52244
-0.585318
5.47393
-1.0971
5.50365
-1.64622
5.58017
-2.22032
5.77032
-2.86178
6.17968
-3.03921
7.02988
-3.15475
8.38274
-2.52624
10.1401
-1.16013
11.2906
-2.57503
10.8756
-3.24851
10.303
-2.4746
7.92082
5.78848
3.29679
2.9522
5.41929
6.19566
6.03578
9.67379
6.07581
10.3945
6.51112
10.9703
6.07178
10.7162
5.04839
9.31054
4.05741
8.02792
3.12239
7.09577
2.28291
6.59664
1.47951
6.37748
0.69755
6.29796
-0.0905905
6.25483
-0.867306
6.27386
-1.65953
6.36757
-2.46529
6.57188
-3.34691
7.05841
-4.29463
7.97392
-5.24045
9.3195
-5.70924
10.5944
-5.37265
10.953
-4.96682
10.4667
-4.61797
9.95925
-2.91905
6.23634
2.88095
1.52138
1.43383
3.91534
3.80829
4.93985
8.65858
5.60269
9.73311
6.25071
10.3196
6.21596
10.7447
5.27903
10.2404
4.09871
9.20443
2.99515
8.19702
2.039
7.54957
1.17244
7.2403
0.317947
7.1486
-0.533125
7.10234
-1.39478
7.13292
-2.27139
7.24283
-3.24766
7.5473
-4.40619
8.21657
-5.6845
9.24942
-6.67043
10.2962
-6.71158
10.6308
-6.03796
10.2774
-5.35059
9.7786
-4.1066
8.72848
-1.513
3.65366
1.36716
0.0569086
1.38029
-0.0911488
3.96357
1.55644
7.01486
2.86969
8.42066
3.75214
9.43312
4.04407
10.449
3.65929
10.6187
2.96275
9.89812
2.21063
8.94706
1.49908
8.25866
0.802525
7.93437
0.119957
7.82907
-0.577409
7.79851
-1.2681
7.82334
-1.98495
7.9606
-2.74583
8.30921
-3.56546
9.03689
-4.31692
9.9989
-4.65316
10.6248
-4.26982
10.2423
-3.32071
9.3287
-1.86131
8.32477
-0.0389668
6.91485
-0.09413
3.70882
1.27238
-0.907195
2.28959
-0.975462
4.03658
0.183024
5.86057
1.11555
7.48682
1.8731
8.67167
2.22228
10.0968
2.22216
10.6142
1.96426
10.1531
1.55095
9.35859
1.09305
8.71476
0.637086
8.38864
0.158681
8.30667
-0.316083
8.27373
-0.798277
8.30712
-1.25544
8.42023
-1.70713
8.76308
-2.10852
9.43946
-2.33047
10.2198
-2.28542
10.5758
-1.90448
9.85655
-1.07496
8.49678
-0.120079
7.38107
1.06885
5.74427
0.958569
3.82066
2.22103
-0.849349
3.14315
-1.25137
4.44149
-0.923
5.53174
-0.301351
6.86598
0.293547
8.07565
0.609848
9.78012
0.864399
10.3579
0.970235
10.0455
0.902745
9.42487
0.714865
8.90145
0.465758
8.63682
0.216729
8.55553
-0.051435
8.54322
-0.293121
8.55134
-0.524359
8.65514
-0.689984
8.93176
-0.712093
9.46282
-0.551379
10.0585
-0.26928
10.2911
-0.0087386
9.59524
0.608455
7.87326
1.25119
6.74837
1.48928
5.51755
0.931815
4.38057
3.15641
-0.7164
3.86616
-1.48271
5.21228
-1.72527
5.7778
-1.5318
6.67283
-1.25491
7.79827
-0.801751
9.32854
-0.362402
9.91692
-0.0747093
9.75606
0.0512819
9.29728
0.0775919
8.87435
0.0467547
8.66744
-0.0389216
8.64146
-0.124065
8.62992
-0.210714
8.64071
-0.240732
8.68913
-0.205142
8.89998
-0.0761623
9.33574
0.210679
9.77133
0.684299
9.8148
1.17078
9.10881
1.43113
7.61155
1.64866
6.53418
1.44708
5.73321
0.676635
5.1548
3.82093
-0.410535
4.27887
-1.17591
5.97733
-1.69791
6.30107
-1.78803
6.76345
-1.65093
7.66237
-1.24863
8.92891
-0.787776
9.45572
-0.438889
9.40491
-0.210045
9.06698
-0.0984187
8.76232
-0.0705227
8.63969
-0.0537882
8.62509
-0.0528297
8.6302
-0.0316303
8.62143
-0.00146602
8.66208
0.120116
8.78178
0.372045
9.08559
0.758003
9.38589
1.23339
9.33731
1.64628
8.69537
1.75126
7.50484
1.66806
6.62064
1.12196
6.29462
0.349281
5.92743
4.15728
-0.262153
4.54554
-1.12941
6.84549
-1.76256
6.93569
-1.97117
6.97345
-1.92889
7.62188
-1.5603
8.56286
-1.11488
9.00759
-0.722015
9.00958
-0.442285
8.78627
-0.251221
8.57112
-0.0996401
8.48845
0.0107448
8.51514
0.11921
8.52247
0.228588
8.51317
0.389771
8.50277
0.59952
8.57422
0.903325
8.78336
1.31413
8.97552
1.75101
8.90059
2.10309
8.34078
2.13516
7.47365
1.91782
6.83877
1.30264
6.92776
0.365505
6.87314
4.52398
-0.409173
4.96611
-1.43336
7.86588
-1.86882
7.37238
-2.23009
7.33556
-2.25175
7.64527
-1.98551
8.29811
-1.57189
8.5917
-1.16045
8.59641
-0.818853
8.44411
-0.574741
8.32679
-0.402465
8.3164
-0.223141
8.33608
-0.0550216
8.35475
0.129732
8.32879
0.316536
8.3167
0.557705
8.33349
0.902371
8.4389
1.31767
8.55951
1.71398
8.50429
1.9771
8.07837
1.98107
7.46823
1.6646
7.15878
1.2252
7.37709
0.258833
7.8596
4.7875
-0.427357
5.40473
-1.19029
8.62845
-1.63123
7.81258
-1.96066
7.66572
-2.02922
7.71508
-1.79975
8.0691
-1.44156
8.2305
-1.07188
8.22603
-0.76413
8.13598
-0.510551
8.07321
-0.266997
8.07328
-0.0626158
8.13189
0.148908
8.14339
0.35475
8.12302
0.602539
8.06908
0.876287
8.05935
1.20082
8.11387
1.57977
8.17909
1.926
8.1574
2.1096
7.89571
2.03146
7.5491
1.68198
7.51165
1.2479
7.81702
0.49505
8.62018
5.28782
-0.542058
5.95687
-1.14345
9.23633
-1.59965
8.27086
-1.79471
7.86269
-1.93576
7.85621
-1.80649
7.94012
-1.48697
7.9098
-1.12758
7.86626
-0.789876
7.79747
-0.500906
7.78396
-0.261951
7.83437
-0.0097814
7.87986
0.228604
7.90505
0.484714
7.86688
0.724307
7.82939
1.00881
7.77386
1.35527
7.76622
1.72665
7.80555
2.0379
7.84372
2.14181
7.7922
1.98598
7.70466
1.81427
7.68475
1.40054
8.23083
0.768676
9.25261
6.06057
-0.87791
6.83747
-1.37109
9.73388
-1.85063
8.74824
-2.02004
8.03039
-2.13288
7.96952
-2.02694
7.83354
-1.74926
7.63096
-1.42077
7.53751
-1.11541
7.49164
-0.839044
7.50795
-0.550215
7.54597
-0.293237
7.62291
-0.0213195
7.63312
0.241867
7.60371
0.539355
7.53215
0.831548
7.48101
1.13388
7.46304
1.4496
7.48789
1.71387
7.57651
1.79543
7.71081
1.71318
7.78896
1.53244
7.8607
1.10406
8.65891
0.574718
9.77978
6.63462
-0.580133
7.41572
-1.23532
10.3899
-1.63644
9.14742
-1.77591
8.16955
-1.77497
7.96977
-1.6908
7.74943
-1.47302
7.41293
-1.1989
7.26336
-0.898556
7.19147
-0.602686
7.21215
-0.343477
7.28678
-0.0582762
7.33784
0.212312
7.36262
0.49532
7.32071
0.753321
7.27419
1.04179
7.19201
1.34901
7.15509
1.63181
7.20401
1.83608
7.36954
1.89435
7.65179
1.87887
7.80607
1.69528
8.04147
1.38976
8.96372
0.776557
10.3851
7.40836
-0.249875
7.66432
-0.751716
10.8899
-1.51047
9.90658
-1.59728
8.25749
-1.61754
7.99115
-1.51938
7.65154
-1.31451
7.20846
-1.08712
7.03643
-0.848168
6.95308
-0.60437
6.96898
-0.320334
7.00313
-0.0619806
7.07969
0.21185
7.08892
0.463923
7.06872
0.74815
6.99018
1.00269
6.93711
1.23862
6.91879
1.4585
6.98387
1.66754
7.15783
1.75964
7.5579
1.74297
7.82283
1.75595
8.02898
1.02781
9.6864
0.50598
10.9005
7.91049
-0.477603
8.13897
-0.920627
11.3285
-1.75023
10.7363
-1.75289
8.26089
-1.73892
7.97826
-1.62052
7.53439
-1.45286
7.04151
-1.23599
6.82061
-0.993189
6.71119
-0.726398
6.70255
-0.487894
6.76496
-0.212721
6.80482
0.0489138
6.82751
0.32813
6.78958
0.570436
6.74797
0.827624
6.67986
1.07509
6.67107
1.2899
6.7692
1.44097
7.00713
1.53914
7.46039
1.5351
7.82788
1.44845
8.11585
0.584363
10.5452
0.215082
11.2638
8.12723
-0.0878385
8.23062
-0.477254
11.7149
-1.17414
11.4345
-1.48089
8.56888
-1.49721
7.99575
-1.3553
7.39367
-1.18136
6.86913
-0.984791
6.62531
-0.780399
6.50753
-0.574594
6.49754
-0.307019
6.49784
-0.0618073
6.56
0.205265
6.5607
0.447937
6.54703
0.712885
6.48303
0.928379
6.46412
1.11843
6.48094
1.31473
6.57353
1.49354
6.82611
1.61686
7.33578
1.62023
7.82468
1.41959
8.31831
0.595965
11.3718
0.253606
11.6007
8.38622
0.0419232
8.20122
-0.111023
11.8676
-0.796336
12.1172
-1.38832
9.16193
-1.30439
7.91246
-1.22667
7.31735
-1.07472
6.7187
-0.915036
6.4666
-0.730226
6.3237
-0.498762
6.26658
-0.301914
6.30146
-0.0603964
6.31895
0.165739
6.33489
0.408121
6.30489
0.604186
6.2872
0.81889
6.24936
1.01218
6.2875
1.16556
6.42098
1.30947
6.68414
1.40024
7.24645
1.5928
7.63501
0.846363
9.06533
0.24481
11.9725
-0.00728445
11.8476
8.38486
-0.269769
8.48615
-0.358248
11.9551
-0.738759
12.4943
-1.40209
9.82299
-1.37786
7.88916
-1.29083
7.23191
-1.12313
6.55176
-0.955118
6.29962
-0.780738
6.14969
-0.628464
6.11491
-0.395897
6.06937
-0.190773
6.11429
0.0418122
6.10268
0.251095
6.09591
0.484555
6.05388
0.64976
6.08427
0.807724
6.12925
0.974186
6.25512
1.13749
6.52083
1.18879
7.19656
1.1474
7.67903
0.398356
9.81599
-0.0730135
12.4404
-0.1066
11.8764
8.2804
-0.0941128
8.58572
0.0267167
11.8318
-0.253754
12.7727
-1.00605
10.5711
-1.14832
8.03267
-1.0682
7.15388
-0.95582
6.43928
-0.799406
6.14399
-0.637114
5.98813
-0.424686
5.9032
-0.257124
5.90232
-0.040338
5.89793
0.158622
5.90408
0.376618
5.87826
0.537824
5.89296
0.732779
5.88942
0.907863
5.95413
1.05065
6.11256
1.16018
6.41316
1.32523
7.03399
1.14561
7.86359
0.396842
10.5695
0.156352
12.6758
0.220594
11.8108
8.49947
0.0434854
8.54088
0.161467
11.7139
0.220739
12.7097
-0.490246
11.2741
-1.06257
8.60573
-0.916361
7.00904
-0.830251
6.3531
-0.710847
6.02574
-0.553712
5.831
-0.424847
5.77462
-0.22611
5.70389
-0.0538081
5.72598
0.143651
5.70699
0.309049
5.71325
0.507265
5.69503
0.642793
5.7541
0.7799
5.81671
0.916263
5.97654
1.00744
6.32337
1.18931
6.85472
0.609522
8.44663
-0.0631061
11.2467
-0.0558747
12.6618
0.0476789
11.7026
8.54472
-0.199302
8.73926
-0.175235
11.69
0.0135669
12.5158
-0.408106
11.6924
-0.97681
9.17425
-1.01345
7.04717
-0.887776
6.22715
-0.784249
5.92274
-0.65743
5.70442
-0.468297
5.58568
-0.325099
5.5613
-0.138689
5.53973
0.0256819
5.54276
0.209254
5.5299
0.346433
5.55798
0.523802
5.57708
0.66501
5.67558
0.745404
5.89637
0.828581
6.24088
0.743945
6.94393
0.0176329
9.17798
-0.459257
11.7274
-0.126659
12.3235
-0.0292419
11.6014
8.51381
-0.0475245
8.78924
0.0447403
11.5981
0.436176
12.1221
0.135195
11.9907
-0.609044
9.91906
-0.837525
7.27681
-0.674574
6.06397
-0.613622
5.8626
-0.479463
5.57019
-0.36451
5.47078
-0.188181
5.38483
-0.0371461
5.38881
0.136928
5.36883
0.283648
5.38332
0.462075
5.3796
0.579184
5.46005
0.694082
5.56048
0.775933
5.81482
0.964669
6.05188
0.704585
7.20849
-0.0629692
9.94974
-0.237404
11.9035
0.152345
11.9244
0.179045
11.5722
8.69341
0.0681555
8.72588
0.141249
11.5247
0.425575
11.8359
0.508126
11.9027
-0.0744396
10.5021
-0.560498
7.76361
-0.601862
6.10457
-0.532769
5.79386
-0.455507
5.49299
-0.300638
5.31605
-0.182897
5.26747
-0.0300614
5.23593
0.10726
5.23139
0.264349
5.22618
0.378558
5.26534
0.531224
5.30755
0.615314
5.47654
0.730245
5.70116
0.691695
6.09133
0.229536
7.675
-0.390013
10.5708
-0.281925
11.7918
0.00792859
11.6258
0.0593929
11.5209
8.75795
-0.110795
8.84407
-0.0611384
11.4742
0.164185
11.6091
0.472104
11.5915
0.0145997
10.9581
-0.512588
8.29147
-0.654793
6.24637
-0.563361
5.7026
-0.469068
5.39847
-0.386583
5.23356
-0.243188
5.12382
-0.119432
5.11215
0.0236909
5.08826
0.149195
5.10068
0.293511
5.12099
0.370345
5.23104
0.44742
5.39994
0.538653
5.61107
0.296399
6.33406
-0.410946
8.3883
-0.77961
10.9407
-0.382215
11.3852
-0.209265
11.4451
-0.141655
11.455
8.6234
0.0359434
8.81541
0.0997233
11.4067
0.270553
11.4362
0.658304
11.2019
0.624216
10.9902
-0.0239697
8.94002
-0.446225
6.66748
-0.441536
5.69798
-0.366013
5.3231
-0.246141
5.11378
-0.153483
5.03135
-0.0221727
4.98093
0.0981271
4.96787
0.22732
4.97153
0.321012
5.02722
0.444685
5.10731
0.541952
5.30339
0.508024
5.64624
0.0985894
6.74466
-0.513026
9.00725
-0.425071
10.8533
-0.112733
11.0637
0.0494042
11.2752
0.108052
11.3972
8.7378
0.170881
8.64676
0.29276
11.2836
0.416539
11.3103
0.638815
10.9788
0.880591
10.7461
0.276377
9.54048
-0.171469
7.11424
-0.316585
5.84297
-0.263789
5.27032
-0.217186
5.06747
-0.12129
4.93536
-0.0230456
4.88287
0.0930263
4.85193
0.190743
4.87392
0.290481
4.92764
0.346461
5.05181
0.407689
5.24287
0.241072
5.81449
-0.245109
7.23265
-0.827327
9.58945
-0.464248
10.4902
-0.240077
10.836
-0.146514
11.1766
-0.0643078
11.3147
8.67787
-0.0235184
8.67196
0.0665811
11.194
0.155759
11.2193
0.396735
10.7374
0.814948
10.3253
0.61927
9.73246
-0.0246471
7.75609
-0.342118
6.16105
-0.324248
5.25283
-0.24422
4.98745
-0.171661
4.86316
-0.0797565
4.79121
0.0130094
4.75924
0.103262
4.78397
0.168716
4.86238
0.237476
4.98292
0.211386
5.27001
-0.137799
6.16593
-0.827754
7.92607
-0.9189
9.67979
-0.581421
10.1522
-0.35238
10.6051
-0.302584
11.1219
-0.153445
11.1628
8.52536
0.110343
8.55923
0.293131
11.0117
0.360013
11.1495
0.532759
10.5625
0.819371
10.0348
0.933359
9.61455
0.42644
8.26163
-0.0466214
6.63295
-0.16998
5.37649
-0.156213
4.97372
-0.0829782
4.79059
-0.0134006
4.72199
0.0666758
4.67941
0.138199
4.7128
0.213306
4.78747
0.236347
4.96046
0.0460902
5.46136
-0.459219
6.67403
-0.918553
8.38282
-0.668126
9.42845
-0.406719
9.89042
-0.23795
10.4365
-0.189566
11.0702
-0.0375746
11.0064
8.48621
0.16729
8.38929
0.378507
10.8024
0.450834
11.0763
0.583992
10.427
0.815185
9.79977
1.1881
9.23785
0.88688
8.56126
0.188313
7.3378
-0.0472656
5.61343
-0.0819273
5.00878
-0.0396715
4.74895
0.00983529
4.6729
0.0555842
4.63388
0.113716
4.65517
0.155961
4.74548
0.119134
4.99741
-0.156095
5.73794
-0.803804
7.32752
-1.01243
8.58946
-0.679054
9.0927
-0.438777
9.65025
-0.31239
10.3096
-0.255468
11.0093
-0.0769153
10.8234
8.40634
0.0388066
8.34619
0.239631
10.6007
0.347216
10.9657
0.423084
10.3475
0.613888
9.60514
0.87336
8.9754
0.943494
8.48983
0.585279
7.69492
0.0534641
6.14715
-0.0991568
5.16178
-0.0760904
4.72688
-0.0405709
4.63794
-0.0106347
4.60414
0.025784
4.61934
0.0271092
4.74451
-0.144706
5.16985
-0.790128
6.38507
-1.14828
7.68518
-0.968683
8.40711
-0.729687
8.85181
-0.575872
9.4951
-0.526794
10.2592
-0.412028
10.8907
-0.175819
10.5832
8.22845
0.0790306
8.26334
0.317046
10.3628
0.463404
10.8183
0.557404
10.2523
0.689039
9.47146
0.855104
8.80816
1.18253
8.16256
0.924712
7.952
0.299707
6.7756
0.0493232
5.41244
0.00970326
4.76688
0.0151145
4.633
0.0146125
4.6048
0.0214982
4.61285
-0.0496931
4.81574
-0.339675
5.45995
-0.803898
6.8512
-1.11463
7.99443
-0.792485
8.08159
-0.643775
8.70165
-0.530408
9.38018
-0.441598
10.1688
-0.297495
10.7427
-0.0577795
10.3409
8.16969
0.110365
8.15095
0.440988
10.031
0.632607
10.6236
0.640415
10.243
0.713584
9.39724
0.889199
8.63234
1.07083
7.98107
1.1609
7.8609
0.850482
7.08593
0.207257
6.05632
0.064761
4.91024
0.0314446
4.66678
0.0112108
4.62513
-0.0197993
4.64438
-0.195215
4.99168
-0.859592
6.1252
-1.13561
7.12594
-0.971072
7.82782
-0.806631
7.91385
-0.649326
8.54308
-0.597674
9.32692
-0.569295
10.1389
-0.37413
10.5445
-0.0602399
10.0254
8.10965
0.00640637
-0.141031
0.00421264
-0.147499
-0.00104867
-0.152461
-0.00236695
-0.148699
-0.00226189
-0.165855
-0.00177136
-0.179403
-0.00159268
-0.19603
-0.00459039
-0.208554
-0.00892593
-0.217758
-0.0133129
-0.221341
-0.0159824
-0.228276
-0.0162038
-0.239246
-0.0151199
-0.252979
-0.0134669
-0.269438
-0.0118118
-0.287954
-0.00805165
-0.310651
0.00402327
-0.334821
0.0239736
-0.380053
0.0494835
-0.441399
0.0778596
-0.504149
0.108533
-0.568286
0.141825
-0.63407
0.182479
-0.691711
0.226848
-0.725733
0.275861
-0.807252
0.328157
-0.893922
0.309823
-1.08327
0.17075
-1.68609
-0.0597011
-3.37588
-3.4325
0.0134332
-0.154495
0.0102738
-0.149098
0.00500457
-0.154706
0.00278248
-0.154532
0.00254027
-0.170748
0.00327259
-0.178439
0.00380856
-0.194757
0.00142934
-0.207196
-0.00214837
-0.21937
-0.00648529
-0.229916
-0.0105411
-0.235528
-0.0121477
-0.244416
-0.0130707
-0.257665
-0.0140029
-0.274125
-0.0148335
-0.293752
-0.0122283
-0.310976
-0.00491896
-0.338771
0.0109613
-0.374027
0.0347976
-0.427583
0.0626852
-0.496916
0.0935857
-0.557299
0.128966
-0.61612
0.169429
-0.664296
0.215735
-0.708893
0.263567
-0.786112
0.26218
-0.918872
0.16305
-1.25693
0.0526384
-2.98855
-0.0738542
-3.33372
-3.45065
0.00739116
-0.161488
0.00108452
-0.150406
-0.00559486
-0.15802
-0.00897561
-0.159179
-0.0108193
-0.169752
-0.0106802
-0.175083
-0.0106852
-0.190974
-0.0124883
-0.204888
-0.0143518
-0.220178
-0.0168448
-0.232785
-0.0202532
-0.242126
-0.0221589
-0.252546
-0.0232049
-0.26622
-0.0245232
-0.283095
-0.0246154
-0.299266
-0.0249568
-0.319429
-0.0207684
-0.341669
-0.00804963
-0.374008
0.013679
-0.414771
0.0421154
-0.485205
0.0746903
-0.541549
0.112459
-0.596519
0.153566
-0.622886
0.19842
-0.696126
0.234453
-0.785199
0.175326
-1.00112
0.00209716
-2.20659
-0.146852
-3.16016
-0.0936868
-3.13927
-3.35396
0.000242305
-0.16211
-0.00786813
-0.15619
-0.0142567
-0.162984
-0.0179689
-0.159057
-0.0209337
-0.167781
-0.0218262
-0.172702
-0.0228387
-0.189095
-0.0246792
-0.204406
-0.0260096
-0.222016
-0.0283607
-0.236973
-0.029803
-0.250045
-0.0319751
-0.263047
-0.0345669
-0.277191
-0.0360411
-0.293257
-0.0374091
-0.309901
-0.0383504
-0.328042
-0.037013
-0.347746
-0.0278399
-0.374871
-0.00760426
-0.40895
0.0210396
-0.456707
0.0554703
-0.523518
0.0952501
-0.574756
0.136492
-0.613608
0.175129
-0.683528
0.153551
-0.819097
-3.97396e-05
-1.29817
-0.254742
-2.89276
-0.249772
-3.02316
-0.102496
-2.99862
-3.21251
-0.00118264
-0.16442
-0.0105431
-0.162964
-0.017213
-0.164249
-0.0216105
-0.159128
-0.0254543
-0.167154
-0.0274651
-0.172819
-0.0289801
-0.189573
-0.0308912
-0.206262
-0.0320116
-0.225545
-0.0341542
-0.242966
-0.0344829
-0.259137
-0.037276
-0.2748
-0.0406032
-0.290873
-0.0434232
-0.306012
-0.0457691
-0.321046
-0.0466138
-0.337551
-0.0469451
-0.354815
-0.0395043
-0.376172
-0.0214629
-0.405879
0.00764916
-0.44229
0.0422953
-0.504964
0.0819191
-0.532569
0.1206
-0.60062
0.135086
-0.686972
0.033133
-0.939157
-0.314793
-2.53488
-0.405365
-2.90603
-0.312578
-2.90404
-0.109321
-2.89552
-2.90841
-0.00289113
-0.169188
-0.0126329
-0.166113
-0.0193801
-0.16548
-0.0243883
-0.159568
-0.0295002
-0.16824
-0.0326841
-0.174163
-0.0350689
-0.191525
-0.0371645
-0.209566
-0.0379258
-0.230764
-0.0389292
-0.251503
-0.0393273
-0.270995
-0.0415729
-0.288148
-0.0449671
-0.305059
-0.0484477
-0.318025
-0.0521239
-0.333004
-0.0537602
-0.3471
-0.0560693
-0.360369
-0.0497522
-0.376992
-0.032978
-0.402699
-0.00357243
-0.435635
0.0312119
-0.488816
0.0692003
-0.52482
0.0979698
-0.59291
0.0477382
-0.738706
-0.210347
-1.34857
-0.504381
-2.76477
-0.501679
-2.74498
-0.299123
-2.82628
-0.0965869
-2.74801
-2.77062
-0.00523537
-0.173463
-0.0150314
-0.167995
-0.021918
-0.166875
-0.02786
-0.161163
-0.0343107
-0.171206
-0.0388362
-0.177892
-0.0419651
-0.1962
-0.0441819
-0.215749
-0.0449173
-0.238202
-0.0453064
-0.261691
-0.046092
-0.284207
-0.0471105
-0.301311
-0.0493909
-0.317518
-0.0536325
-0.329625
-0.0577386
-0.341872
-0.0595502
-0.354562
-0.0626043
-0.367168
-0.0589254
-0.380305
-0.0443049
-0.399178
-0.0164078
-0.428437
0.019691
-0.472093
0.0521033
-0.517691
0.0457833
-0.61108
-0.107838
-0.92701
-0.571512
-2.44758
-0.655439
-2.67147
-0.501059
-2.677
-0.282765
-2.71637
-0.0889315
-2.60107
-2.67732
-0.00768728
-0.173777
-0.0177495
-0.167961
-0.0255046
-0.168085
-0.0325045
-0.163512
-0.0401151
-0.17522
-0.0460282
-0.184333
-0.0502349
-0.203687
-0.0528284
-0.223709
-0.0538079
-0.24681
-0.0538764
-0.27138
-0.0532354
-0.294934
-0.0531207
-0.312415
-0.0553071
-0.3281
-0.0596714
-0.338956
-0.0631829
-0.347614
-0.0658114
-0.359266
-0.068385
-0.370855
-0.0660804
-0.384638
-0.0535509
-0.396745
-0.0282167
-0.42265
0.00590872
-0.447064
0.0227403
-0.521869
-0.0677538
-0.684464
-0.561252
-1.82009
-0.732886
-2.59357
-0.690524
-2.56457
-0.484798
-2.5906
-0.272154
-2.59543
-0.0895945
-2.48635
-2.61177
-0.0103743
-0.175676
-0.020534
-0.166206
-0.0295443
-0.168081
-0.0379674
-0.165536
-0.0468189
-0.179042
-0.0540228
-0.190638
-0.0591691
-0.210266
-0.0621975
-0.230096
-0.0632751
-0.253649
-0.0623378
-0.277546
-0.0611772
-0.300919
-0.0597879
-0.319096
-0.0607834
-0.333336
-0.0635255
-0.345015
-0.0688801
-0.349569
-0.0724986
-0.359849
-0.0730594
-0.371661
-0.0715915
-0.383286
-0.0623405
-0.397598
-0.0402843
-0.415403
-0.0166088
-0.44823
-0.0499001
-0.551436
-0.292608
-0.936182
-0.772948
-2.29886
-0.835939
-2.45784
-0.67472
-2.50971
-0.465488
-2.48828
-0.254813
-2.48291
-0.0992655
-2.4164
-2.55432
-0.0125177
-0.175488
-0.0236737
-0.161433
-0.0342424
-0.165552
-0.044214
-0.165291
-0.0542074
-0.18038
-0.0621168
-0.193174
-0.067842
-0.212639
-0.0714299
-0.231884
-0.0724728
-0.255313
-0.0701999
-0.278205
-0.0680899
-0.300106
-0.0667
-0.319269
-0.0665581
-0.333339
-0.0685605
-0.345278
-0.0727312
-0.351675
-0.075633
-0.358051
-0.0776098
-0.367994
-0.0780149
-0.380063
-0.0705677
-0.391942
-0.05447
-0.393893
-0.0539805
-0.460245
-0.176553
-0.643918
-0.795837
-1.8833
-0.921431
-2.39633
-0.847143
-2.38996
-0.657071
-2.43369
-0.442571
-2.38663
-0.262656
-2.40009
-0.112522
-2.37043
-2.49699
-0.0149108
-0.17133
-0.0276026
-0.153003
-0.0400334
-0.159183
-0.0511763
-0.160751
-0.0621689
-0.176248
-0.0702038
-0.189525
-0.0762526
-0.210025
-0.0804035
-0.22923
-0.08111
-0.252203
-0.0784834
-0.273862
-0.0760086
-0.295562
-0.073245
-0.315563
-0.0696037
-0.32993
-0.0713312
-0.3423
-0.0764473
-0.349558
-0.0800682
-0.354102
-0.082233
-0.36276
-0.0838181
-0.374263
-0.0770257
-0.384777
-0.0750169
-0.399129
-0.133208
-0.494799
-0.614626
-0.919876
-0.947256
-2.1465
-0.995783
-2.26694
-0.826525
-2.33374
-0.616349
-2.34011
-0.435667
-2.30868
-0.27421
-2.34074
-0.127961
-2.32978
-2.44093
-0.0170978
-0.161342
-0.0321603
-0.140253
-0.0474771
-0.147592
-0.0595451
-0.150809
-0.0698304
-0.167003
-0.0785859
-0.182068
-0.084565
-0.203212
-0.0890131
-0.223342
-0.0890277
-0.244787
-0.0846423
-0.266811
-0.0808635
-0.288552
-0.0776426
-0.308306
-0.0732505
-0.324424
-0.0748999
-0.337522
-0.0801234
-0.345478
-0.0846986
-0.348789
-0.0867941
-0.357416
-0.085654
-0.3665
-0.0854005
-0.357301
-0.111948
-0.414209
-0.275529
-0.593532
-0.977067
-1.74562
-1.0821
-2.19459
-0.99069
-2.21496
-0.814187
-2.2677
-0.610199
-2.24815
-0.442244
-2.25076
-0.282772
-2.28874
-0.136599
-2.28536
-2.38009
-0.0198923
-0.145478
-0.0376582
-0.123327
-0.054331
-0.130483
-0.0677381
-0.138503
-0.078198
-0.156859
-0.0863571
-0.171566
-0.0929496
-0.192984
-0.0954521
-0.213534
-0.0950764
-0.23602
-0.0908134
-0.257425
-0.0863891
-0.279986
-0.0823586
-0.300025
-0.0774712
-0.318133
-0.0786915
-0.33213
-0.0836012
-0.340834
-0.0883024
-0.34436
-0.0883046
-0.350583
-0.0884671
-0.339617
-0.102803
-0.368124
-0.192987
-0.44556
-0.798351
-0.857442
-1.09901
-1.95761
-1.13893
-2.08447
-0.970897
-2.15818
-0.788946
-2.19215
-0.613127
-2.17672
-0.451414
-2.19993
-0.296992
-2.23717
-0.142178
-2.23487
-2.31466
-0.0227019
-0.125336
-0.0433126
-0.103358
-0.061311
-0.111222
-0.0747374
-0.125862
-0.085017
-0.14801
-0.0937063
-0.1619
-0.0988917
-0.182702
-0.101384
-0.203612
-0.101351
-0.227168
-0.0969076
-0.247254
-0.0923161
-0.270582
-0.0868074
-0.291616
-0.0804112
-0.31054
-0.0803106
-0.324836