/*--------------------------------*- C++ -*----------------------------------*\
| =========                 |                                                 |
| \\      /  F ield         | OpenFOAM: The Open Source CFD Toolbox           |
|  \\    /   O peration     | Version:  2112                                  |
|   \\  /    A nd           | Website:  www.openfoam.com                      |
|    \\/     M anipulation  |                                                 |
\*---------------------------------------------------------------------------*/
FoamFile
{
    version     2.0;
    format      ascii;
    arch        "LSB;label=32;scalar=64";
    class       volVectorField;
    location    "0.00124";
    object      U;
}
// * * * * * * * * * * * * * * * * * * * * * * * * * * * * * * * * * * * * * //

dimensions      [0 1 -1 0 0 0 0];

internalField   nonuniform List<vector> 
13875
(
(2204.3 109.724 1.81222e-18)
(2142.78 5.65888 -9.38296e-19)
(2170.12 -2.22096 -9.41089e-19)
(2168.29 -1.23938 0)
(2170.87 0.0587272 0)
(2169.64 -0.0781713 9.36329e-19)
(2169.66 -0.391141 -9.36712e-19)
(2169.82 -1.2667 -4.68419e-19)
(2169.6 -0.94035 4.68088e-19)
(2169.49 -0.032885 0)
(2169.15 -0.218312 -3.88387e-22)
(2169.21 -0.329324 -3.8833e-22)
(2169.64 0.0609532 0)
(2169.05 0.349267 -4.68278e-19)
(2169.54 0.215339 4.68611e-19)
(2169.48 0.480874 0)
(2169.59 0.869767 9.36626e-19)
(2169.72 0.649147 -9.36884e-19)
(2169.57 0.255746 3.85708e-22)
(2169.6 0.0461329 -3.85602e-22)
(2170.84 -0.18325 -9.3587e-19)
(2167.95 0.476659 9.36969e-19)
(2170.99 2.54495 -1.8782e-18)
(2143.59 -8.629 1.91662e-18)
(2210.17 -106.724 1.76428e-18)
(2253.44 91.8776 -1.63206e-18)
(2228.61 -1.14206 1.88352e-18)
(2247.3 0.683785 8.71836e-19)
(2245.63 1.37607 -8.67147e-19)
(2248.5 -0.426272 4.16375e-22)
(2248.16 0.449333 5.20425e-22)
(2248.18 0.458368 4.16231e-22)
(2247.87 1.51568 -4.3633e-19)
(2245.79 1.25672 4.33282e-19)
(2245.38 0.187084 2.17575e-19)
(2245.06 0.508858 -1.62948e-19)
(2245.13 0.317573 -5.31591e-20)
(2245.25 0.0188705 0)
(2245 -0.459908 -4.3672e-19)
(2245.22 -0.597278 4.35346e-19)
(2245.62 -0.423816 4.34364e-19)
(2247 -1.07605 -4.36098e-19)
(2247.99 -0.888329 5.20326e-22)
(2248.22 -0.463108 -5.2037e-22)
(2248.2 -0.62655 5.20102e-22)
(2248.5 0.602936 -8.71033e-19)
(2245.54 -0.832566 2.60036e-18)
(2247.21 -1.59971 -1.74274e-18)
(2228.94 3.60292 5.42853e-22)
(2256.5 -97.077 -1.71219e-18)
(2252.53 78.0729 0)
(2236.52 -18.1838 0)
(2249.28 4.43665 0)
(2250.88 -1.94265 0)
(2254.09 -3.03756 -1.65434e-18)
(2253.88 -0.737167 1.64363e-18)
(2254.15 0.221315 1.63995e-18)
(2254.24 2.06738 -2.45818e-18)
(2253.85 2.27796 8.59503e-19)
(2253.12 0.552202 4.30132e-22)
(2252.74 -0.0786952 -4.30363e-19)
(2253.22 -0.273681 4.31235e-19)
(2253.24 0.0188416 0)
(2253.11 0.390312 0)
(2252.77 -0.232297 4.30377e-22)
(2253.27 -1.77944 0)
(2254.42 -2.29475 8.32487e-22)
(2254.45 -1.15447 4.0971e-19)
(2254.67 -0.0708168 -4.29838e-19)
(2254.17 0.731789 0)
(2254.28 2.98753 0)
(2251.01 1.3022 0)
(2250.58 -4.80478 0)
(2237.95 13.7246 0)
(2257.13 -74.2243 0)
(2247.89 51.3589 0)
(2235 -28.4464 1.81484e-18)
(2249.06 7.22041 -3.41768e-18)
(2251.62 -4.73376 3.46535e-18)
(2253.74 -3.82765 -1.65628e-18)
(2253.73 -1.04874 0)
(2254.08 0.159463 -7.9014e-22)
(2254.19 2.03322 0)
(2254.36 2.54157 0)
(2253.76 1.23864 0)
(2253.25 0.0370851 0)
(2253.29 -0.321945 -8.03707e-22)
(2253.24 0.0500935 -5.02141e-20)
(2253.09 0.390793 4.99116e-20)
(2253.45 -0.403553 0)
(2253.79 -2.48364 0)
(2254.36 -2.70769 8.34171e-22)
(2254.44 -1.25794 -8.22294e-19)
(2254.67 0.0536205 8.48008e-19)
(2254.04 1.08881 -1.62804e-18)
(2254.01 3.67123 1.63986e-18)
(2251.97 4.65723 1.74134e-18)
(2249.66 -8.81336 -1.72061e-18)
(2235.71 31.1079 0)
(2251.69 -58.9181 0)
(2245.02 39.3885 1.74887e-18)
(2235.6 -47.5877 0)
(2248.53 10.4686 0)
(2250.62 -8.17204 0)
(2254.1 -5.46118 0)
(2253.81 -1.82367 1.66189e-21)
(2254 -0.0842086 1.64203e-21)
(2254.15 1.8516 4.18687e-19)
(2254.38 2.80586 -4.25965e-19)
(2253.67 1.70813 2.14426e-19)
(2253.23 0.169001 -2.14978e-19)
(2253.22 -0.385196 0)
(2253.18 0.0865084 0)
(2252.97 0.381837 -1.63702e-21)
(2253.55 -0.638111 0)
(2253.79 -2.89811 -1.68775e-21)
(2254.39 -3.00413 8.5498e-19)
(2254.36 -1.30164 -8.45018e-19)
(2254.64 0.381549 1.67817e-18)
(2254.16 1.95993 -1.69648e-18)
(2254.28 5.19026 1.66858e-21)
(2250.76 6.88908 0)
(2249.9 -11.4349 0)
(2237.17 42.5589 0)
(2250.44 -35.2383 0)
(2241.45 6.91536 0)
(2231.44 -63.1277 9.12853e-19)
(2246.94 12.2573 -8.48208e-19)
(2250.89 -11.6025 0)
(2252.92 -6.38543 8.61384e-19)
(2253.11 -2.32423 -4.31566e-19)
(2253.62 -0.218743 -2.22231e-21)
(2253.88 1.71668 -2.13082e-19)
(2254.11 3.0043 -4.22846e-19)
(2253.65 2.3746 1.6365e-19)
(2253.22 0.512344 1.6384e-21)
(2253.03 -0.46814 2.66979e-19)
(2253.04 0.0489699 -2.10352e-19)
(2252.78 0.367216 3.38248e-21)
(2253.47 -1.0295 -4.32436e-19)
(2253.85 -3.4259 4.3448e-19)
(2254.11 -3.39845 1.6532e-21)
(2254.09 -1.42486 -1.62416e-21)
(2254.3 0.474893 -1.63825e-21)
(2253.47 2.39221 -8.54713e-19)
(2253.24 5.85091 8.53669e-19)
(2251.4 11.4525 0)
(2247.24 -15.0061 0)
(2232.35 65.014 -1.93314e-18)
(2245.99 -19.4628 -1.26234e-19)
(2254.51 3.08963 -4.95438e-20)
(2227.46 -78.9321 6.02356e-20)
(2242.71 12.2036 0)
(2248.66 -16.5947 -2.69276e-23)
(2252.51 -8.74633 -2.62387e-23)
(2252.77 -3.84204 0)
(2253.24 -0.915305 0)
(2253.57 1.15908 -8.43299e-19)
(2253.81 2.8049 8.37033e-19)
(2253.62 2.81943 0)
(2252.93 0.763806 1.72191e-18)
(2252.73 -0.416068 2.06529e-21)
(2252.71 0.156559 -1.69845e-18)
(2252.46 0.268235 -1.71561e-21)
(2253.32 -1.51327 0)
(2253.7 -3.74412 3.42887e-18)
(2253.77 -3.2607 -2.14664e-21)
(2253.71 -1.06872 -6.66734e-18)
(2253.89 1.24139 3.35786e-18)
(2253.13 4.03375 2.59878e-23)
(2252.73 8.32129 0)
(2248.6 13.8669 3.53312e-18)
(2243.98 -12.3022 -3.31144e-18)
(2228.69 72.641 3.81599e-18)
(2246.9 2.57783 -3.18489e-18)
(2217.29 -22.6522 -3.16271e-19)
(2214.14 -86.9242 -7.50697e-18)
(2234.9 3.48395 8.74052e-22)
(2245.73 -23.3083 2.61579e-23)
(2248.69 -10.829 -8.11056e-22)
(2250.38 -4.8865 0)
(2251.7 -1.28626 -3.35576e-18)
(2252.47 0.973303 3.36999e-18)
(2252.93 2.80952 0)
(2253.02 3.45914 -8.30935e-22)
(2252.63 1.54901 -8.40331e-22)
(2252.08 -0.371039 0)
(2252.06 0.00423184 0)
(2251.88 0.00287555 -1.66754e-21)
(2252.91 -2.2687 -8.46245e-22)
(2253.11 -4.05087 2.59062e-23)
(2252.89 -3.35758 -8.53287e-22)
(2252.61 -1.14664 -2.55144e-23)
(2252.44 1.4686 -1.68597e-18)
(2250.93 4.96727 -1.41255e-20)
(2249.29 10.1932 1.69048e-18)
(2246.17 20.3372 8.89603e-22)
(2236.34 -4.4755 3.46315e-18)
(2216.03 81.3009 -3.5397e-18)
(2221.27 17.9567 2.50331e-23)
(2108.52 -37.9727 9.42116e-19)
(2167.1 -98.2536 0)
(2215.67 -20.4626 -8.31825e-22)
(2234.46 -33.3279 -8.65434e-19)
(2244.86 -20.0399 1.7094e-18)
(2247.99 -10.0602 -1.70336e-18)
(2249.79 -4.1357 7.50523e-21)
(2250.83 -0.900448 8.46926e-19)
(2251.47 1.54268 0)
(2251.74 3.26046 -8.4849e-19)
(2251.44 2.30059 8.59168e-19)
(2250.86 0.128744 0)
(2250.68 0.117526 0)
(2250.64 -0.452976 2.0995e-21)
(2251.66 -2.74643 8.37648e-22)
(2251.82 -3.85939 8.52771e-19)
(2251.45 -2.40465 -8.49751e-19)
(2250.92 0.26464 0)
(2250.5 3.75546 8.538e-19)
(2248.59 9.32311 -1.70792e-18)
(2245.72 17.6451 8.46474e-19)
(2235.96 29.8781 -8.40007e-22)
(2218.05 17.0802 0)
(2170.17 94.0291 0)
(2113.63 35.5749 0)
(1858.13 -144.08 -6.66548e-17)
(2119.38 -160.883 8.53489e-17)
(2194.01 -55.9841 0)
(2224.77 -58.0163 -2.97409e-17)
(2236.54 -23.5045 3.09661e-17)
(2242.52 -11.557 0)
(2245.64 -4.54482 -3.01422e-20)
(2247.25 -0.777777 -1.47651e-17)
(2248.27 1.64495 1.47575e-17)
(2248.73 3.44441 -2.97925e-20)
(2248.55 3.09522 0)
(2248.09 0.605422 -3.73397e-18)
(2247.73 -0.0808767 5.57394e-18)
(2247.88 -1.09744 -1.89851e-18)
(2248.81 -3.35054 -2.96301e-20)
(2248.87 -3.63854 0)
(2248.28 -2.25178 0)
(2247.25 0.0679464 -2.98118e-17)
(2246.41 4.20854 2.96987e-17)
(2243.28 11.0179 -3.02717e-17)
(2238.07 22.3035 2.95828e-17)
(2226.03 55.4867 3.21251e-17)
(2197.2 53.8337 -2.93231e-17)
(2125.41 162.543 -8.3912e-17)
(1875.3 140.203 -1.27462e-17)
(1639.02 -227.566 -9.17661e-17)
(2005.06 -313.172 1.378e-16)
(2142.61 -116.518 0)
(2198.36 -65.4829 6.90993e-17)
(2224.81 -31.9924 -7.22405e-17)
(2233.23 -17.6558 -3.35395e-17)
(2237.9 -8.10528 3.43954e-17)
(2240.07 -3.60761 -3.3751e-17)
(2241.47 0.072271 3.39391e-17)
(2242.09 2.36823 3.23017e-20)
(2242.07 2.9623 0)
(2241.87 1.25825 -2.13546e-18)
(2241.3 0.0574148 2.16665e-18)
(2241.61 -1.66832 3.28449e-20)
(2242.35 -3.31282 3.25562e-20)
(2242.34 -2.71136 3.41854e-20)
(2241.68 -0.801809 0)
(2240.18 2.26005 0)
(2238.78 6.60257 -6.91139e-17)
(2234.25 15.8103 6.75373e-17)
(2226.97 28.5215 -7.23264e-17)
(2203.1 59.0546 1.47987e-16)
(2156.64 104.093 -7.05659e-17)
(2011.74 303.89 -3.88166e-20)
(1682.42 207.775 8.86503e-20)
(1238.28 -567.098 -1.15443e-16)
(1732.55 -572.177 1.18848e-16)
(1928.39 -159.457 2.48848e-16)
(2139.32 -123.435 -9.95643e-17)
(2190.45 -40.7458 0)
(2206.49 -14.854 7.55442e-17)
(2217.83 -6.52744 -7.76673e-17)
(2221.75 -1.05725 0)
(2224.44 1.14685 3.55007e-20)
(2225.37 2.97354 0)
(2225.64 3.32409 0)
(2226.02 1.72817 0)
(2225.05 -0.118458 4.74304e-18)
(2225.63 -2.1278 -4.75042e-18)
(2226 -3.64525 -4.03826e-20)
(2225.82 -2.97015 -3.52973e-20)
(2224.89 -1.16346 0)
(2222.38 0.714711 0)
(2219.2 5.47155 0)
(2208.11 12.0518 -7.91895e-17)
(2195.2 36.4741 1.60741e-16)
(2154.37 110.379 -7.50262e-17)
(2005.72 157.466 -1.35774e-16)
(1745.42 574.414 1.02288e-16)
(1260.3 560.707 -6.01404e-20)
(1241.01 -652.504 1.71438e-16)
(1158.21 -971.026 0)
(1325.51 -699.814 0)
(1829.84 -211.55 -1.15894e-16)
(2080.45 -84.5089 1.25894e-16)
(2138.61 -59.4311 0)
(2154.75 -29.4085 1.45427e-20)
(2164.94 -16.7007 4.42452e-17)
(2170.29 -6.51845 -4.47493e-17)
(2172.25 -2.03028 0)
(2172.39 0.60791 -1.10316e-17)
(2174.52 1.87988 1.10373e-17)
(2171.59 0.461395 -5.52897e-18)
(2173.5 -2.09737 5.53158e-18)
(2173.3 -1.87265 3.93234e-20)
(2172.72 0.304041 -4.41364e-17)
(2170.85 5.58228 8.89601e-17)
(2166.37 13.3159 1.04268e-18)
(2156.99 25.8158 -4.42231e-17)
(2141.35 55.5943 -9.7209e-17)
(2080.06 63.0237 9.06732e-17)
(1852.47 121.749 8.70499e-20)
(1529.18 564.912 2.68008e-20)
(1124.65 1025.03 1.72826e-16)
(1295.38 623.802 9.09312e-18)
(1301.92 -664.891 0)
(1168.75 -977.631 0)
(1164.45 -759.563 0)
(1048.61 -862.101 0)
(1877.5 -301.077 0)
(1855.96 -19.1554 1.32504e-16)
(1901.97 25.2811 -1.35266e-16)
(1948.45 23.789 2.06747e-19)
(1961.35 9.34267 -1.19713e-20)
(1977.64 7.30723 2.92636e-17)
(1969 5.50391 -2.98895e-17)
(1985.02 1.45053 -3.98357e-19)
(1967.6 -0.832915 -9.35048e-19)
(1979.18 -2.25977 1.11651e-18)
(1975.37 -3.5711 -2.98358e-17)
(1974.44 -5.23756 2.95831e-17)
(1967.05 -7.79746 1.88209e-19)
(1952.18 -10.5677 0)
(1904.77 -18.4106 0)
(1866.89 29.2448 0)
(1850.9 351.107 -2.18195e-16)
(1083.33 818.245 -5.25168e-17)
(1206.44 717.692 1.71849e-16)
(1150.66 967.5 2.06918e-20)
(1336.96 638.864 2.08477e-20)
(1384.04 -649.008 0)
(1248.91 -875.818 4.20042e-20)
(1215.3 -734.34 0)
(1087.11 -820.91 -1.8276e-16)
(1178.1 -671.295 3.52654e-16)
(994.823 -550.796 -2.3097e-16)
(1022.97 -502.822 0)
(1236.88 -250.005 -1.60822e-19)
(1135.98 -129.256 0)
(1243.67 -43.7283 0)
(1115.26 -39.6154 -3.0347e-17)
(1248.46 1.77662 3.17501e-17)
(1109.81 7.99161 3.08755e-17)
(1198.41 -10.6231 -3.14491e-17)
(1169.25 17.1328 0)
(1197.18 40.0494 -1.24824e-16)
(1166.73 100.701 1.23313e-16)
(1219.65 181.616 1.24981e-16)
(1101.15 421.262 -1.14711e-16)
(1020.3 565.079 0)
(1159.15 678.855 0)
(1087.07 801.705 -1.75478e-19)
(1238.55 705.788 -1.76227e-16)
(1261.43 855.983 3.7806e-16)
(1379.59 633.066 -1.73288e-16)
(1455.15 -634.723 -1.77311e-16)
(1342 -788.823 1.93506e-16)
(1271.29 -614.888 0)
(1140.07 -615.896 -2.43303e-16)
(1158.16 -524.211 -4.137e-17)
(912.411 -382.991 3.53744e-16)
(445.925 -78.9489 -2.52214e-16)
(401.373 -85.5363 1.354e-16)
(171.994 -0.429101 0)
(220.582 -21.8202 0)
(59.4733 3.5697 -4.42623e-20)
(176.376 -10.9746 1.58029e-19)
(28.7006 11.2088 0)
(130.202 -14.9719 0)
(100.269 2.79092 6.6776e-17)
(166.429 3.14906 -6.80156e-17)
(172.583 1.85484 -1.34468e-16)
(346.868 60.6171 2.7455e-16)
(419.983 64.4103 -6.98903e-18)
(802.845 292.215 -1.33627e-16)
(1137.56 500.264 0)
(1136.23 631.32 0)
(1270.96 603.78 -1.92427e-16)
(1310.31 789.375 2.20419e-16)
(1436.7 632.109 -4.56973e-20)
(1557.21 -546.822 1.7089e-16)
(1477.82 -576.594 -9.69331e-20)
(1440.4 -403.484 1.08797e-16)
(1271.39 -305.531 -1.03078e-16)
(1210.79 -229.145 -5.10253e-20)
(956.424 -125.223 1.23712e-19)
(604.06 -46.4792 1.28435e-16)
(557.059 -138.799 -2.00071e-16)
(471.4 -75.7438 6.77503e-17)
(481.439 -91.7975 0)
(466.378 -45.3463 -3.31613e-17)
(481.926 -41.7909 3.27026e-17)
(469.003 -12.6092 0)
(471.787 21.0092 5.8899e-20)
(466.599 31.1836 -3.33065e-17)
(467.846 61.7651 3.28842e-17)
(459.132 76.7776 0)
(523.333 116.372 -1.35428e-16)
(562.761 86.8885 1.30104e-16)
(853.143 115.833 1.20772e-16)
(1183.25 187.951 -2.23386e-16)
(1239.39 291.174 1.22627e-16)
(1406.45 416.713 0)
(1465.26 618.455 1.77549e-16)
(1546.54 568.709 -1.17995e-17)
(1689.33 -385.438 -6.6523e-18)
(1574.26 -199.954 9.86495e-17)
(1418.71 -147.065 -4.58031e-17)
(1307.07 -36.8637 -5.73276e-17)
(1311.74 -91.5222 7.95929e-17)
(1117.46 -158.172 -5.76823e-17)
(904.043 -171.199 6.27792e-17)
(885.345 -169.157 -6.3609e-17)
(831.454 -119.332 -1.34319e-19)
(801.344 -106.123 3.22463e-17)
(758.992 -53.4183 1.60771e-17)
(772.778 -39.9908 -4.46463e-20)
(738.72 -3.33412 -1.61145e-17)
(763.41 30.6416 -6.2401e-20)
(763.096 50.5421 -7.73634e-20)
(792.393 92.2346 -2.01288e-18)
(830.615 123.097 5.45941e-21)
(890.701 154.789 5.96728e-18)
(916.154 166.992 -3.85316e-18)
(1135.55 164.014 0)
(1285.47 110.841 1.32438e-17)
(1270.38 66.5057 -4.02421e-17)
(1421.58 121.965 5.00725e-17)
(1564.96 230.434 -6.93794e-17)
(1680.88 399.238 6.67588e-17)
(1788.38 -256.939 -1.0673e-19)
(1732.75 60.0444 -1.41886e-19)
(1596.76 99.4469 1.65902e-19)
(1447.56 5.59783 -7.19386e-21)
(1451.7 -60.5887 -1.70112e-19)
(1374.32 -116.684 -1.96369e-19)
(1171.56 -147.884 -7.98492e-21)
(1050.36 -144.312 0)
(974.779 -92.5919 0)
(934.706 -81.7577 6.47564e-17)
(888.252 -45.0329 -6.42617e-17)
(885.659 -32.2004 -8.27928e-21)
(858.785 -5.60929 8.26269e-21)
(876.768 24.0467 -8.29148e-18)
(885.999 42.2803 8.06739e-18)
(922.545 73.9368 0)
(965.947 93.4639 0)
(1025.94 134.937 -6.18895e-17)
(1143.06 165.13 5.98549e-17)
(1353.56 151.258 -1.88301e-19)
(1431.61 106.642 0)
(1424.73 23.34 0)
(1582.85 -106.994 -1.7034e-19)
(1722.12 -59.5146 -1.45098e-19)
(1780.07 262.191 1.57175e-16)
(1768.82 191.823 -1.72063e-16)
(1695.07 394.609 -2.17859e-16)
(1674.68 350.037 1.44469e-16)
(1601.26 210.359 0)
(1590.27 57.0104 2.23191e-19)
(1540.03 -27.6258 1.06472e-16)
(1391.47 -55.5764 -2.18506e-16)
(1224.31 -72.0834 1.1515e-16)
(1109.66 -48.5278 -1.27185e-16)
(1051.12 -51.4365 1.26659e-16)
(997.407 -28.0865 3.22134e-17)
(984.924 -21.298 -3.99897e-17)
(961.716 -1.55581 -8.06923e-18)
(977.411 19.0301 1.62605e-17)
(992.211 29.7195 0)
(1038.52 51.5723 0)
(1095.85 57.0848 1.24389e-16)
(1198.04 76.4044 -2.40819e-16)
(1374.34 81.0184 1.15275e-16)
(1528.8 55.8162 2.26835e-19)
(1583.23 -27.0503 1.95202e-16)
(1599.65 -196.683 -1.99488e-17)
(1681.37 -342.422 -4.86041e-16)
(1693.12 -398.775 5.4931e-16)
(1752.66 -255.802 -3.07013e-16)
(1503.66 559.819 1.09193e-19)
(1574.46 795.956 -1.95058e-16)
(1712.68 579.895 1.26766e-16)
(1696.36 369.15 0)
(1679.35 199.37 0)
(1638.06 105.212 0)
(1515.71 66.5462 0)
(1360.2 17.4345 0)
(1231.95 7.79784 -5.4891e-17)
(1162.19 -13.8353 1.11397e-16)
(1101.63 -6.80038 -8.41757e-17)
(1081.08 -7.39735 3.15456e-17)
(1060.42 1.9761 -3.52776e-18)
(1076.05 11.1127 1.27922e-20)
(1097.43 12.6585 -5.60086e-17)
(1153.16 18.8612 5.68271e-17)
(1223.62 4.11084 0)
(1345.73 -10.4777 0)
(1510.07 -48.3927 -1.74658e-16)
(1633 -92.1914 1.90399e-16)
(1678.62 -182.541 -1.7249e-19)
(1705.27 -366.712 7.08961e-20)
(1715.45 -590.376 -9.37147e-20)
(1587.17 -788.937 -7.11134e-20)
(1478.52 -628.62 0)
(1229.94 838.975 -1.8215e-16)
(1598.15 964.899 1.16886e-16)
(1765.5 737.549 -1.32123e-19)
(1754.27 514.729 1.52467e-16)
(1736.89 332.54 -1.3163e-16)
(1693.16 230.126 0)
(1592.07 179.569 -8.43876e-17)
(1457.83 107.077 8.29566e-17)
(1337.2 67.0626 -4.76954e-17)
(1258.77 28.288 9.69613e-17)
(1200.4 20.0593 -4.83614e-17)
(1175.83 4.77423 1.81229e-19)
(1156.93 2.66261 0)
(1172.72 -1.21208 2.46041e-17)
(1198.34 -14.9414 2.38224e-17)
(1256.09 -25.3009 -4.92589e-17)
(1336.2 -59.3026 -9.13973e-17)
(1451.2 -107.874 9.0341e-17)
(1590.02 -173.178 -7.41023e-17)
(1689.25 -229.708 8.2385e-17)
(1738.88 -330.799 8.01844e-20)
(1760.52 -526.399 -7.92122e-20)
(1757.75 -753.953 0)
(1606.58 -960.74 6.58387e-20)
(1200.43 -854.636 0)
(1189.16 793.975 1.44846e-16)
(1631.23 932.003 -1.27963e-16)
(1796.72 806.436 5.20064e-20)
(1773.1 660.134 0)
(1760.27 484.847 0)
(1724.6 364.334 -7.51301e-21)
(1649.76 280.399 0)
(1537.53 185.872 8.01507e-20)
(1425.69 126.087 0)
(1349.55 71.449 4.31838e-17)
(1290.61 47.084 -6.4445e-17)
(1265.79 19.4993 3.22617e-17)
(1248.7 2.62727 -1.08057e-17)
(1263.31 -15.391 0)
(1288.78 -41.8796 0)
(1347.66 -68.3775 4.16217e-17)
(1426.65 -119.268 -1.21035e-16)
(1532.49 -186.01 7.85805e-17)
(1646.11 -275.6 -6.45291e-17)
(1716.58 -372.61 7.17689e-17)
(1760.61 -483.074 0)
(1786.09 -649.294 0)
(1797.94 -811.531 0)
(1643.64 -908.456 -7.02154e-21)
(1155.87 -772.37 -1.67021e-16)
(1287.29 708.327 -2.77434e-20)
(1708.17 829.865 1.0716e-16)
(1784.13 843.836 -9.94055e-17)
(1780.48 728.381 0)
(1772.72 587.05 0)
(1747.83 464.507 7.74889e-21)
(1688.8 358.879 6.56705e-17)
(1589.75 251.946 -6.41165e-17)
(1494.66 181.031 3.31027e-20)
(1429.24 108.489 3.46995e-20)
(1369.5 70.9501 3.53541e-20)
(1345.14 32.1027 -1.01546e-20)
(1328.25 2.44645 -1.01631e-20)
(1342.8 -28.7567 1.91751e-17)
(1367.5 -66.2416 -1.95402e-17)
(1429.56 -106.508 4.48929e-20)
(1497.53 -175.581 4.30306e-20)
(1588.61 -252.274 0)
(1691.97 -352.281 -5.77911e-17)
(1747.12 -471.288 6.38936e-17)
(1772.47 -589.506 0)
(1792.41 -720.695 -1.01244e-16)
(1790.94 -846.725 1.05284e-16)
(1717.76 -825.095 6.45725e-21)
(1306.76 -694.709 -1.50856e-16)
(1369.7 593.69 3.37892e-20)
(1738.9 764.334 0)
(1770.83 843.882 0)
(1780.83 771.184 -5.47039e-17)
(1780.98 664.161 4.81568e-17)
(1772.04 542.256 0)
(1728.08 422.638 6.02782e-17)
(1642.69 302.591 -5.87478e-17)
(1554.1 221.299 3.4233e-17)
(1494.85 146.287 -3.39811e-17)
(1448.23 94.6346 1.78404e-17)
(1421.55 42.4107 -1.76977e-17)
(1407.33 2.24583 0)
(1419.73 -40.5292 -1.76027e-17)
(1446.35 -91.6451 1.79171e-17)
(1497.71 -147.078 -3.67099e-20)
(1563.31 -221.012 -3.52296e-20)
(1645.81 -311.435 5.67126e-20)
(1731.96 -423.49 5.29655e-17)
(1772.43 -552.964 -5.82874e-17)
(1777.13 -672.007 -4.8939e-20)
(1789.78 -768.286 -4.85159e-20)
(1779.94 -846.605 0)
(1743.19 -754.135 -5.16254e-20)
(1350.42 -570.322 3.50239e-20)
(1401.56 527.969 1.25572e-22)
(1751.3 701.672 0)
(1766.7 832.24 8.56407e-23)
(1782.67 790.654 4.5113e-20)
(1788.99 709.92 -8.86293e-23)
(1791.99 592.179 -5.30381e-17)
(1754.19 470.689 4.9013e-17)
(1675.68 352.926 0)
(1605.34 264.862 -6.36947e-20)
(1555.98 175.335 -1.14056e-22)
(1508 116.519 -1.16016e-22)
(1489.2 55.4526 6.81366e-20)
(1476.24 2.67977 0)
(1487.37 -51.6585 0)
(1506.93 -111.469 -1.15704e-22)
(1557.82 -174.862 -1.13934e-22)
(1612.65 -260.797 -2.93381e-17)
(1683.64 -356.09 8.33765e-17)
(1763.04 -469.3 -5.5308e-17)
(1799.91 -596.897 0)
(1790.51 -714.343 -4.52952e-17)
(1793.32 -790.927 4.79341e-17)
(1776.29 -837.4 8.40475e-23)
(1758.29 -712.635 4.65389e-20)
(1415.19 -516.321 1.27993e-22)
(1454.25 466.543 7.36209e-18)
(1745.46 673.126 1.06965e-17)
(1765.61 811.692 9.12939e-17)
(1784.61 785.324 -4.37109e-17)
(1800.61 731.565 4.36318e-17)
(1812.71 626.304 -4.86448e-17)
(1779.4 510.21 4.56549e-17)
(1715.72 386.479 -2.72405e-17)
(1654.38 291.052 2.70536e-17)
(1609.97 200.986 1.19398e-22)
(1570.77 132.596 1.21351e-22)
(1550.54 62.2558 -1.2221e-22)
(1539.45 4.36536 7.40826e-18)
(1549.59 -56.6499 7.28808e-18)
(1569.75 -125.304 -1.50769e-17)
(1613.88 -197.572 1.19639e-22)
(1666.61 -288.388 5.41601e-17)
(1722.64 -392.288 -1.04596e-16)
(1786.98 -507.079 5.12606e-17)
(1821.09 -627.257 0)
(1805.41 -734.266 -8.86603e-23)
(1796.23 -788.038 8.19085e-23)
(1776.09 -816.568 -8.0941e-23)
(1748.95 -687.215 -1.00546e-16)
(1446.3 -465.908 1.16811e-16)
(1453.24 460.156 1.12858e-19)
(1731.57 650.561 0)
(1764.86 770.706 0)
(1793.02 773.141 4.16687e-20)
(1818.32 729.151 8.28112e-20)
(1831.86 635.573 0)
(1800.48 526.633 4.76834e-17)
(1739.86 410.01 -4.71999e-17)
(1691.03 318.874 4.83299e-20)
(1659.08 221.302 -5.01111e-20)
(1626.92 146.7 -1.39406e-17)
(1609.56 69.0981 1.37858e-17)
(1601.04 2.15351 3.56719e-18)
(1609.31 -67.9484 -3.48023e-18)
(1627.26 -143.663 1.3559e-17)
(1663.39 -223.675 -4.0201e-17)
(1702.01 -317.497 2.68223e-17)
(1754.24 -418.986 -5.09089e-20)
(1811.51 -535.423 4.20707e-20)
(1841.13 -646.718 -4.15807e-17)
(1821.16 -735.758 1.16581e-18)
(1802.25 -774.967 -1.42537e-18)
(1778.07 -774.237 4.16521e-17)
(1734.44 -664.544 4.60312e-20)
(1441.34 -472.506 5.44229e-20)
(1429.75 462.204 1.06583e-16)
(1727.47 617.712 -9.23373e-17)
(1784.49 711.154 0)
(1807.33 745.948 -4.02972e-17)
(1829.7 720.178 7.17249e-20)
(1845.33 644.408 4.02966e-17)
(1816.09 551.321 4.46149e-17)
(1771.99 437.16 -4.41214e-17)
(1735.28 335.594 -5.04722e-20)
(1704.34 236.066 -2.56347e-17)
(1671.19 158.941 1.22473e-17)
(1659.71 77.554 1.26857e-17)
(1650.93 6.35811 -5.37438e-20)
(1659.77 -68.2347 0)
(1670.86 -147.417 0)
(1706.72 -228.51 0)
(1745.46 -329.435 5.02549e-20)
(1779.48 -434.735 1.06072e-20)
(1824.85 -544.055 -5.37796e-20)
(1856.88 -643.679 0)
(1836.74 -724.11 3.96167e-20)
(1815.68 -754.626 9.76255e-21)
(1796.47 -726.532 -5.0261e-20)
(1745.75 -637.38 -9.0552e-17)
(1427.17 -469.638 1.04756e-16)
(1417.38 452.589 5.09249e-17)
(1739.07 565.689 -8.50975e-17)
(1807.31 653.085 8.37313e-17)
(1817.64 717.172 -4.16312e-17)
(1847.27 704.225 -3.82076e-17)
(1861.41 634.265 3.85827e-17)
(1834.91 548.269 2.08169e-17)
(1794.21 439.696 -2.11454e-17)
(1765.2 351.434 1.16736e-17)
(1746.53 253.285 -2.34353e-17)
(1723.75 167.854 1.76693e-17)
(1708.78 79.7722 -7.46234e-18)
(1703.19 4.38076 1.4964e-18)
(1710.08 -74.0285 -4.42797e-20)
(1724.91 -159.297 2.33572e-17)
(1750.6 -249.272 -2.39518e-17)
(1776.98 -343.24 4.23242e-20)
(1810.45 -444.327 4.17721e-17)
(1845.34 -551.986 -2.11312e-18)
(1870.11 -639.007 -3.93112e-17)
(1849.59 -705.129 0)
(1823.97 -723.827 4.16865e-17)
(1808.38 -672.993 -3.80863e-17)
(1743.67 -586.435 -9.20407e-17)
(1403.24 -441.007 -4.75872e-18)
(1438.4 425.505 -4.98397e-17)
(1759.84 496.358 4.54328e-17)
(1821.9 589.824 1.96945e-20)
(1834.18 674.638 -5.55382e-20)
(1864.22 679.829 1.87715e-20)
(1873.14 615.524 3.75307e-17)
(1845.01 545.686 -1.87e-17)
(1817.99 447.712 -2.01726e-17)
(1803 352.988 4.43462e-20)
(1782.44 250.9 -4.58338e-20)
(1756.83 170.126 2.08382e-20)
(1751.47 82.8302 -2.08295e-20)
(1746.9 2.65269 0)
(1753.21 -81.3741 5.01721e-21)
(1758.66 -166.326 -1.10141e-17)
(1784.51 -251.991 1.12369e-17)
(1808.07 -354.573 -2.09231e-17)
(1826.53 -449.984 9.20685e-19)
(1855.72 -546.387 1.96555e-17)
(1883.05 -623.969 -5.43933e-20)
(1867.13 -688.897 -3.74507e-17)
(1836.58 -684.014 3.61801e-17)
(1826.72 -599.666 0)
(1754.09 -511.519 -4.58274e-17)
(1397.9 -415.773 4.92335e-17)
(1447.61 387.9 0)
(1772.76 420.471 -3.77138e-17)
(1833.69 524.393 4.3652e-17)
(1849.29 632.652 1.79575e-20)
(1874.69 655.976 1.7613e-20)
(1886.09 607.422 -3.58454e-17)
(1864.75 538.854 3.74342e-17)
(1843.35 442.843 2.01063e-17)
(1827.44 359.23 6.55839e-19)
(1817.34 265.406 -2.06282e-17)
(1800.45 177.094 -2.17526e-20)
(1790.19 83.8358 2.44461e-20)
(1785.74 4.84379 0)
(1792.42 -77.3388 4.39475e-20)
(1801.9 -166.579 -2.17508e-20)
(1819.82 -257.735 1.02683e-17)
(1838.11 -349.187 -1.0369e-17)
(1855.07 -445.186 -1.98916e-20)
(1871.41 -539.978 -2.09206e-20)
(1894 -608.083 1.78138e-20)
(1876.94 -658.221 -3.70112e-17)
(1848.62 -641.441 -5.34271e-18)
(1834.73 -540.97 3.51877e-17)
(1766.07 -426.984 0)
(1435.78 -382.438 5.23356e-17)
(1468.73 353.829 -9.76578e-17)
(1780.37 359.301 4.28541e-17)
(1830.2 454.493 3.42794e-17)
(1863.57 576.975 -4.05739e-17)
(1890.07 620.248 0)
(1900.49 579.074 -2.16773e-21)
(1875.34 521.665 0)
(1859.48 439.586 -2.40417e-21)
(1858.15 356.947 -2.48284e-21)
(1848.12 257.883 0)
(1829.42 176.818 0)
(1828.19 87.4227 -2.59136e-21)
(1826.26 2.37628 0)
(1831.03 -86.3161 0)
(1833.62 -173.54 -9.9332e-18)
(1849.73 -260.029 1.00178e-17)
(1860.06 -356.175 -2.48953e-21)
(1867.75 -440.384 -1.87565e-17)
(1883.2 -523.136 1.80339e-17)
(1908.28 -587.287 0)
(1891.28 -631.354 3.63846e-17)
(1863.08 -586.896 -7.3808e-17)
(1836.94 -452.085 7.67995e-17)
(1777.48 -363.635 6.06625e-18)
(1445.43 -343.657 -4.86682e-17)
(1491.94 327.072 1.18679e-20)
(1796.89 317.886 -9.68217e-21)
(1822.97 393.465 0)
(1881.47 509.964 0)
(1898.65 574.897 0)
(1911.87 559.593 8.10616e-21)
(1889.39 510.145 0)
(1886.64 423.666 -8.57865e-21)
(1881.29 344.699 0)
(1872.21 257.666 -8.8871e-21)
(1862.18 173.432 0)
(1855.93 81.2737 -2.39288e-18)
(1853.73 0.173106 2.38229e-18)
(1858.77 -84.152 0)
(1863.36 -172.458 9.44362e-18)
(1876.64 -257.079 -1.8918e-17)
(1887.6 -346.792 9.35799e-18)
(1893.77 -433.409 0)
(1895.69 -514.12 1.75781e-17)
(1919.19 -563.5 -1.65437e-17)
(1899.45 -580.649 3.63743e-17)
(1876.38 -524.806 -3.23113e-17)
(1832.81 -395.742 0)
(1788.57 -297.129 0)
(1461.29 -312.059 0)
(1498.99 301.751 -1.17818e-20)
(1798.41 289.083 9.57696e-21)
(1826.95 325.388 0)
(1893.32 427.962 0)
(1908.08 530.071 0)
(1924.75 531.701 -8.14182e-21)
(1905.81 485.013 0)
(1897.93 414.649 8.94712e-21)
(1901.23 344.492 0)
(1900.66 253.109 -9.08031e-18)
(1886.39 174.705 9.0918e-18)
(1888.49 85.6967 -8.55038e-21)
(1886.69 2.01251 9.38869e-21)
(1891.17 -85.6737 8.56076e-21)
(1892.31 -173.045 0)
(1899.71 -256.727 0)
(1902.12 -341.91 9.17934e-21)
(1905.43 -413.057 -1.77664e-17)
(1911.92 -488.737 1.68337e-17)
(1931.19 -542.178 0)
(1908.64 -544.928 7.97977e-21)
(1894.5 -451.325 0)
(1814.66 -320.836 0)
(1793.68 -270.449 0)
(1476.65 -283.018 0)
(1514.24 272.46 -4.43863e-17)
(1808.88 265.716 3.97174e-17)
(1836.2 277.332 0)
(1901.72 351.018 -1.72236e-20)
(1918 464.305 0)
(1933.39 494.306 -1.5468e-17)
(1919.21 469.332 3.34018e-17)
(1925 397.342 -1.71237e-17)
(1927.29 327.322 -8.62349e-18)
(1918.25 243.117 8.7082e-18)
(1912.34 166.748 4.42824e-21)
(1909.56 79.517 1.13566e-18)
(1909.78 -0.989165 -1.09315e-18)
(1913.21 -85.0774 8.69813e-18)
(1912.8 -168.583 -8.77828e-18)
(1922.67 -245.907 0)
(1928.91 -332.999 -1.62941e-20)
(1927.3 -411.107 0)
(1919.25 -475.366 0)
(1936.88 -499.564 -1.74083e-17)
(1918.35 -472.113 1.5236e-17)
(1895.41 -351.097 0)
(1823.32 -263.49 3.79223e-17)
(1796.78 -248.153 1.73114e-18)
(1488.54 -260.202 -9.34249e-17)
(1514.52 241.282 4.5386e-17)
(1820.75 245.519 1.83265e-20)
(1843.95 220.691 3.27555e-17)
(1897.19 271.43 -2.35326e-17)
(1923.06 418.445 -1.84616e-17)
(1939.27 452.194 0)
(1933.06 433.368 8.36659e-21)
(1934.83 377.487 1.64708e-17)
(1938.29 318.063 -1.68536e-17)
(1940.28 237.849 0)
(1932.59 161.689 0)
(1934.54 76.5032 -2.61723e-20)
(1931.73 -2.27188 3.27703e-20)
(1936.09 -84.1451 1.7102e-20)
(1936.64 -168.831 4.206e-18)
(1939.21 -245.95 -4.21162e-18)
(1938.86 -323.981 9.03809e-21)
(1940.25 -386.002 1.69543e-17)
(1936.21 -447.882 -3.29276e-17)
(1945.54 -466.027 1.49756e-17)
(1925.06 -425.243 -1.56617e-20)
(1891.66 -267.589 0)
(1835.14 -203.789 1.78112e-20)
(1807.78 -230.007 3.857e-17)
(1492.14 -236.188 -9.09327e-17)
(1525.19 229.025 -4.44037e-17)
(1822.55 219.926 -3.64036e-17)
(1852.76 198.916 3.58924e-17)
(1876.18 196.742 1.50375e-17)
(1923.94 322.203 -1.9375e-17)
(1941.21 399.603 0)
(1941.17 410.367 3.99286e-21)
(1954.56 365.238 -1.18573e-20)
(1963.97 305.059 7.97084e-18)
(1957.96 223.144 -1.62124e-17)
(1950 156.26 8.12754e-18)
(1951.82 75.648 2.02201e-18)
(1953.12 -1.00304 -1.89301e-18)
(1954.2 -81.4253 1.88713e-18)
(1949.31 -158.438 -2.04698e-18)
(1958.41 -229.409 0)
(1962.21 -310.364 1.19395e-20)
(1956.57 -374.423 -3.84819e-21)
(1939.86 -416.744 -1.7149e-17)
(1941.36 -404.313 1.48456e-17)
(1928.37 -330.67 0)
(1870.47 -194.013 0)
(1840.8 -177.581 -4.31651e-21)
(1811.81 -214.874 -3.79906e-17)
(1500.24 -223.926 -1.2044e-18)
(1542.22 207.947 -2.08794e-17)
(1822.49 201.218 1.86897e-17)
(1855.54 176.508 4.3166e-21)
(1879.62 138.024 0)
(1924.24 253.233 1.44401e-17)
(1946.25 337.865 -1.77074e-17)
(1950.99 360.423 3.82284e-21)
(1964.6 331.071 3.93204e-21)
(1968.9 288.813 1.51032e-20)
(1973.25 218.831 -1.94669e-18)
(1971.89 148.907 9.83378e-19)
(1971.02 69.5173 1.91434e-18)
(1967.25 -2.13846 -9.81426e-19)
(1971.37 -75.9404 3.92472e-18)
(1972.65 -156.432 -3.89943e-18)
(1969.74 -226.649 0)
(1968.53 -294.378 1.11953e-20)
(1968.99 -343.912 -1.65284e-17)
(1952.79 -377.985 1.49938e-17)
(1950.25 -355.47 3.77767e-21)
(1926.74 -241.646 0)
(1871.49 -121.083 0)
(1844.38 -162.223 4.33608e-21)
(1823.61 -207.677 -3.734e-17)
(1510.18 -213.943 4.23247e-17)
(1561.9 192.25 2.08482e-20)
(1830.22 183.138 0)
(1865.37 159.867 -8.17791e-21)
(1882.58 78.5523 -1.53838e-17)
(1899.08 161.953 1.82879e-17)
(1941.23 274.757 -1.44802e-17)
(1943.47 324.943 1.71419e-17)
(1974.59 309.509 -7.45541e-18)
(1991 269.913 7.79625e-18)
(1988.39 199.63 -3.75333e-18)
(1980.11 140.41 3.8356e-18)
(1985.62 68.2005 -1.86037e-18)
(1985.96 -2.83516 2.12453e-18)
(1986.19 -78.3413 -2.51995e-19)
(1980.2 -148.707 3.85592e-18)
(1988.29 -210.976 -7.59407e-18)
(1985.95 -282.402 -4.10713e-18)
(1977.27 -323.728 7.47242e-18)
(1949.72 -331.854 1.53072e-20)
(1940.41 -272.126 -7.91505e-21)
(1901.21 -141.82 0)
(1877.2 -62.3732 0)
(1865.15 -155.288 0)
(1824.07 -190.184 -1.84743e-17)
(1523.04 -187.292 2.05747e-17)
(1562.69 161.143 -2.49538e-21)
(1839.81 166.99 0)
(1874.78 142.835 1.04435e-20)
(1884.14 56.2297 -8.16839e-21)
(1880.22 88.9621 -7.83007e-21)
(1935.97 179.519 0)
(1954.79 259.212 -7.48783e-21)
(1976.5 265.133 7.27367e-18)
(1990.67 246.971 -7.94267e-18)
(1996.48 192.063 0)
(2000.71 134.899 1.74661e-21)
(1999.75 62.223 0)
(1995.58 -1.73853 0)
(1999.56 -67.8219 1.84353e-18)
(1998.92 -141.156 -1.83769e-18)
(1991.74 -198.416 -7.46318e-21)
(1990.5 -252.477 -1.82724e-21)
(1982.46 -280.725 7.40725e-21)
(1956.73 -270.275 -8.71142e-18)
(1943.16 -189.056 7.11116e-18)
(1874.56 -63.3662 -1.76089e-17)
(1879.81 -41.0822 3.25991e-17)
(1879 -140.051 -1.656e-17)