/*--------------------------------*- C++ -*----------------------------------*\
| =========                 |                                                 |
| \\      /  F ield         | OpenFOAM: The Open Source CFD Toolbox           |
|  \\    /   O peration     | Version:  2112                                  |
|   \\  /    A nd           | Website:  www.openfoam.com                      |
|    \\/     M anipulation  |                                                 |
\*---------------------------------------------------------------------------*/
FoamFile
{
    version     2.0;
    format      ascii;
    arch        "LSB;label=32;scalar=64";
    class       volVectorField;
    location    "0.00365";
    object      U;
}
// * * * * * * * * * * * * * * * * * * * * * * * * * * * * * * * * * * * * * //

dimensions      [0 1 -1 0 0 0 0];

internalField   nonuniform List<vector> 
13875
(
(2204.17 109.696 1.81269e-18)
(2142.49 5.61261 -9.3869e-19)
(2170.15 -2.22012 -9.41188e-19)
(2168.02 -1.14546 0)
(2170.87 0.0870375 0)
(2169.6 -0.070783 9.36363e-19)
(2169.65 -0.367413 -9.36735e-19)
(2169.88 -1.24659 -4.68366e-19)
(2169.52 -1.20966 4.68097e-19)
(2169.69 -0.299989 0)
(2169.62 0.160985 -3.88191e-22)
(2169.63 1.21953 -3.88038e-22)
(2169.51 1.30794 0)
(2169.28 0.0278807 -4.68288e-19)
(2169.39 -0.93961 4.68642e-19)
(2169.66 -1.37258 0)
(2170.1 -0.025004 9.36409e-19)
(2169.83 1.35254 -9.37019e-19)
(2170.01 1.17849 3.85755e-22)
(2169.62 0.312016 -3.85389e-22)
(2170.88 -0.290645 -9.35848e-19)
(2167.88 0.329303 9.36995e-19)
(2171.03 2.52067 -1.87839e-18)
(2143.3 -8.64229 1.91722e-18)
(2210.03 -106.913 1.76538e-18)
(2253.39 91.9281 -1.63244e-18)
(2228.47 -1.12876 1.88341e-18)
(2247.29 0.680253 8.71963e-19)
(2245.48 1.26637 -8.67208e-19)
(2248.52 -0.543219 4.16294e-22)
(2248.13 0.435471 5.20291e-22)
(2248.15 0.396407 4.16104e-22)
(2247.78 1.49606 -4.3645e-19)
(2245.69 1.61394 4.33331e-19)
(2245.36 0.410187 2.17538e-19)
(2245.3 -0.316259 -1.62962e-19)
(2245.67 -1.55221 -5.31363e-20)
(2247.51 -1.40758 0)
(2247.67 0.010242 -4.35048e-19)
(2247.51 1.03286 4.33523e-19)
(2245.73 1.46701 4.35786e-19)
(2245.84 -0.0765507 -4.35223e-19)
(2245.94 -1.78618 5.18479e-22)
(2247.89 -1.54333 -5.19692e-22)
(2248.15 -0.604304 5.20613e-22)
(2248.81 0.879769 -8.71563e-19)
(2245.59 -0.646598 2.59952e-18)
(2247.23 -1.57978 -1.74255e-18)
(2228.83 3.50033 5.42974e-22)
(2256.74 -97.1622 -1.71269e-18)
(2252.4 78.1145 0)
(2236.35 -18.2188 0)
(2249.39 4.42097 0)
(2250.77 -1.93315 0)
(2254.18 -3.12416 -1.65313e-18)
(2253.93 -0.687068 1.64338e-18)
(2254.19 0.330639 1.63991e-18)
(2254.15 2.24294 -2.45893e-18)
(2253.66 2.07072 8.59928e-19)
(2253.82 0.342861 4.30707e-22)
(2253.88 -0.172425 -4.30535e-19)
(2253.56 -1.90008 4.29848e-19)
(2253.95 -2.12804 0)
(2253.85 -0.0901822 0)
(2253.94 2.17407 4.08219e-22)
(2253.33 1.64388 0)
(2254.52 -0.279754 8.38332e-22)
(2253.65 -1.74306 4.29795e-19)
(2254.1 -2.1241 -4.10434e-19)
(2253.78 -0.0723897 0)
(2254.28 2.94036 0)
(2251.03 1.49749 0)
(2250.62 -4.75888 0)
(2238.16 13.6221 0)
(2257.53 -74.178 0)
(2247.85 51.3497 0)
(2235.04 -28.6086 1.81438e-18)
(2249.17 7.15698 -3.4171e-18)
(2251.66 -4.84964 3.46486e-18)
(2253.84 -3.90323 -1.65468e-18)
(2253.79 -0.984354 0)
(2254.14 0.312821 -7.86007e-22)
(2254.12 2.2265 0)
(2254.1 1.87016 0)
(2254.38 0.0783192 0)
(2254.39 0.161785 0)
(2254.02 -1.69968 -8.42788e-22)
(2253.95 -2.09284 -5.03451e-20)
(2253.83 -0.131836 5.05409e-20)
(2253.92 2.19748 0)
(2254.05 1.36964 0)
(2254.87 -0.346796 8.00425e-22)
(2254.1 -1.44855 -8.63881e-19)
(2254.05 -2.03291 8.07028e-19)
(2253.69 0.0681412 -1.61945e-18)
(2254.08 3.45767 1.62386e-18)
(2252.08 4.76505 1.74101e-18)
(2249.74 -8.79208 -1.72023e-18)
(2235.85 31.1779 0)
(2251.52 -58.7268 0)
(2244.88 39.2786 1.74901e-18)
(2235.45 -47.8146 0)
(2248.66 10.3932 0)
(2250.51 -8.17621 0)
(2254.21 -5.50091 0)
(2253.89 -1.71631 1.66051e-21)
(2254.08 0.169672 1.6269e-21)
(2254.11 2.12369 4.16223e-19)
(2254.13 1.46507 -4.30029e-19)
(2254.37 -0.149147 2.13924e-19)
(2254.32 0.373735 -2.17397e-19)
(2254.16 -1.31366 0)
(2253.89 -2.02478 0)
(2253.76 -0.14732 -1.6428e-21)
(2253.86 2.17057 0)
(2254.05 0.941002 -1.68602e-21)
(2254.82 -0.357777 8.03691e-19)
(2254.24 -0.785613 -8.58225e-19)
(2254.06 -1.74639 1.67862e-18)
(2253.65 0.507185 -1.67373e-18)
(2254.21 4.72717 1.65969e-21)
(2250.8 6.99687 0)
(2249.98 -11.3853 0)
(2237.19 42.7158 0)
(2250.04 -35.4526 0)
(2241.48 6.74586 0)
(2231.53 -63.5129 9.12502e-19)
(2247.11 12.1466 -8.47689e-19)
(2250.97 -11.7197 0)
(2253.07 -6.43363 8.61406e-19)
(2253.23 -2.21462 -4.31352e-19)
(2253.76 0.0556584 -2.1478e-21)
(2253.93 2.00366 -2.10888e-19)
(2254.13 1.21614 -4.31352e-19)
(2254.24 -0.295596 1.63192e-19)
(2254.19 0.460319 1.63783e-21)
(2254.19 -0.976564 2.68562e-19)
(2253.81 -1.7995 -2.12989e-19)
(2253.61 -0.246649 3.3357e-21)
(2253.71 2.13693 -4.24182e-19)
(2253.95 0.659015 4.34017e-19)
(2254.67 -0.444935 1.6341e-21)
(2254.01 -0.438467 -1.67954e-21)
(2253.72 -1.52986 -1.64894e-21)
(2253.1 0.716343 -8.42869e-19)
(2253.28 5.20005 8.49558e-19)
(2251.55 11.4599 0)
(2247.39 -14.9451 0)
(2232.4 65.5036 -1.93284e-18)
(2245.94 -18.6832 -1.26159e-19)
(2254.05 2.90324 -4.95251e-20)
(2227.49 -79.2833 6.02445e-20)
(2242.96 12.0706 0)
(2248.67 -16.5713 -2.69126e-23)
(2252.75 -8.71849 -2.62353e-23)
(2252.98 -3.64389 0)
(2253.47 -0.532787 0)
(2253.75 1.49994 -8.39198e-19)
(2253.97 0.67578 8.5657e-19)
(2253.97 -0.282734 0)
(2253.88 0.56816 1.71842e-18)
(2253.96 -0.559138 5.14013e-21)
(2253.52 -1.47406 -1.72757e-18)
(2253.32 -0.214298 -1.70491e-21)
(2253.46 1.95078 0)
(2253.82 0.201585 3.45188e-18)
(2254.38 -0.365409 4.56142e-22)
(2253.89 0.3509 -6.84127e-18)
(2253.51 -0.716286 3.38788e-18)
(2252.77 1.9738 2.58494e-23)
(2252.74 7.38273 0)
(2248.65 13.7992 3.53024e-18)
(2244.12 -12.286 -3.31101e-18)
(2228.84 73.1155 3.81586e-18)
(2247.1 2.96979 -3.18019e-18)
(2218.28 -22.8803 -3.17424e-19)
(2214.68 -87.3839 -7.49846e-18)
(2235.54 3.32728 8.71243e-22)
(2246.11 -23.3492 2.6145e-23)
(2249.14 -10.858 -8.09591e-22)
(2250.79 -4.74309 0)
(2252.12 -0.947316 -3.34795e-18)
(2252.91 1.23167 3.3857e-18)
(2253.35 0.508718 0)
(2253.38 -0.209833 -8.39749e-22)
(2253.27 0.457219 -8.40522e-22)
(2253.38 -0.287634 0)
(2252.99 -0.963235 0)
(2252.72 -0.185697 -1.66175e-21)
(2252.89 1.70405 -8.46424e-22)
(2253.37 -0.123365 2.62276e-23)
(2253.74 -0.366552 -8.64957e-22)
(2253.07 0.684853 -2.60227e-23)
(2252.36 -0.133631 -1.71036e-18)
(2250.8 2.90785 -1.33111e-20)
(2249.48 9.21426 1.68768e-18)
(2246.4 20.2595 8.87312e-22)
(2236.76 -4.39011 3.45986e-18)
(2216.43 81.704 -3.53794e-18)
(2222.26 18.185 2.50136e-23)
(2112.93 -37.9677 9.42671e-19)
(2168.74 -98.5828 0)
(2216.95 -20.326 -8.31566e-22)
(2235.18 -33.1152 -8.65302e-19)
(2245.73 -19.885 1.70666e-18)
(2248.77 -9.61262 -1.70616e-18)
(2250.55 -3.64188 7.23667e-21)
(2251.66 -0.175461 8.54714e-19)
(2252.09 -0.0550582 0)
(2252.12 -0.0492489 -8.58678e-19)
(2252.03 0.521513 8.61633e-19)
(2252.13 -0.0164504 0)
(2251.79 -0.569752 0)
(2251.46 -0.280953 2.10097e-21)
(2251.69 1.29942 8.40114e-22)
(2252.28 -0.507344 8.57059e-19)
(2252.47 -0.0128636 -8.57149e-19)
(2251.82 2.01858 0)
(2250.89 1.95262 8.6238e-19)
(2248.83 6.98787 -1.70649e-18)
(2246.11 16.4744 8.45277e-19)
(2236.19 29.6306 -8.4003e-22)
(2218.6 16.8872 0)
(2170.93 94.0905 0)
(2116.54 35.4778 0)
(1872.13 -142.371 -6.57488e-17)
(2125.23 -160.816 8.43247e-17)
(2197.93 -55.0239 0)
(2227.42 -56.5617 -2.97905e-17)
(2238.33 -23.2432 3.08421e-17)
(2244.27 -11.3429 0)
(2247.25 -4.15715 -2.97578e-20)
(2248.85 -0.892431 -1.47872e-17)
(2249.43 -0.413371 1.49679e-17)
(2249.51 0.0184208 -3.0012e-20)
(2249.5 0.39468 0)
(2249.57 0.0573189 -3.7444e-18)
(2249.27 -0.063492 5.59056e-18)
(2248.89 -0.200052 -1.89763e-18)
(2249.18 0.676472 -2.95159e-20)
(2249.78 -0.634902 0)
(2249.88 0.409606 0)
(2249.03 2.75664 -2.99306e-17)
(2247.67 3.82287 2.96195e-17)
(2244.42 8.99876 -3.00148e-17)
(2239.35 20.9359 2.94668e-17)
(2228 54.0668 3.2241e-17)
(2199.4 53.6328 -2.92931e-17)
(2128.23 162.949 -8.34361e-17)
(1882.67 139.063 -1.26262e-17)
(1650.7 -216.457 -9.10151e-17)
(2010.6 -309.026 1.3775e-16)
(2156.96 -107.499 0)
(2205.46 -64.5941 6.9192e-17)
(2228.88 -30.9688 -7.13724e-17)
(2236.94 -16.2477 -3.34672e-17)
(2241.19 -6.98832 3.41494e-17)
(2243.13 -2.78907 -3.38433e-17)
(2243.87 -0.834802 3.40992e-17)
(2244.1 0.0547807 3.2582e-20)
(2244.2 0.396609 0)
(2244.2 0.334866 -2.13099e-18)
(2243.97 0.332533 2.16488e-18)
(2243.55 -0.239577 3.27497e-20)
(2243.81 -0.0893054 3.25272e-20)
(2244.28 -0.748772 3.37623e-20)
(2244.37 0.592725 0)
(2243.36 4.17351 0)
(2241.54 7.05409 -6.91222e-17)
(2237.47 13.904 6.69855e-17)
(2229.92 26.2953 -7.18778e-17)
(2208.56 58.8881 1.47085e-16)
(2162.18 98.15 -7.05981e-17)
(2013.26 298.55 -3.88972e-20)
(1692.97 206.29 8.80833e-20)
(1274.23 -595.47 -1.09168e-16)
(1738.96 -586.317 1.18556e-16)
(2028.46 -175.882 2.19675e-16)
(2162.67 -108.785 -9.46211e-17)
(2200.01 -35.7174 0)
(2216.76 -14.8545 7.45944e-17)
(2225.75 -6.06629 -7.61554e-17)
(2229.2 -2.09952 0)
(2230.78 -0.960642 3.57502e-20)
(2231.35 -0.174388 0)
(2231.57 0.168035 0)
(2231.47 0.310664 0)
(2231.36 0.983387 4.70891e-18)
(2230.93 0.166451 -4.70792e-18)
(2231.09 -0.46341 -3.97457e-20)
(2231.26 -0.862511 -3.53478e-20)
(2231.16 0.35529 0)
(2229.61 3.11265 0)
(2226.17 7.21189 0)
(2216.09 12.7206 -7.83436e-17)
(2202.79 34.4693 1.58778e-16)
(2167.05 101.11 -7.38755e-17)
(2044.9 164.731 -1.32757e-16)
(1749.59 591.633 1.00823e-16)
(1277.07 548.957 -6.00499e-20)
(1292.72 -612.618 1.61501e-16)
(1112.31 -1072.85 0)
(1625.64 -503.508 0)
(1890.92 -123.579 -1.13212e-16)
(2121.52 -76.0757 1.13623e-16)
(2165.36 -47.8919 0)
(2179.99 -22.7162 1.32795e-20)
(2188.71 -10.7622 4.28758e-17)
(2191.9 -3.4962 -4.30517e-17)
(2193.19 -0.623737 0)
(2193.57 0.253815 -1.07397e-17)
(2193.35 1.04139 1.07369e-17)
(2193.38 1.33049 -5.36846e-18)
(2193 0.336232 5.38221e-18)
(2192.94 -0.492277 3.90744e-20)
(2192.59 -0.495649 -4.23743e-17)
(2191.73 2.05006 8.48611e-17)
(2188.76 9.61288 8.87126e-19)
(2179.23 22.3389 -4.29422e-17)
(2162.67 50.2398 -9.44045e-17)
(2106.21 61.4338 8.8011e-17)
(1881.74 99.2772 8.57826e-20)
(1667.16 468.554 2.74863e-20)
(1105.94 1059.53 1.68857e-16)
(1310.31 614.756 7.45348e-18)
(1345.59 -632.016 0)
(1144.2 -1041.12 0)
(1252.49 -730.203 0)
(1146.05 -824.295 0)
(1928.02 -243.492 0)
(1926.27 -22.0179 1.21231e-16)
(1996.71 9.96192 -1.23284e-16)
(2038.8 4.91824 1.75761e-19)
(2050.93 -0.920462 -1.11414e-20)
(2055.07 -2.15549 2.67382e-17)
(2055.97 -0.312343 -2.7189e-17)
(2056.26 -0.173967 -3.44184e-19)
(2056.13 2.41305 -8.44433e-19)
(2055.66 1.86419 1.00195e-18)
(2054.96 1.08607 -2.69609e-17)
(2053.67 2.36318 2.66667e-17)
(2049.28 1.43732 1.57097e-19)
(2036.38 -1.16586 0)
(1987.55 -4.35415 0)
(1908.09 39.3266 0)
(1892.02 315.255 -2.12843e-16)
(1124.37 821.575 -5.68711e-17)
(1265.82 710.588 1.64229e-16)
(1143.93 1006.03 2.05358e-20)
(1356.09 621.09 2.08456e-20)
(1416.37 -618.732 0)
(1255.92 -891.838 4.16577e-20)
(1288.11 -730.873 0)
(1153.06 -823.507 -1.7038e-16)
(1239.92 -684.674 3.464e-16)
(1220.33 -640.394 -2.28963e-16)
(1429.32 -325.438 0)
(1550.57 -131.99 -1.4624e-19)
(1511.9 -50.1054 0)
(1520.06 -8.84064 0)
(1511.24 -1.85047 -2.67899e-17)
(1516.68 5.18669 2.73799e-17)
(1510.75 -0.0685219 2.7308e-17)
(1512.43 0.189864 -2.72599e-17)
(1510.07 3.79606 0)
(1515.77 8.73361 -1.08568e-16)
(1509.51 44.1225 1.06936e-16)
(1543.52 122.701 1.12088e-16)
(1438.69 307.843 -9.96049e-17)
(1198.01 644.188 0)
(1221.24 703.258 0)
(1130.08 823.018 -1.69524e-19)
(1291.61 714.414 -1.71455e-16)
(1249.89 883.061 3.76788e-16)
(1402.7 616.592 -1.72452e-16)
(1486.65 -613.834 -1.74159e-16)
(1371.12 -808.459 1.88073e-16)
(1341.67 -657.516 0)
(1182.95 -663.938 -2.34406e-16)
(1189.48 -537.718 -4.16779e-17)
(925.181 -415.032 3.49799e-16)
(699.603 -181.414 -2.54152e-16)
(536.402 -108.55 1.34988e-16)
(363.907 -33.2402 0)
(352.255 -35.4345 0)
(324.898 -16.2904 -4.34189e-20)
(337.161 -11.3506 1.67576e-19)
(322.624 5.37969 0)
(328.04 11.3886 0)
(324.355 18.1846 6.7302e-17)
(345.558 37.8406 -6.75508e-17)
(361.879 30.9034 -1.34789e-16)
(512.999 115.643 2.73019e-16)
(702.562 174.071 -4.04044e-18)
(887.014 405.755 -1.29628e-16)
(1172.28 544.731 0)
(1164.18 667.659 0)
(1334.1 646.498 -1.85373e-16)
(1333.59 833.933 2.0917e-16)
(1468.68 621.027 -4.57721e-20)
(1593.61 -560.583 1.6613e-16)
(1486.73 -657.701 -9.81735e-20)
(1472.13 -493.159 1.07626e-16)
(1347.61 -411.34 -9.6293e-17)
(1275.47 -291.932 -5.05169e-20)
(1010.64 -210.253 1.18463e-19)
(762.68 -128.305 1.27518e-16)
(615.297 -131.534 -1.98945e-16)
(479.746 -65.4073 6.75623e-17)
(469.088 -62.4786 0)
(450.415 -33.6061 -3.31589e-17)
(459.015 -21.6976 3.32496e-17)
(449.43 -1.57055 0)
(452.726 15.2063 5.99141e-20)
(450.151 30.426 -3.33179e-17)
(464.683 62.0891 3.31367e-17)
(476.062 65.2657 0)
(592.348 145.461 -1.33316e-16)
(763.328 140.373 1.28239e-16)
(963.043 203.379 1.14742e-16)
(1251.03 299.17 -2.15088e-16)
(1319.8 419.896 1.1832e-16)
(1455.83 502.465 0)
(1469.78 697.93 1.78028e-16)
(1589 580.728 -8.02546e-18)
(1734.78 -424.497 -6.1335e-18)
(1651.99 -293.825 9.3332e-17)
(1495.19 -216.51 -4.27776e-17)
(1343.9 -83.2507 -5.75899e-17)
(1328.74 -129.951 7.85041e-17)
(1139 -166.248 -5.73534e-17)
(968.444 -167.613 6.22682e-17)
(855.514 -184.837 -6.40339e-17)
(767.965 -139.462 2.20087e-20)
(731.921 -103.539 3.23236e-17)
(719.99 -56.5782 1.60653e-17)
(718.58 -28.8509 -7.42941e-20)
(716.929 5.68959 -1.61502e-17)
(716.898 35.5615 -6.15546e-20)
(722.655 68.3752 -7.66289e-20)
(740.476 113.466 -2.01428e-18)
(786.614 143.889 -3.49591e-21)
(876.911 188.038 5.96048e-18)
(1013.25 162.347 -3.84786e-18)
(1146.91 155.533 0)
(1317.08 119.841 1.27434e-17)
(1333.01 81.6453 -3.88151e-17)
(1499.48 248.018 4.78568e-17)
(1664.53 341.644 -6.53012e-17)
(1735.67 448.854 6.24949e-17)
(1843.92 -338.52 -9.77219e-20)
(1795.87 -23.6601 -1.31698e-19)
(1636.41 94.5147 1.63936e-19)
(1505.85 0.585881 -6.9903e-21)
(1482.46 -66.0687 -1.68706e-19)
(1380.05 -115.41 -1.95289e-19)
(1213.29 -136.05 -8.03368e-21)
(1071.76 -155.414 0)
(949.136 -110.911 0)
(886.042 -83.4922 6.46625e-17)
(854.246 -51.4529 -6.42578e-17)
(845.607 -29.171 -8.29194e-21)
(838.639 0.78952 8.27873e-21)
(843.546 28.3528 -8.29021e-18)
(854.7 53.5334 8.08274e-18)
(886.859 84.7946 0)
(947.283 106.939 0)
(1065.84 158.633 -6.14186e-17)
(1218.05 144.139 5.96328e-17)
(1358.14 127.213 -1.86517e-19)
(1459.68 89.3525 0)
(1479.22 12.4085 0)
(1643.27 -92.7628 -1.67098e-19)
(1800.65 16.2145 -1.35621e-19)
(1843.24 366.957 1.44906e-16)
(1817.26 107.55 -1.61645e-16)
(1787.81 334.039 -2.49005e-16)
(1654.26 378.401 1.32285e-16)
(1631.35 241.923 0)
(1620.22 64.9794 2.21553e-19)
(1556.68 -13.5412 1.06743e-16)
(1411.86 -40.6486 -2.17282e-16)
(1261.46 -74.1105 1.14491e-16)
(1115.18 -63.7971 -1.27139e-16)
(1017.19 -50.3217 1.25964e-16)
(971.399 -33.2366 3.20937e-17)
(952.288 -19.8447 -3.99455e-17)
(945.266 1.48905 -8.03939e-18)
(949.193 19.3339 1.62723e-17)
(969.139 36.1148 0)
(1012.92 52.3826 0)
(1108.89 65.1903 1.22856e-16)
(1259.73 83.4885 -2.38892e-16)
(1414.33 54.0171 1.14745e-16)
(1540.6 31.3438 2.26888e-19)
(1611.47 -49.4457 1.90976e-16)
(1626.01 -239.278 -2.02232e-17)
(1667.31 -378.427 -4.60813e-16)
(1785.43 -358.786 6.14565e-16)
(1813.81 -136.753 -2.68327e-16)
(1442.59 484.143 1.27935e-19)
(1460.34 926.945 -2.03026e-16)
(1707.59 605.284 1.24979e-16)
(1717.89 402.118 0)
(1706.75 215.787 0)
(1653.03 124.26 0)
(1527.62 84.0548 0)
(1390.98 22.8443 0)
(1249.38 2.72673 -5.47883e-17)
(1144.03 -11.5416 1.10764e-16)
(1081.4 -8.39018 -8.38587e-17)
(1058.98 -6.14502 3.14218e-17)
(1048.35 3.08314 -3.52345e-18)
(1056.29 10.0528 1.33874e-20)
(1080.12 14.1894 -5.57362e-17)
(1143.09 18.0033 5.64847e-17)
(1254.54 3.80873 0)
(1399.81 -14.9203 0)
(1535.05 -74.2466 -1.72837e-16)
(1643 -115.471 1.88269e-16)
(1704.69 -209.526 -1.68676e-19)
(1718.22 -406.359 6.94358e-20)
(1709.71 -626.903 -9.71373e-20)
(1440.9 -965.738 -7.6274e-20)
(1372.58 -489.465 0)
(1099.66 791.669 -1.88057e-16)
(1528.8 1009.57 1.23896e-16)
(1767.38 758.775 -1.32885e-19)
(1762.79 563.294 1.49508e-16)
(1759.57 357.316 -1.29406e-16)
(1708.82 253.953 0)
(1605.5 195.736 -8.36709e-17)
(1487.06 114.409 8.21691e-17)
(1354.66 65.3193 -4.758e-17)
(1246.3 34.0345 9.6437e-17)
(1184.21 18.742 -4.81214e-17)
(1156.2 7.3983 1.80386e-19)
(1148.24 3.79781 0)
(1154.87 -3.28349 2.45044e-17)
(1186.3 -11.7601 2.35894e-17)
(1252.74 -29.019 -4.88445e-17)
(1365.87 -63.3457 -8.98924e-17)
(1499.86 -114.194 8.98643e-17)
(1610.22 -196.352 -7.32346e-17)
(1697.93 -251.115 8.13082e-17)
(1761.64 -360.826 7.88859e-20)
(1758.46 -587.058 -7.71133e-20)
(1767.27 -783.974 0)
(1510.34 -1036.84 6.46309e-20)
(1062.53 -791.738 0)
(1090.58 741.848 1.49908e-16)
(1590.59 947.082 -1.33699e-16)
(1788.39 830.797 5.02103e-20)
(1778.05 701.765 0)
(1782.27 507.242 0)
(1734.4 393.742 -7.45166e-21)
(1658.33 297.812 0)
(1561.39 197.72 7.96802e-20)
(1445.46 132.53 0)
(1344.69 76.3576 4.29205e-17)
(1276.84 46.7753 -6.41023e-17)
(1251.2 21.4845 3.20611e-17)
(1240.27 3.8899 -1.07735e-17)
(1250.53 -15.7555 0)
(1279.43 -39.8999 0)
(1349.2 -69.6591 4.10798e-17)
(1456.72 -126.906 -1.19175e-16)
(1571.95 -195.005 7.80531e-17)
(1661.18 -296.495 -6.40104e-17)
(1719.73 -399.764 7.06917e-17)
(1784.11 -509.384 0)
(1779.06 -705.78 0)
(1791.82 -851.523 0)
(1600.37 -941.014 -7.22099e-21)
(1061.19 -722.221 -1.69386e-16)
(1217.98 632.278 -2.83276e-20)
(1677.97 837.489 1.08466e-16)
(1770.9 865.163 -9.83921e-17)
(1790.16 762.987 0)
(1788.36 615.109 0)
(1759.35 493.366 7.68914e-21)
(1700.13 371.89 6.52933e-17)
(1614.76 264.219 -6.34094e-17)
(1512.14 185.844 3.2983e-20)
(1420.8 119.476 3.44589e-20)
(1361.89 72.7725 3.50562e-20)
(1333.19 34.5989 -1.01435e-20)
(1325.83 3.98116 -1.01437e-20)
(1332.66 -29.5294 1.90944e-17)
(1364.06 -64.4138 -1.9388e-17)
(1427.06 -112.737 4.43408e-20)
(1522.37 -181.31 4.25179e-20)
(1625.66 -262.547 0)
(1705.46 -369.272 -5.72572e-17)
(1747.21 -497.286 6.30101e-17)
(1788.8 -620.142 0)
(1791.67 -764.372 -9.86346e-17)
(1772.02 -878.577 1.02569e-16)
(1685.66 -849.796 6.55638e-21)
(1239.87 -639.509 -1.53245e-16)
(1325.55 558.48 3.46416e-20)
(1715.57 779.058 0)
(1762.96 862.258 0)
(1790.12 806.581 -5.36067e-17)
(1794.73 687.531 4.73021e-17)
(1780.78 567.719 0)
(1733.83 434.664 6.00156e-17)
(1660.17 320.686 -5.81795e-17)
(1572.75 231.104 3.40178e-17)
(1493.17 149.19 -3.3745e-17)
(1434.36 96.0029 1.77752e-17)
(1412.09 45.8886 -1.75797e-17)
(1402.58 2.80647 0)
(1412.27 -42.0247 -1.74639e-17)
(1438.02 -92.4337 1.78246e-17)
(1500.31 -146.905 -3.6284e-20)
(1587.12 -229.193 -3.47531e-20)
(1673.11 -325.992 5.6081e-20)
(1740.79 -440.1 5.24246e-17)
(1769.16 -577.467 -5.75763e-17)
(1786.37 -698.767 -4.81182e-20)
(1787.07 -811.351 -4.75112e-20)
(1765.86 -873.929 0)
(1719.98 -773.555 -5.25304e-20)
(1307.01 -548.122 3.50375e-20)
(1357.93 478.055 1.28653e-22)
(1726.67 719.12 0)
(1760.78 849.316 8.55912e-23)
(1795.63 820.659 4.39074e-20)
(1799.77 734.718 -8.76706e-23)
(1802.9 616.379 -5.25048e-17)
(1761.97 482.247 4.85583e-17)
(1698.09 368.993 0)
(1622.41 270.245 -6.36737e-20)
(1551.09 183.794 -1.13061e-22)
(1503.09 117.374 -1.14866e-22)
(1479.79 56.2848 6.80275e-20)
(1473.83 2.77608 0)
(1479.64 -52.8269 0)
(1506.06 -112.401 -1.14438e-22)
(1558.01 -181.849 -1.12519e-22)
(1633.49 -268.955 -2.89926e-17)
(1709.47 -373.423 8.23188e-17)
(1769.03 -483.816 -5.49862e-17)
(1793.62 -619.772 0)
(1795.14 -740.136 -4.46589e-17)
(1790.66 -822.203 4.67071e-17)
(1763.48 -861.282 8.48899e-23)
(1735.3 -732.061 4.67027e-20)
(1372.03 -476.537 1.27912e-22)
(1398.51 439.329 5.21138e-18)
(1718.92 700.289 9.64567e-18)
(1759.38 824.925 9.25633e-17)
(1801.4 815.033 -4.25784e-17)
(1812.24 751.137 4.31525e-17)
(1820.83 646.601 -4.82338e-17)
(1783.75 520.645 4.52661e-17)
(1731.87 405.223 -2.71702e-17)
(1668.99 300.384 2.68338e-17)
(1608.36 204.188 1.18769e-22)
(1561.22 133.434 1.21034e-22)
(1545.59 64.7774 -1.21414e-22)
(1537.48 2.98587 7.36354e-18)
(1545.8 -61.2306 7.21908e-18)
(1565.37 -130.99 -1.50032e-17)
(1613.78 -203.298 1.18708e-22)
(1682.17 -297.941 5.35409e-17)
(1744.44 -410.816 -1.03702e-16)
(1793.22 -524.238 5.08728e-17)
(1814.31 -648.302 0)
(1805.09 -755.281 -8.75216e-23)
(1794.43 -817.14 8.02869e-23)
(1763.01 -832.743 -8.18002e-23)
(1721.84 -705.57 -1.00166e-16)
(1396.96 -435.844 1.19052e-16)
(1389.21 450.804 1.12335e-19)
(1701.64 669.874 0)
(1773.15 775.734 0)
(1805.34 799.085 4.04253e-20)
(1824.22 748.886 8.23157e-20)
(1840.02 654.973 0)
(1805.12 537.014 4.74713e-17)
(1761.56 427.59 -4.67139e-17)
(1706.77 320.727 4.80256e-20)
(1652.48 225.171 -4.96568e-20)
(1617.25 145.175 -1.37998e-17)
(1600.28 67.9239 1.37106e-17)
(1596.37 -0.490285 3.53681e-18)
(1600.77 -72.2581 -3.46024e-18)
(1621.57 -148.031 1.34264e-17)
(1660.45 -232.379 -3.97794e-17)
(1718.43 -328.969 2.66403e-17)
(1773.29 -442.118 -5.07341e-20)
(1813.63 -549.852 4.18188e-20)
(1832.95 -666.4 -4.13098e-17)
(1819.46 -755.669 1.09826e-18)
(1797.83 -802.271 -1.55575e-18)
(1777.6 -779.999 4.11125e-17)
(1706.76 -674.502 4.6918e-20)
(1389.72 -451.775 5.5269e-20)
(1359 452.662 1.09189e-16)
(1711.59 635.817 -9.28286e-17)
(1796.37 723.34 0)
(1814.83 774.067 -3.96143e-17)
(1839.4 735.733 1.28914e-19)
(1853.47 661.916 3.97297e-17)
(1822.12 561.533 4.43025e-17)
(1790.26 452.164 -4.39044e-17)
(1745.89 343.144 -5.02225e-20)
(1701.44 240.815 -2.53944e-17)
(1665.67 157.802 1.21648e-17)
(1655.26 76.7779 1.2572e-17)
(1648.43 2.68255 -5.33017e-20)
(1655.51 -74.4315 0)
(1668.48 -155.874 0)
(1704.54 -240.032 0)
(1756.62 -339.402 5.00626e-20)
(1801.31 -456.288 1.0551e-20)
(1832.67 -563.564 -5.3242e-20)
(1848.84 -662.291 0)
(1832.88 -738.173 3.93251e-20)
(1809.42 -773.701 9.66224e-21)
(1796.53 -727.063 -4.9974e-20)
(1726.44 -645.554 -9.18356e-17)
(1379.65 -457.385 1.07803e-16)
(1347.79 433.783 5.21805e-17)
(1729.38 568.854 -8.62641e-17)
(1817.25 658.152 8.3483e-17)
(1829.09 737.721 -4.08335e-17)
(1852.89 717.712 -3.79699e-17)
(1868.01 648.846 3.80724e-17)
(1839.11 556.615 2.07507e-17)
(1814.5 456.445 -2.09325e-17)
(1775.88 351.213 1.15685e-17)
(1736.17 252.954 -2.3218e-17)
(1711.71 165.593 1.75221e-17)
(1699.45 78.4503 -7.39772e-18)
(1697.15 -0.106275 1.48067e-18)
(1700.28 -81.6132 -4.39117e-20)
(1715.5 -166.561 2.31176e-17)
(1742.35 -259.446 -2.37437e-17)
(1785.41 -356.852 4.20304e-20)
(1826.19 -466.719 4.17856e-17)
(1850.52 -565.756 -2.13029e-18)
(1864.81 -657.016 -3.9128e-17)
(1848.89 -721.658 0)
(1820.25 -741.686 4.1498e-17)
(1814.38 -668.324 -3.75972e-17)
(1732.37 -584.01 -9.30069e-17)
(1364.84 -437.217 -4.91417e-18)
(1382.69 404.909 -5.1533e-17)
(1752.56 498.733 4.58489e-17)
(1838.51 609.885 1.92378e-20)
(1842.09 699.817 -5.50001e-20)
(1873.2 692.669 1.87953e-20)
(1877.8 635.56 3.72472e-17)
(1853.61 556.132 -1.8499e-17)
(1838.32 459.528 -2.00187e-17)
(1807.5 355.973 4.40538e-20)
(1776.82 255.086 -4.52885e-20)
(1750.82 166.576 2.05635e-20)
(1745.57 78.9684 -2.05369e-20)
(1739.9 -2.49243 0)
(1745.9 -86.7292 4.97997e-21)
(1754 -173.506 -1.08708e-17)
(1780.19 -263.69 1.11307e-17)
(1817.86 -362.228 -2.07906e-17)
(1848.81 -473.09 9.22391e-19)
(1865.99 -566.449 1.95453e-17)
(1877.35 -641.438 -5.43223e-20)
(1865.98 -698.609 -3.74978e-17)
(1838.81 -695.306 3.57306e-17)
(1836.54 -597.454 0)
(1756.74 -513.096 -4.57551e-17)
(1370.3 -412.395 5.06345e-17)
(1396.9 364.547 0)
(1768.59 423.41 -3.77227e-17)
(1848.99 530.465 4.36051e-17)
(1857.83 645.476 1.7801e-20)
(1886.3 670.36 1.73986e-20)
(1892.29 618.637 -3.55832e-17)
(1870.66 543.152 3.73042e-17)
(1859.48 456.179 1.995e-17)
(1832.75 359.046 6.58476e-19)
(1805.06 264.576 -2.04429e-17)
(1789.73 175.689 -2.1609e-20)
(1781.51 84.1007 2.42508e-20)
(1780.17 0.309621 0)
(1781.31 -86.3537 4.35556e-20)
(1792.47 -175.098 -2.15293e-20)
(1809.27 -269.507 1.01431e-17)
(1839.47 -361.18 -1.03221e-17)
(1869.66 -461.742 -2.00131e-20)
(1883.43 -550.254 -2.09002e-20)
(1893.42 -625.228 1.77715e-20)
(1878.4 -674.552 -3.68679e-17)
(1851.65 -652.705 -5.49054e-18)
(1848.56 -538.39 3.46811e-17)
(1774.56 -429.653 0)
(1411.45 -377.494 5.30047e-17)
(1423.19 341.736 -9.95548e-17)
(1783.81 365.016 4.28075e-17)
(1857.28 470.913 3.3493e-17)
(1875.11 602.863 -3.97482e-17)
(1900.1 633.021 0)
(1903.54 596.998 -2.1545e-21)
(1883.45 533.859 0)
(1880.23 451.693 -2.38131e-21)
(1858.94 355.292 -2.46261e-21)
(1839.54 260.401 0)
(1821.19 171.857 0)
(1820.09 82.4126 -2.55035e-21)
(1815.12 -1.71685 0)
(1819.89 -89.5587 0)
(1823.89 -177.75 -9.77015e-18)
(1841.96 -267.434 9.87666e-18)
(1867.1 -359.764 -2.45247e-21)
(1889.11 -461.36 -1.85951e-17)
(1896.3 -542.525 1.80064e-17)
(1908.5 -600.835 0)
(1894.73 -638.065 3.64433e-17)
(1870.31 -599.454 -7.30155e-17)
(1855.81 -463.999 7.56218e-17)
(1792.15 -373.197 6.19531e-18)
(1427.45 -343.993 -4.90171e-17)
(1452.77 308.815 1.19497e-20)
(1798.82 314.164 -9.72802e-21)
(1845.25 411.214 0)
(1887.23 525.227 0)
(1909.99 595.918 0)
(1917.78 574.177 8.005e-21)
(1900.68 509.836 0)
(1899.99 433.563 -8.54557e-21)
(1879.58 345.425 0)
(1860.89 258.563 -8.78555e-21)
(1853.43 173.214 0)
(1848.66 82.0884 -2.3648e-18)
(1848.39 -2.57007 2.34181e-18)
(1848.21 -91.0703 0)
(1855.89 -179.313 9.26219e-18)
(1864.8 -269.492 -1.8653e-17)
(1884.74 -352.846 9.2897e-18)
(1909.01 -442.735 0)
(1912.69 -523.585 1.75272e-17)
(1923.36 -583.727 -1.64435e-17)
(1905.26 -600.112 3.61812e-17)
(1883.01 -536.24 -3.21276e-17)
(1850.64 -402.634 0)
(1802.55 -305.35 0)
(1449.2 -311.743 0)
(1457.81 290.468 -1.19558e-20)
(1798.97 289.156 9.61483e-21)
(1844.1 338.727 0)
(1905.72 451.069 0)
(1920.85 542.749 0)
(1929.34 545.528 -8.09718e-21)
(1913.77 498.862 0)
(1918.16 428.559 8.82406e-21)
(1902.35 341.15 0)
(1891.58 254.135 -8.95558e-18)
(1878.88 169.646 8.97445e-18)
(1881 82.4314 -8.40364e-21)
(1876.77 -0.536009 9.24899e-21)
(1880.59 -87.9407 8.39054e-21)
(1880.7 -173.645 0)
(1892.62 -258.369 0)
(1907.52 -343.622 8.96422e-21)
(1924.89 -433.639 -1.75216e-17)
(1925.93 -504.574 1.68278e-17)
(1936.91 -550.477 0)
(1915.77 -550.131 7.98723e-21)
(1899 -464.818 0)
(1832 -334.995 0)
(1811.6 -279.195 0)
(1474.24 -283.385 0)
(1480.16 270.798 -4.55087e-17)
(1808.72 264.778 3.9328e-17)
(1855.03 287.075 0)
(1912.04 353.692 -1.71078e-20)
(1928.41 489.002 0)
(1940.5 514.54 -1.53166e-17)
(1931.52 470.968 3.32491e-17)
(1936.79 406.089 -1.70594e-17)
(1920.06 325.643 -8.55522e-18)
(1906.89 247.573 8.60739e-18)
(1905.63 168.299 4.38269e-21)
(1903.05 80.3773 1.11988e-18)
(1903.89 -2.09806 -1.07468e-18)
(1902.9 -88.9001 8.55295e-18)
(1907.56 -173.583 -8.58392e-18)
(1910.09 -256.822 0)
(1923.41 -331.976 -1.61434e-20)
(1943.79 -413.109 0)
(1942.28 -484.235 0)
(1945.98 -523.887 -1.71436e-17)
(1925.56 -494.929 1.50896e-17)
(1905.59 -356.495 0)
(1842.23 -277.565 3.74167e-17)
(1812.89 -256.066 1.56449e-18)
(1489.89 -263.835 -9.312e-17)
(1502.67 257.665 4.55843e-17)
(1818.46 247.305 1.85151e-20)
(1864.55 228.006 3.19987e-17)
(1911.62 292.902 -2.37601e-17)
(1934.79 430.052 -1.84481e-17)
(1947.49 467.832 0)
(1942.44 450.168 8.3753e-21)
(1952.92 395.756 1.62319e-17)
(1939.15 317.037 -1.65725e-17)
(1934.26 237.404 0)
(1925.85 158.115 0)
(1930.25 75.9894 -2.58243e-20)
(1926.72 -3.80998 3.22564e-20)
(1930.06 -87.3932 1.6792e-20)
(1926.96 -167.246 4.14322e-18)
(1934.87 -245.941 -4.10289e-18)
(1943.6 -324.551 8.80425e-21)
(1958.1 -403.47 1.65907e-17)
(1954.37 -458.533 -3.26083e-17)
(1957.08 -473.726 1.48777e-17)
(1935.33 -432.599 -1.55687e-20)
(1902.99 -287.514 0)
(1850.96 -222.344 1.76841e-20)
(1823.19 -246.566 3.81893e-17)
(1508.5 -252.825 -9.02607e-17)
(1517.21 237.737 -4.4629e-17)
(1832.92 229.893 -3.65168e-17)
(1870.86 199.302 3.54961e-17)
(1891.22 199.067 1.4832e-17)
(1938.6 351.15 -1.92357e-17)
(1952.83 423.357 0)
(1957.93 417.75 4.0443e-21)
(1969.91 371.064 -1.1821e-20)
(1955.71 301.145 7.93999e-18)
(1946.1 231.821 -1.60638e-17)
(1948.38 158.958 7.99839e-18)
(1947.57 76.3852 1.99427e-18)
(1948.95 -1.62466 -1.86487e-18)
(1946.93 -83.1846 1.85793e-18)
(1949.48 -162.057 -1.99473e-18)
(1948.06 -238.632 0)
(1957.16 -305.922 1.18515e-20)
(1974.8 -376.346 -3.79567e-21)
(1966.75 -430.922 -1.68632e-17)
(1956.33 -433.514 1.4627e-17)
(1940.48 -357.466 0)
(1881.84 -196.933 0)
(1859.14 -192.405 -4.26325e-21)
(1835.69 -229.158 -3.76306e-17)
(1533.22 -232.603 -1.37818e-18)
(1530.03 220.467 -2.09278e-17)
(1841.41 219.082 1.86467e-17)
(1880.05 180.416 4.27109e-21)
(1901.07 144.825 0)
(1943.47 262.055 1.42714e-17)
(1956.45 356.154 -1.74701e-17)
(1964.83 383.586 3.81814e-21)
(1982.25 356.036 3.86143e-21)
(1971.05 291.403 1.47099e-20)
(1970.77 220.675 -1.9107e-18)
(1965.01 146.785 9.79758e-19)
(1970.87 70.9454 1.88863e-18)
(1967.42 -3.35518 -9.67634e-19)
(1969.9 -81.2822 3.85916e-18)
(1965.43 -154.819 -3.85792e-18)
(1971.03 -228.04 0)
(1974.41 -298.904 1.07773e-20)
(1985.32 -362.8 -1.61423e-17)
(1974.92 -390.712 1.48271e-17)
(1963.25 -362.504 3.76734e-21)
(1940.51 -261.904 0)
(1888.24 -135.052 0)
(1868.51 -178.98 4.30434e-21)
(1845.52 -224.531 -3.70039e-17)
(1539.73 -217.396 4.22441e-17)
(1555.67 195.235 2.10022e-20)
(1855.78 197.631 0)
(1897.54 161.287 -8.00072e-21)
(1903.74 73.628 -1.49612e-17)
(1928.09 188.736 1.8335e-17)
(1958.03 308.581 -1.41484e-17)
(1970.01 338.001 1.68213e-17)
(1995.13 321.332 -7.39072e-18)
(1984.55 268.99 7.71524e-18)
(1979.04 209.813 -3.74443e-18)
(1983.82 143.825 3.76114e-18)
(1984.16 68.178 -1.83819e-18)
(1985.62 -3.50671 2.09705e-18)
(1983 -79.102 -2.48752e-19)
(1984.54 -151.78 3.75289e-18)
(1980.78 -220.566 -7.51507e-18)
(1985.85 -277.535 -4.02296e-18)
(1998.48 -330.136 7.369e-18)
(1977.79 -350.461 1.49498e-20)
(1963.47 -310.748 -7.68672e-21)
(1925.74 -179.936 0)
(1893.6 -68.6346 0)
(1889.6 -162.414 0)
(1853.84 -204.156 -1.8241e-17)
(1557.03 -193.956 2.05082e-17)
(1562.8 177.702 -2.52892e-21)
(1862.11 178.195 0)
(1914.35 153.538 1.02074e-20)
(1912.3 55.8804 -8.05409e-21)
(1904.71 106.037 -7.56263e-21)
(1955.83 201.648 0)
(1971.07 287.421 -7.49222e-21)
(2000.94 298.385 7.14497e-18)
(1995.83 257.72 -7.64383e-18)
(2001.19 200.037 0)
(1997.56 133.738 1.73521e-21)
(2003.94 65.1688 0)
(2000.79 -2.09301 0)
(2002.99 -73.5824 1.81631e-18)
(1997.47 -140.323 -1.82234e-18)
(2001.22 -206.084 -7.26994e-21)
(1997.85 -264.528 -1.7607e-21)
(2002.13 -302.833 7.31455e-21)
(1979.31 -292.836 -8.53721e-18)
(1962.46 -218.438 7.0764e-18)