/*--------------------------------*- C++ -*----------------------------------*\
| =========                 |                                                 |
| \\      /  F ield         | OpenFOAM: The Open Source CFD Toolbox           |
|  \\    /   O peration     | Version:  2112                                  |
|   \\  /    A nd           | Website:  www.openfoam.com                      |
|    \\/     M anipulation  |                                                 |
\*---------------------------------------------------------------------------*/
FoamFile
{
    version     2.0;
    format      ascii;
    arch        "LSB;label=32;scalar=64";
    class       volVectorField;
    location    "0.00786";
    object      U;
}
// * * * * * * * * * * * * * * * * * * * * * * * * * * * * * * * * * * * * * //

dimensions      [0 1 -1 0 0 0 0];

internalField   nonuniform List<vector> 
13875
(
(2204.17 109.693 1.81271e-18)
(2142.47 5.62423 -9.38745e-19)
(2170.26 -2.16756 -9.41097e-19)
(2167.92 -0.737649 0)
(2170.36 0.173379 0)
(2169.57 -1.29394 9.36598e-19)
(2169.3 -1.1468 -9.3705e-19)
(2169.77 -0.0961634 -4.68503e-19)
(2169.22 -0.136771 4.68313e-19)
(2169.44 -0.135861 0)
(2169.59 0.36059 -3.88137e-22)
(2169.42 1.10324 -3.88114e-22)
(2169.58 0.938907 0)
(2169.4 -0.012166 -4.68225e-19)
(2169.45 -0.920385 4.68592e-19)
(2169.6 -1.29143 0)
(2169.87 -0.267714 9.37053e-19)
(2169.23 0.348253 -9.37797e-19)
(2169.14 0.946301 3.87942e-22)
(2169.81 1.18773 -3.85759e-22)
(2170.45 -0.165033 -9.36284e-19)
(2167.85 0.290812 9.37157e-19)
(2171.1 2.4835 -1.87785e-18)
(2143.68 -8.69842 1.91642e-18)
(2210.49 -106.794 1.76315e-18)
(2253.4 91.9373 -1.63245e-18)
(2228.46 -1.16214 1.88337e-18)
(2247.4 0.647452 8.71781e-19)
(2245.53 0.89355 -8.67138e-19)
(2248.53 -0.698182 4.16919e-22)
(2247.79 1.94864 5.2019e-22)
(2245.87 1.36788 4.16047e-22)
(2245.53 0.0421778 -4.35759e-19)
(2245.1 0.241414 4.36019e-19)
(2245.17 0.254093 2.17548e-19)
(2245.4 -0.329307 -1.62961e-19)
(2245.4 -1.35995 -5.31435e-20)
(2247.66 -1.18048 0)
(2247.85 0.0526075 -4.3499e-19)
(2247.56 1.03188 4.3346e-19)
(2245.59 1.43124 4.3603e-19)
(2245.51 0.505038 -4.35306e-19)
(2245.2 -0.241618 5.18486e-22)
(2245.69 -1.56812 -5.18691e-22)
(2247.84 -1.96946 5.1979e-22)
(2248.4 0.747388 -8.71459e-19)
(2245.58 -0.69586 2.59975e-18)
(2247.25 -1.5887 -1.74256e-18)
(2229.04 3.60022 5.42699e-22)
(2256.61 -96.8597 -1.71262e-18)
(2252.4 78.1236 0)
(2236.34 -18.2432 0)
(2249.5 4.40476 0)
(2250.65 -1.88475 0)
(2253.52 -2.58845 -1.63936e-18)
(2253.23 1.64681 1.64228e-18)
(2253.13 2.31543 1.72371e-18)
(2253.09 0.704136 -2.58233e-18)
(2252.87 0.109388 8.61974e-19)
(2253.47 -0.275612 4.30395e-22)
(2253.76 0.0302823 -4.30825e-19)
(2253.09 -2.12033 4.29956e-19)
(2254.08 -2.51338 0)
(2253.99 0.0142481 0)
(2254.04 2.36085 4.08176e-22)
(2253.18 2.00215 0)
(2254.07 0.21898 8.38102e-22)
(2253.12 -0.292677 4.30557e-19)
(2253.1 -2.51125 -4.30673e-19)
(2253.54 -1.75479 0)
(2253.72 2.35542 0)
(2250.91 1.33772 0)
(2250.7 -4.81976 0)
(2238.03 13.8414 0)
(2256.97 -74.7223 0)
(2247.86 51.3559 0)
(2235.05 -28.6865 1.8142e-18)
(2249.29 7.17253 -3.41685e-18)
(2251.61 -4.74739 3.46599e-18)
(2253.3 -3.05716 -1.63475e-18)
(2253.11 1.44527 0)
(2253.5 1.80994 -8.33078e-22)
(2253.89 0.317085 0)
(2254.04 -0.572052 0)
(2254.46 -0.671913 0)
(2254.58 0.210916 0)
(2254.23 -1.82454 -8.44128e-22)
(2254.05 -2.41555 -5.08921e-20)
(2253.96 -0.0107439 5.07085e-20)
(2254 2.27489 0)
(2254.25 1.79932 0)
(2254.74 0.258807 7.99421e-22)
(2254.17 0.389735 -8.56929e-19)
(2253.82 -1.74977 8.56238e-19)
(2253.42 -1.48974 -1.62403e-18)
(2253.56 2.7483 1.62361e-18)
(2251.98 4.33129 1.74097e-18)
(2249.77 -8.87764 -1.72058e-18)
(2235.68 31.3531 0)
(2251.49 -58.4659 0)
(2244.89 39.2781 1.74897e-18)
(2235.45 -47.8811 0)
(2248.76 10.4471 0)
(2250.37 -7.6534 0)
(2253.44 -4.17723 0)
(2253.15 0.982601 1.67844e-21)
(2253.23 1.45417 1.6581e-21)
(2253.85 -0.20788 4.33045e-19)
(2253.98 -0.91809 -4.30348e-19)
(2254.42 -0.85765 2.12891e-19)
(2254.55 0.342268 -2.10592e-19)
(2254.25 -1.34729 0)
(2254.06 -2.18096 0)
(2253.89 -0.0200511 -1.65679e-21)
(2254.05 2.07716 0)
(2254.3 1.34813 -1.68505e-21)
(2254.71 0.267709 8.07291e-19)
(2254.01 0.721108 -8.50369e-19)
(2253.5 -1.2349 1.71571e-18)
(2253.54 -0.83891 -1.69132e-18)
(2253.61 3.75977 1.6534e-21)
(2250.68 6.45513 0)
(2250.04 -11.5405 0)
(2237.24 42.9061 0)
(2250.58 -35.194 0)
(2241.51 6.74837 0)
(2231.55 -63.6251 9.12418e-19)
(2247.22 12.252 -8.47625e-19)
(2250.88 -11.1423 0)
(2252.48 -4.82038 8.59504e-19)
(2252.71 0.449046 -4.36743e-19)
(2253.37 0.788652 -2.72063e-21)
(2253.85 -0.729529 -2.18422e-19)
(2254.07 -1.51285 -4.33964e-19)
(2254.36 -1.27281 1.6316e-19)
(2254.49 0.412803 1.66358e-21)
(2254.18 -1.04833 2.68544e-19)
(2253.94 -1.99202 -2.15448e-19)
(2253.77 -0.0963958 3.36127e-21)
(2253.88 1.888 -4.27329e-19)
(2254.21 1.14869 4.3329e-19)
(2254.64 0.325403 1.6369e-21)
(2254.11 1.32717 -1.68342e-21)
(2253.73 -0.354944 -1.67962e-21)
(2252.96 -0.369199 -8.59423e-19)
(2252.77 4.13187 8.4611e-19)
(2251.44 10.6723 0)
(2247.39 -15.1847 0)
(2232.45 65.4699 -1.93361e-18)
(2246.24 -18.8517 -1.26539e-19)
(2254.04 2.89349 -4.95241e-20)
(2227.51 -79.3568 6.02411e-20)
(2243.07 12.224 0)
(2248.52 -15.5747 -2.69167e-23)
(2252.07 -6.57472 -2.62308e-23)
(2252.45 -0.558801 0)
(2252.79 0.18746 0)
(2253.66 -1.44637 -8.63858e-19)
(2253.98 -1.78522 8.63539e-19)
(2254.14 -1.31124 0)
(2254.3 0.572541 1.68988e-18)
(2254.09 -0.517369 4.65047e-21)
(2253.86 -1.54246 -1.72257e-18)
(2253.62 -0.0868791 -1.71281e-21)
(2253.86 1.45474 0)
(2254.18 0.685517 3.44603e-18)
(2254.42 0.373963 1.75606e-21)
(2253.75 1.70177 -6.90578e-18)
(2253.09 0.29101 3.45087e-18)
(2252.83 0.941867 2.64277e-23)
(2252.28 6.09921 0)
(2248.52 12.9542 3.52715e-18)
(2244.19 -12.5286 -3.30858e-18)
(2228.9 72.9367 3.81518e-18)
(2247.3 2.85482 -3.18041e-18)
(2218.38 -22.8514 -3.16933e-19)
(2214.72 -87.4864 -7.49612e-18)
(2235.67 3.49547 8.70649e-22)
(2246.08 -22.3155 2.61169e-23)
(2248.74 -8.72067 -8.08366e-22)
(2251.06 -2.05946 0)
(2252.61 -1.20282 -3.42363e-18)
(2253.36 -2.3251 3.45962e-18)
(2253.79 -2.3611 0)
(2253.81 -1.64869 -8.32743e-22)
(2254 0.458648 -8.23429e-22)
(2253.84 -0.227131 0)
(2253.54 -1.30139 0)
(2253.32 -0.0942329 -1.66148e-21)
(2253.47 1.272 -8.38501e-22)
(2253.93 0.531583 2.60055e-23)
(2254.13 0.685969 -8.56417e-22)
(2253.52 2.44486 -2.62888e-23)
(2252.91 1.74099 -1.73226e-18)
(2251.42 2.39583 -1.62505e-20)
(2249.26 8.05129 1.68892e-18)
(2246.4 19.3832 8.85454e-22)
(2236.72 -4.80375 3.45891e-18)
(2216.56 81.4722 -3.5372e-18)
(2222.35 18.1374 2.50279e-23)
(2113.29 -37.8709 9.42603e-19)
(2168.65 -98.6186 0)
(2217.13 -20.2123 -8.31482e-22)
(2235.02 -32.2527 -8.65539e-19)
(2245.74 -17.3329 1.70881e-18)
(2248.86 -6.03112 -1.72481e-18)
(2250.92 -2.97321 8.98467e-21)
(2252.58 -3.30646 8.60981e-19)
(2253.04 -2.63034 0)
(2253.08 -1.61739 -8.47268e-19)
(2253.29 0.595536 8.45869e-19)
(2253.36 0.466423 0)
(2253.02 -0.705846 0)
(2252.71 -0.180004 2.10499e-21)
(2252.97 0.568477 8.34307e-22)
(2253.31 0.0486247 8.42092e-19)
(2253.33 0.903671 -8.4461e-19)
(2252.53 3.24654 0)
(2251.25 3.36447 8.6071e-19)
(2249.47 6.02884 -1.72887e-18)
(2246.23 15.1424 8.45043e-19)
(2236.19 28.8655 -8.40881e-22)
(2219.05 16.6603 0)
(2171.39 93.9133 0)
(2117.11 35.3313 0)
(1873.59 -142.234 -6.57036e-17)
(2125.75 -161.383 8.42467e-17)
(2198.93 -54.8027 0)
(2229.31 -54.0943 -2.99382e-17)
(2239.7 -21.4143 3.06482e-17)
(2246.39 -10.3374 0)
(2249.62 -7.10059 -2.95989e-20)
(2251.16 -5.42863 -1.47723e-17)
(2251.59 -3.47296 1.46877e-17)
(2251.72 -2.10933 -2.93439e-20)
(2252.06 0.0509568 0)
(2252.21 0.544805 -3.70566e-18)
(2251.88 -0.307244 5.58708e-18)
(2251.52 -0.173078 -1.8966e-18)
(2251.72 0.420823 -2.92328e-20)
(2252.03 0.378521 0)
(2251.91 1.77942 0)
(2250.95 5.01491 -2.94866e-17)
(2249.44 7.52281 2.90916e-17)
(2246.69 10.2815 -3.06042e-17)
(2240.48 20.4825 2.91879e-17)
(2229.42 52.965 3.22033e-17)
(2199.89 52.4873 -2.92257e-17)
(2128.75 161.795 -8.33798e-17)
(1884.71 138.333 -1.25788e-17)
(1653.08 -215.585 -9.08408e-17)
(2011.5 -307.67 1.37608e-16)
(2159.68 -104.378 0)
(2211.01 -64.5067 6.81981e-17)
(2232.82 -28.9207 -7.06283e-17)
(2241.9 -14.9754 -3.39591e-17)
(2245.41 -7.99482 3.41149e-17)
(2248.11 -5.38949 -3.35047e-17)
(2248.71 -2.64285 3.34993e-17)
(2249.04 -1.31802 3.2531e-20)
(2249.64 0.482433 0)
(2249.89 1.17507 -2.11462e-18)
(2249.64 0.434211 2.16608e-18)
(2249.19 -0.181252 3.31728e-20)
(2249.29 -0.469955 3.27455e-20)
(2249.42 -0.400866 3.27829e-20)
(2249.17 0.91822 0)
(2248.03 4.57155 0)
(2245.09 7.59339 -6.7708e-17)
(2242.29 15.3334 6.81999e-17)
(2233.71 26.9139 -7.13759e-17)
(2211.58 58.9951 1.47093e-16)
(2166.12 99.4103 -6.9946e-17)
(2016.83 298.554 -3.86819e-20)
(1698 206.003 8.75061e-20)
(1281.58 -592.693 -1.08934e-16)
(1742.22 -591.012 1.18911e-16)
(2047.06 -180.469 2.16731e-16)
(2174.27 -106.146 -9.34506e-17)
(2208.59 -36.3309 0)
(2229.93 -20.6294 7.42698e-17)
(2238.36 -14.1659 -7.55944e-17)
(2241.86 -8.26449 0)
(2242.93 -4.77906 3.55126e-20)
(2243.73 -2.94932 0)
(2244.57 -0.663878 0)
(2244.86 0.842631 0)
(2244.76 0.909073 4.65859e-18)
(2244.29 0.157598 -4.65872e-18)
(2244.24 -0.00322591 -3.72192e-20)
(2244 0.76024 -3.53256e-20)
(2243.39 2.81837 0)
(2241.76 7.26046 0)
(2238.02 13.9696 0)
(2228.59 19.0916 -7.89057e-17)
(2211.59 37.2094 1.56861e-16)
(2176.52 102.568 -7.23076e-17)
(2052.85 161.756 -1.33638e-16)
(1750.19 592.132 1.00494e-16)
(1286.37 543.487 -5.99275e-20)
(1302.02 -610.408 1.60764e-16)
(1113.46 -1086.59 0)
(1704.07 -452.235 0)
(1928.7 -129.876 -1.08185e-16)
(2150.59 -85.101 1.09331e-16)
(2201.31 -43.8659 0)
(2215.93 -14.4432 1.12945e-20)
(2224.37 -6.08619 4.03369e-17)
(2227.88 -2.03707 -4.08699e-17)
(2230.48 -0.91844 0)
(2232.03 0.689576 -1.00862e-17)
(2232.51 1.53536 1.01215e-17)
(2232.64 1.6202 -5.06872e-18)
(2232.2 0.575723 5.08306e-18)
(2231.83 -0.530109 3.86316e-20)
(2230.67 -1.1074 -4.06064e-17)
(2228.23 -0.164713 8.04532e-17)
(2223.8 4.3672 1.04314e-18)
(2214.01 13.3562 -4.04003e-17)
(2198.06 44.794 -9.08778e-17)
(2134.33 72.106 8.43426e-17)
(1912.79 109.539 8.25379e-20)
(1759.3 455.098 2.60508e-20)
(1103.63 1071.3 1.67438e-16)
(1319.74 612.3 7.16876e-18)
(1359.05 -629.366 0)
(1142.83 -1059.38 0)
(1292.85 -751.899 0)
(1195.97 -814.512 0)
(1954.59 -257.072 0)
(2048.26 -61.8916 1.02347e-16)
(2156.9 -46.0545 -1.04241e-16)
(2175.92 -30.2364 1.15051e-19)
(2184.59 -19.1124 -1.03139e-20)
(2191.61 -10.6602 2.2599e-17)
(2194.38 -4.60974 -2.28514e-17)
(2195.34 -0.646946 -2.25567e-19)
(2195.67 1.23838 -7.06612e-19)
(2195.23 2.05648 8.02623e-19)
(2194.45 3.79365 -2.26558e-17)
(2192.03 8.27271 2.24115e-17)
(2185.39 17.3799 9.9071e-20)
(2174.7 31.4656 0)
(2149.96 52.4268 0)
(2019.71 86.7138 0)
(1918.23 323.394 -2.11213e-16)
(1170.44 813.69 -6.16969e-17)
(1297.22 702.288 1.63965e-16)
(1135.42 1023.12 2.05626e-20)
(1369.17 618.947 2.08589e-20)
(1437.13 -621.044 0)
(1273.65 -928.093 3.94019e-20)
(1322.14 -784.878 0)
(1235.22 -859.732 -1.68024e-16)
(1334.17 -802.322 3.19059e-16)
(1638.9 -559.118 -2.03965e-16)
(1940.66 -122.254 0)
(1959.67 -13.8164 -1.02498e-19)
(2007.11 15.0311 0)
(2044.41 8.47343 0)
(2056.43 5.90939 -1.4082e-17)
(2060.38 2.99089 1.44053e-17)
(2061.56 2.34028 1.41839e-17)
(2060.97 1.7771 -1.42526e-17)
(2058.66 0.186791 0)
(2050.15 -3.75423 -5.86095e-17)
(2018.29 -9.68057 5.91029e-17)
(1962.81 17.3844 7.11177e-17)
(1937.12 140.39 -5.97065e-17)
(1602.79 584.028 0)
(1308.59 796.749 0)
(1204.49 850.276 -1.71376e-19)
(1331.34 779.397 -1.70833e-16)
(1267.01 918.845 3.66618e-16)
(1425.53 619.018 -1.69401e-16)
(1519.56 -631.065 -1.69196e-16)
(1387.52 -855.061 1.87049e-16)
(1384.09 -758.755 0)
(1280.65 -819.077 -1.90067e-16)
(1307.53 -782.769 -6.25392e-18)
(1304.43 -746.314 2.77223e-16)
(1261.02 -593.42 -1.99065e-16)
(1322.04 -522.948 1.18242e-16)
(1537.49 -271.587 0)
(1562.07 -121.856 0)
(1547.71 -59.1193 -4.0856e-20)
(1544.12 -21.3267 2.73551e-19)
(1541.39 -3.33767 0)
(1543.06 11.9847 0)
(1546.29 41.6282 5.80402e-17)
(1556.17 108.741 -5.52152e-17)
(1575.22 228.109 -1.10596e-16)
(1336.79 525.453 2.24013e-16)
(1243.81 595.688 1.83537e-17)
(1286.26 745.364 -9.03132e-17)
(1301.51 780.007 0)
(1253.09 822.554 0)
(1382.13 760.482 -1.73905e-16)
(1351.63 887.04 2.03012e-16)
(1502.46 641.017 -4.59455e-20)
(1660.09 -609.917 1.57226e-16)
(1562.47 -750.277 -9.69243e-20)
(1527.18 -689.48 9.48815e-17)
(1465.03 -727.616 -8.49579e-17)
(1397.68 -681.283 -4.47747e-20)
(1336.52 -598.683 8.77393e-20)
(1192.41 -447.31 1.15561e-16)
(868.881 -241.314 -1.80295e-16)
(692.138 -125.077 6.3954e-17)
(531.377 -56.8083 0)
(407.831 -21.8491 -3.37257e-17)
(367.549 -7.82719 3.3665e-17)
(351.159 0.216603 0)
(358.189 8.80912 6.32132e-20)
(387.315 16.9921 -3.35895e-17)
(493.706 48.6317 3.38347e-17)
(735.414 121.224 0)
(867.607 250.561 -1.16624e-16)
(1170.79 436.544 1.17137e-16)
(1324.62 594.649 8.89709e-17)
(1390.16 684.125 -1.86525e-16)
(1432.7 746.075 9.94674e-17)
(1520.05 710.193 0)
(1547.26 777.382 1.68732e-16)
(1650.08 625.197 -3.27479e-18)
(1815.08 -551.631 -3.31783e-18)
(1745.32 -601.477 8.01231e-17)
(1689.11 -547.537 -3.63475e-17)
(1541.99 -421.615 -5.72327e-17)
(1421.52 -357.813 7.31161e-17)
(1382.04 -274.334 -5.12812e-17)
(1290.98 -254.057 5.29646e-17)
(947.263 -198.633 -5.8638e-17)
(732.318 -106.975 -4.98767e-19)
(596.612 -59.1508 3.3005e-17)
(502.372 -31.4905 1.65046e-17)
(470.001 -16.7439 -1.52493e-19)
(457.583 0.596764 -1.66876e-17)
(464.865 20.5734 -6.046e-20)
(496.147 30.7218 -7.51473e-20)
(587.294 54.6953 -2.06903e-18)
(791.949 103.199 2.12158e-20)
(964.717 192.119 5.38447e-18)
(1283.17 232.978 -3.52985e-18)
(1373.52 305.448 0)
(1412.89 397.469 1.08994e-17)
(1549.25 471.107 -3.46439e-17)
(1689.33 588.436 4.14072e-17)
(1741.67 632.732 -5.65973e-17)
(1810.14 569.553 5.31282e-17)
(1996.1 -509.525 -8.64822e-20)
(1955.04 -330.226 -1.04205e-19)
(1881.56 -320.761 1.21476e-19)
(1787.83 -215.313 -5.51644e-21)
(1526.92 -64.6894 -1.84212e-19)
(1415.52 -26.7021 -2.00341e-19)
(1374.91 -71.9579 -7.1556e-21)
(1196.75 -91.7928 0)
(965.324 -105.979 0)
(818.242 -121.384 6.56585e-17)
(738.177 -102.69 -6.70976e-17)
(697.211 -49.7311 -8.85382e-21)
(682.905 2.9577 8.83284e-21)
(688.245 53.0704 -8.63747e-18)
(723.206 115.542 8.36667e-18)
(808.262 147.263 0)
(984.307 127.425 0)
(1170.96 106.919 -5.6399e-17)
(1344.89 77.0109 5.61342e-17)
(1376.12 17.0052 -1.94559e-19)
(1524.93 63.8748 0)
(1796.56 223.135 0)
(1885.9 323.226 -1.24465e-19)
(1953.23 333.378 -1.07328e-19)
(1998.35 524.424 1.23003e-16)
(1516.45 -185.117 -1.86658e-16)
(1748.27 -121.637 -2.38351e-16)
(1855.96 106.314 1.22049e-16)
(1800.47 145.887 0)
(1640 193.747 1.9942e-19)
(1516.97 143.569 1.0794e-16)
(1505.25 32.0748 -2.0866e-16)
(1405.43 -17.9045 1.0623e-16)
(1223.9 -56.1596 -1.21005e-16)
(1061.79 -84.6026 1.25303e-16)
(935.948 -72.5095 3.29837e-17)
(865.93 -28.9603 -4.10535e-17)
(841.919 6.22479 -8.3133e-18)
(859.408 40.0775 1.68135e-17)
(929.784 89.4419 0)
(1068.25 108.544 0)
(1243.38 75.8944 1.16603e-16)
(1387.95 34.8815 -2.20735e-16)
(1489.61 -31.673 1.09512e-16)
(1503.86 -152.154 2.27365e-19)
(1652.48 -200.523 1.54559e-16)
(1790.53 -158.175 -9.67029e-17)
(1835.22 -137.634 -4.88867e-16)
(1743.69 131.688 6.20854e-16)
(1500.41 188.08 -2.49458e-16)
(-7.35847 -78.6476 1.14088e-19)
(521.019 -98.8798 -2.57589e-16)
(1411.89 308.006 1.72096e-16)
(1674.84 501.561 0)
(1667.45 422.595 0)
(1610.4 273.028 0)
(1602.51 135.902 0)
(1528.09 67.5419 0)
(1370.81 19.9263 -5.17383e-17)
(1208.07 -19.6545 1.08462e-16)
(1078.41 -26.1055 -8.46687e-17)
(1000.92 -5.57767 3.21717e-17)
(979.78 9.19986 -3.62507e-18)
(1001.08 21.2791 1.5822e-20)
(1085.94 45.6329 -5.58432e-17)
(1233.11 40.7004 5.54686e-17)
(1399.76 -3.25305 0)
(1524.19 -54.2272 0)
(1603.99 -134.201 -1.72941e-16)
(1605.05 -293.751 1.86076e-16)
(1672.84 -427.348 -1.62654e-19)
(1657.57 -502.133 7.2696e-20)
(1372.51 -279.908 -9.5131e-20)
(443.427 139.659 -1.16161e-19)
(-96.3154 89.0174 0)
(-312.759 -59.6508 -2.2593e-16)
(405.643 280.972 2.3041e-16)
(1267.45 656.754 -1.70169e-19)
(1631.46 746.675 1.6302e-16)
(1722.22 577.657 -1.21456e-16)
(1688.97 385.53 0)
(1674.93 233.1 -8.18258e-17)
(1611.28 160.055 7.46328e-17)
(1474.91 94.8894 -4.45956e-17)
(1324.82 37.8035 9.35381e-17)
(1195.1 12.8061 -4.81948e-17)
(1122.36 10.4178 1.83092e-19)
(1101.2 7.24038 0)
(1127.49 2.69042 2.49051e-17)
(1212.84 -0.00579904 2.3143e-17)
(1356.69 -29.2431 -4.74041e-17)
(1502.79 -91.1837 -8.15146e-17)
(1607.62 -153.726 8.39248e-17)
(1680.19 -235.563 -7.19804e-17)
(1686.61 -410.486 7.98787e-17)
(1723.65 -595.231 7.97573e-20)
(1599.21 -764.097 -7.54869e-20)
(1213.41 -644.006 0)
(345.173 -279.688 1.12671e-19)
(-294.039 21.792 0)
(284.353 284.989 1.90673e-16)
(879.116 745.692 -1.8785e-16)
(1412.77 877.494 6.1448e-20)
(1677.92 870.333 0)
(1774.51 675.641 0)
(1737.5 506.066 -7.30916e-21)
(1718.76 352.984 0)
(1667.04 250.223 7.40977e-20)
(1551.19 168.54 0)
(1415.75 96.9873 4.16157e-17)
(1300.56 50.5453 -6.3991e-17)
(1228.6 25.6425 3.26478e-17)
(1209.69 6.55037 -1.10079e-17)
(1234.07 -15.2319 0)
(1315.83 -40.2879 0)
(1443.71 -89.4677 3.88645e-17)
(1573.5 -162.851 -1.09268e-16)
(1660.59 -248.975 7.30833e-17)
(1733.84 -344.447 -6.08128e-17)
(1739.72 -512.992 7.01511e-17)
(1780.73 -679.667 0)
(1667.23 -884.558 0)
(1404.71 -885.034 0)
(903.192 -768.004 -1.15202e-20)
(281.071 -237.486 -2.0067e-16)
(346.285 109.995 -3.59512e-20)
(1116.68 738.794 1.55217e-16)
(1540.46 941.731 -1.18186e-16)
(1741.32 910.897 0)
(1804.19 737.792 0)
(1763.38 594.946 7.56467e-21)
(1757.85 442.896 6.43676e-17)
(1713.84 327.981 -5.70242e-17)
(1612.97 225.066 3.03413e-20)
(1494.06 139.711 3.29898e-20)
(1388.24 78.9397 3.48606e-20)
(1325.51 37.657 -1.03381e-20)
(1305.24 3.97682 -1.039e-20)
(1330.04 -30.6081 1.92869e-17)
(1402.75 -73.5263 -1.93464e-17)
(1519.31 -137.894 4.2262e-20)
(1633.6 -221.812 3.88929e-20)
(1705.86 -330.807 0)
(1766.2 -435.686 -5.41281e-17)
(1772.02 -589.976 6.24631e-17)
(1816.94 -738.731 0)
(1739.62 -919.888 -9.85481e-17)
(1532.31 -938.605 1.21481e-16)
(1100.55 -727.939 8.96041e-21)
(345.838 -87.2066 -1.87475e-16)
(524.216 129.646 4.17138e-20)
(1267.69 762.065 0)
(1634.86 940.947 0)
(1785.18 917.67 -4.73464e-17)
(1817.6 779.824 4.59269e-17)
(1780.81 653.098 0)
(1789.01 509.468 5.86096e-17)
(1750.12 387.904 -5.25545e-17)
(1661.46 274.937 3.18745e-17)
(1555.39 179.479 -3.2131e-17)
(1465.68 103.69 1.76967e-17)
(1406.94 48.9665 -1.78216e-17)
(1391.62 2.02078 0)
(1413.32 -46.7989 -1.76549e-17)
(1480.83 -104.117 1.76952e-17)
(1581.14 -183.482 -3.47522e-20)
(1682.92 -274.523 -3.20733e-20)
(1743.63 -396.812 5.17533e-20)
(1795.46 -508.985 4.96019e-17)
(1785.61 -657.944 -5.74184e-17)
(1828.62 -781.434 -4.58896e-20)
(1782.48 -928.827 -4.43695e-20)
(1629.37 -932.689 0)
(1238.68 -746.157 -7.19374e-20)
(499.206 -115.207 4.21197e-20)
(566.617 146.993 1.5975e-22)
(1340.52 699.765 0)
(1701.53 881.209 9.21728e-23)
(1785.56 913.084 4.00586e-20)
(1820.81 808.218 -8.57084e-23)
(1797.53 702.152 -5.1851e-17)
(1816.99 561.812 4.5852e-17)
(1785.38 438.723 0)
(1708.21 314.193 -5.90696e-20)
(1617.42 212.359 -1.07966e-22)
(1533.79 125.956 -1.13727e-22)
(1484.75 57.7423 6.88095e-20)
(1467.48 0.252959 0)
(1488.31 -56.9656 0)
(1545.78 -126.782 -1.13108e-22)
(1637.62 -217.631 -1.06941e-22)
(1726.96 -314.512 -2.63464e-17)
(1776.96 -446.042 7.51699e-17)
(1817.02 -559.67 -5.33249e-17)
(1801.83 -700.601 0)
(1836.14 -802.439 -4.39763e-17)
(1786.03 -916.428 4.41204e-17)
(1702.62 -874.536 9.23331e-23)
(1332.24 -679.464 6.1642e-20)
(556.062 -139.981 1.59901e-22)
(683.13 200.658 3.08918e-18)
(1460.04 680.484 1.31411e-17)
(1748.73 854.718 9.75608e-17)
(1794.73 899.954 -4.08767e-17)
(1834.66 809.414 4.25601e-17)
(1815.73 717.321 -4.76511e-17)
(1842.38 589.985 4.27346e-17)
(1811.07 472.063 -2.51826e-17)
(1743.2 346.162 2.46953e-17)
(1663.36 240.918 1.14835e-22)
(1596.01 144.429 1.20682e-22)
(1549.81 67.3058 -1.23347e-22)
(1536.93 0.471138 7.43483e-18)
(1553.63 -67.7143 7.2625e-18)
(1606.29 -147.103 -1.48577e-17)
(1682.7 -247.023 1.13966e-22)
(1763.27 -342.846 4.89338e-17)
(1806.42 -476.491 -9.52742e-17)
(1846.19 -585.859 4.87956e-17)
(1814.67 -722.003 0)
(1844.79 -804.002 -8.40585e-23)
(1796.8 -901.324 7.86361e-23)
(1744.71 -852.622 -8.38539e-23)
(1450.58 -672.366 -1.215e-16)
(674.453 -207.5 1.5063e-16)
(732.339 221.934 1.40906e-19)
(1509.42 633.806 0)
(1768.78 800.26 0)
(1800.3 871.357 3.92294e-20)
(1842.73 796.817 8.07965e-20)
(1835.82 728.655 0)
(1868.37 608.744 4.48717e-17)
(1839.24 493.383 -4.22309e-17)
(1778.84 362.767 4.4309e-20)
(1711.66 256.401 -4.75883e-20)
(1648.86 154.828 -1.37393e-17)
(1612.11 70.0431 1.37263e-17)
(1598.09 -3.88363 3.57289e-18)
(1615.28 -78.0612 -3.46923e-18)
(1659.35 -165 1.32508e-17)
(1729.19 -272.859 -3.79156e-17)
(1798.54 -372.733 2.4683e-17)
(1831.73 -509.065 -4.63361e-20)
(1864.67 -613.607 3.95434e-20)
(1834.46 -735.837 -4.04759e-17)
(1850.41 -798.749 8.86485e-19)
(1805.81 -867.661 -2.0543e-18)
(1770.48 -788.015 4.11139e-17)
(1482.35 -607.675 5.68039e-20)
(672.694 -211.126 6.92378e-20)
(731.129 208.542 1.35801e-16)
(1546.16 578.986 -1.08868e-16)
(1796.89 758.568 0)
(1818.1 845.203 -3.8007e-17)
(1858.5 786.302 3.62908e-19)
(1855.47 722.494 3.93386e-17)
(1890.63 616.298 4.16408e-17)
(1859.44 511.676 -3.99276e-17)
(1808.03 385.575 -4.69914e-20)
(1749.23 279.365 -2.45567e-17)
(1700.92 171.467 1.19204e-17)
(1664.99 81.5943 1.26382e-17)
(1654.51 0.625575 -5.38779e-20)
(1666.59 -81.2013 0)
(1706.46 -172.913 0)
(1762.07 -285.303 0)
(1826.5 -379.293 4.65011e-20)
(1855.91 -513.383 9.66691e-21)
(1891.7 -609.95 -4.96933e-20)
(1853.34 -722.717 0)
(1863.87 -781.614 3.84318e-20)
(1821.01 -842.054 9.38833e-21)
(1799.36 -757.579 -4.86744e-20)
(1559.65 -576.359 -1.06627e-16)
(771.171 -228.98 1.36768e-16)
(777.823 237.378 6.59882e-17)
(1571.04 518.551 -9.64232e-17)
(1813.07 676.98 8.22155e-17)
(1829.64 788.837 -4.10961e-17)
(1870.06 755.698 -3.74768e-17)
(1873.06 710.488 3.74474e-17)
(1911.71 618.5 1.92357e-17)
(1882.32 518.863 -1.89525e-17)
(1837.02 390.121 1.08143e-17)
(1789.1 284.571 -2.23681e-17)
(1742.63 175.207 1.73754e-17)
(1715.79 82.2104 -7.38307e-18)
(1704.32 -2.62172 1.48994e-18)
(1717.41 -87.9736 -4.3726e-20)
(1750.13 -181.771 2.28615e-17)
(1801.72 -299.22 -2.28673e-17)
(1856.36 -396.248 3.87507e-20)
(1876.64 -527.946 3.78868e-17)
(1909.02 -616.585 -1.84157e-18)
(1868.39 -715.363 -3.82005e-17)
(1875.31 -757.496 0)
(1834.21 -788.845 4.13261e-17)
(1813.01 -684.702 -3.66934e-17)
(1574.2 -523.465 -1.03127e-16)
(792.88 -260.525 -6.16182e-19)
(908.054 270.11 -6.2601e-17)
(1638.57 476.994 4.82236e-17)
(1838.43 634.318 1.90751e-20)
(1846.26 749.353 -5.38052e-20)
(1891.16 739.974 1.8179e-20)
(1894.64 688.091 3.59115e-17)
(1933.36 598.855 -1.72394e-17)
(1897.62 511.846 -1.83454e-17)
(1860.31 392.852 4.15407e-20)
(1817.63 292.093 -4.41472e-20)
(1784.22 179.842 2.02829e-20)
(1757.52 85.2186 -2.06195e-20)
(1750.58 -3.58296 0)
(1759.43 -93.8843 5.27343e-21)
(1789.53 -190.279 -1.0712e-17)
(1828.75 -307.648 1.0771e-17)
(1880.21 -396.22 -1.92983e-17)
(1897.02 -524.465 9.75383e-19)
(1932.7 -600.039 1.80793e-17)
(1889.33 -691.291 -5.32482e-20)
(1890.12 -741.893 -3.68455e-17)
(1853.31 -745.095 3.483e-17)
(1839.52 -635.206 0)
(1630.12 -480.543 -4.88204e-17)
(869.217 -274.707 6.22349e-17)
(924.001 272.064 0)
(1653.81 430.089 -4.27799e-17)
(1840.26 554.095 4.23212e-17)
(1866.1 669.782 1.77948e-20)
(1901.96 699.719 1.71393e-20)
(1913.46 666.753 -3.43602e-17)
(1946.81 595.384 3.41309e-17)
(1917.12 515.579 1.83011e-17)
(1885.75 396.447 8.15332e-19)
(1852.99 295.859 -1.96816e-17)
(1819 184.101 -2.14642e-20)
(1800.02 88.9387 2.41822e-20)
(1791.01 -1.17509 0)
(1800.34 -91.9293 4.34953e-20)
(1823.79 -186.016 -2.13973e-20)
(1861.15 -307.717 9.76343e-18)
(1904.61 -398.248 -9.64301e-18)
(1912.32 -520.994 -1.8282e-20)
(1943.89 -591.677 -1.92054e-20)
(1909.43 -667.981 1.742e-20)
(1901.31 -703.305 -3.66021e-17)
(1870.7 -679.334 -6.7676e-18)
(1847.85 -570.622 3.37555e-17)
(1666.2 -435.48 0)
(945.922 -270.789 6.03804e-17)
(1023.55 284.343 -1.14475e-16)
(1692 396.999 4.4871e-17)
(1856.37 495.075 3.24649e-17)
(1890.64 623.685 -4.09247e-17)
(1919.59 672.89 0)
(1935.66 646.469 -2.0607e-21)
(1966.15 572.349 0)
(1930.3 497.62 -2.19773e-21)
(1905.14 390.208 -2.33421e-21)
(1874.7 296.812 0)
(1852.87 184.307 0)
(1833.14 89.1319 -2.56858e-21)
(1828.68 -2.40156 0)
(1834.39 -95.9082 0)
(1856.35 -191.429 -9.63475e-18)
(1882.48 -309.128 9.62376e-18)
(1925.65 -389.443 -2.31037e-21)
(1932.02 -507.521 -1.71459e-17)
(1964.07 -572.024 1.6345e-17)
(1931.05 -646.61 0)
(1917.83 -677.252 3.58847e-17)
(1892.24 -629.38 -7.35053e-17)
(1857.97 -512.036 7.25726e-17)
(1685.85 -396.56 3.68929e-18)
(988.395 -257.282 -5.76438e-17)
(1077.87 273.704 1.36153e-20)
(1709.76 366.53 -1.04308e-20)
(1861.51 432.797 0)
(1907.41 537.152 0)
(1929.12 616.122 0)
(1953.06 615.189 7.66839e-21)
(1975.91 559.284 0)
(1945.18 489.693 -7.86955e-21)
(1927.28 383.935 0)
(1906.21 289.576 -8.48886e-21)
(1881.14 178.627 0)
(1868.17 86.5981 -2.35243e-18)
(1861.32 -3.9728 2.34662e-18)
(1868.4 -95.419 0)
(1885.3 -185.699 9.19289e-18)
(1911.38 -307.656 -1.80483e-17)
(1946.28 -390.349 8.72273e-18)
(1944.47 -498.732 0)
(1974.35 -560.41 1.60141e-17)
(1948.22 -619.153 -1.58225e-17)
(1929.74 -621.532 3.58449e-17)
(1913.31 -546.841 -3.16088e-17)
(1860.26 -444.434 0)
(1704.88 -369.827 0)
(1080.87 -278.965 0)
(1129.12 268.159 -1.31891e-20)
(1733.49 345.72 1.02602e-20)
(1879.04 370.943 0)
(1925.04 465.308 0)
(1946.35 579.905 0)
(1971.19 596.344 -7.61063e-21)
(1996.06 537.055 0)
(1958.63 468.303 8.20779e-21)
(1945.42 373.061 0)
(1923.86 290.038 -8.80575e-18)
(1909.88 181.538 8.81846e-18)
(1894.9 89.834 -8.41298e-21)
(1892.1 -0.607963 9.2606e-21)
(1895.23 -93.4342 8.40664e-21)
(1911.49 -183.508 0)
(1927.83 -297.973 0)
(1965.58 -369.591 8.49134e-21)
(1962.22 -476.209 -1.62217e-17)
(1994.65 -534.963 1.51293e-17)
(1967.21 -596.462 0)
(1943.26 -586.949 7.78209e-21)
(1927.85 -478.251 0)
(1879.97 -388.78 0)
(1734.81 -353.053 0)
(1148.58 -271.571 0)
(1153.06 237.895 -5.08201e-17)
(1743.73 313.774 4.18021e-17)
(1887.95 319.596 0)
(1934.14 381.533 -1.68657e-20)
(1956.85 516.603 0)
(1982.8 550.619 -1.44812e-17)
(2004.33 516.139 3.01654e-17)
(1972.02 457.278 -1.58234e-17)
(1963.82 363.963 -8.11626e-18)
(1951.91 278.941 8.3298e-18)
(1932.96 172.129 4.34588e-21)
(1924.12 85.4216 1.11187e-18)
(1918.48 -2.92044 -1.07386e-18)
(1923.87 -92.4707 8.47909e-18)
(1936.64 -176.51 -8.52966e-18)
(1953.91 -294.969 0)
(1982.4 -368.02 -1.51833e-20)
(1973.41 -465.385 0)
(2002.77 -520.312 0)
(1979.04 -558.045 -1.62913e-17)
(1955.24 -522.148 1.46261e-17)
(1939.13 -394.868 0)
(1887.01 -331.415 3.65447e-17)
(1740.56 -323.812 2.30757e-18)
(1171.42 -247.834 -1.02981e-16)
(1213.43 223.958 5.06988e-17)
(1771.18 293.066 1.92717e-20)
(1902.26 268.794 3.10013e-17)
(1936.12 318.652 -2.31796e-17)
(1968.59 474.829 -1.7724e-17)
(1996.33 521.075 0)
(2021.6 491.942 7.54511e-21)
(1985.56 429.697 1.51677e-17)
(1980.77 344.184 -1.58259e-17)
(1965.19 270.641 0)
(1956.38 169.659 0)
(1945.07 84.505 -2.59572e-20)
(1943.92 -2.72766 3.21428e-20)
(1945.48 -93.3152 1.69494e-20)
(1958.14 -175.64 4.07419e-18)
(1967.12 -282.845 -4.03921e-18)
(2001.13 -346.371 8.40177e-21)
(1992.23 -442.979 1.55366e-17)
(2021.25 -492.664 -2.90728e-17)
(1994.03 -523.729 1.40225e-17)
(1967.39 -482.568 -1.48859e-20)
(1941.31 -317.678 0)
(1905.78 -284.595 1.68796e-20)
(1760.81 -303.81 4.05802e-17)
(1181.64 -218.92 -1.00585e-16)
(1216.68 186.697 -4.9847e-17)
(1772.16 259.988 -3.80814e-17)
(1904.71 232.862 3.49191e-17)
(1922.99 241.468 1.45724e-17)
(1976.16 390.91 -1.8402e-17)
(2004.71 459.851 0)
(2027.83 462.281 3.67123e-21)
(1997.59 418.429 -1.10387e-20)
(1997.74 338.288 7.57491e-18)
(1990.79 262.145 -1.5576e-17)
(1975.89 162.741 7.89659e-18)
(1969.8 82.7588 1.97473e-18)
(1965.41 -1.3609 -1.86015e-18)
(1969.46 -86.8844 1.83624e-18)
(1978.76 -162.784 -1.97814e-18)
(1989.66 -274.911 0)
(2015.09 -338.737 1.12406e-20)
(2001.55 -424.355 -3.5672e-21)
(2026.34 -471.029 -1.4921e-17)
(2002.48 -472.097 1.3681e-17)
(1976.1 -402.538 0)
(1934.88 -259.091 0)
(1910.4 -233.716 -4.10468e-21)
(1764.69 -265.735 -4.02567e-17)
(1187.43 -182.373 -1.63414e-18)
(1260.49 170.592 -2.34583e-17)
(1788.13 242.48 1.95158e-17)
(1918.85 210.84 4.1083e-21)
(1926.29 181.097 0)
(1985.47 315.012 1.34769e-17)
(2017.89 420.489 -1.62104e-17)
(2039.61 436.003 3.41727e-21)
(2011.33 386.895 3.65602e-21)
(2013.95 315.818 1.4047e-20)
(2000.67 251.428 -1.8933e-18)
(1994.95 158.946 9.52099e-19)
(1986.24 80.8817 1.88394e-18)
(1986.21 -1.94557 -9.61393e-19)
(1986.42 -88.237 3.84472e-18)
(1996.73 -161.651 -3.8012e-18)
(2000.72 -261.408 0)
(2033.65 -317.936 1.01936e-20)
(2019.95 -400.256 -1.51087e-17)
(2039.66 -438.06 1.32644e-17)
(2015.77 -428.558 3.47075e-21)
(1984.76 -340.69 0)
(1927.64 -180.95 0)
(1928.85 -205.553 4.10355e-21)
(1776.99 -238.266 -3.95488e-17)
(1221.97 -167.631 4.75074e-17)
(1295.18 144.016 2.34359e-20)
(1797.1 209.53 0)
(1929.98 183.707 -7.81205e-21)
(1930.85 123.967 -1.4545e-17)
(1980.68 239.156 1.76791e-17)
(2018.38 347.915 -1.31232e-17)
(2040.23 389.713 1.52775e-17)
(2018.91 368.894 -7.02543e-18)
(2027.48 306.472 7.35167e-18)
(2023.59 240.675 -3.63185e-18)
(2011.12 148.793 3.70305e-18)
(2007.07 75.5698 -1.81531e-18)
(2003.88 -3.39765 2.08947e-18)
(2006.8 -83.9223 -2.45688e-19)
(2014.44 -152.219 3.69939e-18)
(2021.19 -256.175 -7.29402e-18)
(2044.67 -308.775 -3.76965e-18)
(2027.35 -378.089 7.00371e-18)
(2042.44 -405.956 1.35361e-20)
(2019.25 -362.997 -7.00454e-21)
(1985.89 -242.224 0)
(1935.92 -141.131 0)
(1937.8 -177.211 0)
(1791.83 -204.794 -1.93048e-17)
(1272.67 -155.428 2.31228e-17)
(1316.46 140.653 -2.78963e-21)
(1805.51 191.645 0)
(1947.35 168.165 9.83011e-21)
(1936.43 89.9278 -7.95871e-21)
(1961.31 156.883 -7.24369e-21)
(2028.23 290.712 0)
(2048.29 352.888 -6.63737e-21)
(2031.88 335.891 6.83794e-18)
(2042.32 284.002 -7.27732e-18)
(2030.59 230.421 0)
(2027.29 147.377 1.70109e-21)
(2020.43 76.3561 0)
(2021.07 -0.764065 0)
(2020.09 -81.6532 1.80614e-18)
(2028.83 -146.663 -1.79392e-18)
(2028.8 -238.156 -7.23851e-21)
(2061.63 -284.941 -1.65453e-21)
(2042.73 -347.959 6.97862e-21)
(2048.1 -357.856 -7.52751e-18)
(2028.67 -316.774 6.37446e-18)
(1976.77 -184.804 -1.73063e-17)