/*--------------------------------*- C++ -*----------------------------------*\
| =========                 |                                                 |
| \\      /  F ield         | OpenFOAM: The Open Source CFD Toolbox           |
|  \\    /   O peration     | Version:  2112                                  |
|   \\  /    A nd           | Website:  www.openfoam.com                      |
|    \\/     M anipulation  |                                                 |
\*---------------------------------------------------------------------------*/
FoamFile
{
    version     2.0;
    format      ascii;
    arch        "LSB;label=32;scalar=64";
    class       volScalarField;
    location    "0.0096";
    object      T;
}
// * * * * * * * * * * * * * * * * * * * * * * * * * * * * * * * * * * * * * //

dimensions      [0 0 0 1 0 0 0];

internalField   nonuniform List<scalar> 
13875
(
1412
1535.57
1482.43
1487.66
1482.05
1483.84
1484.24
1483.03
1484.83
1484.97
1484.14
1484.1
1483.47
1483.9
1483.84
1483.87
1483.44
1484.72
1484.87
1483.12
1481.88
1487.66
1480.53
1532.78
1396.74
1307.02
1356.16
1318.89
1322.14
1316.6
1318.12
1322.03
1322.71
1324.28
1324.29
1323.35
1323.09
1317.99
1317.66
1318.36
1322.77
1322.95
1323.46
1322.31
1317.82
1316.7
1321.88
1319.59
1355.93
1302.63
1307.23
1340.06
1314.29
1311.74
1305.21
1305.43
1305.21
1304.02
1305.89
1307.11
1305.83
1305.91
1303.78
1304.04
1303.89
1305.78
1303.9
1305.92
1306.04
1305.09
1304.86
1311.07
1311.38
1336.05
1298.12
1317.37
1344.81
1314.65
1308.72
1305.97
1305.8
1304.18
1303.39
1304.38
1304.34
1303.12
1303.75
1303.87
1304.08
1304.04
1303.44
1302.42
1303.47
1304.2
1305.49
1305.36
1307.7
1313.94
1343.92
1312.43
1329.52
1342.1
1315.69
1312.36
1304.86
1305.35
1304.79
1303.55
1304.52
1304.47
1303.16
1303.51
1303.79
1304.24
1303.82
1303.28
1302.5
1303.97
1305.2
1304.88
1304.75
1311.75
1312
1338.44
1316.33
1332.2
1351.13
1318.8
1309.84
1307.87
1306.63
1304.37
1303.69
1304.36
1304.35
1303.24
1303.83
1304.09
1304.52
1304.3
1303.55
1302.63
1303.52
1304.25
1306.56
1307.28
1308.43
1319.01
1348.95
1325.9
1338.98
1360.46
1328.99
1317.36
1307.91
1307.11
1305.78
1304.4
1305.06
1304.87
1303.59
1303.9
1304.32
1304.84
1304.23
1303.58
1303.16
1304.56
1306.18
1306.51
1307.8
1317.61
1325.71
1358.15
1321.18
1359.72
1384.69
1344.02
1321.1
1316.37
1310.13
1306.6
1304.95
1305.31
1305
1304.15
1304.58
1305.06
1305.52
1305.22
1304.18
1303.75
1304.93
1306.15
1309.98
1315.3
1320.39
1341.56
1380.9
1350.08
1537.23
1508.46
1387.17
1350.42
1322.08
1315.84
1310.73
1307.66
1307.47
1306.34
1305.5
1305.74
1306.36
1306.85
1306.34
1305.66
1305.62
1307.24
1310.52
1314.2
1321.31
1349.23
1382.74
1505.63
1521.88
1834.96
1574.5
1427.26
1358.63
1338.33
1320.2
1313.66
1310.38
1309.95
1309.32
1308.31
1308.45
1309.05
1309.54
1309.19
1308.61
1308.85
1310.94
1314.1
1320.57
1337.05
1357.15
1424.87
1566.53
1827.39
2507.41
1805.2
1517.94
1407.72
1350.16
1331.35
1324.57
1318.19
1316.42
1315
1313.75
1313.8
1314.33
1314.89
1314.74
1314.66
1315.2
1317.71
1326.11
1330.02
1348.67
1419.33
1502.14
1797.77
2429.52
2812.8
2302.59
1736.49
1463.58
1426.11
1359.53
1338.47
1332.55
1329.47
1327
1325.54
1325.51
1325.79
1326.32
1326.42
1327
1328.26
1331.77
1339.7
1371.43
1405.44
1457.25
1731.44
2306.25
2837.27
2786.99
2657.28
2353.21
2198.49
1520.79
1412.74
1395.79
1373.92
1364.21
1357.34
1354.49
1353.76
1353.55
1354.09
1354.9
1357.71
1363.69
1374.9
1399.53
1421.69
1567.43
2234.37
2246.01
2687.16
2766.37
2723.41
2662.92
2744.85
2784.15
2045.25
1817.63
1520.97
1478.17
1458.99
1446.87
1443.3
1441.95
1441.67
1442.23
1443.54
1448.05
1459.14
1479.04
1541.63
1922.58
2101.17
2804.55
2792.53
2703.07
2701.54
2583.12
2640.64
2686.82
2687.02
2584.59
2355.84
2031.16
1964.23
1864.96
1765.19
1731.64
1720.38
1716.82
1718.26
1725.01
1749.39
1841.62
1962.59
1984.24
2421.52
2637.37
2736.11
2678.12
2652.33
2625.97
2500.76
2537.38
2627.07
2683.35
2655.63
2686.02
2879.53
2942.25
2931.43
3033.23
3116.12
3138.6
3148.93
3142.83
3124.96
3058.52
2905.74
2940.92
2900.66
2717.18
2661.05
2706.44
2624.41
2558.08
2533.34
2314.24
2398.89
2476.43
2531.79
2603.37
2728.7
3035.33
3411.47
3593.03
3683.88
3698.41
3691.51
3689
3692.44
3701.31
3702.61
3599.93
3418.99
3053.04
2738.72
2616.06
2565.29
2469.33
2404.29
2329.06
2024
2147.09
2300.17
2612.63
2793.92
2831.35
2960.42
3310.51
3531.21
3643.16
3673.55
3673.18
3672.78
3675.21
3676.21
3648.11
3502.96
3290.73
2965.23
2843.52
2809.27
2561.4
2269.57
2140.14
2023.88
1812.41
1878.2
2010.62
2236.85
2710.1
2842.37
2880.66
3106.26
3357.14
3499.95
3544.63
3557.35
3561.59
3560.89
3550.64
3510.8
3360.2
3120.6
2919.88
2922.21
2675.71
2203.1
2007.46
1883.78
1814.33
2457.59
2344.25
2106.17
2195.85
2504.64
2690.38
2701.62
2839.52
3079.02
3278.14
3387.6
3431.67
3441.18
3435.07
3391.7
3277.41
3066.96
2850.92
2729.44
2713.79
2483.25
2221.43
2139.12
2343.87
2450.75
3247.6
3421.3
2749.12
2302.47
2374.53
2533.85
2552.82
2658.18
2881.22
3108.73
3250.67
3305.33
3316.21
3304.45
3245.18
3090.36
2854.35
2656.12
2558.79
2541.44
2358.83
2325.78
2810.04
3478.82
3258.13
3629.68
3570.51
2816.78
2212.78
2212.7
2370.83
2420.46
2523.16
2733
2961.28
3117.53
3180.89
3190.24
3176.27
3101.65
2930
2699.59
2519.96
2417.26
2368.8
2189.64
2248.38
2898.74
3619.17
3674.66
3496.77
3115.85
2488.56
2060.72
2060.03
2238.11
2312.08
2415.39
2604.52
2830.18
2987.81
3052.77
3065.98
3046.83
2973.01
2804.31
2581.01
2415.26
2298.48
2235.26
2036.15
2054.87
2475.61
3126
3528.87
3512.17
2957.69
2249.94
1905.54
1974.09
2140.99
2209.78
2316.82
2501.11
2713.79
2867.55
2934.36
2945.31
2928.76
2852.12
2687.36
2475.7
2317.51
2201.31
2129.33
1942.83
1892.58
2253.47
2977.69
3543.4
3449.23
2786.35
2098.01
1822.9
1929.6
2069.22
2120.72
2230.58
2406.26
2613.46
2756.63
2817.13
2830.87
2809.31
2738.31
2584.31
2380.63
2227.02
2117.83
2064.32
1897.01
1808.66
2111.43
2832.17
3479.68
3423.89
2749.86
2041.26
1828
1904.86
2002.59
2042.86
2149.1
2322.01
2512.11
2650.5
2711.18
2721.14
2705.95
2636.03
2488.16
2297.06
2148.2
2044.05
1999.47
1877.94
1817.04
2037.82
2761.06
3452.91
3347.56
2602.16
1966.73
1830.25
1883.1
1956.84
1976.81
2085.3
2248.42
2430.49
2552.61
2605.14
2619.16
2598.91
2537.95
2407.06
2225.45
2079.81
1977.97
1961.97
1859.52
1823.45
1970.38
2610.26
3363.64
3310.02
2559.52
1971.66
1864.3
1873.83
1908.43
1916.85
2024.91
2186
2349.24
2461.98
2513.28
2521.84
2508.56
2447.89
2322.68
2156.04
2018.01
1918.02
1912.19
1854.33
1849.76
1973.15
2605.14
3359.38
3308.91
2539.52
1942.19
1855.17
1843.41
1877.42
1868.62
1976.82
2122.25
2276.88
2374.52
2418.93
2432.86
2414.62
2365.48
2261.83
2104.78
1971.51
1871.91
1884.15
1831.55
1851.91
1932.79
2500.78
3287.85
3273.96
2540.93
1975.14
1890.03
1843.02
1850.88
1827.04
1931.12
2074
2208.76
2298.23
2341.1
2347.76
2337.3
2286.42
2188.28
2048.44
1925.26
1827.08
1866.16
1829.75
1871.01
1957.43
2521.13
3274.25
3190.86
2459.27
1945.42
1885.65
1803.43
1826.89
1795.05
1905.06
2026.87
2152.57
2224.96
2258.57
2270.56
2254.27
2215.53
2135.67
2004.95
1891.26
1793.93
1835.58
1803.43
1873.71
1937.15
2468.17
3215.72
3155.5
2459.58
1997.51
1915.08
1810.86
1803.24
1770.35
1866.72
1983.7
2090.42
2158.17
2192.84
2197.05
2191.3
2150.21
2076.72
1963.95
1864.39
1768.07
1821.46
1805.58
1891.77
1969.89
2432.52
3164.66
3090.13
2399.56
1992.91
1895.43
1782.62
1773.35
1744.89
1850.51
1945.88
2045.55
2097.75
2121.23
2131.62
2118.3
2090.53
2033.76
1927.58
1838.15
1742.23
1782.91
1789.96
1888.6
1966.9
2394.27
3105.57
3054.32
2375.31
2025.9
1913.15
1802.98
1757.85
1732.37
1825.9
1910.94
1993.1
2040.28
2067.9
2069.21
2066.82
2033.44
1980.62
1891.1
1818.45
1724.12
1772.96
1795.84
1901.88
2021.56
2385.94
3065.41
3015.48
2341.42
2018.21
1907.68
1786.53
1730.02
1703.74
1811.1
1876.21
1953.23
1989
2005.21
2014.46
2003.54
1984.94
1947.81
1862.55
1803.62
1697.62
1737.98
1797.3
1904.46
2014.36
2333.38
3019.4
2999.98
2336.6
2023.05
1925.68
1803.1
1732.09
1697.53
1788.71
1848.42
1907.99
1939.86
1962.48
1961.72
1961.73
1933.4
1897.97
1831.66
1789.37
1684.88
1735.04
1807.74
1926.15
2029.06
2342.4
3013.96
2951.05
2291.68
2008.66
1936.07
1790.23
1714.94
1671.11
1777.25
1818.83
1877.45
1898.19
1908.05
1915.83
1906.06
1894.13
1872.75
1802.87
1770.97
1661.55
1720.41
1794.38
1943.71
2008.78
2307.93
2974.39
2934.67
2299.73
2014.12
1979.67
1816.86
1732.45
1674.78
1758.78
1791.59
1834.76
1854.75
1873.93
1871.27
1873.82
1849.59
1827.28
1779.08
1763.12
1661.59
1727.18
1817.38
1982.15
2016.47
2294.87
2949.07
2899.78
2273.62
1991.89
1992.14
1814.4
1716.05
1654.58
1747.12
1763.26
1810.52
1821.65
1826.3
1832.84
1825.71
1818.64
1807.34
1746.56
1742.26
1650.1
1717.41
1817.48
1999.84
1983.78
2277.3
2910.31
2852.84
2265.63
1975.98
1990.33
1841.16
1744.28
1672.72
1738.81
1743.58
1771.94
1783.26
1799.86
1795.72
1799.97
1778.54
1765.17
1727.29
1736.33
1658.04
1737.15
1845.49
1994.69
1968.53
2272.85
2877.66
2827.07
2257.03
1947.04
1983.86
1888.68
1736.88
1666.2
1727.87
1715.93
1752.5
1756.45
1758.21
1763.12
1758.03
1755.06
1753.18
1697.67
1721.88
1668.22
1726.72
1876.03
1989.02
1936.9
2241.36
2833.88
2791.79
2251.87
1937.08
1975.26
1928.87
1768.82
1700.08
1729.8
1704.53
1718.56
1722.99
1737.49
1731.78
1737.28
1718.3
1715.98
1687.03
1724.68
1692.43
1769.26
1946.25
1982.02
1932.15
2250.84
2796.86
2762.47
2230.39
1915.39
1956.72
1924.23
1781.39
1703.73
1730.87
1684.08
1707.85
1702.54
1700.87
1703.98
1700.47
1700.78
1709.79
1661.33
1716.01
1699.78
1775.59
1941.12
1966.42
1914.15
2237.16
2764.59
2731.07
2228.52
1915.01
1930.93
1920.53
1842.87
1747.03
1748.01
1687.72
1679.38
1673.63
1684.77
1677.59
1684.5
1667.59
1682.03
1670.63
1735.93
1732.65
1831.21
1932.38
1943.21
1913.98
2225.3
2728.99
2711.14
2214.22
1903.34
1902.36
1901.82
1899.94
1753.03
1743.23
1676.5
1681.58
1660.77
1652.6
1654.18
1653.21
1658.74
1684.03
1654.81
1729.73
1758.13
1908.26
1920.08
1914.34
1903.89
2214.82
2708.96
2673.9
2194.91
1900.41
1882.75
1878.35
1889.13
1821.69
1774.44
1702.86
1665.53
1639.97
1643.47
1633.66
1642.87
1629.65
1665.82
1681.07
1759.72
1814.13
1900.27
1895.09
1892.97
1907.05
2203.63
2683.44
2657.13
2194.62
1894.15
1867.03
1850.75
1879.25
1907.2
1793.42
1688.81
1680.54
1644.26
1620.47
1617.77
1621.43
1643.38
1683
1666.22
1777.07
1903.95
1882.18
1866.05
1872.28
1891.39
2186.32
2662.56
2609.26
2176.34
1890.74
1850.94
1827.27
1857.1
1888.53
1845.98
1728.71
1672.46
1632.86
1629.44
1603.85
1626.72
1619.56
1673.31
1711.01
1833.76
1897.09
1868.87
1842.2
1860.32
1891.42
2175.16
2614.86
2567.64
2158.54
1875.97
1843.01
1807.67
1827.06
1879.39
1942.46
1736.91
1698.37
1648.25
1614.23
1604.56
1615.14
1647.1
1700.37
1716.09
1928.41
1882.18
1824.95
1816.29
1847.76
1875.03
2156.99
2577.3
2398.64
2106.63
1856.62
1832.4
1791.31
1797.11
1855.31
1918.19
1818.51
1708.57
1641.11
1632.68
1607.06
1629.23
1624.55
1708.79
1798.57
1922.33
1860.85
1801.63
1800.22
1836.92
1856.36
2103.01
2406.59
1075.11
1064.8
1024.95
939.507
841.062
752.907
683.389
631.625
594.028
564.906
542.485
523.033
506.028
491.916
481.942
473.261
465.988
459.808
453.755
447.644
441.996
436.295
430.933
427.026
422.248
417.623
412.309
406.633
400.168
393.424
1081.88
1073.07
1025.41
936.046
836.023
748.356
679.492
627.873
590.942
564.769
546.2
531.46
517.887
505.648
495.078
486.34
477.541
469.585
462.098
454.752
448.953
442.541
437.762
432.558
427.468
422.16
416.737
411.269
404.857
399.091
1085.14
1080.86
1027.03
933.831
832.788
745.569
677.456
626.305
589.596
563.9
545.776
531.319
519.234
508.403
497.479
488.331
479.397
470.81
463.082
456.376
449.935
444.044
439.268
434.025
428.683
423.065
418.082
412.687
406.395
401.007
1102.37
1091.58
1034.82
939.815
838.461
750.809
682.166
629.054
591.122
564.463
545.48
531.406
519.934
510.08
499.588
490.189
481.368
472.814
465.855
459.783
452.772
447.645
442.159
436.544
431.434
426.15
421.246
415.94
410.128
404.9
1115.52
1104.39
1046.02
951.425
850.104
761.738
691.873
636.082
594.895
565.87
545.562
531.31
519.788
510.283
500.382
490.894
482.033
473.869
466.749
460.417
454.603
449.156
443.524
438.221
432.947
427.971
422.738
417.977
412.011
406.701
1130.54
1116.8
1057.86
964.191
863.98
775.384
703.082
645.295
601.343
569.25
546.501
531.373
519.169
509.913
500.853
492.422
484.18
476.099
469.027
463.06
457.321
451.746
446.151
441.277
436.132
430.748
424.922
419.688
414.097
409.641
1143.01
1130.8
1072.02
980.756
883.169
793.662
719.574
658.651
611.772
576.202
549.94
532.702
519.072
509.623
501.076
493.368
485.48
477.177
470.7
464.353
458.403
452.817
447.477
442.591
437.555
431.712
426.571
420.498
414.681
410.894
1157.99
1145.57
1088.65
1001.14
904.849
814.898
738.272
676.551
626.688
587.458
557.068
536.224
520.302
510.131
501.958
494.925
487.424
479.473
472.973
465.955
460.468
454.943
449.747
444.284
439.288
433.73
428.426
422.468
416.729
412.645
1171.19
1161.27
1107.24
1023.53
928.687
839.79
763.092
698.965
646.263
603.262
567.901
542.865
524.131
511.817
502.689
495.452
488.087
481.182
473.801
467.173
461.562
456.22
451.013
445.566
440.472
434.835
429.593
423.762
418.098
413.946
1186.49
1177.83
1127.01
1047.03
955.37
869.364
792.499
725.311
669.997
623.463
583.231
553.51
530.823
515.128
504.17
495.958
489.739
483.434
475.954
469.015
463.42
458.343
453.175
447.228
442.11
436.481
431.619
425.697
420.348
416.516
1198.14
1193.84
1147.28
1071.87
984.959
902.583
825.502
756.525
698.547
648.912
603.775
569.211
541.719
521.467
506.893
497.21
490.571
484.192
477.199
470.195
464.471
459.472
453.999
448.117
442.667
437.354
432.527
426.624
421.784
418.447
1211.96
1209.57
1167.82
1098.41
1017.55
938.589
862.798
792.407
731.575
679.124
629.751
590.261
557.613
532.201
513.093
500.939
492.373
485.561
479.197
472.64
466.769
461.535
455.881
449.665
444.044
438.744
433.42
428.034
423.427
420.845
1223.2
1224.83
1188.86
1126.91
1052.62
976.714
902.841
832.634
768.77
713.581
661.415
616.826
578.844
547.697
523.632
506.338
494.766
487.086
481.413
475.394
469.211
463.139
457.643
451.047
444.867
439.672
434.634
429.448
425.003
422.261
1233.86
1239.74
1210.93
1156.73
1088.95
1016.41
944.447
875.306
810.1
751.794
697.948
648.639
605.36
568.583
538.567
516.095
500.642
491.186
484.686
478.79
472.375
465.776
459.556
452.75
446.65
441.392
436.212
431.336
427.192
424.668
1243.41
1254.65
1233.04
1186.94
1125.62
1056.95
986.959
919.117
854.62
793.261
738.025
684.904
636.558
594.383
558.724
530.674
510.015
496.757
487.968
481.448
475.04
468.479
461.503
454.931
448.573
443.154
438.025
433.281
428.877
425.995
1252.65
1269.11
1254.77
1216.78
1162.16
1097.86
1030.32
964.721
901.061
837.696
780.752
724.697
672.184
625.373
584.424
550.27
524.016
505.231
492.73
484.722
478.414
471.655
464.272
457.884
451.212
445.346
441.045
435.485
431.097
428.295
1260.59
1282.74
1275.57
1245.72
1197.93
1138.56
1073.9
1010.07
947.592
884.802
824.707
766.792
711.538
660.637
614.182
574.419
542.196
517.141
499.623
488.554
481.32
474.353
467.085
460.286
453.706
447.852
442.752
437.998
433.472
430.751
1266.84
1295.46
1294.98
1273.61
1232.5
1178.64
1117.32
1055.76
994.546
932.697
869.507
810.749
753.954
699.11
648.096
603.283
564.892
533.4
509.945
494.342
484.57
477.234
469.823
462.476
456.01
450.39
444.605
440.222
435.895
433.43
1271.44
1307.81
1312.76
1299.73
1265.63
1217.42
1160.25
1101.25
1040.89
979.243
915.808
855.817
798.017
740.036
685.415
635.904
591.597
553.491
523.426
502.22
488.355
479.707
472.372
464.63
457.899
452.137
446.561
442.06
437.825
435.702
1273.05
1318.63
1328.93
1323.36
1297.53
1254.59
1202.01
1145.39
1086.18
1024.84
963.136
901.888
842.844
782.699
725.104
671.528
621.605
577.236
540.457
513.125
494.113
482.737
474.93
467.31
460.17
454.186
448.586
443.934
439.742
437.755
1274.82
1328.27
1344.41
1345
1327.06
1290.03
1242.09
1188.11
1130.48
1070.43
1010.11
949.236
887.927
826.702
766.725
709.474
654.508
604.284
560.85
527.16
502.421
486.541
477.118
469.795
462.374
456.038
450.279
445.653
441.059
439.141
1273.17
1336.17
1359.32
1364.48
1354.02
1323.44
1280.35
1229.27
1173.76
1115.64
1056.7
996.58
933.678
871.579
809.825
749.518
689.995
634.281
584.748
544.961
513.713
491.929
479.503
471.821
464.501
457.531
451.627
447.346
443.036
440.672
1273.08
1343.37
1373.86
1383.51
1378.59
1354.54
1316.41
1268.97
1216.32
1160.42
1102.67
1043.64
980.081
917.061
853.616
790.854
727.631
666.986
611.922
566.02
527.439
499.788
482.833
473.534
466.51
458.89
453.106
448.148
445.446
443.367
1256.62
1351.92
1388.5
1401.49
1400.99
1383.09
1350.22
1307.31
1258.07
1204.34
1147.65
1089.29
1027.71
963.292
897.259
832.569
766.865
701.906
641.788
589.725
544.697
511.05
488.512
475.884
468.226
461.073
455.307
450.162
447.379
447.12
1270.56
1380.42
1409.16
1420.34
1421.76
1409.19
1381.74
1343.83
1298.27
1246.8
1191.72
1133.76
1072.67
1009.3
940.699
873.764
806.395
737.956
673.708
616.592
565.992
526.326
497.289
479.871
470.583
464.009
457.84
452.552
449.727
449.022
392.638
397.958
404.355
410.157
415.772
420.664
424.546
429.138
433.374
438.33
444.17
451.116
457.583
464.032
470.592
478.24
488.304
503.067
520.1
539.708
562.717
590.877
628.148
679.855
750.886
841.104
942.543
1029.62
1070.35
1081.45
397.833
403.071
409.211
414.904
419.98
425.546
430.578
435.493
440.375
446.273
452.451
458.872
466.383
474.442
483.075
491.874
502.229
514.641
527.726
541.862
560.314
586.067
622.985
674.758
744.922
834.556
937.854
1028.74
1077.54
1087.37
399.169
404.926
410.647
416.357
421.496
426.399
432.146
437.01
441.849
447.36
453.194
459.618
467.062
475.43
484.946
494.601
505.047
515.696
527.837
541.66
558.676
584.004
620.732
672.36
742.811
831.916
934.616
1028.78
1084.62
1090.61
402.982
407.905
413.76
419.072
424.406
429.14
434.189
440.069
445.678
450.62
455.48
462.343
469.598
477.865
487.099
496.902
507.142
516.372
528.006
541.505
559.156
584.618
622.529
676.436
747.98
837.977
940.412
1035.98
1094.48
1107.24
404.778
409.455
415.496
420.613
425.517
430.554
435.647
441.311
447.378
452.094
457.013
463.022
470.647
478.794
487.83
497.407
507.288
516.209
527.821
541.392
560.624
588.827
629.618
685.49
758.037
848.795
951.607
1046.82
1106.8
1120.12
408.047
412.326
417.906
423.644
428.513
434.1
438.612
443.707
449.581
455.071
459.945
465.378
473.068
481.102
489.544
498.035
507.026
515.967
527.823
542.237
563.967
595.403
639.396
697.086
771.527
862.542
964.172
1058.47
1118.84
1134.58
408.661
412.754
418.655
424.806
430.193
435.574
440.387
445.085
450.59
456.331
461.274
467.055
474.322
482.487
490.571
498.347
506.933
516.007
528.867
545.378
570.461
605.599
652.519
713.048
789.358
881.29
980.036
1072.14
1132.54
1147.1
411.032
415.188
421.068
426.577
432.445
437.444
442.534
447.89
452.928
458.513
463.487
469.635
476.612
484.795
492.448
499.431
507.508
517.253
532.375
552.265
581.495
620.366
670.243
732.319
810.573
902.992
999.534
1088.21
1146.99
1162
412.798
416.763
422.526
427.978
433.432
438.887
443.512
449.042
454.168
459.692
464.734
470.843
477.694
485.78
493.226
500.492
509.438
521.256
539.114
563.526
597.712
640.285
692.674
756.477
835.678
926.975
1021.57
1106.11
1162.38
1175.33
415.665
419.313
424.695
430.292
435.471
440.967
445.596
450.969
456.543
461.75
467.192
473.33
479.998
487.525
494.43
502.091
512.893
528.219
549.649
578.672
618.016
664.302
719.166
785.951
865.144
953.874
1045.23
1125.81
1178.99
1190.92
417.39
420.485
425.387
431.524
437.008
441.827
446.708
452.115
457.911
462.844
468.631
475.055
481.787
488.496
495.811
505.175
519.065
538.952
565.107
599.011
643.196
692.823
750.349
819.432
898.513
983.584
1070.23
1146.07
1195.22
1203.17
419.433
422.332
427.267
432.62
438.658
443.259
448.455
454.077
460.291
465.198
471.221
477.589
484.14
490.829
499.303
511.573
529.747
554.996
586.412
625.15
673.283
725.442
786.138
856.725
934.782
1016.16
1096.77
1166.58
1211.07
1217.18
421.229
424.217
428.764
433.994
439.433
444.554
449.695
455.706
461.802
467.58
473.838
480.031
486.311
494.001
505.315
522.119
545.541
576.472
613.475
657.298
708.395
762.209
825.872
896.944
972.925
1051.18
1125.21
1187.59
1226.42
1228.83
423.494
426.576
431.047
436.385
441.036
446.799
451.838
458.322
464.433
471.053
477.478
483.5
490.245
500.24
515.446
537.636
566.977
603.356
645.717
694.167
747.442
803.504
868.237
938.742
1012.7
1087.13
1154.79
1209.25
1241.36
1239.7
425.052
428.105
432.543
437.523
442.944
448.108
454.164
460.976
467.444
474.228
480.726
487.377
496.205
509.856
530.288
558.2
593.3
634.992
682.475
734.694
789.181
848.72
912.953
981.638
1053.42
1123.76
1184.81
1231.56
1256.24
1249.36
427.337
430.265
434.585
439.127
445.118
450.263
457.158
463.72
470.971
477.816
484.388
492.553
505.13
523.941
550.238
583.963
624.447
670.689
722.438
777.64
833.587
895.717
959.021
1025.34
1094.55
1160.42
1214.57
1253.58
1270.9
1259.2
429.95
432.658
436.832
441.208
446.297
452.523
459.337
466.11
473.763
480.811
488.289
499.43
516.973
542.041
574.26
613.5
659.248
709.579
763.967
821.142
880.206
943.011
1004.45
1069.05
1135.23
1196.24
1243.57
1274.71
1284.84
1267.63
432.099
434.661
438.739
443.364
448.209
454.75
461.605
468.938
476.645
484.026
493.832
509.432
532.535
564.057
602.264
646.294
696.356
750.679
806.964
864.517
926.876
988.976
1050.23
1112.24
1175.09
1230.85
1271.6
1294.61
1298
1274.41
433.848
436.185
440.287
444.95
449.958
456.676
463.647
471.468
479.094
487.547
501.12
522.199
551.717
589.437
633.427
681.794
735.357
792.968
850.779
909.718
972.228
1034.5
1095.09
1155
1213.78
1264.05
1298.22
1312.98
1310.48
1279.57
435.509
437.45
441.664
446.472
451.805
458.774
466.133
473.856
481.823
492.781
511.141
537.81
574.015
617.603
666.842
719.367
775.933
835.834
895.125
956.302
1017.34
1079.1
1138.78
1196.35
1250.77
1295.93
1322.71
1329.77
1321.81
1281.59
436.716
438.229
442.501
447.602
453.636
460.733
468.332
475.961
484.965
499.841
523.91
556.59
598.987
648.249
702.291
758.633
817.899
879.025
940.386
1002.68
1062.47
1122.95
1181.27
1236.33
1286.03
1325.78
1345.01
1345.55
1331.96
1283.75
438.475
440.183
443.875
448.784
455.38
462.737
470.151
477.717
488.939
509.231
539.303
578.407
626.746
681.322
739.934
799.666
861.242
922.972
986.421
1049.15
1107.31
1165.93
1222.38
1274.67
1319.72
1353.14
1365.36
1360.98
1340.32
1282.28
441.104
442.827
446.545
450.611
456.896
464.51
471.634
480.029
495.117
521.162
557.568
602.592
656.746
716.496
779.382
841.975
905.639
968.132
1032.86
1094.66
1152.11
1208.62
1262.4
1311.12
1351.19
1378.08
1383.93
1375.82
1347.68
1282.13
443.319
445.72
448.644
453.049
458.896
466.296
473.461
484.255
504.486
535.793
578.468
629.347
688.908
753.414
819.781
884.672
950.863
1015.77
1077.99
1138.9
1196.13
1250.67
1301.23
1345.57
1380.3
1401.05
1402.64
1391
1356.28
1265.72
445.785
447
450.263
455.54
461.39
468.248
476.364
491.029
516.942
553.984
602.539
658.733
723.077
791.737
860.42
927.248
996.629
1060.88
1122.7
1182.44
1238.98
1291.39
1338.36
1377.82
1407.12
1422.67
1422.13
1411.82
1384.13
1278.99
998.575
1018.95
1039.86
1066.84
1097.29
1130.6
1167.18
1204.86
1243.51
1282.27
1320.32
1357.16
1392.34
1425.67
1457.05
1486.39
1513.68
1538.94
1562.31
1583.94
1604.05
1622.63
1639.7
1655.4
1669.66
1682.7
1694.7
1705.7
1715.71
1724.77
1732.91
1740.14
1746.46
1751.89
1756.42
1760.08
1762.85
1764.69
1765.72
1766.25
1765.14
1763.42
1760.77
1757.19
1752.63
1747.09
1740.46
1732.79
1724.08
1714.29
1703.41
1691.4
1678.26
1663.97
1648.47
1631.76
1613.8
1594.61
1574.15
1552.41
1529.37
1505.01
1479.32
1452.31
1424.01
1394.43
1363.67
1331.79
1298.92
1265.22
1230.84
1195.87
1160.43
1124.58
1088.53
1052.29
1015.81
979.347
942.633
906.177
869.542
833.138
798.742
765.825
734.183
704.75
676.817
650.636
626.665
604.602
584.638
566.977
551.069
537.137
525.241
514.556
505.994
498.521
491.941
486.469
481.962
478.048
474.674
472.036
469.739
467.574
466.052
464.853
463.652
462.54
461.846
461.311
460.677
460.071
459.671
459.483
459.354
459.019
458.322
457.322
456.101
454.6
452.265
449.301
447.773
1135.92
1154.77
1178.16
1205.42
1235.65
1268.26
1302.7
1338.1
1373.83
1409.24
1443.72
1476.85
1508.32
1538.01
1565.84
1591.83
1615.98
1638.37
1659.14
1678.42
1696.26
1712.83
1728.1
1742.15
1755.08
1767
1777.98
1788.1
1797.38
1805.85
1813.48
1820.3
1826.31
1831.49
1835.84
1839.37
1842.09
1844
1845.06
1845.37
1844.75
1843.29
1840.98
1837.79
1833.71
1828.73
1822.96
1815.94
1808.02
1799.09
1789.12
1778.11
1766.03
1752.9
1738.7
1723.43
1707.05
1689.53
1670.86
1651.05
1630.1
1608
1584.75
1560.37
1534.89
1508.32
1480.67
1451.9
1422.05
1391.3
1359.8
1327.63
1294.71
1261.16
1227.09
1192.56
1157.62
1122.5
1087.2
1051.78
1016.47
981.68
947.828
915.019
883.429
852.713
822.722
794.232
767.104
741.047
716.041
692.036
668.876
646.636
625.496
605.408
586.749
569.439
553.549
539.135
526.296
515.045
505.142
496.641
489.272
483.246
478.253
474.357
471.252
468.457
466.513
465.205
463.762
462.607
461.861
461.36
460.925
460.429
459.698
458.553
457.246
455.584
453.102
450.161
448.459
1241.15
1259.96
1284.14
1311.34
1340.91
1372.32
1404.98
1438.23
1471.46
1504.13
1535.76
1566.02
1594.7
1621.71
1647.02
1670.66
1692.67
1713.15
1732.2
1749.93
1766.47
1781.84
1796.11
1809.35
1821.61
1832.99
1843.53
1853.3
1862.31
1870.58
1878.09
1884.85
1890.84
1896.04
1900.46
1904.11
1906.97
1909.07
1910.35
1910.85
1910.58
1909.5
1907.61
1904.88
1901.31
1896.89
1891.59
1885.34
1878.15
1870.01
1860.93
1850.99
1839.81
1827.7
1814.56
1800.33
1785.04
1768.67
1751.29
1732.87
1713.43
1692.94
1671.39
1648.79
1625.2
1600.66
1575.17
1548.79
1521.58
1493.49
1464.46
1434.58
1404.16
1373.29
1342.01
1310.32
1278.22
1245.79
1213.08
1180.18
1147.25
1114.68
1082.72
1051.45
1020.94
990.957
961.473
932.733
904.526
876.624
849.845
823.319
797.205
771.63
746.739
722.527
699.175
676.543
654.702
633.614
613.355
594.113
575.913
559.07
543.396
529.494
516.952
506.247
497.265
489.049
482.668
478.204
473.806
470.658
468.58
467.075
466.104
465.301
464.24
462.731
461.267
459.296
456.811
453.712
451.712
1341.04
1360.22
1384.48
1411.29
1439.95
1470
1500.89
1532.06
1563
1593.25
1622.44
1650.31
1676.71
1701.58
1724.93
1746.79
1767.22
1786.3
1804.15
1820.87
1836.49
1851.09
1864.79
1877.62
1889.59
1900.77
1911.22
1921.01
1930.11
1938.52
1946.22
1953.18
1959.4
1964.88
1969.61
1973.59
1976.81
1979.29
1981.03
1981.96
1982.18
1981.66
1980.36
1978.27
1975.36
1971.61
1967.01
1961.51
1955.1
1947.78
1939.54
1930.36
1920.16
1908.98
1896.82
1883.7
1869.71
1854.48
1838.32
1821.16
1802.9
1783.58
1763.27
1742.05
1719.93
1696.96
1673.06
1648.26
1622.63
1596.25
1569.17
1541.41
1512.88
1483.63
1453.95
1423.87
1393.52
1362.99
1332.35
1301.67
1270.98
1240.41
1210.06
1180.07
1150.44
1121.21
1092.49
1064.32
1036.51
1008.96
981.847
954.941
927.935
901.363
875.158
849.039
823.327
797.962
772.963
748.339
724.183
700.613
677.512
655.136
633.248
612.23
591.811
572.504
554.627
537.425
522.253
510.481
499.285
490.539
483.898
479.007
475.544
473.112
471.106
468.959
467.287
465.429
462.967
459.917
457.965
1441.02
1460.84
1485.06
1511.09
1538.6
1567.17
1596.27
1625.45
1654.24
1682.28
1709.3
1735.09
1759.57
1782.68
1804.44
1824.91
1844.15
1862.24
1879.23
1895.29
1910.42
1924.73
1938.29
1951.07
1963.08
1974.4
1985.13
1995.26
2004.76
2013.61
2021.77
2029.22
2035.96
2041.96
2047.22
2051.74
2055.53
2058.59
2060.94
2062.57
2063.41
2063.59
2063.03
2061.68
2059.52
2056.52
2052.66
2047.92
2042.28
2035.71
2028.21
2019.74
2010.3
1999.9
1988.55
1976.26
1963.03
1948.78
1933.53
1917.3
1900.08
1881.97
1862.63
1842.38
1821.19
1798.93
1775.66
1751.65
1726.91
1701.49
1675.36
1648.57
1621.17
1593.45
1565.13
1536.19
1506.93
1477.5
1448.03
1418.57
1389.23
1360.14
1331.35
1302.91
1274.79
1246.93
1219.27
1191.83
1164.55
1137.4
1110.35
1083.38
1056.53
1029.86
1003.34
976.775
950.013
923.598
897.165
870.625
844.213
817.968
791.792
765.839
740.006
714.35
688.971
664.138
640.17
616.186
592.994
572.754
552.25
533.334
517.402
505.3
496.392
489.315
483.528
478.278
474.608
472.168
470.142
466.876
464.172
1540.96
1561.4
1585.5
1610.82
1637.15
1664.21
1691.6
1718.91
1745.77
1771.89
1797.06
1821.13
1844.03
1865.75
1886.31
1905.76
1924.18
1941.65
1958.24
1974.02
1989.08
2003.53
2017.34
2030.45
2042.78
2054.58
2065.92
2076.71
2086.91
2096.5
2105.44
2113.65
2121.1
2127.82
2133.81
2139.06
2143.57
2147.37
2150.46
2152.84
2154.53
2155.41
2155.6
2155.04
2153.63
2151.35
2148.17
2144.07
2139.05
2133.07
2126.11
2118.18
2109.27
2099.41
2088.62
2076.89
2064.2
2050.47
2035.69
2019.85
2002.95
1984.99
1965.93
1945.88
1924.91
1903.21
1880.09
1856.37
1831.79
1806.31
1779.97
1753.18
1726
1698.54
1670.73
1642.7
1614.38
1585.74
1557.09
1528.47
1500.01
1471.83
1443.96
1416.43
1389.25
1362.46
1335.98
1309.75
1283.68
1257.69
1231.67
1205.51
1179.16
1152.68
1126.11
1099.35
1072.33
1045.28
1018.16
990.938
963.464
936.163
908.783
880.907
852.782
824.467
796.059
767.755
739.613
711.269
682.539
655.424
629.014
602.173
576.924
556.22
539.005
523.492
510.508
499.26
489.759
482.858
478.139
473.528
470.595
1639.35
1660.48
1684.66
1709.25
1734.55
1760.34
1786.21
1811.89
1837.12
1861.66
1885.34
1908.08
1929.81
1950.53
1970.27
1989.1
2007.1
2024.33
2040.87
2056.81
2072.24
2087.2
2101.56
2115.23
2128.27
2140.84
2153.05
2164.78
2175.9
2186.4
2196.22
2205.32
2213.58
2221.12
2227.96
2234.02
2239.32
2243.87
2247.68
2250.72
2253.14
2254.78
2255.57
2255.69
2254.95
2253.24
2250.6
2246.99
2242.4
2236.81
2230.2
2222.6
2214.05
2204.58
2194.19
2182.82
2170.41
2156.88
2142.17
2126.23
2109.06
2090.64
2071.05
2050.38
2028.7
2006.06
1982.43
1957.94
1932.71
1906.99
1879.97
1852.85
1825.2
1797.1
1768.69
1740.3
1712.01
1683.89
1655.8
1627.76
1599.83
1572.22
1545.02
1518.28
1491.95
1466
1440.36
1414.97
1389.72
1364.54
1339.43
1314.33
1289.15
1263.82
1238.3
1212.46
1186.25
1159.64
1132.64
1105.3
1077.63
1049.75
1021.51
992.539
963.778
934.596
904.759
874.679
844.226
813.211
781.398
749.651
718.867
687.092
655.308
627.533
601.95
578.016
556.81
537.912
520.504
506.243
495.708
487.004
480.752
1735.1
1757.16
1781.41
1805.33
1829.75
1854.48
1879.21
1903.68
1927.68
1951.04
1973.62
1995.38
2016.31
2036.42
2055.74
2074.32
2092.23
2109.56
2126.37
2142.78
2158.85
2174.52
2189.56
2203.93
2217.73
2231.16
2244.29
2256.92
2268.92
2280.23
2290.79
2300.57
2309.55
2317.79
2325.27
2331.95
2337.79
2342.79
2346.96
2350.02
2352.93
2354.88
2356.08
2356.57
2356.27
2354.95
2352.66
2349.38
2345.11
2339.8
2333.47
2326.23
2318.14
2309.21
2299.37
2288.5
2276.46
2263.14
2248.5
2232.38
2214.77
2195.59
2175.05
2153.29
2130.35
2106.32