/*--------------------------------*- C++ -*----------------------------------*\
| =========                 |                                                 |
| \\      /  F ield         | OpenFOAM: The Open Source CFD Toolbox           |
|  \\    /   O peration     | Version:  2112                                  |
|   \\  /    A nd           | Website:  www.openfoam.com                      |
|    \\/     M anipulation  |                                                 |
\*---------------------------------------------------------------------------*/
FoamFile
{
    version     2.0;
    format      ascii;
    arch        "LSB;label=32;scalar=64";
    class       volScalarField;
    location    "0.01073";
    object      p;
}
// * * * * * * * * * * * * * * * * * * * * * * * * * * * * * * * * * * * * * //

dimensions      [1 -1 -2 0 0 0 0];

internalField   nonuniform List<scalar> 
13875
(
951599
984302
973583
975862
973697
974202
974883
974688
975053
975152
975081
975000
974663
974777
974830
974698
974632
975333
975172
973966
973387
975629
972323
982625
945270
733803
659565
672173
677159
669277
669586
677031
678689
679562
679831
679793
678554
670208
669145
670397
678028
679297
679307
677542
669947
669564
676894
672181
657340
730660
736893
635538
664321
653694
649148
647769
647561
647253
646658
647291
648006
649121
645423
645326
645229
648899
646253
648231
647933
647650
648548
652156
661937
632188
733369
743538
636183
665204
653852
649453
647942
646614
644855
644196
644159
643637
644780
645460
645428
645258
644542
643507
644624
646119
647799
648831
652281
662688
632790
739031
757373
639191
667755
654559
650314
648424
646726
644950
644285
644289
643671
644810
645591
645693
645381
644573
643604
644704
646241
648233
649615
652873
664981
635423
750187
759057
647851
673519
656525
652116
649422
647104
645267
644533
644663
643815
644934
645867
646223
645643
644701
643888
644969
646642
649159
651290
654745
670579
643144
751744
765069
668363
685738
661421
655767
651419
648020
645990
645073
645124
644228
645308
646454
646804
646150
645009
644517
645675
647723
651214
654929
660351
682137
665824
755892
791257
718401
711650
674732
663540
655744
650275
647630
646251
646076
645227
646144
647604
647974
647225
645826
645802
647166
649967
655325
662304
673150
707163
715323
781975
908692
827972
766513
704331
679032
664268
655064
650953
648724
648107
647432
648066
649913
650327
649455
647825
648425
650292
654578
663396
676955
700923
760316
823175
909966
1.52421e+06
1.02959e+06
833567
739230
697269
674447
661984
656324
653371
652320
652000
652326
654466
654929
654060
652398
653409
655835
661561
673900
695755
736832
829496
1.02538e+06
1.51755e+06
2.90565e+06
1.39307e+06
957464
796082
725202
690919
674467
666560
662670
661159
660996
660951
663068
663674
663097
661905
663079
666245
673627
689588
722270
789346
941139
1.3514e+06
2.86099e+06
5.60436e+06
2.34529e+06
1.28762e+06
936083
788733
727546
700963
688438
682522
680057
679407
679019
680559
681468
681498
681635
683497
688686
700669
726991
786862
925913
1.25234e+06
2.27442e+06
5.57425e+06
5.38962e+06
4.83995e+06
2.31774e+06
1.40157e+06
978229
826998
766131
740607
728900
723575
721401
720455
720758
722045
723276
725768
730926
742517
769158
834652
989994
1.3871e+06
2.18294e+06
4.875e+06
5.34277e+06
4.83925e+06
4.6482e+06
4.722e+06
3.99969e+06
1.63762e+06
1.1343e+06
954215
885118
853654
838664
831992
828983
827731
829423
833122
841159
858295
894334
975578
1.20167e+06
1.83518e+06
4.0332e+06
4.68854e+06
4.71726e+06
4.76296e+06
4.03041e+06
4.12917e+06
4.5043e+06
4.25855e+06
4.00847e+06
2.47755e+06
1.65816e+06
1.376e+06
1.26435e+06
1.21742e+06
1.19832e+06
1.19048e+06
1.18768e+06
1.18973e+06
1.19729e+06
1.21706e+06
1.26589e+06
1.38464e+06
1.69424e+06
2.68826e+06
4.11552e+06
4.24498e+06
4.51095e+06
4.2853e+06
4.26717e+06
3.53432e+06
3.46101e+06
3.92672e+06
4.0593e+06
4.27587e+06
4.34689e+06
3.68654e+06
3.05596e+06
2.84437e+06
2.67864e+06
2.57469e+06
2.53535e+06
2.52045e+06
2.52622e+06
2.55627e+06
2.63952e+06
2.84863e+06
3.0473e+06
3.75472e+06
4.39046e+06
4.23724e+06
4.07893e+06
4.05355e+06
3.57132e+06
3.74828e+06
2.5529e+06
2.69443e+06
3.05888e+06
3.4949e+06
4.21078e+06
5.17061e+06
6.80231e+06
7.60649e+06
7.9576e+06
8.05301e+06
8.1204e+06
8.13536e+06
8.14971e+06
8.14249e+06
8.14172e+06
8.08614e+06
7.98805e+06
7.68155e+06
6.81416e+06
5.10208e+06
4.19986e+06
3.56014e+06
3.1497e+06
2.81754e+06
2.70412e+06
1.43557e+06
1.72163e+06
2.31436e+06
3.00308e+06
4.18307e+06
5.59609e+06
6.78403e+06
7.42766e+06
7.66252e+06
7.63238e+06
7.55344e+06
7.48835e+06
7.47263e+06
7.49004e+06
7.5596e+06
7.66374e+06
7.72642e+06
7.49251e+06
6.81339e+06
5.5786e+06
4.11958e+06
2.93325e+06
2.1922e+06
1.622e+06
1.34484e+06
696376
1.02916e+06
1.70866e+06
2.60788e+06
4.08673e+06
5.15852e+06
5.84156e+06
6.34508e+06
6.50636e+06
6.47793e+06
6.43349e+06
6.44751e+06
6.46682e+06
6.4664e+06
6.45511e+06
6.51601e+06
6.59161e+06
6.47661e+06
6.05833e+06
5.40083e+06
4.12101e+06
2.67341e+06
1.72816e+06
1.04266e+06
705059
382723
616975
1.13541e+06
2.20323e+06
3.63653e+06
4.35315e+06
4.68807e+06
5.01939e+06
5.24066e+06
5.3973e+06
5.5431e+06
5.65575e+06
5.694e+06
5.66721e+06
5.55784e+06
5.40123e+06
5.23311e+06
5.01418e+06
4.73838e+06
4.43593e+06
3.67168e+06
2.19922e+06
1.13312e+06
608542
375008
955160
979040
1.17135e+06
1.89069e+06
2.89826e+06
3.38969e+06
3.71785e+06
4.10303e+06
4.42717e+06
4.6597e+06
4.83602e+06
4.94227e+06
4.96622e+06
4.94253e+06
4.82998e+06
4.6322e+06
4.36556e+06
4.02777e+06
3.68124e+06
3.40564e+06
2.87582e+06
1.86055e+06
1.14872e+06
973611
963574
1.01692e+06
977553
1.15689e+06
1.607e+06
2.16937e+06
2.62126e+06
3.02059e+06
3.45627e+06
3.79571e+06
4.03287e+06
4.20181e+06
4.29056e+06
4.30544e+06
4.28331e+06
4.18628e+06
3.99605e+06
3.72582e+06
3.37057e+06
2.93516e+06
2.60313e+06
2.12743e+06
1.55989e+06
1.12532e+06
949122
989310
1.12443e+06
1.01802e+06
1.13251e+06
1.34371e+06
1.69204e+06
2.08515e+06
2.52484e+06
2.95637e+06
3.26497e+06
3.48474e+06
3.63056e+06
3.7042e+06
3.71761e+06
3.69295e+06
3.6071e+06
3.44123e+06
3.19882e+06
2.89148e+06
2.42044e+06
2.05865e+06
1.65438e+06
1.30951e+06
1.10411e+06
1.00902e+06
1.14139e+06
1.31958e+06
1.15019e+06
1.13508e+06
1.18976e+06
1.43965e+06
1.77754e+06
2.13242e+06
2.53024e+06
2.80311e+06
3.00488e+06
3.12809e+06
3.19312e+06
3.20685e+06
3.18139e+06
3.1056e+06
2.96157e+06
2.74399e+06
2.47205e+06
2.05851e+06
1.73481e+06
1.39363e+06
1.15249e+06
1.11052e+06
1.15954e+06
1.30932e+06
1.37631e+06
1.28013e+06
1.14303e+06
1.13012e+06
1.29499e+06
1.55696e+06
1.83741e+06
2.16728e+06
2.40171e+06
2.58218e+06
2.69695e+06
2.75563e+06
2.76942e+06
2.74577e+06
2.67844e+06
2.55138e+06
2.35638e+06
2.1219e+06
1.78716e+06
1.5136e+06
1.24667e+06
1.10908e+06
1.12309e+06
1.28916e+06
1.36481e+06
1.4331e+06
1.38444e+06
1.15962e+06
1.13068e+06
1.20429e+06
1.39665e+06
1.60699e+06
1.87506e+06
2.07227e+06
2.22905e+06
2.33212e+06
2.38306e+06
2.3956e+06
2.37481e+06
2.31663e+06
2.2024e+06
2.03385e+06
1.83587e+06
1.57383e+06
1.36677e+06
1.16546e+06
1.10957e+06
1.13883e+06
1.37089e+06
1.40842e+06
1.47525e+06
1.41484e+06
1.17865e+06
1.13076e+06
1.14999e+06
1.27185e+06
1.42829e+06
1.63613e+06
1.79869e+06
1.93108e+06
2.02151e+06
2.06632e+06
2.07909e+06
2.05984e+06
2.00706e+06
1.90874e+06
1.76462e+06
1.60294e+06
1.39674e+06
1.24386e+06
1.11929e+06
1.10969e+06
1.16572e+06
1.40915e+06
1.44986e+06
1.56306e+06
1.48562e+06
1.21331e+06
1.12752e+06
1.10933e+06
1.17494e+06
1.27977e+06
1.43954e+06
1.56929e+06
1.681e+06
1.75771e+06
1.79728e+06
1.81094e+06
1.7941e+06
1.75132e+06
1.66945e+06
1.55e+06
1.41647e+06
1.25834e+06
1.15365e+06
1.08881e+06
1.10831e+06
1.20366e+06
1.48542e+06
1.53643e+06
1.67438e+06
1.60365e+06
1.25556e+06
1.11665e+06
1.07996e+06
1.09775e+06
1.16068e+06
1.27993e+06
1.38469e+06
1.47523e+06
1.53804e+06
1.57341e+06
1.58466e+06
1.56951e+06
1.52944e+06
1.46268e+06
1.36491e+06
1.26112e+06
1.1449e+06
1.0846e+06
1.06468e+06
1.09824e+06
1.22993e+06
1.53944e+06
1.58357e+06
1.7324e+06
1.71674e+06
1.30096e+06
1.10917e+06
1.04877e+06
1.04472e+06
1.06656e+06
1.14963e+06
1.22885e+06
1.30269e+06
1.35385e+06
1.38238e+06
1.39282e+06
1.37828e+06
1.34623e+06
1.29278e+06
1.215e+06
1.13243e+06
1.04969e+06
1.02778e+06
1.03333e+06
1.0898e+06
1.2707e+06
1.63152e+06
1.66487e+06
1.73532e+06
1.72294e+06
1.33919e+06
1.10604e+06
1.01556e+06
992978
991824
1.03934e+06
1.09861e+06
1.15613e+06
1.19714e+06
1.22255e+06
1.23045e+06
1.22022e+06
1.19201e+06
1.14945e+06
1.08913e+06
1.03008e+06
980299
981694
1.00206e+06
1.08289e+06
1.3013e+06
1.65991e+06
1.69929e+06
1.7441e+06
1.72234e+06
1.40949e+06
1.10665e+06
979772
937866
929235
954405
994332
1.03741e+06
1.06833e+06
1.08618e+06
1.09286e+06
1.08446e+06
1.06349e+06
1.03039e+06
985487
944597
919890
926801
965615
1.08267e+06
1.35396e+06
1.65971e+06
1.70213e+06
1.75351e+06
1.71256e+06
1.4679e+06
1.10862e+06
952992
892207
878819
879984
905115
935936
958763
973164
977452
971694
953882
929884
898119
873179
869252
881775
936414
1.08426e+06
1.41229e+06
1.65864e+06
1.71056e+06
1.75299e+06
1.69803e+06
1.54158e+06
1.11773e+06
927882
849334
823019
818062
827650
849258
865520
875341
878986
874413
862908
847292
825411
812472
817184
839296
912308
1.09046e+06
1.49968e+06
1.65335e+06
1.72871e+06
1.75152e+06
1.67021e+06
1.54884e+06
1.13966e+06
917032
818184
778274
765061
764494
774901
786057
794325
796516
793558
783244
771871
761521
761625
771607
806068
897979
1.10566e+06
1.54318e+06
1.65334e+06
1.72835e+06
1.74474e+06
1.6405e+06
1.54357e+06
1.16003e+06
917630
787345
733403
715006
709396
713067
718885
723435
724971
722320
715932
712040
707272
711169
728749
779270
898698
1.13833e+06
1.54332e+06
1.65194e+06
1.72446e+06
1.73067e+06
1.61345e+06
1.53688e+06
1.20441e+06
924048
767895
700022
670728
660776
657997
660318
664337
664889
663434
658041
656385
659747
669737
696097
758176
901990
1.17929e+06
1.52774e+06
1.63778e+06
1.71261e+06
1.70285e+06
1.58485e+06
1.52408e+06
1.29218e+06
941394
753296
668702
632046
617011
612256
610793
611968
611910
611346
609135
611114
615389
627770
662835
741720
913204
1.26154e+06
1.49914e+06
1.6064e+06
1.68487e+06
1.6735e+06
1.56636e+06
1.4885e+06
1.34234e+06
959819
753704
647579
599399
579014
569880
567686
568203
567337
568349
565602
567607
577703
596959
640858
742130
940102
1.31961e+06
1.44804e+06
1.54809e+06
1.6537e+06
1.61941e+06
1.5436e+06
1.42499e+06
1.34109e+06
1.00032e+06
759489
628785
570605
545312
534717
530047
528735
528027
528639
529154
533840
543522
566291
621656
745172
973489
1.31813e+06
1.38418e+06
1.50354e+06
1.63703e+06
1.56315e+06
1.51194e+06
1.36676e+06
1.33695e+06
1.081e+06
774722
628819
551761
518310
502181
496972
496346
494058
496044
495893
500048
515937
547628
621580
755309
1.03996e+06
1.31388e+06
1.34164e+06
1.48828e+06
1.6045e+06
1.52211e+06
1.47677e+06
1.31606e+06
1.31879e+06
1.18106e+06
793452
630878
538639
495012
476618
468597
465513
463991
465198
467939
475693
492156
531773
625099
780890
1.17786e+06
1.30462e+06
1.31351e+06
1.48121e+06
1.53859e+06
1.47771e+06
1.44284e+06
1.28314e+06
1.28178e+06
1.18015e+06
833824
640145
538860
480209
452859
443282
440768
437649
440434
442322
451032
477084
528283
630466
815368
1.17677e+06
1.28105e+06
1.29165e+06
1.4594e+06
1.46988e+06
1.43178e+06
1.39745e+06
1.25471e+06
1.2212e+06
1.17263e+06
914601
660890
541370
471091
436466
422396
416671
414082
416236
421668
434610
465553
529399
644749
884092
1.16999e+06
1.23421e+06
1.27168e+06
1.41478e+06
1.40876e+06
1.39978e+06
1.35623e+06
1.23161e+06
1.16388e+06
1.14733e+06
1.03106e+06
693254
545833
471312
424582
404492
397836
393923
397784
402103
419540
465707
536258
678044
1.02667e+06
1.15445e+06
1.18216e+06
1.23641e+06
1.34157e+06
1.36453e+06
1.36038e+06
1.32011e+06
1.21098e+06
1.11943e+06
1.09646e+06
1.02809e+06
762087
561093
474085
421806
393450
381091
376783
380371
391463
414766
467102
548997
735142
1.02533e+06
1.11756e+06
1.13357e+06
1.20798e+06
1.30167e+06
1.33645e+06
1.31312e+06
1.27481e+06
1.19146e+06
1.0828e+06
1.04421e+06
1.01751e+06
902224
593633
481506
422513
387968
371869
362059
370663
384471
414978
472073
575345
850578
1.01563e+06
1.05888e+06
1.09155e+06
1.18793e+06
1.27212e+06
1.30468e+06
1.26647e+06
1.23584e+06
1.16879e+06
1.0581e+06
998805
990147
901006
652297
494475
424372
388154
367610
354993
364876
384678
417516
486213
632328
892272
992842
1.00861e+06
1.06127e+06
1.17569e+06
1.23944e+06
1.25889e+06
1.17279e+06
1.18023e+06
1.13772e+06
1.03666e+06
960638
939857
894677
774816
521694
432252
389853
367850
355067
365042
385698
424024
512820
744107
888837
944957
966392
1.04349e+06
1.15231e+06
1.18116e+06
1.17366e+06
1.03622e+06
1.10201e+06
1.08148e+06
1.01356e+06
933459
892884
875442
795448
577687
451860
395593
369343
355891
366181
390041
440303
567324
797992
874566
892075
934488
1.0238e+06
1.10494e+06
1.10005e+06
1.04162e+06
98659.7
100452
99814.2
100571
100237
100171
99229.8
98750.1
98150.5
97892.3
97526.3
96332.8
95273
94235.2
93157.7
92304.2
91502.5
90817.9
90130
89309.3
88490.6
88120.8
87740.9
87545.5
87474.2
87661.1
88168.2
88814.2
89172.1
89262.9
98337.9
100446
99713.5
100326
99816.7
99729.3
98883.2
98366.3
97950.8
97823.4
97439.8
96311.7
95261.4
94229.1
93224.3
92377
91578.4
90861.4
90183.2
89342.7
88950.8
88511.4
88211.6
88106.8
88104.3
88181.2
88573.4
89001.7
89154.7
89276.7
98577.6
100491
99693.5
100226
99591.6
99442
98514.8
97955.9
97814.9
97786.9
97384.4
96286
95266
94238.1
93235.9
92393
91596.8
90868.2
90190.4
89683.3
89266.6
88969.4
88770.3
88717.3
88800.2
88924.3
89033.3
89093.3
89168.8
89428.3
99385.4
100528
99766.8
100193
99448.6
99138.3
98058.7
97697.6
97544.1
97495.5
96980.4
95955
95157.9
94181
93235.5
92400.4
91608.8
90865.9
90210.8
89868.2
89457.7
89196.6
89099.1
89102.5
89262.3
89336.7
89264.9
89223.3
89127.4
89380.8
100133
100567
99846.3
100190
99275.1
98589.9
97656.9
97312.9
97207.4
97172.6
96677
95791.6
95129.9
94173.5
93236.1
92405.3
91616
90801.8
90225.3
89950.9
89709.4
89529.3
89469.2
89563.2
89747.9
89876.9
89668.7
89442.8
89233.2
89155.9
100795
100585
99872.6
100137
99073.6
97945.2
97116.4
96877.7
96780.3
96773.8
96278.1
95505
94907.1
93954
93099.1
92331.8
91530.4
90663.1
90207.4
89979.9
89905.4
89832.9
89834
89970.7
90146.7
90293.8
89986.4
89556.6
89300.3
89143
101476
100592
99873.1
100004
98789.8
97274.8
96505.5
96284.5
96222.6
96226.4
95684.6
94946.5
94323.1
93398.2
92606.1
91881.3
91093.2
90414
90099.8
89987.3
90019.5
90101.3
90300.3
90484.5
90566.5
90435.9
90067
89663.2
89417.4
89169.4
101838
100486
99698.6
99720.1
98379.7
96585.4
95770.2
95531.3
95468.9
95449.2
94764
93939
93185.9
92227.7
91468.3
90824.7
90303.8
90060.5
89979
89988.6
90078.3
90304.9
90617.3
90755.1
90791
90562.5
90177.3
89804.6
89481.4
89187.2
102003
100113
99327.2
99226.9
97845.2
95868.9
94921.3
94591.1
94461.1
94395
93488.6
92543.7
91635.5
90742
90150.3
89876.9
89781
89761.9
89846.5
90016.2
90330.4
90672.4
90856.6
90911
90895.4
90622
90239.6
89997.8
89604.9
89291.4
102064
99668.5
98798.3
98553.8
97182
95123.3
93944.6
93462.1
93241
93116.1
92025.7
90923.3
89944.7
89408
89180.4
89120.7
89245.6
89408.1
89665
90023.9
90443.9
90904.5
91045.5
91059.2
91004
90673.9
90410.2
90153.1
89751.8
90037.4
102043
99124.4
98111.6
97718.7
96377.2
94313.3
92860.2
92201.2
91887.4
91698.9
90390.9
89205.6
88638.9
88410.2
88349.6
88396.3
88718.3
88980.2
89426.2
90020.9
90483.9
91062.3
91306.8
91373.7
91353.8
91106.8
90680.5
90461.3
90403.7
90367.4
101634
98439.8
97258.9
96727.3
95421.7
93474.7
91686.7
90839.9
90427.8
90108.8
88653.7
87909.5
87581.5
87469
87451.2
87700.8
88132.3
88498.4
89088.3
89813.3
90486.8
91114.7
91422.3
91522
91529.7
91341.5
91067.8
90892.6
90752.5
90554.4
100960
97594.4
96208.7
95568.8
94294.9
92507.2
90462.7
89442.7
88908.4
88246.9
87183.5
86719
86544.7
86500.3
86524.1
86949.9
87466.3
87928.5
88672.5
89526.9
90318.6
91112.3
91450.3
91570.2
91600.2
91451.1
91207.7
91036.3
90952.2
90784
100095
96649.8
95080.8
94280.8
92930.4
91210.3
89237
88169
87424
86563
85836.2
85529.4
85430.3
85411.6
85570.5
86131.8
86720.2
87288
88167.2
89112.7
89947.5
90785
91335.2
91570.3
91614
91482.2
91236.2
91056.7
91039.3
90930
98644.3
95429.9
93869
92864.8
91528.3
89764.4
87935.8
86868
86002.6
85006.7
84517
84327.3
84272.9
84268.9
84587.4
85264.8
85925.1
86604.2
87616
88667.7
89620.3
90461.6
91087.1
91428
91552.8
91480.5
91177.8
91063.3
91068.7
91003.1
97258.3
93910.9
92532.9
91337.5
90033.8
88268.1
86564.3
85483.9
84448.2
83604.1
83237.6
83120
83092.7
83098.5
83565.7
84364.1
85091.7
85879.6
87002
88133.2
89156.9
90112.2
90842.8
91190
91295.8
91206.4
91035.5
91095.3
91078.4
91089.3
95513.2
92408.2
91007.2
89752.8
88454.6
86761.6
85140.1
84034.3
82890.3
82240.6
81963.1
81879.7
81861.9
81929.7
82548.9
83447.1
84241.6
85130.2
86336.3
87522.2
88595.2
89591.4
90413.9
90803.9
90935.6
90826.3
90886.2
91045.6
91102.3
91161
93832
90840.8
89378.4
88118.3
86821.6
85221
83714.5
82514
81417
80883
80684.3
80637.3
80622.1
80795.9
81543.9
82535.4
83383.5
84359.5
85621.2
86837.3
87928.7
88922.8
89737
90134.3
90308.5
90444.6
90817
91028.8
91215
91353
91687.9
89033.4
87772.4
86375.4
85177.4
83657.5
82303.6
80985.9
80024.3
79569.8
79415.9
79390.9
79463.4
79702.7
80559
81643.7
82533.2
83580.9
84870
86083.8
87151.2
88068.2
88777.2
89228.2
89551.6
90264
90790.1
91040.1
91329.2
91415
89815.1
87291.1
86107.9
84611.7
83557
82099.5
80909.9
79514.8
78683.2
78296.5
78172.9
78152.4
78361.4
78663.5
79601.1
80779.1
81704.2
82795.6
84081.5
85259.2
86280.2
87150.8
87840.6
88449
89176.8
90181.1
90783.6
91041.8
91374.9
91494.5
87359.8
85338.7
84359.5
83008.8
81993.7
80601.6
79525.7
78110.9
77397.3
77079.5
76991.4
76975.3
77317.5
77706.4
78696.7
79940.2
80900.6
81996.5
83254
84379.4
85372
86272.5
87102.7
87986.9
88990.9
90137.5
90779.8
91035.6
91385.9
91555.2
85364.5
83590.6
82725.5
81403.5
80328.6
79183
78135.5
76834.3
76191
75911.6
75845.3
75895.9
76312.1
76826.5
77825.7
79114.4
80128.5
81192.1
82398.7
83476.8
84478.3
85474.6
86488.9
87596.9
88775.1
89848.6
90354.7
90885.5
91383
91633.9
82439.6
81814.7
81175.4
79917.7
78948.5
77876.6
76840
75640.3
75057.7
74813.1
74758.5
74900.2
75375.9
76001.7
77028.8
78332.5
79378.3
80400
81536.7
82589.8
83627.8
84736.1
85902.1
87138.3
88352.7
89279.2
90026
90824.7
91360.2
91615.2
80719.1
80537.8
80131.6
78639.3
77681.4
76704.6
75643.8
74526.2
73996
73782.7
73739.3
73972.8
74508.9
75223.7
76260.8
77549.8
78597.2
79580.8
80658
81742.7
82845.9
84050.9
85313.3
86591.2
87791.2
88827.6
89875.6
90810.7
91328.5
91546.3
72660.6
79519.7
79514.2
77441.3
76577.3
75440.4
74596.1
73510.1
73010
72819
72784.9
73108.3
73702.6
74480.4
75480.4
76679.7
77671.2
78565.7
79647.5
80850.9
82091.3
83413.6
84767.8
86109.9
87369.3
88605.3
89809.6
90842
91331.1
91558.1
87635.6
87071.9
86681.7
86558.8
86960
86923.1
86438.2
86372.3
86607.1
87111.3
88088.5
89294.7
90126.4
90857.2
91634.6
92414.6
93373.1
94396.9
95364.7
96551.4
97027.5
97157.2
97555.9
97989.7
98652.3
98570.5
98694.6
97825.3
98483.3
96582.5
87948.2
87753.2
87028.8
87070.3
86945.3
86963.2
87024
87039.6
87301.1
87756.6
88323.6
89280.8
90176.9
90937.9
91720.7
92502.4
93415
94391.9
95345.2
96467.3
97000.4
97029.7
97230.1
97668.6
98275.2
98254.7
98597.6
97764.3
98484.3
96227
88353.9
88178.2
87793.8
88199.6
87637.3
87588.4
87767.5
87897.2
88028.5
88306.3
88743.6
89310.9
90186.4
90959.8
91743.7
92524.7
93432.2
94408.2
95342.1
96409.1
96981.8
96949
96986.7
97253.6
98016.9
98089.4
98581.8
97766
98598.8
96426
88601.8
88606.7
88547.8
88635.9
88383.3
88273.7
88365.1
88529.7
88721.1
88746.9
88911
89333
90162.2
90975.3
91756.6
92533.3
93413.8
94358.2
95097.7
96014.4
96716.6
96742.3
96781.5
96955.8
97562.9
97963.8
98587
97942
98608.6
97251.4
88835.2
89008.6
89158.2
89024
89062.7
88943.3
89018.4
89119.3
89218.3
89017
89106.5
89350.8
89987.5
90981.7
91764.6
92539.3
93406.1
94358.1
94999.2
95755
96415.7
96394.9
96437.3
96559.6
97071.7
97847.9
98568.6
98086
98654.9
97999.1
88976.4
89282.7
89535.1
89406.7
89547
89450.5
89476
89516.5
89411.6
89232.2
89171.9
89287.8
89697.4
90583.8
91450.8
92231.7
93027
93998.4
94617.4
95296.6
95918.9
95881.1
95922.9
96041
96522.5
97700.7
98561.1
98147.1
98685.4
98606.9
89043.6
89410.3
89787.9
89770.8
89973.2
89981.4
89948.6
89877.2
89578.9
89384.4
89180
89227.2
89392.4
89783.4
90513.3
91262.1
92045
93053.2
93760.7
94481
95197.7
95177.8
95212.2
95347.2
95899.4
97428.8
98487.9
98161.2
98696
99253.3
89072.7
89470.4
89921.9
90051.9
90292.1
90332.4
90260.2
90068.3
89713
89472.4
89171.6
89065.1
89078.3
89174.5
89446.9
90003.2
90688.1
91666.6
92494.1
93337.4
94246.5
94265.6
94326.3
94518.4
95184.4
97024.1
98283.2
98094.6
98681.2
99775.2
89362.3
89503
89996
90326.2
90712.7
90725.2
90593.9
90264.5
89849.9
89521.7
89165.8
88936.3
88787.7
88727.5
88760.1
88937.2
89370.8
90222.5
91112
92038
93115.1
93196.7
93325.7
93607.5
94407.7
96508
97902.1
97811
98417.5
100019
90235.3
90055.9
90372.5
90752
91096.4
91119.1
90923.1
90526
89967.8
89566.7
89165.2
88775.8
88495.4
88297.8
88114.3
88157.1
88343.1
88804.8
89703.5
90734.2
91953.4
92070.9
92237.6
92622.6
93578.7
95893.1
97335.1
97367.3
98001.9
100112
90851.1
90876.3
90928.3
91109.7
91317.3
91362.8
91270.2
90930
90289.8
89705.1
89168
88624.6
88156
87863.5
87496.2
87434.4
87491.7
87708
88243
89355.5
90792
90938.6
91126.2
91579.7
92668.4
95156.1
96596.1
96780.4
97522.6
100110
91253.2
91312.9
91341.4
91413.2
91502.7
91517.4
91431.9
91123.8
90449.8
89764.2
89163.4
88410.3
87767.3
87371.6
86908.8
86627.6
86650.2
86772.8
87118.4
87891.4
89462.1
89737.6
89968.4
90506.5
91734.9
94290.1
95712.9
96040.9
96932.1
99836.8
91458
91520.8
91542
91540.6
91588.3
91588
91502.6
91201.1
90508
89776.2
88979.6
88083.9
87289.4
86796.9
86268.5
85776
85766.2
85822.9
86039.2
86582.5
87785.5
88382.3
88706.3
89403.8
90880.2
93275.6
94647.3
95107.4
96164.8
99247.9
91588.5
91625.4
91592.2
91571.5
91616.6
91612.2
91522.4
91217.4
90512.1
89657.8
88667.6
87668
86742.3
86146.9
85560
84909.6
84769.7
84800.2
84931.7
85296.2
86142.4
87012.3
87414
88221.9
89966.3
92092
93375.7
94022.1
95325
98530.7
91688.8
91682.4
91591.8
91552.1
91620.4
91615.5
91505.6
91112.7
90252.7
89316.8
88307.8
87201.6
86150.6
85443.8
84795.6
84034.2
83684.3
83698.4
83780.5
84027.4
84630.2
85685.6
86203.9
87050.6
88732
90711.8
92062.6
92877.6
94187.4
97161.6
91673.7
91647.3
91512.1
91384.5
91351.2
91376.2
91204.8
90722.6
89881.9
88987.1
87875
86676.6
85519.7
84700.1
83991
83118.6
82573.9
82576
82621.7
82790.6
83252.9
84239.6
84932.8
85778.4
87344.9
89288.5
90582.5
91555.5
92775.7
95791.3
91680.4
91609.6
91498.2
91298.7
91064.6
91044.5
90864.5
90349.5
89521.6
88549.1
87389.9
86118.8
84871.4
83941.9
83166.4
82202.3
81458.2
81427.9
81450.5
81559.6
81918
82740.6
83550.7
84426.5
85915.3
87758.5
89007.3
90171.2
91339.5
94105.8
91746.2
91626.8
91487.7
91264.7
90878.2
90676.3
90323
89759.3
88968.2
87996.1
86820.5
85510.9
84201
83177.8
82336.6
81304.9
80386.9
80248.1
80263.2
80333.5
80586.3
81255.3
82099.2
83037.1
84456.5
86142
87364.1
88461.2
89813.4
92552
92025.6
91775.9
91516.8
91257.5
90793.8
90105.4
89619.6
89088.6
88323.7
87356.2
86189.5
84868.9
83521.3
82418.9
81529.4
80417.4
79353.4
79105.5
79111.6
79147
79326.2
79780.5
80607
81649.2
82964.9
84507.1
85747.7
86944.4
88065.8
90509.8
91975.7
91835.1
91540.9
91266.3
90755.7
89821.3
89039.9
88361.3
87577.1
86627.3
85492.1
84191.1
82835.2
81672.9
80751.8
79554.4
78393.8
78010.1
77960
77995.6
78115.1
78425.1
79102.8
80271.4
81458.6
82892.7
83874.2
85327.2
86373.2
88695.9
91976.1
91867.6
91529.4
91267.1
90729.9
89679.7
88629.3
87719.1
86817.8
85842.6
84732.4
83471.7
82134.3
80949.6
80000.7
78712.3
77484
77032.8
76869.5
76842.6
76905.4
77157.4
77736
78888
80001.3
81301.5
82320.3
83644.8
84475.3
86275.4
92024
91771.2
91262
90913.1
90498.8
89479.9
88288.1
87172
86106.1
85052.7
83934.3
82716.9
81419.2
80251.5
79266.5
77909.4
76664.8
76117.3
75855.6
75718.8
75765.8
75972.4
76478.4
77505.9
78605.6
79723.3
80747.3
82076.1
82764.1
84293.9
91953.7
91694.2
91154.3
90422.7
89864.4
88943.2
87818.1
86605.2
85416.5
84272
83122.4
81941
80696.5
79576.5
78556.5
77141.2
75906.3
75267.2
74909.8
74660.1
74691.4
74854.4
75291.4
76200.6
77292.4
78267.8
79307.4
80551.7
80912.7
81393.5
91902.9
91674.7
91121.3
90180.5
89282.3
88362.6
87240.4
86004.6
84747.6
83519.7
82323.9
81141.9
79930.8
78850.9
77800.7
76375.3
75194.9
74476
74031.9
73669.3
73684.4
73805.7
74179.2
74986
76050.6
77018.6
78074.2
79465.4
79501.3
79673.7
91921.8
91678.5
91134.3
90061.7
88994
87890.8
86716.1
85436.4
84110.2
82792
81509.1
80236
78991
77954.4
76914.5
75575.3
74501.4
73736
73211.1
72754.3
72723.8
72815.9
73151.4
73918.6
74823.2
75959.5
76951.2
78697.3
78268.1
71778.5
319931
321727
323820
325573
327327
328895
330422
331825
333153
334427
335656
336858
338035
339190
340312
341399
342472
343606
344848
346086
347085
347856
348377
348678
349044
349172
349347
349454
349468
349331
348924
348333
347550
346568
345385
343999
342410
340616
338618
336418
334018
331417
328614
325606
322403
319016
315437
311605
307672
303905
299148
294762
290162
285438
280606
275587
270455
265170
259754
254198
248499
242662
236704
230643
224498
218296
212066
205843
199662
193554
187551
181680
175967
170455
165170
160106
155247
150623
146264
142177
138365
134817
131526
128483
125679
123100
120735
118590
116574
114730
113040
111329
109699
108304
107169
106112
105008
103936
102936
101956
101032
100085
99177.1
98257.6
97362.3
96517.9
95723.7
94994.2
94367.7
93783.6
93294.2
92852
92445.4
92075.2
91830
91688.7
91667.4
91668.3
91671.5
91681.7
91702.7
91731.2
91804.2
91880.5
91906.9
321666
322243
324220
325916
327553
329060
330504
331836
333112
334323
335486
336601
337672
338697
339676
340600
341521
342530
343629
344652
345295
345734
346017
346205
346367
346425
346447
346443
346210
345797
345208
344442
343494
342360
341041
339534
337840
335956
333881
331615
329155
326502
323652
320601
317351
313909
310274
306451
302471
298300
293907
289388
284735
279975
275222
269967
264751
259452
254062
248581
242954
237187
231315
225372
219373
213351
207329
201341
195412
189571
183842
178255
172838
167596
162527
157658
153040
148684
144611
140789
137192
133824
130687
127786
125111
122655
120394
118297
116355
114572
112910
111327
109845
108518
107265
106114
104997
103925
102908
101920
100968
100008
99067.9
98124.6
97199
96331.3
95524.1
94791.4
94143.8
93566.2
93054.4
92606.1
92212.9
91880.9
91626
91444.6
91369.6
91366.7
91360
91360.2
91368.3
91398.3
91474.9
91649.6
91680.7
322133
322102
323959
325651
327250
328725
330113
331407
332631
333804
334925
335997
337023
338002
338929
339811
340686
341599
342527
343354
343909
344224
344421
344563
344621
344642
344654
344474
344136
343630
342953
342104
341078
339874
338490
336925
335176
333242
331121
328810
326305
323602
320700
317588
314265
310741
307017
303096
298994
294702
290216
285584
280829
275975
271044
266000
260835
255572
250259
244634
238844
233193
227455
221675
215833
209965
204088
198245
192464
186788
181235
175828
170586
165528
160670
156030
151618
147440
143459
139704
136243
133035
130058
127278
124695
122306
120099
118054
116156
114391
112739
111186
109711
108353
107086
105908
104776
103684
102628
101609
100605
99620.4
98643
97683.3
96754.1
95884.8
95076
94343.5
93692.6
93113.3
92601.8
92152.1
91751.9
91422.5
91157.4
90954.9
90848.3
90811.8
90745.7
90728.7
90736.2
90769.2
90854
91040.7
91140.2
321756
321678
323367
325049
326597
328038
329396
330672
331885
333043
334153
335211
336218
337187
338113
339005
339875
340707
341510
342202
342707
343011
343199
343328
343376
343392
343341
343101
342707
342151
341428
340535
339468
338225
336804
335204
333422
331456
329301
326952
324402
321645
318679
315492
312072
308436
304583
300515
296242
291771
287124
282332
277425
272429
267355
262198
256977
251686
246326
240875
235310
229664
223979
218184
211952
206254
200521
194844
189211
183678
178251
172965
167852
162936
158227
153737
149478
145458
141686
138165
134835
131721
128924
126351
123948
121695
119584
117605
115749
114003
112360
110810
109345
107959
106658
105426
104247
103109
101998
100920
99855.6
98823.7
97807.2
96819.9
95873.2
94947.8
94113.1
93404
92756.5
92161.1
91631
91162.9
90749.3
90402.7
90120.6
89901.5
89764.1
89709.8
89630.6
89599.6
89605.3
89635.1
89716.9
89892.2
90001.3
320771
320703
322358
324090
325614
327032
328362
329614
330803
331938
333024
334063
335057
336012
336930
337820
338698
339571
340322
340893
341349
341666
341894
341997
342041
342052
341966
341682
341248
340664
339920
339010
337926
336665
335227
333608
331809
329826
327649
325269
322681
319878
316862
313619
310127
306404
302450
298261
293844
289219
284409
279453
274391
269260
264087
258893
253674
248386
243006
237529
231966
226335
220662
214961
209227
203497
197817
192211
186048
180737
175468
170354
165397
160622
156039
151669
147541
143664
140041
136668
133540
130653
127887
125308
122980
120859
118871
116993
115215
113533
111933
110403
108938
107532
106182
104880
103624
102412
101241
100105
99004.3
97932.2
96890
95875.9
94903.6
93974.6
93144
92380.3
91685.8
91063.6
90511.8
90018.3
89581.1
89206.1
88899.9
88658.5
88498.2
88422.9
88341.8
88331.3
88337.1
88367.2
88452.2
88635.4
88839.7
319241
319170
321065
322802
324301
325688
326979
328188
329334
330426
331470
332471
333433
334364
335270
336161
337042
337892
338663
339340
339782
340071
340197
340247
340259
340257
340064
339722
339232
338625
337871
336956
335862
334578
333115
331469
329643
327630
325407
322966
320316
317452
314386
311118
307613
303879
299924
295723
291264
286567
281644
276536
271288
265987
260697
255501
250343
245063
239691
234234
228695
223079
217407
211706
206002
200326
194702
189147
183660
178276
173041
167879
162652
158055
153642
149454
145493
141765
138288
135064
132091
129352
126830
124498
122259
120120
118093
116280
114575
112935
111346
109808
108326
106906
105546
104241
102978
101747
100541
99357.4
98193.2
97048.3
95938.9
94877.8
93871.7
92924.7
92048.1
91242.1
90502.7
89853.9
89260.9
88736.6
88266.6
87862.4
87529.8
87265.8
87083
86979.6
86911.3
86909.8
86915.9
86946.7
87036.7
87238.4
87557.9
317300
317235
319472
321149
322624
323962
325190
326334
327413
328438
329418
330361
331277
332177
333071
333966
334856
335712
336501
337253
337677
337868
337936
337951
337941
337703
337318
336836
336273
335625
334870
333975
332884
331566
330077
328405
326560
324523
322237