/*--------------------------------*- C++ -*----------------------------------*\
| =========                 |                                                 |
| \\      /  F ield         | OpenFOAM: The Open Source CFD Toolbox           |
|  \\    /   O peration     | Version:  2112                                  |
|   \\  /    A nd           | Website:  www.openfoam.com                      |
|    \\/     M anipulation  |                                                 |
\*---------------------------------------------------------------------------*/
FoamFile
{
    version     2.0;
    format      ascii;
    arch        "LSB;label=32;scalar=64";
    class       volScalarField;
    location    "0.011";
    object      alphat;
}
// * * * * * * * * * * * * * * * * * * * * * * * * * * * * * * * * * * * * * //

dimensions      [1 -1 -1 0 0 0 0];

internalField   nonuniform List<scalar> 
13875
(
0.119861
0.0816024
0.0784522
0.0782854
0.0783245
0.078384
0.0782654
0.0782252
0.078321
0.0783389
0.0782881
0.078299
0.0783783
0.078412
0.0783945
0.078298
0.0782563
0.078294
0.0783028
0.0783542
0.0783203
0.0782661
0.0784825
0.0814477
0.120929
0.103938
0.0576785
0.0570801
0.0571629
0.0566491
0.0566709
0.0570197
0.0570875
0.0571824
0.0572042
0.0571529
0.0571164
0.0566576
0.0566134
0.0566675
0.0570978
0.0571189
0.0571515
0.0570742
0.0566798
0.0566739
0.0571392
0.0570618
0.0573822
0.104624
0.110619
0.0553253
0.0558749
0.054724
0.0545701
0.0544684
0.0542648
0.0542158
0.0541889
0.0541899
0.0541972
0.0543441
0.0542514
0.0542773
0.0542401
0.054349
0.0541081
0.0542523
0.0542805
0.0544511
0.0545305
0.0546017
0.0557849
0.0550949
0.111139
0.115886
0.054645
0.0553812
0.0543169
0.0540327
0.0539234
0.0536672
0.0535004
0.0534515
0.053432
0.0533657
0.0534816
0.0537057
0.053741
0.0536924
0.0534825
0.0533633
0.0534628
0.0536338
0.0539059
0.0539996
0.0542022
0.0551983
0.0542843
0.115725
0.121033
0.0546341
0.0551202
0.0537432
0.0536698
0.0534818
0.0531616
0.0530019
0.052959
0.0529411
0.0528746
0.0529899
0.0532221
0.0532659
0.0532152
0.0529936
0.0528758
0.0529545
0.0531087
0.0534747
0.0536077
0.0536126
0.0550231
0.054315
0.121344
0.12441
0.0547452
0.0551866
0.0536054
0.0532909
0.0530961
0.0527495
0.0525789
0.0525217
0.0525188
0.0524444
0.0525346
0.0527801
0.0528508
0.0527664
0.0525385
0.0524466
0.0525451
0.052733
0.0530524
0.0532386
0.0535048
0.0548893
0.0543877
0.124106
0.128749
0.0564756
0.0557824
0.0534479
0.0532701
0.0528527
0.0523915
0.0522005
0.0521339
0.0521186
0.0520611
0.0521553
0.052412
0.0524781
0.0523987
0.0521487
0.0520755
0.0521606
0.0523574
0.0528628
0.0531951
0.0533644
0.0556496
0.0563478
0.12902
0.135709
0.0611991
0.0578352
0.0544099
0.0534078
0.052845
0.0522154
0.0519594
0.0518487
0.0518119
0.0517633
0.0518268
0.052115
0.0521882
0.0520848
0.0518221
0.0518046
0.0519218
0.052218
0.052785
0.0533244
0.0542782
0.057519
0.0610285
0.135646
0.151315
0.0692498
0.0615457
0.0559111
0.0544003
0.0531064
0.0522192
0.0518623
0.0516811
0.0516151
0.0515848
0.0516336
0.0519553
0.0520317
0.0519262
0.0516251
0.0516535
0.0517998
0.05216
0.0530937
0.0542262
0.0556205
0.0610356
0.0684123
0.154207
0.239356
0.0874494
0.066462
0.0590001
0.0553685
0.0536952
0.0524639
0.0520251
0.0517933
0.0516658
0.0516546
0.0516892
0.0520353
0.0521159
0.0520077
0.0517194
0.0517651
0.0519452
0.0524349
0.053602
0.055256
0.0586529
0.0660112
0.0866926
0.24113
0.365441
0.11844
0.0759888
0.0629111
0.0575154
0.0547599
0.0531483
0.0525967
0.0522921
0.0521283
0.0521368
0.0521566
0.0524963
0.0525831
0.0525043
0.0522766
0.0523186
0.0525523
0.0530314
0.0546117
0.0573214
0.061628
0.07483
0.11304
0.365653
0.65842
0.19308
0.104017
0.0743059
0.0612076
0.0573722
0.055224
0.0541947
0.0536773
0.0534472
0.0534118
0.0534163
0.053697
0.0538086
0.0537894
0.0536896
0.053771
0.0541684
0.0551201
0.0568165
0.0618803
0.0733839
0.100183
0.182937
0.643654
0.58219
0.435538
0.176255
0.0922699
0.0767476
0.0650108
0.0597222
0.0578425
0.0569271
0.056585
0.0564657
0.0564326
0.0566016
0.0567438
0.0568258
0.0568945
0.0571472
0.057947
0.0598515
0.0653074
0.0763194
0.0896949
0.172125
0.43363
0.581356
0.49171
0.400388
0.347461
0.327209
0.116089
0.0810348
0.0734981
0.0675703
0.0651431
0.0643996
0.0640059
0.0638233
0.063868
0.0640397
0.0643151
0.0647875
0.0657079
0.0683778
0.0749574
0.0831088
0.131164
0.328651
0.337524
0.401406
0.500136
0.408507
0.349696
0.3295
0.333367
0.303818
0.196662
0.125553
0.0946755
0.0865473
0.0860292
0.085433
0.0851226
0.0851502
0.0853432
0.0858
0.0867275
0.0876099
0.0954015
0.134077
0.21302
0.302295
0.330327
0.331388
0.360294
0.421748
0.329923
0.293325
0.282069
0.300619
0.314304
0.322109
0.242081
0.191483
0.171179
0.148281
0.136389
0.132388
0.13094
0.131699
0.134458
0.14335
0.17187
0.195334
0.249479
0.324139
0.307765
0.303866
0.291592
0.298452
0.341919
0.239212
0.22726
0.225379
0.264078
0.319776
0.403331
0.530187
0.564261
0.539023
0.537473
0.55762
0.57099
0.578235
0.57481
0.561622
0.551271
0.540539
0.569267
0.533135
0.396146
0.314124
0.26682
0.230397
0.234515
0.25199
0.140444
0.152304
0.185529
0.227299
0.312003
0.433082
0.565044
0.617005
0.560754
0.512382
0.494984
0.491815
0.494559
0.49347
0.498777
0.530356
0.566603
0.607419
0.566268
0.437927
0.310825
0.229442
0.177379
0.142993
0.131163
0.0685685
0.103064
0.164807
0.249974
0.350174
0.409143
0.475237
0.533779
0.500456
0.453226
0.433489
0.430503
0.43192
0.434967
0.441457
0.462747
0.496678
0.527719
0.488671
0.428508
0.373072
0.266035
0.168475
0.104684
0.0704631
0.0267015
0.0524162
0.113041
0.229194
0.346448
0.363103
0.385907
0.42702
0.424999
0.403058
0.390963
0.385074
0.382401
0.390393
0.399066
0.406423
0.41462
0.414559
0.3895
0.377912
0.363553
0.228751
0.112133
0.0519993
0.0259425
0.0790355
0.0881371
0.114717
0.186311
0.27549
0.286423
0.307611
0.351591
0.370426
0.361969
0.350032
0.339071
0.333426
0.345068
0.357254
0.362173
0.357365
0.337898
0.307353
0.295588
0.282923
0.186108
0.113653
0.0894276
0.0847221
0.124961
0.153478
0.12838
0.156529
0.207295
0.225146
0.251971
0.297898
0.323208
0.321068
0.308912
0.294676
0.287973
0.300549
0.31572
0.320473
0.31071
0.285362
0.247846
0.22988
0.210413
0.153945
0.125855
0.151251
0.125914
0.17071
0.165388
0.133139
0.134156
0.164183
0.181444
0.211514
0.255795
0.281793
0.281711
0.269289
0.254497
0.24733
0.259219
0.274309
0.279452
0.269078
0.24598
0.205873
0.183451
0.165713
0.134506
0.130307
0.162899
0.17271
0.210906
0.197277
0.134645
0.123791
0.138752
0.15493
0.179971
0.21973
0.243327
0.244981
0.232585
0.218337
0.212337
0.222749
0.237421
0.242922
0.232105
0.210798
0.176047
0.155135
0.139316
0.123995
0.133253
0.204676
0.206418
0.231806
0.234716
0.137709
0.119549
0.122917
0.135213
0.156553
0.188866
0.209234
0.210819
0.200561
0.188056
0.182668
0.192214
0.205446
0.21014
0.200022
0.181723
0.153672
0.134413
0.122999
0.121514
0.137769
0.244663
0.228506
0.254868
0.263796
0.138183
0.116089
0.112213
0.12125
0.138384
0.164404
0.18066
0.182465
0.173538
0.162169
0.157673
0.165587
0.177497
0.181617
0.173115
0.157688
0.135924
0.120614
0.112533
0.117408
0.13899
0.27231
0.2519
0.281583
0.279576
0.139357
0.112938
0.105764
0.109882
0.124243
0.143784
0.156389
0.156974
0.149962
0.140611
0.136685
0.143908
0.153898
0.156995
0.150071
0.138188
0.121406
0.108729
0.106561
0.11422
0.142023
0.292801
0.276921
0.310371
0.296466
0.138991
0.108276
0.100561
0.101815
0.112512
0.126934
0.135664
0.136174
0.130213
0.122184
0.119158
0.12509
0.13406
0.137287
0.132227
0.122446
0.110075
0.100772
0.101623
0.109794
0.14251
0.311063
0.306218
0.343851
0.322964
0.143303
0.105961
0.0979451
0.0951432
0.102838
0.112823
0.119423
0.118903
0.11402
0.107359
0.104381
0.109668
0.116693
0.119159
0.115683
0.109096
0.100572
0.0943861
0.0985906
0.106597
0.144549
0.325344
0.335343
0.372888
0.337893
0.143573
0.10182
0.0935177
0.0906661
0.0952934
0.1014
0.105
0.10429
0.0999939
0.0942613
0.0920332
0.0963488
0.102825
0.105413
0.103165
0.097934
0.0927376
0.0886989
0.0940873
0.102985
0.146003
0.33993
0.360028
0.38729
0.343665
0.148513
0.100688
0.0910736
0.0862404
0.0890098
0.0910057
0.0932771
0.0918467
0.0884488
0.0838067
0.0815427
0.085712
0.0908923
0.0929385
0.0919399
0.0891222
0.0870022
0.0849606
0.0907809
0.101048
0.148506
0.343447
0.387057
0.397637
0.344309
0.152385
0.0990401
0.0863543
0.0814557
0.083472
0.0836372
0.0839432
0.0823426
0.0790042
0.074567
0.072774
0.0760585
0.080987
0.0832192
0.0830281
0.0812977
0.0816373
0.0795572
0.0859037
0.0994975
0.150604
0.344942
0.40104
0.41518
0.339687
0.158177
0.100362
0.084446
0.0780108
0.0790494
0.0763384
0.0758534
0.0736406
0.070838
0.0672117
0.0653487
0.0686784
0.0726992
0.0745843
0.0752912
0.0750687
0.0772523
0.0764835
0.0830748
0.0996775
0.158023
0.345482
0.408749
0.422586
0.335188
0.16295
0.100698
0.0806651
0.074135
0.0734667
0.0707079
0.06893
0.0667812
0.0640697
0.0605178
0.0590899
0.0616989
0.065788
0.0680355
0.0691302
0.0694093
0.0722985
0.0721635
0.0798178
0.0999423
0.163523
0.336914
0.421279
0.428427
0.333923
0.163799
0.103674
0.0805705
0.0719725
0.0697639
0.0654932
0.0633928
0.0606375
0.0582704
0.055349
0.0537745
0.0564119
0.0596462
0.0614514
0.0634061
0.0646849
0.0685322
0.0701781
0.078402
0.101735
0.166311
0.333675
0.430081
0.434713
0.325276
0.162157
0.105698
0.0804429
0.0687111
0.0651068
0.0608841
0.0584361
0.0557811
0.0533701
0.0503949
0.0492225
0.0512963
0.0547391
0.0569649
0.0587414
0.0598398
0.064394
0.0673761
0.0782533
0.10432
0.164202
0.327904
0.43667
0.43868
0.326075
0.16195
0.110446
0.0822007
0.0673026
0.0623775
0.0565597
0.0541704
0.0511947
0.0490584
0.0466566
0.0453309
0.0475
0.0502274
0.0520435
0.0546876
0.0561385
0.0616557
0.0657451
0.0798913
0.108337
0.163766
0.329203
0.440932
0.434059
0.323815
0.160055
0.118009
0.083843
0.0655052
0.0588996
0.0529813
0.050372
0.0477803
0.0455561
0.0429639
0.041949
0.0436466
0.0466507
0.0487005
0.0506721
0.0520474
0.0581078
0.0640468
0.0808104
0.115084
0.159214
0.331487
0.439317
0.432078
0.322307
0.156674
0.122518
0.0872336
0.066589
0.0572786
0.0498416
0.0471253
0.0441882
0.0422879
0.0401957
0.0390503
0.0409289
0.0432577
0.0448638
0.0477299
0.0495042
0.0560757
0.0646617
0.0850497
0.121032
0.156193
0.335198
0.437788
0.424001
0.323014
0.149737
0.122359
0.0912524
0.0664679
0.0546605
0.0470472
0.0441589
0.0416304
0.0396616
0.0373663
0.0365191
0.0379428
0.0406437
0.0424597
0.0445863
0.046517
0.0539997
0.064888
0.0881982
0.121002
0.149767
0.327205
0.429633
0.412964
0.323882
0.145116
0.12225
0.0993868
0.0692986
0.0550856
0.0454391
0.0420246
0.038893
0.0371462
0.0353356
0.0342975
0.0358689
0.0379369
0.0393852
0.0425648
0.045091
0.0536621
0.0669024
0.0958779
0.120612
0.145004
0.327182
0.416445
0.407638
0.321789
0.139826
0.120318
0.108086
0.0710405
0.0542385
0.0440324
0.039894
0.037056
0.0351653
0.0330715
0.0323385
0.0335385
0.036027
0.03771
0.04025
0.0434238
0.0535181
0.0692978
0.107054
0.119675
0.142261
0.320456
0.410066
0.398368
0.323117
0.137762
0.116346
0.107615
0.0759672
0.0553801
0.0441073
0.0388763
0.0350081
0.0331938
0.0315255
0.0306051
0.0319803
0.0338904
0.0354185
0.0394007
0.043424
0.0540449
0.0737971
0.107544
0.11703
0.139082
0.323658
0.404408
0.388986
0.318513
0.137209
0.111567
0.10698
0.0840115
0.0570012
0.043939
0.037888
0.033923
0.0317879
0.0297412
0.0290649
0.0301093
0.0325011
0.0342938
0.0379518
0.04315
0.0553541
0.0809626
0.106501
0.112222
0.140151
0.327346
0.398017
0.382535
0.315334
0.135559
0.106631
0.104221
0.093457
0.0611359
0.0446321
0.0381013
0.0327987
0.0303506
0.0285747
0.0277115
0.0289741
0.0308463
0.0328242
0.0383602
0.0441039
0.0591664
0.0928355
0.104819
0.108571
0.14324
0.32453
0.383992
0.375317
0.313686
0.136076
0.102932
0.0994089
0.0931271
0.0677625
0.0459855
0.0378433
0.0327748
0.0297012
0.0273107
0.0265401
0.0275997
0.0303067
0.0327324
0.0378558
0.0451132
0.0650926
0.0926704
0.101112
0.105284
0.142832
0.318879
0.377295
0.36282
0.307169
0.137727
0.100726
0.09498
0.0920447
0.0790364
0.050076
0.03898
0.0325269
0.0291387
0.026846
0.0256719
0.0271104
0.0294153
0.032327
0.0388669
0.0484412
0.074981
0.0917895
0.096221
0.102204
0.142584
0.312568
0.368185
0.353022
0.303392
0.137115
0.0987324
0.090934
0.0891178
0.0790129
0.056031
0.0398474
0.0328537
0.0293149
0.026443
0.0252749
0.0265279
0.0298234
0.032773
0.0395457
0.0543092
0.0784566
0.0893817
0.0924225
0.100491
0.142021
0.304484
0.354476
0.326672
0.292572
0.136542
0.097247
0.0878134
0.084717
0.0783289
0.0656182
0.0438354
0.0332789
0.0292276
0.0265897
0.0252693
0.0267671
0.0294229
0.0329938
0.0434718
0.0635118
0.0782727
0.0856932
0.0889015
0.0985193
0.139798
0.293914
0.327152
0.294865
0.273746
0.13289
0.0962362
0.0857764
0.0809187
0.0766792
0.0678749
0.0490904
0.0355281
0.0299284
0.0265546
0.0252985
0.0265812
0.0302903
0.0348738
0.0486191
0.068474
0.0769628
0.0808483
0.0856579
0.0963537
0.135008
0.277271
0.296451
0.116717
0.560179
0.838251
0.956369
0.982419
0.985839
0.977103
0.977626
0.983631
0.987381
0.982097
0.963578
0.92802
0.874039
0.805972
0.725364
0.63834
0.549966
0.465416
0.390493
0.326211
0.27386
0.232342
0.200374
0.173901
0.149503
0.126122
0.103564
0.0831956
0.0764754
0.111627
0.596938
0.863529
0.966888
0.984233
0.982734
0.971777
0.973364
0.981368
0.989071
0.990778
0.981445
0.95688
0.915448
0.8573
0.783966
0.699717
0.609232
0.518564
0.434565
0.35995
0.297154
0.247333
0.208602
0.177449
0.150704
0.125605
0.101849
0.0819229
0.0754746
0.12015
0.639412
0.887093
0.980743
0.994084
0.990996
0.982737
0.988242
1.00073
1.01419
1.02358
1.02212
1.00612
0.973426
0.922335
0.854485
0.772684
0.680585
0.58331
0.489099
0.401947
0.327628
0.267657
0.220455
0.183767
0.153684
0.126142
0.101249
0.0812033
0.075009
0.125579
0.662854
0.908341
0.997649
1.00769
1.00141
0.993203
0.999088
1.01316
1.02968
1.04275
1.04757
1.04001
1.01738
0.976215
0.917339
0.842043
0.752304
0.652487
0.549775
0.452219
0.365619
0.294035
0.237012
0.192863
0.157924
0.127509
0.101068
0.080204
0.0742945
0.127136
0.679793
0.929372
1.01587
1.02359
1.01534
1.0059
1.01189
1.02721
1.04649
1.06396
1.07516
1.07603
1.06271
1.03118
0.981729
0.914352
0.829088
0.728861
0.620752
0.513471
0.414119
0.329026
0.26009
0.206558
0.165218
0.130676
0.101779
0.079766
0.0739531
0.12846
0.698902
0.951292
1.03465
1.03996
1.02881
1.01801
1.02329
1.03919
1.06005
1.08047
1.09673
1.10389
1.0978
1.07484
1.03461
0.975732
0.897138
0.801669
0.69351
0.579729
0.469851
0.371531
0.289277
0.224575
0.17517
0.135327
0.102827
0.0795368
0.0735012
0.130258
0.717937
0.972177
1.05231
1.05507
1.0413
1.02898
1.03345
1.04953
1.07175
1.09462
1.11429
1.12648
1.12645
1.11103
1.07924
1.02929
0.960643
0.873968
0.769624
0.652945
0.534723
0.423386
0.326672
0.248733
0.189139
0.142265
0.105313
0.0797034
0.0732896
0.132155
0.736055
0.991342
1.06825
1.06874
1.05286
1.03854
1.04168
1.05753
1.08034
1.10415
1.12509
1.13914
1.14258
1.13294
1.10869
1.07002
1.01434
0.938278
0.841844
0.728553
0.605345
0.482706
0.371459
0.278857
0.20706
0.15183
0.109088
0.0800164
0.0728847
0.133836
0.751205
1.00851
1.08192
1.08085
1.06391
1.04678
1.04777
1.06252
1.08464
1.10776
1.12825
1.1414
1.14694
1.14416
1.1302
1.10365
1.06063
0.996415
0.910912
0.805131
0.681631
0.550845
0.425677
0.317143
0.230969
0.165146
0.114718
0.0809064
0.0727658
0.134648
0.763896
1.02291
1.09299
1.0908
1.07231
1.0543
1.05187
1.06433
1.08449
1.1044
1.1223
1.13547
1.14569
1.15045
1.14404
1.1279
1.09625
1.04445
0.970963
0.875039
0.757438
0.624066
0.487783
0.363393
0.261152
0.182324
0.122189
0.0824678
0.0727369
0.134913
0.773944
1.03379
1.10113
1.09804
1.0778
1.0594
1.05497
1.06377
1.07965
1.09516
1.11199
1.12902
1.14296
1.15322
1.15295
1.1459
1.12456
1.08465
1.02409
0.938601
0.829708
0.699327
0.556955
0.418332
0.298864
0.204469
0.132487
0.0850738
0.072758
0.134696
0.780834
1.04193
1.10634
1.10222
1.08062
1.06165
1.05603
1.06102
1.06996
1.08502
1.10428
1.12295
1.13881
1.15221
1.15809
1.15791
1.14493
1.11548
1.06708
0.994023
0.893745
0.76969
0.626723
0.478794
0.343111
0.231352
0.145822
0.0886238
0.0725238
0.134306
0.78332
1.04615
1.10956
1.10317
1.08081
1.06163
1.05481
1.0554
1.06311
1.07853
1.09777
1.11681
1.13369
1.14835
1.16006
1.16511
1.15924
1.13928
1.10219
1.04202
0.954226
0.838359
0.698313
0.544431
0.393711
0.264113
0.163039
0.0936008
0.0727307
0.133135
0.783838
1.0463
1.10927
1.10201
1.0782
1.0594
1.05174
1.04917
1.05642
1.07224
1.09137
1.11043
1.12797
1.14314
1.1592
1.1687
1.16855
1.15691
1.13013
1.0818
1.00678
0.903221
0.770125
0.614393
0.451718
0.303772
0.185045
0.100696
0.0731153
0.132162
0.778044
1.04225
1.10509
1.09839
1.0731
1.05495
1.04688
1.04252
1.04997
1.06587
1.08534
1.10416
1.12186
1.13759
1.15619
1.17014
1.17475
1.17051
1.15312
1.11613
1.05381
0.962891
0.839129
0.685801
0.514788
0.351014
0.21322
0.110561
0.0734259
0.130315
0.771691
1.03443
1.09703
1.09119
1.06588
1.0481
1.0402
1.03581
1.04355
1.05958
1.07918
1.09831
1.11576
1.13217
1.15235
1.17027
1.17896
1.18097
1.1718
1.14514
1.09495
1.01652
0.903206
0.75569
0.582207
0.406185
0.247915
0.123831
0.0738488
0.128068
0.760696
1.01912
1.08409
1.07991
1.05569
1.03923
1.03186
1.02864
1.03712
1.05352
1.07356
1.09329
1.11045
1.12746
1.14896
1.16992
1.18244
1.18945
1.1871
1.16934
1.1301
1.06322
0.961319
0.822763
0.653662
0.468843
0.289949
0.1416
0.0746227
0.12572
0.747078
1.00202
1.06608
1.06429
1.04227
1.0282
1.02197
1.02085
1.03045
1.04761
1.06834
1.08859
1.10667
1.12407
1.14678
1.16955
1.18582
1.19658
1.19935
1.18845
1.15809
1.10173
1.01197
0.885551
0.726285
0.536484
0.338647
0.16442
0.0757726
0.122899
0.728347
0.978384
1.04135
1.04352
1.02489
1.0145
1.0105
1.01208
1.02321
1.04146
1.06306
1.08421
1.10382
1.12272
1.14629
1.16987
1.18959
1.20322
1.20965
1.20382
1.18059
1.13391
1.05679
0.94465
0.796383
0.6063
0.392331
0.192557
0.0773862
0.120102
0.708278
0.949712
1.0133
1.01793
1.00334
0.997864
0.997136
1.00181
1.01535
1.03524
1.05807
1.08031
1.10227
1.12298
1.14758
1.17201
1.19369
1.21002
1.219
1.21712
1.20005
1.16244
1.09735
0.99841
0.85898
0.672274
0.450833
0.226288
0.079421
0.116786
0.682933
0.913874
0.977202
0.983565
0.97697
0.977863
0.981485
0.989876
1.00631
1.0287
1.05338
1.07711
1.10167
1.12442
1.15118
1.1763
1.19839
1.21722
1.2281
1.22931
1.21755
1.18808
1.13378
1.04654
0.916743
0.736622
0.51332
0.26549
0.0820949
0.113993
0.655768
0.870197
0.932114
0.943736
0.945166
0.953903
0.962955
0.976073
0.995927
1.02124
1.04863
1.07451
1.10197
1.12759
1.15541
1.18268
1.20488
1.22454
1.23738
1.24094
1.2336
1.21106
1.16605
1.08934
0.969457
0.800393
0.578308
0.309119
0.0855193
0.110388
0.61728
0.808385
0.871038
0.892577
0.906574
0.925041
0.940921
0.959716
0.983899
1.01276
1.04316
1.07239
1.10294
1.13223
1.16162
1.18993
1.21262
1.23126
1.24585
1.25122
1.24773
1.23098
1.19367
1.1267
1.01889
0.861792
0.642834
0.355888
0.0897746
0.109676
0.551834
0.704751
0.777903
0.820681
0.853344
0.88884
0.914159
0.939888
0.969421
1.00273
1.03688
1.07028
1.10434
1.13725
1.16814
1.19637
1.21846
1.2353
1.24986
1.2571
1.25809
1.24729
1.21686
1.15902
1.06276
0.916195
0.701631
0.402423
0.0944788
0.0936893
0.389254
0.498455
0.620575
0.712772
0.78151
0.842392
0.88088
0.91545
0.95169
0.990545
1.02938
1.06771
1.1056
1.14134
1.17369
1.201
1.22122
1.2383
1.25432
1.26503
1.26744
1.25954
1.23526
1.18519
1.09794
0.959425
0.750106
0.444291
0.0992463
0.0762921
0.0837884
0.104635
0.127849
0.151069
0.174812
0.200157
0.230502
0.270075
0.320085
0.382195
0.455822
0.540936
0.629468
0.717126
0.798829
0.868261
0.922774
0.958919
0.977471
0.981991
0.977363
0.969752
0.966632
0.97205
0.967821
0.93938
0.820298
0.544982
0.114045
0.0751952
0.0825561
0.103184
0.126825
0.151653
0.177431
0.20653
0.243223
0.290687
0.351334
0.423778
0.506412
0.59797
0.688713
0.774142
0.849071
0.908617
0.95076
0.975914
0.985469
0.982732
0.974824
0.965937
0.961743
0.968973
0.969859
0.950306
0.845896
0.581552
0.109179
0.0747127
0.0817374
0.102267
0.126707
0.153187
0.182426
0.216727
0.260659
0.318232
0.390746
0.475171
0.56814
0.666449
0.759955
0.843391
0.913282
0.966061
0.999777
1.01656
1.01843
1.00846
0.994189
0.980993
0.97359
0.978011
0.979813
0.964318
0.869614
0.624601
0.117519
0.0741541
0.0807815
0.101584
0.127419
0.156485
0.189832
0.230631
0.28372
0.352647
0.436914
0.532888
0.634793
0.735179
0.82801
0.906174
0.967639
1.01115
1.03488
1.04248
1.03787
1.02388
1.00716
0.992124
0.984274
0.989265
0.993732
0.980868
0.890601
0.648078
0.123049
0.0738376
0.0802111
0.101861
0.129756
0.162404
0.201284
0.250252
0.314706
0.396664
0.493622
0.600197
0.707826
0.809285
0.899132
0.970614
1.02321
1.0575
1.07223
1.07167
1.06016
1.04135
1.02185
1.00567
0.997619
1.00343
1.01008
0.998789
0.911226
0.664812
0.12456
0.0732037
0.0796049
0.102508
0.133329
0.170532
0.216359
0.27539
0.352136
0.44697
0.555155
0.668946
0.778002
0.875706
0.958235
1.02223
1.06649
1.0928
1.10089
1.09432
1.07775
1.05555
1.0345
1.01765
1.01021
1.01753
1.02705
1.01742
0.932889
0.683783
0.125864
0.0728415
0.0794273
0.10417
0.138916
0.181967
0.236637
0.307808
0.398376
0.506046
0.623966
0.741723
0.848852
0.938403
1.00994
1.06431
1.10029
1.11953
1.12255
1.11119
1.09166
1.06713
1.04479
1.02777
1.02139
1.03061
1.0428
1.03522
0.953691
0.703056
0.12789
0.0726786
0.0796395
0.106985
0.14657
0.196936
0.262293
0.347225
0.452107
0.571143
0.694395
0.810749
0.911084
0.99145
1.0508
1.09225
1.11914
1.13211
1.13161
1.11991
1.09907
1.0745
1.05152
1.03498
1.03046
1.0426
1.05705
1.05148
0.972605
0.720753
0.129718
0.0726504
0.0805688
0.111552
0.157649
0.217412
0.29556
0.395752
0.514919
0.642994
0.767909
0.87849
0.968852
1.03763
1.08463
1.11439
1.13038
1.13495
1.13057
1.11991
1.10011
1.07682
1.05442
1.03928
1.0376
1.05361
1.06966
1.06577
0.989158
0.736188
0.131586
0.0728468
0.081976
0.117874
0.172308
0.243454
0.336472
0.452745
0.584473
0.717638
0.83927
0.94036
1.01811
1.07485
1.1106
1.1295
1.1378
1.13487
1.12491
1.11185
1.09481
1.07395
1.05397
1.04123
1.04338
1.06357
1.08017
1.07769
1.00286
0.749135
0.132676
0.0729478
0.0840987
0.126575
0.191393
0.276532
0.386153
0.51793
0.658859
0.79216
0.906188
0.995458
1.06049
1.10507
1.13036
1.13981
1.1418
1.13303
1.11949
1.10267
1.08598
1.0679
1.05127
1.04247
1.04812
1.06932
1.08798
1.08694
1.01342
0.759559
0.132966
0.0728963
0.0868155
0.137622
0.214817
0.315931
0.442777
0.587067
0.731215
0.858983
0.962867
1.04092
1.09391
1.12734
1.14371
1.1458
1.14188
1.12942
1.11427
1.09606
1.07704
1.06116
1.04795
1.04268
1.05004
1.07231
1.09294
1.09329
1.02125
0.767364
0.133022
0.0729843
0.0907369
0.15188
0.243018
0.362238
0.50544
0.657792
0.80019
0.920571
1.01356
1.07865
1.11981
1.1431
1.15182
1.14831
1.13881
1.1245
1.1083
1.0903
1.0714
1.05588
1.04484
1.04125
1.05006
1.07269
1.09464
1.09623
1.02709
0.770591
0.132626
0.0731592
0.0963049
0.170603
0.27795
0.415083
0.572512
0.728977
0.86678
0.976872
1.05654
1.10893
1.13913
1.15348
1.15591
1.1482
1.13373
1.11883
1.10218
1.08463
1.06623
1.05034
1.04091
1.03851
1.04834
1.07033
1.09315
1.09587
1.03
0.771923
0.131648
0.0734516
0.104217
0.195029
0.321106
0.474927
0.643233
0.799732
0.929171
1.02604
1.09265
1.13319
1.15356
1.16017
1.15749
1.14593
1.12796
1.11281
1.09618
1.07909
1.06062
1.04492
1.03542
1.03446
1.04476
1.06514
1.08968
1.0924
1.02766
0.768198
0.131035
0.0737609
0.114961
0.225327
0.372052
0.540868
0.713713
0.865317
0.984205
1.06845
1.12256
1.15259
1.16457
1.16471
1.15797
1.14247
1.12237
1.10707
1.09046
1.07314
1.05514
1.03946
1.02973
1.02843
1.03892
1.05795
1.08282
1.0856
1.02255
0.762847
0.129435
0.0743514
0.129514
0.262408
0.430775
0.61175
0.782574
0.925845
1.03297
1.1047
1.14773
1.16869
1.17366
1.16853
1.15826
1.13936
1.11779
1.10191
1.08529
1.06758
1.04948
1.0335
1.02322
1.02104
1.03064
1.04838
1.07196
1.07363
1.00674
0.753249
0.127286
0.07527
0.14879
0.306577
0.495528
0.684617
0.84839
0.980045
1.07434
1.13486
1.1685
1.18217
1.18163
1.17246
1.15888
1.13743
1.11478
1.09798
1.08083
1.06283
1.04373
1.02681
1.0155
1.01231
1.02027
1.03568
1.05695
1.05841
0.991958
0.741181
0.125109
0.0764443
0.173111
0.356445
0.563833
0.756188
0.910484
1.02867
1.1103
1.16043
1.18619
1.19407
1.18933
1.17715
1.16018
1.13734
1.11376
1.09538
1.07731
1.05823
1.03777
1.01931
1.00644
1.0019
1.00747
1.01906
1.03688
1.03347
0.969573
0.723668
0.122457
0.0779375
0.202848
0.411756
0.630637
0.821861
0.968107
1.07278
1.14228
1.18292
1.20188
1.20513
1.1973
1.1827
1.16276
1.13935
1.11492
1.09408
1.07468
1.05374
1.03124
1.01069
0.99608
0.989619
0.99179
0.998214
1.0113
1.00616
0.942959
0.70491
0.119785
0.0800585
0.238385
0.472108
0.696112
0.882726
1.01993
1.11283
1.17131
1.20333
1.21636
1.2159
1.20585
1.18882
1.16753
1.14379
1.11685
1.09464
1.07238
1.04849
1.02417
1.00164
0.984536
0.974423
0.972763
0.972458
0.978967
0.970824
0.908771
0.68093
0.116579
0.0830289
0.279654
0.53705
0.761909
0.93872
1.06573
1.1481
1.19698
1.22161
1.22976
1.22652
1.21484
1.19584
1.17475
1.14883
1.12091
1.09616
1.07003
1.04337
1.01671
0.991374
0.970876
0.956336
0.949611
0.941123
0.938258
0.926399
0.866086
0.654636
0.113864
0.0867683
0.325563
0.604123
0.826734
0.991552
1.10627
1.17844
1.21905
1.2375
1.2416
1.23644
1.22321
1.20427
1.18318
1.15577
1.12639
1.09794
1.06815
1.03791
1.00828
0.979425
0.954707
0.934769
0.921486
0.902668
0.887522
0.865921
0.804883
0.616645
0.110307
0.0911246
0.372979
0.667368
0.885683
1.03886
1.14136
1.20377
1.23665
1.24913
1.24918
1.2425
1.22857
1.21158
1.1905
1.163
1.13229
1.09992
1.06621
1.03172
0.998394
0.96519
0.935281
0.908733
0.886138
0.851631
0.816872
0.773992
0.702136
0.551316
0.109512
0.0956588
0.418246
0.721955
0.935176
1.07837
1.16995
1.22325
1.24993
1.25911
1.2571
1.24757
1.23142
1.21527
1.19594
1.16911
1.13705
1.1015
1.06371
1.02438
0.986438
0.94781
0.9114
0.87637
0.840619
0.781007
0.711893
0.620038
0.497896
0.387295
0.0937556
0.468167
0.468434
0.474568
0.478297
0.484691
0.489339
0.495707
0.500931
0.507203
0.512778
0.51897
0.524783
0.53095
0.536953
0.543164
0.549458
0.556013
0.562664
0.569396
0.576142
0.582833
0.589362
0.595663
0.601733
0.607504
0.612977
0.617963
0.622358
0.626257
0.629765
0.632973
0.635816
0.638232
0.640192
0.64166
0.642599
0.643004
0.642886
0.642239
0.64104
0.639258
0.636859
0.633814
0.63011
0.625691
0.620532
0.614657
0.608079
0.600878
0.593024
0.584629
0.57665
0.567003
0.558098
0.548532
0.538485
0.527855
0.516383
0.504805
0.492758
0.480178
0.467109
0.453784
0.440198
0.426358
0.412294
0.398166
0.384054
0.370019
0.356124
0.342464
0.329115
0.316133
0.303544
0.291465
0.27992
0.269003
0.258774
0.249205
0.240232
0.231795
0.223924
0.216602
0.209718
0.203253
0.197282
0.191686
0.186342
0.181315
0.176715
0.172338
0.167991
0.163989
0.160413
0.157028
0.153336
0.150063
0.147417
0.145116
0.14295
0.140988
0.139358
0.138168
0.137401
0.137154
0.137405
0.138103
0.13905
0.140162
0.141293
0.14215
0.142644
0.142717
0.142295
0.141272
0.1397
0.137626
0.13496
0.131652
0.127627
0.122919
0.117752
0.112264
0.106603
0.101014
3.67836
3.67114
3.71839
3.76417
3.81605
3.86786
3.92199
3.97549
4.02982
4.08308
4.1363
4.18838
4.23992
4.29029
4.33979
4.38802
4.4359
4.48567
4.5357
4.58539
4.63458
4.68263
4.729
4.77403
4.81601
4.85161
4.88305
4.91166
4.9384
4.964
4.98685
5.00682
5.02368
5.03723
5.0474
5.05422
5.05774
5.05791
5.05454
5.04735
5.03602
5.02023
4.99974
4.9743
4.94372
4.90793
4.8668
4.8208
4.76991
4.71406
4.65363
4.58728
4.51584
4.43999
4.36045
4.27763
4.19419
4.09908
4.00471
3.90642
3.80523
3.69996
3.59249
3.48224
3.36962
3.25488
3.13962
3.02415
2.90887
2.79434
2.68154
2.57105
2.46328
2.35876
2.2574
2.15922
2.06305
1.96778
1.87606
1.79098
1.71138
1.63687
1.5672
1.50186
1.44045
1.38264
1.32803
1.27602
1.22618
1.17826
1.13188
1.08666
1.04268
1.00045
0.960542
0.922862
0.887208
0.852431
0.81704
0.782519
0.749251
0.718036
0.689468
0.663954
0.642087
0.624147
0.610257
0.600353
0.594238
0.591557
0.591587
0.593691
0.597096
0.601183
0.605178
0.60853
0.61044
0.609744
0.605851
0.597547
0.583558
0.563486
0.536577
0.502489
0.462166
6.17071
6.1564
6.20942
6.26991
6.33516
6.40148
6.46847
6.53482
6.60081
6.66536
6.7293
6.79211
6.85427
6.91594
6.97738
7.03882
7.10013
7.16125
7.22253
7.28247
7.34026
7.39546
7.44792
7.49739
7.53662
7.56876
7.59633
7.62097
7.64394
7.66208
7.67615
7.68623
7.69193
7.69306
7.68965
7.68181
7.66955
7.65269
7.63088
7.60363
7.57052
7.53123
7.48552
7.43328
7.37464
7.30961
7.23832
7.16151
7.07916
6.99128
6.89828
6.79991
6.69575
6.58656
6.47272
6.35443
6.2322
6.10499
5.97212
5.83499
5.69567
5.53884
5.38853
5.2353
5.0794
4.92119
4.76146
4.59992
4.43787
4.2763
4.11713
3.96091
3.80809
3.65921
3.51506
3.37592
3.2418
3.11271
2.98902
2.86906
2.75493
2.64825
2.54838
2.45403
2.36464
2.27963
2.1984
2.12049
2.04545
1.97286
1.90234
1.83367
1.76685
1.702
1.63903
1.57804
1.519
1.4616
1.40551
1.35099
1.29847
1.24884
1.20297
1.15999
1.12121
1.08667
1.05679
1.03153
1.01076
0.994263
0.98144
0.971818
0.96476
0.959603
0.955681
0.952403
0.948843
0.943654
0.935884
0.924279
0.906915
0.882978
0.852267
0.815078
0.770998
7.73789
7.71256
7.75655
7.81398
7.87421
7.93551
7.99677
8.05693
8.11596
8.17385
8.23106
8.28804
8.34507
8.40244
8.46001
8.51795
8.57567
8.63187
8.68586
8.73756
8.78577
8.83021
8.87054
8.90249
8.924
8.93908
8.95027
8.9593
8.96526
8.96502
8.9605
8.95154
8.93802
8.92002
8.89763
8.87093
8.83981
8.80393
8.76272
8.71561
8.66221
8.60239
8.53623
8.464
8.38636
8.30343
8.21564
8.12379
8.02758
7.92685
7.82166
7.71187
7.5974
7.47839
7.35481
7.22636
7.09282
6.95391
6.8103
6.66247
6.511
6.35501
6.19415
6.02998
5.86447
5.67866
5.50555
5.332
5.15852
4.98617
4.81575
4.64659
4.47996
4.31686
4.159
4.00692
3.86102
3.72174
3.58934
3.46363
3.34421
3.22957
3.11986
3.01548
2.91764
2.82419
2.73382
2.64602
2.56041
2.47676
2.39492
2.31479
2.23629
2.15961
2.08473
2.01173
1.94066
1.87156
1.80457
1.73977
1.67759
1.61826
1.56206
1.50916
1.46036
1.41593
1.37654
1.34021
1.30763
1.27954
1.25506
1.23393
1.21583
1.20023
1.18658
1.17446
1.1631
1.15166
1.13914
1.12423
1.1054
1.08178
1.05255
1.01837
0.978605
8.68836
8.64747
8.67468
8.71991
8.76584
8.81254
8.8584
8.90295
8.94651
8.98965
9.03295
9.07658
9.1208
9.16567
9.21104
9.25662
9.30144
9.34416
9.38306
9.41659
9.4458
9.4708
9.48974
9.49645
9.49436
9.48696
9.47671
9.46538
9.44824
9.42607
9.39994
9.36982
9.33589
9.29829
9.25703
9.21204
9.16309
9.10959
9.05081
8.98606
8.91512
8.83836
8.75652
8.67043
8.58126
8.48923
8.39506
8.29911
8.20061
8.09929
7.99503
7.88756
7.77674
7.66252
7.54459
7.4221
7.2948
7.16274
7.02634
6.88587
6.74122
6.59215
6.43929
6.28294
6.12354
5.96057
5.7939
5.62611
5.45988