/*--------------------------------*- C++ -*----------------------------------*\
| =========                 |                                                 |
| \\      /  F ield         | OpenFOAM: The Open Source CFD Toolbox           |
|  \\    /   O peration     | Version:  2112                                  |
|   \\  /    A nd           | Website:  www.openfoam.com                      |
|    \\/     M anipulation  |                                                 |
\*---------------------------------------------------------------------------*/
FoamFile
{
    version     2.0;
    format      ascii;
    arch        "LSB;label=32;scalar=64";
    class       surfaceScalarField;
    location    "0.00303";
    object      phi;
}
// * * * * * * * * * * * * * * * * * * * * * * * * * * * * * * * * * * * * * //

dimensions      [1 0 -1 0 0 0 0];

oriented        oriented;

internalField   nonuniform List<scalar> 
27436
(
-0.533326
8.19266
-0.0932297
7.47154
-0.083011
7.78586
-0.0693461
7.78658
-0.0694728
7.79289
-0.0542391
7.78191
-0.0400327
7.78314
-0.0289785
7.78534
-0.0197288
7.78787
-0.0119022
7.78888
-0.00810106
7.79238
-0.00140132
7.79068
0.0151071
7.78048
0.0349829
7.77875
0.0432735
7.78759
0.049889
7.78927
0.0564495
7.78903
0.0642268
7.78758
0.0738169
7.78548
0.0935301
7.77843
0.0965527
7.79028
0.111453
7.78586
0.123558
7.78261
0.572799
7.46024
8.21534
-0.247226
8.43987
-0.096324
7.32063
-0.0817151
7.77122
-0.0570367
7.76181
-0.0554154
7.79125
-0.0473313
7.77374
-0.0392672
7.77444
-0.043076
7.78818
-0.0226594
7.76888
-0.00942257
7.77748
0.00168153
7.78086
0.0166084
7.77651
0.0160206
7.78133
0.0194059
7.77776
0.0205452
7.793
0.038065
7.77292
0.0491114
7.77944
0.0730083
7.76475
0.0697317
7.7881
0.0758431
7.77219
0.0724655
7.79402
0.102901
7.75538
0.114247
7.77094
0.268529
7.30741
8.4909
-0.227252
8.66712
-0.141098
7.23451
-0.12054
7.75068
-0.107573
7.74897
-0.0982497
7.78191
-0.0936647
7.76914
-0.0911229
7.77173
-0.0860403
7.78371
-0.0698004
7.7573
-0.049855
7.76072
-0.0368539
7.76319
-0.017197
7.75566
-0.0141879
7.7797
-0.0122707
7.77723
-0.00539737
7.78538
0.0100017
7.75618
0.0392895
7.75249
0.0459656
7.7611
0.0539371
7.78043
0.0541398
7.77219
0.0623308
7.78623
0.0783754
7.73932
0.100704
7.74845
0.19194
7.21805
8.68177
-0.169666
8.8368
-0.139545
7.20438
-0.134369
7.74552
-0.112338
7.72694
-0.104675
7.77424
-0.0994433
7.76391
-0.0960159
7.76812
-0.0808616
7.76903
-0.0675453
7.74507
-0.0479773
7.74387
-0.0295166
7.74339
-0.00739153
7.73323
0.000485053
7.77328
0.00429312
7.77454
0.0168017
7.77207
0.0363855
7.73526
0.0642986
7.72534
0.0744265
7.75169
0.0857691
7.76957
0.0873463
7.77075
0.0920813
7.78178
0.118121
7.71307
0.111577
7.75501
0.16247
7.16673
8.83707
-0.0737229
8.91051
-0.0364616
7.16714
-0.0913181
7.8004
-0.0585358
7.69426
-0.0594452
7.77517
-0.0594349
7.7639
-0.059476
7.76813
-0.0469324
7.75701
-0.0353094
7.73432
-0.0189179
7.72985
-0.00146865
7.72452
0.0178151
7.71373
0.0243268
7.76833
0.025188
7.77422
0.0388991
7.75804
0.0556657
7.71756
0.0806264
7.70238
0.0865604
7.74686
0.0959643
7.76013
0.0934098
7.77323
0.093555
7.78165
0.123669
7.68289
0.0901555
7.78866
0.0979842
7.15791
8.92958
0.118014
8.79251
0.0436999
7.24147
-0.0488819
7.89301
-0.0077134
7.65313
-0.0217555
7.78924
-0.0295575
7.77176
-0.0335076
7.77233
-0.026639
7.75139
-0.0194043
7.72812
-0.00785431
7.72138
0.00468939
7.71077
0.0201836
7.69808
0.0243721
7.76566
0.0215783
7.77742
0.0324743
7.74423
0.0457874
7.70312
0.0646236
7.68538
0.0655504
7.74666
0.0695193
7.75641
0.0618299
7.78091
0.0480016
7.79524
0.0866732
7.64426
-0.0138393
7.88955
-0.0199145
7.16381
8.90991
0.304264
8.4883
0.136093
7.4097
-0.0042407
8.03394
0.0282432
7.62021
-0.0111199
7.82868
-0.0438837
7.80461
-0.0693852
7.79843
-0.0810198
7.76539
-0.0963311
7.74503
-0.102596
7.73119
-0.111517
7.71931
-0.118865
7.70547
-0.130084
7.7787
-0.14984
7.79799
-0.157397
7.74913
-0.163083
7.70759
-0.166015
7.68937
-0.187517
7.76825
-0.205863
7.77512
-0.237226
7.81218
-0.267546
7.82516
-0.287328
7.66385
-0.354838
7.95756
-0.657739
7.46641
8.25451
0.873344
7.61513
0.521654
7.76153
0.414303
8.14152
0.338317
7.69625
0.277517
7.88951
0.224938
7.8572
0.183433
7.84068
0.154889
7.79719
0.125183
7.77603
0.104428
7.75596
0.0833271
7.7415
0.0621786
7.72707
0.0366416
7.80609
0.00442298
7.83108
-0.0172113
7.76571
-0.0343305
7.72432
-0.0559918
7.7115
-0.090237
7.8022
-0.125568
7.81107
-0.173467
7.86017
-0.232452
7.88367
-0.281791
7.71325
-0.407129
8.08339
-0.693841
7.75315
7.56538
0.594542
7.02066
0.409807
7.9466
0.240645
8.31104
0.19569
7.74137
0.142148
7.94298
0.101848
7.89751
0.0787867
7.86475
0.0693769
7.81139
0.0642614
7.78309
0.0671691
7.75636
0.0722591
7.73956
0.0734697
7.72805
0.0763199
7.80548
0.0751205
7.83324
0.0774596
7.75471
0.0841741
7.71882
0.081006
7.71446
0.0714657
7.81152
0.0559463
7.82815
0.0218683
7.89499
-0.0308204
7.9361
-0.0485274
7.73087
-0.220133
8.25529
-0.373314
7.90675
7.19499
-3.03277
10.0539
-3.37197
8.28631
-2.75591
7.69529
-2.61185
7.59702
-2.30572
7.6364
-2.00831
7.6004
-1.70508
7.56376
-1.38268
7.49367
-1.09556
7.49848
-0.810726
7.47445
-0.506721
7.4418
-0.214828
7.43999
0.0969905
7.49613
0.413734
7.51807
0.707848
7.44904
1.0007
7.42954
1.26447
7.45057
1.58287
7.49338
1.9032
7.50995
2.20647
7.59423
2.50699
7.63713
2.63501
7.60312
3.21258
7.67782
2.93532
8.18416
10.13
-4.22454
14.2787
-4.36297
8.42802
-4.13205
7.46386
-3.81764
7.28126
-3.38981
7.20815
-2.90909
7.1218
-2.40904
7.06712
-1.94929
7.03706
-1.49176
7.04361
-1.04153
7.02794
-0.582688
6.99156
-0.126269
6.98812
0.34829
7.0244
0.842171
7.02783
1.28814
6.99207
1.72899
6.994
2.15117
7.02982
2.62959
7.01583
3.12222
7.01931
3.65056
7.07016
4.11139
7.18075
4.4151
7.30063
4.5927
7.49859
4.51816
8.25692
14.648
-2.68244
16.9642
-4.99025
10.7359
-4.94737
7.41896
-4.20881
6.5401
-3.8259
6.82724
-3.34544
6.64513
-2.82146
6.54557
-2.31143
6.52781
-1.79415
6.52886
-1.27423
6.51313
-0.769678
6.49589
-0.263379
6.48593
0.270291
6.49441
0.813292
6.49256
1.32012
6.48079
1.8068
6.51362
2.31644
6.52441
2.83021
6.50328
3.33902
6.51053
3.84196
6.57086
4.29055
6.74111
5.06544
6.53306
4.89087
7.6697
2.70213
10.4398
17.3499
2.37627
14.5895
0.796976
12.3188
-4.73286
12.9498
-3.8126
5.61883
-4.06545
7.08303
-3.58932
6.17439
-3.02935
5.98525
-2.48878
5.98514
-1.95674
5.99665
-1.4169
5.97428
-0.876111
5.95845
-0.335161
5.94674
0.230864
5.93225
0.795556
5.93862
1.33284
5.9506
1.87533
5.98266
2.40406
6.00322
2.93008
5.97645
3.48625
5.94879
3.9493
6.10837
3.84621
6.86034
4.85588
5.53655
-0.554874
13.0806
-2.38345
12.2587
14.9675
2.46473
12.1238
3.20388
11.5848
3.7762
12.3808
-0.530462
9.93495
-4.38555
10.9436
-4.08094
5.87233
-3.35903
5.26348
-2.9081
5.52956
-2.3149
5.39986
-1.74824
5.40542
-1.15028
5.35825
-0.573182
5.36762
0.0311877
5.32955
0.623598
5.35391
1.22546
5.35873
1.81242
5.40951
2.40499
5.41783
2.86125
5.51514
3.56039
5.24328
3.66852
6.00215
-0.380322
10.9253
-4.64361
9.80992
-3.81105
12.2464
-2.92366
11.3632
12.0444
1.64932
10.4735
3.35039
9.88654
5.09333
10.6417
5.59361
9.4391
5.01828
11.524
1.54917
9.34243
0.0158634
6.80054
-1.02034
6.56511
-1.00649
5.38595
-0.803596
5.20506
-0.41434
4.96738
-0.0419296
4.99055
0.399779
4.88633
0.787609
4.96899
1.19583
4.95589
1.43548
5.17748
1.45531
5.40485
0.419671
6.55132
-1.25647
6.91821
-4.2836
9.03818
-4.64957
11.3125
-4.17232
9.33705
-2.47689
10.5491
-1.13684
10.027
10.9131
0.789894
9.68481
1.58861
9.09491
2.8195
9.41168
3.3903
8.87573
3.22618
11.6913
1.51908
11.052
0.224914
8.11282
-0.43954
7.24562
-0.425731
5.3969
-0.337761
5.14202
-0.160393
4.82379
-0.117146
4.97763
0.0691724
4.73677
0.153564
4.91314
0.368685
4.77488
0.523807
5.05045
0.571462
5.38617
0.00526132
7.1365
-0.858172
7.80264
-2.29541
10.4926
-2.64166
11.6601
-2.05457
8.75222
-1.13661
9.63053
-0.325386
9.21878
10.5943
1.47846
8.20844
2.07744
8.50265
2.1831
9.30825
1.36474
9.68925
-0.517003
13.5743
-0.713439
11.2578
0.254285
7.14445
0.845863
6.64936
0.581627
5.65848
0.45673
5.25959
0.21801
5.05543
0.138113
5.05101
-0.0832488
4.9472
-0.20613
5.02683
-0.488205
5.04764
-0.717427
5.27405
-1.07039
5.73775
-0.609552
6.67286
0.121568
7.0701
-0.0963488
10.7251
-1.42995
12.9903
-2.31417
9.63331
-2.54513
9.86504
-2.14775
8.83441
8.45913
1.76848
6.44238
1.49415
8.77904
0.309151
10.4921
-0.403044
10.4038
1.57541
11.59
2.73401
10.0984
2.14684
7.728
1.93639
6.85291
1.37406
6.21353
0.833102
5.79117
0.332788
5.54855
-0.11332
5.4898
-0.581143
5.408
-1.03925
5.47758
-1.55032
5.55203
-2.10543
5.82266
-2.62566
6.25183
-2.73657
6.77759
-3.30875
7.63618
-2.54341
9.95505
-0.919001
11.3571
-2.07981
10.7871
-2.84198
10.644
-2.41917
8.42551
6.05254
3.27445
3.17233
5.95088
6.09744
6.05576
10.3735
5.91063
10.5427
6.56446
10.93
6.10403
10.5495
4.86203
8.96267
3.92573
7.78363
3.06764
7.06723
2.23732
6.61497
1.43836
6.34165
0.676412
6.24564
-0.0904119
6.16965
-0.842894
6.224
-1.6283
6.33228
-2.41924
6.60734
-3.18864
7.01479
-4.05314
7.63671
-5.27356
8.85278
-5.80136
10.4775
-5.28397
10.8325
-4.95641
10.4575
-4.85834
10.5478
-2.90871
6.49349
3.15442
1.47095
1.70473
3.43816
4.14283
5.00965
8.78922
5.75167
9.79368
6.36724
10.3078
6.24976
10.66
5.20664
9.99858
4.02122
8.9635
2.96687
8.11745
2.02805
7.54841
1.16004
7.20448
0.311141
7.08954
-0.534352
7.01084
-1.38978
7.07459
-2.2652
7.20275
-3.20421
7.54093
-4.26522
8.07119
-5.53536
8.90436
-6.72149
10.0376
-6.86139
10.6157
-6.25256
10.2223
-5.58635
9.79102
-3.84742
8.81041
-1.50281
4.15922
1.65461
0.128755
1.57685
0.0639757
4.21094
1.64742
7.20367
2.96599
8.47104
3.83917
9.43046
4.10554
10.3893
3.65417
10.4449
2.93806
9.675
2.21622
8.83604
1.51825
8.24235
0.817552
7.90108
0.130687
7.77224
-0.572999
7.71121
-1.26901
7.76656
-1.98706
7.9164
-2.71477
8.26392
-3.49449
8.84745
-4.30938
9.71841
-4.76476
10.493
-4.40601
10.2578
-3.45896
9.27683
-2.05706
8.39013
-0.483356
7.18396
-0.274832
4.01291
1.3832
-0.890684
2.46804
-0.909735
4.22881
0.253701
6.04069
1.20078
7.52244
1.96593
8.66325
2.29621
10.0567
2.2511
10.4853
1.95725
9.96532
1.55283
9.23816
1.1083
8.68421
0.651218
8.35503
0.168762
8.25206
-0.313061
8.19118
-0.79831
8.24918
-1.25554
8.37008
-1.69427
8.69888
-2.09714
9.24801
-2.37845
9.99943
-2.38774
10.5023
-2.01799
9.8892
-1.20093
8.46163
-0.215273
7.40476
0.932963
6.03674
1.04153
3.90875
2.42422
-0.863511
3.33337
-1.22184
4.58811
-0.842667
5.66421
-0.201386
6.88179
0.368522
8.09301
0.689991
9.73428
0.916667
10.256
1.00309
9.87662
0.926737
9.31438
0.737714
8.87249
0.485161
8.60658
0.228088
8.50834
-0.0484246
8.46779
-0.299622
8.49936
-0.537187
8.60542
-0.704362
8.86334
-0.748123
9.29019
-0.623152
9.87467
-0.368152
10.2473
-0.0992252
9.62021
0.482755
7.88246
1.13736
6.75166
1.44534
5.73036
0.918282
4.43833
3.34206
-0.754256
4.09308
-1.47814
5.3161
-1.66364
5.85404
-1.45518
6.67408
-1.15173
7.78899
-0.723158
9.3043
-0.311959
9.84312
-0.0531648
9.61881
0.0673645
9.19488
0.0967723
8.84326
0.0613793
8.64201
-0.0275988
8.59798
-0.122982
8.5648
-0.215027
8.59181
-0.250461
8.63983
-0.220929
8.83207
-0.108613
9.1766
0.152802
9.61367
0.596869
9.80355
1.06509
9.1518
1.33981
7.60908
1.58258
6.50933
1.49644
5.81783
0.665594
5.27206
4.01211
-0.416182
4.51549
-1.15163
6.05575
-1.64864
6.3539
-1.71699
6.74156
-1.58399
7.65641
-1.19197
8.91152
-0.738129
9.38915
-0.395573
9.27754
-0.180437
8.98102
-0.077819
8.74177
-0.0545496
8.62036
-0.0458777
8.59093
-0.0517383
8.5729
-0.0390703
8.58024
-0.0143015
8.61504
0.0955905
8.72137
0.328138
8.94356
0.688436
9.25387
1.16832
9.32436
1.57425
8.7457
1.67082
7.51359
1.59767
6.58365
1.12733
6.28983
0.351501
6.04923
4.36484
-0.29288
4.81498
-1.09431
6.86074
-1.72474
6.98584
-1.91607
6.93232
-1.86995
7.61072
-1.50823
8.55044
-1.06552
8.94784
-0.697053
8.90987
-0.42879
8.71398
-0.238186
8.55232
-0.0886629
8.47234
0.0156578
8.48851
0.115325
8.47531
0.219049
8.47805
0.374247
8.46029
0.573638
8.52174
0.854622
8.66255
1.25052
8.85877
1.69451
8.8812
2.04552
8.39519
2.07992
7.47937
1.8849
6.77883
1.25722
6.9187
0.362696
6.94354
4.72588
-0.36893
5.18983
-1.41432
7.90958
-1.8553
7.42787
-2.18085
7.25588
-2.21585
7.64485
-1.94491
8.27866
-1.52829
8.53085
-1.12122
8.50425
-0.795652
8.38895
-0.563113
8.32067
-0.393202
8.30366
-0.220691
8.31733
-0.0571962
8.31332
0.11816
8.30373
0.297948
8.28101
0.531071
8.28883
0.857114
8.33709
1.2556
8.46176
1.66685
8.47121
1.93973
8.12243
1.93854
7.48054
1.63471
7.08285
1.18966
7.3647
0.225689
7.91105
4.95286
-0.378739
5.5748
-1.18454
8.717
-1.60751
7.84954
-1.93564
7.58306
-1.99224
7.70186
-1.75891
8.04623
-1.40412
8.17696
-1.05573
8.15489
-0.757094
8.0906
-0.50263
8.06636
-0.261653
8.06329
-0.0619848
8.11856
0.140892
8.11124
0.342348
8.10305
0.585793
8.03804
0.848727
8.02614
1.15714
8.0294
1.52765
8.09283
1.88008
8.12108
2.07753
7.9267
2.02159
7.53669
1.64875
7.45579
1.22324
7.78954
0.458876
8.67309
5.41336
-0.500142
6.08161
-1.13595
9.35515
-1.57927
8.29158
-1.76912
7.77123
-1.91758
7.84914
-1.77956
7.90624
-1.45935
7.85543
-1.1016
7.79663
-0.773518
7.76104
-0.495389
7.78743
-0.259268
7.82686
-0.0124052
7.8716
0.222525
7.87643
0.471215
7.8546
0.704769
7.80452
0.982076
7.74912
1.3134
7.69869
1.67528
7.7325
2.0047
7.79333
2.12478
7.80759
1.9533
7.70856
1.76969
7.63914
1.37003
8.18864
0.747562
9.29383
6.16239
-0.881712
6.97057
-1.36389
9.83874
-1.80243
8.7268
-1.99023
7.95724
-2.10162
7.95891
-1.99226
7.79659
-1.72014
7.58224
-1.41018
7.48472
-1.11451
7.46291
-0.836481
7.50806
-0.548122
7.53714
-0.296348
7.61946
-0.0296798
7.60921
0.228948
7.59604
0.522656
7.51108
0.807845
7.46404
1.10111
7.40575
1.41163
7.42276
1.67489
7.53193
1.76433
7.71983
1.68674
7.78649
1.50428
7.82123
1.0958
8.59498
0.572853
9.81461
6.74158
-0.605674
7.5791
-1.24428
10.4769
-1.60614
9.08422
-1.77038
8.11947
-1.76155
7.94978
-1.67499
7.70785
-1.461
7.36613
-1.183
7.20238
-0.888652
7.16556
-0.601378
7.21899
-0.345978
7.28004
-0.0648852
7.33759
0.203413
7.34017
0.481356
7.31771
0.73547
7.25682
1.01879
7.1809
1.31219
7.11255
1.58523
7.14965
1.8072
7.3104
1.8714
7.65651
1.8552
7.80331
1.65595
8.01984
1.37348
8.87505
0.822955
10.3645
7.56986
-0.275883
7.85246
-0.748822
10.9518
-1.47761
9.81221
-1.57125
8.21184
-1.59672
7.97282
-1.49726
7.60582
-1.29576
7.16046
-1.08707
6.99041
-0.854059
6.93012
-0.607266
6.97032
-0.322415
6.9933
-0.0678371
7.0819
0.200437
7.07089
0.450458
7.06708
0.732683
6.97452
0.981515
6.93204
1.21114
6.883
1.42982
6.93091
1.63226
7.10765
1.73327
7.55517
1.72032
7.8165
1.72195
8.01674
1.01609
9.57868
0.510478
10.8703
8.08221
-0.500866
8.35648
-0.914059
11.3623
-1.73609
10.6319
-1.74259
8.21727
-1.72414
7.95202
-1.60766
7.48685
-1.44327
6.99413
-1.22194
6.76595
-0.986434
6.69259
-0.728876
6.71095
-0.493311
6.75579
-0.221556
6.80909
0.0395926
6.80874
0.31461
6.79142
0.554343
6.73421
0.809054
6.67728
1.04592
6.64622
1.26404
6.71247
1.42115
6.94974
1.52083
7.45559
1.50417
7.83229
1.41685
8.10272
0.572133
10.4204
0.217023
11.2244
8.29597
-0.116669
8.47205
-0.476008
11.7213
-1.15747
11.3159
-1.46148
8.52081
-1.47771
7.96625
-1.33876
7.34643
-1.16836
6.82019
-0.986766
6.58237
-0.792919
6.49742
-0.582307
6.49918
-0.313053
6.48489
-0.0686796
6.56356
0.194384
6.54462
0.435081
6.54993
0.69913
6.46987
0.912902
6.46328
1.0998
6.45925
1.28709
6.52507
1.46615
6.76942
1.59746
7.3231
1.59425
7.83467
1.41768
8.27659
0.579149
11.2543
0.240861
11.5648
8.53314
0.0411537
8.42595
-0.100463
11.8608
-0.780184
11.9966
-1.38916
9.1312
-1.29164
7.86806
-1.21504
7.26899
-1.07329
6.67957
-0.914335
6.42238
-0.721114
6.30309
-0.500936
6.27797
-0.308289
6.29089
-0.0704644
6.32494
0.156224
6.31701
0.39576
6.30971
0.591449
6.27341
0.805116
6.24941
0.994267
6.27014
1.14563
6.37341
1.30009
6.61345
1.38047
7.24158
1.56534
7.64814
0.823679
9.01648
0.227187
11.8464
-0.0201397
11.8126
8.51014
-0.246983
8.66283
-0.34383
11.9556
-0.715088
12.3708
-1.37645
9.79263
-1.36004
7.85275
-1.28035
7.19075
-1.11284
6.51177
-0.95196
6.26066
-0.796923
6.14781
-0.637987
6.11882
-0.402627
6.05407
-0.197903
6.11936
0.0315713
6.08681
0.24081
6.09985
0.473351
6.04061
0.640206
6.08207
0.793722
6.11618
0.951764
6.21531
1.11568
6.44804
1.16884
7.18734
1.12926
7.68582
0.394176
9.74739
-0.0816233
12.3191
-0.121257
11.8529
8.38977
-0.0681144
8.72971
0.0363253
11.8496
-0.237863
12.6468
-0.997851
10.5534
-1.1585
8.01494
-1.05832
7.09144
-0.956152
6.41236
-0.806359
6.11113
-0.630762
5.97247
-0.427776
5.91582
-0.263502
5.88867
-0.0469943
5.90237
0.153883
5.88535
0.368289
5.88497
0.528435
5.87962
0.717763
5.89243
0.892911
5.94075
1.03448
6.07298
1.1531
6.32829
1.29493
7.04382
1.12184
7.85722
0.391618
10.4729
0.144424
12.5631
0.206689
11.7905
8.59939
0.0657618
8.66927
0.173961
11.7378
0.230063
12.5871
-0.46214
11.2522
-1.04026
8.59611
-0.912171
6.96566
-0.825235
6.32832
-0.703482
5.99015
-0.562209
5.8318
-0.429289
5.78287
-0.228526
5.68704
-0.0595179
5.7331
0.134005
5.69158
0.299291
5.71938
0.4995
5.67911
0.636138
5.75533
0.769386
5.80691
0.890666
5.95106
0.984675
6.23346
1.17283
6.85433
0.606405
8.42151
-0.0617384
11.1343
-0.061085
12.5599
0.0402236
11.69
8.64137
-0.184969
8.86192
-0.165518
11.715
0.0240596
12.3935
-0.390668
11.6709
-0.963204
9.17248
-1.01765
7.02584
-0.886585
6.20078
-0.795145
5.89944
-0.656279
5.69346
-0.470131
5.59609
-0.328928
5.54527
-0.1452
5.54926
0.0178081
5.52842
0.200545
5.53641
0.337722
5.54125
0.514763
5.57779
0.656073
5.66494
0.735197
5.87198
0.815824
6.15216
0.733825
6.9358
0.0198068
9.13417
-0.459904
11.6083
-0.13537
12.2333
-0.0363961
11.5919
8.60618
-0.0329366
8.89907
0.0524065
11.6317
0.436144
12.0109
0.156922
11.9525
-0.58872
9.92063
-0.832558
7.26887
-0.675094
6.04671
-0.60388
5.83018
-0.482436
5.5719
-0.366596
5.48019
-0.190873
5.36878
-0.0424922
5.40093
0.129331
5.35672
0.274415
5.39121
0.450797
5.36444
0.568337
5.46007
0.683548
5.5495
0.757627
5.79599
0.932344
5.97671
0.702512
7.166
-0.0522601
9.8882
-0.253184
11.8049
0.140537
11.8409
0.174974
11.5586
8.78138
0.0820522
8.81854
0.155288
11.5587
0.425783
11.7418
0.520553
11.8589
-0.0559256
10.4988
-0.5512
7.77131
-0.629237
6.12787
-0.537909
5.73843
-0.457585
5.49187
-0.304391
5.32657
-0.188363
5.2523
-0.0354378
5.24807
0.100564
5.22087
0.255652
5.23628
0.37046
5.24953
0.52383
5.30641
0.607644
5.46562
0.727663
5.67816
0.673729
6.03095
0.226733
7.61261
-0.321182
10.4348
-0.28882
11.7687
0.000495083
11.554
0.059311
11.4994
8.8412
-0.109498
8.92565
-0.0566438
11.5081
0.163341
11.5216
0.494311
11.5276
0.0366348
10.9605
-0.500836
8.31179
-0.64695
6.27552
-0.556102
5.64782
-0.471776
5.40663
-0.391104
5.24564
-0.247186
5.10738
-0.126988
5.1282
0.0162782
5.07806
0.142866
5.10999
0.285267
5.10714
0.361609
5.23087
0.43714
5.3906
0.51878
5.59635
0.281942
6.268
-0.379261
8.27507
-0.773429
10.828
-0.388928
11.3842
-0.21277
11.3791
-0.14373
11.4303
8.70043
0.0417544
8.87678
0.103518
11.4471
0.269921
11.3529
0.629135
11.1678
0.627911
10.9602
-0.000522456
8.94163
-0.434321
6.70897
-0.460415
5.67273
-0.370566
5.31682
-0.25042
5.12547
-0.160027
5.01672
-0.0272979
4.99603
0.0922334
4.95908
0.220236
4.98272
0.314129
5.01406
0.437357
5.10819
0.532152
5.29749
0.502401
5.6274
0.1039
6.66778
-0.506939
8.88734
-0.463607
10.7852
-0.118067
11.04
0.0499615
11.2136
0.108512
11.3717
8.81326
0.177087
8.6933
0.298557
11.3217
0.413703
11.2321
0.632737
10.9442
0.899367
10.6899
0.316396
9.51871
-0.140709
7.16526
-0.315979
5.84632
-0.265507
5.26618
-0.222728
5.08225
-0.125599
4.91897
-0.0285635
4.89969
0.0876945
4.84365
0.185206
4.88605
0.28451
4.9155
0.340373
5.05414
0.396775
5.24241
0.243483
5.7814
-0.229503
7.14145
-0.810046
9.46924
-0.485383
10.4619
-0.242472
10.7994
-0.136565
11.1083
-0.0639259
11.2997
8.75575
-0.0162739
8.70228
0.0739453
11.2297
0.157856
11.1438
0.395642
10.7039
0.821041
10.2583
0.641542
9.69203
-0.0113183
7.81447
-0.338213
6.17329
-0.329907
5.25705
-0.249032
5.00136
-0.177353
4.84726
-0.085605
4.80873
0.00728151
4.75164
0.0973254
4.79719
0.162526
4.85179
0.22974
4.9884
0.207297
5.2673
-0.129256
6.11961
-0.80606
7.82122
-0.928236
9.59239
-0.580827
10.118
-0.354549
10.5741
-0.293086
11.0465
-0.155736
11.1648
8.60759
0.116091
8.5844
0.301022
11.0415
0.364245
11.0741
0.536138
10.5264
0.818475
9.9704
0.960799
9.54557
0.462955
8.30868
-0.0249757
6.66264
-0.171972
5.40316
-0.164133
4.99315
-0.0884911
4.77164
-0.0191516
4.7404
0.0609114
4.67265
0.132256
4.72713
0.205048
4.78057
0.229325
4.96597
0.0489757
5.44947
-0.442033
6.61369
-0.892064
8.27221
-0.68439
9.38683
-0.422351
9.8584
-0.233829
10.3871
-0.177749
10.99
-0.038094
11.028
8.57496
0.173908
8.4111
0.385316
10.8285
0.453968
11.004
0.583426
10.3947
0.811456
9.73728
1.16277
9.19101
0.845977
8.62397
0.212776
7.29842
-0.034659
5.64952
-0.0888597
5.04707
-0.047198
4.73022
0.00102008
4.69288
0.0492996
4.62504
0.106297
4.67137
0.147669
4.74095
0.114513
5.00101
-0.151502
5.71745
-0.789693
7.25839
-1.01233
8.49653
-0.689557
9.06744
-0.448315
9.6192
-0.312143
10.2516
-0.254757
10.9318
-0.0792007
10.8554
8.50063
0.0439984
8.37111
0.247376
10.6268
0.356149
10.8954
0.428886
10.3202
0.607875
9.55629
0.852371
8.94332
0.96489
8.5092
0.621238
7.64225
0.0742153
6.1966
-0.10484
5.2262
-0.0834991
4.7092
-0.0470032
4.6571
-0.0184755
4.5972
0.0191362
4.63514
0.0186686
4.74306
-0.143366
5.1647
-0.771924
6.34777
-1.12227
7.61027
-0.973816
8.34963
-0.739693
8.83538
-0.579595
9.46052
-0.520492
10.1928
-0.410843
10.8226
-0.179526
10.6255
8.32341
0.0826034
8.29231
0.323128
10.3897
0.467445
10.7555
0.558243
10.2313
0.68235
9.43257
0.829092
8.79454
1.16941
8.17145
0.900333
7.91212
0.324878
6.77427
0.049202
5.50208
0.00288857
4.75542
0.00685305
4.65363
0.00774505
4.59697
0.0137649
4.63016
-0.0523521
4.81079
-0.329416
5.44338
-0.789259
6.80914
-1.11553
7.93744
-0.797822
8.0336
-0.650557
8.68941
-0.530152
9.34179
-0.441952
10.1048
-0.305405
10.6856
-0.0611943
10.3822
8.26333
0.11288
8.18369
0.44737
10.0604
0.637949
10.5683
0.647056
10.2235
0.707287
9.37454
0.875092
8.62813
1.05436
7.99465
1.17203
7.79659
0.8781
7.07126
0.211683
6.16948
0.0587646
4.90887
0.0237514
4.68903
0.00322849
4.61808
-0.027039
4.66181
-0.197877
4.98345
-0.848825
6.09624
-1.12261
7.08327
-0.970978
7.78597
-0.813512
7.87637
-0.653667
8.52997
-0.594873
9.28304
-0.565464
10.0752
-0.38019
10.4995
-0.0647586
10.066
8.19792
-0.00274305
-0.182411
0.00356726
-0.173466
0.0117223
-0.1752
0.0134579
-0.175656
0.0147525
-0.175631
0.0160051
-0.184857
0.0177177
-0.198099
0.0202532
-0.216913
0.0227978
-0.238243
0.0254539
-0.259962
0.0305719
-0.284457
0.0410657
-0.316777
0.0586313
-0.3612
0.0834939
-0.415625
0.115036
-0.480205
0.152021
-0.552768
0.192951
-0.626434
0.236731
-0.694691
0.281367
-0.765666
0.314142
-0.814269
0.315375
-0.838881
0.104709
-0.737528
0.0315277
-0.208845
0.00634394
-0.0193534
0.000143824
0.0384155
-0.00130266
0.051484
-0.000845524
0.054394
-0.000675366
0.0557001
0.000797729
0.0522139
0.0583531
0.00654778
-0.189018
0.0124086
-0.158569
0.0164625
-0.162175
0.0149205
-0.159025
0.0130258
-0.156305
0.0118902
-0.165366
0.0124239
-0.17664
0.0144867
-0.194622
0.016774
-0.215826
0.0188666
-0.238094
0.0225169
-0.262401
0.0311972
-0.293741
0.0470682
-0.338385
0.0703564
-0.390599
0.100971
-0.450851
0.138554
-0.519243
0.181678
-0.592403
0.228301
-0.662766
0.276973
-0.734424
0.322741
-0.795912
0.352973
-0.833248
0.36978
-0.842687
0.116128
-0.665903
0.0327277
-0.160248
0.0062226
-0.00143536
-1.14957e-05
0.042851
-0.000968335
0.0516827
-0.000898282
0.0547078
-0.00102055
0.0522243
0.0572971
0.00116501
-0.184848
0.0034362
-0.147045
0.00648755
-0.153718
0.00198281
-0.146266
-0.000443713
-0.145026
-0.00357681
-0.150922
-0.00426853
-0.159566
-0.0030373
-0.175002
-0.00109498
-0.194166
0.000491221
-0.215617
0.00262157
-0.237926
0.0092348
-0.261512
0.0239153
-0.312666
0.0461757
-0.363888
0.0759291
-0.420748
0.113679
-0.480504
0.159447
-0.547443
0.210282
-0.624912
0.262875
-0.697872
0.316161
-0.76743
0.36722
-0.819984
0.40919
-0.852596
0.397976
-0.84679
0.10301
-0.618786
0.0265482
-0.117417
0.0049788
0.0157888
0.00023287
0.0451435
-0.000685977
0.0528203
-0.00147715
0.0525484
0.0556536
-0.0016371
-0.172835
-0.0003221
-0.138201
0.00126351
-0.146343
-0.00478899
-0.136599
-0.00926134
-0.137367
-0.0141127
-0.141514
-0.0168064
-0.148888
-0.0173636
-0.162644
-0.0167457
-0.180504
-0.0161831
-0.20088
-0.0159244
-0.222201
-0.0128394
-0.243315
0.00065262
-0.273551
0.0219175
-0.33203
0.0516139
-0.387744
0.0890231
-0.446685
0.134614
-0.508842
0.189267
-0.576353
0.249628
-0.659132
0.309005
-0.738708
0.366175
-0.801978
0.420295
-0.852024
0.463863
-0.901774
0.390465
-0.857557
0.08813
-0.458712
0.0206977
-0.077798
0.00380938
0.0261526
0.000212123
0.0481519
-0.0010481
0.0518815
0.0540797
-0.000599985
-0.15976
-0.000826519
-0.129242
-0.00225557
-0.137093
-0.00912066
-0.128086
-0.0150156
-0.130402
-0.0207989
-0.134039
-0.0245765
-0.141895
-0.0264709
-0.154022
-0.026954
-0.170541
-0.0271803
-0.189682
-0.0278955
-0.210388
-0.0272357
-0.230757
-0.0179982
-0.25228
0.00408962
-0.300118
0.0334406
-0.355664
0.0708301
-0.414715
0.115528
-0.4772
0.168467
-0.543642
0.231067
-0.617072
0.299993
-0.703888
0.363961
-0.788623
0.420667
-0.850623
0.474137
-0.908612
0.515298
-0.95898
0.350619
-0.857678
0.072348
-0.314981
0.0155771
-0.0429207
0.0027626
0.0345051
-0.000162609
0.0490207
0.0524593
-0.000963558
-0.145935
-0.0027702
-0.119749
-0.00600306
-0.127926
-0.0135955
-0.121242
-0.0207807
-0.125046
-0.0277581
-0.128503
-0.0326911
-0.136051
-0.0355833
-0.146526
-0.0366949
-0.161782
-0.0373117
-0.179588
-0.0385677
-0.19936
-0.0392197
-0.218918
-0.0331406
-0.239379
-0.0137571
-0.273801
0.0168225
-0.326955
0.054281
-0.389001
0.0986487
-0.453797
0.150159
-0.520714
0.210411
-0.592198
0.279585
-0.67571
0.352129
-0.768272
0.418147
-0.849418
0.478271
-0.90995
0.530052
-0.972028
0.567383
-1.01098
0.208866
-0.857678
0.0562238
-0.240439
0.0113316
-0.0133518
0.00172501
0.0399166
0.0497641
-0.00203754
-0.129643
-0.00545041
-0.108695
-0.0104577
-0.117443
-0.0179481
-0.113995
-0.0260147
-0.120808
-0.033381
-0.125825
-0.039314
-0.135346
-0.0434311
-0.14562
-0.0456214
-0.159667
-0.0469631
-0.17567
-0.0486562
-0.195057
-0.0496534
-0.216346
-0.0467719
-0.232109
-0.03159
-0.260237
0.000215221
-0.307745
0.036677
-0.371601
0.0811002
-0.439331
0.131764
-0.50871
0.189478
-0.580105
0.256521
-0.657096
0.332027
-0.745676
0.408104
-0.837234
0.476016
-0.913339
0.541468
-0.975356
0.59638
-1.04056
0.603155
-1.04904
0.163413
-0.827571
0.0412794
-0.162472
0.00753545
0.0112414
0.0430261
-0.00459796
-0.112672
-0.0099316
-0.0965421
-0.0164953
-0.105715
-0.0232617
-0.106892
-0.0311132
-0.120308
-0.0387974
-0.129899
-0.0449679
-0.142624
-0.0499612
-0.152617
-0.0532696
-0.163707
-0.0561956
-0.176677
-0.0580634
-0.193869
-0.0587583
-0.217881
-0.0579776
-0.239242
-0.047461
-0.258405
-0.0210201
-0.300207
0.017965
-0.360798
0.0623208
-0.43155
0.112754
-0.502066
0.169327
-0.573448
0.233912
-0.646417
0.308468
-0.727518
0.389778
-0.818321
0.46869
-0.907644
0.539375
-0.979302
0.60824
-1.04415
0.668989
-1.10763
0.59673
-1.05407
0.128715
-0.643617
0.0273092
-0.087738
0.0242773
-0.00785627
-0.0981409
-0.0154795
-0.0851641
-0.0230519
-0.0941801
-0.0307094
-0.101697
-0.038604
-0.12356
-0.0455384
-0.138182
-0.0510948
-0.153988
-0.0548074
-0.166789
-0.0601872
-0.17223
-0.062548
-0.180176
-0.0659686
-0.196478
-0.0680229
-0.219003
-0.0679657
-0.238389
-0.0612751
-0.262221
-0.0398127
-0.300348
0.0001545
-0.354182
0.0431231
-0.425424
0.09375
-0.495901
0.150151
-0.567495
0.213192
-0.639041
0.285295
-0.714904
0.367161
-0.799368
0.453652
-0.892269
0.53499
-0.978985
0.609979
-1.04776
0.678121
-1.11441
0.738437
-1.16087
0.509202
-0.901901
0.0906437
-0.344124
-0.0426242
-0.0106706
-0.0874112
-0.0210747
-0.0756945
-0.0310664
-0.0839267
-0.0397212
-0.0923415
-0.0473344
-0.114022
-0.0529262
-0.130458
-0.0576318
-0.148728
-0.0600828
-0.163242
-0.0641202
-0.175478
-0.068875
-0.185549
-0.072047
-0.20267
-0.076314
-0.218313
-0.0769755
-0.235602
-0.0737722
-0.26103
-0.0563335
-0.300915
-0.0217774
-0.349554
0.0242003
-0.416295
0.0749616
-0.486943
0.131483
-0.55839
0.193909
-0.630056
0.263988
-0.704092
0.343911
-0.782968
0.433001
-0.872362
0.524207
-0.967356
0.608205
-1.05105
0.690031
-1.11918
0.765243
-1.18454
0.816675
-1.14417
0.226476
-0.773136
-0.262044
-0.0135304
-0.0787713
-0.0268464
-0.067664
-0.0391044
-0.0743297
-0.0486498
-0.0820802
-0.0557176
-0.101536
-0.0606033
-0.119582
-0.0645076
-0.142193
-0.0657922
-0.160992
-0.0686884
-0.179683
-0.0746415
-0.193753
-0.0803518
-0.212113
-0.082683
-0.226676
-0.0847929
-0.246558
-0.0845327
-0.270548
-0.0710987
-0.283629
-0.040589
-0.3457
0.00642693
-0.405331
0.0564775
-0.475968
0.112914
-0.546232
0.17509
-0.618079
0.244067
-0.691795
0.321744
-0.768288
0.409875
-0.852837
0.506077
-0.947277
0.60218
-1.04303
0.690592
-1.12449
0.775418
-1.17589
0.83411
-1.22843
0.75673
-1.18393
-0.913722
-0.0158872
-0.0711955
-0.0320323
-0.0593612
-0.0463794
-0.0639671
-0.0571761
-0.071129
-0.0640382
-0.0889578
-0.0682756
-0.110818
-0.0707088
-0.139096
-0.0730695
-0.161966
-0.0742578
-0.185188
-0.0812685
-0.204538
-0.0865602
-0.223835
-0.0905825
-0.23818
-0.0914965
-0.257779
-0.0915983
-0.277187
-0.0837606
-0.295702
-0.0571221
-0.345718
-0.0123659
-0.398133
0.0386779
-0.466571
0.0946883
-0.535096
0.156482
-0.605808
0.224848
-0.678264
0.301039
-0.754381
0.386943
-0.835968
0.483326
-0.925743
0.587156
-1.02337
0.687558
-1.1186
0.770026
-1.14129
0.85703
-1.28682
0.7692
-1.4926
-3.45301
-0.0187642
-0.0621516
-0.0373556
-0.0492222
-0.0534824
-0.0520386
-0.0651781
-0.0608743
-0.0726417
-0.0827158
-0.0769459
-0.107794
-0.0775002
-0.138972
-0.080471
-0.165822
-0.0806881
-0.193585
-0.0875766
-0.217165
-0.0928868
-0.235624
-0.0976242
-0.252729
-0.0982972
-0.272366
-0.097282
-0.292904
-0.0934138
-0.312121
-0.0710995
-0.350773
-0.0304153
-0.397818
0.0221659
-0.461924
0.0776394
-0.528478
0.138956
-0.597168
0.206619
-0.667152
0.281842
-0.742622
0.365888
-0.821799
0.460206
-0.907036
0.56572
-1.00014
0.675941
-1.05876
0.760432
-1.15302
0.718692
-1.37863
0.535679
-1.8027
-5.58731
-0.021192
-0.0501554
-0.0413705
-0.0360803
-0.0595134
-0.0390331
-0.072535
-0.0530372
-0.08122
-0.0783497
-0.0853363
-0.106725
-0.0854651
-0.141563
-0.0881925
-0.172497
-0.0877408
-0.204049
-0.0928148
-0.229056
-0.0991461
-0.250606
-0.103854
-0.27385
-0.104508
-0.29253
-0.103143
-0.314006
-0.100721
-0.331905
-0.0824653
-0.359632