/*--------------------------------*- C++ -*----------------------------------*\
| =========                 |                                                 |
| \\      /  F ield         | OpenFOAM: The Open Source CFD Toolbox           |
|  \\    /   O peration     | Version:  2112                                  |
|   \\  /    A nd           | Website:  www.openfoam.com                      |
|    \\/     M anipulation  |                                                 |
\*---------------------------------------------------------------------------*/
FoamFile
{
    version     2.0;
    format      ascii;
    arch        "LSB;label=32;scalar=64";
    class       volScalarField;
    location    "0.00411";
    object      epsilon;
}
// * * * * * * * * * * * * * * * * * * * * * * * * * * * * * * * * * * * * * //

dimensions      [0 2 -3 0 0 0 0];

internalField   nonuniform List<scalar> 
13875
(
1.15999e+06
2.94626e+07
3.28147e+07
3.2841e+07
3.29591e+07
3.28503e+07
3.29082e+07
3.2889e+07
3.28751e+07
3.28931e+07
3.29702e+07
3.29186e+07
3.28641e+07
3.28401e+07
3.28541e+07
3.29235e+07
3.29781e+07
3.29145e+07
3.28801e+07
3.2833e+07
3.29396e+07
3.2833e+07
3.2801e+07
2.95e+07
1.17773e+06
1.31392e+06
2.27477e+07
2.53493e+07
2.52372e+07
2.5305e+07
2.52106e+07
2.52401e+07
2.52044e+07
2.52113e+07
2.52266e+07
2.52618e+07
2.52478e+07
2.52061e+07
2.51937e+07
2.51973e+07
2.52571e+07
2.52586e+07
2.52444e+07
2.52271e+07
2.52027e+07
2.52907e+07
2.52177e+07
2.53249e+07
2.27655e+07
1.34179e+06
1.5731e+06
1.97067e+07
2.18243e+07
2.16228e+07
2.16959e+07
2.16266e+07
2.16382e+07
2.15851e+07
2.15855e+07
2.15303e+07
2.15541e+07
2.15546e+07
2.16051e+07
2.16043e+07
2.15962e+07
2.15654e+07
2.15516e+07
2.15653e+07
2.16265e+07
2.16236e+07
2.16938e+07
2.1597e+07
2.17867e+07
1.96921e+07
1.58412e+06
1.81385e+06
1.73852e+07
1.90335e+07
1.88769e+07
1.89622e+07
1.8908e+07
1.8912e+07
1.88619e+07
1.88655e+07
1.87933e+07
1.88192e+07
1.88027e+07
1.88815e+07
1.88815e+07
1.88753e+07
1.88112e+07
1.88196e+07
1.88187e+07
1.89002e+07
1.89008e+07
1.89609e+07
1.88541e+07
1.90116e+07
1.73619e+07
1.82027e+06
2.02298e+06
1.54523e+07
1.6768e+07
1.66182e+07
1.66957e+07
1.66529e+07
1.66525e+07
1.66085e+07
1.66102e+07
1.65446e+07
1.65689e+07
1.65432e+07
1.66254e+07
1.66277e+07
1.6621e+07
1.65509e+07
1.65688e+07
1.65563e+07
1.66413e+07
1.66472e+07
1.66964e+07
1.66015e+07
1.6742e+07
1.5425e+07
2.03626e+06
2.20674e+06
1.37125e+07
1.49241e+07
1.47356e+07
1.48203e+07
1.47788e+07
1.47689e+07
1.47277e+07
1.47231e+07
1.4664e+07
1.46874e+07
1.46538e+07
1.47403e+07
1.47456e+07
1.4738e+07
1.46601e+07
1.46885e+07
1.46657e+07
1.47586e+07
1.47768e+07
1.48234e+07
1.47266e+07
1.49007e+07
1.38447e+07
2.22337e+06
2.42292e+06
1.22514e+07
1.3474e+07
1.32046e+07
1.32578e+07
1.3208e+07
1.31862e+07
1.3146e+07
1.31346e+07
1.30781e+07
1.31028e+07
1.3064e+07
1.31543e+07
1.31634e+07
1.31525e+07
1.30689e+07
1.31075e+07
1.3078e+07
1.31781e+07
1.32091e+07
1.32613e+07
1.3199e+07
1.34198e+07
1.19504e+07
2.43052e+06
2.66687e+06
1.06173e+07
1.23105e+07
1.19741e+07
1.199e+07
1.19119e+07
1.18658e+07
1.1819e+07
1.17958e+07
1.17397e+07
1.17676e+07
1.17221e+07
1.18162e+07
1.18315e+07
1.18174e+07
1.17258e+07
1.17775e+07
1.1742e+07
1.18536e+07
1.19118e+07
1.19899e+07
1.19707e+07
1.22596e+07
1.05405e+07
2.6961e+06
3.49773e+06
1.02109e+07
1.14824e+07
1.1034e+07
1.09423e+07
1.08366e+07
1.07692e+07
1.0712e+07
1.06757e+07
1.06185e+07
1.06509e+07
1.06004e+07
1.06968e+07
1.0719e+07
1.07018e+07
1.06058e+07
1.06655e+07
1.06265e+07
1.07475e+07
1.08359e+07
1.09513e+07
1.10282e+07
1.1476e+07
1.03413e+07
3.57708e+06
6.83708e+06
1.2226e+07
1.11993e+07
1.04163e+07
1.02159e+07
1.00347e+07
9.93969e+06
9.86917e+06
9.82122e+06
9.76937e+06
9.79716e+06
9.74956e+06
9.84291e+06
9.87096e+06
9.85259e+06
9.76471e+06
9.81596e+06
9.7875e+06
9.89704e+06
1.00242e+07
1.02088e+07
1.04031e+07
1.11684e+07
1.21233e+07
6.88483e+06
1.49271e+07
1.86835e+07
1.20791e+07
1.04064e+07
9.77327e+06
9.50747e+06
9.37386e+06
9.28527e+06
9.22814e+06
9.18174e+06
9.19918e+06
9.15963e+06
9.24571e+06
9.27738e+06
9.26354e+06
9.19633e+06
9.22999e+06
9.22056e+06
9.31979e+06
9.47712e+06
9.76375e+06
1.03774e+07
1.19645e+07
1.80246e+07
1.50306e+07
2.53971e+07
6.77197e+07
1.86635e+07
1.0916e+07
9.9939e+06
9.38997e+06
9.11697e+06
8.98719e+06
8.90919e+06
8.862e+06
8.8672e+06
8.83886e+06
8.90996e+06
8.94308e+06
8.93887e+06
8.8996e+06
8.92509e+06
8.944e+06
9.05963e+06
9.35791e+06
9.91961e+06
1.07445e+07
1.79381e+07
6.7117e+07
2.50195e+07
2.66175e+07
7.1238e+07
8.96953e+07
2.73974e+07
1.16912e+07
9.84664e+06
9.40144e+06
9.25844e+06
9.15935e+06
9.10568e+06
9.10346e+06
9.08511e+06
9.14057e+06
9.17033e+06
9.18083e+06
9.1712e+06
9.20816e+06
9.2649e+06
9.40362e+06
9.81445e+06
1.20621e+07
2.54955e+07
8.41538e+07
7.18052e+07
2.60997e+07
2.63739e+07
5.23513e+07
8.0607e+07
1.15449e+08
5.77432e+07
1.59226e+07
1.23557e+07
1.112e+07
1.07116e+07
1.05744e+07
1.05277e+07
1.05106e+07
1.05509e+07
1.05876e+07
1.0619e+07
1.06651e+07
1.07985e+07
1.11877e+07
1.25037e+07
1.70423e+07
6.60546e+07
9.93965e+07
7.60993e+07
5.21509e+07
2.58977e+07
2.5671e+07
4.16266e+07
5.95528e+07
8.02678e+07
7.0444e+07
6.04136e+07
5.88554e+07
3.61487e+07
3.68394e+07
3.75119e+07
3.79346e+07
3.77668e+07
3.81182e+07
3.80766e+07
3.81356e+07
3.77889e+07
3.71881e+07
3.67875e+07
6.05083e+07
6.45108e+07
7.18759e+07
7.2464e+07
5.77065e+07
4.14487e+07
2.69647e+07
2.59408e+07
3.42364e+07
4.89221e+07
6.59125e+07
6.80366e+07
7.27781e+07
6.51853e+07
4.77762e+07
5.10719e+07
5.54701e+07
5.66803e+07
5.67737e+07
5.7237e+07
5.75475e+07
5.69213e+07
5.60581e+07
5.10987e+07
4.69252e+07
6.42447e+07
7.44597e+07
6.92529e+07
6.1201e+07
4.76637e+07
3.39812e+07
2.71671e+07
2.29782e+07
2.9592e+07
4.28527e+07
5.60649e+07
5.94692e+07
6.56077e+07
5.74236e+07
4.07915e+07
3.57416e+07
3.64569e+07
3.7042e+07
3.71132e+07
3.73542e+07
3.75033e+07
3.72385e+07
3.68295e+07
3.61209e+07
4.13082e+07
5.55547e+07
6.58514e+07
6.07541e+07
5.37827e+07
4.17109e+07
2.85425e+07
2.26635e+07
1.82231e+07
2.67862e+07
4.1065e+07
4.56389e+07
4.65902e+07
5.41153e+07
4.72718e+07
3.50344e+07
2.88232e+07
2.70686e+07
2.68919e+07
2.6825e+07
2.69722e+07
2.70588e+07
2.70949e+07
2.7428e+07
2.95179e+07
3.59239e+07
4.55716e+07
5.18522e+07
4.65849e+07
4.46391e+07
4.12509e+07
2.6364e+07
1.7705e+07
1.44898e+07
2.66667e+07
3.69545e+07
3.76701e+07
3.67023e+07
4.06021e+07
3.8867e+07
3.26255e+07
2.67519e+07
2.28947e+07
2.12141e+07
2.0615e+07
2.06054e+07
2.07454e+07
2.12286e+07
2.27e+07
2.65191e+07
3.23403e+07
3.73008e+07
3.91709e+07
3.63515e+07
3.71578e+07
3.73247e+07
2.70777e+07
1.41697e+07
1.32358e+07
3.00504e+07
3.21223e+07
3.10136e+07
2.9932e+07
3.21227e+07
3.25322e+07
2.97166e+07
2.51909e+07
2.05414e+07
1.77336e+07
1.66362e+07
1.64871e+07
1.67663e+07
1.78015e+07
2.04382e+07
2.49931e+07
2.92805e+07
3.1362e+07
3.12704e+07
2.98529e+07
3.09484e+07
3.22809e+07
2.99487e+07
1.33321e+07
1.55857e+07
2.50972e+07
2.62258e+07
2.54906e+07
2.47468e+07
2.63891e+07
2.73127e+07
2.60032e+07
2.25908e+07
1.81357e+07
1.49925e+07
1.36397e+07
1.34193e+07
1.38153e+07
1.52075e+07
1.82743e+07
2.25481e+07
2.56059e+07
2.64845e+07
2.59617e+07
2.49025e+07
2.56771e+07
2.65369e+07
2.48969e+07
1.55991e+07
2.3978e+07
2.82367e+07
2.22193e+07
2.14077e+07
2.08764e+07
2.22263e+07
2.30168e+07
2.23618e+07
1.97602e+07
1.57752e+07
1.27046e+07
1.13023e+07
1.10353e+07
1.14623e+07
1.2916e+07
1.59169e+07
1.96812e+07
2.19311e+07
2.23502e+07
2.202e+07
2.11107e+07
2.16011e+07
2.25307e+07
2.9616e+07
2.45767e+07
2.69219e+07
3.16157e+07
1.93255e+07
1.79888e+07
1.77948e+07
1.88243e+07
1.93905e+07
1.90557e+07
1.70011e+07
1.35601e+07
1.07694e+07
9.43709e+06
9.1546e+06
9.53697e+06
1.0877e+07
1.35904e+07
1.6838e+07
1.85975e+07
1.87416e+07
1.86173e+07
1.79763e+07
1.81166e+07
1.9414e+07
3.35198e+07
2.72511e+07
2.61557e+07
3.15621e+07
1.66491e+07
1.53692e+07
1.51953e+07
1.58262e+07
1.63337e+07
1.6194e+07
1.44624e+07
1.14604e+07
9.05573e+06
7.91114e+06
7.66368e+06
8.00928e+06
9.18141e+06
1.15407e+07
1.43576e+07
1.58142e+07
1.57806e+07
1.56495e+07
1.5375e+07
1.55496e+07
1.6813e+07
3.2461e+07
2.65428e+07
2.54313e+07
3.01811e+07
1.46871e+07
1.34218e+07
1.30908e+07
1.3428e+07
1.3872e+07
1.37858e+07
1.23189e+07
9.74353e+06
7.67539e+06
6.69553e+06
6.48615e+06
6.78194e+06
7.79082e+06
9.84333e+06
1.22643e+07
1.34748e+07
1.33981e+07
1.3245e+07
1.32109e+07
1.35694e+07
1.48548e+07
3.13117e+07
2.59525e+07
2.46232e+07
2.97e+07
1.32653e+07
1.19412e+07
1.13989e+07
1.15398e+07
1.1868e+07
1.17549e+07
1.04979e+07
8.31461e+06
6.55996e+06
5.72323e+06
5.54031e+06
5.79188e+06
6.64314e+06
8.37837e+06
1.04222e+07
1.1462e+07
1.14426e+07
1.13238e+07
1.14167e+07
1.20115e+07
1.33317e+07
2.97339e+07
2.51744e+07
2.37669e+07
2.80578e+07
1.21417e+07
1.06811e+07
1.00381e+07
1.00006e+07
1.01868e+07
1.00136e+07
8.91893e+06
7.09251e+06
5.6264e+06
4.9303e+06
4.77861e+06
4.99532e+06
5.72353e+06
7.20167e+06
8.93458e+06
9.83895e+06
9.86534e+06
9.81952e+06
1.00325e+07
1.07494e+07
1.22442e+07
2.84658e+07
2.508e+07
2.35455e+07
2.62727e+07
1.12694e+07
9.60538e+06
8.9787e+06
8.80133e+06
8.83583e+06
8.60235e+06
7.63746e+06
6.1024e+06
4.8764e+06
4.29066e+06
4.1578e+06
4.3448e+06
4.95854e+06
6.19199e+06
7.64838e+06
8.45958e+06
8.56336e+06
8.61616e+06
8.93545e+06
9.63778e+06
1.13383e+07
2.71004e+07
2.51826e+07
2.38975e+07
2.4921e+07
1.04685e+07
8.68851e+06
8.07786e+06
7.826e+06
7.72405e+06
7.44148e+06
6.58444e+06
5.29041e+06
4.25949e+06
3.76274e+06
3.64651e+06
3.8051e+06
4.31677e+06
5.34379e+06
6.57034e+06
7.30938e+06
7.48066e+06
7.63063e+06
7.99792e+06
8.69056e+06
1.05463e+07
2.58121e+07
2.48071e+07
2.32185e+07
2.38878e+07
9.80883e+06
7.87297e+06
7.27257e+06
6.99109e+06
6.78376e+06
6.44013e+06
5.66082e+06
4.57965e+06
3.7332e+06
3.32189e+06
3.22235e+06
3.36478e+06
3.80245e+06
4.6646e+06
5.70466e+06
6.38718e+06
6.61891e+06
6.83859e+06
7.20493e+06
7.89256e+06
9.96224e+06
2.53649e+07
2.44215e+07
2.22776e+07
2.28473e+07
9.33179e+06
7.22377e+06
6.58546e+06
6.27681e+06
6.01283e+06
5.64349e+06
4.93441e+06
4.0151e+06
3.30373e+06
2.95416e+06
2.86719e+06
2.99154e+06
3.35839e+06
4.0796e+06
4.96533e+06
5.60136e+06
5.8791e+06
6.13861e+06
6.5137e+06
7.23783e+06
9.47045e+06
2.41956e+07
2.31027e+07
2.15163e+07
2.19591e+07
8.96067e+06
6.75481e+06
5.98515e+06
5.66065e+06
5.37329e+06
4.98258e+06
4.33444e+06
3.5457e+06
2.94693e+06
2.64715e+06
2.56884e+06
2.67874e+06
2.98939e+06
3.59189e+06
4.34997e+06
4.94614e+06
5.26043e+06
5.53839e+06
5.91386e+06
6.75374e+06
9.11753e+06
2.27619e+07
2.20341e+07
2.03549e+07
2.05855e+07
8.74242e+06
6.37412e+06
5.47817e+06
5.10976e+06
4.80707e+06
4.41037e+06
3.82115e+06
3.1437e+06
2.63804e+06
2.38338e+06
2.31518e+06
2.41405e+06
2.68199e+06
3.19776e+06
3.85721e+06
4.40302e+06
4.73117e+06
5.01394e+06
5.4146e+06
6.37235e+06
8.88601e+06
2.15271e+07
2.12924e+07
1.97297e+07
1.93031e+07
8.58967e+06
6.12745e+06
5.06904e+06
4.64813e+06
4.32736e+06
3.94091e+06
3.40156e+06
2.81329e+06
2.3831e+06
2.16165e+06
2.09947e+06
2.18753e+06
2.41826e+06
2.85403e+06
3.42629e+06
3.93441e+06
4.26853e+06
4.56843e+06
5.01331e+06
6.11296e+06
8.75119e+06
2.00356e+07
2.03835e+07
1.91819e+07
1.82083e+07
8.22021e+06
5.95186e+06
4.76577e+06
4.25069e+06
3.91033e+06
3.54116e+06
3.0536e+06
2.54001e+06
2.16458e+06
1.97075e+06
1.91432e+06
1.9924e+06
2.19282e+06
2.57123e+06
3.06987e+06
3.53407e+06
3.86302e+06
4.18506e+06
4.72609e+06
5.96503e+06
8.4427e+06
1.86283e+07
1.9781e+07
1.83586e+07
1.68699e+07
7.69689e+06
5.81384e+06
4.54342e+06
3.91989e+06
3.55117e+06
3.19017e+06
2.74577e+06
2.2968e+06
1.97531e+06
1.80601e+06
1.7551e+06
1.82686e+06
2.00451e+06
2.3317e+06
2.77181e+06
3.19848e+06
3.52274e+06
3.87513e+06
4.51729e+06
5.90408e+06
7.98515e+06
1.74014e+07
1.92529e+07
1.78444e+07
1.57419e+07
7.22697e+06
5.82375e+06
4.39153e+06
3.66477e+06
3.24928e+06
2.89367e+06
2.49059e+06
2.09676e+06
1.81304e+06
1.66212e+06
1.61594e+06
1.68071e+06
1.83705e+06
2.12439e+06
2.50875e+06
2.8992e+06
3.22869e+06
3.62979e+06
4.37541e+06
5.96432e+06
7.42488e+06
1.60451e+07
1.84878e+07
1.74981e+07
1.4681e+07
6.79329e+06
5.73885e+06
4.33233e+06
3.47166e+06
3.00908e+06
2.64627e+06
2.27182e+06
1.92033e+06
1.67227e+06
1.53727e+06
1.49487e+06
1.55446e+06
1.69225e+06
1.94157e+06
2.2849e+06
2.64795e+06
2.98733e+06
3.44828e+06
4.36127e+06
5.89617e+06
6.87803e+06
1.48825e+07
1.79995e+07
1.69032e+07
1.36472e+07
6.23633e+06
5.4384e+06
4.30799e+06
3.32556e+06
2.81714e+06
2.43117e+06
2.07897e+06
1.76546e+06
1.54602e+06
1.42552e+06
1.38769e+06
1.44246e+06
1.56614e+06
1.78908e+06
2.09587e+06
2.43764e+06
2.8017e+06
3.31544e+06
4.38085e+06
5.59514e+06
6.33278e+06
1.39659e+07
1.76444e+07
1.65281e+07
1.28527e+07
5.71506e+06
5.12624e+06
4.44371e+06
3.24477e+06
2.67265e+06
2.26125e+06
1.91861e+06
1.63232e+06
1.43682e+06
1.32851e+06
1.29309e+06
1.34316e+06
1.4533e+06
1.65076e+06
1.93125e+06
2.26525e+06
2.65713e+06
3.24426e+06
4.5362e+06
5.22733e+06
5.75496e+06
1.31523e+07
1.70913e+07
1.62379e+07
1.22256e+07
5.30608e+06
4.7873e+06
4.43578e+06
3.22988e+06
2.55693e+06
2.13385e+06
1.78717e+06
1.51891e+06
1.34033e+06
1.24121e+06
1.20872e+06
1.25372e+06
1.35392e+06
1.53297e+06
1.79478e+06
2.13189e+06
2.54674e+06
3.26286e+06
4.53948e+06
4.83355e+06
5.28256e+06
1.25263e+07
1.66781e+07
1.57876e+07
1.16421e+07
4.89981e+06
4.41655e+06
4.2254e+06
3.2926e+06
2.47267e+06
2.02806e+06
1.6797e+06
1.42116e+06
1.25444e+06
1.16377e+06
1.13355e+06
1.17601e+06
1.26759e+06
1.43551e+06
1.6874e+06
2.0299e+06
2.48507e+06
3.39647e+06
4.28545e+06
4.45034e+06
4.98971e+06
1.19895e+07
1.63621e+07
1.54562e+07
1.11396e+07
4.60649e+06
4.0678e+06
3.9572e+06
3.44217e+06
2.46432e+06
1.94533e+06
1.60121e+06
1.3402e+06
1.1805e+06
1.09423e+06
1.06583e+06
1.10537e+06
1.19134e+06
1.35049e+06
1.60589e+06
1.94387e+06
2.48704e+06
3.53741e+06
3.98595e+06
4.09604e+06
4.64895e+06
1.14332e+07
1.59324e+07
1.51979e+07
1.06754e+07
4.44674e+06
3.77521e+06
3.67622e+06
3.42084e+06
2.56747e+06
1.89104e+06
1.53429e+06
1.27831e+06
1.12002e+06
1.0344e+06
1.00608e+06
1.04441e+06
1.12882e+06
1.2862e+06
1.53809e+06
1.89122e+06
2.62156e+06
3.49591e+06
3.67012e+06
3.79593e+06
4.42154e+06
1.08958e+07
1.56411e+07
1.4936e+07
1.01875e+07
4.21394e+06
3.51235e+06
3.394e+06
3.22658e+06
2.77764e+06
1.89109e+06
1.48044e+06
1.23181e+06
1.07467e+06
984848
955437
994390
1.08143e+06
1.23988e+06
1.48983e+06
1.91846e+06
2.8315e+06
3.28093e+06
3.37834e+06
3.54612e+06
4.30047e+06
1.04063e+07
1.54171e+07
1.47256e+07
9.72934e+06
4.10097e+06
3.30032e+06
3.13967e+06
3.02479e+06
2.83856e+06
2.03392e+06
1.45373e+06
1.19202e+06
1.0399e+06
948170
914910
957128
1.04453e+06
1.19883e+06
1.46581e+06
2.0508e+06
2.84859e+06
3.05651e+06
3.13215e+06
3.32669e+06
4.13546e+06
9.90089e+06
1.5207e+07
1.45459e+07
9.32374e+06
4.02832e+06
3.13333e+06
2.92877e+06
2.8182e+06
2.68758e+06
2.25808e+06
1.51134e+06
1.16293e+06
1.00718e+06
918001
883063
926607
1.01185e+06
1.16939e+06
1.52344e+06
2.2869e+06
2.70074e+06
2.84065e+06
2.92792e+06
3.15179e+06
4.0072e+06
9.4352e+06
1.49911e+07
1.42067e+07
8.85571e+06
3.88116e+06
2.98003e+06
2.74539e+06
2.62191e+06
2.52894e+06
2.32407e+06
1.68995e+06
1.16488e+06
979639
890981
856824
899218
986425
1.18407e+06
1.73966e+06
2.35872e+06
2.54664e+06
2.65209e+06
2.75573e+06
3.01333e+06
3.9284e+06
8.98916e+06
1.46179e+07
1.35927e+07
8.34301e+06
3.74775e+06
2.84448e+06
2.58912e+06
2.45398e+06
2.36426e+06
2.21551e+06
1.8818e+06
1.25435e+06
968009
866856
833620
874277
975488
1.2837e+06
1.91838e+06
2.24867e+06
2.3854e+06
2.48727e+06
2.60688e+06
2.87713e+06
3.78273e+06
8.44624e+06
1.396e+07
1.21099e+07
7.59415e+06
3.59554e+06
2.71032e+06
2.45185e+06
2.31047e+06
2.21063e+06
2.09553e+06
1.90968e+06
1.45752e+06
1.00897e+06
854261
818011
859915
1.01979e+06
1.48725e+06
1.91952e+06
2.12495e+06
2.2333e+06
2.34372e+06
2.47189e+06
2.73712e+06
3.60851e+06
7.65585e+06
1.24544e+07
93641.1
78729.7
77275.7
77573.6
77857.4
78310.9
79230.5
80784.1
82965.1
85795.2
89018.9
92509.4
96030.5
99598.2
103138
106266
109083
112041
116057
134758
239515
340226
352911
354424
356163
358061
359594
355643
340900
301372
89223.4
74058.6
73979.7
74951.7
75689.8
76700.1
78287.8
80533.2
83411.5
86768.5
90368.7
94107
97930.6
101706
105253
108374
111562
115269
125954
199498
347381
381458
378957
374019
371908
371065
372117
368140
354384
317209
83021.1
71143.6
72078.6
73520.6
74658.1
76256.7
78569.6
81506.2
84995.6
88850.2
92907.9
97099.6
101283
105158
108693
111916
115378
121347
158165
314864
385169
386319
380930
378858
379366
381150
383207
378047
364114
333523
81323.9
70424.9
71656.2
73363.2
74896.2
77091.7
80032.1
83543.8
87668.8
92107.6
96651.1
101220
105623
109584
113082
116516
120755
137676
249192
383409
399616
392677
387310
385838
387515
389768
391608
384186
369287
346970
82116
70727.1
72054.2
73948.3
75915.3
78648.5
82210
86436.6
91281.2
96362.4
101315
106179
110690
114656
118055
122049
130288
187730
360623
413601
407887
400799
395825
394861
396140
397633
398377
388400
372714
359006
83766.4
71421.4
72876.4
74939
77413.9
80809.8
85269.8
90372.4
95980.8
101483
106750
111766
116235
119893
123857
129350
154870
296676
422722
428621
416506
409498
404899
403618
404119
404731
404361
392513
375400
369101
85873.6
72412.6
73988
76361
79570
83935.8
89498.1
95452
101546
107365
112777
117588
121740
125627
130380
142701
227223
415074
453519
438777
425514
417120
412456
410688
410493
410472
409131
395073
376658
377104
88158.1
73660.8
75437
78359.7
82688.2
88241.3
94804.5
101442
107908
113823
119107
123527
127607
132063
139323
183342
377392
474587
467173
447482
433225
422247
417204
414714
414159
413862
411673
395610
376213
382650
90589.2
75109.7
77309.6
81133.1
86727.6
93462.2
101004
108248
114865
120570
125590
129998
134061
139387
162734
311760
480599
493284
474688
454033
437392
424589
418155
415579
414842
414238
411035
393252
373617
385208
93124.2
76820
79828
84797.8
91729.3
99707.5
108069
115604
122245
127751
132491
136526
140736
154256
252485
475405
512755
498571
478598
457053
436646
423272
416071
413216
412280
411165
406619
387533
368323
384183
95903.5
78990.9
83024.4
89455
97830.7
106883
115837
123531
129848
134851
139119
142993
152123
216770
446357
521820
516509
497967
478352
455512
431345
418174
410856
407895
406667
404835
398926
379132
360923
380408
98971.5
81682.9
87097
95221.5
105000
114922
124072
131424
137334
142192
146881
154760
202859
403812
513409
521193
509917
492213
472755
448709
423017
409583
402612
399884
398452
396092
389143
369159
352203
374606
102497
85206.9
92267.8
102081
113088
123405
132609
140782
149333
158575
171810
207696
369028
484215
505898
506586
496161
479734
460552
436358
411716
397986
391838
389547
388166
385584
377901
358070
342353
367155
106676
89723.8
98531
109916
121913
133812
149029
171539
199743
234212
277435
355169
435848
470068
483651
485159
475252
458151
441225
420783
397440
384053
379244
377590
376418
373769
365541
346116
331570
358260
111650
95373.3
106002
119100
136034
169059
230395
314600
370711
386857
384907
401380
426634
449155
460860
459498
445851
431571
419443
402423
381408
368998
365581
364694
363808
361151
352430
333468
320167
348101
116973
102359
115331
138017
203072
349293
468021
497297
493378
465372
434421
424120
426945
435935
439068
429559
414878
405450
396303
382248
364602
353753
351556
351395
350912
348092
338883
320488
308437
337058
123626
111672
136775
244388
481116
603686
663003
666001
635310
572282
510867
471536
441973
432668
422724
404329
386601
380009
372297
361651
348035
338909
337698
338127
337937
334853
325250
307555
296724
325545
130803
130558
265928
586181
768673
900645
979138
963966
884553
754428
630328
541488
478311
441880
414441
383055
364005
356333
349718
341869
331984
324884
324400
325184
325192
321747
311856
294932
285445
313872
144055
237299
660461
957131
1.23537e+06
1.46763e+06
1.57138e+06
1.47963e+06
1.27182e+06
1.01069e+06
789421
639896
532291
460526
411800
368474
346560
336007
330079
323858
317127
311744
311876
312823
312997
309107
298998
282835
274680
302203
189646
653767
1.15985e+06
1.65609e+06
2.15371e+06
2.49633e+06
2.52177e+06
2.20551e+06
1.77771e+06
1.3351e+06
978408
755281
594634
484386
411743
360213
334260
320402
313726
308385
303884
299789
300045
301377
301502
297196
286900
271356
264315
290557
437299
1.26068e+06
2.17126e+06
2.95452e+06
3.60179e+06
3.89388e+06
3.68207e+06
3.08561e+06
2.38933e+06
1.69722e+06
1.17509e+06
870248
661144
508149
411065
355040
326638
310722
300488
295573
292515
289150
289247
290832
290679
286112
275660
260627
254285
278968
986455
2.51847e+06
4.01102e+06
4.55367e+06
5.17712e+06
5.30938e+06
4.94835e+06
4.12429e+06
3.14055e+06
2.15373e+06
1.37948e+06
964961
719849
525872
413325
350938
319679
303046
289842
285167
283144
279521
279712
281438
280767
275985
265293
250716
244739
267585
2.10044e+06
4.75061e+06
5.62333e+06
5.54791e+06
6.43749e+06
6.55213e+06
6.00524e+06
4.89123e+06
3.66726e+06
2.51195e+06
1.59229e+06
1.03833e+06
753723
537807
412931
345272
312438
296238
282858
277953
274728
270978
271942
273387
271931
266613
255793
241534
236039
256682
3.2743e+06
9.40284e+06
6.6714e+06
6.75381e+06
7.44996e+06
7.27484e+06
6.2886e+06
5.02941e+06
3.67031e+06
2.60898e+06
1.75092e+06
1.13053e+06
771935
537613
409501
339018
304033
287931
276956
271478
267023
264907
266471
266924
264182
258099
247155
232986
228098
246423
5.04298e+06
1.50297e+07
9.43966e+06
8.97865e+06
8.81754e+06
8.36226e+06
6.98429e+06
5.28216e+06
3.71802e+06
2.63455e+06
1.85534e+06
1.22859e+06
800800
532181
404632
336329
299310
282208
273420
265483
260863
261756
262476
261069
257260
250457
239558
225281
220558
236835
301388
341256
356080
359894
358256
356284
354401
352619
339958
238383
134383
116066
112169
109265
106583
103424
99817
96297.8
92720.3
89231.9
86022.2
83171.5
80985.6
79406.1
78480.9
78006.8
77708.1
77385.1
78860.1
93760.1
317286
354735
368536
372377
371213
371982
373961
378642
381194
347220
197592
125784
115427
111834
108741
105603
101985
98123.9
94279.6
90530.2
87012.7
83688.2
80810.1
78544.8
76913.3
75852.3
75087.2
74082.3
74186.6
89361.9
333707
364538
378478
383528
381377
379501
378872
380768
386090
385669
313610
157398
121465
115703
112306
109068
105480
101528
97343.4
93131.3
89122.7
85309.1
81826.6
78940.1
76567.5
74865.9
73681.9
72195.8
71270.4
83206
347254
369776
384644
391966
390045
387730
386009
387622
392809
400390
384128
248247
137771
121137
116984
113487
109952
105925
101512
96968.6
92455.9
88014.6
83861.6
80275.1
77397.6
75173.6
73564.8
71800.2
70571.8
81440.3
359339
373233
388898
398723
397932
396444
395208
396379
401177
408560
415075
362469
188052
130742
122544
118474
115082
111047
106518
101705
96749.2
91732.6
86812.5
82474.3
78852.2
76172.9
74188.8
72238.1
70904.3
82255.6
369427
375918
393061
404787
405128
404600
404257
405723
410400
417307
430111
424774
298736
155670
129825
124262
120350
116642
112137
107190
101897
96357.3
90739.8
85585.2
81046.1
77609.3
75170.5
73092.7
71631.8
84047.9
377510
377246
395705
409696
411031
411225
411636
413536
418460
426664
439758
454759
418772
229966
143442
130784
125967
122081
117987
113223
107793
101890
95781.6
89806.5
84184.3
79798.6
76579.9
74208.6
72649.1
86200.5
383204
376892
396389
412374
414597
415165
415900
418480
423779
434615
448467
466998
473901
381249
185297
139865
132409
127868
123789
119379
114168
108237
101761
95132.8
88502.1
82843.8
78563.2
75650.4
73914.1
88529.1
385892
374383
394189
411897
415115
416026
416941
419690
425995
439021
455030
474373
491747
480636
316203
164081
139790
134319
130246
125890
120830
115133
108556
101342
93859.1
87002.3
81313.5
77529.8
75350.8
90979.4
385009
369193
388633
407670
412251
413581
414667
417766
424806
438368
457923
478076
497032
511086
476419
256726
155270
141039
136793
132788
128067
122573
115980
108401
100159
92180.3
85006.5
79994.7
77038.7
93466.7
381411
361927
380369
400140
406046
408094
409451
412639
419793
432892
456122
477435
496218
514402
519830
450423
221356
153089
143372
139446
135173
130184
123939
116302
107413
98380.4
89783.9
83269.2
79176.4
96205.9
375774
353330
370491
390472
397409
399986
401504
404392
411237
424345
448819
471522
490047
507276
518279
511432
411115
207961
156552
147958
142923
137863
131899
124562
115498
105650
95739.7
87457.7
81901.8
99273
368442
343564
359455
379297
386973
389765
391157
393571
399684
413003
436014
458766
477258
493196
503313
502024
480949
375918
215744
178383
163281
152222
142352
133497
124087
113744
102715
92738.7
85499
102876
359626
332831
347531
366988
375168
377982
379132
380888
385689
398644
420397
439108
455455
472144
481807
479464
465102
430647
361845
296462
256560
215358
181545
154156
135684
122804
110618
99137.5
90116.4
107098
349500
321413
334845
353896
362491
365264
366143
367084
370414
382583
402014
417473
428979
442698
456120
456998
445139
421829
399554
390682
398321
394060
345679
260505
181386
139806
120231
106718
95901.6
112166
338445
309623
321766
340318
349356
352164
352812
352862
354976
365579
381541
394437
402904
412109
426684
435652
432972
424917
426560
441530
476007
506856
514420
492038
390674
227951
144311
116643
103013
117640
326890
297808
308723
326623
336088
339067
339420
338819
339948
348501
360742
370563
377587
384166
402372
420906
431784
443084
479633
524853
590509
655522
689620
689066
632399
524914
287584
144407
112847
124411
315168
286398
296015
313145
322933
326183
326350
325405
325675
332100
340915
348142
354174
362012
382056
414081
442919
483382
555664
653738
785087
919079
1.00346e+06
1.02433e+06
947099
813613
632677
317202
136984
132127
303468
275581
283806
300181
310184
313823
313833
312848
312403
316926
323002
328743
334306
345156
368441
412495
463969
541165
660367
824371
1.05959e+06
1.33136e+06
1.5435e+06
1.64815e+06
1.55582e+06
1.32044e+06
1.02672e+06
720192
279921
147714
291795
265188
272188
287927
298123
302223
302182
301036
300349
303338
307644
312650
319537
333451
360226
413702
490356
606863
778877
1.02342e+06
1.40536e+06
1.87128e+06
2.30291e+06
2.62722e+06
2.63632e+06
2.31104e+06
1.79442e+06
1.25855e+06
732039
208752
280114
255024
261304
276561
286925
291379
291477
290024
289759
291734
294681
299714
310337
326180
355858
413801
516525
677496
896089
1.22575e+06
1.77689e+06
2.50562e+06
3.2275e+06
3.81466e+06
4.03772e+06
3.80435e+06
3.17406e+06
2.35795e+06
1.38446e+06
507191
268590
245210
251231
266040
276636
281343
281903
280211
280385
282673
283987
289220
302974
319557
352078
416795
536055
739148
990902
1.43528e+06
2.23438e+06
3.25989e+06
4.30405e+06
5.13358e+06
5.43949e+06
5.31227e+06
4.74374e+06
4.29694e+06
2.76069e+06
1.11319e+06
257533
236236
241929
256385
267240
272437
273698
272112
271727
274932
276883
282574
295967
312247
346547
417219
546889
769777
1.06789e+06
1.65203e+06
2.57905e+06
3.70739e+06
4.98465e+06
6.09309e+06
6.64413e+06
6.54196e+06
5.65874e+06
5.78284e+06
5.1453e+06
2.31871e+06
247120
228172
233317
247594
258601
264559
267068
266569
265396
267321
271459
277473
287389
303321
339873
413936
545649
783388
1.16501e+06
1.80525e+06
2.6855e+06
3.73479e+06
5.09364e+06
6.38531e+06
7.2818e+06
7.48908e+06
6.90216e+06
6.79974e+06
9.85251e+06
3.46047e+06
237382
220692
225517
239810
250770
257517
261052
262456
262018
261333
266219
273855
281711
299094
337270
408406
541567
827318
1.28514e+06
1.90764e+06
2.71436e+06
3.8017e+06
5.38001e+06
7.14749e+06
8.50181e+06
8.92396e+06
8.99052e+06
9.47759e+06
1.55253e+07
5.33197e+06
68699.9
77087.6
321668
1.01345e+06
1.61035e+06
2.1417e+06
2.7368e+06
3.37438e+06
3.97429e+06
4.44677e+06
4.77547e+06
4.92406e+06
4.977e+06
4.9615e+06
4.89378e+06
4.74246e+06
4.54613e+06
4.31204e+06
4.09242e+06
3.88823e+06
3.68739e+06
3.51078e+06
3.35756e+06
3.20867e+06
3.08004e+06
2.95132e+06
2.82831e+06
2.71654e+06
2.6102e+06
2.50451e+06
2.40527e+06
2.31697e+06
2.23579e+06
2.1654e+06
2.10262e+06
2.04234e+06
1.98261e+06
1.92415e+06
1.86996e+06
1.8211e+06
1.78063e+06
1.74641e+06
1.71507e+06
1.6798e+06
1.63176e+06
1.56559e+06
1.47758e+06
1.36543e+06
1.23916e+06
1.11347e+06
1.00725e+06
920461
849060
784955
726430
676524
632053
591560
554068
520023
490097
463344
438936
416680
396834
379417
363965
349969
336895
324423
312232
300146
288297
276965
266376
256569
247522
239166
231393
224093
217227
210816
204871
199347
194135
189193
184547
180271
176414
172995
169994
167380
165105
163149
161492
160105
158949
157982
157183
156546
156098
155882
155954
156335
157013
157942
159058
160350
161788
163390
165190
167192
169333
171631
174186
177198
180861
185088
189588
194391
199794
205930
212720
220145
228258
61359.6
130205
2.0937e+06
5.8455e+06
6.96662e+06
6.34513e+06
5.53472e+06
4.87883e+06
4.4011e+06
4.14909e+06
4.07113e+06
4.1528e+06
4.36276e+06
4.49984e+06
4.37489e+06
4.01353e+06
3.57918e+06
3.17202e+06
2.80327e+06
2.48385e+06
2.22114e+06
2.01018e+06
1.86977e+06
1.75647e+06
1.66053e+06
1.57805e+06
1.50924e+06
1.45581e+06
1.41517e+06
1.38164e+06
1.35359e+06
1.33041e+06
1.31177e+06
1.29937e+06
1.29179e+06
1.28727e+06
1.28878e+06
1.29905e+06
1.32214e+06
1.36746e+06
1.44235e+06
1.54958e+06
1.68466e+06
1.82828e+06
1.95052e+06
2.00837e+06
1.95435e+06
1.78405e+06
1.53528e+06
1.2964e+06
1.10162e+06
961897
870164
798324
737206
684645
640071
602467
570904
542353
516910
494083
472770
452822
434336
418458
404720
391619
378635
366382
354692
343158
331224
319258
308010
297863
288594
280064
272034
264315
257128
250103
243326
236925
230797
224719
218673
212893
207571
202666
198092
193942
190355
187313
184705
182427
180428
178655
177035
175524
174109
172829
171722
170915
170512
170499
170725
171141
171677
172280
173131
174195
175156
176044
177146
178860
181349
184050
186720
189625
193173
197317
201966
207372
213740
61856.8
99777.8
1.76495e+06
6.19549e+06
7.96309e+06
7.43335e+06
6.48146e+06
5.62289e+06
4.9095e+06
4.43186e+06
4.1069e+06
3.96821e+06
3.93648e+06
3.77376e+06
3.44981e+06
3.08282e+06
2.7685e+06
2.49372e+06
2.24487e+06
2.03026e+06
1.86032e+06
1.74872e+06
1.66233e+06
1.58467e+06
1.51106e+06
1.44542e+06
1.3896e+06
1.34637e+06
1.31709e+06
1.29667e+06
1.28383e+06
1.27936e+06
1.28554e+06
1.30469e+06
1.3395e+06
1.39331e+06
1.47303e+06
1.58975e+06
1.75883e+06
2.00085e+06
2.35141e+06
2.8475e+06
3.48232e+06
4.18977e+06
4.86741e+06
5.27392e+06
5.20209e+06
4.6241e+06
3.78078e+06
2.98352e+06
2.32379e+06
1.83479e+06
1.47961e+06
1.22683e+06
1.0436e+06
910133
808720
729028
667414
618954
581045
549358
520724
495627
473775
454675
437896
423560