/*--------------------------------*- C++ -*----------------------------------*\
| =========                 |                                                 |
| \\      /  F ield         | OpenFOAM: The Open Source CFD Toolbox           |
|  \\    /   O peration     | Version:  2112                                  |
|   \\  /    A nd           | Website:  www.openfoam.com                      |
|    \\/     M anipulation  |                                                 |
\*---------------------------------------------------------------------------*/
FoamFile
{
    version     2.0;
    format      ascii;
    arch        "LSB;label=32;scalar=64";
    class       volScalarField;
    location    "0.00411";
    object      T;
}
// * * * * * * * * * * * * * * * * * * * * * * * * * * * * * * * * * * * * * //

dimensions      [0 0 0 1 0 0 0];

internalField   nonuniform List<scalar> 
13875
(
1412.01
1535.56
1482.6
1487.45
1481.11
1483.35
1482.58
1483.66
1483.88
1484.39
1483.28
1484.21
1483.75
1484
1484.02
1483.51
1482.88
1483.71
1482.62
1483.36
1481.02
1487.66
1480.71
1532.59
1396.64
1307.05
1356.19
1319.16
1322.27
1316.68
1317.22
1316.71
1318.45
1319.57
1323.21
1322.52
1323
1318.23
1317.75
1318.47
1322.39
1322.21
1322.1
1317.58
1316.99
1315.87
1321.91
1319.66
1355.89
1303.32
1307.26
1340.06
1314.46
1311.49
1303.85
1304.04
1302.82
1303.42
1304.04
1304.97
1303.26
1305.69
1304.18
1304.28
1304.14
1305.31
1302.82
1304.99
1303.81
1304.5
1303.64
1310.87
1311.49
1336.34
1298.55
1317.4
1344.83
1314.89
1308.52
1305
1304.45
1303.02
1303.47
1304.02
1303.62
1302.34
1304.16
1304.24
1304.32
1304.25
1303.85
1302.26
1304.1
1303.99
1304.78
1304.28
1307.44
1313.93
1343.98
1312.26
1329.55
1342.13
1315.9
1312.08
1303.36
1303.65
1302.9
1303.62
1304.1
1303.72
1302.5
1304.23
1304.38
1304.48
1304.31
1303.66
1302.39
1304.03
1303.99
1304.71
1303.41
1311.5
1312.15
1338.44
1316.06
1332.25
1351.17
1319.03
1309.68
1306.77
1305.72
1303.99
1304.03
1304.25
1303.99
1302.82
1304.45
1304.66
1304.8
1304.73
1304.05
1302.66
1304.3
1304.79
1306.2
1306.18
1308.17
1318.93
1348.9
1325.76
1339.04
1360.47
1329.21
1317.14
1306.62
1305.68
1304.45
1304.7
1304.77
1304.68
1303.51
1304.69
1305.27
1305.47
1305.18
1304.25
1303.43
1304.84
1305.21
1306.55
1306.77
1317.27
1325.96
1358.22
1321.27
1359.86
1384.77
1344.26
1320.98
1315.75
1311.26
1307.92
1306.64
1305.74
1305.86
1304.96
1305.69
1306.46
1306.83
1306.51
1305.38
1304.69
1306.15
1307.67
1311.42
1314.72
1320.43
1341.26
1380.88
1350.47
1537.13
1507.95
1387.27
1350.77
1322.11
1315.09
1311.27
1309.51
1308.47
1308.54
1307.74
1308.01
1308.98
1309.56
1309.05
1307.86
1307.62
1309.15
1311.11
1315.29
1321.65
1348.24
1384.07
1507.45
1523.38
1836.08
1575.28
1428.67
1361.83
1341.37
1325.47
1318.63
1315.49
1314.01
1314.14
1313.3
1313.34
1314.35
1315.17
1314.63
1313.47
1313.34
1315.16
1318.11
1325.59
1338.05
1361.21
1425.61
1566.33
1829.15
2511.31
1803.54
1522.58
1430.98
1358.81
1341.48
1332.02
1327.82
1326.41
1326.01
1325.01
1324.97
1325.94
1326.98
1326.55
1325.69
1325.48
1327.79
1331.82
1339.79
1356.9
1421.36
1512.57
1807.84
2441.52
2816.4
2302.99
1776.21
1485.9
1427.55
1389.42
1365.95
1358.03
1354.92
1353.69
1352.66
1352.63
1353.3
1354.41
1354.24
1354.15
1354.36
1357.94
1365.94
1391.3
1418.69
1474.15
1738.12
2295.43
2842.18
2794.17
2677.9
2440.49
2294.8
1587.54
1487.95
1461.69
1446.29
1441.7
1439.58
1438.25
1438.19
1438.47
1439.35
1439.67
1440.59
1442.47
1448.16
1466.28
1494
1625.26
2324.72
2387.14
2702.32
2781.94
2709.88
2666.3
2816.23
2804.85
2054.56
2017.76
1856.35
1745.65
1718.78
1710.59
1706.43
1705.28
1705.04
1706.1
1707.46
1711.38
1721.29
1750.92
1872.21
2120.97
2048.48
2821.46
2822.9
2704.31
2700.2
2641.82
2703.67
2788.43
2789.66
2796.69
3000.85
2928.67
2973.21
3089.27
3081.86
3088.78
3076.92
3082.62
3083.61
3085.78
3079.01
3086.31
3008.39
2935.86
3018.52
2823.7
2813.51
2812.54
2698.75
2654.42
2516.19
2578.95
2775.11
2911.74
2955.46
3299.88
3548.3
3674.5
3687.96
3676.67
3670.23
3666.27
3666.51
3667.11
3668.87
3672.56
3683.79
3683.29
3548.37
3344.44
2977.51
2922.54
2775.14
2601.39
2561.92
2423.72
2558.16
2686
2811.53
2921.78
3196.72
3412.36
3578.05
3654.63
3649.11
3648.21
3644.42
3645.05
3645.31
3643.83
3643.4
3649.97
3604.91
3452.13
3266.81
2959.07
2848.1
2714.44
2563.43
2428.9
2206.28
2379.49
2694.94
2899.71
2870.6
3151.65
3365.9
3497.26
3542.83
3555.1
3552.32
3555.01
3555.05
3554.95
3550.9
3549.7
3533.39
3482.53
3336.08
3131.42
2896.48
2921.04
2675.66
2361.05
2206.24
2065.16
2193.72
2500.75
2678.23
2715.76
2860.45
3083.72
3281.58
3382.83
3420.53
3434.36
3437.41
3439.73
3435.9
3429.94
3410.98
3380.67
3299.01
3103.23
2881.1
2745.28
2711.87
2505.16
2191.25
2072.1
2196.86
2051.33
2386.84
2479.69
2525.49
2622.54
2819.34
3048.75
3220.47
3298.57
3318.52
3329.65
3331.22
3329.21
3316.06
3296.52
3231.15
3069.62
2830.57
2634.58
2536.89
2463.68
2334.49
2057.48
2200.41
3138.96
2337.35
2174.51
2298.93
2370.69
2469.34
2639.23
2869.59
3064.88
3171.36
3209.34
3217.86
3222.99
3217.67
3208.59
3171.16
3069.39
2874.95
2638.6
2475.55
2372.29
2281.3
2167.31
2332.78
3210.1
3105.65
2137.35
1983.04
2149.66
2236.81
2350.54
2501.59
2719.68
2928.18
3048.71
3091.5
3110.34
3112.46
3110.32
3089.76
3045.67
2927.14
2718.31
2497.64
2355.06
2235.52
2128.31
1978.39
2144.13
3175.15
3042.37
2127.48
1886.24
2033.85
2125.86
2259.61
2388.94
2592.74
2794.16
2926.02
2981.97
2995.57
3002.92
2994.38
2980.05
2925.42
2795
2593.64
2386.37
2267.17
2125.24
2018.83
1878.18
2137.26
3114.84
2996.46
2104.66
1891.25
1965.29
2049.8
2167.94
2295.02
2492.63
2689.79
2814.49
2866.57
2891.37
2893.82
2890.49
2864.54
2812.97
2691.03
2494.01
2289.57
2168.14
2049.99
1944.45
1881.14
2092.59
2977.04
2868.12
2074.86
1906.26
1929.41
1987.63
2088.75
2209.87
2403.86
2586.42
2709.77
2766.61
2781.6
2789.46
2779.82
2763.56
2706.03
2581.37
2397.55
2198.84
2089.22
1993.34
1919.47
1894.02
2099.24
2912.25
2854.21
2111.95
1928.67
1905.79
1941.85
2019.12
2140.5
2325.29
2500.39
2612.17
2660.97
2685.7
2687.11
2684.5
2657.62
2608.24
2498.9
2324.32
2134.16
2013.56
1945.39
1891.63
1913.89
2078.44
2818.81
2798.61
2137.15
1965.18
1891.94
1905.12
1966.55
2080.42
2257.21
2415.16
2521.29
2573.42
2583.98
2591.94
2582.04
2567.87
2515.85
2409.22
2252.16
2071.93
1963.1
1908.96
1889.6
1960.18
2125.74
2813.4
2788.94
2170.14
1983.85
1895.81
1884.45
1923.55
2036.39
2201.47
2348.31
2438.54
2477.3
2499.24
2499.88
2497.9
2471.81
2430.85
2340.12
2193.52
2026.45
1912.71
1882.15
1884.68
1958.68
2152.46
2841.93
2814.32
2164.29
1978.82
1894.9
1867.49
1893.73
1991.22
2143.28
2272.39
2355.48
2400.33
2407.85
2415.99
2405.83
2395.59
2351.19
2267.18
2141.5
1987.42
1892.32
1867.02
1892.84
1971.82
2147.64
2838.09
2868.35
2186.16
1981.67
1888.35
1858.56
1871.48
1967.37
2104.63
2219.08
2286.89
2315.1
2334.96
2334.45
2332.8
2309.1
2279.01
2210.58
2097.04
1959.52
1861.26
1857.37
1880.73
1969.83
2190.66
2861.89
2809.24
2193.43
1965.12
1893.22
1838.76
1861.64
1942.9
2063.45
2156.78
2212.67
2249.72
2253.47
2261.47
2251.46
2244.81
2207.66
2146.62
2054.78
1933.49
1855.93
1838.73
1898.44
1977.91
2212.86
2846.32
2806.56
2209.31
1993.2
1901.56
1828.33
1843.65
1923.11
2031.82
2110.74
2156.53
2174.33
2191.31
2190.34
2190.58
2169.27
2150.81
2104.99
2027.31
1916.48
1836.45
1828.79
1897.77
1986.89
2217.45
2808.78
2774.11
2206.25
2005.59
1893.85
1824.16
1837.1
1906.56
1996.77
2058.9
2090.9
2120.64
2120.13
2127.84
2119.07
2115.68
2086.27
2049.51
1990.9
1901.97
1831.05
1826.14
1906.69
2011.08
2211.57
2787.33
2748.45
2196.77
2054.02
1919.53
1826.4
1821.09
1893.54
1972.58
2021.6
2049.07
2055.74
2068.55
2066.51
2068.25
2050.38
2043.52
2016.35
1965.25
1885.88
1811.09
1826.19
1909.78
2047.64
2208.8
2756.47
2728.26
2206.1
2086.95
1913.19
1837.45
1816.7
1877.4
1939.32
1975.29
1988.73
2011.97
2007.27
2013.86
2006.59
2007.62
1985.09
1969.46
1938.02
1878.26
1811.94
1847.25
1923.56
2095
2196.26
2726.62
2703.49
2196.49
2083.53
1945.59
1847.6
1808.83
1861.29
1918.66
1943.35
1959.81
1957.03
1966.12
1962.02
1964.85
1951.64
1955.6
1939.84
1911.44
1858.34
1803.09
1848.69
1951.17
2094.59
2200.66
2717.14
2672.47
2182.6
2079.6
1963.31
1865.48
1818.31
1855.58
1887.59
1903.19
1905.51
1921.78
1913.32
1918.35
1912.04
1918.21
1902.22
1897.68
1887.43
1855.59
1815.76
1871.84
1981.96
2092.91
2177.41
2699.6
2658.15
2163.82
2075.08
2030.93
1886.12
1826.87
1840.95
1868.74
1873.71
1883.43
1875.38
1880.28
1874.62
1879.72
1870.83
1881.25
1872.31
1860.22
1840.1
1830.14
1883.41
2052.25
2085.76
2156.98
2670.35
2639.77
2149.53
2061.61
2021.74
1903.53
1854.03
1846.11
1843.27
1839.54
1834.05
1846.04
1834.05
1838.55
1834.15
1843.37
1831.95
1834.72
1846.7
1851.32
1860.26
1917.83
2042.69
2065.91
2140.78
2656.86
2608.62
2128.91
2032.83
2026.02
1952.15
1866.86
1850.02
1833.51
1817
1821
1806.82
1808.25
1801.9
1808.52
1802.23
1818.7
1815.81
1821.79
1838.04
1875.16
1959.95
2039.2
2026.76
2135.4
2630.12
2593.33
2122.75
2001.59
2008.29
2011.36
1903.36
1872
1820.94
1792.85
1775.55
1782.19
1768.29
1771.85
1768.24
1780.12
1773.01
1787.63
1825.18
1873.85
1901.49
2035.11
2023.04
1994.87
2119.44
2599.81
2563.42
2112
1976.11
2000.36
2017.28
1924.03
1872.81
1822.72
1779.67
1772.69
1749.9
1748.71
1741.48
1748.3
1745.65
1771.54
1777.22
1813.46
1867.79
1945.89
2031.33
1998.27
1970.38
2118.96
2566.07
2539.2
2101.52
1956.1
1961.23
1998.81
1983.13
1904.21
1834.04
1777.53
1731.76
1730.41
1713.74
1716.5
1713.8
1728.46
1727.99
1767.44
1833.97
1908.64
2005.8
2007.79
1960.75
1953.63
2110.27
2546.52
2505.18
2095.53
1940.72
1936.69
1989.86
2040.81
1922.93
1839.92
1773.32
1749.04
1707.51
1700.17
1691.38
1700.03
1703.42
1748.18
1767.98
1828.45
1931.47
2054.81
1992.96
1937.25
1938.14
2091.31
2512.34
2489.14
2091.32
1933.89
1902.15
1953.66
2021.25
1984.21
1859.43
1784.99
1713.3
1698.54
1672.34
1672.38
1672.61
1695.61
1708.2
1781.34
1863.61
2010.16
2031.19
1943.6
1906.7
1934.78
2089.84
2497.37
2457.01
2069.35
1921.05
1888.71
1923.51
2009.74
2070.05
1887.37
1788.36
1752.07
1696.23
1672.73
1657.61
1671.61
1689.12
1752.26
1785.31
1878.71
2068.74
2013.84
1915.31
1890.77
1922.83
2074.19
2471.83
2443.97
2068.04
1921.03
1865.25
1886.39
1977.81
2047.19
1962.25
1818.2
1720.23
1697.89
1657.48
1651.73
1657.86
1691.82
1712.73
1816.55
1960.72
2049.13
1978.48
1879.86
1873.11
1922.2
2065.1
2457.52
2410.09
2046.69
1906.47
1863.77
1868.1
1934.94
2030.7
2051.59
1854.43
1768.21
1700.32
1674.42
1652.71
1674.1
1695.22
1771.74
1870.41
2051.63
2032.87
1935.49
1864.8
1867.1
1907.72
2050.53
2418.49
2376.33
2036.75
1901.83
1846.08
1844.96
1899.87
2007.44
2030.78
1955.56
1748.74
1709.33
1659.46
1655.41
1659.69
1705.11
1743.57
1980.68
2034.36
2009.88
1903.32
1842.92
1853.61
1901.9
2040.44
2387.77
2256.17
1988.18
1875.47
1844.58
1839.31
1864.8
1962.88
2017.82
2009.78
1851.56
1730.32
1686.31
1662.58
1685.64
1727.06
1852.06
2010.81
2020.04
1967.94
1870.4
1838.25
1847.84
1874.48
1989.74
2264.49
280.506
280.828
281.219
281.547
281.971
282.094
282.317
282.64
283.047
283.66
284.266
284.865
285.307
285.786
286.311
286.52
286.435
286.552
287.283
291.859
324.688
349.792
351.255
352.329
352.886
352.954
353.477
354.227
357.046
368.809
280.974
281.2
281.63
282.082
282.567
282.785
283.099
283.495
283.956
284.512
285.002
285.494
286.029
286.566
286.944
287.009
287.213
287.87
290.996
310.007
343.341
351.146
353.657
353.865
353.263
352.219
351.833
352.036
354.909
363.325
281.412
281.789
282.225
282.822
283.328
283.619
284.025
284.437
284.792
285.212
285.663
286.253
286.872
287.313
287.584
287.753
288.243
290.015
299.847
340.952
348.798
351.052
351.241
350.823
350.115
349.844
350.095
351.014
354.287
361.241
282.062
282.474
282.926
283.589
284.073
284.42
284.757
285.002
285.301
285.721
286.185
286.766
287.305
287.696
287.901
288.327
289.31
294.095
324.403
348.132
350.854
351.069
350.28
349.151
348.666
348.563
348.945
349.658
352.536
357.062
282.767
283.185
283.685
284.303
284.706
284.95
285.135
285.36
285.723
286.218
286.559
287.112
287.62
287.978
288.101
288.986
291.453
306.09
345.769
351.537
352.139
351.51
349.734
348.418
347.743
347.563
347.745
348.245
351.555
355.276
283.469
284.056
284.534
284.957
285.209
285.35
285.6
285.92
286.325
286.6
286.897
287.45
287.846
287.894
288.583
290.239
296.871
331.445
352.076
354.441
353.074
351.621
349.605
348.132
347.309
346.963
347.012
347.562
350.835
352.758
284.305
285.064
285.333
285.538
285.704
285.923
286.327
286.609
286.772
286.969
287.21
287.457
287.587
287.938
289.24
293
313.211
353.072
357.239
356.573
354.188
351.857
349.625
348.19
347.172
346.701
346.661
347.078
349.942
350.858
285.219
286.037
286.028
286.059
286.363
286.679
286.979
287.111
287.154
287.213
287.247
287.203
287.437
288.399
290.634
301.207
348.471
361.661
361.364
358.374
355.378
351.963
349.797
348.22
347.089
346.457
346.334
346.57
349.014
349.399
286.142
286.818
286.612
286.62
286.914
287.147
287.402
287.527
287.424
287.222
287.163
287.37
287.828
289.224
295.352
332.641
365.024
366.578
364.156
360.239
356.585
352.421
349.91
348.198
346.893
346.03
345.786
345.953
348.143
348.161
286.96
287.392
287.221
287.168
287.308
287.547
287.768
287.793
287.69
287.543
287.578
287.823
288.505
292.203
315.973
367.878
372.148
370.007
366.481
362.432
357.653
353.128
350.179
348.079
346.514
345.326
344.9
345.016
347.094
346.848
287.594
287.884
287.611
287.597
287.676
287.907
288.182
288.312
288.207
288.105
288.252
288.62
290.926
306.201
366.468
377.436
376.934
372.619
369.021
365.089
358.625
353.93
350.535
348.043
346.028
344.472
343.889
344.043
346.15
345.818
287.988
288.087
287.832
287.955
288.1
288.474
288.859
289.02
289.092
289.333
289.964
291.859
303.735
361.674
382.047
383.261
380.607
375.66
372.251
367.965
359.912
354.763
350.89
348.059
345.554
343.706
343.036
343.307
345.299
344.697
288.1
288.2
288.051
288.32
288.727
289.284
290.012
290.969
292.445
294.367
297.755
307.238
360.754
385.834
388.972
388.184
384.472
379.402
375.796
370.437
361.417
355.567
351.209
348.032
345.15
343.091
342.384
342.763
344.467
343.616
288.123
288.218
288.24
288.841
289.784
291.429
294.517
299.697
306.251
317.33
334.585
364.076
387.627
394.227
394.859
393.645
389.099
382.37
378.328
373.018
362.839
356.273
351.569
347.995
344.734
342.569
341.859
342.34
343.707
342.757
288.11
288.141
288.678
290.176
293.467
300.875
314.847
339.911
358.127
367.535
373.981
387.505
397.718
402.248
402.603
400.31
392.479
384.438
380.866
375.572
364.33
357.019
352.031
348.015
344.346
342.132
341.454
341.93
342.926
341.78
287.924
288.329
290.016
295.402
309.553
346.292
375.619
385.857
390.92
393.268
396.44
404.987
410.722
413.001
411.779
405.764
395.101
387.258
383.607
377.647
365.738
357.831
352.52
348.001
344.035
341.778
341.123
341.566
342.161
340.826
288.059
289.322
295.435
319.982
374.559
400.445
418.5
428.08
431.012
430.332
431.358
432.858
428.506
426.243
421.437
411.437
397.84
390.082
385.477
378.891
367.015
358.595
352.837
347.871
343.707
341.488
340.874
341.23
341.508
339.991
288.876
294.208
324.105
390.988
427.466
463.085
491.027
502.103
503.18
497.054
487.626
472.134
454.389
442.276
431.527
415.622
400.838
392.061
386.162
379.204
367.697
359.083
352.89
347.625
343.364
341.27
340.704
340.912
340.979
339.244
291.648
315.814
395.082
454.351
521.079
585.538
622.037
631.691
625.907
603.56
569.729
527.492
487.682
458.856
440.323
418.819
402.93
392.987
386.161
378.737
367.772
359.107
352.806
347.267
343.065
341.128
340.62
340.673
340.521
338.49
306.021
385.358
466.882
587.225
706.481
793.59
825.166
826.993
806.788
757.073
676.099
595.371
524.521
476.677
448.36
423.305
404.794
393.819
386.045
377.794
367.326
358.882
352.373
346.891
342.803
341.043
340.551
340.427
340.001
337.633
359.498
454.971
637.094
842.954
980.244
1054.52
1090.48
1097.16
1053.66
952.241
804.096
670.359
566.454
495.16
456.722
428.899
406.523
394.433
385.403
376.512
366.502
358.549
351.694
346.443
342.563
340.979
340.416
340.113
339.389
336.756
431.231
606.635
974.099
1120.63
1257.52
1343.07
1367.55
1306.74
1215.98
1101.55
942.981
747.367
610.546
515.79
468.668
433.309
407.005
394.201
383.796
375.442
364.932
357.642
350.92
345.96
342.432
340.97
340.245
339.775
338.753
335.857
550.245
971.377
1277.57
1356.33
1519.97
1526.82
1452.14
1338.72
1239.89
1128
992.607
820.36
649.845
536.661
478.73
436.491
408.125
394.624
382.639
375.118
362.648
357.211
350.359
345.704
342.35
340.95
340.089
339.483
338.215
335.059
615.221
1324.14
1407.89
1588.33
1626.04
1563.34
1432.99
1299.31
1192.39
1106.69
995.464
851.112
691.866
552.734
483.768
437.712
408.324
393.745
381.738
374.192
362.115
357.053
350.321
346.051
342.455
340.879
339.885
339.178
337.823
334.503
846.783
1517.49
1470.95
1678.29
1660.62
1566.89
1420.41
1267.31
1134.26
1055.59
968.498
852.12
719.644
561.065
484.974
438.343
409.003
393.349
382.041
372.797
362.072
357.282
350.567
346.21
342.434
340.751
339.77
338.854
337.433
334.134
369.033
357.148
354.321
353.559
353.019
352.933
352.363
351.254
349.701
324.07
291.933
287.491
286.808
286.748
286.981
286.752
286.145
285.72
285.187
284.577
284.001
283.388
282.991
282.646
282.417
282.267
281.82
281.457
281.057
280.679
363.531
354.954
352.066
351.843
352.236
353.283
353.873
353.64
351.142
343.141
309.331
291.266
288.246
287.689
287.568
287.487
287.021
286.349
285.774
285.234
284.875
284.385
283.944
283.543
283.167
282.882
282.356
281.862
281.422
281.145
361.444
354.331
351.032
350.099
349.836
350.109
350.822
351.291
351.135
349
340.529
299.885
290.421
288.806
288.353
288.159
287.816
287.242
286.584
285.965
285.592
285.241
284.921
284.604
284.118
283.683
283.111
282.46
282.016
281.598
357.203
352.555
349.676
348.95
348.549
348.654
349.189
350.465
351.275
351.387
348.59
324.17
294.558
289.92
288.983
288.475
288.21
287.72
287.124
286.58
286.167
285.751
285.45
285.116
284.882
284.506
283.916
283.183
282.738
282.303
355.392
351.584
348.255
347.731
347.539
347.742
348.492
349.976
351.8
352.815
352.547
346.649
306.552
292.139
289.652
288.638
288.499
288.054
287.479
286.992
286.661
286.254
285.832
285.486
285.238
285.093
284.683
284.002
283.496
283.057
352.836
350.851
347.593
347.028
346.973
347.348
348.256
349.891
352.057
353.777
355.555
353.288
332.4
297.655
290.852
289.089
288.412
288.307
287.826
287.35
287.031
286.694
286.312
285.955
285.648
285.49
285.325
284.913
284.435
283.809
350.922
349.996
347.112
346.698
346.745
347.268
348.411
349.999
352.481
354.944
357.54
358.633
354.784
314.444
293.634
289.713
288.331
287.962
287.855
287.637
287.384
287.062
286.876
286.588
286.18
286.014
285.885
285.727
285.498
284.7
349.462
349.081
346.62
346.386
346.541
347.255
348.486
350.188
352.681
356.204
359.351
362.28
362.564
349.892
302.017
291.124
288.785
287.721
287.48
287.499
287.497
287.403
287.328
287.194
286.881
286.512
286.354
286.403
286.493
285.634
348.216
348.211
346.033
345.884
346.157
347.128
348.532
350.382
353.077
357.528
361.188
364.919
367.265
365.8
334.115
296.016
289.607
288.092
287.634
287.446
287.419
287.591
287.714
287.602
287.442
287.145
286.81
286.953
287.231
286.533
346.906
347.177
345.131
345.056
345.532
346.802
348.484
350.705
353.814
358.684
363.395
367.252
370.608
372.79
368.659
317.427
292.71
288.793
288.103
287.865
287.808
287.923
288.036
287.932
287.827
287.659
287.301
287.401
287.721
287.275
345.926
346.278
344.195
344.105
344.731
346.393
348.504
351.132
354.65
359.628
366.031
369.775
373.223
377.494
378.057
368.107
307.643
291.417
288.973
288.572
288.402
288.469
288.563
288.427
288.195
288.034
287.787
287.815
288.094
287.768
344.91
345.499
343.507
343.317
344.033
345.996
348.564
351.535
355.523
360.83
368.79
372.962
376.291
381.129
383.834
382.883
364.587
305.41
292.684
290.581
289.821
289.465
289.323
289.108
288.763
288.476
288.262
288.072
288.257
288.11
343.893
344.72
343.018
342.722
343.485
345.657
348.569
351.891
356.381
362.37
371.04
376.292
380.014
385.074
388.853
389.69
386.693
364.392
310.125
299.833
295.964
293.571
291.725
290.509
289.679
289.079
288.674
288.317
288.374
288.25
343.068
344.011
342.648
342.23
343.001
345.267
348.575
352.283
357.129
363.808
373.575
378.584
382.804
389.718
394.411
395.593
394.859
388.191
367.001
341.273
325.224
310.721
302.469
296.255
292.329
290.313
289.225
288.58
288.426
288.275
342.156
343.287
342.287
341.825
342.558
344.874
348.621
352.741
357.831
365.296
376.078
381.141
384.81
392.998
401.05
403.507
403.05
397.957
387.849
375.571
370.495
364.573
348.847
323.767
304.021
294.877
290.803
289.068
288.448
288.29
341.215
342.558
341.953
341.508
342.204
344.544
348.645
353.2
358.579
366.722
377.923
383.816
387.525
395.612
406.462
412.562
413.814
411.469
406.48
398.239
395.747
394.22
389.975
380.973
356.356
315.452
297.349
290.716
288.711
288.227
340.391
341.917
341.628
341.258
341.919
344.229
348.522
353.493
359.299
367.82
379.002
385.487
390.159
398.256
412.165
422.26
427.33
429.755
436.389
435.311
435.013
436.225
433.708
424.687
406.248
382.658
330.559
297.648
290.02
288.445
339.642
341.395
341.338
341.096
341.699
343.874
348.262
353.54
359.687
368.261
379.176
386.002
391.903
401.051
416.34
432.321
443.667
456.636
478.521
495.082
505.889
513.25
512.47
501.947
473.671
435.868
398.048
335.499
296.257
289.595
338.921
340.968
341.133
341.022
341.549
343.543
347.846
353.449
359.677
368.129
378.566
385.897
392.659
402.951
419.645
440.849
461.155
490.764
537.449
582.837
618.631
642.873
648.754
640.408
605.162
538.64
466.341
403.21
324.593
293.265
338.098
340.5
340.918
340.943
341.43
343.253
347.415
353.067
359.408
367.292
377.522
385.737
393.435
404.822
423.953
449.018
480.425
529.032
607.288
697.312
782.843
834.189
852.142
850.213
821.388
738.724
613.124
481.495
395.299
311.856
337.245
339.897
340.61
340.836
341.349
342.983
346.918
352.275
359.173
366.156
376.007
385.056
393.858
406.557
429.724
457.149
500.439
573.147
683.759
833.128
987.592
1091.28
1135.1
1126.96
1084.57
1019.75
884.736
669.291
469.243
371.647
336.347
339.221
340.238
340.649
341.278
342.745
346.337
351.4
358.065
364.772
375.057
383.283
393.519
407.044
434.594
469.31
522.018
620.068
763.22
964.254
1116.75
1228.9
1321.3
1387.44
1373.86
1294.14
1158.95
1022.2
640.359
445.065
335.499
338.622
339.881
340.446
341.237
342.631
346.002
350.678
357.406
362.803
374.82
382.116
394.08
408.166
438.267
479.371
542.034
661.085
833.576
1005.39
1139.57
1243.63
1340.44
1449.64
1533.71
1540.07
1391.52
1310.68
1034.05
572.709
334.861
338.189
339.524
340.205
341.117
342.65
346.142
350.568
357.238
362.178
374.243
381.274
393.317
408.28
439.122
484.893
556.593
703.636
855.597
1006.07
1115.45
1199.15
1301.09
1432.7
1558.56
1630.66
1610.07
1437.08
1370.9
636.872
334.45
337.775
339.161
340.05
340.951
342.584
346.185
350.801
357.386
362.119
372.746
381.349
392.979
408.793
439.043
486.841
565.172
730.037
855.147
974.669
1061.69
1139.74
1270.54
1421.85
1569.52
1665.27
1681.32
1490.25
1542.07
867.274
274.255
285.906
543.599
1038.39
1153.27
1158.81
1168.63
1180.74
1183.33
1172.89
1126.37
1105.57
1097.71
1084.56
1062.04
1026.44
995.611
984.62
982.093
981.191
978.285
976.338
974.016
965.724
959.524
952.596
944.554
936.715
928.425
918.972
910.173
903.453
896.128
888.67
882.994
878.587
874.327
871.594
869.911
867.299
863.944
860.28
857.135
852.901
846.01
836.802
824.013
807.375
789.114
771.185
752.792
735.454
719.506
702.875
686.947
672.472
658.251
644.647
631.16
618.155
606.324
595.149
584.57
574.656
565.877
557.895
550.772
544.147
537.793
531.679
525.5
519.058
512.381
505.731
499.218
492.866
486.693
480.705
474.731
468.94
463.445
458.206
453.202
448.267
443.226
438.156
433.275
428.544
423.959
419.534
415.318
411.372
407.676
404.211
400.935
397.78
394.676
391.571
388.432
385.229
381.988
378.747
375.573
372.508
369.544
366.592
363.684
360.782
357.796
354.857
352.059
349.447
347.016
344.643
342.35
340.299
338.528
337.321
336.536
335.416
334.712
334.291
334.083
334.095
334.204
274.226
284.195
524.043
1023.59
1139.43
1135.16
1139.05
1155.39
1161.72
1129.54
1076.33
1036.69
1010.46
991.072
960.842
942.394
939.077
940.985
948.003
957.744
960.974
960.203
962.061
960.728
956.651
951.261
944.773
938.199
932.426
926.835
921.749
917.634
913.043
908.535
905.729
905.007
905.215
905.583
906.477
910.557
918.546
929.104
941.273
947.013
947.668
942.279
925.504
897.615
865.2
831.095
800.671
773.696
752.79
729.698
709.237
689.93
672.113
655.755
640.779
626.9
614.64
603.551
593.061
583.31
574.564
566.688
559.646
553.163
546.976
540.941
534.767
528.287
521.457
514.612
507.909
501.272
494.774
488.407
482.111
476.051
470.292
464.843
459.614
454.43
449.233
444.034
439.04
434.196
429.485
424.916
420.53
416.378
412.467
408.763
405.253
401.892
398.575
395.271
391.929
388.495
385.01
381.505
378.025
374.646
371.435
368.326
365.331
362.377
359.394
356.491
353.747
351.21
348.858
346.586
344.491
342.613
341.028
340.147
339.277
338.36
337.735
337.386
337.232
337.291
337.458
274.12
279.61
450.856
958.863
1131.5
1142.82
1153.99
1169.8
1170.26
1109.35
1042.37
997.4
968.196
939.678
918.785
914.955
918.11
927.343
944.003
963.328
976.371
983.664
985.347
984.058
978.433
970.691
962.819
955.585
950.12
945.983
943.011
941.914
941.657
941.995
944.514
949.265
956.748
971.128
993.296
1023.29
1065.42
1128.36
1205.87
1275.99
1301.26
1300.99
1265.16
1187.83
1090.7
999.06
923.954
863.294
816.921
777.964
744.51
716.516
692.701
674.162
658.418
643.626
630.018
617.477
605.26
594.094
584.941
576.687
569.149
561.813
554.557
547.712
541.209
534.579
527.537
520.558
513.821
507.241
500.752
494.376
488.069
481.945
476.211
470.701
465.365
460.137
454.984
449.81
444.77
439.876
435.129
430.541
426.1
422.015
418.343
414.91
411.629
408.406
405.106
401.723
398.264
394.686
390.926
387.103
383.373
379.746
376.258
372.857
369.623
366.534
363.524
360.684
357.958
355.356
352.809
350.364
347.901
345.73
343.781
342.857
341.592
340.427
339.698
339.239
338.923
338.827
338.933
274.041
276.16
362.955
835.329
1099.46
1124.95
1142.98
1167.41
1169.48
1108.84
1052.2
999.938
952.979
919.792
908.232
911.261
926.008
952.916
981.936
987.159
985.627
983.198
985.282
986.445
987.341
987.099
982.943
979.682
979.21
979.401
979.979
981.786
987.67
996.524
1009.66
1031.51
1067.92
1127.74
1221.73
1364.99
1568.23
1800.82
2010.46
2122.38
2152.7
2147.09
2097.14
1987.21
1808.31
1580.92
1347.26
1135.3
986.167
889.964
823.801
773.818
733.393
702.254
678.926
662.451
647.914
635.059
622.465
610.919
600.424
590.521
581.628
574.279
567.598
560.693
553.217
545.438
537.754
530.303
523.014
515.815
508.941
502.426
496.104
489.981
484.058
478.39
472.894
467.406
461.951
456.622
451.566
446.775
442.185
437.763
433.636
429.803
426.105
422.479
418.963
415.452
411.91
408.301
404.596
400.802
396.974
393.175
389.385
385.625
381.92
378.205
374.63
371.13
367.691
364.48
361.584
358.83
356.175
353.585
351.22
349.03
346.953
345.841
344.236
342.857
341.888
341.103
340.57
340.167
340.04
274.011
274.632
299.922
650.428
1052.71
1104.7
1125.42
1157.37
1161.17
1119.55
1064.15
992.089
928.194
903.665
900.107
911.1
947.861
976.086
976.185
977.133
981.923
989.226
993.727
995.908
1001
1010.31
1018.73
1022.53
1025.66
1033.68
1044.66
1055.63
1071.12
1098.42
1144.14
1221.74
1352.24
1565.63
1879.62
2239.55
2393.32
2423.31
2423.42
2410.42
2387.63
2360.68
2325.65
2284.38
2240.28
2135.98
1956.34
1727.41
1458.22
1231.49
1057.35
921.791
828.452
766.361
722.697
691.411
669.307
652.394
638.656
627.796
617.784
608.283
599.978
592.488
585.915
579.67
573.298
566.249
558.484
550.767
542.743
534.299
526.337
518.665
510.862
503.549
496.84
490.607
484.71
478.936
473.24
467.461
461.751
456.286
451.091
446.212
441.552
437.14
432.844
428.777
424.917
421.29
417.66
414.015
410.342
406.56
402.666
398.666
394.566
390.426
386.386
382.53
378.992
375.644
372.447
369.323
366.042
362.815
359.832
356.928
354.408
351.647
349.234
347.588
345.799
344.379
343.269
342.387
341.68
341.166
340.955
274.003
274.165
281.008
475.994
953.464
1091.31
1129.11
1151.5
1140.44
1104.43
1043.12
947.3
898.14
892.754
904.185
952.886
969.559
970.933
974.39
985.439
996.635
1003.52
1013.9
1022.94
1027.12
1035.74
1051.04
1069.68
1086.23
1104.66
1127.54
1158.71
1211.71
1297.17
1451.92
1708.34
2088.38
2383.52
2464.28
2473.65
2465.92
2447.89
2430.07
2404.14
2373.79
2336.58
2294.21
2266.84
2247.27
2222.27
2158.87
2028.62
1841.09
1629.14
1414.14
1219.72
1050.78
917.329
816.071
750.925
713.309
687.652
666.383
648.143
634.905
624.58
616.21
609.687
603.371
598.183
593.496
589.012
583.488
576.793
569.962
562.898
555.117
546.761
538.293
529.949
521.582
513.334
505.38
497.74
490.445
483.346
476.462
469.704
463.155
456.998
451.331
446.237
441.767
437.711
433.763
429.689
425.554
421.246
416.798
412.389
408.043
403.78
399.771
395.878
392.044
388.222
384.589
381.17
377.758
374.388
371.172
368.058
364.68
361.307
358.35
355.701
353.396
351.381
349.174
347.491
346.157
345.091
344.152
343.332
342.818
274.001
274.041
276.034
360.378
822.294
1089.11
1137
1134.74
1104.63
1065.36
980.011
900.495
885.046
900.625
939.02
957.481
965.429
974.229
985.363
1000.5
1018.88
1034.1
1041.82
1050.56
1068.83
1094.28
1122.38
1153.69
1195.52
1239.04
1293.87
1380.64
1528.14
1768.43
2100.98
2369.68
2460.31
2482.2
2474.96
2453.28
2449.88
2455.57
2450.68
2424.14
2390.81
2344.46
2302.21
2268.56
2231.58
2204.57
2174.74
2116.89
2020.7
1882.21
1717.68
1531.61
1348.08
1172.11
1008.93
877.888
801.365
758.583
723.599
690.549
670.73
658.147
646.413
635.597
629.673
627.862
626.317
623.14
619.626
614.801
609.464
603.635
596.948
589.283
580.85
571.714
561.958
551.962
541.622
531.142
520.763
510.661
500.84
491.131
482.019
474.048
466.889
460.47
454.339
448.709
443.395
438.211
433.202
428.429
424.02
419.84
415.596
411.155
406.618
402.138
397.916
394.136
390.755
387.27
383.949
380.689
377.647
374.237
370.843
367.512
364.371
361.454
358.25
355.501
353.19
350.976
349.315
348.456
347.654
346.893
346.453
274
274.008
274.451
293.646
612.08
1046.76
1141.47
1126.55
1084.65
999.519
918.021
908.941
923.875
940.968
961.851
979.69
987.65
992.718
1004.74
1019.27
1031.56
1047.82
1066.36
1091.03
1123.72
1168.01
1229.41
1301.09
1382.49
1474.18
1584.42
1752.09
1986.92
2248.59
2403.5
2446.12
2451.38
2434.39
2422.51
2424.21
2437.16
2444.71
2445.23
2427.8
2409.75
2397.24
2385.69
2356.14
2305.43
2239.76
2189.58
2134.68
2071.86
1985.55
1880.79
1746.17
1596.94
1440.63
1263.19
1088.42
965.337
888.488
827.254
778.012
745.565
720.268
697.915