/*--------------------------------*- C++ -*----------------------------------*\
| =========                 |                                                 |
| \\      /  F ield         | OpenFOAM: The Open Source CFD Toolbox           |
|  \\    /   O peration     | Version:  2112                                  |
|   \\  /    A nd           | Website:  www.openfoam.com                      |
|    \\/     M anipulation  |                                                 |
\*---------------------------------------------------------------------------*/
FoamFile
{
    version     2.0;
    format      ascii;
    arch        "LSB;label=32;scalar=64";
    class       surfaceScalarField;
    location    "0.01065";
    object      phi;
}
// * * * * * * * * * * * * * * * * * * * * * * * * * * * * * * * * * * * * * //

dimensions      [1 0 -1 0 0 0 0];

oriented        oriented;

internalField   nonuniform List<scalar> 
27436
(
-0.53348
8.19284
-0.0933394
7.47166
-0.0850383
7.78725
-0.070971
7.7868
-0.0646928
7.78825
-0.0485277
7.78133
-0.0404636
7.78862
-0.0371508
7.79221
-0.0256273
7.787
-0.0139598
7.78678
-0.00690213
7.78996
0.00125504
7.78896
0.014247
7.78383
0.0310833
7.78084
0.0462302
7.78228
0.0549197
7.78824
0.0580602
7.7926
0.0658335
7.78974
0.0753192
7.78832
0.089551
7.78251
0.0962306
7.7879
0.111784
7.78555
0.124155
7.78236
0.574547
7.4625
8.21917
-0.247205
8.44007
-0.0961527
7.32062
-0.0812596
7.77229
-0.054533
7.7601
-0.0591481
7.79276
-0.0615586
7.78297
-0.0379113
7.76514
-0.0257291
7.78023
-0.0181292
7.77744
-0.0109656
7.77844
0.000171593
7.77986
0.0150505
7.77398
0.0150152
7.78379
0.0215476
7.77434
0.0210594
7.78277
0.0377043
7.77159
0.0465864
7.78372
0.0589754
7.77735
0.0823438
7.76494
0.0776628
7.7872
0.0721924
7.79343
0.102994
7.7547
0.114337
7.77116
0.267719
7.3095
8.48054
-0.227219
8.66729
-0.141049
7.23445
-0.120402
7.75169
-0.106906
7.74644
-0.105002
7.79112
-0.104451
7.78349
-0.0931671
7.75613
-0.0812798
7.77295
-0.0634395
7.76447
-0.0471639
7.76166
-0.0369671
7.76596
-0.014503
7.75089
-0.0126808
7.78187
-0.0114604
7.77314
-0.00829441
7.7796
0.0127115
7.75059
0.0241372
7.77229
0.0472265
7.75427
0.0609618
7.7512
0.0593889
7.78876
0.0638119
7.78902
0.0786692
7.73987
0.100685
7.74955
0.192523
7.21561
8.66816
-0.169495
8.83677
-0.139347
7.20425
-0.13409
7.74638
-0.113269
7.7255
-0.113763
7.79209
-0.108397
7.7796
-0.0930053
7.74276
-0.0769335
7.75909
-0.0591375
7.74902
-0.0402298
7.74343
-0.0270327
7.7519
-0.00626138
7.72994
0.00292873
7.77259
0.00480509
7.77128
0.0149383
7.76947
0.0353266
7.73021
0.0495401
7.7581
0.0695989
7.73421
0.0885354
7.73225
0.0942256
7.78305
0.0944295
7.78881
0.118929
7.71551
0.111354
7.75735
0.162078
7.16369
8.83369
-0.073556
8.91031
-0.0363843
7.16703
-0.0924486
7.80234
-0.0628377
7.6955
-0.0699192
7.79939
-0.0676381
7.77882
-0.0571911
7.7344
-0.0422183
7.74637
-0.0261913
7.73502
-0.0108675
7.7285
0.00155257
7.73837
0.0180318
7.71318
0.0267868
7.76383
0.0275585
7.77053
0.0370168
7.76002
0.0544088
7.71283
0.0645775
7.74795
0.0819399
7.71685
0.0969489
7.71725
0.10106
7.77891
0.0968633
7.79301
0.124799
7.68763
0.0898423
7.79251
0.0966635
7.1572
8.93688
0.118591
8.79174
0.0438269
7.24179
-0.0501529
7.89628
-0.0131133
7.65801
-0.0324205
7.81901
-0.035616
7.78366
-0.0309312
7.7324
-0.0197254
7.73833
-0.00711194
7.72515
0.00259297
7.71931
0.00908302
7.73152
0.0211552
7.7012
0.0257717
7.7594
0.024951
7.77134
0.0296446
7.75533
0.0422187
7.70027
0.0464622
7.74373
0.0582636
7.70505
0.0683705
7.70713
0.0690594
7.77819
0.0524015
7.80964
0.0884183
7.65167
-0.0140691
7.89509
-0.0212546
7.16454
8.91941
0.304638
8.48716
0.136084
7.41036
-0.00689568
8.03919
0.0214675
7.62926
-0.0241998
7.86485
-0.0502232
7.81218
-0.0681753
7.75344
-0.0755281
7.75041
-0.0816687
7.73329
-0.0894968
7.72809
-0.107736
7.75052
-0.117628
7.71131
-0.130579
7.7724
-0.146322
7.78709
-0.15805
7.76706
-0.166344
7.70856
-0.184898
7.76229
-0.19312
7.71328
-0.208054
7.72206
-0.228684
7.7988
-0.262787
7.8437
-0.284797
7.67373
-0.3545
7.96468
-0.658619
7.46863
8.26226
0.873264
7.61402
0.521829
7.76186
0.41012
8.15088
0.330987
7.70825
0.265332
7.93046
0.221961
7.85824
0.186685
7.79357
0.165019
7.77792
0.144776
7.75402
0.119587
7.7539
0.0878321
7.78419
0.0634771
7.73588
0.0385327
7.79734
0.00677244
7.81889
-0.0192388
7.79306
-0.0444745
7.73374
-0.0742482
7.79207
-0.100831
7.73988
-0.130781
7.75198
-0.16714
7.83514
-0.228206
7.90472
-0.279179
7.72476
-0.405901
8.09123
-0.693715
7.75654
7.56654
0.592919
7.02129
0.410016
7.94495
0.23735
8.32349
0.18652
7.75876
0.125691
7.99111
0.0911423
7.89491
0.0778951
7.81112
0.0787376
7.78104
0.0827116
7.7488
0.0809914
7.75654
0.0765187
7.79193
0.0738844
7.73965
0.0776044
7.79351
0.0768847
7.81967
0.0769416
7.793
0.0723012
7.73822
0.0674808
7.79685
0.062869
7.74449
0.0560836
7.75876
0.0293017
7.86186
-0.0267035
7.96062
-0.0465418
7.74451
-0.219174
8.26346
-0.371998
7.90892
7.19022
-3.0508
10.0725
-3.3903
8.28449
-2.76361
7.69662
-2.62198
7.61745
-2.30771
7.67785
-1.94693
7.53641
-1.67369
7.54071
-1.37253
7.48026
-1.07588
7.44949
-0.781824
7.46413
-0.489952
7.50454
-0.206582
7.45758
0.0982238
7.48829
0.403974
7.51398
0.694799
7.50195
0.96643
7.46619
1.2648
7.49837
1.54229
7.46708
1.83556
7.46559
2.19641
7.50102
2.50193
7.65501
2.66051
7.5859
3.23497
7.68854
2.95028
8.19302
10.139
-4.2568
14.33
-4.3623
8.38977
-4.19565
7.52903
-3.90382
7.32749
-3.33665
7.11288
-2.83416
7.03588
-2.36484
7.06955
-1.90306
7.01539
-1.45923
7.00321
-1.01854
7.025
-0.559737
7.05079
-0.119289
7.01797
0.341641
7.02658
0.811707
7.04391
1.25796
7.05536
1.67703
7.04643
2.13117
7.04397
2.57048
7.02778
3.02563
7.01053
3.57736
6.9494
4.13446
7.09792
4.44462
7.27559
4.61498
7.5179
4.56458
8.24249
14.7054
-2.75505
17.0858
-4.86148
10.4946
-4.98845
7.65442
-4.16034
6.50112
-3.65533
6.60979
-3.19819
6.57721
-2.67901
6.54455
-2.18875
6.51934
-1.70972
6.52227
-1.22525
6.54132
-0.722825
6.55248
-0.241996
6.53661
0.260054
6.52322
0.762311
6.54147
1.2596
6.55798
1.71869
6.58693
2.2058
6.55648
2.69634
6.53704
3.19188
6.51503
3.66728
6.47414
4.24875
6.51667
5.09931
6.42506
4.72237
7.8947
2.77962
10.185
17.4857
2.36423
14.7217
0.14648
12.7084
-5.03646
12.8335
-3.9176
5.3817
-3.81712
6.51046
-3.29334
6.04983
-2.83995
6.08331
-2.35214
6.02454
-1.84776
6.01509
-1.33477
6.02717
-0.812054
6.02985
-0.305581
6.02758
0.213543
6.00202
0.741639
6.01271
1.26544
6.03432
1.78847
6.06393
2.28088
6.06385
2.75954
6.058
3.19954
6.07487
3.75912
5.9147
3.97256
6.30364
5.10943
5.28854
-0.181384
13.1858
-2.39852
12.4023
15.0868
2.44714
12.2736
3.51711
11.6356
3.40719
12.9356
-0.85622
9.6449
-3.60636
9.26275
-3.18235
5.61905
-2.94945
5.84297
-2.46918
5.53779
-1.95433
5.495
-1.4719
5.54
-0.979189
5.53237
-0.472454
5.51697
0.0274001
5.4994
0.532542
5.50622
1.03188
5.53461
1.52523
5.5705
2.02785
5.56128
2.4841
5.60168
2.61198
5.94678
2.98334
5.54318
-0.0897509
9.37702
-4.15498
9.3534
-3.87811
12.9096
-2.95559
11.48
12.1309
1.87365
10.3979
3.86542
9.64204
5.78006
11.0148
4.96247
10.4597
4.0551
10.1705
-1.21836
10.9045
-2.37188
7.00082
-2.04719
5.20814
-1.63479
5.07621
-1.14197
5.04042
-0.605499
4.99003
-0.0639748
4.97173
0.469775
4.96305
1.00551
4.96863
1.54557
4.99344
2.05418
5.06129
2.44642
5.16933
2.79832
5.2497
1.50938
7.23556
-3.66538
10.7176
-4.23955
9.95144
-4.89495
10.0098
-3.05232
11.067
-1.33355
9.76196
10.7979
1.09292
9.30344
2.17243
8.56124
3.99725
9.18801
4.96203
9.49332
5.06765
10.0629
5.79798
10.1764
2.76228
10.0447
1.12096
6.84726
-0.0650289
6.25767
-0.392321
5.36426
-0.252963
4.84841
0.0389565
4.67844
0.388492
4.61286
0.710805
4.6457
0.920308
4.7829
0.796602
5.18425
-0.522341
6.48768
-2.33645
7.06434
-5.03213
9.93091
-4.28147
9.96682
-3.97253
9.64253
-3.51035
9.54812
-1.86279
9.42003
-0.76216
8.66197
10.0364
2.00758
7.29564
3.17775
7.3907
4.38374
7.98018
5.97125
7.9078
7.07254
8.96016
6.64535
10.5981
4.69172
11.9998
2.12539
9.41557
0.853276
7.52897
0.153775
6.06286
-0.0373484
5.03942
-0.0712578
4.71237
-0.0373462
4.57944
-0.0291343
4.63714
-0.157399
4.91104
-0.796589
5.82303
-2.35312
8.0429
-4.93111
9.64189
-6.74327
11.7415
-7.24635
10.4712
-6.42441
8.82063
-5.00068
8.12504
-3.70749
8.12696
-2.56054
7.51527
7.4764
2.53881
4.75804
4.16573
5.76596
4.71093
7.43599
4.35502
8.26279
4.56049
8.75354
4.29781
10.8581
4.15526
12.1436
2.52
11.0525
1.33649
8.71485
0.581647
6.81867
0.209952
5.41263
-0.0868893
5.01062
-0.383444
4.87647
-0.684857
4.93872
-1.02578
5.25191
-1.88517
6.68298
-3.21995
9.37964
-4.92238
11.3446
-5.84061
12.6608
-6.22482
10.8575
-5.96713
8.5621
-5.94527
8.10199
-4.9668
7.14918
-2.94151
5.4905
4.53511
3.16504
1.59358
6.23777
2.69442
8.48779
5.18934
8.28577
8.46602
6.49076
10.5458
5.93715
11.4092
5.60434
12.4751
4.92992
11.7285
4.16714
9.47975
3.24991
7.7381
1.98743
6.67729
0.827136
6.1727
-0.322171
6.02698
-1.51604
6.13404
-2.88627
6.62374
-3.98542
7.78407
-4.39545
9.79218
-4.76382
11.7152
-4.64839
12.5461
-5.29421
11.5014
-7.54242
10.8086
-7.85831
8.41711
-5.77101
5.06286
-2.95929
2.67899
1.5759
1.20208
0.392286
2.93215
0.965876
4.961
3.16469
6.47536
6.96088
5.77545
11.2445
5.45387
11.7278
5.43011
12.4968
4.89823
12.2599
3.82678
10.552
2.66257
8.90273
1.51284
7.82722
0.380723
7.3053
-0.751954
7.16006
-1.91897
7.30164
-3.16799
7.87356
-4.46344
9.08053
-5.47756
10.8079
-5.89371
12.134
-5.82061
12.4746
-6.09772
11.778
-6.67256
11.382
-4.99071
6.73536
-2.98331
3.05599
-1.21268
0.908717
0.363571
0.582324
-0.188936
0.868158
0.681255
1.00279
3.0318
1.33262
6.63472
2.26289
10.3128
2.91076
11.0776
3.41514
11.9934
3.34715
12.3284
2.67279
11.2243
1.80139
9.7729
0.943024
8.68482
0.107917
8.14019
-0.731693
7.99964
-1.60636
8.17641
-2.54801
8.81556
-3.49413
10.0269
-4.10058
11.4151
-4.03738
12.0726
-3.41908
11.8577
-2.71632
11.0761
-1.66497
10.3298
-1.14453
6.21341
-0.917868
2.8294
-0.597894
0.588718
-0.233924
-0.156473
-0.0323035
-0.299365
0.825052
-0.69292
3.42752
-0.648924
6.59264
0.390397
9.27513
1.30157
10.1661
1.90063
11.3981
2.04145
12.1889
1.75047
11.5111
1.27663
10.2444
0.722438
9.23776
0.149467
8.71261
-0.412469
8.56117
-0.990036
8.75365
-1.54924
9.37445
-1.99019
10.4674
-2.17266
11.598
-1.95779
11.8592
-1.27464
11.1758
-0.299381
10.1019
0.798886
9.23234
0.684658
6.32768
0.361479
3.15225
0.200622
0.749199
-0.0337864
-0.523918
0.491984
-1.3632
1.6644
-1.77843
3.84351
-1.8026
6.61965
-0.920218
8.39373
-0.0602101
9.30553
0.463096
10.8789
0.770985
11.8813
0.859284
11.4187
0.727432
10.3739
0.49343
9.47052
0.219115
8.98588
-0.0759072
8.85528
-0.336809
9.01345
-0.534072
9.57069
-0.602873
10.5353
-0.471009
11.4659
-0.187286
11.5762
0.448134
10.5411
1.3078
9.24354
2.1708
8.36996
2.03255
6.46591
1.49932
3.68507
0.542751
1.70515
0.508606
-0.397407
0.889032
-1.503
2.76846
-2.42674
4.76862
-2.54903
6.74448
-2.06726
7.91122
-1.59657
8.83462
-1.03162
10.3166
-0.515843
11.365
-0.162033
11.0614
0.0020589
10.2081
0.0195167
9.45212
-0.0508106
9.05511
-0.135352
8.93852
-0.209194
9.08593
-0.194681
9.55487
-0.015538
10.3551
0.34707
11.1028
0.832671
11.0918
1.34289
10.032
1.92344
8.66453
2.45915
7.83605
2.33302
6.59302
1.36248
4.65514
0.352789
2.71405
0.859998
-0.383966
1.27353
-1.39641
3.78023
-2.18492
5.55759
-2.42954
6.98932
-2.19263
7.67393
-1.88551
8.52718
-1.45288
9.88466
-0.924804
10.8361
-0.477511
10.6117
-0.227384
9.95676
-0.110168
9.33398
-0.0559473
8.99963
-0.0364775
8.91755
0.0273063
9.02068
0.16705
9.41374
0.434594
10.0862
0.867533
10.6695
1.3784
10.5804
1.77093
9.64017
2.10859
8.32764
2.38222
7.56282
2.11884
6.85666
1.30059
5.47408
0.347053
3.66636
1.20671
-0.356749
1.63099
-1.23696
4.65923
-2.05507
6.37455
-2.41315
7.34688
-2.38042
7.63962
-2.15719
8.30385
-1.77717
9.50662
-1.21945
10.2786
-0.724112
10.1152
-0.347181
9.57952
-0.130489
9.11668
0.00890772
8.85907
0.147761
8.77734
0.292055
8.875
0.524433
9.17999
0.928566
9.68082
1.44434
10.1525
1.95626
10.0689
2.28083
9.31611
2.49908
8.11071
2.51179
7.55176
2.1418
7.22756
1.25159
6.36474
0.35656
4.56287
1.56537
-0.471744
2.10348
-1.39341
5.57829
-2.21022
7.19106
-2.53319
7.66984
-2.58986
7.69655
-2.45978
8.17429
-2.16527
9.21242
-1.65609
9.76935
-1.13765
9.59652
-0.751777
9.19335
-0.462579
8.82704
-0.22604
8.62166
-0.0303929
8.58055
0.205603
8.63776
0.500075
8.88425
0.877021
9.30275
1.35059
9.6782
1.83421
9.58454
2.14241
9.00857
2.29589
7.95608
2.239
7.60822
1.95751
7.50944
1.215
7.10766
0.362592
5.41667
1.92963
-0.362472
2.46547
-1.22802
6.44449
-1.97601
7.93626
-2.16815
7.85964
-2.35238
7.88113
-2.26841
8.09196
-1.98724
8.93324
-1.49362
9.27695
-1.02309
9.12572
-0.613574
8.78418
-0.310679
8.52398
-0.0659641
8.37614
0.1807
8.33295
0.427332
8.39001
0.740228
8.57032
1.17853
8.863
1.66396
9.19178
2.10019
9.14745
2.3365
8.77235
2.40884
7.88638
2.19897
7.81992
1.94809
7.76408
1.18315
7.8739
0.372285
6.2272
2.30359
-0.298392
2.76189
-1.19473
7.34125
-1.91609
8.65788
-2.08506
8.02799
-2.2329
8.03078
-2.16658
8.02725
-1.92035
8.68803
-1.48844
8.84534
-1.02964
8.66676
-0.652079
8.40692
-0.316579
8.18825
-0.0152586
8.07442
0.256119
8.06085
0.565897
8.07934
0.915298
8.21984
1.30118
8.4764
1.73935
8.7524
2.16364
8.72365
2.3788
8.55736
2.44307
7.81897
2.28105
7.98029
2.0951
7.94835
1.40176
8.56628
0.453405
7.17623
2.75222
-0.545166
3.30944
-1.45341
8.25173
-2.05325
9.26101
-2.22619
8.20688
-2.40197
8.21097
-2.43785
8.06414
-2.23837
8.48843
-1.78597
8.39194
-1.34858
8.23027
-0.934383
7.99264
-0.598861
7.85252
-0.30459
7.77955
-0.00201504
7.75743
0.293526
7.78328
0.634469
7.87818
1.05701
8.05303
1.48798
8.32081
1.8695
8.33986
2.06979
8.35808
2.03333
7.8576
1.92812
8.08849
1.71707
8.16152
1.13085
9.1499
0.393447
7.89904
3.14555
-0.446239
3.74886
-1.27681
9.07669
-1.88479
9.86465
-2.03277
8.35159
-2.03809
8.21676
-2.01541
8.04294
-1.82225
8.29622
-1.46728
8.03842
-1.0743
7.83697
-0.728743
7.6471
-0.392891
7.51651
-0.0678694
7.45436
0.233875
7.45533
0.564098
7.45251
0.906539
7.53537
1.26134
7.69747
1.64331
7.93856
2.01052
7.97328
2.15206
8.21481
2.15944
7.84829
2.14561
8.10139
1.94077
8.36564
1.43896
9.64776
0.592169
8.74625
3.74031
-0.406385
4.14465
-0.811565
9.48095
-1.58199
10.6403
-1.75727
8.53144
-1.81987
8.28021
-1.77726
7.99861
-1.64775
8.16574
-1.32135
7.71085
-0.997482
7.51365
-0.654308
7.30394
-0.352231
7.21429
-0.0706319
7.1726
0.230046
7.15445
0.506933
7.17555
0.816316
7.22564
1.18605
7.32774
1.52692
7.59681
1.79821
7.70131
1.92146
8.0927
1.94682
7.82414
1.93608
8.11346
1.87574
8.4274
1.13701
10.3915
0.541851
9.36404
4.28507
-0.663126
4.81212
-1.11612
9.93699
-1.86291
11.3874
-1.99023
8.66444
-1.95562
8.2487
-1.88902
7.93179
-1.71082
7.98757
-1.42442
7.42442
-1.10951
7.19971
-0.821406
7.01584
-0.528485
6.92159
-0.222223
6.86639
0.0608567
6.87141
0.372754
6.86364
0.671094
6.9276
0.952239
7.04639
1.24957
7.30003
1.54418
7.40586
1.68484
7.95148
1.75718
7.75202
1.75382
8.11807
1.69886
8.48628
0.775554
11.3277
0.329674
9.79899
4.5977
-0.473172
5.28579
-0.788623
10.2429
-1.39232
11.9826
-1.6031
8.87065
-1.65775
8.29657
-1.60521
7.87491
-1.45035
7.83092
-1.18803
7.16446
-0.910106
6.92317
-0.606966
6.71294
-0.325827
6.64063
-0.0676352
6.60848
0.215768
6.58828
0.470654
6.60894
0.752244
6.64617
1.06946
6.72961
1.34807
7.02182
1.59093
7.16379
1.74348
7.79683
1.76288
7.72927
1.75152
8.13042
1.4388
8.79804
0.988273
11.7742
0.483092
10.328
5.08255
-0.339953
5.63301
-0.507672
10.4053
-1.01837
12.496
-1.52303
9.37611
-1.56131
8.33865
-1.48144
7.79779
-1.26646
7.62082
-1.056
6.95448
-0.816196
6.68455
-0.580228
6.47753
-0.334098
6.39484
-0.0683752
6.34319
0.171574
6.34865
0.441211
6.33995
0.685389
6.40233
0.917179
6.49812
1.16303
6.77629
1.39382
6.93488
1.57429
7.62024
1.62675
7.67977
1.65763
8.09871
1.24519
9.2174
0.738317
12.2738
0.444993
10.6347
5.53438
-0.453159
6.08283
-0.704721
10.6618
-0.999015
12.7984
-1.60606
9.98984
-1.56751
8.30234
-1.51978
7.74911
-1.37418
7.47657
-1.12477
6.70557
-0.909918
6.4719
-0.657031
6.22472
-0.416595
6.15495
-0.197819
6.12476
0.0490493
6.10241
0.265811
6.1234
0.514421
6.15442
0.777824
6.23546
0.981674
6.57315
1.19935
6.71669
1.35364
7.46401
1.38978
7.64327
1.36344
8.12768
0.74081
9.8419
0.40404
12.6035
0.329425
10.6666
5.9108
-0.250015
6.32942
-0.380417
10.8099
-0.51805
12.938
-1.25516
10.713
-1.36978
8.41031
-1.33778
7.7104
-1.12749
7.26568
-0.911726
6.49397
-0.698444
6.26039
-0.502999
6.03004
-0.289276
5.94184
-0.0499993
5.88627
0.163954
5.88888
0.408826
5.87932
0.61746
5.94639
0.811352
6.04213
1.03959
6.3456
1.27727
6.47933
1.4624
7.27907
1.48361
7.62351
1.40523
8.20504
0.686158
10.5554
0.636295
12.6708
0.434586
10.8842
6.3785
-0.059785
6.38066
-0.0779523
10.8349
-0.101527
12.9625
-0.784008
11.398
-1.18035
8.81165
-1.13856
7.67396
-1.02913
7.16428
-0.833142
6.29997
-0.654042
6.08142
-0.445017
5.8211
-0.241784
5.73924
-0.0621704
5.7071
0.146868
5.68061
0.322582
5.70419
0.528056
5.74164
0.755814
5.81534
0.922715
6.17949
1.10656
6.29835
1.27482
7.1113
1.34003
7.55849
0.995401
8.54854
0.352251
11.1796
0.30763
12.7003
0.218727
11.0212
6.55346
-0.224108
6.59077
-0.380299
10.9857
-0.235146
12.8156
-0.75932
11.931
-1.33307
9.38483
-1.23378
7.57569
-1.06451
6.99355
-0.884129
6.11893
-0.690763
5.88862
-0.524914
5.65552
-0.35342
5.56842
-0.148527
5.50295
0.0326225
5.50005
0.235462
5.50189
0.406075
5.57185
0.568991
5.65314
0.774888
5.97431
0.948385
6.12425
1.05104
7.01131
1.12999
7.4836
0.490413
9.19252
-0.0758952
11.7544
0.040421
12.6107
0.0453529
11.0007
6.59177
-0.0342839
6.62069
-0.0594387
10.9962
0.119798
12.6353
-0.185653
12.2307
-0.868237
10.0522
-0.941338
7.64236
-0.863688
6.91457
-0.718242
5.97557
-0.573677
5.74465
-0.386142
5.46895
-0.202227
5.38515
-0.0442099
5.34569
0.136078
5.32046
0.293842
5.34495
0.477997
5.38847
0.681816
5.44984
0.81644
5.84073
0.963496
5.97851
1.09242
6.88009
1.04291
7.53198
0.413842
9.81846
0.0917334
12.0755
0.179592
12.5114
0.117934
11.0636
6.7164
0.0162938
6.6078
0.0786937
10.9298
0.298765
12.4115
0.218625
12.3261
-0.534497
10.8309
-0.907186
8.02525
-0.735522
6.75054
-0.636535
5.87797
-0.487526
5.59526
-0.351717
5.33282
-0.20885
5.24281
-0.0411863
5.17852
0.113194
5.16671
0.286425
5.17229
0.423377
5.25209
0.563097
5.31136
0.742216
5.66214
0.84005
5.88293
1.05125
6.67079
0.770836
7.81332
-0.00435511
10.5887
-0.186225
12.2576
-0.0119451
12.3175
0.0407999
10.9573
6.65316
-0.128779
6.74373
-0.0972814
10.8998
0.0749577
12.2373
0.159477
12.2431
-0.316592
11.3061
-0.818432
8.5282
-0.777558
6.70456
-0.662542
5.76007
-0.5684
5.50017
-0.417668
5.18246
-0.262225
5.08789
-0.124301
5.04104
0.0281984
5.01476
0.161498
5.03952
0.322246
5.09222
0.477595
5.15557
0.552838
5.58671
0.634337
5.80078
0.731329
6.57546
0.185562
8.36272
-0.449544
11.225
-0.341716
12.1551
-0.228103
12.1644
-0.0673841
10.7466
6.61313
-0.0341945
6.78434
0.0329753
10.8371
0.193381
12.0737
0.546179
11.8824
0.108594
11.7333
-0.495303
9.11942
-0.646317
6.85514
-0.50887
5.62522
-0.411739
5.40452
-0.303673
5.07562
-0.182014
4.96661
-0.0340695
4.89346
0.104484
4.87657
0.257325
4.88703
0.374096
4.97568
0.494582
5.03651
0.639374
5.4436
0.759813
5.6827
0.635239
6.69985
0.0771853
8.9175
-0.288997
11.59
-0.0543332
11.9167
0.0656023
12.0282
0.104884
10.7369
6.776
0.0934795
6.69424
0.257179
10.6787
0.312087
12.0167
0.58046
11.6214
0.7452
11.5832
-0.0329029
9.90453
-0.466611
7.30294
-0.446333
5.60359
-0.371799
5.32835
-0.271165
4.97375
-0.145696
4.84098
-0.0319555
4.7799
0.0968983
4.74808
0.209526
4.77496
0.343387
4.84225
0.454709
4.92418
0.52564
5.37325
0.594332
5.61569
0.335779
6.96128
-0.426535
9.67718
-0.461521
11.6178
-0.132452
11.5796
-0.0931178
11.9989
-0.0606672
10.7639
6.79014
-0.118036
6.81412
-0.0138043
10.5736
0.0902412
11.914
0.35552
11.3387
0.631009
11.3054
0.0652465
10.4631
-0.409292
7.76843
-0.467261
5.65658
-0.383334
5.2436
-0.304208
4.89593
-0.216279
4.75314
-0.0934266
4.65721
0.0230468
4.63258
0.145694
4.6521
0.231815
4.75618
0.316904
4.84062
0.411191
5.27859
0.320024
5.70578
-0.162218
7.44099
-0.814083
10.3357
-0.53877
11.3477
-0.284037
11.33
-0.280695
12.0364
-0.121483
10.6169
6.68633
0.0499664
6.76486
0.234906
10.3784
0.285479
11.8561
0.466674
11.1539
0.861518
10.9039
0.702777
10.6217
0.00010053
8.46626
-0.301767
5.9651
-0.318093
5.26249
-0.21623
4.79386
-0.120352
4.65741
-0.0281496
4.56462
0.0789011
4.52384
0.17267
4.55908
0.282141
4.6471
0.350563
4.77371
0.380243
5.25065
0.139132
5.94929
-0.463459
8.04362
-0.766802
10.6371
-0.34015
10.9208
-0.136393
11.1457
-0.139424
12.0275
0.00416984
10.4395
6.68907
0.0650225
6.69962
0.298198
10.1378
0.405448
11.7523
0.577786
10.9966
0.837583
10.6438
0.9674
10.5012
0.31336
9.12645
-0.0778612
6.35745
-0.212236
5.3935
-0.159239
4.73865
-0.0975783
4.59496
-0.0164731
4.48342
0.0717271
4.43359
0.162686
4.46632
0.227218
4.58254
0.31382
4.68524
0.254582
5.3083
-0.13461
6.33983
-0.844065
8.75908
-0.740678
10.5365
-0.438725
10.6315
-0.256842
10.9835
-0.176314
11.9202
0.0389236
10.1981
6.7292
-0.0256432
6.72479
0.145371
9.96749
0.265461
11.6384
0.396927
10.8549
0.617124
10.4119
1.01625
10.0855
0.721132
9.41336
0.0671854
7.00356
-0.22618
5.68586
-0.18746
4.70157
-0.126105
4.53424
-0.0570919
4.4146
0.012226
4.36625
0.0753165
4.40315
0.139445
4.51833
0.170747
4.65473
-0.0825682
5.56073
-0.721227
6.97423
-1.18501
9.22378
-0.808715
10.1727
-0.591457
10.4285
-0.486511
10.8891
-0.286483
11.7278
-0.0468675
9.89923
6.66046
-0.0235183
6.74661
0.228087
9.71655
0.414664
11.4407
0.519024
10.7532
0.730165
10.2136
1.01379
9.80421
0.984857
9.45512
0.363049
7.62877
0.00553491
6.04795
-0.0985942
4.80558
-0.0613612
4.49586
-0.011351
4.36436
0.0363815
4.32066
0.0915049
4.34813
0.136387
4.47341
0.0893434
4.70299
-0.240299
5.89349
-0.854567
7.59241
-1.06785
9.44459
-0.741547
9.85003
-0.524036
10.2134
-0.395453
10.7451
-0.15662
11.418
0.0848033
9.6284
6.71193
0.0190477
6.71805
0.27722
9.45645
0.55286
11.1747
0.624562
10.6859
0.787294
10.0535
0.997595
9.59599
1.32214
9.12199
0.892722
8.05309
0.175025
6.76078
-0.0068637
4.98501
-0.0166023
4.50483
0.00723065
4.34069
0.0354323
4.29504
0.0666227
4.31733
0.0720094
4.46777
-0.0963694
4.87056
-0.784321
6.57708
-1.19788
8.00672
-1.0087
9.25977
-0.770939
9.61134
-0.56383
10.0009
-0.448908
10.6191
-0.190423
11.1423
0.0402315
9.38514
6.7271
-0.0353381
-0.589565
-0.0558616
-0.656631
-0.0838644
-0.708149
-0.107044
-0.783677
-0.135077
-0.859161
-0.163949
-0.935876
-0.188299
-1.00966
-0.205328
-1.07243
-0.211462
-1.12098
-0.211044
-1.1571
-0.205776
-1.1892
-0.194136
-1.20269
-0.178176
-1.21205
-0.159232
-1.22235
-0.138752
-1.23221
-0.118776
-1.24645
-0.10015
-1.26479
-0.0835244
-1.28341
-0.0700279
-1.30201
-0.0593021
-1.31973
-0.0527076
-1.34104
-0.0482731
-1.36271
-0.0434412
-1.38624
-0.0382886
-1.40928
-0.0327021
-1.43151
-0.0253888
-1.46168
-0.0206362
-1.47957
-0.011432
-1.49683
-0.00213187
-1.48326
-1.47401
0.00935188
-0.600778
-0.0202334
-0.623597
-0.0437572
-0.676666
-0.071946
-0.744043
-0.0985819
-0.81742
-0.126111
-0.889917
-0.150541
-0.959606
-0.167507
-1.02209
-0.175581
-1.07319
-0.178914
-1.11858
-0.177797
-1.15926
-0.16958
-1.18221
-0.157115
-1.2017
-0.140692
-1.21946
-0.122201
-1.23458
-0.103642
-1.25116
-0.086116
-1.26995
-0.0716251
-1.28657
-0.0608296
-1.30358
-0.049602
-1.32439
-0.04262
-1.34731
-0.0389705
-1.37066
-0.036135
-1.39563
-0.0334173
-1.41952
-0.0298424
-1.44257
-0.0238516
-1.46918
-0.0203502
-1.49219
-0.0151856
-1.50964
-0.00650958
-1.50812
-1.46977
-0.0251138
-0.576999
-0.0571061
-0.586917
-0.0863406
-0.639111
-0.117884
-0.69989
-0.150239
-0.769757
-0.182575
-0.83785
-0.208088
-0.905587
-0.225008
-0.968695
-0.233363
-1.02382
-0.237263
-1.07771
-0.23542
-1.12706
-0.22546
-1.15942
-0.210945
-1.18871
-0.191697
-1.21531
-0.169442
-1.23733
-0.14679
-1.25804
-0.125784
-1.27747
-0.106812
-1.29412
-0.0922904
-1.31384
-0.0793067
-1.33629
-0.0697217
-1.35861
-0.063327
-1.38259
-0.0580043
-1.40775
-0.052883
-1.43206
-0.0466041
-1.4561
-0.0404049
-1.4807
-0.032278
-1.50302
-0.0241289
-1.51725
-0.0117393
-1.50927
-1.45437
-0.0442652
-0.533016
-0.0791712
-0.54596
-0.114249
-0.595165
-0.149036
-0.652473
-0.185123
-0.717838
-0.219069
-0.783215
-0.246482
-0.849327
-0.264301
-0.912771
-0.274678
-0.971509
-0.281246
-1.03243
-0.280928
-1.08824
-0.272567
-1.12935
-0.258638
-1.16941
-0.23885
-1.20579
-0.214881
-1.23619
-0.189526
-1.26291
-0.165939
-1.28472
-0.144726
-1.30272
-0.126238
-1.32197
-0.111019
-1.35217
-0.0983957
-1.37115
-0.0881589
-1.39451
-0.0793449
-1.4198
-0.0713328
-1.44484
-0.0629455
-1.4694
-0.0547358
-1.49355
-0.0440548
-1.5102
-0.0326091
-1.52193
-0.0167393
-1.51172
-1.44643
-0.0454196
-0.486827
-0.0797163
-0.50504
-0.116038
-0.549713
-0.152686
-0.603658
-0.190082
-0.665376
-0.224949
-0.728484
-0.252253
-0.793469
-0.268719
-0.856333
-0.282071
-0.919252
-0.291985
-0.984578
-0.294152
-1.04556
-0.288781
-1.0941
-0.277611
-1.14407
-0.259552
-1.18924
-0.23624
-1.22876
-0.210595
-1.2625
-0.185496
-1.28946
-0.162056
-1.31142
-0.141241
-1.33298
-0.125274
-1.35934
-0.111119
-1.38154
-0.0984551
-1.40486
-0.088592
-1.42791
-0.0782797
-1.45439
-0.0692084
-1.47908
-0.0609371
-1.50203
-0.0489458
-1.51524
-0.0363967
-1.52521
-0.019898
-1.51098
-1.44434
-0.0435024
-0.441726
-0.0792007
-0.460827
-0.117148
-0.502381
-0.155396
-0.554581
-0.193286
-0.61319
-0.228071
-0.674559
-0.255042
-0.737969
-0.269814
-0.800917
-0.286508
-0.866942
-0.299302
-0.934896
-0.304043
-0.99974
-0.302271
-1.05447
-0.295157
-1.1123
-0.280291
-1.16521
-0.259021
-1.21379
-0.233904
-1.25635
-0.207417
-1.29172
-0.180834
-1.31947
-0.160626
-1.34023
-0.141926
-1.36929
-0.125566
-1.39268
-0.110815
-1.4129
-0.0987855
-1.43424
-0.0869668
-1.46088
-0.0773684
-1.48642
-0.0671182
-1.50852
-0.0539508
-1.51955
-0.0397936
-1.52759
-0.0218774
-1.51083
-1.44111
-0.0444274
-0.394922
-0.08135
-0.414005
-0.120096
-0.454234
-0.159627
-0.505503
-0.19743
-0.561789
-0.231813
-0.621918
-0.253173
-0.683443
-0.274061
-0.747882
-0.29104
-0.81462
-0.306046
-0.884886
-0.312984
-0.952807
-0.314141
-1.01303
-0.310402
-1.07698
-0.298899
-1.13707
-0.28097
-1.19434
-0.258244
-1.24612
-0.232408
-1.29075
-0.204566
-1.32603
-0.1783
-1.35193
-0.15831
-1.37906
-0.141018
-1.40126
-0.124587
-1.42167
-0.109467
-1.44417
-0.0971485
-1.46916
-0.0855245
-1.49413
-0.0738505
-1.51564
-0.0592532
-1.52534
-0.0427494
-1.53038
-0.0231641
-1.51071
-1.4384
-0.0451223
-0.348253
-0.0856361
-0.363171
-0.124595
-0.405581
-0.164844
-0.455893
-0.202408
-0.511287
-0.236268
-0.570677
-0.253766
-0.631349
-0.278017
-0.695991
-0.296097
-0.763359
-0.313023
-0.835009
-0.322208
-0.905466
-0.326073
-0.97063
-0.325652
-1.03877
-0.317683
-1.10453
-0.303572
-1.16882
-0.284046
-1.22911
-0.259738
-1.28273
-0.232367
-1.3271
-0.204021
-1.36202
-0.179321
-1.39097
-0.158083
-1.41276
-0.139451
-1.43287
-0.122618
-1.45535
-0.109093
-1.47979
-0.0954277
-1.50283
-0.0814239
-1.52336
-0.0648554
-1.53068
-0.0455472
-1.5323
-0.024403
-1.51081
-1.4615
-0.04901
-0.296892
-0.0885888
-0.312281
-0.12772
-0.355817
-0.167683
-0.406217
-0.205318
-0.4619
-0.238607
-0.5211
-0.255612
-0.581428
-0.279801
-0.645836
-0.298425
-0.714076
-0.317062
-0.786101
-0.328536
-0.857678
-0.334719
-0.927194
-0.33733
-0.99808
-0.332964
-1.06775
-0.32155
-1.13849
-0.305265
-1.20575
-0.28598
-1.2665
-0.260405
-1.32231
-0.231463
-1.36688
-0.202575
-1.40337
-0.177094
-1.42931
-0.155417
-1.4472
-0.136997
-1.46927
-0.121735
-1.49135
-0.105339
-1.51108
-0.0887427
-1.52987
-0.0699807
-1.53615
-0.0489764
-1.53568
-0.0278242
-1.51358
-1.45501
-0.0518762
-0.242423
-0.0907205
-0.261002
-0.128723
-0.305973
-0.167879
-0.35717
-0.205258
-0.413762
-0.237877
-0.473342
-0.255452
-0.53367
-0.277887
-0.597991
-0.297391
-0.66664
-0.317446
-0.737989
-0.331437
-0.809669
-0.339843
-0.882215
-0.34421
-0.955532
-0.342021
-1.02882
-0.336263
-1.10219
-0.326538
-1.17389
-0.309605
-1.2437
-0.286275
-1.30993
-0.258261
-1.36464
-0.228843
-1.41024
-0.198949
-1.44509
-0.172537
-1.4674
-0.15133
-1.48834
-0.132901
-1.50143
-0.113815
-1.51829
-0.0945416
-1.53398
-0.0721456
-1.54018
-0.0512147
-1.54022
-0.0294663
-1.51951
-1.45103
-0.0527848
-0.186784
-0.0914846
-0.210642
-0.127805
-0.256225
-0.165665
-0.309237
-0.202367
-0.367216
-0.234141
-0.427449
-0.254044
-0.488122
-0.273089
-0.552958
-0.29337
-0.620358
-0.313926
-0.690967
-0.329633
-0.761844
-0.338329
-0.838645
-0.345577
-0.911853
-0.348716
-0.985976
-0.347057
-1.06165
-0.340394
-1.13695
-0.327483
-1.21501
-0.307336
-1.2894
-0.280762
-1.35438
-0.252327
-1.40976
-0.222644
-1.45395
-0.194262
-1.48455
-0.168112
-1.5048
-0.142536
-1.51463
-0.121718
-1.52541
-0.100382
-1.53794
-0.074354
-1.54943
-0.0537402
-1.55127
-0.0265899
-1.52631
-1.45381
-0.0511701
-0.131777
-0.0899888
-0.159932
-0.12555
-0.206957
-0.161848
-0.262704
-0.1974
-0.322545
-0.228103
-0.383482
-0.251141
-0.444751
-0.266313
-0.509513
-0.286945
-0.576641
-0.307399
-0.646049
-0.320189
-0.718677
-0.33359
-0.792801
-0.344063
-0.866481
-0.350551
-0.941551
-0.35241
-1.01874
-0.34925
-1.09723
-0.340666
-1.18116
-0.324301
-1.26206
-0.300751
-1.33616
-0.272372
-1.40231
-0.24278
-1.45515
-0.214939
-1.49472
-0.185049
-1.52004
-0.155664
-1.52963
-0.130433
-1.53601
-0.106642
-1.54662
-0.0804803
-1.5611
-0.0525506
-1.56268
-0.0259525
-1.53455
-1.46435
-0.0507504
-0.0772039
-0.0894853
-0.109042
-0.123292
-0.15958
-0.157419
-0.218065
-0.191087
-0.280245
-0.220491
-0.341604
-0.243129
-0.403822
-0.261649
-0.468142
-0.278519
-0.535482
-0.2971
-0.604271
-0.313678
-0.675275
-0.328748
-0.74817
-0.340707
-0.821404
-0.348938
-0.89705
-0.35311
-0.974766
-0.353767
-1.05584
-0.34914
-1.1435
-0.336536
-1.22919
-0.31665
-1.31131
-0.29025
-1.38778
-0.259315
-1.4519
-0.22997
-1.49964
-0.198952
-1.53085
-0.168468
-1.54343
-0.139905
-1.5486
-0.112496
-1.55802
-0.0846395
-1.56889
-0.0559097
-1.57089
-0.0275064
-1.54396
-1.47408
-0.0504583
-0.0224141
-0.0870595
-0.0602862
-0.11996
-0.113776
-0.15264
-0.174876
-0.183477
-0.240681
-0.211385
-0.302039
-0.23343
-0.365326
-0.252093
-0.429459
-0.269322
-0.496206
-0.287541
-0.564724
-0.304753
-0.633464
-0.320968
-0.704505
-0.334225
-0.777508
-0.343779
-0.853258
-0.350258
-0.931259
-0.35425
-1.0135
-0.353244
-1.1032
-0.344587
-1.19216
-0.329143
-1.28067
-0.306541
-1.36619
-0.277175
-1.44109
-0.244852
-1.50143
-0.209795
-1.54105
-0.17688
-1.55673
-0.146127
-1.56204
-0.117255
-1.56929
-0.0892813
-1.57471
-0.0609045
-1.57721
-0.0307812
-1.55484
-1.48715
-0.0490986
0.0324767
-0.0840364
-0.0140463