/*--------------------------------*- C++ -*----------------------------------*\
| =========                 |                                                 |
| \\      /  F ield         | OpenFOAM: The Open Source CFD Toolbox           |
|  \\    /   O peration     | Version:  2112                                  |
|   \\  /    A nd           | Website:  www.openfoam.com                      |
|    \\/     M anipulation  |                                                 |
\*---------------------------------------------------------------------------*/
FoamFile
{
    version     2.0;
    format      ascii;
    arch        "LSB;label=32;scalar=64";
    class       volScalarField;
    location    "0.00022";
    object      alphat;
}
// * * * * * * * * * * * * * * * * * * * * * * * * * * * * * * * * * * * * * //

dimensions      [1 -1 -1 0 0 0 0];

internalField   nonuniform List<scalar> 
13875
(
0.120477
0.0825462
0.0765928
0.0749239
0.0746362
0.0743221
0.0741965
0.074123
0.0740906
0.0740765
0.074071
0.074078
0.0740692
0.0740713
0.0740664
0.0740641
0.0740756
0.074112
0.0741819
0.0743023
0.0746188
0.0748944
0.076527
0.0820347
0.12015
0.10343
0.0561899
0.0537214
0.0525738
0.0522942
0.0520981
0.0520104
0.0519645
0.0519489
0.0519453
0.051938
0.0519373
0.0519345
0.0519375
0.0519398
0.0519504
0.0519487
0.0519658
0.0520129
0.0520967
0.0522997
0.0525959
0.0537651
0.0563054
0.105423
0.115027
0.0543052
0.0527316
0.0520474
0.0520436
0.0520477
0.0520628
0.0520792
0.0520952
0.0521063
0.0521058
0.052105
0.0521055
0.0521076
0.0521081
0.0521145
0.0521004
0.0520878
0.0520755
0.052054
0.0520525
0.0520781
0.0527936
0.0543988
0.111597
0.123932
0.0565361
0.058207
0.0588539
0.0597176
0.0602955
0.0606551
0.0608614
0.0609606
0.061008
0.0610233
0.0610265
0.0610308
0.061031
0.0610254
0.0610167
0.0609677
0.0608723
0.0606763
0.0603106
0.0597168
0.0589146
0.0584004
0.0566079
0.122948
0.147
0.0711753
0.0799372
0.0834666
0.0865806
0.0885574
0.089769
0.090444
0.0907727
0.0909199
0.0909745
0.0909895
0.0909987
0.0909969
0.090977
0.0909297
0.090783
0.0904637
0.0898087
0.0885964
0.0865854
0.0836314
0.0800743
0.0715567
0.144364
0.181148
0.115948
0.139171
0.149364
0.157571
0.162651
0.165819
0.16758
0.168436
0.168809
0.168949
0.168988
0.169007
0.169004
0.168954
0.168821
0.168451
0.167617
0.1659
0.162745
0.157638
0.150014
0.139853
0.117178
0.183739
0.264914
0.230214
0.284008
0.311014
0.3277
0.338371
0.345313
0.349169
0.350983
0.351726
0.351978
0.352035
0.35206
0.352055
0.351956
0.351667
0.350843
0.348916
0.344913
0.337687
0.326479
0.310063
0.281934
0.229243
0.254798
0.371302
0.49249
0.635683
0.693956
0.719189
0.736272
0.748421
0.755557
0.758783
0.759907
0.760166
0.760157
0.760172
0.760212
0.760151
0.759842
0.758611
0.755249
0.748104
0.736015
0.719683
0.695402
0.640534
0.496782
0.370324
0.641853
1.19134
1.57132
1.65297
1.63498
1.62741
1.63415
1.64226
1.64574
1.64601
1.64542
1.64494
1.64482
1.64507
1.64545
1.646
1.64562
1.64211
1.63484
1.63029
1.6427
1.66968
1.61656
1.2517
0.660841
1.45358
3.63094
3.94407
3.64912
3.3669
3.2087
3.15489
3.14717
3.14728
3.14452
3.14216
3.14113
3.14094
3.14201
3.14377
3.14706
3.15051
3.15158
3.16257
3.22383
3.40025
3.7223
4.10533
3.86488
1.47539
3.14748
10.3445
10.5338
8.76046
7.45917
6.70643
6.34909
6.21236
6.16366
6.13847
6.12406
6.11768
6.115
6.1168
6.12214
6.13536
6.15991
6.20775
6.34478
6.70446
7.47361
8.82433
10.7067
11.0291
3.09227
3.26462
18.2543
23.5743
20.4075
16.4904
13.9245
12.6031
11.9764
11.6857
11.5494
11.4889
11.4637
11.4547
11.4607
11.4822
11.5381
11.6697
11.957
12.583
13.9112
16.5131
20.5249
23.8107
18.1354
3.21047
3.17488
19.2237
29.4283
30.5322
25.9939
20.7773
17.6572
16.1707
15.5025
15.206
15.0783
15.028
15.0126
15.0264
15.0746
15.1996
15.4923
16.1547
17.6328
20.7211
25.8799
30.3038
29.3857
19.2636
3.10481
2.90926
18.4974
29.9739
34.1703
31.8493
26.0717
21.8208
19.5207
18.4229
17.9257
17.7097
17.6241
17.599
17.6283
17.7234
17.956
18.4861
19.656
22.1071
26.5608
31.8806
33.8032
28.8976
17.6499
2.98813
2.71846
16.4615
28.1107
33.669
32.7798
29.2298
24.7672
21.8227
20.323
19.6234
19.3094
19.1789
19.1395
19.1761
19.2988
19.6015
20.2873
21.759
24.6393
29.0709
32.8543
33.501
27.903
16.4694
2.67124
2.23991
15.2321
26.1263
32.1656
32.3128
29.3256
25.3952
22.512
20.9281
20.1677
19.8328
19.6964
19.6544
19.6912
19.8165
20.1385
20.8737
22.4132
25.2423
29.2637
32.4504
32.3223
26.7828
16.0518
2.253
1.66984
11.237
20.8229
27.6031
29.3383
27.356
24.247
21.6709
20.1043
19.3519
18.9964
18.8438
18.7987
18.8411
18.9867
19.3252
20.0593
21.6245
24.1994
27.3897
29.5504
27.8079
21.4413
11.4638
1.735
1.00208
6.93825
14.1814
19.84
23.1319
23.0562
21.1971
19.1816
17.7886
17.001
16.5962
16.4221
16.3754
16.4293
16.6151
17.0277
17.8242
19.186
21.115
23.0289
23.1453
20.0112
14.0405
6.61123
0.954675
0.402167
2.58617
6.35273
10.041
14.2184
16.1518
16.383
15.1477
13.8873
13.0661
12.6103
12.3994
12.3356
12.3825
12.5734
12.9948
13.7722
14.9478
16.2577
16.2208
14.5049
10.2817
6.5003
2.6651
0.414682
0.219624
1.15519
3.0806
5.03
6.74947
8.38731
9.52728
9.36571
7.88953
6.96755
6.49376
6.28589
6.2263
6.27334
6.46365
6.90597
7.77535
9.2262
9.48322
8.45047
6.81483
5.11752
3.117
1.16286
0.219347
0.229382
0.669613
1.46655
2.25751
2.8399
3.1473
3.11467
2.70261
2.17014
1.85432
1.70849
1.64969
1.6337
1.64743
1.70249
1.83984
2.14056
2.66023
3.09985
3.1495
2.85
2.27146
1.46293
0.659206
0.223019
0.0911069
0.11485
0.280728
0.430997
0.51453
0.500135
0.39973
0.252097
0.15655
0.119863
0.106472
0.101625
0.100349
0.101441
0.105952
0.118366
0.152384
0.241421
0.387371
0.495639
0.510517
0.42626
0.275183
0.110557
0.0891527
0.0313052
0.0548253
0.042728
0.0429682
0.0452897
0.0496543
0.0630602
0.103679
0.159316
0.191522
0.205149
0.210348
0.211755
0.210598
0.205809
0.193192
0.162913
0.108491
0.0651048
0.0500248
0.0454505
0.0431278
0.0433097
0.0570246
0.0315519
0.0329225
0.16861
0.259655
0.281382
0.28622
0.291698
0.296693
0.299803
0.300991
0.30136
0.301474
0.301509
0.301518
0.301511
0.301478
0.301371
0.301024
0.299922
0.296985
0.292039
0.286752
0.282002
0.260088
0.168643
0.0328152
0.0348226
0.176841
0.270198
0.293526
0.297886
0.29977
0.300877
0.301468
0.301711
0.301791
0.301812
0.301816
0.301817
0.301816
0.301811
0.30179
0.30171
0.301465
0.300872
0.299761
0.297874
0.293467
0.269914
0.176309
0.0347561
0.036972
0.183947
0.274226
0.295028
0.298721
0.300306
0.301183
0.301604
0.301759
0.301804
0.301815
0.301817
0.301817
0.301817
0.301815
0.301804
0.30176
0.301606
0.30119
0.300317
0.298733
0.295098
0.274659
0.184898
0.0371884
0.0392601
0.191986
0.278191
0.296253
0.299331
0.300685
0.30138
0.301683
0.301784
0.30181
0.301816
0.301817
0.301817
0.301817
0.301816
0.30181
0.301784
0.301682
0.301376
0.300676
0.299323
0.296203
0.277811
0.191025
0.0389531
0.0409593
0.197735
0.280898
0.297138
0.299794
0.300949
0.301506
0.30173
0.301798
0.301813
0.301817
0.301817
0.301817
0.301817
0.301817
0.301813
0.301797
0.301728
0.301501
0.300938
0.299776
0.297095
0.280757
0.197444
0.0410507
0.0428331
0.202852
0.283122
0.297817
0.300144
0.301136
0.301588
0.301757
0.301805
0.301815
0.301817
0.301817
0.301817
0.301817
0.301817
0.301815
0.301805
0.301759
0.301594
0.301151
0.300167
0.297905
0.28369
0.204483
0.0431649
0.0450934
0.210082
0.285874
0.29852
0.300468
0.301303
0.301655
0.301778
0.30181
0.301816
0.301817
0.301817
0.301817
0.301817
0.301817
0.301816
0.301809
0.301778
0.301655
0.3013
0.300469
0.298485
0.285501
0.20882
0.0446668
0.0464917
0.21474
0.287652
0.299049
0.300729
0.301424
0.301702
0.301791
0.301812
0.301816
0.301817
0.301817
0.301817
0.301817
0.301817
0.301816
0.301812
0.30179
0.301699
0.301418
0.300718
0.29903
0.287596
0.21459
0.0466552
0.0479075
0.218028
0.288891
0.299411
0.300912
0.301503
0.301729
0.301798
0.301814
0.301817
0.301817
0.301817
0.301817
0.301817
0.301817
0.301817
0.301814
0.301799
0.301731
0.301509
0.300924
0.299467
0.289211
0.219205
0.048116
0.0497063
0.223198
0.290504
0.299797
0.30107
0.301571
0.301752
0.301804
0.301815
0.301817
0.301817
0.301817
0.301817
0.301817
0.301817
0.301817
0.301815
0.301804
0.301752
0.301571
0.301074
0.299775
0.290329
0.222409
0.0494517
0.0508352
0.226605
0.291582
0.30007
0.301197
0.301621
0.301768
0.301808
0.301816
0.301817
0.301817
0.301817
0.301817
0.301817
0.301817
0.301817
0.301816
0.301808
0.301767
0.301621
0.301198
0.300078
0.291602
0.226664
0.0509842
0.0519323
0.228732
0.29228
0.300264
0.301287
0.301654
0.301778
0.30181
0.301816
0.301817
0.301817
0.301817
0.301817
0.301817
0.301817
0.301817
0.301816
0.30181
0.301779
0.301659
0.301297
0.300303
0.292513
0.229706
0.0520647
0.0533719
0.232562
0.29331
0.300487
0.30137
0.301685
0.301786
0.301812
0.301816
0.301817
0.301817
0.301817
0.301817
0.301817
0.301817
0.301817
0.301816
0.301812
0.301786
0.301684
0.301369
0.300464
0.29313
0.231715
0.0531347
0.0542841
0.235083
0.293998
0.300648
0.301439
0.301709
0.301793
0.301813
0.301817
0.301817
0.301817
0.301817
0.301817
0.301817
0.301817
0.301817
0.301817
0.301813
0.301793
0.301708
0.301436
0.300647
0.293989
0.235028
0.0543974
0.055155
0.236518
0.294436
0.300767
0.30149
0.301726
0.301797
0.301814
0.301817
0.301817
0.301817
0.301817
0.301817
0.301817
0.301817
0.301817
0.301817
0.301814
0.301798
0.301728
0.301494
0.300789
0.294607
0.237378
0.055258
0.0562717
0.2394
0.295137
0.300909
0.301538
0.301742
0.301801
0.301815
0.301817
0.301817
0.301817
0.301817
0.301817
0.301817
0.301817
0.301817
0.301817
0.301815
0.301801
0.301741
0.301537
0.300889
0.294983
0.238628
0.0560782
0.0569814
0.241271
0.295602
0.301013
0.30158
0.301755
0.301804
0.301815
0.301817
0.301817
0.301817
0.301817
0.301817
0.301817
0.301817
0.301817
0.301817
0.301815
0.301804
0.301754
0.301577
0.301012
0.295589
0.241172
0.0570667
0.0576431
0.242179
0.295882
0.30109
0.301611
0.301764
0.301806
0.301816
0.301817
0.301817
0.301817
0.301817
0.301817
0.301817
0.301817
0.301817
0.301817
0.301816
0.301807
0.301765
0.301614
0.301107
0.296023
0.24297
0.0577254
0.0584734
0.244346
0.296376
0.301187
0.301641
0.301773
0.301808
0.301816
0.301817
0.301817
0.301817
0.301817
0.301817
0.301817
0.301817
0.301817
0.301817
0.301816
0.301808
0.301773
0.301641
0.301173
0.296259
0.24371
0.058334
0.0589958
0.245728
0.2967
0.301257
0.301668
0.301781
0.30181
0.301816
0.301817
0.301817
0.301817
0.301817
0.301817
0.301817
0.301817
0.301817
0.301817
0.301816
0.30181
0.30178
0.301667
0.301256
0.296685
0.245583
0.0590507
0.0594693
0.246241
0.296881
0.30131
0.301689
0.301786
0.301811
0.301816
0.301817
0.301817
0.301817
0.301817
0.301817
0.301817
0.301817
0.301817
0.301817
0.301816
0.301811
0.301787
0.301691
0.301322
0.296993
0.246931
0.0595293
0.0600426
0.247834
0.297233
0.301378
0.301709
0.301791
0.301812
0.301817
0.301817
0.301817
0.301817
0.301817
0.301817
0.301817
0.301817
0.301817
0.301817
0.301817
0.301812
0.301792
0.301709
0.301368
0.297154
0.247376
0.0599577
0.0603952
0.248829
0.297462
0.301427
0.301727
0.301796
0.301813
0.301817
0.301817
0.301817
0.301817
0.301817
0.301817
0.301817
0.301817
0.301817
0.301817
0.301817
0.301813
0.301796
0.301726
0.301426
0.29744
0.248644
0.0604213
0.0607001
0.249029
0.297572
0.301462
0.301742
0.3018
0.301814
0.301817
0.301817
0.301817
0.301817
0.301817
0.301817
0.301817
0.301817
0.301817
0.301817
0.301817
0.301814
0.3018
0.301742
0.30147
0.297654
0.249604
0.0607365
0.0610286
0.250066
0.297792
0.301496
0.301752
0.301803
0.301815
0.301817
0.301817
0.301817
0.301817
0.301817
0.301817
0.301817
0.301817
0.301817
0.301817
0.301817
0.301815
0.301803
0.301752
0.301486
0.29774
0.249784
0.0609856
0.0611982
0.250659
0.297871
0.301482
0.301751
0.301802
0.301815
0.301817
0.301817
0.301817
0.301817
0.301817
0.301817
0.301817
0.301817
0.301817
0.301817
0.301817
0.301815
0.301802
0.301749
0.301476
0.297839
0.250441
0.0612027
0.0614876
0.251875
0.297997
0.301439
0.301741
0.301799
0.301814
0.301817
0.301817
0.301817
0.301817
0.301817
0.301817
0.301817
0.301817
0.301817
0.301817
0.301817
0.301814
0.301798
0.30174
0.301439
0.298016
0.252039
0.0614991
0.134295
0.291741
0.302865
0.302713
0.302598
0.302569
0.302556
0.302544
0.302533
0.302522
0.302512
0.302502
0.302491
0.302482
0.302472
0.302462
0.302453
0.302444
0.302435
0.302426
0.302418
0.302409
0.302401
0.302393
0.302385
0.302377
0.302369
0.30231
0.298028
0.150647
0.125836
0.294558
0.302385
0.302026
0.301913
0.301894
0.30189
0.301887
0.301885
0.301883
0.301881
0.301879
0.301877
0.301875
0.301874
0.301872
0.30187
0.301869
0.301867
0.301866
0.301865
0.301863
0.301862
0.301861
0.301859
0.301858
0.301856
0.301789
0.296775
0.148304
0.132127
0.29658
0.302337
0.301936
0.301837
0.301823
0.301822
0.301821
0.301821
0.301821
0.301821
0.301821
0.301821
0.30182
0.30182
0.30182
0.30182
0.30182
0.30182
0.30182
0.30182
0.301819
0.301819
0.301819
0.301819
0.301819
0.301818
0.30175
0.296579
0.146792
0.135793
0.296511
0.302307
0.301916
0.301829
0.301818
0.301817
0.301817
0.301817
0.301817
0.301817
0.301817
0.301817
0.301817
0.301817
0.301817
0.301817
0.301817
0.301817
0.301817
0.301817
0.301817
0.301817
0.301817
0.301817
0.301817
0.301817
0.301747
0.296462
0.145535
0.135582
0.296046
0.302238
0.301903
0.301828
0.301818
0.301817
0.301817
0.301817
0.301817
0.301817
0.301817
0.301817
0.301817
0.301817
0.301817
0.301817
0.301817
0.301817
0.301817
0.301817
0.301817
0.301817
0.301817
0.301817
0.301817
0.301817
0.301745
0.296335
0.144397
0.135028
0.29591
0.302201
0.301897
0.301827
0.301818
0.301817
0.301817
0.301817
0.301817
0.301817
0.301817
0.301817
0.301817
0.301817
0.301817
0.301817
0.301817
0.301817
0.301817
0.301817
0.301817
0.301817
0.301817
0.301817
0.301817
0.301817
0.301742
0.296204
0.143309
0.13489
0.295913
0.302171
0.301891
0.301826
0.301818
0.301817
0.301817
0.301817
0.301817
0.301817
0.301817
0.301817
0.301817
0.301817
0.301817
0.301817
0.301817
0.301817
0.301817
0.301817
0.301817
0.301817
0.301817
0.301817
0.301817
0.301816
0.30174
0.296077
0.142279
0.135155
0.295937
0.302138
0.301884
0.301825
0.301818
0.301817
0.301817
0.301817
0.301817
0.301817
0.301817
0.301817
0.301817
0.301817
0.301817
0.301817
0.301817
0.301817
0.301817
0.301817
0.301817
0.301817
0.301817
0.301817
0.301817
0.301816
0.301737
0.29596
0.141327
0.135425
0.295911
0.302102
0.301876
0.301824
0.301818
0.301817
0.301817
0.301817
0.301817
0.301817
0.301817
0.301817
0.301817
0.301817
0.301817
0.301817
0.301817
0.301817
0.301817
0.301817
0.301817
0.301817
0.301817
0.301817
0.301817
0.301816
0.301735
0.295854
0.140461
0.13555
0.29585
0.302068
0.301869
0.301823
0.301818
0.301817
0.301817
0.301817
0.301817
0.301817
0.301817
0.301817
0.301817
0.301817
0.301817
0.301817
0.301817
0.301817
0.301817
0.301817
0.301817
0.301817
0.301817
0.301817
0.301817
0.301816
0.301733
0.295757
0.139678
0.135516
0.295773
0.302037
0.301864
0.301822
0.301818
0.301817
0.301817
0.301817
0.301817
0.301817
0.301817
0.301817
0.301817
0.301817
0.301817
0.301817
0.301817
0.301817
0.301817
0.301817
0.301817
0.301817
0.301817
0.301817
0.301817
0.301816
0.301731
0.295667
0.138969
0.135387
0.295698
0.30201
0.301859
0.301822
0.301818
0.301817
0.301817
0.301817
0.301817
0.301817
0.301817
0.301817
0.301817
0.301817
0.301817
0.301817
0.301817
0.301817
0.301817
0.301817
0.301817
0.301817
0.301817
0.301817
0.301817
0.301816
0.301729
0.295582
0.138322
0.135244
0.29563
0.301984
0.301855
0.301821
0.301818
0.301817
0.301817
0.301817
0.301817
0.301817
0.301817
0.301817
0.301817
0.301817
0.301817
0.301817
0.301817
0.301817
0.301817
0.301817
0.301817
0.301817
0.301817
0.301817
0.301817
0.301816
0.301728
0.295505
0.137733
0.135063
0.295571
0.30196
0.301851
0.301821
0.301817
0.301817
0.301817
0.301817
0.301817
0.301817
0.301817
0.301817
0.301817
0.301817
0.301817
0.301817
0.301817
0.301817
0.301817
0.301817
0.301817
0.301817
0.301817
0.301817
0.301817
0.301816
0.301726
0.295432
0.137196
0.13498
0.295519
0.301937
0.301847
0.30182
0.301817
0.301817
0.301817
0.301817
0.301817
0.301817
0.301817
0.301817
0.301817
0.301817
0.301817
0.301817
0.301817
0.301817
0.301817
0.301817
0.301817
0.301817
0.301817
0.301817
0.301817
0.301816
0.301725
0.295368
0.136712
0.134816
0.295454
0.301915
0.301843
0.30182
0.301817
0.301817
0.301817
0.301817
0.301817
0.301817
0.301817
0.301817
0.301817
0.301817
0.301817
0.301817
0.301817
0.301817
0.301817
0.301817
0.301817
0.301817
0.301817
0.301817
0.301817
0.301816
0.301723
0.295309
0.136278
0.134695
0.295407
0.301893
0.30184
0.30182
0.301817
0.301817
0.301817
0.301817
0.301817
0.301817
0.301817
0.301817
0.301817
0.301817
0.301817
0.301817
0.301817
0.301817
0.301817
0.301817
0.301817
0.301817
0.301817
0.301817
0.301817
0.301816
0.301722
0.295256
0.13589
0.134612
0.295359
0.301872
0.301837
0.301819
0.301817
0.301817
0.301817
0.301817
0.301817
0.301817
0.301817
0.301817
0.301817
0.301817
0.301817
0.301817
0.301817
0.301817
0.301817
0.301817
0.301817
0.301817
0.301817
0.301817
0.301817
0.301816
0.301721
0.29521
0.135549
0.134493
0.29531
0.301852
0.301834
0.301819
0.301817
0.301817
0.301817
0.301817
0.301817
0.301817
0.301817
0.301817
0.301817
0.301817
0.301817
0.301817
0.301817
0.301817
0.301817
0.301817
0.301817
0.301817
0.301817
0.301817
0.301817
0.301816
0.30172
0.29517
0.135251
0.134427
0.295273
0.301833
0.301831
0.301819
0.301817
0.301817
0.301817
0.301817
0.301817
0.301817
0.301817
0.301817
0.301817
0.301817
0.301817
0.301817
0.301817
0.301817
0.301817
0.301817
0.301817
0.301817
0.301817
0.301817
0.301817
0.301816
0.301719
0.295136
0.134993
0.13437
0.295233
0.301815
0.301828
0.301818
0.301817
0.301817
0.301817
0.301817
0.301817
0.301817
0.301817
0.301817
0.301817
0.301817
0.301817
0.301817
0.301817
0.301817
0.301817
0.301817
0.301817
0.301817
0.301817
0.301817
0.301817
0.301816
0.301719
0.295107
0.134775
0.134306
0.295196
0.301797
0.301826
0.301818
0.301817
0.301817
0.301817
0.301817
0.301817
0.301817
0.301817
0.301817
0.301817
0.301817
0.301817
0.301817
0.301817
0.301817
0.301817
0.301817
0.301817
0.301817
0.301817
0.301817
0.301817
0.301816
0.301718
0.295083
0.134594
0.134284
0.295146
0.301777
0.301823
0.301818
0.301817
0.301817
0.301817
0.301817
0.301817
0.301817
0.301817
0.301817
0.301817
0.301817
0.301817
0.301817
0.301817
0.301817
0.301817
0.301817
0.301817
0.301817
0.301817
0.301817
0.301817
0.301816
0.301718
0.295066
0.134448
0.134226
0.29506
0.301747
0.301818
0.301817
0.301817
0.301817
0.301817
0.301817
0.301817
0.301817
0.301817
0.301817
0.301817
0.301817
0.301817
0.301817
0.301817
0.301817
0.301817
0.301817
0.301817
0.301817
0.301817
0.301817
0.301817
0.301816
0.301717
0.295052
0.134336
0.13428
0.295546
0.301717
0.301809
0.301817
0.301817
0.301817
0.301817
0.301817
0.301817
0.301817
0.301817
0.301817
0.301817
0.301817
0.301817
0.301817
0.301817
0.301817
0.301817
0.301817
0.301817
0.301817
0.301817
0.301817
0.301817
0.301816
0.301717
0.295046
0.134253
0.150646
0.298027
0.30231
0.302369
0.302377
0.302385
0.302393
0.302401
0.302409
0.302418
0.302426
0.302435
0.302444
0.302453
0.302463
0.302472
0.302482
0.302492
0.302502
0.302512
0.302523
0.302533
0.302544
0.302556
0.302569
0.302598
0.302714
0.302865
0.291732
0.134258
0.148303
0.296775
0.301789
0.301856
0.301858
0.301859
0.301861
0.301862
0.301863
0.301865
0.301866
0.301867
0.301869
0.30187
0.301872
0.301874
0.301875
0.301877
0.301879
0.301881
0.301883
0.301885
0.301887
0.30189
0.301894
0.301913
0.302026
0.302385
0.294559
0.125853
0.146789
0.296579
0.30175
0.301818
0.301819
0.301819
0.301819
0.301819
0.301819
0.30182
0.30182
0.30182
0.30182
0.30182
0.30182
0.30182
0.30182
0.301821
0.301821
0.301821
0.301821
0.301821
0.301821
0.301822
0.301823
0.301837
0.301935
0.302337
0.296578
0.132095
0.145535
0.296462
0.301747
0.301817
0.301817
0.301817
0.301817
0.301817
0.301817
0.301817
0.301817
0.301817
0.301817
0.301817
0.301817
0.301817
0.301817
0.301817
0.301817
0.301817
0.301817
0.301817
0.301817
0.301817
0.301818
0.301829
0.301916
0.302307
0.296521
0.135839
0.144397
0.296335
0.301745
0.301817
0.301817
0.301817
0.301817
0.301817
0.301817
0.301817
0.301817
0.301817
0.301817
0.301817
0.301817
0.301817
0.301817
0.301817
0.301817
0.301817
0.301817
0.301817
0.301817
0.301817
0.301818
0.301828
0.301903
0.302238
0.29604
0.1356
0.143308
0.296203
0.301742
0.301817
0.301817
0.301817
0.301817
0.301817
0.301817
0.301817
0.301817
0.301817
0.301817
0.301817
0.301817
0.301817
0.301817
0.301817
0.301817
0.301817
0.301817
0.301817
0.301817
0.301817
0.301818
0.301827
0.301897
0.3022
0.295907
0.134961
0.14228
0.296078
0.30174
0.301816
0.301817
0.301817
0.301817
0.301817
0.301817
0.301817
0.301817
0.301817
0.301817
0.301817
0.301817
0.301817
0.301817
0.301817
0.301817
0.301817
0.301817
0.301817
0.301817
0.301817
0.301818
0.301826
0.301891
0.302171
0.295925
0.134978
0.141327
0.29596
0.301737
0.301816
0.301817
0.301817
0.301817
0.301817
0.301817
0.301817
0.301817
0.301817
0.301817
0.301817
0.301817
0.301817
0.301817
0.301817
0.301817
0.301817
0.301817
0.301817
0.301817
0.301817
0.301818
0.301825
0.301884
0.302138
0.295925
0.135107
0.140461
0.295854
0.301735
0.301816
0.301817
0.301817
0.301817
0.301817
0.301817
0.301817
0.301817
0.301817
0.301817
0.301817
0.301817
0.301817
0.301817
0.301817
0.301817
0.301817
0.301817
0.301817
0.301817
0.301817
0.301818
0.301824
0.301876
0.302102
0.295918
0.135432
0.139679
0.295757
0.301733
0.301816
0.301817
0.301817
0.301817
0.301817
0.301817
0.301817
0.301817
0.301817
0.301817
0.301817
0.301817
0.301817
0.301817
0.301817
0.301817
0.301817
0.301817
0.301817
0.301817
0.301817
0.301818
0.301823
0.30187
0.302068
0.295849
0.135572
0.138968
0.295666
0.301731
0.301816
0.301817
0.301817
0.301817
0.301817
0.301817
0.301817
0.301817
0.301817
0.301817
0.301817
0.301817
0.301817
0.301817
0.301817
0.301817
0.301817
0.301817
0.301817
0.301817
0.301817
0.301818
0.301822
0.301864
0.302037
0.295768
0.135467
0.138322
0.295583
0.301729
0.301816
0.301817
0.301817
0.301817
0.301817
0.301817
0.301817
0.301817
0.301817
0.301817
0.301817
0.301817
0.301817
0.301817
0.301817
0.301817
0.301817
0.301817
0.301817
0.301817
0.301817
0.301818
0.301822
0.301859
0.30201
0.295706
0.135427
0.137734
0.295505
0.301728
0.301816
0.301817
0.301817
0.301817
0.301817
0.301817
0.301817
0.301817
0.301817
0.301817
0.301817
0.301817
0.301817
0.301817
0.301817
0.301817
0.301817
0.301817
0.301817
0.301817
0.301817
0.301818
0.301821
0.301855
0.301984
0.295627
0.135238
0.137196
0.295432
0.301726
0.301816
0.301817
0.301817
0.301817
0.301817
0.301817
0.301817
0.301817
0.301817
0.301817
0.301817
0.301817
0.301817
0.301817
0.301817
0.301817
0.301817
0.301817
0.301817
0.301817
0.301817
0.301817
0.301821
0.301851
0.30196
0.295569
0.135057
0.136712
0.295368
0.301725
0.301816
0.301817
0.301817
0.301817
0.301817
0.301817
0.301817
0.301817
0.301817
0.301817
0.301817
0.301817
0.301817
0.301817
0.301817
0.301817
0.301817
0.301817
0.301817
0.301817
0.301817
0.301817
0.30182
0.301847
0.301937
0.295521
0.134977
0.136279
0.295309
0.301723
0.301816
0.301817
0.301817
0.301817
0.301817
0.301817
0.301817
0.301817
0.301817
0.301817
0.301817
0.301817
0.301817
0.301817
0.301817
0.301817
0.301817
0.301817
0.301817
0.301817
0.301817
0.301817
0.30182
0.301843
0.301915
0.295455
0.134829
0.13589
0.295256
0.301722
0.301816
0.301817
0.301817
0.301817
0.301817
0.301817
0.301817
0.301817
0.301817
0.301817
0.301817
0.301817
0.301817
0.301817
0.301817
0.301817
0.301817
0.301817
0.301817
0.301817
0.301817
0.301817
0.30182
0.30184
0.301893
0.295404
0.134683
0.135548
0.29521
0.301721
0.301816
0.301817
0.301817
0.301817
0.301817
0.301817
0.301817
0.301817
0.301817
0.301817
0.301817
0.301817
0.301817
0.301817
0.301817
0.301817
0.301817
0.301817
0.301817
0.301817
0.301817
0.301817
0.301819
0.301837
0.301872
0.295362
0.134609
0.135251
0.29517
0.30172
0.301816
0.301817
0.301817
0.301817
0.301817
0.301817
0.301817
0.301817
0.301817
0.301817
0.301817
0.301817
0.301817
0.301817
0.301817
0.301817
0.301817
0.301817
0.301817
0.301817
0.301817
0.301817
0.301819
0.301834
0.301852
0.29531
0.13451
0.134993
0.295135
0.301719
0.301816
0.301817
0.301817
0.301817
0.301817
0.301817
0.301817
0.301817
0.301817
0.301817
0.301817
0.301817
0.301817
0.301817
0.301817
0.301817
0.301817
0.301817
0.301817
0.301817
0.301817
0.301817
0.301819
0.301831
0.301833
0.295269
0.134413
0.134775
0.295107
0.301719
0.301816
0.301817
0.301817
0.301817
0.301817
0.301817
0.301817
0.301817
0.301817
0.301817
0.301817
0.301817
0.301817
0.301817
0.301817
0.301817
0.301817
0.301817
0.301817
0.301817
0.301817
0.301817
0.301818
0.301828
0.301815
0.295237
0.134368
0.134595
0.295084
0.301718
0.301816
0.301817
0.301817
0.301817
0.301817
0.301817
0.301817
0.301817
0.301817
0.301817
0.301817
0.301817
0.301817
0.301817
0.301817
0.301817
0.301817
0.301817
0.301817
0.301817
0.301817
0.301817
0.301818
0.301826
0.301797
0.295197
0.134323
0.134448
0.295065
0.301718
0.301816
0.301817
0.301817
0.301817
0.301817
0.301817
0.301817
0.301817
0.301817
0.301817
0.301817
0.301817
0.301817
0.301817
0.301817
0.301817
0.301817
0.301817
0.301817
0.301817
0.301817
0.301817
0.301818
0.301823
0.301776
0.295142
0.134269
0.134335
0.295052
0.301717
0.301816
0.301817
0.301817
0.301817
0.301817
0.301817
0.301817
0.301817
0.301817
0.301817
0.301817
0.301817
0.301817
0.301817
0.301817
0.301817
0.301817
0.301817
0.301817
0.301817
0.301817
0.301817
0.301817
0.301818
0.301747
0.295062
0.134227
0.134252
0.295046
0.301717
0.301816
0.301817
0.301817
0.301817
0.301817
0.301817
0.301817
0.301817
0.301817
0.301817
0.301817
0.301817
0.301817
0.301817
0.301817
0.301817
0.301817
0.301817
0.301817
0.301817
0.301817
0.301817
0.301817
0.301809
0.301717
0.295546
0.134282
0.108289
0.108498
0.108707
0.108916
0.109125
0.109334
0.109543
0.109752
0.109961
0.11017
0.110379
0.110588
0.110797
0.111006
0.111215
0.111424
0.111634
0.111843
0.112052
0.112261
0.11247
0.112679
0.112888
0.113097
0.113306
0.113515
0.113725
0.113934
0.114143
0.114352
0.114561
0.11477
0.114979
0.115189
0.115398
0.115607
0.115816
0.116025
0.116234
0.116444
0.116653
0.116862
0.117071
0.11728
0.11749
0.117699
0.117908
0.118117
0.118326
0.118536
0.118745
0.118954
0.119163
0.119373
0.119582
0.119791
0.12
0.12021
0.120419
0.120628
0.120837
0.121047
0.121256
0.121465
0.121675
0.121884
0.122093
0.122302
0.122512
0.122721
0.12293
0.12314
0.123349
0.123558
0.123768
0.123977
0.124186
0.124396
0.124605
0.124814
0.125024
0.125233
0.125442
0.125652
0.125861
0.12607
0.12628
0.126489
0.126698
0.126908
0.127117
0.127327
0.127536
0.127745
0.127955
0.128164
0.128374
0.128583
0.128792
0.129002
0.129211
0.129421
0.12963
0.129839
0.130049
0.130258
0.130468
0.130677
0.130887
0.131096
0.131305
0.131515
0.131724
0.131934
0.132143
0.132353
0.132562
0.132772
0.132981
0.13319
0.1334
0.133609
0.133819
0.134028
0.134237
0.288928
0.289022
0.289092
0.28916
0.289228
0.289295
0.289363
0.289429
0.289496
0.289561
0.289627
0.289692
0.289757
0.289821
0.289885
0.289948
0.290011
0.290074
0.290136
0.290198
0.29026
0.290321
0.290381
0.290442
0.290502
0.290561
0.290621
0.29068
0.290738
0.290796
0.290854
0.290912
0.290969
0.291026
0.291082
0.291138
0.291194
0.291249
0.291304
0.291359
0.291414
0.291468
0.291521
0.291575
0.291628
0.291681
0.291733
0.291785
0.291837
0.291889
0.29194
0.291991
0.292042
0.292092
0.292142
0.292192
0.292241
0.29229
0.292339
0.292388
0.292436
0.292484
0.292532
0.292579
0.292626
0.292673
0.292719
0.292766
0.292812
0.292858
0.292903
0.292948
0.292993
0.293038
0.293082
0.293127
0.293171
0.293214
0.293258
0.293301
0.293344
0.293386
0.293429
0.293471
0.293513
0.293555
0.293596
0.293637
0.293678
0.293719
0.29376
0.2938
0.29384
0.29388
0.293919
0.293959
0.293998
0.294037
0.294075
0.294114
0.294152
0.29419
0.294228
0.294266
0.294303
0.29434
0.294377
0.294414
0.29445
0.294487
0.294523
0.294559
0.294595
0.29463
0.294666
0.294701
0.294736
0.29477
0.294805
0.294839
0.294874
0.294908
0.294941
0.294975
0.295016
0.301525
0.301529
0.301532
0.301535
0.301537
0.30154
0.301542
0.301545
0.301547
0.30155
0.301552
0.301554
0.301557
0.301559
0.301561
0.301564
0.301566
0.301568
0.30157
0.301573
0.301575
0.301577
0.301579
0.301581
0.301583
0.301585
0.301588
0.30159
0.301592
0.301594
0.301596
0.301597
0.301599
0.301601
0.301603
0.301605
0.301607
0.301609
0.301611
0.301612
0.301614
0.301616
0.301618
0.301619
0.301621
0.301623
0.301625
0.301626
0.301628
0.301629
0.301631
0.301633
0.301634
0.301636
0.301637
0.301639
0.30164
0.301642
0.301643
0.301645
0.301646
0.301648
0.301649
0.301651
0.301652
0.301654
0.301655
0.301656
0.301658
0.301659
0.30166
0.301662
0.301663
0.301664
0.301665
0.301667
0.301668
0.301669
0.30167
0.301672
0.301673
0.301674
0.301675
0.301676
0.301678
0.301679
0.30168
0.301681
0.301682
0.301683
0.301684
0.301686
0.301687
0.301688
0.301689
0.30169
0.301691
0.301692
0.301693
0.301694
0.301695
0.301696
0.301697
0.301698
0.301699
0.3017
0.301701
0.301702
0.301703
0.301704
0.301704
0.301705
0.301706
0.301707
0.301708
0.301709
0.30171
0.301711
0.301711
0.301712
0.301713
0.301714
0.301715
0.301716
0.301717
0.301813
0.301813
0.301813
0.301813
0.301813
0.301813
0.301813
0.301813
0.301813
0.301813
0.301813
0.301813
0.301813
0.301814
0.301814
0.301814
0.301814
0.301814
0.301814
0.301814
0.301814
0.301814
0.301814
0.301814
0.301814
0.301814
0.301814
0.301814
0.301814
0.301814
0.301814
0.301814
0.301814
0.301814
0.301814
0.301814
0.301814
0.301814
0.301815
0.301815
0.301815
0.301815
0.301815
0.301815
0.301815
0.301815
0.301815
0.301815
0.301815
0.301815
0.301815
0.301815
0.301815
0.301815
0.301815
0.301815
0.301815
0.301815
0.301815
0.301815
0.301815
0.301815
0.301815
0.301815
0.301815
0.301815
0.301815
0.301815
0.301815
0.301815
0.301815
0.301815
0.301815
0.301815
0.301815
0.301815
0.301816
0.301816
0.301816
0.301816
0.301816
0.301816
0.301816
0.301816
0.301816
0.301816
0.301816
0.301816
0.301816
0.301816
0.301816
0.301816
0.301816
0.301816
0.301816
0.301816
0.301816
0.301816
0.301816
0.301816
0.301816
0.301816
0.301816
0.301816
0.301816
0.301816
0.301816
0.301816
0.301816
0.301816
0.301816
0.301816
0.301816
0.301816
0.301816
0.301816
0.301816
0.301816
0.301816
0.301816
0.301816
0.301816
0.301816
0.301816
0.301816
0.301817
0.301817
0.301817
0.301817
0.301817
0.301817
0.301817
0.301817
0.301817
0.301817
0.301817
0.301817
0.301817
0.301817
0.301817
0.301817
0.301817
0.301817
0.301817
0.301817
0.301817
0.301817
0.301817
0.301817
0.301817