/*--------------------------------*- C++ -*----------------------------------*\
| =========                 |                                                 |
| \\      /  F ield         | OpenFOAM: The Open Source CFD Toolbox           |
|  \\    /   O peration     | Version:  2112                                  |
|   \\  /    A nd           | Website:  www.openfoam.com                      |
|    \\/     M anipulation  |                                                 |
\*---------------------------------------------------------------------------*/
FoamFile
{
    version     2.0;
    format      ascii;
    arch        "LSB;label=32;scalar=64";
    class       volScalarField;
    location    "0.00584";
    object      epsilon;
}
// * * * * * * * * * * * * * * * * * * * * * * * * * * * * * * * * * * * * * //

dimensions      [0 2 -3 0 0 0 0];

internalField   nonuniform List<scalar> 
13875
(
1.16003e+06
2.94628e+07
3.28265e+07
3.2838e+07
3.29055e+07
3.2849e+07
3.28972e+07
3.29101e+07
3.29016e+07
3.29111e+07
3.29224e+07
3.29068e+07
3.2868e+07
3.2845e+07
3.28603e+07
3.29113e+07
3.29463e+07
3.29154e+07
3.28931e+07
3.28591e+07
3.28986e+07
3.28314e+07
3.28049e+07
2.94963e+07
1.17772e+06
1.3139e+06
2.27475e+07
2.5357e+07
2.52365e+07
2.52775e+07
2.52253e+07
2.5232e+07
2.52441e+07
2.52175e+07
2.52103e+07
2.52279e+07
2.52473e+07
2.52072e+07
2.51941e+07
2.52002e+07
2.52509e+07
2.52444e+07
2.52376e+07
2.52263e+07
2.52292e+07
2.52695e+07
2.52203e+07
2.53287e+07
2.27614e+07
1.34194e+06
1.57304e+06
1.97064e+07
2.18306e+07
2.16244e+07
2.16948e+07
2.16464e+07
2.15695e+07
2.15559e+07
2.1516e+07
2.1498e+07
2.15144e+07
2.1544e+07
2.1604e+07
2.16024e+07
2.15968e+07
2.15476e+07
2.15304e+07
2.15328e+07
2.15513e+07
2.16424e+07
2.16837e+07
2.16022e+07
2.17906e+07
1.96896e+07
1.58446e+06
1.81371e+06
1.7385e+07
1.90385e+07
1.88777e+07
1.89634e+07
1.89179e+07
1.88302e+07
1.88129e+07
1.87842e+07
1.87643e+07
1.87762e+07
1.87842e+07
1.88819e+07
1.88806e+07
1.88762e+07
1.87876e+07
1.8793e+07
1.87834e+07
1.8809e+07
1.89154e+07
1.89522e+07
1.88582e+07
1.9015e+07
1.73614e+07
1.82057e+06
2.02278e+06
1.54521e+07
1.67722e+07
1.66193e+07
1.67006e+07
1.66609e+07
1.65691e+07
1.65628e+07
1.65401e+07
1.65194e+07
1.65328e+07
1.65304e+07
1.66238e+07
1.66275e+07
1.66193e+07
1.65335e+07
1.65468e+07
1.65341e+07
1.65542e+07
1.66563e+07
1.66905e+07
1.66054e+07
1.67447e+07
1.54262e+07
2.03671e+06
2.20647e+06
1.37119e+07
1.49278e+07
1.47373e+07
1.48298e+07
1.47796e+07
1.46787e+07
1.46789e+07
1.46602e+07
1.46396e+07
1.46552e+07
1.46436e+07
1.47351e+07
1.47424e+07
1.47315e+07
1.46465e+07
1.46672e+07
1.46512e+07
1.4668e+07
1.47745e+07
1.48198e+07
1.47293e+07
1.49038e+07
1.38466e+07
2.22354e+06
2.42259e+06
1.2251e+07
1.34776e+07
1.32066e+07
1.32696e+07
1.32063e+07
1.3091e+07
1.30921e+07
1.30758e+07
1.30538e+07
1.30713e+07
1.3052e+07
1.31425e+07
1.31514e+07
1.31375e+07
1.3055e+07
1.30838e+07
1.30654e+07
1.30859e+07
1.32002e+07
1.32584e+07
1.32018e+07
1.34218e+07
1.19517e+07
2.43021e+06
2.66606e+06
1.06153e+07
1.23124e+07
1.19742e+07
1.19999e+07
1.18936e+07
1.17577e+07
1.17506e+07
1.17333e+07
1.17092e+07
1.17302e+07
1.17027e+07
1.17928e+07
1.18045e+07
1.17876e+07
1.1705e+07
1.17437e+07
1.17252e+07
1.17522e+07
1.18831e+07
1.1982e+07
1.19652e+07
1.22638e+07
1.05444e+07
2.69529e+06
3.49657e+06
1.02129e+07
1.14835e+07
1.10303e+07
1.09415e+07
1.07934e+07
1.06305e+07
1.06179e+07
1.05991e+07
1.05714e+07
1.05964e+07
1.05626e+07
1.06517e+07
1.06663e+07
1.06473e+07
1.05665e+07
1.06105e+07
1.05925e+07
1.06261e+07
1.07787e+07
1.09249e+07
1.10226e+07
1.14752e+07
1.03388e+07
3.57431e+06
6.8357e+06
1.2219e+07
1.1195e+07
1.04243e+07
1.01711e+07
9.93458e+06
9.75955e+06
9.73588e+06
9.71239e+06
9.68522e+06
9.70893e+06
9.67401e+06
9.75689e+06
9.77405e+06
9.75523e+06
9.68557e+06
9.72339e+06
9.71608e+06
9.74941e+06
9.91594e+06
1.01445e+07
1.03653e+07
1.1159e+07
1.21244e+07
6.89078e+06
1.49172e+07
1.8691e+07
1.20559e+07
1.03356e+07
9.63774e+06
9.32386e+06
9.14159e+06
9.08313e+06
9.04751e+06
9.02026e+06
9.03865e+06
9.00583e+06
9.0788e+06
9.09791e+06
9.08601e+06
9.03623e+06
9.06402e+06
9.07277e+06
9.13153e+06
9.29736e+06
9.61588e+06
1.02735e+07
1.18829e+07
1.794e+07
1.49956e+07
2.54641e+07
6.87828e+07
1.81644e+07
1.07046e+07
9.7317e+06
9.04162e+06
8.73623e+06
8.63428e+06
8.5756e+06
8.5447e+06
8.5542e+06
8.52644e+06
8.58344e+06
8.60437e+06
8.60335e+06
8.57456e+06
8.5976e+06
8.63168e+06
8.71654e+06
9.02834e+06
9.6569e+06
1.05398e+07
1.7533e+07
6.73746e+07
2.50281e+07
2.65814e+07
7.58002e+07
8.68897e+07
2.41747e+07
1.09879e+07
9.14561e+06
8.78755e+06
8.50149e+06
8.38268e+06
8.32564e+06
8.31729e+06
8.28897e+06
8.32692e+06
8.34969e+06
8.3635e+06
8.36483e+06
8.41702e+06
8.52316e+06
8.79739e+06
9.20987e+06
1.13313e+07
2.26051e+07
8.08171e+07
7.64621e+07
2.60816e+07
2.63371e+07
5.50269e+07
7.98822e+07
1.06016e+08
5.73956e+07
1.34542e+07
9.79491e+06
9.01285e+06
8.70977e+06
8.65527e+06
8.64855e+06
8.62855e+06
8.6577e+06
8.67794e+06
8.69758e+06
8.70576e+06
8.75146e+06
8.99902e+06
9.98807e+06
1.44532e+07
6.67429e+07
9.09806e+07
7.5425e+07
5.45196e+07
2.57414e+07
2.5348e+07
4.25988e+07
5.82941e+07
7.35751e+07
7.35361e+07
7.65909e+07
2.59717e+07
1.38277e+07
1.18138e+07
1.08168e+07
1.05357e+07
1.03983e+07
1.04067e+07
1.04404e+07
1.05293e+07
1.07828e+07
1.15647e+07
1.36505e+07
2.50031e+07
7.81397e+07
7.65033e+07
6.62104e+07
5.66572e+07
4.22909e+07
2.6432e+07
2.48097e+07
3.36735e+07
4.39404e+07
5.54944e+07
5.88922e+07
6.81537e+07
5.23947e+07
4.24235e+07
4.55128e+07
3.96392e+07
3.95586e+07
4.08957e+07
4.21904e+07
4.16039e+07
4.02194e+07
3.83129e+07
4.72219e+07
4.648e+07
5.26508e+07
7.02835e+07
5.96533e+07
5.12172e+07
4.29274e+07
3.35039e+07
2.58524e+07
2.02976e+07
2.56018e+07
3.30203e+07
4.32476e+07
5.03842e+07
6.32334e+07
7.28441e+07
8.51675e+07
6.74095e+07
5.31967e+07
5.37002e+07
5.66387e+07
5.80881e+07
5.77746e+07
5.54719e+07
5.3625e+07
6.51267e+07
8.47767e+07
7.99274e+07
6.49326e+07
5.01636e+07
4.09074e+07
3.16349e+07
2.47653e+07
2.01293e+07
1.50525e+07
1.94271e+07
2.76179e+07
3.86889e+07
4.67924e+07
5.573e+07
6.91472e+07
8.26251e+07
5.19637e+07
3.78671e+07
3.60481e+07
3.67952e+07
3.75765e+07
3.73827e+07
3.67827e+07
3.89163e+07
5.10436e+07
7.52597e+07
7.30135e+07
5.74051e+07
4.7984e+07
3.89748e+07
2.70486e+07
1.88403e+07
1.47231e+07
1.22815e+07
1.70447e+07
2.58359e+07
4.1866e+07
4.98917e+07
4.64007e+07
5.16689e+07
6.08288e+07
4.64328e+07
3.37098e+07
2.91664e+07
2.79795e+07
2.7998e+07
2.83734e+07
2.94913e+07
3.32821e+07
4.36681e+07
5.73179e+07
5.3948e+07
4.72456e+07
5.23826e+07
4.45321e+07
2.64351e+07
1.70654e+07
1.20984e+07
1.16595e+07
1.79997e+07
2.73559e+07
4.21857e+07
4.44064e+07
3.85108e+07
3.94832e+07
4.59342e+07
4.10112e+07
3.15471e+07
2.54454e+07
2.2583e+07
2.1971e+07
2.30411e+07
2.58385e+07
3.08991e+07
3.86631e+07
4.40605e+07
4.06734e+07
3.91102e+07
4.52644e+07
4.30415e+07
2.87718e+07
1.88799e+07
1.1865e+07
1.96823e+07
4.74475e+07
3.57623e+07
3.33751e+07
3.51003e+07
3.11546e+07
3.13923e+07
3.65176e+07
3.52984e+07
2.8246e+07
2.19428e+07
1.84574e+07
1.76367e+07
1.90953e+07
2.2583e+07
2.77817e+07
3.34825e+07
3.54261e+07
3.22554e+07
3.1785e+07
3.55829e+07
3.38967e+07
3.82905e+07
4.87766e+07
1.5987e+07
6.90267e+07
2.38012e+08
4.59776e+07
2.64337e+07
2.7911e+07
2.54786e+07
2.57427e+07
2.99058e+07
3.00319e+07
2.45415e+07
1.86931e+07
1.51979e+07
1.43055e+07
1.58097e+07
1.92798e+07
2.40425e+07
2.84996e+07
2.92698e+07
2.64895e+07
2.60107e+07
2.81867e+07
2.69414e+07
5.30604e+07
2.38244e+08
6.17173e+07
8.55698e+07
1.64927e+08
3.95679e+07
2.18981e+07
2.26779e+07
2.12274e+07
2.14175e+07
2.48151e+07
2.53247e+07
2.08818e+07
1.57747e+07
1.2597e+07
1.17045e+07
1.30492e+07
1.61536e+07
2.02786e+07
2.39489e+07
2.43841e+07
2.20306e+07
2.16267e+07
2.27303e+07
2.21944e+07
4.41963e+07
2.1299e+08
9.50339e+07
7.34587e+07
1.35565e+08
3.14791e+07
1.86766e+07
1.87151e+07
1.78022e+07
1.79229e+07
2.06974e+07
2.13148e+07
1.75102e+07
1.31253e+07
1.04293e+07
9.67979e+06
1.08446e+07
1.35164e+07
1.70308e+07
2.01666e+07
2.03704e+07
1.84483e+07
1.82292e+07
1.88285e+07
1.88198e+07
3.40387e+07
1.44788e+08
8.48002e+07
6.66782e+07
1.15194e+08
2.60066e+07
1.63323e+07
1.57967e+07
1.50505e+07
1.52177e+07
1.73975e+07
1.79405e+07
1.47441e+07
1.10251e+07
8.73876e+06
8.1022e+06
9.09183e+06
1.13756e+07
1.43501e+07
1.69793e+07
1.71106e+07
1.56012e+07
1.54823e+07
1.59561e+07
1.64317e+07
2.73365e+07
1.22037e+08
7.53532e+07
6.02254e+07
1.04859e+08
2.20261e+07
1.43384e+07
1.35485e+07
1.28477e+07
1.30832e+07
1.47797e+07
1.51543e+07
1.24508e+07
9.33182e+06
7.4016e+06
6.85823e+06
7.68556e+06
9.59212e+06
1.2071e+07
1.42817e+07
1.447e+07
1.33252e+07
1.31888e+07
1.36763e+07
1.44416e+07
2.25084e+07
1.02973e+08
6.59279e+07
5.4421e+07
9.22676e+07
1.87537e+07
1.26264e+07
1.1763e+07
1.10713e+07
1.13672e+07
1.26184e+07
1.27599e+07
1.04926e+07
7.917e+06
6.32002e+06
5.86396e+06
6.57681e+06
8.18979e+06
1.0255e+07
1.21044e+07
1.23579e+07
1.15043e+07
1.13763e+07
1.19433e+07
1.27885e+07
1.92831e+07
9.17541e+07
5.99196e+07
5.0887e+07
8.2991e+07
1.6417e+07
1.11942e+07
1.03471e+07
9.69177e+06
9.97061e+06
1.08951e+07
1.08537e+07
8.92585e+06
6.79056e+06
5.45654e+06
5.06614e+06
5.67038e+06
7.01239e+06
8.7244e+06
1.02847e+07
1.06229e+07
1.00311e+07
9.91052e+06
1.05094e+07
1.13445e+07
1.68339e+07
8.2266e+07
5.44003e+07
4.7966e+07
7.66809e+07
1.46974e+07
9.99046e+06
9.18475e+06
8.61688e+06
8.82228e+06
9.45774e+06
9.28027e+06
7.65609e+06
5.88003e+06
4.75321e+06
4.41229e+06
4.92377e+06
6.04175e+06
7.45699e+06
8.759e+06
9.16424e+06
8.80904e+06
8.75795e+06
9.32734e+06
1.01238e+07
1.48746e+07
7.25508e+07
4.98625e+07
4.39073e+07
7.00152e+07
1.33564e+07
8.96428e+06
8.18515e+06
7.74112e+06
7.86827e+06
8.24583e+06
7.93318e+06
6.54888e+06
5.09128e+06
4.16423e+06
3.87733e+06
4.32553e+06
5.26961e+06
6.45634e+06
7.56331e+06
7.99836e+06
7.81526e+06
7.83361e+06
8.33058e+06
9.13298e+06
1.35546e+07
6.71365e+07
4.76506e+07
4.06971e+07
6.32912e+07
1.24537e+07
8.15774e+06
7.35475e+06
6.98892e+06
7.06588e+06
7.24381e+06
6.85832e+06
5.68637e+06
4.46758e+06
3.68141e+06
3.43016e+06
3.81682e+06
4.61281e+06
5.60686e+06
6.53605e+06
6.99805e+06
6.98088e+06
7.05177e+06
7.47874e+06
8.30222e+06
1.25875e+07
6.23714e+07
4.41339e+07
3.79566e+07
5.75379e+07
1.17239e+07
7.54296e+06
6.67522e+06
6.33705e+06
6.37515e+06
6.42075e+06
5.99267e+06
4.97687e+06
3.94676e+06
3.27972e+06
3.0603e+06
3.39304e+06
4.06332e+06
4.90803e+06
5.71297e+06
6.18151e+06
6.27233e+06
6.36762e+06
6.77744e+06
7.65458e+06
1.18586e+07
5.64321e+07
4.06725e+07
3.48336e+07
5.11374e+07
1.10782e+07
7.07786e+06
6.09081e+06
5.77443e+06
5.76964e+06
5.69729e+06
5.23691e+06
4.369e+06
3.50187e+06
2.93558e+06
2.74527e+06
3.04133e+06
3.62085e+06
4.34398e+06
5.03421e+06
5.49952e+06
5.66862e+06
5.78437e+06
6.16767e+06
7.16341e+06
1.13447e+07
5.10641e+07
3.77577e+07
3.28244e+07
4.62676e+07
1.07302e+07
6.75336e+06
5.62603e+06
5.29309e+06
5.22846e+06
5.09799e+06
4.63506e+06
3.87721e+06
3.13324e+06
2.64795e+06
2.48035e+06
2.73812e+06
3.23221e+06
3.85807e+06
4.46134e+06
4.91391e+06
5.12211e+06
5.28026e+06
5.67167e+06
6.81503e+06
1.09594e+07
4.62707e+07
3.49125e+07
3.11575e+07
4.21782e+07
1.02802e+07
6.53204e+06
5.30237e+06
4.86266e+06
4.7594e+06
4.58162e+06
4.12464e+06
3.46725e+06
2.8261e+06
2.40189e+06
2.25163e+06
2.47954e+06
2.90907e+06
3.45088e+06
3.97793e+06
4.41565e+06
4.65013e+06
4.83279e+06
5.31925e+06
6.60333e+06
1.05714e+07
4.22119e+07
3.29618e+07
2.91441e+07
3.7809e+07
9.57823e+06
6.40468e+06
5.06583e+06
4.49564e+06
4.33448e+06
4.1221e+06
3.68876e+06
3.10925e+06
2.55241e+06
2.18847e+06
2.05681e+06
2.26109e+06
2.63534e+06
3.11592e+06
3.5855e+06
3.98512e+06
4.23619e+06
4.46181e+06
5.06706e+06
6.50812e+06
1.00591e+07
3.92448e+07
3.12444e+07
2.77499e+07
3.43499e+07
8.93473e+06
6.38176e+06
4.92045e+06
4.19967e+06
3.97904e+06
3.73361e+06
3.3176e+06
2.81513e+06
2.3274e+06
2.00553e+06
1.8855e+06
2.068e+06
2.39656e+06
2.82022e+06
3.22956e+06
3.60911e+06
3.87862e+06
4.15028e+06
4.90038e+06
6.49554e+06
9.40331e+06
3.5563e+07
2.90698e+07
2.65624e+07
3.16576e+07
8.54245e+06
6.48621e+06
4.84359e+06
3.96717e+06
3.67256e+06
3.39633e+06
3.00783e+06
2.56391e+06
2.1299e+06
1.84708e+06
1.73867e+06
1.90048e+06
2.18766e+06
2.56923e+06
2.93258e+06
3.27943e+06
3.57643e+06
3.90873e+06
4.82384e+06
6.70172e+06
9.00429e+06
3.22988e+07
2.75113e+07
2.50486e+07
2.9036e+07
7.85469e+06
6.33871e+06
4.856e+06
3.80508e+06
3.41665e+06
3.10448e+06
2.73157e+06
2.33794e+06
1.95606e+06
1.70604e+06
1.60802e+06
1.75682e+06
2.01285e+06
2.35184e+06
2.67737e+06
3.00719e+06
3.32678e+06
3.73751e+06
4.8752e+06
6.72098e+06
8.60293e+06
2.9548e+07
2.63172e+07
2.38789e+07
2.691e+07
7.23424e+06
6.02524e+06
4.95406e+06
3.69443e+06
3.21098e+06
2.85982e+06
2.50609e+06
2.14935e+06
1.80513e+06
1.58369e+06
1.49386e+06
1.6268e+06
1.85277e+06
2.16028e+06
2.4564e+06
2.76751e+06
3.12276e+06
3.62682e+06
4.96174e+06
6.35116e+06
7.83296e+06
2.71788e+07
2.51035e+07
2.29675e+07
2.50671e+07
6.76082e+06
5.65238e+06
5.21866e+06
3.6691e+06
3.0619e+06
2.66233e+06
2.31329e+06
1.98421e+06
1.67392e+06
1.4746e+06
1.39184e+06
1.51258e+06
1.71274e+06
1.99027e+06
2.2678e+06
2.57438e+06
2.97308e+06
3.60417e+06
5.25853e+06
5.94229e+06
7.11564e+06
2.52849e+07
2.41678e+07
2.20429e+07
2.33844e+07
6.206e+06
5.23173e+06
5.24997e+06
3.73755e+06
2.9431e+06
2.50979e+06
2.14978e+06
1.83857e+06
1.55461e+06
1.37688e+06
1.30112e+06
1.41185e+06
1.592e+06
1.84856e+06
2.11413e+06
2.43044e+06
2.8599e+06
3.67965e+06
5.33006e+06
5.5056e+06
6.63186e+06
2.37737e+07
2.34521e+07
2.13664e+07
2.19435e+07
5.80844e+06
4.8211e+06
4.95355e+06
3.97407e+06
2.88666e+06
2.39422e+06
2.02318e+06
1.71689e+06
1.45201e+06
1.29042e+06
1.21943e+06
1.32082e+06
1.48292e+06
1.72352e+06
1.98737e+06
2.31673e+06
2.79288e+06
3.88718e+06
5.04931e+06
5.02528e+06
6.08477e+06
2.23869e+07
2.25851e+07
2.08419e+07
2.06162e+07
5.66959e+06
4.45988e+06
4.59568e+06
4.1391e+06
2.93853e+06
2.30638e+06
1.92883e+06
1.61978e+06
1.36406e+06
1.21327e+06
1.14626e+06
1.23909e+06
1.38884e+06
1.61901e+06
1.8934e+06
2.23291e+06
2.81839e+06
4.15241e+06
4.69164e+06
4.60878e+06
5.62822e+06
2.12393e+07
2.19625e+07
2.02272e+07
1.94523e+07
5.30507e+06
4.12828e+06
4.21408e+06
4.04291e+06
3.12497e+06
2.26179e+06
1.85044e+06
1.54286e+06
1.28674e+06
1.14485e+06
1.08125e+06
1.16842e+06
1.3097e+06
1.53829e+06
1.81502e+06
2.18832e+06
3.01688e+06
4.13805e+06
4.31227e+06
4.2794e+06
5.47707e+06
2.01844e+07
2.1441e+07
1.97398e+07
1.83305e+07
5.20431e+06
3.85566e+06
3.85508e+06
3.78261e+06
3.37849e+06
2.33835e+06
1.79885e+06
1.48281e+06
1.23044e+06
1.08869e+06
1.02572e+06
1.10996e+06
1.24922e+06
1.4737e+06
1.75721e+06
2.22467e+06
3.35623e+06
3.87233e+06
3.95588e+06
3.98073e+06
5.25774e+06
1.91391e+07
2.08609e+07
1.92762e+07
1.73129e+07
5.18359e+06
3.64034e+06
3.55634e+06
3.51383e+06
3.37429e+06
2.58798e+06
1.79221e+06
1.43267e+06
1.18654e+06
1.04708e+06
980907
1.06574e+06
1.20182e+06
1.41987e+06
1.73583e+06
2.45199e+06
3.47785e+06
3.59611e+06
3.65578e+06
3.74409e+06
5.16335e+06
1.80995e+07
2.02918e+07
1.85465e+07
1.62728e+07
5.00366e+06
3.44519e+06
3.3062e+06
3.25305e+06
3.17383e+06
2.87145e+06
1.9163e+06
1.39393e+06
1.14805e+06
1.01338e+06
945949
1.03163e+06
1.16202e+06
1.38085e+06
1.84833e+06
2.82127e+06
3.25715e+06
3.3234e+06
3.40284e+06
3.57336e+06
5.23016e+06
1.69709e+07
1.94386e+07
1.7593e+07
1.51213e+07
4.87992e+06
3.28544e+06
3.09653e+06
3.01745e+06
2.97701e+06
2.89305e+06
2.25396e+06
1.41976e+06
1.11663e+06
982625
918023
999937
1.12739e+06
1.38348e+06
2.16941e+06
2.9307e+06
3.037e+06
3.07847e+06
3.18279e+06
3.40778e+06
5.1056e+06
1.57553e+07
1.83856e+07
1.54072e+07
1.35035e+07
4.70439e+06
3.13928e+06
2.91976e+06
2.82387e+06
2.77899e+06
2.72445e+06
2.48588e+06
1.6019e+06
1.11166e+06
957295
893606
973186
1.11312e+06
1.52e+06
2.46239e+06
2.75996e+06
2.82638e+06
2.87515e+06
3.00019e+06
3.25476e+06
4.89303e+06
1.40725e+07
1.61193e+07
378655
308045
403916
432191
479052
468574
425913
371064
323540
289035
270402
264764
264917
265509
263016
256774
243568
209836
179326
158719
146819
142122
139132
137205
135295
132436
127771
119826
110398
128215
435501
342233
488130
534849
610936
596405
531768
446600
371793
316425
284564
271788
268388
267492
264733
260083
250610
224032
190478
164847
149861
141789
137672
135136
132915
129896
125326
117673
108671
127118
449866
378299
619046
687442
806427
778789
683277
551847
436643
351320
300784
278092
269757
266001
261433
255362
247706
230091
198624
169975
151798
140696
135748
132756
130269
127042
122453
115034
106588
126128
477400
437822
828678
955880
1.15005e+06
1.11139e+06
964733
744106
550651
411036
328640
289312
273300
266024
259773
252926
246480
235520
209414
177705
154586
140817
133924
130411
127629
124200
119533
112220
104243
123933
512473
527508
1.15424e+06
1.41429e+06
1.7273e+06
1.6779e+06
1.44853e+06
1.07708e+06
742530
505024
371036
305901
277868
265680
257724
249752
243070
235477
219605
187965
158800
141319
132141
128110
124969
121305
116424
109117
101368
120442
554369
672237
1.64079e+06
2.08741e+06
2.32035e+06
2.21247e+06
2.01332e+06
1.62634e+06
1.05843e+06
654479
435704
331244
285660
266163
255819
246963
239870
233051
222985
200884
166075
142553
130863
125850
122273
118278
113047
105822
98984.3
118253
608491
906466
2.2391e+06
2.55734e+06
2.55267e+06
2.3419e+06
2.24284e+06
2.02018e+06
1.44662e+06
857078
524629
365197
296179
267004
253130
243289
236570
230781
221582
213818
179230
145736
130111
123343
119420
115120
109727
103018
97111.6
117166
689953
1.28001e+06
2.79294e+06
2.84831e+06
2.56524e+06
2.23756e+06
2.1802e+06
2.11821e+06
1.73169e+06
1.07279e+06
633586
408232
310077
268822
250245
239436
233066
228354
218601
215189
200648
154983
130281
121680
117012
112546
107277
100593
95323.5
116500
807361
1.81916e+06
3.37761e+06
3.08148e+06
2.53237e+06
2.1179e+06
2.0172e+06
2.06305e+06
1.78637e+06
1.22676e+06
731155
454320
325466
271352
247421
235167
229003
225055
217453
212667
212838
175916
134239
120470
114991
110366
105314
98706.6
93195.8
112924
979136
2.52201e+06
3.97282e+06
3.29389e+06
2.52008e+06
2.00847e+06
1.83539e+06
1.96324e+06
1.73591e+06
1.28955e+06
787991
492381
340189
274328
245117
231158
224768
221895
216854
210081
213824
205997
146755
120744
112844
107934
101626
93559.1
87865.8
106050
1.23108e+06
3.32071e+06
4.55754e+06
3.49322e+06
2.50625e+06
1.88844e+06
1.6538e+06
1.80838e+06
1.64464e+06
1.2648e+06
808893
511126
348841
275741
242254
227052
221273
219642
216661
208835
212085
215630
172391
123993
109338
101805
95286.5
87494.4
82661.7
100374
1.58639e+06
4.17771e+06
5.1395e+06
3.66376e+06
2.47657e+06
1.78355e+06
1.51809e+06
1.66505e+06
1.54896e+06
1.20243e+06
793731
505060
348452
274212
239033
223171
218007
218350
218387
209215
211441
218032
207356
134730
106763
96808.4
89729.8
83146.9
79266.8
96633.4
2.06082e+06
5.12944e+06
5.71284e+06
3.78707e+06
2.42462e+06
1.70248e+06
1.42592e+06
1.54648e+06
1.4707e+06
1.12978e+06
759450
487550
339989
268406
234694
219728
216136
218914
221730
212513
212512
218646
222255
169874
109314
93892.8
86030
80108.7
76901
93741.3
2.6634e+06
6.17133e+06
6.25355e+06
3.8749e+06
2.39669e+06
1.66183e+06
1.38254e+06
1.45565e+06
1.41339e+06
1.06444e+06
714469
459566
325090
259603
229675
217037
215691
221503
227639
220049
215479
219996
226733
216601
129594
93485.3
83816.1
77441.1
74858.6
91168.3
3.41046e+06
7.31322e+06
6.77216e+06
3.95496e+06
2.40725e+06
1.65809e+06
1.36923e+06
1.36939e+06
1.33845e+06
1.02678e+06
654293
423152
305034
250531
225558
215763
216688
224530
232756
231174
220861
222714
228540
232652
185895
102599
82639.6
75718.1
72890.3
88825.3
4.34167e+06
8.55836e+06
7.27206e+06
4.09054e+06
2.47125e+06
1.68237e+06
1.36623e+06
1.27778e+06
1.2054e+06
951303
587782
383670
287916
244071
223390
216035
219002
228789
239447
240348
228457
227024
230622
236488
229886
141619
85785.4
74598.1
71515.8
86445.9
5.51584e+06
9.93518e+06
7.79412e+06
4.29204e+06
2.58073e+06
1.73539e+06
1.38806e+06
1.20695e+06
1.06494e+06
830380
535730
356630
279898
242440
224652
219488
224371
235892
246829
246168
237175
232558
232749
236844
240885
212142
106987
75375.6
70731.7
84514.4
6.9949e+06
1.14584e+07
8.41524e+06
4.6062e+06
2.74191e+06
1.82861e+06
1.44921e+06
1.19036e+06
975672
731043
500439
357148
282107
245794
229769
226778
232791
244375
253523
249030
241265
237606
234489
235851
239084
235969
170582
84925
70926.9
83417.6
8.67134e+06
1.30767e+07
9.2016e+06
5.06104e+06
2.96386e+06
1.9786e+06
1.54774e+06
1.22698e+06
947416
684705
488313
371238
293127
254791
240340
238553
243811
251903
257215
248635
241866
238114
234904
233591
234948
235804
217637
120034
74699.8
83155.9
1.04931e+07
1.49491e+07
1.02335e+07
5.69154e+06
3.29214e+06
2.20725e+06
1.71605e+06
1.33696e+06
988702
692186
503690
389267
315435
272794
258297
254301
254902
256360
255595
245926
240043
236077
233200
231058
230557
229330
225455
180282
88904.7
84252.1
1.36549e+07
1.67297e+07
1.1481e+07
6.52564e+06
3.78445e+06
2.54092e+06
1.9719e+06
1.5511e+06
1.1432e+06
785961
563565
429151
352700
300582
279326
269263
262521
258106
251287
242791
237277
233006
229964
228254
225167
222740
220542
206618
125531
88690
1.60749e+07
1.92151e+07
1.3229e+07
7.74222e+06
4.53515e+06
3.02485e+06
2.31806e+06
1.85999e+06
1.42158e+06
987529
688604
507077
403834
337053
302075
281601
267969
259226
248310
239703
234184
229295
225810
223254
219941
217020
213983
211128
178584
102510
1.84795e+07
2.08159e+07
1.51806e+07
9.6235e+06
5.72682e+06
3.73951e+06
2.7692e+06
2.23054e+06
1.78411e+06
1.29456e+06
896173
631685
469882
380330
324798
292489
273174
260153
246868
237697
231740
226091
222050
218345
215239
212219
208392
206550
200648
140212
2.0116e+07
2.36693e+07
1.8612e+07
1.28554e+07
7.61825e+06
4.78249e+06
3.37374e+06
2.66639e+06
2.2019e+06
1.70196e+06
1.20964e+06
822417
568265
430561
349011
305202
278879
261395
247140
237697
230865
224561
219211
214366
211264
208102
203904
201896
207115
204898
2.00578e+07
2.7382e+07
2.56595e+07
1.87367e+07
1.0681e+07
6.35753e+06
4.23691e+06
3.20782e+06
2.6619e+06
2.18535e+06
1.63507e+06
1.11764e+06
731799
497975
381622
320201
284209
264406
248460
238546
231110
224109
217496
211860
207928
204160
200330
200617
218060
284709
128737
110485
119819
127675
132327
135180
137140
139144
142129
147035
159793
181797
214137
244697
255867
261309
263741
263318
263621
270752
291854
329792
381268
439877
481487
488879
439087
410880
310220
381107
127469
108682
117598
125194
129810
132842
135165
137782
141892
150294
166380
193688
227900
250128
258381
262661
265801
267078
271303
286411
322071
382565
463637
554894
618258
627754
547544
498660
345867
437911
126344
106521
114905
122299
126970
130214
132829
135908
141055
152476
171921
202007
232958
247024
253605
259639
264580
268800
278588
304557
361021
454166
579241
719190
814263
835867
709749
635404
384098
452696
124092
104148
112084
119355
124137
127593
130501
134146
141414
155540
180202
212739
236926
245379
251290
258297
264854
273048
291467
335886
427701
581599
793785
1.02893e+06
1.17504e+06
1.20421e+06
996788
855513
446931
481088
120529
101271
109005
116242
121246
124949
128194
132383
142059
160141
190896
222161
235701
241800
248264
256628
265163
278801
310607
383904
533561
796438
1.16586e+06
1.56145e+06
1.77714e+06
1.81772e+06
1.48411e+06
1.19371e+06
541659
518050
118209
98824.7
105711
112905
118234
122269
125952
131225
143489
167898
203644
224016
233043
238736
245789
255163
266410
288202
339621
457164
701090
1.14808e+06
1.74404e+06
2.09541e+06
2.26729e+06
2.3844e+06
2.16097e+06
1.69688e+06
694542
563050
117038
96915.4
102855
109609
115081
119404
123433
130589
146939
181037
214820
222085
230399
235616
242489
252940
268189
300755
378326
557633
923018
1.55528e+06
2.08801e+06
2.27989e+06
2.35747e+06
2.59208e+06
2.61539e+06
2.30056e+06
941016
621486
116331
95112.9
100416
107078
112403
116886
121698
130865
156260
201162
215232
219074
227585
232212
238888
250720
271231
317089
427152
676761
1.15216e+06
1.81533e+06
2.16371e+06
2.19543e+06
2.26529e+06
2.6103e+06
2.91528e+06
2.86541e+06
1.32895e+06
709514
112793
93028
98527
105030
110143
114794
120453
134867
176379
211533
212234
217731
224122
228060
234942
248592
275141
335140
478674
778789
1.30362e+06
1.84377e+06
2.09106e+06
2.02749e+06
2.16006e+06
2.5923e+06
3.16444e+06
3.46711e+06
1.88178e+06
835439
105954
87788.3
93398.8
101377
107651
112571
120684
147011
204321
212087
209414
216717
220777
223893
231214
246850
279270
352153
520117
836819
1.35618e+06
1.78628e+06
1.97847e+06
1.848e+06
2.05624e+06
2.59266e+06
3.39489e+06
4.0805e+06
2.59081e+06
1.01928e+06
100361
82693.6
87472.5
95227.1
101747
109252
123993
171677
213093
210183
207834
216048
218362
220408
227473
244635
281496
362385
539895
855093
1.31658e+06
1.69312e+06
1.81824e+06
1.67226e+06
1.93501e+06
2.58275e+06
3.6066e+06
4.69102e+06
3.3957e+06
1.28808e+06
96632.7
79345.5
83213
89846.1
96888.8
106866
134537
204702
215148
209159
207900
217236
216874
217280
223794
241643
280243
361712
532275
840830
1.25288e+06
1.60201e+06
1.67813e+06
1.53585e+06
1.82153e+06
2.54961e+06
3.78361e+06
5.29816e+06
4.27445e+06
1.66043e+06
93705.7
76952
80179.8
86129.2
94016.2
109307
167631
218621
215347
209728
211181
219807
217232
215341
220326
237260
274316
352282
513194
804166
1.17987e+06
1.52451e+06
1.55623e+06
1.44636e+06
1.74175e+06
2.49826e+06
3.90976e+06
5.89764e+06
5.24688e+06
2.15163e+06
91085.3
74868.2
77467.3
83875.3
93509
128216
212549
222718
216233
212364
218602
225069
219462
214750
217491
231952
264909
335816
482122
754109
1.11464e+06
1.46613e+06
1.46562e+06
1.40725e+06
1.70512e+06
2.47317e+06
4.00072e+06
6.45505e+06
6.31438e+06
2.77141e+06
88688.4
72859.8
75686.8
82623.3
101854
181344
228287
224252
218602
217703
230906
230570
222297
215374
215882
227325
254986
314175
443272
689510
1.07666e+06
1.38181e+06
1.38686e+06
1.39815e+06
1.70642e+06
2.48864e+06
4.08936e+06
6.9873e+06
7.48439e+06
3.53976e+06
86254.9
71437.4
74516.6
85415.2
138272
225537
232178
226171
222804
225398
238758
236033
225885
217167
215653
224488
247587
295057
398844
620147
991421
1.24142e+06
1.30538e+06
1.39997e+06
1.73705e+06
2.55784e+06
4.23186e+06
7.51014e+06
8.76289e+06
4.49133e+06
84307.9
70601.6
75158.9
105342
207526
236982
232589
228366
228424
234228
244290
242887
232214
221909
218490
224933
244480
285004
366838
560146
862189
1.09834e+06
1.24303e+06
1.42664e+06
1.79237e+06
2.67529e+06
4.44549e+06
8.05322e+06
1.01789e+07
5.68475e+06
83194.2
70725.1
84226
166850
232582
235436
231746
230341
233426
238287
247077
249767
240859
230773
225574
229629
247001
285865
364973
515191
755745
1.00643e+06
1.23205e+06
1.49216e+06
1.8898e+06
2.84668e+06
4.77875e+06
8.6917e+06
1.17344e+07
7.20028e+06
82958.5
74351.5
118120
214926
232949
231351
229655
231211
235710
239269
246612
254012
248490
241251
237623
240525
255909
297113
377654
500444
705365
977781
1.26958e+06
1.59181e+06
2.04274e+06
3.08318e+06
5.26449e+06
9.50778e+06
1.33808e+07
8.90109e+06
84033.4
88261.1
177755
223091
226422
226397
227243
230192
234019
238013
244757
254063
253398
251468
252449
257728
274099
319267
394826
515977
715163
1.02188e+06
1.38005e+06
1.76227e+06
2.27633e+06
3.42195e+06
5.93689e+06
1.05683e+07
1.52898e+07
1.07298e+07
88492.3
124666
204623
218082
219639
221249
225214
227525
230966
235875
242284
250473
254622
259300
267815
278733
302043
355752
435412
576390
812960
1.18033e+06
1.59533e+06
2.02385e+06
2.61938e+06
3.93037e+06
6.81945e+06
1.18477e+07
1.70656e+07
1.40508e+07
102480
177438
209219
211579
214020
217464
220847
223990
227774
233522
239810
247876
256675
264920
280352
301420
338401
406889
516756
707203
1.02186e+06
1.46545e+06
1.91013e+06
2.38126e+06
3.11762e+06
4.70251e+06
8.07482e+06
1.36388e+07
1.95324e+07
1.64477e+07
140399
199155
204716
206003
209541
213304
216628
220788
225245
231315
237507
246579
259306
271285
291948
324671
380939
475665
648049
926567
1.34275e+06
1.84197e+06
2.28889e+06
2.84562e+06
3.85654e+06
5.92761e+06
1.00026e+07
1.5611e+07
2.1118e+07
1.8815e+07
204313
205489
199911
201534
205829
209787
213128
218173
224075
229809
236368
247057
262216
279222
306752
351656
433399
581421
850146
1.25591e+06
1.76579e+06
2.27242e+06
2.73359e+06
3.46293e+06
4.93551e+06
7.8702e+06
1.32921e+07
1.90468e+07
2.39071e+07
2.04173e+07
283378
215852
198502
198118
202301
206541
210646
216678
223420
230044
237788
249297
265666
288326
325939
388462
506795
758464
1.16132e+06
1.69604e+06
2.25281e+06
2.73973e+06
3.28539e+06
4.34374e+06
6.56161e+06
1.1034e+07
1.92388e+07
2.60299e+07
2.74071e+07
2.03082e+07
770250
740533
708123
674390
642951
611401
582605
554273
528039
503197
480432
459541
440570
422826
406734
391710
378348
366416
356001
346071
337190
333659
331586
332187
338443
351426
375113
411907
465449
539593
634659
755695
901664
1.06289e+06
1.22813e+06
1.38497e+06
1.52884e+06
1.65477e+06
1.75952e+06
1.83945e+06
1.89069e+06
1.90713e+06
1.89584e+06
1.84985e+06
1.73889e+06
1.62319e+06
1.5085e+06
1.39869e+06
1.30694e+06
1.22799e+06
1.15035e+06
1.06687e+06
979172
895427
811450
735757
666199
601507
541480
488377
447084
418736
399708
386388
377722
370658
364767
360355
356876
352682
349433
346260
342846
339683
337002
334740
332788
331083
329553
328133
326755
325325
323757
322060
320294
318522
316851
315421
314264
313207
311966
310290
308047
305222
301924
298366
294815
291485
288530
286084
284234
282907
281984
281276
280933
281118
281642
282522
283438
283888
283504
282304
280552
278992
278559
280075
282745
285816
289009
292704
297909
308311
312407
311267
304800
328811
325179
316501
310444
304419
298411
292483
286284
280980
275663
270729
266491
262348
258973
256236
254238
253528
253437
255203
256574
262285
272234
289492
318052
365638
434505
531901
664374
836158
1.05096e+06
1.30783e+06
1.60655e+06
1.93794e+06
2.29199e+06
2.65686e+06
3.01723e+06
3.36637e+06
3.67797e+06
3.93477e+06
4.13577e+06
4.27389e+06
4.35295e+06
4.37677e+06
4.35181e+06
4.22462e+06
3.96887e+06
3.66862e+06
3.34047e+06
3.02564e+06
2.75042e+06
2.48919e+06
2.22371e+06
1.95492e+06
1.70294e+06
1.48041e+06
1.28971e+06
1.12737e+06
983471
858774
752802
661448
586653
528225
483387
449077
424017
405326
390608
378386
368213
359480
351479
344079
337344
331560
326205
320848
315331
309631
303751
297729
291678
285742
280046
274699
269720
265062
260696
256616
252812
249295
246110
243277
240750
238414
236160
233926
231700