/*--------------------------------*- C++ -*----------------------------------*\
| =========                 |                                                 |
| \\      /  F ield         | OpenFOAM: The Open Source CFD Toolbox           |
|  \\    /   O peration     | Version:  2112                                  |
|   \\  /    A nd           | Website:  www.openfoam.com                      |
|    \\/     M anipulation  |                                                 |
\*---------------------------------------------------------------------------*/
FoamFile
{
    version     2.0;
    format      ascii;
    arch        "LSB;label=32;scalar=64";
    class       volScalarField;
    location    "0.00886";
    object      nut;
}
// * * * * * * * * * * * * * * * * * * * * * * * * * * * * * * * * * * * * * //

dimensions      [0 2 -1 0 0 0 0];

internalField   nonuniform List<scalar> 
13875
(
0.0511677
0.0366255
0.0343673
0.0343314
0.0343037
0.0343318
0.0342916
0.0342583
0.0342948
0.0343151
0.0342922
0.0342902
0.0343219
0.0343413
0.0343302
0.0342933
0.0342676
0.0342895
0.0343025
0.0343265
0.0343038
0.0343341
0.0343823
0.0365581
0.0514335
0.0532619
0.0341201
0.0322237
0.0321083
0.0320651
0.0320841
0.0320355
0.0320043
0.0320328
0.0320487
0.0320288
0.0320431
0.0320537
0.0320724
0.0320603
0.032047
0.0320036
0.0320343
0.032046
0.0320758
0.0320636
0.0321024
0.0322282
0.034046
0.0536484
0.0564568
0.0335619
0.031804
0.0315937
0.0315705
0.0315813
0.0314761
0.0314243
0.0314441
0.0314516
0.0314255
0.0314576
0.0315304
0.0315559
0.0315346
0.0314645
0.0314079
0.0314451
0.031478
0.0315676
0.0315643
0.0315802
0.0317938
0.0334914
0.0566065
0.0590703
0.0332328
0.0314902
0.0312772
0.0312627
0.031266
0.0311483
0.0310886
0.0311123
0.0311163
0.0310831
0.0311085
0.0312136
0.0312401
0.0312182
0.0311167
0.0310728
0.0311024
0.0311464
0.0312539
0.0312551
0.0312625
0.0314841
0.0331704
0.0591513
0.0611258
0.0330039
0.0312467
0.0310029
0.030985
0.0309838
0.0308591
0.0308038
0.0308276
0.0308288
0.0307956
0.0308189
0.0309249
0.0309546
0.0309298
0.0308271
0.0307863
0.0308146
0.0308593
0.0309687
0.0309766
0.0309898
0.0312296
0.0329221
0.0612606
0.0628187
0.032848
0.0310895
0.0307708
0.0307527
0.0307345
0.0305984
0.0305453
0.030568
0.0305667
0.0305342
0.0305542
0.0306624
0.0306947
0.0306677
0.0305625
0.0305259
0.0305532
0.0305998
0.03072
0.0307436
0.0307611
0.0310585
0.0328247
0.0629677
0.0648274
0.033073
0.0311037
0.0306316
0.030569
0.0305265
0.03037
0.0303147
0.0303347
0.0303283
0.0302986
0.0303153
0.0304262
0.0304586
0.0304286
0.0303219
0.0302928
0.0303204
0.0303761
0.0305121
0.03056
0.0306331
0.0311134
0.0330714
0.0648575
0.0670941
0.0339364
0.0314246
0.0306484
0.0304851
0.0303742
0.0301874
0.0301169
0.0301281
0.0301175
0.0300914
0.0301016
0.0302169
0.0302518
0.0302191
0.0301079
0.030089
0.0301205
0.0301898
0.0303573
0.0304673
0.0306298
0.0313927
0.0338964
0.0673505
0.0736463
0.0362964
0.03204
0.030844
0.030474
0.030281
0.0300434
0.0299591
0.0299607
0.0299441
0.0299219
0.0299257
0.0300457
0.030083
0.0300497
0.0299351
0.0299229
0.0299579
0.030044
0.0302598
0.0304503
0.0308023
0.0319358
0.0360017
0.0741903
0.0829007
0.0384709
0.0327357
0.0311879
0.0305792
0.0302409
0.0299687
0.0298757
0.0298641
0.0298407
0.0298229
0.0298238
0.0299426
0.0299821
0.0299507
0.0298473
0.0298327
0.0298727
0.0299653
0.0302201
0.0305503
0.0310809
0.0326237
0.038106
0.0835479
0.0907158
0.0441331
0.0346476
0.0319941
0.0308172
0.0303567
0.0300391
0.0299085
0.0298717
0.0298396
0.0298215
0.0298212
0.0299331
0.0299747
0.0299519
0.0298732
0.0298566
0.0299036
0.0300353
0.0303038
0.0307943
0.0318813
0.0343629
0.0432635
0.0893483
0.0950431
0.054519
0.0403718
0.0334523
0.0318703
0.0308329
0.0303304
0.030138
0.0300579
0.0300129
0.0299901
0.0299917
0.0300866
0.0301325
0.0301231
0.0300737
0.0300651
0.0301372
0.0303216
0.0308361
0.0317994
0.0332274
0.0398464
0.0533643
0.0942618
0.0865818
0.0687307
0.0516308
0.0417892
0.0343926
0.0319435
0.0312838
0.0308241
0.0306375
0.0305454
0.0305016
0.030498
0.0305684
0.0306176
0.0306308
0.030626
0.0306782
0.0308712
0.0313312
0.0320037
0.0347651
0.0415771
0.0509466
0.0687635
0.0866034
0.079577
0.0659254
0.0581558
0.0657323
0.0416751
0.0372184
0.0336573
0.0324349
0.0320342
0.03197
0.0319325
0.0319292
0.0319891
0.0320373
0.032067
0.032094
0.0321425
0.0325354
0.0340804
0.0382637
0.0432135
0.0657199
0.0578351
0.066171
0.0816108
0.0752998
0.0642747
0.0565768
0.0606448
0.0561732
0.0539733
0.0444495
0.0388259
0.0367155
0.0358732
0.0354936
0.0353758
0.0353958
0.0354538
0.0355673
0.0358681
0.0366695
0.0389027
0.0451775
0.0552452
0.0557327
0.0612541
0.0566022
0.0641509
0.074662
0.0671409
0.0618424
0.0543133
0.0572918
0.0560761
0.0572082
0.0544852
0.05313
0.05076
0.0482948
0.0474482
0.0471175
0.047031
0.0471092
0.0472739
0.047772
0.0504286
0.0542813
0.0554577
0.0577184
0.055607
0.058012
0.0543139
0.0614946
0.0664783
0.0623785
0.0582013
0.0524838
0.0550745
0.0568449
0.0611869
0.0681124
0.0728449
0.069941
0.0707242
0.0730246
0.074503
0.0752622
0.074937
0.0733885
0.0725434
0.0700072
0.0728478
0.0686881
0.0611898
0.0562895
0.0552996
0.0519619
0.0575728
0.0624349
0.0569791
0.0546892
0.0531072
0.0569106
0.0598922
0.062922
0.0709857
0.079118
0.0742492
0.0704053
0.0692628
0.0693747
0.0698931
0.0696117
0.0697585
0.0726036
0.0738826
0.076729
0.0708646
0.0641986
0.0609527
0.057648
0.0528174
0.0542607
0.0567863
0.0513484
0.0541444
0.0558803
0.0617944
0.0667824
0.0646972
0.0674326
0.0752292
0.0742675
0.07047
0.0687193
0.068355
0.0684514
0.0689277
0.0698155
0.0717092
0.0728564
0.0731178
0.0677251
0.0667313
0.0697157
0.0630283
0.0562486
0.0544005
0.0521516
0.0493366
0.0573104
0.0603543
0.0656976
0.0685719
0.0644462
0.0639541
0.0695714
0.0718214
0.0704459
0.068742
0.0672313
0.0665117
0.0680645
0.0700267
0.0709693
0.0699204
0.0678154
0.064544
0.0665558
0.0707778
0.066454
0.0608649
0.057627
0.0487739
0.0774604
0.0886275
0.0773254
0.0652648
0.0648925
0.0614921
0.0607218
0.0655746
0.0693522
0.0694759
0.0677038
0.0652543
0.0640759
0.0663939
0.069068
0.0695267
0.0672357
0.0640968
0.0614571
0.0634749
0.0667817
0.0669354
0.0798775
0.0918642
0.0824858
0.128243
0.161286
0.0898272
0.0619701
0.0607737
0.0584954
0.0580579
0.0625848
0.0669433
0.067833
0.0659475
0.0628652
0.0614136
0.0641324
0.0673002
0.0676255
0.0647671
0.0613727
0.0587142
0.0602134
0.062324
0.0638112
0.0930724
0.165308
0.134596
0.152367
0.144454
0.0839433
0.0591244
0.0574379
0.0559368
0.0556919
0.0601359
0.0646498
0.0658228
0.0637706
0.0603551
0.058701
0.0615486
0.0650732
0.0655399
0.0624751
0.0590889
0.0562292
0.0572903
0.0586729
0.0606937
0.0838089
0.143874
0.15323
0.16082
0.144921
0.0765715
0.0569692
0.0546633
0.0536181
0.0536468
0.0578987
0.0624272
0.0636403
0.0613497
0.0577402
0.0561193
0.0590084
0.0627515
0.0634477
0.060231
0.056839
0.0541529
0.0548124
0.0558648
0.0585587
0.0776395
0.150323
0.160464
0.166539
0.145916
0.0725618
0.0554169
0.0526172
0.0516584
0.0519845
0.0559268
0.0602572
0.0613814
0.058993
0.0553159
0.0537277
0.0565864
0.0604604
0.0612672
0.0581466
0.0548366
0.0523634
0.052708
0.0538275
0.0570008
0.0744075
0.154618
0.167164
0.173704
0.149967
0.0698952
0.0539398
0.051021
0.0499963
0.0506257
0.0542045
0.0581836
0.0591498
0.0567594
0.0530904
0.0515297
0.0542833
0.0581268
0.0590618
0.0562221
0.0530732
0.0507801
0.0508088
0.0521497
0.0553253
0.0715131
0.157362
0.17684
0.183397
0.146196
0.0667252
0.0525259
0.0497804
0.0486405
0.0494835
0.0526963
0.0561741
0.0568501
0.0545017
0.0510141
0.0495427
0.0522422
0.0560111
0.0569828
0.0544705
0.0515341
0.0494143
0.0492901
0.0509134
0.0539918
0.0690127
0.155375
0.184205
0.189174
0.145472
0.0648623
0.0514557
0.048823
0.0475808
0.0484835
0.051334
0.0543312
0.0547651
0.0525008
0.0491589
0.0477329
0.0503138
0.0539282
0.0549827
0.0528658
0.0501955
0.0482614
0.048093
0.049811
0.0527839
0.0672032
0.155614
0.191819
0.194254
0.147369
0.063754
0.0505802
0.0480371
0.0468261
0.0476144
0.0500969
0.0526273
0.0528287
0.0506722
0.0474935
0.0460972
0.0485318
0.0519328
0.0530296
0.0513582
0.0489991
0.0472616
0.047121
0.048808
0.0517161
0.0652918
0.15066
0.199827
0.20117
0.144548
0.0627991
0.049874
0.0472506
0.0462245
0.0469495
0.0489887
0.0509799
0.0509124
0.0488626
0.0459194
0.0446136
0.0469911
0.05025
0.0513451
0.0499868
0.0479276
0.0464364
0.0463511
0.0478978
0.0509426
0.0645821
0.151204
0.203473
0.203342
0.140734
0.0622496
0.0494565
0.0465629
0.0456561
0.046325
0.047971
0.0495129
0.049245
0.0473116
0.0445416
0.0432786
0.0455302
0.0485923
0.0496904
0.0487143
0.0470055
0.045771
0.0456721
0.0470169
0.0503287
0.0636571
0.146285
0.208655
0.205803
0.140479
0.0621755
0.0493366
0.0459387
0.0450843
0.0457381
0.0470626
0.0482059
0.0477719
0.0459313
0.0432958
0.0420714
0.0441906
0.0471035
0.0482383
0.0475585
0.046173
0.0451397
0.0449986
0.0462408
0.0500033
0.0630783
0.143187
0.211236
0.209948
0.136049
0.0618569
0.0494031
0.0454606
0.04461
0.0451382
0.0462005
0.046933
0.0463417
0.0445964
0.0421385
0.0409888
0.0430415
0.0458166
0.0469295
0.0465034
0.0454124
0.0445088
0.0444158
0.0456528
0.0499441
0.0630664
0.142336
0.213259
0.211049
0.133756
0.0616864
0.049697
0.045164
0.0441739
0.0445009
0.0454018
0.0458133
0.0451106
0.0434534
0.0411096
0.0400012
0.0419334
0.0445892
0.0457275
0.0455208
0.044712
0.0438949
0.0438914
0.0452319
0.0500622
0.0631535
0.138642
0.215892
0.212083
0.133461
0.0613945
0.0500735
0.045209
0.0437749
0.0439137
0.0446217
0.0447918
0.043986
0.0424112
0.0401788
0.0391171
0.0409455
0.0434673
0.0446105
0.0445992
0.0440184
0.0433243
0.0434961
0.0451272
0.0503921
0.062796
0.136393
0.216666
0.214203
0.13167
0.0610041
0.0504574
0.0454603
0.0434674
0.0433626
0.0438449
0.0438231
0.0429448
0.0414211
0.039304
0.0383027
0.0400635
0.0425166
0.0436561
0.0437586
0.0433231
0.0428084
0.0431402
0.0453345
0.050867
0.0625955
0.136898
0.217455
0.214541
0.13178
0.0608329
0.0512571
0.0459308
0.0432889
0.0428898
0.0431125
0.042921
0.042018
0.0405573
0.0385326
0.0375714
0.039231
0.0415796
0.0427159
0.0429413
0.0426774
0.0423378
0.0429057
0.0457244
0.0515841
0.0621972
0.135811
0.218779
0.214578
0.134112
0.0606918
0.0520309
0.0465651
0.0433296
0.0424357
0.0424287
0.0420943
0.0411828
0.0397818
0.0378257
0.036899
0.0384655
0.0407437
0.041875
0.0421626
0.0420756
0.0418978
0.0429101
0.0463699
0.052378
0.0617869
0.137026
0.218628
0.215022
0.133994
0.0601398
0.0522262
0.0474195
0.0435899
0.0421094
0.0418175
0.0413035
0.0403728
0.0390247
0.0371665
0.0362936
0.037805
0.0400014
0.0411001
0.0414611
0.0415391
0.0415618
0.0431061
0.0472712
0.0527729
0.0613532
0.139753
0.218214
0.214196
0.135958
0.0596299
0.0522163
0.0485183
0.0440295
0.0419379
0.0412917
0.0406161
0.0396678
0.0383696
0.0365675
0.0357294
0.0371562
0.0392886
0.0403784
0.0407973
0.0410823
0.0414202
0.043529
0.0482177
0.0526572
0.0608044
0.140481
0.218087
0.2137
0.138502
0.0594277
0.0521022
0.0499094
0.0447151
0.0419697
0.040918
0.0400159
0.0390224
0.0377571
0.0360144
0.0352168
0.0365714
0.0386176
0.0397081
0.0402284
0.0407491
0.0414989
0.0441577
0.0498469
0.0525382
0.0603925
0.142243
0.217089
0.213838
0.140277
0.0591431
0.051678
0.0505524
0.0455752
0.0421421
0.040748
0.0395248
0.0384304
0.0371744
0.0354879
0.034734
0.0360393
0.03805
0.0391375
0.0397644
0.0405681
0.0416776
0.0451188
0.0509782
0.0523424
0.0607814
0.144737
0.216602
0.213082
0.142509
0.0591231
0.0511385
0.0505395
0.0469681
0.0425422
0.0407376
0.0391854
0.0379262
0.0366577
0.0350148
0.0342923
0.0355278
0.0374791
0.038602
0.039412
0.0405769
0.0420661
0.0463302
0.0510072
0.051757
0.0606186
0.146613
0.216528
0.212534
0.144812
0.0601334
0.0506333
0.0501758
0.0486312
0.0432769
0.0408136
0.0390321
0.037549
0.0362111
0.0345756
0.0338757
0.035053
0.0369766
0.0381637
0.0392156
0.0406996
0.0428283
0.0482963
0.0506702
0.0511748
0.061101
0.148892
0.215831
0.212286
0.146777
0.0601194
0.0500959
0.0495778
0.0494433
0.0445632
0.041092
0.0389773
0.0373036
0.03582
0.0341776
0.0335044
0.0346461
0.0365701
0.0378735
0.0391688
0.0410009
0.0442868
0.0495005
0.0501023
0.0508216
0.0625573
0.151007
0.215218
0.21137
0.148602
0.0612666
0.0497974
0.0488994
0.0491408
0.0467283
0.0418138
0.0390645
0.0372311
0.0356002
0.0338738
0.03319
0.0343058
0.0362969
0.0377563
0.0392165
0.0416422
0.0463687
0.0492801
0.0494102
0.0504023
0.0631505
0.152712
0.214675
0.210305
0.150454
0.0628227
0.0497169
0.0483123
0.0486615
0.0479766
0.0434543
0.0393145
0.0372011
0.0355101
0.0337102
0.0329325
0.0341079
0.036167
0.0377219
0.0394148
0.0431806
0.0479133
0.0487967
0.0487751
0.0501654
0.0638402
0.154346
0.213499
0.208304
0.151525
0.0634709
0.0496129
0.0478318
0.0480333
0.0477123
0.045747
0.040125
0.0372562
0.0354747
0.0336462
0.0328041
0.034036
0.0361385
0.0377806
0.0401849
0.0455312
0.0478667
0.04813
0.048261
0.050189
0.0652883
0.155634
0.21114
0.204916
0.151559
0.0643903
0.049679
0.0474445
0.0473282
0.0472748
0.0472788
0.0419091
0.0375669
0.0355098
0.0336455
0.0328011
0.0340225
0.0361457
0.0380267
0.0418075
0.0473977
0.0474385
0.0473799
0.0477874
0.0501557
0.0657764
0.155846
0.207801
0.19601
0.148342
0.0651459
0.0497733
0.0471587
0.0467372
0.0467273
0.0470947
0.0445279
0.0386916
0.0357206
0.0336804
0.0328228
0.0340378
0.0363018
0.0389722
0.0444348
0.0474825
0.0469064
0.0467602
0.0473991
0.0501268
0.0660652
0.15272
0.198995
0.355554
1.35564
1.73771
1.75068
1.65499
1.5302
1.39656
1.23886
1.07264
0.905138
0.749314
0.618603
0.525858
0.467078
0.433397
0.414799
0.403146
0.39483
0.388047
0.380696
0.371708
0.360843
0.348259
0.333698
0.316777
0.29655
0.270831
0.235345
0.180731
0.113175
0.340491
1.43567
1.82591
1.83439
1.72524
1.59356
1.45153
1.29096
1.11942
0.94357
0.780163
0.642788
0.543356
0.478787
0.439599
0.416583
0.401907
0.391164
0.382599
0.374276
0.364732
0.353724
0.34134
0.327109
0.310373
0.290442
0.26512
0.230006
0.17637
0.111633
0.363686
1.58561
1.91805
1.9059
1.7802
1.63792
1.48791
1.32893
1.15741
0.980404
0.814288
0.671208
0.564881
0.493491
0.447873
0.419683
0.401416
0.388322
0.377832
0.36824
0.358001
0.346928
0.334837
0.320873
0.304478
0.284906
0.259948
0.225196
0.172498
0.110498
0.384211
1.67378
2.01727
1.99049
1.84626
1.68976
1.53303
1.37487
1.2049
1.02885
0.856903
0.70752
0.592736
0.512115
0.458854
0.424934
0.4027
0.386995
0.374862
0.363904
0.352736
0.341637
0.329631
0.315827
0.299714
0.280228
0.255523
0.221048
0.169068
0.109549
0.393601
1.75377
2.12018
2.07632
1.91185
1.74065
1.57762
1.41755
1.24989
1.07892
0.905131
0.749596
0.625737
0.534604
0.47254
0.431929
0.405192
0.387027
0.37236
0.360023
0.348633
0.337472
0.325501
0.311734
0.295615
0.27609
0.251614
0.217397
0.166139
0.108778
0.402176
1.84693
2.22828
2.16404
1.97704
1.7917
1.62216
1.45836
1.29332
1.12733
0.953985
0.794543
0.66208
0.559912
0.48828
0.440551
0.409153
0.38749
0.370895
0.357501
0.345764
0.334423
0.322294
0.308443
0.29221
0.27255
0.248064
0.213932
0.163494
0.108128
0.412451
1.94209
2.33437
2.2514
2.04251
1.84397
1.66629
1.50089
1.33789
1.1746
1.00309
0.842289
0.701362
0.588601
0.506873
0.451397
0.414529
0.389163
0.370774
0.35622
0.343894
0.332082
0.319723
0.305649
0.28915
0.269423
0.244779
0.210682
0.160406
0.107132
0.423228
2.03973
2.44135
2.34114
2.11069
1.89776
1.71303
1.54618
1.38499
1.22254
1.05369
0.891933
0.74404
0.621303
0.529025
0.464715
0.421718
0.392636
0.372013
0.356043
0.342783
0.330342
0.317586
0.303169
0.286378
0.266562
0.241663
0.207125
0.157429
0.106252
0.43417
2.13439
2.54853
2.43503
2.18188
1.95551
1.76524
1.59667
1.437
1.27483
1.10815
0.945012
0.792357
0.660153
0.556047
0.481553
0.431389
0.397939
0.374528
0.356728
0.342204
0.329094
0.315693
0.300846
0.283874
0.263896
0.238624
0.203494
0.154549
0.105414
0.443512
2.22608
2.65546
2.53093
2.25921
2.01978
1.82554
1.65563
1.49654
1.33358
1.16867
1.00487
0.848223
0.706296
0.589528
0.503413
0.444462
0.405377
0.378272
0.358177
0.342009
0.328314
0.31412
0.298803
0.2818
0.261449
0.23574
0.200159
0.151874
0.104703
0.45197
2.31201
2.76101
2.6296
2.34382
2.09277
1.89511
1.724
1.56477
1.40073
1.23721
1.07303
0.91263
0.761944
0.631801
0.53225
0.462276
0.415611
0.383666
0.36066
0.342482
0.327404
0.312993
0.297281
0.279983
0.259132
0.232775
0.19717
0.149465
0.104125
0.460186
2.39407
2.86542
2.73285
2.43705
2.17635
1.97509
1.80252
1.64076
1.47725
1.31522
1.15042
0.986491
0.827917
0.685295
0.570477
0.486751
0.429928
0.391521
0.364434
0.344206
0.327316
0.312012
0.296172
0.278332
0.256938
0.230152
0.194442
0.147327
0.103658
0.469344
2.47663
2.96983
2.84007
2.53888
2.27113
2.06599
1.89135
1.72539
1.56316
1.40273
1.23834
1.07143
0.906085
0.751731
0.620547
0.520287
0.450157
0.40282
0.370567
0.347263
0.328366
0.311701
0.295217
0.276903
0.255018
0.227822
0.191824
0.145307
0.10327
0.478077
2.56058
3.0741
2.94717
2.64619
2.37595
2.16868
1.99037
1.82004
1.65818
1.49986
1.33659
1.16807
0.996987
0.832142
0.684595
0.565466
0.478483
0.418985
0.379354
0.351585
0.32998
0.311756
0.294202
0.275689
0.253202
0.225507
0.189191
0.143324
0.10296
0.485808
2.64231
3.17537
3.05513
2.75713
2.48829
2.27954
2.09727
1.92311
1.76241
1.60662
1.4444
1.27532
1.10009
0.926891
0.763913
0.624752
0.517646
0.442026
0.392074
0.357624
0.332878
0.312477
0.29372
0.273959
0.25108
0.223155
0.186716
0.141547
0.102755
0.491858
2.71484
3.26904
3.16253
2.8739
2.60793
2.39646
2.20729
2.03189
1.8756
1.72306
1.56261
1.39329
1.21607
1.03547
0.859473
0.700387
0.570419
0.474622
0.409953
0.367247
0.337223
0.314093
0.293563
0.272577
0.249139
0.220948
0.184464
0.140101
0.10268
0.497602
2.77703
3.35191
3.26647
2.99383
2.73398
2.52032
2.32304
2.14999
1.99954
1.85061
1.69203
1.52274
1.34422
1.15794
0.970677
0.793357
0.639322
0.519624
0.435942
0.380779
0.343932
0.316683
0.293862
0.271769
0.247748
0.21916
0.18262
0.139036
0.102721
0.502265
2.82736
3.42442
3.36359
3.11386
2.863
2.64801
2.44926
2.28016
2.13417
1.98817
1.83134
1.6625
1.48341
1.29306
1.09693
0.903158
0.72564
0.579528
0.471946
0.400178
0.353695
0.320974
0.295374
0.271866
0.247055
0.218003
0.181364
0.138313
0.102803
0.508129
2.86025
3.48292
3.44876
3.22859
2.99422
2.78216
2.58497
2.41934
2.27692
2.13396
1.97951
1.81132
1.63198
1.43863
1.23556
1.0278
0.828824
0.655379
0.520193
0.427022
0.367417
0.327455
0.29815
0.272886
0.247041
0.217392
0.180754
0.137878
0.10295
0.510086
2.87995
3.51923
3.51931
3.33302
3.12525
2.92193
2.72869
2.56712
2.42733
2.28705
2.13542
1.96872
1.78947
1.59362
1.38414
1.1645
0.946569
0.747136
0.582501
0.464047
0.386689
0.336465
0.301748
0.274129
0.247209
0.217004
0.180332
0.137414
0.103152
0.514023
2.87304
3.52229
3.56577
3.4227
3.2528
3.06575
2.87947
2.72336
2.5868
2.44877
2.29961
2.13572
1.95726
1.75926
1.54289
1.31198
1.07738
0.854853
0.661255
0.514485
0.413637
0.349072
0.306729
0.275597
0.247169
0.216432
0.179671
0.136694
0.103379
0.51548
2.84512
3.4852
3.58045
3.49646
3.37447
3.21247
3.03765
2.88854
2.75561
2.62106
2.47507
2.31345
2.13577
1.9347
1.71124
1.46958
1.22068
0.977848
0.757993
0.579955
0.451105
0.367578
0.314805
0.278603
0.247868
0.216043
0.178813
0.135831
0.103572
0.51907
2.77038
3.391
3.54715
3.54757
3.48611
3.3593
3.2029
3.06355
2.93531
2.80424
2.66194
2.50046
2.32014
2.11312
1.88358
1.6339
1.37319
1.11373
0.871088
0.661418
0.501326
0.393673
0.32656
0.283308
0.249543
0.216253
0.178167
0.135052
0.103747
0.517411
2.59725
3.19226
3.44442
3.56894
3.5847
3.50415
3.37353
3.24647
3.12354
2.99694
2.85515
2.6904
2.50181
2.28644
2.05359
1.7999
1.53178
1.26087
0.997445
0.758135
0.564705
0.428371
0.342434
0.289838
0.252101
0.216982
0.177744
0.134305
0.103838
0.504711
2.07736
2.74324
3.22488
3.54111
3.66203
3.6415
3.54582
3.43471
3.31742
3.19069
3.05157
2.87801
2.68232
2.46485
2.22854
1.97185
1.69823
1.41503
1.13238
0.866599
0.639889
0.472232
0.36343
0.298081
0.255265
0.217891
0.177366
0.133606
0.103884
0.112841
0.180002
0.234577
0.270124
0.295602
0.316085
0.33306
0.347468
0.360007
0.370648
0.379287
0.386343
0.39324
0.401977
0.414668
0.435798
0.474047
0.539857
0.642829
0.783073
0.946395
1.12272
1.29698
1.45814
1.59656
1.72618
1.82545
1.8062
1.39849
0.36235
0.111309
0.175695
0.22934
0.264542
0.289725
0.309867
0.326584
0.340725
0.353061
0.363704
0.373084
0.38144
0.389877
0.400973
0.416886
0.442274
0.48578
0.557565
0.666681
0.813327
0.984625
1.16762
1.3456
1.50908
1.65593
1.794
1.90876
1.89653
1.48101
0.346928
0.110173
0.171885
0.224657
0.259524
0.28438
0.304074
0.320471
0.334287
0.346455
0.357315
0.367194
0.37674
0.387897
0.401038
0.420535
0.450866
0.500432
0.579122
0.694057
0.845298
1.01936
1.20176
1.37704
1.53878
1.69461
1.84523
1.97859
1.98927
1.63452
0.370299
0.109186
0.168515
0.220615
0.255312
0.280034
0.299552
0.315684
0.329248
0.34133
0.352312
0.362874
0.373646
0.386536
0.403076
0.426446
0.462395
0.519335
0.606178
0.728531
0.885521
1.06456
1.24335
1.41473
1.57587
1.74009
1.90653
2.06035
2.08801
1.72369
0.391142
0.108349
0.165598
0.216955
0.251547
0.27625
0.295754
0.311755
0.325225
0.337179
0.348431
0.359598
0.371678
0.386405
0.406233
0.434216
0.476543
0.541675
0.637562
0.768158
0.930841
1.10911
1.28278
1.45136
1.61498
1.78568
1.96812
2.14389
2.1899
1.80356
0.400207
0.107586
0.162955
0.213448
0.248022
0.272882
0.292602
0.308645
0.32219
0.334247
0.34582
0.357584
0.370899
0.387653
0.410429
0.443176
0.492375
0.566106
0.671237
0.809886
0.974354
1.15094
1.32001
1.48721
1.65404
1.83081
2.02787
2.22743
2.297
1.89655
0.40829
0.106916
0.160063
0.210197
0.244659
0.269768
0.289785
0.306018
0.319743
0.332252
0.344349
0.356785
0.371202
0.390063
0.415934
0.453725
0.510318
0.593519
0.708395
0.852156
1.01733
1.19178
1.3582
1.5231
1.69307
1.8779
2.09
2.31182
2.40069
1.99172
0.418942
0.106088
0.157124
0.206815
0.241543
0.266901
0.287067
0.303726
0.317826
0.330553
0.343301
0.356713
0.372663
0.393811
0.423282
0.466586
0.531232
0.624382
0.748595
0.897364
1.06206
1.23381
1.39808
1.5624
1.73465
1.92757
2.1541
2.39963
2.50606
2.08894
0.429067
0.105226
0.154301
0.203345
0.238689
0.264318
0.284634
0.30167
0.31628
0.329191
0.342524
0.357102
0.375154
0.398969
0.432638
0.482443
0.556362
0.660176
0.793298
0.946717
1.11118
1.2796
1.44405
1.60758
1.78138
1.98069
2.22126
2.48959
2.61071
2.1832
0.440144
0.10452
0.15173
0.200217
0.235991
0.26201
0.282574
0.29988
0.315001
0.328433
0.342469
0.358479
0.37876
0.405975
0.444842
0.502756
0.58739
0.702665
0.844773
1.00188
1.16671
1.33274
1.49794
1.66106
1.83653
2.0406
2.29474
2.5817
2.7156
2.27428
0.449333
0.103935
0.149422
0.197369
0.233407
0.259916
0.280828
0.298329
0.313865
0.32812
0.343187
0.360908
0.383931
0.415559
0.46134
0.529532
0.626873
0.754937
0.904822
1.06493
1.23024
1.39468
1.56147
1.72442
1.9017
2.10969
2.376
2.67725
2.8189
2.35939
0.457294
0.103458
0.147335
0.194735
0.230971
0.258027
0.279356
0.297192
0.313207
0.328482
0.345024
0.364848
0.39134
0.428891
0.484005
0.565043
0.67716
0.817371
0.974645
1.13779
1.30305
1.46624
1.63237
1.79811
1.97757
2.18985
2.46659
2.77833
2.92194
2.44117
0.465729
0.103083
0.145454
0.192326
0.228796
0.256417
0.278246
0.296487
0.312897
0.329725
0.348344
0.37092
0.402028
0.447723
0.515173
0.611782
0.739624
0.891674
1.05538
1.22182
1.38652
1.54814
1.71243
1.88285
2.06517
2.28242
2.56701
2.88411
3.02563
2.52335
0.474568
0.102793
0.143697
0.190016
0.226806
0.254935
0.277504
0.295977
0.313238
0.331816
0.352826
0.379666
0.41734
0.474129
0.557421
0.672274
0.815885
0.978465
1.14779
1.31654
1.48076
1.64015
1.80364
1.97855
2.16486
2.38541
2.67379
2.99085
3.12894
2.60692
0.483178
0.10261
0.142128
0.187876
0.224805
0.253143
0.276305
0.295742
0.314336
0.33453
0.359
0.392318
0.439144
0.510792
0.613364
0.74819
0.907211
1.07818
1.25192
1.42127
1.58458
1.74195
1.90548
2.08334
2.27386
2.49693
2.78461
3.09737
3.22905
2.68774
0.490783
0.102557
0.140876
0.185917
0.222842
0.251376
0.275124
0.296005
0.316311
0.33887
0.368128
0.40904
0.469898
0.560722
0.685319
0.839943
1.01294
1.19124
1.36789
1.53733
1.69898
1.85337
2.01339
2.19333
2.39017
2.61611
2.90049
3.20493
3.32253
2.75855
0.496779
0.102621
0.139956
0.184327
0.221269
0.250045
0.274381
0.296591
0.319182
0.345771
0.381448
0.43356
0.512982
0.626983
0.775631
0.948405
1.13307
1.31779
1.49606
1.66522
1.82458
1.9753
2.13011
2.30896
2.51452
2.7425
3.02085
3.31006
3.40558
2.81925
0.502138
0.102719
0.13947
0.183313
0.220376
0.24955
0.274499
0.298216
0.32368
0.355762
0.400534
0.46865
0.571114
0.711568
0.884211
1.07396
1.26791
1.45662
1.63531
1.80372
1.96098
2.10835
2.25821
2.4343
2.64347
2.87384
3.14225
3.40858
3.47779
2.86853
0.506549
0.102898
0.139392
0.183035
0.22015
0.249931
0.275789
0.301259
0.330241
0.369445
0.427149
0.516175
0.645904
0.814284
1.00922
1.21363
1.41467
1.60626
1.78455
1.95219
2.10705
2.25149
2.3974
2.56994
2.77772
3.00726
3.26015
3.49545
3.53584
2.89943
0.512161
0.103124
0.139218
0.18296
0.2202
0.250611
0.277638
0.305364
0.339427
0.388364
0.463565
0.578033
0.737575
0.932909
1.14747
1.36429
1.57166
1.76569
1.9435
2.10934
2.26118
2.40309
2.5463
2.71485
2.91872
3.1409
3.36808
3.56745
3.57206
2.91774
0.513801
0.103363
0.138551
0.182472
0.219868
0.25082
0.279454
0.310582
0.35218
0.414686
0.512632
0.656055
0.84547
1.06521
1.29696
1.52542
1.73994
1.93585
2.11277
2.27537
2.42439
2.56365
2.70389
2.86729
3.06475
3.27134
3.46103
3.61526
3.5764
2.91092
0.517562
0.103473
0.137439
0.181445
0.219305
0.251364
0.282164
0.318075
0.369996
0.451049
0.576882
0.751567
0.968999
1.21028
1.45735
1.69735
1.91919
2.11731
2.29302
2.45271
2.59827
2.73417
2.87118
3.02783
3.2144
3.39602
3.53728
3.6322
3.54041
2.88248
0.518956
0.103563
0.136193
0.180458
0.219275
0.252872
0.286638
0.329293
0.394895
0.499768
0.657117
0.863765
1.10599
1.36528
1.62507
1.87443
2.1035
2.30644
2.48329
2.6422
2.7834
2.91625
3.04918
3.19658
3.36505
3.51062
3.59036
3.60102
3.44671
2.80752
0.522316
0.103699
0.135395
0.179631
0.219658
0.254798
0.29279
0.344792
0.428514
0.561901
0.75266
0.989798
1.25308
1.52576
1.79364
2.04762
2.28203
2.49329
2.67785
2.84062
2.97854
3.10732
3.2355
3.37134
3.51432
3.61209
3.61256
3.49973
3.24764
2.63302
0.520919
0.103871
0.135161
0.179504
0.220308
0.25703
0.300364
0.364672
0.471099
0.636721
0.860223
1.12483
1.40678
1.69081
1.96488
2.22116
2.45623
2.67392
2.86861
3.04282
3.17942
3.30573
3.4282
3.54849
3.65655
3.69235
3.5857
3.28136
2.79769
2.10675
0.507986
0.293387
0.289892
0.288913
0.290533
0.29623
0.306454
0.320169
0.337496
0.357633
0.380203
0.404429
0.42974
0.455388
0.480789
0.50557
0.529271
0.551581
0.572336
0.591484
0.609003
0.624855
0.639298
0.652461
0.664576
0.675641
0.68565
0.694598
0.702534
0.709556
0.715771
0.721311
0.726223
0.730515
0.734207
0.737274
0.739716
0.741527
0.742704
0.743308
0.743212
0.742283
0.740677
0.73825
0.734956
0.73076
0.725603
0.71942
0.712291
0.704121
0.69507
0.685003
0.673954
0.661968
0.649012
0.635139
0.620539
0.605283
0.589449
0.573134
0.556423
0.539391
0.522102
0.504627
0.487055
0.469442
0.451804
0.43414
0.416445
0.398724
0.381005
0.363329
0.345752
0.328341
0.311155
0.294257
0.277684
0.261481
0.245689
0.230359
0.215553
0.201349
0.187828
0.17509
0.163219
0.152305
0.14243
0.133659
0.126033
0.119545
0.114148
0.109758
0.10627
0.103566
0.101528
0.100035
0.0989668
0.0982272
0.0977475
0.0974656
0.0973502
0.0973479
0.0974353
0.0975609
0.0977475
0.097975
0.0982394
0.098548
0.0989447
0.0993943
0.0998634
0.10032
0.100714
0.101051
0.101471
0.10204
0.102565
0.103036
0.103191
0.103262
0.10335
0.103507
0.10365
0.103959
0.10406
0.104062
2.73869
2.82458
2.94914
3.09488
3.27023
3.47776
3.71112
3.96507
4.23203
4.50491
4.77652
5.04048
5.29131
5.52548
5.74078
5.93572
6.10999
6.26424
6.40001
6.51908
6.62054
6.70814
6.78302
6.84794
6.90444
6.95347
6.99542
7.03162
7.06331
7.09105
7.11554
7.13733
7.15354
7.16652
7.17587
7.1813
7.18241
7.17859
7.16857
7.15311
7.13294
7.10617
7.07407
7.0363
6.99246
6.94198
6.8842
6.81981
6.74756
6.66395
6.56868
6.46084
6.34215
6.21348
6.07531
5.93151
5.78125
5.62509
5.46457
5.30104
5.1355
4.96794
4.79818
4.62665
4.45401
4.2805
4.1064
3.93227
3.75882
3.58721
3.41857
3.25344
3.09212
2.93472
2.78092
2.63021
2.48197
2.33534
2.18945
2.0436
1.89756
1.75166
1.60683
1.46424
1.32521
1.19134
1.06393
0.944512
0.834204
0.733905
0.643967
0.564425
0.495033
0.435275
0.384483
0.341608
0.305616
0.275667
0.250893
0.230437
0.213429
0.199276
0.187465
0.177759
0.169825
0.163122
0.15746
0.152862
0.149336
0.146651
0.144773
0.143335
0.141374
0.13984
0.138864
0.138242
0.137573
0.136373
0.135248
0.134421
0.134107
0.134137
0.134633
0.134952
0.135114
5.1568
5.26976
5.43196
5.6313
5.87105
6.15503
6.48029
6.84125
7.22932
7.63477
8.0465
8.45397
8.84845
9.22281
9.57117
9.88982
10.1771
10.4329
10.6584
10.8553
11.0252
11.173
11.3003
11.4077
11.497
11.5715
11.6326
11.6823
11.7219
11.7528
11.7756
11.7903
11.797
11.7957
11.7873
11.7721
11.7497
11.72
11.6827
11.6375
11.584
11.5215
11.4501
11.3696
11.2797
11.1798
11.0697
10.9488
10.8178
10.6757
10.5219
10.3563
10.1794
9.99224
9.79455
9.58526
9.36579
9.13775
8.9027
8.6615
8.41501
8.16551
7.91214
7.65578
7.39681
7.13576
6.87286
6.60824
6.34239
6.07591
5.81005
5.54566
5.28348
5.02402
4.76771
4.51498
4.26638
4.02215
3.78266
3.54839
3.31996
3.09809
2.8836
2.67718
2.47917
2.28998
2.10956
1.93809
1.77521
1.62071
1.47441
1.33629
1.20647
1.08522
0.972758
0.869439
0.775521
0.691167
0.616083
0.55014
0.49261
0.442976
0.400569
0.364506
0.334189
0.308388
0.286615
0.268234
0.25337
0.241703
0.232799
0.225217
0.217448
0.211059
0.206327
0.202373
0.198254
0.193902
0.190251
0.187276
0.185072
0.183375
0.182316
0.181222
0.180196
7.26634
7.39276
7.58184
7.81781
8.10244
8.43557
8.81265
9.22611
9.66623
10.1221
10.5826
11.0371
11.4761
11.8922
12.2804
12.6372
12.9603
13.2493
13.5051
13.7295
13.9243
14.093
14.2367
14.3571
14.4556
14.5354
14.5985
14.6468
14.6819
14.7049
14.717
14.7192
14.7121
14.6962
14.6717
14.6386
14.5969
14.5464
14.4871
14.4187
14.3409
14.2537
14.157
14.0509
13.9351
13.8097
13.6745
13.5291
13.3743
13.2097
13.0352
12.8507
12.6555
12.4528
12.2416
12.0218
11.7932
11.5565
11.3136
11.0637
10.8066
10.5403
10.2662
9.98535
9.69744
9.40357
9.10671
8.80549
8.4998
8.19079
7.87947
7.56643
7.2525
6.93845
6.62479
6.3129
6.00392
5.69889
5.39876
5.10437
4.81659
4.53658
4.26511
4.00286
3.75027
3.5077
3.27546
3.05346
2.8416
2.63945
2.44692
2.26366
2.08938
1.92395
1.76709
1.61877
1.47875
1.347
1.22302
1.10733
0.999779
0.900414
0.810348
0.729077
0.657016
0.59289
0.536695
0.487464
0.445493
0.411423
0.384034
0.359607
0.33582
0.315396
0.29921
0.285658
0.27263
0.260671
0.250963
0.243056
0.236669
0.231606