/*--------------------------------*- C++ -*----------------------------------*\
| =========                 |                                                 |
| \\      /  F ield         | OpenFOAM: The Open Source CFD Toolbox           |
|  \\    /   O peration     | Version:  2112                                  |
|   \\  /    A nd           | Website:  www.openfoam.com                      |
|    \\/     M anipulation  |                                                 |
\*---------------------------------------------------------------------------*/
FoamFile
{
    version     2.0;
    format      ascii;
    arch        "LSB;label=32;scalar=64";
    class       volScalarField;
    location    "0.00125";
    object      p;
}
// * * * * * * * * * * * * * * * * * * * * * * * * * * * * * * * * * * * * * //

dimensions      [1 -1 -2 0 0 0 0];

internalField   nonuniform List<scalar> 
13875
(
951459
984012
973640
975536
973368
974379
974517
974472
974908
974911
975219
975155
974848
975009
974730
974755
974392
973938
974305
974251
973102
975531
972409
982509
945183
733654
659176
672100
676985
670289
668577
668585
670187
677341
678848
679344
679124
677200
677175
679254
678241
674774
669930
669327
668800
670383
677050
672301
657266
730489
736743
635691
664662
653775
648447
646082
645184
645439
647355
649528
649526
647895
647117
647312
650299
648858
645613
644721
644402
645685
647766
652190
662160
632375
733247
743391
636359
665567
653938
648744
646287
645338
645528
645638
647126
647336
647400
647172
647344
647771
647047
645630
644805
644517
645867
648034
652315
662915
632987
738972
757230
639436
668189
654669
649655
646903
645792
645852
645742
647215
647589
647690
647415
647606
647855
647132
645794
645092
644909
646412
648829
652911
665227
635660
750245
759205
648276
674140
656729
651620
648224
646758
646572
646170
647497
648350
648498
647984
648260
648157
647426
646284
645766
645823
647603
650577
654814
670885
643474
752051
765824
669249
686817
661930
655700
650947
648734
648073
647347
648302
649466
649757
649160
649375
648925
648201
647456
647263
647863
650275
654528
660594
682624
666425
756683
793331
720548
713874
676177
664642
656802
652868
651238
650022
650290
651508
652149
651607
651579
650811
650216
650106
650489
652027
655750
662776
673883
708187
716636
783785
915983
833746
771816
708419
683097
668700
661312
657847
655777
655050
655898
657061
656911
656277
655240
655001
655795
657291
660388
666844
679682
703173
762879
826299
914770
1.55235e+06
1.04533e+06
846768
750902
708570
686706
675775
670327
667269
665705
665762
667297
668113
666521
665266
665536
667266
670373
675134
684630
704280
744007
836052
1.03257e+06
1.5334e+06
2.99462e+06
1.44207e+06
1.00224e+06
827722
753989
719931
703566
695481
691005
688570
687714
688912
691169
688829
687389
688125
690616
695690
702604
716508
745726
809567
962086
1.3687e+06
2.90491e+06
5.86474e+06
2.41222e+06
1.46385e+06
1.03613e+06
861152
795308
766546
752881
745882
742227
740209
740019
743534
741025
739924
741248
744794
752315
764645
790030
846699
990420
1.33679e+06
2.30504e+06
5.68549e+06
5.6795e+06
4.83152e+06
3.42787e+06
1.82692e+06
1.17054e+06
1.0064e+06
941403
911422
897049
889496
885915
882643
887890
884829
885422
888107
894496
908184
936661
996840
1.14233e+06
1.61964e+06
2.6406e+06
4.85919e+06
5.46162e+06
5.16081e+06
4.71565e+06
4.94791e+06
5.03995e+06
2.14081e+06
1.70596e+06
1.54325e+06
1.46527e+06
1.43337e+06
1.41648e+06
1.41613e+06
1.39859e+06
1.41926e+06
1.40494e+06
1.40974e+06
1.41728e+06
1.43392e+06
1.46825e+06
1.54631e+06
1.71582e+06
2.20225e+06
4.7867e+06
5.08492e+06
4.77437e+06
4.89224e+06
4.22917e+06
4.39612e+06
4.8853e+06
5.28177e+06
5.2675e+06
4.16426e+06
3.84689e+06
3.57469e+06
3.56582e+06
3.39076e+06
3.45776e+06
3.31957e+06
3.43497e+06
3.35977e+06
3.38921e+06
3.41043e+06
3.47617e+06
3.61113e+06
3.80877e+06
3.99885e+06
4.96542e+06
5.07348e+06
5.0106e+06
4.56511e+06
4.4916e+06
3.85151e+06
3.97434e+06
4.76166e+06
5.50834e+06
6.89574e+06
8.19463e+06
9.5919e+06
9.48814e+06
1.00059e+07
9.76801e+06
1.00503e+07
9.85362e+06
1.00054e+07
9.88193e+06
9.97528e+06
9.87198e+06
9.89182e+06
9.66361e+06
9.58757e+06
8.65927e+06
7.21046e+06
5.59066e+06
4.97764e+06
4.18379e+06
4.17204e+06
3.12788e+06
3.7251e+06
4.93298e+06
5.64321e+06
6.88734e+06
7.79915e+06
7.8385e+06
7.69159e+06
7.47062e+06
7.36627e+06
7.12941e+06
7.22419e+06
7.00128e+06
7.16733e+06
7.15296e+06
7.28662e+06
7.41359e+06
7.63339e+06
7.76637e+06
7.9362e+06
7.20678e+06
5.94175e+06
5.12795e+06
3.91238e+06
3.43571e+06
2.64484e+06
3.53766e+06
4.81399e+06
5.35391e+06
5.91078e+06
6.10655e+06
5.84874e+06
5.84065e+06
5.84312e+06
5.86325e+06
5.87517e+06
5.88613e+06
5.88909e+06
5.88672e+06
5.87989e+06
5.86958e+06
5.8466e+06
5.83777e+06
5.84397e+06
6.01858e+06
6.10308e+06
5.69615e+06
5.0585e+06
3.49802e+06
2.51362e+06
1.44964e+06
2.52716e+06
3.92138e+06
4.32889e+06
4.52471e+06
4.68745e+06
4.79927e+06
4.97873e+06
5.13336e+06
5.23376e+06
5.29506e+06
5.32633e+06
5.34563e+06
5.33859e+06
5.31469e+06
5.26781e+06
5.18457e+06
5.05046e+06
4.89301e+06
4.77361e+06
4.63976e+06
4.48671e+06
4.07189e+06
2.73366e+06
1.52897e+06
730631
1.71892e+06
2.76433e+06
3.22082e+06
3.42673e+06
3.69611e+06
4.05288e+06
4.37013e+06
4.57609e+06
4.69774e+06
4.77977e+06
4.82783e+06
4.85393e+06
4.84976e+06
4.81678e+06
4.75186e+06
4.64815e+06
4.46593e+06
4.14901e+06
3.75215e+06
3.46394e+06
3.26176e+06
2.81071e+06
1.79969e+06
734174
761994
1.24744e+06
1.87761e+06
2.29498e+06
2.6134e+06
3.00696e+06
3.4629e+06
3.8173e+06
4.03178e+06
4.16896e+06
4.2668e+06
4.32579e+06
4.35432e+06
4.34659e+06
4.30388e+06
4.22114e+06
4.09647e+06
3.89338e+06
3.51664e+06
3.01956e+06
2.60314e+06
2.28219e+06
1.87751e+06
1.21494e+06
752204
944986
1.06407e+06
1.31055e+06
1.72829e+06
2.08406e+06
2.54112e+06
2.97283e+06
3.29831e+06
3.51142e+06
3.66125e+06
3.76565e+06
3.82789e+06
3.85553e+06
3.84278e+06
3.79294e+06
3.69966e+06
3.55578e+06
3.3476e+06
3.00563e+06
2.54495e+06
2.05899e+06
1.69867e+06
1.30714e+06
1.04383e+06
946868
1.33474e+06
1.06997e+06
1.099e+06
1.39668e+06
1.74044e+06
2.1953e+06
2.5691e+06
2.84908e+06
3.05416e+06
3.20242e+06
3.30402e+06
3.36342e+06
3.39109e+06
3.37147e+06
3.31905e+06
3.22252e+06
3.07479e+06
2.86794e+06
2.58313e+06
2.20124e+06
1.71719e+06
1.3787e+06
1.10483e+06
1.05914e+06
1.37516e+06
1.43098e+06
1.09245e+06
1.09758e+06
1.24471e+06
1.5168e+06
1.89752e+06
2.21409e+06
2.46244e+06
2.64884e+06
2.78697e+06
2.88694e+06
2.94442e+06
2.96871e+06
2.94907e+06
2.89478e+06
2.79545e+06
2.65372e+06
2.46492e+06
2.20692e+06
1.89014e+06
1.51341e+06
1.23322e+06
1.08657e+06
1.08138e+06
1.39691e+06
1.4438e+06
1.13079e+06
1.10714e+06
1.17246e+06
1.36687e+06
1.6548e+06
1.91344e+06
2.13752e+06
2.30632e+06
2.43093e+06
2.52495e+06
2.57581e+06
2.59838e+06
2.57773e+06
2.52974e+06
2.43186e+06
2.30408e+06
2.13106e+06
1.89968e+06
1.63543e+06
1.36534e+06
1.16437e+06
1.09546e+06
1.11975e+06
1.40138e+06
1.44955e+06
1.18885e+06
1.12977e+06
1.13531e+06
1.25913e+06
1.45818e+06
1.66906e+06
1.86217e+06
2.0122e+06
2.12434e+06
2.20867e+06
2.25403e+06
2.27291e+06
2.25421e+06
2.20819e+06
2.12166e+06
2.00358e+06
1.85076e+06
1.65467e+06
1.44157e+06
1.25698e+06
1.12809e+06
1.11719e+06
1.17168e+06
1.40084e+06
1.45946e+06
1.28317e+06
1.17091e+06
1.1347e+06
1.18243e+06
1.31064e+06
1.47671e+06
1.63894e+06
1.76751e+06
1.86597e+06
1.93747e+06
1.97654e+06
1.99126e+06
1.97537e+06
1.93238e+06
1.8581e+06
1.75469e+06
1.6218e+06
1.45867e+06
1.28786e+06
1.16944e+06
1.12116e+06
1.15792e+06
1.27242e+06
1.41143e+06
1.49158e+06
1.43907e+06
1.21211e+06
1.13067e+06
1.12754e+06
1.19468e+06
1.31647e+06
1.44481e+06
1.55417e+06
1.6397e+06
1.70424e+06
1.73751e+06
1.75228e+06
1.73635e+06
1.70046e+06
1.63563e+06
1.54621e+06
1.43615e+06
1.30736e+06
1.17935e+06
1.11469e+06
1.11717e+06
1.19061e+06
1.41556e+06
1.44613e+06
1.56628e+06
1.53289e+06
1.23572e+06
1.11871e+06
1.09082e+06
1.1119e+06
1.19318e+06
1.29318e+06
1.38104e+06
1.45112e+06
1.50358e+06
1.53356e+06
1.54516e+06
1.53197e+06
1.50005e+06
1.44534e+06
1.37104e+06
1.27874e+06
1.18e+06
1.09668e+06
1.07797e+06
1.10322e+06
1.20376e+06
1.46609e+06
1.52669e+06
1.72888e+06
1.58605e+06
1.24887e+06
1.10429e+06
1.05666e+06
1.05269e+06
1.09483e+06
1.16325e+06
1.23017e+06
1.28966e+06
1.33644e+06
1.35966e+06
1.36942e+06
1.35791e+06
1.33241e+06
1.28562e+06
1.22405e+06
1.15424e+06
1.08454e+06
1.03817e+06
1.04086e+06
1.086e+06
1.2281e+06
1.54507e+06
1.68901e+06
1.81711e+06
1.61256e+06
1.27339e+06
1.0918e+06
1.01735e+06
997300
1.01395e+06
1.05863e+06
1.10816e+06
1.15277e+06
1.18817e+06
1.20979e+06
1.21789e+06
1.2084e+06
1.18571e+06
1.14886e+06
1.10218e+06
1.05046e+06
1.00527e+06
987385
1.00583e+06
1.07612e+06
1.24949e+06
1.61682e+06
1.85675e+06
1.81863e+06
1.63942e+06
1.31752e+06
1.0907e+06
983589
951245
948428
973868
1.00522e+06
1.0377e+06
1.06788e+06
1.08314e+06
1.09014e+06
1.08244e+06
1.06558e+06
1.03621e+06
1.00324e+06
967902
939814
941338
971065
1.07439e+06
1.28581e+06
1.66981e+06
1.86483e+06
1.81392e+06
1.64918e+06
1.37652e+06
1.09323e+06
955375
903252
890575
899966
920066
941651
960932
974573
980175
973065
958298
937308
914744
892275
884025
895692
945948
1.07979e+06
1.35356e+06
1.67858e+06
1.86093e+06
1.80305e+06
1.64839e+06
1.49885e+06
1.10677e+06
937439
865166
842278
839630
847994
859182
874350
882240
886071
881257
871488
857579
845251
834609
836745
857633
928007
1.08937e+06
1.44648e+06
1.67682e+06
1.84537e+06
1.78066e+06
1.64375e+06
1.55881e+06
1.13654e+06
937700
834390
794260
783708
784422
790880
798365
804209
806628
802836
795908
787136
780625
778249
788897
827341
928380
1.11647e+06
1.59906e+06
1.67233e+06
1.81323e+06
1.76346e+06
1.62218e+06
1.55719e+06
1.16799e+06
940908
812320
757446
739057
733368
732684
734558
736935
738073
734566
731825
730221
730238
733473
749311
802113
934692
1.1677e+06
1.60421e+06
1.65824e+06
1.75846e+06
1.73339e+06
1.58569e+06
1.55293e+06
1.23361e+06
955602
801518
725219
693688
683549
681193
680772
680871
680874
679248
679286
678760
680262
689335
720197
792532
945187
1.24303e+06
1.5967e+06
1.62131e+06
1.71218e+06
1.68505e+06
1.55779e+06
1.54223e+06
1.3649e+06
987620
803942
705133
664349
646132
636644
632208
630530
630542
629880
630871
634678
642189
657656
695946
794464
972286
1.39449e+06
1.57956e+06
1.57478e+06
1.66708e+06
1.64764e+06
1.53208e+06
1.51334e+06
1.37267e+06
1.03116e+06
809898
698363
636156
608195
597320
592798
590054
589183
589673
592033
594919
603764
629018
687001
806437
1.02845e+06
1.40126e+06
1.54245e+06
1.52743e+06
1.63456e+06
1.61013e+06
1.50088e+06
1.45723e+06
1.36889e+06
1.12242e+06
829086
700050
622985
586399
565765
555772
552491
551920
552205
554865
563723
579879
613440
688235
825096
1.12024e+06
1.39322e+06
1.46351e+06
1.48935e+06
1.60975e+06
1.56475e+06
1.46925e+06
1.39252e+06
1.35636e+06
1.22191e+06
867966
708101
621875
563350
538790
529260
523289
521436
522601
527186
535620
557255
612630
695308
863881
1.24996e+06
1.37061e+06
1.38476e+06
1.46803e+06
1.58325e+06
1.54765e+06
1.43891e+06
1.33811e+06
1.3223e+06
1.22061e+06
931352
722568
623417
556770
522470
503297
495851
493993
494780
500445
519702
549733
615099
717411
947415
1.24763e+06
1.3215e+06
1.33683e+06
1.44244e+06
1.54986e+06
1.51478e+06
1.4149e+06
1.28923e+06
1.25513e+06
1.21279e+06
1.06468e+06
756013
631582
557629
511216
488278
476546
472354
475086
484509
504231
550138
620882
754345
1.10334e+06
1.22794e+06
1.24756e+06
1.29137e+06
1.42277e+06
1.51685e+06
1.46719e+06
1.38951e+06
1.26398e+06
1.19826e+06
1.1898e+06
1.08954e+06
823902
651701
561908
511352
473753
459538
455769
458232
469577
504057
553019
638289
829400
1.1033e+06
1.18436e+06
1.18656e+06
1.26692e+06
1.39806e+06
1.47401e+06
1.43577e+06
1.36342e+06
1.24528e+06
1.15954e+06
1.1397e+06
1.08489e+06
951660
687026
571739
512533
473730
451126
441995
448958
469072
506050
564624
678440
986928
1.09557e+06
1.12347e+06
1.14888e+06
1.24217e+06
1.35926e+06
1.42842e+06
1.4019e+06
1.32691e+06
1.23371e+06
1.12639e+06
1.08118e+06
1.06824e+06
991684
762879
597674
518424
475186
451268
442084
448932
469767
511049
589320
753053
992841
1.07021e+06
1.07071e+06
1.11785e+06
1.22746e+06
1.32111e+06
1.38361e+06
1.35253e+06
1.28106e+06
1.21085e+06
1.10694e+06
1.03948e+06
1.03186e+06
989351
897866
655204
534087
480145
452419
443085
449646
473078
525118
642241
904430
987393
1.01802e+06
1.03242e+06
1.10127e+06
1.20758e+06
1.28416e+06
1.33511e+06
1.29805e+06
1.23613e+06
1.19023e+06
1.09231e+06
1.01396e+06
981538
974663
918826
768136
565867
491876
455707
446303
452943
483901
559268
756135
918851
971278
971755
1.01205e+06
1.08932e+06
1.18633e+06
1.23468e+06
1.28127e+06
1.20268e+06
1.18609e+06
1.15495e+06
1.07759e+06
993409
943974
942894
915976
853435
637174
520004
464952
454821
461297
508828
630337
856152
915650
937100
934690
988527
1.07546e+06
1.14842e+06
1.17598e+06
1.18531e+06
1.0649e+06
1.1149e+06
1.10497e+06
1.05723e+06
981364
921040
906098
904808
872521
786749
583923
486909
475163
480882
566234
778235
871587
904077
903483
913874
978646
1.05518e+06
1.09742e+06
1.1048e+06
1.05154e+06
71185.8
71050.3
71036.3
71001.2
71119.9
71110.7
71099.8
70990.6
70862.7
70758.8
70695.5
70663
70647.6
70640.9
70638.2
70637.3
70637
70636.9
70636.9
70636.8
70636.7
70636.4
70636
70635.9
70635.6
70637.2
70629.7
70644.2
70606.4
70667.6
71168.8
71046.6
71007.1
70961.5
71076.6
71106.7
71125.1
71024.1
70893.8
70779.5
70706.4
70668.3
70649.9
70641.7
70638.5
70637.4
70637
70636.9
70636.9
70636.8
70636.6
70636.3
70636
70635.9
70635.7
70637.3
70630.6
70643.6
70620.3
70654.4
71145.6
71036.2
70966
70929.4
71058
71110.9
71161.7
71056.2
70917.8
70793.1
70713.1
70671.1
70650.9
70642
70638.6
70637.4
70637
70636.9
70636.9
70636.8
70636.5
70636.2
70636
70636
70636
70637.3
70632.7
70641.8
70628.9
70646.6
71134
71023.1
70933.5
70908.6
71049.6
71134.5
71202
71084.8
70938.1
70804.2
70718.3
70673.1
70651.5
70642.1
70638.6
70637.4
70637
70636.9
70636.9
70636.8
70636.5
70636.1
70636
70636.2
70636.3
70637.3
70634.3
70640.2
70632.4
70642.9
71118.2
70988.5
70903
70898.3
71042.9
71164.9
71237.5
71104.4
70951.4
70811
70721.3
70673.9
70651.6
70642.1
70638.5
70637.4
70637
70636.9
70636.9
70636.8
70636.5
70636.2
70636.1
70636.3
70636.6
70637.2
70635.5
70639.1
70634.4
70640.7
71110.1
70946.3
70878.1
70896.9
71051.8
71196
71264
71111.8
70955.7
70812
70721.4
70673.8
70651.4
70642
70638.5
70637.3
70637
70636.9
70636.9
70636.8
70636.5
70636.2
70636.1
70636.4
70636.8
70637.1
70636.3
70638.4
70635.7
70639.2
71104
70908.1
70871.2
70901
71084.3
71222.1
71277.8
71109.7
70954.5
70810.7
70720.8
70673.3
70651.2
70641.8
70638.4
70637.3
70637
70636.9
70636.9
70636.8
70636.6
70636.2
70636.1
70636.4
70636.8
70637.1
70636.9
70638.1
70636.5
70638.4
71099.5
70876
70872.1
70922.7
71109.4
71237.1
71279
71103.2
70950.7
70808.1
70719.4
70672.6
70650.7
70641.5
70638.2
70637.2
70637
70636.9
70636.9
70636.8
70636.6
70636.3
70636.2
70636.4
70636.8
70637.1
70637.3
70638
70637
70637.6
71097.1
70851.1
70884.3
70982.4
71125.8
71250.3
71276.8
71090.6
70943.5
70803.5
70717.2
70671.2
70649.8
70640.9
70638
70637.2
70637
70636.9
70636.9
70636.8
70636.7
70636.5
70636.3
70636.4
70636.7
70637.1
70637.4
70637.9
70637.3
70637.3
71082.8
70833.8
70894.4
71029.7
71137.4
71255.7
71268.1
71068.8
70931.2
70796
70713.3
70668.8
70648.4
70640.5
70637.9
70637.2
70637
70636.9
70636.9
70636.9
70636.8
70636.6
70636.4
70636.4
70636.7
70637.1
70637.4
70637.8
70637.4
70637.4
71083.8
70827.6
70914
71076.2
71147
71258.3
71249.3
71043.5
70914.4
70784.7
70706.8
70665.7
70647.3
70640.2
70637.8
70637.1
70637
70636.9
70636.9
70636.9
70636.8
70636.7
70636.6
70636.4
70636.7
70637.1
70637.4
70637.7
70637.5
70637.2
71107.9
70854.2
70987.3
71134.2
71163.8
71244.3
71215.4
71013.6
70894.1
70772.5
70700.9
70663.4
70646.5
70639.9
70637.7
70637.1
70637
70636.9
70636.9
70636.9
70636.9
70636.8
70636.7
70636.6
70636.6
70637
70637.2
70637.6
70637.5
70637.2
71192.1
71017.5
71147.8
71282.4
71236.5
71220.6
71179.1
70980.5
70872.5
70761.1
70695.8
70661.2
70645.6
70639.6
70637.6
70637.1
70637
70636.9
70636.9
70636.9
70636.9
70636.9
70636.8
70636.7
70636.6
70636.9
70637
70637.5
70637.8
70638.3
71370.8
71395.9
71576.6
71703.7
71487.6
71309.7
71171
70952.9
70852.3
70750.4
70690.9
70659.2
70644.9
70639.3
70637.5
70637.1
70637
70636.9
70636.9
70636.9
70636.9
70636.9
70636.9
70636.8
70636.7
70636.7
70637.3
70637.1
70637.5
70637.6
71805.2
72319.3
72935.6
73203.5
72497.4
71732.4
71307.3
70973.2
70840.1
70740.7
70686
70657.1
70644.1
70639.1
70637.5
70637
70637
70636.9
70636.9
70636.9
70636.9
70636.9
70636.9
70636.9
70636.8
70636.5
70636.9
70636.8
70636.8
70637.1
73081.3
74867.6
76813.1
78050.7
76715
73861.2
71952.7
71136.8
70873.3
70737.9
70681.9
70655.1
70643.3
70638.8
70637.4
70637
70636.9
70636.9
70636.9
70636.9
70636.9
70636.9
70636.9
70637
70637
70636.8
70636.5
70636.7
70636.7
70637.1
76820
80972.5
87755.7
94803.7
93410.5
82359.7
75298.3
71922.7
71038.5
70768.8
70683.9
70653.7
70642.6
70638.6
70637.3
70637
70636.9
70636.9
70636.9
70636.9
70636.9
70636.9
70636.9
70637
70637
70637
70636.9
70636.8
70636.9
70637.1
86709.6
89666
93458.9
103979
114783
115934
90353.8
75832.8
71786.2
70909.3
70707.4
70656.1
70642.2
70638.4
70637.3
70637
70636.9
70636.9
70636.9
70636.9
70636.9
70636.9
70637
70637
70637
70637
70637
70637
70637
70637.1
93350.9
90362.2
92342.8
102517
116604
129115
132000
93886.8
75324.5
71496.2
70807.9
70670.7
70643.8
70638.3
70637.2
70637
70636.9
70636.9
70636.9
70636.9
70636.9
70636.9
70637
70637
70637
70637
70637
70637
70637
70637.1
92450.7
87612.6
86336.4
92412.1
113200
129423
142671
140876
90768.4
73974.9
71187.8
70730.5
70651.5
70639.1
70637.2
70637
70636.9
70636.9
70636.9
70636.9
70636.9
70636.9
70637
70637
70637
70637
70637
70637.1
70637.1
70637.1
84128.6
78310.3
77869
80779.6
102434
125482
143238
155714
136692
82871.2
72596.6
70932.5
70681.5
70642.4
70637.5
70637
70636.9
70636.9
70636.9
70636.9
70636.9
70636.9
70637
70637
70637
70637
70637
70637.1
70637.1
70637.1
81356.1
72989.1
72302.4
70932.2
89193.5
116623
141483
158066
159432
116957
77279.6
71606.7
70771.4
70654.4
70638.7
70637.1
70636.9
70636.9
70636.9
70636.9
70636.9
70636.9
70637
70637
70637
70637
70637.1
70637.1
70637.1
70637.1
63288.8
62120.4
61870.7
64874.9
79820.5
109568
133061
156148
172200
160958
93389
73637.6
71032
70688.8
70642.6
70637.4
70637
70636.9
70636.9
70636.9
70636.9
70636.9
70637
70637
70637
70637
70637.1
70637.1
70637.1
70637.1
73365.4
62451.4
59332.2
60792.1
64038
92319.9
123869
153209
178700
179550
133856
78787.1
71755.9
70774.2
70653.6
70638.4
70637
70636.9
70636.9
70636.9
70636.9
70637
70637
70637
70637
70637.1
70637.1
70637.1
70637.1
70637.1
40701.2
60818.5
57846.5
54804.9
55920.2
84058.7
118698
151756
181258
191036
174406
93029.2
73468.5
70974.9
70677.3
70640.9
70637.2
70636.9
70636.9
70636.9
70636.9
70637
70637
70637
70637
70637.1
70637.1
70637.1
70637.1
70637.2
70667.6
70606.4
70644.2
70629.7
70637.2
70635.6
70635.9
70636
70636.4
70636.7
70636.8
70636.9
70636.9
70637
70637.3
70638.2
70640.9
70647.6
70663
70695.5
70758.8
70862.6
70990.5
71099.7
71110.6
71119.8
71001.1
71036.3
71050.3
71186.1
70654.4
70620.3
70643.6
70630.6
70637.3
70635.7
70635.9
70636
70636.3
70636.6
70636.8
70636.9
70636.9
70637
70637.4
70638.5
70641.7
70649.9
70668.2
70706.4
70779.4
70893.8
71024
71125.1
71106.6
71076.6
70961.3
71007.1
71046.6
71168.9
70646.6
70628.9
70641.8
70632.7
70637.3
70636
70636
70636
70636.2
70636.5
70636.8
70636.9
70636.9
70637
70637.4
70638.6
70642
70650.9
70671
70713.1
70793.1
70917.8
71056.2
71161.8
71110.8
71057.9
70929.3
70966
71036.1
71145.7
70642.9
70632.4
70640.2
70634.3
70637.3
70636.3
70636.2
70636
70636.1
70636.5
70636.8
70636.9
70636.9
70637
70637.4
70638.6
70642.1
70651.5
70673
70718.3
70804.2
70938.1
71084.9
71202.1
71134.5
71049.4
70908.4
70933.4
71023
71133.6
70640.7
70634.4
70639.1
70635.5
70637.2
70636.6
70636.3
70636.1
70636.2
70636.5
70636.8
70636.9
70636.9
70637
70637.4
70638.5
70642.1
70651.6
70673.9
70721.3
70811.1
70951.5
71104.5
71237.5
71164.9
71042.8
70898.3
70902.8
70988.3
71118.2
70639.2
70635.7
70638.4
70636.3
70637.1
70636.8
70636.4
70636.1
70636.2
70636.5
70636.8
70636.9
70636.9
70637
70637.3
70638.5
70642
70651.4
70673.8
70721.5
70812
70955.8
71111.8
71263.9
71195.8
71051.9
70896.9
70878
70946.1
71110.4
70638.4
70636.5
70638.1
70636.9
70637.1
70636.8
70636.4
70636.1
70636.2
70636.6
70636.8
70636.9
70636.9
70637
70637.3
70638.4
70641.8
70651.2
70673.3
70720.8
70810.7
70954.5
71109.7
71277.8
71221.9
71084.2
70900.9
70871.1
70907.9
71104.2
70637.6
70637
70638
70637.3
70637.1
70636.8
70636.4
70636.2
70636.3
70636.6
70636.8
70636.9
70636.9
70637
70637.2
70638.2
70641.5
70650.7
70672.6
70719.4
70808.1
70950.7
71103.1
71279.1
71237
71109.4
70922.9
70872
70875.9
71099.7
70637.3
70637.3
70637.9
70637.4
70637.1
70636.7
70636.4
70636.3
70636.5
70636.7
70636.8
70636.9
70636.9
70637
70637.2
70638
70640.9
70649.8
70671.2
70717.2
70803.5
70943.5
71090.6
71276.8
71250.2
71125.7
70982.6
70884.3
70851
71097.1
70637.4
70637.4
70637.8
70637.4
70637.1
70636.7
70636.4
70636.4
70636.6
70636.8
70636.9
70636.9
70636.9
70637
70637.2
70637.9
70640.5
70648.4
70668.8
70713.2
70796
70931.1
71068.7
71268.3
71255.7
71137.4
71029.6
70894.3
70833.9
71082.7
70637.2
70637.5
70637.7
70637.4
70637.1
70636.7
70636.4
70636.6
70636.7
70636.8
70636.9
70636.9
70636.9
70637
70637.1
70637.8
70640.2
70647.3
70665.7
70706.8
70784.7
70914.3
71043.3
71249.2
71258.2
71147
71076.1
70914
70827.5
71083.8
70637.2
70637.5
70637.6
70637.2
70637
70636.6
70636.6
70636.7
70636.8
70636.9
70636.9
70636.9
70636.9
70637
70637.1
70637.7
70639.9
70646.4
70663.4
70700.9
70772.5
70894.1
71013.6
71215.4
71243.7
71163.7
71134.2
70987.4
70854.3
71107.7
70638.3
70637.8
70637.5
70637
70636.9
70636.6
70636.7
70636.8
70636.9
70636.9
70636.9
70636.9
70636.9
70637
70637.1
70637.6
70639.6
70645.6
70661.2
70695.8
70761.1
70872.6
70980.6
71179.1
71220.7
71236.7
71282.7
71147.9
71017.8
71192.3
70637.6
70637.5
70637.1
70637.3
70636.7
70636.7
70636.8
70636.9
70636.9
70636.9
70636.9
70636.9
70636.9
70637
70637.1
70637.5
70639.3
70644.9
70659.2
70690.9
70750.4
70852.3
70952.9
71171.1
71309.9
71488.3
71704.1
71577
71396.1
71371.1
70637.1
70636.8
70636.8
70636.9
70636.5
70636.8
70636.9
70636.9
70636.9
70636.9
70636.9
70636.9
70636.9
70637
70637
70637.5
70639.1
70644.1
70657.1
70686
70740.7
70840.1
70973.4
71307.6
71732.8
72498.3
73204.3
72936.9
72319.5
71805.1
70637.1
70636.7
70636.7
70636.5
70636.8
70637
70637
70636.9
70636.9
70636.9
70636.9
70636.9
70636.9
70636.9
70637
70637.4
70638.8
70643.3
70655.1
70681.9
70738
70873.4
71137
71953.1
73861.2
76714.8
78050.2
76814
74866.1
73079.8
70637.1
70636.9
70636.8
70636.9
70637
70637
70637
70636.9
70636.9
70636.9
70636.9
70636.9
70636.9
70636.9
70637
70637.3
70638.6
70642.6
70653.7
70683.9
70768.9
71038.6
71922.8
75295.9
82352
93393.8
94785.5
87748.3
80961.9
76812.3
70637.1
70637
70637
70637
70637
70637
70637
70637
70636.9
70636.9
70636.9
70636.9
70636.9
70636.9
70637
70637.3
70638.4
70642.2
70656.1
70707.4
70909.4
71786
75828.4
90319.1
115851
114704
103945
93433.9
89640.1
86671.7
70637.1
70637
70637
70637
70637
70637
70637
70637
70636.9
70636.9
70636.9
70636.9
70636.9
70636.9
70637
70637.2
70638.3
70643.8
70670.7
70808
71496.3
75319.8
93846.7
131861
128993
116514
102483
92308
90332.8
93307.3
70637.1
70637.1
70637.1
70637
70637
70637
70637
70637
70636.9
70636.9
70636.9
70636.9
70636.9
70636.9
70637
70637.2
70639.1
70651.5
70730.6
71187.9
73972.7
90741.3
140736
142509
129297
113109
92396.9
86300.6
87583.3
92418.7
70637.1
70637.1
70637.1
70637
70637
70637
70637
70637
70636.9
70636.9
70636.9
70636.9
70636.9
70636.9
70637
70637.5
70642.4
70681.5
70932.5
72594.9
82847.8
136510
155483
143074
125361
102407
80789.9
77865.1
78300.3
84011.5
70637.1
70637.1
70637.1
70637.1
70637
70637
70637
70637
70636.9
70636.9
70636.9
70636.9
70636.9
70636.9
70637.1
70638.7
70654.5
70771.5
71606.8
77271.4
116822
159184
157811
141303
116455
89234.8
70930
72291.3
73000.8
81157.9
70637.1
70637.1
70637.1
70637.1
70637
70637
70637
70637
70636.9
70636.9
70636.9
70636.9
70636.9
70637
70637.4
70642.6
70688.9
71032.4
73638
93371.2
160731
171923
155845
132815
109397
79939.8
64848.2
61901.9
62124
63394.7
70637.1
70637.1
70637.1
70637.1
70637.1
70637
70637
70637
70637
70636.9
70636.9
70636.9
70636.9
70637
70638.4
70653.6
70774.5
71757.2
78787.1
133744
179249
178358
152909
123653
92091.8
63989.6
60737.6
59194.8
62371.7
73218.6
70637.2
70637.1
70637.1
70637.1
70637.1
70637
70637
70637
70637
70636.9
70636.9
70636.9
70636.9
70637.2
70640.9
70677.4
70975.9
73474.4
93080.1
174214
190704
180870
151451
118516
83768.8
55872.5
54828.1
57805
60543.5
40711.8
70637
70637
70637
70637
70637
70637
70637
70637
70637
70637
70637
70637
70637
70637
70637
70637
70637
70637
70637
70637
70637
70637
70637
70637
70637
70637
70637
70637
70637
70637
70637
70637
70637
70637
70637
70637
70637
70637
70637
70637
70637
70637
70637
70637
70637
70637
70637
70637
70637
70637
70637
70637
70637
70637
70637
70637
70637
70637
70637
70637
70637
70637
70637
70637
70637
70637
70637
70637
70637
70637
70637
70637
70637
70637
70637
70637
70637
70637
70637
70637
70637
70637
70637
70637
70637
70637
70637
70637
70637
70637
70637
70637
70637
70637
70637
70637
70637
70637
70637
70637
70637
70637
70637
70637
70637
70637
70637
70637
70637
70637
70637
70637
70637.1
70637.1
70637.1
70637.1
70637.1
70637.1
70637.1
70637.1
70637.1
70637.1
70637.1
70637.2
70637.2
70637
70637
70637
70637
70637
70637
70637
70637
70637
70637
70637
70637
70637
70637
70637
70637
70637
70637
70637
70637
70637
70637
70637
70637
70637
70637
70637
70637
70637
70637
70637
70637
70637
70637
70637
70637
70637
70637
70637
70637
70637
70637
70637
70637
70637
70637
70637
70637
70637
70637
70637
70637
70637
70637
70637
70637
70637
70637
70637
70637
70637
70637
70637
70637
70637
70637
70637
70637
70637
70637
70637
70637
70637
70637
70637
70637
70637
70637
70637
70637
70637
70637
70637
70637
70637
70637
70637
70637
70637
70637
70637
70637
70637
70637
70637
70637
70637
70637
70637
70637
70637
70637
70637
70637
70637
70637
70637
70637
70637
70637
70637
70637
70637
70637
70637
70637
70637
70637
70637
70637
70637
70637.1
70637.1
70637.1
70637.1
70637
70637
70637
70637
70637
70637
70637
70637
70637
70637
70637
70637
70637
70637
70637
70637
70637
70637
70637
70637
70637
70637
70637
70637
70637
70637
70637
70637
70637
70637
70637
70637
70637
70637
70637
70637
70637
70637
70637
70637
70637
70637
70637
70637
70637
70637
70637
70637
70637
70637
70637
70637
70637
70637
70637
70637
70637
70637
70637
70637
70637
70637
70637
70637
70637
70637
70637
70637
70637
70637
70637
70637
70637
70637
70637
70637
70637
70637
70637
70637
70637
70637
70637
70637
70637
70637
70637
70637
70637
70637
70637
70637
70637
70637
70637
70637
70637
70637
70637
70637
70637
70637
70637
70637
70637
70637
70637
70637
70637
70637
70637
70637
70637
70637
70637
70637
70637
70637
70637
70637
70637
70637.1
70637.1
70637.1
70637.1
70637
70637
70637
70637
70637
70637
70637
70637
70637
70637
70637
70637
70637
70637
70637
70637
70637
70637
70637
70637
70637
70637
70637
70637
70637
70637
70637
70637
70637
70637
70637
70637
70637
70637
70637
70637
70637
70637
70637
70637
70637
70637
70637
70637
70637
70637
70637
70637
70637
70637
70637
70637
70637
70637
70637
70637
70637
70637
70637
70637
70637
70637
70637
70637
70637
70637
70637
70637
70637
70637
70637
70637
70637
70637
70637
70637
70637
70637
70637
70637
70637
70637
70637
70637
70637
70637
70637
70637
70637
70637
70637
70637
70637
70637
70637
70637
70637
70637
70637
70637
70637
70637
70637
70637
70637
70637
70637
70637
70637
70637
70637
70637
70637
70637
70637
70637
70637
70637
70637
70637
70637
70637.1
70637.1
70637.1
70637.1
70637
70637
70637
70637
70637
70637
70637
70637
70637
70637
70637
70637
70637
70637
70637
70637
70637
70637
70637
70637
70637
70637
70637
70637
70637
70637
70637
70637
70637
70637
70637
70637
70637
70637
70637
70637
70637
70637
70637
70637
70637
70637
70637
70637
70637
70637
70637
70637
70637
70637
70637
70637
70637
70637
70637
70637
70637
70637
70637
70637
70637
70637
70637
70637
70637
70637
70637
70637
70637
70637
70637
70637
70637
70637
70637
70637
70637
70637
70637
70637
70637
70637
70637
70637
70637
70637
70637
70637
70637
70637
70637
70637
70637
70637
70637
70637
70637
70637
70637
70637
70637
70637
70637
70637
70637
70637
70637
70637
70637
70637
70637
70637
70637
70637
70637
70637
70637
70637
70637
70637
70637
70637
70637.1
70637.1
70637.1
70637
70637
70637
70637
70637
70637
70637
70637
70637
70637
70637
70637
70637
70637
70637
70637
70637
70637
70637
70637
70637
70637
70637
70637
70637
70637
70637
70637
70637
70637
70637
70637
70637
70637
70637
70637
70637
70637
70637
70637
70637
70637
70637
70637
70637
70637
70637
70637
70637
70637
70637
70637
70637
70637
70637
70637
70637
70637
70637
70637
70637
70637
70637
70637
70637
70637
70637
70637
70637
70637
70637
70637
70637
70637
70637
70637
70637
70637
70637
70637
70637
70637
70637
70637
70637
70637
70637
70637
70637
70637
70637
70637
70637
70637
70637
70637
70637
70637
70637
70637
70637
70637
70637
70637
70637
70637
70637
70637
70637
70637
70637
70637
70637
70637
70637
70637
70637
70637
70637
70637
70637
70637
70637
70637
70637
70637
70637
70637
70637
70637
70637
70637
70637
70637
70637
70637
70637
70637
70637
70637
70637
70637
70637
70637
70637
70637
70637
70637
70637
70637
70637
70637
70637
70637
70637
70637
70637
70637
70637
70637
70637
70637
70637
70637
70637
70637
70637
70637
70637
70637
70637
70637
70637
70637
70637
70637
70637
70637
70637
70637
70637
70637
70637
70637
70637
70637
70637
70637
70637
70637
70637
70637
70637
70637
70637
70637
70637
70637
70637
70637
70637
70637
70637
70637
70637
70637
70637
70637
70637
70637
70637
70637
70637
70637
70637
70637
70637
70637
70637
70637
70637
70637
70637
70637
70637
70637
70637
70637
70637
70637
70637
70637
70637
70637
70637
70637
70637
70637
70637
70637
70637
70637
70637
70637
70637
70637
70637
70637
70637
70637
70637
70637
70637
70637
70637
70637
70637
70637
70637
70637
70637
70637
70637
70637
70637
70637
70637
70637
70637
70637
70637
70637
70637
70637
70637
70637
70637
70637
70637
70637
70637
70637
70637
70637
70637
70637
70637
70637
70637
70637
70637
70637
70637
70637
70637
70637
70637
70637
70637
70637