/*--------------------------------*- C++ -*----------------------------------*\
| =========                 |                                                 |
| \\      /  F ield         | OpenFOAM: The Open Source CFD Toolbox           |
|  \\    /   O peration     | Version:  2112                                  |
|   \\  /    A nd           | Website:  www.openfoam.com                      |
|    \\/     M anipulation  |                                                 |
\*---------------------------------------------------------------------------*/
FoamFile
{
    version     2.0;
    format      ascii;
    arch        "LSB;label=32;scalar=64";
    class       surfaceScalarField;
    location    "0.00174";
    object      phi;
}
// * * * * * * * * * * * * * * * * * * * * * * * * * * * * * * * * * * * * * //

dimensions      [1 0 -1 0 0 0 0];

oriented        oriented;

internalField   nonuniform List<scalar> 
27436
(
-0.533423
8.19262
-0.0934722
7.47124
-0.0828189
7.78553
-0.069318
7.78651
-0.069254
7.79277
-0.0544374
7.78225
-0.0399923
7.78256
-0.0283504
7.78459
-0.0196364
7.78776
-0.0185848
7.79408
-0.0102425
7.78883
0.00356197
7.78328
0.0185222
7.78218
0.0335563
7.78239
0.0449616
7.78508
0.0478643
7.79276
0.0529451
7.79156
0.0650253
7.78372
0.0784742
7.78313
0.0954914
7.78066
0.0955392
7.79263
0.11091
7.78543
0.123918
7.78204
0.573779
7.46209
8.21608
-0.246975
8.43959
-0.0964823
7.32073
-0.0818743
7.7709
-0.0574357
7.76206
-0.0553499
7.79064
-0.0475
7.77429
-0.0383294
7.77322
-0.0410312
7.78714
-0.02208
7.76909
-0.00952524
7.78147
0.00608429
7.77337
0.00737203
7.78207
0.0140717
7.77549
0.0209819
7.77602
0.0209742
7.78471
0.0420203
7.76994
0.061801
7.77117
0.0584135
7.78683
0.0668506
7.7748
0.0754559
7.77241
0.0735786
7.79486
0.102939
7.7561
0.114262
7.77096
0.267817
7.3077
8.47967
-0.22741
8.66698
-0.141486
7.2348
-0.120879
7.75029
-0.107968
7.74913
-0.0983151
7.781
-0.0934644
7.76935
-0.0907731
7.77036
-0.0889744
7.7853
-0.0621295
7.74273
-0.0520443
7.77133
-0.0259165
7.74791
-0.0234143
7.77963
-0.0166241
7.7688
-0.0119725
7.77196
-0.00409515
7.77631
0.0128403
7.75135
0.0386035
7.74507
0.0443553
7.78166
0.04809
7.77122
0.0523194
7.76785
0.0628132
7.78406
0.0787943
7.74023
0.100576
7.74931
0.192435
7.21488
8.67329
-0.170025
8.83701
-0.140237
7.20501
-0.134781
7.74483
-0.112703
7.72703
-0.104677
7.773
-0.0992112
7.76382
-0.0959284
7.76694
-0.0836656
7.77304
-0.0608211
7.72018
-0.0454045
7.75591
-0.0210202
7.72355
-0.0105038
7.76916
-0.00243744
7.7608
0.00534652
7.76471
0.0180539
7.76319
0.0376603
7.72851
0.0596809
7.72467
0.0746724
7.76762
0.0793729
7.76676
0.0849209
7.7619
0.0923209
7.7763
0.118495
7.71412
0.111467
7.75644
0.162275
7.16438
8.83974
-0.0743062
8.91132
-0.0374135
7.16815
-0.091659
7.79907
-0.0586086
7.69399
-0.059252
7.77369
-0.0590761
7.76362
-0.0593916
7.76715
-0.0475523
7.76127
-0.0288174
7.70158
-0.0146053
7.7417
0.00600373
7.70276
0.015883
7.75925
0.0224065
7.75436
0.0265756
7.76097
0.039377
7.75007
0.0557562
7.7119
0.0731183
7.70873
0.0882585
7.7536
0.0887782
7.76628
0.0897266
7.76031
0.092966
7.77266
0.124039
7.68326
0.0900222
7.79056
0.0970658
7.15788
8.93974
0.116103
8.79524
0.0427792
7.24148
-0.0492216
7.89106
-0.00777747
7.65257
-0.0214558
7.78744
-0.0292136
7.77142
-0.033498
7.77143
-0.025375
7.75329
-0.0123169
7.68863
-0.00274245
7.73214
0.0124089
7.68753
0.0203431
7.75127
0.0232439
7.75158
0.0233477
7.76114
0.0318979
7.74104
0.0447569
7.70319
0.055732
7.69906
0.0666304
7.74369
0.0635208
7.76948
0.0575448
7.76569
0.046659
7.78308
0.0866709
7.64328
-0.0138165
7.89096
-0.0196135
7.16381
8.9198
0.302667
8.49261
0.135176
7.409
-0.00436925
8.03117
0.0284783
7.61921
-0.0104412
7.82641
-0.0431166
7.80414
-0.0689864
7.79737
-0.0786551
7.76321
-0.084928
7.69506
-0.100638
7.74783
-0.106486
7.69256
-0.113604
7.75829
-0.129028
7.76704
-0.150919
7.78316
-0.158037
7.74771
-0.165141
7.71969
-0.179164
7.71516
-0.186571
7.75213
-0.209802
7.79261
-0.241526
7.79678
-0.269547
7.81059
-0.287819
7.66168
-0.354227
7.95722
-0.657481
7.46734
8.2608
0.871366
7.62131
0.520929
7.7595
0.415188
8.13702
0.338783
7.69561
0.278497
7.88677
0.225996
7.85669
0.184209
7.83926
0.16075
7.78688
0.136398
7.71965
0.106894
7.77745
0.0872385
7.71075
0.0674395
7.77783
0.0379392
7.79652
0.00571703
7.81528
-0.0195456
7.77227
-0.0397084
7.74816
-0.066245
7.74279
-0.0906818
7.77743
-0.128384
7.83046
-0.177631
7.84572
-0.234862
7.86739
-0.282738
7.70953
-0.406653
8.08086
-0.693623
7.7544
7.56439
0.597497
7.02402
0.408855
7.94837
0.242948
8.30303
0.197118
7.74161
0.143952
7.94004
0.104176
7.89656
0.080551
7.86307
0.077884
7.78987
0.075705
7.72205
0.0742012
7.77905
0.0728761
7.71073
0.0806395
7.76968
0.0788592
7.79827
0.073996
7.81963
0.0740942
7.77065
0.0755707
7.74928
0.0711629
7.7474
0.0705612
7.77861
0.0532322
7.84834
0.0170132
7.88186
-0.033308
7.91741
-0.0493173
7.72545
-0.220052
8.25113
-0.372869
7.90687
7.18996
-3.02639
10.0504
-3.40575
8.32792
-2.77305
7.67061
-2.61766
7.58638
-2.3107
7.63321
-2.00812
7.59399
-1.70869
7.56384
-1.38146
7.46305
-1.10161
7.4424
-0.796069
7.47353
-0.511112
7.42529
-0.206394
7.46461
0.101183
7.49083
0.40727
7.51275
0.702145
7.4734
0.988677
7.46085
1.26202
7.47251
1.59272
7.44697
1.90182
7.53988
2.20082
7.58399
2.5047
7.61437
2.63609
7.59409
3.21115
7.67584
2.93428
8.183
10.1249
-4.27166
14.3233
-4.75897
8.81715
-4.15735
7.06956
-3.82139
7.25138
-3.39964
7.21163
-2.91931
7.11394
-2.41282
7.05762
-1.94739
6.99795
-1.50074
6.99586
-1.02983
7.00272
-0.586553
6.98237
-0.119658
6.99758
0.354084
7.0175
0.831538
7.03453
1.28084
7.02086
1.72062
7.01727
2.15914
7.03046
2.61348
6.98949
3.14145
7.01278
3.63829
7.09064
4.06822
7.18659
4.38993
7.27316
4.58905
7.4763
4.51692
8.25356
14.6427
-2.54583
16.8721
-5.47087
11.7414
-4.8639
6.45963
-4.16685
6.55499
-3.82819
6.87352
-3.35934
6.64543
-2.82857
6.52727
-2.31084
6.48061
-1.79683
6.4821
-1.27918
6.48545
-0.774303
6.47844
-0.259196
6.48297
0.278681
6.48048
0.804788
6.50809
1.31839
6.50345
1.8177
6.51368
2.32701
6.51616
2.81842
6.49271
3.34192
6.4876
3.8585
6.57838
4.28889
6.76227
5.03917
6.52735
4.89614
7.6191
2.68835
10.4591
17.3303
2.09223
14.784
1.46079
12.3665
-3.59934
11.5399
-3.58337
6.54533
-4.03701
7.32744
-3.59019
6.19919
-3.03524
5.97301
-2.49694
5.94278
-1.94871
5.93444
-1.43979
5.9775
-0.859401
5.89976
-0.34391
5.96934
0.245157
5.89344
0.796697
5.95781
1.34342
5.95463
1.88752
5.96772
2.41953
5.98007
2.93169
5.97353
3.46899
5.94379
3.92325
6.12466
3.78729
6.91006
4.78259
5.54054
-0.67588
13.0798
-2.39094
12.1718
14.9377
2.51442
12.2736
3.34648
11.5299
3.61038
11.2704
0.00460614
10.16
-4.43249
11.7665
-4.16069
5.9285
-3.45704
5.27027
-3.02374
5.51158
-2.24841
5.16057
-1.83307
5.56488
-1.08398
5.15365
-0.633105
5.52294
0.0549233
5.20955
0.620629
5.39728
1.26041
5.31847
1.83032
5.40156
2.45107
5.36059
2.97082
5.45227
3.61656
5.29566
3.69027
6.05052
-0.495369
11.1033
-4.70234
9.75603
-3.73713
12.1168
-2.90723
11.3374
12.0282
1.91437
10.3602
3.72876
9.71437
5.03732
9.95851
5.59379
9.6049
5.68608
11.6777
2.44329
9.17824
1.07183
6.64697
-0.215818
6.80328
-0.468683
5.4223
-0.672437
5.77393
-0.168825
4.65847
-0.0857179
5.44667
0.506947
4.62681
0.707856
5.20346
1.08467
4.95346
1.13426
5.36088
1.07498
5.4274
-0.0864104
6.61744
-1.53143
6.74193
-4.2757
8.8016
-4.58735
11.4258
-4.16113
9.33381
-2.4707
10.4276
-1.13324
10.0057
10.8978
1.00237
9.35662
1.65721
9.05841
2.75112
8.86601
3.66117
8.69807
3.53102
11.8087
1.38024
11.3315
0.1356
7.8999
-0.156856
7.10572
-0.08202
5.35353
-0.2226
5.92351
0.138884
4.30388
-0.0776004
5.67587
0.221865
4.33613
0.299645
5.14016
0.432589
4.83515
0.522966
5.28874
0.675534
5.28978
0.480311
6.82729
-0.0717558
7.30189
-1.60039
10.3467
-2.11988
11.9534
-2.05197
9.26757
-0.964547
9.33956
-0.274203
9.31179
10.6259
1.28164
8.07516
1.96246
8.38057
1.09959
9.73143
0.253657
9.54631
-0.5149
12.5779
-0.601388
11.4205
0.34056
6.96199
0.990961
6.45602
0.704865
5.63633
1.00345
5.62551
0.28028
5.02498
0.528918
5.42652
-0.0429146
4.90571
-0.126088
5.22124
-0.43967
5.14529
-0.521838
5.36979
-0.849756
5.61572
-0.358777
6.33036
0.266586
6.68277
1.02646
9.59642
0.116285
12.8684
-1.35391
10.7352
-2.23114
10.2114
-1.96582
9.0471
8.66525
1.50093
6.57511
0.95614
8.92748
0.239595
10.4487
-0.336468
10.1231
1.12706
11.1154
2.52628
10.0223
1.93139
7.55937
1.68957
6.69956
1.23871
6.08838
0.923425
5.94268
0.359917
5.58749
0.0944306
5.69034
-0.447207
5.44576
-0.804856
5.57618
-1.24571
5.58503
-1.6692
5.79404
-2.10238
6.04791
-2.25706
6.48329
-2.81403
7.23998
-2.6518
9.43211
-0.952927
11.1655
-1.48562
11.2623
-2.22351
10.9435
-2.15829
8.98525
6.51276
3.26374
3.31172
5.60201
6.59213
5.82064
10.2321
5.76252
10.1847
6.26311
10.6173
5.90978
10.3772
4.6274
8.84325
3.69157
7.63909
2.9139
6.86749
2.21652
6.6414
1.45601
6.35231
0.764507
6.3854
0.0267226
6.18694
-0.693963
6.29892
-1.43393
6.32752
-2.16367
6.52458
-2.91294
6.79754
-3.8181
7.3897
-5.1879
8.61018
-6.03015
10.2775
-5.60182
10.7366
-4.77604
10.432
-4.60784
10.7772
-3.02168
7.40697
3.49441
1.50133
1.81103
3.58684
4.50748
5.09709
8.72066
5.68378
9.59898
6.21118
10.0913
6.11288
10.477
5.0464
9.91002
3.83717
8.85
2.80979
7.89626
1.95386
7.49931
1.13171
7.17589
0.332368
7.18706
-0.503581
7.02493
-1.32483
7.12255
-2.16512
7.16884
-3.06619
7.42613
-4.12654
7.85769
-5.455
8.71838
-6.74104
9.89872
-6.9354
10.4742
-6.3348
10.1365
-5.66397
9.76022
-4.00872
9.1235
-1.5542
4.95664
1.94187
0.230387
1.58231
0.296182
4.39564
1.75585
7.30904
2.97397
8.38198
3.78166
9.28431
4.03327
10.2258
3.58925
10.3538
2.85806
9.5821
2.12664
8.62941
1.4541
8.1744
0.766493
7.86385
0.101723
7.8522
-0.591391
7.7193
-1.27313
7.80604
-1.97912
7.87642
-2.69545
8.14346
-3.48384
8.64723
-4.3252
9.56143
-4.79696
10.3733
-4.47227
10.152
-3.57218
9.23854
-2.2965
8.48596
-0.684596
7.51378
-0.259656
4.53318
1.68458
-0.977701
2.55936
-0.836081
4.25441
0.308599
6.16828
1.24225
7.4476
1.95086
8.57569
2.25705
9.92073
2.20515
10.4054
1.89014
9.89623
1.46559
9.05306
1.04081
8.60144
0.598659
8.30801
0.139074
8.3124
-0.348342
8.20752
-0.823055
8.28222
-1.27309
8.32833
-1.71079
8.58235
-2.13679
9.07311
-2.44868
9.87535
-2.46048
10.3867
-2.11359
9.80695
-1.3466
8.47402
-0.329589
7.46948
0.767635
6.41807
0.979034
4.32419
2.66371
-0.872361
3.42733
-1.1979
4.58197
-0.800002
5.77233
-0.164051
6.8131
0.369587
8.04258
0.686567
9.60209
0.906173
10.1854
0.985161
9.81643
0.882164
9.15457
0.681794
8.80223
0.423541
8.56621
0.173613
8.56135
-0.0968512
8.47703
-0.343398
8.52768
-0.587703
8.57314
-0.76717
8.76132
-0.830116
9.13596
-0.709994
9.75759
-0.47075
10.151
-0.178993
9.51737
0.340271
7.95669
0.970723
6.84022
1.3447
6.04602
0.88847
4.78269
3.55043
-0.755795
4.17886
-1.52729
5.35435
-1.64361
5.88981
-1.42698
6.59613
-1.12563
7.73984
-0.718874
9.19565
-0.320998
9.78524
-0.0763505
9.56945
0.0215512
9.05459
0.0526029
8.77033
0.013261
8.60342
-0.0690862
8.64327
-0.168734
8.57585
-0.260216
8.61917
-0.297051
8.60897
-0.27734
8.74125
-0.185821
9.04199
0.0537898
9.51632
0.478278
9.72684
0.919566
9.07668
1.20722
7.67067
1.45856
6.58983
1.41485
6.08882
0.72207
5.47465
4.2685
-0.414159
4.58654
-1.19749
6.13557
-1.62945
6.32268
-1.69454
6.66075
-1.56076
7.6058
-1.17854
8.81004
-0.737798
9.34507
-0.40449
9.23447
-0.210647
8.85856
-0.125765
8.68301
-0.112572
8.58702
-0.0978872
8.62596
-0.0973054
8.57427
-0.079029
8.59885
-0.0613772
8.59008
0.0246467
8.65322
0.242082
8.8225
0.601002
9.15618
1.05554
9.27416
1.44008
8.69144
1.55015
7.56368
1.46213
6.67965
1.05702
6.49483
0.34918
6.17997
4.60549
-0.303525
4.89375
-1.10309
6.9351
-1.71643
6.93489
-1.89384
6.83761
-1.83828
7.5485
-1.50483
8.47602
-1.07818
8.91644
-0.713264
8.86739
-0.46166
8.60492
-0.275703
8.49581
-0.126188
8.43667
-0.0158777
8.51493
0.0735195
8.48267
0.174671
8.49666
0.327621
8.43632
0.523638
8.45563
0.783834
8.5596
1.1529
8.78372
1.59011
8.83609
1.91276
8.36881
1.95803
7.51624
1.78537
6.85218
1.22507
7.05325
0.422756
6.97823
5.01935
-0.397051
5.29232
-1.40871
7.93497
-1.84574
7.36588
-2.16024
7.14762
-2.19954
7.58646
-1.93779
8.21329
-1.53001
8.50911
-1.12547
8.46163
-0.812945
8.29064
-0.593422
8.27303
-0.431295
8.26991
-0.261105
8.34027
-0.0912528
8.30921
0.0852192
8.31771
0.257815
8.26188
0.4809
8.23067
0.791969
8.245
1.1798
8.39342
1.56621
8.44745
1.82632
8.10588
1.82306
7.51938
1.55985
7.11505
1.15376
7.45951
0.211854
7.91672
5.2365
-0.406761
5.70129
-1.19117
8.71367
-1.59
7.75728
-1.93928
7.49698
-1.97147
7.6171
-1.75864
7.99815
-1.41137
8.16165
-1.06414
8.11407
-0.778158
8.00325
-0.529443
8.02357
-0.290295
8.02926
-0.0890843
8.1372
0.108511
8.10804
0.312717
8.11005
0.55566
8.01778
0.809036
7.97693
1.0979
7.95427
1.44491
8.04162
1.78864
8.1031
1.96778
7.92446
1.92666
7.5584
1.59991
7.4391
1.21216
7.84185
0.437971
8.68145
5.68396
-0.520072
6.22206
-1.1347
9.32965
-1.55328
8.17499
-1.75424
7.69476
-1.91894
7.77775
-1.77989
7.86017
-1.46069
7.84474
-1.10335
7.75735
-0.785712
7.68598
-0.515388
7.75163
-0.284921
7.7965
-0.0354067
7.8828
0.200231
7.86789
0.448137
7.8587
0.675138
7.78884
0.94326
7.70881
1.26086
7.63783
1.61303
7.68873
1.91786
7.79307
2.03321
7.80677
1.86777
7.7215
1.68091
7.62333
1.35061
8.17272
0.727741
9.3052
6.43076
-0.894771
7.11123
-1.35846
9.78666
-1.79078
8.60349
-1.97873
7.88097
-2.08445
7.88646
-1.99571
7.77206
-1.72346
7.5737
-1.41189
7.44631
-1.12423
7.39825
-0.854197
7.4807
-0.563948
7.50255
-0.314305
7.63026
-0.0495535
7.59922
0.209563
7.59535
0.501039
7.49348
0.776337
7.43317
1.05448
7.36069
1.34598
7.39761
1.60206
7.53841
1.6792
7.72986
1.63067
7.76769
1.44792
7.80307
1.11913
8.49608
0.58736
9.82912
7.01159
-0.584391
7.67976
-1.2049
10.399
-1.57623
8.98245
-1.74682
8.05223
-1.75423
7.8957
-1.67485
7.69514
-1.45912
7.3606
-1.18023
7.16922
-0.893493
7.11253
-0.612326
7.19888
-0.363359
7.25526
-0.0784809
7.34347
0.189563
7.32878
0.4647
7.31687
0.711382
7.2441
0.985984
7.15623
1.26701
7.08032
1.53426
7.13215
1.74033
7.33352
1.79899
7.67201
1.76354
7.80479
1.56655
7.99854
1.32762
8.7409
0.826267
10.3309
7.82767
-0.264879
7.92911
-0.738422
10.8619
-1.4635
9.7084
-1.56638
8.15309
-1.58767
7.9178
-1.49375
7.60139
-1.2944
7.16422
-1.08613
6.96096
-0.860617
6.88604
-0.619352
6.95587
-0.329828
6.96192
-0.0772682
7.08786
0.185797
7.0639
0.437009
7.06394
0.715417
6.9621
0.953003
6.91678
1.1694
6.863
1.37916
6.92263
1.57698
7.13609
1.67396
7.57624
1.67795
7.80329
1.66194
8.01342
1.01048
9.38805
0.523053
10.8096
8.3383
-0.480849
8.41607
-0.88845
11.2607
-1.69499
10.5155
-1.7171
8.17215
-1.71438
7.91499
-1.6054
7.49566
-1.43713
6.99838
-1.21342
6.73869
-0.983811
6.6586
-0.732591
6.70604
-0.504643
6.73633
-0.232977
6.81817
0.0300598
6.80064
0.302748
6.79034
0.53476
6.72968
0.781958
6.66773
1.00967
6.6351
1.226
6.70818
1.36992
6.99521
1.4649
7.48324
1.41989
7.84985
1.32492
8.1103
0.564076
10.1499
0.2207
11.1428
8.55042
-0.124463
8.54559
-0.478236
11.613
-1.12486
11.1414
-1.45634
8.50474
-1.46953
7.9325
-1.33667
7.3656
-1.16834
6.8308
-0.988101
6.55801
-0.799932
6.46951
-0.590689
6.49655
-0.315467
6.46178
-0.0717652
6.57221
0.185068
6.54406
0.423086
6.5515
0.684509
6.46612
0.88927
6.46042
1.06878
6.4533
1.24922
6.52488
1.43083
6.81122
1.55977
7.35522
1.55941
7.85424
1.39604
8.27629
0.588925
10.949
0.260231
11.4675
8.82109
0.0325417
8.52594
-0.103905
11.744
-0.758081
11.8052
-1.3638
9.10971
-1.2868
7.84995
-1.21299
7.2899
-1.06659
6.68486
-0.907612
6.40001
-0.715016
6.27808
-0.500162
6.28261
-0.317902
6.27942
-0.0814658
6.33812
0.149035
6.31427
0.386477
6.31595
0.572278
6.2818
0.781839
6.25135
0.968449
6.26633
1.11658
6.37823
1.26261
6.66778
1.33518
7.27926
1.47342
7.70451
0.839057
8.908
0.246313
11.5325
-0.00334135
11.7192
8.83811
-0.242788
8.76113
-0.335553
11.833
-0.699931
12.1686
-1.35849
9.75987
-1.35416
7.84805
-1.27505
7.21205
-1.11164
6.52046
-0.951958
6.24065
-0.805064
6.13215
-0.64659
6.12519
-0.405213
6.04078
-0.19973
6.13289
0.0222932
6.0928
0.228414
6.10937
0.463392
6.04796
0.622352
6.0923
0.767763
6.12178
0.928989
6.2148
1.08923
6.50352
1.13821
7.22841
1.09872
7.74813
0.399878
9.59606
-0.0720818
11.993
-0.127058
11.77
8.72565
-0.0542962
8.8122
0.0415976
11.7407
-0.225406
12.4465
-0.977807
10.5148
-1.15674
8.02843
-1.0587
7.11365
-0.951374
6.41402
-0.801674
6.09085
-0.628803
5.95878
-0.429803
5.92503
-0.272308
5.88277
-0.0581577
5.91756
0.147779
5.88696
0.360681
5.89676
0.513463
5.89518
0.705178
5.90013
0.879905
5.9465
1.01174
6.08692
1.13072
6.38888
1.25755
7.10186
1.06632
7.93623
0.412442
10.2515
0.128442
12.266
0.155429
11.7386
8.87491
0.0692346
8.74682
0.174863
11.6289
0.227085
12.3963
-0.450164
11.1787
-1.0254
8.59113
-0.907718
6.99229
-0.821964
6.32779
-0.700601
5.97023
-0.564051
5.82266
-0.430873
5.79252
-0.229539
5.68235
-0.0614841
5.75201
0.123054
5.70227
0.287145
5.73343
0.489929
5.69408
0.620164
5.77184
0.746973
5.82145
0.880517
5.95135
0.968337
6.30551
1.14265
6.92271
0.637564
8.42098
-0.0215397
10.8946
-0.0811957
12.3242
-0.00755086
11.6646
8.85245
-0.178813
8.93149
-0.154101
11.6015
0.0180338
12.2107
-0.388217
11.5838
-0.953175
9.16058
-1.00689
7.04633
-0.884155
6.20533
-0.79366
5.87821
-0.654886
5.68293
-0.470209
5.60616
-0.332251
5.54222
-0.154623
5.56967
0.0105954
5.53577
0.190961
5.55064
0.324492
5.55916
0.500205
5.59394
0.640808
5.68104
0.713093
5.88166
0.794496
6.23135
0.689657
7.03886
0.0528531
9.06421
-0.403157
11.3515
-0.173679
12.0927
-0.0711708
11.5507
8.77155
-0.0281901
8.95869
0.05042
11.5149
0.429071
11.8399
0.161792
11.8546
-0.578883
9.9021
-0.830403
7.29257
-0.67035
6.04353
-0.602309
5.80949
-0.485968
5.56532
-0.371598
5.49067
-0.195238
5.36468
-0.0464261
5.42391
0.119268
5.369
0.264237
5.40592
0.442358
5.38193
0.556917
5.48057
0.666253
5.57087
0.744216
5.80434
0.907147
6.07105
0.704045
7.23988
-0.0190449
9.78217
-0.254406
11.5878
0.116387
11.7576
0.159329
11.5042
8.91378
0.0941622
8.86525
0.144412
11.4628
0.412434
11.5655
0.503347
11.7424
-0.0690815
10.4679
-0.555236
7.77854
-0.632008
6.1196
-0.539752
5.71694
-0.457839
5.48302
-0.305957
5.33682
-0.193501
5.24982
-0.0410291
5.26818
0.0944701
5.23204
0.244574
5.25251
0.355453
5.26753
0.510194
5.32381
0.594678
5.48861
0.690033
5.70984
0.654406
6.11116
0.209978
7.67778
-0.285718
10.2869
-0.326521
11.6233
-0.0126628
11.4563
0.0577069
11.4316
8.96876
-0.105906
8.98132
-0.0574689
11.4126
0.148917
11.3732
0.490968
11.4121
0.0428757
10.9073
-0.486946
8.3055
-0.637604
6.2696
-0.554471
5.63165
-0.473798
5.40048
-0.395081
5.25547
-0.251599
5.1039
-0.132874
5.14767
0.00787469
5.09042
0.134142
5.12626
0.276505
5.12524
0.350235
5.24855
0.421503
5.41388
0.49094
5.63966
0.27699
6.32921
-0.327625
8.28272
-0.74355
10.7054
-0.408247
11.3004
-0.216889
11.2782
-0.138969
11.3555
8.83147
0.0443988
8.94878
0.097516
11.3546
0.266135
11.1972
0.588551
11.07
0.604046
10.8849
-0.00954885
8.91012
-0.42844
6.68939
-0.466448
5.66964
-0.372496
5.30677
-0.254185
5.1366
-0.16536
5.01411
-0.0328336
5.01449
0.0866127
4.97042
0.212682
4.99725
0.302166
5.03527
0.427038
5.12427
0.514925
5.32569
0.501289
5.6515
0.148918
6.68173
-0.50309
8.94071
-0.506456
10.7174
-0.137191
10.9296
0.0484216
11.0867
0.114245
11.3019
8.9558
0.177432
8.77657
0.290362
11.2503
0.389858
11.1053
0.622059
10.8595
0.901523
10.605
0.313472
9.49312
-0.13804
7.14121
-0.319335
5.85209
-0.269862
5.25582
-0.227849
5.09248
-0.130326
4.91449
-0.0343322
4.91784
0.0807462
4.85479
0.177155
4.9013
0.277012
4.93218
0.328355
5.06888
0.380181
5.27167
0.271456
5.76223
-0.172558
7.12537
-0.75541
9.52942
-0.518143
10.4841
-0.249924
10.685
-0.129369
10.9842
-0.0618677
11.2425
8.90368
-0.0216639
8.81017
0.0651426
11.1656
0.160341
11.0065
0.396448
10.6145
0.780012
10.2179
0.623525
9.64461
-0.00895006
7.77129
-0.341288
6.1829
-0.332964
5.24654
-0.253339
5.01233
-0.183433
4.84365
-0.0904874
4.82402
0.00268888
4.76133
0.0929265
4.80916
0.15528
4.86919
0.213173
5.0143
0.207162
5.27536
-0.104999
6.06734
-0.819604
7.8366
-0.923506
9.63756
-0.586881
10.1499
-0.372314
10.4665
-0.285404
10.9047
-0.163526
11.1285
8.74244
0.115722
8.69595
0.282113
11.002
0.329538
10.9587
0.51026
10.4418
0.818504
9.921
0.9332
9.52952
0.437865
8.26227
-0.0336419
6.65158
-0.174637
5.38587
-0.166252
5.00441
-0.092683
4.77064
-0.0236771
4.75498
0.0562681
4.68143
0.125766
4.73966
0.192662
4.80016
0.219213
4.98479
0.077124
5.41543
-0.379898
6.52307
-0.840109
8.29596
-0.705503
9.50299
-0.419324
9.87315
-0.22269
10.2876
-0.169854
10.8609
-0.0446657
11.0093
8.69967
0.174779
8.51503
0.378898
10.8007
0.461918
10.8702
0.58731
10.3046
0.787089
9.71435
1.15041
9.16462
0.846475
8.56341
0.204065
7.29383
-0.0434572
5.63477
-0.0943952
5.05503
-0.0526862
4.72887
-0.00207612
4.70479
0.0465318
4.63294
0.103344
4.6825
0.145139
4.75808
0.12489
5.00365
-0.122141
5.66268
-0.811418
7.21283
-1.03361
8.51591
-0.673705
9.1422
-0.466224
9.65995
-0.328466
10.1374
-0.258414
10.7863
-0.0885212
10.8324
8.59554
0.0441408
8.4626
0.240846
10.6003
0.325888
10.7774
0.413115
10.217
0.610303
9.51927
0.850526
8.92577
0.946088
8.46863
0.604135
7.63757
0.0647367
6.17607
-0.107561
5.2273
-0.0870163
4.70943
-0.0503567
4.67041
-0.0212103
4.604
0.0143292
4.64693
0.00954641
4.7631
-0.120927
5.13523
-0.711824
6.25044
-1.08235
7.58164
-0.998801
8.43511
-0.759405
8.9046
-0.573046
9.48155
-0.500824
10.0754
-0.419195
10.6974
-0.200249
10.5962
8.38311
0.0885987
8.36854
0.326221
10.3594
0.477815
10.6281
0.564331
10.1341
0.684091
9.38781
0.846513
8.76361
1.16527
8.15045
0.903191
7.90127
0.313221
6.76442
0.0434408
5.49528
-0.00219687
4.75687
0.0036313
4.66521
0.00633191
4.60154
0.0136771
4.64053
-0.0443616
4.8187
-0.294354
5.37583
-0.812432
6.76726
-1.13641
7.91089
-0.821196
8.12293
-0.658555
8.73888
-0.539166
9.34834
-0.457339
9.99269
-0.31573
10.5498
-0.0792908
10.3432
8.29205
0.119233
8.25496
0.447971
10.0247
0.603519
10.4533
0.630223
10.0934
0.705327
9.3274
0.868943
8.60807
1.05065
7.97524
1.15418
7.79542
0.867593
7.05198
0.207186
6.15645
0.0556124
4.91051
0.0219958
4.69932
0.00360224
4.62069
-0.0281737
4.67302
-0.193806
4.98602
-0.8221
6.01481
-1.08522
7.03223
-0.997766
7.82093
-0.82543
7.95595
-0.657555
8.57795
-0.576391
9.27838
-0.536942
9.94516
-0.391544
10.3837
-0.0763289
10.0178
8.22301
-0.00289165
0.041453
-0.00311231
0.0426909
-0.00347029
0.0471495
-0.00407024
0.0465041
-0.00487217
0.0488873
-0.00534516
0.0490272
-0.00509607
0.0487595
-0.0047142
0.0480656
-0.00463715
0.0479573
-0.00511042
0.0488819
-0.00597705
0.0505265
-0.00684566
0.0523752
-0.00741073
0.0539081
-0.00758979
0.0549222
-0.00745136
0.0554865
-0.00712184
0.0557622
-0.00669
0.0558866
-0.00620554
0.0559399
-0.0056975
0.0559621
-0.0051813
0.0559688
-0.00466109
0.0559703
-0.00413856
0.0559685
-0.00361277
0.0559645
-0.00308169
0.0559576
-0.00251759
0.0559412
-0.00200201
0.0559363
-0.0012341
0.0557013
-0.000883669
0.0560119
0.000554899
0.0538241
0.0572715
-0.00443688
0.0458721
-0.00569397
0.0443333
-0.00584179
0.047926
-0.0063911
0.047212
-0.00707323
0.0493243
-0.00757475
0.0492461
-0.00726898
0.0488624
-0.00673087
0.0482874
-0.00632567
0.0481483
-0.00653045
0.0492066
-0.00718028
0.0507276
-0.00793757
0.0523549
-0.00845317
0.0536627
-0.00860416
0.0545128
-0.0084318
0.0549853
-0.00805515
0.0552157
-0.00756611
0.0553172
-0.00701805
0.0553588
-0.00644525
0.0553754
-0.00586278
0.0553797
-0.00527532
0.05538
-0.00468466
0.0553772
-0.00409065
0.055371
-0.00349144
0.0553597
-0.00287336
0.0553307
-0.0022859
0.0553472
-0.00162852
0.055057
-0.00111557
0.0554885
-0.00104093
0.0537623
0.0562289
-0.00262634
0.0483236
-0.00375086
0.045903
-0.00375283
0.0485134
-0.00440333
0.0478024
-0.00526707
0.0496731
-0.00589591
0.049365
-0.00561821
0.049053
-0.00494482
0.0486653
-0.00448942
0.0484177
-0.00456595
0.0496165
-0.00521551
0.050968
-0.00606564
0.0523621
-0.00672018
0.0534577
-0.00701348
0.0541672
-0.00697114
0.0545625
-0.00670825
0.0547548
-0.00632302
0.054838
-0.00587374
0.0548709
-0.005398
0.054883
-0.00491205
0.0548857
-0.00442037
0.054885
-0.00392548
0.0548811
-0.00342775
0.0548738
-0.0029277
0.054861
-0.00242323
0.054833
-0.00193563
0.0548592
-0.00148261
0.0546123
-0.00101952
0.0550185
-0.0011427
0.0538916
0.0550897
-0.00132084
0.0491796
-0.00213629
0.0469837
-0.00198167
0.0486878
-0.00269306
0.0479419
-0.00378187
0.0492541
-0.00448478
0.0491197
-0.00423782
0.0491327
-0.00343229
0.048973
-0.00286772
0.0491086
-0.00289375
0.0500845
-0.00358971
0.0512412
-0.00454306
0.0523927
-0.00532873
0.0532901
-0.00574626
0.053877
-0.00581332
0.0542049
-0.00564386
0.0543632
-0.00534193
0.0544305
-0.00497142
0.0544563
-0.00457219
0.0544652
-0.00416254
0.0544667
-0.00374689
0.0544655
-0.00332815
0.0544612
-0.00290741
0.054454
-0.00248653
0.0544424
-0.00206744
0.0544198
-0.00165643
0.0544474
-0.00129995
0.0542618
-0.000874681
0.0545876
-0.000858692
0.0538796
0.0542356
-0.00148985
0.0494666
-0.00200196
0.0475281
-0.00163442
0.0482957
-0.00234388
0.0472155
-0.00351636
0.0481934
-0.00422097
0.0479253
-0.00391348
0.0483329
-0.00304222
0.0488004
-0.00232876
0.0495798
-0.00232021
0.0505138
-0.00305099
0.0514913
-0.00406324
0.052412
-0.00491339
0.053125
-0.00538688
0.0535954
-0.00549822
0.05386
-0.00536179
0.0539879
-0.00508521
0.0540412
-0.00473655
0.0540602
-0.00435813
0.0540663
-0.00396872
0.0540673
-0.0035735
0.054066
-0.0031755
0.0540621
-0.00277618
0.0540556
-0.00237696
0.0540461
-0.00198297
0.0540311
-0.00158663
0.0540511
-0.00124739
0.053927
-0.000825965
0.0541617
-0.000661562
0.0537179
0.0535796
-0.00163598
0.0496611
-0.00184304
0.0468436
-0.00126934
0.0464925
-0.00186719
0.0446038
-0.00304262
0.0444039
-0.00368847
0.0443856
-0.00334377
0.045863
-0.00251858
0.0473423
-0.00179253
0.0494609
-0.00183022
0.0507412
-0.00262625
0.0516501
-0.00368892
0.0523943
-0.00457984
0.0529526
-0.00508804
0.0533189
-0.0052287
0.0535256
-0.00511657
0.053626
-0.00486032
0.0536675
-0.00452955
0.0536813
-0.00416894
0.053685
-0.00379724
0.0536855
-0.00342033
0.0536843
-0.00304073
0.0536814
-0.00266003
0.0536759
-0.00227943
0.0536688
-0.00190409
0.0536601
-0.00152284
0.0536705
-0.00118947
0.0535968
-0.000783372
0.0537509
-0.000534621
0.0534702
0.053051
-0.00155013
0.0478818
-0.00132934
0.0430482
-0.000464055
0.0406997
-0.0007318
0.0362802
-0.00165274
0.0342525
-0.00212447
0.0341934
-0.00195126
0.0376996
-0.00135382
0.0426788
-0.000909524
0.0472233
-0.00119404
0.0500376
-0.00212229
0.0515131
-0.00324883
0.052281
-0.00417578
0.0527534
-0.00471238
0.0530457
-0.00487935
0.053208
-0.00479222
0.053286
-0.00455951
0.0533172
-0.0042521
0.0533257
-0.00391465
0.0533273
-0.00356647
0.0533273
-0.00321353
0.0533264
-0.00285815
0.0533245
-0.00250135
0.0533203
-0.00214469
0.0533151
-0.00179149
0.0533108
-0.00143323
0.0533136
-0.0011102
0.0532761
-0.000731758
0.0533685
-0.000447857
0.053187
0.0526091
-0.00103321
0.0416599
-0.00023289
0.0324626
0.00130425
0.0253155
0.00194181
0.013096
0.00204422
0.00433209
0.00202556
0.00229673
0.00176697
0.0113288
0.00138457
0.0257261
0.000831665
0.0386669
-0.000107449
0.0464754
-0.00140575
0.0501924
-0.00267217
0.0518171
-0.00365225
0.0524983
-0.00422206
0.0527842
-0.00442008
0.0529175
-0.00436338
0.0529763
-0.00416126
0.0529969
-0.00388452
0.0530011
-0.00357745
0.0530004
-0.00325986
0.0529998
-0.00293801
0.0529994
-0.00261435
0.0529986
-0.00228881
0.0529962
-0.00196307
0.0529926
-0.00163859
0.0529903
-0.00131191
0.0529891
-0.00100834
0.0529739
-0.00066698
0.0530229
-0.000381219
0.0529012
0.052235
6.52626e-05
0.0235428
0.00146379
0.00159162
0.00402528
-0.0161292
0.00710845
-0.0450903
0.0107225
-0.0707135
0.0134516
-0.0818366
0.012343
-0.0700082
0.00888988
-0.0356918
0.00503148
0.00591196
0.00194959
0.0334947
-0.000355669
0.0455319
-0.00199036
0.0502754
-0.00310202
0.0519298
-0.00372212
0.0524776
-0.00395238
0.0526449
-0.00392602
0.0526948
-0.00375443
0.0527077
-0.00350881
0.0527083
-0.00323232
0.0527048
-0.00294563
0.0527038
-0.00265525
0.0527039
-0.00236378
0.0527039
-0.00207026
0.0527032
-0.00177567
0.0527012
-0.00148099
0.0526995
-0.00118696
0.0526971
-0.000906017
0.052694
-0.000601563
0.0527146
-0.000328709
0.0526272
0.0519109
0.00163462
-0.0273271
0.00370249
-0.0667523
0.00801995
-0.100059
0.0162591
-0.163206
0.0292642
-0.271529
0.0434939
-0.330849
0.0446741
-0.289943
0.0318423
-0.196539
0.0181339
-0.105097
0.00781513
-0.0188964
0.00196998
0.0291797
-0.00096277
0.0452328
-0.00251244
0.0503809
-0.00325503
0.0519242
-0.00352941
0.0523364
-0.00353152
0.0524303
-0.00338697
0.0524427
-0.00316905
0.0524405
-0.0029194
0.0524377
-0.0026604
0.0524365
-0.00239851
0.0524369
-0.00213569
0.0524378
-0.00187135
0.0524382
-0.00160535
0.0524374
-0.00133862
0.0524365
-0.00107291
0.0524345
-0.000814272
0.0524363
-0.000542492
0.0524404
-0.000287741
0.0523721
0.0516281
0.00483796
-0.128744
0.0037759
-0.234211
0.00432118
-0.277064
0.0154776
-0.322343
0.0425111
-0.388968
0.0814448
-0.479525
0.125945
-0.573671
0.126845
-0.626791
0.0631811
-0.519746
0.0285777
-0.18474
0.00960584
-0.0395709
0.0015878
0.0276211
-0.00158636
0.0455986
-0.00276507
0.050565
-0.00315503
0.0518436
-0.00319599
0.0521404
-0.00307562
0.052195
-0.00287996
0.0521977
-0.00265261
0.0521956
-0.00241677
0.0521938
-0.00217911
0.0521941
-0.00194071
0.0521957
-0.00170108
0.0521971
-0.00145989
0.0521973
-0.00121758
0.0521972
-0.000975178
0.0521964
-0.000736577
0.0521995
-0.000491767
0.0521943
-0.000255404
0.0521353
0.0513746
0.00426334
-0.2852
-0.00201505
-0.308377
-0.00298032
-0.311413
0.00441368
-0.334048
0.032344
-0.396434
0.0799245
-0.49167
0.143263
-0.598363
0.212039
-0.71188
0.258938
-0.802565
0.10439
-0.74641
0.0389756
-0.248077
0.0104026
-0.046884
0.00098577
0.0294235
-0.00195751
0.0465483
-0.00275551
0.0507727
-0.00289294
0.0517391
-0.00280428
0.0519357
-0.00262896
0.0519729
-0.00242154
0.0519752
-0.00220528
0.0519728
-0.0019883
0.0519723
-0.00177134
0.0519742
-0.00155306
0.051977
-0.00133339
0.0519778
-0.00111232
0.0519783
-0.00089021
0.0519788
-0.000669818
0.0519813
-0.000447659
0.0519724
-0.000229001
0.0519158
0.051146
0.00427207
-0.286365
-0.00666625
-0.291431
-0.0142005
-0.295822
-0.0163567
-0.321287
0.00877587
-0.369412
0.0588894
-0.469078
0.131576
-0.599817
0.215935
-0.722506
0.301563
-0.834338
0.367352
-0.946057
0.140741
-0.875467
0.0456014
-0.271754
0.00979729
-0.0369414
0.000400865
0.0336083
-0.0020785
0.0477767
-0.00255443
0.0509567
-0.00253936
0.0516371
-0.00239166
0.0517562
-0.00220484