/*--------------------------------*- C++ -*----------------------------------*\
| =========                 |                                                 |
| \\      /  F ield         | OpenFOAM: The Open Source CFD Toolbox           |
|  \\    /   O peration     | Version:  2112                                  |
|   \\  /    A nd           | Website:  www.openfoam.com                      |
|    \\/     M anipulation  |                                                 |
\*---------------------------------------------------------------------------*/
FoamFile
{
    version     2.0;
    format      ascii;
    arch        "LSB;label=32;scalar=64";
    class       volVectorField;
    location    "0.00493";
    object      U;
}
// * * * * * * * * * * * * * * * * * * * * * * * * * * * * * * * * * * * * * //

dimensions      [0 1 -1 0 0 0 0];

internalField   nonuniform List<vector> 
13875
(
(2204.15 109.688 1.81274e-18)
(2142.46 5.59597 -9.38759e-19)
(2170.24 -2.20495 -9.41117e-19)
(2167.96 -0.901217 0)
(2170.7 0.204622 0)
(2169.47 -0.29796 9.36291e-19)
(2169.78 -1.31636 -9.36461e-19)
(2169.37 -1.13115 -4.68598e-19)
(2169.73 -0.0910899 4.68097e-19)
(2169.12 0.36632 0)
(2169.24 0.358855 -3.88495e-22)
(2169.44 0.789758 -3.88154e-22)
(2169.65 0.896892 0)
(2169.41 -0.0408597 -4.68224e-19)
(2169.39 -0.9608 4.68613e-19)
(2169.73 -1.3502 0)
(2169.88 -0.321013 9.37108e-19)
(2169.15 0.226394 -9.37818e-19)
(2169.17 1.13278 3.87897e-22)
(2169.33 1.18883 -3.86086e-22)
(2170.58 -0.142351 -9.36227e-19)
(2167.75 0.430882 9.37223e-19)
(2170.99 2.53909 -1.87822e-18)
(2143.63 -8.62233 1.91652e-18)
(2210.15 -106.652 1.76431e-18)
(2253.38 91.9366 -1.6325e-18)
(2228.45 -1.1278 1.88338e-18)
(2247.36 0.686791 8.71866e-19)
(2245.5 1.06187 -8.67169e-19)
(2248.72 -0.758447 4.16584e-22)
(2248.1 0.629099 5.20593e-22)
(2247.91 1.80452 4.16083e-22)
(2245.8 1.50288 -4.36047e-19)
(2245.61 0.307396 4.35355e-19)
(2245.02 -0.245184 2.17705e-19)
(2245.27 -0.572356 -1.63056e-19)
(2245.45 -1.18835 -5.31818e-20)
(2247.79 -1.16179 0)
(2247.88 0.113727 -4.34963e-19)
(2247.52 1.05029 4.33474e-19)
(2245.66 1.43615 4.35986e-19)
(2245.48 0.71808 -4.35323e-19)
(2245.24 0.0947802 5.18613e-22)
(2245.95 -1.66776 -5.18784e-22)
(2247.54 -2.17616 5.20209e-22)
(2248.23 0.571087 -8.71338e-19)
(2245.48 -0.805228 2.60035e-18)
(2247.2 -1.62982 -1.74276e-18)
(2228.85 3.66746 5.42899e-22)
(2256.33 -97.2112 -1.71425e-18)
(2252.38 78.1197 0)
(2236.34 -18.253 0)
(2249.5 4.39689 0)
(2250.78 -2.02495 0)
(2254.08 -3.12112 -1.64511e-18)
(2253.64 -0.0442375 1.6427e-18)
(2254.02 2.02963 1.64016e-18)
(2253.57 2.12413 -2.57887e-18)
(2253.94 0.609318 8.60813e-19)
(2253.4 0.367436 4.31104e-22)
(2253.17 -0.0594705 -4.30676e-19)
(2253.17 -2.44211 4.30334e-19)
(2254.09 -2.4754 0)
(2253.96 0.0602245 0)
(2253.96 2.31694 4.08188e-22)
(2253.3 1.99686 0)
(2254.12 -0.0646794 8.38083e-22)
(2253.75 -0.648334 4.3053e-19)
(2253.99 -2.11471 -4.30062e-19)
(2253.58 -1.22859 0)
(2253.94 2.44585 0)
(2250.85 1.23142 0)
(2250.62 -4.81429 0)
(2237.87 13.8099 0)
(2257.1 -74.5618 0)
(2247.85 51.3441 0)
(2235.05 -28.6736 1.81416e-18)
(2249.28 7.08777 -3.41654e-18)
(2251.7 -4.99073 3.46513e-18)
(2253.8 -3.7612 -1.64395e-18)
(2253.53 -0.214773 0)
(2254.02 1.83123 -7.97465e-22)
(2254.06 1.58629 0)
(2254.46 0.266735 0)
(2254.04 0.469097 0)
(2254.09 0.151511 0)
(2254.12 -2.20487 -8.04316e-22)
(2254.07 -2.42772 -5.06192e-20)
(2253.93 0.0497157 5.05971e-20)
(2253.93 2.2345 0)
(2254.27 1.70782 0)
(2254.98 -0.291103 8.38083e-22)
(2254.34 -0.113132 -8.41233e-19)
(2254.49 -1.326 8.5928e-19)
(2253.5 -0.867159 -1.63114e-18)
(2253.78 2.96328 1.6321e-18)
(2252.01 4.32512 1.74102e-18)
(2249.72 -8.87654 -1.72065e-18)
(2235.74 31.2702 0)
(2251.87 -58.2922 0)
(2244.87 39.2591 1.749e-18)
(2235.45 -47.9192 0)
(2248.75 10.3113 0)
(2250.5 -8.1807 0)
(2254.06 -5.16827 0)
(2253.52 -0.707552 1.65705e-21)
(2253.8 1.63799 1.67229e-21)
(2253.87 1.33157 4.29078e-19)
(2254.4 0.157972 -4.09739e-19)
(2254 0.518421 2.02327e-19)
(2254.05 0.218699 -2.07278e-19)
(2254.09 -2.11934 0)
(2254.04 -2.28682 0)
(2253.86 -0.0270312 -1.65436e-21)
(2253.96 2.02978 0)
(2254.36 1.07347 -1.68489e-21)
(2254.97 -0.55421 8.58663e-19)
(2254.21 0.0554567 -8.28912e-19)
(2254.3 -0.890211 1.72801e-18)
(2253.65 -0.0418129 -1.70839e-18)
(2254.01 4.17857 1.66262e-21)
(2250.68 6.56128 0)
(2249.98 -11.4937 0)
(2237.26 42.7609 0)
(2250.59 -35.4277 0)
(2241.5 6.71993 0)
(2231.55 -63.6519 9.12383e-19)
(2247.2 12.0313 -8.476e-19)
(2250.97 -11.77 0)
(2252.99 -5.957 8.61306e-19)
(2252.98 -1.07518 -4.33525e-19)
(2253.74 1.15882 -2.60037e-21)
(2253.91 0.840977 -2.17997e-19)
(2254.32 -0.12463 -4.26733e-19)
(2253.89 0.518991 1.60315e-19)
(2253.96 0.30156 1.66999e-21)
(2253.91 -2.04305 2.61283e-19)
(2253.89 -2.23204 -2.13609e-19)
(2253.7 -0.0309719 3.34008e-21)
(2253.79 1.85232 -4.27004e-19)
(2254.19 0.781609 4.32656e-19)
(2254.89 -0.627388 1.65587e-21)
(2254.15 0.499623 -1.66431e-21)
(2254.43 -0.0884822 -1.68492e-21)
(2253.28 0.497703 -8.66801e-19)
(2253.16 4.71091 8.53412e-19)
(2251.54 10.9509 0)
(2247.39 -15.0886 0)
(2232.44 65.3025 -1.93316e-18)
(2246.04 -18.9461 -1.26414e-19)
(2254.01 2.86589 -4.9522e-20)
(2227.51 -79.4195 6.02426e-20)
(2243.05 11.953 0)
(2248.63 -16.4511 -2.6912e-23)
(2252.6 -7.97889 -2.6262e-23)
(2252.65 -2.0768 0)
(2253.21 0.832035 0)
(2253.52 0.553753 -8.61367e-19)
(2254.03 -0.174118 8.47571e-19)
(2253.61 0.597488 0)
(2253.75 0.401867 1.70252e-18)
(2253.81 -1.76312 4.1996e-21)
(2253.71 -1.96105 -1.71475e-18)
(2253.47 -0.176166 -1.67949e-21)
(2253.69 1.36194 0)
(2254.18 0.0831796 3.44003e-18)
(2254.59 -0.656153 2.134e-22)
(2253.69 0.686801 -6.84067e-18)
(2253.83 0.377366 3.44564e-18)
(2252.79 1.86681 2.65382e-23)
(2252.71 6.79504 0)
(2248.56 13.3132 3.52658e-18)
(2244.11 -12.449 -3.31118e-18)
(2228.87 72.8331 3.8156e-18)
(2247.12 2.85062 -3.18297e-18)
(2218.39 -22.8945 -3.17189e-19)
(2214.73 -87.5244 -7.49675e-18)
(2235.66 3.19223 8.70962e-22)
(2246.13 -23.2369 2.61212e-23)
(2249.14 -10.0934 -8.10533e-22)
(2251.07 -3.43342 0)
(2252.61 -0.217674 -3.42508e-18)
(2253.16 -0.248461 3.43776e-18)
(2253.62 -0.624611 0)
(2253.25 0.281502 -8.20135e-22)
(2253.39 0.245764 -8.1937e-22)
(2253.39 -1.64165 0)
(2253.24 -1.85492 0)
(2252.97 -0.0683198 -1.62148e-21)
(2253.17 1.20478 -8.29202e-22)
(2253.8 -0.127846 2.59562e-23)
(2254.18 -0.273432 -8.47765e-22)
(2253.24 1.44394 -2.59976e-23)
(2253.33 1.62279 -1.72407e-18)
(2251.64 3.54402 -1.62925e-20)
(2249.93 8.91938 1.70197e-18)
(2246.51 19.9358 8.8516e-22)
(2236.84 -4.49754 3.45884e-18)
(2216.52 81.5918 -3.53703e-18)
(2222.18 18.1658 2.50399e-23)
(2113.34 -37.9297 9.42412e-19)
(2168.79 -98.6553 0)
(2217.08 -20.4402 -8.31549e-22)
(2235.02 -33.0223 -8.64879e-19)
(2245.79 -18.4884 1.71572e-18)
(2248.4 -7.26741 -1.72416e-18)
(2250.69 -1.9188 8.42426e-21)
(2251.82 -0.872329 8.55291e-19)
(2252.51 -0.690264 0)
(2252.31 0.333598 -8.39328e-19)
(2252.57 0.51608 8.38012e-19)
(2252.68 -0.83058 0)
(2252.42 -1.36553 0)
(2252.06 -0.61019 2.05858e-21)
(2252.34 0.242223 8.22338e-22)
(2252.86 -0.857504 8.38155e-19)
(2253.03 -0.115348 -8.39673e-19)
(2251.82 1.93293 0)
(2251.34 2.95007 8.57855e-19)
(2248.97 6.87203 -1.72629e-18)
(2246.13 15.4915 8.50054e-19)
(2236.07 29.3492 -8.40321e-22)
(2218.7 16.7921 0)
(2171 93.9954 0)
(2116.78 35.3952 0)
(1873.45 -142.224 -6.57077e-17)
(2125.71 -161.099 8.42371e-17)
(2198.43 -55.1711 0)
(2228.31 -55.9626 -2.98039e-17)
(2239.56 -22.9612 3.10746e-17)
(2245.53 -11.2655 0)
(2248.42 -5.30718 -2.94999e-20)
(2249.86 -2.97054 -1.47031e-17)
(2250.58 -2.01304 1.46109e-17)
(2250.52 -0.712605 -2.90479e-20)
(2250.88 -0.274408 0)
(2250.95 -0.966234 -3.66081e-18)
(2250.69 -1.05835 5.59526e-18)
(2250.24 -0.161538 -1.87066e-18)
(2250.45 0.417788 -2.8848e-20)
(2250.94 -0.195228 0)
(2250.95 1.25083 0)
(2249.69 3.79989 -2.95101e-17)
(2248.73 6.3624 2.91343e-17)
(2246.07 11.5185 -3.04996e-17)
(2240.71 22.1412 2.94944e-17)
(2229.26 53.5512 3.22692e-17)
(2200.05 53.7035 -2.9272e-17)
(2128.78 163.033 -8.33497e-17)
(1884 138.848 -1.259e-17)
(1652.54 -215.844 -9.09017e-17)
(2011.12 -307.917 1.37685e-16)
(2158.22 -105.824 0)
(2207.98 -64.7155 6.87913e-17)
(2230.99 -28.9856 -7.17493e-17)
(2239.44 -13.5411 -3.3737e-17)
(2242.9 -5.53963 3.39512e-17)
(2245.56 -2.8105 -3.35354e-17)
(2246.5 -1.12378 3.34923e-17)
(2246.77 0.252512 3.20701e-20)
(2247.3 0.803681 0)
(2247.5 0.66184 -2.10337e-18)
(2247.34 -0.266687 2.17122e-18)
(2246.69 -1.27832 3.27415e-20)
(2246.68 -1.37358 3.23654e-20)
(2246.89 -1.64696 3.28418e-20)
(2246.86 -0.0825346 0)
(2245.47 3.25864 0)
(2242.95 5.8979 -6.7747e-17)
(2240.08 13.5985 6.78809e-17)
(2231.82 26.3835 -7.2149e-17)
(2211.05 59.7878 1.46825e-16)
(2163.47 97.1118 -7.04796e-17)
(2014.36 297.724 -3.88802e-20)
(1695.36 205.889 8.78526e-20)
(1279.03 -593.657 -1.09032e-16)
(1741.14 -588.555 1.18466e-16)
(2038.8 -178.534 2.18144e-16)
(2169.15 -107.412 -9.38229e-17)
(2206.24 -37.0089 0)
(2224.97 -18.8937 7.4475e-17)
(2232.84 -12.7235 -7.53956e-17)
(2236.67 -7.07256 0)
(2237.99 -4.81488 3.53972e-20)
(2238.74 -2.88664 0)
(2239.54 -1.79641 0)
(2239.94 -0.812379 0)
(2240.08 0.207498 4.69502e-18)
(2239.34 0.570184 -4.65574e-18)
(2238.96 0.864814 -3.78332e-20)
(2238.44 1.31737 -3.52608e-20)
(2238.1 3.15778 0)
(2236.34 6.8226 0)
(2232.36 13.5501 0)
(2224.34 18.053 -7.86758e-17)
(2207.78 36.7616 1.57404e-16)
(2172.07 101.232 -7.3042e-17)
(2053.25 167.26 -1.32436e-16)
(1752.27 592.773 1.00255e-16)
(1281.77 547.019 -5.99695e-20)
(1298.07 -611.656 1.61093e-16)
(1112.91 -1079.03 0)
(1670.05 -470.363 0)
(1910.65 -124.03 -1.10393e-16)
(2136.04 -76.3043 1.11248e-16)
(2187.57 -39.9641 0)
(2200.04 -10.1409 1.18402e-20)
(2211.69 -4.7432 4.11245e-17)
(2214.83 0.184968 -4.16585e-17)
(2217.36 2.08277 0)
(2219.35 3.24364 -1.02538e-17)
(2220.7 3.24867 1.03153e-17)
(2221.61 1.25955 -5.17191e-18)
(2220.48 -1.94735 5.15454e-18)
(2218.79 -3.49811 3.85676e-20)
(2216.49 -4.03762 -4.13696e-17)
(2214.22 -2.43255 8.24176e-17)
(2210.33 3.01451 1.06375e-18)
(2197.28 9.27561 -4.10904e-17)
(2183.42 41.1463 -9.25123e-17)
(2120.32 66.5081 8.55318e-17)
(1897.05 102.099 8.45871e-20)
(1703.79 442.575 2.71249e-20)
(1107.98 1065.79 1.68036e-16)
(1315.52 613.335 7.32854e-18)
(1353.81 -630.94 0)
(1146.3 -1052.68 0)
(1274.02 -740.917 0)
(1183.26 -825.268 0)
(1954.57 -257.74 0)
(2002.49 -63.5973 1.06734e-16)
(2112 -62.4766 -1.08403e-16)
(2136.18 -33.1873 1.29298e-19)
(2145.53 -24.9274 -1.05541e-20)
(2152.91 -18.5662 2.36505e-17)
(2158.07 -13.5481 -2.39327e-17)
(2161.92 -7.48194 -2.51431e-19)
(2163.84 0.500857 -7.39126e-19)
(2162.11 7.86661 8.4546e-19)
(2158 14.0778 -2.37848e-17)
(2151.98 18.068 2.34795e-17)
(2143.93 24.2926 1.14285e-19)
(2132.15 35.7213 0)
(2104.46 67.7106 0)
(1976.51 82.7273 0)
(1905.4 326.322 -2.14459e-16)
(1152.11 822.154 -5.78833e-17)
(1285.47 717.855 1.60915e-16)
(1145.58 1015.14 2.04994e-20)
(1363.32 620.395 2.08032e-20)
(1429.23 -619.15 0)
(1257.26 -909.729 4.10019e-20)
(1305.92 -752.965 0)
(1196.64 -833.469 -1.6646e-16)
(1274.4 -742.902 3.29857e-16)
(1465.85 -645.264 -2.17164e-16)
(1794.16 -88.7529 0)
(1857.54 -15.7646 -1.19542e-19)
(1881.35 21.3239 0)
(1908.59 23.4196 0)
(1928.05 27.3139 -1.64393e-17)
(1944.57 19.8652 1.66482e-17)
(1949.67 5.40212 1.63392e-17)
(1946.34 -9.79629 -1.64475e-17)
(1931.97 -21.6788 0)
(1909.36 -22.5412 -7.15346e-17)
(1880.23 -19.5321 7.17866e-17)
(1849.6 16.45 8.72847e-17)
(1796.71 116.268 -7.27739e-17)
(1447.73 635.576 0)
(1254.03 764.579 0)
(1172.34 828.114 -1.67392e-19)
(1310.4 732.205 -1.6904e-16)
(1255.68 899.321 3.7289e-16)
(1414.6 617.484 -1.71271e-16)
(1505.64 -619.428 -1.71072e-16)
(1392.85 -826.298 1.8653e-16)
(1362.2 -708.557 0)
(1232.72 -744.305 -2.0967e-16)
(1233.47 -654.685 -1.98967e-17)
(1138.34 -651.208 2.9612e-16)
(1067.06 -524.384 -2.15848e-16)
(945.66 -529.493 1.26808e-16)
(978.567 -426.863 0)
(1026.65 -275.523 0)
(1075.11 -205.462 -4.12579e-20)
(1118.66 -107.766 2.58579e-19)
(1118.31 -10.3877 0)
(1121.83 84.2231 0)
(1101.76 197.108 6.00648e-17)
(1051.78 292.955 -5.70715e-17)
(963.701 443.145 -1.16114e-16)
(896.404 520.137 2.37999e-16)
(1043.99 521.606 1.78193e-17)
(1128.39 642.074 -1.00001e-16)
(1219.53 674.929 0)
(1205.28 749.572 0)
(1356.2 695.118 -1.81534e-16)
(1350.14 853.041 2.05113e-16)
(1485.65 628.241 -4.54788e-20)
(1625.07 -588.721 1.62176e-16)
(1512.9 -713.041 -9.87662e-20)
(1504.73 -602.302 1.02801e-16)
(1411.47 -579.086 -8.89173e-17)
(1339.9 -504.202 -4.92502e-20)
(1194.61 -503.274 9.70516e-20)
(1043.07 -347.376 1.2598e-16)
(649.269 -180.151 -1.88937e-16)
(369.708 -76.2519 6.41359e-17)
(278.459 -87.0636 0)
(278.68 -62.1757 -3.28322e-17)
(304.197 -32.5618 3.24622e-17)
(298.388 2.75347 0)
(300.678 35.5124 5.73438e-20)
(289.42 60.9564 -3.23478e-17)
(298.737 86.1421 3.32118e-17)
(352.761 78.6942 0)
(605.531 151.323 -1.21497e-16)
(996.895 343.251 1.28885e-16)
(1186.04 492.904 9.71254e-17)
(1320.61 519.723 -2.01135e-16)
(1384.14 590.34 1.08054e-16)
(1492.1 615.568 0)
(1499.69 744.778 1.74294e-16)
(1615.84 604.017 -4.81717e-18)
(1775.02 -497.726 -4.40502e-18)
(1720.61 -463.863 8.64589e-17)
(1591.15 -351.619 -4.0271e-17)
(1400.96 -235.31 -5.79628e-17)
(1350.36 -164.363 7.76666e-17)
(1221.67 -165.831 -5.51672e-17)
(1070.17 -65.7116 5.82811e-17)
(758.918 -62.5073 -6.3843e-17)
(535.766 -54.8587 7.26528e-21)
(494.619 -49.1552 3.29556e-17)
(502.129 -17.5846 1.64106e-17)
(515.619 -10.4193 1.34418e-20)
(513.866 3.27373 -1.63515e-17)
(512.301 16.5551 -6.52617e-20)
(503.507 26.2154 -7.93524e-20)
(506.506 52.1033 -2.05117e-18)
(546.374 52.9904 -1.1507e-20)
(746.001 54.9919 5.87218e-18)
(1065.66 69.7683 -3.8018e-18)
(1237.19 171.021 0)
(1344.02 175.69 1.21817e-17)
(1395.3 235.422 -3.7236e-17)
(1603.98 398.815 4.66024e-17)
(1711.55 505.764 -6.08545e-17)
(1771.75 514.734 5.7181e-17)
(1891.74 -437.698 -9.01401e-20)
(1852.88 -199.097 -1.17627e-19)
(1760.13 -19.9904 1.44658e-19)
(1568.42 -31.325 -6.3797e-21)
(1441.54 16.0351 -1.77038e-19)
(1336.65 -9.4775 -1.98298e-19)
(1261.71 -21.4498 -7.91359e-21)
(1100.6 -89.2703 0)
(900.876 -79.2044 0)
(833.127 -49.7129 6.61384e-17)
(836.278 -13.117 -6.58661e-17)
(851.322 -4.61584 -9.22812e-21)
(851.294 4.90162 9.23166e-21)
(849.334 16.5354 -8.46158e-18)
(837.146 23.7335 8.24938e-18)
(836.93 59.8101 0)
(882.678 86.3665 0)
(1058.99 105.642 -6.20159e-17)
(1245.33 38.8869 5.80753e-17)
(1334.46 14.4592 -1.89819e-19)
(1414.52 -10.2792 0)
(1554.94 29.7196 0)
(1769.53 36.2452 -1.44697e-19)
(1850.46 191.055 -1.20714e-19)
(1888.49 446 1.35155e-16)
(1834.46 33.6875 -1.56339e-16)
(1816.15 168.403 -2.6193e-16)
(1719.89 326.774 1.21711e-16)
(1654.81 273.212 0)
(1572.23 185.31 2.20417e-19)
(1489.27 99.7437 1.08413e-16)
(1443.55 50.0404 -2.15283e-16)
(1329.86 -29.1207 1.13349e-16)
(1133.86 -51.0139 -1.26002e-16)
(1004.94 -36.134 1.2811e-16)
(975.13 -10.4182 3.25605e-17)
(978.098 -2.79683 -4.05942e-17)
(979.393 5.88495 -8.16345e-18)
(976.417 15.8793 1.65092e-17)
(975.12 21.6036 0)
(1004.6 48.8314 0)
(1118.68 63.6062 1.23421e-16)
(1309.21 47.1722 -2.34405e-16)
(1443.31 -30.2359 1.11784e-16)
(1488.77 -97.5081 2.3361e-19)
(1555.35 -189.717 1.83581e-16)
(1669.49 -272.869 -5.52333e-17)
(1736.71 -317.303 -4.57948e-16)
(1814.58 -186.165 6.44284e-16)
(1839.47 -24.9718 -2.46808e-16)
(1241.24 547.638 1.59939e-19)
(1391.37 823.364 -2.28663e-16)
(1667.84 684.291 1.20363e-16)
(1693.41 499.401 0)
(1661.55 338.363 0)
(1588.79 220.253 0)
(1556.67 144.383 0)
(1466.13 58.6228 0)
(1287.88 16.3929 -5.41663e-17)
(1145.05 2.19996 1.11109e-16)
(1086.47 6.37443 -8.49335e-17)
(1079.02 5.23974 3.18959e-17)
(1076.37 6.47188 -3.57583e-18)
(1078.34 8.8901 1.40977e-20)
(1088.94 5.50755 -5.63111e-17)
(1151.8 12.4519 5.65119e-17)
(1290.96 -2.27939 0)
(1464.76 -45.2138 0)
(1562.86 -135.986 -1.75659e-16)
(1591.87 -218.243 1.87138e-16)
(1653.1 -346.729 -1.72621e-19)
(1702.28 -515.737 6.80883e-20)
(1660.93 -689.066 -8.91046e-20)
(1380.37 -822.221 -9.06324e-20)
(1185.88 -517.168 0)
(808.221 614.62 -1.98111e-16)
(1431.12 943.697 1.49892e-16)
(1675.3 871.893 -1.29941e-19)
(1725.09 688.571 1.54354e-16)
(1721.55 481.105 -1.25951e-16)
(1663.68 323.266 0)
(1631.91 229.248 -8.26434e-17)
(1558.53 142.162 7.98424e-17)
(1399.21 81.2348 -4.68381e-17)
(1254.24 45.8864 9.6297e-17)
(1189.24 29.943 -4.85988e-17)
(1172.73 15.6016 1.82098e-19)
(1171.67 5.00832 0)
(1173.48 -4.82267 2.47776e-17)
(1195.65 -21.7052 2.36805e-17)
(1267.34 -38.9969 -4.86609e-17)
(1409.16 -77.0493 -8.76968e-17)
(1561.51 -138.013 8.79618e-17)
(1634.97 -227.256 -7.33673e-17)
(1668.11 -324.223 8.05981e-17)
(1713.97 -504.109 8.14141e-20)
(1727.86 -712.12 -7.6047e-20)
(1652.15 -899.533 0)
(1398 -937.232 6.79172e-20)
(725.224 -555.612 0)
(851.939 544.863 1.70853e-16)
(1494.06 909.835 -1.4544e-16)
(1684.06 950.931 4.66998e-20)
(1748.54 795.706 0)
(1759.68 605.505 0)
(1707.05 445.08 -7.39082e-21)
(1685.25 325.095 0)
(1624.05 222.848 7.77808e-20)
(1487.22 149.634 0)
(1355 89.9027 4.26409e-17)
(1282.57 54.4892 -6.44311e-17)
(1264.86 26.8292 3.2376e-17)
(1260.81 4.05693 -1.08894e-17)
(1266.39 -18.2757 0)
(1288.62 -48.5158 0)
(1365.16 -82.7466 4.05774e-17)
(1495.82 -142.759 -1.16457e-16)
(1628.84 -214.918 7.66416e-17)
(1685.05 -329.257 -6.23755e-17)
(1711.65 -442.44 7.10245e-17)
(1758.9 -609.569 0)
(1754.66 -808.641 0)
(1677.48 -954.891 0)
(1475.15 -897.812 -8.21673e-21)
(774.882 -484.247 -1.96038e-16)
(996.551 478.886 -3.20053e-20)
(1564.7 854.527 1.15913e-16)
(1694.5 942.23 -9.95645e-17)
(1776.11 835.363 0)
(1781.68 683.651 0)
(1742.83 524.46 7.75078e-21)
(1726.77 399.934 6.48574e-17)
(1672.99 291.025 -6.11151e-17)
(1550.54 198.845 3.21703e-20)
(1430.98 128.243 3.41527e-20)
(1367.24 78.9785 3.51058e-20)
(1345.91 38.7155 -1.02491e-20)
(1343.96 2.78668 -1.02578e-20)
(1347.01 -32.1138 1.92123e-17)
(1372.43 -73.889 -1.94332e-17)
(1440.33 -124.584 4.38958e-20)
(1558.3 -199.053 4.15807e-20)
(1679.4 -284.045 0)
(1726.42 -402.369 -5.57307e-17)
(1746.41 -520.189 6.29229e-17)
(1784.94 -683.778 0)
(1785.61 -841.99 -9.92384e-17)
(1692.86 -946.619 1.0217e-16)
(1561.57 -859.636 7.01044e-21)
(1024.51 -479.807 -1.72945e-16)
(1158.13 454.883 3.78568e-20)
(1615.12 819.664 0)
(1706.9 919.256 0)
(1790.48 847.69 -5.19726e-17)
(1792.8 734.16 4.70895e-17)
(1766.73 590.798 0)
(1762.75 465.754 5.94117e-17)
(1713.82 347.35 -5.62423e-17)
(1605.91 245.112 3.34e-17)
(1500.87 157.555 -3.33062e-17)
(1439.26 98.7755 1.77965e-17)
(1422.88 48.436 -1.76916e-17)
(1418.88 1.48319 0)
(1424.1 -45.8906 -1.75401e-17)
(1445.77 -98.4025 1.7843e-17)
(1512.88 -156.835 -3.59248e-20)
(1618.22 -250.116 -3.40783e-20)
(1723.33 -347.028 5.47973e-20)
(1762.3 -476.088 5.10533e-17)
(1764.29 -595.044 -5.76143e-17)
(1793.74 -739.185 -4.76831e-20)
(1797.22 -858.291 -4.63308e-20)
(1712.79 -920.12 0)
(1589.77 -827.517 -5.61083e-20)
(1102.05 -450.323 3.85465e-20)
(1170.36 424.795 1.42792e-22)
(1615.63 765.294 0)
(1730.68 867.102 9.00492e-23)
(1801.36 845.726 4.38734e-20)
(1802.11 765.237 -8.69615e-23)
(1791.39 631.53 -5.24693e-17)
(1790.04 514.883 4.72642e-17)
(1748.85 393.869 0)
(1652.37 281.987 -6.23247e-20)
(1557.87 190.234 -1.11853e-22)
(1507.43 119.704 -1.14842e-22)
(1489.81 58.6111 6.84802e-20)
(1488.6 1.34797 0)
(1490.66 -56.2457 0)
(1512.08 -119.137 -1.14284e-22)
(1568.63 -189.901 -1.11125e-22)
(1662.03 -289.216 -2.82e-17)
(1755.92 -392.752 8.04226e-17)
(1789.59 -518.932 -5.43429e-17)
(1789.86 -630.594 0)
(1802.79 -764.852 -4.506e-17)
(1809.39 -851.604 4.55891e-17)
(1738.43 -879.995 8.91486e-23)
(1634.81 -772.949 4.97018e-20)
(1171.98 -452.175 1.41716e-22)
(1232.42 446.735 5.59855e-18)
(1659.28 729.599 1.32153e-17)
(1761.94 823.74 9.81581e-17)
(1803.08 833.456 -4.27599e-17)
(1812.26 766.655 4.33462e-17)
(1807.93 660.83 -4.80858e-17)
(1816.77 554.602 4.41867e-17)
(1778.59 427.48 -2.65672e-17)
(1692.85 314.031 2.61616e-17)
(1612.83 211.229 1.17627e-22)
(1565.02 134.504 1.2125e-22)
(1554.29 66.1536 -1.22169e-22)
(1551.05 1.55097 7.40056e-18)
(1555.55 -64.2614 7.24335e-18)
(1570.5 -135.655 -1.49996e-17)
(1623.65 -209.962 1.17361e-22)
(1705.03 -318.316 5.2124e-17)
(1788.56 -426.453 -1.01535e-16)
(1818.08 -560.118 5.01562e-17)
(1806.14 -659.793 0)
(1810.1 -768.369 -8.71663e-23)
(1808.3 -839.664 8.04737e-23)
(1765.56 -827.606 -8.41382e-23)
(1657.91 -736.326 -1.04673e-16)
(1230.79 -427.647 1.28663e-16)
(1273.91 425.455 1.23466e-19)
(1682.07 665.713 0)
(1783.33 767.12 0)
(1810.32 811.18 4.03246e-20)
(1824.48 757.904 8.15131e-20)
(1832.52 666.783 0)
(1841.41 568.349 4.65726e-17)
(1804.18 445.851 -4.53206e-17)
(1725.96 331.738 4.68736e-20)
(1655.56 231.014 -4.92202e-20)
(1621 147.384 -1.38268e-17)
(1609.37 69.8425 1.37566e-17)
(1609.08 -1.80427 3.5539e-18)
(1610.14 -74.6198 -3.47106e-18)
(1625.79 -154.608 1.33798e-17)
(1667.92 -237.873 -3.93789e-17)
(1739.02 -347.593 2.60693e-17)
(1813.22 -454.193 -4.94982e-20)
(1839.54 -581.462 4.12667e-20)
(1829.22 -672.672 -4.10069e-17)
(1821.54 -762.895 7.29126e-19)
(1815.92 -822.796 -1.72892e-18)
(1792.13 -779.835 4.0998e-17)
(1683.23 -666.374 4.78845e-20)
(1229.3 -417.201 6.08323e-20)
(1274.86 402.53 1.13119e-16)
(1700.59 622.575 -9.7005e-17)
(1806.4 724.351 0)
(1822.65 783.871 -3.89654e-17)
(1836.82 740.225 3.48525e-19)
(1845.97 672.101 3.97092e-17)
(1861.91 590.862 4.34021e-17)
(1828.02 468.947 -4.2708e-17)
(1760.44 356.209 -4.9377e-20)
(1702.37 247.713 -2.51477e-17)
(1668.94 160.136 1.2128e-17)
(1663.38 78.337 1.26159e-17)
(1660.58 1.8394 -5.35807e-20)
(1664.23 -76.1083 0)
(1672.21 -160.642 0)
(1710.66 -243.604 0)
(1771.06 -357.666 4.90931e-20)
(1838.56 -465.407 1.03028e-20)
(1864.24 -594.95 -5.23681e-20)
(1844.45 -669.513 0)
(1833.08 -739.004 3.94933e-20)
(1824.4 -788.547 9.52509e-21)
(1810.92 -729.043 -4.96182e-20)
(1711.88 -618.282 -9.62917e-17)
(1286.19 -389.356 1.16323e-16)
(1276.15 382.195 5.51031e-17)
(1714.2 547.023 -8.73995e-17)
(1828.2 652.895 8.31185e-17)
(1837.22 743.303 -4.06006e-17)
(1851.72 722.092 -3.77839e-17)
(1869.04 660.881 3.78388e-17)
(1882.41 582.372 2.02819e-17)
(1847.54 469.935 -2.03569e-17)
(1786.15 361.516 1.13467e-17)
(1735.55 258.825 -2.30822e-17)
(1714.77 168.716 1.7536e-17)
(1708.11 80.8295 -7.41919e-18)
(1708.88 -0.746692 1.48625e-18)
(1709.16 -82.8701 -4.3988e-20)
(1718.68 -173.841 2.30534e-17)
(1745.98 -262.159 -2.35799e-17)
(1797.55 -372.99 4.11965e-20)
(1857.17 -471.821 4.07356e-17)
(1883.71 -592.8 -1.99531e-18)
(1868.04 -664.417 -3.84542e-17)
(1848.3 -725.379 0)
(1837.56 -757.758 4.08835e-17)
(1829.38 -674.268 -3.69671e-17)
(1715.54 -549.81 -9.36222e-17)
(1283.1 -368.954 -3.6689e-18)
(1328.3 368.223 -5.45566e-17)
(1741.32 482.493 4.55156e-17)
(1850.07 600.876 1.90966e-20)
(1849.08 703.818 -5.43835e-20)
(1869.99 696.527 1.87943e-20)
(1883 644.614 3.67737e-17)
(1898.95 579.493 -1.81911e-17)
(1864.77 472.1 -1.95397e-17)
(1813.27 367.631 4.34843e-20)
(1774.67 261.743 -4.493e-20)
(1753.96 170.062 2.05653e-20)
(1753.56 81.0121 -2.05964e-20)
(1751.41 -2.85523 0)
(1753.82 -87.45 5.07536e-21)
(1756.41 -178.716 -1.0853e-17)
(1782.92 -264.992 1.10217e-17)
(1825.53 -378.837 -2.03824e-17)
(1877.44 -477.357 9.53557e-19)
(1901.94 -592.679 1.92687e-17)
(1879.6 -649.195 -5.38462e-20)
(1864.81 -696.472 -3.79586e-17)
(1848.59 -705.072 3.54346e-17)
(1849.56 -596.557 0)
(1729.6 -493.033 -4.51918e-17)
(1300.46 -360.366 5.57502e-17)
(1339.87 337.056 0)
(1758.47 416.562 -3.81833e-17)
(1860.93 521.459 4.32663e-17)
(1864.9 645.394 1.75801e-20)
(1885.7 672.802 1.73219e-20)
(1906.14 630.613 -3.49923e-17)
(1916.55 565.209 3.6433e-17)
(1881.8 466.497 1.95109e-17)
(1836.15 368.333 6.80796e-19)
(1801.59 270.635 -2.03464e-17)
(1792.22 179.567 -2.1679e-20)
(1789.78 87.0679 2.43383e-20)
(1791.29 0.190878 0)
(1789.84 -86.6098 4.36931e-20)
(1794.46 -182.941 -2.15658e-20)
(1809.66 -270.091 1.00837e-17)
(1845 -375.748 -1.0137e-17)
(1889.64 -462.772 -1.95014e-20)
(1920.75 -573.225 -2.05743e-20)
(1904.67 -636.505 1.74675e-20)
(1880.37 -675.923 -3.69329e-17)
(1860.13 -657.787 -5.94653e-18)
(1860.19 -536.718 3.42058e-17)
(1751.45 -423.472 0)
(1331.66 -341.904 5.50817e-17)
(1366.12 320.941 -1.03672e-16)
(1774.49 362.067 4.26726e-17)
(1867.7 461.503 3.30661e-17)
(1880.53 603.101 -3.96369e-17)
(1901.32 634.978 0)
(1920.39 606.256 -2.12628e-21)
(1929.1 555.055 0)
(1896.89 461.445 -2.33361e-21)
(1858.97 365.987 -2.43609e-21)
(1835.23 266.778 0)
(1823.85 175.861 0)
(1827.48 84.9765 -2.56098e-21)
(1826 -1.82703 0)
(1827.41 -89.2121 0)
(1825.42 -183.315 -9.76866e-18)
(1841.64 -267.525 9.79431e-18)
(1869.82 -375.149 -2.41871e-21)
(1907.52 -462.89 -1.81263e-17)
(1933.71 -563.397 1.77113e-17)
(1918.3 -610.104 0)
(1895.47 -634.569 3.67272e-17)
(1876.72 -596.842 -7.32392e-17)
(1865.72 -459.722 7.48837e-17)
(1766.95 -377.035 4.9437e-18)
(1352.26 -330.91 -5.2163e-17)
(1396.36 293.569 1.23638e-20)
(1789.37 319.836 -9.81586e-21)
(1856.69 403.235 0)
(1893.75 519.447 0)
(1914.27 595.469 0)
(1942.07 588.283 7.83685e-21)
(1945.33 532.022 0)
(1911.94 441.127 -8.3623e-21)
(1878.77 354.657 0)
(1855.53 264.161 -8.7629e-21)
(1855.67 177.071 0)
(1856.54 85.2394 -2.37224e-18)
(1858.71 -2.75443 2.34903e-18)
(1856.09 -90.5827 0)
(1856.87 -186.961 9.27444e-18)
(1862.1 -268.712 -1.85692e-17)
(1886.64 -366.799 9.16027e-18)
(1920.09 -442.401 0)
(1951.09 -544.08 1.72656e-17)
(1941.15 -597.354 -1.60419e-17)
(1910.16 -599.612 3.62934e-17)
(1890.97 -525.054 -3.19168e-17)
(1861.7 -395.185 0)
(1781.73 -324.592 0)
(1371.81 -309.085 0)
(1400.79 282.293 -1.23232e-20)
(1789.08 296.961 9.72419e-21)
(1860.97 329.63 0)
(1910.99 446.819 0)
(1926.94 543.963 0)
(1953.72 556.937 -7.93691e-21)
(1957.41 516.967 0)
(1926.02 435.486 8.65938e-21)
(1899.89 352.58 0)
(1886.52 260.894 -8.9461e-18)
(1881.43 173.104 8.98408e-18)
(1887.51 85.0485 -8.4269e-21)
(1886.73 -0.574973 9.28147e-21)
(1887.31 -86.5737 8.41417e-21)
(1881.81 -178.594 0)
(1890.26 -258.552 0)
(1908.54 -359.442 8.85914e-21)
(1933.9 -434.545 -1.71359e-17)
(1961.82 -521.095 1.65625e-17)
(1952.52 -561.107 0)
(1920.51 -548.074 8.00242e-21)
(1904.94 -451.333 0)
(1855.38 -323.226 0)
(1795.29 -302.193 0)
(1403.01 -295.536 0)
(1420.68 267.942 -4.72625e-17)
(1800.65 273.833 3.9394e-17)
(1870.55 280.269 0)
(1916.9 348.536 -1.70593e-20)
(1941.22 493.145 0)
(1968.11 528.706 -1.49469e-17)
(1973.12 491.782 3.24621e-17)
(1940.84 410.954 -1.67219e-17)
(1916.63 335.503 -8.45782e-18)
(1901.98 253.592 8.59941e-18)
(1907.94 171.911 4.402e-21)
(1910.26 83.4174 1.12327e-18)
(1913.15 -2.3263 -1.07762e-18)
(1910.17 -87.4445 8.5774e-18)
(1908.63 -180.909 -8.60298e-18)
(1906.28 -256.778 0)
(1923.28 -346.304 -1.59408e-20)
(1947.22 -412.409 0)
(1979.07 -502.807 0)
(1967.53 -536.406 -1.6818e-17)
(1936.35 -500.814 1.49195e-17)
(1909.99 -349.143 0)
(1863.96 -268.847 3.68122e-17)
(1807.36 -275.226 1.99998e-18)
(1409.82 -267.734 -9.60149e-17)
(1447.62 256.759 4.69896e-17)
(1813.32 256.123 1.86908e-20)
(1879.86 221.458 3.16938e-17)
(1916.33 289.458 -2.35295e-17)
(1948.59 436.308 -1.8526e-17)
(1975.09 480.117 0)
(1982.13 466.089 8.20772e-21)
(1952.47 400.784 1.59777e-17)
(1934.85 328.455 -1.6416e-17)
(1930.03 243.405 0)
(1929.45 161.159 0)
(1936.27 78.4485 -2.59238e-20)
(1935.67 -3.70516 3.23502e-20)
(1935.85 -85.4658 1.68574e-20)
(1929.06 -171.675 4.14841e-18)
(1932.21 -246.535 -4.09439e-18)
(1942.97 -340.556 8.70467e-21)
(1960.26 -402.764 1.62106e-17)
(1987.64 -472.056 -3.21688e-17)
(1975.89 -482.909 1.46383e-17)
(1946.24 -432.82 -1.54877e-20)
(1908.16 -280.019 0)
(1873.34 -218.299 1.74457e-20)
(1820.64 -258.315 3.90971e-17)
(1432.59 -245.192 -9.28684e-17)
(1458.6 233.25 -4.6095e-17)
(1827.57 238 -3.68323e-17)
(1884.05 197.468 3.49597e-17)
(1894.3 196.826 1.46667e-17)
(1957.29 354.372 -1.92919e-17)
(1983.49 438.063 0)
(1995.33 438.339 3.90884e-21)
(1967.13 375.3 -1.15989e-20)
(1951.65 311.799 7.87276e-18)
(1942.27 237.24 -1.6086e-17)
(1951.17 162.036 8.01682e-18)
(1953.95 79.6104 1.9996e-18)
(1957.2 -1.41091 -1.86938e-18)
(1953.69 -81.3666 1.86118e-18)
(1951.59 -168.798 -2.00019e-18)
(1944.65 -237.649 0)
(1955.94 -320.51 1.1735e-20)
(1972.27 -374.886 -3.69663e-21)
(2000.62 -448.962 -1.63722e-17)
(1982.3 -447.35 1.42189e-17)
(1956.47 -364.535 0)
(1883.7 -193.753 0)
(1880.49 -191.94 -4.19744e-21)
(1832.69 -236.081 -3.82237e-17)
(1464.79 -216.861 -1.86082e-18)
(1474.65 214.29 -2.15405e-17)
(1835.87 226.239 1.88077e-17)
(1892.5 180.636 4.22135e-21)
(1904.03 143.69 0)
(1961.5 263.636 1.41002e-17)
(1987.06 370.362 -1.72912e-17)
(1998.45 399.735 3.734e-21)
(1976.02 359.563 3.80891e-21)
(1967.02 302.632 1.45927e-20)
(1967.91 225.746 -1.91595e-18)
(1969.25 149.743 9.77849e-19)
(1975.84 73.696 1.89415e-18)
(1975.16 -3.19973 -9.69513e-19)
(1975.17 -79.3777 3.87001e-18)
(1968.68 -158.988 -3.86202e-18)
(1969.47 -228.149 0)
(1973.64 -314.602 1.06605e-20)
(1981.41 -362.093 -1.57583e-17)
(2002.96 -402.837 1.46594e-17)
(1988.15 -373.464 3.71641e-21)
(1956.81 -257.634 0)
(1892.91 -134.097 0)
(1890.76 -182.969 4.24732e-21)
(1840.19 -227.902 -3.74216e-17)
(1478.5 -198.387 4.34939e-17)
(1502.08 185.541 2.16684e-20)
(1849.56 204.103 0)
(1909.06 164.551 -7.91322e-21)
(1907.09 74.4384 -1.48303e-17)
(1948.51 187.567 1.83001e-17)
(1990.42 322.654 -1.38103e-17)
(2002.52 359.084 1.64262e-17)
(1987.45 324.779 -7.27454e-18)
(1981.54 280.043 7.66335e-18)
(1976.66 214.791 -3.75525e-18)
(1987.22 147.176 3.7663e-18)
(1989.89 71.8076 -1.84239e-18)
(1993.06 -3.44297 2.10181e-18)
(1989.27 -77.839 -2.49201e-19)
(1987.27 -158.192 3.75853e-18)
(1978.62 -218.696 -7.52718e-18)
(1985.44 -292.411 -3.99163e-18)
(1993.43 -329.42 7.17975e-18)
(2011.88 -368.988 1.45226e-20)
(1992.1 -325.078 -7.52831e-21)
(1943.97 -183.434 0)
(1897.37 -71.0659 0)
(1909.5 -167.107 0)
(1846.29 -206.687 -1.83567e-17)
(1498.18 -174.72 2.11998e-17)
(1511.64 167.667 -2.60451e-21)
(1853.98 183.466 0)
(1925.08 157.531 1.00846e-20)
(1914.97 58.2885 -8.02461e-21)
(1921.04 102.975 -7.51886e-21)
(1985.97 214.622 0)
(2000.38 303.895 -7.29086e-21)
(1991.33 302.319 7.1051e-18)
(1993.24 269.155 -7.58587e-18)
(1999.31 204.71 0)
(2002.4 137.063 1.73355e-21)
(2008.52 68.5122 0)
(2007.91 -2.09211 0)
(2007.84 -72.0462 1.82025e-18)
(2001.6 -144.745 -1.82389e-18)
(2001.1 -205.903 -7.26848e-21)
(1998.27 -280.123 -1.74383e-21)
(1994.25 -307.25 7.22955e-21)
(2004.04 -304.907 -8.39766e-18)
(1992.67 -224.124 6.90979e-18)
(1911.01 -98.9605 -1.73491e-17)
(1905.87 -54.1902 3.2148e-17)
(1925.63 -160.309 -1.62266e-17)