/*--------------------------------*- C++ -*----------------------------------*\
| =========                 |                                                 |
| \\      /  F ield         | OpenFOAM: The Open Source CFD Toolbox           |
|  \\    /   O peration     | Version:  2112                                  |
|   \\  /    A nd           | Website:  www.openfoam.com                      |
|    \\/     M anipulation  |                                                 |
\*---------------------------------------------------------------------------*/
FoamFile
{
    version     2.0;
    format      ascii;
    arch        "LSB;label=32;scalar=64";
    class       volScalarField;
    location    "0.00368";
    object      p;
}
// * * * * * * * * * * * * * * * * * * * * * * * * * * * * * * * * * * * * * //

dimensions      [1 -1 -2 0 0 0 0];

internalField   nonuniform List<scalar> 
13875
(
951594
984280
973630
975780
973375
974434
974570
974285
974917
975011
974945
975133
974735
974808
974869
974657
974483
974440
973882
973923
973091
975621
972398
982484
945338
733814
659558
672293
677315
670283
668574
668604
670267
677620
678722
678553
678164
670352
669246
670426
677784
678632
677067
670240
668197
669258
676980
672355
657264
730901
736905
635545
664395
653472
648189
645892
645024
645545
647335
647340
647602
647871
645738
645524
645446
648574
645193
647790
646068
646199
647611
651850
661933
632165
733659
743552
636189
665275
653618
648465
646081
645163
645604
645287
644892
645219
645736
645817
645632
645514
645701
643666
645500
646155
646406
647893
651969
662679
632771
739357
757391
639196
667819
654301
649316
646643
645571
645844
645381
645080
645312
645902
646080
645917
645755
645774
643846
645584
646459
646971
648699
652554
664960
635413
750553
759093
647854
673578
656239
651144
647838
646421
646403
645735
645618
645633
646344
646634
646501
646285
646038
644371
645911
647152
648147
650451
654424
670531
643151
751913
765143
668370
685804
661143
654919
650281
648129
647589
646660
646670
646495
647242
647738
647680
647369
646697
645520
646914
648716
650640
654319
660098
682071
665886
756054
791416
718434
711795
674640
663164
655509
651657
650128
648788
648739
648461
649053
649939
650075
649595
648365
647887
649272
651961
655622
662256
673104
707173
715519
782118
909184
828107
766997
704963
680013
666015
658760
655403
653358
653045
652728
652938
654430
654929
654159
652286
652734
654469
658594
665510
678254
701579
760731
823672
910521
1.52597e+06
1.02997e+06
835529
742829
702055
681099
670430
665161
662648
661994
661664
661393
663557
664588
663550
661190
662267
664523
669831
680449
700528
739965
831317
1.02674e+06
1.52096e+06
2.91273e+06
1.39521e+06
965232
807152
739609
707749
692323
684907
681746
680606
680138
679414
681960
683694
682803
680503
681565
684444
691052
705540
735508
798932
947813
1.35446e+06
2.87183e+06
5.62733e+06
2.3532e+06
1.3194e+06
969741
824974
766845
741077
729355
724425
722413
721538
720736
723152
725545
725226
724104
725268
729531
740034
764103
819371
955823
1.28228e+06
2.28534e+06
5.60206e+06
5.41942e+06
4.84231e+06
2.43999e+06
1.50631e+06
1.06785e+06
929666
872383
847061
836371
832043
830321
829651
831428
834100
834795
836315
840177
850121
874940
932080
1.06945e+06
1.47722e+06
2.31557e+06
4.88875e+06
5.374e+06
4.89906e+06
4.70333e+06
4.94498e+06
4.36727e+06
1.84412e+06
1.45307e+06
1.30386e+06
1.23647e+06
1.21089e+06
1.20083e+06
1.19746e+06
1.19659e+06
1.19795e+06
1.20013e+06
1.2034e+06
1.20974e+06
1.22336e+06
1.25393e+06
1.33355e+06
1.51361e+06
1.99824e+06
4.43749e+06
4.92623e+06
4.76478e+06
4.80893e+06
4.14185e+06
4.28474e+06
4.80839e+06
4.77283e+06
4.47866e+06
3.35658e+06
3.11208e+06
2.79196e+06
2.65739e+06
2.60504e+06
2.58407e+06
2.57517e+06
2.57389e+06
2.57792e+06
2.5898e+06
2.61605e+06
2.6736e+06
2.81214e+06
3.17491e+06
3.45073e+06
4.47248e+06
4.76346e+06
4.82544e+06
4.44009e+06
4.38106e+06
3.7655e+06
3.81318e+06
4.44205e+06
5.05326e+06
6.37223e+06
7.5764e+06
8.22765e+06
8.14814e+06
8.27865e+06
8.17564e+06
8.21018e+06
8.14324e+06
8.17176e+06
8.15593e+06
8.20053e+06
8.19458e+06
8.27856e+06
8.16957e+06
8.30095e+06
7.67808e+06
6.42145e+06
5.11146e+06
4.56452e+06
3.97255e+06
4.00083e+06
2.96578e+06
3.33719e+06
4.39356e+06
5.2582e+06
6.47476e+06
7.359e+06
7.68977e+06
7.59437e+06
7.4773e+06
7.37165e+06
7.31415e+06
7.28081e+06
7.26568e+06
7.26951e+06
7.3108e+06
7.36473e+06
7.48274e+06
7.58883e+06
7.69557e+06
7.41957e+06
6.58324e+06
5.30393e+06
4.4701e+06
3.44752e+06
3.14259e+06
2.26792e+06
3.00042e+06
4.36324e+06
5.21987e+06
5.84145e+06
6.19391e+06
6.19525e+06
6.18526e+06
6.1529e+06
6.14705e+06
6.14304e+06
6.13459e+06
6.13025e+06
6.1303e+06
6.13526e+06
6.13312e+06
6.13897e+06
6.15965e+06
6.16574e+06
6.17941e+06
5.90512e+06
5.30447e+06
4.34819e+06
2.79948e+06
2.06799e+06
1.16833e+06
1.95454e+06
3.68811e+06
4.23592e+06
4.54902e+06
4.80456e+06
4.98179e+06
5.16477e+06
5.33191e+06
5.45082e+06
5.51469e+06
5.54501e+06
5.55504e+06
5.54315e+06
5.51161e+06
5.44367e+06
5.33291e+06
5.16809e+06
4.99766e+06
4.83931e+06
4.61885e+06
4.34049e+06
3.73264e+06
1.96305e+06
1.14382e+06
562608
1.24543e+06
2.74341e+06
3.17496e+06
3.4104e+06
3.75876e+06
4.15823e+06
4.47623e+06
4.70776e+06
4.85262e+06
4.93892e+06
4.98869e+06
5.00833e+06
4.99353e+06
4.94737e+06
4.8633e+06
4.72828e+06
4.49829e+06
4.17312e+06
3.77016e+06
3.43161e+06
3.19981e+06
2.73799e+06
1.25177e+06
558477
651809
1.13187e+06
1.76547e+06
2.23569e+06
2.59343e+06
3.046e+06
3.52398e+06
3.8799e+06
4.12775e+06
4.28235e+06
4.38103e+06
4.44026e+06
4.46252e+06
4.44616e+06
4.39216e+06
4.29635e+06
4.14632e+06
3.89354e+06
3.51444e+06
3.01953e+06
2.56589e+06
2.20745e+06
1.72607e+06
1.07133e+06
642510
996439
1.04328e+06
1.20877e+06
1.69871e+06
2.05221e+06
2.56862e+06
3.0069e+06
3.33999e+06
3.58522e+06
3.74472e+06
3.84806e+06
3.90851e+06
3.93078e+06
3.91192e+06
3.85369e+06
3.75121e+06
3.59294e+06
3.34266e+06
2.99279e+06
2.53731e+06
2.00549e+06
1.66171e+06
1.16691e+06
1.01559e+06
1.01003e+06
1.36457e+06
1.05741e+06
1.06473e+06
1.3709e+06
1.70154e+06
2.21724e+06
2.58296e+06
2.87449e+06
3.10629e+06
3.26207e+06
3.36255e+06
3.42209e+06
3.44253e+06
3.42126e+06
3.36149e+06
3.25925e+06
3.10116e+06
2.86551e+06
2.56198e+06
2.20065e+06
1.65048e+06
1.33527e+06
1.04455e+06
1.0379e+06
1.37066e+06
1.41536e+06
1.08255e+06
1.07144e+06
1.22445e+06
1.49342e+06
1.90899e+06
2.21509e+06
2.48382e+06
2.68973e+06
2.82921e+06
2.9274e+06
2.98422e+06
3.00478e+06
2.98237e+06
2.92397e+06
2.81977e+06
2.67527e+06
2.46559e+06
2.17857e+06
1.87952e+06
1.46291e+06
1.19269e+06
1.051e+06
1.0653e+06
1.3832e+06
1.41437e+06
1.12595e+06
1.08953e+06
1.1552e+06
1.35232e+06
1.65482e+06
1.90976e+06
2.15175e+06
2.33365e+06
2.46016e+06
2.55027e+06
2.60531e+06
2.62125e+06
2.60288e+06
2.54796e+06
2.44953e+06
2.3187e+06
2.13178e+06
1.87483e+06
1.62059e+06
1.32638e+06
1.12956e+06
1.0698e+06
1.11152e+06
1.38584e+06
1.41957e+06
1.19533e+06
1.12777e+06
1.12477e+06
1.24715e+06
1.45486e+06
1.66704e+06
1.8749e+06
2.03036e+06
2.14352e+06
2.22636e+06
2.26978e+06
2.28764e+06
2.26748e+06
2.21997e+06
2.13139e+06
2.0107e+06
1.85014e+06
1.63384e+06
1.42268e+06
1.22907e+06
1.10499e+06
1.10907e+06
1.17722e+06
1.3898e+06
1.43663e+06
1.31553e+06
1.17213e+06
1.12552e+06
1.174e+06
1.30553e+06
1.47457e+06
1.64468e+06
1.77784e+06
1.87792e+06
1.9488e+06
1.98791e+06
1.99983e+06
1.98447e+06
1.93881e+06
1.86415e+06
1.75714e+06
1.61945e+06
1.44436e+06
1.27209e+06
1.14933e+06
1.10524e+06
1.15189e+06
1.30684e+06
1.4115e+06
1.48549e+06
1.47704e+06
1.20447e+06
1.12388e+06
1.12024e+06
1.18866e+06
1.31471e+06
1.44958e+06
1.55919e+06
1.64669e+06
1.7102e+06
1.74147e+06
1.75474e+06
1.73794e+06
1.70163e+06
1.63583e+06
1.54273e+06
1.42978e+06
1.29199e+06
1.16449e+06
1.1011e+06
1.1048e+06
1.18281e+06
1.46007e+06
1.46519e+06
1.59081e+06
1.54481e+06
1.22969e+06
1.11595e+06
1.08603e+06
1.10696e+06
1.19203e+06
1.29316e+06
1.38289e+06
1.4559e+06
1.50683e+06
1.53707e+06
1.5455e+06
1.53256e+06
1.49876e+06
1.4441e+06
1.36547e+06
1.27264e+06
1.17038e+06
1.0852e+06
1.06667e+06
1.09735e+06
1.2065e+06
1.51021e+06
1.58109e+06
1.8077e+06
1.59515e+06
1.24471e+06
1.10055e+06
1.04969e+06
1.04658e+06
1.09218e+06
1.16214e+06
1.23032e+06
1.29006e+06
1.33553e+06
1.35787e+06
1.367e+06
1.35224e+06
1.32617e+06
1.27888e+06
1.21394e+06
1.14276e+06
1.07133e+06
1.02662e+06
1.03048e+06
1.08114e+06
1.23284e+06
1.58457e+06
1.73877e+06
1.85149e+06
1.64461e+06
1.27072e+06
1.08518e+06
1.01038e+06
992044
1.01103e+06
1.0568e+06
1.10666e+06
1.15362e+06
1.18784e+06
1.20921e+06
1.21476e+06
1.20522e+06
1.18003e+06
1.14325e+06
1.09341e+06
1.04252e+06
996530
977025
995332
1.06888e+06
1.25314e+06
1.62983e+06
1.85751e+06
1.85013e+06
1.67343e+06
1.31626e+06
1.08304e+06
977430
945256
943143
969882
1.00205e+06
1.03444e+06
1.06375e+06
1.07813e+06
1.08503e+06
1.07564e+06
1.05665e+06
1.02576e+06
988725
955839
928127
930031
960954
1.06465e+06
1.28497e+06
1.66022e+06
1.85655e+06
1.8403e+06
1.67797e+06
1.37415e+06
1.08513e+06
947706
898377
887393
896414
916903
939201
958090
970955
974574
968528
950776
930148
905458
884755
873468
883954
932872
1.06789e+06
1.34336e+06
1.66769e+06
1.85178e+06
1.82035e+06
1.67738e+06
1.49396e+06
1.09742e+06
926675
856643
834593
831841
841632
853265
868260
875591
879691
873694
862572
846540
832361
821635
824272
844728
912342
1.07593e+06
1.43591e+06
1.66445e+06
1.83472e+06
1.78139e+06
1.67401e+06
1.57335e+06
1.1261e+06
919958
822664
787289
778437
779705
785116
792353
798264
799591
796253
786965
779064
772389
769446
777351
811990
908343
1.10064e+06
1.59019e+06
1.65854e+06
1.80007e+06
1.75144e+06
1.65573e+06
1.57119e+06
1.15655e+06
921985
795559
745285
728281
724265
723946
726988
729370
730556
726622
722636
718633
717173
720174
736547
785690
912844
1.14838e+06
1.59374e+06
1.64353e+06
1.73236e+06
1.71145e+06
1.61774e+06
1.56618e+06
1.21987e+06
932658
779685
711221
685115
676163
673553
672376
673112
672350
670649
668783
669438
671543
678879
703453
771564
920640
1.21675e+06
1.58367e+06
1.60623e+06
1.69412e+06
1.66916e+06
1.56306e+06
1.55229e+06
1.34665e+06
958544
779966
686137
647902
632918
626175
623402
621451
621274
620126
620977
623024
628116
641640
677986
772355
943063
1.35508e+06
1.56226e+06
1.5503e+06
1.6549e+06
1.64017e+06
1.51476e+06
1.51454e+06
1.34931e+06
989874
783307
671051
618455
597393
588597
582306
579623
578375
578994
580109
585093
593733
613398
665611
780613
990269
1.36237e+06
1.51767e+06
1.50311e+06
1.61847e+06
1.60442e+06
1.47292e+06
1.43937e+06
1.34575e+06
1.05626e+06
796560
671450
596424
566065
551641
545144
540685
540079
540491
543728
549416
562326
592253
665825
793171
1.06532e+06
1.35638e+06
1.42418e+06
1.4646e+06
1.59151e+06
1.55995e+06
1.43394e+06
1.36046e+06
1.33316e+06
1.18934e+06
824860
675435
585035
542750
525224
514089
509895
507751
509206
512632
522305
540499
582541
669629
821734
1.21785e+06
1.33984e+06
1.34433e+06
1.43267e+06
1.55464e+06
1.52681e+06
1.40306e+06
1.29915e+06
1.2992e+06
1.18854e+06
865599
681574
585207
527029
498551
486261
480188
478887
479288
485369
496429
524078
583148
684545
883300
1.2176e+06
1.30347e+06
1.28853e+06
1.40167e+06
1.509e+06
1.47729e+06
1.3748e+06
1.2516e+06
1.23166e+06
1.18068e+06
951431
700219
588642
521873
484681
463985
457171
454170
456475
462575
481816
518622
586128
709700
992908
1.20144e+06
1.23066e+06
1.24223e+06
1.37117e+06
1.4742e+06
1.42453e+06
1.34439e+06
1.21705e+06
1.16827e+06
1.15907e+06
1.04518e+06
737356
598512
522508
469733
445629
434717
432224
434121
444667
468478
519397
595737
760480
1.05154e+06
1.16556e+06
1.16535e+06
1.21081e+06
1.3438e+06
1.43071e+06
1.38523e+06
1.30959e+06
1.18936e+06
1.1171e+06
1.11046e+06
1.04092e+06
801719
616006
524523
469513
435849
420431
414684
419663
434551
468559
524661
620372
868161
1.04618e+06
1.09482e+06
1.11158e+06
1.18709e+06
1.30749e+06
1.37852e+06
1.34364e+06
1.2759e+06
1.17025e+06
1.07363e+06
1.04494e+06
1.02765e+06
935271
654139
533337
470939
435123
410304
402955
409569
432464
469663
536053
664228
928994
1.02464e+06
1.0302e+06
1.06967e+06
1.16946e+06
1.27294e+06
1.34421e+06
1.2964e+06
1.23349e+06
1.14952e+06
1.04696e+06
996789
996643
934553
732053
554494
475652
435738
409746
397785
409417
432991
473634
561199
753042
925694
978980
981564
1.04274e+06
1.15053e+06
1.23594e+06
1.29954e+06
1.25489e+06
1.19837e+06
1.12949e+06
1.02667e+06
956776
939654
923235
843683
595063
485694
437416
410151
398252
410013
436152
485670
617163
841765
914160
924840
945793
1.02564e+06
1.1298e+06
1.19759e+06
1.25016e+06
1.17164e+06
1.14596e+06
1.09983e+06
1.01206e+06
932657
894997
897417
841825
680801
508820
444039
412284
400321
412058
444048
509609
728159
840174
886923
884290
924966
1.01093e+06
1.0997e+06
1.1434e+06
1.16288e+06
1.04304e+06
1.07531e+06
1.05875e+06
989952
913018
856400
849339
831286
765380
558786
461744
418449
405879
418179
463001
559660
763410
828416
843340
850015
908726
990265
1.05585e+06
1.07331e+06
1.03753e+06
75294.7
75730.2
76051.1
75994.1
76124.3
76802.3
77115.7
77661.4
77851.5
77950.1
77865.5
77982.5
78281.1
78688.2
79131.2
79401.8
79841.4
81062.2
83062.3
85440.4
87985.1
90690.6
92958.1
95789.6
100011
106822
124326
185981
223090
223282
75592.7
76378.2
76684.2
76701.9
76788.5
77272.2
77599
78226
78563.2
78791.4
78796.5
78821.9
79028.8
79297
79425
79500.6
79762.4
80234.7
81502.4
83990.3
86468.9
89087.2
92035.2
95870.5
101232
115001
167653
204737
217500
218625
76123.6
77224.2
77378.1
77217.3
77159
77620.5
77966
78636.4
79026.6
79288.1
79444.4
79524.6
79608.6
79662.5
79616.1
79556.8
79414.6
79517.7
80427.7
82339.8
85311.6
87898.1
91690.3
96143.6
105481
136878
199236
210168
214621
214238
76920.1
78051.2
77885.1
77528.6
77544.5
78045.4
78430.9
79062.5
79443.9
79774.1
79961.7
80068.1
80039.5
79892.9
79717
79456.1
79216.4
79140.4
79862.1
81555.4
84484.5
87512.1
91619.7
97857.8
116447
185466
207120
211134
213109
206973
77846
78398.6
78232.4
77886
77981.2
78480.7
78842.8
79398.6
79755.7
80145.1
80395.6
80537.1
80495.9
80205.8
79814.3
79428.9
79149.9
79002.1
79616.6
81213.4
83843.4
87396.6
92026
103485
153420
200781
208249
210623
209390
202982
78331
78499.6
78420.4
78221.7
78400.6
78834
79152
79618
79971
80449.8
80826.7
80965.5
80929.6
80549.8
80122.8
79581
79203.8
78994.8
79565.3
81130.7
83632.4
87535.4
94838.6
120282
188966
203927
207467
206571
203760
200238
78538.1
78515.6
78545.5
78556
78807.9
79203.5
79488.2
79887.7
80225.1
80773
81192.8
81323.8
81268.5
80941.9
80381.3
79907.5
79609.8
79426.1
79784.2
81184.5
83671.4
88805.9
102900
168008
198160
203854
203706
201092
198194
197893
78631.5
78529.9
78671
78934.9
79247
79674.8
79933.6
80231
80541.3
81069.4
81483.9
81626.8
81635.1
81354.8
80737.2
80325
80124.3
80071.9
80343.7
81328.9
84187.8
92764.9
130779
188285
199204
201723
198595
195444
194399
195619
78682.6
78572.4
78870.3
79378.1
79744.1
80155.6
80332.8
80520.6
80785.4
81146
81573
81823.9
81864.3
81767.5
81311.9
80846.3
80641.2
80545.2
80570.9
81509.4
85987
103871
172327
193415
198224
197743
193058
191402
191700
192797
78715.9
78751
79188.5
79851.4
80239.5
80491.5
80597.8
80697.7
80884.7
81182.2
81603.5
81961.1
82139.4
82202.8
81924.9
81282.7
80902.7
80704
80628
82200.3
90811.9
138675
184726
193518
194996
192432
189057
188210
189238
189876
78846.9
79176.1
79670.7
80324
80624.4
80750
80799.4
80858.2
80938
81219.8
81759.7
82192.1
82454.7
82568.9
82229.1
81485.3
80977.9
80638.8
80741.9
84421.7
105157
169864
187292
191410
191273
187537
185661
185319
186562
186981
79250.8
79870.5
80315.7
80846.6
81032.3
81060.1
81033.2
81049.7
81029
81390.1
81905.4
82335.9
82603.1
82723.6
82323.7
81531
80854.8
80325.8
81493.4
89463.4
140758
179133
186881
188004
186825
183907
182622
182539
183408
183758
80072.5
80748.5
81055.5
81523.2
81631.7
81490.1
81363.4
81245
81310.7
81464.4
81960.2
82381.2
82635.9
82745.1
82321.7
81393.9
80439.9
80460.5
83410.6
105258
165679
180795
184497
184715
182441
180554
179658
179559
180140
180316
81209.9
81763.4
81941.5
82326.1
82425.2
82168.4
81783.2
81620.2
81563.2
81495.1
81959.9
82277.4
82402.3
82458.5
82023.9
81080.9
80271.4
81011.8
88282.1
138972
173722
180318
181315
181121
178605
177120
176479
176474
176842
176867
82457.3
82868.9
82961.1
83147.2
83177.3
83008.4
82472.5
81945.4
81648.9
81575
81715
81957.6
82064.9
82135.5
81696.2
80746.6
80359.1
82877
103879
160812
175221
178110
178286
177157
174956
173802
173336
173366
173623
173560
83750.4
84038
83954.5
83826.4
83716.3
83529.1
82839.2
82102.9
81700.6
81558.2
81522.4
81618.8
81655.7
81659.4
81115.5
80110.3
80888.4
87779.9
133980
169969
175126
175515
175160
172974
171496
170539
170170
170275
170507
170395
84812.3
84968.1
84695.5
84392.2
84055.7
83765.9
82977.5
82198.5
81706
81340.9
81179.3
81128.3
81024.3
80646.7
79773.4
79878.2
82729.7
104520
165106
176774
175537
173573
171499
169155
167933
167226
166977
167323
167506
167385
85929
85820.5
85359.6
84704.1
84216.1
83855.1
83016.7
82247.6
81557.5
80944.6
80346.2
79949.1
79675.9
79365.2
79263.9
80211.9
88533.4
146609
179701
180783
175233
171202
167548
165684
164512
163966
163825
164326
164536
164427
86156.7
86149.8
85134
84489.2
83915.7
83657.7
82719.3
81428.8
80424.1
79827.8
79547.3
79406
79402.8
79273.3
79403.2
83255.2
118009
179623
188059
181869
174295
167818
164286
162176
161166
160730
160627
161227
161432
161438
87548.7
86623.1
85807.1
84756.7
84269
83516.4
82008.8
80821.8
79932
79538.1
79604.7
79904.5
80352
80745.8
83037.2
103598
174187
191391
191342
181856
171733
164667
160904
158773
157753
157345
157261
158034
158323
158390
86435.2
86012.7
84696.1
84431.4
83436.9
82507.1
81469.9
80624.1
80418.8
80981.2
82348.4
84032.3
86585.1
90353.5
107963
167790
191428
194083
191890
180514
167646
161373
157226
155248
154322
153965
153894
154861
155227
155370
87888.6
86182.4
85906.3
84272.1
83387.6
81964.8
81467
81853.7
83603.8
86785.2
92690.2
102585
115343
131430
161746
185765
193447
194018
191022
174839
164117
157108
153534
151736
150937
150705
150706
151697
152095
152292
84364.5
84798.7
83124.4
83474.8
82528.5
82076.1
82370.8
85405.6
94012.9
110759
131503
143114
147180
153868
173074
185653
187948
188311
185819
167940
158983
152772
149659
148165
147566
147414
147853
148700
149006
149250
90407.4
84304.2
85058.3
84108
82770.4
82617.4
85235.5
99974
133515
150724
154245
152370
151634
155855
168201
173162
175980
176693
176084
160442
153071
148150
145751
144635
144190
144068
145093
145839
146042
146339
67637.6
80126.7
81670.2
82158.4
82318.5
84099.3
98890.3
142184
156170
158920
157313
151993
147840
146438
152884
158195
161029
161988
161684
151072
146055
143038
141622
141067
140918
140943
142279
143095
143295
143583
223445
223319
185836
124244
106816
100033
95834
92976.6
90705.4
88005.6
85478.9
83079.2
81089.8
79868.9
79454.5
79168.9
78709.7
78298.3
78017.7
77919.3
78038.9
77992
77839.2
77270.1
76949.4
76231.2
76084.6
76128.4
75791.5
75313.9
218861
217807
204953
167590
115013
101269
95910.3
92081.9
89094.2
86485.3
83985.1
81482.1
80257.1
79805.9
79627.2
79558.7
79405.1
79120
78955.7
78992.2
79129.7
78873
78496.5
77864.4
77525
77044
76914.1
76862.8
76530.9
75690.8
214536
214979
210487
199441
136941
105545
96198.8
91747.8
87933.5
85334.9
82363.7
80458.2
79581.4
79545.3
79666.7
79814.4
79877.3
79847.5
79818.9
79798.5
79656.6
79405.2
78952.8
78276
77930.3
77472.4
77529.7
77672.4
77477.9
76308
207366
213503
211475
207412
185673
116565
97933
91676.9
87567.5
84526.5
81611.2
79927.2
79245.2
79364.8
79648
79959.9
80201.7
80426.7
80521.5
80443.2
80189.4
79816.9
79407.7
78766.2
78384.4
77895.5
77884.3
78249.2
78429.3
77188
203376
209815
210973
208557
201025
153657
103574
92084.7
87458.1
83903.3
81300.6
79707.7
79139.2
79308.4
79648.3
80141.5
80618.5
81005.6
81118.9
80945.4
80611.5
80150.3
79774.4
79217.6
78857.2
78362.9
78274.7
78617
78795.5
78159.3
200602
204152
206903
207764
204166
189164
120432
94915
87607.3
83712.9
81227.3
79667.6
79155.7
79434.9
79883.6
80466.9
81009.1
81507.3
81587.1
81398
80922.9
80377.8
80011.2
79549.3
79250.8
78816.8
78629
78808.1
78878.2
78688.6
198162
198485
201373
203948
204081
198333
168272
103014
88891.8
83759.1
81327.6
79947.6
79679.6
79886.4
80270.7
80816.9
81500.3
81901.3
81939.8
81782.2
81244.7
80660.2
80303.5
79895.7
79632.2
79252.7
78982.4
78935.2
78886.4
78917
195798
194571
195638
198785
201878
199356
188437
130993
92872.5
84294.9
81466.4
80613.1
80417
80462.1
80748.7
81320.4
82009.9
82265
82190.5
81924.7
81471.9
80986.1
80687.1
80372.5
80121.1
79701.2
79371
79060
78893
78985.7
192855
191750
191474
193156
197842
198334
193529
172524
104055
86140.6
81701.7
80897.9
80958
81100.5
81340.8
81919.9
82479.9
82449.4
82334.1
81981.9
81551.7
81236.8
81028
80851
80656.1
80211.3
79821.9
79259.6
78915.3
79024.5
189815
189181
188172
189034
192457
195058
193619
184911
138954
91023.5
82469.2
81034.2
81156.2
81530.1
82051.2
82701.3
82879.5
82775.5
82482.9
82005.1
81590.1
81344.7
81224
81165.5
81045.1
80733.5
80305.5
79577.9
79099.3
79053
186837
186427
185200
185556
187480
191318
191501
187476
170233
105532
84793
81213.3
81154.1
81655.4
82383.7
83082.9
83243
83093.6
82708.1
82169
81650.2
81435
81382.3
81330.3
81276.1
81139.2
80788.7
80052.1
79553.7
79217.1
183557
183220
182378
182473
183805
186831
188164
187105
179608
141531
89977.3
82089.4
81067.2
81651.3
82478.5
83217.7
83394.9
83239
82840.4
82308.6
81807.1
81570.8
81563.3
81517.7
81506.5
81455.3
81278.6
80710.1
80288.3
79684.9
180079
179924
179382
179493
180453
182478
184995
184834
181308
166347
106039
84177.3
81314.9
81449.8
82450.3
83225.2
83412.7
83264.9
82876.6
82354.8
81894.2
81765
81683.3
81751.1
81881.1
81940
81857.5
81448.6
81182.5
80574.9
176598
176606
176290
176315
177047
178717
181516
181818
180907
174523
139981
89244.5
81969.5
81239.9
82053.6
82763.8
83011.6
82912.9
82691.7
82330.8
81911
81846.5
81930.6
82073.7
82454.4
82630.5
82567.1
82279.6
82177.5
81744.7
173284
173413
173170
173193
173772
175151
177639
179069
178968
176404
162350
105220
83903.1
81149.4
81424.5
82197.6
82506.6
82415.7
82282.4
82051.8
81772.1
81840.3
82095
82529.5
83116.3
83329
83327.7
83238.1
83247.9
82937.8
170158
170310
170101
170104
170560
171703
173544
176175
176829
176753
171924
136100
88869.2
81562.2
80462.9
81259.6
81857.9
81858.9
81827.6
81762.9
81667.4
81731.6
82135.6
82930.1
83669.4
83878.3
83999.7
84180.3
84360.4
84116
167208
167359
167188
167030
167348
168220
169698
172587
175214
177315
178935
167389
106044
83279.9
80194.6
79880.7
80551.7
81021.5
81195.5
81271.7
81365.3
81660.2
82191.6
83083.7
83968.5
84344
84594.9
84943
85231.5
85108.6
164318
164493
164329
163955
164155
164848
166315
168551
172855
177018
182633
181471
148458
89169.1
80628.3
79570
79645.3
79856
80045
80456.6
81200.8
81700.9
82204.3
83134.8
84098.9
84570.5
84967.1
85585.6
86034.2
86180.1
161398
161493
161314
160875
161028
161593
162840
165203
169242
176184
183656
189428
181096
119754
83952
79884.3
79702.9
79779.4
79796.5
79960.9
80264.4
81269.1
82078.2
82835.8
84054
84386.4
84910
85482.2
86360.5
86369.9
158387
158373
158195
157645
157747
158230
159427
161867
165834
173472
183650
192581
192597
175843
106324
84164.8
81720.6
81027.9
80459.1
80151.2
80110
80423.1
81329.4
82510.1
83607.9
84823.3
85263.1
86232.1
86906.3
87720.8
155417
155333
155065
154323
154413
154843
155906
158113
162631
168983
182230
193110
195063
192546
170222
112521
93504.2
88745.6
85483.4
82941
81156.9
80610.5
80874.5
81869.4
83295.4
84102.1
84906.5
85067.8
86303.1
86589.4
152420
152258
151933
151081
151120
151425
152338
154340
158324
165241
176471
192136
194858
194283
186467
162946
136889
122318
109530
96410.3
88314.8
83369.6
81461.7
81607.8
82929.9
84491.2
85101.8
86287.9
86654.6
88235.4
149394
149197
148916
148113
147925
148102
148741
150291
153632
160445
169247
186425
188490
187983
185665
172489
153815
148792
146401
139345
118832
97539.7
86172.3
82370.2
82260.2
82709
83749.6
83514.1
85282.4
84699.1
146455
146208
146035
145362
144489
144620
145087
146248
148751
153880
161602
176315
176457
175602
172504
166583
154540
151649
152741
156064
153915
141870
107022
87052.6
82903.6
82773.7
83573.7
85450
84925.3
91042.9
143698
143440
143266
142525
141231
141242
141441
142084
143636
146910
151434
161156
161149
159831
156623
151053
144615
145793
150852
158175
159765
158321
147551
107224
85921.9
82631.5
82219.1
81794.6
80511.4
68077.7
70637
70637
70637
70637
70637
70637
70637
70637
70637
70637
70637
70637
70637
70637
70637
70637
70637
70638.3
70785.9
76051.9
221346
779579
1.18668e+06
1.28875e+06
1.31644e+06
1.3416e+06
1.42033e+06
1.53887e+06
1.62615e+06
1.72948e+06
1.77697e+06
1.79466e+06
1.79709e+06
1.76437e+06
1.72527e+06
1.70631e+06
1.68213e+06
1.6606e+06
1.62709e+06
1.59399e+06
1.57912e+06
1.56342e+06
1.54385e+06
1.52557e+06
1.51179e+06
1.4983e+06
1.47775e+06
1.44732e+06
1.40572e+06
1.35113e+06
1.28394e+06
1.20654e+06
1.11817e+06
1.02706e+06
939739
859165
784745
717984
659254
609078
565476
526246
490811
458481
429072
402259
377830
355788
336191
318670
302899
288543
275456
263572
252694
242569
233160
224477
216426
208830
201736
195251
189432
184254
179649
175547
171858
168522
165481
162664
159987
157368
154759
152155
149593
147128
144811
142663
140676
138816
137051
135369
133792
132353
131074
129957
128979
128120
127398
126823
126385
126171
126168
126174
126215
126379
126826
127790
129167
130420
132033
133932
136136
138522
141048
70637
70637
70636.9
70636.9
70636.9
70636.9
70636.9
70636.9
70636.9
70636.9
70636.9
70636.9
70636.9
70636.9
70636.9
70636.9
70637
70638.3
70731.4
74218.1
178819
690450
1.14558e+06
1.28916e+06
1.34296e+06
1.40213e+06
1.44128e+06
1.47152e+06
1.57078e+06
1.67523e+06
1.72219e+06
1.73935e+06
1.74362e+06
1.74381e+06
1.73028e+06
1.69509e+06
1.65306e+06
1.60165e+06
1.55987e+06
1.5287e+06
1.49666e+06
1.46988e+06
1.4455e+06
1.42204e+06
1.39945e+06
1.37912e+06
1.35821e+06
1.33287e+06
1.30043e+06
1.25465e+06
1.19092e+06
1.11641e+06
1.04379e+06
970725
896805
826503
758501
696442
641122
591851
548006
509490
475342
445063
417654
392433
369323
348412
329728
312916
297787
284100
271705
260367
250088
240571
231628
223248
215380
207928
200941
194488
188632
183316
178516
174182
170272
166776
163695
160907
158249
155633
153024
150431
147893
145461
143182
141075
139131
137319
135605
133971
132440
131036
129784
128690
127732
126896
126201
125638
125247
125129
125132
125154
125250
125512
126083
127254
128626
129949
131624
133583
135808
138213
140775
70637
70637
70637
70637
70636.9
70636.9
70636.9
70636.9
70636.9
70636.9
70636.9
70636.9
70636.9
70636.9
70636.9
70636.9
70636.9
70637.4
70655.6
71646.7
106327
479999
1.06581e+06
1.26577e+06
1.32551e+06
1.35162e+06
1.36595e+06
1.44279e+06
1.58521e+06
1.65247e+06
1.71365e+06
1.74599e+06
1.76131e+06
1.76716e+06
1.76771e+06
1.75757e+06
1.73076e+06
1.69035e+06
1.62727e+06
1.57473e+06
1.53477e+06
1.50152e+06
1.46671e+06
1.4375e+06
1.41288e+06
1.39403e+06
1.38227e+06
1.37729e+06
1.3707e+06
1.33814e+06
1.28913e+06
1.22602e+06
1.14023e+06
1.04542e+06
951579
851436
764372
696027
635433
581687
537343
500261
467734
438447
411909
387919
366068
345954
327880
311704
297227
284122
272120
261117
250842
241063
231963
223589
215783
208383
201409
194910
188995
183678
178949
174715
170831
167172
163759
160674
157780
154993
152274
149619
147053
144618
142346
140254
138332
136548
134866
133267
131758
130363
129102
127984
126999
126136
125399
124814
124465
124342
124345
124372
124470
124752
125420
126773
128113
129551
131310
133323
135586
138016
140586
70637
70637
70637
70637
70636.9
70636.9
70636.9
70636.9
70636.9
70636.9
70636.9
70636.9
70636.9
70636.9
70636.9
70636.9
70636.9
70637.1
70644.1
71062.1
83725.6
311168
849008
1.25577e+06
1.4408e+06
1.5271e+06
1.59788e+06
1.63402e+06
1.6612e+06
1.68549e+06
1.69929e+06
1.71058e+06
1.71774e+06
1.72984e+06
1.73515e+06
1.73746e+06
1.73734e+06
1.72181e+06
1.67931e+06
1.62509e+06
1.56634e+06
1.51545e+06
1.47548e+06
1.44593e+06
1.42903e+06
1.41567e+06
1.404e+06
1.3743e+06
1.33773e+06
1.27789e+06
1.20374e+06
1.121e+06
1.03351e+06
958376
882974
812569
746192
681930
622660
568850
522202
483733
451219
423171
398769
377276
357661
339012
322345
307569
294700
282809
271533
260971
251081
241615
232562
224186
216460
209167
202229
195705
189747
184394
179575
175189
171144
167305
163494
159826
156424
153258
150264
147426
144752
142264
139984
137914
136038
134323
132733
131232
129810
128473
127231
126091
125056
124133
123336
122726
122393
122223
122213
122229
122340
122746
123698
125214
126533
128224
130157
132266
134561
137042
139726
70637
70637
70637
70637
70636.9
70636.9
70636.9
70636.9
70636.9
70636.9
70636.9
70636.9
70636.9
70636.9
70636.9
70636.9
70636.9
70637
70637.6
70664.6
71960.2
117804
518074
1.35535e+06
1.76087e+06
1.85784e+06
1.85966e+06
1.85363e+06
1.80733e+06
1.75829e+06
1.74533e+06
1.73656e+06
1.72255e+06
1.70184e+06
1.68245e+06
1.66219e+06
1.64478e+06
1.63612e+06
1.61683e+06
1.5798e+06
1.542e+06
1.49966e+06
1.45941e+06
1.42683e+06
1.4028e+06
1.38427e+06
1.35921e+06
1.33881e+06
1.29366e+06
1.24766e+06
1.18305e+06
1.10113e+06
1.01369e+06
924674
834330
756574
704503
656471
606153
556368
511876
478919
449824
422958
399266
377753
357647
340074
323270
308605
295847
283929
272629
262075
252198
243048
234113
225638
217869
210508
203600
197140
191036
185504
180590
176051
171784
167714
163756
160117
156610
153056
149629
146402
143438
140698
138109
135709
133516
131537
129753
128130
126637
125250
123964
122787
121732
120821
120067
119530
119241
119140
119144
119193
119424
120032
121292
122672
124234
126146
128280
130569
133036
135660
138372
70637
70637
70637
70637
70636.9
70636.9
70636.9
70636.9
70636.9
70636.9
70636.9
70636.9
70636.9
70636.9
70636.9
70636.9
70636.9
70637
70638
70672.6
71648.8
90187.7
314690
850033
1.08827e+06
1.22383e+06
1.52136e+06
1.74801e+06
1.81121e+06
1.81941e+06
1.81908e+06
1.80898e+06
1.75125e+06
1.69592e+06
1.66731e+06
1.62729e+06
1.58545e+06
1.54397e+06
1.52344e+06
1.50436e+06
1.48032e+06
1.44455e+06
1.41677e+06
1.40177e+06
1.39404e+06
1.38612e+06
1.38078e+06
1.36517e+06
1.33146e+06
1.26835e+06
1.18342e+06
1.07512e+06
968487
869438
787915
716273
640801
593280
555502
521225
487901
464893
442019
419162
398683
379284
359460
342552
327115
311883
299562
287460
275988
265247
255247
246010
237449
229062
220984
213582
206615
200195
193749
187941
182668
177790
173100
168639
164736
160774
156909
153272
149802
146655
143429