/*--------------------------------*- C++ -*----------------------------------*\
| =========                 |                                                 |
| \\      /  F ield         | OpenFOAM: The Open Source CFD Toolbox           |
|  \\    /   O peration     | Version:  2112                                  |
|   \\  /    A nd           | Website:  www.openfoam.com                      |
|    \\/     M anipulation  |                                                 |
\*---------------------------------------------------------------------------*/
FoamFile
{
    version     2.0;
    format      ascii;
    arch        "LSB;label=32;scalar=64";
    class       volVectorField;
    location    "0.00281";
    object      U;
}
// * * * * * * * * * * * * * * * * * * * * * * * * * * * * * * * * * * * * * //

dimensions      [0 1 -1 0 0 0 0];

internalField   nonuniform List<vector> 
13875
(
(2204.2 109.701 1.81256e-18)
(2142.57 5.62118 -9.3857e-19)
(2170.12 -2.2261 -9.41186e-19)
(2168.28 -1.24228 0)
(2170.87 0.0766488 0)
(2169.63 -0.0756457 9.36326e-19)
(2169.67 -0.383984 -9.36702e-19)
(2169.88 -1.25109 -4.68418e-19)
(2169.56 -0.957295 4.68125e-19)
(2169.61 -0.0359996 0)
(2169.14 0.0290552 -3.88399e-22)
(2169.41 0.0421181 -3.88174e-22)
(2169.66 0.69301 0)
(2169.76 -0.0932236 -4.6824e-19)
(2169.28 -0.61051 4.68672e-19)
(2169.7 0.288225 0)
(2169.41 0.746701 9.36688e-19)
(2170.24 0.856874 -9.36581e-19)
(2169.69 0.396043 3.85527e-22)
(2169.61 0.0255268 -3.85494e-22)
(2170.98 -0.226452 -9.35744e-19)
(2167.91 0.456043 9.36942e-19)
(2171 2.53185 -1.8784e-18)
(2143.31 -8.66309 1.91722e-18)
(2210.12 -106.938 1.76505e-18)
(2253.4 91.9161 -1.63234e-18)
(2228.51 -1.12427 1.88344e-18)
(2247.27 0.629409 8.71842e-19)
(2245.6 1.3852 -8.67234e-19)
(2248.51 -0.447352 4.1632e-22)
(2248.15 0.429506 5.20267e-22)
(2248.15 0.415648 4.16085e-22)
(2247.85 1.42623 -4.36337e-19)
(2245.8 1.19885 4.33295e-19)
(2245.5 0.159801 2.17534e-19)
(2245.08 0.143217 -1.62978e-19)
(2245.38 -0.326319 -5.31544e-20)
(2245.93 -1.25333 0)
(2247.16 0.418268 -4.37015e-19)
(2245.33 1.0864 4.33164e-19)
(2245.44 -0.411226 4.35307e-19)
(2245.58 -1.2084 -4.36091e-19)
(2248.08 -1.13815 5.19497e-22)
(2248.21 -0.322125 -5.20349e-22)
(2248.14 -0.459659 5.20186e-22)
(2248.67 0.678743 -8.7101e-19)
(2245.55 -0.772201 2.59996e-18)
(2247.2 -1.58639 -1.74275e-18)
(2228.87 3.48814 5.42919e-22)
(2256.79 -97.0771 -1.71218e-18)
(2252.44 78.1015 0)
(2236.41 -18.2206 0)
(2249.36 4.35992 0)
(2250.94 -1.99626 0)
(2254.14 -3.03447 -1.65368e-18)
(2253.92 -0.698541 1.64344e-18)
(2254.15 0.26116 1.63973e-18)
(2254.21 2.17853 -2.45933e-18)
(2253.74 2.20286 8.59756e-19)
(2253.25 0.558366 4.30213e-22)
(2252.81 -0.0466815 -4.30963e-19)
(2252.83 -0.798324 4.30971e-19)
(2252.9 -1.62942 0)
(2253.16 0.441973 0)
(2252.9 1.86188 4.30263e-22)
(2252.98 -0.0186591 0)
(2253.16 -2.51731 8.39092e-22)
(2254.45 -2.53952 4.09381e-19)
(2254.3 -0.325745 -4.10021e-19)
(2253.97 0.572595 0)
(2254.34 2.96825 0)
(2251 1.38804 0)
(2250.56 -4.79082 0)
(2238.14 13.6109 0)
(2257.47 -74.1931 0)
(2247.87 51.3436 0)
(2235.04 -28.5607 1.8145e-18)
(2249.13 7.14195 -3.41727e-18)
(2251.68 -4.71743 3.46499e-18)
(2253.8 -3.81787 -1.65536e-18)
(2253.77 -0.99541 0)
(2254.09 0.220354 -7.89498e-22)
(2254.16 2.15031 0)
(2254.09 2.49479 0)
(2253.87 1.10551 0)
(2253.32 0.412334 0)
(2253.13 -0.438275 -8.43598e-22)
(2252.9 -1.52091 -5.14253e-20)
(2253.13 0.287599 5.14111e-20)
(2253.29 1.45703 0)
(2253.73 -0.573452 0)
(2253.93 -2.7956 8.39386e-22)
(2254.43 -2.62715 -8.20354e-19)
(2254.25 -0.33663 8.00444e-19)
(2253.86 0.842134 -1.62617e-18)
(2254.1 3.5945 1.6325e-18)
(2252.02 4.70753 1.74109e-18)
(2249.68 -8.8455 -1.72047e-18)
(2235.79 31.133 0)
(2251.43 -58.8353 0)
(2244.92 39.2948 1.74895e-18)
(2235.51 -47.7639 0)
(2248.61 10.3771 0)
(2250.66 -8.23286 0)
(2254.17 -5.42544 0)
(2253.86 -1.733 1.66045e-21)
(2254.02 0.0326324 1.63859e-21)
(2254.11 2.04166 4.24102e-19)
(2254.06 2.54745 -4.10859e-19)
(2253.89 1.35856 2.14422e-19)
(2253.39 0.664278 -2.17076e-19)
(2253.09 -0.23047 0)
(2252.87 -1.40615 0)
(2253.04 0.145916 -1.68708e-21)
(2253.17 1.08477 0)
(2253.65 -0.880814 -1.687e-21)
(2253.97 -2.96526 8.53137e-19)
(2254.35 -2.64244 -8.42116e-19)
(2254.15 -0.254039 1.64841e-18)
(2253.9 1.5468 -1.68951e-18)
(2254.33 5.03315 1.66543e-21)
(2250.77 6.94798 0)
(2249.93 -11.4541 0)
(2237.15 42.6617 0)
(2250.05 -35.3785 0)
(2241.49 6.77386 0)
(2231.53 -63.3988 9.12602e-19)
(2247.05 12.1713 -8.48034e-19)
(2250.96 -11.5921 0)
(2253.02 -6.35612 8.61289e-19)
(2253.19 -2.22169 -4.31244e-19)
(2253.69 -0.086339 -2.21769e-21)
(2253.89 1.95057 -2.11168e-19)
(2253.99 2.51004 -4.02568e-19)
(2254.02 1.84615 1.63598e-19)
(2253.42 1.20363 1.61458e-21)
(2253.2 0.126816 2.68876e-19)
(2252.76 -1.2757 -2.1601e-19)
(2252.88 -0.161553 3.37915e-21)
(2253.1 0.656547 -4.32375e-19)
(2253.57 -1.4729 4.34547e-19)
(2253.84 -3.27531 1.649e-21)
(2254.12 -2.67836 -1.6244e-21)
(2253.82 -0.270976 -1.62433e-21)
(2253.28 1.87505 -8.50354e-19)
(2253.33 5.6433 8.52519e-19)
(2251.49 11.4688 0)
(2247.33 -15.0374 0)
(2232.37 65.4143 -1.93298e-18)
(2245.97 -18.7905 -1.26177e-19)
(2254.17 2.93706 -4.95276e-20)
(2227.51 -79.1839 6.02413e-20)
(2242.91 12.1033 0)
(2248.78 -16.6299 -2.6911e-23)
(2252.68 -8.67117 -2.62292e-23)
(2252.9 -3.66866 0)
(2253.37 -0.696794 0)
(2253.68 1.46361 -8.35638e-19)
(2253.83 2.16406 8.2334e-19)
(2253.9 2.13669 0)
(2253.36 1.58915 1.72623e-18)
(2253.09 0.548247 3.13598e-21)
(2252.56 -0.979036 -1.72726e-18)
(2252.57 -0.225099 -1.71573e-21)
(2252.8 0.313491 0)
(2253.38 -1.86962 3.44452e-18)
(2253.59 -3.25009 -1.09846e-22)
(2253.84 -2.27019 -6.67726e-18)
(2253.45 0.343796 3.35235e-18)
(2252.95 3.33219 2.59135e-23)
(2252.83 8.02291 0)
(2248.62 13.8446 3.53142e-18)
(2244.05 -12.3823 -3.31126e-18)
(2228.79 73.0079 3.81598e-18)
(2247.09 2.90719 -3.18034e-18)
(2218.07 -22.8452 -3.17342e-19)
(2214.58 -87.2327 -7.50046e-18)
(2235.33 3.43585 8.72043e-22)
(2246.02 -23.2377 2.61586e-23)
(2248.99 -10.7806 -8.09771e-22)
(2250.64 -4.73104 0)
(2251.97 -1.0689 -3.35021e-18)
(2252.72 1.2203 3.35593e-18)
(2253.1 1.99638 0)
(2253.27 2.68549 -8.22535e-22)
(2253.08 2.41537 -8.41166e-22)
(2252.72 1.03837 0)
(2252.05 -0.712383 0)
(2251.99 -0.482942 -1.66817e-21)
(2252.35 -0.222914 -8.47383e-22)
(2252.95 -2.64939 2.60967e-23)
(2252.87 -3.41222 -8.49108e-22)
(2252.88 -2.14931 -2.55382e-23)
(2252.11 0.628299 -1.68659e-18)
(2250.85 4.24394 -1.34691e-20)
(2249.48 9.89791 1.68976e-18)
(2246.32 20.3291 8.88346e-22)
(2236.63 -4.51144 3.46056e-18)
(2216.32 81.5744 -3.53848e-18)
(2222.11 18.1325 2.50131e-23)
(2111.95 -38.0045 9.42512e-19)
(2168.47 -98.473 0)
(2216.71 -20.346 -8.31453e-22)
(2235.2 -33.1157 -8.64928e-19)
(2245.44 -19.9087 1.70578e-18)
(2248.48 -9.69477 -1.70439e-18)
(2250.26 -3.74888 7.1251e-21)
(2251.3 -0.602761 8.46347e-19)
(2251.77 0.678348 0)
(2252.02 2.34698 -8.46626e-19)
(2251.96 2.88844 8.5936e-19)
(2251.73 1.77804 0)
(2250.94 -0.289776 0)
(2250.79 -0.547958 2.10459e-21)
(2251.19 -0.713596 8.39499e-22)
(2251.79 -2.77745 8.53625e-19)
(2251.64 -2.67544 -8.47659e-19)
(2251.51 -0.652965 0)
(2250.39 2.83572 8.5331e-19)
(2248.71 8.50831 -1.70502e-18)
(2246.02 17.2404 8.46269e-19)
(2236.14 29.7116 -8.40097e-22)
(2218.41 16.789 0)
(2170.73 93.9883 0)
(2115.97 35.4781 0)
(1868.61 -142.725 -6.59072e-17)
(2124.01 -160.446 8.45182e-17)
(2196.72 -54.9018 0)
(2226.37 -57.236 -2.96854e-17)
(2237.6 -23.1461 3.08312e-17)
(2243.62 -11.2899 0)
(2246.55 -4.16334 -2.99425e-20)
(2248.1 -0.728332 -1.47726e-17)
(2248.87 0.760692 1.48399e-17)
(2249.23 2.7255 -2.97507e-20)
(2249.36 3.32947 0)
(2249.34 2.34179 -3.73719e-18)
(2248.52 0.291852 5.57412e-18)
(2248.26 -0.791834 -1.90155e-18)
(2248.64 -1.51841 -2.96361e-20)
(2249.16 -3.37538 0)
(2248.86 -2.61355 0)
(2248.38 -0.560046 -2.96078e-17)
(2246.74 3.55167 2.959e-17)
(2243.71 10.1942 -3.02192e-17)
(2238.83 21.8544 2.95603e-17)
(2227.2 54.6183 3.21992e-17)
(2198.72 53.5334 -2.93082e-17)
(2127.5 162.773 -8.35364e-17)
(1881.02 139.22 -1.26527e-17)
(1650.69 -223.762 -9.09458e-17)
(2010.2 -309.656 1.38212e-16)
(2154.06 -110.864 0)
(2202.32 -64.136 6.92423e-17)
(2227.52 -31.3671 -7.15227e-17)
(2235.47 -16.6033 -3.35015e-17)
(2239.75 -7.58516 3.4229e-17)
(2241.75 -3.44642 -3.37447e-17)
(2242.84 -0.560483 3.40508e-17)
(2243.37 1.89327 3.2553e-20)
(2243.72 2.76823 0)
(2243.9 2.82528 -2.12345e-18)
(2243.17 0.932781 2.16204e-18)
(2242.85 -0.50924 3.29113e-20)
(2243.03 -1.72501 3.29347e-20)
(2243.39 -2.75566 3.40481e-20)
(2242.95 -1.50752 0)
(2242.15 1.7635 0)
(2240.15 6.13114 -6.89364e-17)
(2235.63 15.1206 6.73682e-17)
(2228.47 27.561 -7.21373e-17)
(2206.45 58.9433 1.47506e-16)
(2160.65 99.5037 -7.06862e-17)
(2011.89 299.345 -3.89207e-20)
(1690.39 206.642 8.83053e-20)
(1241.49 -579.522 -1.14887e-16)
(1744.41 -579.938 1.18098e-16)
(2004.13 -169.773 2.24054e-16)
(2155.59 -114.016 -9.57383e-17)
(2196.68 -36.7092 0)
(2212.69 -14.4914 7.51804e-17)
(2222.39 -6.00612 -7.6903e-17)
(2225.97 -1.0786 0)
(2228.29 0.640405 3.58127e-20)
(2229.21 2.12669 0)
(2229.85 2.83921 0)
(2230.24 3.13748 0)
(2229.72 1.86954 4.72184e-18)
(2229.42 -0.243228 -4.72216e-18)
(2229.29 -2.00008 -4.00173e-20)
(2229.22 -3.47208 -3.53031e-20)
(2228.39 -2.77405 0)
(2226.33 -0.610421 0)
(2222.97 5.05822 0)
(2211.93 12.1664 -7.90301e-17)
(2199.07 35.4262 1.60134e-16)
(2162.07 103.421 -7.45525e-17)
(2036.05 163.267 -1.33247e-16)
(1746.55 590.392 1.01605e-16)
(1272.25 550.728 -6.01464e-20)
(1268.93 -623.073 1.70285e-16)
(1135.85 -1048.37 0)
(1537.98 -563.379 0)
(1867.7 -138.889 -1.15038e-16)
(2109.57 -77.9543 1.16746e-16)
(2154.89 -51.3569 0)
(2169.4 -25.6882 1.38051e-20)
(2179.22 -15.0967 4.33194e-17)
(2184.38 -6.21552 -4.391e-17)
(2186.07 -1.69963 0)
(2186.95 0.620644 -1.07976e-17)
(2187.56 2.7646 1.0822e-17)
(2186.97 2.0672 -5.43849e-18)
(2186.98 1.01069 5.44465e-18)
(2186.45 -0.269641 3.91056e-20)
(2185.78 0.313885 -4.29037e-17)
(2183.76 3.86324 8.63333e-17)
(2178.54 12.6013 1.1038e-18)
(2168.52 24.2556 -4.33349e-17)
(2152.11 52.7548 -9.57136e-17)
(2094.66 61.5447 8.91675e-17)
(1866.89 99.7742 8.66271e-20)
(1634.61 493.712 2.77344e-20)
(1103.58 1052.83 1.69481e-16)
(1305.18 615.94 7.41438e-18)
(1328.1 -631.332 0)
(1157.35 -1029.29 0)
(1223.57 -734.424 0)
(1109.47 -835.976 0)
(1912.6 -255.751 0)
(1903.84 -16.8614 1.25546e-16)
(1951.92 15.8079 -1.28675e-16)
(2000.52 17.5519 1.89827e-19)
(2021.6 7.62195 -1.13648e-20)
(2028.05 4.46277 2.78068e-17)
(2028.81 4.93324 -2.8115e-17)
(2031.22 2.67008 -3.6273e-19)
(2028.09 3.2199 -8.7271e-19)
(2029.58 0.506374 1.03789e-18)
(2027.67 -0.921016 -2.80251e-17)
(2025.58 -4.06066 2.78847e-17)
(2016.22 -8.65756 1.70679e-19)
(1992.53 -16.6632 0)
(1938.11 -14.3684 0)
(1889.82 33.534 0)
(1874.36 325.983 -2.15421e-16)
(1099.36 818.153 -5.59735e-17)
(1246.39 701.821 1.67196e-16)
(1136.6 992.64 2.06893e-20)
(1348.76 621.469 2.09009e-20)
(1401.32 -617.173 0)
(1256.32 -891.409 4.14457e-20)
(1263.69 -731.34 0)
(1128.71 -825.36 -1.74433e-16)
(1222.33 -681.454 3.4545e-16)
(1148.54 -613.469 -2.31603e-16)
(1200.16 -416.992 0)
(1460.23 -214.765 -1.54196e-19)
(1416.03 -101.292 0)
(1438.92 -35.9207 0)
(1405.08 -21.9165 -2.89776e-17)
(1426.74 -0.156753 2.95404e-17)
(1397.01 -0.947148 2.96632e-17)
(1418.52 5.23925 -2.9437e-17)
(1402.35 15.8743 0)
(1425.54 39.5572 -1.17708e-16)
(1396.53 104.043 1.15892e-16)
(1432.05 207.635 1.19599e-16)
(1203.2 422.612 -1.08975e-16)
(1102.7 600.555 0)
(1194.17 688.615 0)
(1104.95 812.507 -1.72477e-19)
(1275.18 696.712 -1.73357e-16)
(1255.33 868.423 3.78711e-16)
(1391.12 615.775 -1.73825e-16)
(1471.07 -611.695 -1.75086e-16)
(1360.59 -809.137 1.89587e-16)
(1317.73 -644.632 0)
(1161.07 -649.961 -2.38391e-16)
(1179.99 -531.61 -4.35233e-17)
(925.028 -406.609 3.54357e-16)
(518.359 -125.461 -2.54155e-16)
(487.682 -106.899 1.35724e-16)
(270.642 -9.00766 0)
(262.225 -17.4669 0)
(170.66 1.52879 -4.30469e-20)
(218.233 -0.773616 1.60816e-19)
(151.539 8.4368 0)
(205.245 2.69955 0)
(170.974 12.0408 6.67584e-17)
(236.977 17.3858 -6.80858e-17)
(257.586 11.4145 -1.34139e-16)
(458.958 101.082 2.75992e-16)
(494.177 119.536 -6.59255e-18)
(865.304 355.626 -1.32809e-16)
(1156.38 526.334 0)
(1144.33 651.716 0)
(1313.64 614.713 -1.89128e-16)
(1313.62 811.245 2.15017e-16)
(1451.24 618.37 -4.57745e-20)
(1575.09 -545.99 1.68669e-16)
(1486.56 -626.759 -9.6824e-20)
(1469.4 -454.16 1.07618e-16)
(1310.06 -379.761 -9.90756e-17)
(1232.47 -250.976 -5.12067e-20)
(978.115 -128.568 1.21415e-19)
(638.578 -65.0003 1.29274e-16)
(603.11 -132.835 -1.99623e-16)
(473.459 -75.6156 6.75868e-17)
(466.357 -77.8091 0)
(443.857 -41.8969 -3.2903e-17)
(458.88 -29.5766 3.30105e-17)
(443.568 -4.28732 0)
(454.962 15.5538 5.90867e-20)
(442.889 33.7567 -3.32049e-17)
(453.565 64.9192 3.30715e-17)
(460.09 75.7643 0)
(581.023 122.861 -1.34067e-16)
(604.338 87.8651 1.30809e-16)
(895.142 123.462 1.19048e-16)
(1207.47 258.495 -2.18657e-16)
(1268.84 363.158 1.20693e-16)
(1435.86 448.391 0)
(1464.26 659.416 1.78548e-16)
(1565.14 567.714 -9.82499e-18)
(1710.77 -399.841 -6.27333e-18)
(1612.44 -255.637 9.64627e-17)
(1451.12 -172.372 -4.41423e-17)
(1322.62 -36.548 -5.79136e-17)
(1302.59 -105.72 7.90143e-17)
(1113.57 -164.652 -5.76027e-17)
(902.097 -178.341 6.288e-17)
(888.249 -165.738 -6.38355e-17)
(822.264 -128.125 -7.95911e-20)
(775.372 -100.759 3.22395e-17)
(741.086 -51.955 1.60268e-17)
(746.052 -32.2313 -5.99865e-20)
(725.313 4.5808 -1.60905e-17)
(742.94 31.9942 -6.21561e-20)
(742.881 59.407 -7.71472e-20)
(773.483 102.424 -2.01418e-18)
(827.422 140.385 1.70852e-21)
(896.419 168.998 5.98113e-18)
(922.798 176.692 -3.8784e-18)
(1113.43 155.43 0)
(1289.69 115.958 1.29251e-17)
(1301.73 62.4391 -3.99665e-17)
(1452.82 174.541 4.87186e-17)
(1607.82 279.553 -6.83573e-17)
(1705.42 423.411 6.44014e-17)
(1811.58 -286.233 -1.04442e-19)
(1761.83 37.6897 -1.38098e-19)
(1611.06 108.413 1.62322e-19)
(1470.7 7.90926 -7.13922e-21)
(1464.94 -65.2589 -1.69467e-19)
(1378.87 -122.32 -1.96309e-19)
(1168.6 -155.099 -7.99205e-21)
(1054.81 -144.453 0)
(974.389 -98.027 0)
(922.228 -83.3934 6.45892e-17)
(871.802 -46.7002 -6.41309e-17)
(867.317 -30.5231 -8.26735e-21)
(844.333 -0.0705814 8.25221e-21)
(861.936 27.0433 -8.29274e-18)
(868.259 49.1205 8.06662e-18)
(912.11 79.9886 0)
(968.711 102.053 0)
(1040.27 141.827 -6.19715e-17)
(1143.01 161.278 6.00951e-17)
(1352.51 133.579 -1.88271e-19)
(1441.8 99.7809 0)
(1450.08 18.0155 0)
(1611.12 -95.1108 -1.67397e-19)
(1754.57 -35.649 -1.41883e-19)
(1806.01 302.838 1.52317e-16)
(1783.55 172.721 -1.68685e-16)
(1711.57 401.982 -2.27448e-16)
(1676.84 373.487 1.38537e-16)
(1620.72 224.208 0)
(1605.88 60.1422 2.22521e-19)
(1551.11 -23.6782 1.06653e-16)
(1393.35 -57.5707 -2.18276e-16)
(1232.91 -71.178 1.15091e-16)
(1113.32 -54.2745 -1.27324e-16)
(1040.79 -51.0578 1.26424e-16)
(983.382 -29.7009 3.21028e-17)
(966.819 -20.2793 -3.99424e-17)
(946.804 1.2041 -8.04016e-18)
(961.133 20.0828 1.62737e-17)
(978.96 34.4689 0)
(1029.84 50.619 0)
(1104.52 61.6328 1.24133e-16)
(1215.43 75.7376 -2.41257e-16)
(1373.22 72.8441 1.15481e-16)
(1534.73 41.5312 2.26729e-19)
(1594.38 -34.7461 1.92947e-16)
(1618.56 -208.044 -2.18547e-17)
(1695.7 -344.228 -4.71028e-16)
(1714.39 -389.697 5.59795e-16)
(1783.47 -205.417 -2.96927e-16)
(1492.44 532.436 1.14297e-19)
(1515.07 880.848 -1.97416e-16)
(1720.65 600.98 1.25916e-16)
(1712.64 385.98 0)
(1695.04 206.209 0)
(1650.41 113.245 0)
(1517.14 70.0267 0)
(1366.68 22.2042 0)
(1242.35 6.4105 -5.48951e-17)
(1159.69 -15.2802 1.11067e-16)
(1090.42 -6.7156 -8.39665e-17)
(1069.56 -8.22671 3.14766e-17)
(1047.4 2.65054 -3.52648e-18)
(1064.62 11.0965 1.30343e-20)
(1086.86 13.9388 -5.59117e-17)
(1152.17 19.0631 5.67886e-17)
(1237.66 4.14585 0)
(1355.98 -15.1994 0)
(1507.56 -55.656 -1.74633e-16)
(1642.69 -102.283 1.89001e-16)
(1690.14 -189.064 -1.70552e-19)
(1715.81 -381.11 6.99311e-20)
(1718.86 -604.807 -9.32713e-20)
(1548.1 -840.192 -7.29156e-20)
(1483.39 -553.39 0)
(1180.28 833.916 -1.84983e-16)
(1569.94 1002.85 1.18592e-16)
(1781.22 750.128 -1.31271e-19)
(1763.02 541.228 1.50443e-16)
(1749.84 345.218 -1.29843e-16)
(1706.01 241.862 0)
(1597.37 183.528 -8.42652e-17)
(1464.62 112.005 8.27171e-17)
(1343.09 66.9942 -4.77102e-17)
(1258.58 30.8081 9.67817e-17)
(1191.08 19.9754 -4.82287e-17)
(1164.25 5.87044 1.80835e-19)
(1146.22 3.35489 0)
(1161.08 -1.94402 2.45754e-17)
(1191.03 -11.9301 2.37034e-17)
(1256.8 -27.3205 -4.91815e-17)
(1344.64 -58.955 -9.10133e-17)
(1460.64 -110.218 9.03907e-17)
(1591.62 -177.671 -7.3928e-17)
(1700 -237.369 8.16256e-17)
(1748.1 -341.09 7.95891e-20)
(1765.33 -550.589 -7.81325e-20)
(1764.46 -766.755 0)
(1578.34 -998.791 6.44662e-20)
(1158.02 -854.907 0)
(1148.86 782.375 1.45472e-16)
(1617.58 952.289 -1.31069e-16)
(1801.95 821.79 5.07113e-20)
(1779.01 682.442 0)
(1772.57 495.205 0)
(1733.33 380.776 -7.45567e-21)
(1652.84 288.425 0)
(1544.28 193.058 8.00561e-20)
(1434.58 130.21 0)
(1352.66 71.282 4.30567e-17)
(1282.76 47.181 -6.42461e-17)
(1258.45 18.6602 3.21558e-17)
(1237.89 3.22501 -1.07937e-17)
(1255.59 -14.7469 0)
(1282.66 -39.2662 0)
(1350.86 -66.2112 4.14176e-17)
(1435.33 -120.593 -1.20354e-16)
(1537.64 -188.885 7.84426e-17)
(1645.53 -279.181 -6.44193e-17)
(1725.11 -382.129 7.11364e-17)
(1771.28 -490.017 0)
(1786.03 -675.062 0)
(1798.71 -831.037 0)
(1631.44 -929.471 -6.99787e-21)
(1122.46 -767.82 -1.66395e-16)
(1265.26 681.906 -2.77537e-20)
(1705.82 836.863 1.06997e-16)
(1788.72 857.932 -9.90217e-17)
(1787.09 748.055 0)
(1781.44 600.612 0)
(1755.62 481.232 7.68168e-21)
(1693.43 364.648 6.55851e-17)
(1598.34 259.407 -6.38751e-17)
(1500.6 184.295 3.3079e-20)
(1428.74 115.547 3.46088e-20)
(1366.36 72.5394 3.51947e-20)
(1339.67 32.5757 -1.01575e-20)
(1323.22 3.69386 -1.01599e-20)
(1336.93 -28.2352 1.91689e-17)
(1366.93 -63.8104 -1.94881e-17)
(1428.42 -109.928 4.4742e-20)
(1502.93 -174.069 4.28931e-20)
(1594.88 -254.278 0)
(1690.7 -353.988 -5.76599e-17)
(1752.78 -480.557 6.34828e-17)
(1780.72 -600.809 0)
(1796.52 -741.158 -9.99759e-17)
(1781.8 -867.783 1.03318e-16)
(1707.96 -836.316 6.40586e-21)
(1274.37 -670.589 -1.51306e-16)
(1358.63 578.421 3.41963e-20)
(1736.54 775.939 0)
(1773.92 858.209 0)
(1786.11 790.727 -5.39265e-17)
(1786.99 677.175 4.75282e-17)
(1777.95 558.295 0)
(1728.87 428.487 6.0167e-17)
(1647.08 312.847 -5.85361e-17)
(1563.03 227.131 3.41141e-17)
(1498.47 145.096 -3.38428e-17)
(1438.5 95.9531 1.78218e-17)
(1418.36 43.2282 -1.76449e-17)
(1400.31 2.93559 0)
(1416.56 -41.1451 -1.75572e-17)
(1440.59 -90.7828 1.79274e-17)
(1501.01 -143.329 -3.65702e-20)
(1569.02 -221.748 -3.50154e-20)
(1645.26 -315.176 5.64718e-20)
(1726.64 -425.146 5.28039e-17)
(1775.51 -562.968 -5.79779e-17)
(1779.82 -682.355 -4.86263e-20)
(1792.39 -787.61 -4.79567e-20)
(1773.28 -865.121 0)
(1735.05 -766.7 -5.15231e-20)
(1341.52 -566.145 3.47887e-20)
(1399.96 518.996 1.2617e-22)
(1752.53 712.674 0)
(1769.52 846.588 8.54073e-23)
(1787.76 809.724 4.43827e-20)
(1793.79 723.825 -8.78618e-23)
(1797.8 607.695 -5.26276e-17)
(1756.54 476.797 4.88703e-17)
(1684.44 362.762 0)
(1611.49 268.75 -6.37791e-20)
(1557.24 181.312 -1.13575e-22)
(1506.76 117.141 -1.15374e-22)
(1485.6 54.6612 6.81604e-20)
(1471.64 3.45383 0)
(1483.46 -51.4231 0)
(1508.8 -110.172 -1.15197e-22)
(1560.11 -178.961 -1.13631e-22)
(1617.39 -261.79 -2.92956e-17)
(1683.99 -361.093 8.3028e-17)
(1755.13 -470.009 -5.52398e-17)
(1799.05 -606.086 0)
(1791.41 -726.245 -4.49353e-17)
(1793.85 -806.293 4.76935e-17)
(1770.22 -853.89 8.36901e-23)
(1748.7 -721.584 4.6056e-20)
(1405.4 -505.887 1.26025e-22)
(1442.35 451.658 7.14552e-18)
(1745.14 689.125 1.05809e-17)
(1766.2 826.156 9.01481e-17)
(1791.58 804.828 -4.29406e-17)
(1805.65 744.84 4.31771e-17)
(1818.12 640.369 -4.83397e-17)
(1780.09 515.966 4.54952e-17)
(1720.04 396.973 -2.72459e-17)
(1659.63 297.098 2.69385e-17)
(1612.64 201.728 1.19212e-22)
(1564.89 134.742 1.21435e-22)
(1551.56 63.5442 -1.21859e-22)
(1535.57 4.30124 7.38908e-18)
(1549.74 -59.9326 7.26415e-18)
(1567.87 -128.362 -1.50975e-17)
(1616.46 -199.374 1.19707e-22)
(1668.15 -291.202 5.41104e-17)
(1720.33 -397.897 -1.04435e-16)
(1778.44 -510.135 5.11031e-17)
(1819.82 -636.092 0)
(1801.89 -744.284 -8.83171e-23)
(1796.75 -802.23 8.149e-23)
(1767.51 -827.441 -8.096e-23)
(1735.05 -694.936 -9.96481e-17)
(1428.39 -453.585 1.16355e-16)
(1432.35 457.487 1.1051e-19)
(1718.23 662.963 0)
(1769.76 777.367 0)
(1796.23 789.428 4.07717e-20)
(1821.3 741.993 8.2241e-20)
(1835.81 649.463 0)
(1799.93 532.734 4.77996e-17)
(1747.99 422.073 -4.69649e-17)
(1696.89 321.115 4.82113e-20)
(1658.83 224.79 -4.99199e-20)
(1620.53 146.244 -1.38733e-17)
(1605.57 67.5906 1.37517e-17)
(1594.3 1.65986 3.55006e-18)
(1604.45 -70.0219 -3.4741e-18)
(1624.29 -144.741 1.35146e-17)
(1664.26 -228.85 -4.01715e-17)
(1705.86 -322.278 2.6875e-17)
(1750.86 -428.553 -5.10337e-20)
(1798.57 -536.635 4.21511e-20)
(1836.58 -653.826 -4.14811e-17)
(1818.79 -746.497 1.17112e-18)
(1799.79 -788.582 -1.48634e-18)
(1777.78 -776.932 4.11123e-17)
(1716.97 -665.301 4.64205e-20)
(1421.25 -463.7 5.44033e-20)
(1401.11 459.658 1.0786e-16)
(1723.38 629.656 -9.1948e-17)
(1793.5 724.295 0)
(1808.2 766.578 -3.99046e-17)
(1834.08 732.91 7.09216e-20)
(1851.26 658.449 3.98266e-17)
(1818.1 558.141 4.4498e-17)
(1778.54 445.398 -4.40663e-17)
(1738.38 341.864 -5.04241e-20)
(1706.24 240.101 -2.55543e-17)
(1668.66 161.053 1.22213e-17)
(1660.75 77.0677 1.26285e-17)
(1646.32 5.16659 -5.34727e-20)
(1659.16 -72.4319 0)
(1670.75 -152.587 0)
(1709.1 -235.348 0)
(1746.9 -333.606 5.05574e-20)
(1779.49 -443.301 1.06174e-20)
(1815.87 -550.066 -5.36466e-20)
(1851.61 -651.166 0)
(1831.43 -729.296 3.95692e-20)
(1810.92 -761.262 9.77777e-21)
(1795.13 -722.519 -5.02321e-20)
(1733.21 -637.534 -9.07285e-17)
(1410.95 -467.766 1.06063e-16)
(1389.11 444.474 5.16624e-17)
(1738.19 568.054 -8.53419e-17)
(1811.28 652.87 8.3829e-17)
(1821.02 728.481 -4.13324e-17)
(1851.02 713.577 -3.79624e-17)
(1864.51 645.308 3.82436e-17)
(1833.24 553.225 2.08915e-17)
(1801.54 452.523 -2.10495e-17)
(1768.28 353.962 1.16363e-17)
(1742.92 254.604 -2.33458e-17)
(1714.2 167.845 1.76209e-17)
(1704.07 79.0434 -7.42166e-18)
(1694.83 3.19283 1.48576e-18)
(1703.36 -78.601 -4.40811e-20)
(1717.64 -162.567 2.3268e-17)
(1747.52 -255.194 -2.39515e-17)
(1777.27 -351.07 4.24864e-20)
(1805.94 -454.192 4.20924e-17)
(1832.28 -553.065 -2.10977e-18)
(1864.16 -644.558 -3.93119e-17)
(1848.55 -713.535 0)
(1821.02 -730.04 4.19259e-17)
(1811.94 -665.352 -3.79826e-17)
(1736.44 -582.458 -9.18658e-17)
(1391.86 -446.324 -4.18692e-18)
(1416.03 415.155 -5.10294e-17)
(1760.91 496.769 4.55203e-17)
(1832.37 604.533 1.93219e-20)
(1836.53 692.839 -5.51656e-20)
(1868.39 692.185 1.87261e-20)
(1875.4 632.81 3.7464e-17)
(1849.18 554 -1.85478e-17)
(1827.64 455.473 -2.00922e-17)
(1803.23 356.721 4.42761e-20)
(1782.19 255.203 -4.55555e-20)
(1752.88 170.773 2.0694e-20)
(1750.14 80.0914 -2.06223e-20)
(1737.35 1.01033 0)
(1749.23 -83.8715 4.99106e-21)
(1755.7 -169.931 -1.09527e-17)
(1785.53 -258.424 1.12147e-17)
(1811.69 -357.058 -2.10335e-17)
(1828.72 -461.237 9.10696e-19)
(1847.14 -553.505 1.96533e-17)
(1875.62 -630.164 -5.45564e-20)
(1864.08 -689.938 -3.75834e-17)
(1839.74 -685.491 3.60566e-17)
(1834.11 -594.671 0)
(1760.52 -513.083 -4.55922e-17)
(1392.48 -424.285 4.92266e-17)
(1428.81 376.146 0)
(1776.77 424.014 -3.75204e-17)
(1841.64 524.536 4.37324e-17)
(1853.2 637.028 1.79415e-20)
(1882.17 666.762 1.74482e-20)
(1889.68 614.668 -3.57426e-17)
(1864.9 541.047 3.75396e-17)
(1847.69 453.554 2.00884e-17)
(1827.17 362.532 6.74341e-19)
(1811.68 266.908 -2.05362e-17)
(1791.53 178.31 -2.17313e-20)
(1785.47 84.8637 2.4318e-20)
(1777.32 4.05094 0)
(1784.18 -82.8547 4.36901e-20)
(1793.95 -170.693 -2.1659e-20)
(1815.01 -264.739 1.02417e-17)
(1835.65 -355.981 -1.04205e-17)
(1851.72 -451.649 -2.01459e-20)
(1862.49 -537.655 -2.10427e-20)
(1887.79 -612.18 1.78617e-20)
(1876.62 -666.118 -3.70175e-17)
(1853.4 -644.513 -5.38328e-18)
(1846.65 -537.098 3.50236e-17)
(1778.56 -429.645 0)
(1432.9 -387.511 5.21527e-17)
(1451.91 350.369 -9.88577e-17)
(1791.35 365.193 4.26135e-17)
(1849.25 464.379 3.37326e-17)
(1870.69 598.372 -3.99357e-17)
(1896.4 631.653 0)
(1902.17 594.252 -2.16482e-21)
(1879.64 532.794 0)
(1870.35 448.499 -2.38611e-21)
(1855.96 356.293 -2.46985e-21)
(1845.11 260.351 0)
(1822.79 175.839 0)
(1824.22 83.7219 -2.55892e-21)
(1812.27 1.88001 0)
(1823.06 -86.4969 0)
(1825.03 -173.864 -9.84802e-18)
(1847.44 -261.875 9.94713e-18)
(1864.86 -355.118 -2.47982e-21)
(1872.42 -451.685 -1.87308e-17)
(1875.54 -530.368 1.80883e-17)
(1901.42 -589.461 0)
(1891.83 -629.696 3.65695e-17)
(1869.46 -592.255 -7.34841e-17)
(1854.64 -462.657 7.61921e-17)
(1794.96 -372.592 6.26459e-18)
(1448.9 -351.591 -4.79954e-17)
(1479.57 317.853 1.18703e-20)
(1804.16 315.941 -9.66643e-21)
(1836.1 406.175 0)
(1883.67 516.475 0)
(1906.69 590.937 0)
(1916.46 570.117 8.04305e-21)
(1895.19 507.774 0)
(1888.32 430.833 -8.60212e-21)
(1875.41 348.629 0)
(1868.08 260.275 -8.82545e-21)
(1855.14 175.565 0)
(1852.54 82.5955 -2.37332e-18)
(1845.46 0.968043 2.35045e-18)
(1851.21 -87.6098 0)
(1857.05 -174.609 9.32782e-18)
(1870.64 -264.555 -1.8806e-17)
(1884.41 -348.336 9.38005e-18)
(1894 -435.003 0)
(1890.51 -510.688 1.76548e-17)
(1913.41 -570.466 -1.65195e-17)
(1902.37 -592.282 3.62097e-17)
(1883.18 -531.307 -3.23805e-17)
(1849.87 -403.672 0)
(1806.1 -303.189 0)
(1470.48 -318.51 0)
(1481 297.787 -1.18389e-20)
(1804.92 290.901 9.54436e-21)
(1836.28 334.35 0)
(1901.8 446.129 0)
(1917.84 540.54 0)
(1929.06 542.664 -8.12075e-21)
(1909.44 497.703 0)
(1907.81 424.89 8.81832e-21)
(1901.53 342.305 0)
(1898.37 253.351 -9.00931e-18)
(1880.56 172.812 9.03674e-18)
(1885.39 83.3629 -8.42885e-21)
(1874.12 2.92938 9.28904e-21)
(1883.85 -85.0195 8.42602e-21)
(1881.58 -169.7 0)
(1898.11 -253.234 0)
(1909.09 -339.124 9.05601e-21)
(1911.96 -425.845 -1.7677e-17)
(1904.98 -493.474 1.6933e-17)
(1925.3 -538.898 0)
(1910.71 -542.046 7.99299e-21)
(1896.77 -460.929 0)
(1830.4 -336.266 0)
(1814.18 -275.541 0)
(1493.69 -287.404 0)
(1502.6 273.878 -4.48949e-17)
(1813.42 263.493 3.93053e-17)
(1846.14 284.222 0)
(1907.9 347.739 -1.71615e-20)
(1925.64 482.763 0)
(1939.25 509.864 -1.53608e-17)
(1925.22 468.106 3.331e-17)
(1924.57 402.048 -1.71035e-17)
(1918.18 328.739 -8.61205e-18)
(1915.66 248.797 8.63532e-18)
(1907.78 170.368 4.40977e-21)
(1907.66 80.2911 1.12392e-18)
(1901.33 1.20191 -1.07865e-18)
(1906.28 -85.6939 8.59407e-18)
(1908.73 -169.098 -8.64115e-18)
(1915.69 -252.477 0)
(1925.88 -327.48 -1.63011e-20)
(1932.78 -406.682 0)
(1920.54 -471.72 0)
(1933.88 -510.891 -1.71697e-17)
(1918.94 -485.662 1.51297e-17)
(1904.26 -354.563 0)
(1840.54 -280.202 3.76897e-17)
(1816.04 -251.148 1.65612e-18)
(1510.74 -267.151 -9.15153e-17)
(1525.23 258.166 4.52551e-17)
(1821.16 245.082 1.83986e-20)
(1854.23 225.557 3.22499e-17)
(1906.67 288.209 -2.36645e-17)
(1932.35 427.825 -1.84762e-17)
(1946.64 463.871 0)
(1936.28 447.643 8.35509e-21)
(1942.33 391.706 1.62348e-17)
(1942.07 319.032 -1.65985e-17)
(1942.9 236.209 0)
(1927.97 160.616 0)
(1935.39 76.3058 -2.58907e-20)
(1924.53 -0.092174 3.2415e-20)
(1933.72 -84.5549 1.68685e-20)
(1927.93 -163.322 4.17975e-18)
(1939.95 -241.653 -4.13454e-18)
(1947.28 -320.067 8.88837e-21)
(1949.13 -396.759 1.67652e-17)
(1934.77 -448.229 -3.29389e-17)
(1943.86 -462.654 1.49245e-17)
(1927.8 -424.438 -1.55746e-20)
(1900.75 -286.497 0)
(1849.65 -224.43 1.78113e-20)
(1824.83 -241.237 3.81013e-17)
(1528.01 -255.317 -8.88684e-17)
(1540.65 237.631 -4.43657e-17)
(1833.96 226.881 -3.63625e-17)
(1859.52 198.008 3.56295e-17)
(1884.95 195.63 1.48578e-17)
(1935.63 343.675 -1.93226e-17)
(1950.3 417.839 0)
(1949.71 413.869 4.03671e-21)
(1958.27 366.567 -1.18559e-20)
(1957.29 304.757 8.00634e-18)
(1956.13 232.622 -1.61255e-17)
(1950.98 161.046 8.04872e-18)
(1952.75 75.8198 2.00165e-18)
(1946.71 2.1395 -1.87275e-18)
(1950.7 -79.943 1.8663e-18)
(1951.06 -157.666 -2.00972e-18)
(1953.22 -235.283 0)
(1961.34 -301.886 1.19652e-20)
(1967.74 -370.691 -3.83957e-21)
(1946.78 -418.146 -1.71017e-17)
(1943.24 -421.14 1.46503e-17)
(1931.36 -350.028 0)
(1881.63 -197.104 0)
(1857.67 -194.259 -4.30342e-21)
(1838.15 -223.772 -3.74826e-17)
(1551.8 -235.413 -1.3642e-18)
(1552.27 220.639 -2.08388e-17)
(1840.71 216.809 1.85744e-17)
(1867.64 179.984 4.29408e-21)
(1893.89 141.493 0)
(1940 258.388 1.43273e-17)
(1954.41 350.682 -1.74497e-17)
(1956.57 379.78 3.80839e-21)
(1972.43 352.08 3.87194e-21)
(1977.67 294.942 1.47229e-20)
(1980.69 220.067 -1.92066e-18)
(1967.47 149.563 9.86587e-19)
(1976.19 70.9768 1.89473e-18)
(1965.24 0.732887 -9.7219e-19)
(1973.92 -78.7499 3.87579e-18)
(1966.91 -150.838 -3.89125e-18)
(1975.74 -224.272 0)
(1979.13 -294.732 1.08801e-20)
(1979.76 -356.518 -1.6267e-17)
(1957.46 -380.165 1.50364e-17)
(1949.53 -352.248 3.77455e-21)
(1932.03 -257.277 0)
(1887.15 -135.89 0)
(1867.15 -179.732 4.33465e-21)
(1847.43 -219.405 -3.68468e-17)
(1557.81 -220.585 4.17131e-17)
(1575.49 195.103 2.09451e-20)
(1854.59 195.636 0)
(1884.98 161.532 -8.04826e-21)
(1896.55 72.0491 -1.50055e-17)
(1924.23 180.125 1.83938e-17)
(1952.38 303.016 -1.42005e-17)
(1960.48 333.568 1.68449e-17)
(1985.03 317.229 -7.41154e-18)
(1989.79 273.271 7.79231e-18)
(1989.35 210.628 -3.76276e-18)
(1986.41 146.852 3.78578e-18)
(1989.4 67.8008 -1.84541e-18)
(1983.39 0.518045 2.10796e-18)
(1987.09 -76.4299 -2.49806e-19)
(1986.44 -147.38 3.78467e-18)
(1985.79 -217.449 -7.56706e-18)
(1990.63 -273.323 -4.07269e-18)
(1993.6 -324.651 7.41961e-18)
(1959.99 -336.771 1.51861e-20)
(1949.85 -300.294 -7.70138e-21)
(1917.92 -177.461 0)
(1893.79 -69.7542 0)
(1887.99 -163.129 0)
(1856.69 -200.336 -1.81694e-17)
(1573.57 -198.001 2.02562e-17)
(1580.66 177.433 -2.52906e-21)
(1860.21 176.366 0)
(1901.57 154.374 1.02619e-20)
(1903.85 55.0971 -8.08399e-21)
(1899.37 102.085 -7.6013e-21)
(1950.33 196.111 0)
(1961.81 282.161 -7.49131e-21)
(1991.94 294.131 7.18652e-18)
(2005.14 262.374 -7.6825e-18)
(2011.16 200.767 0)
(1999.76 137.501 1.7522e-21)
(2009.38 65.2882 0)
(1998.47 2.292 0)
(2007 -71.4829 1.82371e-18)
(1999.07 -136.451 -1.83919e-18)
(2005.6 -202.511 -7.32353e-21)
(2003.18 -259.99 -1.77991e-21)
(1997.73 -296.815 7.36719e-21)
(1965.29 -281.99 -8.64556e-18)
(1948.76 -210.134 7.12425e-18)
(1888.45 -104.148 -1.74524e-17)
(1898.12 -51.3883 3.25468e-17)