/*--------------------------------*- C++ -*----------------------------------*\
| =========                 |                                                 |
| \\      /  F ield         | OpenFOAM: The Open Source CFD Toolbox           |
|  \\    /   O peration     | Version:  2112                                  |
|   \\  /    A nd           | Website:  www.openfoam.com                      |
|    \\/     M anipulation  |                                                 |
\*---------------------------------------------------------------------------*/
FoamFile
{
    version     2.0;
    format      ascii;
    arch        "LSB;label=32;scalar=64";
    class       volScalarField;
    location    "0.00822";
    object      alphat;
}
// * * * * * * * * * * * * * * * * * * * * * * * * * * * * * * * * * * * * * //

dimensions      [1 -1 -1 0 0 0 0];

internalField   nonuniform List<scalar> 
13875
(
0.11986
0.0816022
0.0784489
0.0782753
0.0783234
0.0783796
0.07831
0.0782865
0.0783202
0.0783155
0.0782863
0.0783029
0.0783767
0.0784116
0.0783947
0.0782976
0.0782559
0.0782945
0.078303
0.0783543
0.0783204
0.078266
0.0784835
0.0814462
0.120925
0.103937
0.057679
0.0570819
0.0571599
0.0566557
0.0566714
0.0570338
0.0571146
0.0571997
0.0572116
0.0571378
0.0571136
0.0566528
0.0566137
0.0566678
0.0570979
0.0571188
0.0571515
0.0570741
0.0566796
0.0566738
0.0571393
0.0570622
0.0573737
0.104626
0.110618
0.055324
0.0558745
0.0547242
0.0545695
0.0544456
0.0542156
0.0541462
0.0542561
0.054401
0.0542807
0.0543563
0.0542539
0.0542764
0.05424
0.0543494
0.054108
0.0542502
0.0542808
0.054451
0.0545304
0.0546018
0.0557832
0.0550938
0.111178
0.115885
0.0546441
0.0553817
0.0543161
0.0540313
0.0539014
0.0536218
0.0534914
0.0535136
0.0535257
0.0534034
0.0534953
0.0537097
0.0537401
0.0536921
0.0534819
0.0533627
0.0534608
0.0536337
0.0539058
0.0539995
0.0542018
0.0551965
0.0542885
0.115751
0.121031
0.0546339
0.0551212
0.0537489
0.0536692
0.053476
0.0531114
0.0530065
0.0530225
0.0530228
0.0529168
0.0530084
0.0532294
0.0532656
0.053215
0.0529932
0.0528751
0.0529527
0.0531084
0.0534747
0.0536076
0.0536121
0.0550212
0.0543177
0.121342
0.124407
0.0547443
0.0551871
0.0536105
0.0532868
0.0530647
0.0527145
0.052585
0.0525976
0.0525806
0.0524888
0.05255
0.0527875
0.0528518
0.0527658
0.052538
0.052446
0.0525439
0.0527326
0.0530525
0.0532387
0.0535043
0.0548874
0.0543888
0.124089
0.128744
0.056474
0.0557834
0.0534575
0.0532623
0.0528507
0.0523466
0.0522244
0.0522064
0.0521776
0.0521112
0.0521697
0.0524187
0.0524787
0.0523977
0.0521481
0.0520751
0.0521592
0.0523568
0.0528621
0.0531953
0.0533638
0.0556483
0.056349
0.129001
0.1357
0.0611959
0.0578352
0.0544114
0.0533993
0.0528173
0.0521905
0.0519888
0.0519369
0.0518773
0.051813
0.0518423
0.0521199
0.0521882
0.052083
0.0518214
0.0518042
0.0519211
0.0522172
0.0527866
0.0533249
0.0542774
0.0575178
0.0610278
0.135634
0.151303
0.0692446
0.0615389
0.0559165
0.0543972
0.0531186
0.0521941
0.0518733
0.0517514
0.0516759
0.0516394
0.0516496
0.0519551
0.0520302
0.0519229
0.0516243
0.051653
0.0517989
0.0521591
0.0530925
0.054226
0.0556193
0.0610348
0.0684128
0.154228
0.239333
0.0874379
0.066458
0.0589952
0.0553897
0.0537079
0.0525332
0.0520721
0.0518522
0.051707
0.0517051
0.0516984
0.0520303
0.0521118
0.0520031
0.0517181
0.0517643
0.0519449
0.0524344
0.0536031
0.0552569
0.0586527
0.0660107
0.0866908
0.241156
0.36543
0.118419
0.0759537
0.0628892
0.0575566
0.0548114
0.0532329
0.0526266
0.0523194
0.0521793
0.0521794
0.0521569
0.052486
0.0525751
0.0524981
0.0522737
0.0523162
0.0525502
0.0530305
0.0546116
0.0573211
0.0616254
0.07483
0.113039
0.365659
0.658384
0.193093
0.103956
0.0743736
0.0613462
0.0574658
0.0552943
0.0541567
0.0536473
0.0534818
0.0534322
0.0534046
0.0536813
0.0537954
0.0537784
0.0536821
0.0537655
0.0541642
0.0551151
0.0568256
0.0618791
0.0733811
0.100174
0.182919
0.643646
0.582238
0.436858
0.176013
0.092425
0.0769669
0.065128
0.0597401
0.0577546
0.0568736
0.0566008
0.0564496
0.0564085
0.0565807
0.0567242
0.0568053
0.0568769
0.0571344
0.0579416
0.0598328
0.0653002
0.0763072
0.0897108
0.172113
0.433658
0.581364
0.491887
0.401188
0.347849
0.325838
0.115941
0.0806649
0.0733729
0.0674693
0.0651041
0.0643954
0.0639488
0.0637906
0.063844
0.0640172
0.0642853
0.0647531
0.0656771
0.0683569
0.0749534
0.0831863
0.131094
0.328309
0.337504
0.401425
0.500172
0.408823
0.35017
0.330039
0.33349
0.301944
0.196157
0.125684
0.0945486
0.086541
0.0860028
0.0853687
0.0850919
0.0851239
0.0853199
0.0857671
0.086674
0.0875517
0.0953252
0.133854
0.212209
0.302489
0.330129
0.331394
0.360359
0.421779
0.330189
0.29341
0.282223
0.300588
0.313194
0.321368
0.242459
0.191506
0.171366
0.148345
0.136318
0.132281
0.130819
0.131575
0.134332
0.143153
0.171681
0.195452
0.249048
0.324325
0.307955
0.303759
0.291485
0.298386
0.341932
0.239398
0.22738
0.225168
0.263432
0.318703
0.401783
0.530366
0.565184
0.540322
0.53795
0.557824
0.571427
0.578625
0.575116
0.562016
0.55195
0.54011
0.568669
0.531674
0.397721
0.314357
0.266655
0.230407
0.234598
0.251971
0.140503
0.152205
0.185273
0.226678
0.312188
0.433166
0.563786
0.617237
0.561631
0.512061
0.494799
0.491497
0.494291
0.493178
0.498699
0.530625
0.566674
0.607219
0.565429
0.437653
0.311419
0.229346
0.177452
0.143017
0.131286
0.0684462
0.102663
0.163533
0.247456
0.34991
0.409226
0.474132
0.533478
0.500491
0.452782
0.433017
0.430128
0.431691
0.434707
0.441138
0.462458
0.496202
0.527199
0.487385
0.426563
0.372299
0.264678
0.167681
0.104499
0.0703344
0.026457
0.0519844
0.112273
0.228872
0.347667
0.363122
0.385069
0.42659
0.42533
0.402983
0.390595
0.384967
0.382249
0.390137
0.398329
0.405988
0.41433
0.41438
0.389031
0.377011
0.362674
0.229185
0.111852
0.0517965
0.0257554
0.0769549
0.0859279
0.113089
0.186259
0.276251
0.28649
0.30719
0.351336
0.370256
0.361822
0.349625
0.338593
0.333224
0.344507
0.356734
0.361858
0.357122
0.33803
0.307296
0.294763
0.282285
0.185631
0.112169
0.0870831
0.0821516
0.122747
0.146684
0.12621
0.155933
0.207539
0.225012
0.252016
0.298076
0.323254
0.320798
0.308574
0.294643
0.287834
0.300413
0.31505
0.319811
0.310447
0.285578
0.247696
0.229165
0.210059
0.153561
0.123817
0.145413
0.123735
0.166897
0.154895
0.130448
0.133683
0.163939
0.181131
0.211496
0.25565
0.281386
0.281398
0.268826
0.253958
0.247162
0.258598
0.273758
0.279015
0.268784
0.246011
0.206119
0.182743
0.165129
0.134025
0.127939
0.156194
0.16904
0.207423
0.185783
0.132391
0.123319
0.138406
0.154688
0.180132
0.219922
0.243075
0.244469
0.232204
0.218397
0.212186
0.222708
0.236869
0.242251
0.231628
0.210943
0.17596
0.154848
0.138958
0.123454
0.13093
0.195961
0.204649
0.227702
0.223695
0.135884
0.119108
0.122406
0.134908
0.156463
0.188618
0.208589
0.210397
0.200091
0.187489
0.182473
0.191537
0.204935
0.209809
0.199746
0.181579
0.153748
0.134079
0.122321
0.120839
0.1358
0.23588
0.225771
0.250016
0.252611
0.136686
0.11561
0.111735
0.120953
0.138399
0.164432
0.180279
0.18192
0.173268
0.162227
0.157522
0.165582
0.177066
0.181066
0.172734
0.157702
0.135684
0.120613
0.112087
0.11684
0.137336
0.264291
0.249056
0.277326
0.268924
0.138176
0.112598
0.105217
0.109598
0.12407
0.143378
0.155719
0.156613
0.149545
0.140125
0.136576
0.143336
0.153425
0.156686
0.149866
0.13797
0.121386
0.108483
0.105786
0.113744
0.140862
0.28537
0.273527
0.30572
0.288154
0.138268
0.108085
0.0999196
0.101528
0.112394
0.126817
0.135367
0.135774
0.129994
0.12235
0.119028
0.125185
0.133736
0.13686
0.131914
0.122421
0.109816
0.10088
0.101164
0.109479
0.141963
0.30421
0.302451
0.335785
0.316721
0.143136
0.105744
0.0972979
0.0949336
0.102604
0.112368
0.118868
0.118626
0.113743
0.106926
0.104289
0.109156
0.116375
0.118924
0.115499
0.108889
0.10053
0.0941224
0.0980785
0.106434
0.144444
0.318515
0.330411
0.363249
0.330297
0.143606
0.101702
0.0929272
0.0906033
0.095142
0.101302
0.104844
0.104042
0.0998641
0.094444
0.0918789
0.096518
0.102595
0.105108
0.102941
0.0978682
0.0924974
0.0888906
0.0937326
0.102872
0.14625
0.332808
0.354698
0.378252
0.335867
0.149264
0.100842
0.0907532
0.0862239
0.0887655
0.090629
0.0928375
0.091648
0.0882971
0.0834239
0.0814474
0.0852096
0.090659
0.0927489
0.0917553
0.0889384
0.0868801
0.0848902
0.0906378
0.10133
0.149285
0.336808
0.379853
0.387461
0.33536
0.1536
0.099154
0.0862585
0.0815291
0.0832357
0.0835206
0.0838918
0.0822156
0.0789086
0.0748014
0.0726553
0.0761999
0.0807641
0.0829798
0.0828534
0.0811803
0.0814067
0.0797867
0.0857922
0.0996951
0.152088
0.336636
0.392829
0.406868
0.330401
0.159216
0.100602
0.0843776
0.0780819
0.078795
0.076058
0.0755022
0.0734977
0.0707412
0.0668726
0.0652629
0.06818
0.0725146
0.0743856
0.0751104
0.0749052
0.0771247
0.076463
0.0831477
0.100012
0.158715
0.336318
0.403418
0.413661
0.324341
0.163321
0.100979
0.0807896
0.0742454
0.0732873
0.0705721
0.0689528
0.0667319
0.0639559
0.0607345
0.058991
0.0618399
0.0655653
0.0678233
0.0689563
0.0693181
0.0720648
0.0724318
0.0799275
0.100345
0.163092
0.328111
0.41673
0.42065
0.322931
0.16397
0.104176
0.0808843
0.0721263
0.0695505
0.0653173
0.0631316
0.0604881
0.0582065
0.054999
0.0536664
0.0559517
0.0595041
0.0612468
0.0632083
0.0646085
0.0683656
0.0703362
0.078724
0.101756
0.166014
0.326445
0.426875
0.427155
0.314558
0.161886
0.106005
0.0807609
0.0687154
0.064955
0.0608941
0.0584771
0.0557899
0.0532386
0.0505626
0.0491298
0.051446
0.0545268
0.0568074
0.0585809
0.0597767
0.0640837
0.0673755
0.0786789
0.104758
0.164333
0.325607
0.431183
0.432286
0.316561
0.161859
0.111347
0.0826717
0.0675112
0.062294
0.0564417
0.0539563
0.0510016
0.0489968
0.0463061
0.0452046
0.0470661
0.050131
0.0518601
0.0544525
0.0560591
0.0615884
0.0659656
0.0801274
0.108218
0.163584
0.326525
0.431913
0.42808
0.315042
0.159362
0.119181
0.084612
0.0656939
0.0588196
0.0529853
0.050392
0.0478246
0.0454247
0.0431256
0.0418615
0.0437459
0.04646
0.0485953
0.0505531
0.0520134
0.0579187
0.0640611
0.0811897
0.115585
0.158839
0.326701
0.432888
0.424613
0.314004
0.155715
0.122476
0.0880331
0.0668609
0.0572235
0.0498037
0.0469317
0.0439781
0.0422197
0.0398919
0.0389618
0.0405008
0.043165
0.0446852
0.0475103
0.0494348
0.0561525
0.064892
0.0853869
0.121395
0.155938
0.327357
0.427806
0.414724
0.314381
0.148796
0.122341
0.0935529
0.066864
0.0547256
0.0470653
0.0441113
0.0416705
0.0395309
0.0375481
0.0364347
0.0380729
0.0404504
0.0423714
0.0444772
0.0464925
0.0539163
0.0649103
0.0884951
0.12174
0.148608
0.317185
0.420471
0.403541
0.314369
0.144686
0.122034
0.102341
0.0700614
0.0551408
0.0454296
0.0418372
0.0387035
0.0370614
0.0350182
0.0342308
0.0355118
0.0378446
0.0391984
0.0423688
0.0450129
0.0537437
0.0671592
0.096098
0.120754
0.144785
0.318505
0.413705
0.399049
0.311782
0.139251
0.119726
0.107832
0.0720221
0.054349
0.0440764
0.0398267
0.0371084
0.0350231
0.0332339
0.0322703
0.0337254
0.0358363
0.0376311
0.0401679
0.0433996
0.0535382
0.0692721
0.107305
0.120128
0.141494
0.314787
0.406182
0.390882
0.31313
0.137195
0.115898
0.107188
0.0779621
0.0556209
0.0441214
0.0387211
0.0348239
0.0330762
0.0312245
0.0305537
0.0316685
0.0338145
0.0352301
0.0392792
0.0434838
0.05421
0.0739875
0.107688
0.116704
0.139848
0.321161
0.398014
0.382376
0.309028
0.136245
0.110742
0.106327
0.08664
0.0572317
0.0439486
0.0378542
0.0339967
0.0316355
0.0299137
0.0290155
0.0302829
0.0323098
0.0342365
0.0378985
0.0431645
0.0556112
0.081106
0.106609
0.11206
0.140153
0.321036
0.388115
0.376235
0.306335
0.134872
0.106054
0.103341
0.0925104
0.0613316
0.0447047
0.0380226
0.0326218
0.0302444
0.0283236
0.0276806
0.0286797
0.0308258
0.0326724
0.038284
0.0442255
0.0596205
0.0930982
0.104741
0.108062
0.142066
0.31778
0.375756
0.369359
0.304624
0.135095
0.102542
0.0985057
0.0919974
0.0680409
0.0461347
0.0377964
0.0328338
0.0295429
0.0274831
0.0265542
0.027766
0.0300751
0.0327276
0.0378135
0.0452438
0.0660004
0.0928014
0.101008
0.105042
0.141656
0.310647
0.370145
0.357388
0.298236
0.136731
0.10003
0.093719
0.0909547
0.0791662
0.0503546
0.0388908
0.0323972
0.0291274
0.0265948
0.0257211
0.0268233
0.0295411
0.0322282
0.0388442
0.0488331
0.0761944
0.0919088
0.0960924
0.101826
0.14006
0.305101
0.36143
0.347819
0.293953
0.135351
0.0981675
0.0902656
0.0881021
0.0791662
0.056464
0.0399237
0.0329408
0.0292022
0.0266259
0.0251397
0.0267906
0.0296818
0.0328388
0.0395987
0.0550127
0.0783439
0.0891041
0.0923119
0.100006
0.139939
0.299293
0.349101
0.321837
0.282694
0.134798
0.0969264
0.0871299
0.0843142
0.0782909
0.0663007
0.0439788
0.0331676
0.0291864
0.0263576
0.0251439
0.0265332
0.0295776
0.0329533
0.0436573
0.0645084
0.0779717
0.0852292
0.0883297
0.097478
0.1384
0.289601
0.323037
0.291913
0.264031
0.130422
0.0955064
0.085304
0.0802804
0.0766394
0.0678261
0.0494773
0.0357319
0.0297987
0.026767
0.0252355
0.0268901
0.0301475
0.0352003
0.0486758
0.0681361
0.0765932
0.0802087
0.0856234
0.0963514
0.133958
0.272886
0.294569
0.0749652
0.257241
0.405203
0.532308
0.57439
0.572604
0.533206
0.478452
0.427796
0.400823
0.38936
0.39513
0.422726
0.448534
0.480328
0.520476
0.550753
0.574321
0.5903
0.595786
0.587574
0.56926
0.543638
0.51455
0.482434
0.446967
0.40583
0.353449
0.273656
0.150615
0.0815276
0.30805
0.46737
0.581243
0.627007
0.633131
0.595436
0.555914
0.517336
0.488981
0.47129
0.474715
0.475054
0.475765
0.490871
0.518629
0.537173
0.552395
0.56063
0.560765
0.550696
0.53276
0.508922
0.482215
0.452753
0.420438
0.38293
0.334449
0.258911
0.145873
0.0974146
0.37876
0.539259
0.643385
0.688979
0.692463
0.63923
0.599914
0.569488
0.545246
0.526946
0.510676
0.493145
0.483561
0.490179
0.505252
0.517071
0.526071
0.529384
0.52691
0.515935
0.499251
0.477597
0.453126
0.425962
0.39599
0.361678
0.316822
0.246253
0.141561
0.111156
0.451291
0.602854
0.70138
0.758166
0.754043
0.692646
0.651408
0.624562
0.595704
0.56748
0.536456
0.508424
0.491642
0.491518
0.495156
0.497715
0.498642
0.49737
0.492729
0.481273
0.46582
0.446209
0.423929
0.398896
0.37114
0.340304
0.299487
0.233979
0.13693
0.12215
0.515295
0.659922
0.762888
0.825091
0.821136
0.750971
0.712299
0.685106
0.652791
0.611242
0.567307
0.529577
0.503969
0.49073
0.482885
0.477441
0.47346
0.469307
0.463019
0.451136
0.436228
0.417164
0.396614
0.373668
0.349494
0.322182
0.284368
0.222619
0.132444
0.134723
0.580016
0.717404
0.828952
0.891544
0.877074
0.800287
0.760036
0.733994
0.698392
0.651073
0.598844
0.553189
0.514944
0.487826
0.469486
0.457774
0.449819
0.442522
0.434525
0.422051
0.406513
0.391272
0.374174
0.354563
0.332939
0.30767
0.271998
0.213211
0.128694
0.146532
0.634762
0.774116
0.886646
0.944656
0.912085
0.831215
0.789259
0.760421
0.725214
0.677256
0.622427
0.570691
0.523302
0.484784
0.4574
0.440356
0.428991
0.419589
0.410315
0.398164
0.387005
0.373949
0.358752
0.341066
0.321084
0.296909
0.26231
0.205164
0.125613
0.160791
0.688677
0.827546
0.934504
0.985887
0.934251
0.849446
0.803522
0.772594
0.738824
0.693219
0.639087
0.583221
0.529062
0.482522
0.447474
0.425776
0.409931
0.398427
0.389535
0.379889
0.37068
0.359281
0.345341
0.32895
0.310183
0.286925
0.253188
0.197691
0.122733
0.17476
0.740731
0.879252
0.977156
1.01925
0.950208
0.862359
0.814345
0.784708
0.751024
0.707839
0.653468
0.595102
0.534715
0.48207
0.441427
0.413763
0.394467
0.383891
0.374442
0.366597
0.358617
0.348538
0.335599
0.319844
0.301592
0.278709
0.245417
0.191123
0.120041
0.188606
0.78898
0.930902
1.02063
1.05383
0.972245
0.881922
0.833188
0.804688
0.770944
0.72844
0.671967
0.611423
0.545275
0.486906
0.439628
0.406044
0.3847
0.372101
0.363152
0.356018
0.34862
0.339594
0.327724
0.311154
0.29324
0.270745
0.238163
0.185525
0.117717
0.199579
0.835638
0.987558
1.05746
1.07501
0.993541
0.904313
0.857874
0.829572
0.796814
0.753532
0.697671
0.632725
0.562992
0.49793
0.443477
0.403856
0.378704
0.36387
0.355218
0.348213
0.341238
0.332844
0.320555
0.304709
0.287088
0.264962
0.232876
0.181199
0.115958
0.208745
0.882198
1.02623
1.0788
1.09217
1.01104
0.925046
0.880429
0.852707
0.822929
0.781656
0.727306
0.659701
0.58635
0.515963
0.45366
0.407001
0.376753
0.359287
0.349721
0.342442
0.335611
0.326341
0.314303
0.300166
0.282498
0.26036
0.228212
0.177129
0.114392
0.215859
0.915163
1.04981
1.09897
1.10832
1.0284
0.943279
0.899477
0.872547
0.846508
0.80983
0.758749
0.690668
0.615017
0.539262
0.468253
0.413471
0.377284
0.357729
0.346253
0.338313
0.331369
0.323322
0.311281
0.297322
0.279728
0.257366
0.224745
0.173879
0.113367
0.2215
0.936223
1.07041
1.12027
1.12278
1.04432
0.954218
0.91267
0.887759
0.867296
0.836415
0.78963
0.724375
0.647785
0.567274
0.48646
0.423095
0.382072
0.358846
0.344988
0.336022
0.328681
0.320152
0.310017
0.295698
0.277239
0.254709
0.221985
0.171828
0.113008
0.225338
0.953337
1.09284
1.13436
1.13042
1.04844
0.958562
0.920823
0.899674
0.883033
0.859143
0.819645
0.759645
0.684323
0.600962
0.513809
0.439816
0.391047
0.362714
0.345822
0.335186
0.326557
0.317339
0.308435
0.296008
0.276876
0.252847
0.21994
0.17012
0.112634
0.227577
0.969731
1.11091
1.13606
1.12744
1.04456
0.956784
0.922295
0.906705
0.894778
0.879655
0.848442
0.796103
0.725177
0.641139
0.547795
0.463498
0.404705
0.369155
0.348414
0.335284
0.324638
0.313778
0.305038
0.293011
0.276115
0.251915
0.218689
0.168887
0.112564
0.228496
0.978527
1.11352
1.12793
1.11607
1.03172
0.950854
0.91947
0.910322
0.905021
0.897487
0.875591
0.832938
0.769149
0.686798
0.588663
0.495844
0.42431
0.37861
0.352529
0.335112
0.320295
0.311125
0.301215
0.289699
0.273667
0.251555
0.218392
0.168453
0.11299
0.228364
0.976285
1.10194
1.11161
1.09801
1.01362
0.941448
0.915758
0.912132
0.912776
0.912222
0.899493
0.867309
0.813218
0.736014
0.637376
0.53694
0.451329
0.392687
0.357282
0.334163
0.317335
0.307964
0.297068
0.286555
0.271455
0.249823
0.216755
0.168256
0.114055
0.226077
0.962576
1.07835
1.08454
1.07296
0.991371
0.931955
0.908434
0.912183
0.918254
0.923554
0.919422
0.89806
0.85571
0.78789
0.693051
0.586419
0.486626
0.40936
0.361431
0.332947
0.316374
0.305783
0.295443
0.283782
0.269004
0.248246
0.215413
0.16664
0.114998
0.22271
0.948722
1.04601
1.04741
1.039
0.96496
0.918333
0.899663
0.910498
0.922741
0.93255
0.936262
0.925852
0.896861
0.840985
0.752827
0.640627
0.525353
0.430203
0.368441
0.33455
0.316583
0.304615
0.294276
0.282384
0.268134
0.24749
0.214899
0.165958
0.114996
0.216823
0.902298
0.998716
0.998519
0.997637
0.938104
0.899597
0.891714
0.906568
0.926783
0.939128
0.948487
0.95003
0.934419
0.891024
0.809063
0.695479
0.570686
0.45786
0.379935
0.337834
0.318092
0.30378
0.292973
0.280942
0.266926
0.246359
0.21458
0.166041
0.115416
0.211598
0.861642
0.942249
0.946449
0.951301
0.908951
0.883477
0.88438
0.902334
0.927034
0.945232
0.958162
0.967071
0.962358
0.926617
0.852855
0.746896
0.621618
0.495346
0.40086
0.347554
0.321249
0.304505
0.292656
0.280354
0.265709
0.245007
0.213548
0.165499
0.115717
0.198758
0.789212
0.862343
0.887289
0.901099
0.881305
0.869882
0.879241
0.899495
0.925348
0.948278
0.963204
0.972725
0.971186
0.945862
0.88527
0.794361
0.678731
0.544944
0.433157
0.363598
0.326613
0.306293
0.292146
0.27894
0.263663
0.243115
0.21249
0.164657
0.115678
0.192697
0.707964
0.775283
0.823842
0.852634
0.854613
0.857094
0.874033
0.897585
0.923064
0.947824
0.960807
0.967051
0.965021
0.958011
0.914264
0.838943
0.741209
0.605143
0.477402
0.386878
0.335877
0.308061
0.290989
0.277355
0.261661
0.241543
0.210946
0.163652
0.115493
0.165828
0.53406
0.650902
0.746229
0.805164
0.829178
0.844141
0.867863
0.895853
0.921633
0.943259
0.957071
0.959315
0.959276
0.97015
0.943139
0.884717
0.804086
0.673229
0.532186
0.41894
0.349394
0.312692
0.290998
0.27579
0.260197
0.240717
0.209471
0.162638
0.115319
0.149325
0.271024
0.350672
0.403211
0.445159
0.480551
0.513095
0.542296
0.568088
0.586154
0.593816
0.587077
0.570196
0.546083
0.517421
0.480781
0.456392
0.434377
0.40688
0.402344
0.419161
0.450566
0.505484
0.562484
0.599778
0.596861
0.551257
0.421405
0.268264
0.0759454
0.144588
0.256295
0.331653
0.380248
0.418592
0.451125
0.480865
0.507739
0.531753
0.549578
0.559144
0.558101
0.54904
0.533813
0.516415
0.49248
0.483983
0.487799
0.491166
0.495644
0.509295
0.541216
0.580689
0.622978
0.663532
0.653277
0.601057
0.484258
0.31937
0.0824425
0.140243
0.243532
0.313824
0.358765
0.393988
0.4244
0.451722
0.476345
0.498191
0.514955
0.525707
0.528051
0.524492
0.515463
0.504566
0.493061
0.492744
0.507103
0.528972
0.551251
0.569326
0.594228
0.626409
0.670977
0.727798
0.717531
0.664652
0.558111
0.392997
0.0985515
0.135748
0.231308
0.296307
0.337244
0.369186
0.39782
0.422974
0.445198
0.465122
0.480716
0.492183
0.497056
0.498391
0.497454
0.495573
0.493594
0.502578
0.525065
0.557467
0.593633
0.626114
0.65345
0.682216
0.728295
0.79323
0.788687
0.723478
0.621911
0.467635
0.112315
0.130894
0.219547
0.280904
0.319059
0.347001
0.372196
0.395833
0.415441
0.435406
0.450517
0.462569
0.469266
0.47392
0.478612
0.485299
0.495901
0.515678
0.548671
0.590534
0.638693
0.683387
0.7169
0.744486
0.786593
0.863016
0.854989
0.788484
0.678376
0.532833
0.123618
0.127111
0.210075
0.268668
0.304746
0.330427
0.35258
0.372379
0.390355
0.405905
0.42148
0.434102
0.442344
0.45014
0.459357
0.47272
0.494508
0.527646
0.571975
0.621869
0.676395
0.725555
0.760185
0.788162
0.832531
0.916491
0.918286
0.853279
0.735845
0.596238
0.136254
0.123961
0.20199
0.259095
0.294147
0.318704
0.338963
0.356582
0.372551
0.385536
0.39775
0.410408
0.419609
0.429499
0.442252
0.461056
0.492194
0.535969
0.588122
0.643009
0.698286
0.74602
0.781513
0.812326
0.859676
0.948425
0.966509
0.909293
0.7929
0.652044
0.148469
0.121122
0.194752
0.250234
0.284419
0.308147
0.32707
0.343092
0.35717
0.368702
0.379111
0.389512
0.399141
0.411133
0.427364
0.451364
0.490328
0.541137
0.599117
0.656054
0.710062
0.754564
0.789087
0.821746
0.872724
0.96739
1.00332
0.955001
0.845717
0.706058
0.162716
0.118463
0.18844
0.242643
0.276375
0.299766
0.318254
0.333401
0.34617
0.356382
0.364947
0.37403
0.383684
0.396699
0.415582
0.444728
0.489925
0.545701
0.608319
0.667017
0.721682
0.764025
0.798501
0.830091
0.883203
0.982687
1.03456
0.995868
0.89881
0.757425
0.176913
0.116118
0.183011
0.23554
0.268632
0.291599
0.309971
0.324582
0.336877
0.346397
0.354146
0.3621
0.371989
0.386795
0.408951
0.442886
0.494205
0.554855
0.622118
0.682992
0.738822
0.782454
0.816385
0.848125
0.900836
0.99948
1.06599
1.03753
0.952547
0.80384
0.1906
0.114506
0.178984
0.230389
0.262945
0.285464
0.305312
0.318131
0.32961
0.338863
0.346175
0.353754
0.363403
0.379393
0.407349
0.447615
0.504113
0.570901
0.640931
0.707215
0.76331
0.806417
0.83957
0.872054
0.92319
1.01976
1.08493
1.07134
1.00876
0.851587
0.200992
0.113192
0.17517
0.225936
0.258207
0.280747
0.299303
0.31486
0.325727
0.33319
0.340171
0.347947
0.358482
0.376376
0.40887
0.457771
0.520499
0.592954
0.66771
0.735994
0.789846
0.831041
0.862068
0.893969
0.943755
1.03715
1.10123
1.09145
1.04685
0.900795
0.209976
0.112157
0.171942
0.222563
0.255215
0.278291
0.295531
0.310781
0.32225
0.330503
0.337035
0.344896
0.356825
0.377635
0.41412
0.470573
0.54228
0.620821
0.69737
0.764499
0.81527
0.852243
0.879728
0.911014
0.961574
1.05579
1.11691
1.11116
1.07017
0.93208
0.216508
0.111834
0.17001
0.220036
0.252914
0.276309
0.293759
0.308627
0.318707
0.327477
0.335313
0.344079
0.358054
0.381971
0.423437
0.488527
0.569252
0.650855
0.72748
0.792534
0.839237
0.870842
0.893969
0.924068
0.973052
1.06894
1.13004
1.1326
1.09125
0.952392
0.222185
0.111711
0.168643
0.218383
0.251536
0.275124
0.292681
0.306589
0.316196
0.325828
0.334967
0.345878
0.362035
0.390763
0.439056
0.512705
0.600537
0.683934
0.760027
0.820514
0.860432
0.884325
0.903844
0.930412
0.975406
1.07179
1.13648
1.14515
1.11441
0.969712
0.225902
0.112448
0.168526
0.217599
0.250952
0.27471
0.291776
0.303721
0.314725
0.324668
0.335609
0.349084
0.368606
0.404016
0.461871
0.544004
0.637384
0.72207
0.794575
0.847841
0.879898
0.896292
0.90984
0.930187
0.971523
1.06541
1.13369
1.14704
1.13123
0.985953
0.228059
0.112603
0.167356
0.217125
0.250591
0.273526
0.289041
0.300581
0.312688
0.322899
0.336464
0.353184
0.378161
0.422413
0.492532
0.583853
0.680541
0.763538
0.830176
0.87425
0.897285
0.905991
0.913607
0.926192
0.963585
1.05171
1.12286
1.14022
1.13089
0.994769
0.228849
0.112478
0.166112
0.215922
0.248905
0.271065
0.286524
0.298691
0.309351
0.318715
0.336455
0.358614
0.391643
0.447707
0.531578
0.631036
0.72967
0.807812
0.864734
0.898472
0.912256
0.913773
0.914943
0.921609
0.95236
1.03177
1.10558
1.12377
1.12041
0.992842
0.228607
0.112562
0.165069
0.213921
0.246618
0.269018
0.284065
0.296003
0.306527
0.317533
0.335824
0.364809
0.410366
0.480927
0.578932
0.685342
0.781693
0.851609
0.896803
0.9197
0.924618
0.919996
0.915107
0.913957
0.94042
1.00755
1.08129
1.09755
1.0984
0.97952
0.226015
0.11294
0.164252
0.213066
0.246049
0.266772
0.281594
0.294403
0.304734
0.317182
0.336011
0.369862
0.429001
0.519995
0.632558
0.744366
0.834955
0.89387
0.926285
0.938133
0.934931
0.925457
0.914015
0.90505
0.926433
0.979084
1.04988
1.0622
1.06733
0.962964
0.222343
0.113253
0.163595
0.212545
0.245079
0.265385
0.280114
0.293486
0.304826
0.318662
0.338278
0.378972
0.454003
0.564071
0.688075
0.8017
0.885913
0.932742
0.951881
0.951081
0.942062
0.929766
0.910102
0.896471
0.908016
0.950516
1.0114
1.01578
1.01836
0.915879
0.216497
0.113592
0.163407
0.211576
0.244032
0.264465
0.279826
0.293068
0.305166
0.321
0.345648
0.397145
0.487438
0.61013
0.735659
0.844497
0.921238
0.960682
0.968414
0.959377
0.945728
0.928808
0.905376
0.889146
0.892059
0.920904
0.967707
0.962572
0.961832
0.87672
0.211274
0.113957
0.16329
0.210404
0.242537
0.263366
0.279076
0.292308
0.306271
0.325342
0.359584
0.425976
0.53347
0.663756
0.780672
0.874093
0.938753
0.968659
0.971672
0.960699
0.946596
0.925633
0.90105
0.883298
0.878479
0.893977
0.918422
0.903831
0.881798
0.804321
0.198602
0.114195
0.162968
0.209224
0.240624
0.261635
0.277744
0.291613
0.308676
0.333966
0.381152
0.466847
0.591256
0.725017
0.82668
0.902608
0.948877
0.959618
0.962555
0.957427
0.945002
0.921251
0.897766
0.877597
0.865723
0.868231
0.870766
0.84137
0.794201
0.72122
0.192566
0.114399
0.162326
0.2082
0.239135
0.260047
0.276648
0.292024
0.313463
0.347648
0.412762
0.520738
0.65811
0.788929
0.871487
0.931857
0.958717
0.951758
0.951631
0.94969
0.940452
0.919691
0.895776
0.872015
0.852844
0.84302
0.824736
0.764932
0.668021
0.545442
0.166088
0.522034
0.52423
0.516606
0.506635
0.496927
0.48692
0.47999
0.472647
0.47035
0.472594
0.475839
0.479931
0.484068
0.487216
0.488602
0.487881
0.485419
0.481684
0.477282
0.472845
0.468559
0.465337
0.463721
0.462022
0.461047
0.460981
0.461668
0.463199
0.465433
0.46811
0.470995
0.47398
0.476839
0.479444
0.481647
0.483385
0.484481
0.485007
0.484929
0.484176
0.482622
0.480057
0.476994
0.473293
0.468942
0.464005
0.458573
0.452717
0.446477
0.439808
0.432684
0.425103
0.417976
0.410749
0.403227
0.395489
0.38711
0.378027
0.36831
0.357871
0.346646
0.334526
0.321611
0.308018
0.293954
0.279619
0.26511
0.250537
0.236037
0.221802
0.208085
0.195206
0.183362
0.172492
0.162547
0.153621
0.145769
0.138946
0.132995
0.127822
0.123278
0.119296
0.115747
0.112563
0.109741
0.107251
0.105061
0.103165
0.101472
0.100029
0.0987848
0.0977825
0.0970058
0.0963879
0.095914
0.0954544
0.094981
0.0944895
0.0942055
0.0939465
0.0939649
0.094453
0.0950743
0.095772
0.0965846
0.097563
0.0988637
0.100508
0.102086
0.103552
0.105474
0.107966
0.109806
0.111634
0.113378
0.116027
0.117055
0.117419
0.117559
0.117667
0.117557
0.116799
0.115198
0.114607
0.114554
4.43985
4.46022
4.39942
4.33561
4.27227
4.22907
4.2101
4.19924
4.2254
4.27337
4.32221
4.36369
4.39303
4.40789
4.4065
4.38936
4.36097
4.32715
4.2939
4.26611
4.24735
4.2405
4.24167
4.24733
4.26033
4.28082
4.30494
4.33229
4.36193
4.39157
4.41992
4.4458
4.46819
4.4863
4.4997
4.50802
4.51096
4.50842
4.50056
4.48742
4.46839
4.44445
4.41545
4.38133
4.34241
4.2993
4.25245
4.2019
4.14765
4.08944
4.0267
3.95804
3.87746
3.78979
3.69776
3.60198
3.50331
3.40195
3.29659
3.18988
3.07966
2.96398
2.8419
2.71326
2.57884
2.43907
2.29538
2.15014
2.00311
1.8546
1.70557
1.55803
1.41377
1.27453
1.14209
1.0182
0.904333
0.801263
0.709252
0.628158
0.557293
0.495873
0.44313
0.398271
0.360385
0.328484
0.301658
0.279146
0.260185
0.244327
0.230843
0.21945
0.209474
0.200729
0.192987
0.186075
0.179827
0.174211
0.169249
0.164824
0.161285
0.158931
0.157272
0.155893
0.154879
0.154087
0.154035
0.154876
0.155869
0.157155
0.15875
0.159782
0.160372
0.160964
0.162706
0.166075
0.166513
0.166248
0.166056
0.165984
0.165614
0.164109
0.161339
0.160719
0.161405
6.65643
6.78064
6.79803
6.77453
6.73685
6.70235
6.68537
6.67188
6.68131
6.70518
6.73238
6.758
6.7786
6.7907
6.792
6.7828
6.76639
6.74749
6.72996
6.71704
6.71076
6.71201
6.72092
6.73504
6.75277
6.77376
6.7966
6.82101
6.84395
6.86439
6.88102
6.89285
6.89899
6.89892
6.8924
6.87926
6.8602
6.83404
6.80061
6.75959
6.71037
6.65314
6.58815
6.51572
6.4366
6.3513
6.26052
6.16446
6.06324
5.95701
5.84593
5.73013
5.60943
5.48384
5.35369
5.21845
5.07808
4.93242
4.78149
4.62125
4.45379
4.28084
4.10323
3.92204
3.74428
3.5676
3.39139
3.21387
3.03613
2.85938
2.68453
2.51492
2.35173
2.19557
2.04662
1.90449
1.76678
1.63178
1.49914
1.36946
1.24414
1.12461
1.0123
0.908805
0.814781
0.730259
0.655172
0.589291
0.532081
0.482746
0.440277
0.404111
0.373444
0.34755
0.325633
0.306811
0.290445
0.276584
0.264611
0.25418
0.245373
0.238287
0.232314
0.227339
0.223642
0.220728
0.219162
0.218268
0.21769
0.217913
0.218468
0.218364
0.217783
0.217386
0.218764
0.221731
0.220461
0.219096
0.217341
0.215694
0.213751
0.210215
0.207378
0.20663
0.207218
7.8888
8.15509
8.24279
8.26277
8.26012
8.25166
8.24949
8.25622
8.26538
8.27781
8.28998
8.30195
8.31184
8.31721
8.31687
8.31148
8.30357
8.29569
8.29065
8.29004
8.29434
8.30312
8.31552
8.33021
8.34594
8.36137
8.37589
8.38736
8.39416
8.39565
8.39142
8.38114
8.3645
8.34132
8.31158
8.27517
8.23183
8.18124
8.12318
8.05751
7.98418
7.90361
7.81603
7.72183
7.62119
7.51453
7.4034
7.28944
7.17206
7.05155
6.92772
6.80027
6.66875
6.53234
6.39111
6.24467
6.09281
5.93528
5.77214
5.60347
5.42987
5.25152
5.06893
4.88263
4.68655
4.4849
4.28018
4.07903
3.88568
3.69746
3.51383
3.33226
3.15234
2.97479
2.80105
2.63167
2.46967
2.31522
2.16819
2.02861
1.89581
1.76994
1.65117
1.53852
1.43098
1.32752
1.22788
1.13244
1.04214
0.956454
0.875816
0.801364
0.733381
0.671977
0.617257
0.568472
0.525172
0.487759
0.454075
0.42391
0.397559
0.374391
0.354191
0.33688
0.321962
0.309718