/*--------------------------------*- C++ -*----------------------------------*\
| =========                 |                                                 |
| \\      /  F ield         | OpenFOAM: The Open Source CFD Toolbox           |
|  \\    /   O peration     | Version:  2112                                  |
|   \\  /    A nd           | Website:  www.openfoam.com                      |
|    \\/     M anipulation  |                                                 |
\*---------------------------------------------------------------------------*/
FoamFile
{
    version     2.0;
    format      ascii;
    arch        "LSB;label=32;scalar=64";
    class       volScalarField;
    location    "0.00144";
    object      k;
}
// * * * * * * * * * * * * * * * * * * * * * * * * * * * * * * * * * * * * * //

dimensions      [0 2 -2 0 0 0 0];

internalField   nonuniform List<scalar> 
13875
(
812.077
3462.93
3539.93
3539.54
3542.57
3540.39
3540.34
3541.01
3541.75
3543.24
3541.1
3538.23
3540.97
3542.16
3540.74
3540.05
3542.13
3542
3541.01
3540.29
3542.8
3539.17
3539.8
3461.14
820.34
881.699
2937.24
3013.04
3001.21
3001.14
2997.54
2996.67
2996.75
2995.65
2999.09
2998.15
2995.89
2997.6
2998.97
2996.74
2997.29
2999.23
2998.68
2997.69
2997.65
3000.69
2999.48
3011.49
2934.09
894.343
993.364
2711.72
2777.83
2756
2756.99
2754.1
2752.67
2751.35
2742.8
2745.46
2746.48
2752.04
2753.65
2755.08
2751.48
2745.68
2746.35
2746.98
2752.97
2754.32
2756.83
2753.3
2774.46
2706.76
998.256
1091.18
2534.49
2581.38
2562.1
2564.86
2562.29
2560.57
2559.16
2550.27
2550.26
2551.8
2559.29
2560.98
2562.37
2558.2
2551.31
2551.21
2552.45
2560.77
2562.06
2564.48
2559.56
2579.15
2529.69
1093.91
1172.45
2381.26
2413.67
2393.36
2396.01
2393.72
2391.96
2390.34
2381.96
2380.81
2382.26
2389.92
2392.02
2393.18
2388.49
2382.03
2381.79
2383.53
2391.77
2393.34
2395.62
2391.24
2410.57
2375.73
1177.55
1241.76
2238.57
2271.79
2245.51
2249.09
2246.21
2243.86
2241.63
2233.73
2231.19
2232.58
2240.52
2243.42
2244.03
2238.58
2232.46
2232.09
2234.95
2243.37
2245.95
2248.78
2244
2268.05
2247.76
1247.52
1322.26
2124.14
2159.76
2121.41
2121.45
2116.86
2113.29
2110.2
2102.72
2098.73
2100.2
2108.2
2112.12
2111.95
2105.93
2100.07
2099.69
2104.14
2112.67
2116.58
2120.94
2120.2
2154.55
2096.43
1323.91
1414.87
2006.29
2077.21
2022.34
2016.21
2007.12
2000.56
1995.73
1988.33
1982.7
1983.64
1991.64
1996.74
1996.14
1989.35
1983.48
1983.2
1990.06
1999.28
2006.17
2014.61
2019.92
2069.16
1993.48
1421.29
1699.45
2036.96
2028.42
1950.41
1928.97
1914.9
1905.05
1898.06
1890.33
1883.62
1883.21
1891.34
1897.79
1896.88
1889.17
1882.95
1883.31
1892.61
1902.87
1913.19
1926.81
1945.01
2020.09
2035.8
1719.56
2546.23
2321.21
2037
1911.62
1874.5
1849
1834.64
1824.85
1816.32
1809.65
1808.11
1815.43
1823.24
1822.14
1813.91
1807.72
1808.67
1818.64
1830
1844.61
1868.57
1900.65
2017.29
2273.36
2533
3932.17
3048.96
2154.6
1958.41
1857.77
1815.63
1795.31
1781.49
1772.07
1765.94
1763.5
1768.91
1777.72
1776.68
1768.61
1763.54
1765.28
1774.57
1788.13
1807.19
1845.79
1932.17
2150.87
2959.08
3878.33
5149.78
6147.87
3268.89
2140.78
1945.21
1845.97
1801.88
1781.37
1769.11
1762.38
1759.33
1761.53
1770.2
1769.35
1762.37
1760.29
1763.42
1773.86
1792.02
1830.65
1908.56
2029.35
2894.71
6344.68
5135.44
5034.49
6444.35
8507.63
5016.99
2326.44
1986.52
1917.22
1885.44
1871.2
1868.57
1860.64
1865.29
1868.87
1869.42
1863.57
1865.31
1870.34
1881.99
1905.49
1970.07
2260.17
3687.55
7257.24
7130
5027.52
4772.56
5608.13
7473.81
10648.4
6138.21
3051.8
2777.5
2523.86
2479.5
2387.35
2455.35
2344.93
2478.77
2379.05
2402.6
2396.66
2425.66
2479.43
2677.41
3024.51
6218.92
8945.31
7219.86
6093.72
4877.65
4565.99
5075.45
6332.56
8336.68
7356.36
5958.98
6443.51
6076.87
6116.78
5818.67
6374.57
5769.17
6564.7
6100.89
6079.27
5949.17
5877.35
5937.48
6546.4
6106.33
7241.65
7495.4
6283.54
5429.4
4813.23
4376.79
4780.93
6018.53
7463.99
7435.3
9321.47
9033.76
6744.84
6238.5
6452.94
6267.99
6450.3
6405.2
6584.6
6324.3
6457.77
6308.3
6460.43
7596.81
9968.85
8135.28
7108.46
5893.05
5011.78
4649.49
4156.31
4729.55
5978.84
7184.67
7183.83
9398.68
7698.9
5430.96
5045.04
5021.18
5015.93
5013.57
5109.95
5119.18
4975.23
5071.73
5057.62
5192.44
6333.31
9662.99
8056.33
7171.15
6069.7
4876.03
4305.22
3674.71
4901.31
5832.22
6160.64
6119.54
7932.93
6684.56
4966.33
4422.36
4269.56
4207.17
4154.18
4243.59
4222.97
4164
4300.98
4392.23
4693.43
5928.9
7793.28
6659.3
6259.48
6068.85
5139.11
3789.92
3128.93
4838.31
5405.39
5336.73
5163.83
6189.89
6073.23
5066.2
4293.49
3881.07
3687.48
3572.62
3622.76
3603.62
3611.5
3812.24
4118.17
4734.32
5720.02
6228.55
5460.23
5453.95
5576.48
5147.28
3274.66
2893.38
4564.12
4745.1
4671.11
4523.85
5129.53
5438.76
4991.89
4252.53
3675.52
3345.87
3166.82
3180.03
3179.2
3277.14
3594.73
4098.03
4787.74
5315.18
5218.15
4721.57
4763.54
4851.55
4663.27
3025.01
3209.51
3934.15
4112.38
4116.61
4026.47
4478.41
4885.58
4683.7
4044.61
3437.49
3041.51
2819.9
2808.58
2831.87
2997.39
3390.29
3955.76
4568.78
4851.62
4589.98
4192.54
4209.87
4187.27
3962.4
3355.84
4031.58
3892.4
3714.72
3721.41
3650.71
4012.4
4392.73
4296.83
3764.21
3183.06
2764.14
2520.58
2489.69
2528.92
2731.4
3149.84
3696.43
4209.09
4390.6
4137.11
3801.32
3805.33
3755.09
3935.65
4102.92
4682.31
4286.13
3454.44
3384.17
3335.6
3629.12
3961.73
3906.9
3443.76
2907.07
2501.81
2259.28
2216.05
2259.58
2463.89
2867.02
3377.77
3821.48
3957.06
3744.57
3467.92
3459.37
3471.56
4319.27
4701.57
4839.9
4331.88
3209.28
3094.76
3050.52
3278.98
3570.85
3538.12
3113.44
2624.49
2249.93
2023.92
1981.63
2026.97
2225.07
2602.71
3070.48
3464.38
3567.41
3374.4
3172.12
3182.18
3237.31
4316.71
4820.67
4914.16
4247.3
2993.75
2861.06
2811.56
2983.46
3230.82
3199.29
2811.09
2370.6
2030.08
1824.28
1783.22
1828.1
2012.07
2359.38
2788.3
3139.7
3222.33
3059.12
2915.12
2948.64
3035.67
4270.66
4912.03
4988.32
4183.92
2837.23
2672.13
2608.52
2735.16
2932.34
2891.17
2543.95
2148.16
1838.5
1653.41
1613.94
1655.81
1822.44
2137.76
2524.22
2835.46
2915.14
2790.49
2690.16
2751.56
2879.23
4153.02
4978.4
5059.53
4147.15
2707.08
2517.27
2439.47
2525.69
2665.89
2602.17
2288.11
1942.07
1668.89
1505.83
1468.66
1509.33
1663.79
1947.05
2293.47
2573.62
2655.85
2570.33
2508.24
2590.92
2754.21
4143.71
5068.58
5162.94
4129.47
2606.65
2384.66
2300.81
2349.28
2436.21
2354.52
2074.29
1767.85
1523.4
1379.12
1345.01
1383.02
1521.65
1774.5
2083.99
2336.21
2426.45
2384.05
2356.79
2449.87
2645.13
4117.72
5181.21
5357.07
4068.02
2517.71
2259.93
2179.66
2200.11
2238.5
2139.41
1883.62
1614.58
1399.4
1269.99
1236.78
1273.37
1397.46
1619.03
1892.35
2124.26
2226.3
2226.19
2225.35
2314.69
2550.35
4014.2
5288.97
5445.45
3967.87
2439.79
2147.23
2063.2
2064.27
2057.05
1940.81
1711.16
1474.87
1285.08
1173.54
1144.04
1179.26
1291.85
1489.64
1735.31
1949.4
2058.89
2088.91
2103.9
2199.04
2473.9
3960.32
5482.24
5427.67
3877.32
2386.88
2056.42
1955.15
1940.08
1904.37
1778.39
1565.59
1356.62
1190.28
1090.73
1062.17
1095.85
1197.03
1370.51
1588.54
1789.7
1909.29
1961.97
1989.03
2102.29
2408.81
3874.14
5491.04
5408.49
3809.78
2342.87
1991.93
1855.54
1824.83
1769.9
1637.02
1443.83
1256.09
1106.36
1018
991.512
1023.1
1113.09
1266.58
1462.64
1650.13
1777.01
1844.08
1886.18
2030.06
2357.34
3794.4
5420.99
5343.92
3694.12
2325.19
1940.43
1769.13
1716.2
1646.66
1511.01
1331.8
1163.8
1032.26
953.995
928.556
959.28
1041.24
1178.35
1354.77
1530.82
1660.82
1737.85
1797.67
1972.59
2330.72
3739.57
5406.56
5338.31
3590.55
2316.42
1910.96
1699.02
1621.74
1537.99
1403.51
1238.83
1087.54
967.865
897.502
873.472
902.804
975.831
1098.33
1257.14
1421.33
1550.8
1640.66
1724.72
1935.7
2342.45
3650.41
5369.76
5339.79
3514.72
2269.37
1895.24
1646.67
1537.27
1441.54
1311.48
1158.13
1019.99
912.288
848.128
824.483
852.395
918.588
1028.51
1172.24
1325.43
1453.63
1554.67
1671.44
1923.3
2327.74
3550.2
5343.3
5279.04
3388.47
2195.79
1882.72
1608.73
1466.04
1355.28
1225.67
1084.52
959.653
861.43
803.689
781.141
808.206
868.926
969.127
1099.56
1241.78
1368.65
1482.31
1631.36
1921.41
2264.52
3476.26
5315.22
5242.32
3279.16
2127.66
1900.3
1585.24
1411.06
1282.51
1153.94
1022.08
906.872
816.858
764.427
742.429
768.01
822.991
914.049
1033
1165.93
1292.43
1425.9
1606.23
1940.72
2185.15
3366.31
5270.81
5233.78
3184.47
2056.65
1894.84
1581.26
1369.55
1223.8
1091.75
966.001
859.822
777.591
729.137
707.663
731.812
782.386
864.892
974.359
1101.43
1232.31
1384.18
1605.1
1942
2102.75
3269.17
5266.97
5195.06
3080.33
1961.25
1840.74
1584.53
1338.46
1176.78
1037.91
915.562
816.569
740.808
696.956
676.35
699.679
745.886
822.544
924.732
1048.53
1186.81
1353.59
1615.73
1895.74
2018.12
3208.27
5269.56
5180
3001.1
1867.51
1781.64
1623.57
1324.29
1142.47
995.879
873.221
779.221
708.783
667.727
647.526
670.014
712.858
783.728
880.993
1006.2
1151.06
1334.86
1657.42
1835.81
1917.7
3140.08
5239.84
5170.71
2952.84
1792.13
1714.35
1630.9
1330.11
1116.26
964.04
838.573
746.514
679.653
641.221
621.787
643.06
683.096
750.291
845.294
974.3
1126.08
1343.23
1674.01
1767.78
1836.09
3087.73
5217.39
5137.58
2892.74
1712.75
1638.28
1587.3
1360.26
1100.6
938.284
810.814
718.585
653.36
616.949
597.977
618.877
657.352
723.241
818.225
949.463
1116.9
1383.85
1634.07
1693.59
1782.86
3057.17
5202.09
5117.9
2850.3
1656.31
1562.99
1529.77
1397.68
1110.65
921.116
792.022
696.271
631.834
595.597
576.827
597.238
635.463
701.814
798.672
931.188
1131.16
1437.26
1577.47
1617.46
1714.7
3008.73
5165.71
5105.88
2832.49
1628.38
1497.74
1466.59
1385.64
1152.39
916.626
775.31
679.547
613.947
577.757
558.881
579.23
617.909
685.794
782.856
927.586
1195.14
1447.21
1515.92
1550.84
1671.43
2969.86
5141.67
5100.19
2781
1589.22
1438.58
1399.19
1343.53
1225.48
935.096
763.565
666.007
600.141
563.836
543.523
565.275
605.064
673.415
774.345
964.489
1267.42
1400
1449.96
1493.73
1653.52
2946.02
5121.76
5090.54
2752.48
1574.19
1389.72
1338.29
1299.69
1249.79
1016.1
764.47
656.398
590.396
553.25
531.672
554.477
595.398
664.16
777.695
1047.89
1277.22
1348.94
1387.27
1441.12
1628.45
2903.37
5109.79
5075.75
2741.18
1567.87
1351.24
1288.09
1252.01
1213.14
1085.61
809.245
651.012
581.742
544.996
523.693
546.221
587.376
659.861
826.686
1125.08
1241.9
1294.99
1334.44
1399.02
1613.48
2873.25
5091.04
5008.52
2696.85
1544.56
1314.93
1243.55
1204.64
1173.43
1091.97
891.858
664.658
575.505
536.987
516.435
538.805
583.106
681.555
928.933
1136.91
1204.57
1245.24
1288.66
1366.46
1613.08
2853.1
5014.82
4886.22
2644.32
1524.96
1283.99
1206.31
1163.97
1130.79
1067.15
960.096
718.476
578.741
531.881
511.201
533.933
589.4
746.969
1000.9
1110.61
1164.23
1202.76
1248.96
1334.8
1593.93
2793.12
4884.31
4518.74
2529.52
1500.16
1253.41
1172.31
1126.91
1089.32
1038.91
966.642
808.665
611.578
534.658
510.309
537.243
631.818
841.264
1002.18
1081.73
1124.86
1165.29
1213.74
1301.97
1563.71
2663.81
4511.65
742.098
829.148
845.374
846.447
846.074
845.844
846.209
846.252
845.925
845.126
844.071
842.958
841.882
840.851
839.854
838.88
837.924
836.98
836.047
835.124
834.21
833.306
832.413
831.528
830.651
829.785
828.866
827.347
817.366
719.784
556.766
729.676
756.195
758.308
758.147
758.125
758.631
758.615
758.223
757.396
756.402
755.446
754.604
753.856
753.17
752.522
751.901
751.299
750.712
750.14
749.58
749.035
748.502
747.981
747.469
746.974
746.35
744.477
726.738
578.984
524.069
704.706
728.756
730.586
730.412
730.628
731.217
731.277
730.972
730.285
729.526
728.888
728.414
728.06
727.775
727.53
727.306
727.097
726.896
726.702
726.516
726.336
726.164
725.997
725.833
725.678
725.387
723.57
704.389
550.97
522.692
698.67
721.584
723.28
723.143
723.573
724.259
724.416
724.192
723.577
722.923
722.422
722.103
721.912
721.794
721.713
721.651
721.597
721.548
721.5
721.455
721.414
721.375
721.337
721.3
721.264
721.095
719.296
699.852
545.092
522.984
696.685
719.855
721.598
721.502
722.102
722.919
723.089
722.893
722.27
721.629
721.153
720.869
720.719
720.644
720.606
720.586
720.573
720.562
720.552
720.543
720.535
720.529
720.523
720.516
720.506
720.366
718.531
698.841
542.67
522.934
696.098
719.429
721.168
721.144
721.839
722.784
722.937
722.727
722.072
721.423
720.944
720.664
720.522
720.456
720.428
720.416
720.411
720.408
720.405
720.403
720.402
720.402
720.402
720.401
720.395
720.259
718.368
698.373
540.749
523.109
696.065
719.294
720.991
721.075
721.933
722.865
722.959
722.725
722.037
721.388
720.911
720.633
720.493
720.429
720.402
720.392
720.389
720.387
720.385
720.384
720.384
720.386
720.387
720.387
720.381
720.243
718.294
697.977
538.961
523.765
696.029
719.26
720.909
721.084
722.143
722.964
722.965
722.718
722.017
721.374
720.901
720.627
720.488
720.424
720.398
720.389
720.386
720.385
720.383
720.382
720.382
720.384
720.385
720.386
720.379
720.238
718.235
697.608
537.295
524.543
696.035
719.352
720.98
721.177
722.341
723.031
722.97
722.704
721.984
721.355
720.892
720.622
720.485
720.422
720.397
720.388
720.385
720.384
720.383
720.382
720.382
720.383
720.385
720.386
720.379
720.235
718.183
697.267
535.765
525.177
696.151
719.739
721.375
721.75
722.721
723.157
722.989
722.673
721.929
721.325
720.876
720.613
720.48
720.419
720.395
720.388
720.385
720.385
720.384
720.383
720.382
720.383
720.385
720.386
720.379
720.231
718.136
696.952
534.373
525.789
696.777
720.949
722.868
723.326
723.747
723.588
723.095
722.622
721.855
721.277
720.85
720.599
720.471
720.415
720.394
720.387
720.385
720.385
720.384
720.383
720.382
720.383
720.384
720.386
720.378
720.228
718.092
696.661
533.104
526.841
698.931
724.674
728.233
728.363
727.169
725.176
723.644
722.727
721.8
721.224
720.814
720.58
720.463
720.413
720.393
720.387
720.385
720.385
720.384
720.384
720.383
720.383
720.384
720.385
720.378
720.224
718.051
696.389
531.945
529.34
705.938
737.16
748.567
750.785
743.855
732.59
726.013
723.38
721.929
721.201
720.783
720.564
720.457
720.41
720.393
720.387
720.385
720.385
720.385
720.384
720.384
720.383
720.384
720.385
720.377
720.22
718.012
696.138
530.886
536.613
727.673
774.464
816.318
839.648
826.352
780.648
740.494
726.531
722.616
721.35
720.791
720.554
720.451
720.408
720.392
720.387
720.385
720.385
720.385
720.385
720.384
720.384
720.383
720.385
720.377
720.218
717.976
695.906
529.913
555.471
781.571
854.185
929.234
1007.57
1058.47
1008.63
843.903
748.785
726.091
722.015
720.917
720.571
720.449
720.406
720.391
720.387
720.385
720.385
720.385
720.385
720.385
720.384
720.384
720.384
720.376
720.213
717.944
695.698
529.037
592.792
827.337
900.593
996.108
1105.17
1204.9
1288.9
1234.66
908.024
751.041
725.153
721.466
720.663
720.462
720.406
720.391
720.386
720.385
720.385
720.385
720.385
720.385
720.385
720.384
720.383
720.377
720.209
717.915
695.512
528.248
603.023
842.401
938.823
1050.15
1182.21
1293.74
1405.55
1498.27
1412.85
928.262
745.593
723.79
721.049
720.52
720.414
720.391
720.386
720.385
720.385
720.385
720.385
720.385
720.385
720.385
720.383
720.375
720.207
717.885
695.339
527.535
604.108
863.13
979.2
1095.06
1226.35
1347.6
1470.72
1586.52
1679.4
1480.65
887.741
736.565
722.503
720.752
720.445
720.395
720.387
720.385
720.385
720.385
720.385
720.385
720.385
720.385
720.384
720.373
720.203
717.861
695.189
526.905
594.853
900.005
1021.54
1135.51
1249.63
1361.79
1487.04
1618.41
1742.47
1813.38
1404.27
821.618
729.05
721.542
720.564
720.409
720.388
720.385
720.385
720.385
720.385
720.385
720.385
720.385
720.385
720.375
720.2
717.84
695.059
526.354
596.648
939.131
1072.71
1176.97
1265.63
1353.87
1466.72
1595.83
1738.75
1878.8
1849.92
1182.35
766.895
724.488
720.945
720.462
720.394
720.386
720.385
720.385
720.385
720.385
720.385
720.385
720.385
720.375
720.2
717.824
694.949
525.876
580.448
1011.27
1110.11
1220.85
1325.05
1351.57
1447.34
1540.94
1685.73
1844.76
1977.92
1765.81
943.25
737.897
722.14
720.626
720.414
720.388
720.385
720.385
720.385
720.385
720.385
720.386
720.385
720.375
720.199
717.81
694.857
525.469
604.661
1088.67
1275.44
1389.44
1506.27
1422.56
1452.65
1504.16
1607.04
1759.63
1947.18
1999.63
1423.78
802.506
726.396
721.067
720.474
720.394
720.386
720.385
720.385
720.385
720.385
720.386
720.385
720.375
720.198
717.799
694.781
525.129
788.538
1274.6
1517.18
1803.51
2052.99
1814.32
1575.45
1519.67
1545.45
1653.31
1840.01
1997.2
1876.36
1020.41
743.397
722.321
720.623
720.412
720.387
720.385
720.385
720.385
720.385
720.386
720.385
720.375
720.197
717.79
694.721
524.852
933.68
1871.1
2431.26
2995.82
3513.34
3021.82
1908.51
1632.93
1539.17
1582.53
1723.33
1902.03
1988.27
1445.56
805.176
726.154
720.983
720.458
720.392
720.386
720.385
720.385
720.386
720.386
720.385
720.375
720.197
717.784
694.677
524.636
1965.45
4839.59
5308.3
6673.62
5843.49
4617.65
2559.34
1899.72
1641.64
1586.15
1652.51
1807.61
1946.2
1788.81
953.572
738.007
721.838
720.553
720.403
720.386
720.385
720.385
720.386
720.386
720.385
720.375
720.197
717.78
694.645
524.478
719.784
817.368
827.35
828.87
829.79
830.657
831.536
832.422
833.316
834.221
835.137
836.061
836.996
837.941
838.899
839.874
840.873
841.905
842.982
844.098
845.154
845.955
846.283
846.241
845.878
846.11
846.485
845.414
829.19
742.161
578.983
726.738
744.477
746.35
746.974
747.469
747.981
748.502
749.035
749.58
750.14
750.713
751.299
751.901
752.522
753.17
753.856
754.604
755.446
756.402
757.396
758.223
758.615
758.63
758.124
758.147
758.308
756.195
729.675
556.778
550.968
704.389
723.57
725.387
725.678
725.834
725.997
726.164
726.337
726.516
726.703
726.897
727.097
727.307
727.531
727.776
728.061
728.416
728.889
729.527
730.287
730.974
731.279
731.218
730.63
730.414
730.589
728.759
704.713
524.053
545.09
699.852
719.296
721.095
721.264
721.3
721.337
721.375
721.414
721.456
721.5
721.548
721.597
721.651
721.713
721.794
721.912
722.103
722.422
722.924
723.577
724.192
724.415
724.258
723.572
723.143
723.28
721.586
698.68
522.736
542.67
698.841
718.531
720.366
720.506
720.516
720.523
720.529
720.535
720.543
720.552
720.562
720.573
720.586
720.606
720.644
720.719
720.869
721.153
721.629
722.269
722.892
723.089
722.918
722.101
721.501
721.597
719.853
696.673
523.006
540.748
698.372
718.368
720.259
720.395
720.401
720.402
720.402
720.402
720.403
720.405
720.408
720.411
720.416
720.428
720.456
720.522
720.664
720.944
721.422
722.072
722.727
722.936
722.784
721.839
721.143
721.168
719.43
696.104
522.889
538.962
697.978
718.294
720.243
720.381
720.387
720.387
720.386
720.384
720.384
720.385
720.387
720.389
720.392
720.402
720.429
720.493
720.633
720.911
721.388
722.037
722.724
722.958
722.865
721.933
721.074
720.991
719.295
696.066
523.175
537.296
697.608
718.235
720.238
720.379
720.386
720.385
720.384
720.382
720.382
720.383
720.385
720.386
720.389
720.398
720.424
720.488
720.627
720.901
721.374
722.017
722.718
722.965
722.963
722.143
721.083
720.908
719.258
696.023
523.736
535.766
697.267
718.183
720.235
720.379
720.386
720.385
720.383
720.382
720.382
720.383
720.384
720.385
720.388
720.397
720.422
720.485
720.622
720.892
721.355
721.984
722.704
722.97
723.031
722.341
721.177
720.979
719.353
696.04
524.545
534.374
696.953
718.136
720.231
720.379
720.386
720.385
720.383
720.382
720.383
720.384
720.385
720.385
720.388
720.395
720.419
720.48
720.613
720.876
721.325
721.93
722.673
722.99
723.156
722.722
721.75
721.375
719.739
696.14
525.189
533.103
696.66
718.092
720.228
720.378
720.386
720.384
720.383
720.382
720.383
720.384
720.385
720.385
720.387
720.394
720.415
720.471
720.599
720.85
721.278
721.855
722.623
723.096
723.589
723.748
723.326
722.868
720.95
696.787
525.754
531.944
696.39
718.051
720.224
720.378
720.385
720.384
720.383
720.383
720.384
720.384
720.385
720.385
720.387
720.393
720.413
720.463
720.58
720.813
721.224
721.799
722.727
723.644
725.174
727.165
728.36
728.234
724.674
698.931
526.867
530.887
696.139
718.012
720.22
720.377
720.385
720.384
720.383
720.384
720.384
720.385
720.385
720.385
720.387
720.393
720.41
720.457
720.564
720.783
721.201
721.929
723.378
726.008
732.569
743.815
750.744
748.545
737.152
705.922
529.335
529.914
695.906
717.976
720.218
720.377
720.385
720.383
720.384
720.384
720.385
720.385
720.385
720.385
720.387
720.392
720.408
720.451
720.554
720.791
721.35
722.614
726.522
740.428
780.425
826.035
839.363
816.189
774.409
727.625
536.59
529.037
695.698
717.944
720.213
720.376
720.384
720.384
720.384
720.385
720.385
720.385
720.385
720.385
720.387
720.391
720.406
720.449
720.571
720.917
722.014
726.078
748.652
843.279
1007.41
1057.43
1006.86
928.909
853.981
781.42
555.402
528.248
695.512
717.915
720.209
720.377
720.383
720.384
720.385
720.385
720.385
720.385
720.385
720.385
720.386
720.391
720.406
720.462
720.663
721.465
725.14
750.863
906.85
1232.3
1287.05
1203.52
1104.21
995.648
900.32
827.142
592.684
527.535
695.339
717.885
720.207
720.375
720.383
720.385
720.385
720.385
720.385
720.385
720.385
720.385
720.386
720.391
720.414
720.52
721.048
723.78
745.44
926.779
1409.53
1495.59
1403.51
1292.14
1181.11
1049.56
938.508
842.195
602.897
526.904
695.188
717.861
720.203
720.373
720.384
720.385
720.385
720.385
720.385
720.385
720.385
720.385
720.387
720.395
720.445
720.751
722.497
736.465
886.394
1476.24
1675.84
1583.78
1468.6
1345.84
1225.25
1094.36
978.833
862.928
604.024
526.354
695.06
717.84
720.2
720.375
720.385
720.385
720.385
720.385
720.385
720.385
720.385
720.385
720.388
720.409
720.564
721.539
729.006
820.796
1399.71
1809.18
1739.23
1615.87
1485.01
1359.82
1248.37
1134.73
1021.11
899.756
594.753
525.876
694.949
717.824
720.2
720.375
720.385
720.385
720.385
720.385
720.385
720.385
720.385
720.386
720.394
720.462
720.944
724.473
766.571
1179.18
1845.59
1875.29
1735.95
1593.57
1464.69
1351.34
1263.76
1175.94
1072.2
938.913
596.4
525.469
694.857
717.81
720.199
720.375
720.385
720.386
720.385
720.385
720.385
720.385
720.385
720.388
720.414
720.625
722.135
737.792
941.503
1760.87
1974.13
1841.94
1683.44
1538.68
1444.74
1347.55
1321.14
1219.04
1108.86
1010.42
580.894
525.129
694.781
717.799
720.198
720.375
720.385
720.386
720.385
720.385
720.385
720.385
720.386
720.394
720.474
721.066
726.376
801.994
1420.16
1996.28
1944.64
1757.46
1604.56
1500.55
1447.81
1414.85
1497.89
1384.8
1273.02
1087.46
604.397
524.852
694.721
717.79
720.197
720.375
720.385
720.386
720.385
720.385
720.385
720.385
720.387
720.412
720.623
722.319
743.32
1019.13
1873.77
1995.08
1837.83
1650.58
1541.33
1512.7
1565.24
1794.71
2032.64
1791.84
1510.54
1271.49
787.036
524.635
694.677
717.784
720.197
720.375
720.385
720.386
720.386
720.385
720.385
720.386
720.392
720.458
720.983
726.146
804.883
1443.42
1986.27
1900.07
1720.66
1578.22
1531.53
1619.23
1882.64
2964.38
3467.27
2962.05
2409.66
1860.5
933.242
524.478
694.645
717.78
720.197
720.375
720.385
720.386
720.386
720.385
720.385
720.386
720.403
720.553
721.839
737.989
953.073
1787.13
1944.65
1805.33
1648.55
1578.96
1629.03
1875.26
2503.63
4523.1
5702.71
6465.03
5228.53
4772.77
1934.26
473.067
473.506
473.958
474.41
474.861
475.311
475.76
476.209
476.657
477.105
477.552
477.998
478.444
478.889
479.333
479.777
480.22
480.662
481.104
481.545
481.986
482.426
482.865
483.303
483.741
484.179
484.615
485.051
485.487
485.922
486.356
486.789
487.222
487.655
488.086
488.517
488.948
489.378
489.807
490.235
490.663
491.091
491.517
491.943
492.369
492.794
493.218
493.642
494.065
494.487
494.909
495.33
495.751
496.171
496.59
497.009
497.427
497.845
498.262
498.678
499.094
499.51
499.924
500.338
500.752
501.164
501.577
501.988
502.4
502.81
503.22
503.629
504.038
504.446
504.854
505.261
505.667
506.073
506.478
506.883
507.287
507.691
508.094
508.496
508.898
509.299
509.7
510.1
510.499
510.898
511.297
511.695
512.092
512.489
512.885
513.28
513.675
514.07
514.464
514.857
515.25
515.642
516.034
516.425
516.815
517.205
517.595
517.984
518.372
518.76
519.147
519.534
519.92
520.306
520.691
521.076
521.46
521.843
522.226
522.609
522.991
523.372
523.751
524.119
524.427
677.398
677.614
677.798
677.976
678.153
678.328
678.503
678.677
678.851
679.023
679.195
679.366
679.536
679.705
679.874
680.042
680.209
680.375
680.541
680.706
680.87
681.034
681.197
681.359
681.52
681.681
681.84
682
682.158
682.316
682.473
682.629
682.785
682.94
683.094
683.248
683.401
683.553
683.705
683.856
684.006
684.156
684.304
684.453
684.6
684.747
684.894
685.039
685.184
685.329
685.473
685.616
685.758
685.9
686.041
686.182
686.322
686.462
686.6
686.739
686.876
687.013
687.15
687.285
687.421
687.555
687.689
687.823
687.955
688.088
688.219
688.351
688.481
688.611
688.74
688.869
688.998
689.125
689.253
689.379
689.505
689.631
689.756
689.88
690.004
690.128
690.25
690.373
690.494
690.616
690.736
690.857
690.976
691.095
691.214
691.332
691.45
691.567
691.684
691.8
691.915
692.03
692.145
692.259
692.373
692.486
692.599
692.711
692.823
692.934
693.045
693.155
693.265
693.374
693.483
693.591
693.699
693.807
693.914
694.02
694.126
694.232
694.337
694.445
694.561
714.143
714.201
714.248
714.292
714.336
714.379
714.422
714.465
714.507
714.549
714.591
714.632
714.673
714.714
714.755
714.795
714.835
714.874
714.913
714.952
714.991
715.029
715.067
715.105
715.143
715.18
715.217
715.253
715.289
715.325
715.361
715.397
715.432
715.467
715.502
715.536
715.57
715.604
715.638
715.671
715.704
715.737
715.77
715.802
715.834
715.866
715.898
715.929
715.96
715.991
716.022
716.052
716.082
716.112
716.142
716.172
716.201
716.23
716.259
716.288
716.316
716.344
716.372
716.4
716.428
716.455
716.482
716.509
716.536
716.563
716.589
716.615
716.641
716.667
716.693
716.718
716.743
716.768
716.793
716.818
716.842
716.867
716.891
716.915
716.938
716.962
716.985
717.009
717.032
717.055
717.077
717.1
717.122
717.144
717.166
717.188
717.21
717.232
717.253
717.274
717.295
717.316
717.337
717.358
717.378
717.399
717.419
717.439
717.459
717.479
717.498
717.518
717.537
717.556
717.575
717.594
717.613
717.632
717.65
717.669
717.687
717.705
717.723
717.742
717.763
719.708
719.718
719.726
719.733
719.739
719.746
719.753
719.76
719.766
719.773
719.779
719.786
719.792
719.798
719.804
719.81
719.816
719.822
719.828
719.834
719.84
719.846
719.851
719.857
719.862
719.868
719.873
719.878
719.884
719.889
719.894
719.899
719.904
719.909
719.914
719.919
719.924
719.928
719.933
719.938
719.942
719.947
719.951
719.956
719.96
719.965
719.969
719.973
719.977
719.981
719.986
719.99
719.994
719.998
720.002
720.005
720.009
720.013
720.017
720.021
720.024
720.028
720.032
720.035
720.039
720.042
720.046
720.049
720.052
720.056
720.059
720.062
720.065
720.069
720.072
720.075
720.078
720.081
720.084
720.087
720.09
720.093
720.096
720.099
720.102
720.104
720.107
720.11
720.113
720.115
720.118
720.121
720.123
720.126
720.128
720.131
720.133
720.136
720.138
720.141
720.143
720.145
720.148
720.15
720.152
720.155
720.157
720.159
720.161
720.164
720.166
720.168
720.17
720.172
720.174
720.176
720.178
720.18
720.182
720.184
720.186
720.188
720.19
720.192
720.195
720.329
720.33
720.331
720.332
720.332
720.333
720.334
720.334
720.335
720.336
720.337
720.337
720.338
720.339
720.339
720.34
720.341
720.341
720.342
720.342
720.343
720.344
720.344
720.345
720.345
720.346
720.346
720.347
720.347
720.348
720.348
720.349
720.349
720.35
720.35
720.351
720.351
720.352
720.352
720.353
720.353
720.354
720.354
720.354
720.355
720.355
720.356
720.356
720.356
720.357
720.357
720.358
720.358
720.358
720.359
720.359
720.359
720.36
720.36
720.36
720.361
720.361
720.361
720.362
720.362
720.362
720.363
720.363
720.363
720.364
720.364
720.364
720.364
720.365
720.365
720.365
720.365
720.366
720.366
720.366
720.367
720.367
720.367
720.367
720.367
720.368
720.368
720.368
720.368
720.369
720.369
720.369
720.369
720.369
720.37
720.37
720.37
720.37
720.37
720.371
720.371
720.371
720.371
720.371
720.372
720.372
720.372
720.372
720.372
720.372
720.373
720.373
720.373
720.373
720.373
720.374
720.374
720.374
720.374
720.374
720.374
720.375
720.375
720.375
720.375
720.381
720.382
720.382
720.382
720.382
720.382
720.382
720.382
720.382
720.382
720.382
720.382
720.382
720.382
720.382
720.382
720.382
720.383
720.383
720.383
720.383
720.383
720.383
720.383
720.383
720.383
720.383
720.383
720.383
720.383
720.383
720.383
720.383
720.383
720.383
720.383
720.383
720.383
720.383
720.383
720.383
720.383
720.383
720.384
720.384
720.384
720.384
720.384
720.384
720.384
720.384
720.384
720.384
720.384
720.384
720.384
720.384
720.384
720.384
720.384
720.384
720.384
720.384
720.384
720.384
720.384
720.384
720.384
720.384
720.384
720.384
720.384
720.384
720.384
720.384
720.384
720.384
720.384
720.384
720.384
720.384
720.384
720.384
720.384
720.384
720.384
720.384
720.384
720.384
720.384
720.385
720.385
720.385
720.385
720.385
720.385
720.385
720.385
720.385
720.385
720.385
720.385
720.385
720.385
720.385
720.385
720.385
720.385
720.385
720.385
720.385
720.385
720.385
720.385
720.385
720.385
720.385
720.385
720.385
720.385
720.385
720.385
720.385
720.385
720.385
720.385
720.385
720.385
720.385
720.385
720.385
720.385
720.385
720.385
720.385
720.385
720.385
720.385
720.385
720.385
720.385
720.385
720.385
720.385
720.385
720.385
720.385
720.385
720.385
720.385
720.385
720.385
720.385
720.385
720.385
720.385
720.385
720.385
720.385
720.385
720.385
720.385
720.385
720.385
720.385
720.385
720.385
720.385
720.385
720.385
720.385
720.385
720.385
720.385
720.385
720.385
720.385
720.385
720.385
720.385
720.385
720.385
720.385
720.385
720.385
720.385
720.385
720.385
720.385
720.385
720.385
720.385
720.385
720.385
720.385
720.385
720.385
720.385
720.385
720.385
720.385
720.385
720.385
720.385
720.385
720.385
720.385
720.385
720.385
720.385
720.385
720.385
720.385
720.385
720.385
720.385
720.385
720.385
720.385
720.385
720.385
720.385
720.385
720.385
720.385
720.385
720.385
720.385
720.385
720.385
720.385
720.385
720.385
720.385
720.385
720.385
720.385
720.385
720.385
720.385
720.385
720.385
720.386
720.386
720.386
720.386
720.386
720.386
720.386
720.386
720.385
720.385
720.385
720.385
720.385
720.385
720.385
720.385
720.385
720.385
720.385
720.385
720.385
720.385
720.385
720.385
720.385
720.385
720.385
720.385
720.385
720.385
720.385
720.385
720.385
720.385
720.385
720.385
720.385
720.385
720.385
720.385
720.385
720.385
720.385
720.385
720.385
720.385
720.385
720.385
720.385
720.385
720.385
720.385
720.385
720.385
720.385
720.385
720.385
720.385
720.385
720.385
720.385
720.385
720.385
720.385
720.385
720.385