/*--------------------------------*- C++ -*----------------------------------*\
| =========                 |                                                 |
| \\      /  F ield         | OpenFOAM: The Open Source CFD Toolbox           |
|  \\    /   O peration     | Version:  2112                                  |
|   \\  /    A nd           | Website:  www.openfoam.com                      |
|    \\/     M anipulation  |                                                 |
\*---------------------------------------------------------------------------*/
FoamFile
{
    version     2.0;
    format      ascii;
    arch        "LSB;label=32;scalar=64";
    class       volScalarField;
    location    "0.01055";
    object      epsilon;
}
// * * * * * * * * * * * * * * * * * * * * * * * * * * * * * * * * * * * * * //

dimensions      [0 2 -3 0 0 0 0];

internalField   nonuniform List<scalar> 
13875
(
1.16001e+06
2.94623e+07
3.28263e+07
3.28306e+07
3.29154e+07
3.28492e+07
3.29208e+07
3.29128e+07
3.28924e+07
3.29158e+07
3.29313e+07
3.29088e+07
3.28683e+07
3.2844e+07
3.28609e+07
3.29106e+07
3.29486e+07
3.29128e+07
3.28934e+07
3.28609e+07
3.28998e+07
3.28303e+07
3.28058e+07
2.94841e+07
1.17766e+06
1.31389e+06
2.27471e+07
2.53572e+07
2.52338e+07
2.52882e+07
2.52185e+07
2.52521e+07
2.52487e+07
2.52304e+07
2.52283e+07
2.5235e+07
2.52447e+07
2.52071e+07
2.51935e+07
2.52007e+07
2.52502e+07
2.52463e+07
2.52363e+07
2.52251e+07
2.52291e+07
2.52699e+07
2.52196e+07
2.53286e+07
2.27511e+07
1.34218e+06
1.57303e+06
1.97062e+07
2.18313e+07
2.1625e+07
2.17045e+07
2.16296e+07
2.1579e+07
2.15544e+07
2.15325e+07
2.15264e+07
2.15191e+07
2.15356e+07
2.16041e+07
2.16022e+07
2.15973e+07
2.15475e+07
2.15322e+07
2.15301e+07
2.15485e+07
2.16407e+07
2.16833e+07
2.16018e+07
2.17898e+07
1.96839e+07
1.58485e+06
1.81371e+06
1.7385e+07
1.90395e+07
1.88797e+07
1.89717e+07
1.89036e+07
1.88335e+07
1.88027e+07
1.87846e+07
1.87895e+07
1.8778e+07
1.87747e+07
1.88813e+07
1.88803e+07
1.88766e+07
1.87879e+07
1.87945e+07
1.87799e+07
1.88065e+07
1.8915e+07
1.8952e+07
1.8858e+07
1.9014e+07
1.73605e+07
1.82091e+06
2.02275e+06
1.54523e+07
1.67734e+07
1.66221e+07
1.67075e+07
1.66491e+07
1.65708e+07
1.65464e+07
1.65385e+07
1.65439e+07
1.65333e+07
1.65218e+07
1.66235e+07
1.66272e+07
1.66198e+07
1.65339e+07
1.65478e+07
1.65304e+07
1.65526e+07
1.66546e+07
1.66901e+07
1.66052e+07
1.67436e+07
1.54284e+07
2.03707e+06
2.20641e+06
1.3712e+07
1.49292e+07
1.47404e+07
1.48349e+07
1.47701e+07
1.46778e+07
1.46605e+07
1.46583e+07
1.46638e+07
1.46535e+07
1.46364e+07
1.47345e+07
1.47423e+07
1.4732e+07
1.46469e+07
1.4668e+07
1.46472e+07
1.46668e+07
1.47748e+07
1.48192e+07
1.47293e+07
1.49028e+07
1.38495e+07
2.22326e+06
2.42248e+06
1.22508e+07
1.34787e+07
1.32093e+07
1.32727e+07
1.31984e+07
1.30892e+07
1.30719e+07
1.30729e+07
1.30782e+07
1.30678e+07
1.30461e+07
1.31414e+07
1.31515e+07
1.3138e+07
1.30552e+07
1.30838e+07
1.3061e+07
1.30855e+07
1.32005e+07
1.32568e+07
1.32013e+07
1.34209e+07
1.19536e+07
2.42944e+06
2.66587e+06
1.06152e+07
1.23134e+07
1.19771e+07
1.20019e+07
1.18865e+07
1.1753e+07
1.173e+07
1.17316e+07
1.17342e+07
1.17257e+07
1.16973e+07
1.17903e+07
1.18041e+07
1.17879e+07
1.17049e+07
1.1743e+07
1.172e+07
1.17516e+07
1.18845e+07
1.19812e+07
1.19655e+07
1.22639e+07
1.05452e+07
2.69424e+06
3.49614e+06
1.02117e+07
1.14826e+07
1.10303e+07
1.09415e+07
1.07859e+07
1.0624e+07
1.05944e+07
1.05975e+07
1.05961e+07
1.05904e+07
1.05561e+07
1.06466e+07
1.06643e+07
1.06469e+07
1.05654e+07
1.06085e+07
1.05858e+07
1.06253e+07
1.07806e+07
1.09225e+07
1.10212e+07
1.14743e+07
1.03375e+07
3.57355e+06
6.83483e+06
1.2219e+07
1.11965e+07
1.04286e+07
1.01674e+07
9.92424e+06
9.74805e+06
9.7146e+06
9.71173e+06
9.70483e+06
9.70022e+06
9.66416e+06
9.74799e+06
9.76929e+06
9.75239e+06
9.68199e+06
9.71904e+06
9.70754e+06
9.74561e+06
9.91579e+06
1.01436e+07
1.036e+07
1.11613e+07
1.21293e+07
6.89264e+06
1.49115e+07
1.86754e+07
1.20475e+07
1.03231e+07
9.61656e+06
9.31114e+06
9.11895e+06
9.06326e+06
9.04576e+06
9.03015e+06
9.02527e+06
8.98995e+06
9.06343e+06
9.08745e+06
9.07732e+06
9.02733e+06
9.05503e+06
9.06071e+06
9.12406e+06
9.28575e+06
9.60929e+06
1.02678e+07
1.18777e+07
1.7937e+07
1.49985e+07
2.54628e+07
6.87313e+07
1.81455e+07
1.0701e+07
9.70423e+06
9.0044e+06
8.7027e+06
8.60785e+06
8.56424e+06
8.53865e+06
8.53042e+06
8.49964e+06
8.5568e+06
8.58192e+06
8.58259e+06
8.55537e+06
8.57918e+06
8.60927e+06
8.70264e+06
9.01832e+06
9.65585e+06
1.05534e+07
1.75744e+07
6.72493e+07
2.50343e+07
2.65756e+07
7.59379e+07
8.67688e+07
2.40348e+07
1.09288e+07
9.09978e+06
8.7323e+06
8.46271e+06
8.34973e+06
8.2942e+06
8.27218e+06
8.24205e+06
8.28034e+06
8.30428e+06
8.31953e+06
8.32427e+06
8.37872e+06
8.49055e+06
8.76206e+06
9.15321e+06
1.12978e+07
2.26139e+07
8.08028e+07
7.64876e+07
2.60833e+07
2.63402e+07
5.51039e+07
7.96973e+07
1.04734e+08
5.77122e+07
1.3163e+07
9.66747e+06
8.83269e+06
8.58927e+06
8.55746e+06
8.54058e+06
8.5153e+06
8.54495e+06
8.565e+06
8.58769e+06
8.61139e+06
8.65262e+06
8.88593e+06
9.95066e+06
1.45069e+07
6.57406e+07
9.10573e+07
7.52756e+07
5.44774e+07
2.57569e+07
2.532e+07
4.24989e+07
5.80568e+07
7.26146e+07
7.4847e+07
7.53919e+07
2.40052e+07
1.31348e+07
1.11316e+07
1.04014e+07
1.01039e+07
9.99006e+06
9.98758e+06
1.00167e+07
1.01009e+07
1.0338e+07
1.10279e+07
1.31828e+07
2.62663e+07
7.75215e+07
7.50341e+07
6.60587e+07
5.65725e+07
4.22197e+07
2.64166e+07
2.46975e+07
3.34847e+07
4.33532e+07
5.43845e+07
5.90765e+07
6.7865e+07
5.12717e+07
4.5292e+07
4.16514e+07
3.27173e+07
3.4547e+07
3.56304e+07
3.63944e+07
3.61042e+07
3.49577e+07
3.29827e+07
4.02472e+07
4.90989e+07
5.2029e+07
6.86291e+07
5.81991e+07
5.05241e+07
4.26071e+07
3.34038e+07
2.57974e+07
2.00423e+07
2.52241e+07
3.22765e+07
4.19987e+07
4.93765e+07
6.18397e+07
7.05307e+07
7.05963e+07
5.75786e+07
4.97116e+07
5.21716e+07
5.48567e+07
5.64556e+07
5.58168e+07
5.29393e+07
5.31251e+07
5.78513e+07
7.04891e+07
7.06299e+07
6.1323e+07
4.71532e+07
3.90663e+07
3.09047e+07
2.45097e+07
1.99399e+07
1.48203e+07
1.9101e+07
2.64689e+07
3.73696e+07
4.53824e+07
5.29744e+07
6.35488e+07
6.8729e+07
5.14884e+07
3.84006e+07
3.52742e+07
3.55583e+07
3.62212e+07
3.5888e+07
3.58092e+07
4.14689e+07
5.17404e+07
6.46655e+07
6.26547e+07
5.40442e+07
4.52124e+07
3.60314e+07
2.53861e+07
1.8561e+07
1.45196e+07
1.22213e+07
1.67075e+07
2.40056e+07
3.73585e+07
4.78508e+07
4.61904e+07
4.91849e+07
5.48144e+07
4.54793e+07
3.42159e+07
2.87699e+07
2.71921e+07
2.70518e+07
2.75101e+07
2.95038e+07
3.55108e+07
4.39421e+07
5.12133e+07
4.87709e+07
4.79107e+07
5.0478e+07
3.69801e+07
2.36076e+07
1.64553e+07
1.20644e+07
1.16436e+07
1.82671e+07
2.49605e+07
3.69967e+07
4.3486e+07
3.91628e+07
3.86724e+07
4.23541e+07
3.88234e+07
3.13241e+07
2.55352e+07
2.23729e+07
2.1408e+07
2.29063e+07
2.66225e+07
3.21063e+07
3.69959e+07
3.96893e+07
3.85704e+07
4.07556e+07
4.51207e+07
3.62478e+07
2.47951e+07
1.83604e+07
1.1724e+07
3.00946e+07
6.01295e+07
4.52405e+07
3.22456e+07
3.45998e+07
3.15555e+07
3.09487e+07
3.38993e+07
3.28676e+07
2.76886e+07
2.21688e+07
1.84278e+07
1.72368e+07
1.92247e+07
2.35111e+07
2.83202e+07
3.12127e+07
3.1946e+07
3.10113e+07
3.28314e+07
3.57409e+07
3.30687e+07
5.02701e+07
6.57734e+07
3.87857e+07
9.32825e+07
3.01432e+08
6.16875e+07
2.61349e+07
2.73774e+07
2.56438e+07
2.53433e+07
2.78027e+07
2.77021e+07
2.39051e+07
1.89756e+07
1.52354e+07
1.40112e+07
1.60383e+07
2.02076e+07
2.432e+07
2.62069e+07
2.63566e+07
2.53747e+07
2.65682e+07
2.81186e+07
2.70228e+07
6.80704e+07
2.95415e+08
1.08335e+08
1.10844e+08
2.34045e+08
5.10467e+07
2.17519e+07
2.21711e+07
2.11889e+07
2.10078e+07
2.30984e+07
2.32798e+07
2.03254e+07
1.60325e+07
1.26438e+07
1.14794e+07
1.32697e+07
1.70063e+07
2.05697e+07
2.19317e+07
2.19499e+07
2.09903e+07
2.17526e+07
2.26235e+07
2.24435e+07
5.19708e+07
2.25977e+08
1.08179e+08
9.43929e+07
2.35578e+08
3.99714e+07
1.86124e+07
1.82353e+07
1.76077e+07
1.75359e+07
1.92395e+07
1.95245e+07
1.71126e+07
1.33986e+07
1.04762e+07
9.5079e+06
1.10624e+07
1.43151e+07
1.73839e+07
1.84046e+07
1.83051e+07
1.75588e+07
1.80541e+07
1.8659e+07
1.92959e+07
4.15049e+07
2.43617e+08
9.43565e+07
8.64196e+07
2.25602e+08
3.3359e+07
1.62406e+07
1.53909e+07
1.48325e+07
1.48454e+07
1.61651e+07
1.64401e+07
1.44372e+07
1.12795e+07
8.78657e+06
7.96873e+06
9.28855e+06
1.20959e+07
1.47142e+07
1.55229e+07
1.53806e+07
1.48325e+07
1.51821e+07
1.58104e+07
1.68811e+07
3.52926e+07
2.41908e+08
8.76243e+07
8.00969e+07
2.17448e+08
2.86987e+07
1.42099e+07
1.32224e+07
1.26315e+07
1.27199e+07
1.36988e+07
1.39028e+07
1.22388e+07
9.57975e+06
7.44858e+06
6.75032e+06
7.85778e+06
1.02437e+07
1.24592e+07
1.31358e+07
1.30028e+07
1.2608e+07
1.28368e+07
1.35782e+07
1.46961e+07
3.02812e+07
2.32785e+08
8.20256e+07
7.61874e+07
1.92412e+08
2.42538e+07
1.24676e+07
1.15332e+07
1.08847e+07
1.0985e+07
1.16776e+07
1.17674e+07
1.03459e+07
8.14037e+06
6.36538e+06
5.78025e+06
6.73311e+06
8.76561e+06
1.06247e+07
1.12253e+07
1.11253e+07
1.08481e+07
1.10334e+07
1.18837e+07
1.29489e+07
2.6134e+07
2.08619e+08
7.88214e+07
7.19968e+07
1.74976e+08
2.1338e+07
1.10898e+07
1.02004e+07
9.51733e+06
9.58689e+06
1.00643e+07
1.00626e+07
8.84855e+06
7.00358e+06
5.5001e+06
4.99758e+06
5.80529e+06
7.52193e+06
9.09065e+06
9.63871e+06
9.58965e+06
9.41811e+06
9.60917e+06
1.04689e+07
1.14737e+07
2.3082e+07
1.9257e+08
7.38543e+07
6.65828e+07
1.63915e+08
1.92545e+07
9.94449e+06
9.09953e+06
8.45447e+06
8.44127e+06
8.74152e+06
8.66398e+06
7.61119e+06
6.07408e+06
4.79886e+06
4.35829e+06
5.04288e+06
6.47933e+06
7.7884e+06
8.31575e+06
8.32703e+06
8.24428e+06
8.46074e+06
9.27288e+06
1.02404e+07
2.03365e+07
1.67999e+08
6.96883e+07
6.17134e+07
1.45873e+08
1.75021e+07
8.99836e+06
8.12792e+06
7.56062e+06
7.49889e+06
7.63136e+06
7.46927e+06
6.55082e+06
5.27132e+06
4.20462e+06
3.83267e+06
4.43159e+06
5.66443e+06
6.77081e+06
7.2514e+06
7.30637e+06
7.30818e+06
7.5424e+06
8.2621e+06
9.25076e+06
1.85337e+07
1.51184e+08
6.54577e+07
5.7309e+07
1.26232e+08
1.60906e+07
8.25546e+06
7.30646e+06
6.80418e+06
6.71733e+06
6.72958e+06
6.51298e+06
5.70257e+06
4.63205e+06
3.72275e+06
3.39561e+06
3.9122e+06
4.95469e+06
5.88323e+06
6.34703e+06
6.45618e+06
6.53114e+06
6.75858e+06
7.37232e+06
8.43844e+06
1.68277e+07
1.31657e+08
6.0538e+07
5.3519e+07
1.12445e+08
1.49884e+07
7.68948e+06
6.6064e+06
6.14558e+06
6.05179e+06
5.98607e+06
5.73162e+06
5.01602e+06
4.10469e+06
3.31842e+06
3.03191e+06
3.47493e+06
4.37073e+06
5.1675e+06
5.6008e+06
5.74872e+06
5.86961e+06
6.08054e+06
6.62762e+06
7.80734e+06
1.54291e+07
1.14031e+08
5.65956e+07
4.98323e+07
9.62993e+07
1.38785e+07
7.23597e+06
6.01933e+06
5.58381e+06
5.45811e+06
5.34392e+06
5.05164e+06
4.41333e+06
3.64379e+06
2.97362e+06
2.72484e+06
3.11812e+06
3.89386e+06
4.57473e+06
4.98373e+06
5.16209e+06
5.2964e+06
5.50954e+06
6.02205e+06
7.30921e+06
1.43499e+07
9.99982e+07
5.29585e+07
4.6747e+07
8.41064e+07
1.28842e+07
6.89122e+06
5.5512e+06
5.10361e+06
4.93651e+06
4.80542e+06
4.49866e+06
3.93035e+06
3.26887e+06
2.68315e+06
2.46469e+06
2.80443e+06
3.48055e+06
4.0715e+06
4.45185e+06
4.65242e+06
4.79092e+06
5.01422e+06
5.52496e+06
6.90232e+06
1.3368e+07
8.62959e+07
4.91823e+07
4.39726e+07
7.51972e+07
1.18934e+07
6.58953e+06
5.2188e+06
4.6837e+06
4.4899e+06
4.33744e+06
4.03119e+06
3.51829e+06
2.9489e+06
2.43699e+06
2.24217e+06
2.54055e+06
3.12763e+06
3.64217e+06
4.00151e+06
4.21008e+06
4.35712e+06
4.60719e+06
5.16094e+06
6.59778e+06
1.23289e+07
7.66145e+07
4.60031e+07
4.11176e+07
6.66507e+07
1.09616e+07
6.32011e+06
4.96806e+06
4.32886e+06
4.09685e+06
3.92151e+06
3.62338e+06
3.1644e+06
2.66792e+06
2.21926e+06
2.05054e+06
2.31526e+06
2.83981e+06
3.29206e+06
3.6197e+06
3.82341e+06
3.98759e+06
4.25382e+06
4.90746e+06
6.34611e+06
1.1427e+07
7.03357e+07
4.30886e+07
3.89425e+07
6.02044e+07
1.01731e+07
6.18426e+06
4.78819e+06
4.03785e+06
3.76396e+06
3.565e+06
3.27586e+06
2.86534e+06
2.43149e+06
2.03543e+06
1.88405e+06
2.11836e+06
2.5789e+06
2.97723e+06
3.2813e+06
3.48324e+06
3.66031e+06
3.95595e+06
4.71398e+06
6.18056e+06
1.05304e+07
6.30476e+07
4.03994e+07
3.6866e+07
5.59364e+07
9.46577e+06
6.0418e+06
4.66215e+06
3.82485e+06
3.47233e+06
3.25583e+06
2.97722e+06
2.61172e+06
2.22922e+06
1.87332e+06
1.73892e+06
1.94566e+06
2.35887e+06
2.71114e+06
2.98562e+06
3.19019e+06
3.37605e+06
3.73875e+06
4.59679e+06
6.04128e+06
9.68598e+06
5.69487e+07
3.82824e+07
3.46187e+07
5.08957e+07
8.68219e+06
5.7625e+06
4.6029e+06
3.66667e+06
3.22753e+06
2.98686e+06
2.71233e+06
2.38217e+06
2.04497e+06
1.73063e+06
1.61193e+06
1.79891e+06
2.16888e+06
2.4816e+06
2.73529e+06
2.93902e+06
3.13788e+06
3.57601e+06
4.54315e+06
5.80472e+06
8.89741e+06
5.24348e+07
3.64421e+07
3.27921e+07
4.73701e+07
7.9821e+06
5.45327e+06
4.60323e+06
3.55779e+06
3.03593e+06
2.75938e+06
2.48873e+06
2.18979e+06
1.89006e+06
1.60578e+06
1.49934e+06
1.66461e+06
1.99986e+06
2.27817e+06
2.51125e+06
2.72321e+06
2.95364e+06
3.46517e+06
4.51327e+06
5.46104e+06
8.18293e+06
4.82413e+07
3.45818e+07
3.12885e+07
4.45242e+07
7.55326e+06
5.15408e+06
4.68301e+06
3.4953e+06
2.89205e+06
2.57456e+06
2.29811e+06
2.02094e+06
1.75176e+06
1.49545e+06
1.39951e+06
1.54718e+06
1.84806e+06
2.10065e+06
2.32185e+06
2.54478e+06
2.81951e+06
3.39846e+06
4.63329e+06
5.15411e+06
7.61095e+06
4.57777e+07
3.28096e+07
2.98319e+07
4.18038e+07
7.02939e+06
4.79911e+06
4.58803e+06
3.47602e+06
2.7781e+06
2.43309e+06
2.13586e+06
1.87177e+06
1.6279e+06
1.39514e+06
1.31006e+06
1.44377e+06
1.72076e+06
1.94946e+06
2.1628e+06
2.40577e+06
2.70952e+06
3.40008e+06
4.62374e+06
4.88447e+06
7.81505e+06
4.34828e+07
3.10366e+07
2.86259e+07
3.94242e+07
6.68647e+06
4.45834e+06
4.35656e+06
3.55303e+06
2.70382e+06
2.32333e+06
2.00626e+06
1.74527e+06
1.51988e+06
1.30706e+06
1.2297e+06
1.35007e+06
1.60206e+06
1.8149e+06
2.02972e+06
2.29946e+06
2.63367e+06
3.45305e+06
4.40516e+06
4.55307e+06
7.37392e+06
4.11272e+07
2.94435e+07
2.76356e+07
3.70772e+07
6.88482e+06
4.16954e+06
4.08016e+06
3.70925e+06
2.68745e+06
2.23118e+06
1.90835e+06
1.64146e+06
1.4266e+06
1.22791e+06
1.15789e+06
1.26642e+06
1.49832e+06
1.70029e+06
1.92478e+06
2.21501e+06
2.61804e+06
3.65218e+06
4.14705e+06
4.26365e+06
7.37606e+06
3.8595e+07
2.83027e+07
2.66665e+07
3.51044e+07
6.48288e+06
3.8821e+06
3.78421e+06
3.70589e+06
2.76537e+06
2.16837e+06
1.82647e+06
1.55726e+06
1.34484e+06
1.15763e+06
1.09311e+06
1.19347e+06
1.41314e+06
1.61052e+06
1.84376e+06
2.15719e+06
2.71232e+06
3.69745e+06
3.87088e+06
4.04535e+06
7.47266e+06
3.62712e+07
2.74413e+07
2.58101e+07
3.31081e+07
6.5753e+06
3.67819e+06
3.5001e+06
3.49202e+06
2.9939e+06
2.16519e+06
1.76471e+06
1.49465e+06
1.28179e+06
1.09953e+06
1.03488e+06
1.13108e+06
1.34194e+06
1.54071e+06
1.77658e+06
2.143e+06
2.90999e+06
3.50646e+06
3.58496e+06
3.79552e+06
7.16957e+06
3.43343e+07
2.66233e+07
2.49842e+07
3.13105e+07
6.73078e+06
3.54033e+06
3.25646e+06
3.2661e+06
3.05932e+06
2.29573e+06
1.72301e+06
1.43943e+06
1.2334e+06
1.05444e+06
988195
1.08105e+06
1.28708e+06
1.48362e+06
1.72764e+06
2.25123e+06
3.03374e+06
3.28599e+06
3.32354e+06
3.59795e+06
6.98966e+06
3.26307e+07
2.57941e+07
2.38235e+07
2.9477e+07
6.54799e+06
3.38946e+06
3.0457e+06
3.03425e+06
2.89988e+06
2.52106e+06
1.74677e+06
1.39383e+06
1.19142e+06
1.01863e+06
954802
1.04339e+06
1.24262e+06
1.43701e+06
1.74458e+06
2.48512e+06
2.92559e+06
3.05675e+06
3.106e+06
3.49212e+06
7.08155e+06
3.06232e+07
2.46525e+07
2.2414e+07
2.74435e+07
6.4479e+06
3.29062e+06
2.86558e+06
2.81038e+06
2.72951e+06
2.63314e+06
1.89058e+06
1.37238e+06
1.15769e+06
987987
926441
1.0108e+06
1.20416e+06
1.40763e+06
1.86523e+06
2.65132e+06
2.75864e+06
2.83017e+06
2.91662e+06
3.38391e+06
6.79628e+06
2.84088e+07
2.3189e+07
1.94261e+07
2.43768e+07
6.27536e+06
3.20647e+06
2.71554e+06
2.62081e+06
2.55754e+06
2.5176e+06
2.14421e+06
1.43393e+06
1.13731e+06
961865
900326
982747
1.17662e+06
1.44719e+06
2.1208e+06
2.57599e+06
2.59007e+06
2.6371e+06
2.75638e+06
3.27747e+06
6.44262e+06
2.5178e+07
2.01036e+07
8.75756e+06
4.84566e+06
3.40936e+06
2.41145e+06
1.72917e+06
1.33219e+06
1.11133e+06
976051
876933
784350
693236
599820
505935
415249
332288
260621
201787
155104
119258
93172.1
74719.3
61947.8
53348.6
47506.6
43375.8
40615.1
39135.1
39806
46936
96686.2
9.70329e+06
5.09173e+06
3.58634e+06
2.54818e+06
1.83397e+06
1.42166e+06
1.19366e+06
1.05599e+06
956339
862803
772037
677419
580359
483467
391740
309314
239481
182759
138365
106018
82661.5
66587.2
55917.5
48830.1
44048.6
41137.2
39698.9
40780.9
48606.7
99309.1
9.9707e+06
5.20387e+06
3.75604e+06
2.69e+06
1.94695e+06
1.51903e+06
1.28416e+06
1.144e+06
1.04234e+06
949585
859611
764286
664502
561799
461390
367767
285760
217636
162952
122412
93152.2
72821.7
59389
50572.8
44906.9
41740.3
40263.3
41781.1
50451.3
102379
1.03518e+07
5.51771e+06
4.03377e+06
2.90553e+06
2.1126e+06
1.6533e+06
1.40352e+06
1.25524e+06
1.14827e+06
1.05441e+06
964528
867981
765380
657093
547604
441846
345775
263654
195797
145269
108168
82082.3
64654.8
53345.6
46359.4
42479.1
41028.2
42628.9
52138.6
106043
1.08464e+07
5.90075e+06
4.36885e+06
3.17214e+06
2.31972e+06
1.81847e+06
1.54698e+06
1.38585e+06
1.2711e+06
1.17442e+06
1.08386e+06
985663
880681
767009
649084
531225
420376
322069
239072
176278
128879
95104.7
72218
57396.7
48412.3
43488
41801.9
43405.6
53537.6
108293
1.13603e+07
6.31488e+06
4.72404e+06
3.46801e+06
2.55762e+06
2.01151e+06
1.71364e+06
1.53613e+06
1.40987e+06
1.30875e+06
1.21691e+06
1.11637e+06
1.00916e+06
890258
764468
634910
509290
393468
295057
217382
156660
112863
82710.2
63111.9
51249
44879.1
42624.8
44244.2
54780.2
111057
1.18954e+07
6.72487e+06
5.09791e+06
3.79288e+06
2.82677e+06
2.23389e+06
1.90509e+06
1.70734e+06
1.56622e+06
1.45789e+06
1.36224e+06
1.25692e+06
1.14611e+06
1.02129e+06
887823
748005
609402
478727
364762
269387
192887
136368
96864
70871.1
55080.5
46702.1
43527.8
45095.2
56078
113766
1.23982e+07
7.13864e+06
5.50465e+06
4.15023e+06
3.1298e+06
2.48898e+06
2.1256e+06
1.90322e+06
1.74241e+06
1.62244e+06
1.51863e+06
1.40522e+06
1.28832e+06
1.15705e+06
1.01712e+06
869910
721573
578804
448508
334008
239543
167402
115884
81438.8
60383.2
49181.1
44709.9
46052.7
57433.1
116898
1.2932e+07
7.57062e+06
5.95492e+06
4.54695e+06
3.47324e+06
2.78166e+06
2.3796e+06
2.1276e+06
1.94208e+06
1.80537e+06
1.68776e+06
1.56335e+06
1.43755e+06
1.29976e+06
1.15441e+06
1.00198e+06
846604
692672
545889
411964
297765
207466
141078
95807.1
67703.5
52568.1
46217.7
47078
58788.8
119862
1.35132e+07
8.04093e+06
6.44075e+06
4.9861e+06
3.86051e+06
3.1161e+06
2.67131e+06
2.38489e+06
2.17058e+06
2.01199e+06
1.87419e+06
1.73603e+06
1.59787e+06
1.45292e+06
1.30268e+06
1.14637e+06
983770
819365
657277
504750
369874
258557
174221
115223
77804
57217.5
48183.2
48095.9
60177.6
122699
1.41279e+07
8.5217e+06
6.94913e+06
5.46648e+06
4.2926e+06
3.49614e+06
3.00518e+06
2.68024e+06
2.4354e+06
2.24859e+06
2.08392e+06
1.92604e+06
1.77375e+06
1.62102e+06
1.46543e+06
1.30365e+06
1.13353e+06
959370
783203
612799
456229
322473
216980
140907
91514.6
63551.2
50782.4
49264.6
61552
125715
1.46742e+07
9.01156e+06
7.46629e+06
5.98025e+06
4.76862e+06
3.92484e+06
3.38629e+06
3.02037e+06
2.74361e+06
2.52185e+06
2.31902e+06
2.13667e+06
1.97104e+06
1.8087e+06
1.64505e+06
1.47366e+06
1.29479e+06
1.11112e+06
922750
735685
558274
400562
271248
174825
110031
72067.1
54263.2
50702.3
62763.3
129135
1.51591e+07
9.49416e+06
7.9862e+06
6.51758e+06
5.28688e+06
4.40543e+06
3.82067e+06
3.41359e+06
3.10303e+06
2.83501e+06
2.58551e+06
2.37841e+06
2.19571e+06
2.01863e+06
1.84165e+06
1.65673e+06
1.46785e+06
1.27349e+06
1.07348e+06
871370
675542
494334
339219
218676
134698
83902.2
59164.4
52646.2
64139.4
132618
1.56571e+07
9.9496e+06
8.50611e+06
7.07297e+06
5.8491e+06
4.94005e+06
4.31426e+06
3.86809e+06
3.51805e+06
3.19108e+06
2.89618e+06
2.66178e+06
2.45355e+06
2.25432e+06
2.05715e+06
1.85558e+06
1.6537e+06
1.44641e+06
1.23319e+06
1.01688e+06
803969
601611
420909
273924
167139
100012
65928.5
55227.7
65671
136057
1.60988e+07
1.03867e+07
9.01968e+06
7.64776e+06
6.44985e+06
5.52936e+06
4.87453e+06
4.39249e+06
3.99462e+06
3.6027e+06
3.26306e+06
2.99207e+06
2.75015e+06
2.52056e+06
2.29734e+06
2.07434e+06
1.85472e+06
1.6312e+06
1.40257e+06
1.17104e+06
940288
718347
514007
340563
208348
121250
74959.4
58557
67414.1
139526
1.66371e+07
1.07689e+07
9.51953e+06
8.23168e+06
7.08647e+06
6.17437e+06
5.5083e+06
4.99454e+06
4.54056e+06
4.08365e+06
3.69491e+06
3.37815e+06
3.09436e+06
2.82605e+06
2.56943e+06
2.31872e+06
2.07568e+06
1.83163e+06
1.58452e+06
1.33547e+06
1.08698e+06
845026
618091
418475
258900
148462
86738.5
62702.7
69212.8
142683
1.69936e+07
1.11008e+07
9.96932e+06
8.80389e+06
7.74604e+06
6.87219e+06
6.21771e+06
5.68064e+06
5.16922e+06
4.64516e+06
4.2012e+06
3.83138e+06
3.49559e+06
3.18099e+06
2.88095e+06
2.59511e+06
2.32188e+06
2.05176e+06
1.78184e+06
1.5122e+06
1.24429e+06
982462
733087
507807
319692
182814
102196
68054.7
71060
145756
1.72289e+07
1.13849e+07
1.03453e+07
9.34487e+06
8.41083e+06
7.62197e+06
7.00635e+06
6.46043e+06
5.89347e+06
5.30135e+06
4.79681e+06
4.36544e+06
3.96783e+06
3.59585e+06
3.24208e+06
2.91197e+06
2.60063e+06
2.29758e+06
1.99909e+06
1.7042e+06
1.41347e+06
1.12964e+06
857906
607261
391181
225911
122704
75287.1
73231.8
148802
1.74714e+07
1.15865e+07
1.06489e+07
9.82084e+06
9.06628e+06
8.41726e+06
7.87928e+06
7.34395e+06
6.73012e+06
6.0714e+06
5.49895e+06
4.99537e+06
4.52524e+06
4.08327e+06
3.66414e+06
3.27864e+06
2.91998e+06
2.57567e+06
2.2415e+06
1.91522e+06
1.59669e+06
1.28736e+06
991205
715148
472630
278397
149342
85049.8
75983.3
151847
1.75187e+07
1.17644e+07
1.08638e+07
1.01986e+07
9.68692e+06
9.25001e+06
8.845e+06
8.34304e+06
7.6972e+06
6.97405e+06
6.32509e+06
5.73773e+06
5.18416e+06
4.65735e+06
4.15957e+06
3.70562e+06
3.2886e+06
2.89318e+06
2.51486e+06
2.14982e+06
1.79714e+06
1.45707e+06
1.1327e+06
830490
563382
340738
183245
98273.2
79689.8
155296
1.7616e+07
1.18186e+07
1.09586e+07
1.04751e+07
1.0263e+07
1.01222e+07
9.91467e+06
9.47655e+06
8.81455e+06
8.03126e+06
7.29896e+06
6.61405e+06
5.95964e+06
5.33329e+06
4.74182e+06
4.20513e+06
3.7154e+06
3.25693e+06
2.82396e+06
2.41134e+06
2.01735e+06
1.64167e+06
1.28691e+06
959139
666099
414700
226090
116182
84952.4
158912
1.76039e+07
1.19228e+07
1.09647e+07
1.06565e+07
1.08127e+07
1.10484e+07
1.1105e+07
1.0769e+07
1.01084e+07
9.26969e+06
8.44639e+06
7.64739e+06
6.87273e+06
6.12887e+06
5.42524e+06
4.78865e+06
4.20976e+06
3.67335e+06
3.17303e+06
2.70331e+06
2.26155e+06
1.84695e+06
1.46062e+06
1.10535e+06
783797
501859
279511
140101
92674.3
163481
1.77949e+07
1.20022e+07
1.09621e+07
1.08394e+07
1.13918e+07
1.20603e+07
1.24456e+07
1.22537e+07
1.16112e+07
1.07209e+07
9.7968e+06
8.8659e+06
7.94573e+06
7.06223e+06
6.22721e+06
5.46874e+06
4.78234e+06
4.14989e+06
3.56756e+06
3.03059e+06
2.5345e+06
2.07695e+06
1.65518e+06
1.26726e+06
914313
600567
343388
170732
103125
169213
1.73965e+07
1.27698e+07
1.1526e+07
1.14074e+07
1.22615e+07
1.3286e+07
1.40001e+07
1.39832e+07
1.33666e+07
1.24283e+07
1.13906e+07
1.03021e+07
9.20807e+06
8.15676e+06
7.16519e+06
6.26064e+06
5.44431e+06
4.69614e+06
4.01588e+06
3.39965e+06
2.84017e+06
2.33194e+06
1.86743e+06
1.44139e+06
1.05255e+06
705265
414708
208081
116204
176385
1.62072e+07
1.85457e+07
1.52835e+07
1.3548e+07
1.39765e+07
1.49688e+07
1.58935e+07
1.60223e+07
1.54351e+07
1.44462e+07
1.32729e+07
1.19952e+07
1.06938e+07
9.44017e+06
8.26036e+06
7.17871e+06
6.20394e+06
5.31792e+06
4.52531e+06
3.81689e+06
3.18273e+06
2.61285e+06
2.09661e+06
1.62602e+06
1.19847e+06
816822
493254
252842
132587
185473
95164.1
45974.8
39272.5
38854.5
40349.5
43079.1
47107.6
52814.8
61463
74077.5
92217
118068
153035
199233
256884
326504
407158
496106
588930
681641
772535
866546
969360
1.10859e+06
1.33511e+06
1.74343e+06
2.44075e+06
3.45077e+06
4.89337e+06
8.79874e+06
97402.1
47319.4
39992.7
39310
40740.8
43662.6
48240.2
55039.2
65645.5
81342.2
103898
136431
180058
236194
305076
385869
476000
571124
667216
761040
851778
946048
1.04904e+06
1.19013e+06
1.42269e+06
1.84496e+06
2.57186e+06
3.6229e+06
5.14067e+06
9.75538e+06
100036
48803.1
40814.7
39831.2
41185.3
44409.3
49811.2
58238.4
71193.2
90786.9
118997
159519
214137
281828
363298
455785
555284
656672
755726
850146
940162
1.03273e+06
1.13702e+06
1.28024e+06
1.51929e+06
1.95465e+06
2.70861e+06
3.7886e+06
5.24363e+06
1.00154e+07
103137
50708.2
42038.9
40758.1
41988.7
45702
52239.1
62961.5
79521.9
104436
140175
189664
258623
340812
437028
542691
652264
760257
862307
957969
1.04692e+06
1.13954e+06
1.24886e+06
1.3997e+06
1.65225e+06
2.11686e+06
2.91813e+06
4.05672e+06
5.55595e+06
1.04016e+07
106865
52316.8
42944.8
41529.5
43167.3
47603
55713.8
69447.4
91213.6
123481
169148
230053
313064
413242
525359
644396
763589
877561
982162
1.07938e+06
1.16863e+06
1.26291e+06
1.37951e+06
1.54305e+06
1.81664e+06
2.32137e+06
3.17892e+06
4.39064e+06
5.94202e+06
1.09077e+07
109966
53964.2
43990.2
42435.4
44777.7
50450.8
60623.4
78492.9
106937
149168
207245
283083
379626
495951
623130
754821
883164
1.00338e+06
1.11107e+06
1.21125e+06
1.30226e+06
1.4006e+06
1.52862e+06
1.70814e+06
2.00825e+06
2.55679e+06
3.46936e+06
4.74603e+06
6.361e+06
1.14377e+07
113216
55606.6
45047.5
43506
46352
53827
67392.1
90871.2
127911
182366
255879
349172
461614
590616
729550
870499
1.00622e+06
1.13283e+06
1.24539e+06
1.35151e+06
1.44762e+06
1.5541e+06
1.69745e+06
1.89714e+06
2.2286e+06
2.82306e+06
3.79033e+06
5.11914e+06
6.7768e+06
1.19743e+07
116078
57103.5
46073.1
44755.5
48516.6
58395
76719
107614
155532
224905
316280
428214
557912
698807
846401
993553
1.13438e+06
1.26683e+06
1.38612e+06
1.50109e+06
1.60697e+06
1.72609e+06
1.89006e+06
2.11501e+06
2.48189e+06
3.1246e+06
4.14466e+06
5.52486e+06
7.19978e+06
1.24755e+07
118760
58615.6
47051.7
46128.3
51377.6
64588.4
89268.4
130031
191498
277886
388902
520180
665904
818881
974286
1.12688e+06
1.27245e+06
1.41051e+06
1.53822e+06
1.66409e+06
1.78454e+06
1.92042e+06
2.11039e+06
2.36536e+06
2.77152e+06
3.46494e+06
4.536e+06
5.97082e+06
7.6371e+06
1.29956e+07
121629
60075.8
48040.5
47750.5
55149.9
72926.3
105916
159375
237672
343392
474374
624211
784652
948887
1.11224e+06
1.26999e+06
1.42138e+06
1.56686e+06
1.70625e+06
1.84569e+06
1.9862e+06
2.14396e+06
2.36381e+06
2.65339e+06
3.10268e+06
3.84892e+06
4.96881e+06
6.45729e+06
8.11287e+06
1.35615e+07
124809
61540.3
49247.3
49958.2
60225.9
84180.2
127819
196855
294787
421917
572843
739698
914245
1.08866e+06
1.2602e+06
1.42423e+06
1.58229e+06
1.73726e+06
1.89167e+06
2.05004e+06
2.21812e+06
2.403e+06
2.65525e+06
2.98352e+06
3.47854e+06
4.27623e+06
5.44125e+06
6.96541e+06
8.60139e+06
1.41882e+07
128745
62962.3
50530.6
52762.8
67236.7
99494.5
156601
244404
364576
513757
684545
867117
1.05417e+06
1.23801e+06
1.4187e+06
1.59295e+06
1.75986e+06
1.92614e+06
2.09618e+06
2.27968e+06
2.48532e+06
2.70511e+06
2.99137e+06
3.36067e+06
3.90157e+06
4.74565e+06
5.9459e+06
7.48244e+06
9.09272e+06
1.47533e+07
132253
64354.6
52212.7
56682.1
76753.3
119773
193929
303783
448193
620102
809610
1.00678e+06
1.20492e+06
1.39893e+06
1.58958e+06
1.7779e+06
1.9588e+06
2.14092e+06
2.32932e+06
2.53982e+06
2.79153e+06
3.05935e+06
3.38128e+06
3.79205e+06
4.37587e+06
5.25818e+06
6.4771e+06
8.00252e+06
9.58047e+06
1.52453e+07
135788
65680.4
54257.9
62063.2
89772.9
146659
241623
376635
546385
740234
946424
1.15749e+06
1.36702e+06
1.57312e+06
1.77622e+06
1.9816e+06
2.18362e+06
2.38812e+06
2.60243e+06
2.84171e+06
3.141e+06
3.46929e+06
3.8328e+06
4.2839e+06
4.90397e+06
5.81025e+06
7.02722e+06
8.52112e+06
1.0045e+07
1.57491e+07
139162
66896.8
56751.9
69212
107174
181501
300414
462040
656302
870070
1.09229e+06
1.31829e+06
1.54205e+06
1.76356e+06
1.98363e+06
2.21032e+06
2.43928e+06
2.67396e+06
2.92301e+06
3.19994e+06
3.54471e+06
3.93913e+06
4.35387e+06
4.84296e+06
5.48931e+06
6.40064e+06
7.60068e+06
9.03539e+06
1.04944e+07
1.62158e+07
142300
68057.8
59833.1
78614.5
129867
225347
370285
557913
774823
1.00766e+06
1.24843e+06
1.49162e+06
1.73362e+06
1.97506e+06
2.21772e+06
2.47143e+06
2.73415e+06
3.00711e+06
3.29855e+06
3.62264e+06
4.01692e+06
4.47987e+06
4.95296e+06
5.47519e+06
6.13334e+06
7.0293e+06
8.18824e+06
9.54009e+06
1.08859e+07
1.67574e+07
145187
69443.2
63879.4
91060
159015
278914
450995
663640
902609
1.15645e+06
1.4173e+06
1.68131e+06
1.94606e+06
2.21293e+06
2.48484e+06
2.77245e+06
3.07815e+06
3.39773e+06
3.74091e+06
4.11875e+06
4.5691e+06
5.10444e+06
5.63819e+06
6.1844e+06
6.83225e+06
7.69027e+06
8.76408e+06
9.99976e+06
1.12211e+07
1.71569e+07
148011
71183.7
69462.8
107697
196065
342991
542961
780406
1.0429e+06
1.31907e+06
1.6032e+06
1.8924e+06
2.18533e+06
2.48411e+06
2.79288e+06
3.12315e+06
3.48142e+06
3.85897e+06
4.26443e+06
4.70434e+06
5.21609e+06
5.82241e+06
6.41754e+06
6.97457e+06
7.58319e+06
8.3645e+06
9.31575e+06
1.03917e+07
1.15222e+07
1.74187e+07
150771
73283.9
77084.8
129704
242373
418269
645901
909368
1.19644e+06
1.4982e+06
1.80981e+06
2.12968e+06
2.45748e+06
2.79606e+06
3.15068e+06
3.53407e+06
3.95732e+06
4.40581e+06
4.8828e+06
5.39637e+06
5.97796e+06
6.65334e+06
7.29955e+06
7.85183e+06
8.3847e+06
9.032e+06
9.80845e+06
1.07126e+07
1.17393e+07
1.76876e+07
153544
76051.7
87512.5
158284
298647
504762
759253
1.05018e+06
1.36517e+06
1.69698e+06
2.04169e+06
2.3988e+06
2.76925e+06
3.15689e+06
3.56781e+06
4.01742e+06
4.51875e+06
5.05412e+06
5.61478e+06
6.21294e+06
6.8724e+06
7.61367e+06
8.29709e+06
8.82232e+06
9.23032e+06
9.67535e+06
1.02086e+07
1.09409e+07
1.19396e+07
1.77803e+07
156715
80136.9
101925
195277
366201
603285
886144
1.20497e+06
1.55092e+06
1.91754e+06
2.30173e+06
2.704e+06
3.1267e+06
3.57476e+06
4.05542e+06
4.58569e+06
5.18012e+06
5.81865e+06
6.47998e+06
7.17731e+06
7.9223e+06
8.72519e+06
9.42868e+06
9.89644e+06
1.01193e+07
1.02755e+07
1.05099e+07
1.10552e+07
1.20111e+07
1.79211e+07
160473
86202.1
121545
242394
446947
716504
1.03004e+06
1.37802e+06
1.7569e+06
2.16218e+06
2.59232e+06
3.0489e+06
3.53583e+06
4.0585e+06
4.62561e+06
5.25366e+06
5.9607e+06
6.71923e+06
7.50182e+06
8.31477e+06
9.15508e+06
1.00165e+07
1.07205e+07
1.10928e+07
1.1068e+07
1.08532e+07
1.07173e+07
1.10832e+07
1.21355e+07
1.7944e+07
165087
94448.7
147200
299906
540355
843920
1.19044e+06
1.57187e+06
1.98669e+06
2.43448e+06
2.917e+06
3.43796e+06
4.0035e+06
4.61847e+06
5.2902e+06
6.03712e+06
6.87888e+06
7.77718e+06
8.70852e+06
9.65454e+06
1.0602e+07
1.15207e+07
1.22084e+07
1.24447e+07
1.21137e+07