/*--------------------------------*- C++ -*----------------------------------*\
| =========                 |                                                 |
| \\      /  F ield         | OpenFOAM: The Open Source CFD Toolbox           |
|  \\    /   O peration     | Version:  2112                                  |
|   \\  /    A nd           | Website:  www.openfoam.com                      |
|    \\/     M anipulation  |                                                 |
\*---------------------------------------------------------------------------*/
FoamFile
{
    version     2.0;
    format      ascii;
    arch        "LSB;label=32;scalar=64";
    class       volScalarField;
    location    "0.00302";
    object      epsilon;
}
// * * * * * * * * * * * * * * * * * * * * * * * * * * * * * * * * * * * * * //

dimensions      [0 2 -3 0 0 0 0];

internalField   nonuniform List<scalar> 
13875
(
1.15994e+06
2.94649e+07
3.28105e+07
3.28524e+07
3.29664e+07
3.28657e+07
3.2871e+07
3.28887e+07
3.28989e+07
3.29054e+07
3.29591e+07
3.29427e+07
3.28327e+07
3.28178e+07
3.29297e+07
3.2931e+07
3.29174e+07
3.29059e+07
3.28892e+07
3.28325e+07
3.29335e+07
3.28357e+07
3.27986e+07
2.94712e+07
1.17839e+06
1.31384e+06
2.27495e+07
2.5347e+07
2.52495e+07
2.53116e+07
2.52189e+07
2.52146e+07
2.52285e+07
2.5225e+07
2.5223e+07
2.52549e+07
2.52648e+07
2.51955e+07
2.5188e+07
2.52319e+07
2.52401e+07
2.52542e+07
2.52147e+07
2.52293e+07
2.52051e+07
2.52897e+07
2.52219e+07
2.53236e+07
2.27528e+07
1.34282e+06
1.57301e+06
1.97083e+07
2.18235e+07
2.16353e+07
2.17025e+07
2.16307e+07
2.16213e+07
2.16206e+07
2.15132e+07
2.15074e+07
2.1555e+07
2.15854e+07
2.16052e+07
2.16045e+07
2.1611e+07
2.1556e+07
2.15543e+07
2.1526e+07
2.16241e+07
2.16255e+07
2.16954e+07
2.1602e+07
2.17854e+07
1.96922e+07
1.58493e+06
1.81376e+06
1.73866e+07
1.90333e+07
1.88878e+07
1.89677e+07
1.89082e+07
1.88965e+07
1.8894e+07
1.87754e+07
1.87701e+07
1.88141e+07
1.88371e+07
1.88823e+07
1.8883e+07
1.88761e+07
1.88155e+07
1.87983e+07
1.88035e+07
1.88986e+07
1.89023e+07
1.89624e+07
1.88582e+07
1.90099e+07
1.73693e+07
1.82067e+06
2.02293e+06
1.54534e+07
1.67683e+07
1.66274e+07
1.67002e+07
1.66513e+07
1.66415e+07
1.66346e+07
1.65289e+07
1.65231e+07
1.65565e+07
1.65697e+07
1.66281e+07
1.66303e+07
1.66095e+07
1.65544e+07
1.65397e+07
1.65564e+07
1.66389e+07
1.66466e+07
1.6697e+07
1.66046e+07
1.67407e+07
1.54333e+07
2.03611e+06
2.20684e+06
1.37142e+07
1.49253e+07
1.47443e+07
1.48243e+07
1.47766e+07
1.47641e+07
1.47492e+07
1.46524e+07
1.4643e+07
1.46712e+07
1.46764e+07
1.4744e+07
1.47506e+07
1.4712e+07
1.46654e+07
1.46507e+07
1.46823e+07
1.47568e+07
1.47745e+07
1.48231e+07
1.47299e+07
1.49006e+07
1.38503e+07
2.22266e+06
2.42338e+06
1.22538e+07
1.34757e+07
1.32128e+07
1.32624e+07
1.32072e+07
1.31871e+07
1.31627e+07
1.30736e+07
1.30621e+07
1.30858e+07
1.30855e+07
1.316e+07
1.31679e+07
1.31145e+07
1.30754e+07
1.3061e+07
1.31079e+07
1.31766e+07
1.32068e+07
1.32599e+07
1.32026e+07
1.34216e+07
1.1954e+07
2.42987e+06
2.66803e+06
1.06223e+07
1.23149e+07
1.19845e+07
1.19968e+07
1.19149e+07
1.18736e+07
1.18342e+07
1.17506e+07
1.17296e+07
1.17503e+07
1.17464e+07
1.18254e+07
1.18366e+07
1.17688e+07
1.17357e+07
1.17231e+07
1.17878e+07
1.18581e+07
1.19119e+07
1.19904e+07
1.19767e+07
1.22654e+07
1.05438e+07
2.69676e+06
3.50099e+06
1.02152e+07
1.14897e+07
1.10464e+07
1.09524e+07
1.08461e+07
1.07836e+07
1.07279e+07
1.06477e+07
1.06178e+07
1.06363e+07
1.06304e+07
1.07122e+07
1.07269e+07
1.06474e+07
1.06175e+07
1.06095e+07
1.06889e+07
1.07639e+07
1.08425e+07
1.09527e+07
1.10365e+07
1.1485e+07
1.03479e+07
3.58196e+06
6.85067e+06
1.22617e+07
1.12207e+07
1.04378e+07
1.02393e+07
1.00578e+07
9.96351e+06
9.8881e+06
9.81272e+06
9.77984e+06
9.79223e+06
9.78792e+06
9.868e+06
9.88527e+06
9.80344e+06
9.77562e+06
9.77326e+06
9.85173e+06
9.93313e+06
1.00421e+07
1.02235e+07
1.0418e+07
1.1191e+07
1.21575e+07
6.9033e+06
1.4971e+07
1.87229e+07
1.21216e+07
1.04521e+07
9.8149e+06
9.55516e+06
9.41493e+06
9.316e+06
9.24575e+06
9.21159e+06
9.21531e+06
9.21189e+06
9.28751e+06
9.30663e+06
9.23503e+06
9.21086e+06
9.2172e+06
9.28387e+06
9.38008e+06
9.52274e+06
9.80565e+06
1.0417e+07
1.20055e+07
1.80946e+07
1.5086e+07
2.54539e+07
6.74923e+07
1.90227e+07
1.10383e+07
1.01004e+07
9.47603e+06
9.19168e+06
9.05238e+06
8.96828e+06
8.92719e+06
8.92005e+06
8.91405e+06
8.97822e+06
9.00041e+06
8.94907e+06
8.93642e+06
8.95614e+06
9.0297e+06
9.16214e+06
9.4508e+06
1.00496e+07
1.08939e+07
1.83211e+07
6.71484e+07
2.50971e+07
2.66569e+07
6.93728e+07
9.10807e+07
2.93162e+07
1.18293e+07
9.99023e+06
9.60317e+06
9.40223e+06
9.33385e+06
9.28724e+06
9.2752e+06
9.26891e+06
9.31939e+06
9.34378e+06
9.31707e+06
9.31981e+06
9.35226e+06
9.41238e+06
9.5967e+06
1.01031e+07
1.22999e+07
2.70403e+07
8.59469e+07
7.0148e+07
2.61722e+07
2.64561e+07
5.14269e+07
8.13725e+07
1.1827e+08
5.87736e+07
1.63694e+07
1.36344e+07
1.19197e+07
1.14595e+07
1.12711e+07
1.122e+07
1.1195e+07
1.12608e+07
1.1282e+07
1.12962e+07
1.13539e+07
1.1565e+07
1.21186e+07
1.40554e+07
1.77381e+07
6.72775e+07
1.00994e+08
7.7265e+07
5.14524e+07
2.60265e+07
2.58889e+07
4.11104e+07
6.02254e+07
8.16996e+07
7.30387e+07
5.65179e+07
6.1718e+07
4.84944e+07
4.54205e+07
4.70848e+07
4.9173e+07
4.88261e+07
5.0506e+07
4.95102e+07
4.96541e+07
4.7789e+07
4.6144e+07
5.02785e+07
6.61987e+07
5.6509e+07
7.43587e+07
7.38175e+07
5.86284e+07
4.11968e+07
2.73195e+07
2.632e+07
3.43662e+07
5.05664e+07
6.76365e+07
7.23503e+07
9.11097e+07
7.35864e+07
5.47946e+07
5.46494e+07
5.88127e+07
5.9735e+07
6.03248e+07
6.09895e+07
6.0875e+07
6.02386e+07
5.92527e+07
5.42912e+07
5.45216e+07
7.24176e+07
9.0503e+07
7.31728e+07
6.2968e+07
4.92484e+07
3.42908e+07
2.77406e+07
2.3982e+07
3.05834e+07
4.45043e+07
6.12515e+07
6.87016e+07
8.49441e+07
5.55665e+07
3.88586e+07
3.74064e+07
3.80405e+07
3.85785e+07
3.89026e+07
3.91428e+07
3.92097e+07
3.89209e+07
3.83824e+07
3.73489e+07
3.88084e+07
5.28041e+07
8.62636e+07
6.81291e+07
5.77065e+07
4.47464e+07
2.99469e+07
2.37278e+07
1.94624e+07
3.02026e+07
4.34899e+07
4.89262e+07
5.35111e+07
6.39812e+07
4.48872e+07
3.16563e+07
2.90981e+07
2.84084e+07
2.80893e+07
2.80092e+07
2.81192e+07
2.82143e+07
2.84273e+07
2.87714e+07
2.91114e+07
3.17965e+07
4.42372e+07
6.36343e+07
5.16812e+07
4.63509e+07
4.3769e+07
2.98859e+07
1.90306e+07
1.57379e+07
3.09016e+07
3.83751e+07
3.8413e+07
3.93819e+07
4.61126e+07
4.02599e+07
3.09174e+07
2.58902e+07
2.32755e+07
2.19167e+07
2.13795e+07
2.13353e+07
2.14736e+07
2.20038e+07
2.31342e+07
2.51627e+07
3.00291e+07
3.94646e+07
4.56416e+07
3.802e+07
3.7264e+07
3.84804e+07
3.0914e+07
1.54357e+07
1.44037e+07
3.03829e+07
3.11149e+07
3.08404e+07
3.10657e+07
3.55133e+07
3.51837e+07
2.98016e+07
2.4313e+07
2.0447e+07
1.81916e+07
1.72086e+07
1.7018e+07
1.72876e+07
1.82391e+07
2.02722e+07
2.3805e+07
2.92936e+07
3.46185e+07
3.48337e+07
3.02021e+07
3.03184e+07
3.12593e+07
2.90093e+07
1.44141e+07
1.55665e+07
2.43674e+07
2.54134e+07
2.52615e+07
2.54182e+07
2.89139e+07
3.01375e+07
2.6736e+07
2.1875e+07
1.79009e+07
1.53179e+07
1.40779e+07
1.38034e+07
1.41895e+07
1.54421e+07
1.79058e+07
2.17205e+07
2.65558e+07
2.97397e+07
2.83495e+07
2.49041e+07
2.50565e+07
2.51797e+07
2.30456e+07
1.55714e+07
2.15124e+07
2.47415e+07
2.17414e+07
2.14118e+07
2.14749e+07
2.4299e+07
2.56341e+07
2.32462e+07
1.91753e+07
1.5496e+07
1.29313e+07
1.16314e+07
1.13076e+07
1.17267e+07
1.30374e+07
1.55037e+07
1.90545e+07
2.30582e+07
2.52783e+07
2.39297e+07
2.11402e+07
2.12834e+07
2.13152e+07
2.37352e+07
2.17531e+07
2.48292e+07
2.7758e+07
1.91557e+07
1.82078e+07
1.83959e+07
2.06073e+07
2.16765e+07
1.98504e+07
1.64931e+07
1.32838e+07
1.09293e+07
9.68592e+06
9.34719e+06
9.72677e+06
1.09433e+07
1.31884e+07
1.627e+07
1.95697e+07
2.12967e+07
2.02849e+07
1.80779e+07
1.80507e+07
1.85922e+07
2.71824e+07
2.49574e+07
2.39717e+07
2.71764e+07
1.67035e+07
1.57064e+07
1.58281e+07
1.73616e+07
1.82605e+07
1.68169e+07
1.39468e+07
1.12098e+07
9.18457e+06
8.10155e+06
7.79936e+06
8.14379e+06
9.21953e+06
1.11687e+07
1.37927e+07
1.65991e+07
1.79593e+07
1.7082e+07
1.56189e+07
1.56265e+07
1.62888e+07
2.64716e+07
2.40359e+07
2.33083e+07
2.57415e+07
1.47244e+07
1.37649e+07
1.37321e+07
1.47286e+07
1.54473e+07
1.42584e+07
1.18438e+07
9.52247e+06
7.77665e+06
6.84392e+06
6.58242e+06
6.87972e+06
7.80975e+06
9.50455e+06
1.17359e+07
1.40804e+07
1.52003e+07
1.44883e+07
1.35488e+07
1.36975e+07
1.44309e+07
2.56204e+07
2.32849e+07
2.25547e+07
2.45075e+07
1.33166e+07
1.22651e+07
1.20263e+07
1.26387e+07
1.31351e+07
1.20947e+07
1.00713e+07
8.12318e+06
6.64047e+06
5.83973e+06
5.60741e+06
5.86207e+06
6.65032e+06
8.08609e+06
9.94612e+06
1.18894e+07
1.28771e+07
1.24195e+07
1.18312e+07
1.21596e+07
1.30725e+07
2.46256e+07
2.23168e+07
2.18119e+07
2.3464e+07
1.2169e+07
1.10263e+07
1.0639e+07
1.0934e+07
1.1175e+07
1.0232e+07
8.55168e+06
6.93414e+06
5.69049e+06
5.02228e+06
4.82498e+06
5.0456e+06
5.72119e+06
6.94744e+06
8.51171e+06
1.01242e+07
1.10117e+07
1.07849e+07
1.04801e+07
1.09595e+07
1.20467e+07
2.41317e+07
2.19296e+07
2.15912e+07
2.26372e+07
1.13002e+07
9.96826e+06
9.53789e+06
9.59513e+06
9.61054e+06
8.72963e+06
7.32024e+06
5.97173e+06
4.92841e+06
4.36302e+06
4.18867e+06
4.38018e+06
4.95164e+06
5.97929e+06
7.27998e+06
8.62489e+06
9.45085e+06
9.46591e+06
9.399e+06
9.90478e+06
1.11777e+07
2.30177e+07
2.14925e+07
2.1799e+07
2.14962e+07
1.05098e+07
9.03956e+06
8.60102e+06
8.50243e+06
8.32557e+06
7.5032e+06
6.3141e+06
5.18131e+06
4.3004e+06
3.82046e+06
3.66617e+06
3.83033e+06
4.30735e+06
5.16759e+06
6.25531e+06
7.38132e+06
8.1534e+06
8.37573e+06
8.47158e+06
8.97223e+06
1.04034e+07
2.13647e+07
2.11091e+07
2.12128e+07
2.0272e+07
9.84495e+06
8.22467e+06
7.75649e+06
7.56231e+06
7.23254e+06
6.44732e+06
5.4361e+06
4.4944e+06
3.76574e+06
3.36702e+06
3.23351e+06
3.38126e+06
3.79117e+06
4.51784e+06
5.43471e+06
6.40212e+06
7.13125e+06
7.48234e+06
7.66285e+06
8.17812e+06
9.772e+06
2.03671e+07
2.14373e+07
2.04827e+07
1.92027e+07
9.35406e+06
7.57526e+06
7.01725e+06
6.7589e+06
6.34935e+06
5.61995e+06
4.74702e+06
3.94533e+06
3.32869e+06
2.98987e+06
2.87241e+06
3.00222e+06
3.34622e+06
3.95879e+06
4.73879e+06
5.57336e+06
6.25593e+06
6.68179e+06
6.92236e+06
7.53e+06
9.22925e+06
1.92734e+07
2.05182e+07
1.98163e+07
1.83028e+07
8.94361e+06
7.09586e+06
6.37222e+06
6.06672e+06
5.6266e+06
4.94015e+06
4.1774e+06
3.48889e+06
2.96603e+06
2.67514e+06
2.56904e+06
2.68466e+06
2.97681e+06
3.49367e+06
4.16123e+06
4.88939e+06
5.534e+06
5.98856e+06
6.28608e+06
7.02834e+06
8.80636e+06
1.82325e+07
1.9559e+07
1.8806e+07
1.71276e+07
8.71001e+06
6.70454e+06
5.82692e+06
5.44598e+06
4.99065e+06
4.35865e+06
3.69233e+06
3.0984e+06
2.65163e+06
2.4044e+06
2.31165e+06
2.41649e+06
2.66843e+06
3.11465e+06
3.69742e+06
4.33541e+06
4.92917e+06
5.38628e+06
5.75259e+06
6.62488e+06
8.52278e+06
1.73748e+07
1.89439e+07
1.83482e+07
1.60367e+07
8.50086e+06
6.43993e+06
5.38711e+06
4.92846e+06
4.46345e+06
3.88535e+06
3.29332e+06
2.77623e+06
2.39265e+06
2.17748e+06
2.0924e+06
2.18697e+06
2.40394e+06
2.78529e+06
3.29221e+06
3.85957e+06
4.4027e+06
4.87185e+06
5.31523e+06
6.33207e+06
8.43645e+06
1.63125e+07
1.81659e+07
1.79421e+07
1.51439e+07
8.09897e+06
6.2404e+06
5.05419e+06
4.48951e+06
4.01122e+06
3.48614e+06
2.96349e+06
2.50894e+06
2.17014e+06
1.98186e+06
1.90466e+06
1.98943e+06
2.17752e+06
2.51219e+06
2.95726e+06
3.45854e+06
3.95076e+06
4.43287e+06
4.988e+06
6.15782e+06
8.18998e+06
1.52411e+07
1.75905e+07
1.71773e+07
1.40576e+07
7.57993e+06
6.07247e+06
4.80309e+06
4.12595e+06
3.62659e+06
3.13607e+06
2.66985e+06
2.27123e+06
1.97792e+06
1.81317e+06
1.74288e+06
1.82173e+06
1.98898e+06
2.28138e+06
2.67354e+06
3.1227e+06
3.57835e+06
4.07897e+06
4.7411e+06
6.0434e+06
7.71788e+06
1.42992e+07
1.70594e+07
1.67081e+07
1.31359e+07
7.10579e+06
6.05642e+06
4.62312e+06
3.84678e+06
3.30651e+06
2.84424e+06
2.42662e+06
2.07436e+06
1.81278e+06
1.66616e+06
1.60209e+06
1.67406e+06
1.8202e+06
2.08001e+06
2.42542e+06
2.82721e+06
3.25649e+06
3.79686e+06
4.55761e+06
6.03999e+06
7.184e+06
1.32329e+07
1.64108e+07
1.63795e+07
1.22743e+07
6.65687e+06
5.92996e+06
4.53221e+06
3.63386e+06
3.05365e+06
2.60101e+06
2.21599e+06
1.90047e+06
1.66991e+06
1.53893e+06
1.47971e+06
1.54622e+06
1.67517e+06
1.90226e+06
2.21078e+06
2.58297e+06
3.00757e+06
3.58598e+06
4.48618e+06
5.92542e+06
6.6636e+06
1.2289e+07
1.6062e+07
1.58593e+07
1.14264e+07
6.11473e+06
5.60574e+06
4.48167e+06
3.46366e+06
2.85622e+06
2.39356e+06
2.03177e+06
1.7478e+06
1.54186e+06
1.42487e+06
1.37173e+06
1.43353e+06
1.54863e+06
1.75304e+06
2.03185e+06
2.38237e+06
2.81937e+06
3.42206e+06
4.47045e+06
5.62984e+06
6.13811e+06
1.14998e+07
1.58225e+07
1.55639e+07
1.07467e+07
5.60786e+06
5.27e+06
4.59123e+06
3.36875e+06
2.70618e+06
2.23279e+06
1.87794e+06
1.61649e+06
1.43151e+06
1.32611e+06
1.27634e+06
1.3335e+06
1.43629e+06
1.6186e+06
1.8745e+06
2.22102e+06
2.67021e+06
3.31782e+06
4.59108e+06
5.28393e+06
5.5895e+06
1.07835e+07
1.53877e+07
1.5337e+07
1.02189e+07
5.2011e+06
4.91283e+06
4.56367e+06
3.34585e+06
2.59254e+06
2.11142e+06
1.75313e+06
1.50444e+06
1.33373e+06
1.2375e+06
1.19148e+06
1.2435e+06
1.33688e+06
1.50377e+06
1.74711e+06
2.09811e+06
2.55961e+06
3.31882e+06
4.57828e+06
4.92104e+06
5.13214e+06
1.02357e+07
1.50939e+07
1.4946e+07
9.72104e+06
4.8018e+06
4.53213e+06
4.33306e+06
3.41646e+06
2.51306e+06
2.00957e+06
1.65291e+06
1.40825e+06
1.24714e+06
1.15874e+06
1.1159e+06
1.16536e+06
1.25105e+06
1.40884e+06
1.64832e+06
2.00062e+06
2.50651e+06
3.44607e+06
4.32299e+06
4.54668e+06
4.82489e+06
9.79314e+06
1.48862e+07
1.46815e+07
9.30044e+06
4.50531e+06
4.17244e+06
4.05497e+06
3.52422e+06
2.51422e+06
1.93457e+06
1.57939e+06
1.32758e+06
1.17246e+06
1.08823e+06
1.04807e+06
1.09455e+06
1.17508e+06
1.32808e+06
1.57158e+06
1.92187e+06
2.52846e+06
3.54066e+06
4.0264e+06
4.18065e+06
4.48855e+06
9.353e+06
1.45451e+07
1.44729e+07
8.94047e+06
4.3183e+06
3.86498e+06
3.7623e+06
3.45088e+06
2.62318e+06
1.8944e+06
1.51484e+06
1.26583e+06
1.11139e+06
1.0278e+06
988325
1.0335e+06
1.11373e+06
1.26674e+06
1.50683e+06
1.88457e+06
2.68803e+06
3.45499e+06
3.71379e+06
3.86424e+06
4.2487e+06
8.94593e+06
1.43079e+07
1.42567e+07
8.53964e+06
4.08513e+06
3.59233e+06
3.47048e+06
3.25897e+06
2.83381e+06
1.91528e+06
1.46592e+06
1.21862e+06
1.06525e+06
977430
937758
983448
1.06739e+06
1.2201e+06
1.46183e+06
1.94415e+06
2.85339e+06
3.2506e+06
3.41632e+06
3.59727e+06
4.09982e+06
8.59366e+06
1.41239e+07
1.40716e+07
8.18491e+06
3.94771e+06
3.36587e+06
3.21071e+06
3.06312e+06
2.88275e+06
2.10821e+06
1.44743e+06
1.17887e+06
1.02964e+06
940422
897202
946156
1.03071e+06
1.17895e+06
1.44515e+06
2.11136e+06
2.81711e+06
3.03693e+06
3.16219e+06
3.36187e+06
3.92421e+06
8.2053e+06
1.39532e+07
1.39041e+07
7.88512e+06
3.84801e+06
3.18508e+06
2.99646e+06
2.86315e+06
2.73162e+06
2.29794e+06
1.52798e+06
1.15029e+06
995944
909941
865025
915248
997674
1.1493e+06
1.52e+06
2.2963e+06
2.67311e+06
2.82592e+06
2.95145e+06
3.17249e+06
3.78515e+06
7.85151e+06
1.37678e+07
1.35629e+07
7.50316e+06
3.69455e+06
3.02323e+06
2.81116e+06
2.6724e+06
2.5705e+06
2.30494e+06
1.71368e+06
1.1594e+06
967468
881970
838365
887171
971486
1.16949e+06
1.73088e+06
2.30734e+06
2.52267e+06
2.6392e+06
2.77347e+06
3.0182e+06
3.6881e+06
7.50824e+06
1.34175e+07
1.30269e+07
7.08146e+06
3.54892e+06
2.87683e+06
2.65345e+06
2.50676e+06
2.40181e+06
2.20484e+06
1.88544e+06
1.25509e+06
955982
857205
814838
861976
961920
1.26725e+06
1.87673e+06
2.20337e+06
2.36399e+06
2.47591e+06
2.62116e+06
2.8714e+06
3.53615e+06
7.06353e+06
1.28745e+07
1.15546e+07
6.47222e+06
3.38795e+06
2.72988e+06
2.51221e+06
2.36212e+06
2.24456e+06
2.09144e+06
1.89448e+06
1.45245e+06
998186
844405
799134
847950
1.00617e+06
1.45099e+06
1.85906e+06
2.08532e+06
2.21428e+06
2.3353e+06
2.48277e+06
2.72085e+06
3.35924e+06
6.42957e+06
1.145e+07
195045
134003
123171
120792
119365
118702
118884
120060
122168
125208
129201
134172
140174
147182
155220
164308
174570
186366
200075
215388
228581
210312
179704
172036
169981
169135
168507
168189
171423
287833
143135
110793
106501
106389
106148
106657
107819
109976
112983
116769
121174
126205
131934
138285
145316
153146
161923
171712
182737
195083
208788
216706
171281
124872
115436
113740
112980
112742
114283
153846
118488
99685
97925.8
98717.5
98890.4
100130
101962
104921
108693
113139
117927
123137
129066
135275
141973
149313
157523
166303
175367
184922
194571
204113
200286
138251
100341
94010.9
92912.7
92735.2
93991.4
116305
111229
95987.4
94835.8
96046
96585.3
98362.6
100755
104391
108869
114056
119436
124848
131019
137660
144714
152138
159964
168568
177884
187042
196190
204890
212171
197914
121739
91160.1
86948.5
86476.6
87823.7
106668
110286
95353.7
94386.2
95844.9
96702.4
99036.2
102028
106358
111572
117472
123470
129323
135358
142426
149909
157600
165630
173882
182678
192431
201721
210226
218898
224822
195228
110650
87593.7
85063.4
86244.5
104484
110788
95263.3
94603
96033.3
97379.1
100303
104112
109303
115371
122031
128700
135121
141403
148430
156377
164284
172374
180642
189252
198319
207879
217151
226038
235576
238880
185231
102158
86141
86081.5
104096
112512
95769.9
95354.7
96961.8
98984.6
102756
107637
113837
120866
128349
135768
142801
149164
156005
163870
172015
180058
188187
196404
204983
214411
224414
234153
244188
254782
252064
167805
95485.6
86890.3
104256
114546
96695
96574
98639.6
101701
106714
112989
120434
128503
136807
144909
152150
158533
164900
172261
180458
188420
196352
204405
212696
221779
231939
242718
253396
265026
276068
261073
144374
91987.6
105137
116658
97820.2
98134.6
101063
105882
112724
120804
129733
138623
147290
155342
162595
168973
174963
181666
189342
197444
205181
213143
221288
230085
240055
251370
263298
275419
288679
298239
256118
121011
108690
118632
99036.3
100036
104271
110978
119724
129712
140229
150185
159107
167127
173980
180152
185516
191749
198618
206741
214309
222158
230267
238992
248789
260250
273205
286636
300486
314701
318537
219821
124792
120838
100506
102475
108230
117110
127996
140035
152044
163160
172396
180116
186227
191755
196628
201661
208069
215654
223261
230942
239104
247946
257794
269313
282781
297746
312938
328169
346094
333098
202647
123051
102352
105744
113613
125133
138369
152530
165749
177631
187074
194237
199343
204126
208112
211320
217356
224047
231829
239261
247445
256410
266513
278181
291812
307681
324819
341182
364352
391641
422243
126199
105028
110381
121052
135550
151427
167359
181362
193475
202572
208350
212557
216292
219270
221767
226260
232032
239648
246952
255090
264089
274472
286324
300047
316243
334226
352858
384891
470789
830385
129463
108738
116934
131240
149092
167193
184200
198409
209889
217706
221946
225253
227533
229523
231289
234205
239146
246339
253667
261790
270848
281438
293378
307203
323448
339092
365149
420051
628471
1.08342e+06
134791
114395
126263
144783
165788
185316
202370
215677
225415
231285
234071
235877
236777
237828
238975
240498
244668
251280
258849
266982
276220
286911
298906
312860
328938
345846
380231
477109
858210
1.1991e+06
140406
122564
139035
162059
185368
204753
220597
231673
238780
242320
243216
243393
243019
243242
243883
244456
248063
254147
262109
270329
279724
290315
302376
316479
332063
353594
403389
582250
1.17279e+06
1.25259e+06
150445
134541
156324
182568
206460
224019
237530
245214
249240
250040
248902
247494
246136
245663
245278
245331
248447
254169
262801
271266
280847
291393
303629
317858
332880
361038
438910
764132
1.34343e+06
1.25612e+06
159473
150191
177614
205390
227935
242504
252447
256537
257421
255043
251618
248559
246387
245335
244486
243972
245837
251215
260711
269440
279303
290106
302688
317215
335125
370899
497625
1.04314e+06
1.35048e+06
1.22805e+06
173730
170294
202263
229204
250179
261902
269341
270578
266578
259095
253205
248814
245804
243980
242322
241118
241452
246386
255734
264982
275385
286760
299845
314863
336218
385843
599922
1.28725e+06
1.30556e+06
1.20135e+06
184418
196375
231376
258822
280223
293303
300456
295359
283944
269682
260353
252873
246418
242121
237484
235222
233440
239070
248192
258407
269416
281460
295290
310847
337030
413137
779061
1.35391e+06
1.26789e+06
1.17825e+06
202676
228938
270524
302946
341706
357435
363478
348329
325461
298189
279392
264198
251673
240968
233484
229264
227199
230983
240592
250849
262256
275086
289531
305975
339168
465800
1.0061e+06
1.34561e+06
1.22379e+06
1.1521e+06
224587
286636
343983
421211
481041
497556
494568
461247
411489
357544
320956
289732
265997
248604
237762
230485
226056
227001
234863
244261
255211
268277
283089
302141
345171
561822
1.18816e+06
1.31619e+06
1.17802e+06
1.13351e+06
274328
378056
519152
644842
724441
735938
729375
662962
562871
464074
390246
334688
296134
268855
251082
238905
230501
227659
232618
239671
249515
261846
276616
298402
361129
726772
1.22672e+06
1.28081e+06
1.13814e+06
1.11485e+06
345510
759363
838769
939801
1.01682e+06
1.05819e+06
1.07242e+06
964460
803668
628164
495311
407033
348729
305195
275837
255765
241311
232790
233869
237733
245222
256231
270485
296058
396018
907874
1.21486e+06
1.23966e+06
1.10973e+06
1.09438e+06
545283
1.9439e+06
1.53927e+06
1.27025e+06
1.33787e+06
1.39765e+06
1.46924e+06
1.38296e+06
1.16129e+06
879656
656360
519431
433522
365955
316030
282211
254748
237546
233803
237373
242331
251875
264812
297153
460207
1.06629e+06
1.19241e+06
1.20214e+06
1.08464e+06
1.07178e+06
287835
171424
168190
168509
169136
169975
171980
179432
209357
228244
215235
199933
186225
174434
164182
155107
147086
140095
134107
129147
125176
122151
120056
118889
118713
119381
120809
123188
134050
195203
153847
114283
112741
112978
113732
115385
124475
169650
215965
208418
194756
182441
171441
161677
152923
145116
138107
131780
126069
121056
116676
112910
109922
107780
106626
106123
106366
106479
110772
143132
116306
93991.5
92734.2
92907.3
93978.1
100048
136680
199162
203551
194086
184488
174977
165950
157209
149028
141715
135042
128859
122918
117742
112993
108576
104832
101892
100073
98840
98669.5
97878.4
99638.4
118480
106668
87822.8
86472.6
86925.7
90952.1
120340
196290
211438
204290
195642
186549
177440
168167
159597
151803
144412
137387
130742
124630
119251
113905
108748
104295
100678
98300.1
96528.7
95991.4
94781.5
95934.2
111148
104483
86241.7
85047.9
87456.3
109531
192913
223943
218232
209581
201127
191903
182196
173437
165221
157226
149571
142117
135100
129107
123283
117313
111444
106258
101950
98969.9
96643.9
95788.9
94334.1
95305.1
110206
104093
86071.4
86056.9
101321
182425
237821
234868
225335
216468
207264
197758
188733
180164
171933
163876
156008
148086
141148
134882
128481
121842
115218
109184
104021
100233
97325.4
95982.6
94560.7
95223.5
110778
104244
86843.6
94923.4
164803
250697
254064
243469
233413
223733
213788
204402
195863
187688
179598
171585
163484
155641
148895
142613
135570
128165
120711
113720
107555
102702
98947.2
96932.7
95338.3
95752
112444
105093
91679.5
141892
259255
275356
264345
252653
241992
231273
221162
212123
203876
195866
187972
180036
171878
164533
158235
151768
144602
136610
128317
120307
112941
106697
101704
98650.8
96597.4
96715.1
114549
108506
119390
253167
297461
288068
274721
262557
250676
239407
229477
220728
212640
204722
197026
188948
181289
174530
168489
162151
154992
146956
138313
129609
120812
112815
105998
101146
98216.9
97892.7
116696
123961
216387
317472
314229
299905
285952
272525
259594
248159
238401
229726
221674
213868
206350
198249
191289
184906
179613
173593
166801
158990
150325
140433
129923
119962
111217
104490
100196
99176.7
118735
198790
331209
345770
327744
312364
297118
282150
268681
257176
247364
238574
230463
222816
215257
207685
200689
196378
191602
186057
179959
172363
163383
152408
140411
128299
117400
108515
102722
100724
121073
416366
390805
364119
340791
324292
307107
291200
277548
265891
255826
246906
238770
231363
223601
216965
211173
207991
204055
199296
194170
187230
178064
166246
153021
138751
125478
113959
106063
102647
123375
825173
469563
384558
352549
333768
315684
299430
285685
273845
263496
254537
246451
239185
231569
225910
221828
219311
216347
212634
208659
203025
193956
181971
167903
151895
135992
121470
110758
105394
126668
1.08279e+06
627210
419604
364822
338678
322890
306583
292745
280819
270266
261249
253186
245921
238747
233974
231463
229626
227606
225369
222684
218565
210448
199030
184797
167763
149650
131751
117370
109185
130101
1.20036e+06
858682
476529
379857
345422
328397
312260
298315
286341
275687
266497
258428
250958
244394
240465
239123
238048
236974
236585
235026
232319
226123
216311
202941
185936
166452
145431
126816
114913
135496
1.25503e+06
1.17685e+06
581836
403047
353219
331703
315925
301848
289817
279257
269899
261729
253928
247912
244659
244049
243720
243771
244265
244265
243251
239555
232369
221103
205335
186143
162866
139728
123058
141053
1.25947e+06
1.35007e+06
764937
438656
360762
332458
317385
303175
290969
280445
270889
262443
254065
248439
245869
245767
246417
246960
248459
249959
250913
249754
245838
238260
224837
207503
183703
157013
135053
150921
1.23165e+06
1.35743e+06
1.04816e+06
498007
370549
334732
316817
302276
289698
278917
269105
260363
251224
245935
244373
245063
246325
247416
249773
252693
255895
257892
257219
253551
243743
229302
206905
178843
150949
159992
1.20521e+06
1.31198e+06
1.29209e+06
601338
385639
335867
314498
299420
286315
274964
264668
255520
246377
241656
241594
243079
245102
247051
250245
254410
260394
267321
271563
270866
263708
251987
231020
204087
171450
174308
1.18305e+06
1.27347e+06
1.35821e+06
782448
413244
336703
310411
294840
281002
269002
258137
248223
238854
233988
235485
238075
243146
247628
254256
261482
270984
285574
297567
303099
296051
283462
261212
233361
197972
185354
1.15555e+06
1.22908e+06
1.34987e+06
1.01278e+06
466681
338795
305520
289055
274681
261965
250703
240754
231385
228214
230548
234913
242240
252772
265855
280271
299698
328980
353249
370222
363492
347372
305986
273484
231043
203864
1.13607e+06
1.18264e+06
1.32058e+06
1.19379e+06
564659
344911
301715
282635
267969
255096
244278
235138
227744
227274
232103
239786
250696
267856
292996
322069
360090
417159
469570
506992
509456
494174
429460
347699
290222
226177
1.1167e+06
1.14201e+06
1.28494e+06
1.23103e+06
732713
361326
298025
276247
261617
249437
239746
232906
228645
231883
240718
253657
271882
299044
339870
392891
469077
573786
676084
746671
747404
737029
663165
533242
384456
277534
1.09586e+06
1.1126e+06
1.24316e+06
1.21865e+06
915636
397354
295860
270108
256058
245155
237820
234188
233810
242787
258047
279014
309331
352308
414330
498310
636349
824562
993854
1.09767e+06
1.07238e+06
1.02468e+06
953195
860207
776006
350847
1.07314e+06
1.08727e+06
1.20483e+06
1.19598e+06
1.07456e+06
463783
297113
264513
251767
242584
237741
235184
238740
256339
284930
319192
370414
436510
527994
659015
885714
1.18021e+06
1.4135e+06
1.49791e+06
1.41248e+06
1.35453e+06
1.2886e+06
1.57849e+06
1.96937e+06
553236
102740
102740
102748
102755
102761
102768
102775
102782
102789
102796
102803
102809
102816
102823
102830
102837
102844
102850
102857
102864
102871
102878
102884
102891
102898
102905
102912
102918
102925
102932
102939
102945
102952
102959
102965
102972
102979
102985
102992
102999
103005
103012
103019
103025
103032
103039
103051
103188
106769
272538
3.12373e+06
7.96625e+06
1.06341e+07
1.07734e+07
1.04105e+07
9.93678e+06
9.26849e+06
8.455e+06
7.69822e+06
7.05023e+06
6.51642e+06
6.0988e+06
5.75417e+06
5.49164e+06
5.29746e+06
5.11484e+06
4.92589e+06
4.72078e+06
4.50045e+06
4.263e+06
4.01162e+06
3.75716e+06
3.50181e+06
3.24406e+06
2.99467e+06
2.76509e+06
2.56137e+06
2.38321e+06
2.22624e+06
2.08517e+06
1.95568e+06
1.83701e+06
1.72922e+06
1.63117e+06
1.54117e+06
1.45887e+06
1.38393e+06
1.31549e+06
1.2529e+06
1.19546e+06
1.14276e+06
1.09373e+06
1.04841e+06
1.00859e+06
973884
943615
917115
893830
873369
855944
841926
830695
821464
813975
808288
804334
801979
801018
801502
803432
806811
811810
818671
827218
837406
849470
863874
880834
900375
922445
946479
971126
996411
1.02246e+06
1.04804e+06
85818.8
85815.7
85815.4
85815.4
85815.3
85815.2
85815.1
85815
85814.8
85814.6
85814.4
85814.2
85814
85813.7
85813.4
85813.1
85812.7
85812.3
85812
85811.5
85811.1
85810.7
85810.2
85809.7
85809.2
85808.6
85808.1
85807.5
85806.9
85806.3
85805.6
85805
85804.3
85803.6
85802.8
85802.1
85801.3
85800.6
85799.8
85798.9
85798.1
85797.2
85796.4
85795.5
85794.7
85797.6
85912.4
98115.1
688348
4.68621e+06
8.0727e+06
8.28223e+06
8.46724e+06
8.8893e+06
9.54307e+06
1.07825e+07
1.11999e+07
1.08003e+07
1.02186e+07
9.62423e+06
9.00853e+06
8.40896e+06
7.83014e+06
7.27777e+06
6.77959e+06
6.3292e+06
5.89644e+06
5.48581e+06
5.10705e+06
4.76366e+06
4.45275e+06
4.16539e+06
3.89708e+06
3.65355e+06
3.42933e+06
3.21934e+06
3.022e+06
2.83654e+06
2.66398e+06
2.50673e+06
2.36405e+06
2.2336e+06
2.11511e+06
2.00584e+06
1.9039e+06
1.80906e+06
1.72158e+06
1.64113e+06
1.56851e+06
1.50212e+06
1.44103e+06
1.3843e+06
1.33186e+06
1.28227e+06
1.23769e+06
1.19775e+06
1.16232e+06
1.13097e+06
1.10271e+06
1.07744e+06
1.05476e+06
1.03399e+06
1.01487e+06
997296
981827
968579
957239
947335
938873
931884
926589
923339
922551
923958
927166
931636
937930
946853
958434
972145
987653
1.0047e+06
1.02293e+06
1.04261e+06
1.06415e+06
84157.7
84155.9
84154.9
84153.9
84153
84152.1
84151.1
84150.2
84149.2
84148.3
84147.3
84146.4
84145.4
84144.5
84143.5
84142.6
84141.6
84140.7
84139.7
84138.8
84137.8
84136.9
84135.9
84135
84134
84133.1
84132.1
84131.2
84130.2
84129.3
84128.3
84127.4
84126.4
84125.5
84124.5
84123.6
84122.6
84121.7
84120.8
84119.8
84118.9
84117.9
84117
84116.2
84118.6
84257.4
102823
1.00732e+06
5.43649e+06
7.44456e+06
6.74696e+06
5.84908e+06
5.25152e+06
4.93681e+06
4.86934e+06
5.15977e+06
5.88798e+06
7.02199e+06
8.61199e+06
1.06916e+07
1.26481e+07
1.33615e+07
1.34837e+07
1.32858e+07
1.27281e+07
1.18967e+07
1.08898e+07
9.90831e+06
8.98633e+06
8.16027e+06
7.44901e+06
6.80179e+06
6.21413e+06
5.67578e+06
5.18568e+06
4.74505e+06
4.35334e+06
4.00433e+06
3.69018e+06
3.41199e+06
3.16451e+06
2.94672e+06
2.75308e+06
2.57854e+06
2.42109e+06
2.28017e+06
2.15369e+06
2.0398e+06
1.93821e+06
1.84803e+06
1.76781e+06
1.69499e+06
1.62777e+06
1.56566e+06
1.50792e+06
1.45645e+06
1.4103e+06
1.36917e+06
1.33121e+06
1.29689e+06
1.26634e+06
1.2383e+06
1.21202e+06
1.18849e+06