/*--------------------------------*- C++ -*----------------------------------*\
| =========                 |                                                 |
| \\      /  F ield         | OpenFOAM: The Open Source CFD Toolbox           |
|  \\    /   O peration     | Version:  2112                                  |
|   \\  /    A nd           | Website:  www.openfoam.com                      |
|    \\/     M anipulation  |                                                 |
\*---------------------------------------------------------------------------*/
FoamFile
{
    version     2.0;
    format      ascii;
    arch        "LSB;label=32;scalar=64";
    class       surfaceScalarField;
    location    "0.00527";
    object      phi;
}
// * * * * * * * * * * * * * * * * * * * * * * * * * * * * * * * * * * * * * //

dimensions      [1 0 -1 0 0 0 0];

oriented        oriented;

internalField   nonuniform List<scalar> 
27436
(
-0.533462
8.19281
-0.0933805
7.47171
-0.0848138
7.78702
-0.0702487
7.7863
-0.0633728
7.78802
-0.0473292
7.78107
-0.0389446
7.78885
-0.03594
7.79335
-0.0270584
7.78892
-0.0161364
7.78672
-0.007699
7.7889
0.00111472
7.78866
0.0142443
7.78382
0.0326452
7.77979
0.0461608
7.78361
0.0525984
7.79003
0.0579721
7.79096
0.0660719
7.78981
0.075583
7.78841
0.0904085
7.782
0.0965356
7.78836
0.111489
7.78596
0.123629
7.78268
0.572499
7.46084
8.21273
-0.24718
8.43998
-0.0961166
7.32061
-0.0812169
7.77213
-0.0546662
7.75981
-0.0590414
7.7928
-0.0617139
7.78382
-0.0392022
7.76736
-0.0291304
7.7846
-0.0199172
7.77901
-0.00856565
7.77777
0.00150779
7.77884
0.0151994
7.77474
0.01507
7.78387
0.0216693
7.77309
0.0208644
7.78396
0.0377358
7.77242
0.0471445
7.78094
0.0587481
7.77739
0.0817618
7.7649
0.0776387
7.78601
0.0721589
7.79356
0.102642
7.75524
0.114032
7.77125
0.268222
7.30574
8.48515
-0.227243
8.66721
-0.141146
7.2345
-0.120623
7.75172
-0.107554
7.74711
-0.10474
7.78991
-0.105715
7.78395
-0.0885999
7.74894
-0.0769703
7.76909
-0.066933
7.76721
-0.0504404
7.762
-0.0367308
7.76965
-0.0141181
7.75172
-0.0125154
7.78233
-0.0107654
7.77111
-0.00765864
7.78068
0.0108216
7.75209
0.0237765
7.76993
0.0484624
7.75407
0.06134
7.75244
0.0596422
7.78823
0.0639654
7.78925
0.078395
7.74058
0.100323
7.74893
0.192155
7.21546
8.68257
-0.169553
8.83678
-0.139542
7.20447
-0.134367
7.74669
-0.113323
7.72632
-0.113085
7.78954
-0.108147
7.7782
-0.0889019
7.72841
-0.0762576
7.75519
-0.0624003
7.75366
-0.0438006
7.74529
-0.0267171
7.75353
-0.00566671
7.73141
0.00305471
7.77368
0.00564324
7.76828
0.0154245
7.77077
0.0326376
7.73489
0.0482637
7.75475
0.0704104
7.73334
0.0894
7.73411
0.094636
7.78368
0.0945722
7.78941
0.118694
7.71603
0.111455
7.75602
0.161853
7.16646
8.84315
-0.0736402
8.91042
-0.0367102
7.16751
-0.0927455
7.80286
-0.0626081
7.69675
-0.0689641
7.79603
-0.0666473
7.77593
-0.0523499
7.71226
-0.0420752
7.74324
-0.0301715
7.74267
-0.0143159
7.73108
0.00155592
7.73847
0.0189907
7.71485
0.0270833
7.76575
0.028165
7.76695
0.0378276
7.76123
0.0512148
7.72198
0.063058
7.74353
0.0827432
7.71497
0.098225
7.71945
0.101647
7.78083
0.0970801
7.79404
0.12448
7.68839
0.0901508
7.79021
0.0978945
7.15873
8.93606
0.118449
8.79196
0.0435975
7.24228
-0.0502176
7.89678
-0.0123162
7.65904
-0.0308161
7.81464
-0.0336409
7.77736
-0.025398
7.7033
-0.0205258
7.73597
-0.0130854
7.73648
-0.0014964
7.72021
0.00941373
7.72875
0.0222656
7.7029
0.0261912
7.76239
0.025673
7.76734
0.0303249
7.75694
0.0383893
7.71394
0.0443419
7.73833
0.0586453
7.70153
0.0698821
7.70907
0.0699779
7.78109
0.052706
7.81145
0.0881061
7.65283
-0.0136237
7.89196
-0.0196887
7.16492
8.9124
0.304482
8.48746
0.135819
7.41085
-0.00695346
8.03957
0.0224737
7.62983
-0.0215231
7.85895
-0.0466687
7.80316
-0.061274
7.7163
-0.0781206
7.75137
-0.0904721
7.75037
-0.0936919
7.72369
-0.107394
7.74335
-0.116244
7.7126
-0.128842
7.77597
-0.145917
7.78435
-0.156067
7.76725
-0.172456
7.73064
-0.187304
7.75388
-0.19256
7.70766
-0.205764
7.72317
-0.227229
7.80328
-0.26223
7.84659
-0.28481
7.67529
-0.354296
7.96149
-0.657221
7.46819
8.25284
0.873183
7.61422
0.521752
7.76215
0.410719
8.15072
0.332731
7.70795
0.269244
7.92294
0.227187
7.84437
0.190781
7.75162
0.159862
7.78061
0.134476
7.77878
0.11737
7.7439
0.0888622
7.77129
0.0650548
7.73734
0.039974
7.80233
0.00797616
7.81634
-0.0195041
7.79451
-0.0493537
7.76036
-0.0774246
7.78253
-0.100103
7.73198
-0.128385
7.75304
-0.165514
7.8403
-0.227824
7.90912
-0.279466
7.727
-0.406994
8.08943
-0.693369
7.75481
7.56018
0.592759
7.02134
0.409805
7.94491
0.23755
8.32321
0.187861
7.75827
0.129315
7.98212
0.0968132
7.87633
0.0811991
7.76512
0.0713821
7.78705
0.0714299
7.78298
0.0787471
7.74737
0.0775404
7.77024
0.0752414
7.7403
0.080197
7.79871
0.0785634
7.81796
0.0766725
7.79563
0.0682961
7.76791
0.0643041
7.78734
0.0639746
7.73457
0.0589053
7.75986
0.0322231
7.86792
-0.0257456
7.9672
-0.0468444
7.74806
-0.219781
8.2621
-0.371998
7.90655
7.19158
-3.05159
10.0719
-3.39181
8.28534
-2.76605
7.69831
-2.62376
7.6162
-2.30485
7.66349
-1.93281
7.50289
-1.66136
7.49466
-1.38004
7.50459
-1.08255
7.4929
-0.78013
7.45797
-0.489951
7.47557
-0.205538
7.4572
0.100851
7.49325
0.404072
7.51473
0.693163
7.50542
0.964876
7.49462
1.2593
7.49369
1.54064
7.45401
1.83416
7.46726
2.20014
7.50298
2.50936
7.65912
2.65051
7.60814
3.22974
7.68408
2.94997
8.18788
10.1443
-4.2586
14.3283
-4.36377
8.39147
-4.17956
7.51761
-3.86798
7.30565
-3.30624
7.0998
-2.81453
7.0099
-2.37714
7.05909
-1.92735
7.05766
-1.46489
7.03944
-1.01261
7.01349
-0.563262
7.02227
-0.118552
7.01453
0.345231
7.03
0.813754
7.04632
1.25941
7.05868
1.68116
7.07054
2.13234
7.04215
2.56892
7.01747
3.01919
7.01677
3.54849
6.97455
4.11512
7.09393
4.43341
7.29591
4.59387
7.52202
4.5489
8.23083
14.6924
-2.75321
17.0778
-4.8531
10.4976
-4.95502
7.62679
-4.13093
6.47825
-3.63961
6.60272
-3.20976
6.57828
-2.72235
6.57436
-2.21728
6.5575
-1.70388
6.53254
-1.2144
6.5249
-0.725388
6.53253
-0.239606
6.53172
0.262716
6.52816
0.765306
6.54411
1.25906
6.56462
1.74276
6.58492
2.22604
6.55778
2.70463
6.5383
3.19629
6.52495
3.66154
6.50577
4.23312
6.52202
5.09571
6.43722
4.72654
7.8972
2.76063
10.1976
17.453
2.3664
14.7083
0.18297
12.6929
-4.9538
12.7767
-3.8896
5.42066
-3.79839
6.50482
-3.35237
6.12877
-2.91316
6.13655
-2.39564
6.0454
-1.85738
5.99907
-1.33791
6.00424
-0.819196
6.01665
-0.306264
6.02243
0.217329
6.00526
0.750868
6.01117
1.27954
6.03701
1.80512
6.05931
2.31447
6.04767
2.79437
6.05687
3.21867
6.10081
3.71451
6.00977
3.95311
6.28393
5.0839
5.30693
-0.100328
13.0723
-2.39602
12.4912
15.0541
2.45799
12.2493
3.5352
11.6251
3.57314
12.7653
-0.739899
9.71902
-3.51005
9.25772
-3.23947
5.84122
-2.9917
5.88413
-2.50954
5.56664
-1.97673
5.4715
-1.47273
5.50288
-0.972108
5.52077
-0.466868
5.51977
0.0290823
5.51
0.525348
5.51597
1.02961
5.53488
1.54384
5.54857
2.06361
5.52857
2.51855
5.60205
2.64755
5.97335
2.86382
5.77837
-0.138998
9.2866
-4.31988
9.50313
-3.99838
12.7634
-2.96048
11.4503
12.0976
1.86956
10.3787
3.83782
9.65813
5.51954
11.1059
4.99741
10.2468
4.03007
10.1954
-1.43031
11.2442
-2.62731
7.07482
-2.32707
5.2671
-1.78785
4.93785
-1.22381
4.94653
-0.655358
4.9565
-0.0792091
4.94719
0.487925
4.94596
1.05293
4.95463
1.61836
4.97439
2.19648
4.97978
2.75215
4.98508
3.13172
5.22871
1.80554
7.30866
-3.53705
11.1472
-4.33117
10.0802
-4.6903
9.86562
-2.99102
11.0505
-1.32697
9.78613
10.7715
0.936139
9.44729
2.03633
8.56377
3.7354
9.41362
4.74775
9.24724
5.16887
9.78294
5.91502
10.5216
2.6885
10.3012
1.71626
6.23943
0.787711
5.87617
0.225433
5.51804
0.0879781
5.10133
0.176539
4.86795
0.347236
4.78129
0.459569
4.85053
0.360616
5.08185
-0.193239
5.53972
-1.20555
6.00789
-2.27158
6.30259
-5.12668
10.187
-4.38727
10.4222
-3.83084
9.51805
-3.24861
9.28312
-1.70895
9.50084
-0.630995
8.72038
10.1454
2.05171
7.39687
3.11169
7.50781
4.42679
8.11556
5.45229
8.21733
6.72855
8.53264
6.1926
11.063
3.45057
13.0518
0.85016
8.86966
0.443948
6.31805
0.0760909
5.92629
-0.0701339
5.29743
-0.0707076
4.91405
0.0878824
4.66871
0.194187
4.78619
0.0870186
5.23458
-0.382444
6.05018
-1.03608
6.70844
-3.69282
9.00172
-6.45317
12.9689
-6.95135
10.9158
-5.9181
8.48413
-4.97795
8.35029
-3.73061
8.26509
-2.61013
7.60204
7.53712
2.50606
4.90355
4.01595
6.00543
4.01547
8.09428
3.68478
8.62029
2.80778
9.46345
1.58049
12.279
1.50705
13.1473
1.27923
9.11397
0.97511
6.61711
0.879922
6.02516
0.557569
5.63269
0.0712654
5.41545
-0.537496
5.28995
-1.10793
5.36358
-1.50526
5.63525
-1.59036
6.13422
-1.71778
6.83148
-2.10238
9.40093
-2.71571
13.576
-4.54787
12.7389
-5.31687
9.29136
-5.61128
8.68457
-5.0036
7.65484
-2.94017
5.54609
4.61269
3.2029
1.69916
6.23569
2.97575
8.20785
6.14376
6.70429
10.1789
4.89103
11.2567
5.27197
11.8646
6.11218
12.295
4.71049
10.5325
3.27369
8.05172
2.3473
6.94641
1.50522
6.47423
0.647575
6.27397
-0.250169
6.18834
-1.14087
6.2511
-2.03489
6.52098
-2.98734
7.07163
-4.31777
8.14282
-5.35479
10.413
-4.22172
12.4034
-3.6513
12.1423
-5.66755
11.3207
-7.33919
10.3401
-5.62264
5.97255
-2.93212
2.87662
1.68191
1.21753
0.455453
2.83615
1.33264
4.51246
4.44432
5.14009
9.59038
5.07106
11.3096
5.40083
11.5151
5.71272
11.967
4.87349
11.3667
3.43849
9.47876
2.25539
8.12027
1.23581
7.48988
0.262281
7.24463
-0.711526
7.15812
-1.71713
7.24937
-2.77893
7.57097
-3.98257
8.26024
-5.38901
9.53107
-6.26489
11.2719
-5.90311
12.0138
-5.32633
11.5487
-5.49535
11.5025
-4.70621
9.57321
-2.88983
4.172
-1.22988
1.20508
0.440378
0.487019
-0.0983351
0.195554
1.59104
0.110138
4.53373
1.0998
8.56702
2.29629
10.0973
3.15008
10.655
3.64005
11.4619
3.39264
11.6002
2.54096
10.3162
1.6432
9.00881
0.829054
8.29766
0.0552886
8.01296
-0.730449
7.93695
-1.52469
8.03473
-2.37713
8.41192
-3.29687
9.16941
-4.11183
10.3287
-4.3091
11.4423
-3.68044
11.367
-2.81048
10.65
-1.59817
10.2571
-0.419721
8.44453
-0.448627
4.11926
-0.469655
1.19401
-0.0634258
-0.156748
0.0807705
-0.593656
2.14733
-1.41438
5.27661
-0.420096
7.54567
0.676743
8.98485
1.55836
9.77502
2.09123
10.9179
2.07996
11.5963
1.66955
10.7135
1.13995
9.53325
0.627768
8.80607
0.113334
8.52012
-0.404956
8.44551
-0.922848
8.54443
-1.42158
8.90547
-1.90446
9.65181
-2.24616
10.668
-2.21882
11.3989
-1.61508
10.7529
-0.67889
9.70166
0.437058
9.10022
1.38946
7.47595
0.620933
4.90013
0.179317
1.65072
0.140785
-0.758719
0.801959
-1.42367
2.95674
-1.90097
5.70218
-1.50179
7.1299
-0.584472
8.05981
0.191928
9.00351
0.605822
10.5023
0.831942
11.3632
0.848089
10.696
0.691768
9.69558
0.446456
9.05011
0.187315
8.77156
-0.0885307
8.71084
-0.336141
8.78642
-0.543365
9.1132
-0.636152
9.75067
-0.559915
10.5999
-0.345275
11.1836
0.0284314
10.3766
0.841302
8.87759
1.8035
8.11143
2.19937
7.06295
1.83095
5.36121
0.809703
2.75645
0.94685
-0.93972
1.7504
-1.90513
4.07765
-2.32765
6.17219
-2.22757
7.0302
-1.70734
7.53578
-1.30349
8.60164
-0.841799
10.0427
-0.412471
10.937
-0.120791
10.4148
-0.0199681
9.60191
-0.00828561
9.04041
-0.0676701
8.82529
-0.133811
8.77112
-0.187406
8.83847
-0.170529
9.10315
-0.0618369
9.651
0.203405
10.3455
0.628791
10.7703
1.10072
9.90149
1.51308
8.46695
2.09065
7.52663
2.32789
6.83042
2.04814
5.70749
0.92301
3.94268
1.88802
-0.850313
2.64183
-1.74662
5.08267
-1.98645
6.43923
-2.13869
7.20154
-1.93676
7.3335
-1.70305
8.3649
-1.31686
9.6652
-0.804948
10.4388
-0.404437
10.0277
-0.189248
9.40022
-0.113836
8.9681
-0.0674933
8.78065
-0.0389963
8.74551
0.0099024
8.79486
0.110107
9.01051
0.334674
9.43725
0.725577
9.95996
1.23198
10.2701
1.60709
9.52311
1.84643
8.23338
2.09018
7.28273
1.98885
6.96986
1.67662
6.07983
0.676333
4.99937
2.59848
-0.613745
3.2854
-1.56857
6.07364
-1.97787
6.87728
-2.17654
7.41914
-2.13594
7.30526
-1.98632
8.22551
-1.61326
9.30878
-1.0902
9.92631
-0.640132
9.58785
-0.34376
9.10949
-0.145751
8.77562
0.00395998
8.64251
0.148242
8.61363
0.304686
8.65201
0.522036
8.80371
0.83586
9.13012
1.27865
9.51874
1.78151
9.76449
2.12755
9.16775
2.2553
8.1073
2.32911
7.21462
2.14631
7.18508
1.63025
6.65379
0.716555
5.96425
3.34692
-0.685729
3.99024
-1.69497
7.08837
-2.13978
7.34286
-2.34081
7.62994
-2.43004
7.3855
-2.35329
8.17243
-2.03122
8.98667
-1.51754
9.41402
-1.04327
9.1149
-0.686868
8.75842
-0.447856
8.55038
-0.226804
8.44319
-0.0238598
8.43244
0.196815
8.45324
0.440445
8.5735
0.78386
8.7928
1.23025
9.06764
1.72147
9.26772
2.04224
8.82915
2.14179
8.00862
2.10334
7.26113
1.93124
7.38619
1.4504
7.19254
0.50101
6.97441
3.85811
-0.402469
4.40439
-1.34247
8.03307
-1.8871
7.89792
-2.10184
7.85055
-2.19626
7.47394
-2.12871
8.10454
-1.81833
8.67572
-1.37543
8.96335
-0.952448
8.68612
-0.616995
8.42552
-0.31738
8.27535
-0.0652548
8.22048
0.187303
8.20835
0.442015
8.22855
0.747375
8.29231
1.09756
8.4442
1.5163
8.64269
1.94084
8.82605
2.21578
8.53872
2.24153
7.9725
2.21597
7.28529
1.90674
7.7239
1.36077
7.78755
0.526358
7.85913
4.35976
-0.403406
4.84577
-1.31384
8.92799
-1.84082
8.4308
-1.94397
7.94438
-2.1248
7.64992
-2.08451
8.06606
-1.81608
8.3949
-1.38904
8.51992
-0.972208
8.25912
-0.608916
8.07247
-0.306819
8.00397
-0.01524
7.96179
0.259384
7.96522
0.552959
7.96868
0.852301
8.02237
1.21773
8.093
1.63833
8.21255
2.05237
8.40175
2.31222
8.26387
2.33378
7.94337
2.1276
7.49616
2.02293
7.84827
1.47859
8.37839
0.582412
8.79997
4.90202
-0.674281
5.58069
-1.47148
9.72638
-2.06422
9.02298
-2.17554
8.04585
-2.2519
7.71878
-2.30275
8.1074
-2.06087
8.14322
-1.67957
8.12554
-1.28168
7.85506
-0.939106
7.74621
-0.600179
7.69883
-0.299974
7.69329
0.00116184
7.69445
0.30591
7.69781
0.654255
7.70971
1.00213
7.76588
1.36175
7.84326
1.71782
8.04374
1.94535
8.02259
1.91744
7.95693
1.87645
7.53254
1.74072
7.99252
1.17631
8.972
0.413224
9.58295
5.29207
-0.439929
6.08057
-1.21136
10.4944
-1.87718
9.68099
-1.85289
8.00963
-1.9149
7.77208
-1.9229
8.11808
-1.72868
7.94023
-1.39203
7.77977
-1.04175
7.50563
-0.688337
7.41827
-0.376681
7.41615
-0.0654472
7.40831
0.231503
7.42276
0.541874
7.41559
0.848153
7.43575
1.19969
7.4428
1.56445
7.4846
1.89259
7.70026
2.05651
7.86243
2.00969
8.00093
1.91118
7.61245
1.94822
7.95646
1.34035
9.598
0.594032
10.3422
5.90104
-0.319211
6.45788
-0.9277
11.0964
-1.64083
10.4264
-1.70084
8.07431
-1.76431
7.82216
-1.70639
8.05467
-1.50243
7.72756
-1.24469
7.51892
-0.950679
7.22022
-0.666999
7.16397
-0.352971
7.12165
-0.0686328
7.14285
0.224321
7.14798
0.505664
7.15396
0.824258
7.14201
1.11652
7.17408
1.39545
7.21894
1.63953
7.45416
1.85535
7.64778
1.90419
7.94358
1.8364
7.68345
1.89096
7.90579
1.23271
10.268
0.516934
11.0594
6.47332
-0.576787
7.0876
-1.08488
11.6103
-1.75786
11.1589
-1.79166
8.12581
-1.88124
7.90213
-1.8004
7.97909
-1.63631
7.56417
-1.35916
7.25009
-1.08427
6.95577
-0.773003
6.87584
-0.505068
6.86337
-0.219264
6.86645
0.0535927
6.88517
0.341957
6.87576
0.613749
6.88206
0.912548
6.89583
1.19428
6.94685
1.45986
7.20405
1.59531
7.50898
1.66484
7.87152
1.57144
7.7759
1.51761
7.97462
0.76104
11.0688
0.385625
11.4369
6.89457
-0.329883
7.45241
-0.644612
11.9028
-1.19434
11.7601
-1.65508
8.61581
-1.68776
7.94043
-1.53516
7.82204
-1.31447
7.34938
-1.09669
7.04165
-0.836463
6.70462
-0.600519
6.64548
-0.320977
6.5857
-0.0650055
6.61293
0.205634
6.61804
0.459756
6.62333
0.741324
6.60261
0.981075
6.66347
1.21999
6.70788
1.44525
6.99691
1.67572
7.28914
1.80699
7.74464
1.7809
7.80411
1.35534
8.42295
0.822534
11.6317
0.514265
11.7433
7.42638
-0.198155
7.67203
-0.253952
11.9411
-0.760006
12.2814
-1.42215
9.33062
-1.42376
7.95371
-1.36045
7.765
-1.20588
7.19389
-0.992258
6.84041
-0.769062
6.48168
-0.513537
6.38214
-0.305157
6.36884
-0.0664529
6.36932
0.16182
6.38707
0.401036
6.3804
0.606904
6.38938
0.857503
6.40864
1.09232
6.46437
1.28993
6.8005
1.4259
7.14652
1.52144
7.65277
1.6044
7.72014
0.927552
9.11415
0.420624
12.1657
0.30854
11.8655
7.74511
-0.449393
8.1295
-0.363438
11.841
-0.690235
12.6229
-1.48323
10.1663
-1.54753
8.0229
-1.4409
7.64829
-1.24496
7.01835
-1.03084
6.62179
-0.819518
6.26074
-0.640515
6.18631
-0.403925
6.12187
-0.19287
6.14848
0.036677
6.1509
0.251962
6.1551
0.49362
6.1344
0.678626
6.21007
0.859462
6.2712
1.07967
6.56018
1.27993
6.97254
1.34041
7.58072
1.19806
7.86495
0.373592
9.94894
0.0349058
12.5258
0.105579
11.8169
7.87628
-0.157145
8.26736
-0.024394
11.7185
-0.213778
12.8334
-0.931108
10.9706
-1.35685
8.4659
-1.16195
7.44864
-1.04569
6.92123
-0.845564
6.40619
-0.652118
6.04614
-0.436324
5.9477
-0.255501
5.92311
-0.0430546
5.92406
0.157181
5.94017
0.367495
5.93182
0.542173
5.93948
0.754707
5.97423
0.958474
6.04213
1.14459
6.33535
1.25383
6.87415
1.44888
7.37571
1.17109
8.13944
0.379719
10.7571
0.222976
12.6809
0.24646
11.8035
8.13231
0.093482
8.12855
0.136772
11.6841
0.17842
12.7922
-0.42872
11.5897
-1.11045
9.16938
-1.02189
7.35767
-0.915019
6.80195
-0.749302
6.21148
-0.569433
5.83571
-0.423655
5.78115
-0.229692
5.71275
-0.0556195
5.73787
0.137596
5.73489
0.308356
5.74714
0.503533
5.72393
0.651433
5.80381
0.811971
5.8579
0.997472
6.11125
1.14714
6.71263
1.30486
7.21009
0.630088
8.81695
-0.0391391
11.4628
-0.0393133
12.695
0.0248291
11.75
8.14776
-0.158036
8.22128
-0.200819
11.743
0.048419
12.5629
-0.298135
11.9529
-1.01067
9.88591
-1.09585
7.43088
-0.950339
6.642
-0.80993
6.04079
-0.664089
5.66771
-0.475064
5.57318
-0.319459
5.53864
-0.14293
5.55053
0.0198618
5.56016
0.197223
5.55563
0.34858
5.55248
0.536245
5.59093
0.693741
5.67278
0.795677
5.97709
0.851225
6.6338
0.781767
7.25659
-0.0195599
9.6215
-0.3113
11.7849
-0.120595
12.4955
-0.0826466
11.6922
8.01573
-0.00249355
8.17884
0.0430285
11.6901
0.327626
12.2154
0.195498
12.0999
-0.557118
10.6253
-0.940758
7.79281
-0.732869
6.40797
-0.63416
5.91254
-0.48802
5.50188
-0.365876
5.43462
-0.196932
5.35188
-0.0402998
5.38349
0.13361
5.37432
0.286028
5.39017
0.458287
5.35957
0.580731
5.44796
0.714266
5.51502
0.845229
5.81832
1.08236
6.36992
0.764153
7.55467
-0.074306
10.46
-0.168559
11.9216
0.123242
12.1601
0.14776
11.6284
8.09778
0.0803411
8.07327
0.159372
11.5955
0.359886
11.9632
0.60477
11.8582
0.00671201
11.1983
-0.588284
8.34095
-0.644131
6.43225
-0.550479
5.79391
-0.467765
5.39825
-0.310164
5.2637
-0.183724
5.21558
-0.0341609
5.22564
0.103938
5.22654
0.255735
5.22794
0.379383
5.2229
0.542877
5.26915
0.635273
5.40316
0.748964
5.68894
0.756236
6.32684
0.210927
8.06257
-0.456698
11.1054
-0.227374
11.6976
0.0269779
11.8703
0.0411701
11.5778
8.08126
-0.108163
8.16168
-0.0652301
11.5324
0.0937793
11.7664
0.440844
11.4991
0.0557796
11.5614
-0.546696
8.88573
-0.700081
6.54983
-0.577249
5.64459
-0.476543
5.2903
-0.39216
5.16494
-0.256977
5.07355
-0.1286
5.09095
0.0195745
5.07149
0.155805
5.08269
0.298872
5.07158
0.381536
5.17384
0.46628
5.30184
0.578445
5.56647
0.373792
6.50072
-0.399778
8.78835
-0.700786
11.4107
-0.34637
11.3092
-0.198403
11.6934
-0.11349
11.4681
7.92996
0.0350306
8.10976
0.096767
11.4435
0.199639
11.6392
0.515231
11.1822
0.675348
11.3831
0.00900923
9.47501
-0.450887
6.97531
-0.48328
5.66152
-0.381008
5.18084
-0.266481
5.04345
-0.161286
4.96626
-0.0264778
4.95142
0.0969141
4.94219
0.228205
4.94636
0.331347
4.9632
0.462562
5.03587
0.553981
5.20226
0.5362
5.58164
0.0996253
6.90426
-0.554245
9.3809
-0.376378
11.2134
-0.0845686
11.0099
0.0617019
11.5235
0.109443
11.4109
8.02391
0.138959
7.95219
0.298736
11.2641
0.327672
11.5879
0.520954
10.9846
0.923789
10.9701
0.309414
10.0607
-0.176346
7.43661
-0.358991
5.82732
-0.290431
5.10887
-0.232374
4.9786
-0.138966
4.8759
-0.0296665
4.83887
0.0957217
4.81541
0.199684
4.8374
0.297493
4.8672
0.364742
4.96257
0.459089
5.10152
0.314938
5.72257
-0.194957
7.38958
-0.794197
9.94734
-0.382632
10.7958
-0.195634
10.8112
-0.147174
11.4585
-0.0446058
11.3004
7.97471
-0.0574511
8.00607
0.0416721
11.1555
0.0716972
11.5285
0.308443
10.7418
0.765625
10.5153
0.68551
10.1148
-0.0184861
8.11526
-0.378678
6.17269
-0.352187
5.07703
-0.269308
4.88685
-0.186606
4.79817
-0.0874138
4.74242
0.0132897
4.71978
0.113353
4.73876
0.189355
4.79511
0.258913
4.88872
0.284351
5.07532
-0.090666
6.09911
-0.944697
8.21194
-0.918305
9.89716
-0.511279
10.386
-0.318677
10.6129
-0.303475
11.4314
-0.119075
11.1135
7.8549
0.0731525
7.93097
0.26093
10.9707
0.290423
11.4816
0.443435
10.5702
0.772893
10.1819
0.965589
9.90298
0.350869
8.70538
-0.100745
6.61784
-0.206123
5.18225
-0.18577
4.86586
-0.105278
4.7227
-0.0215671
4.66247
0.0688401
4.62972
0.152653
4.65669
0.236589
4.71379
0.268945
4.85516
0.179632
5.16861
-0.286249
6.5703
-0.888528
8.79754
-0.663937
9.6557
-0.347023
10.0648
-0.201346
10.4695
-0.179526
11.4015
-0.0123944
10.9461
7.8451
0.119929
7.81393
0.33792
10.7602
0.409277
11.3967
0.524775
10.4628
0.741068
9.96844
1.16216
9.47833
0.962282
8.88454
0.155028
7.38301
-0.104228
5.45261
-0.120043
4.88667
-0.0639033
4.67316
-0.000882846
4.60095
0.058858
4.57501
0.128734
4.59008
0.191034
4.65695
0.188977
4.85922
-0.0719709
5.44086
-0.877061
7.37057
-1.00237
8.90706
-0.658389
9.31597
-0.418871
9.83347
-0.301648
10.3578
-0.239065
11.3319
-0.0471051
10.7512
7.79731
0.00703654
7.80712
0.198762
10.5788
0.306218
11.2888
0.363624
10.3949
0.570539
9.76276
0.853979
9.1918
0.97068
8.75217
0.528995
7.81222
0.00692032
5.97751
-0.145611
5.04395
-0.102376
4.64098
-0.0491761
4.55604
-0.0037272
4.5361
0.0494274
4.54592
0.0747856
4.64269
-0.0653971
5.00617
-0.65549
6.03641
-1.13953
7.84465
-0.9503
8.71047
-0.712564
9.07901
-0.543683
9.66433
-0.504086
10.3191
-0.388468
11.2072
-0.138321
10.4951
7.65787
0.0435795
7.76113
0.277762
10.3429
0.448016
11.1146
0.524659
10.3164
0.648296
9.6451
0.834638
9.00768
1.19577
8.38538
0.945148
8.05727
0.234036
6.67282
0.00608444
5.27146
-0.019633
4.67941
0.00257801
4.5472
0.0218527
4.52477
0.0454225
4.53475
0.0120098
4.6829
-0.226869
5.24874
-0.893
6.697
-1.11565
8.06426
-0.749282
8.34307
-0.618462
8.9521
-0.525865
9.56932
-0.442265
10.2268
-0.269185
11.0284
-0.0333073
10.2504
7.61925
0.0802486
7.67572
0.408195
10.0104
0.608999
10.9084
0.608317
10.3226
0.688287
9.56848
0.871487
8.82674
1.05073
8.20566
1.14932
7.95437
0.776486
7.0479
0.152349
5.89294
0.0321318
4.79526
0.0203916
4.56613
0.0214548
4.53334
0.0137945
4.54979
-0.117797
4.81967
-0.725852
5.8622
-1.08149
7.05873
-0.980466
7.96301
-0.794668
8.15746
-0.626079
8.7884
-0.568049
9.51562
-0.546957
10.2067
-0.352338
10.8228
-0.0405056
9.9326
7.57459
0.128795
-2.48857
0.198543
-2.8356
0.231475
-2.91467
0.243968
-3.07627
0.25647
-3.12146
0.280425
-3.10742
0.253706
-3.03544
0.233953
-2.92362
0.221741
-2.76939
0.185253
-2.59789
0.0364468
-2.30025
-0.0696454
-1.77001
-0.125771
-1.45017
-0.141049
-1.21959
-0.154212
-1.18574
-0.172914
-1.10079
-0.181271
-1.01222
-0.176457
-0.955417
-0.164683
-0.928179
-0.151574
-0.912909
-0.136101
-0.898702
-0.115126
-0.895183
-0.0903906
-0.897676
-0.0791712
-0.887774
-0.0777516
-0.850297
-0.0731912
-0.807493
-0.062116
-0.776397
-0.0437282
-0.74972
-0.0215555
-0.734638
-0.726955
0.258998
-2.6866
0.338523
-2.86547
0.333708
-2.88039
0.346689
-3.0462
0.354466
-3.00836
0.37529
-2.96892
0.394768
-2.90323
0.387504
-2.7686
0.381069
-2.62068
0.29868
-2.47858
0.150384
-2.31797
0.0218393
-1.72236
-0.0610565
-1.37695
-0.0958624
-1.14062
-0.112715
-1.04526
-0.133817
-0.989139
-0.148643
-0.91306
-0.148973
-0.85925
-0.14217
-0.836032
-0.1333
-0.825349
-0.120983
-0.818477
-0.0995916
-0.818032
-0.073057
-0.82198
-0.0588319
-0.821629
-0.0582139
-0.793894
-0.0563711
-0.758072
-0.0487622
-0.731181
-0.0351427
-0.707413
-0.0188917
-0.693559
-0.685866
0.152657
-2.77942
0.176061
-2.85196
0.19061
-2.84938
0.190972
-2.93172
0.226242
-2.8986
0.274992
-2.83837
0.314622
-2.77451
0.310628
-2.60822
0.319592
-2.45688
0.290903
-2.34788
0.140733
-2.23296
0.0109997
-1.70682
-0.086302
-1.33874
-0.124791
-1.09346
-0.141471
-0.951358
-0.159462
-0.866106
-0.17409
-0.822708
-0.172634
-0.768316
-0.164627
-0.747848
-0.154383
-0.741228
-0.140225
-0.739314
-0.116626
-0.740978
-0.086826
-0.748775
-0.0656349
-0.757095
-0.0609841
-0.739799
-0.0577964
-0.711256
-0.0499371
-0.688173
-0.0353739
-0.666932
-0.0187122
-0.654035
-0.647125
0.0516679
-2.79427
0.0472253
-2.81097
0.0753258
-2.75608
0.0894248
-2.6584
0.167417
-2.73902
0.235264
-2.68478
0.271175
-2.61842
0.284867
-2.48396
0.298081
-2.31589
0.294988
-2.2101
0.171191
-2.10193
0.0294041
-1.93529
-0.0832008
-1.31983
-0.13303
-1.05384
-0.153373
-0.907501
-0.172524
-0.807547
-0.188199
-0.739328
-0.187299
-0.685302
-0.179505
-0.664459
-0.169072
-0.661716
-0.152016
-0.661671
-0.124298
-0.666028
-0.0963847
-0.678657
-0.0692424
-0.693013
-0.0607631
-0.685716
-0.0557667
-0.664975
-0.0471872
-0.646085
-0.0331352
-0.626703
-0.0169092
-0.614661
-0.60787
0.0358215
-2.83156
0.00952379
-2.73698
0.0524187
-2.67481
0.0970651
-2.51767
0.189955
-2.52169
0.262079
-2.47092
0.300279
-2.39943
0.32389
-2.31498
0.332567
-2.18129
0.326101
-2.07589
0.24812
-1.99924
0.0959761
-1.89911
-0.0349876
-1.3144
-0.108278
-1.02654
-0.139702
-0.876678
-0.164942
-0.768094
-0.186022
-0.638395
-0.190532
-0.610325
-0.184719
-0.584931
-0.175455
-0.584507
-0.155321
-0.586264
-0.128809
-0.593208
-0.102973
-0.609068
-0.0719862
-0.628108
-0.0599986
-0.630145
-0.0526726
-0.617969
-0.0437542
-0.605922
-0.0307221
-0.594403
-0.0166669
-0.58334
-0.578441
0.014707
-2.85041
-0.0150404
-2.6383
0.0524821
-2.53651
0.125649
-2.34028
0.211591
-2.26779
0.280923
-2.17593
0.329084
-2.11428
0.358436
-2.09173
0.36571
-2.01234
0.359007
-1.92749
0.322361
-1.87981
0.200197
-1.7963
0.0192571
-1.33719
-0.0780315
-1.00417
-0.118857
-0.846924
-0.15203
-0.737183
-0.182204
-0.598006
-0.1944
-0.545118
-0.189862
-0.512659
-0.181294
-0.511716
-0.159949
-0.515373
-0.135702
-0.523958
-0.110054
-0.541702
-0.0764389
-0.565881
-0.0608201
-0.579041
-0.0510181
-0.577626
-0.0408862
-0.57475
-0.0275913
-0.572988
-0.0145396
-0.566877
-0.56413
-0.0106912
-2.86724
-0.03034
-2.54214
0.0607158
-2.33237
0.148674
-2.08657
0.226451
-1.91731
0.287258
-1.80892
0.34586
-1.76417
0.379406
-1.81192
0.389807
-1.81186
0.385911
-1.76538
0.371261
-1.7366
0.285008
-1.67537
0.0684068
-1.4018
-0.0445791
-0.987595
-0.0935862
-0.819919
-0.132077
-0.709419
-0.173418
-0.577018
-0.194247
-0.485223
-0.193842
-0.453524
-0.186917
-0.44987
-0.167135
-0.456218
-0.143774
-0.467735
-0.116709
-0.487451
-0.0813373
-0.516551
-0.0632688
-0.540888
-0.0524639
-0.55192
-0.0422629
-0.554275
-0.0292913
-0.555058
-0.0152171
-0.55067
-0.548039
-0.0438573
-2.80915
-0.0315843
-2.38718
0.0648659
-2.02746
0.146319
-1.70338
0.216871
-1.51023
0.278808
-1.41716
0.333125
-1.35325
0.392664
-1.47276
0.40732
-1.5723
0.408902
-1.5834
0.388962
-1.58142
0.337385
-1.55591
0.123836
-1.49958
-0.00567554
-0.980869
-0.0688981
-0.806897
-0.108983
-0.683154
-0.159343
-0.559031
-0.189873
-0.439131
-0.196405
-0.41063
-0.190055
-0.404557
-0.174562
-0.416012
-0.149896
-0.433044
-0.120625
-0.457778
-0.0893414
-0.493218
-0.0716147
-0.519055
-0.0595747
-0.528591
-0.0483021
-0.528604
-0.0343742
-0.525548
-0.0180531
-0.519554
-0.515231
-0.0550317
-2.60892
-0.0221151
-2.14451
0.0594196
-1.62561
0.126084
-1.26444
0.189808
-1.10893
0.258526
-1.031
0.342683
-0.974191
0.407684
-1.08274
0.43126
-1.26764
0.431602
-1.36554
0.409631
-1.41608
0.370231
-1.41419
0.221135
-1.36824
0.0298576
-0.989686
-0.041878
-0.785894
-0.0838128
-0.664233
-0.141895
-0.541341
-0.183375
-0.426657
-0.198577
-0.377596
-0.193924
-0.370098
-0.179342
-0.38365
-0.156432
-0.402124
-0.128824
-0.426621
-0.0991602
-0.456476
-0.0796895
-0.48035
-0.0662659
-0.492285
-0.0534161
-0.49459
-0.0371628
-0.493926
-0.0198702
-0.487821
-0.484236
-0.0466314
-2.35329
-0.0146134
-1.82144
0.0393742
-1.20712
0.0947937
-0.906645
0.147437
-0.882903
0.224244
-0.865435
0.337252
-0.775902
0.412441
-0.718291
0.443394
-0.919092
0.446476
-1.09873
0.433005
-1.22155
0.394557
-1.25046
0.294186
-1.23452
0.065814
-0.984756
-0.0109731
-0.751344
-0.0570833
-0.65794
-0.122668
-0.531389
-0.175697
-0.41618
-0.199769
-0.335004
-0.199463
-0.340579
-0.185572
-0.352608
-0.163774
-0.370814
-0.137664
-0.394192
-0.108384
-0.421258
-0.086992
-0.443769
-0.071387
-0.457208
-0.0566773
-0.461129
-0.0393573
-0.462083
-0.0204488
-0.457012
-0.453823
-0.0326688
-2.07433
-0.00846895
-1.44318
0.0259027
-0.8871
0.0684621
-0.848241
0.147144
-0.919437
0.220648
-0.902766
0.286267
-0.795554
0.391198
-0.57071
0.436944
-0.587901
0.449095
-0.805993
0.441312
-0.998894
0.417589
-1.07713
0.342797
-1.09524
0.101656
-0.946432
0.0174782
-0.711962
-0.0285255
-0.705711
-0.100657
-0.533088
-0.166643
-0.402895
-0.200718
-0.320762
-0.205787
-0.314038
-0.191945
-0.322655
-0.170679
-0.340407
-0.144977
-0.363025
-0.116714
-0.387918
-0.0940042
-0.40914
-0.0764108
-0.423296
-0.0598979
-0.428638
-0.0414378
-0.431118
-0.0215942
-0.427141
-0.42485
-0.0148878
-1.79417
-0.00241718
-1.08782
0.01313
-0.81176
0.0570486
-0.881276
0.137353
-1.00119
0.221265
-0.991765
0.288032
-0.850272
0.342323
-0.579988
0.396809
-0.373589
0.431715
-0.540247
0.440432
-0.768512
0.431549
-0.895338
0.37267
-0.943427
0.131503
-0.907295
0.0382655
-0.671072
0.00173667
-0.67158
-0.0741601
-0.542421
-0.155822
-0.397784
-0.201215
-0.313855
-0.211413
-0.286521
-0.197719
-0.295094
-0.176768
-0.312209
-0.151227
-0.334467
-0.123851
-0.357321
-0.100193
-0.377394
-0.0808204
-0.391478
-0.0625568
-0.397818
-0.0430899
-0.401349
-0.0218743
-0.399096
-0.396832
-0.0114041
-1.5076
-0.00944306
-0.81171
-0.00518231
-0.802163
0.0293144
-0.926712
0.117363
-1.13005
0.203834
-1.12832
0.274249
-0.953322
0.303321
-0.593345
0.336474
-0.299313
0.398218
-0.34439
0.426264
-0.557696
0.430961
-0.721397
0.39126
-0.812289
0.159649
-0.831553
0.0525737
-0.630229
0.0225674
-0.624705
-0.0434197
-0.559823
-0.142038
-0.404482
-0.195868
-0.304016
-0.213132
-0.263063
-0.202912
-0.271444
-0.182466
-0.286988
-0.156983
-0.308878
-0.130009
-0.32985
-0.105696
-0.348876
-0.0849061
-0.36249
-0.0652787
-0.369351
-0.0447001
-0.373706
-0.0227284
-0.372974
-0.370974
-0.0209638
-1.2154
-0.0364997
-0.631311
-0.0343423
-0.797469
0.00276491
-0.988496
0.064641
-1.21124
0.151732
-1.28242
0.237064
-1.09576
0.260743
-0.617543
0.277926
-0.28675
0.334096
-0.224179
0.385594
-0.390003
0.41382
-0.572208
0.399811
-0.696468
0.180156
-0.735608
0.0581917
-0.597508
0.0397598
-0.569846
-0.0058378
-0.675914
-0.122823
-0.42698
-0.193948
-0.300842
-0.211702
-0.254338
-0.207238
-0.251032
-0.18747
-0.264936
-0.162043
-0.286512
-0.135145
-0.306032
-0.110341
-0.324087
-0.0884166
-0.336996
-0.067644
-0.344119
-0.0461098
-0.349185
-0.0237194
-0.349544
-0.348464
-0.0354348
-0.94328
-0.0594322
-0.541275
-0.0664556
-0.781607
-0.0363782