/*--------------------------------*- C++ -*----------------------------------*\
| =========                 |                                                 |
| \\      /  F ield         | OpenFOAM: The Open Source CFD Toolbox           |
|  \\    /   O peration     | Version:  2112                                  |
|   \\  /    A nd           | Website:  www.openfoam.com                      |
|    \\/     M anipulation  |                                                 |
\*---------------------------------------------------------------------------*/
FoamFile
{
    version     2.0;
    format      ascii;
    arch        "LSB;label=32;scalar=64";
    class       volScalarField;
    location    "0.00421";
    object      T;
}
// * * * * * * * * * * * * * * * * * * * * * * * * * * * * * * * * * * * * * //

dimensions      [0 0 0 1 0 0 0];

internalField   nonuniform List<scalar> 
13875
(
1412.02
1535.57
1482.61
1487.45
1481
1483.27
1483.31
1483.44
1483.21
1484.16
1483.89
1484.18
1483.57
1483.93
1484.02
1483.53
1482.86
1484.04
1482.57
1483.38
1481.03
1487.7
1480.73
1533.54
1398.64
1307.05
1356.19
1319.17
1322.29
1316.74
1317.13
1317.01
1317.84
1318.9
1323.01
1322.9
1322.99
1318
1317.66
1318.46
1322.44
1322.2
1322.18
1317.53
1317.01
1315.87
1321.9
1319.64
1356.55
1302.46
1307.26
1340.07
1314.48
1311.54
1303.8
1304.07
1303.29
1303.41
1303.43
1304.09
1305.4
1306.1
1304.14
1304.25
1304.13
1305.34
1302.82
1305.25
1303.8
1304.52
1303.64
1310.83
1311.51
1335.95
1296.41
1317.4
1344.84
1314.9
1308.57
1305.02
1304.62
1303.45
1303.44
1303.47
1303.41
1303.14
1304.34
1304.21
1304.28
1304.23
1303.83
1302.19
1304.07
1303.98
1304.8
1304.27
1307.44
1313.91
1343.52
1312.19
1329.56
1342.14
1315.89
1312.14
1303.34
1303.83
1303.3
1303.54
1303.64
1303.55
1303.18
1304.34
1304.37
1304.45
1304.28
1303.63
1302.32
1304.25
1303.97
1304.73
1303.4
1311.52
1312.1
1338.65
1316.75
1332.25
1351.18
1319.04
1309.73
1306.79
1305.87
1304.22
1304.08
1303.95
1303.76
1303.28
1304.48
1304.7
1304.78
1304.72
1304.03
1302.59
1304.27
1304.75
1306.21
1306.17
1308.15
1318.86
1349.18
1326.85
1339.04
1360.48
1329.22
1317.21
1306.6
1305.82
1304.61
1304.65
1304.68
1304.41
1303.79
1304.77
1305.32
1305.46
1305.15
1304.22
1303.37
1305.05
1305.2
1306.56
1306.76
1317.26
1325.86
1358.33
1321.78
1359.84
1384.75
1344.23
1321.01
1315.78
1311.28
1307.68
1306.52
1305.68
1305.57
1304.84
1305.9
1306.54
1306.84
1306.53
1305.36
1304.61
1306.13
1307.53
1311.39
1314.7
1320.41
1341.21
1381.03
1350.16
1537.06
1507.89
1387.25
1350.79
1322.1
1315.18
1310.94
1309.38
1308.35
1308.44
1307.33
1307.95
1309.12
1309.56
1309.01
1307.82
1307.54
1309.28
1311.11
1315.25
1321.64
1348.26
1384.06
1507.44
1521.95
1835.83
1575.06
1428.47
1361.74
1341.43
1325.61
1318.03
1315.26
1313.75
1314.13
1312.66
1313.15
1314.47
1315.16
1314.59
1313.39
1313.22
1315.18
1317.92
1325.41
1337.86
1361.12
1425.52
1566.26
1828.53
2510.69
1803.28
1522.49
1431.17
1358.57
1341.05
1331.34
1327.97
1326.34
1326
1324.29
1324.57
1325.98
1326.92
1326.47
1325.58
1325.27
1327.72
1331.53
1339.49
1356.69
1421.35
1512.53
1807.57
2442.25
2815.68
2302.47
1775.55
1484.98
1426.46
1388.2
1365.45
1358.74
1355.29
1353.59
1351.71
1351.9
1353.03
1354.11
1353.93
1353.82
1353.92
1357.56
1365.25
1390.48
1417.97
1473.42
1737.4
2295.08
2842.49
2793.32
2677.31
2439.1
2292.45
1585.83
1486.06
1460.27
1446.85
1441.8
1438.31
1436.01
1436.3
1436.92
1437.88
1438.15
1439.16
1440.75
1446.66
1464.11
1491.9
1625.97
2326.06
2386.19
2701.68
2781.95
2709.23
2664.65
2815.1
2803.87
2044.26
1995.94
1851.58
1740.86
1716.03
1706.92
1701.97
1701.74
1701.57
1702.52
1704
1707.76
1716.73
1744.23
1863.98
2108.56
2042.05
2821.4
2821.75
2703.44
2699.7
2639.98
2703.07
2785.85
2788.48
2789.13
2993.78
2899.4
2949.83
3058.93
3049.03
3051.85
3043.44
3048.3
3049.59
3052.03
3047.73
3054.17
2983.58
2901.68
3014.66
2817.39
2812.37
2810.88
2697.83
2653.52
2514.12
2576.5
2772.04
2908.58
2946.48
3282.32
3536.89
3671.28
3684.62
3675.17
3669.39
3667.1
3668.12
3668.35
3669.38
3671.73
3681.04
3682.46
3534.25
3327.8
2969.26
2920.47
2771.04
2599.97
2560.43
2420.85
2553.2
2679.82
2801.96
2913.37
3182.45
3395.67
3560.01
3650.33
3646.12
3644.97
3642.14
3643.35
3643.41
3642.27
3641.38
3646.38
3583.34
3429.54
3257.91
2950.78
2840.06
2709
2558.13
2426.59
2198.96
2368.77
2686.77
2896.59
2864.65
3138.73
3356.96
3495.49
3549.64
3567.46
3567.26
3570.2
3570.79
3570.34
3564.89
3562.05
3541.42
3486.59
3330.04
3116.91
2890.14
2917.33
2665.52
2352.39
2200.34
2057.83
2185.51
2489.03
2673.61
2716.14
2857.38
3081.97
3277.87
3382.04
3422.96
3438.82
3442.03
3444.87
3440.96
3434.13
3414.55
3380.36
3295.21
3096.81
2879.43
2744.92
2707.53
2492.95
2182.49
2064.17
2193.24
2050.75
2380.37
2477.74
2526.67
2623.67
2818.89
3044.92
3216.27
3297.17
3320.18
3332.22
3334.27
3331.84
3316.78
3294.3
3224.61
3062.76
2827.46
2637.4
2538.68
2459.67
2324.56
2057.14
2194.82
3154.91
2346.27
2172.69
2298.76
2373.16
2471.24
2638.73
2864.54
3059.54
3169.19
3210.6
3220.59
3226.16
3220.06
3207.99
3166.19
3061.18
2867.9
2636.59
2479.73
2374.73
2279.27
2165.17
2347.33
3225.54
3124.56
2147.34
1982.44
2151.3
2238.49
2350.96
2500.15
2715.68
2923.39
3046.78
3092.96
3113.2
3115.56
3112.54
3088.84
3040.01
2918.67
2711.77
2496.53
2356.82
2236.28
2127.79
1979.4
2154.49
3194.67
3052.41
2132.36
1887.4
2033.82
2125.87
2258.16
2386.18
2588.02
2789.96
2924.64
2983.45
2998.25
3005.56
2996.42
2979.17
2919.41
2787.28
2588.31
2384.87
2266.61
2125.89
2017.02
1882.11
2151.11
3148.83
3020.71
2110.31
1891.11
1966.16
2049.25
2165.07
2292.04
2489.41
2686.42
2813.47
2868.11
2893.57
2895.9
2892.08
2863.78
2808.12
2684.33
2488.52
2288.77
2167.19
2048.11
1941.65
1882.15
2097.15
2981.28
2880.15
2080.59
1905.71
1928.68
1985.55
2084.17
2206.49
2399.72
2583.19
2709.07
2767.75
2783.4
2791.05
2781.08
2763.17
2701.27
2575.13
2393.23
2197.32
2088.56
1991.65
1915.91
1895.28
2102.87
2897.25
2866.77
2119.05
1929.39
1906.17
1939.6
2015.16
2137.65
2322.37
2497.17
2611.12
2662.13
2687.02
2688.35
2685.62
2657.5
2605.04
2493.82
2319.43
2133.06
2013.42
1942.27
1887.4
1913.9
2088.39
2855.58
2814.83
2142.01
1967.77
1892.06
1901.33
1961.85
2077.39
2253.06
2411.33
2519.94
2574.01
2585.07
2592.94
2582.97
2568.31
2512.95
2404.3
2248.72
2069.86
1962.73
1908.35
1887.57
1963.07
2129.34
2845.67
2810.7
2173.01
1984.28
1894.54
1881.27
1920.38
2033.73
2197.89
2344
2436.94
2478.14
2500.13
2500.72
2498.77
2472.34
2429.48
2336.77
2189.47
2024.45
1912.72
1879.42
1881.31
1958.5
2157.93
2865.45
2835.68
2167.87
1979.95
1893.62
1864.29
1890.66
1988.38
2138.02
2267.05
2353.62
2400.8
2408.65
2416.76
2406.59
2396.67
2350.07
2263.81
2139.38
1984.6
1891.36
1867.66
1891.9
1970.04
2148.19
2852.47
2883.59
2191.7
1981.72
1885.87
1855.5
1869.23
1963.77
2098.99
2213.67
2285.36
2315.86
2335.68
2335.18
2333.51
2310
2278.99
2208.69
2094.25
1956.79
1860.35
1853.91
1874.47
1965.82
2181.15
2858.62
2816.4
2195
1964.16
1890.98
1836.26
1859.92
1939.13
2056.55
2151.11
2211.37
2250.39
2254.17
2262.11
2252.14
2246.08
2207.33
2144.4
2053.54
1931.19
1854.28
1841.34
1892.02
1975.75
2209.52
2838.91
2812.58
2212.01
1992.26
1898.73
1825.85
1841.53
1917.29
2024.34
2105.88
2155.92
2175.14
2191.89
2190.97
2191.11
2170.27
2151.37
2103.52
2025.02
1914.33
1833.78
1827.39
1896
1985.48
2231.68
2797.32
2777.93
2208.1
2004.58
1891.48
1822.18
1834.96
1901.46
1990.07
2055.14
2090.29
2121.36
2120.67
2128.3
2119.57
2116.8
2085.92
2047.87
1989.38
1900.47
1829.69
1826.82
1904.54
2020.69
2223.36
2788.59
2749.25
2196.59
2053.06
1916.78
1825.01
1818.07
1886.28
1965.07
2018.32
2049.41
2056.54
2068.9
2066.95
2068.54
2051.23
2044.09
2014.54
1961.96
1884
1808.92
1828.46
1911.81
2054.55
2220.48
2772.01
2734.52
2206.88
2085.37
1911.61
1837.22
1814.3
1872.33
1934.58
1974.03
1988.49
2012.38
2007.54
2014.11
2006.87
2008.39
1984.78
1968.16
1935.16
1877.04
1809.75
1847.77
1924.66
2102.8
2204.06
2749.41
2712.81
2197.38
2081.93
1943.63
1847.47
1806.04
1854.94
1913.04
1941.24
1960.16
1957.41
1966.27
1962.3
1965.02
1952.25
1955.59
1938.07
1907.23
1855.63
1803.54
1852.7
1952.83
2098.09
2197.3
2743.63
2682.48
2184.26
2078.23
1962.78
1866.02
1816.75
1851.06
1885.74
1903.64
1905.46
1921.66
1913.33
1918.44
1912.28
1918.41
1902.09
1896.88
1883.44
1852.34
1812.61
1869.11
1983.88
2092.87
2172.93
2717.2
2668.34
2163.66
2073.92
2031.35
1886.78
1825.53
1835.59
1864.99
1871.94
1883.66
1875.36
1880.22
1874.77
1879.75
1871.21
1881.02
1871.29
1856.94
1834.74
1834.9
1884.96
2052.49
2081.96
2154.63
2673.22
2648.56
2150.47
2060.88
2021.95
1905.17
1853.41
1843.44
1843.29
1840.26
1834.07
1845.43
1834.05
1838.71
1834.25
1843.04
1831.71
1834.05
1843.14
1844.64
1852.5
1914.8
2043.35
2062.78
2141.48
2650.66
2614.76
2127.97
2030.41
2026.79
1954.41
1865.99
1845.95
1829.66
1815.65
1821.05
1806.52
1808.24
1802.06
1808.46
1802.56
1818.26
1815.32
1819.7
1836
1875.03
1959.3
2037.65
2022.15
2134.19
2616.91
2599.44
2124.11
1999.02
2008.63
2013.84
1903.75
1869.23
1822.92
1792.87
1775.48
1781.4
1768.24
1772.02
1768.52
1779.47
1772.82
1786.88
1823.72
1865.1
1899.82
2034.16
2020.94
1992
2116.9
2588.32
2569.13
2111.12
1973.26
2000.41
2020.72
1922.86
1868.83
1819.29
1778.13
1772.36
1749.52
1748.72
1741.55
1748.22
1745.8
1771.17
1777.08
1813.72
1871.75
1951.11
2030.5
2001.79
1970.39
2114.07
2567.8
2546.59
2102.73
1953.9
1960.86
2000.58
1982.42
1901.72
1834.97
1776.14
1731.43
1729.64
1713.71
1716.55
1714.02
1727.79
1728
1766.69
1833.22
1904.84
2011.01
2010.54
1964.21
1954.35
2111.55
2554.03
2513.1
2095.92
1938.29
1936.39
1992.27
2042
1919.85
1837.72
1770.89
1748.29
1707.13
1700.04
1691.33
1699.84
1703.28
1748.22
1768.77
1835.24
1935.81
2053.92
1996.39
1941.05
1939.22
2096.56
2528.89
2497.42
2093.5
1931.85
1901.2
1955.18
2022.25
1982.17
1858.36
1784.8
1712.98
1697.61
1672
1672.19
1672.51
1695.02
1708.58
1779.79
1861.84
2016.68
2032.8
1945.34
1907.29
1934.41
2096.98
2514.55
2465.75
2071.6
1919.46
1887.62
1924.72
2010.8
2070.04
1883.9
1785.75
1751.04
1695.66
1671.84
1657.26
1671.01
1688.65
1752.55
1788.26
1888.9
2065.43
2012.78
1914.6
1891.43
1924.78
2080.11
2483.23
2451.93
2070.63
1919.21
1864.13
1886.99
1979.2
2045.44
1957.14
1818.19
1719.56
1696.57
1656.57
1651.08
1657.26
1691.16
1713.26
1815.18
1971.5
2046.11
1976.59
1878.13
1872.22
1920.66
2070.72
2468.87
2413.98
2050.09
1906.37
1862.56
1868.01
1935.51
2029.92
2052.36
1851.5
1766.53
1699.61
1673.19
1652.03
1673.16
1694.66
1771.6
1873.99
2049.58
2027.35
1934.28
1862.63
1866.84
1907.57
2053.56
2420.98
2380.8
2039.15
1901.17
1845.35
1844.82
1900.46
2004.92
2028.16
1956.47
1748.33
1707.68
1658.36
1654.77
1658.85
1704.49
1745.62
1981.94
2030.58
2005.36
1901.47
1841.48
1852.82
1900.09
2041.82
2390.72
2246.61
1992.23
1875.39
1843.5
1838.08
1864.99
1961.24
2017.74
2008.98
1849.99
1729.53
1684.85
1661.85
1684.7
1726.64
1852
2008.81
2017.78
1965.27
1869.7
1838.23
1847.91
1873.08
1992.04
2253.63
280.807
281.028
281.381
281.799
282.297
282.574
282.905
283.286
283.576
284.045
284.495
284.971
285.463
286.119
286.433
286.524
286.825
288.446
297.594
337.496
346.158
347.315
348.275
348.365
347.919
347.67
347.915
348.48
351.257
361.094
281.231
281.523
281.952
282.475
283.015
283.408
283.934
284.129
284.34
284.616
284.884
285.348
285.923
286.324
286.69
287.275
288.689
294.925
325.605
344.745
349.154
350.213
349.958
348.724
347.311
346.358
345.864
346.173
349.035
355.168
281.687
282.192
282.682
283.298
283.856
284.288
284.566
284.683
284.9
285.164
285.478
285.957
286.371
286.701
287.284
288.553
292.44
312.087
345.15
348.924
349.664
349.051
347.278
345.669
344.787
344.404
344.512
345.374
348.066
352.836
282.373
282.917
283.461
284.109
284.625
284.846
284.996
285.069
285.299
285.625
285.92
286.274
286.614
286.926
287.873
290.471
300.442
341.474
351.887
351.17
349.816
347.676
345.504
344.03
343.278
342.982
343.072
343.516
345.893
348.869
283.167
283.665
284.253
284.793
285.112
285.239
285.376
285.521
285.772
285.989
286.209
286.483
286.642
287.367
288.955
294.849
325.078
353.941
355.166
352.784
350.036
346.899
344.44
342.711
341.672
341.249
341.215
341.7
344.527
347.018
283.967
284.515
285.043
285.348
285.581
285.807
285.999
286.112
286.17
286.285
286.351
286.434
286.963
288.084
291.534
309.313
355.008
358.904
357.501
354.144
350.451
346.641
343.981
342.092
340.91
340.388
340.304
340.772
343.545
344.48
284.856
285.446
285.802
285.963
286.232
286.309
286.423
286.531
286.518
286.459
286.562
286.832
287.484
289.613
299.854
348.002
362.82
361.82
359.245
355.286
351.133
346.795
343.913
341.908
340.555
339.909
339.792
340.168
342.595
343.082
285.699
286.392
286.597
286.767
286.651
286.684
286.815
286.951
286.9
286.897
287.031
287.371
288.654
295.197
334.436
365.846
367.2
363.794
360.857
356.667
351.824
347.242
344.102
341.967
340.466
339.636
339.439
339.701
341.794
341.94
286.561
287.491
287.343
287.211
287.023
287.05
287.234
287.435
287.499
287.495
287.746
288.493
292.898
321.45
368.639
372.333
370.116
365.61
362.69
358.466
352.578
347.862
344.422
342.057
340.393
339.341
339.036
339.252
341.157
341.048
287.542
288.033
287.72
287.502
287.414
287.495
287.817
288.172
288.343
288.645
289.32
292.606
314.162
370.384
377.058
376.435
372.307
367.746
364.84
360.688
353.491
348.508
344.76
342.13
340.199
338.854
338.389
338.534
340.384
340.047
287.997
288.31
287.927
287.764
287.883
288.243
288.811
289.594
290.721
292.291
295.962
315.388
371.347
381.151
381.74
379.56
374.981
370.237
367.332
363.079
354.844
349.204
345.11
342.189
339.85
338.131
337.486
337.622
339.418
338.942
288.201
288.435
288.082
288.15
288.772
289.906
292.031
295.707
300.946
308.988
330.709
372.888
384.063
386.282
385.839
382.98
377.637
372.39
369.509
365.24
356.198
349.897
345.474
342.214
339.445
337.367
336.617
336.825
338.375
337.614
288.273
288.285
288.375
289.16
291.436
296.671
305.916
326.795
344.821
357.379
369.892
383.689
389.65
391.193
390.486
386.501
379.174
373.778
371.218
367.384
357.514
350.465
345.765
342.142
338.96
336.697
335.928
336.249
337.425
336.482
288.124
288.325
289.224
292.963
303.464
330.208
357.55
366.462
370.127
373.655
382.579
390.215
396.041
397.722
395.487
388.509
380.377
375.597
373.144
369.142
358.964
350.98
345.979
341.962
338.368
336.098
335.36
335.75
336.585
335.539
288.108
288.855
293.461
310.484
354.519
374.187
382.415
385.955
388.173
390.61
398.235
402.062
404.665
404.458
399.596
390.679
382.292
377.552
374.684
370.269
360.154
351.573
346.169
341.779
337.771
335.546
334.861
335.224
335.73
334.468
288.474
292.588
314.978
367.541
387.128
402.781
414.097
418.776
421.012
421.324
425.029
420
416.962
412.801
404.655
393.171
384.1
379.001
375.328
370.596
360.963
352.061
346.211
341.528
337.213
335.053
334.404
334.707
334.913
333.489
291.411
311.835
372.658
398.989
427.12
457.269
477.153
482.959
480.902
474.057
467.133
449.073
434.352
422.278
409.475
395.434
385.998
379.702
375.335
370.213
361.151
352.209
346.072
341.079
336.664
334.614
334.011
334.198
334.197
332.619
307.042
366.364
406.953
455.225
512.504
568.558
594.927
596.03
586.348
561.451
529.056
489.825
456.599
433.173
413.818
398.446
386.809
379.907
374.901
369.129
360.741
351.998
345.728
340.388
336.088
334.227
333.697
333.752
333.573
331.788
359.939
409.424
477.796
583.682
688.824
766.193
787.493
783.531
754.68
692.072
614.032
541.617
484.662
444.125
419.726
401.69
388.538
380.574
374.282
367.736
359.907
351.144
345.184
339.526
335.541
333.911
333.457
333.39
332.997
330.932
433.629
481.976
644.796
842.643
976.598
1045.98
1068.42
1057.11
988.968
864.507
717.16
599.425
517.467
457.465
427.926
406.379
390.098
381.02
373.465
366.21
358.387
350.36
344.305
338.743
335.084
333.652
333.187
332.998
332.364
330.033
493.348
650.657
993.625
1193.11
1296.94
1350.37
1327.77
1250.31
1153.4
1024.44
838.091
660.666
550.858
474.608
438.488
411.124
391.101
381.263
372.836
364.662
356.504
349.578
343.153
337.991
334.722
333.442
332.872
332.543
331.671
329.143
589.378
1039.75
1374.79
1442.13
1522.69
1480.81
1379.02
1273.48
1177.03
1068.67
919.341
721.728
582.541
492.258
448.9
413.814
391.867
381.482
371.716
363.996
354.645
348.655
341.82
337.329
334.448
333.282
332.594
332.084
330.955
328.207
762.012
1484.94
1549.29
1624.44
1606.49
1490.34
1355.28
1235.79
1148.08
1062.02
934.406
769.85
607.912
507.905
457.934
416.601
393.28
381.947
370.953
364.187
353.056
347.928
341.104
337.103
334.254
333.076
332.311
331.681
330.333
327.381
792.808
1668.36
1622.21
1702.19
1625
1481.18
1319.87
1174.68
1079.33
1022.66
922.952
785.032
639.472
518.422
461.186
418.06
394.076
382.178
372.062
363.556
352.532
347.631
341.047
337.376
334.229
332.891
332.001
331.265
329.836
326.797
966.416
1691.68
1650.75
1730.78
1645.81
1493.13
1313.22
1151.22
1038.43
963.178
890.708
788.244
663.567
524.977
462.258
419.087
395.098
382.601
372.859
362.584
352.704
348.077
341.524
337.663
334.194
332.695
331.796
330.81
329.356
326.375
361.254
351.284
348.513
347.941
347.683
347.935
348.38
348.292
347.341
346.085
337.324
297.705
288.755
287.253
287.038
286.939
286.489
285.766
285.248
284.782
284.403
283.981
283.759
283.442
282.929
282.581
282.052
281.596
281.237
280.984
355.303
349.046
346.174
345.836
346.33
347.305
348.751
350.034
350.425
349.447
345.26
326.45
295.338
289.187
287.799
287.168
286.723
286.277
285.632
285.216
284.993
284.738
284.511
284.285
283.975
283.36
282.754
282.183
281.747
281.404
352.97
348.091
345.382
344.505
344.392
344.805
345.737
347.447
349.384
350.141
349.702
346.408
312.862
292.991
289.081
287.726
287.104
286.738
286.289
285.881
285.582
285.309
285.071
284.885
284.62
284.264
283.619
282.938
282.441
281.878
349.001
345.952
343.569
343.102
343.01
343.325
344.148
345.737
348.064
350.302
352.035
352.659
343.31
301.348
291.052
288.299
287.315
286.978
286.624
286.279
286.013
285.699
285.423
285.272
285.071
284.917
284.466
283.764
283.193
282.6
347.146
344.611
341.767
341.272
341.315
341.788
342.939
344.81
347.532
350.737
353.631
355.968
354.939
326.904
295.558
289.44
287.741
286.994
286.85
286.564
286.307
286.079
285.761
285.607
285.411
285.308
285.096
284.604
283.99
283.443
344.61
343.636
340.849
340.37
340.479
341.076
342.397
344.418
347.314
351.279
354.885
358.194
359.754
355.974
310.527
292.06
288.464
287.267
286.751
286.66
286.553
286.409
286.316
286.129
285.922
285.763
285.633
285.394
284.892
284.289
343.199
342.715
340.277
339.891
340.036
340.775
342.262
344.412
347.497
352.022
356.106
359.871
362.57
363.513
349.325
300.63
290.04
287.778
287.126
286.862
286.698
286.731
286.743
286.579
286.531
286.391
286.178
286.128
285.839
285.221
342.06
341.922
339.839
339.599
339.832
340.75
342.369
344.648
347.897
352.767
357.561
361.477
364.393
367.777
366.493
336.362
295.924
288.983
287.663
287.334
287.165
287.163
287.166
287.027
286.952
286.941
286.838
286.8
286.753
286.045
341.184
341.308
339.425
339.253
339.613
340.736
342.523
345.015
348.559
353.519
359.337
363.333
366.166
370.647
372.956
369.406
324.304
293.574
288.842
288.071
287.785
287.752
287.664
287.492
287.349
287.374
287.522
287.561
287.713
286.799
340.203
340.545
338.733
338.67
339.213
340.613
342.648
345.419
349.262
354.407
361.489
365.516
368.308
372.819
377
377.704
371.62
317.723
293.488
289.867
289.097
288.714
288.48
288.144
287.816
287.766
287.841
287.931
288.203
287.67
339.172
339.637
337.863
337.823
338.559
340.322
342.755
345.809
350.011
355.781
363.652
367.863
370.785
375.463
380.052
382.325
381.907
373.175
320.341
297.753
293.56
291.634
290.247
289.263
288.614
288.227
288.134
288.163
288.463
288.132
337.932
338.663
337.108
336.994
337.819
340.009
342.802
346.189
350.712
357.2
365.666
369.754
372.803
378.083
383.556
386.427
386.837
384.737
374.212
336.58
315.877
303.928
297.905
293.325
290.611
289.193
288.512
288.359
288.587
288.354
336.828
337.758
336.577
336.342
337.177
339.561
342.756
346.492
351.289
358.438
367.801
371.403
374.086
379.551
387.12
391.198
391.781
390.012
383.659
370.165
359.817
351.167
335.081
312.026
299.169
292.578
289.713
288.702
288.511
288.425
335.918
336.96
336.109
335.783
336.596
338.992
342.586
346.711
351.775
359.812
369.39
373.339
375.82
380.696
389.05
396.122
398.364
396.411
390.551
382.794
374.87
371.88
368.977
363.11
339.796
307.51
294.578
289.806
288.683
288.372
334.901
336.147
335.62
335.278
336.036
338.415
342.384
346.851
352.319
360.971
370.337
374.75
377.675
382.511
391.189
400.278
405.009
405.039
403.193
399.465
392.525
390.623
388.641
385.434
377.467
362.654
318.734
295.429
289.469
288.479
333.911
335.346
335.124
334.823
335.523
337.816
342.148
346.867
352.743
361.586
370.534
375.201
378.955
384.192
393.636
405.355
413.48
417.778
422.687
428.166
425.221
425.876
423.859
418.978
407.195
390.941
372.476
324.99
294.516
289.069
333.029
334.614
334.612
334.409
335.053
337.202
341.738
346.709
352.807
361.602
370.053
375.068
379.435
385.962
395.806
410.099
423.145
435.867
453.582
473.274
481.016
489.49
492.086
486.507
466.151
434.157
404.078
377.073
319.143
293.12
332.178
333.98
334.162
334.082
334.653
336.609
341.056
346.329
352.449
360.972
368.874
374.56
379.475
386.621
398.936
414.454
434.491
459.218
496.951
539.345
573.577
600
611.292
610.682
585.614
527.589
465.981
413.562
374.78
312.971
331.347
333.425
333.822
333.832
334.315
336.03
340.158
345.731
351.604
359.796
367.394
373.913
380.058
388.298
402.297
420
446.785
488.114
551.078
630.241
711.877
775.671
807.085
810.322
791.327
716.874
606.898
493.056
417.917
372.915
330.479
332.837
333.46
333.58
334.018
335.496
339.227
344.893
350.766
358.052
365.831
373.153
380.407
389.845
407.074
428.14
461.265
522.45
610.283
740.852
897.895
1024.93
1090.16
1099.94
1077.05
1013.66
883.765
679.201
498.092
446.368
329.62
332.154
333.012
333.28
333.768
335.065
338.401
343.654
350.02
356.18
364.241
372.521
380.65
390.899
411.907
438.589
478.756
556.956
672.18
866.552
1050.88
1174.12
1267.81
1346.62
1375.83
1329.87
1237.72
1053.83
684.909
506.14
328.678
331.4
332.517
332.96
333.579
334.733
337.634
342.237
348.918
354.615
363.729
371.255
380.77
391.499
414.824
449.031
495.983
588.939
736.799
937.019
1084.27
1187.69
1282.36
1386.98
1489.15
1539.81
1473.01
1411.46
1101.08
609.736
327.778
330.71
332.057
332.652
333.348
334.501
337.368
341.429
348.18
353.193
364.012
370.484
381.416
393.038
418.172
458.156
511.222
617.452
778.022
945.482
1071.66
1150.48
1233.54
1354.24
1492.88
1612.9
1643.86
1574.25
1523.96
785.651
327.104
330.164
331.578
332.296
333.079
334.426
337.51
341.328
347.872
352.711
363.657
371.105
381.396
393.652
419.419
462.369
521.76
651.697
788.877
927.604
1029.65
1081.54
1175.69
1317.15
1478.66
1626.6
1713.88
1646.4
1692.85
808.526
326.638
329.651
331.081
332.032
332.85
334.311
337.668
341.83
348.204
352.863
362.96
372.235
382.246
394.796
419.788
463.914
530.324
674.18
792.588
893.458
966.664
1044.66
1158.94
1314.94
1493.19
1646.55
1738.54
1670.46
1707.41
972.751
1127.16
1160.2
1153.5
1171.4
1172
1169.62
1138.15
1089.44
1075.74
1067
1049.59
1024.43
990.967
970.632
965.931
965.367
961.128
953.61
949.777
947.963
944.58
936.656
929.095
923.591
915.346
908.948
902.806
896.172
889.61
882.961
875.874
868.745
862.571
857.947
854.957
852.78
850.753
848.898
845.513
841.158
836.777
832.829
828.151
820.979
811.462
799.344
783.94
766.019
747.54
731.071
715.288
699.935
685.158
670.884
658.182
646.176
634.379
623.483
613.176
602.939
592.939
583.22
573.847
564.827
556.358
548.216
540.747
533.838
527.372
521.397
515.657
509.89
503.838
497.569
491.211
484.897
478.696
472.667
466.673
460.877
455.404
450.178
445.161
440.258
435.313
430.326
425.445
420.615
415.841
411.185
406.723
402.554
398.694
395.113
391.756
388.553
385.447
382.396
379.367
376.313
373.219
370.075
366.919
363.805
360.783
357.795
354.914
352.117
349.256
346.433
343.716
341.139
338.748
336.433
334.182
332.171
330.457
329.277
328.504
327.407
326.663
326.266
326.078
326.132
326.308
1119.51
1137.7
1122.79
1140.84
1149.52
1141.2
1085.09
1033.98
1000.55
981.517
957.711
932.741
924.269
924.34
928.328
935.323
940.076
941.121
940.857
940.015
938.815
932.497
926.782
923.9
919.523
915.461
911.238
905.903
900.402
896.04
891.855
887.112
884.314
883.699
884.511
886.794
889.349
893.257
899.378
908.083
920.301
932.355
936.393
935.664
929.358
913.805
887.868
854.872
821.292
786.206
757.604
732.533
712.854
693.317
677.315
662.375
648.357
635.05
622.81
611.345
600.377
589.86
580.178
571.311
563.338
555.662
548.494
541.953
535.89
530.216
524.616
518.882
512.747
506.316
499.783
493.206
486.703
480.322
474.017
467.962
462.218
456.769
451.534
446.364
441.195
435.993
430.917
425.902
420.943
416.101
411.462
407.087
402.998
399.168
395.56
392.141
388.828
385.591
382.39
379.147
375.863
372.548
369.237
365.988
362.833
359.705
356.675
353.728
350.765
347.889
345.166
342.621
340.283
338.033
335.967
334.152
332.589
331.736
330.911
330.031
329.399
329.073
328.957
329.034
329.27
1103.53
1139.72
1133.23
1154.47
1161.01
1138.5
1060.75
1003.76
966.653
944.807
923.121
907.4
904.31
908.752
918.461
930.801
945.989
960.649
964.735
964.294
960.721
953.146
948.727
943.447
938.438
934.159
930.653
925.128
920.718
919.522
919.338
919.597
921.232
925.719
934.196
947.239
966.403
993.426
1032.74
1088.32
1158.8
1239.82
1299.51
1315.62
1308.99
1269.29
1207.41
1121.65
1028.55
940.508
868.017
813.702
772.748
738.955
711.693
688.595
668.292
651.947
637.994
625.15
613.298
602.097
591.21
580.851
572.113
564.207
557.201
550.613
544.131
538.093
532.541
526.759
520.441
513.922
507.347
500.799
494.282
487.838
481.435
475.194
469.32
463.682
458.195
452.824
447.56
442.275
437.054
431.871
426.752
421.782
416.978
412.522
408.513
404.863
401.438
398.135
394.824
391.503
388.182
384.834
381.353
377.747
374.132
370.537
367.079
363.74
360.572
357.574
354.625
351.812
349.105
346.514
343.996
341.664
339.284
337.178
335.237
334.29
333.154
332.028
331.298
330.9
330.647
330.632
330.762
1063.75
1116.07
1117.18
1146.75
1158.53
1142.75
1072.41
1018.58
973.503
937.291
909.5
900.132
903.163
914.934
934.663
957.855
967.112
968.632
971.29
971.882
971.388
969.413
966.22
962.717
959.345
957.417
956.694
955.61
954.838
955.486
959.964
968.057
980.263
998.722
1030.57
1083.3
1167.14
1300.48
1486.47
1699.22
1901.82
2049.44
2103.56
2109.52
2089.8
2037.7
1951.18
1843.4
1675.22
1471.79
1254.18
1053.41
919.151
832.475
774.259
732.597
699.745
674.696
654.983
640.146
628.064
617.886
606.965
595.613
585.312
576.346
568.436
561.89
556.342
551.064
545.366
539.341
533.226
526.662
519.776
512.699
505.797
499.135
492.618
486.275
480.004
473.923
467.991
462.065
456.215
450.482
444.924
439.565
434.399
429.427
424.824
420.568
416.551
412.688
409.003
405.408
401.84
398.236
394.56
390.863
387.209
383.555
379.891
376.257
372.713
369.187
365.785
362.51
359.24
356.07
353.153
350.373
347.677
345.102
342.736
340.655
338.573
337.345
335.854
334.529
333.644
332.908
332.406
332.047
331.926
1014.8
1089.28
1092.33
1122.81
1147.77
1143.97
1097.1
1044.55
979.956
921.865
896.266
892.659
902.657
924.633
954.517
961.727
962.035
959.234
966.289
974.922
982.134
987.33
990.699
993.803
997.147
999.136
1000.09
1003.06
1010.89
1021.4
1034.14
1056.91
1099.03
1169.05
1285.47
1476.79
1760.09
2106.69
2313.55
2368.71
2375.67
2372.53
2357.39
2331.24
2303.7
2270.91
2243.46
2183.71
2098.73
1983.49
1812.7
1589.62
1336.63
1125.1
965.967
852.655
776.358
725.546
690.462
665.572
646.28
632.574
620.911
610.779
601.998
593.951
586.705
580.068
574.697
570.242
566.242
562.181
557.387
551.564
544.888
537.378
529.896
522.364
514.423
506.553
499.036
491.874
484.992
478.224
471.536
464.8
458.155
451.651
445.38
439.493
433.926
428.778
424.015
419.58
415.465
411.537
407.713
404.055
400.425
396.774
393.076
389.198
385.209
381.258
377.395
373.602
370.056
366.722
363.543
360.518
357.438
354.391
351.48
348.735
346.381
343.773
341.17
339.285
337.518
336.077
335.003
334.175
333.524
333.005
332.789
927.989
1063.29
1079.18
1114.13
1142.68
1133.21
1094.98
1035.75
950.782
896.958
887.499
892.468
915.019
953.331
957.174
956.68
960.629
968.845
980.221
986.963
996.051
1009.01
1022.12
1029.52
1038.08
1048.82
1059.72
1071.04
1088.14
1114.89
1160.14
1240.04
1375.81
1599.08
1943.53
2281.22
2395.59
2415.59
2416.25
2402.05
2379.44
2358.07
2336.85
2308.57
2271.7
2249.81
2235.62
2219.17
2183.1
2129.03
2050.36
1927.49
1738.43
1526.41
1319.25
1124.46
962.55
846.308
765.947
714.305
681.191
659.855
642.881
629.34
619.154
610.885
603.9
598.924
594.514
591.527
589.727
588.319
586.007
582.757
579.105
574.471
568.327
561.131
553.286
545.1
536.431
527.274
517.789
508.068
498.48
489.17
480.111
471.212
462.611
454.546
447.119
440.584
434.895
429.739
424.937
420.554
416.346
412.04
407.686
403.288
398.824
394.488
390.524
386.711
382.921
379.081
375.423
371.938
368.542
365.267
362.14
359.097
356.116
353.075
350.289
347.649
345.346
343.302
341.122
339.422
338.027
336.865
335.891
335.016
334.478
801.682
1045.71
1097.11
1124.65
1126.43
1106.96
1068.55
996.533
910.526
885.43
885.67
902.478
940.19
950.718
953.531
960.924
972.289
984.316
996.387
1011.54
1023.37
1037.73
1059.01
1087.77
1114.23
1136.52
1163.31
1196.73
1241.18
1318.15
1454.17
1674.63
1990.26
2294.65
2405.36
2430.54
2430.33
2410.95
2397.54
2389.65
2378.75
2363.84
2335.07
2288.71
2257.83
2220.52
2181.83
2164.47
2149.47
2125.15
2091.96
2035.02
1932.78
1786.16
1609.38
1423.46
1239.24
1068.7
926.592
815.954
747.533
712.725
688.605
666.757
652.14
643.452
635.926
628.63
624.149
622.327
621.108
618.642
616.283
613.885
611.757
609.741
606.019
601.108
595.85
589.662
582.267
573.999
564.809
554.46
542.932
530.915
518.837
506.178
493.553
481.783
471.147
461.787
453.147
445.118
438.077
431.74
425.938
420.57
415.555
410.787
406.419
402.179
397.739
393.205
388.834
384.725
381.047
377.556
374.358
371.295
368.192
365.148
361.989
358.803
355.739
353.03
349.977
347.736
345.424
343.43
341.903
340.699
339.793
338.888
338.263
673.804
1038.97
1107.09
1120.42
1098.23
1074.05
1022.03
925.557
886.547
883.271
899.023
931.026
944.905
952.159
965.482
971.697
981.328
998.268
1014.09
1026.27
1048.75
1078.4
1115.05
1161.5
1220.74
1280.94
1344.85
1422.72
1525.64
1680.73
1902.92
2187.18
2361.18
2408.31
2414.04
2400.79
2389.92
2391.83
2398.14
2410.1
2409.29
2391.35
2356.48
2314.55
2286.96
2257.8
2211.57
2164.94
2139.32
2113.03
2089.62
2055.81
2003.6
1915.27
1802.67
1658.86
1497.56
1329.31
1161.32
1000.78
886.19
823.94
781.905
745.428
721.467