/*--------------------------------*- C++ -*----------------------------------*\
| =========                 |                                                 |
| \\      /  F ield         | OpenFOAM: The Open Source CFD Toolbox           |
|  \\    /   O peration     | Version:  2112                                  |
|   \\  /    A nd           | Website:  www.openfoam.com                      |
|    \\/     M anipulation  |                                                 |
\*---------------------------------------------------------------------------*/
FoamFile
{
    version     2.0;
    format      ascii;
    arch        "LSB;label=32;scalar=64";
    class       volScalarField;
    location    "0.00797";
    object      p;
}
// * * * * * * * * * * * * * * * * * * * * * * * * * * * * * * * * * * * * * //

dimensions      [1 -1 -2 0 0 0 0];

internalField   nonuniform List<scalar> 
13875
(
951600
984296
973581
975866
973689
974257
974814
974475
975017
975171
974984
975027
974670
974781
974833
974699
974634
975332
975172
973967
973388
975645
972333
982703
945744
733798
659565
672180
677177
669313
669798
677307
678938
679570
679811
679377
678469
670233
669169
670407
678034
679299
679307
677540
669946
669568
676909
672238
657232
731027
736887
635516
664308
653670
649115
647652
647165
646238
647259
649681
648084
649036
645395
645282
645224
648905
646256
648215
647940
647655
648544
652158
661912
632213
733707
743531
636160
665190
653827
649415
647815
646151
644637
644642
644934
643721
644810
645434
645388
645253
644534
643503
644605
646121
647805
648826
652283
662659
632821
739252
757362
639167
667738
654529
650266
648284
646274
644754
644737
644991
643751
644844
645570
645667
645374
644566
643600
644686
646242
648240
649608
652876
664940
635463
750160
759041
647823
673495
656485
652054
649270
646686
645099
644992
645163
643904
644974
645852
646226
645635
644693
643883
644954
646642
649167
651282
654746
670516
643195
751669
765044
668331
685705
661365
655690
651269
647670
645856
645528
645519
644361
645351
646438
646801
646137
644999
644510
645664
647720
651221
654917
660345
682049
665879
755736
791215
718356
711599
674666
663470
655619
650044
647484
646660
646388
645434
646196
647580
647959
647203
645813
645794
647159
649963
655328
662288
673130
707060
715360
781673
908625
827893
766431
704275
679032
664243
654989
650778
649034
648392
647726
648137
649868
650290
649416
647804
648412
650288
654573
663394
676933
700883
760212
823147
909555
1.52408e+06
1.02939e+06
833473
739313
697457
674548
661992
656248
653628
652665
652362
652412
654386
654851
653991
652360
653382
655826
661555
673892
695730
736786
829414
1.02529e+06
1.51713e+06
2.90525e+06
1.3926e+06
957427
796494
725668
691165
674474
666630
662986
661653
661408
661061
662947
663531
662982
661838
663023
666212
673608
689562
722233
789292
941060
1.35128e+06
2.86059e+06
5.60324e+06
2.345e+06
1.28787e+06
937136
789632
727850
700892
688540
682943
680656
679811
679130
680393
681244
681309
681503
683397
688610
700611
726917
786762
925760
1.25212e+06
2.27424e+06
5.57429e+06
5.38854e+06
4.84154e+06
2.31834e+06
1.40289e+06
979109
827022
765812
740622
729311
724092
721662
720513
720569
721750
722994
725524
730737
742364
768992
834303
989556
1.38632e+06
2.18201e+06
4.87494e+06
5.34296e+06
4.83875e+06
4.6493e+06
4.72565e+06
3.99639e+06
1.63592e+06
1.13294e+06
953596
885126
853901
838872
832010
828911
827578
829181
832806
840795
857916
893990
975076
1.20006e+06
1.83453e+06
4.02905e+06
4.68739e+06
4.71718e+06
4.76338e+06
4.03099e+06
4.12966e+06
4.50753e+06
4.26058e+06
4.00275e+06
2.46986e+06
1.6575e+06
1.37631e+06
1.2648e+06
1.21765e+06
1.19845e+06
1.19067e+06
1.18789e+06
1.18994e+06
1.19738e+06
1.21691e+06
1.26537e+06
1.38378e+06
1.69188e+06
2.66877e+06
4.11479e+06
4.2426e+06
4.51042e+06
4.28467e+06
4.26665e+06
3.53544e+06
3.46127e+06
3.92796e+06
4.05935e+06
4.27267e+06
4.34653e+06
3.68548e+06
3.05665e+06
2.84644e+06
2.6814e+06
2.57675e+06
2.5373e+06
2.52217e+06
2.52784e+06
2.55765e+06
2.63995e+06
2.84803e+06
3.04591e+06
3.7505e+06
4.39525e+06
4.2368e+06
4.07745e+06
4.05352e+06
3.57016e+06
3.74806e+06
2.55445e+06
2.69478e+06
3.05572e+06
3.4892e+06
4.20623e+06
5.16873e+06
6.80823e+06
7.61099e+06
7.96876e+06
8.06482e+06
8.13275e+06
8.14891e+06
8.16204e+06
8.15542e+06
8.15365e+06
8.09782e+06
7.99655e+06
7.69299e+06
6.8207e+06
5.14082e+06
4.19967e+06
3.55929e+06
3.14779e+06
2.81646e+06
2.70364e+06
1.43733e+06
1.72327e+06
2.31582e+06
2.99833e+06
4.18676e+06
5.60744e+06
6.7893e+06
7.4308e+06
7.66625e+06
7.63437e+06
7.55423e+06
7.48705e+06
7.47044e+06
7.4878e+06
7.55706e+06
7.66359e+06
7.72904e+06
7.49936e+06
6.81246e+06
5.59112e+06
4.13937e+06
2.9394e+06
2.19839e+06
1.62539e+06
1.3473e+06
695136
1.02506e+06
1.69727e+06
2.58464e+06
4.09973e+06
5.1602e+06
5.8358e+06
6.33799e+06
6.49628e+06
6.46601e+06
6.42252e+06
6.4372e+06
6.45635e+06
6.45482e+06
6.44316e+06
6.50166e+06
6.58004e+06
6.46343e+06
6.03633e+06
5.37649e+06
4.14404e+06
2.67399e+06
1.72174e+06
1.03941e+06
703456
374768
607416
1.12023e+06
2.18732e+06
3.64907e+06
4.3526e+06
4.67915e+06
5.01132e+06
5.23396e+06
5.39228e+06
5.53745e+06
5.64908e+06
5.6856e+06
5.65852e+06
5.54914e+06
5.39403e+06
5.22656e+06
5.00928e+06
4.72528e+06
4.4176e+06
3.68594e+06
2.21583e+06
1.13224e+06
604604
370267
926191
953189
1.15654e+06
1.89046e+06
2.90722e+06
3.38743e+06
3.71271e+06
4.0997e+06
4.42319e+06
4.65394e+06
4.83017e+06
4.93592e+06
4.95953e+06
4.93562e+06
4.82334e+06
4.62768e+06
4.36542e+06
4.03014e+06
3.67274e+06
3.3935e+06
2.87478e+06
1.85675e+06
1.13888e+06
952508
939513
999402
955683
1.14481e+06
1.59969e+06
2.16728e+06
2.61442e+06
3.02148e+06
3.45786e+06
3.79475e+06
4.03119e+06
4.19811e+06
4.2864e+06
4.30078e+06
4.27912e+06
4.1818e+06
3.99337e+06
3.72638e+06
3.37344e+06
2.93221e+06
2.58826e+06
2.12849e+06
1.55661e+06
1.11708e+06
934112
975607
1.10966e+06
996427
1.119e+06
1.33142e+06
1.68442e+06
2.07577e+06
2.52621e+06
2.95476e+06
3.26196e+06
3.48056e+06
3.62696e+06
3.69944e+06
3.71316e+06
3.68866e+06
3.60453e+06
3.43731e+06
3.19659e+06
2.89339e+06
2.42542e+06
2.04626e+06
1.65118e+06
1.30782e+06
1.09313e+06
994477
1.12481e+06
1.32635e+06
1.13213e+06
1.12215e+06
1.1769e+06
1.43314e+06
1.77098e+06
2.13419e+06
2.53004e+06
2.80278e+06
3.00363e+06
3.12495e+06
3.19173e+06
3.20426e+06
3.17932e+06
3.10276e+06
2.95868e+06
2.74033e+06
2.47295e+06
2.06108e+06
1.72812e+06
1.39275e+06
1.14704e+06
1.10024e+06
1.1432e+06
1.31862e+06
1.38225e+06
1.27173e+06
1.13158e+06
1.11872e+06
1.28741e+06
1.54961e+06
1.83562e+06
2.16314e+06
2.39847e+06
2.57893e+06
2.69411e+06
2.75148e+06
2.76498e+06
2.74124e+06
2.67668e+06
2.5491e+06
2.35393e+06
2.12014e+06
1.78953e+06
1.50917e+06
1.24359e+06
1.10163e+06
1.1143e+06
1.2806e+06
1.3673e+06
1.44425e+06
1.38649e+06
1.15022e+06
1.12006e+06
1.19784e+06
1.39021e+06
1.60469e+06
1.87313e+06
2.07145e+06
2.22802e+06
2.33051e+06
2.38142e+06
2.39388e+06
2.37315e+06
2.31446e+06
2.20033e+06
2.03154e+06
1.83452e+06
1.57257e+06
1.36352e+06
1.16392e+06
1.10243e+06
1.13173e+06
1.36957e+06
1.41561e+06
1.48762e+06
1.42642e+06
1.17168e+06
1.12092e+06
1.1434e+06
1.2638e+06
1.42414e+06
1.63134e+06
1.79545e+06
1.92803e+06
2.01817e+06
2.06228e+06
2.07642e+06
2.05608e+06
2.0043e+06
1.90648e+06
1.7631e+06
1.60021e+06
1.39639e+06
1.23986e+06
1.11553e+06
1.10269e+06
1.16092e+06
1.41495e+06
1.45784e+06
1.57475e+06
1.51037e+06
1.21039e+06
1.11941e+06
1.10261e+06
1.16734e+06
1.27619e+06
1.43719e+06
1.56824e+06
1.67949e+06
1.75519e+06
1.79677e+06
1.80972e+06
1.79347e+06
1.74897e+06
1.66751e+06
1.54836e+06
1.41483e+06
1.25584e+06
1.15054e+06
1.08545e+06
1.10285e+06
1.20237e+06
1.50518e+06
1.54506e+06
1.67864e+06
1.6174e+06
1.25447e+06
1.1117e+06
1.07367e+06
1.08923e+06
1.15588e+06
1.27488e+06
1.38074e+06
1.47161e+06
1.53495e+06
1.56905e+06
1.58224e+06
1.56621e+06
1.5272e+06
1.46073e+06
1.36345e+06
1.25866e+06
1.1436e+06
1.07919e+06
1.06119e+06
1.09537e+06
1.2292e+06
1.55156e+06
1.59393e+06
1.73392e+06
1.71896e+06
1.30184e+06
1.10577e+06
1.04218e+06
1.03788e+06
1.06276e+06
1.14729e+06
1.2273e+06
1.30079e+06
1.35174e+06
1.38137e+06
1.39088e+06
1.37849e+06
1.34474e+06
1.29116e+06
1.21352e+06
1.13078e+06
1.04731e+06
1.02528e+06
1.03092e+06
1.09021e+06
1.27772e+06
1.64175e+06
1.67504e+06
1.73586e+06
1.7265e+06
1.34421e+06
1.10571e+06
1.00965e+06
987244
986600
1.03469e+06
1.09442e+06
1.1524e+06
1.1943e+06
1.21838e+06
1.22773e+06
1.21677e+06
1.18993e+06
1.14779e+06
1.08759e+06
1.02802e+06
978385
979444
1.00119e+06
1.08838e+06
1.31299e+06
1.66615e+06
1.70494e+06
1.74216e+06
1.72613e+06
1.42281e+06
1.1071e+06
976315
933410
924831
951542
992265
1.03573e+06
1.06641e+06
1.08572e+06
1.09128e+06
1.08395e+06
1.06186e+06
1.02894e+06
983979
942455
917703
925662
966024
1.089e+06
1.37521e+06
1.66563e+06
1.70673e+06
1.75076e+06
1.71401e+06
1.48183e+06
1.10955e+06
950123
887803
873729
875386
900920
932760
955612
969625
974928
967953
951653
928254
896416
871154
868351
880465
938541
1.09123e+06
1.43777e+06
1.66431e+06
1.71385e+06
1.75029e+06
1.6941e+06
1.54321e+06
1.11945e+06
926569
846019
819514
814956
825927
847661
863300
874670
877690
873828
861242
845479
823778
810822
815855
840025
915165
1.09743e+06
1.50996e+06
1.66084e+06
1.72956e+06
1.74947e+06
1.66565e+06
1.54985e+06
1.14293e+06
917033
815275
774314
761193
760636
772203
782924
790739
793743
790184
781120
770186
759938
760376
771023
807022
902307
1.11286e+06
1.54173e+06
1.65888e+06
1.73068e+06
1.74454e+06
1.64078e+06
1.54392e+06
1.1659e+06
917912
784872
730805
713085
707746
711625
716735
722253
723739
722001
714508
710235
705999
710022
727328
779060
903403
1.14576e+06
1.54165e+06
1.65392e+06
1.72737e+06
1.73309e+06
1.61443e+06
1.5364e+06
1.21522e+06
925454
766440
697399
667778
657472
654888
657631
660974
661946
660509
656471
654848
658255
668898
695867
759184
906836
1.18739e+06
1.52545e+06
1.63461e+06
1.71635e+06
1.70889e+06
1.58491e+06
1.52231e+06
1.31359e+06
945697
753702
666761
630007
615405
610776
609141
611168
610674
610479
608164
609947
614299
626995
662585
743454
918314
1.2711e+06
1.49571e+06
1.59465e+06
1.69193e+06
1.67037e+06
1.56473e+06
1.48483e+06
1.34548e+06
969329
754472
645929
597047
576030
567032
565544
565724
565258
565168
564070
566199
576372
596690
641790
744057
945307
1.32869e+06
1.44703e+06
1.54098e+06
1.65155e+06
1.61324e+06
1.53884e+06
1.4187e+06
1.34362e+06
1.02064e+06
761598
628413
568684
543615
533455
528960
528914
526812
528416
528194
532760
542558
565876
622574
747389
978472
1.32676e+06
1.38219e+06
1.50215e+06
1.63453e+06
1.55992e+06
1.50604e+06
1.36318e+06
1.33762e+06
1.12371e+06
780019
628556
550222
515966
499886
495330
493711
492530
493581
494301
498781
514839
547505
622629
757764
1.0443e+06
1.32146e+06
1.34329e+06
1.4904e+06
1.60102e+06
1.52179e+06
1.47152e+06
1.31269e+06
1.31658e+06
1.17965e+06
803642
631062
538104
493989
475864
467699
465608
462929
466009
466926
474562
491115
531552
626684
783673
1.18048e+06
1.31004e+06
1.31387e+06
1.48258e+06
1.53143e+06
1.47986e+06
1.44049e+06
1.28023e+06
1.27391e+06
1.17795e+06
854369
641099
538432
478820
451173
441911
438233
436462
438475
441100
449887
476576
529848
632845
818581
1.17907e+06
1.28241e+06
1.29092e+06
1.45763e+06
1.46347e+06
1.43463e+06
1.39756e+06
1.25287e+06
1.21354e+06
1.16879e+06
957116
662650
541443
471104
436805
421589
417128
413446
417076
420722
433982
465841
531145
648688
888201
1.17088e+06
1.23053e+06
1.26528e+06
1.40574e+06
1.40277e+06
1.40267e+06
1.35841e+06
1.23198e+06
1.15959e+06
1.14095e+06
1.01758e+06
695184
546867
471376
423717
403685
395994
392955
395829
401927
419639
466156
538443
684761
1.03223e+06
1.15243e+06
1.17291e+06
1.23383e+06
1.33873e+06
1.36235e+06
1.36331e+06
1.32287e+06
1.21286e+06
1.11608e+06
1.08515e+06
1.0142e+06
764121
563490
474382
421858
393059
381493
376013
380863
390711
415252
467643
552065
747821
1.03006e+06
1.11034e+06
1.12641e+06
1.20164e+06
1.30425e+06
1.33687e+06
1.31696e+06
1.27804e+06
1.19445e+06
1.08126e+06
1.02829e+06
1.00355e+06
903999
598132
482530
422720
388551
370062
363304
368872
385180
415576
472883
579940
875825
1.01887e+06
1.05054e+06
1.0819e+06
1.18743e+06
1.27657e+06
1.30636e+06
1.26982e+06
1.23895e+06
1.16976e+06
1.05586e+06
985316
976434
902210
660766
497168
424762
388802
367534
353766
365643
385450
418446
487380
640358
893759
993285
1.00415e+06
1.0583e+06
1.17567e+06
1.23955e+06
1.25885e+06
1.17506e+06
1.18063e+06
1.13811e+06
1.03673e+06
952024
931614
894864
791472
528075
433060
390735
367845
353973
365869
386560
425847
514364
759141
889207
940700
963788
1.03995e+06
1.15099e+06
1.1807e+06
1.17345e+06
1.04053e+06
1.09835e+06
1.07751e+06
1.01192e+06
926322
885851
874086
797732
591718
453306
397093
369562
355498
367244
391208
443903
569352
796089
872775
889142
934863
1.01989e+06
1.10068e+06
1.09647e+06
1.04312e+06
85166.8
89454.9
93575.4
99983.7
105769
105417
103485
104480
103356
105497
107571
112515
120539
134324
147891
159927
161927
163163
166094
169814
170347
169947
168566
167035
165270
163353
161341
159872
158467
157446
87140.4
97755.2
98477.9
102307
106044
105698
104809
104589
103853
106326
109821
117719
124879
135423
144702
152313
156141
160629
166116
168281
168537
168172
167128
165709
164008
162087
160041
158622
157346
156520
93013.1
102194
100956
107099
109327
107352
106717
106197
104566
107719
112861
121291
127168
136168
143082
148679
153147
159306
164517
165709
165705
165530
164805
163451
161803
159905
157863
156664
156008
155575
95638.5
108172
109378
116776
114051
111295
109757
108949
108603
110347
116944
123264
129086
136581
141647
146629
151573
157932
162241
163565
163677
163406
162415
161207
159523
157798
156197
155319
154984
155093
104612
112858
114548
122847
116586
113080
111162
110405
111310
114080
119182
124133
129803
136593
140989
145530
150906
156900
160241
161229
161314
160999
159952
158724
156968
155441
154268
153527
153227
153231
109016
117524
120909
130124
119595
114323
111778
111130
113060
116757
120008
124435
130089
136597
140672
145063
150739
156092
158393
159102
159178
158837
157751
156463
154841
153564
152444
151611
151070
150555
114530
124024
128778
135165
122608
116274
113679
113212
115221
118231
120334
124531
130479
136386
140452
144841
150662
154826
156432
156881
156922
156478
155351
154038
152549
151358
150182
149264
148710
148125
120532
130298
135455
141047
126749
119796
117073
116669
117447
118828
120677
125008
130503
135934
140325
144701
150237
153118
154321
154643
154662
154188
153118
151868
150547
149366
148089
147186
146592
146120
128007
138261
142560
147931
130913
122691
119355
118654
118506
119474
121307
125596
130557
135519
139944
144585
149114
151190
152079
152343
152367
151882
150870
149670
148393
147097
145840
145038
144647
144211
136221
145777
149198
154251
134706
125661
121820
120695
120479
120903
122691
126617
130659
135277
139440
144213
147444
149075
149822
150069
150105
149601
148664
147598
146286
145011
143813
143130
142786
142386
145073
152353
155698
159931
138889
129197
124881
123333
122888
122797
124496
127279
130642
135122
138747
143112
145621
146934
147581
147807
147834
147267
146339
145381
144069
142312
140788
140205
140009
139537
152914
158169
162269
164764
141815
131470
126891
125106
124493
124316
125499
127555
130590
134638
137973
141460
143425
144681
145343
145594
145626
144993
143959
143180
141556
140088
139190
138829
138740
138316
160131
163439
168534
167258
143266
132546
127771
125861
125203
125001
125940
127624
130319
133896
136933
139335
140442
142006
143069
143472
143534
143082
142372
141486
140445
139336
138652
138309
138216
137849
166689
167467
171671
168216
143779
132902
128044
126121
125468
125272
126080
127614
129962
133078
135810
137234
138488
140258
141586
142188
142359
142261
141647
140806
139865
139188
138583
138214
138102
137762
171177
169334
172847
168442
143897
132985
128102
126188
125545
125357
126093
127231
129272
132081
134279
135714
137113
139235
140786
141468
141704
141763
141256
140482
139669
139188
138595
138218
138102
137782
173343
169948
173056
168427
143928
132991
128105
126201
125559
125369
125746
126132
128227
130902
132821
134326
136432
138771
140290
141039
141362
141398
140846
140215
139591
139238
138744
138299
138156
137814
174132
169985
171960
167359
143532
132696
127826
125991
125362
125064
124775
124850
127135
129706
131509
133348
136081
138517
140003
140669
140813
140112
139936
139712
139477
139252
138868
138451
138311
137930
174287
167306
168259
164863
142202
131850
127222
125452
124690
124127
123716
123561
125947
128534
130349
132729
135884
138256
139419
139833
139514
139512
139505
139501
139439
139255
138965
138638
138542
138255
170648
163743
164040
161173
140349
130736
126274
124383
123469
122697
122221
122104
124618
127356
129355
132413
135783
137327
137754
137709
138595
139130
139349
139443
139437
139389
139282
139158
139166
138928
168968
160256
159593
156643
137730
128933
124791
122960
121990
120972
120606
120522
123204
126154
128453
131961
134397
135393
135769
136093
137990
138973
139319
139448
139690
140100
140294
140328
140367
140018
162849
155087
153751
150991
134553
126784
122981
121212
120248
119441
119117
119049
121838
124812
126975
129470
132187
133381
133994
135118
137322
138939
139774
139890
140563
141355
141741
141632
141556
141175
159589
149991
147974
144568
130863
124250
120935
119372
118545
118015
117832
117811
120566
123232
124670
126468
129917
131548
132799
134638
137096
138721
140039
141228
141861
142521
142734
142501
142305
141920
151731
143278
140871
137423
126935
121531
118527
117257
116712
116407
116337
116314
118628
120589
121504
123594
127711
129931
131959
134410
136863
138624
140136
141744
142794
143144
143271
142941
142698
142429
146579
137791
133839
130454
122770
118328
116069
115120
114750
114186
113955
113864
114815
117293
118441
121116
126032
128702
131304
134307
136648
138587
140198
141920
143034
143453
143536
143196
142910
142874
128413
130506
127760
123646
118299
115463
113479
112588
112203
111378
110972
110812
110841
114568
116172
119235
124641
127492
130686
134233
136478
138565
140209
141937
143070
143703
143992
144001
143607
143624
157520
158609
159985
161197
163081
164714
166522
168249
170139
170895
170746
168485
164069
162340
158354
145572
130776
118910
111390
106629
104825
103320
104912
103986
106316
106389
99943.2
92924.2
88680.3
83305.6
156506
157309
158575
159829
161866
163598
165288
166904
168426
169144
169121
167655
163117
156818
153784
145267
134245
124412
116932
109307
106077
103879
105039
105505
106694
106704
101941
98100.6
97224.9
86678.1
155454
155890
156504
157605
159709
161569
163169
164649
165806
166365
166507
165893
162040
154340
150923
144630
136107
127228
120345
112634
107785
105804
107840
108442
109424
110344
107830
100731
101773
93117.5
154778
154810
155162
155988
157630
159431
161099
162386
163668
164369
164396
163606
160264
153073
148146
144099
136778
128659
122579
116971
110672
109078
109490
110131
112102
115225
117472
109393
107777
96088
152629
152783
153232
153919
155191
156712
158450
159751
161024
161768
161777
161203
158689
152576
146774
142398
136820
129094
123480
118444
113781
110953
110650
111375
113855
117909
123783
114520
112487
104575
149640
150266
151072
151931
153128
154380
155973
157306
158619
159409
159425
159030
157210
152356
146130
141520
136442
129225
123816
119257
116589
113430
111470
112121
114994
120700
131263
121143
117407
108743
146846
147586
148436
149421
150687
151948
153427
154767
156073
156874
156934
156670
155411
152038
145811
141216
136237
129559
123938
119581
117798
115405
113752
114295
117197
123916
136491
128700
123863
113906
144712
145309
146103
147151
148556
149831
151196
152497
153648
154377
154456
154266
153379
151060
145645
140821
135797
129963
124346
120126
118453
117451
116958
117487
120580
128114
143018
135304
130290
120003
142709
143252
143774
144768
146197
147608
148947
150271
151294
151901
151947
151803
151130
149319
145414
140303
135423
130134
125092
120883
119243
118521
118674
119636
123431
132212
150161
142659
138265
127911
140924
141409
141785
142595
144015
145498
146895
148119
149058
149500
149492
149336
148744
147349
144425
139547
135187
130226
126318
122344
120663
120453
120725
122090
126354
135982
156262
149430
145441
136451
138518
139024
138981
139500
140725
143241
144767
145893
146781
147103
147066
146870
146323
145159
142814
138434
134963
130213
126953
124271
122746
122888
123442
125236
129943
140245
161927
155878
151756
145317
136540
137028
137106
137560
138457
140126
142288
143576
144299
144796
144742
144491
143903
142814
140717
137233
134031
130086
127204
125296
124304
124508
125198
127208
132221
143220
166827
161787
157177
153285
135812
136296
136387
136795
137618
138915
140401
141520
142350
142485
142472
142319
141660
140396
138474
135860
133061
129743
127257
125746
125034
125257
125988
128098
133261
144626
169329
167230
162844
160683
135657
136127
136230
136625
137465
138458
139695
140705
141394
141444
141229
140640
139655
138015
136394
134368
132052
129328
127243
125889
125335
125550
126269
128374
133586
145086
170277
169813
166545
167000
135635
136095
136210
136610
137457
138327
139452
140347
140997
140955
140661
139878
138421
136137
134624
132895
130993
128608
126875
125904
125431
125640
126346
128434
133664
145160
170469
170805
168186
171075
135630
136091
136214
136641
137570
138342
139358
140194
140806
140734
140421
139554
137791
135398
133441
131713
129911
127551
125771
125564
125442
125657
126365
128444
133678
145169
170360
170999
168674
173021
135687
136145
136351
136885
137809
138366
138992
139685
140569
140612
140289
139373
137501
134982
132584
130713
128880
126503
124495
124632
125054
125530
126285
128252
133397
144645
168829
169532
168648
173668
135926
136324
136595
137205
137936
138353
138782
139091
139643
140171
139929
139141
137400
134816
131990
129758
127892
125434
123358
123542
124130
124838
125776
127768
132614
143155
165868
166075
165974
173750
136635
136903
137115
137692
138090
138354
138670
138805
138806
138811
138249
138084
137141
134745
131662
128912
126913
124262
122018
122163
122688
123608
124657
126768
131488
141244
161773
162084
162553
170077
137770
138055
138152
138569
138632
138565
138650
138732
138438
137598
136106
135700
135322
134164
131390
128053
125790
122884
120430
120534
120929
121995
123157
125238
129667
138571
156915
157676
159169
168628
139015
139388
139522
139955
140187
139735
139065
138994
138315
136798
134839
133197
132673
131588
129138
126467
124292
121297
118814
118905
119290
120153
121322
123316
127395
135249
151088
151972
153941
162443
140212
140684
140967
141558
141401
140816
140050
139009
137965
136287
134050
131641
130416
128904
125531
123701
122328
119644
117386
117447
117741
118407
119356
121157
124792
131487
144541
146400
149068
159324
141555
141650
142125
142530
142113
141309
140375
139004
137694
136034
133677
130777
128756
126628
122349
120325
119458
117614
115865
115907
116099
116614
117283
118688
121829
127444
137353
139614
142426
151463
142311
142444
142637
142713
142375
141897
140610
139004
137528
135666
133409
130308
127604
124991
119844
117350
116349
114150
113610
113721
114033
114753
115167
116186
118456
123085
130450
132867
137075
146178
142542
142631
142640
142689
142422
141990
140667
139050
137433
135319
132784
129548
126426
123592
117748
115016
113766
110706
110697
110930
111483
112274
112652
113532
115583
118477
123672
126966
130169
128248
364532
371165
396574
413516
441866
471883
503250
511338
513180
513341
509857
500083
489270
478376
467161
455241
443254
431739
421017
411201
402271
394110
386554
379451
372576
367481
362020
356637
351690
347041
342654
338573
334788
331283
328038
325044
322295
319794
317549
315511
313701
312093
310650
309334
308111
306965
305869
304779
303663
302468
301154
299674
298058
296269
294245
291977
289476
286736
283781
280661
277358
273876
270269
266617
262829
258918
254818
250551
246179
241426
236877
232514
227978
223261
218310
213104
207705
202201
196711
191419
186297
181343
176596
172125
167980
164172
160661
157409
154420
151692
149216
146981
144943
143273
142010
141020
140451
140357
140374
140477
140768
141397
142517
143641
145477
147079
148314
149728
151144
152088
152543
152821
152886
153403
153677
152225
151218
151115
150909
150323
148511
145445
143712
142867
142720
357791
367215
386562
404176
428614
451971
485847
504103
508023
508148
505252
496797
486585
475949
464907
453692
442580
431791
421564
412018
403190
395018
387430
380361
373832
367503
362305
357158
352265
347747
343575
339701
336123
332844
329850
327116
324623
322374
320319
318442
316700
315087
313611
312228
310900
309602
308297
306952
305547
304057
302468
300778
298941
296878
294554
291968
289127
286045
282759
279323
275680
271843
267888
263733
259472
255119
250786
246395
241973
237878
233716
229003
223761
218174
212498
206825
201263
196003
191103
186419
181980
177797
173861
170145
166659
163395
160358
157551
154945
152538
150320
148267
146374
144690
143245
142174
141611
141284
141234
141238
141296
141494
141959
142635
144215
145213
146045
147300
148303
148851
149303
149886
149960
150087
149922
150279
150101
149673
149569
149241
148232
145500
143526
143004
142796
354792
364319
380182
395882
415430
434966
459518
479770
487342
489176
489136
485346
477895
469095
459515
449587
439570
429666
420049
410876
402240
394150
386600
379567
373039
367094
361760
356781
352187
347960
344153
340720
337571
334724
332145
329774
327579
325536
323593
321779
320100
318512
316961
315429
313892
312334
310736
309083
307354
305535
303605
301529
299262
296813
294180
291363
288366
285190
281832
278280
274627
270942
267129
263113
258917
254568
250067
245381
240568
235440
229813
224266
219075
214124
209287
204533
199871
195241
190559
185832
181199
176853
172895
169252
165858
162766
160036
157630
155446
153380
151381
149469
147709
146127
144714
143529
142636
141983
141540
141348
141279
141318
141461
141797
142102
142283
142410
142780
142986
142997
143229
143585
144202
145456
146584
148094
148134
148093
147987
147619
146760
145232
143411
142818
142652
352602
361860
374701
388091
403254
418817
436477
454845
461795
464468
465031
464305
460380
454620
447793
440273
432334
424177
415952
407790
399837
392246
385101
378450
372314
366718
361680
357124
352962
349208
345881
342935
340249
337770
335476
333356
331379
329604
327957
326300
324692
323057
321384
319664
317888
316052
314151
312179
310133
307995
305763
303419
300944
298313
295511
292527
289348
285979
282413
278646
274693
270512
266101
261530
256803
251917
246883
241725
236494
231402
226439
221325
216147
210948
205742
200613
195608
190440
185511
180912
176667
172772
169164
165820
162734
159929
157460
155317
153401
151612
149867
148172
146617
145233
143989
142900
142068
141445
140959
140588
140260
139931
139631
139357
138887
138160
137572
137491
137499
137535
137667
138010
138808
140517
143011
145212
145552
145550
145560
145547
145368
144820
143672
142685
142657
351429
360190
370988
382413
394615
406922
419802
434658
441522
444310
445163
445154
443315
439429
434232
428188
421643
414853
408010
401249
394659
388272
382152
376394
371075
366235
361881
357983
354543
351470
348677
346125
343800
341667
339673
337854
336205
334544
332848
331103
329307
327454
325541
323563
321523
319421
317260
315032
312724
310260
307789
305188
302452
299566
296516
293299
289901
286300
282499
278505
274311
269913
265347
260635
255793
250841
245794
240674
235465
229988
224455
218949
213511
208320
203202
198155
192981
188236
183714
179419
175354
171507
167896
164486
161300
158375
155733
153382
151294
149368
147519
145858
144507
143315
142165
141133
140296
139585
138875
138122
137435
136844
136483
136049
135330
134461
133777
133389
133375
133390
133481
133777
134520
136190
139656
141991
142775
143234
143483
143911
143873
143640
143075
142335
142385
350950
359354
368728
378485
388431
398255
407987
418126
425225
427953
428644
428774
427944
425344
421361
416449
410977
405205
399350
393576
388014
382758
377855
373326
369187
365445
362093
359095
356383
353939
351715
349664
347735
345887
344215
342553
340807
339000
337139
335224
333257
331235
329158
327024
324833
322582
320267
317880
315411
312848
310185
307402
304482
301408
298172
294760
290996
287090
283031
278745
274252
269577
264731
259665
254471
249141
243710
238210
232688
227140
221610
216142
210757
205242
199877
194758
190129
185655
181261
176954
172899
169135
165633
162394
159400
156603
153984
151595
149347
147199
145168
143328
141731
140306
139041
137951
136955
135920
134845
133846
133010
132410
132039
131729
131298
130749
130501
130387
130396
130422
130500
130749
131411
132918
136034
139711
141329
141598
141537
141478
141293
141392
141165
141104
141811
351137
359093
367813
376366
384731
392860
400424
407665
412421
414611
415283
415338
414760
412671
409323
405158
400487
395592
390687
385925
381439
377320
373590
370240
367257
364615
362278
360185
358270
356485
354782
353113
351441
349878
348203
346417
344563
342659
340717
338740
336729
334678
332583
330437
328232
325956
323597
321144
318591
315929
313145
310220
307133
303868
300413
296754
292870
288754
284404
279824
275031
270061
264969
259304
253970
248490
242912
237268
231509
225815
220173
214589
209095
203707
198447
193242
188125
183454
179204
175264
171483
167827
164280
160869
157707
154815
152178
149753
147526
145460
143512
141669
139934
138335
136856
135450
134103
132761
131504
130310
129295
128480
127872
127387
126953
126562
126574
126602
126654
126753
126943
127312
128038
129480
132410
138365
138686
138703
138739
138867
139285
139273
140013
140319
140628
352271
359703
367570
375259
382418
389183
395549
401077
403634
404728
405028
405011
404121
401872
398733
395022
390993
386861
382820
379024
375583
372549
369933
367694
365782
364127
362647
361280
359966
358644
357269
355819
354355
352761
351026
349220
347363
345471
343567
341658
339733
337777
335776
333713
331569
329320
326953
324453
321832
319073
316163
313094
309864
306452
302840
299014
294964
290702
286193
281402
276382
271163
265765
260223
254564
248801
242961
237112
230963
225055
219212
213451
207802
202330
197031
191943
187063
182187
177406
173209
169369
165752
162379
159262
156315
153536
150928
148457
146078
143777
141626
139636
137800
136098
134511