/*--------------------------------*- C++ -*----------------------------------*\
| =========                 |                                                 |
| \\      /  F ield         | OpenFOAM: The Open Source CFD Toolbox           |
|  \\    /   O peration     | Version:  2112                                  |
|   \\  /    A nd           | Website:  www.openfoam.com                      |
|    \\/     M anipulation  |                                                 |
\*---------------------------------------------------------------------------*/
FoamFile
{
    version     2.0;
    format      ascii;
    arch        "LSB;label=32;scalar=64";
    class       volScalarField;
    location    "0.00259";
    object      nut;
}
// * * * * * * * * * * * * * * * * * * * * * * * * * * * * * * * * * * * * * //

dimensions      [0 2 -1 0 0 0 0];

internalField   nonuniform List<scalar> 
13875
(
0.0511667
0.0366227
0.0343765
0.0343193
0.0342617
0.0343249
0.0343306
0.0343144
0.0342864
0.034283
0.0342967
0.03429
0.0343145
0.0343238
0.0343111
0.0342793
0.0342782
0.0343048
0.034334
0.0343331
0.0342721
0.0343304
0.0343856
0.0365625
0.0514349
0.0532604
0.0341187
0.0322337
0.0320987
0.0320218
0.0320631
0.0320604
0.0320449
0.0320212
0.032021
0.0320449
0.0320452
0.0320719
0.0320725
0.0320678
0.0320363
0.0320066
0.032036
0.0320623
0.0320684
0.0320288
0.0320982
0.0322321
0.0340541
0.0536458
0.0564567
0.0335623
0.0318151
0.0315851
0.0315152
0.0315538
0.0315445
0.0315192
0.0314464
0.0314419
0.0314735
0.03148
0.0314968
0.0314994
0.0314934
0.0314641
0.0314377
0.0315098
0.0315449
0.0315573
0.0315208
0.0315743
0.0317983
0.033498
0.0565985
0.0590719
0.0332336
0.0315015
0.0312684
0.0312091
0.0312434
0.0312295
0.0312025
0.0311154
0.0311073
0.0311433
0.0311483
0.0311566
0.0311771
0.031158
0.031127
0.0311144
0.0311939
0.03123
0.031246
0.0312134
0.0312563
0.0314884
0.033174
0.0591455
0.06113
0.0330053
0.0312585
0.0309942
0.0309331
0.0309624
0.0309459
0.0309161
0.0308269
0.0308195
0.0308569
0.0308615
0.0308684
0.0308921
0.030871
0.0308392
0.0308279
0.0309075
0.0309461
0.0309644
0.0309362
0.0309832
0.031234
0.0329237
0.0612554
0.0628277
0.0328518
0.0311035
0.0307634
0.0307018
0.03072
0.0306973
0.0306604
0.0305672
0.03056
0.0305989
0.0306027
0.0306091
0.0306353
0.0306134
0.0305788
0.030572
0.030652
0.0306969
0.030722
0.0307042
0.030756
0.0310628
0.0328268
0.0629722
0.0648413
0.0330807
0.0311202
0.030628
0.0305233
0.030519
0.0304828
0.0304362
0.03034
0.0303319
0.0303695
0.0303729
0.0303806
0.0304096
0.0303819
0.0303466
0.0303516
0.0304302
0.0304833
0.0305198
0.0305259
0.0306305
0.0311198
0.033077
0.0648726
0.0671529
0.0339627
0.0314538
0.0306574
0.0304548
0.0303937
0.0303271
0.0302599
0.0301585
0.030147
0.0301785
0.0301799
0.0301905
0.0302197
0.0301864
0.0301534
0.0301746
0.0302547
0.0303255
0.0303901
0.0304475
0.0306416
0.0314012
0.0339034
0.0673781
0.0737383
0.0363428
0.032086
0.0308763
0.0304788
0.030353
0.030245
0.0301511
0.0300462
0.0300302
0.0300522
0.0300467
0.0300609
0.0300875
0.0300505
0.0300269
0.0300631
0.0301471
0.0302425
0.0303458
0.0304703
0.030825
0.0319575
0.0360267
0.0742437
0.0832205
0.0386245
0.0328385
0.0312226
0.030695
0.0304342
0.0302713
0.0301508
0.0300553
0.0300339
0.030041
0.0300279
0.0300428
0.0300654
0.0300318
0.030021
0.030063
0.0301506
0.0302715
0.0304264
0.030668
0.0311661
0.032678
0.0381659
0.0835818
0.0909963
0.0443208
0.0347751
0.0322649
0.0311709
0.0307442
0.0305113
0.0303559
0.0302636
0.0302328
0.0302242
0.0302048
0.0302159
0.0302317
0.0302106
0.0302142
0.0302594
0.0303535
0.0305092
0.0307223
0.0311273
0.0321249
0.034556
0.043439
0.0895148
0.09472
0.055665
0.041681
0.0343111
0.0326136
0.0316509
0.0311929
0.0309767
0.0308497
0.0307945
0.0307708
0.0307501
0.0307496
0.0307625
0.0307579
0.0307782
0.0308407
0.0309692
0.03119
0.0316257
0.0324821
0.0338003
0.0405594
0.0539696
0.0943236
0.086434
0.0657599
0.0581747
0.0435375
0.0361517
0.0336246
0.0329717
0.0326157
0.0324791
0.0324066
0.0323772
0.0323707
0.0323607
0.0323671
0.0323783
0.0324125
0.0324928
0.0326371
0.0329606
0.0337099
0.036314
0.0432536
0.0540492
0.0665525
0.0866869
0.0793475
0.0644343
0.0614421
0.0743052
0.0462637
0.0416848
0.0396917
0.0377477
0.0371404
0.0367893
0.0368463
0.036604
0.0368877
0.0367013
0.0368332
0.0369047
0.037254
0.0378953
0.0397836
0.042311
0.0482061
0.0705763
0.0598965
0.065579
0.0819035
0.0753546
0.0640654
0.0599665
0.0678665
0.059425
0.0550266
0.0570937
0.0520669
0.0499416
0.0489082
0.0490437
0.0485777
0.0487555
0.0485265
0.0488807
0.0489932
0.0498103
0.0518249
0.0575638
0.0556026
0.0594111
0.066503
0.0589584
0.0647549
0.0755723
0.0680098
0.0637695
0.0616351
0.0685972
0.0667764
0.0776007
0.0783753
0.0671079
0.0673821
0.0683934
0.0689806
0.0697293
0.0689203
0.0694947
0.0691934
0.0691164
0.0672675
0.0654965
0.0750567
0.0802715
0.0681038
0.0682511
0.0601452
0.0639181
0.0683045
0.0657538
0.0654696
0.0663037
0.0732042
0.0710402
0.0849958
0.0773973
0.063472
0.0639205
0.0632901
0.0646815
0.064514
0.0647929
0.064415
0.0648566
0.064206
0.0636456
0.061787
0.0727623
0.0884718
0.0739265
0.0730238
0.0653776
0.0655159
0.066555
0.0621334
0.0692805
0.0706983
0.0706869
0.0675306
0.0804769
0.0757738
0.064038
0.0626309
0.0615201
0.0620618
0.0616068
0.0621256
0.0615777
0.0623698
0.0623161
0.0621667
0.0625373
0.0728082
0.081505
0.0699893
0.0712846
0.0708494
0.0700177
0.0626995
0.0556772
0.0708299
0.071963
0.0686083
0.0643373
0.0714319
0.0737496
0.0677395
0.0638126
0.0611286
0.0602276
0.0593116
0.0596641
0.0591714
0.0602334
0.0609835
0.062296
0.0654322
0.0725538
0.0730864
0.0656864
0.0690005
0.0717944
0.0723281
0.0572031
0.0527659
0.0708342
0.0689716
0.0660901
0.0623622
0.0660489
0.0706896
0.0691969
0.0650869
0.0611869
0.058976
0.0574311
0.0574855
0.0573034
0.058841
0.0606968
0.0635645
0.0675667
0.0705288
0.0674349
0.0633853
0.0664431
0.0688922
0.0703136
0.0527393
0.0618586
0.0667834
0.0650879
0.0630901
0.0602224
0.0629093
0.0679857
0.0684369
0.0648246
0.0605179
0.0575139
0.0554344
0.0552584
0.0554088
0.0574664
0.0601167
0.0635997
0.0672705
0.0681954
0.0642147
0.061198
0.063501
0.0646757
0.0656615
0.0612355
0.077868
0.0691959
0.0628526
0.0609596
0.0584458
0.0607555
0.0655966
0.0668045
0.0636316
0.0592007
0.0557626
0.0533466
0.0529799
0.053353
0.0557404
0.0588446
0.0625307
0.0657691
0.0659184
0.0621155
0.0593945
0.0613164
0.0620771
0.0679961
0.0776675
0.0918529
0.0748531
0.0615719
0.0588182
0.0567158
0.0588287
0.0634062
0.0648362
0.0618827
0.057464
0.053827
0.0512351
0.0507364
0.0511845
0.0537326
0.0570585
0.0607566
0.0637322
0.0636641
0.0601555
0.0575867
0.0591013
0.0606228
0.0737069
0.0925333
0.101155
0.0765074
0.0599926
0.0568486
0.0550755
0.0568895
0.0612566
0.062752
0.0596869
0.055269
0.0516752
0.0490891
0.048592
0.0491144
0.0517085
0.055082
0.0587409
0.0616658
0.061426
0.0580372
0.0560569
0.0573951
0.0594628
0.0751445
0.100242
0.107026
0.0773223
0.058667
0.055274
0.0536674
0.0552387
0.0592514
0.0605657
0.057484
0.0531599
0.0496188
0.0470893
0.0466106
0.0471491
0.0497277
0.0531341
0.0567361
0.0595195
0.0592825
0.0561805
0.0546327
0.0559813
0.0584932
0.0765324
0.106103
0.113579
0.0784329
0.0579607
0.0541737
0.0525289
0.0538912
0.0573834
0.0583221
0.0552588
0.0511292
0.0477193
0.0452593
0.0447729
0.0453147
0.0477996
0.0511118
0.0545502
0.0572134
0.0571994
0.0546299
0.0533882
0.0548606
0.0578882
0.0772797
0.113181
0.120579
0.0793018
0.0574464
0.0533715
0.0516945
0.0527963
0.0555798
0.0559846
0.0529729
0.0490985
0.0458651
0.0435689
0.0431
0.043647
0.0460534
0.0492738
0.0525677
0.0550967
0.0553252
0.0533307
0.0524414
0.0541385
0.0576311
0.0788175
0.11888
0.12643
0.0805393
0.057308
0.0526938
0.0511127
0.0518761
0.0539339
0.0538377
0.0508866
0.0472699
0.0442243
0.0420454
0.0415797
0.0421216
0.0443964
0.0474375
0.0505395
0.0529795
0.0535268
0.0522425
0.0517578
0.0534535
0.0574978
0.0796916
0.12565
0.13384
0.0812377
0.0571851
0.05211
0.050642
0.0511193
0.0524355
0.0518724
0.048992
0.0455973
0.0427215
0.040662
0.0401948
0.0407199
0.0428196
0.0456755
0.048611
0.0509723
0.0518373
0.0512912
0.0511594
0.0527913
0.0573511
0.0795181
0.132583
0.141006
0.0815345
0.0571316
0.0515772
0.0501343
0.0503817
0.0509438
0.0498771
0.0470547
0.0439284
0.0412756
0.0393861
0.0389368
0.0394701
0.0414672
0.0441435
0.0469171
0.0492564
0.050404
0.0504349
0.050538
0.0522289
0.0574577
0.0804426
0.138927
0.144439
0.0820502
0.057437
0.0512907
0.0495923
0.0496055
0.0496209
0.0482101
0.0454423
0.0424948
0.0400017
0.0382337
0.0377935
0.0383166
0.0401471
0.0426497
0.0452977
0.0476232
0.049025
0.0495213
0.0498473
0.0518714
0.0576337
0.0808852
0.144278
0.147987
0.0830718
0.0579114
0.0513226
0.0490522
0.0488105
0.0484126
0.0466999
0.0439857
0.0411998
0.0388646
0.0371957
0.0367555
0.0372714
0.0389655
0.0412871
0.0438172
0.0461302
0.0477692
0.0485982
0.0492054
0.0517599
0.0580054
0.0814286
0.147235
0.15186
0.0831936
0.0587343
0.0515228
0.0486015
0.0479486
0.0471835
0.0452588
0.0426181
0.039976
0.0377703
0.0362328
0.0358087
0.0363267
0.0379117
0.0401141
0.0425634
0.0448433
0.0466219
0.0476961
0.0486818
0.0518716
0.0587604
0.0824543
0.150509
0.154595
0.0835755
0.0597525
0.0520621
0.0482989
0.0471694
0.0460654
0.0440051
0.041417
0.0389055
0.0368303
0.0353751
0.0349487
0.0354618
0.0369383
0.0389894
0.0413403
0.0436176
0.0454907
0.0468649
0.0483296
0.0522366
0.0598682
0.0827886
0.153864
0.157335
0.0846161
0.0602172
0.052781
0.0482357
0.0464499
0.0450011
0.0428762
0.0403754
0.0379698
0.0359635
0.0345899
0.0341673
0.0346706
0.0360458
0.0380125
0.0402748
0.0425014
0.0444265
0.0461187
0.0482395
0.0529157
0.0606319
0.0832088
0.156081
0.16015
0.0845568
0.0601092
0.0535027
0.048402
0.0458614
0.0440153
0.0417692
0.0393422
0.0370535
0.0351683
0.0338744
0.0334589
0.0339694
0.0352887
0.0371423
0.0393135
0.0415125
0.0435132
0.045552
0.0483694
0.0537624
0.0607829
0.0843334
0.158275
0.161852
0.0848786
0.060079
0.0547872
0.048792
0.0454974
0.0431685
0.0408145
0.0384613
0.0362723
0.0344559
0.0332249
0.0328129
0.0333192
0.03455
0.0363332
0.0384078
0.0405674
0.0426763
0.0451714
0.0486735
0.0549737
0.0605237
0.0842186
0.160626
0.163816
0.08542
0.0600395
0.0557538
0.0495252
0.0453666
0.0425311
0.0399892
0.0376439
0.0355291
0.033812
0.0326382
0.032227
0.0327322
0.033892
0.0355672
0.0375739
0.0397696
0.0420851
0.0450424
0.0493985
0.0558559
0.0602013
0.0842407
0.162424
0.165907
0.085321
0.0593563
0.05578
0.050384
0.0453907
0.0420998
0.0392741
0.0368905
0.0348418
0.0331926
0.0320832
0.0316874
0.0321931
0.0332962
0.0349161
0.0368745
0.0391317
0.0417486
0.0451082
0.0503543
0.0560484
0.0596813
0.0847656
0.164422
0.167282
0.0856739
0.0586111
0.0556677
0.0519902
0.0457738
0.0419175
0.0387886
0.036263
0.0342314
0.0326507
0.0315864
0.0311914
0.031692
0.0327402
0.0342857
0.0362277
0.0386617
0.0415797
0.0454313
0.0518551
0.055854
0.0587588
0.0848226
0.166311
0.168709
0.0867845
0.0581525
0.0552913
0.0531001
0.046581
0.0419202
0.038511
0.0357889
0.0337121
0.0321493
0.0311228
0.030733
0.0312191
0.0322288
0.0337452
0.0357404
0.0383906
0.0416148
0.0463067
0.0529271
0.0554235
0.0579967
0.0853571
0.167556
0.170047
0.0873436
0.0574908
0.0545928
0.0531049
0.0479176
0.0421269
0.0383543
0.0354548
0.0332593
0.0316908
0.0306954
0.03031
0.0308016
0.0317886
0.0333219
0.0354374
0.0382742
0.0420286
0.0479415
0.0528437
0.0547737
0.0578423
0.0868258
0.168939
0.170764
0.0883269
0.0572406
0.0538361
0.0527211
0.0495162
0.0429194
0.0383982
0.035322
0.0329196
0.0313021
0.0303022
0.0299188
0.0304113
0.0313907
0.0329858
0.0352767
0.0382691
0.0429105
0.0493708
0.0523794
0.0539718
0.0573346
0.0873862
0.17008
0.17153
0.0900601
0.0575988
0.053241
0.0521069
0.0500382
0.0444409
0.0387477
0.0352584
0.0327275
0.0310199
0.0299739
0.0295717
0.0300804
0.0311107
0.0327998
0.0351921
0.0385927
0.0447072
0.0497832
0.0516575
0.0533143
0.0572523
0.0883318
0.17081
0.172529
0.0906162
0.0574936
0.0526534
0.0513366
0.0498096
0.0467042
0.0396161
0.0353197
0.0326602
0.0308737
0.0297306
0.0292978
0.0298444
0.0309746
0.0327508
0.0352897
0.0397082
0.0465608
0.0495079
0.0508833
0.0528202
0.0577145
0.0898769
0.171545
0.172934
0.0917652
0.0580328
0.0522772
0.0506438
0.0494589
0.04796
0.0419334
0.0357097
0.0326665
0.0308412
0.0296269
0.0291271
0.0297382
0.0309302
0.0327362
0.0356546
0.041646
0.0471235
0.0490427
0.0502264
0.0523816
0.0579239
0.0905483
0.172371
0.173264
0.0932702
0.0588543
0.0521395
0.0501413
0.0489777
0.0477991
0.0441571
0.037106
0.0327982
0.0308201
0.029596
0.0290461
0.0297027
0.0309159
0.0328512
0.0368795
0.0437125
0.046984
0.0484661
0.0497316
0.052152
0.0583548
0.0914571
0.172632
0.172952
0.0936549
0.0592086
0.0520287
0.0497269
0.0484594
0.0474387
0.0449524
0.039461
0.0333693
0.0308546
0.0295802
0.029024
0.029689
0.0309837
0.0335182
0.0392626
0.0445584
0.0466998
0.0479559
0.0493823
0.0521376
0.0591889
0.0927246
0.172004
0.171289
0.0937691
0.0596152
0.0519833
0.0494261
0.0480196
0.0469119
0.0449254
0.0416675
0.0348942
0.0311146
0.0296035
0.0290336
0.0297097
0.0312671
0.0349725
0.0411459
0.0445232
0.0462623
0.0475257
0.0491333
0.0520873
0.0595238
0.092685
0.170398
0.165088
0.0926357
0.0599721
0.0519127
0.0492014
0.0476536
0.0463905
0.0446851
0.0424662
0.0374496
0.0320484
0.029789
0.0291504
0.02988
0.032202
0.0372807
0.0417114
0.0442632
0.0458083
0.0471987
0.0489226
0.051975
0.0596881
0.0912357
0.164387
0.126972
0.291235
0.338053
0.348293
0.350918
0.352403
0.353989
0.356359
0.35957
0.36338
0.367658
0.371599
0.373422
0.367546
0.351814
0.341159
0.336722
0.33515
0.334592
0.334353
0.33422
0.334123
0.334038
0.333959
0.333878
0.333799
0.333588
0.331929
0.314317
0.146298
0.100308
0.289906
0.34179
0.353111
0.355441
0.356948
0.358914
0.362031
0.366342
0.371806
0.378508
0.386057
0.39426
0.401621
0.398606
0.367001
0.342215
0.333572
0.331448
0.330826
0.330586
0.33046
0.330371
0.330294
0.330217
0.330116
0.329617
0.325165
0.29114
0.119498
0.0980071
0.286136
0.340559
0.352419
0.35496
0.356868
0.359451
0.363283
0.368348
0.374656
0.382159
0.390361
0.398774
0.406991
0.413832
0.411057
0.373342
0.341268
0.331426
0.329379
0.328813
0.328596
0.328476
0.328385
0.328297
0.328166
0.327435
0.321313
0.280283
0.109704
0.0991841
0.282675
0.338038
0.350248
0.35311
0.355607
0.358978
0.363661
0.369605
0.376857
0.385121
0.393835
0.40252
0.410779
0.418412
0.424984
0.421582
0.37671
0.338751
0.328674
0.326884
0.326428
0.326267
0.326185
0.326117
0.325999
0.325192
0.318474
0.275648
0.106448
0.0989024
0.279554
0.33562
0.348552
0.351838
0.355168
0.359541
0.365213
0.371945
0.37972
0.38822
0.397167
0.406441
0.41538
0.423397
0.4305
0.436686
0.431442
0.37697
0.336019
0.326841
0.325394
0.325058
0.324959
0.32491
0.324815
0.323995
0.317066
0.273843
0.104977
0.098553
0.278323
0.33436
0.347554
0.351213
0.355591
0.361051
0.367777
0.375299
0.383594
0.392454
0.401438
0.410555
0.419816
0.428668
0.436381
0.442956
0.448384
0.438968
0.372544
0.333165
0.325862
0.324778
0.324544
0.324478
0.324388
0.323553
0.316476
0.272972
0.103908
0.0984591
0.278483
0.333994
0.347059
0.351341
0.35688
0.363579
0.37145
0.379702
0.388312
0.397451
0.406528
0.415566
0.424519
0.433569
0.442103
0.449299
0.455319
0.459593
0.441971
0.364115
0.330441
0.325305
0.324546
0.324381
0.324271
0.323411
0.316185
0.272331
0.102957
0.0986493
0.279581
0.334231
0.347216
0.352393
0.359261
0.367255
0.376218
0.385115
0.393854
0.402946
0.412178
0.421163
0.429862
0.438469
0.44717
0.455268
0.461845
0.467432
0.469736
0.436691
0.353644
0.328218
0.324946
0.324437
0.324257
0.323358
0.315985
0.271748
0.102086
0.0988682
0.281113
0.335003
0.348232
0.354593
0.362861
0.372043
0.381863
0.391216
0.400012
0.408739
0.417827
0.42686
0.435337
0.443633
0.451893
0.460296
0.467963
0.473978
0.479352
0.477981
0.421063
0.343561
0.326657
0.324699
0.324301
0.323336
0.315817
0.271203
0.101296
0.099076
0.28315
0.336788
0.350471
0.358236
0.367543
0.377602
0.387833
0.397351
0.406039
0.414321
0.422809
0.431961
0.440271
0.448433
0.456439
0.464574
0.472831
0.480128
0.485882
0.491104
0.482282
0.396834
0.335458
0.32567
0.324455
0.32334
0.31567
0.270694
0.100582
0.0993516
0.285973
0.339698
0.354128
0.363234
0.373179
0.383256
0.393322
0.402555
0.410914
0.418408
0.426579
0.435355
0.443894
0.452081
0.460157
0.468203
0.476549
0.484872
0.491861
0.497907
0.502277
0.477712
0.371255
0.330165
0.324987
0.323407
0.315545
0.27022
0.099936
0.0996026
0.289378
0.34361
0.358871
0.368545
0.378529
0.388223
0.397784
0.406425
0.414165
0.420729
0.427914
0.436155
0.445181
0.453702
0.462175
0.470605
0.479133
0.488039
0.49659
0.503552
0.510344
0.51143
0.454153
0.351132
0.327143
0.323674
0.315464
0.269785
0.0993488
0.100067
0.293968
0.348399
0.363786
0.372848
0.381761
0.390236
0.398766
0.406419
0.413424
0.419573
0.425613
0.43341
0.442721
0.452208
0.461456
0.470779
0.480035
0.48954
0.499227
0.508039
0.515657
0.523256
0.515161
0.415908
0.337714
0.324685
0.315495
0.269402
0.0988151
0.100473
0.299158
0.352806
0.36686
0.373548
0.380345
0.386912
0.393712
0.399726
0.406137
0.41206
0.417886
0.425568
0.43519
0.446235
0.456671
0.467448
0.478108
0.488755
0.499464
0.510017
0.51937
0.528438
0.535216
0.505069
0.376994
0.329297
0.315882
0.26911
0.0983329
0.101541
0.305258
0.355359
0.364638
0.366529
0.370382
0.374613
0.37915
0.383992
0.390124
0.396227
0.402712
0.410776
0.421249
0.433902
0.446224
0.45901
0.471793
0.484358
0.49659
0.508827
0.520477
0.531032
0.541767
0.542997
0.467379
0.349616
0.317704
0.269026
0.0979098
0.102567
0.310306
0.352636
0.353125
0.3483
0.348182
0.34998
0.353482
0.357946
0.36432
0.371095
0.378962
0.387748
0.399566
0.41389
0.428793
0.444063
0.459584
0.474794
0.489394
0.503766
0.517752
0.530848
0.543403
0.555056
0.539742
0.412002
0.326417
0.26956
0.0975639
0.10481
0.311954
0.340002
0.329704
0.318307
0.315083
0.315065
0.318056
0.322524
0.329446
0.337513
0.346978
0.357026
0.370341
0.386332
0.404234
0.422216
0.440769
0.459096
0.476824
0.493994
0.510598
0.526644
0.541433
0.556276
0.5633
0.511783
0.35831
0.272636
0.097354
0.106731
0.305632
0.315159
0.295743
0.279667
0.274158
0.273148
0.27616
0.280805
0.288583
0.29827
0.308855
0.32098
0.334942
0.352684
0.373415
0.393965
0.415424
0.437064
0.458346
0.478855
0.498698
0.51813
0.536203
0.553084
0.568987
0.562122
0.441953
0.286472
0.0974929
0.110033
0.287502
0.278248
0.253956
0.23667
0.231342
0.23095
0.233842
0.238363
0.246379
0.256857
0.268401
0.281821
0.296525
0.315469
0.337804
0.360482
0.384541
0.409275
0.43413
0.458151
0.481858
0.504854
0.526783
0.546882
0.566455
0.576859
0.536708
0.331463
0.0988597
0.112206
0.260408
0.23818
0.213063
0.198585
0.194508
0.194583
0.196186
0.200359
0.208035
0.218229
0.229493
0.242597
0.25727
0.276453
0.299655
0.323947
0.349855
0.377118
0.405004
0.432451
0.460203
0.486707
0.512278
0.536318
0.558768
0.578152
0.572444
0.430184
0.1051
0.116346
0.225697
0.19983
0.180338
0.173234
0.170559
0.168895
0.169588
0.172719
0.178515
0.186037
0.195451
0.207143
0.22111
0.239484
0.262557
0.287277
0.313928
0.342449
0.372339
0.402719
0.433603
0.463699
0.492685
0.520531
0.546506
0.570817
0.580994
0.518202
0.126944
0.120314
0.197317
0.176028
0.169122
0.169484
0.16529
0.161479
0.158774
0.158063
0.159485
0.163772
0.1708
0.180431
0.192584
0.2092
0.230412
0.253688
0.27944
0.307634
0.338041
0.370152
0.402869
0.436219
0.468445
0.499721
0.529577
0.557328
0.577949
0.553447
0.163174
0.12871
0.178909
0.17714
0.186914
0.191715
0.18329
0.173537
0.163198
0.156171
0.153343
0.15438
0.157992
0.164347
0.173301
0.186645
0.203835
0.223941
0.247525
0.2744
0.304203
0.336574
0.370551
0.405425
0.440897
0.474958
0.508239
0.539635
0.566972
0.564372
0.19147
0.13869
0.194246
0.202133
0.2193
0.222051
0.212557
0.200053
0.181992
0.16739
0.159118
0.155785
0.155371
0.157197
0.162217
0.169216
0.181884
0.199011
0.219802
0.244666
0.272751
0.304128
0.33811
0.373774
0.410586
0.447608
0.482897
0.517581
0.550641
0.567228
0.213099
0.161067
0.212273
0.227341
0.261451
0.258321
0.244694
0.233381
0.213172
0.189406
0.173437
0.164114
0.159561
0.156327
0.156416
0.158783
0.168135
0.181803
0.198992
0.220465
0.245777
0.274999
0.307525
0.342686
0.379707
0.417885
0.455626
0.491027
0.531206
0.566933
0.229464
0.146298
0.314318
0.33193
0.333588
0.333799
0.333879
0.33396
0.334039
0.334124
0.334221
0.334353
0.334591
0.335142
0.336689
0.34105
0.35154
0.367185
0.373194
0.371434
0.367521
0.363269
0.359478
0.356279
0.353919
0.352341
0.350864
0.348245
0.338006
0.291241
0.126949
0.119497
0.291139
0.325165
0.329617
0.330116
0.330217
0.330295
0.330372
0.33046
0.330586
0.330824
0.331437
0.333521
0.341979
0.36634
0.398035
0.401363
0.394078
0.385895
0.378364
0.371681
0.366233
0.361936
0.358833
0.356877
0.355379
0.353059
0.341753
0.28991
0.100323
0.109702
0.280282
0.321313
0.327435
0.328166
0.328297
0.328385
0.328476
0.328596
0.328811
0.32937
0.331374
0.340989
0.372508
0.410474
0.413519
0.406746
0.398558
0.390173
0.381995
0.374513
0.368223
0.363174
0.359358
0.356786
0.354888
0.352354
0.340512
0.286113
0.0979791
0.106447
0.275648
0.318474
0.325192
0.325999
0.326117
0.326185
0.326267
0.326426
0.326876
0.328628
0.338453
0.375725
0.420937
0.424623
0.418111
0.410505
0.402277
0.393621
0.384934
0.376694
0.369464
0.363538
0.358874
0.355518
0.353033
0.35018
0.337991
0.28268
0.0992111
0.104977
0.273844
0.317066
0.323995
0.324815
0.32491
0.324958
0.325057
0.325387
0.326803
0.335736
0.375895
0.430722
0.436284
0.430154
0.423075
0.415089
0.406179
0.39693
0.388006
0.37953
0.371781
0.365072
0.359422
0.355067
0.351752
0.348473
0.33555
0.279502
0.098905
0.103907
0.272971
0.316475
0.323553
0.324388
0.324478
0.324543
0.324773
0.325833
0.332927
0.371476
0.438089
0.447918
0.442559
0.43601
0.428329
0.419507
0.410269
0.401174
0.392216
0.383379
0.375111
0.367614
0.360915
0.355478
0.351119
0.347468
0.334278
0.278238
0.0984919
0.102957
0.272332
0.316185
0.323411
0.324271
0.32438
0.324542
0.325284
0.330265
0.363106
0.440756
0.459034
0.454868
0.448881
0.441719
0.433214
0.424183
0.41525
0.406233
0.397186
0.388068
0.379488
0.371266
0.363426
0.356755
0.351238
0.346971
0.333926
0.278474
0.0985088
0.102087
0.271748
0.315985
0.323358
0.324257
0.324435
0.324933
0.328104
0.352841
0.435124
0.469103
0.466946
0.46139
0.454849
0.446781
0.438103
0.429515
0.420836
0.411869
0.402667
0.393588
0.384877
0.376012
0.367081
0.359118
0.352276
0.347115
0.334132
0.279471
0.0985879
0.101296
0.271203
0.315817
0.323335
0.324299
0.32469
0.326591
0.342946
0.419132
0.477172
0.478807
0.47347
0.467498
0.459871
0.451497
0.443258
0.434981
0.426527
0.417511
0.40845
0.399729
0.390957
0.381637
0.371851
0.362699
0.354459
0.348123
0.334911
0.281044
0.0988454
0.100583
0.270695
0.31567
0.323339
0.32445
0.325633
0.335067
0.394973
0.481203
0.49053
0.485354
0.479635
0.472384
0.464159
0.456054
0.448076
0.439936
0.431653
0.422516
0.414053
0.405751
0.397081
0.387598
0.377401
0.367386
0.35811
0.350369
0.33669
0.283063
0.0990582
0.0999355
0.270219
0.315544
0.323404
0.324967
0.329955
0.369734
0.475995
0.501641
0.49737
0.491343
0.484414
0.476139
0.467833
0.459826
0.451786
0.443625
0.435122
0.426347
0.418184
0.410745
0.402394
0.393176
0.383121
0.373068
0.36313
0.354039
0.339604
0.285888
0.0992869
0.0993484
0.269785
0.315462
0.323663
0.327043
0.350192
0.451641
0.51065
0.509829
0.503037
0.496134
0.487647
0.478793
0.470316
0.461941
0.453522
0.445038
0.436056
0.427765
0.420711
0.414184
0.406453
0.397795
0.388205
0.378497
0.368509
0.358832
0.343563
0.289363
0.0996175
0.0988156
0.269402
0.31549
0.324639
0.337193
0.413501
0.514114
0.522823
0.515209
0.507607
0.498881
0.489265
0.479831
0.470646
0.461388
0.452219
0.442783
0.433529
0.425771
0.41975
0.413627
0.406625
0.398946
0.390392
0.381885
0.372945
0.363853
0.348424
0.293971
0.100058
0.0983329
0.269107
0.315861
0.329058
0.375189
0.503168
0.534758
0.528111
0.518998
0.509722
0.49927
0.488656
0.478106
0.467541
0.456838
0.4465
0.435518
0.425956
0.4183
0.412436
0.406543
0.400123
0.394129
0.387257
0.380674
0.373816
0.367078
0.352944
0.299251
0.100491
0.0979091
0.269015
0.317609
0.348658
0.464513
0.542355
0.541571
0.530794
0.520255
0.508717
0.49659
0.48448
0.472032
0.459362
0.44666
0.434441
0.421851
0.411403
0.403386
0.396831
0.390724
0.384599
0.379801
0.375283
0.371005
0.367049
0.365076
0.355643
0.305429
0.101596
0.0975623
0.269522
0.325966
0.409493
0.538768
0.55497
0.543323
0.530717
0.517722
0.503863
0.489613
0.47514
0.460045
0.444647
0.429466
0.414651
0.400383
0.388489
0.379844
0.371948
0.365108
0.358666
0.354214
0.350701
0.348841
0.348834
0.353616
0.353073
0.310604
0.102657
0.0973483
0.272466
0.356912
0.509355
0.563094
0.55634
0.541453
0.526708
0.510784
0.4943
0.477254
0.459647
0.441417
0.422964
0.405064
0.387226
0.371268
0.35788
0.347865
0.338479
0.33036
0.323323
0.318745
0.315632
0.315589
0.318672
0.330107
0.340701
0.31242
0.104912
0.0974718
0.285801
0.439159
0.561745
0.56925
0.553302
0.536397
0.518419
0.499097
0.479361
0.45896
0.437778
0.416213
0.394832
0.374338
0.353622
0.335984
0.322127
0.309807
0.299338
0.289587
0.28165
0.276801
0.27357
0.274432
0.279764
0.295846
0.31571
0.306234
0.106897
0.0987809
0.32943
0.535536
0.577234
0.566875
0.547227
0.527175
0.505334
0.482422
0.458814
0.434877
0.410114
0.385449
0.361457
0.338788
0.316392
0.297536
0.282992
0.269293
0.257866
0.247233
0.239149
0.234381
0.231061
0.231254
0.236453
0.253948
0.278592
0.28797
0.110289
0.10483
0.427834
0.572584
0.5787
0.559273
0.536812
0.512843
0.487335
0.460896
0.433227
0.405862
0.378062
0.35087
0.324959
0.300695
0.277406
0.258429
0.24374
0.23027
0.219048
0.208652
0.200911
0.196356
0.194452
0.194122
0.198156
0.213212
0.238437
0.260783
0.112498
0.126127
0.517407
0.581574
0.571491
0.547131
0.521191
0.493393
0.464447
0.434421
0.40357
0.373255
0.343421
0.314934
0.288258
0.26357
0.240452
0.222137
0.208234
0.196049
0.186521
0.178915
0.173033
0.169631
0.16882
0.170323
0.172936
0.179934
0.199663
0.225775
0.116643
0.162587
0.553718
0.578679
0.558108
0.530348
0.500495
0.469233
0.437051
0.403715
0.371025
0.338933
0.308544
0.280342
0.25454
0.231265
0.21
0.193304
0.181231
0.171305
0.164134
0.159699
0.158184
0.158782
0.161375
0.165244
0.16968
0.169239
0.176153
0.197358
0.120593
0.191229
0.564921
0.567824
0.540498
0.509106
0.475829
0.441765
0.406302
0.371418
0.337422
0.305015
0.27521
0.248275
0.22463
0.204442
0.187207
0.173731
0.164862
0.15842
0.154691
0.153644
0.156351
0.163502
0.173854
0.183194
0.191777
0.187536
0.177825
0.179258
0.128997
0.213076
0.567846
0.551528
0.518511
0.483821
0.448533
0.411505
0.374655
0.338963
0.304958
0.273535
0.245321
0.220352
0.199542
0.18235
0.169624
0.162375
0.157454
0.155731
0.156079
0.159467
0.167764
0.182238
0.200576
0.213305
0.222806
0.220847
0.203606
0.195084
0.138953
0.229594
0.567654
0.532087
0.491965
0.456568
0.418818
0.38059
0.343525
0.308321
0.275696
0.246412
0.220957
0.199399
0.182166
0.168489
0.159109
0.156577
0.156453
0.159782
0.164343
0.173778
0.1901
0.213192
0.232436
0.244312
0.259727
0.263903
0.228914
0.21423
0.161936
0.073089
0.0732638
0.0734401
0.0736166
0.0737931
0.0739697
0.0741464
0.0743232
0.0745001
0.0746772
0.0748543
0.0750315
0.0752088
0.0753862
0.0755637
0.0757413
0.0759191
0.0760969
0.0762748
0.0764528
0.0766309
0.0768091
0.0769874
0.0771658
0.0773443
0.0775229
0.0777016
0.0778804
0.0780593
0.0782383
0.0784173
0.0785965
0.0787758
0.0789552
0.0791346
0.0793142
0.0794939
0.0796736
0.0798535
0.0800334
0.0802134
0.0803936
0.0805738
0.0807541
0.0809345
0.081115
0.0812956
0.0814763
0.0816571
0.0818379
0.0820189
0.0822
0.0823811
0.0825624
0.0827437
0.0829251
0.0831066
0.0832883
0.0834699
0.0836517
0.0838336
0.0840156
0.0841977
0.0843799
0.0845633
0.0847606
0.0851159
0.087688
0.112096
0.185075
0.250322
0.28896
0.311832
0.32683
0.337327
0.344094
0.347963
0.350457
0.352488
0.350314
0.347394
0.34423
0.340339
0.335489
0.330052
0.323695
0.316523
0.309112
0.301931
0.29505
0.288537
0.282569
0.277194
0.272383
0.268043
0.264121
0.26057
0.257355
0.254464
0.251914
0.249704
0.248021
0.246796
0.245826
0.245179
0.244772
0.244618
0.244735
0.245153
0.245906
0.247036
0.248566
0.250432
0.252803
0.25548
0.25835
0.261134
0.263059
0.263809
0.263831
0.262989
0.260971
0.257286
0.251362
0.242272
0.241469
0.24175
0.241996
0.242234
0.24247
0.242705
0.242939
0.243172
0.243405
0.243638
0.24387
0.244101
0.244331
0.244561
0.244791
0.24502
0.245248
0.245476
0.245703
0.24593
0.246156
0.246381
0.246606
0.246831
0.247055
0.247278
0.247501
0.247723
0.247944
0.248165
0.248386
0.248606
0.248825
0.249044
0.249262
0.24948
0.249697
0.249914
0.25013
0.250345
0.25056
0.250775
0.250989
0.251202
0.251415
0.251627
0.251839
0.25205
0.25226
0.25247
0.25268
0.252889
0.253097
0.253305
0.253513
0.253719
0.253926
0.254132
0.254337
0.254541
0.254746
0.254949
0.255153
0.255362
0.25565
0.255203
0.191264
0.122725
0.182863
0.230986
0.250167
0.259285
0.267336
0.275067
0.282505
0.290696
0.299804
0.309749
0.320639
0.332304
0.344027
0.355526
0.366842
0.378007
0.387792
0.396107
0.402281
0.406067
0.407753
0.406976
0.40481
0.401638
0.39812
0.394399
0.39049
0.386616
0.382901
0.379404
0.376401
0.373975
0.372327
0.371406
0.370887
0.371032
0.371962
0.373161
0.374695
0.376544
0.378807
0.381728
0.385745
0.39097
0.398193
0.407715
0.420007
0.434965
0.452066
0.469447
0.484815
0.500214
0.515572
0.530055
0.542745
0.553336
0.561797
0.304215
0.304356
0.304477
0.304592
0.304706
0.304819
0.304931
0.305043
0.305154
0.305264
0.305374
0.305483
0.305591
0.305699
0.305806
0.305913
0.306019
0.306124
0.306229
0.306333
0.306437
0.30654
0.306642
0.306744
0.306845
0.306945
0.307045
0.307145
0.307243
0.307342
0.307439
0.307536
0.307633
0.307729
0.307824
0.307919
0.308013
0.308107
0.3082
0.308293
0.308385
0.308476
0.308567
0.308658
0.308748
0.308837
0.308926
0.309015
0.309103
0.30919
0.309277
0.309363
0.309449
0.309534
0.309619
0.309703
0.309787
0.309871
0.309953
0.310036
0.310118
0.3102
0.310293
0.310525
0.299578
0.155828
0.15522
0.221913
0.249068
0.255212
0.255407
0.255646
0.257452
0.25952
0.26239
0.266627
0.272014
0.27827
0.285605
0.293773
0.303386
0.31332
0.324437
0.337
0.350066
0.363432
0.3768
0.38972
0.402386
0.414571
0.425845
0.435547
0.443469
0.449475
0.453584
0.456316
0.458104
0.458353
0.457308
0.455192
0.452144
0.448212
0.443411
0.438035
0.432171
0.425637
0.418208
0.410051
0.40155
0.393117
0.385032
0.377787
0.371799
0.367829
0.366504
0.368058
0.373098
0.381787
0.393981
0.409271
0.427058
0.447034
0.468678
0.490772
0.512324
0.320643
0.320685
0.32072
0.320753