/*--------------------------------*- C++ -*----------------------------------*\
| =========                 |                                                 |
| \\      /  F ield         | OpenFOAM: The Open Source CFD Toolbox           |
|  \\    /   O peration     | Version:  2112                                  |
|   \\  /    A nd           | Website:  www.openfoam.com                      |
|    \\/     M anipulation  |                                                 |
\*---------------------------------------------------------------------------*/
FoamFile
{
    version     2.0;
    format      ascii;
    arch        "LSB;label=32;scalar=64";
    class       volScalarField;
    location    "0.00259";
    object      p;
}
// * * * * * * * * * * * * * * * * * * * * * * * * * * * * * * * * * * * * * //

dimensions      [1 -1 -2 0 0 0 0];

internalField   nonuniform List<scalar> 
13875
(
951533
984152
973647
975520
973380
974413
974554
974489
975072
974955
975137
975338
975263
974862
974859
974475
974604
974261
974407
974287
973064
975569
972400
982546
945040
733737
659380
672189
677013
670287
668588
668645
670309
677467
678498
678963
679178
679120
679133
679125
678807
676893
670417
668724
668536
669949
677045
672286
657378
730535
736826
635572
664510
653608
648323
646004
645119
645431
646654
647566
648746
650165
650119
647852
649637
649472
645766
645052
644839
645682
647671
652068
662065
632246
733286
743471
636226
665403
653764
648608
646201
645262
645497
644826
645076
646693
647942
647046
647280
647320
646647
644830
645126
644970
645865
647942
652189
662817
632849
739032
757305
639261
667985
654473
649487
646791
645686
645756
644915
645172
646776
648035
647260
647522
647590
646722
644940
645404
645372
646405
648738
652775
665119
635493
750351
759117
647994
673831
656472
651377
648050
646585
646343
645239
645529
647067
648319
647812
648202
648364
646986
645368
646035
646238
647578
650480
654654
670740
643245
751934
765397
668700
686254
661516
655290
650628
648411
647608
646170
646497
647893
649045
648933
649679
649258
647627
646468
647408
648076
650168
654392
660369
682376
666036
756282
792163
719268
712696
675343
663845
656151
652231
650385
648497
648729
649794
650766
651174
651939
651093
649360
648937
650272
651817
655441
662502
673493
707659
715845
782789
911968
830344
769048
706492
681416
667303
659987
656267
653773
653663
654142
654750
655773
656511
655094
653593
654181
656234
659429
666066
679017
702327
761622
824494
912048
1.53749e+06
1.03607e+06
840332
746521
705078
683763
672894
667207
664568
664041
663633
663696
665267
665842
664051
663177
664578
667565
672739
682710
702650
741909
833187
1.02875e+06
1.52495e+06
2.95278e+06
1.41099e+06
980722
816597
746370
713438
697386
689643
686482
685163
683645
683110
684897
685147
683637
683672
685526
689789
697391
711823
741346
804203
953072
1.35992e+06
2.88241e+06
5.76683e+06
2.37451e+06
1.37812e+06
998977
841774
780417
753237
740749
735092
732152
729482
728572
729983
729756
729143
730375
733599
740432
753308
779100
834826
971944
1.30083e+06
2.29999e+06
5.62824e+06
5.55626e+06
4.83283e+06
2.8418e+06
1.64253e+06
1.11548e+06
967916
906995
878053
863793
856589
852960
851494
852402
851641
852696
856169
863554
878640
908687
969805
1.11015e+06
1.53424e+06
2.38826e+06
4.91434e+06
5.40204e+06
5.01959e+06
4.70625e+06
4.97452e+06
4.70272e+06
1.97504e+06
1.57792e+06
1.43303e+06
1.34435e+06
1.30668e+06
1.2903e+06
1.28635e+06
1.28023e+06
1.28735e+06
1.28225e+06
1.28765e+06
1.29653e+06
1.31677e+06
1.35938e+06
1.45267e+06
1.6325e+06
2.11369e+06
4.62251e+06
5.06758e+06
4.8063e+06
4.84295e+06
4.19253e+06
4.34086e+06
4.86389e+06
4.96623e+06
4.81776e+06
3.66516e+06
3.52656e+06
3.17444e+06
3.04676e+06
2.95593e+06
2.95087e+06
2.90027e+06
2.93962e+06
2.92108e+06
2.9434e+06
2.9771e+06
3.06083e+06
3.23482e+06
3.53388e+06
3.72251e+06
4.75159e+06
4.95861e+06
4.99188e+06
4.53648e+06
4.46426e+06
3.81281e+06
3.87049e+06
4.59273e+06
5.27838e+06
6.69218e+06
8.02965e+06
9.16138e+06
9.01552e+06
9.45687e+06
9.2342e+06
9.48907e+06
9.29633e+06
9.46636e+06
9.32575e+06
9.45177e+06
9.32245e+06
9.39406e+06
9.10902e+06
9.15233e+06
8.19263e+06
6.8693e+06
5.41737e+06
4.84646e+06
4.12221e+06
4.13309e+06
3.02111e+06
3.49358e+06
4.67476e+06
5.53625e+06
6.75988e+06
7.68976e+06
7.80558e+06
7.72675e+06
7.54134e+06
7.41907e+06
7.2588e+06
7.29435e+06
7.15793e+06
7.25832e+06
7.25921e+06
7.3697e+06
7.51884e+06
7.71471e+06
7.74181e+06
7.77601e+06
7.00958e+06
5.75974e+06
4.91568e+06
3.76678e+06
3.36594e+06
2.46012e+06
3.27415e+06
4.67621e+06
5.33133e+06
5.92468e+06
6.1261e+06
5.90941e+06
5.91525e+06
5.92208e+06
5.94341e+06
5.95458e+06
5.96417e+06
5.96964e+06
5.97432e+06
5.98026e+06
5.97425e+06
5.96252e+06
5.9693e+06
6.00073e+06
6.18073e+06
6.1687e+06
5.56384e+06
4.91988e+06
3.22803e+06
2.37497e+06
1.31369e+06
2.28534e+06
3.88572e+06
4.30863e+06
4.5218e+06
4.71357e+06
4.85664e+06
5.04367e+06
5.20462e+06
5.30966e+06
5.37064e+06
5.40341e+06
5.42185e+06
5.41743e+06
5.39595e+06
5.34512e+06
5.25092e+06
5.10465e+06
4.9432e+06
4.81353e+06
4.64306e+06
4.43209e+06
4.00042e+06
2.4857e+06
1.39881e+06
668859
1.55503e+06
2.72304e+06
3.18212e+06
3.40654e+06
3.70551e+06
4.09424e+06
4.42652e+06
4.63817e+06
4.76636e+06
4.84912e+06
4.89698e+06
4.91962e+06
4.9098e+06
4.87072e+06
4.79861e+06
4.68187e+06
4.48326e+06
4.16748e+06
3.77796e+06
3.47607e+06
3.25319e+06
2.76707e+06
1.66488e+06
682255
714722
1.19447e+06
1.80149e+06
2.25481e+06
2.59905e+06
3.01554e+06
3.49456e+06
3.86374e+06
4.08524e+06
4.22968e+06
4.32829e+06
4.38499e+06
4.40829e+06
4.39339e+06
4.34196e+06
4.2509e+06
4.11413e+06
3.8992e+06
3.53399e+06
3.03426e+06
2.60891e+06
2.26972e+06
1.83122e+06
1.15442e+06
709161
943942
1.04331e+06
1.24702e+06
1.70734e+06
2.06456e+06
2.54647e+06
2.9961e+06
3.33492e+06
3.55564e+06
3.71053e+06
3.81511e+06
3.87396e+06
3.89691e+06
3.87738e+06
3.8198e+06
3.71991e+06
3.56925e+06
3.35045e+06
3.01467e+06
2.55391e+06
2.05312e+06
1.69371e+06
1.25815e+06
1.0175e+06
923426
1.35282e+06
1.05302e+06
1.07407e+06
1.38632e+06
1.72268e+06
2.20332e+06
2.58739e+06
2.87539e+06
3.08757e+06
3.24144e+06
3.34309e+06
3.39951e+06
3.42168e+06
3.39882e+06
3.33987e+06
3.23878e+06
3.08549e+06
2.87152e+06
2.58759e+06
2.21384e+06
1.70054e+06
1.37127e+06
1.0766e+06
1.03877e+06
1.3877e+06
1.42826e+06
1.07772e+06
1.07754e+06
1.23383e+06
1.50611e+06
1.90199e+06
2.22264e+06
2.48172e+06
2.67288e+06
2.81524e+06
2.91605e+06
2.96941e+06
2.99209e+06
2.9683e+06
2.91067e+06
2.80866e+06
2.66431e+06
2.46892e+06
2.20776e+06
1.894e+06
1.4992e+06
1.22066e+06
1.07693e+06
1.06676e+06
1.41249e+06
1.42799e+06
1.11846e+06
1.09034e+06
1.16249e+06
1.36407e+06
1.65656e+06
1.9193e+06
2.15117e+06
2.32314e+06
2.452e+06
2.54369e+06
2.59468e+06
2.61455e+06
2.59378e+06
2.53972e+06
2.44515e+06
2.31244e+06
2.13716e+06
1.90114e+06
1.63934e+06
1.35599e+06
1.1542e+06
1.08728e+06
1.11196e+06
1.41198e+06
1.43328e+06
1.18032e+06
1.11881e+06
1.12577e+06
1.25288e+06
1.45664e+06
1.67198e+06
1.87223e+06
2.02232e+06
2.13754e+06
2.22141e+06
2.26391e+06
2.28572e+06
2.2637e+06
2.21626e+06
2.12954e+06
2.00953e+06
1.85551e+06
1.65495e+06
1.43975e+06
1.25113e+06
1.12014e+06
1.11239e+06
1.17312e+06
1.41222e+06
1.44661e+06
1.28285e+06
1.1651e+06
1.12602e+06
1.17773e+06
1.31038e+06
1.47971e+06
1.64477e+06
1.77409e+06
1.87433e+06
1.94645e+06
1.98489e+06
1.99907e+06
1.98309e+06
1.93822e+06
1.86446e+06
1.75935e+06
1.62708e+06
1.4617e+06
1.28917e+06
1.16745e+06
1.11695e+06
1.15776e+06
1.29229e+06
1.42603e+06
1.48915e+06
1.4694e+06
1.2049e+06
1.12356e+06
1.12069e+06
1.19047e+06
1.31605e+06
1.44847e+06
1.55664e+06
1.64444e+06
1.70911e+06
1.74126e+06
1.75588e+06
1.73888e+06
1.70336e+06
1.63776e+06
1.54735e+06
1.43707e+06
1.30656e+06
1.1776e+06
1.11419e+06
1.11632e+06
1.19314e+06
1.45068e+06
1.46557e+06
1.58364e+06
1.54434e+06
1.22969e+06
1.11393e+06
1.08479e+06
1.10898e+06
1.19495e+06
1.29451e+06
1.38241e+06
1.45476e+06
1.5074e+06
1.53695e+06
1.54751e+06
1.53436e+06
1.50195e+06
1.44787e+06
1.3719e+06
1.28127e+06
1.18308e+06
1.09772e+06
1.07917e+06
1.1085e+06
1.21605e+06
1.5031e+06
1.55468e+06
1.78209e+06
1.5935e+06
1.24365e+06
1.09897e+06
1.04994e+06
1.04659e+06
1.09222e+06
1.16153e+06
1.22973e+06
1.28975e+06
1.33652e+06
1.3594e+06
1.36956e+06
1.35583e+06
1.33108e+06
1.28357e+06
1.22164e+06
1.15135e+06
1.0826e+06
1.03834e+06
1.04334e+06
1.09294e+06
1.24082e+06
1.57676e+06
1.70984e+06
1.84509e+06
1.63832e+06
1.26895e+06
1.08445e+06
1.01083e+06
992636
1.01318e+06
1.0582e+06
1.10785e+06
1.15401e+06
1.18973e+06
1.21076e+06
1.21791e+06
1.20846e+06
1.18515e+06
1.14892e+06
1.10203e+06
1.05256e+06
1.00755e+06
989031
1.00748e+06
1.0794e+06
1.25949e+06
1.61473e+06
1.85733e+06
1.84461e+06
1.66368e+06
1.31353e+06
1.08269e+06
977639
945055
943081
969652
1.00233e+06
1.03547e+06
1.06594e+06
1.08047e+06
1.08896e+06
1.0796e+06
1.06273e+06
1.03197e+06
997672
964603
938233
940651
972087
1.07423e+06
1.2896e+06
1.64087e+06
1.85655e+06
1.83679e+06
1.66897e+06
1.37039e+06
1.08466e+06
947499
899014
888751
898175
919631
940535
960679
973595
978594
972283
956609
936605
914725
893181
884701
895262
942959
1.07716e+06
1.34542e+06
1.64867e+06
1.85169e+06
1.82138e+06
1.66853e+06
1.48825e+06
1.09688e+06
927024
857029
834881
832379
842741
855260
871122
878217
884052
877930
869051
852949
840539
830242
833841
855459
923146
1.0848e+06
1.43466e+06
1.64571e+06
1.83383e+06
1.79169e+06
1.66564e+06
1.57098e+06
1.12566e+06
920555
823677
789514
781264
782241
787540
795253
801108
803661
800379
792779
785060
780139
778557
787754
822674
921272
1.10787e+06
1.57019e+06
1.63973e+06
1.7976e+06
1.76358e+06
1.64775e+06
1.56897e+06
1.15651e+06
922780
797275
746712
729799
725698
726480
730266
731498
734627
730852
728901
724728
724339
728120
746313
796920
925728
1.15249e+06
1.57359e+06
1.62424e+06
1.72653e+06
1.71795e+06
1.61055e+06
1.56416e+06
1.22065e+06
933804
782583
714101
688373
679296
676524
675660
675451
676132
674880
674639
675304
678048
686716
713817
783237
933192
1.21579e+06
1.5642e+06
1.58523e+06
1.68397e+06
1.67001e+06
1.55901e+06
1.55078e+06
1.34901e+06
960121
783076
688459
649744
634280
628856
627071
624377
625526
624403
626513
628953
634600
648965
687991
784149
953819
1.34353e+06
1.5445e+06
1.53329e+06
1.6383e+06
1.63759e+06
1.51105e+06
1.51419e+06
1.35417e+06
992115
787024
674694
621744
600237
590772
585503
583090
582787
583113
584947
590560
600246
621500
675900
792706
997166
1.35003e+06
1.5036e+06
1.48778e+06
1.59692e+06
1.60109e+06
1.47015e+06
1.44106e+06
1.35041e+06
1.05989e+06
801953
675279
599384
567137
553960
548988
544381
544737
544777
548963
554878
568831
600927
676342
804686
1.06512e+06
1.34364e+06
1.41759e+06
1.44939e+06
1.56999e+06
1.55673e+06
1.43165e+06
1.36273e+06
1.33729e+06
1.19571e+06
833975
680062
589927
545845
527297
517411
513571
512500
513601
517307
527531
547321
592741
680633
831453
1.2027e+06
1.32704e+06
1.34099e+06
1.41665e+06
1.53682e+06
1.52381e+06
1.40071e+06
1.30083e+06
1.30231e+06
1.19468e+06
882582
686888
590416
529309
501197
489821
484123
483538
483509
490586
502210
531813
593649
695612
889027
1.20232e+06
1.29095e+06
1.28617e+06
1.38678e+06
1.49695e+06
1.4755e+06
1.37271e+06
1.25357e+06
1.23299e+06
1.18598e+06
984808
706031
595265
525347
487076
467193
460831
458801
460784
467516
488040
527715
596768
720228
991212
1.18674e+06
1.22007e+06
1.2391e+06
1.35688e+06
1.46591e+06
1.42431e+06
1.34317e+06
1.21816e+06
1.1687e+06
1.16186e+06
1.04324e+06
743769
608308
526323
472956
449110
438372
436775
438509
450254
475988
528616
606402
769657
1.03955e+06
1.15255e+06
1.15801e+06
1.20607e+06
1.33112e+06
1.42641e+06
1.3861e+06
1.30902e+06
1.19101e+06
1.11712e+06
1.10827e+06
1.03872e+06
809403
632103
528868
472967
439189
424096
419179
424068
440465
476137
534053
630699
873840
1.03471e+06
1.08535e+06
1.10634e+06
1.1807e+06
1.29717e+06
1.37676e+06
1.34537e+06
1.27602e+06
1.17147e+06
1.07258e+06
1.0406e+06
1.0251e+06
944881
683839
539520
474880
438478
414145
407526
414162
439199
477286
545324
673850
922833
1.01497e+06
1.0247e+06
1.06465e+06
1.16158e+06
1.26592e+06
1.34389e+06
1.29882e+06
1.23383e+06
1.14931e+06
1.04621e+06
992970
994098
943749
789925
564274
480496
439159
414092
402646
414097
439767
481248
569515
761214
919825
973056
978978
1.0367e+06
1.14147e+06
1.23066e+06
1.29953e+06
1.25731e+06
1.19816e+06
1.12844e+06
1.02672e+06
954685
942794
931270
849223
611512
491692
441055
414545
403153
414839
443062
493010
622821
837932
909038
921114
943620
1.01881e+06
1.1214e+06
1.19415e+06
1.25029e+06
1.17403e+06
1.1456e+06
1.09948e+06
1.01253e+06
931431
900909
903103
847029
711159
516162
448268
416865
405278
417072
450986
516248
728222
836603
883285
881064
922961
1.00389e+06
1.09325e+06
1.14045e+06
1.16347e+06
1.04496e+06
1.07348e+06
1.05672e+06
990437
913495
863509
854613
835241
768935
567609
467096
423516
410944
423379
469659
564565
761833
825273
840546
848132
906327
983924
1.05103e+06
1.06989e+06
1.03785e+06
74754.3
79012.8
81466.5
83203.4
84483.6
85273
86051.1
87010.9
88282.1
89720.5
91332.5
92642
92352.5
87113.1
78356.6
74220.3
72020.4
71146.9
70823.3
70706.8
70665.2
70648.4
70640.8
70637.9
70632.7
70638.8
70621.5
70647.5
70595.4
70670.9
81965.2
84579.1
84512.5
84861.6
85235
85635.9
86128.1
86895.5
88174.3
90000
92530.2
95573.1
98954.7
101802
99727.8
84159.3
75840.5
72367.4
71190.6
70817.9
70696.8
70656.9
70643.5
70638.9
70633.2
70638.8
70623.5
70646.3
70613.2
70655.5
83650
85264
84688.1
85028.1
85282.2
85658.4
86095.5
86799.7
88081.2
90045.3
92902.7
96398.9
100188
103927
106799
105094
86795
76074
72267.4
71123.4
70780.6
70679
70648.7
70640.1
70634.3
70638.5
70627.4
70643.1
70624.4
70646.1
83997.5
85327.4
84553
85026.7
85242.3
85619.2
86028.2
86656.8
87855
89859.4
92835.2
96464.3
100356
104174
107825
110924
109378
88419.7
75931.6
72059.9
71031.5
70742.6
70663.8
70643.5
70635.8
70638.1
70630
70640.9
70628.8
70642.1
84013.8
84363
83324.5
83945.2
84062.9
84501.2
84949.8
85476.4
86374.7
88029.9
90751.3
94509.1
99125.9
103761
107865
111583
114839
112844
88370.1
75417.1
71807.8
70937.8
70709.9
70653.3
70638.1
70638.1
70631.9
70639.3
70631.6
70639.6
83259.3
82881.8
81868
82400
82396.1
82937.2
83415.1
83911.9
84576.9
85924.3
88400.2
91849.6
96338.1
101700
107065
111598
115503
118662
115162
86415.6
74588.2
71541.3
70852.8
70684.9
70644.6
70639
70633.4
70638.3
70633.3
70638.2
82084.8
81124.9
80447.6
80642.3
80636.7
81203.9
81747.3
82260.4
82726
83701.4
85962.8
89248.1
93519.8
98720.8
104825
110741
115530
119590
122318
115518
83434.4
73639
71291.6
70783.6
70665.2
70642.4
70634.9
70637.6
70634.4
70637.4
80684.3
79564.9
79087.1
79024.2
79011.7
79567.6
80148.4
80677.7
81013.7
81601.5
83469.7
86698.3
90888.9
95844.8
101749
108481
114775
119652
123877
125635
111975
80302.7
72750.8
71082.8
70730.1
70654.7
70637.4
70637.5
70635.1
70637
79273
78320.4
77872.8
77739.8
77674.6
78204.5
78733.9
79209.6
79452.4
79778.8
81116.4
84103.9
88347.6
93189.7
98807.3
105363
112643
119127
124020
128432
128405
104165
77563
72034.8
70922.8
70694.5
70645.1
70638.5
70635.7
70636.9
78283.6
77687.5
77293.5
77007.6
76885.9
77153.3
77553.8
77839.3
77998.1
78146.7
79065
81516.3
85846.7
90665.4
96159.6
102370
109603
117310
123785
128862
133191
129968
93965.8
75235.5
71524
70811.7
70668.6
70642.3
70636.5
70636.9
77821.5
77585.2
77259.2
76863.6
76711.4
76709.3
76668.9
76649.1
76652.9
76653.2
77089.4
79268.7
83286.3
88264.3
93737.4
99767.1
106613
114543
122512
128844
134312
137630
128007
85106.3
73475.1
71171.1
70737
70655
70638.7
70637.2
77672.8
77713.4
77612.6
77147.9
76861.5
76714.7
76471.9
76306
76196.4
76027.2
75965.1
77443.7
80907.5
86029
91547.6
97521.7
104107
111681
120257
128248
134412
140164
140833
116283
79442.8
72285.7
70941.4
70692.3
70645.5
70638.3
77660.9
77981.4
78141.7
77733.6
77434.5
77183.1
76755.3
76462.1
76213.4
75884.1
75738.5
76313.8
79062
83922.8
89640
95613.1
102101
109310
117702
126637
134269
140640
146188
142111
100050
75842.8
71561
70801.8
70665.1
70642.1
77706.3
78247.2
78481.5
78493.6
78476.8
78328.7
77790.9
77185.9
76422.9
75942.2
75727.6
75803.3
77838.1
82094.2
88047.8
93993.8
100503
107528
115485
124436
133291
140686
147693
151454
138192
86536.2
73501.6
71130.4
70721.2
70652.8
77862.5
78340.7
78641.9
79093.8
79501.6
79721.5
79249
77876.8
76684.2
76019.8
75689.5
75527.9
76961.2
80608.3
86481.4
92451.8
99031.8
106048
113707
122264
131610
140344
147842
155047
154374
120928
79278.3
72123.2
70887.2
70683.1
78059.6
78479
78717.1
79191.1
79737.8
79966.7
79575.3
78071.9
76768.2
75992.2
75433.2
75263.6
75967.4
79133.6
84632.1
90705.5
97343.2
104450
112005
120226
129540
139124
147784
155942
162023
152884
99084.6
75185
71375.5
70771
78372.4
78687.2
78728.9
78947.8
79555.8
79823.2
79532.7
78049
76711
75662.6
74863.9
74799.7
74730.5
77553
82506.8
88806
95399.9
102553
110101
118179
127359
137275
147161
156018
164803
165326
141859
83834.9
72851.4
71025.9
78628.9
78803.9
78633.3
78563.4
79051.8
79191.7
78774.8
77542.7
75989
74973
74384.3
74114.4
74085
75865
80435
86933.2
93380.7
100436
107977
116026
125112
135137
145984
155916
165276
172901
165499
114624
77253.4
71773.8
79063.4
78890.5
78440.4
78228.9
78429.7
78516.3
78540.2
77004.3
75431.5
74616.7
74270.1
73815.7
73739.6
74730
78703.8
85106.1
91415.2
98357.6
105813
113892
122801
132930
144202
155343
165334
175493
176549
159880
90733.1
74003.1
79272.9
79022
78225.9
78005
78012.8
78603.5
78148.3
76486.3
75208.6
74549.2
74341.6
73344.6
72872.6
73316.8
77280.9
83731.9
90036.2
96650
103953
111989
120690
131099
142220
153888
165083
175787
183276
177254
129511
80330
79499.4
79117.7
78103.3
77895.8
78145.7
77968.6
77717.7
76284.2
75319.3
74427.3
73378.8
72635.2
72354.3
72701.4
76601.8
83055.3
89347
95621.9
102523
110342
118963
129417
140238
151764
163844
175465
186377
187344
172761
100080
80168.2
78988.3
78178.1
77890.4
78174.8
78200.2
77509.2
76746.3
74393.8
73081.5
72623.1
72393.5
72206.3
72552.8
76458
82752.7
88990.1
95112.1
101463
108986
117500
127131
138349
149402
161789
174503
186779
195346
193288
151351
78163.2
77914.5
76881.7
77635.8
77939.8
78241.5
78395.5
75114
73286.4
72534.5
72408.6
72376.8
72492.4
72746.9
76431.7
81675.7
87259.5
93471.2
99952.2
107683
116099
125459
136053
148024
159482
172996
186402
199722
208791
217146
82137.4
76870.5
77898.9
77619.7
78256.2
77546.4
76019.6
74036.6
72851.8
72369.9
72358.7
72452
72654.2
72963.1
73210.7
78397.2
85376.2
92022.4
99006.1
106263
114644
123890
134169
145976
158343
170535
185089
200922
225763
291770
61756.1
74392.2
76070.3
77359.8
76641.4
75704.4
74761.3
73501.5
72763.2
71838.2
71523.3
71509.6
71159.1
71052.5
70771.8
76735.2
84454.4
91287.9
98331.6
105428
113533
122621
132750
144066
156664
169170
181112
201737
246954
370563
70670.9
70595.4
70647.5
70621.5
70638.8
70632.8
70637.9
70640.8
70648.4
70665.1
70706.4
70821.5
71141.1
72001.8
74171.6
78254.5
86919.3
92230.7
92562.7
91272.9
89669.2
88236.5
86968.1
86009.7
85232.7
84445.5
83167.8
81432.5
78982.7
74736.6
70655.5
70613.2
70646.3
70623.5
70638.8
70633.2
70638.9
70643.5
70656.8
70696.3
70815.9
71183.6
72341.1
75762.7
83911.5
99482.5
101722
98909.1
95532.9
92493.1
89964.3
88138.1
86858.6
86091.6
85600.7
85203.2
84833.6
84488
84554.2
81939
70646.1
70624.4
70643.1
70627.4
70638.5
70634.3
70640.1
70648.6
70678.6
70778.9
71116.9
72240.6
75987.4
86475.8
104870
106704
103870
100143
96362.2
92870.9
90013.7
88048.4
86764.9
86059.6
85622.9
85249.4
84997
84662.9
85235.2
83624.7
70642.1
70628.8
70640.9
70630
70638.1
70635.8
70643.4
70663.5
70741.2
71025.8
72036.2
75841.1
88046.3
109150
110821
107756
104116
100310
96429.1
92805.9
89830.8
87824.8
86622.7
85992.4
85583.4
85208.5
84994.2
84521.2
85296.7
83970.3
70639.6
70631.6
70639.3
70631.9
70638.1
70638
70653.1
70708.8
70933.2
71787.9
75329.5
87978.5
112598
114726
111504
107798
103710
99089.5
94478.7
90721.7
87997.4
86339.7
85437.2
84909.5
84461
84023.7
83905.6
83286.5
84324.2
83983.9
70638.2
70633.3
70638.3
70633.4
70639
70644.5
70684.1
70849.2
71525.1
74510.2
86066
114854
118526
115412
111522
107009
101663
96308.7
91821.1
88372.4
85892.4
84541.2
83871.6
83373.3
82894
82353.4
82355.4
81822.4
82836.8
83218.1
70637.4
70634.4
70637.6
70634.9
70642.3
70664.7
70781.1
71279.4
73575.5
83136.3
115041
122146
119484
115442
110677
104781
98683.9
93484.3
89212.3
85928.6
83661.2
82683.2
82214.8
81701
81155.8
80587.9
80589.6
80395.3
81068.1
82036.3
70637
70635.1
70637.5
70637.4
70654.4
70728.3
71074.1
72703.7
80097.4
111320
125422
123748
119548
114698
108426
101705
95802.9
90848.3
86656.8
83430.4
81551.8
80961.7
80624.7
80095.3
79512.6
78954.7
78963.9
79026
79498.9
80619.2
70636.9
70635.7
70638.5
70644.9
70693.4
70917
72003.6
77403.2
103390
128136
128280
123897
119031
112576
105312
98760.2
93144.2
88305.8
84062.2
81074.6
79722.3
79394.9
79152.4
78678.2
78144.5
77611.3
77673.8
77805
78245
79195.6
70636.9
70636.5
70642.2
70667.9
70808.1
71503.9
75120.7
93320
129590
133008
128726
123670
117227
109535
102309
96101.3
90609.3
85796.5
81464
79009.7
78062.9
77917.2
77766.1
77490
77099.2
76834.4
76950
77222.5
77605.4
78191.8
70637.2
70638.6
70654.6
70734.9
71158.7
73400.6
84638.9
127284
137391
134166
128711
122415
114470
106549
99709.4
93683.7
88213.9
83246.8
79220.1
77026.9
76619.6
76624.6
76620.6
76642
76685.9
76677.9
76819.5
77194
77507.8
77744.7
70638.3
70645.3
70691.1
70934.1
72242.3
79205.8
115172
140511
140019
134276
128138
120182
111616
104045
97467.2
91503
85990.3
80883.9
77377
75980.1
76058.2
76237.9
76333.6
76484.7
76715.4
76858.8
77134
77578.8
77666.8
77635
70641.9
70664.5
70797.8
71536.8
75697.5
99166.8
141695
146046
140535
134149
126564
117652
109267
102061
95580.8
89624.6
83918.4
79083.3
76360.3
75795.7
75941.7
76284.4
76518.4
76814.9
77232.9
77486.4
77778.4
78167.5
77997.9
77661.1
70652.4
70719.1
71117.6
73418.7
85959.7
137335
151236
147633
140587
133217
124411
115478
107532
100515
94006.5
88084.6
82146.6
77923.7
75901.2
75810.5
76028
76518.9
77302.1
77881.6
78441.4
78591.6
78613
78584.8
78341
77785.4
70682
70880.6
72081
79031
119606
153989
154973
147800
140286
131604
122291
113752
106113
99106
92520.8
86578.4
80713.5
77081.7
75656.3
75798.8
76135.8
76841.3
78095.9
79528.7
80015.9
79784
79352
78836.1
78510.9
78028.6
70767.6
71355
75051.1
98152.1
152463
161938
155960
147755
139134
129600
120308
112102
104553
97460.6
90817.6
84763
79251.3
76020.4
75420.9
75589.9
76136
76953
78341.3
79961.1
80351.9
80106.6
79538
79033.3
78730.3
78299.2
71015.4
72786.7
83442.5
140558
165060
164807
156051
147196
137362
127471
118305
110234
102673
95516.1
88920.5
82621.1
77647.4
74694.3
74890
74993.8
75862.3
76926
78353.7
79978.6
80275.1
79998
79359.1
79136.3
79054.4
78693
71741.6
77065.8
113392
165155
172879
165339
155972
146097
135286
125250
116159
108099
100526
93463.9
87009.3
80481.3
75945
74204.7
74274.8
74677.9
75353.9
76356.3
77978.2
79485.2
79838.5
79593.9
78947.2
79049.1
79278.3
79067.1
73908.4
89977.3
159163
176485
175556
165404
155457
144368
133094
122937
113991
105898
98420.5
91489.9
85135.7
78677.4
74752.3
73904.6
74025.2
74647.7
75137
76115.5
77870.6
79295.5
79066.8
78931.6
78680.7
78889.5
79409.9
79655.1
80087.3
128372
177065
183320
175893
165197
154067
142403
131247
120808
112070
104042
96752.7
90081.9
83831.4
77267.5
73664.6
73348.7
73780.4
74764.6
75164.6
76011.8
77262.6
78766.3
78820.5
78246.1
78224.9
78595.3
79651.3
79961.8
99193.9
172217
187381
186534
175604
164028
151977
140411
129560
119050
110406
102604
95698.8
89366.2
83194.2
76694.5
73152.6
72992.6
73242.9
73926.7
75141.6
76140.8
77033.2
78204.3
78244.3
78101.1
77923.6
78259.8
79629.7
80122.6
150113
193207
195446
186970
174696
161976
149589
138485
127244
117556
109030
101535
95183.6
88996.7
82909.7
76653
73040.2
72906.7
73063.3
73352.6
73883.5
75187.1
77354.9
77865.7
78160.5
78318.7
78334.5
78653.2
79518.9
80728.8
216088
208752
199929
186608
173208
159687
148184
136228
125572
116149
107703
100051
93574.6
87291.4
81829.6
76676
73250.2
73210.8
73195.5
73188.8
73348.7
74061.2
75863.3
78660.5
78653.8
78343.7
78033.6
77322.8
78377
78497.9
291012
225730
201150
185327
170758
158556
146188
134321
124005
114753
106380
98973.6
91977.2
85420.2
78724
73620.8
73481.7
73345.5
73281.6
73209.7
73176.1
73653.2
74737.6
76662.6
78227.7
79181.7
78376.3
78613.3
77363.9
82404.7
370245
247053
201942
181348
169392
156883
144250
132885
122758
113534
105413
98172.5
91197.5
84496.2
77161
71360.9
71782.2
71879.5
72207.6
72346.1
72768.5
73694.2
74081.3
75078.7
76052.2
77212.4
77705.5
76637.6
74757.3
61743.8
70637
70637
70637
70637
70637
70637
70637
70637
70637
70637
70637
70637
70637
70637
70637
70637
70637
70637
70637
70637
70637
70637
70637
70637
70637
70637
70637
70637
70637
70637
70637
70637
70637
70637
70637
70637
70637
70637
70637
70637
70637
70637
70637
70637
70637
70637
70637
70637
70637
70637
70637
70637
70637
70637
70637
70637
70637
70637
70637
70637
70637
70637
70637
70637.1
70639.3
70661.6
70888.1
72787.3
86398.7
170664
392688
690994
1.00231e+06
1.3038e+06
1.60163e+06
1.87751e+06
2.10845e+06
2.30353e+06
2.50179e+06
2.57108e+06
2.58384e+06
2.57552e+06
2.54367e+06
2.47927e+06
2.39557e+06
2.29097e+06
2.15889e+06
2.01522e+06
1.8759e+06
1.74491e+06
1.62373e+06
1.51567e+06
1.42142e+06
1.3402e+06
1.26962e+06
1.20756e+06
1.15232e+06
1.10279e+06
1.05843e+06
1.01901e+06
983625
953839
929873
907368
888123
871814
858474
848327
841092
836558
834746
835418
837319
841587
845186
846414
841086
821154
788884
750673
707121
656617
597780
529615
451274
70637
70637
70637
70637
70637
70637
70637
70636.9
70636.9
70636.9
70636.9
70636.9
70636.9
70636.9
70636.9
70636.9
70636.9
70636.9
70636.9
70636.9
70636.9
70636.9
70636.9
70636.9
70636.9
70636.9
70636.9
70636.9
70636.9
70636.9
70636.9
70636.9
70636.9
70636.9
70636.9
70636.9
70636.9
70636.9
70636.9
70636.9
70636.9
70636.9
70636.9
70636.9
70636.9
70636.9
70636.9
70636.9
70636.9
70636.9
70636.9
70636.9
70636.9
70636.9
70636.9
70636.9
70636.9
70636.9
70636.9
70636.9
70636.9
70637
70637.2
70641.6
70691.8
71265.5
76430.8
125001
321613
541608
651134
715597
778790
839108
884510
927523
974368
1.0226e+06
1.07277e+06
1.12666e+06
1.17351e+06
1.21365e+06
1.25468e+06
1.29493e+06
1.32847e+06
1.36699e+06
1.4116e+06
1.44666e+06
1.47119e+06
1.47175e+06
1.46131e+06
1.43831e+06
1.40788e+06
1.37251e+06
1.33268e+06
1.29058e+06
1.2471e+06
1.20283e+06
1.15919e+06
1.11768e+06
1.07954e+06
1.04507e+06
1.01468e+06
985283
957405
929132
899901
868601
835230
799080
759496
716871
670961
622681
573264
524976
479713
441104
410613
381859
354814
329675
306257
285064
265624
70637
70637
70637
70637
70637
70637
70637
70637
70637
70637
70637
70637
70637
70637
70637
70637
70637
70637
70637
70637
70637
70637
70637
70637
70637
70637
70637
70637
70637
70637
70637
70637
70637
70637
70637
70637
70637
70637
70637
70637
70637
70637
70637
70637
70637
70637
70637
70637
70637
70637
70637
70637
70637
70637
70637
70637
70637
70637
70637
70637
70637
70637.3
70645.5
70752.9
72095.1
85579.9
206646
487964
649961
700258
707044
707380
715823
720332
721785
725524
728740
729458
728786
723233
718034
707310
701105
700466
702471
709162
720366
735214
755558
775963
796033
815675
832529
842487
844873
844225
841564
832251
817575
798727
776091
751089
723991
693455
659748
625040
589584
554267
519300
485132
451969
420114
389506
360493
333490
308670
287618
270316
256276
244492
234116
225418
218310
212171
206755
70637
70637
70637
70637
70637
70637
70637
70637
70637
70637
70637
70637
70637
70637
70637
70637
70637
70637
70637
70637
70637
70637
70637
70637
70637
70637
70637
70637
70637
70637
70637
70637
70637
70637
70637
70637
70637
70637
70637
70637
70637
70637
70637
70637
70637
70637
70637
70637
70637
70637
70637
70637
70637
70637
70637
70637
70637
70637
70637
70637
70637.5
70650.7
70857.6
73692.8
108897
324325
602921
706415
730085
730435
718754
703900
692869
683568
671939
658826
640515
622500
602649
580380
560401
537680
516684
499900
484830
471551
460149
449959
440911
432709
425528
419421
413648
407146
399535
391773
384017
375587
366558
357014
347190
337458
327626
317119
305582
294003
282866
272363
262520
253233
244504
236168
228243
220436
213002
206337
200520
195494
191026
187875
185219
183172
181994
181208
180583
70637
70637
70637
70637
70637
70637
70637
70637
70637
70637
70637
70637
70637
70637
70637
70637
70637
70637
70637
70637
70637
70637
70637
70637
70637
70637
70637
70637
70637
70637
70637
70637
70637
70637
70637
70637
70637
70637
70637
70637
70637
70637
70637
70637
70637
70637
70637
70637
70637
70637
70637
70637
70637
70637
70637
70637
70637
70637
70637
70637.7
70656.8
71010.1
76328.3
149711
443927
668689
738276
749673
747619
735795
720242
702423
685295
671335
655808
632538
605112
578982
550536
519911
491727
465943
441563
420123
400249
382652
366318
351372
337288
324580
313314
303541
294946
287081
279288
271475
263752
256132
248692
241585
234953
228892
223227
217591
211799
206136
200825
195867
191300
186987
182907
179095
175750
173053
170498
168343
166616
165216
164041
163065
163036
163581
164851
166519
168154
70637
70637
70637
70637
70637
70637
70637
70637
70637
70637
70637
70637
70637
70637
70637
70637
70637
70637
70637
70637
70637
70637
70637
70637
70637
70637
70637
70637
70637
70637
70637
70637
70637
70637
70637
70637
70637
70637
70637
70637
70637
70637
70637
70637
70637
70637
70637
70637
70637
70637
70637
70637
70637
70637
70637
70637
70637
70637
70637.8
70662.2
71191.2
79871.9
198893
540573
716132
761849
768300
762309
750696
736456
720296
702051
683625
668397
649108
620451
588555
558445
526000
491375
459532
432501
406949
383744
362240
343470
325595
309096
293543
279863
267658
256861
247362
239017
231170
223603
216372
209560
203180
197381
192162
187479
183192
179082
175090
171310
167889
164808
162097
159628
157336
155215
153257
151800
151098
150826
150838
150938
151209
151332
151472
151775
152366
153476
155083
70637
70637
70637
70637
70637
70637
70637
70637
70637
70637
70637
70637
70637
70637
70637
70637
70637
70637
70637
70637
70637
70637
70637
70637
70637
70637
70637
70637
70637
70637
70637
70637
70637
70637
70637
70637
70637
70637
70637
70637
70637
70637
70637
70637
70637
70637
70637
70637
70637
70637
70637
70637
70637
70637
70637
70637
70637
70637.8
70665.4
71350.1
83555.4
247107
605930
748649
782798
789520
780707
765911
751596
736639
720257
702689
683875
668613
644024
614062
579517
545548
511487