/*--------------------------------*- C++ -*----------------------------------*\
| =========                 |                                                 |
| \\      /  F ield         | OpenFOAM: The Open Source CFD Toolbox           |
|  \\    /   O peration     | Version:  2112                                  |
|   \\  /    A nd           | Website:  www.openfoam.com                      |
|    \\/     M anipulation  |                                                 |
\*---------------------------------------------------------------------------*/
FoamFile
{
    version     2.0;
    format      ascii;
    arch        "LSB;label=32;scalar=64";
    class       volScalarField;
    location    "0.00266";
    object      p;
}
// * * * * * * * * * * * * * * * * * * * * * * * * * * * * * * * * * * * * * //

dimensions      [1 -1 -2 0 0 0 0];

internalField   nonuniform List<scalar> 
13875
(
951539
984164
973646
975525
973405
974439
974570
974497
974900
974899
975270
975316
975138
974692
974808
974827
974764
973958
974312
974257
973030
975582
972401
982552
945046
733743
659398
672196
677021
670263
668577
668670
670270
677216
678892
679879
680139
679220
676300
678729
679110
677402
670259
668502
668403
669798
677031
672281
657382
730536
736832
635560
664487
653581
648290
645977
645116
645280
646876
649264
648912
647588
647380
646784
648025
649863
648226
645362
644822
645639
647634
652043
662054
632246
733286
743477
636213
665378
653736
648575
646175
645259
645363
645374
646477
646578
646167
646760
646838
647317
646568
645282
645426
644969
645826
647906
652163
662807
632849
739030
757310
639243
667954
654442
649454
646765
645680
645660
645477
646557
646805
646382
646880
647233
647425
646640
645352
645689
645404
646376
648703
652749
665108
635492
750344
759108
647964
673785
656433
651343
648023
646573
646310
645892
646835
647416
646994
647262
648301
647778
646903
645688
646307
646314
647563
650449
654629
670729
643244
751931
765358
668636
686175
661461
655255
650606
648397
647666
646980
647596
648603
648283
648241
649494
648592
647583
646666
647655
648196
650166
654365
660347
682368
666034
756276
792057
719115
712545
675250
663808
656146
652228
650541
649411
649432
650712
650696
650481
651734
650484
649355
648979
650467
651974
655443
662483
673482
707659
715840
782778
911521
829930
768727
706315
681377
667352
660061
656558
654597
653756
655079
655574
655419
656284
654687
653569
654031
656311
659585
666052
679001
702343
761648
824489
912020
1.53511e+06
1.03489e+06
839675
746260
705097
683976
673282
667810
664851
663363
664326
665413
665691
665581
663884
663061
664260
667361
672810
682660
702577
741957
833287
1.0288e+06
1.52486e+06
2.94508e+06
1.40771e+06
978900
816011
746599
714155
698349
690217
685804
683767
683851
685409
686456
684990
683654
683549
685191
689152
697023
711501
741150
804272
953366
1.36022e+06
2.88228e+06
5.74699e+06
2.36967e+06
1.37194e+06
997614
842517
781729
754080
740461
733445
730354
729374
730639
732585
729973
729512
730606
733423
739468
751910
777723
834039
971803
1.3015e+06
2.3014e+06
5.62822e+06
5.53491e+06
4.82766e+06
2.79311e+06
1.63204e+06
1.11522e+06
967838
905810
875979
861413
854869
852397
852232
855307
852682
853637
856822
863691
877476
905876
965931
1.1071e+06
1.53266e+06
2.38869e+06
4.91911e+06
5.40218e+06
4.99797e+06
4.70253e+06
4.98409e+06
4.68796e+06
1.96607e+06
1.5696e+06
1.42542e+06
1.33882e+06
1.3019e+06
1.28613e+06
1.28204e+06
1.27767e+06
1.28712e+06
1.28189e+06
1.28611e+06
1.29416e+06
1.31377e+06
1.35463e+06
1.44458e+06
1.62441e+06
2.10762e+06
4.61867e+06
5.07066e+06
4.80992e+06
4.84336e+06
4.18358e+06
4.33537e+06
4.87257e+06
4.95555e+06
4.78993e+06
3.62532e+06
3.49755e+06
3.16161e+06
3.02667e+06
2.94251e+06
2.93094e+06
2.88721e+06
2.92358e+06
2.9078e+06
2.92639e+06
2.95855e+06
3.04055e+06
3.21232e+06
3.51489e+06
3.70651e+06
4.74015e+06
4.9573e+06
4.99459e+06
4.53759e+06
4.46467e+06
3.80774e+06
3.86538e+06
4.59438e+06
5.26654e+06
6.66866e+06
7.99777e+06
9.1133e+06
8.99627e+06
9.41187e+06
9.22586e+06
9.45277e+06
9.2747e+06
9.43011e+06
9.30004e+06
9.41387e+06
9.28588e+06
9.35854e+06
9.07636e+06
9.11928e+06
8.16812e+06
6.85466e+06
5.41148e+06
4.83697e+06
4.12184e+06
4.13184e+06
3.02197e+06
3.49187e+06
4.66974e+06
5.5215e+06
6.7664e+06
7.68316e+06
7.80394e+06
7.73329e+06
7.55297e+06
7.41587e+06
7.26228e+06
7.28245e+06
7.15282e+06
7.24869e+06
7.25258e+06
7.36036e+06
7.50768e+06
7.70231e+06
7.74279e+06
7.76437e+06
6.99645e+06
5.75187e+06
4.90012e+06
3.75727e+06
3.36051e+06
2.45924e+06
3.26719e+06
4.67322e+06
5.3419e+06
5.9669e+06
6.16528e+06
5.9413e+06
5.93755e+06
5.93819e+06
5.95336e+06
5.96357e+06
5.96921e+06
5.97044e+06
5.97395e+06
5.97899e+06
5.97255e+06
5.96041e+06
5.96476e+06
5.99756e+06
6.18249e+06
6.16251e+06
5.54879e+06
4.90241e+06
3.20874e+06
2.36459e+06
1.31459e+06
2.28427e+06
3.89326e+06
4.31629e+06
4.53606e+06
4.72998e+06
4.87548e+06
5.05906e+06
5.21806e+06
5.31987e+06
5.37902e+06
5.40895e+06
5.4241e+06
5.41774e+06
5.39495e+06
5.34332e+06
5.24688e+06
5.09692e+06
4.93237e+06
4.80316e+06
4.62916e+06
4.40893e+06
3.9811e+06
2.45963e+06
1.38597e+06
670581
1.55921e+06
2.72873e+06
3.18364e+06
3.41057e+06
3.71184e+06
4.10171e+06
4.43318e+06
4.64382e+06
4.7698e+06
4.85096e+06
4.89688e+06
4.9178e+06
4.90689e+06
4.8674e+06
4.79491e+06
4.67656e+06
4.47434e+06
4.15618e+06
3.76845e+06
3.46689e+06
3.24227e+06
2.75457e+06
1.64734e+06
676143
716661
1.1966e+06
1.80334e+06
2.25119e+06
2.59603e+06
3.01349e+06
3.4942e+06
3.86166e+06
4.08374e+06
4.22705e+06
4.32469e+06
4.38053e+06
4.40331e+06
4.38835e+06
4.33747e+06
4.24677e+06
4.10957e+06
3.89271e+06
3.52653e+06
3.02783e+06
2.60366e+06
2.26306e+06
1.82227e+06
1.14702e+06
702865
944690
1.04235e+06
1.24756e+06
1.69932e+06
2.05895e+06
2.54228e+06
2.98959e+06
3.32782e+06
3.54995e+06
3.70457e+06
3.80889e+06
3.86779e+06
3.89087e+06
3.87239e+06
3.8159e+06
3.71693e+06
3.56691e+06
3.34806e+06
3.01126e+06
2.55005e+06
2.04946e+06
1.69029e+06
1.25193e+06
1.01338e+06
919102
1.35778e+06
1.05161e+06
1.07179e+06
1.38024e+06
1.71612e+06
2.19809e+06
2.57898e+06
2.86766e+06
3.0816e+06
3.23495e+06
3.33637e+06
3.39358e+06
3.41627e+06
3.39495e+06
3.33699e+06
3.23687e+06
3.08453e+06
2.87104e+06
2.58703e+06
2.21121e+06
1.69829e+06
1.36847e+06
1.07399e+06
1.03528e+06
1.38766e+06
1.42823e+06
1.07607e+06
1.07526e+06
1.22722e+06
1.50025e+06
1.89866e+06
2.21579e+06
2.47648e+06
2.66883e+06
2.80988e+06
2.91021e+06
2.96501e+06
2.98818e+06
2.96567e+06
2.9088e+06
2.8075e+06
2.66395e+06
2.46967e+06
2.20847e+06
1.89405e+06
1.49776e+06
1.21809e+06
1.07459e+06
1.06393e+06
1.41123e+06
1.42785e+06
1.11674e+06
1.08839e+06
1.15892e+06
1.35908e+06
1.65408e+06
1.91446e+06
2.14816e+06
2.32048e+06
2.44864e+06
2.54031e+06
2.59235e+06
2.61153e+06
2.59192e+06
2.53868e+06
2.44445e+06
2.31226e+06
2.13767e+06
1.90237e+06
1.63883e+06
1.35458e+06
1.15193e+06
1.0852e+06
1.10992e+06
1.41101e+06
1.43332e+06
1.1786e+06
1.11752e+06
1.12445e+06
1.25115e+06
1.4553e+06
1.66893e+06
1.8708e+06
2.02107e+06
2.13615e+06
2.21987e+06
2.26314e+06
2.28313e+06
2.26245e+06
2.21564e+06
2.12943e+06
2.00967e+06
1.85608e+06
1.65538e+06
1.43971e+06
1.25036e+06
1.11854e+06
1.11088e+06
1.17237e+06
1.4116e+06
1.44765e+06
1.2811e+06
1.16407e+06
1.12476e+06
1.17698e+06
1.30956e+06
1.47841e+06
1.64437e+06
1.7739e+06
1.8743e+06
1.946e+06
1.98439e+06
1.99811e+06
1.98233e+06
1.93787e+06
1.86457e+06
1.75954e+06
1.62701e+06
1.46212e+06
1.28843e+06
1.16582e+06
1.11545e+06
1.15663e+06
1.29412e+06
1.42612e+06
1.49238e+06
1.4708e+06
1.20551e+06
1.12325e+06
1.12066e+06
1.19055e+06
1.31566e+06
1.4486e+06
1.55703e+06
1.64509e+06
1.70931e+06
1.7412e+06
1.75563e+06
1.73869e+06
1.70314e+06
1.63787e+06
1.54745e+06
1.43708e+06
1.30612e+06
1.17702e+06
1.11279e+06
1.11487e+06
1.19176e+06
1.45238e+06
1.46651e+06
1.59089e+06
1.55141e+06
1.23172e+06
1.1155e+06
1.08567e+06
1.10918e+06
1.19546e+06
1.29529e+06
1.38336e+06
1.45587e+06
1.5081e+06
1.53745e+06
1.54774e+06
1.53444e+06
1.5018e+06
1.4478e+06
1.37173e+06
1.28072e+06
1.18279e+06
1.09671e+06
1.07774e+06
1.10715e+06
1.21518e+06
1.50549e+06
1.55703e+06
1.79661e+06
1.60178e+06
1.24804e+06
1.10158e+06
1.05175e+06
1.04814e+06
1.09314e+06
1.16249e+06
1.23082e+06
1.29096e+06
1.33741e+06
1.3601e+06
1.37011e+06
1.35589e+06
1.33092e+06
1.28324e+06
1.22128e+06
1.15087e+06
1.08186e+06
1.03723e+06
1.04192e+06
1.09127e+06
1.23974e+06
1.57575e+06
1.71013e+06
1.84725e+06
1.64307e+06
1.27353e+06
1.08736e+06
1.01263e+06
993743
1.01398e+06
1.05938e+06
1.10897e+06
1.15521e+06
1.19059e+06
1.21155e+06
1.21838e+06
1.20861e+06
1.18492e+06
1.14848e+06
1.10147e+06
1.05182e+06
1.00658e+06
987563
1.00612e+06
1.07804e+06
1.25797e+06
1.61475e+06
1.85751e+06
1.84624e+06
1.66384e+06
1.31816e+06
1.08544e+06
979318
946500
944121
970826
1.00332e+06
1.03636e+06
1.06661e+06
1.08109e+06
1.08924e+06
1.07963e+06
1.06251e+06
1.03142e+06
997058
963885
937173
939482
970334
1.07237e+06
1.28727e+06
1.64033e+06
1.85662e+06
1.83709e+06
1.66542e+06
1.37507e+06
1.08738e+06
949296
900043
889689
899051
920356
941250
961082
973876
978646
972122
956169
936010
913912
892031
883282
893926
941767
1.0753e+06
1.34138e+06
1.64872e+06
1.85167e+06
1.81877e+06
1.66489e+06
1.49299e+06
1.09939e+06
928150
857739
835502
833042
843309
855607
871256
878254
883806
877504
868546
852229
839663
829257
832771
854108
921373
1.08282e+06
1.42687e+06
1.64602e+06
1.83351e+06
1.7831e+06
1.66152e+06
1.5698e+06
1.12763e+06
921557
824409
789934
781545
782459
787574
795175
800855
803197
799823
792093
784265
779169
777164
786372
821273
919107
1.10621e+06
1.57458e+06
1.64069e+06
1.7967e+06
1.75567e+06
1.64285e+06
1.56748e+06
1.15761e+06
923684
797409
746794
729885
725762
726337
729915
731032
733997
730104
728122
723868
723367
727230
745297
795509
923614
1.15129e+06
1.57814e+06
1.62636e+06
1.72458e+06
1.71402e+06
1.60402e+06
1.56248e+06
1.21993e+06
934481
782419
713955
688087
678946
676057
675039
674815
675390
674087
673786
674398
677059
685426
712498
781720
931175
1.21531e+06
1.56875e+06
1.58988e+06
1.68431e+06
1.66788e+06
1.55504e+06
1.54882e+06
1.34459e+06
960540
782804
688048
649308
633790
628203
626372
623628
624698
623570
625648
628031
633627
648199
686941
782642
952111
1.3445e+06
1.54871e+06
1.53716e+06
1.64109e+06
1.63636e+06
1.51055e+06
1.51192e+06
1.35138e+06
992320
786616
674031
621087
599532
590044
584676
582259
581936
582261
584103
589701
599263
620173
674593
791273
996071
1.35119e+06
1.50691e+06
1.49117e+06
1.60121e+06
1.60052e+06
1.4709e+06
1.43846e+06
1.34781e+06
1.05969e+06
801247
674585
598723
566535
553218
548213
543577
543913
543968
548146
554031
567902
599959
675052
803491
1.06524e+06
1.34491e+06
1.41891e+06
1.4524e+06
1.57421e+06
1.55678e+06
1.43227e+06
1.3617e+06
1.3352e+06
1.19479e+06
832765
679274
588924
544876
526497
516602
512795
511735
512832
516522
526674
546388
591651
679419
830773
1.20534e+06
1.32847e+06
1.34118e+06
1.41952e+06
1.54033e+06
1.52444e+06
1.40126e+06
1.30033e+06
1.30117e+06
1.19397e+06
880402
686002
589383
528527
500521
489154
483440
482853
482829
489870
501426
530829
592561
694597
889486
1.20495e+06
1.29262e+06
1.28511e+06
1.38907e+06
1.4993e+06
1.47682e+06
1.3737e+06
1.25325e+06
1.2335e+06
1.18569e+06
980648
705109
594125
524566
486470
466569
460232
458223
460182
466874
487255
526658
595731
719609
993943
1.18912e+06
1.22108e+06
1.2387e+06
1.35897e+06
1.46724e+06
1.4259e+06
1.3444e+06
1.2188e+06
1.16986e+06
1.16234e+06
1.04431e+06
742888
606928
525528
472288
448587
437877
436278
437974
449607
475163
527553
605489
769849
1.04116e+06
1.15423e+06
1.15843e+06
1.20631e+06
1.33317e+06
1.42715e+06
1.38749e+06
1.3102e+06
1.1913e+06
1.11763e+06
1.11009e+06
1.03992e+06
808685
630259
528016
472297
438673
423638
418727
423585
439890
475312
533006
630051
875768
1.0361e+06
1.08557e+06
1.10543e+06
1.18165e+06
1.29869e+06
1.37736e+06
1.34659e+06
1.27707e+06
1.17147e+06
1.07472e+06
1.04279e+06
1.02652e+06
944636
681004
538511
474186
438044
413782
407166
413760
438667
476459
544334
673657
923790
1.01577e+06
1.02414e+06
1.06441e+06
1.16271e+06
1.26669e+06
1.34456e+06
1.29986e+06
1.23497e+06
1.15085e+06
1.04864e+06
994630
995771
943620
785032
563050
479739
438716
413779
402360
413694
439231
480429
568670
761955
920643
972680
978117
1.03661e+06
1.14322e+06
1.23169e+06
1.30051e+06
1.25837e+06
1.19998e+06
1.1306e+06
1.02876e+06
955719
943717
931346
849204
609930
490874
440604
414229
402868
414430
442509
492229
622333
838515
909569
920830
943456
1.0194e+06
1.12297e+06
1.19517e+06
1.25149e+06
1.17512e+06
1.147e+06
1.10034e+06
1.01331e+06
932605
901559
903521
847075
708889
515275
447791
416537
405000
416649
450428
515556
728513
837068
883330
880865
922465
1.00414e+06
1.0944e+06
1.14157e+06
1.16455e+06
1.04579e+06
1.07532e+06
1.05856e+06
991964
914264
863759
854896
835437
768999
566682
466557
423161
410674
422935
469117
564074
762140
825614
840645
848138
906432
985223
1.05197e+06
1.07133e+06
1.03873e+06
77556.2
81822.3
83099.4
84012.7
84761.6
85324.5
85862.4
86520.7
87563.2
88959.3
90882.5
93229
95475.8
96644.7
93982.9
83129.4
75647.5
72445.3
71241.1
70836.2
70701.8
70658.4
70644.1
70639.3
70633.1
70639.1
70621.3
70647.6
70595
70670.9
81275.6
83127.6
82978.5
83376.5
83861.7
84317.7
84827.1
85459.4
86463.3
87939
90138.1
93017.3
96402.7
99932.3
103437
104463
91387
77633.1
72849.2
71285.5
70830.1
70693.8
70652.9
70641.4
70634
70639.1
70623.3
70646.3
70612.9
70655.4
82320.6
83267.3
82626.4
82949.7
83255.7
83692.5
84190.9
84791.9
85767.4
87334.7
89759.6
92930
96789.5
100969
105070
108679
108937
93506.3
77610
72643
71191.7
70789.7
70676.8
70647
70635.9
70639
70627.3
70643.2
70624.3
70646
82735.1
83286.8
82243
82665.5
82769.6
83191.7
83649.5
84151.7
84980.8
86486.6
89027.4
92517.7
96720
101111
105355
109217
112635
112568
94308.3
77154
72328.5
71077.5
70748.2
70663.4
70639.6
70639.2
70630
70640.9
70628.7
70642
82755.2
82555.3
81393.4
81848
81766.6
82245.1
82742.2
83299.3
83997.3
85210
87411.8
90526.8
94619
99601.7
104741
109175
112940
116396
115660
93175.6
76312.6
71980.8
70966.6
70714.5
70650.7
70641
70632.2
70639.4
70631.5
70639.4
81936.9
81187.7
80355.3
80590.5
80456.7
80985.5
81540.6
82160.4
82730.7
83601
85490.7
88359.7
92174.3
96840
102412
108093
112867
116793
120168
117878
89739.5
75186
71646.5
70871.2
70685.2
70647.3
70634.5
70638.5
70633.3
70638
80762.6
79743.3
79226.9
79196.2
79086.6
79603.8
80187.8
80835.9
81303.2
81846.6
83339.1
86052.1
89743.5
94182.1
99499.8
105704
111835
116763
120853
123889
118589
85466.3
74001.8
71353.6
70791.8
70669
70639
70638.5
70634.4
70637.3
79516
78549.2
78137.9
77978.7
77864
78349.4
78898.6
79503.8
79891.1
80233.2
81231
83646.7
87359.8
91711.7
96802.5
102736
109527
115944
120884
125221
127269
115379
81318.5
72957
71114.7
70737.3
70653
70640.6
70635.4
70637
78400.1
77847
77523.3
77231
77098.5
77340.4
77760.4
78231.1
78536.9
78749
79368.9
81283.1
84979.8
89342.3
94350.5
99997.5
106565
113870
120394
125353
129926
130124
107106
78146.9
72141
70941.2
70695.4
70648
70636.9
70637
77853.8
77703.5
77455.8
77087.1
76931.2
76914.7
76975
77133
77261.1
77319.6
77547.1
79256.2
82547.7
87076.1
92078.7
97602.4
103823
111067
118753
125197
130410
134870
131891
96035.8
75575.5
71580.3
70818.6
70672.1
70641.3
70637.7
77681.6
77766.5
77701.8
77303.4
77055.9
76909.6
76830.6
76828.9
76814.9
76692.1
76628.7
77520.4
80382.6
84885.7
89997.9
95497.9
101534
108387
116313
124176
130430
136063
139495
130546
86397.3
73665.6
71199.1
70742.1
70654.9
70640.2
77672.7
77976.2
78171.7
77838.3
77522
77331.4
77112.9
76984.6
76831.4
76582.1
76466.6
76676.6
78754.2
82834.6
88180.1
93678.6
99663.7
106224
113821
122277
129997
136193
142038
142903
119505
80048.5
72386.5
70957.2
70693.3
70648
77748.7
78281.7
78548.7
78525.6
78460.3
78380.3
78072.1
77651.6
77055
76700.2
76450.4
76361.6
77712.2
81140.3
86579
92100
98118
104556
111764
120034
128652
136095
142536
148096
144332
102543
76208.2
71615.3
70809.5
70670.2
77911.5
78462.1
78761.5
79167.5
79594.5
79810.6
79665.5
78612.4
77524.3
76782.1
76385
76230.5
77042.7
79888.2
85006.1
90620.3
96690.4
103136
110149
117967
126709
135304
142597
149561
153484
141498
88180
73710.5
71159.4
70736.4
78129.8
78596.1
78910.2
79335.5
79888.3
80118.7
80078.2
78925.7
77693.1
76768.3
76242.2
76081.7
76290.3
78678.9
83212.9
88992.5
95057.6
101589
108572
116092
124638
133754
142305
149713
156879
156722
125202
80030.5
72236.9
70933.7
78394.1
78837.6
78989.8
79261.9
79771.2
79989.7
80051.2
78983.6
77724.8
76480.6
75798.9
75568.7
75330.9
77338.7
81261.7
87103.7
93163.4
99757.7
106771
114171
122494
131608
141105
149655
157635
163812
155653
102446
75623
71524.2
78855.3
79076
79002.3
78940.5
79349.6
79523.2
79590.1
78720.4
77295
75977.5
75379.7
75034.6
74930
76038.8
79422.5
85178.9
91269.3
97807.7
104751
112112
120267
129275
139267
149019
157698
166411
168502
147744
85447.8
73348.8
79149.6
79330.2
78832.2
78626.7
78758.3
78967.3
79207.6
78386.7
76795.7
75826
75243.5
74806.4
74687.8
74878.8
77998.9
83580.1
89578.7
95893.3
102722
110052
118007
127008
137176
147779
157549
166694
174166
167951
119128
78833
79621.8
79423.4
78632.7
78425.7
78423.1
78776.4
79263.3
78238
76543.9
75761.3
75214.5
74740.1
74542.1
74208.4
76535.4
82022.5
88015.9
94127.1
100898
108191
115950
125167
135089
145919
156847
166704
176330
178914
163191
95503.2
79877.7
79525.2
78715.9
78413.3
78330.4
79236
79593.6
77635.6
76423
75800.6
75312.2
74490.6
73637.7
73276.9
75568.4
80626.4
86946.5
92975.8
99367.5
106541
114270
123597
133366
143849
155221
166274
176437
186528
185510
144072
79906
79483.7
78521.3
78280
78737.3
78910.7
78743.3
77335.4
76517
76015.6
74647.3
73611.5
73143.8
72923.3
75097.4
79913.8
86408.2
92264.8
98205.6
105150
112903
121686
131625
141919
152967
164783
176035
188593
200844
210078
80245.7
79426.8
79087.4
78740.1
78934.3
78679.5
78172.3
77765.2
76272.2
74525.2
73589.1
73182.4
73026.4
72894.6
74995.5
79564.2
86147.3
91916.6
97619.6
104125
111718
119968
129571
140074
150619
162772
172929
189093
216010
288082
78071.5
78671.3
78061.5
78466.8
78010.2
78280.7
78449.6
77078.3
75084
73680.2
73150.6
73027.3
73385.8
73395
75025.7
79050.6
85054.6
90670.6
96907
103285
110494
118584
127499
138027
149376
160268
171328
190816
236276
369236
82078.8
77590.4
78750.7
78057.3
77842.4
77617.8
77812.6
76649.5
74367.7
73351.2
72995.3
72945.4
73520.5
73561.1
72986
75343
82042.2
88300
95043.5
102113
109338
117279
126131
136127
147431
159019
171125
197107
255547
451120
61801.2
74838.2
76173
77335.1
76456.2
76288.6
76305.2
75058.7
74073.4
72498.8
71964.4
71884.8
72099
71663.4
70562.5
72868.9
80516.4
87113.8
93949
100807
108394
116199
125016
134787
145568
157354
171993
202681
276577
527227
70670.9
70595
70647.6
70621.3
70639.1
70633.1
70639.2
70644.1
70658.3
70701.2
70833.8
71233
72418
75574.6
82908.5
93792.4
96546.2
95411.4
93180.4
90840.2
88919.2
87524.5
86482.5
85824.9
85288.7
84728.3
83982
83070.3
81793.5
77534.8
70655.4
70612.9
70646.3
70623.3
70639.1
70634
70641.4
70652.7
70693.2
70827.6
71276
72812
77520.7
91029.2
104317
103374
99885.1
96361.3
92981
90103.5
87904.4
86428.2
85423.6
84791.8
84284
83830.3
83347.9
82952.3
83102.6
81259.6
70646
70624.3
70643.2
70627.3
70639
70635.8
70646.9
70676.3
70787.6
71183.2
72607.2
77491.1
93097.1
108771
108594
105014
100927
96755.8
92898.5
89729.9
87304.4
85735.5
84757.5
84156.2
83658.8
83224.2
82920.1
82599.6
83238.3
82294.2
70642
70628.7
70640.9
70630
70639.2
70639.6
70663
70746.5
71070.3
72295.9
77033.9
93846.6
112381
112538
109145
105299
101070
96689.7
92493.3
89004.5
86460.6
84951.3
84117.9
83614.5
83156.5
82735.4
82631.1
82210
83255.8
82702.2
70639.4
70631.5
70639.4
70632.2
70640.9
70650.4
70713.2
70960.9
71955
76201.2
92682.1
115441
116283
112854
109106
104692
99566.9
94589.6
90497.3
87382.1
85176.4
83961.1
83260.1
82702.4
82204.6
81726.2
81805.6
81350.5
82512.2
82719.1
70638
70633.3
70638.5
70634.5
70647.1
70684.3
70866.9
71626.4
75087.9
89267.5
117596
120030
116693
112786
108036
102372
96807.3
92143.8
88329
85460
83564.3
82690.5
82117.6
81497.3
80940.7
80410.6
80542.5
80303.2
81136.8
81892.4
70637.3
70634.4
70638.5
70638.9
70668.4
70788.8
71338.7
73923.4
85082.1
118150
123711
120737
116669
111767
105655
99457.2
94140.7
89703.9
86012.3
83299.3
81799.1
81254.3
80786.9
80139.1
79552.6
79033.3
79138.9
79168.5
79680.1
80707.1
70637
70635.4
70640.5
70652.6
70735.2
71104.3
72899.9
81058.2
114656
127042
125086
120771
115860
109465
102685
96754.9
91664.6
87314.9
83600.4
81181.8
80173.1
79831.4
79446.1
78842.7
78290.1
77801.9
77914.2
78072.1
78476.2
79442.5
70637
70636.9
70647.8
70694.1
70934.3
72103.4
77955.8
106219
129846
129772
125224
120290
113797
106507
99944.7
94300.6
89294.5
84937.4
81235.2
79313.5
78677.4
78459.4
78159.9
77697.1
77286.3
77046.9
77173.1
77452.6
77766.5
78308.2
70637.6
70641.2
70671.4
70814.4
71556.5
75440
95268.4
131512
134703
130279
125079
118668
110998
103758
97542.8
92023.7
87024.4
82503.1
79187.9
77480.2
77274
77228.4
77103.3
76947
76886.9
76893.8
77040
77389.2
77628.1
77786.7
70640.1
70654.5
70739.6
71184.6
73578.6
85834.6
129834
139276
135942
130303
124084
116250
108332
101481
95449.9
89958.8
84852.1
80358.8
77456.2
76640.9
76717.5
76850.9
76848.7
76836.6
76900.2
77045.8
77280.6
77660.5
77716.7
77650.2
70647.7
70692
70948.8
72336.1
79777
118325
142607
141923
136084
129896
122222
113782
106187
99631.2
93652.1
88168
82829.5
78771
76708.8
76523.1
76636.2
76889.9
77036.6
77155.1
77370.2
77560.2
77866.3
78185.6
77981.1
77660.4
70669.4
70805
71587.5
76041.8
101547
143944
147994
142466
136002
128602
120022
111763
104563
98131.5
92115.1
86617.5
81187.7
77787.2
76452.3
76535.3
76789.4
77144
77744.3
78158.6
78477.3
78561.9
78627.2
78640
78359.9
77804.3
70733.9
71144.8
73616
87492.8
140696
153309
149539
142536
135265
126725
118007
110200
103200
96762.1
90687.1
85098.1
79983.5
77140.9
76355.1
76494.7
76880.6
77680.2
78824.3
79934.9
80089.5
79856.5
79396.8
78947.6
78630
78060.7
70925.5
72188.9
79750.6
123818
156438
156845
149707
142285
133790
124712
116179
108669
101688
95168.3
89099.8
83336.8
78787.5
76270.1
76212.4
76365.4
76885.1
77880.6
79187.1
80481.8
80495
80248.1
79664.9
79189.4
78835.6
78366.1
71498.4
75472.1
101418
155291
163770
157682
149663
141153
131707
122610
114292
106891
99866.3
93274.6
87215
81364.6
77437.2
75433
75548.7
75874.9
76639.7
77938.6
79254
80502.8
80422.8
80183.6
79634.9
79369.8
79180.7
78677.9
73267.3
84974.2
146658
168369
166463
157755
149089
139388
129417
120400
112232
104863
97893.8
91347.3
85256.5
79466.2
76114
75079.1
75253.6
75688.7
76387.1
77777.7
79142.9
80209.5
80075.2
79826.4
79360.8
79442.2
79530.1
79261
78607.3
118000
167711
174205
166781
157633
147920
137340
127157
118134
110154
102811
95959.9
89633.2
83627.8
77976.3
75039.8
74963.9
75125.2
75649.6
76353.3
77520.3
79210.2
79780
79457.7
79220.8
79015
79237
79856.7
79672.2
94673.4
162468
178831
176439
166799
156981
146101
135248
125291
116050
108265
100970
94211
88090.2
82077
76538.3
74489
74838.7
75114
75654.5
76327.6
77275.7
79155.5
79776.8
79194.1
78640.5
78755.8
79056.4
79989.5
80248.9
142746
185339
186610
176561
166408
155396
144039
133527
123731
114360
106615
99441.7
93061.4
86989.2
80808.3
75786
73739.9
74121.3
75009.5
75849.3
76599.7
77165.2
78403.5
80055.2
79594.8
78433.5
78560.1
79100.1
80124.1
80528.8
208838
200718
188752
176194
164968
153066
142086
131783
121828
112987
105220
98278.5
92337.1
86442
80166.1
75426.2
73491.7
73783.8
74367.2
75303.3
76823
77317.8
78060
79023
79176.8
79043.6
78571.5
78849
80007.8
80424.5
287096
215925
189282
173141
162975
150856
140215
129724
120058
111791
104171
97676.8
91969.7
86173.5
79852.4
75358.6
73509.2
73715.7
74070.4
74458
75357.7
77037.9
78246.3
78394
78743.1
79592.1
79501.6
79745.5
79907.5
80625.2
368723
236297
190957
171541
160475
149590
138221
127614
118677
110552
103298
96930.3
90712.9
85138.5
79361.4
75407.5
74019.8
74118.2
73973.3
74084.3
74554.3
75830.5
77616.5
78650.5
78583.3
78520.7
78968
78463
79035.4
78303.9
451202
255649
197304
171330
159234
147632
136279
126233
117335
109350
102127
95026.6
88355.5
82153.7
75754
73563.7
74182.3
74257.2
73927.5
73950.1
74223.5
75101.3
76977.4
78157.4
78276.2
79033.5
78736.6
79222.1
77970.3
82298.9
527979
276798
202891
172209
157566
145740
134888
125078
116229
108286
100649
93805.5
87168.1
80692.7
73423.3
71236.8
72492.1
72833.4
72718.3
72775
73263
74847.5
75531.7
76876
76621.4
76790.5
77796.4
76717.5
75174.4
61874.5
70637
70637
70637
70637
70637
70637
70637
70637
70637
70637
70637
70637
70637
70637
70637
70637
70637
70637
70637
70637
70637
70637
70637
70637
70637
70637
70637
70637
70637
70637
70637
70637
70637
70637
70637
70637
70637
70637
70637
70637
70637
70637
70637
70637
70637
70637
70637
70637
70637
70637
70637
70637
70637
70637
70637
70637
70637
70637
70637
70637
70637.2
70640.4
70678.4
71120.1
75091.1
108420
264649
578762
935295
1.29122e+06
1.65402e+06
2.00331e+06
2.31047e+06
2.62123e+06
2.76232e+06
2.79748e+06
2.79569e+06
2.77174e+06
2.71215e+06
2.60537e+06
2.434e+06
2.23477e+06
2.04016e+06
1.87053e+06
1.72468e+06
1.60161e+06
1.49853e+06
1.40808e+06
1.32824e+06
1.25725e+06
1.19276e+06
1.13392e+06
1.08014e+06
1.03141e+06
987532
948017
911653
877252
844774
813467
787513
766266
746354
728409
712657
698337
685442
674223
664741
657012
651168
646174
642559
639984
637963
637695
647026
661932
676541
690509
699996
702077
684728
636829
589411
70637
70637
70637
70637
70637
70637
70636.9
70636.9
70636.9
70636.9
70636.9
70636.9
70636.9
70636.9
70636.9
70636.9
70636.9
70636.9
70636.9
70636.9
70636.9
70636.9
70636.9
70636.9
70636.9
70636.9
70636.9
70636.9
70636.9
70636.9
70636.9
70636.9
70636.9
70636.9
70636.9
70636.9
70636.9
70636.9
70636.9
70636.9
70636.9
70636.9
70636.9
70636.9
70636.9
70636.9
70636.9
70636.9
70636.9
70636.9
70636.9
70636.9
70636.9
70636.9
70636.9
70636.9
70636.9
70636.9
70637
70637.2
70643.1
70720.4
71720.9
81876.9
176935
420750
611743
714050
784120
860851
927598
990119
1.06384e+06
1.14904e+06
1.2271e+06
1.30818e+06
1.38608e+06
1.46266e+06
1.5423e+06
1.62462e+06
1.73022e+06
1.83498e+06
1.86058e+06
1.85389e+06
1.82105e+06
1.76439e+06
1.69109e+06
1.61298e+06
1.53102e+06
1.44431e+06
1.35817e+06
1.28132e+06
1.21368e+06
1.15079e+06
1.09328e+06
1.04239e+06
996874
955405
917718
884017
855413
831056
810357
793381
778205
763910
750495
737808
725594
714056
704567
696182
688793
680935
671457
651980
620369
578917
531015
480281
430951
387723
355865
327162
300288
70637
70637
70637
70637
70637
70637
70637
70637
70637
70637
70637
70637
70636.9
70636.9
70636.9
70636.9
70636.9
70636.9
70636.9
70637
70637
70637
70637
70637
70637
70637
70637
70637
70637
70637
70637
70637
70637
70637
70637
70637
70637
70637
70637
70637
70637
70637
70637
70637
70637
70637
70637
70637
70637
70637
70637
70637
70637
70637
70637
70637
70637
70637
70637.4
70646.8
70793.6
72887.4
98659.4
289877
579040
688207
718808
727601
737499
753874
767990
782200
793602
807000
810616
813013
818066
826274
834909
843497
866217
903608
956779
1.01328e+06
1.07704e+06
1.13736e+06
1.18956e+06
1.23269e+06
1.26545e+06
1.29165e+06
1.29837e+06
1.2905e+06
1.27147e+06
1.24725e+06
1.21723e+06
1.17929e+06
1.1317e+06
1.08565e+06
1.04179e+06
1.00133e+06
965247
934107
905548
880627
857050
834189
811116
784602
752440
716823
677235
633620
585567
534726
481468
433044
391219
353987
320939
291642
266642
247375
231860
219918
210328
70637
70637
70637
70637
70637
70637
70637
70637
70637
70637
70637
70637
70637
70637
70637
70637
70637
70637
70637
70637
70637
70637
70637
70637
70637
70637
70637
70637
70637
70637
70637
70637
70637
70637
70637
70637
70637
70637
70637
70637
70637
70637
70637
70637
70637
70637
70637
70637
70637
70637
70637
70637
70637
70637
70637
70637
70637
70637.5
70651
70898.4
74784.1
130908
407687
657476
734255
743593
739696
728971
722277
720077
718675
710057
694711
680870
664431
649886
633197
614624
596107
576748
561346
549035
541018
536614
533540
530285
528296
528695
531646
537635
546089
553443
561797
568923
574485
581313
591323
595821
594472
586613
572872
554138
530486
501410
470033
437177
403747
373024
347370
324120
302312
282428
264648
248572
235048
224041
215215
207082
198978
191672
185586
180749
177059
174059
172874
70637
70637
70637
70637
70637
70637
70637
70637
70637
70637
70637
70637
70637
70637
70637
70637
70637
70637
70637
70637
70637
70637
70637
70637
70637
70637
70637
70637
70637
70637
70637
70637
70637
70637
70637
70637
70637
70637
70637
70637
70637
70637
70637
70637
70637
70637
70637
70637
70637
70637
70637
70637
70637
70637
70637
70637
70637.6
70654.7
71022.8
77319.9
171587
503610
705384
757609
762443
754078
742350
729585
717285
709444
701964
683836
662718
638001
610324
588479
560314
530962
501906
475635
451202
428888
409546
394302
381057
369430
358384
347700
337410
328101
320273
313592
307747
302515
297731
293145
288413
283489
278305
272629
266189
259214
251291
242434
233336
224476
216112
208213
200854
194080
187870
182255
177186
172709
168776
165292
162279
160145
158080
156304
154794
153826
153432
153660
155277
70637
70637
70637
70637
70637
70637
70637
70637
70637
70637
70637
70637
70637
70637
70637
70637
70637
70637
70637
70637
70637
70637
70637
70637
70637
70637
70637
70637
70637
70637
70637
70637
70637
70637
70637
70637
70637
70637
70637
70637
70637
70637
70637
70637
70637
70637
70637
70637
70637
70637
70637
70637
70637
70637
70637
70637.6
70656.8
71134.2
79959.2
211881
575387
737267
773388
777067
766941
754718
742523
729671
716311
706877
694209
676325
653287
624021
592920
562263
527552
494260
461084
431434
404259
378903
356264
337769
321178
306468
292725
279641
267291
256451
246898
238443
230736
223821
217680
212014
206671
201664
197004
192597
188311
184103
179789
175333
170904
166671
162836
159404
156247
153306
150655
148286
146165
144315
142638
141309
140215
139623
139728
140294
140560
141080
142150
143368
144426
70637
70637
70637
70637
70637
70637
70637
70637
70637
70637
70637
70637
70637
70637
70637
70637
70637
70637
70637
70637
70637
70637
70637
70637
70637
70637
70637
70637
70637
70637
70637
70637
70637
70637
70637
70637
70637
70637
70637
70637
70637
70637
70637
70637
70637
70637
70637
70637
70637
70637
70637
70637
70637
70637
70637.5
70656.4
71190.8
81827.9
243763
618187
759091
785770
788958
779877
766607
754205
743032
731966
720736
709285
691725
674400
650687
619480
586720
549992