/*--------------------------------*- C++ -*----------------------------------*\
| =========                 |                                                 |
| \\      /  F ield         | OpenFOAM: The Open Source CFD Toolbox           |
|  \\    /   O peration     | Version:  2112                                  |
|   \\  /    A nd           | Website:  www.openfoam.com                      |
|    \\/     M anipulation  |                                                 |
\*---------------------------------------------------------------------------*/
FoamFile
{
    version     2.0;
    format      ascii;
    arch        "LSB;label=32;scalar=64";
    class       volVectorField;
    location    "0.00563";
    object      U;
}
// * * * * * * * * * * * * * * * * * * * * * * * * * * * * * * * * * * * * * //

dimensions      [0 1 -1 0 0 0 0];

internalField   nonuniform List<vector> 
13875
(
(2204.17 109.694 1.8127e-18)
(2142.47 5.63019 -9.3874e-19)
(2170.26 -2.1702 -9.41091e-19)
(2167.87 -0.7291 0)
(2170.37 0.16447 0)
(2169.46 -1.31087 9.36744e-19)
(2169.44 -1.25138 -9.3705e-19)
(2169.68 -0.207954 -4.68506e-19)
(2169.42 -0.187266 4.6825e-19)
(2169.47 0.0252506 0)
(2169.44 0.473109 -3.88286e-22)
(2169.5 1.11675 -3.88071e-22)
(2169.58 0.949731 0)
(2169.38 -0.0125225 -4.68232e-19)
(2169.46 -0.928149 4.68592e-19)
(2169.61 -1.28849 0)
(2169.86 -0.274875 9.37064e-19)
(2169.25 0.345141 -9.37804e-19)
(2169.13 0.971414 3.87931e-22)
(2169.8 1.18515 -3.85758e-22)
(2170.43 -0.188359 -9.36299e-19)
(2167.86 0.284375 9.37154e-19)
(2171.08 2.49802 -1.87792e-18)
(2143.7 -8.66112 1.91633e-18)
(2210.33 -106.692 1.76365e-18)
(2253.39 91.9347 -1.63245e-18)
(2228.46 -1.16948 1.88336e-18)
(2247.41 0.671461 8.71808e-19)
(2245.5 0.882932 -8.6713e-19)
(2248.51 -0.67962 4.16939e-22)
(2247.72 1.92127 5.203e-22)
(2245.84 1.53138 4.16229e-22)
(2245.42 0.170096 -4.35763e-19)
(2245 0.358412 4.35956e-19)
(2245.06 0.194093 2.17611e-19)
(2245.08 -0.562907 -1.63015e-19)
(2245.35 -1.5006 -5.31664e-20)
(2247.68 -1.17939 0)
(2247.85 0.0520728 -4.34998e-19)
(2247.57 1.03935 4.33455e-19)
(2245.6 1.43788 4.36028e-19)
(2245.52 0.474596 -4.35309e-19)
(2245.23 -0.26903 5.18483e-22)
(2245.72 -1.572 -5.18673e-22)
(2247.84 -1.93504 5.19793e-22)
(2248.39 0.787028 -8.71477e-19)
(2245.59 -0.68197 2.59979e-18)
(2247.26 -1.58632 -1.74251e-18)
(2228.95 3.66574 5.42799e-22)
(2256.43 -97.0553 -1.71364e-18)
(2252.4 78.1218 0)
(2236.34 -18.2431 0)
(2249.5 4.4181 0)
(2250.61 -1.88486 0)
(2253.53 -2.58231 -1.63938e-18)
(2253.23 1.6749 1.64228e-18)
(2253.09 2.25406 1.72307e-18)
(2253.16 0.682847 -2.58241e-18)
(2253.12 -0.0105445 8.61713e-19)
(2253.68 -0.0315315 4.30595e-22)
(2253.61 0.0867934 -4.31e-19)
(2253.08 -2.31819 4.29775e-19)
(2254.1 -2.56554 0)
(2253.98 0.00828107 0)
(2254.04 2.36105 4.08164e-22)
(2253.18 2.00332 0)
(2254.05 0.225071 8.38116e-22)
(2253.11 -0.287002 4.30602e-19)
(2253.05 -2.5059 -4.30708e-19)
(2253.49 -1.76102 0)
(2253.7 2.32998 0)
(2250.93 1.32541 0)
(2250.7 -4.78578 0)
(2237.94 13.8694 0)
(2257.01 -74.6686 0)
(2247.86 51.3538 0)
(2235.05 -28.689 1.8142e-18)
(2249.3 7.18581 -3.41682e-18)
(2251.61 -4.74569 3.46605e-18)
(2253.3 -3.05816 -1.63422e-18)
(2253.13 1.49211 0)
(2253.5 1.80409 -8.39997e-22)
(2253.95 0.134383 0)
(2254.22 -0.517275 0)
(2254.38 -0.420642 0)
(2254.46 0.311313 0)
(2254.19 -1.98811 -8.44239e-22)
(2254.08 -2.46293 -5.0816e-20)
(2253.95 -0.00171852 5.06185e-20)
(2254 2.27218 0)
(2254.22 1.79984 0)
(2254.74 0.254685 7.99422e-22)
(2254.22 0.413306 -8.61216e-19)
(2253.8 -1.72335 8.56937e-19)
(2253.43 -1.52392 -1.6289e-18)
(2253.54 2.70344 1.62373e-18)
(2251.99 4.30896 1.74096e-18)
(2249.76 -8.85264 -1.72059e-18)
(2235.71 31.3426 0)
(2251.74 -58.3264 0)
(2244.89 39.2785 1.74898e-18)
(2235.45 -47.8798 0)
(2248.75 10.4516 0)
(2250.36 -7.65753 0)
(2253.45 -4.20025 0)
(2253.19 0.998289 1.65644e-21)
(2253.29 1.28663 1.68335e-21)
(2254.02 -0.638778 4.32785e-19)
(2254.23 -0.772238 -4.30272e-19)
(2254.32 -0.508336 2.01064e-19)
(2254.44 0.426735 -2.16768e-19)
(2254.23 -1.41448 0)
(2254.12 -2.22014 0)
(2253.88 -0.0569296 -1.66173e-21)
(2254.06 2.06699 0)
(2254.28 1.33017 -1.68511e-21)
(2254.72 0.2597 8.0596e-19)
(2254.05 0.787534 -8.5421e-19)
(2253.47 -1.17108 1.71771e-18)
(2253.4 -0.921902 -1.70687e-18)
(2253.57 3.67399 1.65279e-21)
(2250.69 6.42513 0)
(2250.03 -11.5118 0)
(2237.27 42.8545 0)
(2250.65 -35.317 0)
(2241.5 6.74992 0)
(2231.54 -63.6263 9.12419e-19)
(2247.21 12.2401 -8.47579e-19)
(2250.9 -11.1712 0)
(2252.48 -4.85475 8.58641e-19)
(2252.68 0.517106 -4.32752e-19)
(2253.44 0.604141 -2.86471e-21)
(2253.98 -1.12606 -2.18666e-19)
(2254.23 -1.24586 -4.33933e-19)
(2254.21 -0.777085 1.5965e-19)
(2254.34 0.447155 1.64558e-21)
(2254.12 -1.10041 2.68568e-19)
(2253.98 -2.02363 -2.15249e-19)
(2253.76 -0.0643492 3.37793e-21)
(2253.88 1.86723 -4.27093e-19)
(2254.19 1.11978 4.33261e-19)
(2254.65 0.297615 1.6298e-21)
(2254.18 1.47358 -1.68287e-21)
(2253.73 -0.238289 -1.6812e-21)
(2253.05 -0.433497 -8.66637e-19)
(2252.75 4.01938 8.46088e-19)
(2251.44 10.6404 0)
(2247.38 -15.1687 0)
(2232.45 65.3605 -1.93342e-18)
(2246.15 -18.9272 -1.26504e-19)
(2254.03 2.89458 -4.95244e-20)
(2227.49 -79.3476 6.02424e-20)
(2243.04 12.2222 0)
(2248.5 -15.6061 -2.69181e-23)
(2252.08 -6.64751 -2.62221e-23)
(2252.52 -0.636851 0)
(2253.01 -0.170442 0)
(2253.95 -1.83174 -8.6361e-19)
(2253.99 -1.33404 8.60096e-19)
(2253.94 -0.764587 0)
(2254.1 0.559847 1.6832e-18)
(2254.09 -0.577474 4.92635e-21)
(2253.93 -1.55673 -1.72081e-18)
(2253.59 -0.127942 -1.70013e-21)
(2253.87 1.40904 0)
(2254.17 0.634352 3.44566e-18)
(2254.43 0.334897 2.04441e-21)
(2253.8 1.85223 -6.90594e-18)
(2253.07 0.480003 3.45455e-18)
(2252.64 0.813248 2.65218e-23)
(2252.24 5.92081 0)
(2248.51 12.9106 3.52563e-18)
(2244.17 -12.5265 -3.30913e-18)
(2228.89 72.8643 3.81532e-18)
(2247.22 2.83637 -3.18198e-18)
(2218.36 -22.8479 -3.1696e-19)
(2214.7 -87.4759 -7.49623e-18)
(2235.66 3.48906 8.7068e-22)
(2246.05 -22.3865 2.61166e-23)
(2248.72 -8.81589 -8.08717e-22)
(2251.04 -2.1954 0)
(2252.81 -1.57524 -3.44495e-18)
(2253.72 -2.43669 3.45819e-18)
(2253.64 -1.74565 0)
(2253.56 -1.12102 -8.28943e-22)
(2253.78 0.347466 -8.24708e-22)
(2253.84 -0.311945 0)
(2253.56 -1.34316 0)
(2253.25 -0.0377612 -1.63985e-21)
(2253.46 1.21391 -8.35656e-22)
(2253.91 0.471796 2.597e-23)
(2254.13 0.650019 -8.52915e-22)
(2253.56 2.63656 -2.62916e-23)
(2252.89 1.95605 -1.73571e-18)
(2251.48 2.38429 -1.60231e-20)
(2249.31 7.87843 1.69111e-18)
(2246.4 19.348 8.8502e-22)
(2236.74 -4.76507 3.45877e-18)
(2216.54 81.4906 -3.5373e-18)
(2222.27 18.14 2.50362e-23)
(2113.28 -37.868 9.42604e-19)
(2168.6 -98.5973 0)
(2217.06 -20.1711 -8.31525e-22)
(2234.91 -32.2865 -8.65795e-19)
(2245.69 -17.4652 1.70988e-18)
(2248.92 -6.32861 -1.7274e-18)
(2251.22 -3.47006 9.21703e-21)
(2252.95 -3.41654 8.59494e-19)
(2252.81 -1.73304 0)
(2252.74 -1.02912 -8.45576e-19)
(2253.02 0.430527 8.46675e-19)
(2253.28 0.349598 0)
(2253.03 -0.687231 0)
(2252.61 -0.262073 2.08599e-21)
(2252.89 0.407368 8.28044e-22)
(2253.22 -0.0348305 8.39089e-19)
(2253.27 0.834971 -8.41937e-19)
(2252.5 3.42754 0)
(2251.26 3.59546 8.62296e-19)
(2249.32 5.87212 -1.72806e-18)
(2246.14 14.8028 8.46174e-19)
(2236.13 28.8215 -8.4109e-22)
(2218.96 16.6561 0)
(2171.27 93.9206 0)
(2117.05 35.3308 0)
(1873.62 -142.219 -6.57039e-17)
(2125.75 -161.373 8.42326e-17)
(2198.85 -54.8423 0)
(2229.11 -54.2449 -2.99219e-17)
(2239.59 -21.6243 3.06456e-17)
(2246.29 -10.7094 0)
(2249.58 -7.71075 -2.95482e-20)
(2251.28 -5.04454 -1.46454e-17)
(2251.31 -2.51111 1.46291e-17)
(2251.32 -1.69913 -2.93348e-20)
(2251.72 -0.238168 0)
(2252.02 0.286585 -3.68484e-18)
(2251.75 -0.380707 5.57957e-18)
(2251.34 -0.110149 -1.88915e-18)
(2251.53 0.384927 -2.90743e-20)
(2251.82 0.40935 0)
(2251.75 1.7825 0)
(2250.79 5.14866 -2.94879e-17)
(2249.28 7.77358 2.91102e-17)
(2246.62 10.4255 -3.05599e-17)
(2240.58 20.3657 2.92165e-17)
(2229.57 52.6543 3.22131e-17)
(2200.01 52.6547 -2.92338e-17)
(2128.78 162.125 -8.33748e-17)
(1884.72 138.418 -1.2575e-17)
(1653.05 -215.511 -9.08448e-17)
(2011.29 -307.4 1.37631e-16)
(2159.3 -104.245 0)
(2210.54 -64.5447 6.8325e-17)
(2232.51 -29.3398 -7.08616e-17)
(2241.67 -15.7047 -3.4057e-17)
(2245.23 -8.11669 3.40664e-17)
(2247.92 -4.37809 -3.31036e-17)
(2248.16 -1.72864 3.33464e-17)
(2248.45 -0.923898 3.24668e-20)
(2249.1 0.323011 0)
(2249.5 1.03886 -2.10877e-18)
(2249.3 0.451542 2.16396e-18)
(2248.82 -0.360448 3.30799e-20)
(2248.86 -0.775658 3.25024e-20)
(2248.94 -0.599352 3.27143e-20)
(2248.74 0.803205 0)
(2247.65 4.5586 0)
(2244.8 7.6737 -6.77187e-17)
(2242.05 15.1316 6.84315e-17)
(2233.52 26.5736 -7.1521e-17)
(2211.98 58.8621 1.4686e-16)
(2165.87 98.4682 -7.00364e-17)
(2016.34 298.305 -3.8724e-20)
(1697.78 205.938 8.75416e-20)
(1281.39 -592.63 -1.08944e-16)
(1742.24 -590.923 1.18766e-16)
(2046.48 -180.726 2.16858e-16)
(2173.52 -106.817 -9.33945e-17)
(2208.43 -37.2131 0)
(2228.89 -20.5355 7.44102e-17)
(2237.7 -13.7635 -7.53512e-17)
(2241.12 -7.43187 0)
(2241.88 -4.32127 3.54234e-20)
(2242.64 -3.02743 0)
(2243.58 -1.20847 0)
(2244 0.427063 0)
(2243.95 0.759269 4.65984e-18)
(2243.48 0.195521 -4.65597e-18)
(2243.34 0.264449 -3.72805e-20)
(2242.96 1.07779 -3.53007e-20)
(2242.41 3.0603 0)
(2240.94 7.21198 0)
(2237.06 14.0938 0)
(2228.53 19.3219 -7.87756e-17)
(2211.43 37.1509 1.56839e-16)
(2176.57 101.856 -7.23092e-17)
(2054.82 163.035 -1.33385e-16)
(1750.55 593.168 1.00384e-16)
(1285.85 543.837 -5.99349e-20)
(1301.69 -610.498 1.6077e-16)
(1113.15 -1085.86 0)
(1700.76 -452.499 0)
(1923.22 -127.241 -1.09055e-16)
(2146.2 -82.5189 1.09872e-16)
(2198.74 -44.1102 0)
(2213.74 -13.7452 1.1395e-20)
(2221.89 -5.11347 4.04606e-17)
(2225.34 -1.38561 -4.10288e-17)
(2227.74 -0.0271009 0)
(2229.67 0.966416 -1.00892e-17)
(2230.36 1.65969 1.01366e-17)
(2230.59 1.61157 -5.08191e-18)
(2230.15 0.0497792 5.09318e-18)
(2229.54 -1.37103 3.85517e-20)
(2228 -1.88137 -4.07024e-17)
(2225.58 -0.637366 8.08651e-17)
(2221.88 4.32572 1.00173e-18)
(2210.85 11.9427 -4.0435e-17)
(2196.58 42.8503 -9.11293e-17)
(2133.21 70.9926 8.44867e-17)
(1910.3 107.45 8.30185e-20)
(1756.43 447.475 2.62016e-20)
(1104.04 1071.85 1.67221e-16)
(1319.51 612.469 7.14509e-18)
(1358.87 -629.437 0)
(1142.96 -1059.15 0)
(1289 -751.814 0)
(1209.27 -829.974 0)
(1956.27 -260.67 0)
(2032.68 -61.2881 1.0431e-16)
(2148.73 -46.2468 -1.05469e-16)
(2167.25 -31.4274 1.19488e-19)
(2176 -20.1383 -1.03806e-20)
(2183.05 -13.6356 2.28149e-17)
(2187.24 -6.92385 -2.30811e-17)
(2188.72 -1.93155 -2.32024e-19)
(2189.2 0.727174 -7.14402e-19)
(2188.75 2.8207 8.12447e-19)
(2187.53 5.97218 -2.29296e-17)
(2183.97 11.1512 2.26914e-17)
(2176.75 19.4343 1.0263e-19)
(2166.69 31.7386 0)
(2145.85 57.2835 0)
(2024.2 87.4955 0)
(1912.66 324.806 -2.11361e-16)
(1180.25 822.262 -5.97108e-17)
(1295.21 707.372 1.63641e-16)
(1135.61 1021.8 2.05847e-20)
(1369.27 619.215 2.08496e-20)
(1436.23 -620.644 0)
(1270.02 -928.07 3.9729e-20)
(1319.98 -777.674 0)
(1227.68 -848.998 -1.66008e-16)
(1316.7 -780.32 3.26353e-16)
(1594.77 -580.73 -2.04454e-16)
(1920.99 -123.973 0)
(1939.37 -11.3804 -1.02657e-19)
(1970.96 18.0033 0)
(2011.83 18.1574 0)
(2029.09 11.6799 -1.4548e-17)
(2036.03 5.66147 1.48405e-17)
(2037.54 3.45636 1.46424e-17)
(2036.89 -0.912483 -1.47413e-17)
(2033.01 -6.61533 0)
(2019.27 -13.2592 -6.11329e-17)
(1982.76 -17.9886 6.13778e-17)
(1937.16 8.906 7.18488e-17)
(1922.69 118.842 -6.16764e-17)
(1619.04 565.611 0)
(1295.66 802.094 0)
(1207.28 843.104 -1.66374e-19)
(1329.03 774.766 -1.70676e-16)
(1267.2 922.835 3.65952e-16)
(1425.24 619.013 -1.69533e-16)
(1517.55 -627.522 -1.70111e-16)
(1390.16 -843.137 1.86463e-16)
(1378.49 -743.904 0)
(1271.33 -799.062 -1.93944e-16)
(1292.99 -752.405 -7.00038e-18)
(1268.73 -739.143 2.80637e-16)
(1233.9 -587.538 -1.99124e-16)
(1222.52 -493.479 1.22448e-16)
(1335.53 -347.808 0)
(1478.48 -175.627 0)
(1462.06 -91.6191 -4.36317e-20)
(1463.13 -34.8527 2.97789e-19)
(1455.22 -7.47408 0)
(1458.84 25.0426 0)
(1464.27 72.6043 6.26584e-17)
(1482.32 151.448 -5.92085e-17)
(1426.55 313.235 -1.21109e-16)
(1215.26 514.775 2.36243e-16)
(1206.61 572.3 1.74868e-17)
(1257.71 740.348 -8.97742e-17)
(1280.31 766.731 0)
(1248.35 803.424 0)
(1376.68 743.008 -1.75796e-16)
(1354.49 874.129 2.04346e-16)
(1501.39 639.57 -4.58471e-20)
(1653.36 -605.973 1.58115e-16)
(1550.69 -747.954 -9.79252e-20)
(1522.74 -674.039 9.61696e-17)
(1465.82 -690.896 -8.47742e-17)
(1384.29 -644.55 -4.64408e-20)
(1299.57 -576.042 9.00219e-20)
(1171.93 -426.722 1.18852e-16)
(805.022 -225.882 -1.84189e-16)
(489.448 -80.8201 6.38386e-17)
(425.878 -59.4197 0)
(307.574 -7.90997 -3.36737e-17)
(260.113 -7.90811 3.36159e-17)
(229.147 2.78322 0)
(241.58 -2.01755 6.00639e-20)
(286.229 5.7702 -3.34664e-17)
(412.738 31.9173 3.39585e-17)
(524.223 93.2355 0)
(731.104 167.846 -1.20122e-16)
(1128.29 408.631 1.18852e-16)
(1285.83 564.184 9.13864e-17)
(1360.1 637.989 -1.94125e-16)
(1441.83 707.953 1.0331e-16)
(1525.41 713.768 0)
(1540.93 786.566 1.68756e-16)
(1645.03 624.554 -3.14678e-18)
(1808.34 -543.129 -3.4957e-18)
(1749.25 -563.95 8.13917e-17)
(1678.41 -495.515 -3.77935e-17)
(1504.24 -364.933 -5.75522e-17)
(1417.7 -301.42 7.38524e-17)
(1339.18 -220.844 -5.25244e-17)
(1227.15 -166.685 5.46963e-17)
(830.677 -79.3926 -6.18882e-17)
(595.225 -57.6602 -3.60698e-20)
(554.593 -69.9348 3.32747e-17)
(478.177 -44.4904 1.64901e-17)
(450.478 -31.8227 -1.66955e-19)
(439.782 4.63935 -1.66208e-17)
(444.619 31.9177 -6.44745e-20)
(471.152 64.3389 -7.86845e-20)
(553.943 69.733 -2.09463e-18)
(642.709 73.0028 -7.45526e-21)
(813.554 79.9948 5.69596e-18)
(1206.48 156.883 -3.59283e-18)
(1339.38 218.978 0)
(1407.67 320.905 1.1178e-17)
(1511.31 392.248 -3.47158e-17)
(1689.44 531.289 4.31334e-17)
(1741.08 600.429 -5.68487e-17)
(1804.47 563.797 5.38112e-17)
(1980.85 -504.372 -8.78489e-20)
(1932.24 -346.085 -1.06877e-19)
(1887.75 -243.929 1.26794e-19)
(1720.29 -145.5 -5.78434e-21)
(1472.24 18.8232 -1.86053e-19)
(1372.7 21.43 -1.9709e-19)
(1341.68 -62.4813 -7.39279e-21)
(1163.54 -93.3903 0)
(930.198 -119.849 0)
(860.234 -111.755 6.56823e-17)
(804.503 -69.9628 -6.61977e-17)
(765.756 -36.2643 -9.02558e-21)
(748.074 6.5759 8.99238e-21)
(757.13 41.2963 -8.51905e-18)
(795.548 91.5979 8.30602e-18)
(864.634 126 0)
(930.466 146.869 0)
(1113.77 121.685 -5.93988e-17)
(1321.48 84.4172 5.52185e-17)
(1355.6 -20.0779 -1.88117e-19)
(1441.85 -42.8117 0)
(1723.92 137.683 0)
(1884.99 233.285 -1.31037e-19)
(1923.01 342.702 -1.12518e-19)
(1980.48 520.095 1.24604e-16)
(1562.74 -143.937 -1.89421e-16)
(1738.68 -87.695 -2.51319e-16)
(1860.71 141.905 1.20083e-16)
(1760.87 231.224 0)
(1568.87 245.905 2.10865e-19)
(1494.42 140.086 1.06844e-16)
(1498.36 16.1948 -2.09061e-16)
(1397.74 -37.6393 1.07995e-16)
(1178.42 -79.3738 -1.21907e-16)
(1041.03 -82.6079 1.25397e-16)
(958.178 -47.363 3.27902e-17)
(905.948 -20.3876 -4.07903e-17)
(888.26 9.48509 -8.2248e-18)
(901.089 32.5978 1.66441e-17)
(957.468 71.2038 0)
(1051.58 99.5368 0)
(1179.79 104.069 1.18429e-16)
(1375.71 58.5377 -2.23169e-16)
(1495.12 7.91962 1.07863e-16)
(1493.43 -137.53 2.33663e-19)
(1560.57 -264.478 1.7102e-16)
(1759.32 -248.697 -8.64937e-17)
(1843.8 -181.49 -4.94973e-16)
(1707.8 74.0038 6.64584e-16)
(1552.3 146.788 -2.64143e-16)
(73.2186 -34.4425 1.18763e-19)
(746.433 48.0396 -2.62311e-16)
(1476.57 568.248 1.55925e-16)
(1707.99 545.131 0)
(1648.92 445.777 0)
(1603.85 258.79 0)
(1603.17 113.934 0)
(1527.93 49.3467 0)
(1340.19 1.5193 -5.22628e-17)
(1182.94 -23.0544 1.09019e-16)
(1081.96 -12.7281 -8.46879e-17)
(1025.79 -5.42379 3.20487e-17)
(1006.22 10.877 -3.5984e-18)
(1026.61 20.9194 1.46076e-20)
(1091.69 36.7121 -5.6029e-17)
(1202.36 38.649 5.59836e-17)
(1347.18 16.5125 0)
(1524.35 -36.3422 0)
(1612.32 -97.3375 -1.70681e-16)
(1607.69 -266.52 1.8363e-16)
(1651.84 -458.189 -1.69591e-19)
(1707.22 -542.562 6.73017e-20)
(1402.05 -626.527 -9.34079e-20)
(635.447 -59.2881 -1.19418e-19)
(39.198 15.6815 0)
(-226.375 25.7078 -2.15727e-16)
(638.843 357.903 2.17632e-16)
(1405.48 808.35 -1.51435e-19)
(1709.55 745.833 1.54603e-16)
(1715.73 577.355 -1.23543e-16)
(1689.35 355.863 0)
(1673.11 215.978 -8.1455e-17)
(1609.86 143.979 7.50005e-17)
(1444.03 83.828 -4.51434e-17)
(1291.31 36.6668 9.41804e-17)
(1193.87 20.7515 -4.84063e-17)
(1136.26 9.38117 1.82868e-19)
(1118.83 8.82417 0)
(1141.19 2.63456 2.4872e-17)
(1209.95 -4.32871 2.34127e-17)
(1315.47 -29.7762 -4.79458e-17)
(1453.74 -76.1245 -8.30213e-17)
(1609.28 -143.51 8.45704e-17)
(1681.53 -204.692 -7.03104e-17)
(1698.88 -364.626 7.98175e-17)
(1713.81 -598.264 8.13094e-20)
(1710.34 -748.064 -7.40852e-20)
(1367.15 -850.123 0)
(580.75 -347.679 9.98703e-20)
(-110.949 -42.5016 0)
(379.822 390.341 1.93765e-16)
(1020.18 765.841 -1.74816e-16)
(1510.12 935.762 5.71969e-20)
(1749.12 842.728 0)
(1766.35 670.441 0)
(1741.19 473.699 -7.22832e-21)
(1714.6 337.793 0)
(1667.76 239.672 7.41511e-20)
(1530.37 159.368 0)
(1390.74 90.0371 4.19018e-17)
(1295.59 52.7851 -6.41935e-17)
(1240.75 22.486 3.25498e-17)
(1221.96 6.88715 -1.09527e-17)
(1245.25 -14.4323 0)
(1309.23 -40.2703 0)
(1409.12 -85.1615 3.95125e-17)
(1533.47 -151.41 -1.11275e-16)
(1663.84 -239.831 7.34937e-17)
(1722.39 -330.064 -5.91257e-17)
(1753.62 -470.753 7.10095e-17)
(1771.83 -676.621 0)
(1755.41 -837.237 0)
(1514.77 -943.711 0)
(1013.51 -768.257 -1.02737e-20)
(242.875 -196.577 -2.03421e-16)
(543.384 317.784 -3.54203e-20)
(1293.07 835.606 1.42773e-16)
(1625.42 966.464 -1.07468e-16)
(1793.59 873.295 0)
(1794.07 724.793 0)
(1766.07 553.422 7.50466e-21)
(1746.16 436.031 6.39583e-17)
(1712.23 314.769 -5.77921e-17)
(1587.51 219.203 3.07982e-20)
(1466.21 136.671 3.3284e-20)
(1384.82 80.107 3.49923e-20)
(1332.78 36.0479 -1.03201e-20)
(1316.15 4.26184 -1.03393e-20)
(1336.54 -31.4293 1.92851e-17)
(1396.78 -73.7044 -1.94718e-17)
(1481.98 -135.055 4.29454e-20)
(1590.68 -211.454 3.97405e-20)
(1708.5 -316.165 0)
(1750.61 -429.848 -5.29682e-17)
(1780.71 -549.119 6.33972e-17)
(1802.47 -724.621 0)
(1801.59 -871.523 -9.46498e-17)
(1643.88 -969.645 1.1136e-16)
(1340.15 -877.961 8.26731e-21)
(665.639 -489.496 -1.74655e-16)
(795.669 422.412 3.84372e-20)
(1445.41 858.124 0)
(1700.07 957.697 0)
(1816.03 886.926 -4.93906e-17)
(1804.22 767.305 4.64251e-17)
(1780.07 626.031 0)
(1776.36 506.632 5.83286e-17)
(1750.09 375.476 -5.3251e-17)
(1642.58 268.485 3.2127e-17)
(1535.03 169.262 -3.24429e-17)
(1460.24 102.517 1.77356e-17)
(1416.33 45.3061 -1.77727e-17)
(1400.07 1.66945 0)
(1420.66 -46.6956 -1.76291e-17)
(1473.25 -102.186 1.782e-17)
(1551.12 -175.769 -3.52484e-20)
(1646.23 -266.737 -3.26691e-20)
(1749.07 -380.942 5.20482e-20)
(1778.04 -510.952 4.89402e-17)
(1788.02 -629.264 -5.7649e-17)
(1812.98 -774.522 -4.68103e-20)
(1820.92 -890.808 -4.37494e-20)
(1704.98 -957.017 0)
(1470.66 -844.453 -6.21481e-20)
(797.408 -439.703 3.75662e-20)
(896.356 371.625 1.47871e-22)
(1540.49 816.408 0)
(1737.08 938.968 8.68167e-23)
(1822.78 884.412 4.18863e-20)
(1804.59 798.232 -8.64824e-23)
(1795.31 666.328 -5.2228e-17)
(1801.99 560.297 4.56738e-17)
(1784.64 421.32 0)
(1684.09 309.484 -5.99243e-20)
(1591.92 207.618 -1.08828e-22)
(1530.97 125.156 -1.14178e-22)
(1490.49 56.1066 6.88068e-20)
(1476.42 0.0775553 0)
(1493.05 -59.1615 0)
(1541.56 -125.775 -1.14018e-22)
(1605.19 -212.429 -1.08703e-22)
(1685.26 -308.448 -2.68757e-17)
(1781.22 -424.919 7.64873e-17)
(1802.33 -559.854 -5.2886e-17)
(1803.43 -667.877 0)
(1814.92 -796.652 -4.40173e-17)
(1830.2 -887.611 4.45552e-17)
(1742.91 -939.438 8.58601e-23)
(1581 -809.45 5.27497e-20)
(972.404 -421.796 1.44726e-22)
(1015.11 344.211 1.00106e-17)
(1603.76 764.324 1.59556e-17)
(1772.4 887.511 9.2087e-17)
(1821.09 876.371 -4.15162e-17)
(1811.04 802.15 4.21155e-17)
(1811.43 699.854 -4.7334e-17)
(1828.45 594.081 4.27898e-17)
(1810.84 454.421 -2.54246e-17)
(1722.45 343.991 2.48694e-17)
(1644.79 229.193 1.15482e-22)
(1591.27 141.496 1.20937e-22)
(1558.79 63.842 -1.22895e-22)
(1544.43 -0.232453 7.41514e-18)
(1560.92 -68.4863 7.24895e-18)
(1601.28 -143.838 -1.49652e-17)
(1659.49 -235.717 1.15653e-22)
(1725.25 -341.12 4.98355e-17)
(1810.86 -456.726 -9.66819e-17)
(1830.78 -595.232 4.85704e-17)
(1815.7 -702.192 0)
(1821.06 -807.439 -8.38316e-23)
(1831.67 -879.155 7.80878e-23)
(1769.56 -900.257 -8.11794e-23)
(1617.38 -769.556 -1.12163e-16)
(1057.12 -342.232 1.3232e-16)
(1085.25 307.383 1.32968e-19)
(1642.55 708.557 0)
(1791.35 852.571 0)
(1822.82 862.564 3.87559e-20)
(1821.81 796.25 7.90217e-20)
(1833.11 701.868 0)
(1854.69 607.148 4.50656e-17)
(1837.31 471.78 -4.29172e-17)
(1751.9 360.047 4.49498e-20)
(1687.76 250.619 -4.80161e-20)
(1649.02 153.874 -1.37813e-17)
(1617.51 68.7922 1.37421e-17)
(1606.47 -4.04255 3.55921e-18)
(1619.47 -80.3342 -3.47508e-18)
(1657.95 -163.328 1.33569e-17)
(1702.35 -263.763 -3.8574e-17)
(1756.22 -370.505 2.51483e-17)
(1835.48 -484.389 -4.70293e-20)
(1853.61 -615.713 3.96889e-20)
(1836.36 -712.747 -4.00073e-17)
(1829.13 -803.678 1.41298e-18)
(1833.63 -865.965 -9.8862e-19)
(1799.56 -850.364 3.95559e-17)
(1644.95 -707.036 4.97495e-20)
(1075.36 -333.053 6.449e-20)
(1093.62 308.944 1.26192e-16)
(1653.1 660.451 -1.00185e-16)
(1814.48 780.593 0)
(1829.24 833.119 -3.78647e-17)
(1826.26 777.598 4.38648e-20)
(1853.02 712.285 3.849e-17)
(1877.24 624.639 4.18668e-17)
(1856.34 492.411 -4.04471e-17)
(1783.19 387.047 -4.73956e-20)
(1733.43 267.457 -2.4733e-17)
(1697.8 168.402 1.20067e-17)
(1673.97 78.9316 1.26084e-17)
(1661.76 0.391751 -5.37069e-20)
(1674.41 -82.0065 0)
(1703.81 -169.111 0)
(1747.2 -270.37 0)
(1786.83 -383.369 4.74937e-20)
(1856.12 -493.542 9.79271e-21)
(1879.01 -623.761 -5.01978e-20)
(1854.57 -714.487 0)
(1832.48 -783.604 3.87011e-20)
(1836.08 -838.083 9.23523e-21)
(1819.75 -795.017 -4.76745e-20)
(1686.1 -663.246 -9.83481e-17)
(1135.06 -307.156 1.18678e-16)
(1112.24 304.181 5.98443e-17)
(1684.83 590.076 -8.79344e-17)
(1832.7 731.039 8.0553e-17)
(1838.24 806.809 -3.92668e-17)
(1846.91 760.878 -3.74375e-17)
(1877.19 694.708 3.67836e-17)
(1898.25 617.496 1.95497e-17)
(1877.37 495.777 -1.92396e-17)
(1806.93 389.304 1.09326e-17)
(1767 277.867 -2.26115e-17)
(1744.93 174.817 1.74409e-17)
(1720.16 81.7076 -7.39874e-18)
(1712.24 -2.27971 1.48476e-18)
(1721.85 -88.9095 -4.38605e-20)
(1751.54 -181.045 2.29846e-17)
(1781.34 -286.278 -2.31992e-17)
(1813.59 -395.513 3.95599e-20)
(1876.86 -501.873 3.85838e-17)
(1899.69 -621.638 -2.21131e-18)
(1880.8 -701.847 -3.76064e-17)
(1851.48 -769.295 0)
(1844.61 -812.831 3.93046e-17)
(1834.62 -749.136 -3.59123e-17)
(1692.45 -601.117 -9.54833e-17)
(1124.61 -289.658 -4.45072e-18)
(1171.89 300.791 -5.86549e-17)
(1704.5 535.162 4.58155e-17)
(1849.85 652.836 1.87123e-20)
(1851.38 754.501 -5.30711e-20)
(1861.17 726.923 1.88745e-20)
(1893.78 684.768 3.56556e-17)
(1916.17 611.427 -1.72525e-17)
(1889.66 493.614 -1.85236e-17)
(1830.9 397.117 4.20295e-20)
(1806.83 281.574 -4.44616e-20)
(1782.97 177.605 2.03833e-20)
(1766.09 83.6167 -2.05307e-20)
(1757.28 -3.70675 0)
(1767.63 -93.6188 5.20166e-21)
(1788.5 -185.967 -1.07753e-17)
(1820.86 -290.84 1.08984e-17)
(1839.99 -404.455 -1.96823e-17)
(1892.52 -505.335 1.05029e-18)
(1916.91 -619.252 1.83842e-17)
(1893.52 -690.446 -5.21812e-20)
(1865.06 -738.28 -3.74121e-17)
(1857.98 -762.893 3.45541e-17)
(1853.95 -664.274 0)
(1696.59 -539.902 -4.5932e-17)
(1137.49 -287.714 5.85356e-17)
(1173.74 286.947 0)
(1722.31 460.802 -3.80061e-17)
(1867.78 578.22 4.36727e-17)
(1862.48 705.427 1.73805e-20)
(1884.09 712.389 1.72688e-20)
(1918.55 666.563 -3.38241e-17)
(1933.51 594.689 3.48106e-17)
(1908.68 492.725 1.85996e-17)
(1854.4 396.172 8.03676e-19)
(1833.13 288.248 -1.99378e-17)
(1822.07 184.681 -2.15473e-20)
(1803.71 89.0532 2.42703e-20)
(1798.58 -0.489276 0)
(1804.83 -91.5738 4.36131e-20)
(1827.03 -187.244 -2.14818e-20)
(1847.01 -290.985 9.91146e-18)
(1862.46 -398.492 -9.81855e-18)
(1909.19 -493.356 -1.8591e-20)
(1936.84 -597.553 -1.94764e-20)
(1921.09 -669.794 1.68515e-20)
(1886.42 -718.736 -3.64449e-17)
(1865.47 -716.201 -5.69353e-18)
(1869.83 -592.882 3.31658e-17)
(1721.63 -470.951 0)
(1175.1 -298.735 5.76267e-17)
(1208.12 287.138 -1.11084e-16)
(1745.85 413.757 4.28176e-17)
(1884.44 499.378 3.2147e-17)
(1879.3 638.624 -3.91295e-17)
(1899.16 670.746 0)
(1933.5 646.089 -2.04651e-21)
(1946.5 583.478 0)
(1917.9 483.259 -2.22363e-21)
(1872.41 397.181 -2.36459e-21)
(1867.06 287.333 0)
(1853.16 181.27 0)
(1841.16 88.1504 -2.55371e-21)
(1834.59 -2.16604 0)
(1842.76 -94.2737 0)
(1857.9 -187.683 -9.68952e-18)
(1881.39 -292.115 9.71272e-18)
(1884.24 -401.774 -2.35645e-21)
(1921.83 -491.578 -1.72023e-17)
(1946.72 -589.139 1.68228e-17)
(1934.41 -650.39 0)
(1903.17 -681.849 3.56184e-17)
(1882.22 -645.986 -7.18077e-17)
(1881.75 -506.662 7.47964e-17)
(1743.26 -409.452 5.98748e-18)
(1197.12 -284.094 -5.51617e-17)
(1257.31 279.94 1.31753e-20)
(1773.28 352.176 -9.97077e-21)
(1885.04 430.829 0)
(1889.7 590.917 0)
(1916.25 641.488 0)
(1958.27 624.648 7.48717e-21)
(1961.13 556.755 0)
(1933.95 470.646 -7.90551e-21)
(1895.3 383.455 0)
(1890.64 279.276 -8.59488e-21)
(1883.77 179.953 0)
(1871.16 87.7805 -2.35926e-18)
(1868.46 -3.06591 2.33781e-18)
(1872.94 -94.773 0)
(1888.74 -189.001 9.2142e-18)
(1903.6 -287.29 -1.83022e-17)
(1905.87 -391.113 8.921e-18)
(1938.71 -474.221 0)
(1965.25 -566.985 1.62176e-17)
(1958.86 -627.743 -1.5465e-17)
(1917.56 -646.215 3.52124e-17)
(1895.82 -597.127 -3.1144e-17)
(1884.93 -428.338 0)
(1762.51 -351.639 0)
(1232.92 -282.105 0)
(1259.13 270.526 -1.29221e-20)
(1775.51 320.063 9.87413e-21)
(1871.27 357.675 0)
(1906.99 491.913 0)
(1931.55 585.593 0)
(1969.36 597.362 -7.58612e-21)
(1972.43 543.289 0)
(1943.37 457.268 8.25916e-21)
(1911.75 382.347 0)
(1919.7 279.853 -8.8525e-18)
(1911.26 178.61 8.86146e-18)
(1902.02 88.2807 -8.36821e-21)
(1896.79 -0.683457 9.23762e-21)
(1903.53 -90.7768 8.35567e-21)
(1914.74 -181.964 0)
(1932.32 -281.588 0)
(1925.05 -385.93 8.70648e-21)
(1947.09 -463.448 -1.63487e-17)
(1972.78 -546.774 1.56865e-17)
(1971.04 -603.669 0)
(1934.39 -597.946 7.76421e-21)
(1910.75 -500.895 0)
(1877.43 -361.431 0)
(1783.28 -315.466 0)
(1288.41 -279.182 0)
(1295.75 258.184 -4.97822e-17)
(1792.42 293.713 3.98453e-17)
(1880.11 283.892 0)
(1918.74 405.332 -1.67858e-20)
(1950.52 548.814 0)
(1983.9 571.008 -1.42963e-17)
(1987.77 515.095 3.08769e-17)
(1959.18 443.648 -1.57626e-17)
(1934.24 362.846 -8.27169e-18)
(1940.06 266.637 8.44781e-18)
(1933.79 174.703 4.36393e-21)
(1926.14 87.0721 1.11533e-18)
(1924.69 -2.38858 -1.07048e-18)
(1927.88 -91.739 8.50245e-18)
(1938.35 -181.95 -8.54957e-18)
(1952.01 -273.894 0)
(1945.8 -370.104 -1.55542e-20)
(1965.29 -445.86 0)
(1990.69 -526.836 0)
(1982.8 -573.41 -1.58805e-17)
(1949.16 -553.445 1.45194e-17)
(1921.32 -426.278 0)
(1882.08 -278.743 3.70828e-17)
(1795.37 -284.808 2.60617e-18)
(1294.5 -256.535 -1.00296e-16)
(1336.47 242.821 4.93516e-17)
(1807.88 266.681 1.89326e-20)
(1889.34 228.494 3.04819e-17)
(1922 324.986 -2.45664e-17)
(1958.75 481.285 -1.79034e-17)
(1992.48 527.031 0)
(1995.61 493.055 7.85436e-21)
(1966.62 422.9 1.52536e-17)
(1947.2 353.873 -1.61733e-17)
(1964.01 260.115 0)
(1958.56 168.282 0)
(1951.48 81.7759 -2.57935e-20)
(1946.78 -3.67297 3.21122e-20)
(1952.91 -89.5588 1.67625e-20)
(1962.02 -176.999 4.08249e-18)
(1974.91 -267.848 -4.06367e-18)
(1962.21 -364.735 8.63412e-21)
(1971.98 -431.067 1.55809e-17)
(1998.34 -500.783 -3.02848e-17)
(1995.01 -538.017 1.388e-17)
(1963.5 -489.96 -1.48721e-20)
(1927.07 -321.314 0)
(1890.9 -235.066 1.7037e-20)
(1815.63 -261.562 3.93847e-17)
(1328.82 -236.139 -9.65663e-17)
(1353.22 214.764 -4.82288e-17)
(1825.33 245.904 -3.68759e-17)
(1895.64 178.787 3.4775e-17)
(1905 235.635 1.44431e-17)
(1973.36 424.477 -1.83177e-17)
(2002.66 487.41 0)
(2009.05 463.451 3.77805e-21)
(1984.53 410.966 -1.09374e-20)
(1971.14 336.941 7.74313e-18)
(1980.77 250.056 -1.57716e-17)
(1975.29 166.317 7.91865e-18)
(1970.83 84.5601 1.98189e-18)
(1970.25 -1.19777 -1.85418e-18)
(1972.12 -86.4299 1.84013e-18)
(1978.39 -170.639 -1.98576e-18)
(1991.5 -254.484 0)
(1982.98 -342.368 1.14923e-20)
(1990.36 -412.901 -3.5234e-21)
(2010.8 -477.001 -1.5423e-17)
(1999.86 -492.227 1.37074e-17)
(1970.75 -439.851 0)
(1914.4 -259.267 0)
(1897.81 -176.12 -4.17577e-21)
(1829.48 -236.603 -3.8561e-17)
(1358.79 -199.777 -1.88823e-18)
(1382.21 192.429 -2.23846e-17)
(1834.84 228.606 1.89848e-17)
(1902.63 164.225 4.15489e-21)
(1894.84 165.447 0)
(1979.4 315.159 1.35395e-17)
(2005.69 427.65 -1.62029e-17)
(2014.86 433.858 3.54829e-21)
(1990.75 384.22 3.67478e-21)
(1979.99 323.657 1.44788e-20)
(2000.87 241.84 -1.8922e-18)
(1997.27 158.092 9.53584e-19)
(1992.21 77.501 1.87626e-18)
(1987.58 -3.09425 -9.60502e-19)
(1992.84 -83.3343 3.82883e-18)
(1999.98 -165.661 -3.80566e-18)
(2009.74 -247.8 0)
(1994.88 -336.223 1.05386e-20)
(1996.33 -389.404 -1.5157e-17)
(2019.14 -442.555 1.38186e-17)
(2007.6 -444.049 3.47371e-21)
(1980.74 -338.417 0)
(1890.5 -167.571 0)
(1903.62 -164.281 4.14645e-21)
(1835.91 -224.085 -3.75693e-17)
(1380.61 -183.475 4.5548e-17)
(1422.46 164.572 2.26414e-20)
(1849.31 208.66 0)
(1913.92 145.096 -7.83355e-21)
(1898.92 95.7492 -1.437e-17)
(1977.76 249.754 1.82522e-17)
(2010.47 371.93 -1.31109e-17)
(2020.08 391.77 1.55174e-17)
(2005.47 367.574 -6.9433e-18)
(2003.56 305.793 7.48923e-18)
(2015.97 228.885 -3.67374e-18)
(2009.95 152.216 3.71829e-18)
(2007.49 77.5469 -1.82263e-18)
(2007.89 -3.19478 2.08173e-18)
(2008.68 -83.3174 -2.46434e-19)
(2012.08 -160.661 3.71836e-18)
(2025.25 -237.374 -7.37685e-18)
(2016.42 -316.063 -3.85474e-18)
(2012.55 -373.491 6.92788e-18)
(2024.49 -409.715 1.38393e-20)
(2010.11 -374.911 -7.07945e-21)
(1980.39 -246.064 0)
(1897.54 -109.7 0)
(1911.31 -148.433 0)
(1843.91 -211.389 -1.84014e-17)
(1407.84 -164.74 2.22027e-17)
(1441.07 147.566 -2.68554e-21)
(1854.7 193.373 0)
(1931.21 140.446 9.99717e-21)
(1907.5 52.5362 -8.04121e-21)
(1952.3 140.763 -7.2116e-21)
(2008.11 291.107 0)
(2020.58 351.633 -6.88031e-21)
(2009.62 332.906 6.83966e-18)
(2007 288.903 -7.53301e-18)
(2032.52 221.466 0)
(2028.96 146.788 1.69814e-21)
(2025.47 72.6928 0)
(2021.43 -2.03077 0)
(2025.68 -75.487 1.79787e-18)
(2031.36 -152.423 -1.79132e-18)
(2039.12 -225.089 -7.21305e-21)
(2021.98 -300.9 -1.72892e-21)
(2016.21 -337.626 7.05826e-21)
(2024.74 -361.355 -7.78443e-18)
(2013.34 -322.841 6.49914e-18)
(1963.54 -154.939 -1.79576e-17)
(1905.03 -44.8626 3.11035e-17)