/*--------------------------------*- C++ -*----------------------------------*\
| =========                 |                                                 |
| \\      /  F ield         | OpenFOAM: The Open Source CFD Toolbox           |
|  \\    /   O peration     | Version:  2112                                  |
|   \\  /    A nd           | Website:  www.openfoam.com                      |
|    \\/     M anipulation  |                                                 |
\*---------------------------------------------------------------------------*/
FoamFile
{
    version     2.0;
    format      ascii;
    arch        "LSB;label=32;scalar=64";
    class       volScalarField;
    location    "0.00711";
    object      epsilon;
}
// * * * * * * * * * * * * * * * * * * * * * * * * * * * * * * * * * * * * * //

dimensions      [0 2 -3 0 0 0 0];

internalField   nonuniform List<scalar> 
13875
(
1.16004e+06
2.94613e+07
3.28253e+07
3.28281e+07
3.29092e+07
3.28424e+07
3.29073e+07
3.29251e+07
3.29158e+07
3.28802e+07
3.28946e+07
3.29139e+07
3.28817e+07
3.2845e+07
3.28618e+07
3.29107e+07
3.29486e+07
3.29128e+07
3.28931e+07
3.28607e+07
3.28992e+07
3.28309e+07
3.28019e+07
2.94863e+07
1.17829e+06
1.31399e+06
2.27468e+07
2.53572e+07
2.52294e+07
2.52872e+07
2.52355e+07
2.52454e+07
2.52435e+07
2.52374e+07
2.52352e+07
2.52472e+07
2.52528e+07
2.5218e+07
2.51947e+07
2.52011e+07
2.52502e+07
2.52462e+07
2.52362e+07
2.52251e+07
2.52292e+07
2.52696e+07
2.522e+07
2.5327e+07
2.2762e+07
1.34245e+06
1.57318e+06
1.97064e+07
2.18323e+07
2.16215e+07
2.17064e+07
2.16339e+07
2.15888e+07
2.15624e+07
2.15378e+07
2.15288e+07
2.15362e+07
2.15507e+07
2.16146e+07
2.16038e+07
2.15975e+07
2.15473e+07
2.1532e+07
2.153e+07
2.15485e+07
2.1641e+07
2.16834e+07
2.1602e+07
2.17893e+07
1.96957e+07
1.58458e+06
1.81391e+06
1.73855e+07
1.90413e+07
1.88786e+07
1.89715e+07
1.88989e+07
1.8853e+07
1.88215e+07
1.87979e+07
1.87737e+07
1.87757e+07
1.87908e+07
1.88899e+07
1.88813e+07
1.88767e+07
1.87877e+07
1.87943e+07
1.87799e+07
1.88065e+07
1.89152e+07
1.89521e+07
1.88579e+07
1.90142e+07
1.73684e+07
1.82034e+06
2.023e+06
1.54528e+07
1.67755e+07
1.66226e+07
1.67074e+07
1.66394e+07
1.65883e+07
1.65649e+07
1.65499e+07
1.6526e+07
1.65298e+07
1.65358e+07
1.66311e+07
1.66277e+07
1.66198e+07
1.65337e+07
1.65477e+07
1.65306e+07
1.65525e+07
1.66549e+07
1.66903e+07
1.6605e+07
1.67444e+07
1.54306e+07
2.03586e+06
2.20672e+06
1.37129e+07
1.49318e+07
1.47423e+07
1.48323e+07
1.47577e+07
1.46948e+07
1.46757e+07
1.46658e+07
1.46434e+07
1.46489e+07
1.46493e+07
1.47425e+07
1.47426e+07
1.47319e+07
1.46468e+07
1.46679e+07
1.46476e+07
1.46667e+07
1.47747e+07
1.48195e+07
1.47291e+07
1.49041e+07
1.38466e+07
2.22259e+06
2.42293e+06
1.22519e+07
1.34809e+07
1.32112e+07
1.32696e+07
1.31863e+07
1.31049e+07
1.30832e+07
1.30769e+07
1.30546e+07
1.30611e+07
1.30585e+07
1.31501e+07
1.31522e+07
1.31379e+07
1.30553e+07
1.30838e+07
1.30615e+07
1.30853e+07
1.32006e+07
1.32572e+07
1.32015e+07
1.34222e+07
1.19498e+07
2.42944e+06
2.66654e+06
1.06167e+07
1.23157e+07
1.19804e+07
1.1997e+07
1.18733e+07
1.17669e+07
1.1736e+07
1.17297e+07
1.17079e+07
1.17163e+07
1.17095e+07
1.18002e+07
1.18054e+07
1.17881e+07
1.17053e+07
1.17432e+07
1.17208e+07
1.17514e+07
1.18842e+07
1.19813e+07
1.19653e+07
1.22648e+07
1.05428e+07
2.69524e+06
3.49762e+06
1.02141e+07
1.14847e+07
1.10324e+07
1.09363e+07
1.07729e+07
1.06432e+07
1.05973e+07
1.05884e+07
1.0565e+07
1.05796e+07
1.05693e+07
1.06583e+07
1.06665e+07
1.06477e+07
1.05664e+07
1.06091e+07
1.05869e+07
1.0625e+07
1.078e+07
1.09227e+07
1.10216e+07
1.14751e+07
1.0338e+07
3.57517e+06
6.83838e+06
1.22225e+07
1.11977e+07
1.04317e+07
1.01632e+07
9.91745e+06
9.76513e+06
9.71162e+06
9.69561e+06
9.67301e+06
9.69106e+06
9.67863e+06
9.76204e+06
9.77293e+06
9.75446e+06
9.68425e+06
9.72044e+06
9.70909e+06
9.74576e+06
9.91506e+06
1.01431e+07
1.036e+07
1.11605e+07
1.21289e+07
6.89372e+06
1.49225e+07
1.87025e+07
1.20505e+07
1.03247e+07
9.61558e+06
9.30987e+06
9.1291e+06
9.04924e+06
9.02198e+06
9.00092e+06
9.0195e+06
9.00576e+06
9.08028e+06
9.09425e+06
9.08142e+06
9.03075e+06
9.05773e+06
9.0632e+06
9.12454e+06
9.2872e+06
9.60895e+06
1.02672e+07
1.18768e+07
1.7938e+07
1.49974e+07
2.54846e+07
6.90653e+07
1.81535e+07
1.06953e+07
9.70341e+06
9.00082e+06
8.70228e+06
8.58735e+06
8.53748e+06
8.51709e+06
8.53007e+06
8.51677e+06
8.5767e+06
8.59426e+06
8.59025e+06
8.56054e+06
8.5838e+06
8.61401e+06
8.70332e+06
9.01736e+06
9.65165e+06
1.05415e+07
1.75553e+07
6.72816e+07
2.50289e+07
2.66007e+07
7.65572e+07
8.67848e+07
2.38122e+07
1.09115e+07
9.10357e+06
8.72278e+06
8.43949e+06
8.32912e+06
8.28589e+06
8.27964e+06
8.26172e+06
8.30328e+06
8.32404e+06
8.33365e+06
8.33412e+06
8.38653e+06
8.49591e+06
8.76637e+06
9.15984e+06
1.12927e+07
2.25663e+07
8.07929e+07
7.65508e+07
2.60777e+07
2.6362e+07
5.54758e+07
7.98934e+07
1.04266e+08
5.75772e+07
1.30538e+07
9.62632e+06
8.82863e+06
8.58671e+06
8.56921e+06
8.5646e+06
8.5479e+06
8.58e+06
8.60073e+06
8.61935e+06
8.63663e+06
8.67031e+06
8.8978e+06
9.94112e+06
1.44494e+07
6.59383e+07
9.09932e+07
7.53897e+07
5.45104e+07
2.57458e+07
2.5346e+07
4.27281e+07
5.81697e+07
7.24044e+07
7.52698e+07
7.50577e+07
2.34351e+07
1.31901e+07
1.11965e+07
1.04645e+07
1.01741e+07
1.00655e+07
1.00626e+07
1.00922e+07
1.01765e+07
1.04128e+07
1.10981e+07
1.32112e+07
2.56345e+07
7.73641e+07
7.54322e+07
6.60698e+07
5.66523e+07
4.22683e+07
2.64097e+07
2.47197e+07
3.36369e+07
4.34249e+07
5.43986e+07
5.93903e+07
6.81621e+07
5.15392e+07
4.5107e+07
4.2549e+07
3.37458e+07
3.5489e+07
3.66523e+07
3.74888e+07
3.72014e+07
3.59716e+07
3.39416e+07
4.12827e+07
4.882e+07
5.20949e+07
6.90879e+07
5.84255e+07
5.05746e+07
4.2712e+07
3.34708e+07
2.58058e+07
2.00994e+07
2.53648e+07
3.24085e+07
4.21857e+07
4.99846e+07
6.28224e+07
7.23768e+07
7.31304e+07
5.89629e+07
5.00629e+07
5.28557e+07
5.56048e+07
5.72683e+07
5.66793e+07
5.38687e+07
5.35366e+07
5.90327e+07
7.2611e+07
7.29247e+07
6.28455e+07
4.79081e+07
3.92234e+07
3.10772e+07
2.46112e+07
1.99877e+07
1.48619e+07
1.91499e+07
2.66183e+07
3.76487e+07
4.61411e+07
5.38227e+07
6.54317e+07
7.10236e+07
5.11759e+07
3.78458e+07
3.55858e+07
3.59839e+07
3.67165e+07
3.64051e+07
3.61714e+07
4.08478e+07
5.12851e+07
6.70234e+07
6.54133e+07
5.4843e+07
4.55924e+07
3.62829e+07
2.56688e+07
1.86353e+07
1.45642e+07
1.21729e+07
1.6673e+07
2.4244e+07
3.89025e+07
4.89118e+07
4.60777e+07
4.98911e+07
5.61446e+07
4.53738e+07
3.37189e+07
2.88631e+07
2.75756e+07
2.7466e+07
2.7952e+07
2.95841e+07
3.48366e+07
4.36019e+07
5.28195e+07
5.01936e+07
4.71513e+07
5.06815e+07
3.87784e+07
2.40793e+07
1.64938e+07
1.20229e+07
1.15272e+07
1.79103e+07
2.53199e+07
3.91734e+07
4.41217e+07
3.88839e+07
3.89334e+07
4.32755e+07
3.9155e+07
3.10892e+07
2.54438e+07
2.25462e+07
2.16852e+07
2.30946e+07
2.64996e+07
3.17222e+07
3.72196e+07
4.08199e+07
3.90814e+07
3.99072e+07
4.50271e+07
3.78924e+07
2.54297e+07
1.81688e+07
1.16579e+07
2.8213e+07
5.15353e+07
3.98538e+07
3.27617e+07
3.4938e+07
3.14872e+07
3.11628e+07
3.46603e+07
3.33477e+07
2.75427e+07
2.20108e+07
1.85146e+07
1.7438e+07
1.93188e+07
2.3331e+07
2.80969e+07
3.16657e+07
3.2853e+07
3.12802e+07
3.22627e+07
3.55833e+07
3.23918e+07
4.2749e+07
5.36641e+07
3.31532e+07
8.94564e+07
2.81783e+08
5.1838e+07
2.62411e+07
2.76987e+07
2.56898e+07
2.55671e+07
2.84041e+07
2.81865e+07
2.38226e+07
1.87834e+07
1.52638e+07
1.41643e+07
1.60672e+07
1.99991e+07
2.41809e+07
2.67e+07
2.71208e+07
2.5623e+07
2.61922e+07
2.79743e+07
2.62542e+07
5.77945e+07
2.76998e+08
9.88508e+07
9.49327e+07
1.79068e+08
4.2835e+07
2.17522e+07
2.24659e+07
2.13192e+07
2.12015e+07
2.35755e+07
2.37156e+07
2.02439e+07
1.58498e+07
1.26531e+07
1.15997e+07
1.32867e+07
1.68123e+07
2.04342e+07
2.23771e+07
2.26059e+07
2.12202e+07
2.15618e+07
2.25065e+07
2.17736e+07
4.51585e+07
1.7638e+08
9.43134e+07
8.09103e+07
1.70123e+08
3.36383e+07
1.85628e+07
1.85025e+07
1.77508e+07
1.76718e+07
1.96239e+07
1.99129e+07
1.7013e+07
1.3218e+07
1.04759e+07
9.60378e+06
1.10607e+07
1.41191e+07
1.72415e+07
1.87997e+07
1.88573e+07
1.77633e+07
1.79848e+07
1.8588e+07
1.8767e+07
3.56865e+07
1.78205e+08
8.15487e+07
7.30544e+07
1.59457e+08
2.81365e+07
1.62297e+07
1.56016e+07
1.49484e+07
1.49445e+07
1.64902e+07
1.67577e+07
1.43341e+07
1.11184e+07
8.78171e+06
8.04832e+06
9.28088e+06
1.19156e+07
1.45746e+07
1.5854e+07
1.58476e+07
1.50099e+07
1.51842e+07
1.57585e+07
1.64938e+07
3.03649e+07
1.73459e+08
7.40281e+07
6.66288e+07
1.57093e+08
2.4475e+07
1.4219e+07
1.33711e+07
1.27208e+07
1.28091e+07
1.39802e+07
1.41622e+07
1.2129e+07
9.42625e+06
7.44078e+06
6.81643e+06
7.84761e+06
1.00717e+07
1.23149e+07
1.3394e+07
1.33924e+07
1.27828e+07
1.28756e+07
1.35268e+07
1.44256e+07
2.60509e+07
1.6647e+08
6.80696e+07
6.23432e+07
1.42249e+08
2.10255e+07
1.24893e+07
1.1608e+07
1.09357e+07
1.10731e+07
1.19194e+07
1.19526e+07
1.02385e+07
8.00661e+06
6.3575e+06
5.83636e+06
6.7209e+06
8.61088e+06
1.04904e+07
1.14221e+07
1.14545e+07
1.10119e+07
1.10933e+07
1.1828e+07
1.27596e+07
2.25672e+07
1.53438e+08
6.41095e+07
5.90472e+07
1.32738e+08
1.87827e+07
1.11152e+07
1.02441e+07
9.55399e+06
9.67347e+06
1.02699e+07
1.01947e+07
8.73713e+06
6.87995e+06
5.49146e+06
5.04395e+06
5.79385e+06
7.38048e+06
8.9566e+06
9.77692e+06
9.86214e+06
9.57462e+06
9.66486e+06
1.04274e+07
1.1344e+07
2.01163e+07
1.45132e+08
6.01427e+07
5.50907e+07
1.26885e+08
1.72152e+07
9.97658e+06
9.12954e+06
8.47763e+06
8.52467e+06
8.91126e+06
8.74699e+06
7.50851e+06
5.96469e+06
4.78881e+06
4.39869e+06
5.0319e+06
6.35757e+06
7.6693e+06
8.40512e+06
8.54726e+06
8.38785e+06
8.51641e+06
9.25231e+06
1.01326e+07
1.80082e+07
1.30525e+08
5.67936e+07
5.10833e+07
1.15236e+08
1.58823e+07
9.0386e+06
8.14696e+06
7.58768e+06
7.57793e+06
7.76549e+06
7.51449e+06
6.45013e+06
5.17336e+06
4.19654e+06
3.86678e+06
4.42082e+06
5.55235e+06
6.65654e+06
7.30694e+06
7.48505e+06
7.43539e+06
7.60137e+06
8.26505e+06
9.16598e+06
1.66304e+07
1.20684e+08
5.35804e+07
4.7531e+07
1.01403e+08
1.47538e+07
8.29113e+06
7.35027e+06
6.83733e+06
6.79099e+06
6.83341e+06
6.52903e+06
5.61336e+06
4.54486e+06
3.71494e+06
3.42683e+06
3.90179e+06
4.85767e+06
5.78359e+06
6.37321e+06
6.59378e+06
6.64429e+06
6.82074e+06
7.41379e+06
8.37501e+06
1.5278e+07
1.06856e+08
4.97287e+07
4.44233e+07
9.19689e+07
1.38902e+07
7.73091e+06
6.65542e+06
6.18221e+06
6.12132e+06
6.06538e+06
5.73102e+06
4.93144e+06
4.0237e+06
3.31213e+06
3.05875e+06
3.46695e+06
4.28311e+06
5.07437e+06
5.60732e+06
5.85437e+06
5.97351e+06
6.14335e+06
6.68124e+06
7.76873e+06
1.41781e+07
9.54336e+07
4.63371e+07
4.15208e+07
7.97741e+07
1.29972e+07
7.29385e+06
6.07358e+06
5.62242e+06
5.52761e+06
5.40099e+06
5.03606e+06
4.33838e+06
3.57334e+06
2.96798e+06
2.74978e+06
3.11065e+06
3.81772e+06
4.49216e+06
4.97688e+06
5.24205e+06
5.39421e+06
5.57347e+06
6.08017e+06
7.29904e+06
1.34346e+07
8.61298e+07
4.34994e+07
3.92312e+07
7.02748e+07
1.21152e+07
6.95903e+06
5.61892e+06
5.14723e+06
5.00273e+06
4.84671e+06
4.47611e+06
3.86185e+06
3.20342e+06
2.67895e+06
2.48609e+06
2.79967e+06
3.41214e+06
3.99653e+06
4.4351e+06
4.71344e+06
4.87894e+06
5.08156e+06
5.59083e+06
6.92908e+06
1.26946e+07
7.4628e+07
4.09083e+07
3.71533e+07
6.32694e+07
1.12134e+07
6.69143e+06
5.30014e+06
4.72873e+06
4.5532e+06
4.37021e+06
4.00357e+06
3.4584e+06
2.89076e+06
2.43267e+06
2.26213e+06
2.53683e+06
3.06918e+06
3.57645e+06
3.97962e+06
4.25594e+06
4.43203e+06
4.66321e+06
5.23666e+06
6.66814e+06
1.17727e+07
6.54579e+07
3.86771e+07
3.49237e+07
5.64105e+07
1.03573e+07
6.45705e+06
5.06368e+06
4.376e+06
4.15305e+06
3.94238e+06
3.59548e+06
3.11022e+06
2.61427e+06
2.21685e+06
2.06757e+06
2.31322e+06
2.78566e+06
3.23219e+06
3.5975e+06
3.85803e+06
4.05065e+06
4.30782e+06
4.9836e+06
6.45703e+06
1.09085e+07
5.94366e+07
3.65542e+07
3.31579e+07
5.13174e+07
9.61346e+06
6.38717e+06
4.90427e+06
4.09147e+06
3.81711e+06
3.58111e+06
3.24759e+06
2.81859e+06
2.38447e+06
2.03345e+06
1.89991e+06
2.1162e+06
2.53202e+06
2.9261e+06
3.25743e+06
3.50902e+06
3.71935e+06
4.0085e+06
4.80336e+06
6.34846e+06
1.00555e+07
5.35971e+07
3.43924e+07
3.14972e+07
4.77928e+07
8.93759e+06
6.23534e+06
4.81024e+06
3.88312e+06
3.52257e+06
3.26709e+06
2.95139e+06
2.57043e+06
2.18553e+06
1.87296e+06
1.75283e+06
1.94461e+06
2.31493e+06
2.66514e+06
2.96309e+06
3.20725e+06
3.42942e+06
3.78957e+06
4.69924e+06
6.25777e+06
9.28552e+06
4.96293e+07
3.26067e+07
2.97253e+07
4.36283e+07
8.20347e+06
5.91244e+06
4.78254e+06
3.73305e+06
3.27801e+06
2.99379e+06
2.68761e+06
2.34678e+06
2.00762e+06
1.7312e+06
1.62468e+06
1.79846e+06
2.12984e+06
2.44112e+06
2.7113e+06
2.95052e+06
3.18871e+06
3.62719e+06
4.6823e+06
6.0505e+06
8.57519e+06
4.62664e+07
3.10209e+07
2.83182e+07
4.06398e+07
7.53847e+06
5.58555e+06
4.84758e+06
3.63753e+06
3.08581e+06
2.76505e+06
2.46824e+06
2.1594e+06
1.85472e+06
1.60645e+06
1.51064e+06
1.66552e+06
1.96287e+06
2.24228e+06
2.48955e+06
2.7291e+06
2.9979e+06
3.52297e+06
4.68503e+06
5.69477e+06
7.83706e+06
4.25049e+07
2.93003e+07
2.71764e+07
3.82393e+07
7.06081e+06
5.24795e+06
4.89688e+06
3.60905e+06
2.94124e+06
2.57989e+06
2.27999e+06
1.99518e+06
1.7204e+06
1.49631e+06
1.40999e+06
1.54908e+06
1.8152e+06
2.06829e+06
2.29928e+06
2.54738e+06
2.85951e+06
3.46741e+06
4.85762e+06
5.35841e+06
7.20604e+06
3.96061e+07
2.78614e+07
2.60478e+07
3.58984e+07
6.55316e+06
4.86045e+06
4.73392e+06
3.62103e+06
2.83022e+06
2.43873e+06
2.1211e+06
1.84883e+06
1.59828e+06
1.39661e+06
1.31932e+06
1.44615e+06
1.68921e+06
1.92085e+06
2.14328e+06
2.40844e+06
2.75178e+06
3.48426e+06
4.86008e+06
5.02832e+06
7.04167e+06
3.72146e+07
2.67363e+07
2.51218e+07
3.3924e+07
6.15811e+06
4.49956e+06
4.47661e+06
3.7737e+06
2.76541e+06
2.32943e+06
1.99581e+06
1.72611e+06
1.49339e+06
1.30907e+06
1.23841e+06
1.35265e+06
1.57322e+06
1.78912e+06
2.01252e+06
2.30052e+06
2.6772e+06
3.5656e+06
4.62377e+06
4.6441e+06
6.59285e+06
3.50514e+07
2.5667e+07
2.43522e+07
3.1983e+07
6.2714e+06
4.19491e+06
4.17937e+06
3.85822e+06
2.77509e+06
2.24374e+06
1.90288e+06
1.62562e+06
1.4016e+06
1.23036e+06
1.16517e+06
1.269e+06
1.47228e+06
1.67865e+06
1.91143e+06
2.21848e+06
2.67695e+06
3.80626e+06
4.32439e+06
4.29744e+06
6.39871e+06
3.29058e+07
2.48091e+07
2.35522e+07
3.03551e+07
5.90537e+06
3.90197e+06
3.86064e+06
3.74348e+06
2.86473e+06
2.18794e+06
1.82263e+06
1.54463e+06
1.32253e+06
1.16053e+06
1.10019e+06
1.19681e+06
1.38821e+06
1.59209e+06
1.83105e+06
2.16586e+06
2.81391e+06
3.86274e+06
4.00355e+06
4.04221e+06
6.53216e+06
3.0921e+07
2.41215e+07
2.28357e+07
2.86577e+07
5.98253e+06
3.68406e+06
3.55729e+06
3.52053e+06
3.10154e+06
2.20613e+06
1.76594e+06
1.48516e+06
1.26276e+06
1.1026e+06
1.04384e+06
1.13489e+06
1.3216e+06
1.5252e+06
1.76721e+06
2.17133e+06
3.07151e+06
3.63898e+06
3.69285e+06
3.79028e+06
6.30983e+06
2.91635e+07
2.34411e+07
2.21465e+07
2.71274e+07
6.13009e+06
3.53117e+06
3.30518e+06
3.28811e+06
3.15507e+06
2.37047e+06
1.73589e+06
1.43167e+06
1.2165e+06
1.05877e+06
995965
1.08765e+06
1.26971e+06
1.46865e+06
1.72487e+06
2.32988e+06
3.16817e+06
3.39203e+06
3.42371e+06
3.59123e+06
6.16988e+06
2.76228e+07
2.27489e+07
2.11417e+07
2.55368e+07
5.9934e+06
3.37728e+06
3.09248e+06
3.06237e+06
2.97881e+06
2.62703e+06
1.78775e+06
1.38862e+06
1.17556e+06
1.02359e+06
959163
1.05112e+06
1.22619e+06
1.42399e+06
1.77042e+06
2.61688e+06
2.99828e+06
3.14115e+06
3.19703e+06
3.46408e+06
6.26935e+06
2.5931e+07
2.17214e+07
1.99243e+07
2.37575e+07
5.92581e+06
3.26972e+06
2.91425e+06
2.84747e+06
2.79943e+06
2.70778e+06
1.99547e+06
1.38235e+06
1.14235e+06
993884
931321
1.01961e+06
1.18786e+06
1.4028e+06
1.93544e+06
2.74531e+06
2.81989e+06
2.90685e+06
2.99888e+06
3.33541e+06
6.07336e+06
2.41394e+07
2.04424e+07
1.73148e+07
2.11271e+07
5.76984e+06
3.17252e+06
2.76054e+06
2.66286e+06
2.61513e+06
2.56205e+06
2.23417e+06
1.4734e+06
1.12714e+06
967694
906319
991495
1.16501e+06
1.46178e+06
2.22295e+06
2.61144e+06
2.63607e+06
2.70613e+06
2.82642e+06
3.21783e+06
5.80039e+06
2.14655e+07
1.77388e+07
704262
1.14871e+06
1.60932e+06
1.54774e+06
1.22277e+06
972397
814658
738559
744644
776600
784033
726367
523191
356130
245558
182961
150917
136515
131067
130412
132700
137478
145500
160249
197034
306947
425878
447225
416148
393115
933359
1.36615e+06
1.69211e+06
1.49977e+06
1.14417e+06
891043
738198
669385
676755
702632
720157
691819
519695
358367
247017
182747
149997
134879
128839
127791
129845
134711
144603
167502
244736
399677
440638
438143
417880
412485
1.06391e+06
1.57796e+06
1.77628e+06
1.43983e+06
1.06524e+06
821083
681479
624482
634606
659373
674095
633007
476604
333064
234440
176945
146745
132297
126304
125167
127275
133075
146336
187995
318680
400257
417316
413664
402504
415872
1.27173e+06
1.78614e+06
1.81945e+06
1.36716e+06
980425
745314
623359
581335
601337
624209
634492
593141
457134
320477
227050
172641
143810
129825
123991
123050
125610
133252
155152
234331
364893
385599
399731
393801
385363
414692
1.5316e+06
1.96861e+06
1.8152e+06
1.28299e+06
897758
682870
577527
547590
576842
597230
600598
555560
428722
299495
214982
166437
140269
127285
121953
121513
125299
136960
180162
307711
365907
369641
379551
371131
366365
410973
1.83645e+06
2.11394e+06
1.7778e+06
1.19835e+06
816279
626234
545516
526496
558308
579857
576342
522922
399377
279436
203347
159948
136622
125065
120618
121063
127308
149473
232137
338998
353293
352833
357548
350076
348769
407442
2.11086e+06
2.2421e+06
1.73498e+06
1.11266e+06
741875
583920
523023
516504
546396
571232
562355
494587
368169
256958
190398
153101
133139
123413
120223
122559
134129
181320
302328
337793
337693
335562
338414
333055
333857
403695
2.40038e+06
2.3497e+06
1.68257e+06
1.02997e+06
689657
558347
509376
504146
537435
566463
551365
462285
332392
233260
177545
147092
130585
122901
121468
127283
152768
245239
321697
325439
323100
320169
322053
320260
320428
399614
2.68269e+06
2.42998e+06
1.62476e+06
963042
659135
544184
494995
488639
524758
554366
525474
422734
291616
210822
166830
142533
129596
124206
125793
139895
196636
296402
316765
311993
310735
306007
307860
308380
306780
392239
2.98701e+06
2.48664e+06
1.57386e+06
932936
647536
529889
472960
467043
501251
517006
473322
368072
251751
192379
159331
140573
131056
128709
136752
173403
268195
304288
304736
300375
299488
294156
296098
295969
291066
381485
3.28881e+06
2.54428e+06
1.55712e+06
925189
643380
516335
453735
441809
463242
456705
402324
310084
223777
180926
156761
142716
136931
140706
166368
242328
291175
295718
292845
290095
289420
283363
284696
281777
273780
369736
3.56998e+06
2.62518e+06
1.56812e+06
937104
651281
514156
444396
418904
418638
394117
336932
269616
211533
178551
161275
152174
153127
173068
233021
280780
289833
285536
282494
280758
279350
272424
272728
266667
257582
358933
3.8314e+06
2.72898e+06
1.60635e+06
967284
675025
526511
444482
403841
382883
350703
301230
257445
216719
192766
181241
181076
196504
244495
278806
286976
283766
276529
273361
271635
268609
261348
259493
252675
243600
349082
4.08451e+06
2.86271e+06
1.67406e+06
1.01994e+06
718141
562145
470430
414704
383000
349836
315671
288636
262923
250389
244902
256550
278390
293080
293547
286821
278408
269910
265222
262441
257637
250801
247848
240402
231514
340353
4.34115e+06
3.02889e+06
1.77673e+06
1.09932e+06
787871
630135
539640
486952
461452
441471
426966
417035
414338
401744
376768
351745
336704
321914
303161
287679
273157
264073
258447
253189
247418
241176
237911
229535
220819
332059
4.62175e+06
3.23711e+06
1.92528e+06
1.21346e+06
895901
741183
674409
659724
666063
677354
690473
700504
670790
613759
534565
459731
398913
351886
315277
288822
271598
259386
251990
245077
238592
232625
229547
220332
210926
323936
4.9444e+06
3.5107e+06
2.13035e+06
1.37665e+06
1.05403e+06
929437
937403
988636
1.02979e+06
1.07378e+06
1.10873e+06
1.10701e+06
1.04648e+06
927142
762451
605431
479116
389688
328371
292609
271308
256417
246340
237487
230774
225381
222522
211978
201871
316437
5.30919e+06
3.85845e+06
2.40883e+06
1.6134e+06
1.29538e+06
1.26352e+06
1.38927e+06
1.46476e+06
1.55398e+06
1.65082e+06
1.71312e+06
1.70511e+06
1.58682e+06
1.36705e+06
1.07697e+06
800421
581947
433394
347728
300856
272707
254630
241575
230667
224070
219566
216192
204155
194086
309178
5.7071e+06
4.29687e+06
2.78681e+06
1.94942e+06
1.68557e+06
1.78315e+06
1.94437e+06
2.08501e+06
2.26e+06
2.43413e+06
2.53145e+06
2.49729e+06
2.28284e+06
1.91748e+06
1.46992e+06
1.04224e+06
706031
492262
374579
311683
275335
252965
236989
224726
218744
215200
209935
196762
187222
301159
6.20143e+06
4.84771e+06
3.27127e+06
2.42647e+06
2.27085e+06
2.38707e+06
2.58377e+06
2.82547e+06
3.11365e+06
3.37135e+06
3.49078e+06
3.39424e+06
3.05055e+06
2.51655e+06
1.90455e+06
1.31379e+06
854457
565127
406086
324263
278895
251317
232488
219763
214537
211401
203435
189299
180823
292670
7.011e+06
5.36709e+06
3.87286e+06
3.08502e+06
2.96758e+06
3.06867e+06
3.29337e+06
3.63542e+06
4.02625e+06
4.33231e+06
4.42425e+06
4.21899e+06
3.73612e+06
3.06642e+06
2.32097e+06
1.59035e+06
1.01776e+06
647145
442799
339115
283196
249413
228172
215764
211658
207245
196526
181734
174107
284404
7.74783e+06
6.19718e+06
4.61574e+06
3.98412e+06
3.80446e+06
3.8584e+06
4.07191e+06
4.46754e+06
4.90499e+06
5.18908e+06
5.17551e+06
4.84622e+06
4.26689e+06
3.51409e+06
2.66976e+06
1.84988e+06
1.19058e+06
742615
486526
356687
287803
247410
224274
212435
209098
202052
189388
174265
167690
276797
8.57433e+06
6.90014e+06
5.50582e+06
5.16324e+06
4.87842e+06
4.81392e+06
4.94171e+06
5.32435e+06
5.73876e+06
5.93213e+06
5.79129e+06
5.35053e+06
4.67443e+06
3.83841e+06
2.93488e+06
2.08726e+06
1.37528e+06
854322
539581
376270
291745
245719
220895
209592
205883
195955
182358
167249
162009
269138
9.26228e+06
8.2438e+06
7.08359e+06
6.94073e+06
6.41663e+06
6.10659e+06
6.07825e+06
6.36657e+06
6.67849e+06
6.72352e+06
6.43786e+06
5.83901e+06
5.03479e+06
4.10851e+06
3.17513e+06
2.32521e+06
1.57722e+06
984878
602126
396424
295939
244770
218620
207573
201591
189389
175314
160581
156771
261853
9.37874e+06
1.31937e+07
1.14002e+07
1.03582e+07
8.8907e+06
8.0316e+06
7.66302e+06
7.78164e+06
7.91384e+06
7.74667e+06
7.24705e+06
6.4389e+06
5.46421e+06
4.42164e+06
3.43947e+06
2.56972e+06
1.78897e+06
1.13202e+06
673765
420121
302092
245363
217975
205623
196321
182425
168267
154243
151987
254985
396332
424547
455410
424441
292885
191653
158461
144747
137190
132669
130593
131582
137623
153339
187876
254724
372203
546851
749882
798685
788482
755149
748678
829687
995070
1.25826e+06
1.59872e+06
1.66338e+06
1.19214e+06
732678
414210
425774
444584
445088
396374
234625
164483
143537
134322
129801
128030
129457
136137
152614
187789
256355
375033
540965
711071
732413
713900
685627
678233
751204
911324
1.17666e+06
1.5511e+06
1.75075e+06
1.4151e+06
972581
416886
408559
419751
421039
402016
305268
182436
144807
132537
127144
125400
126966
133635
149359
181745
243502
348262
496626
652805
685983
669477
642294
632314
692152
838279
1.09255e+06
1.48654e+06
1.83819e+06
1.63402e+06
1.10855e+06
415306
390343
398376
402484
386948
361511
225558
152495
132459
125380
123205
124630
131194
146429
177348
236013
335127
476741
611710
646181
633768
608687
588887
632948
759694
1.00577e+06
1.40837e+06
1.87975e+06
1.85016e+06
1.32119e+06
410625
369565
374126
381911
369697
365168
297980
175272
135653
124866
121545
122533
128604
142774
170900
223476
313057
448035
573088
612379
607173
584469
555308
587036
695631
920180
1.32372e+06
1.87242e+06
2.03396e+06
1.58877e+06
406416
350316
351700
359412
352344
352356
335083
224186
146960
126532
120898
120994
126217
138995
164084
211062
291534
418449
541269
587577
590435
566768
534619
554506
637758
835950
1.23813e+06
1.83843e+06
2.18079e+06
1.90009e+06
402615
334960
334252
338606
334941
336442
335804
296279
176524
132624
122066
120396
124355
135303
156775
197119
268053
386276
514549
573012
582972
556739
525214
531425
595212
760569
1.15087e+06
1.79795e+06
2.31428e+06
2.18096e+06
398204
320969
321141
321488
319519
321450
323880
318538
237592
149827
126338
121374
123568
132413
150268
183296
243636
348949
484000
561994
580717
548746
513432
518501
570157
707105
1.06662e+06
1.74694e+06
2.42673e+06
2.48114e+06
391111
307250
308727
308643
305970
309082
310228
314851
293356
191744
138106
125379
124616
131031
145060
171384
219866
306797
444112
538481
569656
536131
497303
504261
557075
675801
997100
1.69052e+06
2.51288e+06
2.76958e+06
380610
291674
296187
297657
294509
298193
298480
303344
303001
264117
170099
135823
128882
132178
142667
162692
199229
265233
385421
488878
531202
511054
474759
483187
542739
665093
966881
1.63966e+06
2.57907e+06
3.08233e+06
369057
274556
282342
286663
284084
288520
288141
291900
295336
290534
238655
164645
140727
137975
144784
159504
185596
234238
324070
417095
467681
466796
446824
463304
529744
661604
959158
1.62459e+06
2.64635e+06
3.38932e+06
357894
258400
267423
274195
273506
279017
278841
281790
285924
290238
280820
231477
173411
154884
154952
164252
182443
218162
280420
349193
402696
420261
422438
452695
528082
671084
971160
1.63518e+06
2.73531e+06
3.68092e+06
348424
244356
253404
261232
262592
268899
270025
273031
277586
284743
288432
280462
246523
201326
187469
187211
199162
223676
265775
311419
359607
388793
410729
454484
540940
696435
1.00262e+06
1.67566e+06
2.84931e+06
3.95477e+06
340566
232253
241111
249474
252144
258493
261413
264761
269281
280111
289327
297116
297450
286587
272053
263295
266307
279972
302590
328633
362296
394279
425634
483892
579680
741700
1.05556e+06
1.74607e+06
2.99199e+06
4.22269e+06
332908
221858
230604
239256
242799
248575
252842
257723
263641
275885
291382
308914
329797
349588
373312
405537
437337
455891
455941
456895
466720
483807
506979
558990
651640
815026
1.13698e+06
1.85472e+06
3.16655e+06
4.49677e+06
326018
212478
221578
230786
234499
240142
245347
251907
259557
272135
293783
323730
364831
420946
495399
583636
669696
731473
760698
753206
728706
711643
701015
708621
770545
928509
1.25652e+06
2.00921e+06
3.38348e+06
4.7958e+06
319264
203925
213513
223836
227205
232775
238643
247142
257050
272863
297337
339267
408854
514082
663369
842306
1.01821e+06
1.14402e+06
1.20314e+06
1.201e+06
1.15773e+06
1.10346e+06
1.05964e+06
1.00451e+06
978161
1.09587e+06
1.43011e+06
2.22249e+06
3.6712e+06
5.13766e+06
312149
196358
205962
217681
222138
226142
232468
243099
256042
274958
307093
360049
458613
632582
886686
1.19842e+06
1.50929e+06
1.73944e+06
1.8543e+06
1.85491e+06
1.78098e+06
1.66568e+06
1.56306e+06
1.4813e+06
1.35095e+06
1.36078e+06
1.67988e+06
2.51302e+06
4.03411e+06
5.53039e+06
304206
189473
198779
211833
218147
221076
226914
239260
255459
279089
319671
390216
527211
773674
1.15856e+06
1.63714e+06
2.11871e+06
2.50173e+06
2.71468e+06
2.73743e+06
2.62261e+06
2.42259e+06
2.2213e+06
2.06661e+06
1.90277e+06
1.79675e+06
2.04173e+06
2.90906e+06
4.49414e+06
5.95665e+06
295984
182966
191470
205527
214642
217982
222284
235372
255012
284097
334522
426277
605314
936981
1.45634e+06
2.1077e+06
2.76507e+06
3.32492e+06
3.676e+06
3.76245e+06
3.6241e+06
3.33379e+06
3.00791e+06
2.74092e+06
2.53586e+06
2.4302e+06
2.56573e+06
3.42363e+06
5.07191e+06
6.47878e+06
288166
176428
184035
198844
210574
215739
218828
231710
254311
289912
351430
467758
697839
1.11378e+06
1.75074e+06
2.5423e+06
3.33367e+06
4.03036e+06
4.52861e+06
4.73504e+06
4.63416e+06
4.2982e+06
3.86379e+06
3.48851e+06
3.24844e+06
3.15417e+06
3.29015e+06
4.07086e+06
5.62222e+06
7.34004e+06
280616
170200
176734
191838
204972
213480
216247
228603
253480
296234
370848
515996
803528
1.30106e+06
2.01469e+06
2.88766e+06
3.7762e+06
4.56054e+06
5.15893e+06
5.48819e+06
5.5025e+06
5.20754e+06
4.73145e+06
4.29824e+06
4.07178e+06
4.02902e+06
4.25745e+06
4.87915e+06
6.49983e+06
8.11618e+06
272704
164303
169670
184794
198588
209887
214381
226086
252721
302190
392646
572798
922261
1.49084e+06
2.24359e+06
3.13109e+06
4.07698e+06
4.95353e+06
5.66118e+06
6.11116e+06
6.24795e+06
6.04692e+06
5.61232e+06
5.19821e+06
5.05495e+06
5.13453e+06
5.45835e+06
5.85421e+06
7.25372e+06
8.99592e+06
265024
158777
162883
177763
191898
204736
212326
224019
252452
307564
415299
639485
1.0564e+06
1.68907e+06
2.46542e+06
3.34669e+06
4.32067e+06
5.29339e+06
6.14156e+06
6.76499e+06
7.04762e+06
6.9918e+06
6.6722e+06
6.3622e+06
6.38075e+06
6.70635e+06
7.29319e+06
7.52321e+06
8.69698e+06
9.72786e+06
257523
153730
156579
170953
185122
199069
209740
222635
252958
314362
440546
716007
1.20469e+06
1.89362e+06
2.6958e+06
3.59487e+06
4.62008e+06
5.71574e+06
6.74523e+06
7.59693e+06
8.10644e+06
8.25649e+06
8.1148e+06
7.97707e+06
8.34146e+06
9.23115e+06
1.07441e+07
1.18454e+07
1.35747e+07
9.83636e+06
3.64983e+06
2.898e+06
2.29709e+06
1.86822e+06
1.5487e+06
1.30877e+06
1.12735e+06
994701
899186
834286
792741
770031
764053
775937
806191
857343
932976
1.03565e+06
1.16891e+06
1.33323e+06
1.53376e+06
1.7658e+06
2.02529e+06
2.34131e+06
2.70384e+06
3.12501e+06
3.58083e+06
4.03042e+06
4.48995e+06
4.9515e+06
5.40217e+06
5.82316e+06
6.19859e+06
6.52054e+06
6.78051e+06
6.96466e+06
7.05788e+06
7.04942e+06
6.93239e+06
6.69705e+06
6.3522e+06
5.91668e+06
5.41229e+06
4.87302e+06
4.32701e+06
3.79994e+06
3.31191e+06
2.86205e+06
2.45594e+06
2.09667e+06
1.78734e+06
1.52793e+06
1.31477e+06
1.13796e+06
988320
863357
757493
667896
592571
528565
474411
427500
387977
355061
327338
303554
282805
264934
250098
237980
228028
219728
212792
207105
202496
198700
195508
192714
190125
187655
185257
182896
180578
178366
176359
174668
173369
172450
171903
171649
171577
171634
171822
172171
172725
173499
174471
175580
176720
177764
178874
179796
180860
181931
183426
184813
186188
187715
189511
191666
194286
198115
201189
202492
204148
207387
213160
221013
223713
225006
227382
231839
237889
244141
250541
8.10214e+06
6.98524e+06
5.82099e+06
4.87705e+06
4.1231e+06
3.51928e+06
3.03581e+06
2.65763e+06
2.35783e+06
2.12883e+06
1.95766e+06
1.83467e+06
1.75248e+06
1.71781e+06
1.72775e+06
1.78549e+06
1.89789e+06
2.06311e+06
2.28987e+06
2.57404e+06
2.91904e+06
3.32308e+06
3.756e+06
4.22159e+06
4.69564e+06
5.18317e+06
5.68802e+06
6.19632e+06
6.70181e+06
7.21024e+06
7.72581e+06
8.2406e+06
8.74196e+06
9.21797e+06
9.65626e+06
1.00365e+07
1.0337e+07
1.05354e+07
1.06124e+07
1.05566e+07
1.03611e+07
1.00231e+07
9.57802e+06
9.02445e+06
8.3895e+06
7.69137e+06
6.95962e+06
6.2373e+06
5.52925e+06
4.84784e+06
4.20676e+06
3.61799e+06
3.09051e+06
2.62596e+06