/*--------------------------------*- C++ -*----------------------------------*\
| =========                 |                                                 |
| \\      /  F ield         | OpenFOAM: The Open Source CFD Toolbox           |
|  \\    /   O peration     | Version:  2112                                  |
|   \\  /    A nd           | Website:  www.openfoam.com                      |
|    \\/     M anipulation  |                                                 |
\*---------------------------------------------------------------------------*/
FoamFile
{
    version     2.0;
    format      ascii;
    arch        "LSB;label=32;scalar=64";
    class       volScalarField;
    location    "0.00924";
    object      epsilon;
}
// * * * * * * * * * * * * * * * * * * * * * * * * * * * * * * * * * * * * * //

dimensions      [0 2 -3 0 0 0 0];

internalField   nonuniform List<scalar> 
13875
(
1.16003e+06
2.94626e+07
3.28258e+07
3.28413e+07
3.29124e+07
3.28516e+07
3.29104e+07
3.29367e+07
3.28754e+07
3.2893e+07
3.29305e+07
3.29106e+07
3.28741e+07
3.28451e+07
3.28609e+07
3.29103e+07
3.29483e+07
3.29132e+07
3.28936e+07
3.28607e+07
3.28998e+07
3.28305e+07
3.28049e+07
2.94959e+07
1.17771e+06
1.31389e+06
2.27473e+07
2.53567e+07
2.5238e+07
2.52861e+07
2.52258e+07
2.52449e+07
2.52679e+07
2.52265e+07
2.5232e+07
2.52462e+07
2.52468e+07
2.52106e+07
2.51943e+07
2.52006e+07
2.52502e+07
2.52461e+07
2.52365e+07
2.52253e+07
2.52289e+07
2.52699e+07
2.52196e+07
2.53286e+07
2.2761e+07
1.34193e+06
1.57304e+06
1.97062e+07
2.18308e+07
2.1625e+07
2.1703e+07
2.16422e+07
2.15765e+07
2.15712e+07
2.1532e+07
2.15333e+07
2.15325e+07
2.15412e+07
2.16062e+07
2.16026e+07
2.15971e+07
2.15475e+07
2.15321e+07
2.15301e+07
2.15488e+07
2.16407e+07
2.16835e+07
2.16017e+07
2.17904e+07
1.96893e+07
1.58447e+06
1.81374e+06
1.73848e+07
1.90388e+07
1.88769e+07
1.89692e+07
1.89128e+07
1.88362e+07
1.88154e+07
1.87818e+07
1.87855e+07
1.87898e+07
1.87828e+07
1.88825e+07
1.88803e+07
1.88764e+07
1.87878e+07
1.87943e+07
1.87799e+07
1.88067e+07
1.89149e+07
1.89522e+07
1.88579e+07
1.90149e+07
1.73613e+07
1.82058e+06
2.02282e+06
1.54521e+07
1.67728e+07
1.6618e+07
1.67049e+07
1.66524e+07
1.6577e+07
1.65555e+07
1.65346e+07
1.65411e+07
1.65442e+07
1.65298e+07
1.66239e+07
1.66268e+07
1.66194e+07
1.65339e+07
1.65477e+07
1.65305e+07
1.65527e+07
1.66546e+07
1.66903e+07
1.66051e+07
1.67445e+07
1.54263e+07
2.03673e+06
2.2065e+06
1.37122e+07
1.49289e+07
1.47365e+07
1.48333e+07
1.47706e+07
1.46857e+07
1.46649e+07
1.46536e+07
1.46619e+07
1.46628e+07
1.46437e+07
1.47345e+07
1.47416e+07
1.47316e+07
1.46468e+07
1.46679e+07
1.46473e+07
1.46669e+07
1.47748e+07
1.48194e+07
1.47293e+07
1.49037e+07
1.38469e+07
2.22353e+06
2.42258e+06
1.22513e+07
1.34789e+07
1.32065e+07
1.32716e+07
1.31965e+07
1.30978e+07
1.30725e+07
1.30678e+07
1.30771e+07
1.30755e+07
1.30525e+07
1.31412e+07
1.31508e+07
1.31375e+07
1.30552e+07
1.30838e+07
1.3061e+07
1.30855e+07
1.32006e+07
1.3257e+07
1.32015e+07
1.34215e+07
1.19519e+07
2.43016e+06
2.66598e+06
1.06159e+07
1.23141e+07
1.19762e+07
1.20025e+07
1.18835e+07
1.17609e+07
1.17274e+07
1.17251e+07
1.17348e+07
1.17314e+07
1.1703e+07
1.17903e+07
1.18033e+07
1.17876e+07
1.17049e+07
1.17429e+07
1.17201e+07
1.17515e+07
1.18845e+07
1.19813e+07
1.19656e+07
1.22642e+07
1.05449e+07
2.69528e+06
3.49625e+06
1.02129e+07
1.14846e+07
1.10305e+07
1.09429e+07
1.07832e+07
1.06338e+07
1.05884e+07
1.0587e+07
1.05981e+07
1.05948e+07
1.05613e+07
1.06468e+07
1.06634e+07
1.06465e+07
1.05653e+07
1.06085e+07
1.05858e+07
1.06253e+07
1.07806e+07
1.09226e+07
1.10214e+07
1.14743e+07
1.03385e+07
3.57431e+06
6.83505e+06
1.22205e+07
1.11987e+07
1.043e+07
1.01689e+07
9.92377e+06
9.75476e+06
9.70724e+06
9.70076e+06
9.70827e+06
9.70379e+06
9.66781e+06
9.74843e+06
9.7683e+06
9.75196e+06
9.68192e+06
9.71903e+06
9.70748e+06
9.74553e+06
9.91569e+06
1.01435e+07
1.03601e+07
1.11612e+07
1.21301e+07
6.89312e+06
1.49134e+07
1.86833e+07
1.20507e+07
1.0325e+07
9.61755e+06
9.30947e+06
9.12001e+06
9.05073e+06
9.0361e+06
9.03503e+06
9.02792e+06
8.99194e+06
9.06406e+06
9.08634e+06
9.07685e+06
9.02722e+06
9.05481e+06
9.06036e+06
9.12387e+06
9.28552e+06
9.60915e+06
1.02678e+07
1.18776e+07
1.79382e+07
1.49988e+07
2.54711e+07
6.88111e+07
1.81454e+07
1.07018e+07
9.70342e+06
9.0015e+06
8.69694e+06
8.59278e+06
8.5566e+06
8.5434e+06
8.53128e+06
8.49982e+06
8.55756e+06
8.58048e+06
8.58184e+06
8.55514e+06
8.57885e+06
8.6088e+06
8.70216e+06
9.0178e+06
9.6554e+06
1.0554e+07
1.75751e+07
6.72445e+07
2.50328e+07
2.65871e+07
7.61624e+07
8.67722e+07
2.39509e+07
1.09163e+07
9.09119e+06
8.72132e+06
8.44961e+06
8.34521e+06
8.29795e+06
8.2705e+06
8.24037e+06
8.28103e+06
8.30256e+06
8.31801e+06
8.32363e+06
8.37838e+06
8.49019e+06
8.76152e+06
9.15269e+06
1.12973e+07
2.26108e+07
8.07965e+07
7.64905e+07
2.6083e+07
2.63535e+07
5.5238e+07
7.9768e+07
1.04581e+08
5.75768e+07
1.31366e+07
9.65064e+06
8.82423e+06
8.58735e+06
8.55909e+06
8.53681e+06
8.51241e+06
8.54527e+06
8.56317e+06
8.58539e+06
8.60978e+06
8.65225e+06
8.88549e+06
9.95004e+06
1.45044e+07
6.57297e+07
9.1027e+07
7.52666e+07
5.44812e+07
2.57581e+07
2.53321e+07
4.25756e+07
5.81037e+07
7.25462e+07
7.47338e+07
7.53438e+07
2.397e+07
1.31168e+07
1.1132e+07
1.04046e+07
1.01024e+07
9.98829e+06
9.98873e+06
1.00171e+07
1.01013e+07
1.03383e+07
1.10286e+07
1.31846e+07
2.62697e+07
7.74992e+07
7.5019e+07
6.60432e+07
5.65685e+07
4.22229e+07
2.64194e+07
2.47078e+07
3.35313e+07
4.33652e+07
5.43148e+07
5.90142e+07
6.78847e+07
5.13336e+07
4.51085e+07
4.15632e+07
3.27563e+07
3.45532e+07
3.56457e+07
3.64268e+07
3.61465e+07
3.50075e+07
3.30196e+07
4.01648e+07
4.90793e+07
5.20189e+07
6.86111e+07
5.81901e+07
5.05197e+07
4.26047e+07
3.34085e+07
2.58008e+07
2.00476e+07
2.5247e+07
3.2266e+07
4.1931e+07
4.93151e+07
6.18215e+07
7.03737e+07
7.05678e+07
5.76366e+07
4.97122e+07
5.21477e+07
5.48447e+07
5.64656e+07
5.58323e+07
5.29712e+07
5.32618e+07
5.78592e+07
7.04283e+07
7.05353e+07
6.12823e+07
4.71382e+07
3.90548e+07
3.09039e+07
2.45141e+07
1.99434e+07
1.48251e+07
1.91151e+07
2.64562e+07
3.7292e+07
4.53653e+07
5.29742e+07
6.32101e+07
6.87941e+07
5.16772e+07
3.83998e+07
3.52611e+07
3.55084e+07
3.61846e+07
3.58511e+07
3.57939e+07
4.15452e+07
5.18084e+07
6.46062e+07
6.25387e+07
5.39885e+07
4.5172e+07
3.59979e+07
2.53746e+07
1.85645e+07
1.45227e+07
1.22278e+07
1.67167e+07
2.39539e+07
3.72174e+07
4.78925e+07
4.62519e+07
4.89738e+07
5.47956e+07
4.56457e+07
3.42639e+07
2.87735e+07
2.71959e+07
2.70349e+07
2.75016e+07
2.9487e+07
3.55379e+07
4.39561e+07
5.11725e+07
4.87361e+07
4.79086e+07
5.03791e+07
3.6885e+07
2.35688e+07
1.64524e+07
1.20657e+07
1.16478e+07
1.82486e+07
2.48819e+07
3.68308e+07
4.35335e+07
3.92396e+07
3.85609e+07
4.23179e+07
3.89479e+07
3.14103e+07
2.55234e+07
2.23471e+07
2.13961e+07
2.28829e+07
2.65962e+07
3.21148e+07
3.69729e+07
3.9654e+07
3.85635e+07
4.07545e+07
4.50506e+07
3.61649e+07
2.47461e+07
1.83442e+07
1.17206e+07
3.01998e+07
5.99195e+07
4.51395e+07
3.21568e+07
3.46474e+07
3.16114e+07
3.08766e+07
3.38655e+07
3.29454e+07
2.77584e+07
2.21768e+07
1.84104e+07
1.72276e+07
1.92131e+07
2.34974e+07
2.83073e+07
3.11742e+07
3.1915e+07
3.10095e+07
3.28274e+07
3.56959e+07
3.30359e+07
5.01517e+07
6.56382e+07
3.8728e+07
9.38742e+07
2.99044e+08
6.15741e+07
2.60967e+07
2.74156e+07
2.56806e+07
2.52909e+07
2.77742e+07
2.77512e+07
2.39487e+07
1.89574e+07
1.52077e+07
1.40053e+07
1.6026e+07
2.01848e+07
2.42984e+07
2.61663e+07
2.63261e+07
2.53738e+07
2.65656e+07
2.80849e+07
2.69926e+07
6.78459e+07
2.95043e+08
1.08293e+08
1.10843e+08
2.3352e+08
5.09364e+07
2.17364e+07
2.22036e+07
2.12165e+07
2.09609e+07
2.30736e+07
2.33076e+07
2.03522e+07
1.60181e+07
1.26198e+07
1.14754e+07
1.32627e+07
1.69904e+07
2.05507e+07
2.18953e+07
2.19232e+07
2.09903e+07
2.17503e+07
2.2599e+07
2.24192e+07
5.17783e+07
2.2487e+08
1.07926e+08
9.44401e+07
2.35771e+08
3.99118e+07
1.86034e+07
1.82567e+07
1.76172e+07
1.74965e+07
1.92212e+07
1.9538e+07
1.71174e+07
1.33749e+07
1.04525e+07
9.50492e+06
1.10561e+07
1.42972e+07
1.7364e+07
1.83734e+07
1.8281e+07
1.75575e+07
1.80538e+07
1.86398e+07
1.92676e+07
4.13216e+07
2.41958e+08
9.42538e+07
8.64013e+07
2.25898e+08
3.33289e+07
1.62312e+07
1.54005e+07
1.48297e+07
1.48153e+07
1.61559e+07
1.64467e+07
1.44344e+07
1.12564e+07
8.76489e+06
7.96842e+06
9.28311e+06
1.20808e+07
1.4701e+07
1.54997e+07
1.53611e+07
1.48293e+07
1.51834e+07
1.57999e+07
1.68635e+07
3.51173e+07
2.39871e+08
8.7499e+07
7.99566e+07
2.18166e+08
2.86911e+07
1.41992e+07
1.3221e+07
1.26213e+07
1.26984e+07
1.36946e+07
1.39005e+07
1.22231e+07
9.55441e+06
7.43135e+06
6.74929e+06
7.85297e+06
1.02302e+07
1.24448e+07
1.31165e+07
1.29864e+07
1.26036e+07
1.28369e+07
1.35702e+07
1.46833e+07
3.01115e+07
2.30451e+08
8.20333e+07
7.61015e+07
1.9306e+08
2.42707e+07
1.2456e+07
1.15269e+07
1.08741e+07
1.09726e+07
1.16777e+07
1.176e+07
1.03287e+07
8.11717e+06
6.35104e+06
5.78114e+06
6.72974e+06
8.75448e+06
1.06153e+07
1.12114e+07
1.11118e+07
1.08429e+07
1.10338e+07
1.18783e+07
1.29405e+07
2.59789e+07
2.06205e+08
7.86256e+07
7.19592e+07
1.75416e+08
2.1346e+07
1.1077e+07
1.01908e+07
9.51065e+06
9.58036e+06
1.00635e+07
1.00494e+07
8.82616e+06
6.98331e+06
5.48979e+06
4.99732e+06
5.8021e+06
7.51298e+06
9.08057e+06
9.62724e+06
9.57898e+06
9.41238e+06
9.60686e+06
1.04633e+07
1.14637e+07
2.29225e+07
1.90038e+08
7.38573e+07
6.64952e+07
1.6472e+08
1.92714e+07
9.93169e+06
9.09046e+06
8.45178e+06
8.43954e+06
8.73995e+06
8.64908e+06
7.5916e+06
6.05667e+06
4.79044e+06
4.3591e+06
5.041e+06
6.47234e+06
7.78207e+06
8.30744e+06
8.31808e+06
8.23769e+06
8.45514e+06
9.26749e+06
1.0228e+07
2.01778e+07
1.65984e+08
6.99945e+07
6.16894e+07
1.46526e+08
1.75256e+07
8.98988e+06
8.12189e+06
7.56061e+06
7.49846e+06
7.62726e+06
7.45334e+06
6.53194e+06
5.25784e+06
4.19906e+06
3.8324e+06
4.42948e+06
5.65898e+06
6.76448e+06
7.2448e+06
7.29941e+06
7.30146e+06
7.53604e+06
8.25607e+06
9.24365e+06
1.84701e+07
1.52768e+08
6.55579e+07
5.72597e+07
1.26705e+08
1.61213e+07
8.25018e+06
7.3025e+06
6.8057e+06
6.7171e+06
6.72427e+06
6.49852e+06
5.68783e+06
4.62114e+06
3.71885e+06
3.39606e+06
3.91077e+06
4.95037e+06
5.87913e+06
6.34211e+06
6.44962e+06
6.52465e+06
6.75194e+06
7.3713e+06
8.43033e+06
1.67967e+07
1.3239e+08
6.07268e+07
5.33873e+07
1.13467e+08
1.50392e+07
7.68843e+06
6.60527e+06
6.14815e+06
6.05099e+06
5.97968e+06
5.71903e+06
5.00392e+06
4.09718e+06
3.31606e+06
3.03151e+06
3.47353e+06
4.36766e+06
5.16395e+06
5.59719e+06
5.74379e+06
5.86433e+06
6.07437e+06
6.62572e+06
7.80408e+06
1.54505e+07
1.16103e+08
5.64607e+07
4.97205e+07
9.70643e+07
1.39216e+07
7.23876e+06
6.02124e+06
5.58716e+06
5.45761e+06
5.33813e+06
5.04191e+06
4.40482e+06
3.63875e+06
2.97237e+06
2.7247e+06
3.11702e+06
3.89167e+06
4.57241e+06
4.98043e+06
5.15756e+06
5.29248e+06
5.50466e+06
6.02176e+06
7.3136e+06
1.44967e+07
1.03219e+08
5.25913e+07
4.66542e+07
8.43368e+07
1.29091e+07
6.8939e+06
5.55411e+06
5.1066e+06
4.93629e+06
4.80069e+06
4.4915e+06
3.92489e+06
3.26616e+06
2.6825e+06
2.46398e+06
2.80339e+06
3.47914e+06
4.06996e+06
4.44957e+06
4.65066e+06
4.78772e+06
5.0119e+06
5.52808e+06
6.9228e+06
1.3608e+07
8.9383e+07
4.8999e+07
4.38962e+07
7.50212e+07
1.19059e+07
6.5918e+06
5.22233e+06
4.68866e+06
4.4904e+06
4.33416e+06
4.0266e+06
3.51525e+06
2.94761e+06
2.43681e+06
2.24158e+06
2.53955e+06
3.1269e+06
3.64174e+06
4.00007e+06
4.20842e+06
4.35654e+06
4.60645e+06
5.16831e+06
6.63304e+06
1.25491e+07
7.80602e+07
4.60525e+07
4.10972e+07
6.63526e+07
1.09637e+07
6.32373e+06
4.97343e+06
4.3335e+06
4.09802e+06
3.91951e+06
3.62082e+06
3.16326e+06
2.66789e+06
2.21948e+06
2.04979e+06
2.31442e+06
2.83941e+06
3.29209e+06
3.61966e+06
3.82236e+06
3.98707e+06
4.25436e+06
4.9185e+06
6.3988e+06
1.16074e+07
7.04496e+07
4.3345e+07
3.8938e+07
5.99045e+07
1.01734e+07
6.18754e+06
4.79234e+06
4.0437e+06
3.76616e+06
3.5643e+06
3.27479e+06
2.86591e+06
2.43256e+06
2.0358e+06
1.88329e+06
2.11756e+06
2.57906e+06
2.97809e+06
3.28115e+06
3.48392e+06
3.6614e+06
3.9604e+06
4.73025e+06
6.25829e+06
1.06579e+07
6.27613e+07
4.06807e+07
3.68198e+07
5.56681e+07
9.45983e+06
6.03986e+06
4.66852e+06
3.83158e+06
3.47421e+06
3.25589e+06
2.97745e+06
2.61358e+06
2.23109e+06
1.87385e+06
1.73808e+06
1.94492e+06
2.35925e+06
2.71259e+06
2.98652e+06
3.19143e+06
3.37794e+06
3.74589e+06
4.61704e+06
6.11646e+06
9.78116e+06
5.73509e+07
3.84798e+07
3.45132e+07
5.07086e+07
8.67992e+06
5.75515e+06
4.6103e+06
3.67381e+06
3.22979e+06
2.98787e+06
2.71359e+06
2.38512e+06
2.04717e+06
1.73101e+06
1.61124e+06
1.79832e+06
2.16978e+06
2.48333e+06
2.73584e+06
2.94046e+06
3.14151e+06
3.58426e+06
4.57307e+06
5.8646e+06
8.99311e+06
5.35356e+07
3.63871e+07
3.26459e+07
4.72213e+07
7.98539e+06
5.44592e+06
4.61634e+06
3.56507e+06
3.03886e+06
2.76186e+06
2.49085e+06
2.1933e+06
1.89254e+06
1.60623e+06
1.49857e+06
1.66408e+06
2.00088e+06
2.28036e+06
2.51255e+06
2.72519e+06
2.95775e+06
3.47696e+06
4.55433e+06
5.5172e+06
8.27018e+06
4.95565e+07
3.423e+07
3.11352e+07
4.43387e+07
7.57891e+06
5.14857e+06
4.68415e+06
3.50628e+06
2.89527e+06
2.57728e+06
2.30069e+06
2.0248e+06
1.75406e+06
1.49557e+06
1.39902e+06
1.54682e+06
1.84928e+06
2.10255e+06
2.32338e+06
2.54689e+06
2.82425e+06
3.41375e+06
4.68955e+06
5.20623e+06
7.66488e+06
4.63235e+07
3.24045e+07
2.96976e+07
4.16033e+07
7.0459e+06
4.79542e+06
4.57899e+06
3.48995e+06
2.78081e+06
2.43622e+06
2.1387e+06
1.87573e+06
1.62996e+06
1.39526e+06
1.30941e+06
1.44347e+06
1.72211e+06
1.95217e+06
2.16604e+06
2.41034e+06
2.717e+06
3.42114e+06
4.68341e+06
4.92289e+06
7.68794e+06
4.33928e+07
3.09397e+07
2.85139e+07
3.92468e+07
6.68587e+06
4.4535e+06
4.349e+06
3.57131e+06
2.70799e+06
2.32689e+06
2.00928e+06
1.74872e+06
1.52141e+06
1.30694e+06
1.22942e+06
1.35001e+06
1.60336e+06
1.81699e+06
2.03264e+06
2.30508e+06
2.64316e+06
3.48218e+06
4.45642e+06
4.56232e+06
7.17999e+06
4.08125e+07
2.95965e+07
2.75376e+07
3.69431e+07
6.86541e+06
4.16228e+06
4.0688e+06
3.7206e+06
2.69272e+06
2.23471e+06
1.91111e+06
1.64445e+06
1.42779e+06
1.22756e+06
1.15693e+06
1.26617e+06
1.49971e+06
1.7026e+06
1.92899e+06
2.22164e+06
2.63657e+06
3.68858e+06
4.17872e+06
4.23858e+06
6.97833e+06
3.84185e+07
2.85021e+07
2.65713e+07
3.50227e+07
6.46054e+06
3.87241e+06
3.77353e+06
3.70075e+06
2.76877e+06
2.1713e+06
1.82882e+06
1.55959e+06
1.34515e+06
1.15725e+06
1.09285e+06
1.19345e+06
1.4144e+06
1.61288e+06
1.84729e+06
2.16482e+06
2.74872e+06
3.73154e+06
3.87879e+06
3.99737e+06
7.09976e+06
3.62289e+07
2.76187e+07
2.5709e+07
3.30485e+07
6.5567e+06
3.66705e+06
3.49033e+06
3.48582e+06
2.99488e+06
2.16765e+06
1.76683e+06
1.49656e+06
1.28182e+06
1.09905e+06
1.03702e+06
1.13117e+06
1.34359e+06
1.54401e+06
1.78065e+06
2.15792e+06
2.96772e+06
3.52637e+06
3.58393e+06
3.74511e+06
6.85633e+06
3.42841e+07
2.6776e+07
2.48839e+07
3.12455e+07
6.72352e+06
3.53409e+06
3.24757e+06
3.25919e+06
3.05918e+06
2.30036e+06
1.72474e+06
1.44053e+06
1.23295e+06
1.05401e+06
987898
1.08174e+06
1.28904e+06
1.48643e+06
1.73309e+06
2.28021e+06
3.06485e+06
3.2966e+06
3.3233e+06
3.55636e+06
6.71603e+06
3.2493e+07
2.59238e+07
2.37285e+07
2.94094e+07
6.55066e+06
3.38571e+06
3.03814e+06
3.02833e+06
2.89844e+06
2.52329e+06
1.74747e+06
1.39442e+06
1.19084e+06
1.01836e+06
950474
1.04411e+06
1.24433e+06
1.44026e+06
1.75647e+06
2.52638e+06
2.92336e+06
3.05752e+06
3.10371e+06
3.44839e+06
6.81766e+06
3.04817e+07
2.47249e+07
2.23278e+07
2.73295e+07
6.43813e+06
3.28875e+06
2.86103e+06
2.80548e+06
2.72726e+06
2.63306e+06
1.89098e+06
1.37283e+06
1.15691e+06
987834
922751
1.01169e+06
1.20666e+06
1.4132e+06
1.88557e+06
2.66919e+06
2.75467e+06
2.82675e+06
2.91177e+06
3.33201e+06
6.59418e+06
2.83492e+07
2.32534e+07
1.93694e+07
2.4287e+07
6.26681e+06
3.2072e+06
2.71102e+06
2.61665e+06
2.55444e+06
2.51516e+06
2.14232e+06
1.43415e+06
1.13653e+06
961463
897598
983477
1.17884e+06
1.4578e+06
2.14093e+06
2.56835e+06
2.58165e+06
2.63276e+06
2.74819e+06
3.2242e+06
6.31207e+06
2.52196e+07
2.01935e+07
8.42208e+06
4.81613e+06
3.40937e+06
2.48339e+06
1.82871e+06
1.44741e+06
1.2022e+06
1.01858e+06
844365
667590
497101
359148
258680
192240
150983
126898
112244
102970
96530.3
91842.7
87874.7
84380.7
81148.1
77693.6
73728.1
69362.9
65059.4
62090.5
65979.2
123032
9.26845e+06
5.16296e+06
3.62394e+06
2.60729e+06
1.88595e+06
1.4772e+06
1.22198e+06
1.03796e+06
871635
704790
536496
391649
283577
209406
162009
133775
116561
105569
97968.7
92565.5
88111.7
84326.6
80815.6
77061.6
72840.3
68363.3
64218.4
61598.2
66172.3
122842
9.44616e+06
5.30636e+06
3.80546e+06
2.71697e+06
1.94672e+06
1.51372e+06
1.24872e+06
1.06138e+06
898233
735644
570292
422600
307655
226138
172909
140489
120545
107616
98814.1
92548
87516.7
83410.4
79704.7
75731.8
71365
66860.9
62978.6
60855.8
66180.9
122172
9.93176e+06
5.69798e+06
4.11118e+06
2.89409e+06
2.05115e+06
1.57936e+06
1.2959e+06
1.10114e+06
938336
780511
617216
467015
341465
249261
188034
150062
126432
111029
100649
93323.9
87698.1
83272
79328.8
75105.4
70612.8
66165.8
62449.8
60482.5
66311.2
122007
1.05559e+07
6.15175e+06
4.47908e+06
3.1172e+06
2.18685e+06
1.67053e+06
1.36273e+06
1.15671e+06
990939
834875
671485
515624
382537
278470
207329
162304
133852
115328
102993
94414.9
88185.2
83497.4
79339.7
74905.7
70254.1
65732.1
62133
60423.1
66658.8
122132
1.12313e+07
6.66573e+06
4.88163e+06
3.37413e+06
2.34785e+06
1.78153e+06
1.44827e+06
1.22793e+06
1.0571e+06
898761
733224
572594
431782
315010
232595
178661
144063
121570
106626
96485.1
89495.8
84517.7
79936.4
74921.1
70093.9
65543.3
61975
60639.7
67346.6
122779
1.19886e+07
7.19052e+06
5.3118e+06
3.66551e+06
2.53809e+06
1.91548e+06
1.55415e+06
1.31567e+06
1.13685e+06
973989
804838
639537
489428
360394
265305
200162
157643
129921
111534
99342.7
91539.2
85124.7
79628.6
74407.4
69568.3
65379
62015.2
60890.4
68264.8
124007
1.2725e+07
7.74637e+06
5.78239e+06
4.00414e+06
2.75981e+06
2.07311e+06
1.67946e+06
1.42228e+06
1.23207e+06
1.06315e+06
889501
719192
558464
416627
306347
227672
175576
141025
118117
103131
93019
85625.6
79487
74020.3
69178.2
65061.3
61832.5
60988
68927
124772
1.34865e+07
8.31534e+06
6.29979e+06
4.38942e+06
3.0264e+06
2.26283e+06
1.83085e+06
1.55026e+06
1.34555e+06
1.1695e+06
991052
814177
643044
487079
359028
264204
199223
155617
126696
107668
94907
86034.1
79240.3
73638.7
68807.5
64765.3
61629.3
61022
69583.4
125513
1.41781e+07
8.92068e+06
6.86058e+06
4.83407e+06
3.34952e+06
2.49531e+06
2.01497e+06
1.70462e+06
1.48141e+06
1.29588e+06
1.11178e+06
926357
744621
575112
428579
314607
233178
176653
138816
113783
97669.3
86989.3
79378.3
73558.8
68654.6
64452.5
61424.3
61070.4
70148.8
126259
1.48884e+07
9.52938e+06
7.47139e+06
5.34677e+06
3.73863e+06
2.78123e+06
2.23969e+06
1.89164e+06
1.64395e+06
1.44498e+06
1.24892e+06
1.05482e+06
864463
681108
515865
381103
278042
204488
154927
122592
101887
88435.1
79726.3
73431.3
68299.9
64066
61170.7
61104.1
70769.6
127035
1.56198e+07
1.01699e+07
8.14221e+06
5.92779e+06
4.20035e+06
3.13127e+06
2.51451e+06
2.11727e+06
1.83681e+06
1.61427e+06
1.40019e+06
1.19888e+06
1.001e+06
806200
621909
463245
335329
240886
176263
134372
107857
91101.6
80674.6
73559
68006.8
63647.9
60894.4
61150.1
71449.7
128036
1.64966e+07
1.08571e+07
8.86522e+06
6.57733e+06
4.73667e+06
3.55344e+06
2.84944e+06
2.38952e+06
2.06378e+06
1.802e+06
1.5723e+06
1.36106e+06
1.15519e+06
948313
746290
563342
407720
288473
205317
150699
116797
95575.9
82507.3
73988.7
67793.8
63250
60598.6
61183.6
72171.5
129117
1.73317e+07
1.1597e+07
9.62734e+06
7.29551e+06
5.34809e+06
4.0528e+06
3.25227e+06
2.71523e+06
2.32534e+06
2.0197e+06
1.77124e+06
1.54485e+06
1.32766e+06
1.10711e+06
889647
683272
498989
351585
245448
174393
130066
102130
85278.7
74798.7
67740.4
62903.2
60246.7
61065.1
72853.1
130308
1.80783e+07
1.23466e+07
1.04112e+07
8.0747e+06
6.04462e+06
4.63788e+06
3.7314e+06
3.10053e+06
2.62791e+06
2.27944e+06
2.00141e+06
1.75338e+06
1.51988e+06
1.28396e+06
1.05205e+06
824757
612093
433851
299702
207358
148259
111212
89171.5
76131.1
67840
62454
59780.3
61022.5
73402.7
131616
1.87142e+07
1.30501e+07
1.12107e+07
8.9058e+06
6.84116e+06
5.32428e+06
4.3005e+06
3.55063e+06
2.98792e+06
2.58725e+06
2.26719e+06
1.9885e+06
1.73114e+06
1.47821e+06
1.23157e+06
986431
746949
536336
369540
250047
172262
123384
94622.9
77993.6
68276
62565
59810
61283
73838.8
132806
1.93228e+07
1.36816e+07
1.20253e+07
9.78252e+06
7.73083e+06
6.12519e+06
4.97304e+06
4.08939e+06
3.42394e+06
2.95186e+06
2.57476e+06
2.25327e+06
1.96125e+06
1.68606e+06
1.42095e+06
1.15671e+06
895863
656115
455177
304251
203422
139355
101977
80647.4
69296.4
62725.9
59764.6
61420.2
74516.2
133664
1.99697e+07
1.42381e+07
1.28381e+07
1.06968e+07
8.71216e+06
7.05701e+06
5.76776e+06
4.7468e+06
3.96058e+06
3.38814e+06
2.93309e+06
2.55162e+06
2.21188e+06
1.90538e+06
1.61689e+06
1.33016e+06
1.05223e+06
790623
557428
373468
244242
161022
111986
85036.7
70629.8
62943.6
59605.1
61345.9
74882.1
134467
2.03824e+07
1.46703e+07
1.35331e+07
1.16318e+07
9.78408e+06
8.13107e+06
6.71817e+06
5.54698e+06
4.61982e+06
3.91589e+06
3.35414e+06
2.88871e+06
2.48787e+06
2.14205e+06
1.82701e+06
1.52237e+06
1.22698e+06
942505
679493
460364
298204
190709
126452
91217.5
72675.3
63381.1
59433.6
61144.1
75023.3
135596
2.061e+07
1.50863e+07
1.41104e+07
1.25349e+07
1.09316e+07
9.36132e+06
7.86299e+06
6.52529e+06
5.42539e+06
4.55939e+06
3.85313e+06
3.27842e+06
2.80221e+06
2.40615e+06
2.0592e+06
1.73286e+06
1.41706e+06
1.11152e+06
820338
565881
367993
230183
146660
100081
75915.8
64290.6
59536.5
61126.5
75388.1
137038
2.09454e+07
1.52617e+07
1.44805e+07
1.33772e+07
1.21541e+07
1.07831e+07
9.23679e+06
7.71504e+06
6.41122e+06
5.34695e+06
4.46755e+06
3.74919e+06
3.17405e+06
2.71124e+06
2.31915e+06
1.96097e+06
1.62185e+06
1.29315e+06
976396
689617
454588
281805
173907
112537
80750.1
65869.1
59977.5
61358.7
75786.6
138063
2.10269e+07
1.54376e+07
1.46362e+07
1.41479e+07
1.34973e+07
1.24313e+07
1.08909e+07
9.17338e+06
7.63366e+06
6.32794e+06
5.22755e+06
4.33414e+06
3.62782e+06
3.07419e+06
2.61562e+06
2.21038e+06
1.84035e+06
1.4858e+06
1.14533e+06
830791
559790
349267
210312
129426
87398.2
68159.2
60659.7
61598.7
76126.6
139723
2.12784e+07
1.53184e+07
1.45916e+07
1.4808e+07
1.49903e+07
1.43737e+07
1.28918e+07
1.09724e+07
9.15295e+06
7.55176e+06
6.17713e+06
5.06479e+06
4.19064e+06
3.50962e+06
2.95642e+06
2.48492e+06
2.07411e+06
1.68937e+06
1.32541e+06
986746
681886
431754
256998
151491
96330.6
71012.7
61438.1
61651.3
76437.4
140927
2.08041e+07
1.56515e+07
1.48601e+07
1.57426e+07
1.68308e+07
1.67471e+07
1.53429e+07
1.32105e+07
1.10546e+07
9.08135e+06
7.37356e+06
5.97954e+06
4.88034e+06
4.02775e+06
3.35028e+06
2.79285e+06
2.32793e+06
1.90825e+06
1.5175e+06
1.15219e+06
815673
528211
315100
179751
107731
74455.7
62037.6
61345.1
76085.2
142024
1.92451e+07
1.98545e+07
1.7412e+07
1.78355e+07
1.9391e+07
1.97492e+07
1.83787e+07
1.59991e+07
1.34406e+07
1.10044e+07
8.86586e+06
7.10493e+06
5.70654e+06
4.64885e+06
3.81675e+06
3.15224e+06
2.61645e+06
2.14948e+06
1.72544e+06
1.32829e+06
962278
640395
387064
216849
123185
79429.6
63132.9
61299.8
75554.3
143156
121701
65633.6
61714.8
64553
68618.4
72933.2
76928.3
80436
83596
86997.8
90840.8
95336.7
101798
111500
126829
152207
195068
265151
369798
514632
690092
868256
1.04059e+06
1.22591e+06
1.48168e+06
1.88729e+06
2.57942e+06
3.5518e+06
4.99806e+06
8.70728e+06
121521
65749.6
61196
63750
67727
72139.9
76319.8
80076.9
83493.4
87177.8
91483.6
96763.6
104302
115640
133379
162647
211391
288022
400395
548642
718681
886965
1.05264e+06
1.23946e+06
1.50609e+06
1.94019e+06
2.70204e+06
3.76763e+06
5.34475e+06
9.57246e+06
120907
65666.9
60428.8
62610.8
66506.1
70999.5
75220.3
79038.8
82731.6
86800.2
91541.9
97647.6
106292
119298
139425
172623
226734
309345
428018
577084
743278
907691
1.07077e+06
1.262e+06
1.53888e+06
1.99786e+06
2.81092e+06
3.95271e+06
5.48887e+06
9.75287e+06
120699
65843.5
60154.5
62107.2
65897.7
70465.1
74843.3
78856.4
82850.3
87279.4
92560.2
99616.9
109839
125063
148665
186770
247900
340244
467445
618961
782237
941043
1.1043e+06
1.30426e+06
1.60035e+06
2.09897e+06
2.9875e+06
4.2624e+06
5.88706e+06
1.02444e+07
120931
66254.9
60156.6
61911.4
65591.2
70195.6
74755.8
78957.3
83213.3
88072.3
94050.7
102229
114348
132448
160324
204596
274263
377167
511692
667588
830433
987068
1.15386e+06
1.36607e+06
1.68854e+06
2.23485e+06
3.21367e+06
4.63507e+06
6.34846e+06
1.08738e+07
121726
67094.4
60580.2
62218.3
65612.4
70109
74877.4
79358.5
83918
89326.6
96276.2
105966
120430
142143
175456
227402
307331
421484
563187
723312
887455
1.04653e+06
1.21943e+06
1.4451e+06
1.79526e+06
2.39471e+06
3.47455e+06
5.04266e+06
6.86718e+06
1.1557e+07
123283
68184.9
60886.8
62156.8
65692.4
69954.1
74850.2
79747.5
84777.5
90846.3
99015.2
110777
128324
154808
195250
257249
349268
474659
624131
787601
956343
1.1199e+06
1.30106e+06
1.54312e+06
1.92617e+06
2.58255e+06
3.76616e+06
5.47748e+06
7.39458e+06
1.23127e+07
124266
68957.9
61129
62088.1
65583.5
70021.9
74854.1
80132.7
85762.9
92797.6
102626
117172
138941
171778
221562
296337
402861
540637
698356
865691
1.0393e+06
1.20907e+06
1.40218e+06
1.66622e+06
2.08105e+06
2.80348e+06
4.10764e+06
5.95678e+06
7.95419e+06
1.305e+07
124936
69622.8
61251.8
61954.6
65371.5
69838.9
74817.2
80500.8
87201.6
95317.9
107365
125621
153317
194827
256981
347587
471166
622709
788659
961264
1.13963e+06
1.31683e+06
1.52429e+06
1.81445e+06
2.26691e+06
3.06818e+06
4.49454e+06
6.47822e+06
8.52442e+06
1.38091e+07
125772
70206.7
61340
61789
65081.1
69531.2
74598.2
80586.6
88339.2
98792
113823
137170
172842
226793
305693
414258
555857
720318
896780
1.07708e+06
1.26086e+06
1.44729e+06
1.67342e+06
1.99518e+06
2.49638e+06
3.39078e+06
4.94346e+06
7.04583e+06
9.13548e+06
1.44951e+07
126577
70784.1
61392.8
61673.7
64721.4
69130.4
74390.4
80867
89684.2
102798
122443
152845
199489
268821
367430
497428
657310
836789
1.023e+06
1.21332e+06
1.40586e+06
1.60483e+06
1.85556e+06
2.21622e+06
2.77963e+06
3.78057e+06
5.46272e+06
7.66617e+06
9.75397e+06
1.52109e+07
127576
71397
61437.7
61398.3
64285
68642.9
74179.8
81462.5
91889.6
108291
133681
173308
234117
323011
445061
599009
777685
968878
1.16398e+06
1.36479e+06
1.57366e+06
1.79433e+06
2.07591e+06
2.48657e+06
3.12665e+06
4.24327e+06
6.04848e+06
8.34565e+06
1.04034e+07
1.59561e+07
128651
72064.6
61503.3
61108.8
63878.1
68348.4
74352.4
82651.8
95465.1
116366
149352
200752
279773
392729
541172
718874
916144
1.11941e+06
1.32295e+06
1.53281e+06
1.76125e+06
2.01768e+06
2.34321e+06
2.81815e+06
3.54854e+06
4.78369e+06
6.70283e+06
9.07549e+06
1.11013e+07
1.68507e+07
129773
72727.1
61594.4
60853.7
63571
68415.6
75319.9
85341.8
101733
128556
171787
238850
340275
480914
657465
858436
1.0728e+06
1.28913e+06
1.50236e+06
1.72674e+06
1.97474e+06
2.27849e+06
2.6632e+06
3.21886e+06
4.04822e+06
5.39955e+06
7.42443e+06
9.83914e+06
1.1848e+07
1.76962e+07
130949
73444.3
61707.5
60706.1
63349.2
68672.7
76648.8
89110.1
110458
145767
203168
291114
419954
591410
795828
1.01902e+06
1.24838e+06
1.48025e+06
1.70227e+06
1.95e+06
2.22866e+06
2.57963e+06
3.04764e+06
3.69606e+06
4.63646e+06
6.10249e+06
8.20545e+06
1.06219e+07
1.2605e+07
1.84544e+07
132093
74119.3
61835.9
60651.1
63352.4
69236.4
78719.8
94487.4
122114
168995
245055
359878
521516
726381
958250
1.20126e+06
1.44537e+06
1.69373e+06
1.94137e+06
2.21074e+06
2.52612e+06
2.93458e+06
3.49952e+06
4.26094e+06
5.32569e+06
6.91188e+06
9.05069e+06
1.14239e+07
1.33099e+07
1.9107e+07
132838
74479.4
61729.4
60438.2
63558.1
70101.2
81558
101809
137762
199054
298288
445150
642679
880006
1.1366e+06
1.39746e+06
1.65977e+06
1.93025e+06
2.21293e+06
2.52011e+06
2.8875e+06
3.35607e+06
4.02988e+06
4.92991e+06
6.12691e+06
7.81544e+06
9.94641e+06
1.22395e+07
1.39487e+07
1.97342e+07
132982
74408.8
61599.4
60199.9
63756.8
71388.2
85370.8
111809
158833
238427
364233
545172
776895
1.04061e+06
1.3172e+06
1.59972e+06
1.88589e+06
2.18846e+06
2.51638e+06
2.88081e+06
3.32252e+06
3.8839e+06
4.6658e+06
5.72376e+06
7.05962e+06
8.80567e+06
1.08813e+07
1.30609e+07
1.45089e+07
2.04001e+07
134129
74935.3
61615.4
60102.2
64145.9
73315.1
91110.4
125546
187129
290779
448788
663917
927318
1.21428e+06
1.51027e+06
1.8129e+06
2.12569e+06
2.46685e+06
2.85403e+06
3.30308e+06
3.84181e+06
4.53494e+06
5.46134e+06
6.65658e+06
8.13623e+06
9.88546e+06
1.18336e+07
1.37748e+07
1.49447e+07
2.08243e+07
135754
75724.6
61720.7
60174.6
64890.2
76075.3
99074.4
144221
224839
358023
551284
802926
1.0946e+06
1.40409e+06
1.72088e+06
2.04503e+06
2.38876e+06
2.77657e+06
3.23935e+06
3.79905e+06
4.47406e+06
5.32546e+06
6.4226e+06
7.79567e+06
9.36673e+06
1.10444e+07
1.27523e+07
1.43631e+07
1.53702e+07
2.10813e+07
137302
76159.8
61822
60482.6
66111.9
80072.3
110014
169046
273412
441026
672253
957954
1.27394e+06
1.6064e+06
1.94502e+06
2.30053e+06
2.68802e+06
3.14147e+06
3.70305e+06
4.40242e+06
5.25573e+06
6.29545e+06
7.59526e+06
9.15156e+06
1.07893e+07
1.22748e+07
1.35845e+07
1.47493e+07
1.55569e+07
2.14444e+07
138155
76264.8
61865.9
60907.7
67820.5
85585
124687
201636
335147
541029
810095
1.12597e+06
1.46536e+06
1.82189e+06
2.18823e+06
2.5896e+06
3.04182e+06
3.5865e+06
4.27766e+06
5.14975e+06
6.22453e+06
7.49704e+06
9.03592e+06
1.07882e+07
1.24326e+07
1.36165e+07
1.43529e+07
1.49167e+07
1.57438e+07
2.15612e+07
139011
76223.3
61745.2
61494.8
70164.5
93125.9
144093
243496
410656
655394
959219
1.30058e+06
1.66479e+06
2.04991e+06
2.4549e+06
2.92233e+06
3.46735e+06
4.13728e+06
4.99539e+06
6.084e+06
7.43292e+06
8.99833e+06
1.08174e+07
1.277e+07
1.43676e+07
1.51118e+07
1.50251e+07
1.48769e+07
1.56382e+07
2.18553e+07
140346
76247.4
61824.5
62245.5
73281.9
102913
168771
295431
498908
779633
1.11418e+06
1.47826e+06
1.87168e+06
2.29348e+06
2.75281e+06
3.30669e+06
3.97579e+06
4.81667e+06
5.89338e+06
7.25911e+06
8.94024e+06
1.08778e+07
1.30349e+07
1.51999e+07
1.67287e+07
1.69574e+07
1.59711e+07
1.51518e+07
1.59483e+07
2.13945e+07
141910
76354
62142.5
63491.5
77719.2
115987
200693
359452
601481
915687
1.2789e+06
1.67034e+06
2.09771e+06
2.56627e+06
3.1005e+06
3.75808e+06
4.58586e+06
5.63967e+06
7.00839e+06
8.73316e+06
1.08323e+07
1.32476e+07
1.57934e+07
1.82126e+07
1.97272e+07
1.95315e+07
1.80838e+07
1.77118e+07
2.01302e+07
1.97692e+07
1.89638e+07
1.93688e+07
2.0509e+07
2.23959e+07
2.49057e+07
2.78721e+07
3.11604e+07
3.48272e+07
3.87544e+07
4.28926e+07
4.71924e+07
5.15924e+07
5.60361e+07
6.04893e+07
6.4903e+07