/*--------------------------------*- C++ -*----------------------------------*\
| =========                 |                                                 |
| \\      /  F ield         | OpenFOAM: The Open Source CFD Toolbox           |
|  \\    /   O peration     | Version:  2112                                  |
|   \\  /    A nd           | Website:  www.openfoam.com                      |
|    \\/     M anipulation  |                                                 |
\*---------------------------------------------------------------------------*/
FoamFile
{
    version     2.0;
    format      ascii;
    arch        "LSB;label=32;scalar=64";
    class       volScalarField;
    location    "0.00254";
    object      epsilon;
}
// * * * * * * * * * * * * * * * * * * * * * * * * * * * * * * * * * * * * * //

dimensions      [0 2 -3 0 0 0 0];

internalField   nonuniform List<scalar> 
13875
(
1.15996e+06
2.94678e+07
3.28086e+07
3.28556e+07
3.29652e+07
3.28665e+07
3.28615e+07
3.28866e+07
3.29164e+07
3.29152e+07
3.29078e+07
3.2917e+07
3.28686e+07
3.28571e+07
3.28821e+07
3.29361e+07
3.2936e+07
3.28949e+07
3.28563e+07
3.28557e+07
3.29513e+07
3.28329e+07
3.27957e+07
2.94683e+07
1.17818e+06
1.31378e+06
2.2753e+07
2.53468e+07
2.52532e+07
2.53119e+07
2.52193e+07
2.5208e+07
2.52222e+07
2.52152e+07
2.52143e+07
2.52126e+07
2.52352e+07
2.52205e+07
2.52155e+07
2.52221e+07
2.52558e+07
2.5227e+07
2.52217e+07
2.52014e+07
2.52108e+07
2.52973e+07
2.5221e+07
2.53221e+07
2.27473e+07
1.34277e+06
1.57302e+06
1.97123e+07
2.18247e+07
2.16392e+07
2.17034e+07
2.16307e+07
2.16163e+07
2.16147e+07
2.1523e+07
2.15058e+07
2.151e+07
2.1549e+07
2.15541e+07
2.15692e+07
2.15522e+07
2.15582e+07
2.15365e+07
2.16098e+07
2.16071e+07
2.16226e+07
2.16918e+07
2.16013e+07
2.17847e+07
1.96873e+07
1.5852e+06
1.81386e+06
1.73901e+07
1.90344e+07
1.88908e+07
1.89685e+07
1.89082e+07
1.88931e+07
1.88892e+07
1.87955e+07
1.87775e+07
1.87817e+07
1.88128e+07
1.88177e+07
1.88479e+07
1.88148e+07
1.88081e+07
1.88137e+07
1.88856e+07
1.88845e+07
1.8901e+07
1.89585e+07
1.8858e+07
1.90097e+07
1.73664e+07
1.82107e+06
2.02321e+06
1.54567e+07
1.67696e+07
1.66297e+07
1.67009e+07
1.66513e+07
1.66383e+07
1.66303e+07
1.65461e+07
1.65336e+07
1.65355e+07
1.65604e+07
1.6563e+07
1.65953e+07
1.65601e+07
1.655e+07
1.65643e+07
1.66272e+07
1.66299e+07
1.66446e+07
1.66927e+07
1.66048e+07
1.67407e+07
1.54329e+07
2.0367e+06
2.20746e+06
1.37192e+07
1.49279e+07
1.47468e+07
1.48254e+07
1.47769e+07
1.47601e+07
1.47433e+07
1.46682e+07
1.46575e+07
1.46582e+07
1.46769e+07
1.46765e+07
1.47136e+07
1.4676e+07
1.46608e+07
1.46861e+07
1.47417e+07
1.47526e+07
1.47711e+07
1.48184e+07
1.47299e+07
1.49004e+07
1.38518e+07
2.223e+06
2.4242e+06
1.22609e+07
1.34792e+07
1.32162e+07
1.32645e+07
1.32083e+07
1.31828e+07
1.31567e+07
1.30893e+07
1.30786e+07
1.30789e+07
1.30931e+07
1.30883e+07
1.31311e+07
1.30907e+07
1.30706e+07
1.31084e+07
1.31574e+07
1.31769e+07
1.32026e+07
1.32556e+07
1.32022e+07
1.3421e+07
1.19558e+07
2.42994e+06
2.67357e+06
1.06349e+07
1.23243e+07
1.19903e+07
1.20015e+07
1.19181e+07
1.18697e+07
1.18292e+07
1.17659e+07
1.175e+07
1.17479e+07
1.17603e+07
1.17491e+07
1.17941e+07
1.17545e+07
1.17333e+07
1.17826e+07
1.18289e+07
1.18628e+07
1.19078e+07
1.19863e+07
1.19761e+07
1.22647e+07
1.05448e+07
2.6965e+06
3.5104e+06
1.02337e+07
1.15024e+07
1.10575e+07
1.09617e+07
1.0853e+07
1.07816e+07
1.07246e+07
1.06638e+07
1.06434e+07
1.06374e+07
1.06492e+07
1.06318e+07
1.06757e+07
1.06397e+07
1.06213e+07
1.06785e+07
1.07254e+07
1.07745e+07
1.08402e+07
1.09509e+07
1.10349e+07
1.14837e+07
1.03475e+07
3.58158e+06
6.91999e+06
1.23379e+07
1.12641e+07
1.045e+07
1.02579e+07
1.00697e+07
9.96715e+06
9.8915e+06
9.83345e+06
9.81056e+06
9.7993e+06
9.8087e+06
9.78711e+06
9.82419e+06
9.79746e+06
9.78701e+06
9.84219e+06
9.89175e+06
9.95506e+06
1.00487e+07
1.02249e+07
1.04153e+07
1.1191e+07
1.21581e+07
6.90346e+06
1.50639e+07
1.88719e+07
1.20917e+07
1.052e+07
9.85912e+06
9.57433e+06
9.43056e+06
9.33232e+06
9.27633e+06
9.25114e+06
9.23201e+06
9.23681e+06
9.21409e+06
9.23984e+06
9.22807e+06
9.23074e+06
9.27973e+06
9.33331e+06
9.41878e+06
9.54373e+06
9.81557e+06
1.04213e+07
1.20092e+07
1.80969e+07
1.50885e+07
2.51935e+07
6.55812e+07
2.05199e+07
1.13581e+07
1.01947e+07
9.52293e+06
9.22675e+06
9.09326e+06
9.01957e+06
8.98104e+06
8.95065e+06
8.9502e+06
8.92683e+06
8.9428e+06
8.94528e+06
8.96244e+06
9.01462e+06
9.09204e+06
9.21854e+06
9.49287e+06
1.00742e+07
1.0921e+07
1.84256e+07
6.70116e+07
2.50945e+07
2.64251e+07
6.46492e+07
9.73779e+07
3.75811e+07
1.23635e+07
1.02075e+07
9.72708e+06
9.52117e+06
9.43556e+06
9.38613e+06
9.34667e+06
9.35352e+06
9.33171e+06
9.33654e+06
9.34885e+06
9.37519e+06
9.4352e+06
9.51818e+06
9.7107e+06
1.02145e+07
1.24402e+07
2.75802e+07
8.65441e+07
6.94683e+07
2.61691e+07
2.60952e+07
4.84687e+07
8.07166e+07
1.28246e+08
6.40394e+07
1.74531e+07
1.47407e+07
1.2693e+07
1.21342e+07
1.17746e+07
1.18218e+07
1.15777e+07
1.1855e+07
1.16514e+07
1.17816e+07
1.18214e+07
1.21192e+07
1.27101e+07
1.47349e+07
1.82368e+07
6.85474e+07
1.01652e+08
7.76466e+07
5.11332e+07
2.60423e+07
2.53563e+07
3.89566e+07
5.93983e+07
8.68266e+07
7.69373e+07
5.73881e+07
6.35262e+07
5.4146e+07
5.05766e+07
5.07334e+07
5.47998e+07
5.12123e+07
5.67638e+07
5.35136e+07
5.40281e+07
5.16548e+07
5.04064e+07
5.38408e+07
6.57824e+07
5.63331e+07
7.56145e+07
7.45811e+07
5.91455e+07
4.10893e+07
2.74011e+07
2.56575e+07
3.29616e+07
5.0608e+07
7.08357e+07
7.36322e+07
9.53107e+07
8.00727e+07
5.8016e+07
5.29244e+07
5.75627e+07
5.77281e+07
5.9266e+07
5.92939e+07
6.03955e+07
5.82469e+07
5.87091e+07
5.44303e+07
5.59039e+07
7.21873e+07
9.73681e+07
7.56784e+07
6.40306e+07
5.00508e+07
3.46048e+07
2.80029e+07
2.34649e+07
2.99227e+07
4.62069e+07
6.30918e+07
6.54366e+07
9.08612e+07
6.03647e+07
4.05867e+07
3.64159e+07
3.75138e+07
3.75552e+07
3.84976e+07
3.83842e+07
3.89236e+07
3.78862e+07
3.81783e+07
3.69996e+07
3.87176e+07
5.22088e+07
9.16527e+07
6.99537e+07
5.88728e+07
4.64041e+07
3.07392e+07
2.41919e+07
1.92037e+07
2.95154e+07
4.3824e+07
4.90286e+07
4.99526e+07
6.92682e+07
4.96495e+07
3.331e+07
2.85219e+07
2.80571e+07
2.74321e+07
2.77628e+07
2.76787e+07
2.78936e+07
2.76567e+07
2.84243e+07
2.87135e+07
3.17307e+07
4.47464e+07
6.65021e+07
5.26255e+07
4.65793e+07
4.41966e+07
3.12968e+07
1.9591e+07
1.55545e+07
2.96994e+07
3.77861e+07
3.82748e+07
3.76957e+07
4.82619e+07
4.37583e+07
3.29914e+07
2.59095e+07
2.30187e+07
2.15215e+07
2.11814e+07
2.10631e+07
2.1182e+07
2.13814e+07
2.26811e+07
2.474e+07
3.00908e+07
4.03701e+07
4.73308e+07
3.84826e+07
3.70831e+07
3.78644e+07
3.16031e+07
1.59644e+07
1.41879e+07
2.8408e+07
3.04725e+07
3.0648e+07
3.01664e+07
3.63306e+07
3.7432e+07
3.17556e+07
2.46413e+07
2.02377e+07
1.7888e+07
1.70332e+07
1.68124e+07
1.70033e+07
1.77068e+07
1.98173e+07
2.34862e+07
2.95253e+07
3.54832e+07
3.58024e+07
3.03543e+07
2.99958e+07
3.05655e+07
2.82704e+07
1.48475e+07
1.52453e+07
2.27021e+07
2.46737e+07
2.50578e+07
2.48335e+07
2.92446e+07
3.16568e+07
2.83806e+07
2.22748e+07
1.77125e+07
1.50423e+07
1.39142e+07
1.36373e+07
1.39269e+07
1.49922e+07
1.75141e+07
2.15111e+07
2.68156e+07
3.04159e+07
2.89634e+07
2.49559e+07
2.47292e+07
2.44807e+07
2.22869e+07
1.59503e+07
2.06908e+07
2.27805e+07
2.10767e+07
2.1257e+07
2.10286e+07
2.44165e+07
2.67309e+07
2.45819e+07
1.95351e+07
1.53168e+07
1.26793e+07
1.14778e+07
1.11699e+07
1.1501e+07
1.26649e+07
1.51837e+07
1.89121e+07
2.32928e+07
2.57895e+07
2.43382e+07
2.11701e+07
2.10329e+07
2.06671e+07
2.23062e+07
2.07904e+07
2.40012e+07
2.5804e+07
1.85891e+07
1.80783e+07
1.80151e+07
2.06596e+07
2.25553e+07
2.09604e+07
1.67927e+07
1.31097e+07
1.06964e+07
9.54383e+06
9.23124e+06
9.54071e+06
1.06378e+07
1.29265e+07
1.61628e+07
1.97655e+07
2.17096e+07
2.06021e+07
1.8106e+07
1.78975e+07
1.8076e+07
2.53908e+07
2.36123e+07
2.32948e+07
2.56117e+07
1.62653e+07
1.55716e+07
1.5546e+07
1.7428e+07
1.89926e+07
1.77493e+07
1.41653e+07
1.10335e+07
8.97566e+06
7.97301e+06
7.70145e+06
7.99075e+06
8.96799e+06
1.09537e+07
1.37067e+07
1.67602e+07
1.83104e+07
1.73521e+07
1.56592e+07
1.55515e+07
1.59595e+07
2.4742e+07
2.28156e+07
2.27393e+07
2.45412e+07
1.43806e+07
1.36211e+07
1.35443e+07
1.48472e+07
1.60818e+07
1.50364e+07
1.19988e+07
9.35465e+06
7.59307e+06
6.73231e+06
6.49942e+06
6.75458e+06
7.60097e+06
9.31835e+06
1.16667e+07
1.42196e+07
1.54939e+07
1.47332e+07
1.36173e+07
1.36613e+07
1.42105e+07
2.39491e+07
2.21693e+07
2.2084e+07
2.37314e+07
1.30525e+07
1.21377e+07
1.19239e+07
1.27958e+07
1.3685e+07
1.27333e+07
1.01806e+07
7.97469e+06
6.48248e+06
5.74345e+06
5.53581e+06
5.7591e+06
6.47667e+06
7.92692e+06
9.88267e+06
1.20027e+07
1.31172e+07
1.26331e+07
1.19234e+07
1.21538e+07
1.28995e+07
2.29093e+07
2.12962e+07
2.14178e+07
2.29386e+07
1.19744e+07
1.09441e+07
1.06084e+07
1.11303e+07
1.16607e+07
1.0741e+07
8.62209e+06
6.80523e+06
5.55702e+06
4.94028e+06
4.76217e+06
4.95917e+06
5.57452e+06
6.80994e+06
8.45322e+06
1.02142e+07
1.12104e+07
1.09732e+07
1.05793e+07
1.09757e+07
1.18886e+07
2.24155e+07
2.09744e+07
2.12397e+07
2.22019e+07
1.1143e+07
9.91217e+06
9.55342e+06
9.80227e+06
1.00325e+07
9.13598e+06
7.36578e+06
5.8633e+06
4.81542e+06
4.29168e+06
4.13384e+06
4.30725e+06
4.82765e+06
5.85993e+06
7.22271e+06
8.69145e+06
9.61037e+06
9.62603e+06
9.49563e+06
9.93373e+06
1.10364e+07
2.14824e+07
2.05835e+07
2.14994e+07
2.113e+07
1.03812e+07
9.01175e+06
8.65401e+06
8.71544e+06
8.69451e+06
7.82585e+06
6.34126e+06
5.08896e+06
4.20412e+06
3.75875e+06
3.61757e+06
3.76801e+06
4.20209e+06
5.06301e+06
6.19888e+06
7.42628e+06
8.28041e+06
8.5157e+06
8.56713e+06
9.01217e+06
1.02778e+07
2.00302e+07
2.02516e+07
2.09469e+07
2.00149e+07
9.74667e+06
8.21981e+06
7.8378e+06
7.77257e+06
7.54457e+06
6.69243e+06
5.44748e+06
4.41766e+06
3.68419e+06
3.31312e+06
3.19023e+06
3.32695e+06
3.69988e+06
4.42545e+06
5.38036e+06
6.43168e+06
7.23205e+06
7.60037e+06
7.74882e+06
8.21658e+06
9.67108e+06
1.91596e+07
2.0636e+07
2.02135e+07
1.90272e+07
9.27578e+06
7.58824e+06
7.11562e+06
6.95961e+06
6.61761e+06
5.80894e+06
4.74847e+06
3.87965e+06
3.25833e+06
2.94276e+06
2.83353e+06
2.95465e+06
3.26719e+06
3.87685e+06
4.6855e+06
5.58817e+06
6.33488e+06
6.78325e+06
7.00291e+06
7.57673e+06
9.14748e+06
1.81998e+07
1.98249e+07
1.95499e+07
1.81678e+07
8.89208e+06
7.11879e+06
6.47517e+06
6.25194e+06
5.85255e+06
5.08394e+06
4.17209e+06
3.43319e+06
2.90489e+06
2.63323e+06
2.53403e+06
2.64262e+06
2.90802e+06
3.42065e+06
4.11074e+06
4.89409e+06
5.59611e+06
6.07292e+06
6.36066e+06
7.0754e+06
8.7386e+06
1.72397e+07
1.89192e+07
1.85514e+07
1.70238e+07
8.67573e+06
6.73774e+06
5.931e+06
5.61329e+06
5.1783e+06
4.46525e+06
3.68137e+06
3.04945e+06
2.5978e+06
2.36753e+06
2.27991e+06
2.37903e+06
2.60766e+06
3.0494e+06
3.64952e+06
4.33278e+06
4.97737e+06
5.45952e+06
5.82325e+06
6.6753e+06
8.47909e+06
1.64275e+07
1.83672e+07
1.80858e+07
1.59496e+07
8.48498e+06
6.48306e+06
5.48711e+06
5.07841e+06
4.61942e+06
3.96365e+06
3.27907e+06
2.73334e+06
2.34456e+06
2.14412e+06
2.06347e+06
2.15351e+06
2.35067e+06
2.72703e+06
3.24744e+06
3.85181e+06
4.43754e+06
4.9338e+06
5.38766e+06
6.38318e+06
8.33312e+06
1.53852e+07
1.7634e+07
1.76937e+07
1.50491e+07
8.09091e+06
6.29596e+06
5.15089e+06
4.61971e+06
4.13862e+06
3.54353e+06
2.94706e+06
2.46981e+06
2.12669e+06
1.95169e+06
1.8782e+06
1.95947e+06
2.13039e+06
2.46024e+06
2.91565e+06
3.44703e+06
3.97761e+06
4.48901e+06
5.05983e+06
6.19409e+06
8.02999e+06
1.43913e+07
1.71125e+07
1.69467e+07
1.39653e+07
7.57783e+06
6.13779e+06
4.89395e+06
4.2399e+06
3.72869e+06
3.17482e+06
2.65164e+06
2.23576e+06
1.93904e+06
1.78559e+06
1.71867e+06
1.7947e+06
1.94715e+06
2.2346e+06
2.63539e+06
3.11027e+06
3.59868e+06
4.12985e+06
4.80165e+06
6.06577e+06
7.57364e+06
1.35075e+07
1.66131e+07
1.64899e+07
1.3037e+07
7.1092e+06
6.13217e+06
4.71142e+06
3.9451e+06
3.38869e+06
2.87013e+06
2.40761e+06
2.04106e+06
1.77756e+06
1.64162e+06
1.58014e+06
1.64991e+06
1.783e+06
2.0379e+06
2.39019e+06
2.81451e+06
3.27357e+06
3.84393e+06
4.60905e+06
6.04385e+06
7.05647e+06
1.25172e+07
1.5992e+07
1.61703e+07
1.21699e+07
6.66163e+06
6.00672e+06
4.61748e+06
3.72026e+06
3.1191e+06
2.6164e+06
2.19614e+06
1.86936e+06
1.63775e+06
1.51683e+06
1.45967e+06
1.52446e+06
1.64193e+06
1.86463e+06
2.17885e+06
2.57115e+06
3.0219e+06
3.6271e+06
4.52045e+06
5.91433e+06
6.55614e+06
1.16373e+07
1.56569e+07
1.56613e+07
1.13296e+07
6.11659e+06
5.6781e+06
4.5651e+06
3.54077e+06
2.90767e+06
2.40162e+06
2.01148e+06
1.71865e+06
1.5124e+06
1.40503e+06
1.35341e+06
1.41389e+06
1.51872e+06
1.71901e+06
2.00295e+06
2.37227e+06
2.83265e+06
3.45851e+06
4.48539e+06
5.60969e+06
6.0541e+06
1.0898e+07
1.5425e+07
1.53722e+07
1.06586e+07
5.60972e+06
5.33225e+06
4.67563e+06
3.4374e+06
2.74896e+06
2.2372e+06
1.85827e+06
1.58906e+06
1.40429e+06
1.30785e+06
1.25954e+06
1.31567e+06
1.40939e+06
1.58768e+06
1.8486e+06
2.21281e+06
2.682e+06
3.34896e+06
4.57452e+06
5.26257e+06
5.52391e+06
1.02117e+07
1.50232e+07
1.51502e+07
1.01344e+07
5.20044e+06
4.96563e+06
4.64452e+06
3.41408e+06
2.62668e+06
2.11175e+06
1.7344e+06
1.4787e+06
1.30831e+06
1.22077e+06
1.17595e+06
1.22725e+06
1.31262e+06
1.47601e+06
1.72443e+06
2.09083e+06
2.57008e+06
3.34082e+06
4.54462e+06
4.89823e+06
5.07549e+06
9.67651e+06
1.47662e+07
1.47686e+07
9.63923e+06
4.80114e+06
4.5766e+06
4.40279e+06
3.4914e+06
2.543e+06
2.0089e+06
1.63528e+06
1.38368e+06
1.22348e+06
1.14323e+06
1.10139e+06
1.15028e+06
1.22895e+06
1.38391e+06
1.62924e+06
1.99276e+06
2.51697e+06
3.46003e+06
4.28859e+06
4.52209e+06
4.76156e+06
9.24714e+06
1.45966e+07
1.45088e+07
9.21911e+06
4.50286e+06
4.20953e+06
4.11477e+06
3.58561e+06
2.54744e+06
1.93487e+06
1.56246e+06
1.30507e+06
1.15028e+06
1.07379e+06
1.03452e+06
1.08061e+06
1.15498e+06
1.30595e+06
1.55429e+06
1.91407e+06
2.53604e+06
3.52917e+06
3.99518e+06
4.15512e+06
4.42915e+06
8.81735e+06
1.42818e+07
1.43066e+07
8.85605e+06
4.31113e+06
3.89579e+06
3.81153e+06
3.49008e+06
2.65764e+06
1.89995e+06
1.5e+06
1.24525e+06
1.09066e+06
1.01431e+06
975503
1.02047e+06
1.09547e+06
1.2466e+06
1.49042e+06
1.87731e+06
2.68966e+06
3.42187e+06
3.68502e+06
3.84047e+06
4.18212e+06
8.43121e+06
1.40704e+07
1.40931e+07
8.45282e+06
4.0765e+06
3.61966e+06
3.51133e+06
3.29315e+06
2.87139e+06
1.92955e+06
1.45292e+06
1.19842e+06
1.04564e+06
964783
925694
971199
1.05074e+06
1.20079e+06
1.44657e+06
1.93851e+06
2.83019e+06
3.2214e+06
3.39065e+06
3.57604e+06
4.02291e+06
8.10894e+06
1.39054e+07
1.39167e+07
8.09295e+06
3.93647e+06
3.38888e+06
3.24701e+06
3.09583e+06
2.91397e+06
2.14568e+06
1.43856e+06
1.16009e+06
1.01089e+06
928524
886163
934391
1.01492e+06
1.16059e+06
1.43016e+06
2.10011e+06
2.77693e+06
3.01213e+06
3.14133e+06
3.34453e+06
3.84577e+06
7.74653e+06
1.37471e+07
1.3759e+07
7.78547e+06
3.83251e+06
3.20398e+06
3.02948e+06
2.89475e+06
2.76057e+06
2.33054e+06
1.53203e+06
1.13242e+06
978003
898633
854628
903900
982635
1.13171e+06
1.5048e+06
2.26589e+06
2.63651e+06
2.80361e+06
2.93366e+06
3.15528e+06
3.70242e+06
7.42063e+06
1.35723e+07
1.34323e+07
7.39786e+06
3.67619e+06
3.03997e+06
2.84304e+06
2.70427e+06
2.59738e+06
2.32149e+06
1.72951e+06
1.14559e+06
950461
871089
828369
876242
957088
1.1532e+06
1.70492e+06
2.26658e+06
2.49028e+06
2.61853e+06
2.7577e+06
2.99891e+06
3.60265e+06
7.1087e+06
1.32349e+07
1.29078e+07
6.97726e+06
3.53042e+06
2.89004e+06
2.68111e+06
2.53709e+06
2.42576e+06
2.21943e+06
1.89941e+06
1.24757e+06
940221
846889
805175
851658
948743
1.24671e+06
1.8377e+06
2.16673e+06
2.33621e+06
2.45703e+06
2.6061e+06
2.8511e+06
3.45275e+06
6.6958e+06
1.27e+07
1.14508e+07
6.38255e+06
3.36843e+06
2.73786e+06
2.5363e+06
2.38999e+06
2.26661e+06
2.10352e+06
1.90186e+06
1.44918e+06
984354
834614
789816
838214
991983
1.41998e+06
1.81834e+06
2.05267e+06
2.19033e+06
2.31885e+06
2.46877e+06
2.69995e+06
3.28059e+06
6.10465e+06
1.12975e+07
332029
185515
173688
171152
170122
169077
169256
170943
174137
178882
185160
191133
191152
184294
179707
177836
176354
175566
174980
174453
173938
173426
172919
172415
171918
171415
170915
170654
174179
290919
197761
144677
140839
139549
138990
138940
139996
142575
146774
152727
160761
170602
180002
178408
152386
133212
126248
124171
123327
122789
122348
121941
121549
121167
120788
120423
120024
119969
122446
166506
155511
127495
124544
124432
124930
126073
128171
131604
136441
142787
150566
159336
168704
177203
176289
143405
115704
107173
105240
104619
104310
104093
103907
103734
103564
103410
103242
103393
105842
134879
145420
122675
119616
120060
121000
122828
125705
129971
135674
142870
151250
160306
169655
179155
188090
187380
147188
110652
101105
99389.8
98948
98785.8
98699.7
98636.2
98578
98530.3
98490.7
98746.3
101361
127718
144944
121041
117428
118256
119495
121994
125681
130721
137116
144956
154041
164064
174472
184662
194504
203964
202610
152392
108783
99254.5
97811.8
97486.6
97393.8
97359.8
97339.5
97328.3
97334.6
97630.1
100327
126323
144957
119661
115970
117159
118700
122058
126697
132681
139926
148452
158002
168313
179490
190970
201900
212020
221543
217257
152579
106714
98508.3
97383.7
97146.4
97089
97072.7
97070.3
97090
97400
100128
126104
144265
118184
114849
116295
118345
122785
128592
135739
143904
153132
163315
173976
185252
197259
209456
220765
230956
240093
229180
146108
104151
98044.4
97230.2
97064
97026.9
97022.1
97045.2
97362.2
100108
126088
143331
116887
114056
115815
118715
124487
131725
140246
149397
159154
170049
181171
192649
204458
216982
229582
240962
251143
259199
234929
135156
101704
97700.1
97148
97036.6
97016.9
97039.1
97360.7
100120
126096
142334
115994
113702
116022
120172
127566
136449
146486
156741
167041
178173
189929
201599
213306
225397
238286
251121
262379
272724
277951
227845
122816
99840.6
97448.6
97094.2
97026.5
97040.5
97365.2
100138
126102
141807
115555
113991
117263
123097
132415
143170
154774
166138
176955
188147
199943
212008
223547
235336
247664
260934
273926
285074
295902
294503
204671
112395
98633
97275.4
97061.3
97047.3
97371
100156
126105
142128
116037
115453
120086
128221
139568
152295
165287
177622
188784
199979
211226
223657
234974
246507
258377
271139
284922
298060
309609
320949
304209
171022
105061
97919.4
97165.4
97067.6
97378.9
100173
126107
142986
117107
118123
124956
136058
149944
164564
178757
191833
203193
213140
224089
236032
247463
258682
270243
282452
296025
310544
323823
336817
346940
295823
138727
100893
97508.1
97125.8
97393.6
100191
126109
144902
119226
122578
132544
147257
164176
180978
196396
209830
220624
229246
238383
249123
260767
271672
282955
294852
307891
322705
338062
352031
367745
369662
252743
117759
98844.9
97304.1
97427.9
100211
126112
146769
122119
128961
143730
163144
183286
202031
217819
230667
240081
247480
254029
263144
274183
285128
296085
307861
320578
335058
351209
367399
383964
402432
378881
193824
105981
97914.6
97520.1
100239
126118
151138
127291
138452
159334
184623
208482
228552
242848
252778
260191
265819
270151
277211
286931
298130
308642
320433
333164
347362
363346
381110
399171
420995
438132
355292
142555
100625
97804.7
100293
126130
155724
134840
152084
180424
211007
237261
257030
267823
274723
279239
282608
284728
289126
297528
308594
318882
330857
343947
358239
374088
392564
412714
435056
462982
458642
275100
115772
98841.7
100432
126169
165771
147060
172024
206769
241105
267186
284603
291497
294529
295478
295808
296122
297283
304482
314760
325366
337621
351314
366169
382516
401484
423034
446879
476389
504968
453210
187425
103986
100849
126290
174604
164314
198603
239234
274912
297234
309917
312478
310788
307430
304627
303040
301390
306847
316312
327874
340206
354484
370274
387641
407535
430303
456567
486325
524212
536604
372700
131388
102476
126641
191242
189139
232779
276198
310418
328274
335893
331072
323769
316703
311213
307355
304296
306924
315239
326978
338909
353533
370245
388962
409945
434246
463168
495184
535060
573404
543794
247570
110937
127693
202516
223524
276335
321041
356125
372373
370705
355995
341603
328308
319744
312219
305644
305286
312389
324059
335417
350129
367318
387233
409146
435457
465952
500857
541217
592678
619835
475543
152378
131278
226164
268640
330944
385968
443733
453610
434997
407484
379495
351333
330621
317906
307161
303421
309634
321198
332332
346035
363109
383463
406190
434638
465314
502002
544290
597091
645212
633055
311197
145698
250354
341725
421961
526712
626418
631932
592056
523909
453248
390147
353961
333324
317610
309585
313829
323021
331787
343300
358704
378337
401736
429529
462431
499140
544083
597188
659510
696630
556762
201812
307680
451563
637267
857290
1.01778e+06
998693
900843
737386
587363
472168
409303
371331
345823
328338
326912
327289
330528
340421
353826
372665
396206
423794
457300
495787
540408
595338
662414
719104
721239
433059
386488
859082
1.02649e+06
1.3161e+06
1.49833e+06
1.50111e+06
1.38038e+06
1.11534e+06
842236
632368
509500
438371
390305
354351
334246
328571
329979
337288
349811
367463
390663
418133
451207
491353
535963
591471
659499
731999
794692
804885
600500
2.42999e+06
2.05535e+06
1.99252e+06
2.04827e+06
2.07382e+06
2.01673e+06
1.74452e+06
1.2789e+06
907968
665252
535625
443297
385389
350818
340613
337549
340699
350162
365375
386768
413617
446238
485662
532519
585364
654719
738151
849523
1.17905e+06
290921
174180
170656
170917
171418
171922
172420
172924
173432
173944
174460
174987
175572
176355
177820
179682
184173
190957
191046
185099
178877
174146
170959
169276
169099
170149
171185
173684
185571
332208
166507
122446
119969
120024
120423
120788
121167
121549
121941
122347
122788
123324
124161
126204
133024
151851
177854
179769
170470
160659
152644
146705
142517
139948
138898
138953
139515
140803
144634
197725
134880
105842
103393
103243
103410
103565
103735
103908
104093
104310
104618
105232
107129
115466
142653
175700
176884
168471
159142
150407
142657
136332
131513
128093
126005
124870
124377
124498
127449
155518
127718
101361
98746.3
98490.7
98530.3
98578.1
98636.2
98699.6
98785.5
98946.3
99382.2
101060
110371
146218
186703
187686
178833
169375
160070
151056
142711
135543
129862
125615
122751
120934
119999
119562
122620
145351
126323
100327
97630.1
97334.5
97328.3
97339.5
97359.8
97393.5
97485.3
97805.5
99216.2
108492
151240
201823
203480
194095
184301
174162
163800
153820
144770
136963
130595
125579
121909
119423
118190
117370
120986
144887
126104
100128
97400
97090
97070.3
97072.7
97088.8
97145.3
97378.8
98478.6
106450
151280
216282
220943
211505
201440
190568
179143
168012
157744
148234
139747
132534
126580
121964
118624
117090
115909
119605
144961
126087
100107
97362.1
97045.2
97022.1
97026.8
97063.3
97226.7
98023.1
103942
144816
227882
239330
230317
220189
208947
196807
184847
173616
163006
152868
143688
135565
128456
122680
118263
116223
114783
118113
144133
126096
100121
97360.7
97039.1
97016.8
97036.1
97145.6
97685.8
101565
134044
233195
258267
250378
240268
228958
216420
203945
192184
180753
169688
158838
149135
140034
131560
124363
118621
115738
113986
116820
143268
126102
100138
97365.2
97040.4
97026.3
97092.6
97439.4
99757.1
121992
225418
276711
271773
261513
250344
237585
224753
212708
201050
189427
177737
166648
156410
146219
136244
127414
120062
115937
113628
115916
142224
126104
100156
97370.9
97047.1
97060.4
97269.9
98588.4
111849
201896
292900
294777
284046
272996
260087
246880
234604
222861
211373
199356
187631
176474
165731
154444
142918
132225
122964
117171
113914
115474
141656
126107
100173
97378.8
97067
97162.2
97895.8
104761
168629
301970
319605
308394
296944
283917
270217
257522
245702
234211
222946
210555
199368
188165
177089
164849
151962
139346
128074
119993
115372
115953
142013
126109
100190
97393.3
97124
97495.7
100752
137084
292211
345229
335409
322507
309370
294953
281453
269315
257813
246634
235258
223340
212465
202631
191342
178337
164224
149695
135898
124865
118052
117034
142848
126112
100210
97426.9
97297.7
98785.1
116912
248530
367478
366225
350559
336733
321508
306793
293833
282009
270799
259932
248357
237585
228633
220092
209354
195973
180631
163909
147097
132473
122543
119195
144852
126118
100239
97517
97888.9
105598
190300
375747
400763
382419
365894
349900
333893
319525
306897
295191
284330
273423
262464
253352
246862
239507
230192
217408
201677
183049
163027
143720
128978
122150
146782
126130
100292
97793.4
100483
140655
350275
436114
419491
397602
379696
362130
346308
332253
319631
307901
297505
286360
276701
269605
265236
259637
252320
242581
228282
208351
184622
159442
138585
127391
151311
126168
100427
98791.6
114938
269732
455975
461434
433535
411219
391311
373028
357352
343204
330255
318337
308158
297118
288719
284374
282144
278705
274334
267663
257161
237489
211307
180794
152372
135034
156029
126285
100831
103694
183604
449147
503114
474966
445401
421759
400440
381662
365486
350755
337195
325006
314466
304161
296633
295811
295492
295139
294196
291347
284835
267584
241625
207417
172479
147404
166272
126627
102392
129941
366383
534716
523050
485022
455322
429299
406701
386984
369748
354014
339825
327559
316002
306524
300477
302690
304206
307196
310188
312385
310744
298085
275759
240078
199417
165005
175305
127648
110469
242610
541225
572412
534103
494043
462202
433467
409295
388411
369778
353096
338581
326576
314725
306321
303691
307190
311156
316897
324281
331821
337719
329851
311938
277484
234036
190065
192392
131115
150475
469951
618997
592051
540306
499964
465206
434807
408612
386756
366951
349813
335041
323761
311831
305168
305386
312244
319730
328726
342403
357297
371647
373992
357722
321656
277962
225297
204142
145038
306083
631712
645166
596692
543626
501399
464735
434062
405683
383026
362780
345800
332011
321009
309165
303933
307678
318056
330478
351367
380278
409162
436585
456352
445248
386721
332302
270768
228037
199581
552636
697080
659716
597025
543730
498785
461888
429055
401240
377889
358346
342995
331364
322731
313178
309918
318061
333796
353934
390805
453633
526650
593760
633140
630923
529848
424655
344606
252388
426825
721313
720276
662986
595406
540267
495378
457014
423405
395754
372180
353324
339863
330020
326665
326213
328229
346011
372163
408791
475181
590106
744931
908332
996831
1.01708e+06
863818
644658
456198
310183
800145
796263
733371
660237
591754
535935
491259
451020
417876
390293
367023
349305
336611
329278
327906
333780
353187
389601
438349
507922
636153
852392
1.12696e+06
1.39456e+06
1.50692e+06
1.50964e+06
1.33879e+06
1.04549e+06
869267
388919
1.17752e+06
851529
739750
655612
585810
532701
485734
446151
413532
386516
364929
349487
339861
336604
339806
350304
384075
441585
533529
660374
911706
1.30523e+06
1.76786e+06
2.01869e+06
2.07036e+06
2.07255e+06
2.02805e+06
2.10216e+06
2.50845e+06
609749
126543
126534
126533
126531
126530
126528
126526
126525
126523
126521
126520
126518
126516
126514
126512
126511
126509
126507
126505
126503
126501
126499
126497
126495
126493
126490
126488
126486
126484
126482
126479
126477
126475
126473
126470
126468
126465
126463
126460
126458
126455
126453
126450
126448
126445
126442
126439
126437
126434
126431
126428
126425
126422
126419
126416
126413
126410
126407
126404
126401
126398
126395
126391
126388
126385
126381
126380
126396
126592
128743
155556
430114
1.54944e+06
3.16889e+06
4.53929e+06
5.52151e+06
6.24026e+06
6.75134e+06
7.08851e+06
7.28782e+06
7.41308e+06
7.48554e+06
7.46089e+06
7.26535e+06
7.04837e+06
6.82515e+06
6.58906e+06
6.33407e+06
6.05715e+06
5.7709e+06
5.47375e+06
5.16601e+06
4.86682e+06
4.58832e+06
4.33132e+06
4.09626e+06
3.88484e+06
3.6991e+06
3.53857e+06
3.40073e+06
3.28436e+06
3.18087e+06
3.10943e+06
3.04927e+06
3.00398e+06
2.97035e+06
2.94622e+06
2.93095e+06
2.92292e+06
2.92117e+06
2.92574e+06
2.93123e+06
2.93555e+06
2.92938e+06
2.91238e+06
2.88956e+06
2.85889e+06
2.81586e+06
2.75353e+06
2.66434e+06
2.54217e+06
2.37414e+06
2.14622e+06
1.86061e+06
1.53359e+06
101261
101249
101240
101232
101224
101217
101209
101201
101193
101185
101177
101169
101161
101153
101145
101137
101130
101122
101114
101106
101098
101090
101082
101074
101066
101058
101050
101043
101035
101027
101019
101011
101003
100995
100987
100979
100971
100964
100956
100948
100940
100932
100924
100916
100908
100901
100893
100885
100877
100869
100861
100853
100846
100838
100830
100822
100814
100807
100799
100791
100783
100775
100768
100760
100752
100747
100763
101268
122371
511585
2.61204e+06
5.13541e+06
6.07351e+06
5.9423e+06
5.62574e+06
5.41818e+06
5.22723e+06
5.0635e+06
4.93412e+06
4.85458e+06
4.82912e+06
4.85099e+06
4.90635e+06
4.95267e+06
4.98462e+06
5.00581e+06
5.0242e+06
5.04412e+06
5.03255e+06
5.00125e+06
4.9655e+06
4.93037e+06
4.87423e+06
4.78589e+06
4.67791e+06
4.55206e+06
4.41636e+06
4.27427e+06
4.13441e+06
3.99849e+06
3.86717e+06
3.7369e+06
3.60504e+06
3.46808e+06
3.33682e+06
3.20341e+06
3.06084e+06
2.90761e+06
2.74365e+06
2.57376e+06
2.40061e+06
2.22637e+06
2.06053e+06
1.91367e+06
1.78929e+06
1.67336e+06
1.56372e+06
1.46097e+06
1.36461e+06
1.2747e+06
1.19034e+06
1.11265e+06
1.04117e+06
972674
908513
97771.7
97766.4
97762.3
97758.4
97754.5
97750.7
97746.9
97743.1
97739.3
97735.6
97731.8
97728.1
97724.4
97720.8
97717.1
97713.5
97709.8
97706.2
97702.6
97699.1
97695.5
97692
97688.5
97685
97681.5
97678
97674.6
97671.1
97667.7
97664.3
97660.9
97657.6
97654.2
97650.9
97647.6
97644.3
97641
97637.7
97634.5
97631.3
97628
97624.8
97621.7
97618.5
97615.3
97612.2
97609.1
97606
97602.9
97599.8
97596.8
97593.7
97590.7
97587.7
97584.7
97581.7
97578.8
97575.8
97572.9
97570
97567.1
97564.2
97561.3
97558.7
97560.1
97616.3
100170
205061
1.55153e+06
4.81236e+06
6.57451e+06
6.41412e+06
5.71294e+06
5.00909e+06
4.47333e+06
4.07267e+06
3.72214e+06
3.44072e+06
3.23209e+06
3.0948e+06
2.963e+06
2.87589e+06
2.83949e+06
2.82688e+06
2.84229e+06
2.87435e+06
2.92439e+06
2.98952e+06
3.06841e+06
3.16414e+06
3.26859e+06
3.36839e+06
3.4557e+06
3.53173e+06
3.59972e+06
3.64385e+06
3.6612e+06
3.64638e+06
3.60047e+06
3.52727e+06
3.42747e+06
3.30386e+06
3.14565e+06
2.98373e+06
2.81118e+06
2.6331e+06
2.44632e+06
2.25441e+06
2.063e+06
1.87639e+06
1.69732e+06
1.53191e+06
1.3826e+06
1.25325e+06
1.14388e+06
1.05241e+06
977653
915622
865347
826189
796744
774418
757601
745338
739875
97114.1
97112.8
97111.8
97110.9
97110
97109.1
97108.2
97107.4
97106.5
97105.6
97104.8
97103.9
97103.1
97102.3
97101.5
97100.7
97099.9
97099.1
97098.3
97097.5
97096.7
97096