/*--------------------------------*- C++ -*----------------------------------*\
| =========                 |                                                 |
| \\      /  F ield         | OpenFOAM: The Open Source CFD Toolbox           |
|  \\    /   O peration     | Version:  2112                                  |
|   \\  /    A nd           | Website:  www.openfoam.com                      |
|    \\/     M anipulation  |                                                 |
\*---------------------------------------------------------------------------*/
FoamFile
{
    version     2.0;
    format      ascii;
    arch        "LSB;label=32;scalar=64";
    class       volScalarField;
    location    "0.00046";
    object      T;
}
// * * * * * * * * * * * * * * * * * * * * * * * * * * * * * * * * * * * * * //

dimensions      [0 0 0 1 0 0 0];

internalField   nonuniform List<scalar> 
13875
(
1392.11
1540.81
1484.92
1482.22
1481.71
1481.7
1485.12
1484.59
1483.46
1483.03
1483.04
1483.1
1482.86
1482.88
1482.75
1483
1484.26
1484.64
1485.47
1481.9
1479.94
1482.63
1491.08
1541.74
1411.31
1304.6
1357.27
1319.42
1319.44
1316.85
1318.87
1321.05
1321.63
1318.28
1317.64
1317.27
1317.32
1317.23
1317.26
1317.27
1318.26
1320.6
1321.71
1321.13
1319.67
1318.4
1320.78
1325.17
1357.45
1301.44
1295.97
1348.05
1319.45
1308.61
1307.05
1306.83
1305.65
1304.81
1303.41
1302.77
1302.59
1302.57
1302.66
1302.57
1302.66
1302.9
1303.6
1305.31
1306.05
1307.14
1307.74
1314.48
1325.23
1348.66
1304.22
1312.96
1350.32
1320.73
1312.13
1308.11
1308.28
1305.91
1304.66
1303.6
1302.92
1302.82
1302.82
1302.99
1302.87
1302.89
1303.09
1303.72
1305.09
1306.02
1308.3
1309.62
1320.06
1326.85
1346.81
1315.6
1318.24
1349.3
1323.01
1310
1306.35
1306.9
1307.06
1305.28
1304.26
1303.42
1303.46
1303.32
1303.43
1303.43
1303.47
1303.67
1304.16
1305.48
1307.34
1307.37
1306.68
1318.69
1328.65
1354.25
1321.42
1342.49
1358.64
1328.19
1320.56
1311.74
1308.44
1305.62
1305.58
1304.81
1304.37
1304.05
1303.94
1304.06
1304.06
1304.17
1304.31
1304.5
1305.12
1305.3
1307.12
1313.24
1327.14
1334.93
1358.11
1333.85
1299.79
1379.64
1349.14
1321.98
1312.65
1311.73
1309.77
1307.75
1306
1305.43
1305.12
1305.09
1305.05
1305.16
1305.24
1305.46
1306.32
1307.87
1309.69
1313.3
1314.98
1329.48
1356.08
1388.11
1347.5
1450.34
1424.34
1370.6
1353.14
1328.91
1314.59
1311.1
1309.78
1309.68
1308.29
1307.58
1307.41
1306.93
1307.36
1307.64
1308.49
1308.84
1309.62
1310.49
1315.04
1331.14
1357.54
1380.43
1438.73
1445.54
1657.12
1638.38
1462.32
1373.69
1348.93
1334.24
1324.05
1316.27
1314.03
1312.73
1312.08
1311.89
1310.77
1311.59
1312.02
1312.96
1314.15
1317.47
1324.06
1335.52
1354.76
1383.91
1496.27
1654.2
1743.29
2542.42
1807.53
1553.41
1459.8
1377.81
1350.18
1336.46
1328.23
1326.4
1323.17
1321.9
1320.92
1319.14
1320.6
1321.73
1323.47
1327.73
1328.67
1336.72
1351.91
1385.06
1471.54
1577.02
1916.25
2852.74
2783.44
2268.72
1834.76
1542.3
1462.03
1409.64
1377.64
1353.52
1347.31
1344.15
1342
1339.99
1338.18
1339.58
1341.66
1344.09
1347.68
1355.73
1376.39
1413.07
1465.33
1552.79
1975.06
2260.56
3088.69
3026.05
2732.66
2430.47
2268.99
1688.78
1525.97
1453.17
1419.81
1415.71
1401.23
1393.84
1389.22
1387.64
1388.74
1393.28
1400.98
1413.8
1417.97
1449.47
1518.75
1701.64
2271.66
2415.06
2798.53
3081.86
3022.57
2882.63
2863.76
2869.67
2284.42
2335.79
1968.56
1617.95
1566.87
1557.79
1552.91
1548.56
1550.69
1547.35
1551.13
1552.76
1560.37
1631.72
1944.39
2316.92
2300.7
2822.32
2828.78
2840.76
3065.89
2986.43
2888.77
2813.92
2892.49
2826.29
2830.52
2544.64
2413.34
2487.54
2234.17
2098.31
2110.15
2120.03
2105.97
2101.05
2265.39
2481.28
2389.33
2472.94
2810.92
2815.45
2865.81
2831.7
2891.33
3043.4
2933.24
2934.26
2836.02
2866.82
2848.61
2930.6
2971.8
2971.94
3043.79
3285.42
3479.49
3578.33
3597.89
3572.38
3485.09
3259.35
3004.28
2956.7
2958.21
2912.47
2836.78
2844.97
2824.89
2894.17
3015.01
2834.83
2813.52
2798.06
2849.88
2916.49
2977.73
3106.5
3218.66
3430.25
3563.35
3660.87
3727.26
3751.46
3724.48
3660.86
3550.04
3419.03
3214.83
3087.72
2958.18
2892.16
2841.73
2789.94
2830.35
2900.81
2689.57
2669.86
2667.53
2752.22
2894.23
3027.8
3152.53
3276.47
3374.61
3494.19
3568.4
3628.08
3651.23
3628.4
3570.67
3488.81
3382.95
3284.69
3167.19
3030.33
2887.45
2729.79
2646.76
2646.21
2735.07
2391.08
2453.78
2687.49
2842.77
2982.66
3116.46
3205.17
3240.82
3285.93
3319.36
3360.53
3399.27
3414.15
3401.92
3362.61
3320.25
3277.76
3239.04
3187.89
3085.54
2940.53
2783.99
2636.5
2442.66
2421.18
2189.37
2240.22
2431.78
2754.35
2955.64
3059.61
3112.18
3120.33
3137.25
3172.32
3202.59
3224.82
3232.91
3226.49
3205.29
3175.68
3144.45
3132.72
3126.55
3050.81
2942.15
2747.18
2396.43
2230.52
2211.68
2367.02
2440.26
2547.45
2699.53
2853.76
2934.82
2969.73
2985.8
3001.49
3027.73
3049.65
3062.41
3066.21
3061.91
3048.66
3027.25
3002.74
2987.73
2970.7
2927.56
2844.91
2694.84
2510.98
2406.83
2373.82
3380.89
2629.42
2378.69
2572.38
2709.68
2789.35
2824.41
2841.75
2857.69
2877.5
2893.81
2903.34
2906.16
2902.28
2891.85
2876.04
2857.86
2842.42
2822.97
2784.84
2705.2
2563.98
2374.07
2641.26
3408.02
3216.79
2410.79
2285.58
2430.27
2546.91
2622.44
2657.79
2681.94
2698.94
2717.38
2733.55
2743.78
2747.01
2742
2730.59
2715.56
2700.09
2686.1
2661.59
2626.02
2549.69
2422.09
2286.57
2435.66
3234.66
3153.82
2418.28
2213.27
2309.32
2390.21
2450.35
2485.61
2511.81
2535.56
2557.98
2577.72
2591.12
2594.89
2589.22
2575.67
2557.3
2537.67
2516.01
2489.81
2453.75
2391.7
2307.22
2216.71
2436.71
3168.53
2991.9
2394.48
2196.67
2201.28
2239.5
2289.06
2325.81
2356.83
2385.7
2411.99
2434.57
2449.09
2453.67
2447.44
2432.16
2410.68
2386.21
2358.54
2327.22
2289.08
2237.76
2197.03
2194.35
2389.03
2988.85
2894.28
2360.67
2191.52
2119.45
2118.09
2153.95
2186.46
2220.82
2252.78
2281.31
2304.52
2318.7
2323.23
2317.34
2302.33
2279.76
2252.34
2221.07
2186.45
2153.28
2116.14
2117.03
2192.65
2363.6
2922.44
2972.4
2373.12
2180.7
2060.25
2034.15
2046.78
2075.19
2103.22
2133.08
2160.75
2183.55
2197.09
2201.71
2196.64
2182.81
2159.99
2132.23
2102.05
2073.41
2043.21
2029.81
2051.6
2175.62
2376.24
2973.02
2977.28
2414.53
2165.67
1983.93
1966.65
1955.56
1979.36
2006.75
2033.79
2058
2078.35
2090.1
2093.98
2089.3
2076.71
2056.2
2031.61
2004.2
1976.16
1951.65
1960.51
1976.36
2159.98
2411.17
2981.41
2879.23
2491.56
2174.71
1989.89
1918.8
1888.62
1889.16
1912.44
1938.17
1961.79
1980.43
1990.87
1994.52
1991.07
1980.65
1961.65
1937.58
1911.15
1886.94
1885.61
1918.52
1989.76
2169.35
2478.43
2859.5
2440.66
2500.08
2193.52
1992.87
1880.97
1846.13
1834.1
1840.5
1855.71
1873.39
1889.42
1898.64
1901.66
1898.24
1888.51
1872.05
1854.04
1838.74
1832.18
1843.94
1875.52
1987.15
2177.4
2496.69
2472.55
2146.95
2486.9
2214.1
1994.33
1847.18
1807.44
1777.74
1777.1
1791.64
1803.24
1812.83
1819.43
1821.84
1819.81
1813.56
1804.17
1792.19
1776.51
1776.27
1804.97
1844.63
1994.21
2214.44
2482.37
2116.34
1961.79
2470.52
2237.87
2005.17
1856.93
1791.08
1763.16
1737.57
1729.82
1738.94
1747.83
1751.95
1753.05
1751.37
1745.85
1735.02
1727
1737.08
1762.63
1791.55
1856.89
2007.45
2248.46
2463.11
1955.61
1822.88
2415.82
2294.95
2052.24
1891.43
1796.08
1756.48
1729.18
1715.12
1703.12
1698.26
1698.28
1698.46
1698.32
1698.11
1702.76
1712.39
1726.26
1754.4
1794.6
1892.66
2051.16
2293.07
2418.34
1833.86
1728.4
2290.96
2285.22
2089.24
1968.69
1835.36
1764.02
1728.7
1706.88
1691.24
1681.69
1675.61
1673.64
1675.34
1681.19
1690.69
1705.86
1727.21
1763.08
1834.47
1970.18
2095.2
2284.01
2274.35
1716.16
1639.35
2005.33
2174.95
2066.04
1976.9
1897.24
1809.87
1748.28
1712.43
1691.52
1677.98
1669.95
1666.98
1669.78
1677.91
1691.49
1712.4
1750.13
1814.18
1898.43
1978
2068.09
2168.48
1996.25
1641.09
1614.25
1724.22
1902.25
1943.56
1940.33
1884.37
1840.22
1795.08
1749.69
1713.1
1689.74
1676.58
1672.49
1676.57
1689.11
1711.67
1748.91
1795.64
1840.98
1884.91
1940.74
1941.13
1896.33
1721.8
1609.03
1621.86
1591.38
1672.49
1728.18
1807.05
1830.94
1813.34
1785.43
1773.33
1758.17
1736.43
1722.62
1716.7
1723.72
1738.21
1760.32
1775.37
1787.49
1815.33
1832.36
1805.17
1722.77
1667.61
1590.01
1625.24
1553.58
1527.95
1547.9
1588.79
1651.59
1703.86
1740.34
1750.71
1747.64
1748.3
1753.31
1759.56
1761.25
1760.18
1755.33
1750.54
1750.07
1753.28
1742.75
1705.81
1651.2
1586.05
1546.35
1527.22
1549.56
947.38
1225.52
1434.05
1505.28
1559.25
1608.5
1650.3
1678.38
1701.39
1725.06
1739.52
1745.46
1748.26
1746.03
1740.66
1726.48
1702.91
1679.98
1651.03
1608.5
1557.67
1503.33
1431.2
1217.49
937.451
352.167
518.618
881.497
1266.97
1462.7
1538.67
1594.35
1631.89
1658.5
1679.34
1699.49
1712.72
1717.52
1712.69
1699.12
1679.36
1658.31
1631.37
1592.74
1536.04
1457.59
1258.07
870.358
509.663
348.607
274.541
279.038
331.381
572.545
950.121
1298.66
1490.09
1577.8
1626.4
1657.25
1677.7
1688.35
1691.84
1688.44
1677.47
1657.07
1625.8
1576.64
1487.88
1294.79
944.426
566.195
328.016
278.673
274.495
273.641
273.703
274.365
281.736
352.904
588.539
913.129
1237.1
1445.19
1562.45
1621.74
1648.08
1657.43
1648.18
1621.89
1562.39
1443.37
1234.06
909.088
584.647
350.589
281.39
274.322
273.696
273.642
273.678
273.67
273.657
273.674
274.696
283.12
339.097
498.981
716.924
929.762
1113.56
1218.46
1256.26
1216.84
1110.65
924.733
712.667
496.119
337.654
282.834
274.648
273.665
273.659
273.675
273.674
273.71
273.702
273.682
273.613
273.646
273.849
274.741
279.017
295.445
342.899
415.002
472.101
494.922
471.135
413.571
341.557
294.963
278.912
274.717
273.844
273.644
273.613
273.681
273.699
273.711
273.729
273.727
273.713
273.652
273.677
273.757
273.85
273.984
274.277
275.005
276.505
278.294
279.197
278.261
276.471
274.987
274.272
273.984
273.85
273.756
273.677
273.653
273.708
273.721
273.731
273.739
273.729
273.724
273.683
273.712
273.786
273.862
273.927
273.971
274.001
274.03
274.061
274.076
274.061
274.03
274.001
273.971
273.927
273.861
273.787
273.712
273.681
273.726
273.733
273.738
273.762
273.736
273.728
273.699
273.737
273.809
273.879
273.937
273.972
273.99
273.998
274
274.001
274
273.998
273.99
273.972
273.937
273.879
273.808
273.735
273.699
273.729
273.739
273.758
273.778
273.757
273.742
273.715
273.751
273.822
273.89
273.944
273.975
273.991
273.997
273.999
274
273.999
273.997
273.991
273.975
273.944
273.89
273.821
273.752
273.716
273.74
273.751
273.78
273.815
273.789
273.766
273.735
273.766
273.83
273.896
273.947
273.977
273.992
273.997
273.999
274
273.999
273.997
273.992
273.977
273.947
273.896
273.83
273.767
273.736
273.766
273.788
273.814
273.857
273.829
273.803
273.766
273.785
273.838
273.901
273.949
273.977
273.992
273.997
273.999
274
273.999
273.997
273.992
273.977
273.948
273.9
273.838
273.784
273.764
273.805
273.831
273.857
273.896
273.871
273.846
273.8
273.809
273.849
273.906
273.95
273.978
273.992
273.997
273.999
274
273.999
273.997
273.992
273.978
273.95
273.905
273.848
273.807
273.799
273.846
273.872
273.898
274.557
274.63
274.574
274.266
274.109
274.037
274.01
274.002
274
274
274
274
274
274
274
274
274
274
274
274
274
274
274
274
274
273.999
273.998
274
273.985
274.018
274.915
274.863
274.719
274.318
274.128
274.043
274.011
274.002
274
274
274
274
274
274
274
274
274
274
274
274
274
274
274
274
274
273.999
273.998
274
273.988
274.017
274.927
274.953
274.78
274.321
274.129
274.042
274.011
274.002
274
274
274
274
274
274
274
274
274
274
274
274
274
274
274
274
274
273.999
273.999
273.999
273.993
274.011
274.961
275.007
274.828
274.317
274.129
274.04
274.01
274.002
274
274
274
274
274
274
274
274
274
274
274
274
274
274
274
274
274
274
273.999
273.999
273.997
274.007
275.09
275.01
274.838
274.309
274.126
274.038
274.008
274.001
274
274
274
274
274
274
274
274
274
274
274
274
274
274
274
274
274
274
273.999
273.999
273.999
274.004
275.179
274.98
274.826
274.291
274.119
274.034
274.007
274.001
274
274
274
274
274
274
274
274
274
274
274
274
274
274
274
274
274
274
274
273.999
274
274.002
275.201
274.885
274.798
274.259
274.107
274.03
274.007
274.001
274
274
274
274
274
274
274
274
274
274
274
274
274
274
274
274
274
274
274
274
274
274.001
275.207
274.783
274.732
274.233
274.098
274.028
274.006
274.001
274
274
274
274
274
274
274
274
274
274
274
274
274
274
274
274
274
274
274
274
274
274.001
275.129
274.711
274.665
274.215
274.091
274.025
274.005
274.001
274
274
274
274
274
274
274
274
274
274
274
274
274
274
274
274
274
274
274
274
274
274.001
275.001
274.661
274.611
274.199
274.084
274.023
274.005
274.001
274
274
274
274
274
274
274
274
274
274
274
274
274
274
274
274
274
274
274
274
274
274.001
274.92
274.615
274.56
274.183
274.077
274.02
274.004
274.001
274
274
274
274
274
274
274
274
274
274
274
274
274
274
274
274
274
274
274
274
274
274.001
274.842
274.563
274.511
274.167
274.07
274.019
274.004
274.001
274
274
274
274
274
274
274
274
274
274
274
274
274
274
274
274
274
274
274
274
274
274.001
274.764
274.513
274.464
274.153
274.064
274.017
274.003
274
274
274
274
274
274
274
274
274
274
274
274
274
274
274
274
274
274
274
274
274
274
274.001
274.688
274.466
274.421
274.139
274.059
274.015
274.003
274
274
274
274
274
274
274
274
274
274
274
274
274
274
274
274
274
274
274
274
274
274
274.001
274.618
274.422
274.38
274.125
274.053
274.014
274.003
274
274
274
274
274
274
274
274
274
274
274
274
274
274
274
274
274
274
274
274
274
274
274.001
274.553
274.379
274.341
274.112
274.048
274.012
274.002
274
274
274
274
274
274
274
274
274
274
274
274
274
274
274
274
274
274
274
274
274
274
274.001
274.493
274.338
274.304
274.1
274.043
274.011
274.002
274
274
274
274
274
274
274
274
274
274
274
274
274
274
274
274
274
274
274
274
274
274
274.001
274.435
274.298
274.268
274.088
274.038
274.009
274.002
274
274
274
274
274
274
274
274
274
274
274
274
274
274
274
274
274
274
274
274
274
274
274.001
274.379
274.258
274.233
274.076
274.033
274.008
274.001
274
274
274
274
274
274
274
274
274
274
274
274
274
274
274
274
274
274
274
274
274
274
274.001
274.323
274.216
274.199
274.064
274.028
274.007
274.001
274
274
274
274
274
274
274
274
274
274
274
274
274
274
274
274
274
274
274
274
274
274
274.001
274.26
274.166
274.161
274.051
274.023
274.005
274.001
274
274
274
274
274
274
274
274
274
274
274
274
274
274
274
274
274
274
274
274
274
274
274.001
274.199
274.107
274.119
274.034
274.017
274.004
274.001
274
274
274
274
274
274
274
274
274
274
274
274
274
274
274
274
274
274
274
274
274
274
274.001
274.164
274.05
274.077
274.015
274.009
274.002
274
274
274
274
274
274
274
274
274
274
274
274
274
274
274
274
274
274
274
274
274
274
274
274.001
274.146
274.002
274.046
273.996
274.001
274
274
274
274
274
274
274
274
274
274
274
274
274
274
274
274
274
274
274
274
274
274
274
274
274.001
274.114
273.954
274.023
273.98
273.995
273.998
274
274
274
274
274
274
274
274
274
274
274
274
274
274
274
274
274
274
274
274
274
274
274
274.001
274.018
273.985
274
273.998
273.999
274
274
274
274
274
274
274
274
274
274
274
274
274
274
274
274
274
274.002
274.01
274.037
274.109
274.266
274.574
274.63
274.556
274.017
273.988
274
273.998
273.999
274
274
274
274
274
274
274
274
274
274
274
274
274
274
274
274
274
274.002
274.011
274.043
274.128
274.318
274.719
274.863
274.914
274.011
273.993
273.999
273.999
273.999
274
274
274
274
274
274
274
274
274
274
274
274
274
274
274
274
274
274.002
274.011
274.042
274.129
274.321
274.779
274.952
274.927
274.007
273.997
273.999
273.999
274
274
274
274
274
274
274
274
274
274
274
274
274
274
274
274
274
274
274.002
274.01
274.04
274.129
274.317
274.828
275.007
274.961
274.004
273.999
273.999
273.999
274
274
274
274
274
274
274
274
274
274
274
274
274
274
274
274
274
274
274.001
274.008
274.038
274.126
274.309
274.838
275.01
275.091
274.002
274
273.999
274
274
274
274
274
274
274
274
274
274
274
274
274
274
274
274
274
274
274
274.001
274.007
274.034
274.119
274.291
274.826
274.98
275.179
274.001
274
274
274
274
274
274
274
274
274
274
274
274
274
274
274
274
274
274
274
274
274
274.001
274.007
274.03
274.107
274.259
274.798
274.885
275.2
274.001
274
274
274
274
274
274
274
274
274
274
274
274
274
274
274
274
274
274
274
274
274
274.001
274.006
274.028
274.098
274.233
274.732
274.784
275.207
274.001
274
274
274
274
274
274
274
274
274
274
274
274
274
274
274
274
274
274
274
274
274
274.001
274.005
274.025
274.091
274.215
274.665
274.711
275.129
274.001
274
274
274
274
274
274
274
274
274
274
274
274
274
274
274
274
274
274
274
274
274
274.001
274.005
274.023
274.084
274.199
274.611
274.661
275.001
274.001
274
274
274
274
274
274
274
274
274
274
274
274
274
274
274
274
274
274
274
274
274
274.001
274.004
274.021
274.077
274.183
274.56
274.615
274.919
274.001
274
274
274
274
274
274
274
274
274
274
274
274
274
274
274
274
274
274
274
274
274
274.001
274.004
274.019
274.07
274.167
274.511
274.563
274.842
274.001
274
274
274
274
274
274
274
274
274
274
274
274
274
274
274
274
274
274
274
274
274
274
274.003
274.017
274.064
274.153
274.464
274.513
274.764
274.001
274
274
274
274
274
274
274
274
274
274
274
274
274
274
274
274
274
274
274
274
274
274
274.003
274.015
274.059
274.139
274.421
274.466
274.689
274.001
274
274
274
274
274
274
274
274
274
274
274
274
274
274
274
274
274
274
274
274
274
274
274.003
274.014
274.053
274.125
274.38
274.422
274.618
274.001
274
274
274
274
274
274
274
274
274
274
274
274
274
274
274
274
274
274
274
274
274
274
274.002
274.012
274.048
274.112
274.341
274.379
274.553
274.001
274
274
274
274
274
274
274
274
274
274
274
274
274
274
274
274
274
274
274
274
274
274
274.002
274.011
274.043
274.1
274.304
274.338
274.493
274.001
274
274
274
274
274
274
274
274
274
274
274
274
274
274
274
274
274
274
274
274
274
274
274.002
274.009
274.038
274.088
274.268
274.298
274.435
274.001
274
274
274
274
274
274
274
274
274
274
274
274
274
274
274
274
274
274
274
274
274
274
274.001
274.008
274.033
274.076
274.233
274.258
274.379
274.001
274
274
274
274
274
274
274
274
274
274
274
274
274
274
274
274
274
274
274
274
274
274
274.001
274.007
274.028
274.064
274.199
274.216
274.323
274.001
274
274
274
274
274
274
274
274
274
274
274
274
274
274
274
274
274
274
274
274
274
274
274.001
274.005
274.023
274.051
274.161
274.166
274.26
274.001
274
274
274
274
274
274
274
274
274
274
274
274
274
274
274
274
274
274
274
274
274
274
274.001
274.004
274.017
274.034
274.119
274.107
274.198
274.001
274
274
274
274
274
274
274
274
274
274
274
274
274
274
274
274
274
274
274
274
274
274
274
274.002
274.009
274.015
274.077
274.05
274.164
274.001
274
274
274
274
274
274
274
274
274
274
274
274
274
274
274
274
274
274
274
274
274
274
274
274
274.001
273.996
274.046
274.002
274.146
274.001
274
274
274
274
274
274
274
274
274
274
274
274
274
274
274
274
274
274
274
274
274
274
274
273.998
273.995
273.98
274.023
273.954
274.114
274.001
274.001
274.001
274.001
274.001
274.001
274.001
274.001
274.001
274.001
274.001
274.001
274.001
274.001
274.001
274.001
274.001
274.001
274.001
274.001
274.001
274.001
274.001
274.001
274.001
274.001
274.001
274.001
274.001
274.001
274.001
274.001
274.001
274.001
274.001
274.001
274.001
274.001
274.001
274.001
274.001
274.001
274.001
274.001
274.001
274.001
274.001
274.001
274.001
274.001
274.001
274.001
274.001
274.001
274.001
274.001
274.001
274.001
274.001
274.001
274.001
274.001
274.001
274.001
274.001
274.001
274.001
274.001
274.001
274.001
274.001
274.001
274.001
274.001
274.001
274.001
274.001
274.001
274.001
274.001
274.001
274.001
274.001
274.001
274.001
274.001
274.001
274.001
274.001
274.001
274.001
274.001
274.001
274.001
274.001
274.001
274.001
274.001
274.001
274.001
274.001
274.001
274.001
274.001
274.001
274.001
274.001
274.001
274.001
274.001
274.001
274.001
274.001
274.001
274.001
274.001
274.001
274.001
274.001
274.001
274.001
274.001
274.001
274.001
274.001
274
274
274
274
274
274
274
274
274
274
274
274
274
274
274
274
274
274
274
274
274
274
274
274
274
274
274
274
274
274
274
274
274
274
274
274
274
274
274
274
274
274
274
274
274
274
274
274
274
274
274
274
274
274
274
274
274
274
274
274
274
274
274
274
274
274
274
274
274
274
274
274
274
274
274
274
274
274
274
274
274
274
274
274
274
274
274
274
274
274
274
274
274
274
274
274
274
274
274
274
274
274
274
274
274
274
274
274
274
274
274
274
274
274
274
274
274
274
274
274
274
274
274
274
274
274
274
274
274
274
274
274
274
274
274
274
274
274
274
274
274
274
274
274
274
274
274
274
274
274
274
274
274
274
274
274
274
274
274
274
274
274
274
274
274
274
274
274
274
274
274
274
274
274
274
274
274
274
274
274
274
274
274
274
274
274
274
274
274
274
274
274
274
274
274
274
274
274
274
274
274
274
274
274
274
274
274
274
274
274
274
274
274
274
274
274
274
274
274
274
274
274
274
274
274
274
274
274
274
274
274
274
274
274
274
274
274
274
274
274
274
274
274
274
274
274
274
274
274
274
274
274
274
274
274
274
274
274
274
274
274
274
274
274
274
274
274
274
274
274
274
274
274
274
274
274
274
274
274
274
274
274
274
274
274
274
274
274
274
274
274
274
274
274
274
274
274
274
274
274
274
274
274
274
274
274
274
274
274
274
274
274
274
274
274
274
274
274
274
274
274
274
274
274
274
274
274
274
274
274
274
274
274
274
274
274
274
274
274
274
274
274
274
274
274
274
274
274
274
274
274
274
274
274
274
274
274
274
274
274
274
274
274
274
274
274
274
274
274
274
274
274
274
274
274
274
274
274
274
274
274
274
274
274
274
274
274
274
274
274
274
274
274
274
274
274
274
274
274
274
274
274
274
274
274
274
274
274
274
274
274
274
274
274
274
274
274
274
274
274
274
274
274
274
274
274
274
274
274
274
274
274
274
274
274
274
274
274
274
274
274
274
274
274
274
274
274
274
274
274
274
274
274
274
274
274
274
274
274
274
274
274
274
274
274
274
274
274
274
274
274
274
274
274
274
274
274
274
274
274
274
274
274
274
274
274
274
274
274
274
274
274
274
274
274
274
274
274
274
274
274
274
274
274
274
274
274
274
274
274
274
274
274
274
274
274
274
274
274
274
274
274
274
274
274
274
274
274
274
274
274
274
274
274
274
274
274
274
274
274
274
274
274
274
274
274
274
274
274
274
274
274
274
274
274
274
274
274
274
274
274
274
274
274
274
274
274
274
274
274
274
274
274
274
274
274
274
274
274
274
274
274
274
274
274
274
274
274
274
274
274
274
274
274
274
274
274
274
274
274
274
274
274
274
274
274
274
274
274
274
274
274
274
274
274
274
274
274
274
274
274
274
274
274
274
274
274
274
274
274
274
274
274
274
274
274
274
274
274
274
274
274
274
274
274
274
274
274
274
274
274
274
274
274
274
274
274
274
274
274
274
274
274
274
274
274
274
274
274
274
274
274
274
274
274
274
274
274
274
274
274
274
274
274
274
274
274
274
274
274
274
274
274
274
274
274
274
274
274
274
274
274
274
274
274
274
274
274
274
274
274
274
274
274
274
274
274
274
274
274
274
274
274
274
274
274
274
274
274
274
274
274
274
274
274
274
274
274
274
274
274
274
274
274
274
274
274
274
274
274
274
274
274
274
274
274
274
274
274
274
274
274
274
274
274
274
274
274
274
274
274
274
274
274
274
274
274
274
274
274
274
274
274
274
274
274
274
274
274
274
274
274
274
274
274
274
274
274
274
274
274
274
274
274
274
274
274
274
274
274
274
274
274
274
274
274
274
274
274
274
274
274
274
274
274
274
274
274
274
274
274
274
274
274
274
274
274
274
274
274
274
274
274
274
274
274
274
274
274
274
274
274
274
274
274
274
274
274
274
274
274
274
274
274
274
274
274
274
274
274
274
274
274
274
274
274
274
274
274
274
274
274
274
274
274
274
274
274
274
274
274
274
274
274
274
274
274
274
274
274
274
274
274
274
274
274
274
274
274
274
274
274
274
274
274
274
274
274
274
274
274
274
274
274
274
274
274
274
274
274
274
274
274
274
274
274
274
274
274
274
274
274
274
274
274
274
274
274
274
274
274
274
274
274
274
274
274
274
274
274
274
274
274
274
274
274
274
274
274
274
274
274
274
274
274
274
274
274
274
274
274
274
274
274
274
274
274
274
274
274
274
274
274
274
274
274
274
274
274
274
274
274
274
274
274
274
274
274
274
274
274
274
274
274
274
274
274
274
274
274
274
274
274
274
274
274
274
274
274
274
274
274
274
274
274
274
274
274
274
274
274
274
274
274
274
274
274
274
274
274
274
274
274
274
274
274
274
274
274
274
274
274
274
274
274
274
274
274
274
274
274
274
274
274
274
274
274
274
274
274
274
274
274
274
274
274
274
274
274
274
274
274
274
274
274
274
274
274
274
274
274
274
274
274
274
274
274
274
274
274
274
274
274
274
274
274
274
274
274
274
274
274
274
274
274
274
274
274
274
274
274
274
274
274
274
274
274
274
274
274
274
274
274
274
274
274
274
274
274
274
274
274
274
274
274
274
274
274
274
274
274
274
274
274
274
274
274
274
274
274
274
274
274
274
274
274
274
274
274
274
274
274
274
274
274
274
274
274
274
274
274
274
274
274
274
274
274
274
274
274
274
274
274
274
274
274
274
274
274
274
274
274
274
274
274
274
274
274
274
274
274
274
274
274
274
274
274
274
274
274
274
274
274
274
274
274
274
274
274
274
274
274
274
274
274
274
274
274
274
274
274
274
274
274
274
274
274
274
274
274
274
274
274
274
274
274
274
274
274
274
274
274
274
274
274
274
274
274
274
274
274
274
274
274
274
274
274
274
274
274
274
274
274
274
274
274
274
274
274
274
274
274
274
274
274
274
274
274
274
274
274
274
274
274
274
274
274
274
274
274
274
274
274
274
274
274
274
274
274
274
274
274
274
274
274
274
274
274
274
274
274
274
274
274
274
274
274
274
274
274
274
274
274
274
274
274
274
274
274
274
274
274
274
274
274
274
274
274
274
274
274
274
274
274
274
274
274
274
274
274
274
274
274
274
274
274
274
274
274
274
274
274
274
274
274
274
274
274
274
274
274
274
274
274
274
274
274
274
274
274
274
274
274
274
274
274
274
274
274
274
274
274
274
274
274
274
274
274
274
274
274
274
274
274
274
274
274
274
274
274
274
274
274
274
274
274
274
274
274
274
274
274
274
274
274
274
274
274
274
274
274
274
274
274
274
274
274
274
274
274
274
274
274
274
274
274
274
274
274
274
274
274
274
274
274
274
274
274
274
274
274
274
274
274
274
274
274
274
274
274
274
274
274
274
274
274
274
274
274
274
274
274
274
274
274
274
274
274
274
274
274
274
274
274
274
274
274
274
274
274
274
274
274
274
274
274
274
274
274
274
274
274
274
274
274
274
274
274
274
274
274
274
274
274
274
274
274
274
274
274
274
274
274
274
274
274
274
274
274
274
274
274
274
274
274
274
274
274
274
274
274
274
274
274
274
274
274
274
274
274
274
274
274
274
274
274
274
274
274
274
274
274
274
274
274
274
274
274
274
274
274
274
274
274
274
274
274
274
274
274
274
274
274
274
274
274
274
274
274
274
274
274
274
274
274
274
274
274
274
274
274
274
274
274
274
274
274
274
274
274
274
274
274
274
274
274
274
274
274
274
274
274
274
274
274
274
274
274
274
274
274
274
274
274
274
274
274
274
274
274
274
274
274
274
274
274
274
274
274
274
274
274
274
274
274
274
274
274
274
274
274
274
274
274
274
274
274
274
274
274
274
274
274
274
274
274
274
274
274
274
274
274
274
274
274
274
274
274
274
274
274
274
274
274
274
274
274
274
274
274
274
274
274
274
274
274
274
274
274
274
274
274
274
274
274
274
274
274
274
274
274
274
274
274
274
274
274
274
274
274
274
274
274
274
274
274
274
274
274
274
274
274
274
274
274
274
274
274
274
274
274
274
274
274
274
274
274
274
274
274
274
274
274
274
274
274
274
274
274
274
274
274
274
274
274
274
274
274
274
274
274
274
274
274
274
274
274
274
274
274
274
274
274
274
274
274
274
274
274
274
274
274
274
274
274
274
274
274
274
274
274
274
274
274
274
274
274
274
274
274
274
274
274
274
274
274
274
274
274
274
274
274
274
274
274
274
274
274
274
274
274
274
274
274
274
274
274
274
274
274
274
274
274
274
274
274
274
274
274
274
274
274
274
274
274
274
274
274
274
274
274
274
274
274
274
274
274
274
274
274
274
274
274
274
274
274
274
274
274
274
274
274
274
274
274
274
274
274
274
274
274
274
274
274
274
274
274
274
274
274
274
274
274
274
274
274
274
274
274
274
274
274
274
274
274
274
274
274
274
274
274
274
274
274
274
274
274
274
274
274
274
274
274
274
274
274
274
274
274
274
274
274
274
274
274
274
274
274
274
274
274
274
274
274
274
274
274
274
274
274
274
274
274
274
274
274
274
274
274
274
274
274
274
274
274
274
274
274
274
274
274
274
274
274
274
274
274
274
274
274
274
274
274
274
274
274
274
274
274
274
274
274
274
274
274
274
274
274
274
274
274
274
274
274
274
274
274
274
274
274
274
274
274
274
274
274
274
274
274
274
274
274
274
274
274
274
274
274
274
274
274
274
274
274
274
274
274
274
274
274
274
274
274
274
274
274
274
274
274
274
274
274
274
274
274
274
274
274
274
274
274
274
274
274
274
274
274
274
274
274
274
274
274
274
274
274
274
274
274
274
274
274
274
274
274
274
274
274
274
274
274
274
274
274
274
274
274
274
274
274
274
274
274
274
274
274
274
274
274
274
274
274
274
274
274
274
274
274
274
274
274
274
274
274
274
274
274
274
274
274
274
274
274
274
274
274
274
274
274
274
274
274
274
274
274
274
274
274
274
274
274
274
274
274
274
274
274
274
274
274
274
274
274
274
274
274
274
274
274
274
274
274
274
274
274
274
274
274
274
274
274
274
274
274
274
274
274
274
274
274
274
274
274
274
274
274
274
274
274
274
274
274
274
274
274
274
274
274
274
274
274
274
274
274
274
274
274
274
274
274
274
274
274
274
274
274
274
274
274
274
274
274
274
274
274
274
274
274
274
274
274
274
274
274
274
274
274
274
274
274
274
274
274
274
274
274
274
274
274
274
274
274
274
274
274
274
274
274
274
274
274
274
274
274
274
274
274
274
274
274
274
274
274
274
274
274
274
274
274
274
274
274
274
274
274
274
274
274
274
274
274
274
274
274
274
274
274
274
274
274
274
274
274
274
274
274
274
274
274
274
274
274
274
274
274
274
274
274
274
274
274
274
274
274
274
274
274
274
274
274
274
274
274
274
274
274
274
274
274
274
274
274
274
274
274
274
274
274
274
274
274
274
274
274
274
274
274
274
274
274
274
274
274
274
274
274
274
274
274
274
274
274
274
274
274
274
274
274
274
274
274
274
274
274
274
274
274
274
274
274
274
274
274
274
274
274
274
274
274
274
274
274
274
274
274
274
274
274
274
274
274
274
274
274
274
274
274
274
274
274
274
274
274
274
274
274
274
274
274
274
274
274
274
274
274
274
274
274
274
274
274
274
274
274
274
274
274
274
274
274
274
274
274
274
274
274
274
274
274
274
274
274
274
274
274
274
274
274
274
274
274
274
274
274
274
274
274
274
274
274
274
274
274
274
274
274
274
274
274
274
274
274
274
274
274
274
274
274
274
274
274
274
274
274
274
274
274
274
274
274
274
274
274
274
274
274
274
274
274
274
274
274
274
274
274
274
274
274
274
274
274
274
274
274
274
274
274
274
274
274
274
274
274
274
274
274
274
274
274
274
274
274
274