/*--------------------------------*- C++ -*----------------------------------*\
| =========                 |                                                 |
| \\      /  F ield         | OpenFOAM: The Open Source CFD Toolbox           |
|  \\    /   O peration     | Version:  2112                                  |
|   \\  /    A nd           | Website:  www.openfoam.com                      |
|    \\/     M anipulation  |                                                 |
\*---------------------------------------------------------------------------*/
FoamFile
{
    version     2.0;
    format      ascii;
    arch        "LSB;label=32;scalar=64";
    class       volScalarField;
    location    "0.00011";
    object      epsilon;
}
// * * * * * * * * * * * * * * * * * * * * * * * * * * * * * * * * * * * * * //

dimensions      [0 2 -3 0 0 0 0];

internalField   nonuniform List<scalar> 
13875
(
1.43873e+07
3.65652e+08
6.03786e+08
7.24381e+08
7.89664e+08
8.30796e+08
8.53393e+08
8.6564e+08
8.715e+08
8.73939e+08
8.74933e+08
8.75307e+08
8.75384e+08
8.75317e+08
8.74915e+08
8.7392e+08
8.71552e+08
8.65619e+08
8.53423e+08
8.31008e+08
7.89623e+08
7.24912e+08
6.05358e+08
3.70991e+08
1.45235e+07
1.32383e+08
5.65305e+08
8.40428e+08
1.00764e+09
1.11064e+09
1.17587e+09
1.2127e+09
1.23211e+09
1.24146e+09
1.24543e+09
1.24704e+09
1.24764e+09
1.24779e+09
1.24768e+09
1.24711e+09
1.24556e+09
1.24167e+09
1.23228e+09
1.21295e+09
1.17634e+09
1.11108e+09
1.0088e+09
8.43305e+08
5.71015e+08
1.34151e+08
4.72883e+08
9.07526e+08
1.22469e+09
1.44265e+09
1.58806e+09
1.68044e+09
1.73287e+09
1.76024e+09
1.77328e+09
1.77904e+09
1.78138e+09
1.78224e+09
1.78245e+09
1.78227e+09
1.78146e+09
1.7792e+09
1.77352e+09
1.76044e+09
1.73305e+09
1.68066e+09
1.58803e+09
1.44296e+09
1.22635e+09
9.08655e+08
4.65917e+08
1.03895e+09
1.2984e+09
1.6403e+09
1.89756e+09
2.07681e+09
2.19189e+09
2.25717e+09
2.29157e+09
2.30791e+09
2.31533e+09
2.31836e+09
2.31948e+09
2.31975e+09
2.31949e+09
2.31844e+09
2.31552e+09
2.30818e+09
2.29182e+09
2.25737e+09
2.19206e+09
2.07665e+09
1.89757e+09
1.64113e+09
1.29518e+09
1.01575e+09
1.60618e+09
1.69977e+09
2.05614e+09
2.34485e+09
2.5495e+09
2.68007e+09
2.75477e+09
2.79498e+09
2.81445e+09
2.8233e+09
2.82693e+09
2.82826e+09
2.82858e+09
2.82826e+09
2.827e+09
2.82351e+09
2.81477e+09
2.79535e+09
2.7552e+09
2.68061e+09
2.54998e+09
2.34567e+09
2.05797e+09
1.69612e+09
1.58921e+09
1.77971e+09
1.82221e+09
2.14481e+09
2.43517e+09
2.63054e+09
2.75104e+09
2.82026e+09
2.85738e+09
2.87577e+09
2.88404e+09
2.88745e+09
2.8887e+09
2.88899e+09
2.88867e+09
2.88748e+09
2.88418e+09
2.87601e+09
2.85771e+09
2.82071e+09
2.75171e+09
2.63217e+09
2.43858e+09
2.14367e+09
1.81711e+09
1.7628e+09
1.70289e+09
1.71905e+09
2.03152e+09
2.32025e+09
2.51263e+09
2.6279e+09
2.692e+09
2.72487e+09
2.74084e+09
2.74797e+09
2.75088e+09
2.75194e+09
2.75219e+09
2.75192e+09
2.75084e+09
2.7479e+09
2.74065e+09
2.72433e+09
2.69067e+09
2.62518e+09
2.50881e+09
2.31455e+09
2.02337e+09
1.71003e+09
1.68492e+09
1.26126e+09
1.36285e+09
1.61963e+09
1.8552e+09
2.0114e+09
2.10542e+09
2.15699e+09
2.18301e+09
2.19528e+09
2.20062e+09
2.20272e+09
2.20344e+09
2.20362e+09
2.20344e+09
2.20267e+09
2.20052e+09
2.19513e+09
2.1827e+09
2.1563e+09
2.10411e+09
2.00959e+09
1.85232e+09
1.61513e+09
1.35574e+09
1.24711e+09
8.10376e+08
1.05218e+09
1.29228e+09
1.48643e+09
1.61034e+09
1.68388e+09
1.72341e+09
1.74282e+09
1.75166e+09
1.75537e+09
1.75678e+09
1.75725e+09
1.75736e+09
1.75725e+09
1.75675e+09
1.75534e+09
1.75166e+09
1.74282e+09
1.72339e+09
1.68388e+09
1.61056e+09
1.48696e+09
1.29185e+09
1.05081e+09
8.00691e+08
5.75143e+08
8.12355e+08
1.0162e+09
1.16565e+09
1.2583e+09
1.31219e+09
1.34024e+09
1.35361e+09
1.35953e+09
1.36193e+09
1.36279e+09
1.36304e+09
1.36304e+09
1.36288e+09
1.36248e+09
1.36146e+09
1.35891e+09
1.35286e+09
1.33935e+09
1.31116e+09
1.25708e+09
1.16418e+09
1.01438e+09
8.10623e+08
5.63985e+08
2.15112e+08
3.82156e+08
4.9097e+08
5.64993e+08
6.08374e+08
6.32786e+08
6.45283e+08
6.51246e+08
6.53932e+08
6.551e+08
6.5562e+08
6.55854e+08
6.5592e+08
6.55888e+08
6.55757e+08
6.55359e+08
6.54294e+08
6.51712e+08
6.45858e+08
6.33456e+08
6.09067e+08
5.65449e+08
4.91266e+08
3.82097e+08
2.19296e+08
1.04232e+07
4.17303e+07
5.8381e+07
6.85402e+07
7.42746e+07
7.76243e+07
7.94362e+07
8.03664e+07
8.08215e+07
8.10443e+07
8.11646e+07
8.12345e+07
8.12648e+07
8.12697e+07
8.12505e+07
8.11809e+07
8.10023e+07
8.05896e+07
7.97032e+07
7.79273e+07
7.45678e+07
6.87023e+07
5.85028e+07
4.16292e+07
1.06228e+07
1.75149e+06
676756
703425
771796
819550
848599
864557
872925
877115
879226
880418
881140
881452
881504
881330
880641
878872
874986
866968
851326
822160
772899
703667
671706
1.74586e+06
1.77856e+06
416749
274224
256080
253836
253455
253380
253371
253373
253375
253375
253375
253374
253372
253370
253366
253361
253356
253361
253430
253796
255924
273264
412258
1.74812e+06
1.81297e+06
430501
275543
255047
252347
251833
251703
251672
251665
251664
251664
251663
251663
251664
251664
251664
251665
251674
251711
251861
252442
255447
277463
438500
1.8347e+06
1.90915e+06
452500
280243
255754
252436
251853
251707
251668
251659
251658
251657
251657
251657
251657
251657
251658
251660
251669
251711
251867
252488
256004
281482
457311
1.93291e+06
1.9046e+06
449348
278748
255268
252262
251797
251692
251665
251659
251657
251657
251657
251657
251657
251657
251657
251659
251665
251691
251792
252243
255152
278148
446829
1.90214e+06
1.88857e+06
439672
276037
254531
251990
251709
251668
251660
251658
251657
251657
251657
251657
251657
251657
251657
251658
251659
251668
251705
251973
254485
275989
440092
1.88329e+06
1.90944e+06
458022
279800
254632
251723
251588
251632
251651
251656
251657
251657
251657
251657
251657
251657
251657
251656
251652
251634
251591
251699
254348
278077
451290
1.89183e+06
1.91646e+06
474502
283990
254954
251525
251477
251598
251643
251654
251657
251657
251657
251657
251657
251657
251657
251654
251643
251598
251478
251536
255038
284489
476523
1.93116e+06
1.78231e+06
443997
276788
253595
251349
251472
251604
251646
251655
251657
251657
251657
251657
251657
251657
251657
251655
251644
251599
251458
251349
253850
278504
451157
1.80319e+06
1.66545e+06
412642
269813
252620
251371
251534
251627
251651
251656
251657
251657
251657
251657
251657
251657
251657
251656
251650
251624
251523
251351
252664
270347
414841
1.66735e+06
1.56452e+06
387685
265008
252163
251454
251586
251642
251654
251657
251657
251657
251657
251657
251657
251657
251657
251657
251654
251642
251587
251453
252109
264473
384700
1.55407e+06
1.47696e+06
365491
261278
251911
251527
251619
251650
251656
251657
251657
251657
251657
251657
251657
251657
251657
251657
251656
251650
251620
251529
251915
261307
365758
1.4802e+06
1.42611e+06
353807
259554
251833
251568
251634
251653
251657
251657
251657
251657
251657
251657
251657
251657
251657
251657
251657
251653
251634
251567
251842
259688
354684
1.42774e+06
1.37221e+06
343572
258184
251775
251592
251642
251655
251657
251657
251657
251657
251657
251657
251657
251657
251657
251657
251657
251655
251643
251593
251764
257968
341951
1.36698e+06
1.31947e+06
332662
256839
251725
251610
251647
251656
251657
251657
251657
251657
251657
251657
251657
251657
251657
251657
251657
251656
251647
251609
251734
257037
334367
1.32651e+06
1.28321e+06
326124
256099
251706
251621
251650
251656
251657
251657
251657
251657
251657
251657
251657
251657
251657
251657
251657
251656
251650
251621
251706
256125
326262
1.28099e+06
1.24522e+06
320250
255497
251693
251629
251652
251656
251657
251657
251657
251657
251657
251657
251657
251657
251657
251657
251657
251656
251652
251631
251686
255267
318026
1.2388e+06
1.20283e+06
311912
254697
251678
251637
251654
251657
251657
251657
251657
251657
251657
251657
251657
251657
251657
251657
251657
251657
251654
251637
251683
254878
313894
1.21095e+06
1.17875e+06
307760
254330
251675
251642
251655
251657
251657
251657
251657
251657
251657
251657
251657
251657
251657
251657
251657
251657
251655
251642
251674
254322
307611
1.17565e+06
1.15496e+06
304790
254092
251674
251645
251655
251657
251657
251657
251657
251657
251657
251657
251657
251657
251657
251657
251657
251657
251655
251646
251672
253978
303433
1.15162e+06
1.12611e+06
299569
253686
251669
251648
251656
251657
251657
251657
251657
251657
251657
251657
251657
251657
251657
251657
251657
251657
251656
251648
251671
253772
300694
1.13033e+06
1.10927e+06
296923
253494
251669
251650
251656
251657
251657
251657
251657
251657
251657
251657
251657
251657
251657
251657
251657
251657
251656
251650
251669
253477
296645
1.10689e+06
1.09308e+06
295284
253386
251669
251651
251656
251657
251657
251657
251657
251657
251657
251657
251657
251657
251657
251657
251657
251657
251656
251651
251668
253316
294316
1.09126e+06
1.07256e+06
291714
253149
251667
251652
251656
251657
251657
251657
251657
251657
251657
251657
251657
251657
251657
251657
251657
251657
251656
251652
251668
253219
292781
1.07601e+06
1.06035e+06
289942
253039
251667
251653
251657
251657
251657
251657
251657
251657
251657
251657
251657
251657
251657
251657
251657
251657
251657
251653
251667
253031
289785
1.05867e+06
1.04878e+06
288948
252984
251668
251654
251657
251657
251657
251657
251657
251657
251657
251657
251657
251657
251657
251657
251657
251657
251657
251654
251667
252932
288142
1.04747e+06
1.03434e+06
286410
252835
251667
251655
251657
251657
251657
251657
251657
251657
251657
251657
251657
251657
251657
251657
251657
251657
251657
251654
251668
252889
287319
1.03689e+06
1.02568e+06
285196
252769
251667
251655
251657
251657
251657
251657
251657
251657
251657
251657
251657
251657
251657
251657
251657
251657
251657
251655
251668
252765
285097
1.0245e+06
1.01763e+06
284635
252743
251668
251655
251657
251657
251657
251657
251657
251657
251657
251657
251657
251657
251657
251657
251657
251657
251657
251655
251668
252703
283927
1.01667e+06
1.00772e+06
282785
252646
251668
251656
251657
251657
251657
251657
251657
251657
251657
251657
251657
251657
251657
251657
251657
251657
251657
251656
251668
252686
283515
1.00943e+06
1.00184e+06
281946
252606
251668
251656
251657
251657
251657
251657
251657
251657
251657
251657
251657
251657
251657
251657
251657
251657
251657
251656
251668
252605
281913
1.00113e+06
996509
281674
252596
251669
251656
251657
251657
251657
251657
251657
251657
251657
251657
251657
251657
251657
251657
251657
251657
251657
251656
251669
252565
281074
995861
990156
280329
252532
251669
251656
251657
251657
251657
251657
251657
251657
251657
251657
251657
251657
251657
251657
251657
251657
251657
251656
251669
252559
280864
991133
986496
279758
252507
251669
251657
251657
251657
251657
251657
251657
251657
251657
251657
251657
251657
251657
251657
251657
251657
251657
251657
251670
252510
279794
986147
983287
279681
252508
251670
251657
251657
251657
251657
251657
251657
251657
251657
251657
251657
251657
251657
251657
251657
251657
251657
251657
251670
252483
279186
982897
979716
278718
252465
251670
251657
251657
251657
251657
251657
251657
251657
251657
251657
251657
251657
251657
251657
251657
251657
251657
251657
251670
252481
279074
980163
977771
278316
252449
251670
251657
251657
251657
251657
251657
251657
251657
251657
251657
251657
251657
251657
251657
251657
251657
251657
251657
251670
252455
278448
977649
977448
277778
252424
251668
251657
251657
251657
251657
251657
251657
251657
251657
251657
251657
251657
251657
251657
251657
251657
251657
251657
251668
252415
277603
977372
536517
258328
252630
252503
252486
252473
252461
252449
252437
252426
252414
252403
252393
252382
252372
252362
252353
252343
252334
252325
252316
252307
252299
252291
252283
252275
252267
252269
254048
472422
562199
255520
251767
251685
251680
251680
251679
251678
251678
251677
251676
251676
251675
251675
251674
251674
251673
251673
251672
251672
251672
251671
251671
251671
251670
251670
251670
251681
253699
474977
539047
254460
251723
251660
251658
251658
251658
251658
251657
251657
251657
251657
251657
251657
251657
251657
251657
251657
251657
251657
251657
251657
251657
251657
251657
251657
251657
251670
253759
479116
526028
254439
251714
251659
251657
251657
251657
251657
251657
251657
251657
251657
251657
251657
251657
251657
251657
251657
251657
251657
251657
251657
251657
251657
251657
251657
251657
251671
253809
482713
526200
254588
251714
251659
251657
251657
251657
251657
251657
251657
251657
251657
251657
251657
251657
251657
251657
251657
251657
251657
251657
251657
251657
251657
251657
251657
251657
251671
253863
486031
526956
254599
251711
251659
251657
251657
251657
251657
251657
251657
251657
251657
251657
251657
251657
251657
251657
251657
251657
251657
251657
251657
251657
251657
251657
251657
251657
251672
253918
489245
526547
254559
251708
251659
251657
251657
251657
251657
251657
251657
251657
251657
251657
251657
251657
251657
251657
251657
251657
251657
251657
251657
251657
251657
251657
251657
251657
251672
253971
492327
524795
254506
251705
251658
251657
251657
251657
251657
251657
251657
251657
251657
251657
251657
251657
251657
251657
251657
251657
251657
251657
251657
251657
251657
251657
251657
251657
251673
254020
495213
523018
254473
251701
251658
251657
251657
251657
251657
251657
251657
251657
251657
251657
251657
251657
251657
251657
251657
251657
251657
251657
251657
251657
251657
251657
251657
251657
251673
254064
497866
521767
254459
251698
251658
251657
251657
251657
251657
251657
251657
251657
251657
251657
251657
251657
251657
251657
251657
251657
251657
251657
251657
251657
251657
251657
251657
251657
251673
254105
500288
521122
254456
251696
251658
251657
251657
251657
251657
251657
251657
251657
251657
251657
251657
251657
251657
251657
251657
251657
251657
251657
251657
251657
251657
251657
251657
251657
251674
254144
502504
520869
254456
251694
251658
251657
251657
251657
251657
251657
251657
251657
251657
251657
251657
251657
251657
251657
251657
251657
251657
251657
251657
251657
251657
251657
251657
251657
251674
254179
504541
520723
254456
251693
251658
251657
251657
251657
251657
251657
251657
251657
251657
251657
251657
251657
251657
251657
251657
251657
251657
251657
251657
251657
251657
251657
251657
251657
251675
254212
506412
520743
254453
251691
251658
251657
251657
251657
251657
251657
251657
251657
251657
251657
251657
251657
251657
251657
251657
251657
251657
251657
251657
251657
251657
251657
251657
251657
251675
254243
508130
520459
254447
251690
251658
251657
251657
251657
251657
251657
251657
251657
251657
251657
251657
251657
251657
251657
251657
251657
251657
251657
251657
251657
251657
251657
251657
251657
251675
254270
509687
520473
254449
251688
251658
251657
251657
251657
251657
251657
251657
251657
251657
251657
251657
251657
251657
251657
251657
251657
251657
251657
251657
251657
251657
251657
251657
251657
251675
254295
511092
520363
254444
251687
251658
251657
251657
251657
251657
251657
251657
251657
251657
251657
251657
251657
251657
251657
251657
251657
251657
251657
251657
251657
251657
251657
251657
251657
251676
254317
512355
520152
254440
251686
251658
251657
251657
251657
251657
251657
251657
251657
251657
251657
251657
251657
251657
251657
251657
251657
251657
251657
251657
251657
251657
251657
251657
251657
251676
254337
513471
520078
254438
251684
251657
251657
251657
251657
251657
251657
251657
251657
251657
251657
251657
251657
251657
251657
251657
251657
251657
251657
251657
251657
251657
251657
251657
251657
251676
254354
514450
519855
254432
251683
251657
251657
251657
251657
251657
251657
251657
251657
251657
251657
251657
251657
251657
251657
251657
251657
251657
251657
251657
251657
251657
251657
251657
251657
251676
254368
515299
519619
254429
251682
251657
251657
251657
251657
251657
251657
251657
251657
251657
251657
251657
251657
251657
251657
251657
251657
251657
251657
251657
251657
251657
251657
251657
251657
251676
254380
516018
519428
254424
251681
251657
251657
251657
251657
251657
251657
251657
251657
251657
251657
251657
251657
251657
251657
251657
251657
251657
251657
251657
251657
251657
251657
251657
251657
251677
254390
516618
519080
254416
251680
251657
251657
251657
251657
251657
251657
251657
251657
251657
251657
251657
251657
251657
251657
251657
251657
251657
251657
251657
251657
251657
251657
251657
251657
251677
254398
517104
518755
254403
251679
251657
251657
251657
251657
251657
251657
251657
251657
251657
251657
251657
251657
251657
251657
251657
251657
251657
251657
251657
251657
251657
251657
251657
251657
251677
254404
517477
518576
254116
251673
251657
251657
251657
251657
251657
251657
251657
251657
251657
251657
251657
251657
251657
251657
251657
251657
251657
251657
251657
251657
251657
251657
251657
251657
251677
254406
517753
472424
254048
252269
252267
252275
252283
252291
252299
252308
252316
252325
252334
252343
252353
252363
252372
252383
252393
252404
252415
252426
252437
252449
252461
252473
252486
252503
252631
258334
536656
474979
253699
251681
251670
251670
251670
251671
251671
251671
251672
251672
251672
251673
251673
251674
251674
251675
251675
251676
251676
251677
251678
251678
251679
251680
251680
251685
251767
255519
562130
479122
253759
251670
251657
251657
251657
251657
251657
251657
251657
251657
251657
251657
251657
251657
251657
251657
251657
251657
251657
251657
251657
251658
251658
251658
251658
251660
251724
254460
539160
482715
253809
251671
251657
251657
251657
251657
251657
251657
251657
251657
251657
251657
251657
251657
251657
251657
251657
251657
251657
251657
251657
251657
251657
251657
251657
251659
251714
254434
525867
486029
253862
251671
251657
251657
251657
251657
251657
251657
251657
251657
251657
251657
251657
251657
251657
251657
251657
251657
251657
251657
251657
251657
251657
251657
251657
251659
251714
254591
526136
489248
253918
251672
251657
251657
251657
251657
251657
251657
251657
251657
251657
251657
251657
251657
251657
251657
251657
251657
251657
251657
251657
251657
251657
251657
251657
251659
251712
254600
527182
492326
253971
251672
251657
251657
251657
251657
251657
251657
251657
251657
251657
251657
251657
251657
251657
251657
251657
251657
251657
251657
251657
251657
251657
251657
251657
251659
251708
254554
526245
495211
254020
251673
251657
251657
251657
251657
251657
251657
251657
251657
251657
251657
251657
251657
251657
251657
251657
251657
251657
251657
251657
251657
251657
251657
251657
251658
251705
254511
524959
497866
254065
251673
251657
251657
251657
251657
251657
251657
251657
251657
251657
251657
251657
251657
251657
251657
251657
251657
251657
251657
251657
251657
251657
251657
251657
251658
251701
254470
522997
500286
254105
251673
251657
251657
251657
251657
251657
251657
251657
251657
251657
251657
251657
251657
251657
251657
251657
251657
251657
251657
251657
251657
251657
251657
251657
251658
251698
254460
521698
502506
254144
251674
251657
251657
251657
251657
251657
251657
251657
251657
251657
251657
251657
251657
251657
251657
251657
251657
251657
251657
251657
251657
251657
251657
251657
251658
251696
254458
521285
504542
254179
251674
251657
251657
251657
251657
251657
251657
251657
251657
251657
251657
251657
251657
251657
251657
251657
251657
251657
251657
251657
251657
251657
251657
251657
251658
251694
254452
520737
506410
254212
251675
251657
251657
251657
251657
251657
251657
251657
251657
251657
251657
251657
251657
251657
251657
251657
251657
251657
251657
251657
251657
251657
251657
251657
251658
251693
254458
520743
508129
254243
251675
251657
251657
251657
251657
251657
251657
251657
251657
251657
251657
251657
251657
251657
251657
251657
251657
251657
251657
251657
251657
251657
251657
251657
251658
251691
254453
520761
509688
254270
251675
251657
251657
251657
251657
251657
251657
251657
251657
251657
251657
251657
251657
251657
251657
251657
251657
251657
251657
251657
251657
251657
251657
251657
251658
251690
254447
520472
511091
254295
251675
251657
251657
251657
251657
251657
251657
251657
251657
251657
251657
251657
251657
251657
251657
251657
251657
251657
251657
251657
251657
251657
251657
251657
251658
251688
254449
520429
512354
254317
251676
251657
251657
251657
251657
251657
251657
251657
251657
251657
251657
251657
251657
251657
251657
251657
251657
251657
251657
251657
251657
251657
251657
251657
251658
251687
254445
520403
513473
254337
251676
251657
251657
251657
251657
251657
251657
251657
251657
251657
251657
251657
251657
251657
251657
251657
251657
251657
251657
251657
251657
251657
251657
251657
251658
251686
254439
520162
514449
254354
251676
251657
251657
251657
251657
251657
251657
251657
251657
251657
251657
251657
251657
251657
251657
251657
251657
251657
251657
251657
251657
251657
251657
251657
251657
251684
254438
520021
515298
254368
251676
251657
251657
251657
251657
251657
251657
251657
251657
251657
251657
251657
251657
251657
251657
251657
251657
251657
251657
251657
251657
251657
251657
251657
251657
251683
254434
519901
516020
254380
251676
251657
251657
251657
251657
251657
251657
251657
251657
251657
251657
251657
251657
251657
251657
251657
251657
251657
251657
251657
251657
251657
251657
251657
251657
251682
254427
519627
516617
254390
251677
251657
251657
251657
251657
251657
251657
251657
251657
251657
251657
251657
251657
251657
251657
251657
251657
251657
251657
251657
251657
251657
251657
251657
251657
251681
254424
519370
517102
254398
251677
251657
251657
251657
251657
251657
251657
251657
251657
251657
251657
251657
251657
251657
251657
251657
251657
251657
251657
251657
251657
251657
251657
251657
251657
251680
254418
519129
517479
254404
251677
251657
251657
251657
251657
251657
251657
251657
251657
251657
251657
251657
251657
251657
251657
251657
251657
251657
251657
251657
251657
251657
251657
251657
251657
251679
254402
518753
517754
254406
251677
251657
251657
251657
251657
251657
251657
251657
251657
251657
251657
251657
251657
251657
251657
251657
251657
251657
251657
251657
251657
251657
251657
251657
251657
251673
254116
518569
621765
620760
619758
618760
617765
616773
615784
614798
613816
612837
611860
610887
609917
608950
607986
607026
606068
605113
604161
603212
602266
601324
600384
599447
598512
597581
596653
595728
594805
593885
592968
592054
591143
590234
589329
588426
587526
586628
585734
584842
583952
583066
582182
581301
580422
579546
578673
577802
576934
576069
575206
574346
573488
572633
571780
570930
570083
569238
568395
567555
566718
565883
565050
564220
563392
562566
561744
560923
560105
559289
558476
557665
556856
556049
555245
554444
553644
552847
552052
551260
550469
549681
548896
548112
547331
546552
545775
545000
544228
543457
542689
541923
541160
540398
539638
538881
538126
537373
536622
535873
535126
534381
533638
532898
532159
531422
530688
529955
529225
528496
527770
527045
526323
525602
524884
524167
523452
522740
522029
521320
520613
519908
519205
518504
517803
257100
257057
257025
256994
256964
256933
256902
256872
256842
256812
256783
256753
256724
256695
256667
256638
256610
256581
256553
256526
256498
256471
256443
256416
256389
256363
256336
256310
256284
256258
256232
256206
256181
256156
256131
256106
256081
256056
256032
256007
255983
255959
255936
255912
255888
255865
255842
255819
255796
255773
255751
255728
255706
255684
255662
255640
255618
255597
255575
255554
255533
255512
255491
255470
255450
255429
255409
255389
255369
255349
255329
255309
255289
255270
255251
255231
255212
255193
255175
255156
255137
255119
255100
255082
255064
255046
255028
255010
254992
254975
254957
254940
254923
254906
254888
254872
254855
254838
254821
254805
254788
254772
254756
254740
254724
254708
254692
254676
254660
254645
254629
254614
254599
254583
254568
254553
254538
254524
254509
254494
254480
254465
254451
254436
254419
251716
251715
251715
251714
251714
251713
251713
251712
251712
251711
251711
251710
251710
251709
251709
251708
251708
251707
251707
251706
251706
251705
251705
251704
251704
251704
251703
251703
251702
251702
251702
251701
251701
251700
251700
251700
251699
251699
251698
251698
251698
251697
251697
251697
251696
251696
251696
251695
251695
251695
251694
251694
251694
251693
251693
251693
251692
251692
251692
251691
251691
251691
251690
251690
251690
251690
251689
251689
251689
251689
251688
251688
251688
251687
251687
251687
251687
251686
251686
251686
251686
251685
251685
251685
251685
251684
251684
251684
251684
251684
251683
251683
251683
251683
251682
251682
251682
251682
251682
251681
251681
251681
251681
251681
251680
251680
251680
251680
251680
251679
251679
251679
251679
251679
251679
251678
251678
251678
251678
251678
251678
251677
251677
251677
251677
251658
251658
251658
251658
251658
251658
251657
251657
251657
251657
251657
251657
251657
251657
251657
251657
251657
251657
251657
251657
251657
251657
251657
251657
251657
251657
251657
251657
251657
251657
251657
251657
251657
251657
251657
251657
251657
251657
251657
251657
251657
251657
251657
251657
251657
251657
251657
251657
251657
251657
251657
251657
251657
251657
251657
251657
251657
251657
251657
251657
251657
251657
251657
251657
251657
251657
251657
251657
251657
251657
251657
251657
251657
251657
251657
251657
251657
251657
251657
251657
251657
251657
251657
251657
251657
251657
251657
251657
251657
251657
251657
251657
251657
251657
251657
251657
251657
251657
251657
251657
251657
251657
251657
251657
251657
251657
251657
251657
251657
251657
251657
251657
251657
251657
251657
251657
251657
251657
251657
251657
251657
251657
251657
251657
251657
251657
251657
251657
251657
251657
251657
251657
251657
251657
251657
251657
251657
251657
251657
251657
251657
251657
251657
251657
251657
251657
251657
251657
251657
251657
251657
251657
251657
251657
251657
251657
251657
251657
251657
251657
251657
251657
251657
251657
251657
251657
251657
251657
251657
251657
251657
251657
251657
251657
251657
251657
251657
251657
251657
251657
251657
251657
251657
251657
251657
251657
251657
251657
251657
251657
251657
251657
251657
251657
251657
251657
251657
251657
251657
251657
251657
251657
251657
251657
251657
251657
251657
251657
251657
251657
251657
251657
251657
251657
251657
251657
251657
251657
251657
251657
251657
251657
251657
251657
251657
251657
251657
251657
251657
251657
251657
251657
251657
251657
251657
251657
251657
251657
251657
251657
251657
251657
251657
251657
251657
251657
251657
251657
251657
251657
251657
251657
251657
251657
251657
251657
251657
251657
251657
251657
251657
251657
251657
251657
251657
251657
251657
251657
251657
251657
251657
251657
251657
251657
251657
251657
251657
251657
251657
251657
251657
251657
251657
251657
251657
251657
251657
251657
251657
251657
251657
251657
251657
251657
251657
251657
251657
251657
251657
251657
251657
251657
251657
251657
251657
251657
251657
251657
251657
251657
251657
251657
251657
251657
251657
251657
251657
251657
251657
251657
251657
251657
251657
251657
251657
251657
251657
251657
251657
251657
251657
251657
251657
251657
251657
251657
251657
251657
251657
251657
251657
251657
251657
251657
251657
251657
251657
251657
251657
251657
251657
251657
251657
251657
251657
251657
251657
251657
251657
251657
251657
251657
251657
251657
251657
251657
251657
251657
251657
251657
251657
251657
251657
251657
251657
251657
251657
251657
251657
251657
251657
251657
251657
251657
251657
251657
251657
251657
251657
251657
251657
251657
251657
251657
251657
251657
251657
251657
251657
251657
251657
251657
251657
251657
251657
251657
251657
251657
251657
251657
251657
251657
251657
251657
251657
251657
251657
251657
251657
251657
251657
251657
251657
251657
251657
251657
251657
251657
251657
251657
251657
251657
251657
251657
251657
251657
251657
251657
251657
251657
251657
251657
251657
251657
251657
251657
251657
251657
251657
251657
251657
251657
251657
251657
251657
251657
251657
251657
251657
251657
251657
251657
251657
251657
251657
251657
251657
251657
251657
251657
251657
251657
251657
251657
251657
251657
251657
251657
251657
251657
251657
251657
251657
251657
251657
251657
251657
251657
251657
251657
251657
251657
251657
251657
251657
251657
251657
251657
251657
251657
251657
251657
251657
251657
251657
251657
251657
251657
251657
251657
251657
251657
251657
251657
251657
251657
251657
251657
251657
251657
251657
251657
251657
251657
251657
251657
251657
251657
251657
251657
251657
251657
251657
251657
251657
251657
251657
251657
251657
251657
251657
251657
251657
251657
251657
251657
251657
251657
251657
251657
251657
251657
251657
251657
251657
251657
251657
251657
251657
251657
251657
251657
251657
251657
251657
251657
251657
251657
251657
251657
251657
251657
251657
251657
251657
251657
251657
251657
251657
251657
251657
251657
251657
251657
251657
251657
251657
251657
251657
251657
251657
251657
251657
251657
251657
251657
251657
251657
251657
251657
251657
251657
251657
251657
251657
251657
251657
251657
251657
251657
251657
251657
251657
251657
251657
251657
251657
251657
251657
251657
251657
251657
251657
251657
251657
251657
251657
251657
251657
251657
251657
251657
251657
251657
251657
251657
251657
251657
251657
251657
251657
251657
251657
251657
251657
251657
251657
251657
251657
251657
251657
251657
251657
251657
251657
251657
251657
251657
251657
251657
251657
251657
251657
251657
251657
251657
251657
251657
251657
251657
251657
251657
251657
251657
251657
251657
251657
251657
251657
251657
251657
251657
251657
251657
251657
251657
251657
251657
251657
251657
251657
251657
251657
251657
251657
251657
251657
251657
251657
251657
251657
251657
251657
251657
251657
251657
251657
251657
251657
251657
251657
251657
251657
251657
251657
251657
251657
251657
251657
251657
251657
251657
251657
251657
251657
251657
251657
251657
251657
251657
251657
251657
251657
251657
251657
251657
251657
251657
251657
251657
251657
251657
251657
251657
251657
251657
251657
251657
251657
251657
251657
251657
251657
251657
251657
251657
251657
251657
251657
251657
251657
251657
251657
251657
251657
251657
251657
251657
251657
251657
251657
251657
251657
251657
251657
251657
251657