/*--------------------------------*- C++ -*----------------------------------*\
| =========                 |                                                 |
| \\      /  F ield         | OpenFOAM: The Open Source CFD Toolbox           |
|  \\    /   O peration     | Version:  2112                                  |
|   \\  /    A nd           | Website:  www.openfoam.com                      |
|    \\/     M anipulation  |                                                 |
\*---------------------------------------------------------------------------*/
FoamFile
{
    version     2.0;
    format      ascii;
    arch        "LSB;label=32;scalar=64";
    class       volScalarField;
    location    "0.01037";
    object      alphat;
}
// * * * * * * * * * * * * * * * * * * * * * * * * * * * * * * * * * * * * * //

dimensions      [1 -1 -1 0 0 0 0];

internalField   nonuniform List<scalar> 
13875
(
0.119861
0.0816024
0.0784505
0.0782819
0.0783171
0.0783809
0.0782821
0.0782701
0.0783071
0.0782994
0.0782819
0.0783105
0.0783807
0.0784107
0.0783944
0.0782976
0.0782557
0.0782947
0.0783032
0.0783543
0.0783203
0.0782662
0.0784829
0.0814537
0.120933
0.103939
0.0576795
0.0570807
0.0571686
0.0566465
0.0566601
0.0570383
0.0571685
0.0572029
0.0571666
0.0571257
0.05712
0.0566584
0.0566139
0.0566676
0.0570977
0.0571186
0.0571519
0.0570738
0.0566795
0.056674
0.0571392
0.0570624
0.0573819
0.104606
0.110619
0.0553247
0.0558749
0.0547261
0.054574
0.0544634
0.0542621
0.0542932
0.0544096
0.0543776
0.0542356
0.0543414
0.054253
0.0542763
0.0542397
0.0543495
0.054108
0.0542505
0.0542808
0.0544505
0.0545305
0.0546018
0.0557852
0.0550911
0.111135
0.115884
0.0546439
0.0553819
0.0543213
0.0540412
0.0539248
0.0536556
0.0535839
0.0535865
0.0535248
0.0533955
0.0534856
0.0537081
0.0537401
0.0536919
0.0534822
0.0533631
0.0534607
0.0536336
0.0539054
0.0539996
0.0542024
0.0551982
0.0542828
0.11574
0.12103
0.0546326
0.0551187
0.0537486
0.0536732
0.0534984
0.0531556
0.0530976
0.053085
0.0530254
0.0529042
0.0529961
0.0532271
0.0532654
0.0532148
0.0529931
0.0528753
0.0529528
0.0531085
0.0534742
0.0536077
0.0536126
0.0550229
0.0543154
0.121364
0.124407
0.054743
0.0551858
0.0536049
0.0532986
0.0530895
0.0527702
0.0526993
0.0526672
0.0525851
0.0524644
0.0525422
0.0527846
0.0528507
0.0527657
0.0525379
0.0524463
0.0525441
0.0527323
0.053052
0.0532387
0.0535048
0.0548888
0.0543876
0.124118
0.128747
0.056473
0.0557818
0.0534507
0.0532675
0.0528853
0.0524125
0.0523315
0.0522725
0.0522005
0.0520949
0.0521675
0.0524159
0.0524779
0.0523973
0.0521475
0.0520752
0.0521594
0.0523566
0.052862
0.0531954
0.0533644
0.0556489
0.056348
0.129025
0.135707
0.0611958
0.0578332
0.0544049
0.0534067
0.0528555
0.0522892
0.0521037
0.0519882
0.051896
0.0518114
0.0518378
0.0521168
0.0521878
0.0520819
0.0518198
0.051804
0.0519215
0.0522169
0.0527865
0.0533251
0.0542782
0.0575183
0.0610287
0.135641
0.151315
0.069246
0.0615403
0.0559224
0.054404
0.0531598
0.0522715
0.0519527
0.0517987
0.0517096
0.0516513
0.0516542
0.0519521
0.0520296
0.0519208
0.0516204
0.0516518
0.0517985
0.0521595
0.0530935
0.0542271
0.0556209
0.0610348
0.0684117
0.154199
0.239341
0.0874361
0.0664595
0.0590033
0.0554102
0.0537473
0.0526066
0.052108
0.0518495
0.0517632
0.0517354
0.0517097
0.052024
0.0521109
0.0519974
0.0517094
0.051761
0.0519459
0.0524373
0.0536057
0.055259
0.0586546
0.0660111
0.0866911
0.24113
0.365405
0.118396
0.0759732
0.0629763
0.0576212
0.0548352
0.05321
0.052628
0.0523241
0.0522391
0.0522184
0.0521704
0.0524728
0.0525682
0.0524885
0.0522599
0.0523096
0.0525483
0.0530323
0.0546161
0.0573272
0.0616324
0.0748336
0.11304
0.365668
0.658307
0.193173
0.104063
0.0744758
0.0613972
0.057365
0.0551858
0.054125
0.0536724
0.0535269
0.0534635
0.0534082
0.0536551
0.0537724
0.053765
0.0536706
0.0537553
0.0541559
0.055118
0.0568215
0.0618908
0.0733949
0.100189
0.182936
0.643668
0.582144
0.436877
0.176055
0.0923501
0.0768397
0.0649356
0.0596028
0.0577185
0.0568887
0.0566013
0.0564488
0.0563872
0.056534
0.05668
0.0567859
0.0568668
0.0571283
0.0579295
0.0598407
0.0653098
0.0763326
0.0897511
0.172142
0.433705
0.581383
0.491761
0.401199
0.347428
0.326057
0.115703
0.0802512
0.0732806
0.067453
0.0650734
0.0643249
0.0639037
0.0637251
0.0637651
0.0639461
0.0642411
0.0647312
0.0656816
0.0683639
0.0749526
0.0831015
0.131166
0.328367
0.337578
0.401476
0.500194
0.408585
0.349868
0.329581
0.333445
0.300872
0.198304
0.126396
0.0944721
0.0864625
0.085853
0.0852677
0.0849753
0.0850109
0.085217
0.0856899
0.0866258
0.08757
0.0953675
0.134007
0.212851
0.30234
0.330242
0.331388
0.360365
0.421829
0.329981
0.293481
0.282274
0.300748
0.312517
0.321129
0.243648
0.191488
0.171219
0.148419
0.136306
0.132255
0.130803
0.131587
0.134347
0.143251
0.171648
0.195377
0.249495
0.324221
0.307847
0.303881
0.291619
0.298509
0.341987
0.239241
0.227253
0.22521
0.264003
0.31838
0.400488
0.52995
0.565103
0.540157
0.537743
0.557721
0.571179
0.578572
0.57492
0.561847
0.551878
0.540095
0.568558
0.532157
0.396649
0.314215
0.266825
0.230432
0.234593
0.252045
0.140484
0.152444
0.185474
0.226608
0.311486
0.432321
0.563124
0.617667
0.562348
0.512376
0.494949
0.491608
0.494294
0.493049
0.498463
0.530771
0.567275
0.607207
0.565368
0.437551
0.310547
0.229317
0.177455
0.143046
0.131226
0.0685952
0.103203
0.165232
0.249867
0.350308
0.408888
0.473597
0.533841
0.50145
0.453464
0.433385
0.430376
0.431829
0.434848
0.44137
0.46295
0.497034
0.52763
0.48825
0.428006
0.372529
0.265343
0.168403
0.104732
0.0704816
0.0268212
0.0526224
0.113388
0.229442
0.346278
0.362937
0.384929
0.426961
0.42571
0.403522
0.391038
0.384959
0.382309
0.390194
0.39877
0.406386
0.414698
0.414821
0.389721
0.378004
0.363214
0.228375
0.11198
0.0519947
0.0259339
0.079468
0.0884943
0.114839
0.186054
0.275414
0.286218
0.307017
0.351572
0.370689
0.362061
0.349868
0.338843
0.333287
0.344817
0.356905
0.361939
0.357334
0.338035
0.307567
0.295736
0.282756
0.185932
0.113448
0.0891634
0.0844618
0.125279
0.153475
0.128956
0.156404
0.207582
0.22504
0.251853
0.298036
0.323098
0.32092
0.308637
0.294349
0.287802
0.300273
0.315239
0.320082
0.310515
0.285461
0.248042
0.230162
0.210563
0.153979
0.125573
0.150436
0.125737
0.171163
0.165996
0.133299
0.134305
0.164468
0.181312
0.211491
0.255865
0.281351
0.28123
0.26884
0.254121
0.247122
0.258921
0.273852
0.279024
0.268864
0.245969
0.205971
0.183568
0.165784
0.134461
0.129937
0.161787
0.172264
0.210914
0.197456
0.13475
0.123964
0.138847
0.154897
0.180139
0.219823
0.242735
0.244458
0.232125
0.217949
0.212152
0.222499
0.236984
0.24251
0.231758
0.210754
0.17618
0.155355
0.139505
0.124041
0.132971
0.203582
0.206239
0.23223
0.234638
0.137782
0.119591
0.122918
0.135166
0.156632
0.188857
0.208566
0.210199
0.200135
0.18777
0.182496
0.191986
0.205085
0.209771
0.199801
0.181593
0.153666
0.134493
0.122969
0.121456
0.13753
0.244683
0.228123
0.255254
0.263976
0.138169
0.116077
0.112096
0.12119
0.138508
0.164416
0.180133
0.181958
0.173199
0.16193
0.157529
0.16541
0.177213
0.181328
0.172824
0.157589
0.135966
0.120826
0.112669
0.117408
0.138872
0.2724
0.251148
0.282423
0.279071
0.139218
0.112896
0.105686
0.109875
0.124326
0.143735
0.155885
0.156557
0.149721
0.140502
0.136564
0.143779
0.153684
0.156759
0.149964
0.138038
0.121307
0.108701
0.106574
0.114223
0.141959
0.292404
0.276493
0.311298
0.296773
0.13883
0.108224
0.100491
0.101817
0.112596
0.12689
0.135348
0.135924
0.130077
0.12207
0.119064
0.124984
0.133926
0.137132
0.132006
0.12241
0.110104
0.1009
0.101798
0.109957
0.142607
0.309763
0.306117
0.342984
0.325246
0.143214
0.105872
0.0978673
0.0952725
0.102932
0.112791
0.119155
0.118722
0.113952
0.107369
0.104301
0.109589
0.116585
0.119045
0.115667
0.108951
0.100508
0.094282
0.098577
0.10665
0.1447
0.324112
0.335056
0.371915
0.340213
0.143536
0.101759
0.0935214
0.0907883
0.0953576
0.101372
0.104875
0.104229
0.0999845
0.09422
0.0919742
0.0962963
0.10278
0.105334
0.103012
0.0979569
0.092748
0.0887824
0.0941455
0.103171
0.145932
0.339706
0.360632
0.385794
0.346295
0.148726
0.10075
0.0911859
0.086376
0.0890738
0.091011
0.0931984
0.0918265
0.0884664
0.0838624
0.0814935
0.0856575
0.0908432
0.0929061
0.0919627
0.0889874
0.0869453
0.0848454
0.0907336
0.101239
0.148904
0.344536
0.385017
0.39534
0.345835
0.152674
0.0991502
0.0864627
0.0815575
0.0835057
0.0836413
0.0839407
0.0823682
0.079056
0.0745602
0.072742
0.0760346
0.0809814
0.0831872
0.0829825
0.0812826
0.0816279
0.0796059
0.0859099
0.099628
0.151196
0.341098
0.397086
0.415287
0.340509
0.158412
0.100537
0.0845613
0.0780592
0.0790593
0.0763804
0.0758867
0.0736896
0.0709004
0.0672765
0.0653201
0.0686438
0.0726819
0.074604
0.0753292
0.0749685
0.077205
0.0763972
0.0830314
0.0999166
0.157519
0.341821
0.411855
0.422072
0.333356
0.163258
0.100868
0.080754
0.0741939
0.0735354
0.0707679
0.0690123
0.0668377
0.0641376
0.0605237
0.0590741
0.0616917
0.065806
0.0680062
0.069074
0.069423
0.0723038
0.0722304
0.0798392
0.0998906
0.163095
0.331639
0.425764
0.429802
0.331644
0.163999
0.103941
0.0807003
0.0720057
0.0698028
0.0655773
0.0635079
0.0607086
0.0583352
0.0554071
0.0537568
0.0563919
0.0596374
0.0614795
0.0634188
0.0646827
0.068457
0.0701482
0.0783744
0.101767
0.166727
0.334617
0.433291
0.435393
0.323128
0.162302
0.10578
0.0804625
0.0687496
0.0652351
0.0609766
0.058558
0.0558496
0.0534354
0.0504019
0.0492137
0.0512963
0.05476
0.0569358
0.0587475
0.0598799
0.0643899
0.0674776
0.0783639
0.104593
0.165051
0.335759
0.432981
0.440789
0.326372
0.162161
0.110743
0.082318
0.0673196
0.0624825
0.0566739
0.0543096
0.0512615
0.0491211
0.0466971
0.0453191
0.0474824
0.0502203
0.0520721
0.0546547
0.0561223
0.0616288
0.0657858
0.0798904
0.108834
0.164331
0.333734
0.436314
0.43693
0.325496
0.160062
0.118208
0.0839477
0.0656208
0.0590579
0.0531423
0.0504765
0.0478458
0.0456109
0.0429622
0.0419449
0.0436494
0.0466678
0.0487161
0.0507334
0.0521425
0.0581417
0.064175
0.0809745
0.115857
0.160127
0.332677
0.435328
0.432166
0.324138
0.156621
0.122569
0.0875052
0.0667151
0.0574018
0.0499599
0.0472367
0.0442407
0.0423384
0.0402203
0.0390469
0.0409173
0.0432558
0.0448934
0.0476911
0.0495256
0.0561738
0.0648359
0.0851978
0.121166
0.156134
0.330416
0.434244
0.422044
0.323852
0.14971
0.122253
0.0917927
0.0666257
0.0548073
0.047224
0.0442359
0.0416874
0.0396959
0.0373584
0.0365191
0.0379469
0.0406614
0.0424902
0.0446594
0.0465906
0.0540255
0.0649829
0.0884532
0.120932
0.148472
0.322235
0.436347
0.41114
0.323357
0.145104
0.1222
0.100366
0.0695852
0.0552626
0.0455377
0.0420786
0.0389196
0.0371788
0.0353507
0.0342995
0.0358668
0.0379382
0.0394053
0.0425475
0.045128
0.0538164
0.0671447
0.0960818
0.120695
0.145864
0.330653
0.429556
0.407065
0.32105
0.139508
0.120168
0.107938
0.0713836
0.05437
0.0441485
0.0399338
0.0370961
0.0351792
0.0330591
0.032344
0.0335471
0.0360438
0.0377345
0.040335
0.0435173
0.0536064
0.0693989
0.10755
0.119768
0.143922
0.33355
0.412659
0.398801
0.322961
0.137227
0.116147
0.107417
0.0763677
0.0555328
0.044174
0.0388864
0.0350159
0.033207
0.0315338
0.0306131
0.0319871
0.0338958
0.0354322
0.0394115
0.0435554
0.0542804
0.0740384
0.107951
0.117392
0.143115
0.333442
0.399462
0.390101
0.319397
0.136606
0.111223
0.106785
0.0845532
0.0571746
0.0439922
0.0378978
0.0339526
0.0317824
0.0297207
0.0290741
0.030117
0.0325183
0.0343126
0.0380449
0.0433008
0.0556249
0.0812664
0.10689
0.113064
0.142789
0.331369
0.386217
0.383632
0.316791
0.135235
0.106276
0.103913
0.0932671
0.0611842
0.044623
0.0380973
0.032789
0.0303519
0.0285955
0.0277348
0.0289917
0.0308592
0.0328444
0.0383888
0.0443096
0.0597015
0.093441
0.105249
0.109347
0.144044
0.322341
0.37527
0.376492
0.314826
0.13615
0.102689
0.0990172
0.0928455
0.0677996
0.046026
0.0378501
0.0327866
0.0296913
0.0272951
0.0266135
0.0276277
0.0303494
0.0327866
0.0379642
0.0453545
0.06594
0.0931232
0.10132
0.105167
0.141556
0.316797
0.371001
0.363944
0.307853
0.138146
0.100604
0.0946381
0.0918574
0.0790719
0.0500966
0.0389448
0.0324979
0.0291109
0.0268872
0.0257631
0.0271549
0.0294821
0.0323892
0.038918
0.0489895
0.0762691
0.0921859
0.0964483
0.101911
0.141303
0.315168
0.363561
0.353971
0.303517
0.13742
0.098681
0.0907203
0.0887385
0.0789256
0.05601
0.0398375
0.0328602
0.029314
0.0263705
0.0250975
0.0265954
0.0299003
0.0328531
0.0397264
0.0552246
0.0785911
0.0894843
0.0921584
0.0998579
0.141393
0.310685
0.353233
0.327198
0.292238
0.13668
0.0973202
0.0877625
0.0846001
0.0782792
0.065638
0.0438149
0.0332502
0.029194
0.026624
0.0250888
0.0268251
0.0294984
0.0331409
0.0436508
0.0647413
0.0783517
0.0854616
0.0886451
0.0984797
0.140044
0.299556
0.32889
0.295359
0.273135
0.133032
0.0962643
0.0856751
0.0807171
0.0765185
0.0677252
0.0490368
0.0355264
0.0299317
0.0264792
0.0251439
0.0266597
0.0303908
0.0351598
0.0489286
0.0685342
0.0768337
0.0806739
0.0856448
0.0966642
0.13474
0.280973
0.299279
0.123689
0.553119
0.811107
0.922661
0.948849
0.956445
0.948931
0.926331
0.888567
0.836784
0.76345
0.684463
0.60279
0.52409
0.45319
0.392374
0.342658
0.303109
0.271841
0.24593
0.22561
0.208995
0.194789
0.181561
0.167728
0.152362
0.134288
0.11249
0.0884841
0.0750107
0.118378
0.587438
0.840137
0.939965
0.959512
0.96276
0.953987
0.93726
0.908121
0.865916
0.801559
0.728899
0.649535
0.568561
0.491993
0.42319
0.365314
0.318261
0.280921
0.250773
0.227384
0.208944
0.193642
0.17969
0.165416
0.149857
0.131777
0.110153
0.0869313
0.0740514
0.127699
0.642737
0.866366
0.957422
0.97473
0.975948
0.972338
0.959887
0.937461
0.903899
0.847496
0.780939
0.704255
0.621974
0.539826
0.463177
0.396122
0.340306
0.294751
0.259047
0.232005
0.211069
0.194291
0.179375
0.164517
0.148686
0.130541
0.10899
0.0864888
0.0740359
0.134946
0.670252
0.890833
0.977573
0.989717
0.988097
0.986021
0.975633
0.961556
0.937311
0.889759
0.832217
0.761698
0.680926
0.595569
0.511613
0.435029
0.369459
0.313622
0.271529
0.239611
0.214839
0.195944
0.17965
0.164022
0.147752
0.129305
0.10785
0.0859215
0.0737608
0.138251
0.691606
0.918235
1.00026
1.00539
1.00197
1.00046
0.992271
0.98552
0.969352
0.932315
0.885138
0.822587
0.745957
0.659668
0.570262
0.484164
0.40699
0.340516
0.2903
0.251209
0.222178
0.200091
0.181827
0.164915
0.147822
0.128874
0.107547
0.0860509
0.0742761
0.141066
0.716171
0.948908
1.02286
1.02369
1.01701
1.01296
1.00669
1.00654
0.996756
0.968546
0.931467
0.878047
0.808421
0.724485
0.632328
0.538427
0.449992
0.375309
0.315491
0.267486
0.232475
0.205867
0.184928
0.166263
0.148019
0.128476
0.107251
0.0860386
0.0744763
0.144349
0.742826
0.977725
1.04468
1.04229
1.03098
1.02222
1.01811
1.02281
1.01773
0.996111
0.968023
0.923193
0.862172
0.78431
0.694292
0.598064
0.50358
0.419841
0.348332
0.290507
0.246952
0.214714
0.190151
0.169113
0.149395
0.129036
0.107607
0.0865348
0.0751887
0.147642
0.768568
1.00385
1.06696
1.05961
1.04341
1.02887
1.02637
1.03423
1.03222
1.01594
0.995992
0.960196
0.909369
0.841069
0.757741
0.663525
0.566397
0.473284
0.38962
0.320535
0.267184
0.227495
0.197499
0.173203
0.151764
0.129955
0.107685
0.086563
0.0753817
0.150832
0.790625
1.02828
1.08877
1.07526
1.05386
1.0344
1.0321
1.04139
1.04209
1.03006
1.01737
0.990626
0.950999
0.894268
0.82094
0.733376
0.636539
0.536487
0.441301
0.360705
0.295431
0.245428
0.208092
0.179574
0.155427
0.131615
0.108094
0.0867934
0.0761557
0.153401
0.810466
1.05224
1.10768
1.08899
1.06195
1.03973
1.03619
1.0459
1.04887
1.04038
1.03355
1.01571
0.987527
0.943057
0.881917
0.80385
0.710718
0.607657
0.504288
0.409721
0.330714
0.26888
0.222401
0.187914
0.159329
0.133458
0.109141
0.0871204
0.0767547
0.155773
0.829408
1.07391
1.12415
1.10064
1.06813
1.04424
1.03901
1.04912
1.05182
1.04662
1.04359
1.03452
1.01717
0.985982
0.937924
0.871617
0.785847
0.684468
0.575908
0.469718
0.375579
0.299313
0.241824
0.198969
0.165211
0.136428
0.109981
0.0874323
0.0769314
0.157305
0.846228
1.09111
1.1376
1.10954
1.0724
1.04703
1.04169
1.04996
1.05124
1.04744
1.04806
1.048
1.04111
1.02152
0.985912
0.93226
0.857532
0.762906
0.65317
0.539115
0.43063
0.3384
0.266776
0.213481
0.173188
0.139984
0.111068
0.0873719
0.0770158
0.158336
0.859787
1.10363
1.14744
1.11547
1.0746
1.04779
1.04389
1.04793
1.04426
1.04401
1.05108
1.0576
1.0588
1.04863
1.02565
0.985323
0.923089
0.839399
0.733638
0.61601
0.496497
0.388437
0.300468
0.234067
0.184446
0.145474
0.113196
0.0877926
0.0772878
0.158104
0.870256
1.11268
1.1532
1.11826
1.07465
1.04705
1.04443
1.04288
1.03387
1.03842
1.05143
1.06318
1.07055
1.06824
1.05681
1.02887
0.980378
0.909219
0.813119
0.697009
0.57038
0.447687
0.34194
0.259931
0.199469
0.153306
0.115997
0.0881065
0.0773561
0.157609
0.875255
1.11893
1.15416
1.1178
1.07255
1.04492
1.04254
1.03458
1.02467
1.03222
1.04885
1.06549
1.07773
1.08203
1.08081
1.06394
1.02856
0.971309
0.887625
0.778049
0.649671
0.515511
0.392167
0.292761
0.218499
0.16309
0.119887
0.0887634
0.0775839
0.156279
0.877119
1.11949
1.15264
1.11314
1.0682
1.04087
1.03733
1.02379
1.01754
1.02717
1.04518
1.06503
1.0814
1.09137
1.09828
1.09096
1.06739
1.02379
0.953782
0.855031
0.730367
0.589706
0.450857
0.332778
0.242112
0.175428
0.124674
0.0896001
0.0777598
0.154621
0.869564
1.11429
1.14621
1.10515
1.06126
1.03477
1.02965
1.01435
1.01065
1.0227
1.04201
1.06291
1.08297
1.09761
1.11101
1.1118
1.09861
1.06763
1.01142
0.925478
0.809481
0.668148
0.517589
0.380702
0.271296
0.190851
0.131008
0.091014
0.077946
0.152442
0.862337
1.10275
1.13438
1.09407
1.05117
1.02641
1.02004
1.00583
1.00496
1.01867
1.03969
1.06099
1.08245
1.10196
1.1203
1.12769
1.12316
1.10324
1.05986
0.987166
0.881776
0.746441
0.589805
0.436273
0.306597
0.20977
0.139009
0.0926545
0.0778047
0.149468
0.846476
1.08241
1.11547
1.07862
1.03742
1.01542
1.00902
0.998289
1.0001
1.01538
1.0372
1.05988
1.08114
1.10533
1.12783
1.14041
1.14303
1.13251
1.10063
1.04071
0.94793
0.820796
0.663266
0.499125
0.349279
0.233479
0.149463
0.0947978
0.0776105
0.146506
0.828325
1.05775
1.08997
1.05751
1.02051
1.00165
0.996935
0.990991
0.995871
1.01295
1.03601
1.05959
1.08111
1.10787
1.13474
1.15113
1.15932
1.15634
1.13433
1.08602
1.00514
0.887087
0.736613
0.566672
0.399283
0.262723
0.162821
0.0979085
0.0778001
0.142653
0.802047
1.02353
1.05274
1.02987
0.999266
0.985201
0.983685
0.983661
0.991766
1.01144
1.03572
1.06002
1.08342
1.11108
1.14112
1.16067
1.1729
1.17543
1.16123
1.12258
1.05247
0.94693
0.808735
0.637692
0.456448
0.298471
0.18005
0.102178
0.0780471
0.139329
0.773241
0.979834
1.00848
0.994206
0.97349
0.965863
0.96904
0.97524
0.988327
1.01049
1.03634
1.06171
1.08593
1.1163
1.14696
1.16939
1.18407
1.1898
1.1812
1.15109
1.09339
1.00459
0.878651
0.710289
0.519634
0.341347
0.201946
0.107877
0.0780847
0.13459
0.730839
0.917054
0.948248
0.948451
0.94218
0.943177
0.95294
0.965083
0.984271
1.00971
1.03766
1.06465
1.091
1.12268
1.15353
1.17721
1.19369
1.20109
1.19707
1.17559
1.13115
1.05814
0.945615
0.784562
0.589423
0.39294
0.229766
0.115995
0.0783691
0.132527
0.661545
0.816522
0.862027
0.884904
0.902472
0.915741
0.933756
0.95386
0.978773
1.00803
1.03845
1.06922
1.09776
1.1299
1.1621
1.18472
1.20263
1.21153
1.21159
1.19811
1.16526
1.10597
1.00744
0.857132
0.663941
0.452064
0.26366
0.126867
0.0788716
0.114913
0.483779
0.61986
0.726157
0.798079
0.85195
0.882051
0.910186
0.939768
0.971468
1.00545
1.0395
1.0745
1.10618
1.13866
1.17067
1.19264
1.20984
1.22227
1.22673
1.22025
1.19663
1.14772
1.06013
0.92411
0.737378
0.515648
0.303546
0.141044
0.0794465
0.0742822
0.0877664
0.11135
0.132924
0.151034
0.166598
0.181259
0.195264
0.209727
0.227048
0.246722
0.272568
0.304166
0.344001
0.391687
0.44902
0.516242
0.592176
0.671738
0.749598
0.822325
0.875043
0.913282
0.937696
0.946005
0.939269
0.911183
0.79893
0.543039
0.121597
0.0731946
0.0861938
0.109178
0.130585
0.148552
0.164126
0.179178
0.193878
0.209248
0.22782
0.250943
0.281623
0.318798
0.365747
0.421752
0.48736
0.560643
0.638773
0.715893
0.787339
0.850745
0.893864
0.92275
0.943833
0.955033
0.949743
0.928757
0.827677
0.576456
0.11651
0.0729233
0.0857246
0.108332
0.129603
0.14746
0.163072
0.178349
0.193656
0.210741
0.231578
0.258536
0.295744
0.340574
0.396082
0.461642
0.535662
0.614767
0.694248
0.768369
0.833177
0.887948
0.922964
0.946014
0.960878
0.968172
0.966665
0.947023
0.853959
0.632613
0.125705
0.0723165
0.0851292
0.107364
0.128499
0.14656
0.162494
0.178061
0.194384
0.213531
0.237943
0.26941
0.311404
0.368566
0.4339
0.509858
0.591585
0.674437
0.752459
0.82065
0.876636
0.921724
0.947513
0.961415
0.973742
0.979902
0.98287
0.967947
0.878351
0.65999
0.133124
0.0724256
0.0850682
0.106914
0.128118
0.146686
0.163383
0.179534
0.197405
0.219547
0.248722
0.286698
0.335193
0.39956
0.477639
0.563605
0.651806
0.736199
0.810681
0.871411
0.917237
0.952548
0.970984
0.97682
0.986489
0.99395
0.998774
0.99152
0.906026
0.681211
0.136485
0.0724685
0.0847499
0.106258
0.127589
0.146676
0.164661
0.182323
0.202134
0.228213
0.263741
0.310102
0.367894
0.440795
0.527424
0.619822
0.710515
0.792611
0.860939
0.913811
0.950251
0.977675
0.990542
0.991556
0.997865
1.00918
1.01681
1.01512
0.936582
0.70524
0.13932
0.0731798
0.0850514
0.106366
0.127969
0.147913
0.167268
0.187302
0.210765
0.241572
0.284546
0.341061
0.410558
0.492715
0.584787
0.678807
0.76711
0.842974
0.903166
0.948194
0.976477
0.997774
1.00671
1.00378
1.00675
1.02385
1.03543
1.03723
0.965933
0.731271
0.142902
0.073772
0.085457
0.106742
0.128833
0.149845
0.170895
0.193834
0.222252
0.260962
0.312969
0.38013
0.461786
0.553633
0.649088
0.742097
0.824498
0.891304
0.94128
0.977313
0.997792
1.01365
1.01952
1.01354
1.01403
1.03693
1.05416
1.05947
0.992208
0.756517
0.146258
0.0749795
0.0864591
0.108211
0.131516
0.153249
0.176563
0.203394
0.23805
0.285548
0.348813
0.428547
0.52184
0.620648
0.717183
0.805053
0.878826
0.935277
0.974757
1.00184
1.01522
1.02648
1.02991
1.02161
1.02024
1.04772
1.07081
1.08197
1.0167
0.778491
0.149624
0.0757228
0.0872202
0.10961
0.133968
0.157728
0.183948
0.215825
0.258728
0.316676
0.393426
0.485994
0.589127
0.691537
0.785331
0.864999
0.928174
0.973482
1.00263
1.02118
1.02856
1.03611
1.03758
1.02755
1.0261
1.05576
1.08535
1.10173
1.04045
0.797877
0.152466
0.0764006
0.0873906
0.110303
0.136373
0.163857
0.194336
0.233023
0.286193
0.35731
0.44794
0.552507
0.661998
0.763676
0.850936
0.920221
0.970772
1.00419
1.02347
1.03375
1.03743
1.04146
1.04287
1.03204
1.03102
1.06188
1.09747
1.11874
1.06296
0.81653
0.154878
0.076522
0.0872612
0.111316
0.13979
0.171378
0.207714
0.255681
0.321291
0.407556
0.512383
0.626281
0.736546
0.833243
0.91072
0.967681
1.00631
1.02866
1.03791
1.03989
1.04016
1.04282
1.04509
1.03463
1.03479
1.06669
1.10672
1.13268
1.08098
0.833484
0.156702
0.076805
0.0880684
0.113344
0.144725
0.181465
0.225287
0.285366
0.365999
0.469014
0.586042
0.703121
0.810457
0.898086
0.963751
1.00767
1.03402
1.04698
1.04797
1.0431
1.03738
1.03798
1.04366
1.03518
1.03806
1.06934
1.11288
1.14287
1.09443
0.846856
0.157737
0.0773331
0.088763
0.116123
0.151159
0.193792
0.248009
0.322459
0.4205
0.538449
0.663547
0.780104
0.880507
0.956155
1.00827
1.03969
1.05432
1.05913
1.05384
1.04376
1.03208
1.02827
1.03824
1.03451
1.04016
1.06957
1.1156
1.14885
1.10349
0.858696
0.157722
0.0777172
0.0896848
0.119595
0.15946
0.209431
0.276016
0.367286
0.483581
0.614603
0.743235
0.85469
0.944215
1.00632
1.04509
1.06497
1.06869
1.06633
1.05593
1.04094
1.02522
1.01805
1.02935
1.0336
1.03897
1.06745
1.11475
1.14972
1.10912
0.865553
0.157299
0.077821
0.0903938
0.123578
0.169569
0.229318
0.310593
0.420384
0.553712
0.693436
0.820617
0.923784
0.999005
1.04746
1.07413
1.08393
1.07868
1.06983
1.05525
1.03657
1.01915
1.01022
1.01792
1.02937
1.03544
1.06291
1.10983
1.14737
1.11042
0.867999
0.156085
0.0778749
0.0911775
0.128485
0.182133
0.254013
0.352862
0.481712
0.628947
0.771844
0.893347
0.984717
1.04567
1.08097
1.09685
1.09813
1.08565
1.07131
1.05257
1.0324
1.01393
1.00263
1.00778
1.02176
1.02941
1.05569
1.10067
1.14127
1.10558
0.861734
0.154475
0.077959
0.0922585
0.134665
0.197633
0.284084
0.402562
0.549251
0.70547
0.846431
0.958085
1.03686
1.08417
1.10759
1.11436
1.10868
1.09075
1.07119
1.05015
1.0296
1.00926
0.996123
0.998792
1.01193
1.02092
1.04533
1.08877
1.12954
1.09613
0.855096
0.15229
0.0783112
0.0940949
0.143012
0.217406
0.321141
0.460026
0.621527
0.781141
0.914859
1.01558
1.08115
1.11604
1.12914
1.12834
1.11713
1.09511
1.07015
1.0489
1.02718
1.0058
0.990685
0.98993
1.00094
1.00983
1.03148
1.07262
1.11078
1.07591
0.840242
0.149213
0.0782778
0.0967113
0.154048
0.242354
0.365725
0.524463
0.695797
0.851953
0.976964
1.06515
1.11832
1.1423
1.1469
1.14017
1.12483
1.09881
1.07024
1.04894
1.02598
1.00342
0.986146
0.981454
0.989293
0.996215
1.01424
1.05098
1.08672
1.05247
0.823042
0.146185
0.0783269
0.10025
0.168492
0.27338
0.418347
0.594663
0.770427
0.917297
1.03068
1.1064
1.14844
1.16357
1.16178
1.15074
1.13224
1.10259
1.07253
1.049
1.02555
1.00206
0.982594
0.973661
0.976857
0.980007
0.992545
1.02284
1.04771
1.01856
0.797421
0.142245
0.0783749
0.104803
0.18718
0.312583
0.479241
0.668819
0.843469
0.979273
1.07637
1.13898
1.17133
1.17994
1.17408
1.16039
1.13911
1.10782
1.07549
1.05041
1.02598
1.00112
0.97926
0.966384
0.963216
0.960825
0.966253
0.986948
1.00421
0.975133
0.768958
0.138895
0.0788598
0.111415
0.210842
0.359766
0.548621
0.746705
0.914918
1.03724
1.11763
1.16636
1.18966
1.19313
1.18486
1.16954
1.14607
1.11501
1.08011
1.05306
1.0274
1.00078
0.976065
0.957818
0.947583
0.937952
0.934171
0.942065
0.944202
0.912119
0.726481
0.134101
0.0792876
0.120263
0.240449
0.415182
0.623654
0.823818
0.981461
1.08956
1.15461
1.19092
1.20609
1.20515
1.19511
1.17822
1.15512
1.12253
1.08654
1.05728
1.02921
1.00029
0.971749
0.947764
0.928868
0.910046
0.893811
0.877311
0.858101
0.812217
0.657779
0.131964
0.0797593
0.13182
0.27594
0.476041
0.698349
0.893983
1.03875
1.13358
1.18728
1.21404
1.22209
1.21644
1.20287
1.18623
1.16447
1.13155
1.09491
1.06304
1.03116
0.999096
0.965824
0.934662
0.9056
0.875776
0.843179
0.792395
0.723907
0.618659
0.482672
0.114453
0.519754
0.512368
0.517138
0.516046
0.52039
0.521338
0.525035
0.527715
0.531366
0.535063
0.539137
0.543478
0.548038
0.552827
0.557944
0.563233
0.568588
0.573865
0.57899
0.583858
0.588502
0.59281
0.597085
0.601134
0.60486
0.608204
0.611054
0.613569
0.615683
0.617359
0.618605
0.61943
0.619836
0.619817
0.619376
0.618517
0.617238
0.615531
0.613378
0.610774
0.607708
0.604129
0.600055
0.595494
0.59023
0.584634
0.579197
0.572905
0.566453
0.559593
0.552274
0.544435
0.535978
0.527412
0.518522
0.50924
0.499516
0.48941
0.478997
0.468205
0.457014
0.445418
0.433515
0.421353
0.408962
0.396383
0.383693
0.370965
0.35827
0.345663
0.333205
0.320942
0.308975
0.297419
0.286455
0.276012
0.266171
0.256913
0.248104
0.239929
0.23234
0.225105
0.218532
0.212647
0.206836
0.201719
0.197389
0.192912
0.188756
0.185874
0.183666
0.181547
0.17967
0.178163
0.176985
0.176058
0.17525
0.174567
0.173742
0.172687
0.171353
0.169614
0.167466
0.164761
0.161723
0.158012
0.153893
0.14924
0.14391
0.138091
0.131998
0.125711
0.119154
0.112561
0.106593
0.101202
0.0963968
0.0922521
0.0888186
0.0860818
0.0840694
0.0826005
0.0814845
0.0806906
0.0801505
4.30972
4.24648
4.25314
4.27041
4.2983
4.32695
4.36068
4.39606
4.43454
4.47502
4.51747
4.56128
4.60554
4.64876
4.68849
4.72767
4.7661
4.80387
4.8418
4.88201
4.91856
4.94951
4.97652
5.00163
5.02563
5.04674
5.06515
5.08048
5.09274
5.10196
5.10827
5.11173
5.1124
5.11032
5.10547
5.09779
5.08715
5.07339
5.05633
5.03583
5.01169
4.9838
4.9517
4.91531
4.87456
4.82935
4.77812
4.72236
4.66258
4.59916
4.53258
4.46491
4.38962
4.31261
4.23295
4.15066
4.06564
3.97654
3.88505
3.79029
3.69237
3.59143
3.48837
3.38346
3.27689
3.16899
3.06035
2.95151
2.84293
2.73501
2.62818
2.52288
2.41843
2.31356
2.20621
2.10046
1.99977
1.90366
1.8121
1.72519
1.64335
1.5662
1.49363
1.42554
1.36119
1.30095
1.24597
1.19621
1.15126
1.10961
1.0692
1.03198
0.997943
0.96749
0.940821
0.917792
0.898314
0.882477
0.869817
0.860029
0.852304
0.84606
0.840858
0.835528
0.830354
0.823472
0.814779
0.802793
0.786301
0.764647
0.737351
0.703939
0.664463
0.618382
0.568393
0.51579
0.461574
0.406896
0.353545
0.304294
0.261063
0.223036
0.191152
0.165741
0.146425
7.13791
7.06585
7.06571
7.08953
7.12296
7.16079
7.20324
7.24884
7.29688
7.34735
7.39971
7.45321
7.50688
7.55961
7.60992
7.65702
7.70285
7.74733
7.79194
7.83825
7.87336
7.90123
7.92452
7.94518
7.96312
7.97448
7.98151
7.98434
7.98298
7.97749
7.96805
7.95476
7.9377
7.91685
7.89212
7.86332
7.8302
7.79253
7.75015
7.70294
7.65078
7.59356
7.53105
7.46294
7.38956
7.31093
7.2264
7.13639
7.04125
6.94137
6.83709
6.72904
6.61641
6.49864
6.37659
6.2513
6.12287
5.97776
5.8412
5.69917
5.55389
5.40576
5.25485
5.10109
4.94524
4.78786
4.62984
4.47208
4.31498
4.15895
4.00458
3.85241
3.70266
3.55526
3.40995
3.2666
3.1249
2.98857
2.85955
2.73688
2.61984
2.50866
2.40384
2.30519
2.21231
2.12515
2.04347
1.96695
1.89538
1.82858
1.76592
1.70713
1.65206
1.60062
1.55263
1.50848
1.4672
1.42986
1.39669
1.36632
1.33825
1.3123
1.28818
1.26527
1.24374
1.22238
1.20115
1.1788
1.15405
1.12583
1.09331
1.05614
1.01444
0.967543
0.917355
0.863358
0.805037
0.743396
0.678811
0.612044
0.546198
0.481649
0.419722
0.364256
0.316677
8.85342
8.77935
8.77019
8.79339
8.82491
8.8616
8.90244
8.9462
8.99228
9.04031
9.0897
9.13994
9.18981
9.2387
9.28555
9.32926
9.36946
9.4073
9.44632
9.47882
9.49928
9.51213
9.5204
9.52639
9.52638
9.51947
9.50775
9.49172
9.47148
9.44723
9.41913
9.38726
9.35159
9.312
9.26823
9.21994
9.16683
9.10873
9.0456
8.97749
8.90446
8.82641
8.7434
8.65501
8.56163
8.46343
8.36007
8.25171
8.13838
8.02021
7.8973
7.76968
7.6369
7.49935
7.35734
7.21128
7.06114
6.90615
6.74707
6.58501
6.42094
6.24448
6.07066
5.89856
5.72518
5.55155
5.37723
5.20261
5.02789
4.85395
4.68177
4.51237
4.346
4.1828
4.02317
3.86752
3.71597
3.56806
3.4243
3.28852
3.16159
3.04132
2.92678
2.81793
2.71472
2.61701
2.5247
2.43751
2.35503
2.27694
2.20273
2.13205
2.06476
2.00087
1.94037
1.88321
1.8292
1.77826
1.72999
1.68425
1.64031
1.59705
1.55699
1.52086
1.48658
1.45343
1.42167
1.39087
1.36016
1.32867
1.29551
1.26047
1.22297
1.18228
1.13937
1.09362
1.0436
0.990405
0.935202
0.876341
0.81293
0.74666
0.675331
0.604845
0.538984
9.87563
9.79593
9.77813
9.79773
9.82295
9.85342
9.88761
9.92424
9.96267
10.0024
10.043
10.0838
10.124
10.1629
10.1997
10.2334
10.2639
10.293
10.3187
10.3281
10.3278
10.3212
10.3111
10.299
10.2773
10.25
10.2181
10.1823
10.143
10.1003
10.0543
10.005
9.95222
9.89556