/*--------------------------------*- C++ -*----------------------------------*\
| =========                 |                                                 |
| \\      /  F ield         | OpenFOAM: The Open Source CFD Toolbox           |
|  \\    /   O peration     | Version:  2112                                  |
|   \\  /    A nd           | Website:  www.openfoam.com                      |
|    \\/     M anipulation  |                                                 |
\*---------------------------------------------------------------------------*/
FoamFile
{
    version     2.0;
    format      ascii;
    arch        "LSB;label=32;scalar=64";
    class       volScalarField;
    location    "0.00258";
    object      p;
}
// * * * * * * * * * * * * * * * * * * * * * * * * * * * * * * * * * * * * * //

dimensions      [1 -1 -2 0 0 0 0];

internalField   nonuniform List<scalar> 
13875
(
951532
984150
973647
975519
973395
974429
974573
974511
975054
974973
975135
975312
975307
974984
974921
974464
974613
974261
974425
974307
973072
975569
972399
982410
944862
733736
659378
672188
677012
670290
668597
668672
670349
677533
678677
678988
679268
679057
678781
678987
678859
677041
670469
668762
668549
669948
677048
672304
657332
730530
736825
635572
664511
653607
648323
646017
645145
645423
646288
646893
648278
649894
650573
648469
650109
649320
645166
645019
644850
645684
647668
652068
662087
632212
733323
743470
636227
665403
653763
648609
646215
645289
645492
644546
644555
646190
647683
647518
647666
647735
646489
644524
645091
644978
645867
647939
652189
662840
632816
739137
757304
639262
667987
654473
649489
646806
645713
645755
644634
644644
646280
647765
647620
647938
647845
646555
644645
645360
645377
646408
648733
652775
665142
635463
750585
759117
647996
673835
656475
651382
648065
646604
646333
644969
644990
646584
648036
648067
648708
648168
646791
645078
645976
646239
647583
650474
654654
670759
643219
752036
765399
668704
686264
661525
655301
650639
648412
647567
645917
645955
647425
648762
649177
649790
648867
647408
646177
647338
648074
650175
654382
660368
682381
666019
756357
792167
719280
712722
675366
663861
656149
652204
650328
648297
648174
649377
650488
651354
651820
650576
649151
648631
650199
651808
655444
662487
673489
707645
715836
782783
911989
830387
769117
706539
681430
667274
659937
656235
653590
653082
653838
654529
655762
656030
654605
653448
653875
656185
659404
666056
678990
702317
761593
824484
911955
1.53759e+06
1.03627e+06
840497
746575
705033
683689
672884
667227
664250
663431
663528
663584
664887
664880
663696
663145
664376
667561
672686
682666
702590
741880
833163
1.02874e+06
1.52485e+06
2.9533e+06
1.41175e+06
981137
816594
746179
713380
697502
689630
686006
684544
683783
683143
684082
683827
683352
683731
685671
689973
697343
711718
741196
804107
953084
1.35996e+06
2.8823e+06
5.76856e+06
2.37576e+06
1.37913e+06
998752
841405
780507
753548
740740
734713
731806
729847
728685
728926
728512
728875
730580
734352
740963
753480
778887
834407
971645
1.30093e+06
2.30021e+06
5.62834e+06
5.55851e+06
4.83484e+06
2.84947e+06
1.64302e+06
1.11497e+06
968330
907700
878531
864152
857058
853539
851780
851825
851270
852764
856640
864999
879752
909205
969473
1.10931e+06
1.53379e+06
2.3888e+06
4.91451e+06
5.402e+06
5.02241e+06
4.70811e+06
4.9761e+06
4.7045e+06
1.97476e+06
1.57921e+06
1.43516e+06
1.34629e+06
1.30849e+06
1.29187e+06
1.28761e+06
1.28129e+06
1.28833e+06
1.28346e+06
1.2887e+06
1.29772e+06
1.31876e+06
1.36145e+06
1.45314e+06
1.63228e+06
2.11313e+06
4.62381e+06
5.06844e+06
4.80628e+06
4.84261e+06
4.19392e+06
4.34254e+06
4.86569e+06
4.96674e+06
4.81828e+06
3.66778e+06
3.53145e+06
3.17863e+06
3.05191e+06
2.95978e+06
2.95455e+06
2.90311e+06
2.94354e+06
2.92466e+06
2.94658e+06
2.97999e+06
3.06401e+06
3.23901e+06
3.53528e+06
3.72358e+06
4.75224e+06
4.95976e+06
4.99284e+06
4.53613e+06
4.46368e+06
3.81411e+06
3.87213e+06
4.59474e+06
5.28081e+06
6.69893e+06
8.03914e+06
9.16809e+06
9.02089e+06
9.46313e+06
9.23803e+06
9.49459e+06
9.30145e+06
9.47246e+06
9.33171e+06
9.4581e+06
9.32851e+06
9.39935e+06
9.11295e+06
9.15289e+06
8.19406e+06
6.87404e+06
5.41968e+06
4.84721e+06
4.12199e+06
4.13283e+06
3.02246e+06
3.49491e+06
4.67509e+06
5.53862e+06
6.7635e+06
7.69353e+06
7.80302e+06
7.72432e+06
7.53849e+06
7.41881e+06
7.25696e+06
7.29604e+06
7.15695e+06
7.26041e+06
7.26115e+06
7.37255e+06
7.52178e+06
7.71654e+06
7.74028e+06
7.77659e+06
7.01404e+06
5.76299e+06
4.91674e+06
3.76768e+06
3.36662e+06
2.45926e+06
3.27259e+06
4.67413e+06
5.32901e+06
5.92411e+06
6.12543e+06
5.90593e+06
5.91215e+06
5.91958e+06
5.94242e+06
5.95455e+06
5.96518e+06
5.96929e+06
5.97458e+06
5.98105e+06
5.97526e+06
5.96363e+06
5.97068e+06
6.00219e+06
6.18241e+06
6.1716e+06
5.56658e+06
4.92078e+06
3.23035e+06
2.3765e+06
1.31258e+06
2.28303e+06
3.88507e+06
4.30927e+06
4.52358e+06
4.71475e+06
4.85708e+06
5.0439e+06
5.20473e+06
5.31041e+06
5.372e+06
5.40495e+06
5.42281e+06
5.41823e+06
5.39688e+06
5.3462e+06
5.25222e+06
5.1063e+06
4.94524e+06
4.81509e+06
4.64352e+06
4.43176e+06
4.00256e+06
2.48918e+06
1.40064e+06
668326
1.55218e+06
2.72239e+06
3.18397e+06
3.4095e+06
3.70789e+06
4.09682e+06
4.42874e+06
4.63983e+06
4.76806e+06
4.8509e+06
4.8984e+06
4.92049e+06
4.91038e+06
4.87129e+06
4.79926e+06
4.68257e+06
4.48424e+06
4.16878e+06
3.77867e+06
3.47604e+06
3.25336e+06
2.76898e+06
1.66711e+06
683209
714168
1.19342e+06
1.80163e+06
2.25613e+06
2.60208e+06
3.01822e+06
3.49699e+06
3.86588e+06
4.08684e+06
4.23114e+06
4.32954e+06
4.38567e+06
4.40857e+06
4.39347e+06
4.3421e+06
4.25101e+06
4.11404e+06
3.89918e+06
3.53442e+06
3.03463e+06
2.60882e+06
2.27002e+06
1.83249e+06
1.15548e+06
710164
943277
1.04261e+06
1.24722e+06
1.70789e+06
2.06707e+06
2.54823e+06
2.99731e+06
3.3358e+06
3.55611e+06
3.71101e+06
3.8155e+06
3.8739e+06
3.89663e+06
3.87708e+06
3.81981e+06
3.71996e+06
3.56892e+06
3.34983e+06
3.01434e+06
2.55412e+06
2.05333e+06
1.69405e+06
1.25919e+06
1.01824e+06
924447
1.35204e+06
1.05251e+06
1.07396e+06
1.38677e+06
1.72415e+06
2.2041e+06
2.58753e+06
2.87523e+06
3.08711e+06
3.24105e+06
3.34279e+06
3.39898e+06
3.42106e+06
3.39827e+06
3.3397e+06
3.23898e+06
3.08554e+06
2.87124e+06
2.58716e+06
2.21366e+06
1.70056e+06
1.37132e+06
1.07715e+06
1.03952e+06
1.38886e+06
1.42737e+06
1.07725e+06
1.07737e+06
1.23399e+06
1.5067e+06
1.90207e+06
2.22224e+06
2.48082e+06
2.67192e+06
2.81455e+06
2.91551e+06
2.96886e+06
2.99145e+06
2.96776e+06
2.91032e+06
2.80868e+06
2.66456e+06
2.46912e+06
2.20768e+06
1.8939e+06
1.49926e+06
1.22097e+06
1.07746e+06
1.06748e+06
1.41254e+06
1.42702e+06
1.118e+06
1.09014e+06
1.16265e+06
1.36411e+06
1.65647e+06
1.91877e+06
2.15029e+06
2.32222e+06
2.45123e+06
2.54304e+06
2.59414e+06
2.61414e+06
2.59349e+06
2.53937e+06
2.445e+06
2.31255e+06
2.13747e+06
1.90137e+06
1.63967e+06
1.35611e+06
1.15445e+06
1.08774e+06
1.11256e+06
1.41198e+06
1.43219e+06
1.1798e+06
1.11859e+06
1.1255e+06
1.25266e+06
1.45643e+06
1.67151e+06
1.87163e+06
2.02162e+06
2.13687e+06
2.2208e+06
2.26343e+06
2.28557e+06
2.2636e+06
2.21612e+06
2.12936e+06
2.00945e+06
1.85565e+06
1.65523e+06
1.43994e+06
1.25141e+06
1.12046e+06
1.11271e+06
1.17341e+06
1.4122e+06
1.44542e+06
1.2822e+06
1.16479e+06
1.12574e+06
1.17748e+06
1.31021e+06
1.47934e+06
1.64435e+06
1.7736e+06
1.87381e+06
1.94599e+06
1.98459e+06
1.99897e+06
1.98315e+06
1.93829e+06
1.86449e+06
1.75937e+06
1.62722e+06
1.46184e+06
1.28956e+06
1.16775e+06
1.1172e+06
1.15795e+06
1.29183e+06
1.42601e+06
1.48801e+06
1.46849e+06
1.20443e+06
1.12328e+06
1.12042e+06
1.19022e+06
1.31584e+06
1.44825e+06
1.55636e+06
1.64414e+06
1.70887e+06
1.74111e+06
1.75586e+06
1.73898e+06
1.70353e+06
1.63799e+06
1.54755e+06
1.43727e+06
1.30677e+06
1.17773e+06
1.11445e+06
1.11655e+06
1.1933e+06
1.45056e+06
1.4655e+06
1.58278e+06
1.5431e+06
1.22918e+06
1.11366e+06
1.08459e+06
1.10885e+06
1.19481e+06
1.29439e+06
1.3823e+06
1.45469e+06
1.50741e+06
1.53697e+06
1.54761e+06
1.5345e+06
1.50214e+06
1.44817e+06
1.37222e+06
1.28158e+06
1.18327e+06
1.09795e+06
1.07941e+06
1.10867e+06
1.21618e+06
1.50308e+06
1.55451e+06
1.78184e+06
1.59311e+06
1.24319e+06
1.09873e+06
1.04978e+06
1.04645e+06
1.09213e+06
1.16154e+06
1.2298e+06
1.28988e+06
1.33671e+06
1.35961e+06
1.36979e+06
1.35602e+06
1.33129e+06
1.28385e+06
1.22194e+06
1.15158e+06
1.08278e+06
1.03846e+06
1.0435e+06
1.09316e+06
1.24102e+06
1.5769e+06
1.70942e+06
1.84573e+06
1.6389e+06
1.26864e+06
1.08433e+06
1.01078e+06
992687
1.01326e+06
1.05828e+06
1.108e+06
1.15423e+06
1.19003e+06
1.21107e+06
1.21823e+06
1.20874e+06
1.18539e+06
1.14915e+06
1.10225e+06
1.05274e+06
1.00771e+06
989200
1.00766e+06
1.07962e+06
1.25976e+06
1.61466e+06
1.85701e+06
1.8453e+06
1.66531e+06
1.31347e+06
1.08266e+06
977686
945093
943141
969811
1.00254e+06
1.03574e+06
1.06627e+06
1.08081e+06
1.08931e+06
1.07992e+06
1.06298e+06
1.03218e+06
997812
964712
938352
940737
972169
1.07439e+06
1.28999e+06
1.64082e+06
1.85629e+06
1.83763e+06
1.66983e+06
1.37074e+06
1.08471e+06
947586
899201
888939
898362
919842
940771
960972
973902
978908
972573
956851
936787
914863
893316
884835
895404
943097
1.0773e+06
1.34599e+06
1.64863e+06
1.85145e+06
1.82237e+06
1.66941e+06
1.48946e+06
1.097e+06
927125
857093
834963
832504
842913
855471
871357
878453
884293
878150
869242
853095
840620
830303
833915
855535
923216
1.08494e+06
1.43555e+06
1.64564e+06
1.83361e+06
1.79283e+06
1.66648e+06
1.57082e+06
1.12583e+06
920675
823849
789700
781424
782413
787710
795418
801276
803823
800528
792905
785165
780217
778643
787840
822776
921514
1.10797e+06
1.56913e+06
1.63957e+06
1.79737e+06
1.76355e+06
1.64833e+06
1.56878e+06
1.1567e+06
922889
797357
746776
729891
725798
726617
730392
731612
734732
730940
728978
724796
724385
728149
746366
797035
925927
1.15247e+06
1.57257e+06
1.6239e+06
1.72624e+06
1.7177e+06
1.61042e+06
1.56395e+06
1.22087e+06
933944
782710
714247
688514
679421
676630
675753
675536
676202
674935
674688
675351
678093
686769
713883
783347
933378
1.21561e+06
1.56326e+06
1.58451e+06
1.68338e+06
1.6698e+06
1.55841e+06
1.55048e+06
1.3493e+06
960290
783199
688532
649803
634344
628933
627141
624441
625578
624450
626550
628998
634653
649012
688072
784255
953959
1.34305e+06
1.54372e+06
1.53258e+06
1.63745e+06
1.63722e+06
1.51047e+06
1.51376e+06
1.35389e+06
992279
787149
674786
621823
600314
590837
585560
583138
582828
583155
584995
590619
600322
621615
676039
792807
997205
1.34948e+06
1.50317e+06
1.48731e+06
1.59618e+06
1.60064e+06
1.46967e+06
1.44041e+06
1.3501e+06
1.05992e+06
802088
675372
599439
567170
554000
549017
544419
544777
544822
549014
554939
568916
601057
676484
804770
1.06502e+06
1.34305e+06
1.41785e+06
1.44913e+06
1.56939e+06
1.5563e+06
1.4312e+06
1.36217e+06
1.33693e+06
1.19542e+06
834137
680159
589996
545887
527300
517432
513596
512531
513641
517361
527611
547435
592871
680777
831493
1.20231e+06
1.32655e+06
1.34119e+06
1.41647e+06
1.53654e+06
1.52341e+06
1.40031e+06
1.3006e+06
1.30194e+06
1.19444e+06
882838
686992
590488
529352
501207
489830
484140
483565
483543
490640
502271
531909
593798
695760
888966
1.20195e+06
1.29083e+06
1.28608e+06
1.38676e+06
1.49713e+06
1.47522e+06
1.37246e+06
1.25324e+06
1.23262e+06
1.18576e+06
985271
706138
595353
525389
487051
467198
460841
458817
460812
467560
488111
527833
596918
720371
990959
1.18644e+06
1.22001e+06
1.23906e+06
1.35678e+06
1.46607e+06
1.42419e+06
1.34311e+06
1.21816e+06
1.16863e+06
1.16169e+06
1.04315e+06
743873
608430
526364
472978
449103
438369
436777
438516
450279
476056
528736
606551
769773
1.03944e+06
1.15238e+06
1.15809e+06
1.20621e+06
1.3311e+06
1.42656e+06
1.38606e+06
1.30903e+06
1.19106e+06
1.11721e+06
1.10817e+06
1.03861e+06
809499
632298
528914
472990
439195
424093
419174
424083
440506
476206
534177
630841
873944
1.03463e+06
1.08546e+06
1.10649e+06
1.18057e+06
1.29703e+06
1.37671e+06
1.34535e+06
1.27608e+06
1.17153e+06
1.07247e+06
1.04046e+06
1.02497e+06
944959
684197
539581
474905
438504
414154
407529
414169
439221
477357
545454
673976
922727
1.0149e+06
1.02476e+06
1.06481e+06
1.16156e+06
1.26569e+06
1.34349e+06
1.29873e+06
1.2338e+06
1.1493e+06
1.0461e+06
992845
993933
943819
790633
564360
480530
439186
414103
402635
414103
439791
481319
569650
761313
919714
973002
979067
1.03681e+06
1.14128e+06
1.23058e+06
1.29926e+06
1.25725e+06
1.1981e+06
1.12843e+06
1.02667e+06
954568
942688
931318
849286
611641
491738
441084
414556
403142
414849
443086
493080
622952
837852
908925
921048
943613
1.01871e+06
1.12129e+06
1.19399e+06
1.25005e+06
1.17403e+06
1.14554e+06
1.09946e+06
1.0129e+06
931618
900921
903113
847081
711358
516222
448303
416877
405268
417088
451011
516318
728326
836526
883175
880987
922903
1.00383e+06
1.0931e+06
1.14035e+06
1.16348e+06
1.045e+06
1.07343e+06
1.05681e+06
990588
913482
863589
854674
835283
768973
567688
467141
423531
410940
423401
469686
564643
761847
825201
840425
847997
906268
983780
1.05094e+06
1.06975e+06
1.0379e+06
74344.2
78453.5
81012.7
82869.9
84243.5
85099
85943
86967.4
88254.1
89642.6
91145.9
92160.5
91155.4
84805.4
77246.9
73633.5
71787.6
71069.5
70797.9
70699.2
70663.1
70647.6
70640.5
70637.8
70632.7
70638.8
70621.6
70647.5
70595.4
70670.9
81780.7
84704.8
84734
85101.6
85461.8
85838.7
86329.8
87116.1
88436.6
90311.3
92865.3
95927.3
99288.1
101629
96875.2
81611.7
74934.9
72049
71099.1
70790.6
70688.7
70654.7
70642.9
70638.7
70633.2
70638.7
70623.5
70646.2
70613.2
70655.5
83774.4
85509.7
84978.8
85334.8
85590.7
85955.7
86388.3
87111.5
88437.9
90471.1
93373.4
96860.3
100594
104259
106621
102632
83395.9
75091.7
71960.7
71039.6
70756.9
70672.6
70647.1
70639.7
70634.2
70638.5
70627.4
70643.1
70624.5
70646.1
84133.6
85568.9
84858.6
85344.5
85575.7
85946.8
86357.4
87019.7
88280
90345.6
93350.3
96955.3
100773
104510
108140
110818
107206
84526.3
74928.4
71788.5
70960.2
70723.7
70659.2
70642.4
70635.6
70638.1
70630
70640.8
70628.8
70642.2
84153.6
84606.1
83597.7
84232.9
84376.2
84810
85251.8
85784.1
86725.6
88453
91264.5
95120.2
99724.8
104226
108206
111925
114756
110546
84448
74467.6
71581.1
70880.9
70695.8
70650.1
70637.5
70637.9
70631.9
70639.3
70631.6
70639.6
83444.5
83126.6
82100.1
82666.5
82684.2
83220.2
83684.4
84169.6
84865.5
86292.5
88853.6
92396.8
97000.9
102392
107614
111986
115871
118493
112083
83004
73773.4
71362.6
70810.1
70675
70642.6
70638.6
70633.4
70638.3
70633.3
70638.2
82270.6
81343.7
80640.4
80873.6
80882.2
81451
81981.2
82473.2
82954
84020.4
86376.4
89749.4
94119.5
99451.6
105590
111342
115948
119973
121956
110771
80782.8
73001.8
71159
70753.5
70658.8
70641.1
70634.8
70637.6
70634.4
70637.4
80863.4
79731.1
79241
79199.3
79204.4
79767
80344
80854.6
81191.5
81843.6
83856.4
87168.7
91441.9
96502.4
102547
109299
115396
120092
124246
125008
105779
78407.9
72289.2
70990.8
70709.9
70650.7
70636.8
70637.4
70635.1
70637.1
79414.8
78433.4
77978.1
77854.5
77810.3
78352.5
78887.7
79355.7
79594.4
79958.7
81426.7
84565.7
88867.3
93793.4
99522.5
106228
113491
119737
124490
128732
127310
97454
76142.5
71738.7
70862.7
70681.7
70642.7
70638.1
70635.7
70636.9
78376
77706.2
77297
77033.6
76919.3
77242.9
77674
77970.9
78124.9
78285.6
79309.6
81922.4
86352
91229.3
96807
103145
110524
118158
124361
129384
133234
127796
88792.1
74244.2
71334.4
70774.4
70661.1
70640.9
70636.4
70636.9
77858.6
77559.7
77209.4
76825.1
76678.2
76703.5
76698.9
76690.1
76700.4
76718.3
77303.7
79584.5
83775.3
88786.9
94329.9
100455
107451
115497
123324
129398
134809
137085
122073
81768.6
72842.2
71055.4
70715.2
70650.7
70638
70637.1
77682.2
77675.3
77528.4
77060.9
76792
76654.7
76409.3
76229.7
76125.7
75981.2
75960.9
77670.8
81318.2
86522.6
92086.9
98136.9
104837
112584
121214
128992
135004
140524
139584
107941
77592
71921.3
70873.9
70680.1
70643.2
70637.9
77657.1
77933.4
78063.7
77621.2
77306.7
77051.5
76615.8
76329.1
76104.5
75785.1
75639.3
76382.6
79353.9
84383.7
90122.7
96166.9
102739
110097
118660
127568
134954
141314
146287
139738
93424.2
74684.8
71354.4
70764.6
70658.7
70640.8
77689.5
78204.1
78435.6
78380.1
78300.7
78085.9
77513.1
76961.8
76290.2
75819.5
75619.8
75790.6
78019
82504.4
88481.6
94508.3
101087
108220
116349
125427
134169
141384
148374
150685
131107
82716.2
72836
71018.7
70701.7
70649.1
77836.9
78309
78603.9
79029.3
79397.4
79586.2
79050.9
77711.9
76532.1
75893.6
75600.5
75469.2
77093.8
80944.5
86945.4
92966.3
99614.2
106710
114499
123227
132617
141182
148648
155459
151886
110780
77365.9
71778.7
70829.2
70672.3
78024.9
78431.2
78679.9
79174.5
79709.1
79938.6
79473.6
77931
76625.2
75890.3
75371.3
75195.5
76088.4
79449.4
85142.3
91245.2
97964
105139
112787
121156
130600
140157
148651
156922
161959
149504
91787.7
74112.6
71201.6
70739.4
78312.6
78631
78688.2
78956.5
79566
79837
79466.5
77923.8
76592.1
75614.6
74847.8
74755.9
74845.5
77844.6
83040.2
89341.7
96036.1
103270
110905
119108
128438
138441
148210
157041
165492
163371
130767
80824.3
72318.9
70933
78560.6
78738.9
78576.1
78579.1
79098.5
79254.9
78741.8
77461.2
75926
74915.1
74263.8
74040.1
74021.3
76095.5
80895.1
87454.4
93992.5
101150
108792
116955
126213
136390
147219
156996
166506
172731
162689
104593
75669.9
71493.4
78980.4
78806.5
78407.9
78225.1
78451.9
78537.9
78432
76790.7
75326.3
74489.4
74123.9
73700.2
73628.2
74921.3
79064.1
85586.7
91957.5
99017.3
106598
114792
123894
134170
145579
156611
166559
176353
175665
150923
84962.1
73155.2
79180.4
78960.8
78169
77953
77987.4
78542.6
77911.3
76313.9
75073.2
74370.6
74177
73227.5
72761.5
73391.8
77638.4
84192
90536.5
97287.3
104685
112849
121732
132254
143601
155351
166415
177231
182328
174282
117762
77971.1
79429.2
79056.5
78060.5
77856
78095.6
77816.8
77536.6
76126.4
75150.6
74199.8
73209.3
72522.1
72244.7
72749.9
76927.5
83507.3
89798.8
96143.2
103220
111170
119934
130610
141551
153291
165379
177011
187522
186440
164044
91185.1
80135
78919.4
78080.8
77779.2
78029.3
78086
77378.8
76591.5
74168.5
72866.2
72458.8
72296.2
72091.7
72586.7
76705.7
83202.4
89425
95598.6
102104
109770
118413
128302
139668
150861
163580
176201
188438
193778
189619
134874
78173.8
77823.4
76746
77447.5
77919.1
78182.9
78316.3
74882.7
73070.9
72340.9
72258.4
72284.1
72370.5
72741.6
76662.4
82021.7
87598.4
93924.2
100479
108407
116982
126554
137442
149487
161060
174852
188291
200877
204795
198204
82170.7
76818.1
77798.4
77530.8
78166.6
77636.1
75810.4
73792
72625.7
72174.2
72252.1
72377.4
72518.6
72728.5
73351.6
78908.4
85853.8
92551.8
99560.7
106933
115519
124947
135467
147538
159914
172601
187459
202395
221699
269628
61761.2
74358.9
76079.8
77318.2
76645.8
75671
74542
73226
72490
71740.2
71478.2
71452.6
70999.4
70846.2
71030.2
77336.1
85001.6
91858.5
98938
106098
114338
123639
133986
145563
158366
170831
184242
203131
242434
346590
70670.9
70595.4
70647.5
70621.6
70638.8
70632.7
70637.8
70640.5
70647.6
70663
70698.9
70796.5
71064.8
71773
73593.1
77170.1
84617.9
91019.8
92074.9
91082.1
89588.8
88205.9
86923.1
85900.6
85057.7
84204.3
82833.4
80978.5
78423.9
74328.8
70655.5
70613.2
70646.2
70623.5
70638.7
70633.2
70638.7
70642.9
70654.7
70688.3
70789.1
71093.4
72028.7
74871
81448.4
96582.4
101534
99239.6
95887
92827.9
90275.2
88400.8
87079.6
86293.4
85803.7
85430.3
85073.5
84709.3
84679.1
81752.2
70646.1
70624.5
70643.1
70627.4
70638.5
70634.2
70639.7
70647
70672.3
70755.6
71034.3
71940.7
75020.8
83166.3
102332
106517
104198
100546
96822.1
93340.7
90439.4
88405.1
87076.6
86352.3
85919.9
85557.5
85303.5
84953.2
85481
83748.5
70642.2
70628.8
70640.8
70630
70638.1
70635.5
70642.3
70659
70722.6
70955.7
71770.4
74854.5
84247.5
106894
110707
108071
104450
100725
96918
93319.5
90316.2
88249.3
86985.3
86321.4
85910.6
85541.6
85311.7
84826.9
85538.1
84107.1
70639.6
70631.6
70639.3
70631.9
70637.9
70637.5
70650
70695
70877.3
71565.8
74397.6
84165.6
110209
114631
111846
108136
104173
99686.2
95089
91234.7
88420.5
86690.7
85744.9
85211.4
84769.7
84337.1
84193.7
83560.4
84567.9
84124.7
70638.2
70633.3
70638.3
70633.4
70638.5
70642.5
70674.4
70807.3
71350
73712
82749.7
111661
118344
115780
111907
107555
102352
96971.2
92368.4
88825.9
86261
84830.5
84129.6
83642.8
83177.1
82642
82622.3
82055.7
83082.3
83403.7
70637.4
70634.4
70637.6
70634.8
70641
70658.4
70751.5
71149.6
72952.5
80578.2
110191
121771
119865
115859
111275
105545
99415
94084.5
89714.2
86342.6
83981.1
82911.9
82428
81935.1
81403.3
80834
80821.5
80588.9
81287.8
82223.1
70637.1
70635.1
70637.4
70636.8
70650.4
70708.5
70984.1
72253.8
78244.8
105121
124785
124113
119986
115316
109242
102503
96461.2
91402.1
87128.1
83818
81795.4
81140.7
80802.2
80291.3
79712.5
79148
79139.7
79180.6
79666.1
80799.5
70636.9
70635.7
70638.1
70642.6
70680.8
70858.3
71715
76015.3
96756.8
127009
128575
124365
119637
113421
106176
99475.9
93748.5
88825.8
84524.6
81386.3
79904
79538.4
79299.4
78832.4
78294.3
77747
77788.5
77911.1
78359
79339.8
70636.9
70636.4
70640.8
70660.6
70771.7
71319
74155.1
88274.9
127337
133028
129246
124242
118071
110456
103084
96748.9
91173.2
86301.4
81870.4
79255.5
78210.5
78050.4
77900.8
77610.6
77184.8
76865.4
76974.4
77225.9
77624.3
78284.3
70637.1
70638
70650.4
70713.5
71045.8
72785
81476.1
121151
136813
134654
129262
123221
115421
107387
100397
94275.3
88735.4
83734.2
79536.6
77236.6
76665.3
76655.6
76649.2
76664.1
76677
76642
76778.9
77142.4
77480.2
77776.3
70637.9
70643.1
70679.2
70868.4
71888.7
77406.8
106889
139221
140372
134867
128874
121134
112517
104772
98080
92039
86480.5
81290.7
77607.5
75968.3
76007.7
76160.5
76253.8
76418.8
76651.7
76784.7
77042.4
77489.2
77622.9
77638.3
70640.7
70658.2
70761.6
71336.2
74572.3
92679.1
139234
146109
141208
134827
127486
118603
110048
102694
96129
90101
84372.4
79367.3
76411.6
75693.2
75842.2
76172.7
76381.2
76670
77094.7
77351.6
77658.3
78082.2
77941.8
77652.4
70648.8
70700.2
71009
72773.3
82367.3
129996
150413
148301
141285
134084
125392
116334
108216
101089
94512.9
88509.1
82548.5
78097.4
75883
75699.3
75900
76385
77067.5
77598.4
78188.8
78405.7
78490.8
78527.7
78287.1
77757.5
70671.5
70824.2
71746.9
77174
109582
151442
155367
148608
141114
132598
123243
114534
106768
99680.7
93027.6
87035.7
81045.9
77215.9
75593.9
75706.2
76009.5
76677.6
77925.8
79299.3
79854.3
79658.6
79268.8
78787.4
78470.3
77992
70736.8
71186.3
74010.4
91000.3
148885
161809
156931
148621
140153
130649
121230
112878
105238
98077.9
91353.7
85271
79568.4
76189
75352
75525.9
76028.1
76809.7
78195.8
79845.1
80318.1
80071.8
79515.5
78983.6
78671.1
78257.5
70925.1
72270.6
80535.7
129392
163077
165473
157076
148232
138516
128544
119230
111037
103393
96157.2
89460.3
83161.9
77946
74744
74883
74960.1
75818
76807.5
78216.3
79887.7
80275
79998
79365.6
79087.3
78982.9
78626.4
71469.5
75524.9
103551
162266
172614
166571
157046
147319
136533
126348
117091
108919
101246
94081.4
87538
80954.3
76175
74131.9
74177.7
74551.7
75250.6
76213.1
77853.7
79441.2
79899.2
79634.8
78968.6
78990.9
79206.4
78985
73084.8
84548.1
149713
175530
176400
166626
156711
145738
134336
124034
114897
106686
99082.5
92033.5
85617.7
79063
74916.4
73772.3
73890.7
74493.9
75000.3
75980.3
77648
79231.5
79107.3
78995.6
78686
78857.7
79318.8
79562
77782.7
116684
174040
182355
177342
166518
155520
143785
132407
121855
112933
104776
97383
90585.6
84282.2
77624.7
73719.4
73208.8
73611.3
74602.1
74969.9
75866.3
77084
78518.5
78812.6
78254.3
78180.5
78543.1
79590.1
79866.7
90630.5
163161
186428
187666
177146
165555
153505
141729
130749
120024
111234
103302
96226.3
89815.1
83632.8
76964.5
73186.6
72862.1
73114.4
73740
74871.7
75970.4
76879.4
78050.3
78102.8
78006.1
77869.8
78201
79573.8
80061.7
133687
189463
193867
188630
176389
163782
151063
139799
128420
118468
109813
102176
95668.4
89432.5
83343.9
76870.3
73071.5
72772.2
72945
73183.3
73652.5
74967.8
77228.1
77782.9
78026
78118.3
78149.8
78556.2
79458.4
80722.7
197093
204772
201070
188498
175064
161258
149637
137625
126670
117030
108427
100576
94023.9
87625
82164.4
76880.3
73232.9
73077.7
73079.3
73026.6
73154.4
73859.6
75672.7
78635.1
78612.4
78207.5
77838.9
77204.3
78295.1
78528.1
268756
221709
202622
187688
172827
160125
147752
135626
125066
115621
107042
99537.1
92507.6
85888.7
79214.5
73746
73231.4
73202.3
73187.4
73084.2
72987.4
73435.8
74484.5
76475.6
78185.8
79112.3
78307.8
78532
77322.3
82452.4
346165
242485
203366
184495
171053
158587
145759
134130
123793
114361
106100
98785.8
91764.1
85034.9
77733.5
71594.9
71564.7
71693.9
72168.2
72307.8
72645
73416.4
73838.4
74903.7
76035.2
77215.8
77669.6
76640.5
74728.9
61746.6
70637
70637
70637
70637
70637
70637
70637
70637
70637
70637
70637
70637
70637
70637
70637
70637
70637
70637
70637
70637
70637
70637
70637
70637
70637
70637
70637
70637
70637
70637
70637
70637
70637
70637
70637
70637
70637
70637
70637
70637
70637
70637
70637
70637
70637
70637
70637
70637
70637
70637
70637
70637
70637
70637
70637
70637
70637
70637
70637
70637
70637
70637
70637
70637
70637.7
70645.4
70721
71425
76617.7
114869
263885
526714
832613
1.1299e+06
1.4233e+06
1.70594e+06
1.95454e+06
2.16103e+06
2.34307e+06
2.50139e+06
2.54043e+06
2.54357e+06
2.52987e+06
2.48648e+06
2.41962e+06
2.34141e+06
2.23959e+06
2.11165e+06
1.97643e+06
1.84384e+06
1.71744e+06
1.60231e+06
1.50061e+06
1.41194e+06
1.33444e+06
1.26597e+06
1.20498e+06
1.15056e+06
1.10236e+06
1.06004e+06
1.02281e+06
990747
966361
943640
924553
908702
895912
886320
879486
875139
873263
873171
874456
875979
875486
869394
852267
822558
785758
743518
696024
641599
578906
506909
426953
70637
70637
70637
70637
70637
70637
70637
70636.9
70636.9
70636.9
70636.9
70636.9
70636.9
70636.9
70636.9
70636.9
70636.9
70636.9
70636.9
70636.9
70636.9
70636.9
70636.9
70636.9
70636.9
70636.9
70636.9
70636.9
70636.9
70636.9
70636.9
70636.9
70636.9
70636.9
70636.9
70636.9
70636.9
70636.9
70636.9
70636.9
70636.9
70636.9
70636.9
70636.9
70636.9
70636.9
70636.9
70636.9
70636.9
70636.9
70636.9
70636.9
70636.9
70636.9
70636.9
70636.9
70636.9
70636.9
70636.9
70636.9
70636.9
70637
70637
70638.3
70655
70845.8
72703.7
88491.1
204953
440022
602250
680938
739179
804408
854281
895320
937169
983294
1.02851e+06
1.0774e+06
1.11989e+06
1.15857e+06
1.1988e+06
1.23565e+06
1.26756e+06
1.2945e+06
1.32657e+06
1.35801e+06
1.39366e+06
1.41122e+06
1.40983e+06
1.3995e+06
1.37973e+06
1.35333e+06
1.32132e+06
1.28584e+06
1.24782e+06
1.20806e+06
1.16782e+06
1.12833e+06
1.0909e+06
1.05561e+06
1.02378e+06
991131
959580
927550
894476
859076
821527
781705
738761
693363
645539
596608
548447
502583
462224
430085
400987
373136
347222
323164
300811
280871
261800
70637
70637
70637
70637
70637
70637
70637
70637
70637
70637
70637
70637
70637
70637
70637
70637
70637
70637
70637
70637
70637
70637
70637
70637
70637
70637
70637
70637
70637
70637
70637
70637
70637
70637
70637
70637
70637
70637
70637
70637
70637
70637
70637
70637
70637
70637
70637
70637
70637
70637
70637
70637
70637
70637
70637
70637
70637
70637
70637
70637
70637
70637
70639.5
70672.7
71116.4
75780.7
125212
349573
593473
682098
703410
703817
705407
714062
714759
714539
716785
718814
718758
715933
708624
696865
687624
684215
683733
686062
690922
698263
709788
726532
743936
759423
773302
784013
787950
788088
786840
779104
766073
749046
728273
705243
680047
652147
620828
588401
555230
522466
490352
458841
428336
398970
370825
344399
319657
297902
279864
264928
252608
241658
232280
224382
217897
212041
206673
70637
70637
70637
70637
70637
70637
70637
70637
70637
70637
70637
70637
70637
70637
70637
70637
70637
70637
70637
70637
70637
70637
70637
70637
70637
70637
70637
70637
70637
70637
70637
70637
70637
70637
70637
70637
70637
70637
70637
70637
70637
70637
70637
70637
70637
70637
70637
70637
70637
70637
70637
70637
70637
70637
70637
70637
70637
70637
70637
70637
70637.1
70641
70701.1
71614.7
82272.7
193519
489749
669012
723108
729594
723553
708507
692964
683788
671143
658185
640353
622494
604301
583419
563263
539865
517931
500256
484457
470421
457931
445780
435087
425681
417786
411113
404946
398641
391254
383092
374797
365892
356502
346814
337039
327609
318299
308708
298141
287509
277279
267612
258496
249744
241368
233358
225558
218010
211173
205127
199846
195173
191286
188559
186043
184265
183224
182367
182133
70637
70637
70637
70637
70637
70637
70637
70637
70637
70637
70637
70637
70637
70637
70637
70637
70637
70637
70637
70637
70637
70637
70637
70637
70637
70637
70637
70637
70637
70637
70637
70637
70637
70637
70637
70637
70637
70637
70637
70637
70637
70637
70637
70637
70637
70637
70637
70637
70637
70637
70637
70637
70637
70637
70637
70637
70637
70637
70637
70637.1
70642.6
70740.6
72414
95231.8
289612
597744
716434
745944
748741
740371
725995
708926
689767
673677
657495
637406
610053
584026
556769
526769
499531
473020
447712
425751
405269
386901
369911
354370
339625
326248
314448
304284
295361
287201
279173
271233
263397
255667
248158
240919
234238
228156
222566
217063
211367
205790
200556
195675
191193
186980
183045
179520
176546
173816
171363
169366
167735
166426
165237
164675
164856
165536
166772
168434
169958
70637
70637
70637
70637
70637
70637
70637
70637
70637
70637
70637
70637
70637
70637
70637
70637
70637
70637
70637
70637
70637
70637
70637
70637
70637
70637
70637
70637
70637
70637
70637
70637
70637
70637
70637
70637
70637
70637
70637
70637
70637
70637
70637
70637
70637
70637
70637
70637
70637
70637
70637
70637
70637
70637
70637
70637
70637
70637
70637.2
70644
70785.7
73485.7
117201
388611
662415
749305
765303
764974
755113
742063
726203
708436
689006
670698
653575
627975
596067
566068
534353
500148
468783
441450
415100
391426
369213
349752
331283
314444
298429
284245
271596
260477
250718
242114
234011
226197
218718
211675
205122
199090
193711
188919
184585
180464
176450
172656
169216
166122
163405
160936
158643
156521
154716
153677
153012
152707
152654
152740
152927
153004
153125
153396
153959
155102
156784
70637
70637
70637
70637
70637
70637
70637
70637
70637
70637
70637
70637
70637
70637
70637
70637
70637
70637
70637
70637
70637
70637
70637
70637
70637
70637
70637
70637
70637
70637
70637
70637
70637
70637
70637
70637
70637
70637
70637
70637
70637
70637
70637
70637
70637
70637
70637
70637
70637
70637
70637
70637
70637
70637
70637
70637
70637
70637.2
70644.5
70824.4
74587.2
141738
463642
705056
772212
784714
783582
770867
757115
742302
726286
708601
689333
670298
651586
623113
588708
555245
521755
487021
453445
425450
398983
374493
351555
331639
312592
295271
278868