/*--------------------------------*- C++ -*----------------------------------*\
| =========                 |                                                 |
| \\      /  F ield         | OpenFOAM: The Open Source CFD Toolbox           |
|  \\    /   O peration     | Version:  2112                                  |
|   \\  /    A nd           | Website:  www.openfoam.com                      |
|    \\/     M anipulation  |                                                 |
\*---------------------------------------------------------------------------*/
FoamFile
{
    version     2.0;
    format      ascii;
    arch        "LSB;label=32;scalar=64";
    class       volVectorField;
    location    "0.00304";
    object      U;
}
// * * * * * * * * * * * * * * * * * * * * * * * * * * * * * * * * * * * * * //

dimensions      [0 1 -1 0 0 0 0];

internalField   nonuniform List<vector> 
13875
(
(2204.19 109.697 1.81261e-18)
(2142.54 5.6135 -9.38615e-19)
(2170.13 -2.21992 -9.41192e-19)
(2168.19 -1.20329 0)
(2170.87 0.0906002 0)
(2169.59 -0.0698525 9.36358e-19)
(2169.61 -0.362918 -9.36754e-19)
(2169.83 -1.21969 -4.6843e-19)
(2169.15 -1.10079 4.68162e-19)
(2169.17 -0.301229 0)
(2169.86 0.114507 -3.88073e-22)
(2169.52 1.34535 -3.88026e-22)
(2169.32 1.17026 0)
(2169.1 -0.29486 -4.68247e-19)
(2170.27 -1.29953 4.68363e-19)
(2169.77 -0.587052 0)
(2169.54 0.00792832 9.37274e-19)
(2169.44 0.791295 -9.37674e-19)
(2170 1.50476 3.8583e-22)
(2169.52 0.402984 -3.85481e-22)
(2170.71 -0.270369 -9.35979e-19)
(2167.94 0.318006 9.37011e-19)
(2171.03 2.54377 -1.87828e-18)
(2143.5 -8.58784 1.9167e-18)
(2209.9 -106.658 1.76543e-18)
(2253.39 91.9226 -1.63239e-18)
(2228.49 -1.12277 1.88342e-18)
(2247.28 0.638716 8.71885e-19)
(2245.57 1.319 -8.6722e-19)
(2248.55 -0.489027 4.163e-22)
(2248.15 0.462761 5.20315e-22)
(2248.19 0.465363 4.16052e-22)
(2247.86 1.96596 -4.36612e-19)
(2245.45 1.79864 4.33387e-19)
(2245.01 -0.142013 2.17516e-19)
(2245.45 -0.582274 -1.63037e-19)
(2245.59 -1.45828 -5.31386e-20)
(2247.46 -1.30783 0)
(2247.49 -0.391031 -4.35083e-19)
(2247.79 1.41528 4.33314e-19)
(2245.56 1.47657 4.35968e-19)
(2245.15 0.376701 -4.35596e-19)
(2245.67 -1.26008 5.18827e-22)
(2247.95 -2.34627 -5.19679e-22)
(2248.07 -0.766261 5.20389e-22)
(2248.7 0.804226 -8.71648e-19)
(2245.61 -0.688364 2.5997e-18)
(2247.25 -1.56854 -1.74252e-18)
(2228.76 3.66137 5.4306e-22)
(2256.34 -97.3714 -1.71423e-18)
(2252.41 78.1063 0)
(2236.38 -18.2227 0)
(2249.37 4.37317 0)
(2250.89 -1.98564 0)
(2254.18 -3.0809 -1.6533e-18)
(2253.93 -0.693222 1.64341e-18)
(2254.26 0.304386 1.63978e-18)
(2254.28 2.13936 -2.45678e-18)
(2254 2.31218 8.60177e-19)
(2253.82 0.357759 4.31132e-22)
(2253.56 -0.29148 -4.30589e-19)
(2253.44 -2.08991 4.30309e-19)
(2253.46 -2.03435 0)
(2253.51 0.163497 0)
(2253.68 1.99329 4.07817e-22)
(2253.32 2.3483 0)
(2253.02 -0.391443 8.39222e-22)
(2254.22 -2.59998 4.30187e-19)
(2254.22 -1.80088 -4.09579e-19)
(2253.75 -0.0118608 0)
(2254.18 2.87232 0)
(2251.04 1.4303 0)
(2250.64 -4.73193 0)
(2237.92 13.7618 0)
(2257.31 -74.2977 0)
(2247.86 51.3413 0)
(2235.05 -28.5924 1.81442e-18)
(2249.15 7.12369 -3.41718e-18)
(2251.71 -4.80166 3.4648e-18)
(2253.83 -3.86193 -1.65495e-18)
(2253.79 -0.997923 0)
(2254.22 0.268796 -7.88813e-22)
(2254.24 2.0259 0)
(2254.25 1.96017 0)
(2254.1 0.847263 0)
(2254.1 0.36074 0)
(2253.79 -1.81197 -8.24484e-22)
(2253.4 -2.06685 -5.09852e-20)
(2253.49 0.313373 5.09899e-20)
(2253.62 1.96853 0)
(2253.83 1.74937 0)
(2254.01 -0.944538 8.39228e-22)
(2254.29 -2.51147 -8.42862e-19)
(2254.13 -1.60331 8.10254e-19)
(2253.65 0.189869 -1.62288e-18)
(2253.98 3.41004 1.63027e-18)
(2252.07 4.68791 1.74099e-18)
(2249.71 -8.77411 -1.72047e-18)
(2235.82 31.2098 0)
(2251.97 -58.4309 0)
(2244.9 39.2797 1.74898e-18)
(2235.48 -47.8003 0)
(2248.63 10.3636 0)
(2250.62 -8.21944 0)
(2254.21 -5.46862 0)
(2253.89 -1.74914 1.66184e-21)
(2254.14 0.108943 1.63495e-21)
(2254.19 1.75796 4.30512e-19)
(2254.1 1.74603 -4.30316e-19)
(2253.95 0.9472 2.10318e-19)
(2254.03 0.685549 -2.17226e-19)
(2253.68 -1.62791 0)
(2253.3 -2.03342 0)
(2253.4 0.644621 -1.67469e-21)
(2253.46 1.9302 0)
(2253.68 1.28841 -1.68703e-21)
(2253.92 -1.24379 8.59227e-19)
(2254.22 -2.40858 -8.24289e-19)
(2254.16 -1.08359 1.69992e-18)
(2253.65 0.769509 -1.68167e-18)
(2254.11 4.71012 1.6608e-21)
(2250.78 6.89294 0)
(2249.93 -11.3832 0)
(2237.24 42.6652 0)
(2250.42 -35.5179 0)
(2241.48 6.74891 0)
(2231.53 -63.4689 9.12542e-19)
(2247.08 12.1313 -8.47775e-19)
(2251 -11.6713 0)
(2253.05 -6.39583 8.61462e-19)
(2253.22 -2.24832 -4.31691e-19)
(2253.8 0.0154369 -2.23362e-21)
(2253.95 1.67954 -2.16264e-19)
(2253.89 1.77542 -4.30588e-19)
(2253.71 1.20499 1.62439e-19)
(2253.88 1.16725 1.56835e-21)
(2253.53 -1.16654 2.66904e-19)
(2253.1 -2.00985 -2.16054e-19)
(2253.2 0.774777 3.38124e-21)
(2253.33 1.70674 -4.29452e-19)
(2253.63 0.671509 4.345e-19)
(2253.84 -1.63773 1.68847e-21)
(2253.96 -2.39418 -1.63109e-21)
(2253.72 -0.84458 -1.66751e-21)
(2253.04 1.05089 -8.47447e-19)
(2253.15 5.18071 8.49277e-19)
(2251.47 11.3249 0)
(2247.31 -14.998 0)
(2232.39 65.1967 -1.93292e-18)
(2245.88 -19.0305 -1.26268e-19)
(2254.1 2.91538 -4.95259e-20)
(2227.5 -79.2498 6.02433e-20)
(2242.93 12.0707 0)
(2248.77 -16.6017 -2.69102e-23)
(2252.71 -8.69609 -2.62343e-23)
(2252.93 -3.70223 0)
(2253.45 -0.566832 0)
(2253.65 1.28014 -8.42251e-19)
(2253.52 1.58187 8.48453e-19)
(2253.34 1.11032 0)
(2253.56 1.25459 1.72727e-18)
(2253.29 -0.84574 4.0827e-21)
(2252.75 -1.84609 -1.72935e-18)
(2252.87 0.974969 -1.71273e-21)
(2252.99 1.58718 0)
(2253.29 0.218033 3.45655e-18)
(2253.57 -1.74259 -3.63914e-21)
(2253.66 -1.97828 -6.72098e-18)
(2253.44 0.113568 3.398e-18)
(2252.7 2.42734 2.59176e-23)
(2252.57 7.3761 0)
(2248.62 13.6297 3.53084e-18)
(2244.03 -12.3526 -3.3118e-18)
(2228.81 72.8469 3.8159e-18)
(2246.95 2.85876 -3.18448e-18)
(2218.18 -22.8853 -3.17581e-19)
(2214.64 -87.3228 -7.49977e-18)
(2235.46 3.3534 8.71547e-22)
(2246.1 -23.2815 2.61511e-23)
(2249.05 -10.802 -8.09701e-22)
(2250.67 -4.76191 0)
(2252.02 -0.939358 -3.34762e-18)
(2252.69 1.23315 3.3527e-18)
(2252.8 1.81919 0)
(2252.68 1.35454 -8.37483e-22)
(2252.88 1.50054 -8.4125e-22)
(2252.83 -0.267193 0)
(2252.07 -1.53376 0)
(2252.18 0.985639 -1.66871e-21)
(2252.46 1.10952 -8.4345e-22)
(2252.77 -0.450897 2.63398e-23)
(2252.95 -2.06984 -8.54918e-22)
(2252.71 -1.85293 -2.56111e-23)
(2252.12 0.596998 -1.70428e-18)
(2250.63 3.36357 -1.38805e-20)
(2249.23 9.16868 1.68845e-18)
(2246.27 19.9894 8.8811e-22)
(2236.59 -4.49959 3.46055e-18)
(2216.33 81.5498 -3.53876e-18)
(2221.9 18.1533 2.50402e-23)
(2112.49 -38.0148 9.42937e-19)
(2168.66 -98.5616 0)
(2216.81 -20.3157 -8.31537e-22)
(2235.22 -33.072 -8.65207e-19)
(2245.52 -19.8867 1.70598e-18)
(2248.53 -9.71223 -1.70407e-18)
(2250.33 -3.68128 7.705e-21)
(2251.3 -0.29836 8.44914e-19)
(2251.49 1.31511 0)
(2251.41 1.03868 -8.54691e-19)
(2251.59 1.2449 8.59732e-19)
(2251.64 0.255295 0)
(2250.73 -1.10218 0)
(2250.81 0.893546 2.10925e-21)
(2251.21 0.84062 8.38205e-22)
(2251.52 -0.762871 8.61976e-19)
(2251.74 -1.66653 -8.47726e-19)
(2251.4 -0.372471 0)
(2250.54 2.8593 8.59791e-19)
(2248.58 7.52139 -1.70781e-18)
(2245.78 16.4113 8.45449e-19)
(2236.09 29.3745 -8.39956e-22)
(2218.35 16.8029 0)
(2170.67 93.9722 0)
(2115.82 35.4712 0)
(1870.66 -142.548 -6.58003e-17)
(2124.64 -160.617 8.44346e-17)
(2197.44 -54.9692 0)
(2226.88 -56.706 -2.97675e-17)
(2237.82 -23.0939 3.08376e-17)
(2243.72 -11.2816 0)
(2246.76 -4.05517 -2.99339e-20)
(2248.27 -0.108084 -1.46009e-17)
(2248.65 1.56929 1.47569e-17)
(2248.77 1.36075 -3.00405e-20)
(2248.9 1.28523 0)
(2249.03 0.810809 -3.74585e-18)
(2247.99 -0.392705 5.58972e-18)
(2248.08 0.640671 -1.90261e-18)
(2248.61 0.0855435 -2.96027e-20)
(2248.87 -1.39202 0)
(2248.98 -1.92697 0)
(2248.46 -0.208914 -2.94669e-17)
(2247.18 4.10971 2.96235e-17)
(2243.8 9.58467 -3.02054e-17)
(2238.65 20.992 2.95086e-17)
(2227.31 53.9516 3.22138e-17)
(2198.67 53.4369 -2.93196e-17)
(2127.41 162.851 -8.35481e-17)
(1881.01 139.212 -1.26404e-17)
(1648.9 -217.186 -9.11467e-17)
(2010.39 -310.121 1.37747e-16)
(2155.77 -108.154 0)
(2204.08 -64.148 6.92364e-17)
(2227.85 -31.0925 -7.1451e-17)
(2235.78 -16.5463 -3.35267e-17)
(2240.14 -6.99433 3.42449e-17)
(2242.12 -2.12735 -3.34399e-17)
(2242.79 0.270403 3.36229e-17)
(2243.13 0.756568 3.25571e-20)
(2243.17 0.864084 0)
(2243.36 1.30953 -2.13044e-18)
(2242.28 0.284565 2.16343e-18)
(2242.38 0.289748 3.27884e-20)
(2242.97 -0.262505 3.28214e-20)
(2243.14 -1.20452 3.40998e-20)
(2243.1 -0.796191 0)
(2242.37 1.41885 0)
(2240.7 6.56713 -6.8765e-17)
(2236.04 15.1191 6.72273e-17)
(2228.69 27.0281 -7.2039e-17)
(2206.93 58.3958 1.47205e-16)
(2160.81 98.6817 -7.06637e-17)
(2011.98 299.117 -3.89225e-20)
(1690.4 206.523 8.8295e-20)
(1269.99 -597.354 -1.09265e-16)
(1737.68 -581.897 1.18667e-16)
(2022.16 -173.644 2.20394e-16)
(2159.21 -109.697 -9.50647e-17)
(2197.38 -35.6295 0)
(2214.06 -14.4437 7.50597e-17)
(2223.28 -4.96035 -7.6322e-17)
(2226.75 0.0465403 0)
(2228.63 1.22688 3.51092e-20)
(2229.35 1.2754 0)
(2229.4 1.38214 0)
(2229.67 2.06483 0)
(2228.71 1.11761 4.73579e-18)
(2228.81 -0.0521121 -4.73272e-18)
(2229.33 -1.11186 -4.00083e-20)
(2229.23 -1.98331 -3.53263e-20)
(2228.78 -1.75871 0)
(2226.87 -0.757396 0)
(2223.84 4.70202 0)
(2213.18 12.2828 -7.8835e-17)
(2199.9 35.4782 1.60079e-16)
(2163.32 103.023 -7.42929e-17)
(2038.46 163.346 -1.33047e-16)
(1747.41 589.302 1.01416e-16)
(1272.18 551.223 -6.01358e-20)
(1288.5 -612.054 1.61856e-16)
(1114.34 -1069.6 0)
(1597.15 -525.571 0)
(1878 -124.117 -1.14522e-16)
(2115.24 -77.5485 1.14889e-16)
(2157.82 -49.319 0)
(2172.34 -23.7731 1.3635e-20)
(2181.59 -12.7993 4.31189e-17)
(2186.1 -4.69721 -4.34905e-17)
(2187.52 -1.14518 0)
(2187.67 0.293061 -1.07804e-17)
(2188 2.11266 1.07981e-17)
(2187.24 1.51584 -5.42925e-18)
(2187.32 0.02183 5.43756e-18)
(2187.51 -0.347084 3.90927e-20)
(2187.02 0.0771415 -4.2718e-17)
(2185.57 3.42223 8.59873e-17)
(2180.69 11.5683 1.02305e-18)
(2171.1 23.0035 -4.31294e-17)
(2154.74 51.3108 -9.53014e-17)
(2097.02 61.7336 8.89519e-17)
(1869.42 100.083 8.65825e-20)
(1642.76 487.578 2.76513e-20)
(1104.86 1054.5 1.6929e-16)
(1305.98 615.297 7.43413e-18)
(1339.6 -631.98 0)
(1144.61 -1034.58 0)
(1241.77 -722.1 0)
(1121.67 -828.444 0)
(1915.11 -243.32 0)
(1910.32 -15.8925 1.24706e-16)
(1963.24 17.0184 -1.27239e-16)
(2010.82 17.8827 1.86606e-19)
(2029.8 8.11619 -1.1283e-20)
(2035.27 3.40795 2.75171e-17)
(2036.12 3.87509 -2.78073e-17)
(2036.98 3.04238 -3.56941e-19)
(2035.55 2.48572 -8.65131e-19)
(2035.82 0.552728 1.02945e-18)
(2034.91 -1.53267 -2.78088e-17)
(2033.22 -2.09373 2.75383e-17)
(2026.24 -6.69298 1.65788e-19)
(2003.3 -16.1827 0)
(1946.63 -13.7995 0)
(1894.58 33.9428 0)
(1877.08 323.544 -2.16148e-16)
(1104.45 819.826 -5.61042e-17)
(1251.59 704.763 1.66459e-16)
(1139.15 996.576 2.06467e-20)
(1350.31 621.166 2.08929e-20)
(1408.21 -617.329 0)
(1257.01 -881.032 4.18423e-20)
(1278.72 -718.982 0)
(1136.21 -822.209 -1.72815e-16)
(1230.19 -684.238 3.46861e-16)
(1171.69 -615.919 -2.3103e-16)
(1258.32 -402.28 0)
(1502.45 -184.864 -1.52151e-19)
(1446.97 -90.3869 0)
(1455.99 -25.7634 0)
(1438.09 -12.965 -2.84517e-17)
(1445.22 -0.660256 2.90823e-17)
(1431.49 0.100009 2.90785e-17)
(1440.33 2.22891 -2.89399e-17)
(1434.05 10.9677 0)
(1448.01 25.2184 -1.15649e-16)
(1441.17 84.0847 1.13459e-16)
(1481.29 188.578 1.17258e-16)
(1246.02 409.148 -1.07134e-16)
(1117.1 606.165 0)
(1200.79 692.624 0)
(1111.26 815.5 -1.71786e-19)
(1280.02 701.599 -1.72734e-16)
(1253.55 871.869 3.77862e-16)
(1393.94 615.823 -1.73499e-16)
(1475.16 -610.914 -1.74955e-16)
(1359.86 -800.107 1.90073e-16)
(1328.43 -638.425 0)
(1162.68 -645.997 -2.37997e-16)
(1181.52 -532.408 -4.38083e-17)
(910.782 -392.77 3.54783e-16)
(549.79 -130.681 -2.54601e-16)
(506.642 -104.137 1.35708e-16)
(295.69 -6.52943 0)
(267.917 -18.1206 0)
(216.939 -1.70106 -4.31345e-20)
(233.059 -0.361759 1.61906e-19)
(200.632 5.28623 0)
(225.468 7.26543 0)
(211.942 9.79522 6.69458e-17)
(257.879 21.3043 -6.77592e-17)
(294.897 11.8286 -1.34271e-16)
(489.677 112.204 2.74927e-16)
(531.105 136.133 -6.21843e-18)
(878.879 369.785 -1.32203e-16)
(1162.77 532.397 0)
(1151.65 654.614 0)
(1319.45 624.425 -1.88061e-16)
(1319.64 818.815 2.13074e-16)
(1455.88 618.881 -4.56902e-20)
(1577.5 -548.864 1.68457e-16)
(1481.93 -627.751 -9.70335e-20)
(1467.85 -458.718 1.07077e-16)
(1330.49 -416.098 -9.77775e-17)
(1235.97 -255.961 -5.13291e-20)
(982.791 -123.908 1.1993e-19)
(661.59 -68.0215 1.29145e-16)
(612.845 -129.428 -1.99752e-16)
(470.316 -69.9923 6.77991e-17)
(457.346 -69.722 0)
(443.901 -38.2826 -3.29451e-17)
(453.011 -23.1267 3.31174e-17)
(442.461 -3.01977 0)
(449.622 17.6784 5.91796e-20)
(440.003 35.7284 -3.3231e-17)
(448.246 68.6473 3.30884e-17)
(466.455 76.4999 0)
(600.9 131.729 -1.33447e-16)
(632.074 93.6764 1.30722e-16)
(906.069 128.969 1.18919e-16)
(1213.82 267.659 -2.1752e-16)
(1281.35 379.461 1.20491e-16)
(1440.68 465.395 0)
(1464.39 671.154 1.78418e-16)
(1571.33 570.943 -9.42982e-18)
(1714.58 -408.15 -6.09436e-18)
(1615.02 -274.471 9.61968e-17)
(1449.11 -173.248 -4.42204e-17)
(1327.41 -37.7098 -5.90225e-17)
(1293.71 -104.724 7.84865e-17)
(1090.69 -167.138 -5.77132e-17)
(909.823 -180.233 6.29728e-17)
(888.056 -172.559 -6.39936e-17)
(813.289 -130.525 -5.05518e-20)
(759.041 -96.6793 3.22621e-17)
(735.916 -51.7794 1.6025e-17)
(734.82 -26.6626 -7.40621e-20)
(725.68 5.35451 -1.61123e-17)
(734.489 34.6777 -6.20112e-20)
(740.061 62.9607 -7.71071e-20)
(771.475 108.308 -2.0103e-18)
(835.21 143.045 1.52937e-21)
(903.505 172.261 5.96235e-18)
(930.477 172.451 -3.87526e-18)
(1118.21 153.263 0)
(1294.34 113.916 1.28857e-17)
(1312.27 58.4663 -3.95311e-17)
(1462.31 201.197 4.86392e-17)
(1623.09 301.609 -6.76916e-17)
(1713.19 431.272 6.36606e-17)
(1815.78 -295.642 -1.03658e-19)
(1769.51 25.9512 -1.3547e-19)
(1609.06 108.191 1.6199e-19)
(1477.77 5.41729 -7.11671e-21)
(1465.59 -66.6911 -1.69569e-19)
(1371.05 -125.018 -1.96893e-19)
(1161.41 -156.658 -8.01411e-21)
(1056.57 -150.518 0)
(970.779 -104.068 0)
(907.803 -81.9858 6.45934e-17)
(864.795 -49.2312 -6.41835e-17)
(855.711 -28.2905 -8.27302e-21)
(842.303 0.502527 8.25888e-21)
(853.796 28.8093 -8.29109e-18)
(864.911 51.3992 8.06634e-18)
(911.313 83.8748 0)
(975.733 104.873 0)
(1046.63 145.724 -6.1868e-17)
(1150.58 161.758 6.00489e-17)
(1355.74 136.127 -1.87749e-19)
(1442.94 101.305 0)
(1446.12 11.2163 0)
(1616.08 -96.1529 -1.6674e-19)
(1766.23 -28.0455 -1.41234e-19)
(1813.06 314.706 1.50826e-16)
(1789.7 157.626 -1.67927e-16)
(1718.39 397.988 -2.33339e-16)
(1671.18 379.193 1.36368e-16)
(1624.45 227.274 0)
(1610.51 59.5055 2.23049e-19)
(1551.08 -25.1302 1.06856e-16)
(1387.15 -59.3678 -2.18559e-16)
(1233.98 -74.5503 1.1503e-16)
(1115.62 -60.1354 -1.27351e-16)
(1031.08 -51.2665 1.26401e-16)
(977.413 -32.6944 3.20906e-17)
(956.427 -19.4861 -3.99696e-17)
(944.196 1.45304 -8.0409e-18)
(953.95 21.1777 1.62781e-17)
(976.229 36.3123 0)
(1030.29 53.4897 0)
(1111.05 63.7161 1.23825e-16)
(1221.79 78.4087 -2.40838e-16)
(1379.94 73.5879 1.15386e-16)
(1537.96 43.8576 2.26707e-19)
(1595.67 -36.3004 1.92587e-16)
(1617.03 -218.366 -2.18803e-17)
(1696.01 -353.948 -4.67677e-16)
(1720.54 -394.122 5.67701e-16)
(1790.94 -194.26 -2.92085e-16)
(1498.31 513.373 1.14714e-19)
(1495.79 905.215 -1.98458e-16)
(1722.28 601.965 1.25967e-16)
(1715.92 390.408 0)
(1700.26 206.52 0)
(1653.08 111.963 0)
(1512.56 69.2944 0)
(1366.51 21.0148 0)
(1245.78 2.53583 -5.49017e-17)
(1154.31 -15.0421 1.11036e-16)
(1086.02 -9.41141 -8.39381e-17)
(1060.75 -7.04312 3.14849e-17)
(1045.07 2.87362 -3.52822e-18)
(1058.64 12.1821 1.30825e-20)
(1085.42 15.7025 -5.58673e-17)
(1153.68 20.94 5.67245e-17)
(1243.93 5.02101 0)
(1361.91 -14.4605 0)
(1513.31 -55.9331 -1.73962e-16)
(1645.18 -102.076 1.88774e-16)
(1691.67 -191.969 -1.70138e-19)
(1715.16 -390.082 6.97653e-20)
(1719.5 -613.181 -9.37172e-20)
(1520.45 -873.213 -7.37119e-20)
(1460.79 -540.643 0)
(1173.03 818.825 -1.86631e-16)
(1558.69 1007.7 1.19637e-16)
(1783.39 750.636 -1.31157e-19)
(1764.94 546.762 1.49869e-16)
(1756.08 345.308 -1.29709e-16)
(1710.14 242.027 0)
(1595.51 182.782 -8.43316e-17)
(1464.59 111.258 8.27433e-17)
(1347.52 64.2748 -4.7715e-17)
(1254.8 31.3724 9.67207e-17)
(1188.21 18.168 -4.81853e-17)
(1157.01 6.85675 1.80789e-19)
(1144.39 3.82384 0)
(1156.28 -1.11325 2.4568e-17)
(1190.21 -10.4951 2.3678e-17)
(1258.62 -26.3058 -4.91204e-17)
(1350.31 -59.3782 -9.0788e-17)
(1465.67 -111.24 9.02889e-17)
(1595.58 -180.072 -7.36494e-17)
(1701.22 -238.449 8.15713e-17)
(1750.13 -343.758 7.9436e-20)
(1763.42 -561.267 -7.79716e-20)
(1769.57 -772.374 0)
(1567.74 -1017.21 6.45454e-20)
(1137.62 -860.242 0)
(1142.65 765.827 1.4706e-16)
(1609.66 953.565 -1.31543e-16)
(1803.11 821.205 5.05586e-20)
(1781.73 686.694 0)
(1778.08 494.999 0)
(1737.26 380.865 -7.45357e-21)
(1651.1 288.153 0)
(1544.06 193.77 8.00943e-20)
(1439.21 128.548 0)
(1351.29 72.3864 4.30449e-17)
(1280.8 45.6058 -6.4204e-17)
(1252.12 20.4066 3.21452e-17)
(1236.36 3.76036 -1.07922e-17)
(1251.49 -13.8379 0)
(1282.28 -38.1768 0)
(1352.63 -66.0866 4.1353e-17)
(1440.39 -121.835 -1.20118e-16)
(1542.12 -190.706 7.83669e-17)
(1648.83 -282.106 -6.42237e-17)
(1724.6 -386.519 7.10309e-17)
(1773.07 -492.805 0)
(1784.88 -683.246 0)
(1799.88 -837.511 0)
(1627.32 -940.368 -7.00967e-21)
(1107.87 -770.668 -1.66761e-16)
(1261.45 673.199 -2.78653e-20)
(1700.89 839.047 1.07281e-16)
(1790.76 855.238 -9.9493e-17)
(1789.89 750.635 0)
(1787.22 600.751 0)
(1759.66 482.086 7.67484e-21)
(1693.31 363.436 6.56385e-17)
(1598.63 259.672 -6.39392e-17)
(1505.57 183.074 3.30713e-20)
(1427.65 116.843 3.45768e-20)
(1365.53 71.8553 3.51416e-20)
(1334.12 33.5929 -1.0157e-20)
(1321.82 4.08487 -1.0158e-20)
(1333.36 -27.6259 1.91573e-17)
(1366.37 -63.1516 -1.94683e-17)
(1429.77 -110.345 4.46735e-20)
(1507.28 -175.968 4.28236e-20)
(1598.76 -257.097 0)
(1693.47 -357.663 -5.75223e-17)
(1751.42 -485.817 6.33672e-17)
(1780.84 -604.471 0)
(1795.57 -747.174 -9.96119e-17)
(1783.01 -874.005 1.03492e-16)
(1707.67 -841.543 6.40461e-21)
(1267.25 -668.242 -1.51647e-16)
(1357.27 574.1 3.43047e-20)
(1734.88 775.963 0)
(1776.54 854.85 0)
(1789.45 792.838 -5.36902e-17)
(1792.1 676.577 4.74423e-17)
(1781.11 559.082 0)
(1728.11 427.63 6.02696e-17)
(1647.46 313.934 -5.85397e-17)
(1568.12 226.101 3.41118e-17)
(1498.97 146.513 -3.3817e-17)
(1437.95 94.9916 1.7811e-17)
(1413.24 44.6946 -1.76276e-17)
(1398.86 2.99026 0)
(1413.33 -40.6593 -1.75438e-17)
(1440.15 -90.6706 1.79091e-17)
(1502.15 -144.336 -3.65348e-20)
(1572.84 -223.927 -3.49759e-20)
(1648.66 -318.507 5.63815e-20)
(1729.35 -428.299 5.26602e-17)
(1774.1 -568.892 -5.78397e-17)
(1778.57 -686.923 -4.8492e-20)
(1791.03 -793.362 -4.78553e-20)
(1773.06 -871.154 0)
(1736.09 -769.356 -5.16155e-20)
(1336.86 -564.474 3.48271e-20)
(1395.47 516.444 1.2656e-22)
(1751.15 713.895 0)
(1772.28 843.139 8.57037e-23)
(1791.19 809.943 4.41732e-20)
(1798.22 723.574 -8.77622e-23)
(1800.99 608.872 -5.25956e-17)
(1756.81 474.8 4.89428e-17)
(1685.38 363.074 0)
(1617.04 267.882 -6.37638e-20)
(1557.56 182.535 -1.13446e-22)
(1506.71 116.383 -1.15117e-22)
(1480.83 55.0483 6.81127e-20)
(1470.24 3.04886 0)
(1480.48 -51.3954 0)
(1508.05 -110.488 -1.1505e-22)
(1560.54 -180.252 -1.13449e-22)
(1620.66 -263.97 -2.92448e-17)
(1687.05 -365.251 8.28471e-17)
(1757.29 -473.972 -5.52074e-17)
(1797.96 -611.173 0)
(1789.71 -730.906 -4.47955e-17)
(1791.38 -811.305 4.756e-17)
(1769.08 -859.225 8.41801e-23)
(1748.71 -721.717 4.61224e-20)
(1400.09 -496.837 1.26454e-22)
(1439.53 450.255 7.06199e-18)
(1745.68 689.954 1.0389e-17)
(1769.08 823.013 9.0201e-17)
(1795.19 804.918 -4.27251e-17)
(1809.55 744.068 4.3125e-17)
(1820.36 640.76 -4.83058e-17)
(1779.46 514.232 4.55698e-17)
(1721.03 398.006 -2.72335e-17)
(1665.17 296.212 2.691e-17)
(1613.89 202.466 1.19059e-22)
(1564.85 133.032 1.21234e-22)
(1547.19 63.8127 -1.21727e-22)
(1534.27 3.36196 7.38213e-18)
(1547.11 -60.1971 7.25775e-18)
(1567.28 -128.953 -1.5082e-17)
(1616.6 -200.949 1.19593e-22)
(1670.93 -293.446 5.4014e-17)
(1723.29 -401.776 -1.04284e-16)
(1780.79 -513.551 5.10363e-17)
(1819 -641.714 0)
(1800.39 -748.547 -8.80252e-23)
(1794.36 -806.932 8.12522e-23)
(1765.7 -831.443 -8.09098e-23)
(1732.51 -695.419 -1.0003e-16)
(1422.42 -445.588 1.1695e-16)
(1431.25 454.789 1.10572e-19)
(1720.85 663.11 0)
(1773.6 776.143 0)
(1798.62 789.396 4.05815e-20)
(1824.38 741.307 8.21315e-20)
(1837.63 649.762 0)
(1799.93 530.359 4.7788e-17)
(1749.72 422.325 -4.69444e-17)
(1702.66 319.706 4.81607e-20)
(1659.22 224.787 -4.98127e-20)
(1620.67 144.485 -1.38328e-17)
(1601.68 66.9608 1.37311e-17)
(1593.26 0.284634 3.54647e-18)
(1602.1 -70.7469 -3.47103e-18)
(1623.57 -145.67 1.35009e-17)
(1663.96 -230.504 -4.01079e-17)
(1708.29 -324.453 2.68453e-17)
(1753.58 -433.155 -5.09607e-20)
(1800.48 -540.619 4.20935e-20)
(1836.16 -658.331 -4.14021e-17)
(1817.18 -750.543 1.15041e-18)
(1797.55 -792.746 -1.55478e-18)
(1776.26 -779.047 4.1057e-17)
(1713.57 -664.862 4.66329e-20)
(1414.78 -458.295 5.46626e-20)
(1401.66 457.151 1.07847e-16)
(1725.03 629.852 -9.18582e-17)
(1795.48 725.287 0)
(1810.72 766.773 -3.97769e-17)
(1836.94 732.042 7.19028e-20)
(1852.2 657.968 3.98042e-17)
(1817.55 555.901 4.45201e-17)
(1780.02 446.111 -4.40211e-17)
(1743.48 340.207 -5.03105e-20)
(1707.28 239.509 -2.54798e-17)
(1669.12 158.14 1.21914e-17)
(1657.48 76.4063 1.26072e-17)
(1645.67 3.57551 -5.34239e-20)
(1657.34 -73.3791 0)
(1670.4 -153.568 0)
(1708.71 -237.21 0)
(1748.98 -335.615 5.04916e-20)
(1782.41 -446.964 1.05985e-20)
(1818.27 -553.707 -5.35066e-20)
(1851.55 -656.261 0)
(1830.1 -733.321 3.95055e-20)
(1809.39 -764.758 9.75395e-21)
(1794.45 -722.036 -5.02507e-20)
(1730.29 -637.539 -9.08948e-17)
(1404.3 -464.798 1.06833e-16)
(1389.55 443.456 5.16992e-17)
(1738.4 569.471 -8.52011e-17)
(1813.34 654.865 8.35126e-17)
(1823.11 728.875 -4.11959e-17)
(1853 712.818 -3.79178e-17)
(1865.08 645.132 3.8242e-17)
(1832.86 550.922 2.08796e-17)
(1803.16 452.201 -2.10208e-17)
(1773.26 351.535 1.16044e-17)
(1743.38 253.427 -2.32829e-17)
(1714.97 165.502 1.75644e-17)
(1701.53 77.965 -7.41256e-18)
(1694.61 1.36768 1.48445e-18)
(1702.03 -79.8374 -4.40464e-20)
(1717.48 -163.838 2.32456e-17)
(1747.13 -256.994 -2.39233e-17)
(1779.18 -353.14 4.24133e-20)
(1808.77 -458.553 4.19915e-17)
(1834.66 -556.566 -2.13497e-18)
(1864.7 -648.461 -3.9239e-17)
(1848.16 -717.266 0)
(1819.43 -733.226 4.19104e-17)
(1812.07 -665.644 -3.78706e-17)
(1735.12 -581.113 -9.19792e-17)
(1385.67 -443.924 -4.12543e-18)
(1415.6 416.274 -5.0973e-17)
(1760.72 500.447 4.54315e-17)
(1834.05 606.89 1.92469e-20)
(1838.67 693.586 -5.49797e-20)
(1870.1 691.555 1.87217e-20)
(1875.13 632.304 3.74267e-17)
(1847.85 551.258 -1.85633e-17)
(1829.28 455.265 -2.00477e-17)
(1807.86 354.668 4.4156e-20)
(1783.32 254.316 -4.54509e-20)
(1753.98 167.714 2.06384e-20)
(1748.2 79.2227 -2.06022e-20)
(1737.64 -0.700954 0)
(1748.38 -85.2136 4.99755e-21)
(1756.04 -171.036 -1.09391e-17)
(1785.29 -260.385 1.12063e-17)
(1813.64 -358.881 -2.09957e-17)
(1831.83 -464.706 9.20971e-19)
(1850.18 -557.21 1.9595e-17)
(1876.35 -634.986 -5.44228e-20)
(1863.55 -693.638 -3.75098e-17)
(1839.16 -688.141 3.59358e-17)
(1834.1 -592.667 0)
(1759.86 -512.545 -4.56381e-17)
(1387.56 -422.737 4.94693e-17)
(1429.78 377.743 0)
(1776.89 427.225 -3.74699e-17)
(1843.2 526.877 4.36112e-17)
(1854.16 637.962 1.79107e-20)
(1883.19 666.724 1.74215e-20)
(1888.96 614.592 -3.57614e-17)
(1864.04 538.51 3.7504e-17)
(1849.53 452.923 2.00414e-17)
(1831.93 360.681 6.71978e-19)
(1812.71 265.822 -2.05005e-17)
(1792.88 176.503 -2.16674e-20)
(1784.18 84.1078 2.42999e-20)
(1777.98 2.41101 0)
(1783.72 -84.1937 4.36735e-20)
(1794.5 -172.083 -2.16446e-20)
(1814.89 -266.607 1.02266e-17)
(1837.32 -357.946 -1.04096e-17)
(1854.88 -455.622 -2.0115e-20)
(1865.8 -540.663 -2.10087e-20)
(1889.7 -615.87 1.78184e-20)
(1876.57 -669.578 -3.69571e-17)
(1852.42 -647.548 -5.45294e-18)
(1846.89 -536.926 3.49416e-17)
(1778.25 -428.226 0)
(1427.58 -385.551 5.23472e-17)
(1453.21 351.612 -9.85979e-17)
(1791.46 369.007 4.25147e-17)
(1851.76 466.889 3.36301e-17)
(1872.02 599.718 -3.97984e-17)
(1897.01 631.821 0)
(1900.62 593.787 -2.16407e-21)
(1877.62 530.189 0)
(1872.35 448.9 -2.3817e-21)
(1861.09 355.472 -2.46824e-21)
(1846.45 260.253 0)
(1824.19 173.848 0)
(1823.22 83.2442 -2.5579e-21)
(1813.12 0.644083 0)
(1822.84 -87.6991 0)
(1825.97 -174.951 -9.83486e-18)
(1847.62 -263.863 9.94128e-18)
(1866.57 -356.87 -2.47672e-21)
(1875.67 -454.988 -1.86951e-17)
(1878.92 -534.545 1.80427e-17)
(1903.26 -594.104 0)
(1892.26 -632.93 3.65186e-17)
(1869.71 -594.225 -7.33706e-17)
(1854.89 -462.006 7.61111e-17)
(1794.46 -371.925 6.25987e-18)
(1443.34 -349.907 -4.82215e-17)
(1483.11 319.358 1.18493e-20)
(1805.06 317.181 -9.6534e-21)
(1839.28 408.258 0)
(1883.81 519.908 0)
(1906.76 592.168 0)
(1914.26 570.062 8.05492e-21)
(1894.07 506.27 0)
(1891.5 431.615 -8.60162e-21)
(1880.43 348.231 0)
(1868.74 260.181 -8.81899e-21)
(1856.31 174.971 0)
(1851.74 82.5589 -2.37179e-18)
(1846.4 -0.0940745 2.35015e-18)
(1851.17 -88.6851 0)
(1857.96 -175.976 9.31801e-18)
(1870.88 -266.321 -1.87889e-17)
(1885.84 -350.398 9.37096e-18)
(1897.28 -438.313 0)
(1894.44 -513.295 1.76296e-17)
(1916.3 -574.428 -1.64808e-17)
(1902.99 -595.777 3.61796e-17)
(1882.97 -534.217 -3.2291e-17)
(1850.43 -403.357 0)
(1805.47 -301.805 0)
(1464.49 -316.304 0)
(1484.81 299.018 -1.18131e-20)
(1806.58 291.505 9.52856e-21)
(1838.19 336.255 0)
(1902.91 449.261 0)
(1917.77 541.592 0)
(1926.69 542.604 -8.13675e-21)
(1907.44 496.728 0)
(1911.12 426.899 8.83251e-21)
(1906.25 342.56 0)
(1898.67 254.24 -9.00238e-18)
(1881.46 172.13 9.02145e-18)
(1884.44 83.5365 -8.43028e-21)
(1874.89 2.21157 9.2868e-21)
(1883.71 -85.8197 8.42568e-21)
(1882.72 -170.709 0)
(1898.58 -255 0)
(1910.35 -340.887 9.04577e-21)
(1914.82 -429.132 -1.76415e-17)
(1908.41 -497.74 1.68969e-17)
(1928.15 -543.282 0)
(1912.45 -544.971 7.98548e-21)
(1897.45 -462.592 0)
(1830.71 -335.853 0)
(1813.76 -275.219 0)
(1488.14 -285.834 0)
(1505.55 273.925 -4.48693e-17)
(1816.28 263.888 3.92706e-17)
(1848.04 285.151 0)
(1908.97 350.659 -1.7144e-20)
(1925.16 484.434 0)
(1936.82 510.984 -1.5417e-17)
(1924.72 468.833 3.33839e-17)
(1929.46 404.493 -1.71587e-17)
(1922.18 329.07 -8.61705e-18)
(1914.75 249.584 8.63671e-18)
(1908.04 170.628 4.40165e-21)
(1906.44 80.9087 1.12349e-18)
(1901.94 0.575719 -1.07897e-18)
(1906.05 -86.4639 8.58864e-18)
(1909.51 -170.312 -8.63676e-18)
(1916.18 -253.865 0)
(1927.03 -329.526 -1.62849e-20)
(1935.68 -409.309 0)
(1924.54 -474.175 0)
(1937.13 -515.558 -1.71312e-17)
(1921.09 -490.063 1.51065e-17)
(1905.35 -355.946 0)
(1840.76 -279.982 3.76339e-17)
(1815.27 -251.619 1.57412e-18)
(1504.41 -265.8 -9.19782e-17)
(1526.84 256.956 4.53188e-17)
(1824.71 245.523 1.83702e-20)
(1857.54 227.407 3.21219e-17)
(1908.52 290.582 -2.37126e-17)
(1931.65 429.539 -1.84807e-17)
(1944.42 465.085 0)
(1935.82 448.5 8.41152e-21)
(1946.94 394.701 1.62875e-17)
(1944.57 319.534 -1.66159e-17)
(1941.21 237.77 0)
(1927.81 160.642 0)
(1933.87 76.8992 -2.58983e-20)
(1924.88 -0.771362 3.24112e-20)
(1933.22 -85.0432 1.68642e-20)
(1928.76 -164.396 4.17375e-18)
(1940.49 -243.072 -4.13231e-18)
(1948.2 -321.814 8.87698e-21)
(1951.36 -399.989 1.67315e-17)
(1937.87 -452.519 -3.28621e-17)
(1946.9 -467.193 1.49052e-17)
(1930.41 -426.913 -1.55579e-20)
(1902.05 -286.875 0)
(1850.56 -224.542 1.77924e-20)
(1824.25 -242.847 3.81191e-17)
(1521.77 -254.567 -8.92586e-17)
(1540.73 237.239 -4.43979e-17)
(1837.14 226.542 -3.63147e-17)
(1863.47 198.734 3.55712e-17)
(1887.45 197.128 1.48668e-17)
(1935.2 346.265 -1.93144e-17)
(1948.79 419.911 0)
(1951 416.2 4.0595e-21)
(1963.79 369.654 -1.18931e-20)
(1958.87 304.822 8.00679e-18)
(1953.43 233.682 -1.61209e-17)
(1950.35 161.222 8.03922e-18)
(1951.04 76.6527 2.00107e-18)
(1946.89 1.46584 -1.87326e-18)
(1950.06 -80.5229 1.86539e-18)
(1951.4 -158.834 -2.00859e-18)
(1953.65 -236.322 0)
(1962.26 -303.768 1.19532e-20)
(1970.15 -372.935 -3.83254e-21)
(1950.47 -420.88 -1.70516e-17)
(1946.42 -426.599 1.46222e-17)
(1934 -354.633 0)
(1883.13 -196.434 0)
(1858.73 -194.405 -4.29575e-21)
(1837.25 -225.303 -3.75341e-17)
(1545.54 -234.98 -1.35973e-18)
(1552.06 220.362 -2.08286e-17)
(1844.24 216.387 1.85587e-17)
(1872.25 180.423 4.28284e-21)
(1896.17 142.454 0)
(1939.86 260.967 1.43507e-17)
(1953.06 352.998 -1.751e-17)
(1958.14 381.794 3.83179e-21)
(1976.99 354.749 3.87376e-21)
(1977.16 294.803 1.47293e-20)
(1977.48 221.233 -1.91896e-18)
(1966.59 149.131 9.85822e-19)
(1974.32 71.6334 1.89478e-18)
(1965.31 -0.200046 -9.72281e-19)
(1973.01 -79.0489 3.87513e-18)
(1967.19 -151.929 -3.88702e-18)
(1976.24 -225.396 0)
(1979.81 -296.573 1.08658e-20)
(1981.63 -359.729 -1.62318e-17)
(1960.3 -384.603 1.50056e-17)
(1952.51 -356.941 3.76637e-21)
(1934.4 -259.099 0)
(1889.03 -135.048 0)
(1868.77 -179.793 4.33014e-21)
(1847.16 -221.507 -3.69043e-17)
(1551.72 -220.089 4.1837e-17)
(1575.74 195.501 2.08957e-20)
(1858.06 194.759 0)
(1888.56 161.307 -8.04045e-21)
(1899.45 71.8093 -1.49961e-17)
(1924.21 182.87 1.84029e-17)
(1953.14 305.386 -1.42237e-17)
(1963.3 336.073 1.68966e-17)
(1989.82 319.552 -7.41991e-18)
(1988.6 272.482 7.78327e-18)
(1985.83 211.173 -3.75989e-18)
(1985.41 146.167 3.78086e-18)
(1987.47 68.5095 -1.84479e-18)
(1983.38 -0.398673 2.10783e-18)
(1986.12 -76.8195 -2.49764e-19)
(1986.33 -148.7 3.78037e-18)
(1986.12 -218.403 -7.56067e-18)
(1991.57 -275.336 -4.06177e-18)
(1995.98 -326.614 7.40886e-18)
(1963.37 -339.956 1.51406e-20)
(1952.93 -305.523 -7.67858e-21)
(1919.9 -181.561 0)
(1895.84 -68.1359 0)
(1890.03 -162.838 0)
(1856.44 -201.462 -1.81999e-17)
(1567.89 -197.079 2.03072e-17)
(1581 178.232 -2.51954e-21)
(1863.63 176.393 0)
(1905.52 153.465 1.02456e-20)
(1906.96 54.1099 -8.07368e-21)
(1900.23 104.321 -7.59844e-21)
(1950.75 197.995 0)
(1964.46 284.738 -7.50982e-21)
(1995.7 296.159 7.17271e-18)
(2002.21 261.061 -7.67159e-18)
(2007.64 200.974 0)
(1998.76 136.311 1.74815e-21)
(2007.49 65.8203 0)
(1998.54 1.00519 0)
(2005.88 -71.6809 1.82317e-18)
(1998.96 -137.64 -1.83698e-18)
(2006.01 -203.722 -7.31529e-21)
(2003.86 -262.202 -1.77678e-21)
(1999.65 -300.742 7.36012e-21)
(1967.3 -287.239 -8.61747e-18)
(1951.99 -213.015 7.10926e-18)
(1889.78 -105.831 -1.74471e-17)
(1899.99 -50.5747 3.25035e-17)