/*--------------------------------*- C++ -*----------------------------------*\
| =========                 |                                                 |
| \\      /  F ield         | OpenFOAM: The Open Source CFD Toolbox           |
|  \\    /   O peration     | Version:  2112                                  |
|   \\  /    A nd           | Website:  www.openfoam.com                      |
|    \\/     M anipulation  |                                                 |
\*---------------------------------------------------------------------------*/
FoamFile
{
    version     2.0;
    format      ascii;
    arch        "LSB;label=32;scalar=64";
    class       volVectorField;
    location    "0.00364";
    object      U;
}
// * * * * * * * * * * * * * * * * * * * * * * * * * * * * * * * * * * * * * //

dimensions      [0 1 -1 0 0 0 0];

internalField   nonuniform List<vector> 
13875
(
(2204.17 109.696 1.81269e-18)
(2142.49 5.6127 -9.38688e-19)
(2170.15 -2.22044 -9.41187e-19)
(2168.02 -1.14636 0)
(2170.87 0.0876545 0)
(2169.62 -0.0761699 9.3634e-19)
(2169.66 -0.371622 -9.3671e-19)
(2169.81 -1.28575 -4.68454e-19)
(2169.55 -1.21398 4.6817e-19)
(2169.68 -0.271398 0)
(2169.59 0.110133 -3.88245e-22)
(2169.77 1.20338 -3.87961e-22)
(2169.48 1.36185 0)
(2169.25 0.021672 -4.68303e-19)
(2169.38 -0.94001 4.68646e-19)
(2169.67 -1.37244 0)
(2170.1 -0.0222569 9.36404e-19)
(2169.84 1.35367 -9.37011e-19)
(2170.01 1.1794 3.85759e-22)
(2169.61 0.310094 -3.85393e-22)
(2170.88 -0.292829 -9.35841e-19)
(2167.89 0.32265 9.36984e-19)
(2171.03 2.50568 -1.87822e-18)
(2143.38 -8.69656 1.91709e-18)
(2210.33 -106.979 1.76419e-18)
(2253.39 91.928 -1.63244e-18)
(2228.47 -1.12852 1.88341e-18)
(2247.29 0.680339 8.71963e-19)
(2245.48 1.26994 -8.67206e-19)
(2248.52 -0.538917 4.16295e-22)
(2248.14 0.441865 5.2028e-22)
(2248.13 0.415064 4.16109e-22)
(2247.74 1.55275 -4.36479e-19)
(2245.69 1.63119 4.33293e-19)
(2245.26 0.450803 2.17566e-19)
(2245.25 -0.301601 -1.62985e-19)
(2245.56 -1.52589 -5.31435e-20)
(2247.53 -1.4837 0)
(2247.67 -0.00825566 -4.35033e-19)
(2247.51 1.02253 4.33533e-19)
(2245.74 1.46472 4.35775e-19)
(2245.85 -0.0788327 -4.35221e-19)
(2245.94 -1.7846 5.18479e-22)
(2247.89 -1.54219 -5.19697e-22)
(2248.14 -0.602046 5.20618e-22)
(2248.8 0.881185 -8.71561e-19)
(2245.59 -0.644988 2.59949e-18)
(2247.22 -1.5918 -1.74257e-18)
(2228.97 3.4608 5.42767e-22)
(2256.86 -96.8669 -1.71163e-18)
(2252.4 78.1143 0)
(2236.35 -18.2189 0)
(2249.39 4.41982 0)
(2250.77 -1.93153 0)
(2254.18 -3.12097 -1.65336e-18)
(2253.93 -0.674999 1.64338e-18)
(2254.19 0.347239 1.63992e-18)
(2254.15 2.22572 -2.45883e-18)
(2253.64 2.07152 8.59994e-19)
(2253.81 0.360963 4.30815e-22)
(2253.85 -0.0994989 -4.30477e-19)
(2253.49 -1.95731 4.2985e-19)
(2253.98 -2.15542 0)
(2253.87 -0.0752211 0)
(2253.95 2.17067 4.08214e-22)
(2253.33 1.64836 0)
(2254.52 -0.27408 8.38326e-22)
(2253.64 -1.74313 4.29791e-19)
(2254.1 -2.12479 -4.1042e-19)
(2253.78 -0.0710405 0)
(2254.27 2.94324 0)
(2251.02 1.51548 0)
(2250.62 -4.77893 0)
(2238.18 13.6562 0)
(2257.3 -74.3761 0)
(2247.85 51.3496 0)
(2235.03 -28.609 1.81438e-18)
(2249.17 7.1554 -3.4171e-18)
(2251.67 -4.85253 3.46486e-18)
(2253.84 -3.90161 -1.65493e-18)
(2253.79 -0.97265 0)
(2254.14 0.324299 -7.84586e-22)
(2254.13 2.20195 0)
(2254.11 1.87499 0)
(2254.38 0.0730761 0)
(2254.34 0.191377 0)
(2254.11 -1.79105 -8.42649e-22)
(2253.97 -2.11506 -5.0434e-20)
(2253.85 -0.108688 5.03067e-20)
(2253.92 2.19697 0)
(2254.05 1.36776 0)
(2254.87 -0.344776 8.00415e-22)
(2254.1 -1.4477 -8.63888e-19)
(2254.05 -2.03289 8.06962e-19)
(2253.7 0.0689856 -1.61942e-18)
(2254.08 3.46048 1.6239e-18)
(2252.08 4.77771 1.74106e-18)
(2249.75 -8.80236 -1.72019e-18)
(2235.75 31.2427 0)
(2251.24 -58.8163 0)
(2244.88 39.2786 1.74901e-18)
(2235.45 -47.8146 0)
(2248.66 10.391 0)
(2250.51 -8.1773 0)
(2254.22 -5.50144 0)
(2253.9 -1.70646 1.6601e-21)
(2254.09 0.169365 1.62307e-21)
(2254.14 2.07778 4.15414e-19)
(2254.21 1.45982 -4.30039e-19)
(2254.36 -0.072886 2.13858e-19)
(2254.29 0.274946 -2.13655e-19)
(2254.28 -1.36291 0)
(2253.93 -2.00023 0)
(2253.78 -0.117739 -1.63182e-21)
(2253.87 2.17272 0)
(2254.05 0.940615 -1.68602e-21)
(2254.82 -0.357189 8.03613e-19)
(2254.24 -0.782531 -8.58213e-19)
(2254.06 -1.74403 1.67838e-18)
(2253.65 0.506755 -1.67352e-18)
(2254.21 4.72942 1.6597e-21)
(2250.8 7.00418 0)
(2249.99 -11.3874 0)
(2237.16 42.8249 0)
(2250.13 -35.2338 0)
(2241.48 6.74609 0)
(2231.53 -63.5134 9.12501e-19)
(2247.11 12.1438 -8.4769e-19)
(2250.97 -11.7244 0)
(2253.07 -6.43484 8.61368e-19)
(2253.24 -2.20851 -4.31289e-19)
(2253.78 0.0461402 -2.141e-21)
(2253.98 1.93659 -2.11147e-19)
(2254.19 1.21992 -4.31371e-19)
(2254.22 -0.120959 1.62452e-19)
(2254.15 0.328642 1.62474e-21)
(2254.2 -1.06333 2.68603e-19)
(2253.82 -1.655 -2.12763e-19)
(2253.63 -0.209923 3.32479e-21)
(2253.71 2.14816 -4.23569e-19)
(2253.96 0.649595 4.34013e-19)
(2254.67 -0.447961 1.63347e-21)
(2254.01 -0.435096 -1.67944e-21)
(2253.72 -1.52612 -1.64876e-21)
(2253.1 0.714754 -8.42755e-19)
(2253.28 5.20157 8.49526e-19)
(2251.55 11.4599 0)
(2247.4 -14.9473 0)
(2232.41 65.6177 -1.93326e-18)
(2246.12 -18.6967 -1.26318e-19)
(2254.05 2.9039 -4.9525e-20)
(2227.49 -79.2832 6.02445e-20)
(2242.97 12.0677 0)
(2248.67 -16.5768 -2.69125e-23)
(2252.75 -8.72237 -2.62351e-23)
(2252.99 -3.64592 0)
(2253.49 -0.556454 0)
(2253.78 1.39367 -8.39637e-19)
(2253.97 0.737844 8.54936e-19)
(2253.94 -0.0420361 0)
(2253.83 0.381761 1.72168e-18)
(2253.88 -0.697706 4.75631e-21)
(2253.53 -1.35043 -1.72758e-18)
(2253.34 -0.159344 -1.70264e-21)
(2253.46 1.96243 0)
(2253.82 0.195295 3.4518e-18)
(2254.38 -0.366585 4.35024e-22)
(2253.9 0.357643 -6.84018e-18)
(2253.51 -0.707908 3.3874e-18)
(2252.77 1.97138 2.58483e-23)
(2252.74 7.38345 0)
(2248.65 13.7974 3.53036e-18)
(2244.12 -12.2931 -3.31149e-18)
(2228.83 73.1149 3.81555e-18)
(2247.23 2.93688 -3.17872e-18)
(2218.28 -22.8802 -3.17439e-19)
(2214.68 -87.3834 -7.49847e-18)
(2235.54 3.3262 8.71256e-22)
(2246.11 -23.3529 2.61451e-23)
(2249.14 -10.8619 -8.09623e-22)
(2250.79 -4.74825 0)
(2252.13 -0.971973 -3.34751e-18)
(2252.92 1.14705 3.38654e-18)
(2253.31 0.635626 0)
(2253.33 0.0889909 -8.41565e-22)
(2253.23 0.31268 -8.44825e-22)
(2253.27 -0.534165 0)
(2252.98 -0.91303 0)
(2252.72 -0.14648 -1.6625e-21)
(2252.88 1.73461 -8.45783e-22)
(2253.36 -0.129888 2.623e-23)
(2253.74 -0.374568 -8.64727e-22)
(2253.07 0.689707 -2.60147e-23)
(2252.36 -0.126285 -1.7101e-18)
(2250.8 2.90506 -1.33122e-20)
(2249.48 9.21479 1.68769e-18)
(2246.4 20.2556 8.87307e-22)
(2236.76 -4.39658 3.45983e-18)
(2216.44 81.6557 -3.53707e-18)
(2222.28 18.1731 2.50095e-23)
(2112.93 -37.9684 9.42672e-19)
(2168.74 -98.5823 0)
(2216.95 -20.3271 -8.31562e-22)
(2235.18 -33.1178 -8.65306e-19)
(2245.72 -19.8865 1.7068e-18)
(2248.77 -9.6091 -1.70671e-18)
(2250.56 -3.69498 7.2481e-21)
(2251.64 -0.256452 8.5478e-19)
(2252.02 0.102523 0)
(2252.06 0.249335 -8.61031e-19)
(2252.04 0.455133 8.62789e-19)
(2252.02 -0.303186 0)
(2251.75 -0.639923 0)
(2251.45 -0.23124 2.1025e-21)
(2251.69 1.31949 8.3989e-22)
(2252.27 -0.513275 8.57197e-19)
(2252.47 -0.0195492 -8.57077e-19)
(2251.81 2.03446 0)
(2250.89 1.96965 8.62329e-19)
(2248.83 6.98616 -1.70651e-18)
(2246.11 16.4739 8.45276e-19)
(2236.19 29.623 -8.40032e-22)
(2218.61 16.8827 0)
(2170.95 94.0449 0)
(2116.48 35.4746 0)
(1872.13 -142.37 -6.57488e-17)
(2125.22 -160.809 8.43249e-17)
(2197.91 -55.0177 0)
(2227.4 -56.5639 -2.97907e-17)
(2238.32 -23.2654 3.08415e-17)
(2244.28 -11.3953 0)
(2247.26 -4.19586 -2.97964e-20)
(2248.81 -0.838423 -1.48059e-17)
(2249.33 -0.185004 1.49896e-17)
(2249.5 0.189462 -3.00224e-20)
(2249.57 0.377959 0)
(2249.47 -0.162847 -3.7454e-18)
(2249.22 -0.205664 5.59226e-18)
(2248.87 -0.164307 -1.89839e-18)
(2249.17 0.689195 -2.95137e-20)
(2249.77 -0.641866 0)
(2249.87 0.397912 0)
(2249.02 2.75051 -2.99239e-17)
(2247.66 3.82989 2.96204e-17)
(2244.42 9.00095 -3.00164e-17)
(2239.34 20.9327 2.94663e-17)
(2228 54.0533 3.22403e-17)
(2199.4 53.6323 -2.92947e-17)
(2128.23 162.916 -8.34378e-17)
(1882.56 139.073 -1.2632e-17)
(1650.7 -216.461 -9.10178e-17)
(2010.6 -309.019 1.37748e-16)
(2156.93 -107.489 0)
(2205.43 -64.5947 6.91844e-17)
(2228.86 -31.0408 -7.137e-17)
(2236.92 -16.3345 -3.34749e-17)
(2241.18 -6.95121 3.4153e-17)
(2243.1 -2.66167 -3.38132e-17)
(2243.77 -0.678727 3.41016e-17)
(2244.15 0.117316 3.25851e-20)
(2244.31 0.430822 0)
(2244.13 0.182073 -2.13833e-18)
(2243.92 0.167126 2.16624e-18)
(2243.5 -0.232613 3.27716e-20)
(2243.79 -0.0682158 3.25247e-20)
(2244.26 -0.759121 3.37616e-20)
(2244.35 0.581047 0)
(2243.35 4.17225 0)
(2241.53 7.06213 -6.91204e-17)
(2237.45 13.9139 6.69901e-17)
(2229.91 26.3001 -7.18773e-17)
(2208.56 58.8745 1.47077e-16)
(2162.17 98.1545 -7.05997e-17)
(2013.24 298.55 -3.88985e-20)
(1692.86 206.304 8.80811e-20)
(1274.2 -595.474 -1.09175e-16)
(1738.99 -586.201 1.18525e-16)
(2028.4 -175.789 2.19655e-16)
(2162.57 -108.808 -9.46498e-17)
(2199.91 -35.7559 0)
(2216.71 -14.8486 7.4601e-17)
(2225.7 -5.93701 -7.60804e-17)
(2229.13 -1.97245 0)
(2230.69 -0.934498 3.58554e-20)
(2231.43 -0.189895 0)
(2231.68 0.286887 0)
(2231.44 0.301178 0)
(2231.31 0.84915 4.70825e-18)
(2230.84 0.131999 -4.70951e-18)
(2231.04 -0.502653 -3.97535e-20)
(2231.22 -0.886763 -3.53479e-20)
(2231.12 0.329424 0)
(2229.58 3.08099 0)
(2226.13 7.18997 0)
(2216.06 12.7109 -7.83464e-17)
(2202.76 34.4694 1.58789e-16)
(2167.02 101.126 -7.38784e-17)
(2044.83 164.73 -1.32761e-16)
(1749.52 591.64 1.00828e-16)
(1277.01 548.949 -6.00477e-20)
(1292.67 -612.607 1.61502e-16)
(1112.37 -1072.76 0)
(1625.54 -503.278 0)
(1890.77 -123.626 -1.13178e-16)
(2121.42 -76.2817 1.13647e-16)
(2165.24 -47.8667 0)
(2179.84 -22.6509 1.32883e-20)
(2188.52 -10.8598 4.28934e-17)
(2191.73 -3.63474 -4.3162e-17)
(2193.16 -0.662857 0)
(2193.58 0.428991 -1.07183e-17)
(2193.3 1.17392 1.07096e-17)
(2193.22 1.28486 -5.36927e-18)
(2192.8 0.239302 5.38331e-18)
(2192.79 -0.599633 3.89477e-20)
(2192.48 -0.564651 -4.22516e-17)
(2191.63 2.02156 8.49001e-17)
(2188.67 9.63564 8.86089e-19)
(2179.13 22.366 -4.29521e-17)
(2162.57 50.2789 -9.44155e-17)
(2106.11 61.4491 8.80229e-17)
(1881.57 99.2873 8.57944e-20)
(1666.9 468.723 2.74877e-20)
(1105.87 1059.47 1.68862e-16)
(1310.26 614.771 7.45017e-18)
(1345.51 -632.03 0)
(1144.25 -1040.97 0)
(1252.4 -729.866 0)
(1146.05 -823.966 0)
(1927.5 -243.633 0)
(1926.04 -21.9174 1.21276e-16)
(1996.17 10.1303 -1.23323e-16)
(2038.23 5.06261 1.75931e-19)
(2050.38 -0.969187 -1.11443e-20)
(2054.6 -2.17159 2.6753e-17)
(2055.58 -0.118718 -2.71892e-17)
(2055.82 0.0865223 -3.44446e-19)
(2055.58 2.48858 -8.44861e-19)
(2055.21 1.78235 1.00212e-18)
(2054.59 0.916975 -2.69705e-17)
(2053.35 2.13661 2.66707e-17)
(2048.96 1.17998 1.57174e-19)
(2036 -1.46508 0)
(1987.05 -4.55327 0)
(1907.78 39.1965 0)
(1891.7 315.386 -2.12997e-16)
(1124.09 821.608 -5.68604e-17)
(1265.68 710.58 1.64244e-16)
(1143.97 1006.12 2.05328e-20)
(1356.04 621.085 2.08449e-20)
(1416.28 -618.717 0)
(1255.96 -891.649 4.16607e-20)
(1288.02 -730.563 0)
(1153.03 -823.116 -1.70368e-16)
(1239.93 -684.52 3.46332e-16)
(1219.59 -639.87 -2.29005e-16)
(1426.49 -326.136 0)
(1549.65 -132.605 -1.46338e-19)
(1510.52 -50.6875 0)
(1518.48 -9.1938 0)
(1509.56 -2.01839 -2.683e-17)
(1514.95 5.38876 2.74156e-17)
(1509.01 0.0445081 2.73486e-17)
(1511 0.0176687 -2.72867e-17)
(1508.94 3.52576 0)
(1514.84 8.5394 -1.08715e-16)
(1508.48 44.2745 1.07076e-16)
(1542.75 123.341 1.1219e-16)
(1436.34 308.957 -9.97451e-17)
(1198.9 644.276 0)
(1220.77 703.539 0)
(1129.88 822.956 -1.69519e-19)
(1291.44 714.202 -1.71417e-16)
(1249.67 882.678 3.76996e-16)
(1402.61 616.545 -1.72467e-16)
(1486.55 -613.8 -1.74175e-16)
(1370.99 -808.264 1.88096e-16)
(1341.53 -657.133 0)
(1182.91 -663.282 -2.34497e-16)
(1189.84 -537.442 -4.16602e-17)
(925.153 -415.219 3.49939e-16)
(696.759 -180.76 -2.54187e-16)
(536.087 -108.282 1.34996e-16)
(362.84 -32.1922 0)
(350.715 -34.9419 0)
(323.033 -16.1659 -4.3408e-20)
(335.612 -11.7112 1.67482e-19)
(320.922 5.0698 0)
(326.464 11.18 0)
(322.744 17.7531 6.72971e-17)
(344.221 37.3769 -6.75615e-17)
(360.612 30.3435 -1.34773e-16)
(512.297 115.581 2.73067e-16)
(700.48 173.59 -4.08822e-18)
(887.054 406.496 -1.29709e-16)
(1171.95 544.841 0)
(1163.62 667.133 0)
(1333.8 646.226 -1.8548e-16)
(1333.41 833.604 2.09164e-16)
(1468.46 620.94 -4.57697e-20)
(1593.46 -560.444 1.66158e-16)
(1486.69 -657.373 -9.81683e-20)
(1472.48 -492.603 1.07611e-16)
(1347.57 -411.375 -9.63018e-17)
(1275.3 -290.767 -5.05496e-20)
(1010.28 -207.804 1.18515e-19)
(760.744 -127.008 1.27584e-16)
(615.692 -131.622 -1.9896e-16)
(479.386 -65.312 6.75706e-17)
(468.559 -62.6302 0)
(449.815 -33.8479 -3.31647e-17)
(458.624 -22.0713 3.32512e-17)
(449.177 -1.98157 0)
(452.294 14.8703 5.99058e-20)
(449.474 30.364 -3.33231e-17)
(464.095 62.1686 3.31431e-17)
(475.534 65.5943 0)
(592.29 145.626 -1.33334e-16)
(761.917 139.239 1.28288e-16)
(961.888 200.238 1.14828e-16)
(1249.74 298.447 -2.15142e-16)
(1319.58 420.835 1.18342e-16)
(1456.28 502.003 0)
(1469.72 697.752 1.77979e-16)
(1588.64 580.648 -8.02135e-18)
(1734.59 -423.991 -6.14864e-18)
(1651.6 -293.206 9.33445e-17)
(1494.42 -216.252 -4.28114e-17)
(1343.77 -81.835 -5.76272e-17)
(1328.17 -129.464 7.85162e-17)
(1138.16 -166.052 -5.73738e-17)
(967.281 -168.355 6.22904e-17)
(856.927 -185.432 -6.40381e-17)
(769.168 -139.43 1.54384e-20)
(732.912 -103.491 3.23227e-17)
(721.191 -56.6228 1.60657e-17)
(719.667 -28.9792 -7.4398e-20)
(718.071 5.56299 -1.61505e-17)
(717.979 35.3521 -6.15796e-20)
(723.445 68.2594 -7.66571e-20)
(741.186 113.248 -2.01389e-18)
(787.488 143.999 -3.08855e-21)
(877.876 188.58 5.95907e-18)
(1012.58 163.278 -3.84656e-18)
(1145.67 155.8 0)
(1316.67 119.445 1.27412e-17)
(1333.88 81.1789 -3.88207e-17)
(1498.41 247.583 4.78681e-17)
(1664.23 341.301 -6.53203e-17)
(1735.32 448.592 6.25196e-17)
(1843.69 -337.851 -9.77814e-20)
(1795.46 -22.8039 -1.31767e-19)
(1636 94.9771 1.64024e-19)
(1505.11 1.24653 -6.99524e-21)
(1482.22 -66.1784 -1.68684e-19)
(1379.84 -115.433 -1.95321e-19)
(1212.12 -136.742 -8.03348e-21)
(1071.84 -156.085 0)
(949.707 -111.042 0)
(886.685 -83.6725 6.46608e-17)
(854.858 -51.5936 -6.42558e-17)
(846.238 -29.2592 -8.29081e-21)
(838.982 0.822388 8.27803e-21)
(843.979 28.3444 -8.28919e-18)
(855.073 53.6146 8.08214e-18)
(887.004 84.8301 0)
(947.422 107.004 0)
(1065.89 159.063 -6.14125e-17)
(1217.38 144.983 5.9647e-17)
(1358.19 127.563 -1.86477e-19)
(1459.09 89.6274 0)
(1477.78 12.2486 0)
(1642.22 -93.0809 -1.67304e-19)
(1800.43 15.9231 -1.35699e-19)
(1842.81 366.144 1.44938e-16)
(1816.99 108.096 -1.61702e-16)
(1787.35 335.112 -2.49012e-16)
(1654.01 378.805 1.32326e-16)
(1631.07 242.157 0)
(1620.02 64.64 2.21639e-19)
(1556.73 -13.7367 1.06743e-16)
(1410.95 -41.0333 -2.17347e-16)
(1260.9 -74.4139 1.14497e-16)
(1115.13 -63.8088 -1.27151e-16)
(1017.46 -50.4328 1.25975e-16)
(971.595 -33.276 3.20936e-17)
(952.449 -19.8207 -3.99442e-17)
(945.196 1.61128 -8.03929e-18)
(949.204 19.4733 1.6272e-17)
(969.21 36.2642 0)
(1012.89 52.5507 0)
(1108.88 65.2682 1.2287e-16)
(1259.48 83.683 -2.38946e-16)
(1413.91 54.4047 1.14792e-16)
(1541.04 31.6584 2.26915e-19)
(1611.15 -49.2838 1.91054e-16)
(1624.97 -239.398 -2.00406e-17)
(1666.35 -379.093 -4.60691e-16)
(1785.44 -359.561 6.14617e-16)
(1814.07 -136.351 -2.68531e-16)
(1442.93 484.38 1.27793e-19)
(1460.21 927.694 -2.02896e-16)
(1707.46 605.174 1.25027e-16)
(1717.74 402.277 0)
(1706.62 215.285 0)
(1653.16 123.985 0)
(1526.92 83.8443 0)
(1390.3 22.6996 0)
(1249.18 2.78254 -5.47952e-17)
(1144.13 -11.565 1.10774e-16)
(1081.39 -8.29662 -8.3861e-17)
(1058.89 -6.03346 3.14223e-17)
(1048.12 3.25942 -3.52363e-18)
(1056.12 10.241 1.33834e-20)
(1080.06 14.3823 -5.57343e-17)
(1143.03 18.1886 5.64925e-17)
(1254.41 3.87121 0)
(1399.42 -14.853 0)
(1534.62 -74.1376 -1.72902e-16)
(1643.17 -115.31 1.8833e-16)
(1704.34 -209.207 -1.68763e-19)
(1718.14 -406.469 6.94547e-20)
(1709.97 -626.946 -9.71803e-20)
(1440.27 -966.479 -7.62283e-20)
(1375.94 -488.838 0)
(1100.62 792.075 -1.87973e-16)
(1528.84 1009.95 1.23817e-16)
(1767.56 758.332 -1.32824e-19)
(1762.85 562.962 1.49485e-16)
(1759.47 356.857 -1.29422e-16)
(1708.94 253.734 0)
(1604.96 195.619 -8.36878e-17)
(1486.44 114.344 8.21831e-17)
(1354.42 65.4377 -4.75867e-17)
(1246.34 34.1224 9.64438e-17)
(1184.1 18.9186 -4.81217e-17)
(1156 7.58411 1.80401e-19)
(1147.95 3.99929 0)
(1154.63 -3.07617 2.45045e-17)
(1186.2 -11.5779 2.35859e-17)
(1252.65 -28.8244 -4.88483e-17)
(1365.64 -63.235 -8.9904e-17)
(1499.42 -114.057 8.99019e-17)
(1609.79 -196.37 -7.32704e-17)
(1697.77 -250.869 8.1328e-17)
(1760.96 -360.418 7.8897e-20)
(1758.28 -586.807 -7.7184e-20)
(1767.93 -784.085 0)
(1510.5 -1038.68 6.46657e-20)
(1065.01 -795.205 0)
(1091.12 741.892 1.49866e-16)
(1590.3 947.399 -1.33675e-16)
(1788.48 830.052 5.02521e-20)
(1778.11 701.391 0)
(1782.16 506.828 0)
(1734.49 393.492 -7.4512e-21)
(1657.91 297.718 0)
(1560.91 197.622 7.96937e-20)
(1445.27 132.599 0)
(1344.69 76.4272 4.29243e-17)
(1276.7 46.9703 -6.41054e-17)
(1250.96 21.6808 3.20634e-17)
(1239.99 4.10328 -1.07744e-17)
(1250.28 -15.553 0)
(1279.29 -39.7607 0)
(1349.11 -69.5073 4.10773e-17)
(1456.41 -126.794 -1.19179e-16)
(1571.37 -194.757 7.80687e-17)
(1660.62 -296.351 -6.40439e-17)
(1719.53 -399.473 7.06929e-17)
(1783.32 -508.828 0)
(1778.71 -705.269 0)
(1792.56 -851.493 0)
(1601.08 -942.879 -7.21643e-21)
(1063.06 -727.357 -1.69059e-16)
(1219.64 634.462 -2.83009e-20)
(1678.31 837.632 1.08407e-16)
(1771.39 864.577 -9.85231e-17)
(1790.15 762.626 0)
(1788.27 614.661 0)
(1759.34 493.13 7.68752e-21)
(1699.79 371.803 6.53037e-17)
(1614.36 264.122 -6.34172e-17)
(1511.99 185.876 3.29827e-20)
(1420.85 119.545 3.44601e-20)
(1361.79 72.9243 3.50597e-20)
(1332.98 34.7605 -1.01443e-20)
(1325.58 4.17866 -1.01442e-20)
(1332.44 -29.3408 1.90943e-17)
(1363.93 -64.3184 -1.93886e-17)
(1427.01 -112.63 4.43378e-20)
(1522.07 -181.238 4.25136e-20)
(1625.09 -262.328 0)
(1704.94 -369.095 -5.72762e-17)
(1746.8 -496.955 6.30083e-17)
(1788.44 -619.522 0)
(1791.3 -763.878 -9.85731e-17)
(1772.87 -878.681 1.02555e-16)
(1687.23 -850.091 6.54925e-21)
(1240.37 -642.248 -1.53024e-16)
(1325.02 557.715 3.46309e-20)
(1715.9 778.614 0)
(1763.19 861.732 0)
(1790.06 806.207 -5.36103e-17)
(1794.64 687.264 4.73041e-17)
(1780.8 567.519 0)
(1733.51 434.518 6.00198e-17)
(1659.86 320.449 -5.81824e-17)
(1572.67 231.102 3.40183e-17)
(1493.25 149.196 -3.37446e-17)
(1434.28 96.1227 1.77771e-17)
(1411.94 46.0275 -1.75808e-17)
(1402.39 2.97895 0)
(1412.14 -41.8561 -1.74638e-17)
(1437.94 -92.4107 1.78254e-17)
(1500.27 -146.91 -3.62821e-20)
(1586.9 -229.218 -3.4751e-20)
(1672.52 -325.955 5.60795e-20)
(1740.36 -439.798 5.24407e-17)
(1768.75 -577.439 -5.75593e-17)
(1785.97 -698.079 -4.81201e-20)
(1786.83 -810.973 -4.74602e-20)
(1766.81 -874.025 0)
(1721.52 -773.404 -5.24647e-20)
(1306.53 -545.91 3.50848e-20)
(1357.27 476.97 1.28649e-22)
(1726.84 718.462 0)
(1760.91 848.834 8.56116e-23)
(1795.44 820.388 4.39076e-20)
(1799.64 734.398 -8.76773e-23)
(1802.81 616.177 -5.24997e-17)
(1761.68 482.071 4.85669e-17)
(1697.83 368.78 0)
(1622.37 270.229 -6.36723e-20)
(1551.21 183.776 -1.13063e-22)
(1503.08 117.418 -1.14871e-22)
(1479.71 56.3782 6.80325e-20)
(1473.72 2.93259 0)
(1479.58 -52.6912 0)
(1506.07 -112.354 -1.14445e-22)
(1558.06 -181.924 -1.1252e-22)
(1633.35 -269.017 -2.89905e-17)
(1708.99 -373.514 8.23106e-17)
(1768.61 -483.58 -5.49908e-17)
(1793.42 -619.91 0)
(1794.86 -739.615 -4.46375e-17)
(1790.41 -822.048 4.67101e-17)
(1764.45 -861.398 8.47737e-23)
(1736.21 -731.969 4.66697e-20)
(1373.16 -473.797 1.28165e-22)
(1399.16 438.92 5.23398e-18)
(1719.2 699.662 9.64727e-18)
(1759.48 824.57 9.25141e-17)
(1801.19 814.773 -4.25812e-17)
(1812.09 750.92 4.31518e-17)
(1820.77 646.366 -4.82283e-17)
(1783.47 520.435 4.52755e-17)
(1731.64 404.981 -2.71731e-17)
(1668.96 300.352 2.68349e-17)
(1608.47 204.128 1.18774e-22)
(1561.24 133.49 1.21043e-22)
(1545.57 64.8506 -1.21423e-22)
(1537.44 3.09761 7.364e-18)
(1545.82 -61.1124 7.2187e-18)
(1565.47 -130.968 -1.50048e-17)
(1613.92 -203.378 1.18703e-22)
(1682.16 -298.071 5.35404e-17)
(1744.09 -411.015 -1.03697e-16)
(1792.81 -524.068 5.08742e-17)
(1814.38 -648.581 0)
(1804.77 -755.048 -8.74942e-23)
(1794.16 -817.012 8.02985e-23)
(1763.97 -832.925 -8.16577e-23)
(1722.47 -705.854 -1.00132e-16)
(1398.61 -435.866 1.19115e-16)
(1390.28 450.699 1.12319e-19)
(1702.01 669.556 0)
(1773.09 775.499 0)
(1805.11 798.835 4.04253e-20)
(1824.12 748.651 8.23165e-20)
(1839.93 654.802 0)
(1804.88 536.875 4.74845e-17)
(1761.31 427.393 -4.67223e-17)
(1706.71 320.692 4.80289e-20)
(1652.59 225.121 -4.9658e-20)
(1617.3 145.172 -1.38008e-17)
(1600.28 67.9403 1.37111e-17)
(1596.37 -0.414098 3.53713e-18)
(1600.84 -72.1557 -3.4605e-18)
(1621.75 -147.974 1.34262e-17)
(1660.67 -232.446 -3.978e-17)
(1718.46 -329.073 2.66439e-17)
(1773.09 -442.318 -5.07348e-20)
(1813.15 -549.764 4.18203e-20)
(1833.06 -666.643 -4.13136e-17)
(1819.25 -755.601 1.10349e-18)
(1797.6 -802.126 -1.55591e-18)
(1778.11 -780.085 4.10632e-17)
(1707.44 -675.217 4.68513e-20)
(1391.18 -452.704 5.52968e-20)
(1360.09 452.72 1.09134e-16)
(1711.95 635.616 -9.28031e-17)
(1796.22 723.404 0)
(1814.72 773.817 -3.96247e-17)
(1839.29 735.558 1.29398e-19)
(1853.37 661.777 3.97362e-17)
(1821.78 561.38 4.43195e-17)
(1789.95 451.965 -4.39127e-17)
(1745.85 343.138 -5.02256e-20)
(1701.56 240.759 -2.53966e-17)
(1665.72 157.826 1.21646e-17)
(1655.28 76.7886 1.25724e-17)
(1648.42 2.72231 -5.33066e-20)
(1655.59 -74.3673 0)
(1668.68 -155.826 0)
(1704.86 -240.026 0)
(1756.75 -339.502 5.00635e-20)
(1801.28 -456.38 1.0553e-20)
(1832.25 -563.538 -5.32385e-20)
(1849.17 -662.387 0)
(1832.63 -738.158 3.93119e-20)
(1809.24 -773.493 9.66445e-21)
(1796.8 -726.89 -4.99263e-20)
(1726.85 -646.376 -9.16139e-17)
(1380.56 -458.608 1.07812e-16)
(1348.81 434 5.21418e-17)
(1729.54 568.959 -8.62258e-17)
(1817.39 658.302 8.34689e-17)
(1829.13 737.689 -4.08268e-17)
(1852.84 717.63 -3.79739e-17)
(1867.89 648.75 3.80812e-17)
(1838.74 556.452 2.07588e-17)
(1814.21 456.277 -2.09361e-17)
(1775.86 351.232 1.15698e-17)
(1736.27 252.925 -2.32196e-17)
(1711.73 165.587 1.75228e-17)
(1699.45 78.4298 -7.39808e-18)
(1697.13 -0.0884284 1.48073e-18)
(1700.34 -81.5603 -4.39127e-20)
(1715.66 -166.555 2.31185e-17)
(1742.64 -259.396 -2.37465e-17)
(1785.53 -356.934 4.20364e-20)
(1826.25 -466.758 4.17924e-17)
(1850.06 -565.778 -2.12834e-18)
(1865.03 -656.999 -3.91289e-17)
(1848.76 -721.575 0)
(1820.16 -741.291 4.15016e-17)
(1814.54 -667.901 -3.75997e-17)
(1732.68 -584.326 -9.29347e-17)
(1365.4 -438.315 -4.91989e-18)
(1383.02 404.887 -5.15128e-17)
(1752.63 498.571 4.58452e-17)
(1838.5 609.533 1.92418e-20)
(1842.07 699.79 -5.50006e-20)
(1873.16 692.637 1.87979e-20)
(1877.64 635.516 3.72576e-17)
(1853.16 555.961 -1.85063e-17)
(1838.07 459.457 -2.00216e-17)
(1807.54 356.017 4.40604e-20)
(1776.88 255.073 -4.52921e-20)
(1750.84 166.582 2.05646e-20)
(1745.56 78.9713 -2.0538e-20)
(1739.86 -2.48591 0)
(1745.92 -86.6892 4.98301e-21)
(1754.13 -173.492 -1.08711e-17)
(1780.45 -263.61 1.11315e-17)
(1817.96 -362.302 -2.07925e-17)
(1848.93 -472.948 9.23112e-19)
(1865.58 -566.48 1.95513e-17)
(1877.68 -641.378 -5.43141e-20)
(1865.95 -698.546 -3.74996e-17)
(1838.89 -695.044 3.57278e-17)
(1836.46 -597.023 0)
(1757.15 -513.176 -4.5738e-17)
(1371.16 -412.788 5.06863e-17)
(1397.78 364.809 0)
(1768.79 423.125 -3.77243e-17)
(1849.07 530.439 4.36011e-17)
(1857.71 645.482 1.78055e-20)
(1886.24 670.322 1.74004e-20)
(1892.02 618.581 -3.55948e-17)
(1870.26 542.989 3.73151e-17)
(1859.3 456.157 1.99533e-17)
(1832.78 359.064 6.58416e-19)
(1805.08 264.588 -2.04445e-17)
(1789.72 175.686 -2.16102e-20)
(1781.47 84.1063 2.42524e-20)
(1780.11 0.318717 0)
(1781.3 -86.3102 4.35583e-20)
(1792.53 -175.144 -2.15308e-20)
(1809.51 -269.394 1.01439e-17)
(1839.5 -361.291 -1.03231e-17)
(1869.73 -461.627 -2.00154e-20)
(1883 -550.309 -2.0913e-20)
(1893.62 -625.124 1.7777e-20)
(1878.37 -674.482 -3.68686e-17)
(1851.77 -652.337 -5.50078e-18)
(1848.57 -538.026 3.46766e-17)
(1774.87 -429.957 0)
(1411.82 -377.765 5.30107e-17)
(1423.69 342.045 -9.9546e-17)
(1783.93 364.965 4.2805e-17)
(1857.07 470.955 3.35053e-17)
(1875.1 602.877 -3.97502e-17)
(1900.02 632.953 0)
(1903.28 596.92 -2.15501e-21)
(1883.06 533.699 0)
(1880.08 451.73 -2.38166e-21)
(1858.96 355.291 -2.46289e-21)
(1839.56 260.418 0)
(1821.16 171.849 0)
(1820.05 82.435 -2.55051e-21)
(1815.05 -1.70633 0)
(1819.85 -89.503 0)
(1823.91 -177.775 -9.77005e-18)
(1842.09 -267.304 9.87715e-18)
(1867.16 -359.845 -2.45277e-21)
(1889.12 -461.148 -1.85978e-17)
(1895.84 -542.511 1.80105e-17)
(1908.57 -600.733 0)
(1894.65 -638.079 3.64455e-17)
(1870.14 -599.297 -7.30419e-17)
(1855.96 -463.78 7.56e-17)
(1792.25 -373.099 6.18621e-18)
(1427.65 -344 -4.90315e-17)
(1453.12 308.445 1.19529e-20)
(1798.87 314.114 -9.72879e-21)
(1845.01 411.059 0)
(1887.15 525.023 0)
(1909.85 595.835 0)
(1917.48 574.068 8.0071e-21)
(1900.34 509.7 0)
(1899.9 433.571 -8.54679e-21)
(1879.6 345.401 0)
(1860.87 258.583 -8.7864e-21)
(1853.39 173.204 0)
(1848.61 82.1252 -2.36495e-18)
(1848.32 -2.5679 2.34198e-18)
(1848.17 -91.011 0)
(1855.89 -179.353 9.26234e-18)
(1864.93 -269.369 -1.86537e-17)
(1884.69 -352.917 9.29058e-18)
(1908.97 -442.569 0)
(1912.2 -523.55 1.75334e-17)
(1923.36 -583.622 -1.64457e-17)
(1905.12 -600.123 3.61871e-17)
(1882.8 -536.266 -3.21285e-17)
(1850.62 -402.609 0)
(1802.51 -305.094 0)
(1449.81 -311.854 0)
(1458.42 290.644 -1.1958e-20)
(1799.07 289.386 9.6147e-21)
(1844.26 338.859 0)
(1905.7 450.911 0)
(1920.79 542.577 0)
(1929.1 545.355 -8.09836e-21)
(1913.46 498.676 0)
(1918.1 428.561 8.82474e-21)
(1902.38 341.107 0)
(1891.58 254.144 -8.95633e-18)
(1878.86 169.617 8.97521e-18)
(1880.94 82.4487 -8.40436e-21)
(1876.7 -0.535912 9.24958e-21)
(1880.54 -87.8774 8.39105e-21)
(1880.69 -173.648 0)
(1892.71 -258.23 0)
(1907.58 -343.681 8.96506e-21)
(1924.77 -433.464 -1.75223e-17)
(1925.44 -504.461 1.68323e-17)
(1936.8 -550.293 0)
(1915.55 -550.084 7.98777e-21)
(1898.86 -465.156 0)
(1831.77 -334.932 0)
(1811.73 -279.106 0)
(1474.83 -283.623 0)
(1480.73 271.26 -4.54788e-17)
(1809.06 265.165 3.93301e-17)
(1855.31 287.063 0)
(1912.07 353.751 -1.71066e-20)
(1928.34 488.893 0)
(1940.29 514.411 -1.53177e-17)
(1931.28 470.792 3.32519e-17)
(1936.78 406.057 -1.70611e-17)
(1920.11 325.576 -8.55635e-18)
(1906.89 247.571 8.60827e-18)
(1905.57 168.256 4.38312e-21)
(1902.99 80.4177 1.11995e-18)
(1903.82 -2.10925 -1.07475e-18)
(1902.86 -88.8446 8.55341e-18)
(1907.54 -173.599 -8.5843e-18)
(1910.16 -256.699 0)
(1923.44 -331.975 -1.61457e-20)
(1943.74 -412.971 0)
(1941.75 -484.13 0)
(1945.74 -523.698 -1.71459e-17)
(1925.27 -494.845 1.50942e-17)
(1905.3 -356.804 0)
(1841.87 -277.696 3.74272e-17)
(1813.16 -255.995 1.56793e-18)
(1490.25 -263.731 -9.30618e-17)
(1503.36 257.639 4.55508e-17)
(1818.99 247.522 1.85109e-20)
(1864.71 228.25 3.19984e-17)
(1911.63 292.993 -2.37576e-17)
(1934.75 429.888 -1.84449e-17)
(1947.34 467.665 0)
(1942.25 449.981 8.3772e-21)
(1952.92 395.73 1.62334e-17)
(1939.24 316.96 -1.65735e-17)
(1934.28 237.404 0)
(1925.83 158.051 0)
(1930.19 75.9917 -2.58259e-20)
(1926.64 -3.82965 3.2258e-20)
(1930 -87.3375 1.67925e-20)
(1926.94 -167.235 4.14346e-18)
(1934.95 -245.83 -4.10313e-18)
(1943.69 -324.564 8.80515e-21)
(1958.01 -403.343 1.6593e-17)
(1953.96 -458.293 -3.26139e-17)
(1956.83 -473.445 1.48795e-17)
(1935.05 -432.52 -1.55677e-20)
(1902.68 -287.841 0)
(1850.6 -222.838 1.76823e-20)
(1823.08 -246.476 3.81893e-17)
(1508.72 -252.531 -9.01806e-17)
(1518.07 237.563 -4.45961e-17)
(1833.29 229.961 -3.65065e-17)
(1871.04 199.528 3.54955e-17)
(1891.55 199.179 1.48312e-17)
(1938.57 351.119 -1.92274e-17)
(1952.69 423.264 0)
(1957.77 417.552 4.04516e-21)
(1969.96 371.013 -1.18212e-20)
(1955.83 301.037 7.94083e-18)
(1946.14 231.787 -1.60647e-17)
(1948.32 158.903 7.99916e-18)
(1947.52 76.4107 1.99433e-18)
(1948.88 -1.6485 -1.86497e-18)
(1946.88 -83.1473 1.85802e-18)
(1949.46 -162.046 -1.99485e-18)
(1948.12 -238.546 0)
(1957.29 -305.892 1.18532e-20)
(1974.79 -376.309 -3.7965e-21)
(1966.25 -430.713 -1.68655e-17)
(1955.98 -433.167 1.46299e-17)
(1940.15 -357.33 0)
(1881.41 -197.191 0)
(1858.82 -192.619 -4.26259e-21)
(1835.28 -228.966 -3.76311e-17)
(1533.48 -232.552 -1.38616e-18)
(1530.71 220.412 -2.09209e-17)
(1841.5 218.977 1.86444e-17)
(1880.1 180.557 4.27083e-21)
(1901.21 144.989 0)
(1943.41 262.32 1.427e-17)
(1956.29 356.07 -1.74677e-17)
(1964.71 383.421 3.8188e-21)
(1982.31 355.985 3.8617e-21)
(1971.17 291.313 1.47103e-20)
(1970.81 220.63 -1.91076e-18)
(1964.98 146.717 9.79804e-19)
(1970.82 70.9357 1.88871e-18)
(1967.35 -3.38197 -9.67686e-19)
(1969.85 -81.2345 3.85934e-18)
(1965.4 -154.809 -3.85817e-18)
(1971.08 -227.961 0)
(1974.54 -298.866 1.07786e-20)
(1985.34 -362.665 -1.61451e-17)
(1974.58 -390.438 1.48274e-17)
(1962.92 -362.161 3.76737e-21)
(1940.15 -261.492 0)
(1887.77 -135.221 0)
(1867.79 -179.189 4.30506e-21)
(1845.22 -224.274 -3.70054e-17)
(1540.08 -217.442 4.22352e-17)
(1556.23 195.379 2.09983e-20)
(1855.87 197.647 0)
(1897.5 161.357 -8.00108e-21)
(1903.8 73.7002 -1.49614e-17)
(1927.96 188.944 1.83322e-17)
(1957.86 308.498 -1.41483e-17)
(1969.88 337.746 1.68236e-17)
(1995.2 321.286 -7.39069e-18)
(1984.71 268.893 7.71571e-18)
(1979.08 209.743 -3.7446e-18)
(1983.8 143.775 3.7613e-18)
(1984.11 68.1798 -1.83822e-18)
(1985.57 -3.52203 2.09711e-18)
(1982.96 -79.0771 -2.48762e-19)
(1984.54 -151.753 3.75308e-18)
(1980.86 -220.533 -7.51535e-18)
(1986.01 -277.47 -4.02377e-18)
(1998.56 -330.12 7.36946e-18)
(1977.36 -350.116 1.49525e-20)
(1963.02 -310.298 -7.68782e-21)
(1925.37 -179.425 0)
(1893.15 -68.4642 0)
(1888.95 -162.47 0)
(1853.68 -204.219 -1.82422e-17)
(1557.37 -193.968 2.05085e-17)
(1563.35 177.823 -2.52825e-21)
(1862.23 178.253 0)
(1914.28 153.593 1.02095e-20)
(1912.33 55.8793 -8.05348e-21)
(1904.62 106.336 -7.56166e-21)
(1955.62 201.629 0)
(1970.93 287.272 -7.49333e-21)
(2001.06 298.324 7.14431e-18)
(1996.01 257.619 -7.64397e-18)
(2001.23 199.965 0)
(1997.56 133.678 1.73516e-21)
(2003.9 65.16 0)
(2000.74 -2.11918 0)
(2002.96 -73.5542 1.81637e-18)
(1997.46 -140.296 -1.82244e-18)
(2001.27 -206.028 -7.27053e-21)
(1998.01 -264.438 -1.76096e-21)
(2002.23 -302.666 7.31507e-21)
(1979.01 -292.357 -8.54152e-18)
(1962.06 -218.133 7.07646e-18)
(1893.12 -103.656 -1.74756e-17)