/*--------------------------------*- C++ -*----------------------------------*\
| =========                 |                                                 |
| \\      /  F ield         | OpenFOAM: The Open Source CFD Toolbox           |
|  \\    /   O peration     | Version:  2112                                  |
|   \\  /    A nd           | Website:  www.openfoam.com                      |
|    \\/     M anipulation  |                                                 |
\*---------------------------------------------------------------------------*/
FoamFile
{
    version     2.0;
    format      ascii;
    arch        "LSB;label=32;scalar=64";
    class       volVectorField;
    location    "0.0085";
    object      U;
}
// * * * * * * * * * * * * * * * * * * * * * * * * * * * * * * * * * * * * * //

dimensions      [0 1 -1 0 0 0 0];

internalField   nonuniform List<vector> 
13875
(
(2204.17 109.693 1.8127e-18)
(2142.47 5.62631 -9.38737e-19)
(2170.24 -2.17123 -9.41105e-19)
(2167.86 -0.741446 0)
(2170.34 0.115634 0)
(2169.42 -1.4408 9.36821e-19)
(2169.37 -1.41328 -9.37124e-19)
(2169.85 0.0573744 -4.68411e-19)
(2169.06 0.513903 4.68296e-19)
(2169.07 0.157247 0)
(2169.54 0.101366 -3.88249e-22)
(2169.51 0.910959 -3.88061e-22)
(2169.64 0.923631 0)
(2169.41 -0.0236028 -4.68217e-19)
(2169.45 -0.916252 4.68586e-19)
(2169.6 -1.28841 0)
(2169.87 -0.271466 9.37056e-19)
(2169.23 0.345193 -9.37799e-19)
(2169.14 0.949174 3.87942e-22)
(2169.81 1.18769 -3.85756e-22)
(2170.45 -0.165705 -9.36284e-19)
(2167.85 0.293433 9.37159e-19)
(2171.11 2.47423 -1.878e-18)
(2143.47 -8.70588 1.91685e-18)
(2210.4 -106.946 1.76386e-18)
(2253.4 91.9355 -1.63245e-18)
(2228.46 -1.15929 1.88335e-18)
(2247.41 0.671831 8.71798e-19)
(2245.47 0.921515 -8.67143e-19)
(2248.49 -0.534087 4.1691e-22)
(2247.7 2.25605 5.20193e-22)
(2245.72 1.84482 4.15824e-22)
(2245.5 -0.00180628 -4.35959e-19)
(2244.94 -0.615614 4.36005e-19)
(2244.9 -0.40067 2.17623e-19)
(2245.33 -0.199068 -1.63057e-19)
(2245.44 -1.12793 -5.31607e-20)
(2247.73 -1.14104 0)
(2247.85 0.0946597 -4.34971e-19)
(2247.56 1.0397 4.33452e-19)
(2245.59 1.42904 4.3603e-19)
(2245.51 0.505843 -4.35309e-19)
(2245.21 -0.241715 5.18484e-22)
(2245.69 -1.57056 -5.18686e-22)
(2247.84 -1.96856 5.19788e-22)
(2248.39 0.745526 -8.71458e-19)
(2245.58 -0.717205 2.59968e-18)
(2247.26 -1.56844 -1.74256e-18)
(2228.99 3.50462 5.4278e-22)
(2256.84 -96.8634 -1.71198e-18)
(2252.4 78.1232 0)
(2236.34 -18.2472 0)
(2249.49 4.43041 0)
(2250.6 -1.89122 0)
(2253.53 -2.63163 -1.63885e-18)
(2253.33 1.50442 1.64243e-18)
(2253.45 2.03501 1.72014e-18)
(2253.95 0.740615 -2.58131e-18)
(2252.96 0.746876 8.60751e-19)
(2252.62 0.0317882 4.30551e-22)
(2253.26 -0.335883 -4.30824e-19)
(2253.1 -2.39858 4.30336e-19)
(2254.11 -2.53815 0)
(2253.99 0.0335923 0)
(2254.04 2.37239 4.08176e-22)
(2253.18 2.00792 0)
(2254.06 0.215385 8.38094e-22)
(2253.13 -0.295163 4.30565e-19)
(2253.09 -2.51031 -4.30667e-19)
(2253.54 -1.75461 0)
(2253.72 2.35454 0)
(2250.9 1.3313 0)
(2250.67 -4.82113 0)
(2238.18 13.7099 0)
(2257.25 -74.5038 0)
(2247.86 51.3579 0)
(2235.05 -28.6705 1.81425e-18)
(2249.29 7.2147 -3.41696e-18)
(2251.58 -4.75061 3.46605e-18)
(2253.3 -3.15793 -1.63593e-18)
(2253.21 1.20768 0)
(2253.83 1.41866 -8.4132e-22)
(2254.09 0.568493 0)
(2253.61 0.609053 0)
(2253.8 -0.355606 0)
(2254.4 -0.49124 0)
(2254.14 -2.27699 -8.44036e-22)
(2254.09 -2.48478 -5.06464e-20)
(2253.97 0.000607012 5.06907e-20)
(2254.01 2.28494 0)
(2254.26 1.80594 0)
(2254.74 0.249832 7.994e-22)
(2254.18 0.390466 -8.57103e-19)
(2253.82 -1.74019 8.56204e-19)
(2253.42 -1.4882 -1.62409e-18)
(2253.56 2.74766 1.62362e-18)
(2251.98 4.34174 1.74096e-18)
(2249.76 -8.89893 -1.72058e-18)
(2235.75 31.2663 0)
(2251.32 -58.7035 0)
(2244.89 39.2828 1.74898e-18)
(2235.45 -47.8752 0)
(2248.76 10.4905 0)
(2250.38 -7.6776 0)
(2253.49 -4.36091 0)
(2253.23 0.574341 1.68568e-21)
(2253.55 1.10573 1.68555e-21)
(2253.96 0.5467 4.09799e-19)
(2253.52 0.542598 -4.03198e-19)
(2253.77 -0.629017 2.12642e-19)
(2254.43 -0.563568 -2.15914e-19)
(2254.21 -1.85822 0)
(2254.1 -2.34214 0)
(2253.89 -0.0125121 -1.65556e-21)
(2254.05 2.08467 0)
(2254.31 1.35325 -1.68504e-21)
(2254.71 0.257353 8.07138e-19)
(2254.02 0.725701 -8.50552e-19)
(2253.5 -1.21742 1.71569e-18)
(2253.54 -0.834968 -1.69129e-18)
(2253.61 3.75946 1.65338e-21)
(2250.68 6.46779 0)
(2250.03 -11.562 0)
(2237.2 42.8412 0)
(2250.26 -35.2579 0)
(2241.5 6.75561 0)
(2231.54 -63.6172 9.12429e-19)
(2247.22 12.2719 -8.47611e-19)
(2250.9 -11.1446 0)
(2252.53 -5.0737 8.61531e-19)
(2252.82 -0.187226 -4.37368e-19)
(2253.56 0.473411 -2.83729e-21)
(2253.82 0.36049 -2.14082e-19)
(2253.52 0.333093 -4.23331e-19)
(2253.79 -1.24471 1.6295e-19)
(2254.4 -0.709974 1.67063e-21)
(2254.1 -1.62968 2.68533e-19)
(2253.99 -2.20349 -2.15389e-19)
(2253.77 -0.104017 3.36004e-21)
(2253.89 1.88972 -4.27537e-19)
(2254.22 1.15311 4.33272e-19)
(2254.65 0.310555 1.63626e-21)
(2254.13 1.33659 -1.68343e-21)
(2253.74 -0.328289 -1.67978e-21)
(2252.96 -0.362971 -8.59208e-19)
(2252.77 4.13151 8.46071e-19)
(2251.44 10.6887 0)
(2247.38 -15.1978 0)
(2232.43 65.5545 -1.93336e-18)
(2246.17 -18.6794 -1.26357e-19)
(2254.04 2.89941 -4.95247e-20)
(2227.5 -79.3617 6.02418e-20)
(2243.07 12.2346 0)
(2248.54 -15.6477 -2.69154e-23)
(2252.14 -6.92873 -2.62505e-23)
(2252.48 -1.25968 0)
(2253.01 0.13434 0)
(2253.4 0.292772 -8.47879e-19)
(2253.26 0.0704677 8.50342e-19)
(2253.64 -1.59538 0)
(2254.24 -0.729499 1.67802e-18)
(2254.05 -1.18577 3.91317e-21)
(2253.88 -1.84155 -1.72228e-18)
(2253.62 -0.101516 -1.71139e-21)
(2253.87 1.44754 0)
(2254.19 0.687231 3.44606e-18)
(2254.43 0.356691 1.74062e-21)
(2253.76 1.71821 -6.90572e-18)
(2253.09 0.325211 3.4517e-18)
(2252.83 0.954931 2.64147e-23)
(2252.28 6.09995 0)
(2248.52 12.9695 3.52726e-18)
(2244.19 -12.5354 -3.30831e-18)
(2228.88 73.0728 3.81538e-18)
(2247.29 2.92916 -3.17883e-18)
(2218.36 -22.8415 -3.16931e-19)
(2214.7 -87.4776 -7.49642e-18)
(2235.65 3.51361 8.7076e-22)
(2246.04 -22.4051 2.61195e-23)
(2248.77 -9.05485 -8.09046e-22)
(2251.03 -2.74052 0)
(2252.5 -0.909927 -3.42762e-18)
(2253.1 -0.268688 3.39382e-18)
(2253.16 -0.591834 0)
(2253.58 -2.16131 -8.43559e-22)
(2253.94 -0.972373 -8.28057e-22)
(2253.76 -1.00808 0)
(2253.56 -1.634 0)
(2253.32 -0.109073 -1.6593e-21)
(2253.48 1.2635 -8.38761e-22)
(2253.93 0.531661 2.60063e-23)
(2254.14 0.664765 -8.56111e-22)
(2253.53 2.45916 -2.62926e-23)
(2252.92 1.78252 -1.73291e-18)
(2251.4 2.4019 -1.6266e-20)
(2249.25 8.05351 1.68873e-18)
(2246.39 19.3971 8.85502e-22)
(2236.72 -4.81611 3.45901e-18)
(2216.52 81.5338 -3.53772e-18)
(2222.45 18.1515 2.50136e-23)
(2113.25 -37.8614 9.42634e-19)
(2168.61 -98.6067 0)
(2217.1 -20.1805 -8.31531e-22)
(2234.88 -32.2876 -8.65653e-19)
(2245.7 -17.5671 1.71065e-18)
(2248.61 -6.62356 -1.72923e-18)
(2250.68 -2.55811 8.64492e-21)
(2251.94 -0.922978 8.48808e-19)
(2252.42 -0.996851 0)
(2253.03 -2.4552 -8.52061e-19)
(2253.33 -0.917933 8.5318e-19)
(2253.28 -0.442987 0)
(2252.99 -1.15651 0)
(2252.73 -0.241196 2.10339e-21)
(2252.96 0.554094 8.34395e-22)
(2253.3 0.0443692 8.42262e-19)
(2253.33 0.873371 -8.44345e-19)
(2252.55 3.26939 0)
(2251.27 3.41646 8.60864e-19)
(2249.48 6.05214 -1.72874e-18)
(2246.23 15.1617 8.44936e-19)
(2236.18 28.8806 -8.40874e-22)
(2219.04 16.6507 0)
(2171.37 93.9607 0)
(2117.19 35.3584 0)
(1873.53 -142.222 -6.57061e-17)
(2125.69 -161.356 8.4245e-17)
(2198.8 -54.7845 0)
(2229.06 -54.2234 -2.99438e-17)
(2239.6 -21.825 3.08778e-17)
(2246.22 -10.6799 0)
(2249.2 -5.63051 -2.93848e-20)
(2250.79 -2.98418 -1.45717e-17)
(2251.35 -2.70159 1.45553e-17)
(2251.81 -3.23344 -2.90952e-20)
(2252.11 -1.23298 0)
(2252.11 -0.382322 -3.69998e-18)
(2251.8 -0.807913 5.59027e-18)
(2251.54 -0.273259 -1.90127e-18)
(2251.72 0.42543 -2.92734e-20)
(2252.02 0.374491 0)
(2251.91 1.74535 0)
(2250.95 5.02283 -2.94712e-17)
(2249.44 7.59539 2.90832e-17)
(2246.68 10.2808 -3.05996e-17)
(2240.47 20.4836 2.91765e-17)
(2229.4 52.9862 3.22069e-17)
(2199.88 52.4842 -2.92246e-17)
(2128.72 161.817 -8.33886e-17)
(1884.65 138.365 -1.25836e-17)
(1652.95 -215.536 -9.08543e-17)
(2011.23 -307.588 1.37629e-16)
(2159.39 -104.336 0)
(2210.55 -64.598 6.83131e-17)
(2232.38 -28.8982 -7.10685e-17)
(2241.34 -14.035 -3.38756e-17)
(2245.03 -6.39403 3.36805e-17)
(2247.67 -3.69183 -3.34329e-17)
(2248.72 -2.8157 3.35535e-17)
(2249.4 -2.64618 3.2447e-20)
(2249.78 -0.564309 0)
(2249.8 0.304113 -2.11527e-18)
(2249.49 -0.204746 2.16895e-18)
(2249.2 -0.41938 3.2963e-20)
(2249.3 -0.424404 3.28599e-20)
(2249.39 -0.399278 3.30727e-20)
(2249.15 0.865638 0)
(2248.03 4.52833 0)
(2245.09 7.63005 -6.77064e-17)
(2242.28 15.4438 6.81906e-17)
(2233.7 26.9671 -7.13538e-17)
(2211.55 59.0101 1.47074e-16)
(2166.09 99.4491 -6.99433e-17)
(2016.81 298.587 -3.86818e-20)
(1697.84 206.043 8.75343e-20)
(1281.37 -592.647 -1.08978e-16)
(1741.51 -591.361 1.18789e-16)
(2046.62 -180.256 2.16914e-16)
(2173.72 -105.751 -9.36192e-17)
(2207.88 -35.6706 0)
(2229.53 -19.5177 7.40485e-17)
(2238.34 -12.8849 -7.51652e-17)
(2241.49 -7.84829 0)
(2243.12 -5.60244 3.54761e-20)
(2244.22 -4.07096 0)
(2244.74 -1.24238 0)
(2244.78 0.123448 0)
(2244.56 0.196712 4.67245e-18)
(2244.25 -0.19221 -4.6357e-18)
(2244.23 0.00722262 -3.71794e-20)
(2243.98 0.819041 -3.55203e-20)
(2243.39 2.8143 0)
(2241.76 7.19973 0)
(2238.06 13.9361 0)
(2228.5 19.0979 -7.89348e-17)
(2211.52 37.2876 1.56922e-16)
(2176.42 102.669 -7.2318e-17)
(2052.65 161.77 -1.33649e-16)
(1750.18 592.093 1.00499e-16)
(1286.03 543.627 -5.99377e-20)
(1301.83 -610.758 1.6076e-16)
(1112.24 -1085.99 0)
(1704.51 -450.319 0)
(1930.1 -129.319 -1.07813e-16)
(2150.83 -84.2748 1.09111e-16)
(2201.39 -42.9971 0)
(2215.83 -14.2076 1.12767e-20)
(2224.21 -6.57202 4.0486e-17)
(2228.35 -3.1254 -4.08415e-17)
(2231.13 -1.5479 0)
(2232.17 0.454551 -1.00372e-17)
(2232.46 1.03525 1.01287e-17)
(2232.44 0.846038 -5.08759e-18)
(2232.13 -0.0655913 5.08965e-18)
(2231.79 -0.707727 3.85864e-20)
(2230.68 -1.09083 -4.05695e-17)
(2228.26 -0.124115 8.04924e-17)
(2223.75 4.29817 1.04513e-18)
(2214.18 13.4917 -4.03998e-17)
(2197.96 45.0781 -9.086e-17)
(2134.03 72.1934 8.43652e-17)
(1912.54 109.733 8.25323e-20)
(1758.4 455.985 2.60559e-20)
(1103.62 1071.06 1.67454e-16)
(1319.46 612.4 7.17443e-18)
(1358.99 -629.317 0)
(1142.23 -1058.67 0)
(1292.89 -751.197 0)
(1201.81 -809.292 0)
(1955.52 -255.756 0)
(2051.59 -62.7318 1.01765e-16)
(2156.84 -47.8083 -1.0415e-16)
(2175.55 -30.8083 1.15259e-19)
(2185.31 -19.9595 -1.03061e-20)
(2192.38 -10.6911 2.25782e-17)
(2194.52 -4.49994 -2.28373e-17)
(2195.4 -1.01291 -2.25512e-19)
(2195.56 0.587292 -7.07305e-19)
(2195.22 1.37094 8.02013e-19)
(2194.46 3.42584 -2.26486e-17)
(2192.04 8.22403 2.24407e-17)
(2185.38 17.4636 9.91208e-20)
(2174.71 31.6612 0)
(2149.6 51.8813 0)
(2017.47 86.4445 0)
(1918.58 324.149 -2.11403e-16)
(1167.5 812.265 -6.18757e-17)
(1296.88 702.193 1.64033e-16)
(1135.42 1023.01 2.05604e-20)
(1368.86 618.987 2.0861e-20)
(1437.09 -620.95 0)
(1273.63 -926.228 3.94359e-20)
(1322.07 -784.283 0)
(1238.52 -858.075 -1.67259e-16)
(1337.42 -804.317 3.17993e-16)
(1645.53 -553.887 -2.04893e-16)
(1938.21 -119.365 0)
(1959.86 -14.1737 -1.02466e-19)
(2008.52 14.3107 0)
(2045.59 8.68976 0)
(2056.92 6.14238 -1.40844e-17)
(2060.87 2.81128 1.43963e-17)
(2061.84 1.83072 1.42205e-17)
(2061.34 1.08209 -1.42842e-17)
(2059 -0.508966 0)
(2050.29 -4.36201 -5.8612e-17)
(2017.99 -10.0189 5.9147e-17)
(1962.8 17.8458 7.11722e-17)
(1937.44 143.249 -5.96577e-17)
(1596.3 587.423 0)
(1308.61 795.036 0)
(1202.99 850.801 -1.72115e-19)
(1331.32 779.191 -1.70876e-16)
(1266.92 918.036 3.66701e-16)
(1425.2 619.052 -1.69427e-16)
(1519.69 -631.028 -1.69235e-16)
(1387.63 -855.441 1.87061e-16)
(1385.36 -759.334 0)
(1282.91 -820.02 -1.89201e-16)
(1309.25 -785.171 -6.29124e-18)
(1307.02 -745.924 2.77345e-16)
(1258.1 -593.629 -1.99968e-16)
(1322.56 -522.533 1.18182e-16)
(1544.14 -270.706 0)
(1564.89 -120.335 0)
(1549.38 -58.6715 -4.08218e-20)
(1545.95 -21.2498 2.73096e-19)
(1542.97 -3.40888 0)
(1544.65 11.8532 0)
(1548.21 41.8157 5.79644e-17)
(1558.38 109.052 -5.51026e-17)
(1573.85 230.164 -1.10507e-16)
(1334.78 526.585 2.24307e-16)
(1246.71 597.723 1.82337e-17)
(1286.55 746.295 -9.04012e-17)
(1301.26 779.536 0)
(1252.89 823.61 0)
(1382.47 761.165 -1.73784e-16)
(1350.97 888.113 2.02887e-16)
(1502.24 641.021 -4.59576e-20)
(1660.58 -609.944 1.57253e-16)
(1562.94 -749.536 -9.7012e-20)
(1528.57 -688.799 9.47968e-17)
(1465.6 -729.141 -8.50114e-17)
(1399.5 -684.039 -4.46276e-20)
(1339.64 -599.968 8.76789e-20)
(1191.16 -447.76 1.15632e-16)
(873.004 -242.139 -1.80195e-16)
(697.606 -125.259 6.39305e-17)
(535.599 -56.9735 0)
(410.08 -20.4316 -3.37362e-17)
(369.648 -6.8492 3.36705e-17)
(353.015 1.00072 0)
(359.96 9.42505 6.32663e-20)
(389.801 17.1674 -3.35957e-17)
(497.936 49.2564 3.38283e-17)
(737.97 121.755 0)
(874.422 253.038 -1.16411e-16)
(1177.75 439.737 1.16695e-16)
(1327.61 595.649 8.91439e-17)
(1389.2 685.147 -1.86221e-16)
(1433.92 744.578 9.96602e-17)
(1520.13 708.976 0)
(1547.56 776.271 1.68779e-16)
(1650.29 625.041 -3.30037e-18)
(1815.55 -552.06 -3.3003e-18)
(1745.94 -604.296 7.99998e-17)
(1689.55 -552.047 -3.63089e-17)
(1543.17 -426.629 -5.71816e-17)
(1421.86 -360.558 7.32621e-17)
(1383.53 -278.996 -5.12997e-17)
(1291.11 -253.93 5.29508e-17)
(951.018 -200.137 -5.85482e-17)
(735.751 -106.968 -4.95983e-19)
(598.972 -58.9969 3.30054e-17)
(502.987 -29.7233 1.65076e-17)
(470.452 -15.2915 -1.53791e-19)
(457.757 1.59251 -1.66951e-17)
(465.147 21.2126 -6.04415e-20)
(497.004 30.508 -7.51273e-20)
(589.858 54.3483 -2.06843e-18)
(794.051 102.561 2.19297e-20)
(972.213 194.439 5.37612e-18)
(1283.18 229.288 -3.54008e-18)
(1366.33 305.408 0)
(1409.17 397.695 1.09133e-17)
(1553.18 479.187 -3.45081e-17)
(1689.54 591.41 4.13611e-17)
(1741.56 634.952 -5.65003e-17)
(1810.28 569.799 5.30811e-17)
(1998.47 -510.002 -8.68762e-20)
(1955.44 -329.196 -1.04384e-19)
(1882.14 -322.355 1.21292e-19)
(1790.89 -220.125 -5.48649e-21)
(1534.17 -70.5767 -1.83195e-19)
(1416.09 -27.0275 -2.00724e-19)
(1375.39 -72.3737 -7.15121e-21)
(1199.64 -92.8387 0)
(967.077 -105.453 0)
(818.932 -121.688 6.56531e-17)
(736.302 -103.515 -6.71594e-17)
(695.059 -50.767 -8.85201e-21)
(680.395 2.14434 8.83225e-21)
(685.89 52.8813 -8.64596e-18)
(720.737 115.423 8.37373e-18)
(807.28 146.892 0)
(986.093 127.986 0)
(1175.86 108.475 -5.6464e-17)
(1342.31 72.4818 5.61359e-17)
(1369.71 17.576 -1.94314e-19)
(1537.15 76.3654 0)
(1801.51 229.983 0)
(1886.96 324.846 -1.23849e-19)
(1953.54 331.539 -1.07222e-19)
(2000.09 523.669 1.23016e-16)
(1501.44 -182.572 -1.87242e-16)
(1743.66 -125.677 -2.38349e-16)
(1850.79 110.379 1.22414e-16)
(1799.06 141.045 0)
(1647.7 186.546 1.98782e-19)
(1516.49 146.308 1.08123e-16)
(1502.93 35.1856 -2.08777e-16)
(1407.89 -20.098 1.06173e-16)
(1225 -56.7708 -1.20937e-16)
(1061.73 -84.3881 1.25288e-16)
(935.046 -73.1518 3.29944e-17)
(863.95 -29.5 -4.10844e-17)
(839.747 5.98025 -8.31976e-18)
(857.453 40.1244 1.68267e-17)
(928.635 90.1486 0)
(1069.29 109.36 0)
(1246.78 77.107 1.16558e-16)
(1391.42 36.7829 -2.20909e-16)
(1486.24 -37.1092 1.0942e-16)
(1500.11 -155.195 2.27073e-19)
(1662.81 -195.077 1.53118e-16)
(1790.83 -154.37 -9.79329e-17)
(1831.63 -134.873 -4.89966e-16)
(1741.34 135.42 6.19846e-16)
(1489.5 190.807 -2.48918e-16)
(-37.3556 -77.229 1.12838e-19)
(492.111 -108.236 -2.56441e-16)
(1401.24 297.277 1.73607e-16)
(1671.09 496.586 0)
(1671.31 418.386 0)
(1610.21 276.754 0)
(1601.01 138.024 0)
(1530.94 65.5686 0)
(1374.43 18.7135 -5.16182e-17)
(1209.97 -20.7874 1.08366e-16)
(1077.64 -27.1868 -8.46748e-17)
(999.419 -6.38227 3.21867e-17)
(977.883 8.76251 -3.62734e-18)
(999.522 21.364 1.58247e-20)
(1085.51 46.1551 -5.5831e-17)
(1235.36 41.2561 5.5445e-17)
(1403.79 -1.46039 0)
(1527.09 -53.1035 0)
(1600.22 -138.919 -1.73277e-16)
(1604.23 -294.912 1.8576e-16)
(1676.97 -423.188 -1.62048e-19)
(1651.16 -502.061 7.30541e-20)
(1359.96 -267.494 -9.49576e-20)
(417.174 152.615 -1.16043e-19)
(-120.12 95.3474 0)
(-281.003 -46.6253 -2.25189e-16)
(384.91 265.83 2.29895e-16)
(1253.66 638.965 -1.71756e-19)
(1624.36 742.81 1.63809e-16)
(1723.62 574.715 -1.21467e-16)
(1686.62 390.121 0)
(1673.54 234.46 -8.19487e-17)
(1613.15 158.037 7.4598e-17)
(1476.65 95.1864 -4.45268e-17)
(1326.09 38.2596 9.34222e-17)
(1194.85 12.0607 -4.81835e-17)
(1120.8 9.97008 1.83175e-19)
(1099.79 7.21158 0)
(1126.56 2.99339 2.49088e-17)
(1213.44 0.482041 2.31217e-17)
(1359.6 -28.7225 -4.73578e-17)
(1506.91 -90.6599 -8.13643e-17)
(1609.53 -151.112 8.39342e-17)
(1678.34 -238.201 -7.21729e-17)
(1684.09 -413.859 7.96361e-17)
(1727.26 -591.791 7.97939e-20)
(1587.96 -767 -7.59723e-20)
(1194.13 -626.778 0)
(320.448 -270.56 1.13266e-19)
(-278.365 23.8697 0)
(248.851 237.678 1.91607e-16)
(850.495 714.458 -1.88778e-16)
(1398.73 866.236 6.17247e-20)
(1670.71 868.26 0)
(1775.2 674.416 0)
(1736.71 507.964 -7.31768e-21)
(1718.11 352.373 0)
(1668.16 249.763 7.40061e-20)
(1554.15 168.123 0)
(1417.54 96.1635 4.15755e-17)
(1299.99 50.0895 -6.39817e-17)
(1227.73 25.1378 3.26531e-17)
(1208.66 6.31963 -1.10116e-17)
(1233.53 -15.055 0)
(1316.61 -39.9148 0)
(1446.32 -89.8535 3.88106e-17)
(1576.65 -161.537 -1.0914e-16)
(1662.44 -247.288 7.30279e-17)
(1732.42 -344.88 -6.10618e-17)
(1737.59 -514.552 6.98058e-17)
(1784.09 -679.315 0)
(1661.83 -887.586 0)
(1390.89 -881.894 0)
(879.921 -744.255 -1.16881e-20)
(249.122 -204.901 -2.01776e-16)
(318.518 83.0944 -3.59045e-20)
(1088.06 724.816 1.55923e-16)
(1530.58 932.08 -1.19717e-16)
(1735.64 909.157 0)
(1805.13 735.616 0)
(1761.55 595.832 7.59359e-21)
(1756.22 442.435 6.45171e-17)
(1713.76 328.082 -5.69827e-17)
(1614.19 226.224 3.03086e-20)
(1495.34 140.44 3.29551e-20)
(1388.17 78.4935 3.48571e-20)
(1324.49 37.5381 -1.03424e-20)
(1304.6 4.19141 -1.0392e-20)
(1329.84 -30.2923 1.92846e-17)
(1403.85 -72.9076 -1.93338e-17)
(1522.22 -137.227 4.22006e-20)
(1636.9 -222.4 3.88262e-20)
(1706.81 -329.491 0)
(1766.72 -434.203 -5.42107e-17)
(1769.96 -591.447 6.22583e-17)
(1818.77 -739.301 0)
(1734.98 -921.537 -9.90176e-17)
(1524.96 -931.036 1.22286e-16)
(1071.29 -712.688 9.03965e-21)
(322.301 -57.9091 -1.88343e-16)
(489.101 113.305 4.18007e-20)
(1245.5 748.399 0)
(1629.11 930.206 0)
(1780.21 916.222 -4.75367e-17)
(1818.69 777.947 4.59235e-17)
(1779.9 652.858 0)
(1787.48 507.81 5.87623e-17)
(1750 388.643 -5.24891e-17)
(1663.96 274.832 3.18032e-17)
(1556.73 178.938 -3.21184e-17)
(1464.97 103.708 1.76971e-17)
(1406.47 48.8949 -1.78226e-17)
(1391.13 2.118 0)
(1413.37 -46.4687 -1.76496e-17)
(1481.92 -103.729 1.7681e-17)
(1583.67 -183.687 -3.47092e-20)
(1685.79 -273.632 -3.20508e-20)
(1744.33 -397.129 5.16805e-20)
(1794.62 -507.29 4.9732e-17)
(1784.69 -657.6 -5.72457e-17)
(1832.32 -781.529 -4.56575e-20)
(1777.16 -932.25 -4.45444e-20)
(1623.54 -924.821 0)
(1216.57 -732.788 -7.23979e-20)
(463.527 -96.974 4.22725e-20)
(537.459 142.08 1.60056e-22)
(1324.99 693.164 0)
(1695.4 874.626 9.29243e-23)
(1781.05 910.997 4.03453e-20)
(1822.48 804.928 -8.5719e-23)
(1794.99 700.955 -5.19478e-17)
(1814.47 560.904 4.59788e-17)
(1784.57 439.555 0)
(1709.15 315.335 -5.90565e-20)
(1618.42 213.446 -1.07913e-22)
(1533.55 125.972 -1.1374e-22)
(1483.92 57.9732 6.88372e-20)
(1467.21 0.804752 0)
(1488.47 -56.6022 0)
(1547.04 -125.931 -1.13018e-22)
(1640.42 -216.964 -1.06756e-22)
(1730.32 -315.016 -2.62976e-17)
(1777.45 -445.883 7.51783e-17)
(1817.43 -557.996 -5.32835e-17)
(1799.36 -700.726 0)
(1838.96 -800.482 -4.40118e-17)
(1782.58 -917.529 4.41027e-17)
(1697.73 -870.166 9.29152e-23)
(1313.46 -665.683 6.24798e-20)
(520.987 -132.706 1.60622e-22)
(661.733 205.039 3.12398e-18)
(1449.87 675.963 1.26568e-17)
(1743.65 850.971 9.75414e-17)
(1791.55 897.407 -4.11035e-17)
(1836.01 806.044 4.2565e-17)
(1813.55 716.749 -4.764e-17)
(1841.08 588.046 4.28781e-17)
(1810.94 472.816 -2.5151e-17)
(1745.4 345.563 2.46672e-17)
(1664.04 240.397 1.14836e-22)
(1594.94 144.943 1.20698e-22)
(1549.36 67.4858 -1.23342e-22)
(1536.65 0.83684 7.43612e-18)
(1553.9 -67.2939 7.25994e-18)
(1607.43 -146.916 -1.48457e-17)
(1684.95 -247.133 1.13833e-22)
(1766.33 -341.693 4.89045e-17)
(1806.81 -477.974 -9.50612e-17)
(1845.44 -583.267 4.89169e-17)
(1812.86 -721.802 0)
(1848.55 -803.246 -8.34045e-23)
(1793.94 -901.574 7.89723e-23)
(1739.16 -850.783 -8.42927e-23)
(1440.37 -672.496 -1.21662e-16)
(651.822 -212.766 1.50514e-16)
(717.545 221.893 1.4111e-19)
(1502.65 633.568 0)
(1763.45 799.988 0)
(1797.62 867.633 3.95022e-20)
(1844.03 793.241 8.06066e-20)
(1832.48 726.762 0)
(1866.6 606.971 4.48997e-17)
(1838.41 494.481 -4.22257e-17)
(1779.54 363.55 4.43563e-20)
(1712 257.685 -4.75812e-20)
(1648.25 154.952 -1.37385e-17)
(1611.2 70.3215 1.3734e-17)
(1597.93 -3.12682 3.57334e-18)
(1615.56 -77.6256 -3.46865e-18)
(1660.43 -164.178 1.32397e-17)
(1731.59 -272.6 -3.78445e-17)
(1802 -372.416 2.46461e-17)
(1832.36 -509.439 -4.63552e-20)
(1864.94 -612.388 3.94662e-20)
(1831 -734.786 -4.05653e-17)
(1851.9 -796.873 8.21586e-19)
(1805.57 -865.676 -2.1405e-18)
(1766.48 -788.798 4.12116e-17)
(1472.72 -600.415 5.69446e-20)
(645.812 -211.247 6.91861e-20)
(717.353 206.843 1.35758e-16)
(1538.93 579.105 -1.09486e-16)
(1792.49 759.573 0)
(1816.45 841.962 -3.81888e-17)
(1859.08 783.028 3.39187e-19)
(1853.3 721.248 3.94387e-17)
(1890.29 613.986 4.16421e-17)
(1859.38 512.292 -3.99129e-17)
(1810.04 384.168 -4.6906e-20)
(1749.24 278.789 -2.45627e-17)
(1699.48 172.059 1.19291e-17)
(1664.43 81.6366 1.26402e-17)
(1654.23 1.05784 -5.38905e-20)
(1666.89 -80.6949 0)
(1707.51 -172.862 0)
(1763.79 -285.591 0)
(1829.58 -377.997 4.64358e-20)
(1856.72 -515.076 9.65333e-21)
(1891.28 -607.136 -4.9768e-20)
(1851.31 -722.131 0)
(1865.62 -780.825 3.81751e-20)
(1819.78 -840.143 9.40215e-21)
(1795.47 -760.48 -4.87776e-20)
(1557.34 -582.683 -1.06927e-16)
(773.725 -242.862 1.33724e-16)
(766.761 234.52 6.60191e-17)
(1565.7 520.339 -9.67302e-17)
(1810.03 679.059 8.23282e-17)
(1828.55 786.329 -4.11398e-17)
(1871.16 752.858 -3.74269e-17)
(1870.42 708.085 3.76249e-17)
(1910.9 615.752 1.92411e-17)
(1881.35 519.736 -1.89546e-17)
(1837.34 390.283 1.08262e-17)
(1788.93 285.97 -2.23544e-17)
(1741.9 175.132 1.73741e-17)
(1714.84 82.2634 -7.3885e-18)
(1704.11 -1.97766 1.4904e-18)
(1717.58 -87.5701 -4.37226e-20)
(1750.92 -180.944 2.28482e-17)
(1803.42 -299.495 -2.28301e-17)
(1859.62 -395.187 3.86994e-20)
(1877.57 -528.91 3.78776e-17)
(1909.84 -614.988 -1.82674e-18)
(1863.13 -712.936 -3.84672e-17)
(1875.6 -757.137 0)
(1835.65 -787.923 4.10901e-17)
(1812.63 -688.604 -3.66482e-17)
(1567.64 -522.777 -1.0355e-16)
(769.889 -246.849 -9.67381e-19)
(896.286 266.559 -6.2741e-17)
(1632.68 478.137 4.84098e-17)
(1836.11 635.525 1.9092e-20)
(1846.62 747.108 -5.38533e-20)
(1891.82 737.674 1.81601e-20)
(1893.37 686.237 3.60016e-17)
(1933.53 596.201 -1.72603e-17)
(1897.32 512.509 -1.83465e-17)
(1862.38 390.537 4.14565e-20)
(1817.26 291.26 -4.41389e-20)
(1782.76 180.126 2.02948e-20)
(1756.99 85.1063 -2.06236e-20)
(1750.3 -3.18542 0)
(1759.61 -93.3727 5.27392e-21)
(1790.4 -190.256 -1.07042e-17)
(1829.94 -308.255 1.07621e-17)
(1883.09 -394.827 -1.92764e-17)
(1898.14 -526.234 9.61665e-19)
(1932.35 -598.163 1.80925e-17)
(1887.64 -689.641 -5.32821e-20)
(1889.68 -742.021 -3.66273e-17)
(1854.09 -745.242 3.48456e-17)
(1838.53 -637.986 0)
(1627.32 -481.733 -4.88475e-17)
(865.436 -280.329 6.25135e-17)
(914.216 270.202 0)
(1648.14 431.452 -4.29322e-17)
(1839.66 554.387 4.24083e-17)
(1866.42 670.397 1.77755e-20)
(1902.74 698.15 1.71355e-20)
(1912.1 664.263 -3.44702e-17)
(1946.47 592.281 3.41489e-17)
(1915.86 515.818 1.82734e-17)
(1885.88 395.681 8.02817e-19)
(1852.46 297.44 -1.96728e-17)
(1818.41 183.793 -2.14631e-20)
(1799.13 88.8725 2.42026e-20)
(1790.71 -0.713513 0)
(1800.35 -91.7022 4.35005e-20)
(1824.28 -185.247 -2.13902e-20)
(1862.24 -308.374 9.7514e-18)
(1907.5 -396.817 -9.63249e-18)
(1913.53 -521.732 -1.82749e-20)
(1945.22 -590.808 -1.91561e-20)
(1905.04 -665.043 1.7541e-20)
(1900.56 -704.502 -3.64438e-17)
(1872.79 -681.558 -6.524e-18)
(1849.09 -572.141 3.38005e-17)
(1664.44 -438.042 0)
(958.194 -279.849 6.02437e-17)
(1014.33 282.672 -1.14543e-16)
(1688.2 397.781 4.50389e-17)
(1856.15 498.056 3.25335e-17)
(1891.39 624.293 -4.07188e-17)
(1920.76 672.073 0)
(1934.97 644.615 -2.06593e-21)
(1966.42 569.554 0)
(1930.06 497.826 -2.1937e-21)
(1907.69 387.127 -2.32904e-21)
(1874.47 295.68 0)
(1851.42 184.32 0)
(1832.68 88.9024 -2.56929e-21)
(1828.38 -2.14471 0)
(1834.4 -95.5801 0)
(1856.96 -191.504 -9.63052e-18)
(1882.99 -310.063 9.61788e-18)
(1928.12 -387.67 -2.30767e-21)
(1933.24 -509.358 -1.71337e-17)
(1964.83 -571.481 1.63227e-17)
(1929.29 -644.867 0)
(1916.86 -678.478 3.58074e-17)
(1891.71 -634.725 -7.30044e-17)
(1863.3 -516.078 7.22966e-17)
(1694.56 -395.354 4.01525e-18)
(995.272 -263.481 -5.71989e-17)
(1071.07 273.913 1.36142e-20)
(1705.94 367.394 -1.04815e-20)
(1860.06 434.914 0)
(1908.54 541.942 0)
(1930.79 615.838 0)
(1952.51 612.759 7.68098e-21)
(1976.23 555.946 0)
(1943.83 489.559 -7.87024e-21)
(1927.89 382.5 0)
(1905.09 291.88 -8.49023e-21)
(1880.76 178.302 0)
(1867.38 86.4243 -2.3545e-18)
(1860.99 -3.75019 2.34818e-18)
(1868.29 -95.4685 0)
(1885.53 -184.998 9.19573e-18)
(1911.8 -308.55 -1.80283e-17)
(1948.92 -388.651 8.71409e-18)
(1945.61 -499.188 0)
(1976.74 -559.899 1.59479e-17)
(1945.17 -616.907 -1.59104e-17)
(1928.99 -625.591 3.57336e-17)
(1912.5 -554.83 -3.14947e-17)
(1858.07 -450.588 0)
(1701.41 -362.897 0)
(1050.48 -253.116 0)
(1121.61 266.179 -1.32004e-20)
(1729.57 347.307 1.03066e-20)
(1877.96 375.983 0)
(1927.88 467.492 0)
(1947.95 579.607 0)
(1970.95 594.394 -7.62465e-21)
(1996.55 534.398 0)
(1958.28 468.713 8.20183e-21)
(1948.48 370.089 0)
(1923.81 289.139 -8.80103e-18)
(1908.43 181.128 8.83199e-18)
(1894.45 89.4349 -8.41737e-21)
(1891.73 -0.526716 9.26631e-21)
(1895.03 -93.4097 8.41093e-21)
(1911.81 -183.507 0)
(1927.47 -299.339 0)
(1967.75 -367.648 8.47842e-21)
(1963.12 -478.713 -1.62397e-17)
(1995.69 -536.778 1.5114e-17)
(1966.63 -594.675 0)
(1942.02 -586.989 7.823e-21)
(1928.47 -479.86 0)
(1878.42 -394.12 0)
(1728.38 -346.43 0)
(1126.59 -255.722 0)
(1150.35 240.522 -5.07582e-17)
(1740.71 315.602 4.19696e-17)
(1887.87 322.534 0)
(1937.2 387.026 -1.67603e-20)
(1958.38 516.853 0)
(1982.85 549.14 -1.44946e-17)
(2004.89 513.547 3.01191e-17)
(1971.13 457.557 -1.5833e-17)
(1965.01 361.936 -8.13135e-18)
(1950.31 281.733 8.33759e-18)
(1932.72 171.945 4.3469e-21)
(1923.36 85.0123 1.11296e-18)
(1918.02 -2.93119 -1.07473e-18)
(1923.53 -92.7822 8.48218e-18)
(1936.63 -175.692 -8.53412e-18)
(1953.75 -296.098 0)
(1984.55 -366.309 -1.51647e-20)
(1974.72 -465.061 0)
(2005.9 -520.646 0)
(1979.12 -558.874 -1.6271e-17)
(1952 -525.409 1.46875e-17)
(1938.79 -401.236 0)
(1888.48 -329.485 3.66373e-17)
(1734.07 -318.848 2.12736e-18)
(1152.05 -247.155 -1.04355e-16)
(1209.59 223.302 5.06259e-17)
(1767.84 295.085 1.93347e-20)
(1902.64 275.172 3.09137e-17)
(1941.39 321.3 -2.31342e-17)
(1970 475.893 -1.76541e-17)
(1996.76 519.976 0)
(2022.34 489.535 7.53681e-21)
(1985.2 430.479 1.51796e-17)
(1984.06 341.738 -1.57932e-17)
(1964.72 270.334 0)
(1955.05 168.772 0)
(1944.54 83.9824 -2.5973e-20)
(1943.39 -2.78662 3.21654e-20)
(1945.1 -93.6184 1.69548e-20)
(1958.11 -175.581 4.07454e-18)
(1966.05 -284.606 -4.04037e-18)
(2003.18 -344.603 8.38118e-21)
(1992.97 -445.759 1.55469e-17)
(2022.44 -495.178 -2.89567e-17)
(1993.97 -523.617 1.40478e-17)
(1967.12 -483.749 -1.48893e-20)
(1942.95 -322.606 0)
(1901.92 -282.578 1.69519e-20)
(1764.04 -304.172 4.05893e-17)
(1211.04 -238.236 -1.0002e-16)
(1210.49 187.8 -4.98169e-17)
(1768.32 262.633 -3.81794e-17)
(1906.23 234.62 3.49464e-17)
(1929.97 247.618 1.45441e-17)
(1977.24 393.718 -1.82808e-17)
(2005.12 459.126 0)
(2028.17 460.73 3.66857e-21)
(1997.04 419.128 -1.10686e-20)
(1999.09 336.057 7.5836e-18)
(1988.59 265.085 -1.56038e-17)
(1975.74 162.241 7.89545e-18)
(1968.97 82.1691 1.97668e-18)
(1964.76 -1.54626 -1.86175e-18)
(1968.83 -87.4207 1.83728e-18)
(1978.6 -161.718 -1.97931e-18)
(1989.19 -276.403 0)
(2016.47 -337.375 1.12318e-20)
(2002.8 -423.385 -3.57008e-21)
(2028.95 -473.347 -1.48415e-17)
(2004.6 -473.732 1.36893e-17)
(1973.48 -406.792 0)
(1937.83 -261.582 0)
(1915.21 -238.053 -4.06986e-21)
(1778.92 -273.318 -4.00189e-17)
(1238.91 -206.129 -1.76261e-18)
(1252.64 171.209 -2.34665e-17)
(1785.1 242.82 1.96055e-17)
(1920.97 212.784 4.1058e-21)
(1931.55 183.694 0)
(1987.43 321.295 1.34873e-17)
(2018.77 421.183 -1.61348e-17)
(2040.68 434.769 3.40939e-21)
(2010.56 389.12 3.66753e-21)
(2017 313.564 1.40041e-20)
(2000.16 251.47 -1.89022e-18)
(1993.68 157.656 9.54281e-19)
(1985.51 80.2789 1.88512e-18)
(1985.49 -2.09452 -9.62264e-19)
(1985.86 -88.9093 3.84567e-18)
(1996.38 -161.709 -3.80288e-18)
(1999.22 -263.273 0)
(2035.37 -316.812 1.01727e-20)
(2020.66 -403.651 -1.51006e-17)
(2040.96 -441.803 1.32558e-17)
(2017.05 -431.626 3.47254e-21)
(1983.64 -345.366 0)
(1928.57 -188.822 0)
(1928.74 -213.348 4.11032e-21)
(1785.19 -247.931 -3.93498e-17)
(1227.61 -178.46 4.6587e-17)
(1287.69 143.819 2.34737e-20)
(1793.55 208.843 0)
(1931.48 183.164 -7.81219e-21)
(1934.75 130.179 -1.44422e-17)
(1984.39 243.72 1.77287e-17)
(2019.03 349.447 -1.31269e-17)
(2040.79 390.026 1.52305e-17)
(2019.15 368.585 -7.02283e-18)
(2028.79 303.867 7.35518e-18)
(2020.88 243.582 -3.64058e-18)
(2011.03 147.997 3.70157e-18)
(2006.11 75.018 -1.81688e-18)
(2003.11 -3.77747 2.0914e-18)
(2006.01 -84.6948 -2.45916e-19)
(2014.16 -151.108 3.70128e-18)
(2020.46 -257.914 -7.28931e-18)
(2045.57 -307.566 -3.76089e-18)
(2028.71 -376.927 7.01181e-18)
(2045.37 -408.924 1.34847e-20)
(2021.97 -366.681 -6.99098e-21)
(1985.6 -245.673 0)
(1936.48 -144.694 0)
(1936.12 -183.006 0)
(1784.04 -204.412 -1.94573e-17)
(1238.45 -139.366 2.31535e-17)
(1310.09 140.867 -2.79131e-21)
(1801.93 190.308 0)
(1947.86 167.894 9.83074e-21)
(1941.11 89.2114 -7.92351e-21)
(1968.64 163.874 -7.23331e-21)
(2029.08 296.417 0)
(2049.46 352.674 -6.61922e-21)
(2031.38 337.751 6.84788e-18)
(2044.85 281.774 -7.25311e-18)
(2030.36 230.705 0)
(2026.01 145.952 1.70277e-21)
(2019.53 75.7148 0)
(2020.25 -1.10769 0)
(2019.38 -82.6239 1.80654e-18)
(2028.26 -146.729 -1.79513e-18)
(2027.06 -240.046 -7.25053e-21)
(2063.2 -284.983 -1.64995e-21)
(2043.17 -352.244 6.98115e-21)
(2049.48 -362.873 -7.50845e-18)
(2030.72 -321.129 6.37938e-18)
(1975.25 -188.968 -1.73688e-17)