/*--------------------------------*- C++ -*----------------------------------*\
| =========                 |                                                 |
| \\      /  F ield         | OpenFOAM: The Open Source CFD Toolbox           |
|  \\    /   O peration     | Version:  2112                                  |
|   \\  /    A nd           | Website:  www.openfoam.com                      |
|    \\/     M anipulation  |                                                 |
\*---------------------------------------------------------------------------*/
FoamFile
{
    version     2.0;
    format      ascii;
    arch        "LSB;label=32;scalar=64";
    class       volScalarField;
    location    "9e-05";
    object      alphat;
}
// * * * * * * * * * * * * * * * * * * * * * * * * * * * * * * * * * * * * * //

dimensions      [1 -1 -1 0 0 0 0];

internalField   nonuniform List<scalar> 
13875
(
0.444624
1.38917
2.01547
2.37464
2.58246
2.7054
2.77218
2.80742
2.82408
2.83135
2.83429
2.83538
2.83565
2.83534
2.83425
2.83133
2.82404
2.80749
2.77245
2.70595
2.58311
2.37612
2.01813
1.39846
0.443982
0.865934
2.76532
3.71609
4.37331
4.78935
5.03882
5.17534
5.2452
5.27827
5.29269
5.29852
5.30067
5.30119
5.3007
5.29868
5.2931
5.27886
5.24591
5.17639
5.04051
4.79187
4.37707
3.72149
2.77432
0.877325
1.23894
4.7103
6.17033
7.08912
7.67945
8.03668
8.23503
8.33696
8.38538
8.4066
8.41523
8.41839
8.41915
8.41842
8.41539
8.40698
8.38591
8.33759
8.23576
8.03746
7.68019
7.09008
6.17118
4.71123
1.24453
1.53815
6.11928
7.89046
8.88689
9.53095
9.92678
10.1502
10.2656
10.3203
10.3442
10.3538
10.3573
10.3581
10.3573
10.3538
10.3442
10.3204
10.2658
10.1504
9.92664
9.53041
8.8868
7.89022
6.11284
1.52808
1.70357
8.01619
10.8855
12.1682
12.9558
13.4514
13.7308
13.8746
13.9421
13.9709
13.9822
13.9861
13.987
13.9861
13.9823
13.9714
13.943
13.8759
13.7324
13.4535
12.9587
12.1751
10.8948
8.02512
1.68949
2.07713
11.7824
16.6756
18.414
19.336
19.8731
20.1775
20.3362
20.4102
20.442
20.4544
20.4588
20.4598
20.4587
20.4544
20.4422
20.4109
20.3378
20.1804
19.8777
19.347
18.43
16.7122
11.8343
2.06254
1.79204
10.5987
15.0993
16.794
17.6264
18.0743
18.3065
18.4199
18.4715
18.4928
18.5009
18.5036
18.5042
18.5034
18.5004
18.4921
18.4706
18.4187
18.3039
18.0677
17.6175
16.7757
15.0369
10.4711
1.77065
1.28588
7.40668
10.596
11.9447
12.5732
12.8867
13.0367
13.1048
13.1339
13.1457
13.1501
13.1517
13.152
13.1514
13.1497
13.145
13.1331
13.1036
13.0348
12.8828
12.5674
11.9335
10.5644
7.36097
1.27445
0.646729
2.7028
3.82113
4.35174
4.59382
4.70679
4.75854
4.78136
4.79094
4.79478
4.79623
4.79671
4.79675
4.7965
4.79583
4.79416
4.79005
4.78018
4.75697
4.7044
4.58999
4.34535
3.80969
2.68654
0.644504
0.201762
0.369429
0.520369
0.583249
0.612425
0.626525
0.633315
0.636401
0.63771
0.638234
0.63842
0.638461
0.638407
0.638285
0.638093
0.63774
0.63702
0.635479
0.632126
0.625042
0.61062
0.581346
0.517061
0.365483
0.199361
0.042923
0.0770892
0.0720555
0.0681469
0.0662064
0.0652772
0.0648425
0.064648
0.064566
0.0645332
0.0645207
0.0645165
0.0645163
0.0645183
0.0645235
0.0645371
0.0645714
0.0646549
0.0648515
0.0652915
0.066231
0.0681726
0.0721998
0.0773433
0.0422041
0.0352494
0.208112
0.288858
0.296392
0.295997
0.295649
0.29551
0.295453
0.295429
0.29542
0.295416
0.295415
0.295415
0.295415
0.295417
0.295421
0.295432
0.295456
0.295513
0.295652
0.296
0.296386
0.288942
0.208335
0.0351708
0.0322794
0.199088
0.291276
0.302534
0.302801
0.302648
0.302607
0.302599
0.302598
0.302598
0.302598
0.302598
0.302598
0.302598
0.302598
0.302598
0.302598
0.302599
0.302606
0.302644
0.302787
0.302541
0.291706
0.200687
0.0324346
0.0301565
0.190769
0.288743
0.302337
0.302846
0.30268
0.302628
0.302617
0.302616
0.302615
0.302615
0.302615
0.302615
0.302615
0.302615
0.302615
0.302616
0.302617
0.302627
0.302676
0.302839
0.302399
0.289593
0.193294
0.0309739
0.0290581
0.183938
0.286422
0.302062
0.302855
0.302691
0.302631
0.302618
0.302616
0.302615
0.302615
0.302615
0.302615
0.302615
0.302615
0.302615
0.302616
0.302619
0.302635
0.302706
0.302891
0.301975
0.285049
0.180518
0.028541
0.0265133
0.172855
0.281491
0.301369
0.302831
0.302706
0.302636
0.302619
0.302616
0.302615
0.302615
0.302615
0.302615
0.302615
0.302615
0.302615
0.302616
0.30262
0.302638
0.302714
0.302845
0.301285
0.28062
0.170918
0.0259987
0.0262403
0.172508
0.281262
0.301053
0.302708
0.302674
0.30263
0.302618
0.302616
0.302615
0.302615
0.302615
0.302615
0.302615
0.302615
0.302615
0.302616
0.302618
0.302629
0.302671
0.302707
0.301114
0.281789
0.173567
0.0262932
0.0262125
0.174393
0.281117
0.300657
0.302529
0.302624
0.302619
0.302616
0.302615
0.302615
0.302615
0.302615
0.302615
0.302615
0.302615
0.302615
0.302615
0.302616
0.302618
0.302622
0.302518
0.300606
0.280883
0.173986
0.0262401
0.0249387
0.163048
0.273763
0.298916
0.30215
0.302544
0.302602
0.302613
0.302615
0.302615
0.302615
0.302615
0.302615
0.302615
0.302615
0.302615
0.302615
0.302613
0.302604
0.302553
0.302203
0.29927
0.275533
0.166093
0.0253753
0.0242176
0.154144
0.26713
0.297146
0.301762
0.302461
0.302586
0.30261
0.302614
0.302615
0.302615
0.302615
0.302615
0.302615
0.302615
0.302615
0.302614
0.30261
0.302585
0.302459
0.301752
0.297067
0.266706
0.153402
0.0239354
0.0269537
0.165244
0.273077
0.298249
0.301919
0.302489
0.302592
0.302611
0.302615
0.302615
0.302615
0.302615
0.302615
0.302615
0.302615
0.302615
0.302614
0.302611
0.302589
0.302474
0.301845
0.297847
0.271269
0.162123
0.0264263
0.0299131
0.179253
0.280137
0.299691
0.302186
0.302543
0.302603
0.302613
0.302615
0.302615
0.302615
0.302615
0.302615
0.302615
0.302615
0.302615
0.302615
0.302613
0.302602
0.302536
0.302151
0.299523
0.279426
0.178024
0.0298222
0.0329724
0.192558
0.285796
0.300725
0.302366
0.302577
0.302609
0.302614
0.302615
0.302615
0.302615
0.302615
0.302615
0.302615
0.302615
0.302615
0.302615
0.302614
0.302609
0.302578
0.302375
0.300803
0.286368
0.194253
0.0333087
0.0360543
0.205954
0.290395
0.301447
0.302479
0.302596
0.302613
0.302615
0.302615
0.302615
0.302615
0.302615
0.302615
0.302615
0.302615
0.302615
0.302615
0.302615
0.302613
0.302597
0.30248
0.301452
0.290384
0.205788
0.0359534
0.0380499
0.213561
0.292614
0.301763
0.302526
0.302604
0.302614
0.302615
0.302615
0.302615
0.302615
0.302615
0.302615
0.302615
0.302615
0.302615
0.302615
0.302615
0.302614
0.302604
0.302524
0.301744
0.292459
0.212971
0.037981
0.0402685
0.220592
0.294321
0.301968
0.302552
0.302608
0.302614
0.302615
0.302615
0.302615
0.302615
0.302615
0.302615
0.302615
0.302615
0.302615
0.302615
0.302615
0.302614
0.302608
0.302555
0.301995
0.294571
0.221746
0.0404854
0.0426412
0.228539
0.295994
0.302149
0.302573
0.302611
0.302615
0.302615
0.302615
0.302615
0.302615
0.302615
0.302615
0.302615
0.302615
0.302615
0.302615
0.302615
0.302615
0.30261
0.302571
0.302126
0.295757
0.227265
0.0423237
0.0444135
0.23354
0.296942
0.302245
0.302584
0.302612
0.302615
0.302615
0.302615
0.302615
0.302615
0.302615
0.302615
0.302615
0.302615
0.302615
0.302615
0.302615
0.302615
0.302612
0.302583
0.302239
0.296906
0.233413
0.0445119
0.0463748
0.238174
0.297723
0.302315
0.302591
0.302613
0.302615
0.302615
0.302615
0.302615
0.302615
0.302615
0.302615
0.302615
0.302615
0.302615
0.302615
0.302615
0.302615
0.302613
0.302594
0.30234
0.298009
0.239972
0.0467251
0.0487538
0.245051
0.298766
0.302403
0.3026
0.302614
0.302615
0.302615
0.302615
0.302615
0.302615
0.302615
0.302615
0.302615
0.302615
0.302615
0.302615
0.302615
0.302615
0.302614
0.302598
0.302387
0.298545
0.243425
0.0483034
0.0502102
0.248614
0.29926
0.302444
0.302603
0.302614
0.302615
0.302615
0.302615
0.302615
0.302615
0.302615
0.302615
0.302615
0.302615
0.302615
0.302615
0.302615
0.302615
0.302614
0.302603
0.302443
0.299266
0.24872
0.0503765
0.0516768
0.251188
0.299584
0.302467
0.302605
0.302614
0.302615
0.302615
0.302615
0.302615
0.302615
0.302615
0.302615
0.302615
0.302615
0.302615
0.302615
0.302615
0.302615
0.302614
0.302606
0.302477
0.299726
0.252369
0.051898
0.0535546
0.255791
0.300117
0.302504
0.302608
0.302615
0.302615
0.302615
0.302615
0.302615
0.302615
0.302615
0.302615
0.302615
0.302615
0.302615
0.302615
0.302615
0.302615
0.302615
0.302608
0.302497
0.300012
0.254807
0.0532874
0.054719
0.258185
0.300375
0.302521
0.30261
0.302615
0.302615
0.302615
0.302615
0.302615
0.302615
0.302615
0.302615
0.302615
0.302615
0.302615
0.302615
0.302615
0.302615
0.302615
0.30261
0.302523
0.300403
0.258445
0.0548806
0.0558506
0.259688
0.300528
0.30253
0.30261
0.302615
0.302615
0.302615
0.302615
0.302615
0.302615
0.302615
0.302615
0.302615
0.302615
0.302615
0.302615
0.302615
0.302615
0.302615
0.302611
0.302536
0.300613
0.260565
0.0559871
0.0573401
0.262966
0.300839
0.302549
0.302612
0.302615
0.302615
0.302615
0.302615
0.302615
0.302615
0.302615
0.302615
0.302615
0.302615
0.302615
0.302615
0.302615
0.302615
0.302615
0.302611
0.302544
0.300751
0.261987
0.0570895
0.0582775
0.264629
0.300989
0.302557
0.302612
0.302615
0.302615
0.302615
0.302615
0.302615
0.302615
0.302615
0.302615
0.302615
0.302615
0.302615
0.302615
0.302615
0.302615
0.302615
0.302612
0.302558
0.301003
0.264781
0.0583983
0.0591732
0.265583
0.301073
0.302562
0.302612
0.302615
0.302615
0.302615
0.302615
0.302615
0.302615
0.302615
0.302615
0.302615
0.302615
0.302615
0.302615
0.302615
0.302615
0.302615
0.302613
0.302565
0.301134
0.266329
0.0592784
0.0603215
0.267988
0.301271
0.302572
0.302613
0.302615
0.302615
0.302615
0.302615
0.302615
0.302615
0.302615
0.302615
0.302615
0.302615
0.302615
0.302615
0.302615
0.302615
0.302615
0.302613
0.302569
0.301203
0.267131
0.0601206
0.0610468
0.269158
0.301363
0.302577
0.302613
0.302615
0.302615
0.302615
0.302615
0.302615
0.302615
0.302615
0.302615
0.302615
0.302615
0.302615
0.302615
0.302615
0.302615
0.302615
0.302613
0.302577
0.301372
0.269259
0.0611364
0.0617241
0.269723
0.301409
0.302579
0.302614
0.302615
0.302615
0.302615
0.302615
0.302615
0.302615
0.302615
0.302615
0.302615
0.302615
0.302615
0.302615
0.302615
0.302615
0.302615
0.302614
0.302581
0.301457
0.270391
0.0618079
0.0625717
0.271518
0.301541
0.302585
0.302614
0.302615
0.302615
0.302615
0.302615
0.302615
0.302615
0.302615
0.302615
0.302615
0.302615
0.302615
0.302615
0.302615
0.302615
0.302615
0.302614
0.302583
0.301492
0.270816
0.0624297
0.0631038
0.272343
0.3016
0.302588
0.302614
0.302615
0.302615
0.302615
0.302615
0.302615
0.302615
0.302615
0.302615
0.302615
0.302615
0.302615
0.302615
0.302615
0.302615
0.302615
0.302614
0.302588
0.301604
0.272384
0.0631589
0.0635865
0.272639
0.301624
0.302589
0.302614
0.302615
0.302615
0.302615
0.302615
0.302615
0.302615
0.302615
0.302615
0.302615
0.302615
0.302615
0.302615
0.302615
0.302615
0.302615
0.302614
0.302591
0.301662
0.273213
0.0636474
0.0641668
0.273969
0.301715
0.302593
0.302614
0.302615
0.302615
0.302615
0.302615
0.302615
0.302615
0.302615
0.302615
0.302615
0.302615
0.302615
0.302615
0.302615
0.302615
0.302615
0.302614
0.302592
0.301681
0.273448
0.064083
0.0645255
0.274542
0.301754
0.302595
0.302614
0.302615
0.302615
0.302615
0.302615
0.302615
0.302615
0.302615
0.302615
0.302615
0.302615
0.302615
0.302615
0.302615
0.302615
0.302615
0.302615
0.302595
0.301753
0.274516
0.0645504
0.0648396
0.274652
0.301765
0.302596
0.302615
0.302615
0.302615
0.302615
0.302615
0.302615
0.302615
0.302615
0.302615
0.302615
0.302615
0.302615
0.302615
0.302615
0.302615
0.302615
0.302615
0.302597
0.301793
0.275129
0.0648772
0.0651907
0.275619
0.301828
0.302598
0.302615
0.302615
0.302615
0.302615
0.302615
0.302615
0.302615
0.302615
0.302615
0.302615
0.302615
0.302615
0.302615
0.302615
0.302615
0.302615
0.302615
0.302597
0.301805
0.275262
0.0651458
0.0654019
0.275999
0.301852
0.302599
0.302615
0.302615
0.302615
0.302615
0.302615
0.302615
0.302615
0.302615
0.302615
0.302615
0.302615
0.302615
0.302615
0.302615
0.302615
0.302615
0.302615
0.302599
0.301844
0.275868
0.0653972
0.0655906
0.2763
0.301862
0.302599
0.302615
0.302615
0.302615
0.302615
0.302615
0.302615
0.302615
0.302615
0.302615
0.302615
0.302615
0.302615
0.302615
0.302615
0.302615
0.302615
0.302615
0.302599
0.301872
0.276469
0.0656034
0.137349
0.297355
0.302749
0.302773
0.302769
0.302766
0.302763
0.302761
0.302758
0.302756
0.302754
0.302751
0.302749
0.302747
0.302745
0.302743
0.302741
0.302739
0.302737
0.302735
0.302733
0.302731
0.302729
0.302728
0.302726
0.302724
0.302723
0.302712
0.300807
0.154716
0.129778
0.29924
0.302634
0.302624
0.302622
0.302621
0.302621
0.302621
0.302621
0.302621
0.30262
0.30262
0.30262
0.30262
0.30262
0.30262
0.302619
0.302619
0.302619
0.302619
0.302619
0.302619
0.302619
0.302619
0.302619
0.302618
0.302618
0.302607
0.300487
0.15298
0.135862
0.300156
0.302626
0.302616
0.302615
0.302615
0.302615
0.302615
0.302615
0.302615
0.302615
0.302615
0.302615
0.302615
0.302615
0.302615
0.302615
0.302615
0.302615
0.302615
0.302615
0.302615
0.302615
0.302615
0.302615
0.302615
0.302615
0.302604
0.300416
0.151495
0.139192
0.300097
0.30262
0.302616
0.302615
0.302615
0.302615
0.302615
0.302615
0.302615
0.302615
0.302615
0.302615
0.302615
0.302615
0.302615
0.302615
0.302615
0.302615
0.302615
0.302615
0.302615
0.302615
0.302615
0.302615
0.302615
0.302615
0.302603
0.300364
0.150239
0.138925
0.299925
0.302617
0.302616
0.302615
0.302615
0.302615
0.302615
0.302615
0.302615
0.302615
0.302615
0.302615
0.302615
0.302615
0.302615
0.302615
0.302615
0.302615
0.302615
0.302615
0.302615
0.302615
0.302615
0.302615
0.302615
0.302615
0.302603
0.300308
0.149098
0.138575
0.299897
0.302617
0.302616
0.302615
0.302615
0.302615
0.302615
0.302615
0.302615
0.302615
0.302615
0.302615
0.302615
0.302615
0.302615
0.302615
0.302615
0.302615
0.302615
0.302615
0.302615
0.302615
0.302615
0.302615
0.302615
0.302615
0.302603
0.30025
0.148007
0.138547
0.299909
0.302616
0.302616
0.302615
0.302615
0.302615
0.302615
0.302615
0.302615
0.302615
0.302615
0.302615
0.302615
0.302615
0.302615
0.302615
0.302615
0.302615
0.302615
0.302615
0.302615
0.302615
0.302615
0.302615
0.302615
0.302615
0.302602
0.300195
0.146974
0.138881
0.299931
0.302614
0.302616
0.302615
0.302615
0.302615
0.302615
0.302615
0.302615
0.302615
0.302615
0.302615
0.302615
0.302615
0.302615
0.302615
0.302615
0.302615
0.302615
0.302615
0.302615
0.302615
0.302615
0.302615
0.302615
0.302615
0.302602
0.300144
0.146018
0.139216
0.299933
0.302613
0.302616
0.302615
0.302615
0.302615
0.302615
0.302615
0.302615
0.302615
0.302615
0.302615
0.302615
0.302615
0.302615
0.302615
0.302615
0.302615
0.302615
0.302615
0.302615
0.302615
0.302615
0.302615
0.302615
0.302615
0.302601
0.300097
0.14515
0.139411
0.299921
0.302612
0.302616
0.302615
0.302615
0.302615
0.302615
0.302615
0.302615
0.302615
0.302615
0.302615
0.302615
0.302615
0.302615
0.302615
0.302615
0.302615
0.302615
0.302615
0.302615
0.302615
0.302615
0.302615
0.302615
0.302615
0.302601
0.300054
0.144365
0.13945
0.299901
0.30261
0.302616
0.302615
0.302615
0.302615
0.302615
0.302615
0.302615
0.302615
0.302615
0.302615
0.302615
0.302615
0.302615
0.302615
0.302615
0.302615
0.302615
0.302615
0.302615
0.302615
0.302615
0.302615
0.302615
0.302615
0.302601
0.300014
0.143653
0.13939
0.299881
0.302609
0.302615
0.302615
0.302615
0.302615
0.302615
0.302615
0.302615
0.302615
0.302615
0.302615
0.302615
0.302615
0.302615
0.302615
0.302615
0.302615
0.302615
0.302615
0.302615
0.302615
0.302615
0.302615
0.302615
0.302615
0.3026
0.299977
0.143005
0.13931
0.299863
0.302608
0.302615
0.302615
0.302615
0.302615
0.302615
0.302615
0.302615
0.302615
0.302615
0.302615
0.302615
0.302615
0.302615
0.302615
0.302615
0.302615
0.302615
0.302615
0.302615
0.302615
0.302615
0.302615
0.302615
0.302615
0.3026
0.299943
0.142413
0.139188
0.299848
0.302607
0.302615
0.302615
0.302615
0.302615
0.302615
0.302615
0.302615
0.302615
0.302615
0.302615
0.302615
0.302615
0.302615
0.302615
0.302615
0.302615
0.302615
0.302615
0.302615
0.302615
0.302615
0.302615
0.302615
0.302615
0.3026
0.299911
0.141875
0.139154
0.299837
0.302606
0.302615
0.302615
0.302615
0.302615
0.302615
0.302615
0.302615
0.302615
0.302615
0.302615
0.302615
0.302615
0.302615
0.302615
0.302615
0.302615
0.302615
0.302615
0.302615
0.302615
0.302615
0.302615
0.302615
0.302615
0.302599
0.299883
0.141389
0.139044
0.299819
0.302605
0.302615
0.302615
0.302615
0.302615
0.302615
0.302615
0.302615
0.302615
0.302615
0.302615
0.302615
0.302615
0.302615
0.302615
0.302615
0.302615
0.302615
0.302615
0.302615
0.302615
0.302615
0.302615
0.302615
0.302615
0.302599
0.299857
0.140954
0.138972
0.29981
0.302604
0.302615
0.302615
0.302615
0.302615
0.302615
0.302615
0.302615
0.302615
0.302615
0.302615
0.302615
0.302615
0.302615
0.302615
0.302615
0.302615
0.302615
0.302615
0.302615
0.302615
0.302615
0.302615
0.302615
0.302615
0.302599
0.299833
0.140564
0.138933
0.2998
0.302604
0.302615
0.302615
0.302615
0.302615
0.302615
0.302615
0.302615
0.302615
0.302615
0.302615
0.302615
0.302615
0.302615
0.302615
0.302615
0.302615
0.302615
0.302615
0.302615
0.302615
0.302615
0.302615
0.302615
0.302615
0.302599
0.299813
0.140222
0.138861
0.299788
0.302603
0.302615
0.302615
0.302615
0.302615
0.302615
0.302615
0.302615
0.302615
0.302615
0.302615
0.302615
0.302615
0.302615
0.302615
0.302615
0.302615
0.302615
0.302615
0.302615
0.302615
0.302615
0.302615
0.302615
0.302615
0.302599
0.299795
0.139923
0.138836
0.299782
0.302602
0.302615
0.302615
0.302615
0.302615
0.302615
0.302615
0.302615
0.302615
0.302615
0.302615
0.302615
0.302615
0.302615
0.302615
0.302615
0.302615
0.302615
0.302615
0.302615
0.302615
0.302615
0.302615
0.302615
0.302615
0.302598
0.29978
0.139664
0.138819
0.299774
0.302601
0.302615
0.302615
0.302615
0.302615
0.302615
0.302615
0.302615
0.302615
0.302615
0.302615
0.302615
0.302615
0.302615
0.302615
0.302615
0.302615
0.302615
0.302615
0.302615
0.302615
0.302615
0.302615
0.302615
0.302615
0.302598
0.299767
0.139446
0.138797
0.299768
0.302601
0.302615
0.302615
0.302615
0.302615
0.302615
0.302615
0.302615
0.302615
0.302615
0.302615
0.302615
0.302615
0.302615
0.302615
0.302615
0.302615
0.302615
0.302615
0.302615
0.302615
0.302615
0.302615
0.302615
0.302615
0.302598
0.299757
0.139264
0.13882
0.299766
0.3026
0.302615
0.302615
0.302615
0.302615
0.302615
0.302615
0.302615
0.302615
0.302615
0.302615
0.302615
0.302615
0.302615
0.302615
0.302615
0.302615
0.302615
0.302615
0.302615
0.302615
0.302615
0.302615
0.302615
0.302615
0.302598
0.299749
0.139117
0.138839
0.299761
0.3026
0.302615
0.302615
0.302615
0.302615
0.302615
0.302615
0.302615
0.302615
0.302615
0.302615
0.302615
0.302615
0.302615
0.302615
0.302615
0.302615
0.302615
0.302615
0.302615
0.302615
0.302615
0.302615
0.302615
0.302615
0.302598
0.299743
0.139004
0.138852
0.299998
0.302601
0.302615
0.302615
0.302615
0.302615
0.302615
0.302615
0.302615
0.302615
0.302615
0.302615
0.302615
0.302615
0.302615
0.302615
0.302615
0.302615
0.302615
0.302615
0.302615
0.302615
0.302615
0.302615
0.302615
0.302615
0.302598
0.29974
0.138921
0.154715
0.300807
0.302712
0.302723
0.302724
0.302726
0.302728
0.302729
0.302731
0.302733
0.302735
0.302737
0.302739
0.302741
0.302743
0.302745
0.302747
0.302749
0.302751
0.302754
0.302756
0.302758
0.302761
0.302763
0.302766
0.302769
0.302773
0.302749
0.29735
0.137312
0.152979
0.300487
0.302607
0.302618
0.302618
0.302619
0.302619
0.302619
0.302619
0.302619
0.302619
0.302619
0.302619
0.302619
0.30262
0.30262
0.30262
0.30262
0.30262
0.30262
0.302621
0.302621
0.302621
0.302621
0.302621
0.302622
0.302624
0.302634
0.299241
0.129796
0.151493
0.300416
0.302604
0.302615
0.302615
0.302615
0.302615
0.302615
0.302615
0.302615
0.302615
0.302615
0.302615
0.302615
0.302615
0.302615
0.302615
0.302615
0.302615
0.302615
0.302615
0.302615
0.302615
0.302615
0.302615
0.302615
0.302616
0.302626
0.300155
0.13583
0.150239
0.300364
0.302603
0.302615
0.302615
0.302615
0.302615
0.302615
0.302615
0.302615
0.302615
0.302615
0.302615
0.302615
0.302615
0.302615
0.302615
0.302615
0.302615
0.302615
0.302615
0.302615
0.302615
0.302615
0.302615
0.302615
0.302616
0.30262
0.300101
0.139237
0.149098
0.300308
0.302603
0.302615
0.302615
0.302615
0.302615
0.302615
0.302615
0.302615
0.302615
0.302615
0.302615
0.302615
0.302615
0.302615
0.302615
0.302615
0.302615
0.302615
0.302615
0.302615
0.302615
0.302615
0.302615
0.302615
0.302616
0.302617
0.299922
0.138944
0.148006
0.30025
0.302603
0.302615
0.302615
0.302615
0.302615
0.302615
0.302615
0.302615
0.302615
0.302615
0.302615
0.302615
0.302615
0.302615
0.302615
0.302615
0.302615
0.302615
0.302615
0.302615
0.302615
0.302615
0.302615
0.302615
0.302616
0.302617
0.299895
0.138511
0.146974
0.300195
0.302602
0.302615
0.302615
0.302615
0.302615
0.302615
0.302615
0.302615
0.302615
0.302615
0.302615
0.302615
0.302615
0.302615
0.302615
0.302615
0.302615
0.302615
0.302615
0.302615
0.302615
0.302615
0.302615
0.302615
0.302616
0.302616
0.299914
0.138632
0.146019
0.300144
0.302602
0.302615
0.302615
0.302615
0.302615
0.302615
0.302615
0.302615
0.302615
0.302615
0.302615
0.302615
0.302615
0.302615
0.302615
0.302615
0.302615
0.302615
0.302615
0.302615
0.302615
0.302615
0.302615
0.302615
0.302616
0.302614
0.299925
0.138834
0.14515
0.300097
0.302601
0.302615
0.302615
0.302615
0.302615
0.302615
0.302615
0.302615
0.302615
0.302615
0.302615
0.302615
0.302615
0.302615
0.302615
0.302615
0.302615
0.302615
0.302615
0.302615
0.302615
0.302615
0.302615
0.302615
0.302616
0.302613
0.299936
0.139222
0.144366
0.300054
0.302601
0.302615
0.302615
0.302615
0.302615
0.302615
0.302615
0.302615
0.302615
0.302615
0.302615
0.302615
0.302615
0.302615
0.302615
0.302615
0.302615
0.302615
0.302615
0.302615
0.302615
0.302615
0.302615
0.302615
0.302616
0.302612
0.29992
0.139431
0.143652
0.300014
0.302601
0.302615
0.302615
0.302615
0.302615
0.302615
0.302615
0.302615
0.302615
0.302615
0.302615
0.302615
0.302615
0.302615
0.302615
0.302615
0.302615
0.302615
0.302615
0.302615
0.302615
0.302615
0.302615
0.302615
0.302616
0.30261
0.299899
0.139404
0.143004
0.299978
0.3026
0.302615
0.302615
0.302615
0.302615
0.302615
0.302615
0.302615
0.302615
0.302615
0.302615
0.302615
0.302615
0.302615
0.302615
0.302615
0.302615
0.302615
0.302615
0.302615
0.302615
0.302615
0.302615
0.302615
0.302615
0.302609
0.299885
0.139427
0.142414
0.299943
0.3026
0.302615
0.302615
0.302615
0.302615
0.302615
0.302615
0.302615
0.302615
0.302615
0.302615
0.302615
0.302615
0.302615
0.302615
0.302615
0.302615
0.302615
0.302615
0.302615
0.302615
0.302615
0.302615
0.302615
0.302615
0.302608
0.299861
0.139304
0.141875
0.299911
0.3026
0.302615
0.302615
0.302615
0.302615
0.302615
0.302615
0.302615
0.302615
0.302615
0.302615
0.302615
0.302615
0.302615
0.302615
0.302615
0.302615
0.302615
0.302615
0.302615
0.302615
0.302615
0.302615
0.302615
0.302615
0.302607
0.299848
0.139184
0.141389
0.299883
0.302599
0.302615
0.302615
0.302615
0.302615
0.302615
0.302615
0.302615
0.302615
0.302615
0.302615
0.302615
0.302615
0.302615
0.302615
0.302615
0.302615
0.302615
0.302615
0.302615
0.302615
0.302615
0.302615
0.302615
0.302615
0.302606
0.299838
0.139151
0.140954
0.299857
0.302599
0.302615
0.302615
0.302615
0.302615
0.302615
0.302615
0.302615
0.302615
0.302615
0.302615
0.302615
0.302615
0.302615
0.302615
0.302615
0.302615
0.302615
0.302615
0.302615
0.302615
0.302615
0.302615
0.302615
0.302615
0.302605
0.29982
0.139056
0.140565
0.299833
0.302599
0.302615
0.302615
0.302615
0.302615
0.302615
0.302615
0.302615
0.302615
0.302615
0.302615
0.302615
0.302615
0.302615
0.302615
0.302615
0.302615
0.302615
0.302615
0.302615
0.302615
0.302615
0.302615
0.302615
0.302615
0.302604
0.299809
0.138962
0.140221
0.299813
0.302599
0.302615
0.302615
0.302615
0.302615
0.302615
0.302615
0.302615
0.302615
0.302615
0.302615
0.302615
0.302615
0.302615
0.302615
0.302615
0.302615
0.302615
0.302615
0.302615
0.302615
0.302615
0.302615
0.302615
0.302615
0.302604
0.299801
0.13893
0.139923
0.299795
0.302599
0.302615
0.302615
0.302615
0.302615
0.302615
0.302615
0.302615
0.302615
0.302615
0.302615
0.302615
0.302615
0.302615
0.302615
0.302615
0.302615
0.302615
0.302615
0.302615
0.302615
0.302615
0.302615
0.302615
0.302615
0.302603
0.299788
0.138876
0.139664
0.29978
0.302598
0.302615
0.302615
0.302615
0.302615
0.302615
0.302615
0.302615
0.302615
0.302615
0.302615
0.302615
0.302615
0.302615
0.302615
0.302615
0.302615
0.302615
0.302615
0.302615
0.302615
0.302615
0.302615
0.302615
0.302615
0.302602
0.29978
0.138824
0.139445
0.299767
0.302598
0.302615
0.302615
0.302615
0.302615
0.302615
0.302615
0.302615
0.302615
0.302615
0.302615
0.302615
0.302615
0.302615
0.302615
0.302615
0.302615
0.302615
0.302615
0.302615
0.302615
0.302615
0.302615
0.302615
0.302615
0.302601
0.299776
0.138817
0.139264
0.299757
0.302598
0.302615
0.302615
0.302615
0.302615
0.302615
0.302615
0.302615
0.302615
0.302615
0.302615
0.302615
0.302615
0.302615
0.302615
0.302615
0.302615
0.302615
0.302615
0.302615
0.302615
0.302615
0.302615
0.302615
0.302615
0.302601
0.299768
0.138811
0.139118
0.299749
0.302598
0.302615
0.302615
0.302615
0.302615
0.302615
0.302615
0.302615
0.302615
0.302615
0.302615
0.302615
0.302615
0.302615
0.302615
0.302615
0.302615
0.302615
0.302615
0.302615
0.302615
0.302615
0.302615
0.302615
0.302615
0.3026
0.299764
0.138808
0.139004
0.299743
0.302598
0.302615
0.302615
0.302615
0.302615
0.302615
0.302615
0.302615
0.302615
0.302615
0.302615
0.302615
0.302615
0.302615
0.302615
0.302615
0.302615
0.302615
0.302615
0.302615
0.302615
0.302615
0.302615
0.302615
0.302615
0.3026
0.299763
0.138839
0.138921
0.29974
0.302598
0.302615
0.302615
0.302615
0.302615
0.302615
0.302615
0.302615
0.302615
0.302615
0.302615
0.302615
0.302615
0.302615
0.302615
0.302615
0.302615
0.302615
0.302615
0.302615
0.302615
0.302615
0.302615
0.302615
0.302615
0.302601
0.299997
0.138854
0.112842
0.113052
0.113262
0.113472
0.113682
0.113892
0.114103
0.114313
0.114523
0.114733
0.114943
0.115153
0.115363
0.115574
0.115784
0.115994
0.116204
0.116414
0.116624
0.116835
0.117045
0.117255
0.117465
0.117675
0.117885
0.118096
0.118306
0.118516
0.118726
0.118936
0.119146
0.119357
0.119567
0.119777
0.119987
0.120197
0.120407
0.120618
0.120828
0.121038
0.121248
0.121458
0.121669
0.121879
0.122089
0.122299
0.122509
0.12272
0.12293
0.12314
0.12335
0.12356
0.12377
0.123981
0.124191
0.124401
0.124611
0.124821
0.125032
0.125242
0.125452
0.125662
0.125872
0.126083
0.126293
0.126503
0.126713
0.126923
0.127134
0.127344
0.127554
0.127764
0.127974
0.128185
0.128395
0.128605
0.128815
0.129026
0.129236
0.129446
0.129656
0.129866
0.130077
0.130287
0.130497
0.130707
0.130917
0.131128
0.131338
0.131548
0.131758
0.131969
0.132179
0.132389
0.132599
0.132809
0.13302
0.13323
0.13344
0.13365
0.133861
0.134071
0.134281
0.134491
0.134701
0.134912
0.135122
0.135332
0.135542
0.135753
0.135963
0.136173
0.136383
0.136594
0.136804
0.137014
0.137224
0.137435
0.137645
0.137855
0.138065
0.138275
0.138486
0.138696
0.138906
0.296949
0.296993
0.297026
0.297058
0.29709
0.297121
0.297153
0.297184
0.297215
0.297245
0.297276
0.297306
0.297336
0.297366
0.297396
0.297426
0.297455
0.297484
0.297513
0.297542
0.29757
0.297598
0.297627
0.297654
0.297682
0.29771
0.297737
0.297764
0.297791
0.297818
0.297845
0.297871
0.297898
0.297924
0.29795
0.297976
0.298001
0.298027
0.298052
0.298077
0.298102
0.298127
0.298152
0.298176
0.298201
0.298225
0.298249
0.298273
0.298296
0.29832
0.298343
0.298366
0.29839
0.298412
0.298435
0.298458
0.29848
0.298503
0.298525
0.298547
0.298569
0.298591
0.298612
0.298634
0.298655
0.298677
0.298698
0.298719
0.29874
0.29876
0.298781
0.298801
0.298822
0.298842
0.298862
0.298882
0.298902
0.298921
0.298941
0.298961
0.29898
0.298999
0.299018
0.299037
0.299056
0.299075
0.299093
0.299112
0.29913
0.299149
0.299167
0.299185
0.299203
0.299221
0.299238
0.299256
0.299274
0.299291
0.299308
0.299326
0.299343
0.29936
0.299377
0.299393
0.29941
0.299427
0.299443
0.299459
0.299476
0.299492
0.299508
0.299524
0.29954
0.299556
0.299572
0.299587
0.299603
0.299618
0.299634
0.299649
0.299664
0.299679
0.299694
0.299709
0.299727
0.302563
0.302564
0.302565
0.302565
0.302565
0.302566
0.302566
0.302567
0.302567
0.302568
0.302568
0.302569
0.302569
0.30257
0.30257
0.30257
0.302571
0.302571
0.302572
0.302572
0.302572
0.302573
0.302573
0.302574
0.302574
0.302574
0.302575
0.302575
0.302575
0.302576
0.302576
0.302577
0.302577
0.302577
0.302578
0.302578
0.302578
0.302579
0.302579
0.302579
0.30258
0.30258
0.30258
0.302581
0.302581
0.302581
0.302581
0.302582
0.302582
0.302582
0.302583
0.302583
0.302583
0.302583
0.302584
0.302584
0.302584
0.302585
0.302585
0.302585
0.302585
0.302586
0.302586
0.302586
0.302586
0.302587
0.302587
0.302587
0.302587
0.302588
0.302588
0.302588
0.302588
0.302589
0.302589
0.302589
0.302589
0.302589
0.30259
0.30259
0.30259
0.30259
0.302591
0.302591
0.302591
0.302591
0.302591
0.302592
0.302592
0.302592
0.302592
0.302592
0.302593
0.302593
0.302593
0.302593
0.302593
0.302594
0.302594
0.302594
0.302594
0.302594
0.302594
0.302595
0.302595
0.302595
0.302595
0.302595
0.302595
0.302596
0.302596
0.302596
0.302596
0.302596
0.302596
0.302597
0.302597
0.302597
0.302597
0.302597
0.302597
0.302597
0.302598
0.302598
0.302598
0.302615
0.302615
0.302615
0.302615
0.302615
0.302615
0.302615
0.302615
0.302615
0.302615
0.302615
0.302615
0.302615
0.302615
0.302615
0.302615
0.302615
0.302615
0.302615
0.302615
0.302615
0.302615
0.302615
0.302615
0.302615
0.302615
0.302615
0.302615
0.302615
0.302615
0.302615
0.302615
0.302615
0.302615
0.302615
0.302615
0.302615
0.302615
0.302615
0.302615
0.302615
0.302615
0.302615
0.302615
0.302615
0.302615
0.302615
0.302615
0.302615
0.302615
0.302615
0.302615
0.302615
0.302615
0.302615
0.302615
0.302615
0.302615
0.302615
0.302615
0.302615
0.302615
0.302615
0.302615
0.302615
0.302615
0.302615
0.302615
0.302615
0.302615
0.302615
0.302615
0.302615
0.302615
0.302615
0.302615
0.302615
0.302615
0.302615
0.302615
0.302615
0.302615
0.302615
0.302615
0.302615
0.302615
0.302615
0.302615
0.302615
0.302615
0.302615
0.302615
0.302615
0.302615
0.302615
0.302615
0.302615
0.302615
0.302615
0.302615
0.302615
0.302615
0.302615
0.302615
0.302615
0.302615
0.302615
0.302615
0.302615
0.302615
0.302615
0.302615
0.302615
0.302615
0.302615
0.302615
0.302615
0.302615
0.302615
0.302615
0.302615
0.302615
0.302615
0.302615
0.302615
0.302615
0.302615
0.302615
0.302615
0.302615
0.302615
0.302615
0.302615
0.302615
0.302615
0.302615
0.302615
0.302615