/*--------------------------------*- C++ -*----------------------------------*\
| =========                 |                                                 |
| \\      /  F ield         | OpenFOAM: The Open Source CFD Toolbox           |
|  \\    /   O peration     | Version:  2112                                  |
|   \\  /    A nd           | Website:  www.openfoam.com                      |
|    \\/     M anipulation  |                                                 |
\*---------------------------------------------------------------------------*/
FoamFile
{
    version     2.0;
    format      ascii;
    arch        "LSB;label=32;scalar=64";
    class       volScalarField;
    location    "9e-05";
    object      epsilon;
}
// * * * * * * * * * * * * * * * * * * * * * * * * * * * * * * * * * * * * * //

dimensions      [0 2 -3 0 0 0 0];

internalField   nonuniform List<scalar> 
13875
(
9.68735e+07
1.13301e+09
1.70495e+09
2.08965e+09
2.31604e+09
2.45385e+09
2.52818e+09
2.56715e+09
2.58562e+09
2.5936e+09
2.59675e+09
2.5979e+09
2.59819e+09
2.5979e+09
2.59681e+09
2.59387e+09
2.58596e+09
2.56741e+09
2.52852e+09
2.45447e+09
2.31678e+09
2.09117e+09
1.70781e+09
1.14026e+09
9.67664e+07
6.19881e+08
1.57441e+09
2.16398e+09
2.61665e+09
2.90753e+09
3.08411e+09
3.18014e+09
3.22903e+09
3.25182e+09
3.26154e+09
3.26532e+09
3.26667e+09
3.26699e+09
3.26667e+09
3.26543e+09
3.26191e+09
3.25235e+09
3.22954e+09
3.18078e+09
3.08507e+09
2.9089e+09
2.61877e+09
2.16739e+09
1.58064e+09
6.29732e+08
1.46075e+09
2.01224e+09
2.60489e+09
3.08026e+09
3.3978e+09
3.59058e+09
3.69564e+09
3.74846e+09
3.7728e+09
3.78308e+09
3.78703e+09
3.78841e+09
3.78873e+09
3.78839e+09
3.78711e+09
3.78337e+09
3.77323e+09
3.74888e+09
3.69605e+09
3.59098e+09
3.39811e+09
3.08046e+09
2.60467e+09
2.01054e+09
1.44803e+09
2.15428e+09
2.32046e+09
2.86037e+09
3.31217e+09
3.61977e+09
3.80704e+09
3.90942e+09
3.96067e+09
3.98419e+09
3.99406e+09
3.99783e+09
3.99913e+09
3.99941e+09
3.99909e+09
3.99785e+09
3.99424e+09
3.98449e+09
3.96098e+09
3.90967e+09
3.80713e+09
3.61952e+09
3.31145e+09
2.8579e+09
2.31278e+09
2.12712e+09
2.02905e+09
2.15578e+09
2.57574e+09
2.94424e+09
3.18466e+09
3.32875e+09
3.40688e+09
3.44542e+09
3.46288e+09
3.47013e+09
3.47286e+09
3.47377e+09
3.47395e+09
3.47371e+09
3.47279e+09
3.47011e+09
3.46294e+09
3.44553e+09
3.407e+09
3.32882e+09
3.18478e+09
2.94396e+09
2.57432e+09
2.15206e+09
1.99961e+09
1.67386e+09
1.81146e+09
2.18176e+09
2.49723e+09
2.70145e+09
2.81891e+09
2.88106e+09
2.91127e+09
2.92462e+09
2.93004e+09
2.93204e+09
2.93268e+09
2.93279e+09
2.93261e+09
2.93194e+09
2.92997e+09
2.92462e+09
2.91136e+09
2.88127e+09
2.8193e+09
2.70254e+09
2.4991e+09
2.18297e+09
1.80937e+09
1.65513e+09
1.03307e+09
1.28605e+09
1.5698e+09
1.79729e+09
1.94038e+09
2.02138e+09
2.06263e+09
2.08191e+09
2.09022e+09
2.09349e+09
2.09466e+09
2.09502e+09
2.09508e+09
2.09497e+09
2.09456e+09
2.09338e+09
2.09009e+09
2.08168e+09
2.06214e+09
2.02029e+09
1.9388e+09
1.79442e+09
1.5659e+09
1.27943e+09
1.02719e+09
5.37136e+08
8.86108e+08
1.12107e+09
1.28727e+09
1.3869e+09
1.44226e+09
1.46943e+09
1.48158e+09
1.48659e+09
1.48849e+09
1.48915e+09
1.48935e+09
1.48937e+09
1.4893e+09
1.48906e+09
1.48838e+09
1.48647e+09
1.48143e+09
1.46919e+09
1.44177e+09
1.38629e+09
1.28616e+09
1.11952e+09
8.83125e+08
5.31417e+08
1.68542e+08
4.6157e+08
6.02374e+08
6.97408e+08
7.50984e+08
7.79328e+08
7.92789e+08
7.98678e+08
8.01065e+08
8.01968e+08
8.02284e+08
8.02378e+08
8.02385e+08
8.02341e+08
8.02216e+08
8.01876e+08
8.00947e+08
7.98533e+08
7.92598e+08
7.79016e+08
7.50542e+08
6.96755e+08
6.01115e+08
4.59421e+08
1.66218e+08
1.62468e+07
9.31848e+07
1.25761e+08
1.45253e+08
1.56049e+08
1.61747e+08
1.64509e+08
1.6574e+08
1.66246e+08
1.6644e+08
1.66506e+08
1.66521e+08
1.66508e+08
1.66476e+08
1.66423e+08
1.66316e+08
1.66076e+08
1.65516e+08
1.64224e+08
1.61389e+08
1.55618e+08
1.44792e+08
1.24995e+08
9.21486e+07
1.56318e+07
1.69114e+06
1.65241e+06
2.14561e+06
2.43661e+06
2.60449e+06
2.69456e+06
2.74053e+06
2.76242e+06
2.77214e+06
2.77625e+06
2.77792e+06
2.77857e+06
2.7787e+06
2.77853e+06
2.77792e+06
2.77623e+06
2.77206e+06
2.76227e+06
2.74023e+06
2.69377e+06
2.60278e+06
2.43618e+06
2.1369e+06
1.6401e+06
1.70448e+06
1.70199e+06
370956
270791
261844
261352
261451
261542
261591
261614
261624
261628
261629
261629
261629
261627
261623
261613
261590
261540
261448
261343
261826
270661
370406
1.70453e+06
1.80898e+06
385452
267922
255672
254412
254239
254211
254206
254206
254206
254206
254205
254205
254205
254205
254205
254206
254206
254210
254236
254397
255585
267356
382199
1.80193e+06
1.89132e+06
400576
270355
255979
254439
254224
254186
254180
254179
254179
254179
254179
254179
254179
254179
254179
254179
254180
254186
254221
254424
255872
269505
395715
1.85683e+06
1.93181e+06
413776
272398
256263
254483
254233
254188
254180
254179
254178
254178
254178
254178
254178
254178
254178
254179
254181
254191
254245
254535
256540
274011
421669
1.95669e+06
2.04158e+06
436676
276557
256833
254559
254248
254192
254181
254179
254178
254178
254178
254178
254178
254178
254179
254179
254181
254194
254255
254590
257012
277633
441658
2.06938e+06
2.03614e+06
434434
275340
256515
254474
254228
254188
254180
254179
254178
254178
254178
254178
254178
254178
254178
254179
254180
254187
254226
254462
256432
274834
431877
2.03335e+06
2.01304e+06
426727
273220
256033
254346
254197
254181
254179
254179
254178
254178
254178
254178
254178
254178
254178
254179
254179
254181
254196
254339
256008
273172
427097
2.00677e+06
2.03156e+06
447889
276867
256196
254236
254156
254172
254177
254178
254178
254178
254178
254178
254178
254178
254178
254178
254177
254172
254158
254223
255992
275380
440809
2.0116e+06
2.03905e+06
465305
281036
256569
254164
254119
254162
254175
254178
254178
254178
254178
254178
254178
254178
254178
254178
254175
254162
254119
254169
256626
281462
467549
2.05531e+06
1.88943e+06
435128
274962
255662
254087
254122
254165
254176
254178
254178
254178
254178
254178
254178
254178
254178
254178
254176
254164
254116
254088
255846
276459
442262
1.91273e+06
1.75988e+06
404827
269179
255013
254096
254144
254171
254177
254178
254178
254178
254178
254178
254178
254178
254178
254178
254177
254171
254141
254089
255053
269628
406933
1.76205e+06
1.64924e+06
380601
265097
254661
254121
254160
254175
254178
254178
254178
254178
254178
254178
254178
254178
254178
254178
254178
254175
254160
254121
254626
264657
377641
1.63783e+06
1.55292e+06
359133
261950
254451
254143
254169
254177
254178
254178
254178
254178
254178
254178
254178
254178
254178
254178
254178
254177
254169
254144
254453
261972
359455
1.55641e+06
1.49672e+06
348039
260499
254374
254155
254173
254178
254178
254178
254178
254178
254178
254178
254178
254178
254178
254178
254178
254178
254173
254154
254380
260606
348877
1.4985e+06
1.43759e+06
338202
259366
254319
254161
254175
254178
254178
254178
254178
254178
254178
254178
254178
254178
254178
254178
254178
254178
254175
254162
254311
259194
336641
1.43199e+06
1.38e+06
327781
258273
254273
254166
254176
254178
254178
254178
254178
254178
254178
254178
254178
254178
254178
254178
254178
254178
254176
254166
254279
258430
329415
1.38745e+06
1.3401e+06
321558
257670
254251
254169
254177
254178
254178
254178
254178
254178
254178
254178
254178
254178
254178
254178
254178
254178
254177
254169
254252
257691
321680
1.33779e+06
1.29869e+06
315967
257181
254235
254171
254177
254178
254178
254178
254178
254178
254178
254178
254178
254178
254178
254178
254178
254178
254177
254172
254230
257000
313886
1.29189e+06
1.25284e+06
308113
256541
254218
254173
254178
254178
254178
254178
254178
254178
254178
254178
254178
254178
254178
254178
254178
254178
254178
254173
254222
256681
309959
1.26135e+06
1.22639e+06
304220
256243
254211
254175
254178
254178
254178
254178
254178
254178
254178
254178
254178
254178
254178
254178
254178
254178
254178
254175
254211
256238
304077
1.22317e+06
1.20052e+06
301428
256050
254207
254175
254178
254178
254178
254178
254178
254178
254178
254178
254178
254178
254178
254178
254178
254178
254178
254176
254205
255963
300183
1.19699e+06
1.16948e+06
296593
255730
254200
254176
254178
254178
254178
254178
254178
254178
254178
254178
254178
254178
254178
254178
254178
254178
254178
254176
254202
255796
297623
1.17385e+06
1.15108e+06
294149
255577
254197
254177
254178
254178
254178
254178
254178
254178
254178
254178
254178
254178
254178
254178
254178
254178
254178
254177
254197
255564
293886
1.14863e+06
1.13354e+06
292623
255489
254196
254177
254178
254178
254178
254178
254178
254178
254178
254178
254178
254178
254178
254178
254178
254178
254178
254177
254195
255436
291747
1.1316e+06
1.11153e+06
289357
255304
254193
254177
254178
254178
254178
254178
254178
254178
254178
254178
254178
254178
254178
254178
254178
254178
254178
254177
254194
255358
290325
1.11511e+06
1.09825e+06
287735
255217
254192
254177
254178
254178
254178
254178
254178
254178
254178
254178
254178
254178
254178
254178
254178
254178
254178
254177
254192
255211
287588
1.09653e+06
1.08573e+06
286813
255171
254191
254178
254178
254178
254178
254178
254178
254178
254178
254178
254178
254178
254178
254178
254178
254178
254178
254178
254191
255133
286090
1.08436e+06
1.07029e+06
284508
255056
254190
254178
254178
254178
254178
254178
254178
254178
254178
254178
254178
254178
254178
254178
254178
254178
254178
254178
254190
255096
285325
1.07291e+06
1.06087e+06
283403
255004
254189
254178
254178
254178
254178
254178
254178
254178
254178
254178
254178
254178
254178
254178
254178
254178
254178
254178
254189
255001
283310
1.05968e+06
1.05216e+06
282879
254981
254189
254178
254178
254178
254178
254178
254178
254178
254178
254178
254178
254178
254178
254178
254178
254178
254178
254178
254188
254951
282248
1.05116e+06
1.04159e+06
281207
254906
254188
254178
254178
254178
254178
254178
254178
254178
254178
254178
254178
254178
254178
254178
254178
254178
254178
254178
254188
254935
281861
1.04333e+06
1.03519e+06
280446
254873
254188
254178
254178
254178
254178
254178
254178
254178
254178
254178
254178
254178
254178
254178
254178
254178
254178
254178
254188
254873
280414
1.03448e+06
1.02941e+06
280186
254864
254188
254178
254178
254178
254178
254178
254178
254178
254178
254178
254178
254178
254178
254178
254178
254178
254178
254178
254188
254841
279653
1.02875e+06
1.02264e+06
278973
254814
254187
254178
254178
254178
254178
254178
254178
254178
254178
254178
254178
254178
254178
254178
254178
254178
254178
254178
254188
254834
279450
1.02361e+06
1.01864e+06
278455
254794
254187
254178
254178
254178
254178
254178
254178
254178
254178
254178
254178
254178
254178
254178
254178
254178
254178
254178
254187
254796
278485
1.0183e+06
1.01514e+06
278371
254792
254187
254178
254178
254178
254178
254178
254178
254178
254178
254178
254178
254178
254178
254178
254178
254178
254178
254178
254187
254775
277933
1.01476e+06
1.01135e+06
277504
254759
254187
254178
254178
254178
254178
254178
254178
254178
254178
254178
254178
254178
254178
254178
254178
254178
254178
254178
254187
254771
277823
1.01177e+06
1.00922e+06
277150
254747
254187
254178
254178
254178
254178
254178
254178
254178
254178
254178
254178
254178
254178
254178
254178
254178
254178
254178
254187
254751
277269
1.0091e+06
1.00843e+06
276772
254734
254187
254178
254178
254178
254178
254178
254178
254178
254178
254178
254178
254178
254178
254178
254178
254178
254178
254178
254186
254728
276616
1.00837e+06
543733
259662
254838
254755
254745
254736
254728
254719
254711
254703
254696
254688
254681
254674
254667
254660
254653
254647
254640
254634
254628
254622
254616
254611
254605
254600
254594
254596
256102
478730
571213
257374
254244
254193
254191
254191
254191
254190
254190
254190
254189
254189
254189
254188
254188
254188
254188
254187
254187
254187
254187
254186
254186
254186
254186
254186
254185
254194
255889
481993
547267
256493
254216
254179
254179
254179
254179
254179
254179
254179
254179
254179
254179
254179
254179
254179
254179
254179
254179
254179
254179
254179
254179
254179
254179
254179
254179
254187
255941
486276
533789
256484
254211
254179
254178
254178
254178
254178
254178
254178
254178
254178
254178
254178
254178
254178
254178
254178
254178
254178
254178
254178
254178
254178
254178
254178
254178
254188
255983
489984
534092
256613
254211
254179
254178
254178
254178
254178
254178
254178
254178
254178
254178
254178
254178
254178
254178
254178
254178
254178
254178
254178
254178
254178
254178
254178
254178
254188
256028
493405
534930
256624
254210
254179
254178
254178
254178
254178
254178
254178
254178
254178
254178
254178
254178
254178
254178
254178
254178
254178
254178
254178
254178
254178
254178
254178
254178
254188
256074
496720
534555
256592
254208
254179
254178
254178
254178
254178
254178
254178
254178
254178
254178
254178
254178
254178
254178
254178
254178
254178
254178
254178
254178
254178
254178
254178
254178
254189
256119
499899
532798
256548
254206
254179
254178
254178
254178
254178
254178
254178
254178
254178
254178
254178
254178
254178
254178
254178
254178
254178
254178
254178
254178
254178
254178
254178
254178
254189
256161
502877
531018
256523
254204
254179
254178
254178
254178
254178
254178
254178
254178
254178
254178
254178
254178
254178
254178
254178
254178
254178
254178
254178
254178
254178
254178
254178
254178
254189
256198
505614
529778
256513
254203
254179
254178
254178
254178
254178
254178
254178
254178
254178
254178
254178
254178
254178
254178
254178
254178
254178
254178
254178
254178
254178
254178
254178
254178
254190
256233
508114
529160
256512
254201
254179
254178
254178
254178
254178
254178
254178
254178
254178
254178
254178
254178
254178
254178
254178
254178
254178
254178
254178
254178
254178
254178
254178
254178
254190
256265
510401
528941
256513
254201
254179
254178
254178
254178
254178
254178
254178
254178
254178
254178
254178
254178
254178
254178
254178
254178
254178
254178
254178
254178
254178
254178
254178
254178
254190
256295
512504
528828
256514
254200
254179
254178
254178
254178
254178
254178
254178
254178
254178
254178
254178
254178
254178
254178
254178
254178
254178
254178
254178
254178
254178
254178
254178
254178
254190
256323
514436
528885
256513
254199
254179
254178
254178
254178
254178
254178
254178
254178
254178
254178
254178
254178
254178
254178
254178
254178
254178
254178
254178
254178
254178
254178
254178
254178
254191
256348
516209
528625
256510
254198
254179
254178
254178
254178
254178
254178
254178
254178
254178
254178
254178
254178
254178
254178
254178
254178
254178
254178
254178
254178
254178
254178
254178
254178
254191
256371
517818
528674
256512
254197
254179
254178
254178
254178
254178
254178
254178
254178
254178
254178
254178
254178
254178
254178
254178
254178
254178
254178
254178
254178
254178
254178
254178
254178
254191
256392
519269
528592
256509
254197
254179
254178
254178
254178
254178
254178
254178
254178
254178
254178
254178
254178
254178
254178
254178
254178
254178
254178
254178
254178
254178
254178
254178
254178
254191
256411
520574
528404
256507
254196
254179
254178
254178
254178
254178
254178
254178
254178
254178
254178
254178
254178
254178
254178
254178
254178
254178
254178
254178
254178
254178
254178
254178
254178
254191
256428
521726
528358
256507
254196
254179
254178
254178
254178
254178
254178
254178
254178
254178
254178
254178
254178
254178
254178
254178
254178
254178
254178
254178
254178
254178
254178
254178
254178
254192
256442
522738
528154
256502
254195
254179
254178
254178
254178
254178
254178
254178
254178
254178
254178
254178
254178
254178
254178
254178
254178
254178
254178
254178
254178
254178
254178
254178
254178
254192
256454
523615
527937
256501
254195
254179
254178
254178
254178
254178
254178
254178
254178
254178
254178
254178
254178
254178
254178
254178
254178
254178
254178
254178
254178
254178
254178
254178
254178
254192
256465
524358
527765
256497
254194
254179
254178
254178
254178
254178
254178
254178
254178
254178
254178
254178
254178
254178
254178
254178
254178
254178
254178
254178
254178
254178
254178
254178
254178
254192
256473
524979
527429
256492
254194
254179
254178
254178
254178
254178
254178
254178
254178
254178
254178
254178
254178
254178
254178
254178
254178
254178
254178
254178
254178
254178
254178
254178
254178
254192
256480
525480
527125
256484
254193
254179
254178
254178
254178
254178
254178
254178
254178
254178
254178
254178
254178
254178
254178
254178
254178
254178
254178
254178
254178
254178
254178
254178
254178
254192
256484
525866
526913
256255
254189
254178
254178
254178
254178
254178
254178
254178
254178
254178
254178
254178
254178
254178
254178
254178
254178
254178
254178
254178
254178
254178
254178
254178
254178
254192
256487
526151
478732
256102
254596
254594
254600
254605
254611
254616
254622
254628
254634
254640
254647
254653
254660
254667
254674
254681
254688
254696
254704
254711
254720
254728
254736
254745
254756
254838
259667
543875
481995
255889
254194
254185
254186
254186
254186
254186
254186
254187
254187
254187
254187
254188
254188
254188
254188
254189
254189
254189
254190
254190
254190
254191
254191
254191
254193
254243
257373
571141
486282
255941
254187
254179
254179
254179
254179
254179
254179
254179
254179
254179
254179
254179
254179
254179
254179
254179
254179
254179
254179
254179
254179
254179
254179
254179
254179
254216
256493
547385
489986
255983
254188
254178
254178
254178
254178
254178
254178
254178
254178
254178
254178
254178
254178
254178
254178
254178
254178
254178
254178
254178
254178
254178
254178
254178
254179
254211
256480
533622
493403
256028
254188
254178
254178
254178
254178
254178
254178
254178
254178
254178
254178
254178
254178
254178
254178
254178
254178
254178
254178
254178
254178
254178
254178
254178
254179
254211
256616
534025
496723
256075
254188
254178
254178
254178
254178
254178
254178
254178
254178
254178
254178
254178
254178
254178
254178
254178
254178
254178
254178
254178
254178
254178
254178
254178
254179
254210
256625
535164
499897
256119
254189
254178
254178
254178
254178
254178
254178
254178
254178
254178
254178
254178
254178
254178
254178
254178
254178
254178
254178
254178
254178
254178
254178
254178
254179
254208
256587
534243
502874
256161
254189
254178
254178
254178
254178
254178
254178
254178
254178
254178
254178
254178
254178
254178
254178
254178
254178
254178
254178
254178
254178
254178
254178
254178
254179
254206
256553
532968
505614
256198
254189
254178
254178
254178
254178
254178
254178
254178
254178
254178
254178
254178
254178
254178
254178
254178
254178
254178
254178
254178
254178
254178
254178
254178
254179
254204
256520
530996
508111
256233
254190
254178
254178
254178
254178
254178
254178
254178
254178
254178
254178
254178
254178
254178
254178
254178
254178
254178
254178
254178
254178
254178
254178
254178
254179
254203
256513
529706
510403
256265
254190
254178
254178
254178
254178
254178
254178
254178
254178
254178
254178
254178
254178
254178
254178
254178
254178
254178
254178
254178
254178
254178
254178
254178
254179
254202
256514
529329
512505
256295
254190
254178
254178
254178
254178
254178
254178
254178
254178
254178
254178
254178
254178
254178
254178
254178
254178
254178
254178
254178
254178
254178
254178
254178
254179
254200
256510
528803
514434
256323
254190
254178
254178
254178
254178
254178
254178
254178
254178
254178
254178
254178
254178
254178
254178
254178
254178
254178
254178
254178
254178
254178
254178
254178
254179
254200
256516
528849
516209
256348
254191
254178
254178
254178
254178
254178
254178
254178
254178
254178
254178
254178
254178
254178
254178
254178
254178
254178
254178
254178
254178
254178
254178
254178
254179
254199
256514
528903
517819
256371
254191
254178
254178
254178
254178
254178
254178
254178
254178
254178
254178
254178
254178
254178
254178
254178
254178
254178
254178
254178
254178
254178
254178
254178
254179
254198
256509
528638
519268
256392
254191
254178
254178
254178
254178
254178
254178
254178
254178
254178
254178
254178
254178
254178
254178
254178
254178
254178
254178
254178
254178
254178
254178
254178
254179
254197
256512
528628
520573
256411
254191
254178
254178
254178
254178
254178
254178
254178
254178
254178
254178
254178
254178
254178
254178
254178
254178
254178
254178
254178
254178
254178
254178
254178
254179
254197
256510
528634
521728
256428
254191
254178
254178
254178
254178
254178
254178
254178
254178
254178
254178
254178
254178
254178
254178
254178
254178
254178
254178
254178
254178
254178
254178
254178
254179
254196
256506
528414
522737
256442
254192
254178
254178
254178
254178
254178
254178
254178
254178
254178
254178
254178
254178
254178
254178
254178
254178
254178
254178
254178
254178
254178
254178
254178
254179
254196
256507
528299
523614
256455
254192
254178
254178
254178
254178
254178
254178
254178
254178
254178
254178
254178
254178
254178
254178
254178
254178
254178
254178
254178
254178
254178
254178
254178
254179
254195
256504
528203
524360
256465
254192
254178
254178
254178
254178
254178
254178
254178
254178
254178
254178
254178
254178
254178
254178
254178
254178
254178
254178
254178
254178
254178
254178
254178
254179
254194
256499
527945
524977
256473
254192
254178
254178
254178
254178
254178
254178
254178
254178
254178
254178
254178
254178
254178
254178
254178
254178
254178
254178
254178
254178
254178
254178
254178
254179
254194
256497
527705
525478
256480
254192
254178
254178
254178
254178
254178
254178
254178
254178
254178
254178
254178
254178
254178
254178
254178
254178
254178
254178
254178
254178
254178
254178
254178
254179
254194
256493
527480
525868
256484
254192
254178
254178
254178
254178
254178
254178
254178
254178
254178
254178
254178
254178
254178
254178
254178
254178
254178
254178
254178
254178
254178
254178
254178
254179
254193
256483
527122
526152
256487
254192
254178
254178
254178
254178
254178
254178
254178
254178
254178
254178
254178
254178
254178
254178
254178
254178
254178
254178
254178
254178
254178
254178
254178
254178
254189
256255
526905
634004
632958
631916
630877
629842
628810
627782
626757
625735
624716
623701
622689
621681
620675
619673
618674
617679
616686
615697
614711
613728
612748
611771
610798
609827
608860
607895
606934
605976
605020
604068
603119
602173
601229
600289
599351
598417
597485
596556
595631
594708
593787
592870
591956
591044
590135
589229
588326
587425
586527
585632
584740
583850
582963
582079
581198
580319
579443
578569
577698
576830
575964
575101
574240
573382
572527
571674
570823
569976
569130
568287
567447
566609
565774
564941
564110
563282
562457
561633
560813
559994
559178
558364
557553
556744
555938
555133
554331
553532
552734
551939
551147
550356
549568
548782
547998
547217
546437
545660
544885
544113
543342
542574
541808
541044
540282
539522
538765
538009
537256
536505
535756
535009
534264
533521
532780
532041
531304
530570
529837
529106
528378
527651
526926
526203
258767
258731
258704
258677
258651
258625
258599
258574
258548
258523
258498
258473
258448
258424
258399
258375
258351
258327
258303
258280
258256
258233
258210
258187
258164
258142
258119
258097
258075
258053
258031
258009
257987
257966
257945
257924
257903
257882
257861
257841
257820
257800
257780
257760
257740
257720
257700
257681
257661
257642
257623
257604
257585
257566
257548
257529
257511
257493
257475
257457
257439
257421
257403
257386
257368
257351
257334
257317
257300
257283
257266
257249
257233
257216
257200
257184
257168
257151
257136
257120
257104
257088
257073
257057
257042
257027
257012
256997
256982
256967
256952
256937
256923
256908
256894
256879
256865
256851
256837
256823
256809
256795
256782
256768
256754
256741
256728
256714
256701
256688
256675
256662
256649
256636
256623
256611
256598
256586
256573
256561
256548
256536
256524
256512
256497
254219
254219
254218
254218
254218
254217
254217
254216
254216
254216
254215
254215
254215
254214
254214
254214
254213
254213
254213
254212
254212
254212
254211
254211
254211
254211
254210
254210
254210
254209
254209
254209
254209
254208
254208
254208
254208
254207
254207
254207
254206
254206
254206
254206
254205
254205
254205
254205
254205
254204
254204
254204
254204
254203
254203
254203
254203
254203
254202
254202
254202
254202
254201
254201
254201
254201
254201
254200
254200
254200
254200
254200
254200
254199
254199
254199
254199
254199
254198
254198
254198
254198
254198
254198
254197
254197
254197
254197
254197
254197
254197
254196
254196
254196
254196
254196
254196
254195
254195
254195
254195
254195
254195
254195
254195
254194
254194
254194
254194
254194
254194
254194
254193
254193
254193
254193
254193
254193
254193
254193
254193
254192
254192
254192
254192
254179
254179
254179
254179
254179
254179
254179
254179
254179
254179
254179
254179
254179
254179
254179
254179
254179
254179
254179
254179
254179
254179
254179
254179
254179
254179
254179
254179
254179
254179
254179
254179
254179
254179
254179
254179
254179
254179
254179
254179
254179
254179
254179
254179
254179
254179
254179
254179
254179
254179
254179
254179
254179
254179
254179
254179
254179
254179
254179
254179
254179
254179
254179
254179
254179
254179
254179
254179
254179
254179
254179
254179
254179
254179
254179
254179
254179
254179
254179
254179
254179
254179
254179
254179
254179
254179
254179
254179
254179
254179
254179
254179
254179
254179
254179
254179
254179
254179
254179
254179
254179
254178
254178
254178
254178
254178
254178
254178
254178
254178
254178
254178
254178
254178
254178
254178
254178
254178
254178
254178
254178
254178
254178
254178
254178
254178
254178
254178
254178
254178
254178
254178
254178
254178
254178
254178
254178
254178
254178
254178
254178
254178
254178
254178
254178
254178
254178
254178
254178
254178
254178
254178
254178
254178
254178
254178
254178
254178
254178
254178
254178
254178
254178
254178
254178
254178
254178
254178
254178
254178
254178
254178
254178
254178
254178
254178
254178
254178
254178
254178
254178
254178
254178
254178
254178
254178
254178
254178
254178
254178
254178
254178
254178
254178
254178
254178
254178
254178
254178
254178
254178
254178
254178
254178
254178
254178
254178
254178
254178
254178
254178
254178
254178
254178
254178
254178
254178
254178
254178
254178
254178
254178
254178
254178
254178
254178
254178
254178
254178
254178
254178
254178
254178
254178
254178
254178
254178
254178
254178
254178
254178
254178
254178
254178
254178
254178
254178
254178
254178
254178
254178
254178
254178
254178
254178
254178
254178
254178
254178
254178
254178
254178
254178
254178
254178
254178
254178
254178
254178
254178
254178
254178
254178
254178
254178
254178
254178
254178
254178
254178
254178
254178
254178
254178
254178
254178
254178
254178
254178
254178
254178
254178
254178
254178
254178
254178
254178
254178
254178
254178
254178
254178
254178
254178
254178
254178
254178
254178
254178
254178
254178
254178
254178
254178
254178
254178
254178
254178
254178
254178
254178
254178
254178
254178
254178
254178
254178
254178
254178
254178
254178
254178
254178
254178
254178
254178
254178
254178
254178
254178
254178
254178
254178
254178
254178
254178
254178
254178
254178
254178
254178
254178
254178
254178
254178
254178
254178
254178
254178
254178
254178
254178
254178
254178
254178
254178
254178
254178
254178
254178
254178
254178
254178
254178
254178
254178
254178
254178
254178
254178
254178
254178
254178
254178
254178
254178
254178
254178
254178
254178
254178
254178
254178
254178
254178
254178
254178
254178
254178
254178
254178
254178
254178
254178
254178
254178
254178
254178
254178
254178
254178
254178
254178
254178
254178
254178
254178
254178
254178
254178
254178
254178
254178
254178
254178
254178
254178
254178
254178
254178
254178
254178
254178
254178
254178
254178
254178
254178
254178
254178
254178
254178
254178
254178
254178
254178
254178
254178
254178
254178
254178
254178
254178
254178
254178
254178
254178
254178
254178
254178
254178
254178
254178
254178
254178
254178
254178
254178
254178
254178
254178
254178
254178
254178
254178
254178
254178
254178
254178
254178
254178
254178
254178
254178
254178
254178
254178
254178
254178
254178
254178
254178
254178
254178
254178
254178
254178
254178
254178
254178
254178
254178
254178
254178
254178
254178
254178
254178
254178
254178
254178
254178
254178
254178
254178
254178
254178
254178
254178
254178
254178
254178
254178
254178
254178
254178
254178
254178
254178
254178
254178
254178
254178
254178
254178
254178
254178
254178
254178
254178
254178
254178
254178
254178
254178
254178
254178
254178
254178
254178
254178
254178
254178
254178
254178
254178
254178
254178
254178
254178
254178
254178
254178
254178
254178
254178
254178
254178
254178
254178
254178
254178
254178
254178
254178
254178
254178
254178
254178
254178
254178
254178
254178
254178
254178
254178
254178
254178
254178
254178
254178
254178
254178
254178
254178
254178
254178
254178
254178
254178
254178
254178
254178
254178
254178
254178
254178
254178
254178
254178
254178
254178
254178
254178
254178
254178
254178
254178
254178
254178
254178
254178
254178
254178
254178
254178
254178
254178
254178
254178
254178
254178
254178
254178
254178
254178
254178
254178
254178
254178
254178
254178
254178
254178
254178
254178
254178
254178
254178
254178
254178
254178
254178
254178
254178
254178
254178
254178
254178
254178
254178
254178
254178
254178
254178
254178
254178
254178
254178
254178
254178
254178
254178
254178
254178
254178
254178
254178
254178
254178
254178
254178
254178
254178
254178
254178
254178
254178
254178
254178
254178
254178
254178
254178
254178
254178
254178
254178
254178
254178
254178
254178
254178
254178
254178
254178
254178
254178
254178
254178
254178
254178
254178
254178
254178
254178
254178
254178
254178
254178
254178
254178
254178
254178
254178
254178
254178
254178
254178
254178
254178
254178
254178
254178
254178
254178
254178
254178
254178
254178
254178
254178
254178
254178
254178
254178
254178
254178
254178
254178
254178
254178
254178
254178
254178
254178
254178
254178
254178
254178
254178
254178
254178
254178
254178
254178
254178
254178
254178
254178
254178
254178
254178
254178
254178
254178
254178
254178
254178
254178
254178
254178
254178