/*--------------------------------*- C++ -*----------------------------------*\
| =========                 |                                                 |
| \\      /  F ield         | OpenFOAM: The Open Source CFD Toolbox           |
|  \\    /   O peration     | Version:  2112                                  |
|   \\  /    A nd           | Website:  www.openfoam.com                      |
|    \\/     M anipulation  |                                                 |
\*---------------------------------------------------------------------------*/
FoamFile
{
    version     2.0;
    format      ascii;
    arch        "LSB;label=32;scalar=64";
    class       volScalarField;
    location    "9e-05";
    object      k;
}
// * * * * * * * * * * * * * * * * * * * * * * * * * * * * * * * * * * * * * //

dimensions      [0 2 -2 0 0 0 0];

internalField   nonuniform List<scalar> 
13875
(
14550.6
90395.4
132177
159026
174925
184489
189676
192385
193666
194219
194439
194520
194540
194521
194444
194236
193688
192404
189702
184534
174981
159134
132368
90878.4
14532.2
51091.2
158957
214478
253933
279047
294111
302315
306475
308412
309239
309564
309681
309709
309682
309574
309267
308452
306518
302372
294195
279169
254118
214761
159414
51608.3
91868
230631
299683
347222
378019
396462
406523
411585
413923
414916
415303
415439
415471
415439
415311
414939
413957
411622
406561
396497
378042
347227
299630
230382
91277.2
120447
286334
364400
415691
448566
468164
478838
484187
486649
487689
488092
488232
488264
488230
488095
487704
486674
484215
478861
468168
448531
415595
364120
285599
119505
117809
292919
371382
420769
450422
467588
476784
481315
483372
484232
484560
484671
484695
484666
484554
484230
483378
481326
476797
467596
450433
420747
371299
292910
116773
104918
264913
344274
391970
419602
434776
442649
446450
448133
448821
449077
449161
449178
449155
449067
448812
448131
446458
442671
434821
419737
392225
344598
265366
104029
77161.9
207104
271942
310059
331463
342942
348659
351309
352450
352901
353064
353116
353125
353110
353053
352886
352430
351274
348583
342774
331197
309546
271110
205485
76798.6
50708.4
152323
202947
231572
247113
255296
259230
260978
261698
261973
262070
262100
262104
262093
262058
261958
261679
260953
259189
255214
246998
231362
202610
151794
50366.7
24546.6
82552.3
111638
127989
136475
140758
142755
143624
143977
144112
144161
144176
144178
144171
144152
144101
143961
143603
142726
140709
136402
127883
111414
82207
24336.2
5500.61
17902
24643.9
28075.8
29833.7
30722.4
31147.9
31337.5
31415.8
31446.1
31456.6
31458.9
31456.6
31451.1
31442.1
31424.4
31385.7
31297.6
31096.9
30658.5
29755.9
27992.8
24502.8
17720.2
5377.9
931.075
1239.75
1368.03
1420.07
1447.82
1462.4
1469.9
1473.52
1475.17
1475.88
1476.18
1476.3
1476.33
1476.31
1476.21
1475.92
1475.21
1473.56
1469.92
1462.34
1447.6
1420.15
1366.51
1237
926.853
852.683
973.266
981.685
979.838
978.949
978.73
978.701
978.703
978.707
978.709
978.71
978.711
978.711
978.711
978.711
978.71
978.709
978.705
978.702
978.729
978.94
979.812
981.629
973.162
852.394
841.311
970.362
980.318
978.223
977.063
976.716
976.642
976.629
976.627
976.627
976.627
976.627
976.627
976.627
976.627
976.627
976.627
976.629
976.641
976.709
977.033
978.13
980.146
970.364
841.858
831.988
968.506
980.289
978.368
977.136
976.726
976.632
976.614
976.611
976.611
976.61
976.61
976.61
976.61
976.61
976.611
976.611
976.614
976.63
976.72
977.113
978.311
980.257
968.977
835.435
826.19
966.757
980.005
978.414
977.195
976.749
976.637
976.615
976.611
976.61
976.61
976.61
976.61
976.61
976.61
976.61
976.611
976.616
976.644
976.777
977.289
978.639
980.275
966.446
823.883
812.696
963.396
979.142
978.358
977.256
976.78
976.647
976.617
976.611
976.61
976.61
976.61
976.61
976.61
976.61
976.61
976.611
976.618
976.65
976.796
977.306
978.479
979.342
963.221
810.068
809.693
961.484
977.584
977.682
977.036
976.725
976.635
976.615
976.611
976.61
976.61
976.61
976.61
976.61
976.61
976.61
976.611
976.615
976.634
976.719
977.021
977.651
977.614
961.696
809.983
807.716
959.864
975.266
976.745
976.711
976.64
976.617
976.611
976.61
976.61
976.61
976.61
976.61
976.61
976.61
976.61
976.61
976.611
976.616
976.636
976.692
976.664
974.983
959.393
807.393
796.778
953.628
971.55
975.232
976.219
976.514
976.589
976.606
976.609
976.61
976.61
976.61
976.61
976.61
976.61
976.61
976.609
976.607
976.592
976.525
976.256
975.351
971.877
954.627
799.38
789.53
947.753
968.825
973.943
975.766
976.39
976.562
976.601
976.608
976.61
976.61
976.61
976.61
976.61
976.61
976.61
976.608
976.601
976.562
976.389
975.762
973.931
968.813
947.67
788.051
802.742
949.705
969.05
974.019
975.829
976.42
976.572
976.603
976.609
976.61
976.61
976.61
976.61
976.61
976.61
976.61
976.609
976.602
976.567
976.4
975.76
973.837
968.679
948.641
799.928
816.192
953.562
970.414
974.694
976.095
976.499
976.59
976.607
976.61
976.61
976.61
976.61
976.61
976.61
976.61
976.61
976.609
976.606
976.587
976.488
976.054
974.576
970.156
953.013
815.601
828.824
957.368
971.864
975.302
976.3
976.551
976.6
976.609
976.61
976.61
976.61
976.61
976.61
976.61
976.61
976.61
976.61
976.609
976.6
976.552
976.308
975.338
971.967
957.752
830.076
840.155
960.858
973.104
975.77
976.435
976.58
976.606
976.609
976.61
976.61
976.61
976.61
976.61
976.61
976.61
976.61
976.61
976.609
976.606
976.581
976.437
975.777
973.12
960.871
839.902
846.84
962.728
973.751
975.992
976.495
976.592
976.608
976.61
976.61
976.61
976.61
976.61
976.61
976.61
976.61
976.61
976.61
976.61
976.608
976.592
976.492
975.981
973.714
962.594
846.602
853.407
964.211
974.21
976.132
976.528
976.598
976.609
976.61
976.61
976.61
976.61
976.61
976.61
976.61
976.61
976.61
976.61
976.61
976.609
976.599
976.531
976.148
974.268
964.439
853.999
859.944
965.818
974.665
976.257
976.555
976.603
976.609
976.61
976.61
976.61
976.61
976.61
976.61
976.61
976.61
976.61
976.61
976.61
976.609
976.602
976.552
976.243
974.605
965.579
859.128
864.528
966.799
974.937
976.327
976.569
976.605
976.609
976.61
976.61
976.61
976.61
976.61
976.61
976.61
976.61
976.61
976.61
976.61
976.609
976.605
976.568
976.323
974.924
966.747
864.723
869.252
967.646
975.164
976.379
976.578
976.606
976.61
976.61
976.61
976.61
976.61
976.61
976.61
976.61
976.61
976.61
976.61
976.61
976.61
976.607
976.581
976.397
975.244
967.987
870.112
874.757
968.916
975.476
976.445
976.589
976.608
976.61
976.61
976.61
976.61
976.61
976.61
976.61
976.61
976.61
976.61
976.61
976.61
976.61
976.607
976.587
976.434
975.418
968.649
873.792
877.982
969.581
975.633
976.477
976.594
976.608
976.61
976.61
976.61
976.61
976.61
976.61
976.61
976.61
976.61
976.61
976.61
976.61
976.61
976.608
976.594
976.476
975.632
969.573
878.26
880.976
970.017
975.736
976.496
976.597
976.609
976.61
976.61
976.61
976.61
976.61
976.61
976.61
976.61
976.61
976.61
976.61
976.61
976.61
976.609
976.598
976.504
975.777
970.223
881.467
884.707
970.788
975.9
976.524
976.601
976.609
976.61
976.61
976.61
976.61
976.61
976.61
976.61
976.61
976.61
976.61
976.61
976.61
976.61
976.609
976.6
976.52
975.871
970.638
884.214
886.963
971.197
975.983
976.538
976.602
976.609
976.61
976.61
976.61
976.61
976.61
976.61
976.61
976.61
976.61
976.61
976.61
976.61
976.61
976.609
976.603
976.54
975.994
971.238
887.261
889.016
971.438
976.035
976.546
976.603
976.609
976.61
976.61
976.61
976.61
976.61
976.61
976.61
976.61
976.61
976.61
976.61
976.61
976.61
976.609
976.604
976.55
976.058
971.58
889.291
891.662
971.953
976.132
976.56
976.605
976.61
976.61
976.61
976.61
976.61
976.61
976.61
976.61
976.61
976.61
976.61
976.61
976.61
976.61
976.609
976.605
976.557
976.105
971.805
891.224
893.328
972.223
976.181
976.568
976.606
976.61
976.61
976.61
976.61
976.61
976.61
976.61
976.61
976.61
976.61
976.61
976.61
976.61
976.61
976.61
976.606
976.568
976.187
972.244
893.516
894.835
972.377
976.212
976.572
976.606
976.61
976.61
976.61
976.61
976.61
976.61
976.61
976.61
976.61
976.61
976.61
976.61
976.61
976.61
976.61
976.607
976.574
976.229
972.487
895.028
896.744
972.744
976.277
976.58
976.607
976.61
976.61
976.61
976.61
976.61
976.61
976.61
976.61
976.61
976.61
976.61
976.61
976.61
976.61
976.61
976.607
976.577
976.256
972.618
896.415
897.967
972.928
976.308
976.584
976.608
976.61
976.61
976.61
976.61
976.61
976.61
976.61
976.61
976.61
976.61
976.61
976.61
976.61
976.61
976.61
976.608
976.584
976.313
972.944
898.093
899.059
973.024
976.328
976.586
976.608
976.61
976.61
976.61
976.61
976.61
976.61
976.61
976.61
976.61
976.61
976.61
976.61
976.61
976.61
976.61
976.608
976.588
976.341
973.119
899.209
900.42
973.295
976.373
976.591
976.608
976.61
976.61
976.61
976.61
976.61
976.61
976.61
976.61
976.61
976.61
976.61
976.61
976.61
976.61
976.61
976.608
976.589
976.357
973.194
900.198
901.304
973.424
976.394
976.594
976.609
976.61
976.61
976.61
976.61
976.61
976.61
976.61
976.61
976.61
976.61
976.61
976.61
976.61
976.61
976.61
976.609
976.594
976.397
973.433
901.371
902.075
973.482
976.407
976.595
976.609
976.61
976.61
976.61
976.61
976.61
976.61
976.61
976.61
976.61
976.61
976.61
976.61
976.61
976.61
976.61
976.609
976.596
976.417
973.561
902.187
903.006
973.683
976.439
976.599
976.609
976.61
976.61
976.61
976.61
976.61
976.61
976.61
976.61
976.61
976.61
976.61
976.61
976.61
976.61
976.61
976.609
976.597
976.428
973.609
902.879
903.619
973.773
976.454
976.6
976.609
976.61
976.61
976.61
976.61
976.61
976.61
976.61
976.61
976.61
976.61
976.61
976.61
976.61
976.61
976.61
976.609
976.6
976.456
973.774
903.64
904.138
973.807
976.463
976.601
976.609
976.61
976.61
976.61
976.61
976.61
976.61
976.61
976.61
976.61
976.61
976.61
976.61
976.61
976.61
976.61
976.609
976.602
976.471
973.87
904.21
904.731
973.954
976.487
976.603
976.61
976.61
976.61
976.61
976.61
976.61
976.61
976.61
976.61
976.61
976.61
976.61
976.61
976.61
976.61
976.61
976.609
976.602
976.478
973.9
904.647
905.127
974
976.497
976.604
976.61
976.61
976.61
976.61
976.61
976.61
976.61
976.61
976.61
976.61
976.61
976.61
976.61
976.61
976.61
976.61
976.61
976.604
976.494
973.981
905.076
906.073
973.945
976.492
976.603
976.61
976.61
976.61
976.61
976.61
976.61
976.61
976.61
976.61
976.61
976.61
976.61
976.61
976.61
976.61
976.61
976.61
976.603
976.495
973.965
906.11
958.592
978.1
978.048
977.97
977.945
977.924
977.904
977.884
977.864
977.845
977.827
977.808
977.791
977.774
977.757
977.74
977.724
977.709
977.693
977.678
977.664
977.649
977.635
977.622
977.608
977.595
977.582
977.568
977.38
958.325
954.31
976.866
976.714
976.65
976.645
976.644
976.643
976.642
976.641
976.64
976.639
976.638
976.637
976.637
976.636
976.635
976.634
976.634
976.633
976.632
976.632
976.631
976.631
976.63
976.63
976.629
976.629
976.627
976.442
956.187
955.997
976.777
976.662
976.613
976.611
976.611
976.611
976.611
976.611
976.611
976.611
976.61
976.61
976.61
976.61
976.61
976.61
976.61
976.61
976.61
976.61
976.61
976.61
976.61
976.61
976.61
976.61
976.609
976.423
955.757
956.324
976.709
976.65
976.612
976.61
976.61
976.61
976.61
976.61
976.61
976.61
976.61
976.61
976.61
976.61
976.61
976.61
976.61
976.61
976.61
976.61
976.61
976.61
976.61
976.61
976.61
976.61
976.609
976.418
955.409
955.94
976.684
976.648
976.612
976.61
976.61
976.61
976.61
976.61
976.61
976.61
976.61
976.61
976.61
976.61
976.61
976.61
976.61
976.61
976.61
976.61
976.61
976.61
976.61
976.61
976.61
976.61
976.609
976.413
955.089
955.637
976.667
976.646
976.611
976.61
976.61
976.61
976.61
976.61
976.61
976.61
976.61
976.61
976.61
976.61
976.61
976.61
976.61
976.61
976.61
976.61
976.61
976.61
976.61
976.61
976.61
976.61
976.609
976.408
954.779
955.399
976.644
976.643
976.611
976.61
976.61
976.61
976.61
976.61
976.61
976.61
976.61
976.61
976.61
976.61
976.61
976.61
976.61
976.61
976.61
976.61
976.61
976.61
976.61
976.61
976.61
976.61
976.609
976.403
954.482
955.215
976.618
976.639
976.611
976.61
976.61
976.61
976.61
976.61
976.61
976.61
976.61
976.61
976.61
976.61
976.61
976.61
976.61
976.61
976.61
976.61
976.61
976.61
976.61
976.61
976.61
976.61
976.609
976.399
954.203
955.019
976.592
976.636
976.611
976.61
976.61
976.61
976.61
976.61
976.61
976.61
976.61
976.61
976.61
976.61
976.61
976.61
976.61
976.61
976.61
976.61
976.61
976.61
976.61
976.61
976.61
976.61
976.609
976.395
953.947
954.804
976.569
976.633
976.611
976.61
976.61
976.61
976.61
976.61
976.61
976.61
976.61
976.61
976.61
976.61
976.61
976.61
976.61
976.61
976.61
976.61
976.61
976.61
976.61
976.61
976.61
976.61
976.609
976.391
953.712
954.577
976.548
976.63
976.611
976.61
976.61
976.61
976.61
976.61
976.61
976.61
976.61
976.61
976.61
976.61
976.61
976.61
976.61
976.61
976.61
976.61
976.61
976.61
976.61
976.61
976.61
976.61
976.608
976.387
953.498
954.349
976.53
976.628
976.611
976.61
976.61
976.61
976.61
976.61
976.61
976.61
976.61
976.61
976.61
976.61
976.61
976.61
976.61
976.61
976.61
976.61
976.61
976.61
976.61
976.61
976.61
976.61
976.608
976.384
953.301
954.131
976.514
976.626
976.611
976.61
976.61
976.61
976.61
976.61
976.61
976.61
976.61
976.61
976.61
976.61
976.61
976.61
976.61
976.61
976.61
976.61
976.61
976.61
976.61
976.61
976.61
976.61
976.608
976.381
953.12
953.913
976.498
976.625
976.611
976.61
976.61
976.61
976.61
976.61
976.61
976.61
976.61
976.61
976.61
976.61
976.61
976.61
976.61
976.61
976.61
976.61
976.61
976.61
976.61
976.61
976.61
976.61
976.608
976.378
952.954
953.717
976.483
976.623
976.61
976.61
976.61
976.61
976.61
976.61
976.61
976.61
976.61
976.61
976.61
976.61
976.61
976.61
976.61
976.61
976.61
976.61
976.61
976.61
976.61
976.61
976.61
976.61
976.608
976.376
952.803
953.517
976.469
976.621
976.61
976.61
976.61
976.61
976.61
976.61
976.61
976.61
976.61
976.61
976.61
976.61
976.61
976.61
976.61
976.61
976.61
976.61
976.61
976.61
976.61
976.61
976.61
976.61
976.608
976.373
952.667
953.332
976.456
976.62
976.61
976.61
976.61
976.61
976.61
976.61
976.61
976.61
976.61
976.61
976.61
976.61
976.61
976.61
976.61
976.61
976.61
976.61
976.61
976.61
976.61
976.61
976.61
976.61
976.608
976.371
952.544
953.158
976.444
976.618
976.61
976.61
976.61
976.61
976.61
976.61
976.61
976.61
976.61
976.61
976.61
976.61
976.61
976.61
976.61
976.61
976.61
976.61
976.61
976.61
976.61
976.61
976.61
976.61
976.608
976.37
952.436
952.992
976.432
976.617
976.61
976.61
976.61
976.61
976.61
976.61
976.61
976.61
976.61
976.61
976.61
976.61
976.61
976.61
976.61
976.61
976.61
976.61
976.61
976.61
976.61
976.61
976.61
976.61
976.608
976.368
952.341
952.839
976.422
976.616
976.61
976.61
976.61
976.61
976.61
976.61
976.61
976.61
976.61
976.61
976.61
976.61
976.61
976.61
976.61
976.61
976.61
976.61
976.61
976.61
976.61
976.61
976.61
976.61
976.608
976.367
952.259
952.698
976.411
976.614
976.61
976.61
976.61
976.61
976.61
976.61
976.61
976.61
976.61
976.61
976.61
976.61
976.61
976.61
976.61
976.61
976.61
976.61
976.61
976.61
976.61
976.61
976.61
976.61
976.608
976.366
952.189
952.567
976.402
976.613
976.61
976.61
976.61
976.61
976.61
976.61
976.61
976.61
976.61
976.61
976.61
976.61
976.61
976.61
976.61
976.61
976.61
976.61
976.61
976.61
976.61
976.61
976.61
976.61
976.608
976.365
952.13
952.45
976.393
976.612
976.61
976.61
976.61
976.61
976.61
976.61
976.61
976.61
976.61
976.61
976.61
976.61
976.61
976.61
976.61
976.61
976.61
976.61
976.61
976.61
976.61
976.61
976.61
976.61
976.608
976.364
952.083
952.336
976.381
976.611
976.61
976.61
976.61
976.61
976.61
976.61
976.61
976.61
976.61
976.61
976.61
976.61
976.61
976.61
976.61
976.61
976.61
976.61
976.61
976.61
976.61
976.61
976.61
976.61
976.608
976.363
952.047
952.363
976.36
976.608
976.61
976.61
976.61
976.61
976.61
976.61
976.61
976.61
976.61
976.61
976.61
976.61
976.61
976.61
976.61
976.61
976.61
976.61
976.61
976.61
976.61
976.61
976.61
976.61
976.608
976.363
952.02
958.325
977.38
977.568
977.582
977.595
977.608
977.622
977.635
977.649
977.664
977.678
977.693
977.709
977.724
977.741
977.757
977.774
977.791
977.809
977.827
977.846
977.865
977.884
977.904
977.925
977.946
977.971
978.049
978.101
958.586
956.187
976.442
976.627
976.629
976.629
976.63
976.63
976.631
976.631
976.632
976.632
976.633
976.634
976.634
976.635
976.636
976.637
976.637
976.638
976.639
976.64
976.641
976.642
976.643
976.644
976.645
976.65
976.714
976.866
954.315
955.756
976.423
976.609
976.61
976.61
976.61
976.61
976.61
976.61
976.61
976.61
976.61
976.61
976.61
976.61
976.61
976.61
976.61
976.61
976.611
976.611
976.611
976.611
976.611
976.611
976.611
976.613
976.662
976.777
955.987
955.409
976.418
976.609
976.61
976.61
976.61
976.61
976.61
976.61
976.61
976.61
976.61
976.61
976.61
976.61
976.61
976.61
976.61
976.61
976.61
976.61
976.61
976.61
976.61
976.61
976.61
976.612
976.65
976.709
956.334
955.089
976.413
976.609
976.61
976.61
976.61
976.61
976.61
976.61
976.61
976.61
976.61
976.61
976.61
976.61
976.61
976.61
976.61
976.61
976.61
976.61
976.61
976.61
976.61
976.61
976.61
976.612
976.648
976.684
955.944
954.779
976.408
976.609
976.61
976.61
976.61
976.61
976.61
976.61
976.61
976.61
976.61
976.61
976.61
976.61
976.61
976.61
976.61
976.61
976.61
976.61
976.61
976.61
976.61
976.61
976.61
976.611
976.646
976.667
955.622
954.482
976.403
976.609
976.61
976.61
976.61
976.61
976.61
976.61
976.61
976.61
976.61
976.61
976.61
976.61
976.61
976.61
976.61
976.61
976.61
976.61
976.61
976.61
976.61
976.61
976.61
976.611
976.643
976.644
955.417
954.203
976.399
976.609
976.61
976.61
976.61
976.61
976.61
976.61
976.61
976.61
976.61
976.61
976.61
976.61
976.61
976.61
976.61
976.61
976.61
976.61
976.61
976.61
976.61
976.61
976.61
976.611
976.639
976.618
955.205
953.947
976.395
976.609
976.61
976.61
976.61
976.61
976.61
976.61
976.61
976.61
976.61
976.61
976.61
976.61
976.61
976.61
976.61
976.61
976.61
976.61
976.61
976.61
976.61
976.61
976.61
976.611
976.636
976.592
955.021
953.713
976.391
976.609
976.61
976.61
976.61
976.61
976.61
976.61
976.61
976.61
976.61
976.61
976.61
976.61
976.61
976.61
976.61
976.61
976.61
976.61
976.61
976.61
976.61
976.61
976.61
976.611
976.633
976.569
954.809
953.498
976.387
976.608
976.61
976.61
976.61
976.61
976.61
976.61
976.61
976.61
976.61
976.61
976.61
976.61
976.61
976.61
976.61
976.61
976.61
976.61
976.61
976.61
976.61
976.61
976.61
976.611
976.63
976.548
954.569
953.301
976.384
976.608
976.61
976.61
976.61
976.61
976.61
976.61
976.61
976.61
976.61
976.61
976.61
976.61
976.61
976.61
976.61
976.61
976.61
976.61
976.61
976.61
976.61
976.61
976.61
976.611
976.628
976.53
954.355
953.12
976.381
976.608
976.61
976.61
976.61
976.61
976.61
976.61
976.61
976.61
976.61
976.61
976.61
976.61
976.61
976.61
976.61
976.61
976.61
976.61
976.61
976.61
976.61
976.61
976.61
976.611
976.626
976.514
954.129
952.954
976.378
976.608
976.61
976.61
976.61
976.61
976.61
976.61
976.61
976.61
976.61
976.61
976.61
976.61
976.61
976.61
976.61
976.61
976.61
976.61
976.61
976.61
976.61
976.61
976.61
976.611
976.625
976.498
953.913
952.803
976.376
976.608
976.61
976.61
976.61
976.61
976.61
976.61
976.61
976.61
976.61
976.61
976.61
976.61
976.61
976.61
976.61
976.61
976.61
976.61
976.61
976.61
976.61
976.61
976.61
976.61
976.623
976.483
953.716
952.667
976.373
976.608
976.61
976.61
976.61
976.61
976.61
976.61
976.61
976.61
976.61
976.61
976.61
976.61
976.61
976.61
976.61
976.61
976.61
976.61
976.61
976.61
976.61
976.61
976.61
976.61
976.621
976.469
953.519
952.544
976.371
976.608
976.61
976.61
976.61
976.61
976.61
976.61
976.61
976.61
976.61
976.61
976.61
976.61
976.61
976.61
976.61
976.61
976.61
976.61
976.61
976.61
976.61
976.61
976.61
976.61
976.62
976.456
953.331
952.436
976.37
976.608
976.61
976.61
976.61
976.61
976.61
976.61
976.61
976.61
976.61
976.61
976.61
976.61
976.61
976.61
976.61
976.61
976.61
976.61
976.61
976.61
976.61
976.61
976.61
976.61
976.618
976.444
953.158
952.341
976.368
976.608
976.61
976.61
976.61
976.61
976.61
976.61
976.61
976.61
976.61
976.61
976.61
976.61
976.61
976.61
976.61
976.61
976.61
976.61
976.61
976.61
976.61
976.61
976.61
976.61
976.617
976.432
952.993
952.259
976.367
976.608
976.61
976.61
976.61
976.61
976.61
976.61
976.61
976.61
976.61
976.61
976.61
976.61
976.61
976.61
976.61
976.61
976.61
976.61
976.61
976.61
976.61
976.61
976.61
976.61
976.616
976.422
952.839
952.189
976.366
976.608
976.61
976.61
976.61
976.61
976.61
976.61
976.61
976.61
976.61
976.61
976.61
976.61
976.61
976.61
976.61
976.61
976.61
976.61
976.61
976.61
976.61
976.61
976.61
976.61
976.614
976.412
952.698
952.131
976.365
976.608
976.61
976.61
976.61
976.61
976.61
976.61
976.61
976.61
976.61
976.61
976.61
976.61
976.61
976.61
976.61
976.61
976.61
976.61
976.61
976.61
976.61
976.61
976.61
976.61
976.613
976.402
952.568
952.083
976.364
976.608
976.61
976.61
976.61
976.61
976.61
976.61
976.61
976.61
976.61
976.61
976.61
976.61
976.61
976.61
976.61
976.61
976.61
976.61
976.61
976.61
976.61
976.61
976.61
976.61
976.612
976.393
952.45
952.047
976.363
976.608
976.61
976.61
976.61
976.61
976.61
976.61
976.61
976.61
976.61
976.61
976.61
976.61
976.61
976.61
976.61
976.61
976.61
976.61
976.61
976.61
976.61
976.61
976.61
976.61
976.611
976.381
952.337
952.02
976.363
976.608
976.61
976.61
976.61
976.61
976.61
976.61
976.61
976.61
976.61
976.61
976.61
976.61
976.61
976.61
976.61
976.61
976.61
976.61
976.61
976.61
976.61
976.61
976.61
976.61
976.608
976.36
952.363
941.862
941.961
942.059
942.157
942.255
942.353
942.45
942.547
942.644
942.74
942.836
942.932
943.027
943.122
943.217
943.312
943.406
943.5
943.593
943.686
943.779
943.872
943.964
944.056
944.148
944.239
944.33
944.421
944.511
944.602
944.691
944.781
944.87
944.959
945.048
945.137
945.225
945.313
945.4
945.488
945.575
945.662
945.748
945.834
945.92
946.006
946.091
946.177
946.261
946.346
946.43
946.515
946.598
946.682
946.765
946.848
946.931
947.014
947.096
947.178
947.26
947.341
947.423
947.504
947.584
947.665
947.745
947.825
947.905
947.985
948.064
948.143
948.222
948.3
948.379
948.457
948.535
948.612
948.69
948.767
948.844
948.921
948.997
949.073
949.149
949.225
949.301
949.376
949.451
949.526
949.601
949.676
949.75
949.824
949.898
949.971
950.045
950.118
950.191
950.264
950.336
950.408
950.481
950.552
950.624
950.696
950.767
950.838
950.909
950.98
951.05
951.12
951.19
951.26
951.33
951.399
951.469
951.538
951.607
951.675
951.744
951.812
951.88
951.948
952.015
976.117
976.121
976.124
976.127
976.13
976.133
976.135
976.138
976.141
976.144
976.146
976.149
976.152
976.154
976.157
976.16
976.162
976.165
976.167
976.17
976.172
976.175
976.177
976.18
976.182
976.185
976.187
976.19
976.192
976.194
976.197
976.199
976.201
976.204
976.206
976.208
976.211
976.213
976.215
976.217
976.219
976.222
976.224
976.226
976.228
976.23
976.232
976.235
976.237
976.239
976.241
976.243
976.245
976.247
976.249
976.251
976.253
976.255
976.257
976.259
976.261
976.263
976.264
976.266
976.268
976.27
976.272
976.274
976.276
976.277
976.279
976.281
976.283
976.285
976.286
976.288
976.29
976.292
976.293
976.295
976.297
976.298
976.3
976.302
976.303
976.305
976.307
976.308
976.31
976.311
976.313
976.315
976.316
976.318
976.319
976.321
976.322
976.324
976.325
976.327
976.328
976.33
976.331
976.333
976.334
976.336
976.337
976.339
976.34
976.342
976.343
976.344
976.346
976.347
976.348
976.35
976.351
976.353
976.354
976.355
976.357
976.358
976.359
976.36
976.362
976.605
976.605
976.605
976.605
976.605
976.605
976.605
976.605
976.605
976.605
976.605
976.605
976.605
976.605
976.605
976.606
976.606
976.606
976.606
976.606
976.606
976.606
976.606
976.606
976.606
976.606
976.606
976.606
976.606
976.606
976.606
976.606
976.606
976.606
976.606
976.606
976.606
976.606
976.606
976.606
976.606
976.606
976.606
976.607
976.607
976.607
976.607
976.607
976.607
976.607
976.607
976.607
976.607
976.607
976.607
976.607
976.607
976.607
976.607
976.607
976.607
976.607
976.607
976.607
976.607
976.607
976.607
976.607
976.607
976.607
976.607
976.607
976.607
976.607
976.607
976.607
976.607
976.607
976.607
976.607
976.607
976.608
976.608
976.608
976.608
976.608
976.608
976.608
976.608
976.608
976.608
976.608
976.608
976.608
976.608
976.608
976.608
976.608
976.608
976.608
976.608
976.608
976.608
976.608
976.608
976.608
976.608
976.608
976.608
976.608
976.608
976.608
976.608
976.608
976.608
976.608
976.608
976.608
976.608
976.608
976.608
976.608
976.608
976.608
976.608
976.61
976.61
976.61
976.61
976.61
976.61
976.61
976.61
976.61
976.61
976.61
976.61
976.61
976.61
976.61
976.61
976.61
976.61
976.61
976.61
976.61
976.61
976.61
976.61
976.61
976.61
976.61
976.61
976.61
976.61
976.61
976.61
976.61
976.61
976.61
976.61
976.61
976.61
976.61
976.61
976.61
976.61
976.61
976.61
976.61
976.61
976.61
976.61
976.61
976.61
976.61
976.61
976.61
976.61
976.61
976.61
976.61
976.61
976.61
976.61
976.61
976.61
976.61
976.61
976.61
976.61
976.61
976.61
976.61
976.61
976.61
976.61
976.61
976.61
976.61
976.61
976.61
976.61
976.61
976.61
976.61
976.61
976.61
976.61
976.61
976.61
976.61
976.61
976.61
976.61
976.61
976.61
976.61
976.61
976.61
976.61
976.61
976.61
976.61
976.61
976.61
976.61
976.61
976.61
976.61
976.61
976.61
976.61
976.61
976.61
976.61
976.61
976.61
976.61
976.61
976.61
976.61
976.61
976.61
976.61
976.61
976.61
976.61
976.61
976.61
976.61
976.61
976.61
976.61
976.61
976.61
976.61
976.61
976.61
976.61
976.61
976.61
976.61
976.61
976.61
976.61
976.61
976.61
976.61
976.61
976.61
976.61
976.61
976.61
976.61
976.61
976.61
976.61
976.61
976.61
976.61
976.61
976.61
976.61
976.61
976.61
976.61
976.61
976.61
976.61
976.61
976.61
976.61
976.61
976.61
976.61
976.61
976.61
976.61
976.61
976.61
976.61
976.61
976.61
976.61
976.61
976.61
976.61
976.61
976.61
976.61
976.61
976.61
976.61
976.61
976.61
976.61
976.61
976.61
976.61
976.61
976.61
976.61
976.61
976.61
976.61
976.61
976.61
976.61
976.61
976.61
976.61
976.61
976.61
976.61
976.61
976.61
976.61
976.61
976.61
976.61
976.61
976.61
976.61
976.61
976.61
976.61
976.61
976.61
976.61
976.61
976.61
976.61
976.61
976.61
976.61
976.61
976.61
976.61
976.61
976.61
976.61
976.61
976.61
976.61
976.61
976.61
976.61
976.61
976.61
976.61
976.61
976.61
976.61
976.61
976.61
976.61
976.61
976.61
976.61
976.61
976.61
976.61
976.61
976.61
976.61
976.61
976.61
976.61
976.61
976.61
976.61
976.61
976.61
976.61
976.61
976.61
976.61
976.61
976.61
976.61
976.61
976.61
976.61
976.61
976.61
976.61
976.61
976.61
976.61
976.61
976.61
976.61
976.61
976.61
976.61
976.61
976.61
976.61
976.61
976.61
976.61
976.61
976.61
976.61
976.61
976.61
976.61
976.61
976.61
976.61
976.61
976.61
976.61
976.61
976.61
976.61
976.61
976.61
976.61
976.61
976.61
976.61
976.61
976.61
976.61
976.61
976.61
976.61
976.61
976.61
976.61
976.61
976.61
976.61
976.61
976.61
976.61
976.61
976.61
976.61
976.61
976.61
976.61
976.61
976.61
976.61
976.61
976.61
976.61
976.61
976.61
976.61
976.61
976.61
976.61
976.61
976.61
976.61
976.61
976.61
976.61
976.61
976.61
976.61
976.61
976.61
976.61
976.61
976.61
976.61
976.61
976.61
976.61
976.61
976.61
976.61
976.61
976.61
976.61
976.61
976.61
976.61
976.61
976.61
976.61
976.61
976.61
976.61
976.61
976.61
976.61
976.61
976.61
976.61
976.61
976.61
976.61
976.61
976.61
976.61
976.61
976.61
976.61
976.61
976.61
976.61
976.61
976.61
976.61
976.61
976.61
976.61
976.61
976.61
976.61
976.61
976.61
976.61
976.61
976.61
976.61
976.61
976.61
976.61
976.61
976.61
976.61
976.61
976.61
976.61
976.61
976.61
976.61
976.61
976.61
976.61
976.61
976.61
976.61
976.61
976.61
976.61
976.61
976.61
976.61
976.61
976.61
976.61
976.61
976.61
976.61
976.61
976.61
976.61
976.61
976.61
976.61
976.61
976.61
976.61
976.61
976.61
976.61
976.61
976.61
976.61
976.61
976.61
976.61
976.61
976.61
976.61
976.61
976.61
976.61
976.61
976.61
976.61
976.61
976.61
976.61
976.61
976.61
976.61
976.61
976.61
976.61
976.61
976.61
976.61
976.61
976.61
976.61
976.61
976.61
976.61
976.61
976.61
976.61
976.61
976.61
976.61
976.61
976.61
976.61
976.61
976.61
976.61
976.61
976.61
976.61
976.61
976.61
976.61
976.61
976.61
976.61
976.61
976.61
976.61
976.61
976.61
976.61
976.61
976.61
976.61
976.61
976.61
976.61
976.61
976.61
976.61
976.61
976.61
976.61
976.61
976.61
976.61
976.61
976.61
976.61
976.61
976.61
976.61
976.61
976.61
976.61
976.61
976.61
976.61
976.61
976.61
976.61
976.61
976.61
976.61
976.61
976.61
976.61
976.61
976.61
976.61
976.61
976.61
976.61
976.61
976.61
976.61
976.61
976.61
976.61
976.61
976.61
976.61
976.61
976.61
976.61
976.61
976.61
976.61
976.61
976.61
976.61
976.61
976.61
976.61
976.61
976.61
976.61
976.61
976.61
976.61
976.61
976.61
976.61
976.61
976.61
976.61
976.61
976.61
976.61
976.61
976.61
976.61
976.61
976.61
976.61
976.61
976.61
976.61
976.61
976.61
976.61
976.61
976.61
976.61
976.61
976.61
976.61
976.61
976.61
976.61
976.61
976.61
976.61
976.61
976.61
976.61
976.61
976.61
976.61
976.61
976.61
976.61
976.61
976.61
976.61
976.61
976.61
976.61
976.61
976.61
976.61
976.61
976.61
976.61
976.61
976.61
976.61
976.61
976.61
976.61
976.61
976.61
976.61
976.61
976.61
976.61
976.61
976.61
976.61
976.61
976.61
976.61
976.61
976.61
976.61
976.61
976.61
976.61
976.61
976.61
976.61
976.61
976.61
976.61
976.61
976.61
976.61
976.61
976.61
976.61
976.61
976.61
976.61
976.61
976.61
976.61
976.61
976.61
976.61
976.61
976.61
976.61
976.61
976.61
976.61
976.61
976.61
976.61
976.61
976.61
976.61
976.61
976.61
976.61
976.61
976.61
976.61
976.61
976.61
976.61
976.61
976.61
976.61
976.61
976.61
976.61
976.61
976.61
976.61
976.61
976.61
976.61
976.61
976.61
976.61
976.61
976.61
976.61
976.61
976.61
976.61
976.61
976.61
976.61
976.61
976.61
976.61
976.61
976.61
976.61
976.61
976.61
976.61
976.61
976.61
976.61
976.61
976.61
976.61
976.61
976.61
976.61
976.61
976.61
976.61
976.61
976.61
976.61
976.61
976.61
976.61
976.61
976.61
976.61
976.61
976.61
976.61
976.61
976.61
976.61
976.61
976.61
976.61
976.61
976.61
976.61
976.61
976.61
976.61
976.61
976.61
976.61
976.61
976.61
976.61
976.61
976.61
976.61
976.61
976.61
976.61
976.61
976.61
976.61
976.61
976.61
976.61
976.61
976.61
976.61
976.61
976.61
976.61
976.61
976.61
976.61
976.61
976.61
976.61
976.61
976.61
976.61
976.61
976.61
976.61
976.61
976.61
976.61
976.61
976.61
976.61
976.61
976.61
976.61
976.61
976.61
976.61
976.61
976.61
976.61
976.61
976.61
976.61
976.61
976.61
976.61
976.61
976.61
976.61
976.61
976.61
976.61
976.61
976.61
976.61
976.61
976.61
976.61
976.61
976.61
976.61
976.61
976.61
976.61