/*--------------------------------*- C++ -*----------------------------------*\
| =========                 |                                                 |
| \\      /  F ield         | OpenFOAM: The Open Source CFD Toolbox           |
|  \\    /   O peration     | Version:  2112                                  |
|   \\  /    A nd           | Website:  www.openfoam.com                      |
|    \\/     M anipulation  |                                                 |
\*---------------------------------------------------------------------------*/
FoamFile
{
    version     2.0;
    format      ascii;
    arch        "LSB;label=32;scalar=64";
    class       volScalarField;
    location    "9e-05";
    object      nut;
}
// * * * * * * * * * * * * * * * * * * * * * * * * * * * * * * * * * * * * * //

dimensions      [0 2 -1 0 0 0 0];

internalField   nonuniform List<scalar> 
13875
(
0.196699
0.649087
0.922238
1.08919
1.18905
1.24834
1.28073
1.29758
1.30552
1.30895
1.31033
1.31083
1.31096
1.31085
1.31037
1.30905
1.30565
1.2977
1.28091
1.24864
1.18943
1.08988
0.923357
0.651865
0.196418
0.378989
1.44439
1.91317
2.21786
2.41031
2.52426
2.58652
2.61795
2.63256
2.63882
2.6413
2.64219
2.64242
2.64222
2.64138
2.63899
2.63281
2.61827
2.58698
2.52492
2.41129
2.2193
1.91521
1.44698
0.38065
0.51999
2.37901
3.10296
3.52264
3.78504
3.93985
4.02461
4.06732
4.08712
4.0956
4.09895
4.10015
4.10045
4.10018
4.09903
4.09574
4.08734
4.06759
4.02491
3.94011
3.78517
3.52253
3.10213
2.37589
0.517832
0.606084
3.17992
4.17808
4.69538
5.0028
5.18144
5.27847
5.3272
5.34974
5.35937
5.36316
5.36451
5.36483
5.36452
5.36321
5.35947
5.34991
5.3274
5.27862
5.18141
5.00237
4.69423
4.17526
3.17411
0.604262
0.615608
3.58207
4.81928
5.41199
5.73348
5.91137
6.00523
6.05143
6.0725
6.0814
6.08486
6.08606
6.08634
6.08604
6.08484
6.0814
6.07255
6.05152
6.00534
5.91145
5.73357
5.41194
4.81979
3.58805
0.613737
0.59187
3.48675
4.88926
5.53721
5.86571
6.03519
6.1208
6.16178
6.17998
6.18749
6.19035
6.19132
6.19153
6.19128
6.19028
6.18741
6.17993
6.16181
6.12096
6.03561
5.86711
5.54026
4.89577
3.50271
0.588462
0.518703
3.00166
4.23984
4.81407
5.09595
5.23642
5.30424
5.33531
5.34867
5.35399
5.35596
5.3566
5.35673
5.35655
5.35585
5.35382
5.34839
5.33481
5.30318
5.23415
5.09191
4.80584
4.22443
2.97021
0.516773
0.430842
2.35659
3.30655
3.74926
3.96268
4.06712
4.1159
4.13736
4.14621
4.14963
4.15086
4.15126
4.15132
4.15119
4.15074
4.14946
4.14597
4.137
4.11527
4.0659
3.96072
3.74568
3.30015
2.34815
0.429629
0.321749
1.32881
1.86207
2.11397
2.23214
2.28805
2.31348
2.32448
2.32897
2.33071
2.33136
2.33157
2.33161
2.33153
2.33128
2.33059
2.32879
2.32423
2.3131
2.28738
2.23105
2.11247
1.85852
1.32388
0.320679
0.167608
0.309527
0.434626
0.488409
0.51333
0.52519
0.530774
0.533266
0.534304
0.534712
0.534855
0.534886
0.534849
0.534765
0.534629
0.53437
0.533827
0.53263
0.529957
0.524167
0.51207
0.48707
0.432296
0.306686
0.166517
0.0461352
0.0837122
0.0785025
0.0744862
0.072435
0.0714311
0.0709549
0.0707403
0.0706494
0.0706129
0.0705991
0.0705944
0.0705941
0.0705963
0.0706021
0.0706172
0.0706553
0.0707477
0.0709645
0.0714463
0.0724607
0.0745084
0.0786479
0.083967
0.0453599
0.0384469
0.229818
0.320297
0.329996
0.330017
0.329744
0.32961
0.32955
0.329524
0.329513
0.329509
0.329507
0.329507
0.329508
0.32951
0.329515
0.329526
0.329553
0.329613
0.329748
0.330022
0.330001
0.320414
0.23011
0.0383634
0.0352146
0.219857
0.322826
0.336848
0.337715
0.337704
0.337691
0.337688
0.337688
0.337688
0.337688
0.337688
0.337688
0.337688
0.337688
0.337688
0.337688
0.337688
0.337691
0.337703
0.337714
0.336899
0.323396
0.221729
0.0353982
0.0329391
0.210747
0.319901
0.336545
0.33773
0.337732
0.337716
0.337712
0.337712
0.337712
0.337712
0.337712
0.337712
0.337712
0.337712
0.337712
0.337712
0.337712
0.337716
0.337731
0.337733
0.336647
0.320889
0.213544
0.0338295
0.0318007
0.203288
0.317319
0.336203
0.337711
0.337735
0.337717
0.337713
0.337712
0.337712
0.337712
0.337712
0.337712
0.337712
0.337712
0.337712
0.337712
0.337713
0.337718
0.337739
0.337708
0.335996
0.315624
0.199355
0.0312214
0.029116
0.19129
0.311996
0.335419
0.337653
0.337736
0.337719
0.337713
0.337712
0.337712
0.337712
0.337712
0.337712
0.337712
0.337712
0.337712
0.337712
0.337713
0.33772
0.337738
0.337646
0.335267
0.310915
0.189064
0.0285395
0.0289786
0.191515
0.312379
0.335371
0.337613
0.337725
0.337717
0.337713
0.337712
0.337712
0.337712
0.337712
0.337712
0.337712
0.337712
0.337712
0.337712
0.337713
0.337716
0.337724
0.337619
0.335458
0.312973
0.192734
0.0290391
0.029168
0.194317
0.313312
0.335358
0.33756
0.337708
0.337713
0.337712
0.337712
0.337712
0.337712
0.337712
0.337712
0.337712
0.337712
0.337712
0.337712
0.337712
0.337713
0.337707
0.337556
0.335336
0.313185
0.193958
0.0292358
0.0281247
0.182739
0.306832
0.334106
0.337365
0.337675
0.337706
0.337711
0.337712
0.337712
0.337712
0.337712
0.337712
0.337712
0.337712
0.337712
0.337712
0.337711
0.337707
0.33768
0.337408
0.334455
0.308698
0.186063
0.0285895
0.0275139
0.173738
0.300588
0.332741
0.337147
0.337639
0.3377
0.33771
0.337711
0.337712
0.337712
0.337712
0.337712
0.337712
0.337712
0.337712
0.337711
0.33771
0.3377
0.337638
0.337138
0.332659
0.300126
0.172874
0.027194
0.0306947
0.186554
0.30737
0.333973
0.337293
0.337656
0.337703
0.33771
0.337712
0.337712
0.337712
0.337712
0.337712
0.337712
0.337712
0.337712
0.337711
0.33771
0.337702
0.337649
0.337244
0.333608
0.305472
0.183133
0.0301087
0.0340679
0.202149
0.314858
0.335286
0.337465
0.337681
0.337707
0.337711
0.337712
0.337712
0.337712
0.337712
0.337712
0.337712
0.337712
0.337712
0.337712
0.337711
0.337707
0.337678
0.337446
0.335153
0.314166
0.200871
0.0339767
0.0374873
0.216736
0.320663
0.33617
0.337573
0.337696
0.33771
0.337711
0.337712
0.337712
0.337712
0.337712
0.337712
0.337712
0.337712
0.337712
0.337712
0.337711
0.33771
0.337696
0.337579
0.336241
0.321265
0.21861
0.0378625
0.0409083
0.231369
0.325345
0.33677
0.337638
0.337704
0.337711
0.337712
0.337712
0.337712
0.337712
0.337712
0.337712
0.337712
0.337712
0.337712
0.337712
0.337712
0.337711
0.337704
0.337638
0.336772
0.325328
0.231168
0.040792
0.0431225
0.239675
0.327591
0.337026
0.337664
0.337707
0.337711
0.337712
0.337712
0.337712
0.337712
0.337712
0.337712
0.337712
0.337712
0.337712
0.337712
0.337712
0.337711
0.337707
0.337662
0.33701
0.327432
0.239032
0.0430471
0.0455953
0.247407
0.329332
0.337195
0.337678
0.337709
0.337711
0.337712
0.337712
0.337712
0.337712
0.337712
0.337712
0.337712
0.337712
0.337712
0.337712
0.337712
0.337711
0.337709
0.33768
0.337217
0.32959
0.248671
0.0458372
0.0482285
0.256124
0.331035
0.337342
0.33769
0.33771
0.337712
0.337712
0.337712
0.337712
0.337712
0.337712
0.337712
0.337712
0.337712
0.337712
0.337712
0.337712
0.337712
0.33771
0.337689
0.337324
0.330793
0.254727
0.0478787
0.0501951
0.26161
0.331995
0.337419
0.337696
0.33771
0.337712
0.337712
0.337712
0.337712
0.337712
0.337712
0.337712
0.337712
0.337712
0.337712
0.337712
0.337712
0.337712
0.33771
0.337695
0.337416
0.331959
0.261483
0.0503046
0.0523634
0.266707
0.332782
0.337476
0.337699
0.337711
0.337712
0.337712
0.337712
0.337712
0.337712
0.337712
0.337712
0.337712
0.337712
0.337712
0.337712
0.337712
0.337712
0.337711
0.337701
0.337496
0.33307
0.268664
0.0527433
0.0549695
0.274224
0.333826
0.337546
0.337704
0.337711
0.337712
0.337712
0.337712
0.337712
0.337712
0.337712
0.337712
0.337712
0.337712
0.337712
0.337712
0.337712
0.337712
0.337711
0.337703
0.337532
0.333603
0.272441
0.0544781
0.0565697
0.278114
0.33432
0.337577
0.337706
0.337711
0.337712
0.337712
0.337712
0.337712
0.337712
0.337712
0.337712
0.337712
0.337712
0.337712
0.337712
0.337712
0.337712
0.337711
0.337706
0.337577
0.334327
0.27824
0.0567548
0.0581836
0.280942
0.334643
0.337595
0.337707
0.337711
0.337712
0.337712
0.337712
0.337712
0.337712
0.337712
0.337712
0.337712
0.337712
0.337712
0.337712
0.337712
0.337712
0.337711
0.337707
0.337603
0.334786
0.282228
0.0584203
0.0602347
0.285977
0.335174
0.337624
0.337708
0.337712
0.337712
0.337712
0.337712
0.337712
0.337712
0.337712
0.337712
0.337712
0.337712
0.337712
0.337712
0.337712
0.337712
0.337711
0.337708
0.337618
0.335069
0.284899
0.059944
0.0615104
0.288595
0.335433
0.337637
0.337709
0.337712
0.337712
0.337712
0.337712
0.337712
0.337712
0.337712
0.337712
0.337712
0.337712
0.337712
0.337712
0.337712
0.337712
0.337712
0.337709
0.337638
0.335458
0.288878
0.0616827
0.0627517
0.290245
0.335584
0.337644
0.337709
0.337712
0.337712
0.337712
0.337712
0.337712
0.337712
0.337712
0.337712
0.337712
0.337712
0.337712
0.337712
0.337712
0.337712
0.337712
0.337709
0.337648
0.33567
0.291202
0.0628979
0.0643758
0.293832
0.335893
0.337658
0.33771
0.337712
0.337712
0.337712
0.337712
0.337712
0.337712
0.337712
0.337712
0.337712
0.337712
0.337712
0.337712
0.337712
0.337712
0.337712
0.33771
0.337654
0.335805
0.292763
0.064106
0.0653978
0.295652
0.336043
0.337665
0.33771
0.337712
0.337712
0.337712
0.337712
0.337712
0.337712
0.337712
0.337712
0.337712
0.337712
0.337712
0.337712
0.337712
0.337712
0.337712
0.33771
0.337665
0.336055
0.295817
0.0655277
0.0663752
0.296697
0.336124
0.337668
0.33771
0.337712
0.337712
0.337712
0.337712
0.337712
0.337712
0.337712
0.337712
0.337712
0.337712
0.337712
0.337712
0.337712
0.337712
0.337712
0.33771
0.337671
0.336186
0.297514
0.066488
0.0676207
0.299327
0.33632
0.337676
0.337711
0.337712
0.337712
0.337712
0.337712
0.337712
0.337712
0.337712
0.337712
0.337712
0.337712
0.337712
0.337712
0.337712
0.337712
0.337712
0.337711
0.337673
0.336253
0.298391
0.0674056
0.068407
0.300607
0.336411
0.33768
0.337711
0.337712
0.337712
0.337712
0.337712
0.337712
0.337712
0.337712
0.337712
0.337712
0.337712
0.337712
0.337712
0.337712
0.337712
0.337712
0.337711
0.33768
0.336418
0.300716
0.0685032
0.0691411
0.301224
0.336454
0.337681
0.337711
0.337712
0.337712
0.337712
0.337712
0.337712
0.337712
0.337712
0.337712
0.337712
0.337712
0.337712
0.337712
0.337712
0.337712
0.337712
0.337711
0.337683
0.336503
0.301955
0.06923
0.0700543
0.303183
0.336584
0.337686
0.337711
0.337712
0.337712
0.337712
0.337712
0.337712
0.337712
0.337712
0.337712
0.337712
0.337712
0.337712
0.337712
0.337712
0.337712
0.337712
0.337711
0.337684
0.336535
0.302418
0.069903
0.070626
0.304086
0.336642
0.337688
0.337711
0.337712
0.337712
0.337712
0.337712
0.337712
0.337712
0.337712
0.337712
0.337712
0.337712
0.337712
0.337712
0.337712
0.337712
0.337712
0.337711
0.337688
0.336644
0.304127
0.0706853
0.0711443
0.304405
0.336663
0.337689
0.337711
0.337712
0.337712
0.337712
0.337712
0.337712
0.337712
0.337712
0.337712
0.337712
0.337712
0.337712
0.337712
0.337712
0.337712
0.337712
0.337711
0.33769
0.336701
0.305035
0.0712076
0.0717629
0.305855
0.336751
0.337692
0.337711
0.337712
0.337712
0.337712
0.337712
0.337712
0.337712
0.337712
0.337712
0.337712
0.337712
0.337712
0.337712
0.337712
0.337712
0.337712
0.337711
0.337691
0.336718
0.305287
0.0716746
0.0721428
0.306481
0.336788
0.337693
0.337711
0.337712
0.337712
0.337712
0.337712
0.337712
0.337712
0.337712
0.337712
0.337712
0.337712
0.337712
0.337712
0.337712
0.337712
0.337712
0.337711
0.337693
0.336787
0.306448
0.07217
0.0724746
0.306594
0.336797
0.337693
0.337711
0.337712
0.337712
0.337712
0.337712
0.337712
0.337712
0.337712
0.337712
0.337712
0.337712
0.337712
0.337712
0.337712
0.337712
0.337712
0.337711
0.337694
0.336826
0.307117
0.072513
0.0728417
0.307646
0.336857
0.337695
0.337711
0.337712
0.337712
0.337712
0.337712
0.337712
0.337712
0.337712
0.337712
0.337712
0.337712
0.337712
0.337712
0.337712
0.337712
0.337712
0.337711
0.337695
0.336835
0.307259
0.0727977
0.0730595
0.308068
0.33688
0.337696
0.337711
0.337712
0.337712
0.337712
0.337712
0.337712
0.337712
0.337712
0.337712
0.337712
0.337712
0.337712
0.337712
0.337712
0.337712
0.337712
0.337711
0.337696
0.336872
0.307924
0.07306
0.0732694
0.308453
0.336894
0.337696
0.337711
0.337712
0.337712
0.337712
0.337712
0.337712
0.337712
0.337712
0.337712
0.337712
0.337712
0.337712
0.337712
0.337712
0.337712
0.337712
0.337711
0.337696
0.336904
0.30864
0.0732797
0.152098
0.331589
0.33783
0.337886
0.337883
0.33788
0.337877
0.337874
0.337871
0.337869
0.337866
0.337864
0.337861
0.337859
0.337856
0.337854
0.337852
0.33785
0.337847
0.337845
0.337843
0.337841
0.337839
0.337837
0.337835
0.337834
0.337832
0.33782
0.335704
0.172654
0.14349
0.333693
0.337698
0.33772
0.337719
0.337719
0.337718
0.337718
0.337718
0.337718
0.337718
0.337717
0.337717
0.337717
0.337717
0.337717
0.337716
0.337716
0.337716
0.337716
0.337716
0.337716
0.337716
0.337716
0.337715
0.337715
0.337715
0.337703
0.335339
0.170721
0.150299
0.334779
0.337697
0.337712
0.337712
0.337712
0.337712
0.337712
0.337712
0.337712
0.337712
0.337712
0.337712
0.337712
0.337712
0.337712
0.337712
0.337712
0.337712
0.337712
0.337712
0.337712
0.337712
0.337712
0.337712
0.337712
0.337712
0.337699
0.335258
0.169065
0.1542
0.334744
0.337696
0.337712
0.337712
0.337712
0.337712
0.337712
0.337712
0.337712
0.337712
0.337712
0.337712
0.337712
0.337712
0.337712
0.337712
0.337712
0.337712
0.337712
0.337712
0.337712
0.337712
0.337712
0.337712
0.337712
0.337712
0.337699
0.335199
0.167664
0.153988
0.334558
0.337694
0.337712
0.337712
0.337712
0.337712
0.337712
0.337712
0.337712
0.337712
0.337712
0.337712
0.337712
0.337712
0.337712
0.337712
0.337712
0.337712
0.337712
0.337712
0.337712
0.337712
0.337712
0.337712
0.337712
0.337712
0.337698
0.335137
0.16639
0.15365
0.334533
0.337695
0.337712
0.337712
0.337712
0.337712
0.337712
0.337712
0.337712
0.337712
0.337712
0.337712
0.337712
0.337712
0.337712
0.337712
0.337712
0.337712
0.337712
0.337712
0.337712
0.337712
0.337712
0.337712
0.337712
0.337712
0.337698
0.335073
0.165172
0.153681
0.334559
0.337695
0.337712
0.337712
0.337712
0.337712
0.337712
0.337712
0.337712
0.337712
0.337712
0.337712
0.337712
0.337712
0.337712
0.337712
0.337712
0.337712
0.337712
0.337712
0.337712
0.337712
0.337712
0.337712
0.337712
0.337712
0.337697
0.335011
0.16402
0.154128
0.334597
0.337695
0.337712
0.337712
0.337712
0.337712
0.337712
0.337712
0.337712
0.337712
0.337712
0.337712
0.337712
0.337712
0.337712
0.337712
0.337712
0.337712
0.337712
0.337712
0.337712
0.337712
0.337712
0.337712
0.337712
0.337712
0.337697
0.334954
0.162953
0.154582
0.334613
0.337695
0.337712
0.337712
0.337712
0.337712
0.337712
0.337712
0.337712
0.337712
0.337712
0.337712
0.337712
0.337712
0.337712
0.337712
0.337712
0.337712
0.337712
0.337712
0.337712
0.337712
0.337712
0.337712
0.337712
0.337712
0.337696
0.334902
0.161984
0.154874
0.33461
0.337695
0.337712
0.337712
0.337712
0.337712
0.337712
0.337712
0.337712
0.337712
0.337712
0.337712
0.337712
0.337712
0.337712
0.337712
0.337712
0.337712
0.337712
0.337712
0.337712
0.337712
0.337712
0.337712
0.337712
0.337712
0.337696
0.334854
0.161108
0.154981
0.334597
0.337695
0.337712
0.337712
0.337712
0.337712
0.337712
0.337712
0.337712
0.337712
0.337712
0.337712
0.337712
0.337712
0.337712
0.337712
0.337712
0.337712
0.337712
0.337712
0.337712
0.337712
0.337712
0.337712
0.337712
0.337712
0.337695
0.334809
0.160314
0.154971
0.334583
0.337695
0.337712
0.337712
0.337712
0.337712
0.337712
0.337712
0.337712
0.337712
0.337712
0.337712
0.337712
0.337712
0.337712
0.337712
0.337712
0.337712
0.337712
0.337712
0.337712
0.337712
0.337712
0.337712
0.337712
0.337712
0.337695
0.334768
0.15959
0.154933
0.33457
0.337695
0.337712
0.337712
0.337712
0.337712
0.337712
0.337712
0.337712
0.337712
0.337712
0.337712
0.337712
0.337712
0.337712
0.337712
0.337712
0.337712
0.337712
0.337712
0.337712
0.337712
0.337712
0.337712
0.337712
0.337712
0.337695
0.33473
0.15893
0.154846
0.334561
0.337695
0.337712
0.337712
0.337712
0.337712
0.337712
0.337712
0.337712
0.337712
0.337712
0.337712
0.337712
0.337712
0.337712
0.337712
0.337712
0.337712
0.337712
0.337712
0.337712
0.337712
0.337712
0.337712
0.337712
0.337712
0.337694
0.334694
0.158329
0.154858
0.334556
0.337694
0.337712
0.337712
0.337712
0.337712
0.337712
0.337712
0.337712
0.337712
0.337712
0.337712
0.337712
0.337712
0.337712
0.337712
0.337712
0.337712
0.337712
0.337712
0.337712
0.337712
0.337712
0.337712
0.337712
0.337712
0.337694
0.334662
0.157787
0.154779
0.334542
0.337694
0.337712
0.337712
0.337712
0.337712
0.337712
0.337712
0.337712
0.337712
0.337712
0.337712
0.337712
0.337712
0.337712
0.337712
0.337712
0.337712
0.337712
0.337712
0.337712
0.337712
0.337712
0.337712
0.337712
0.337712
0.337694
0.334633
0.157301
0.154743
0.334538
0.337694
0.337712
0.337712
0.337712
0.337712
0.337712
0.337712
0.337712
0.337712
0.337712
0.337712
0.337712
0.337712
0.337712
0.337712
0.337712
0.337712
0.337712
0.337712
0.337712
0.337712
0.337712
0.337712
0.337712
0.337712
0.337694
0.334607
0.156867
0.154742
0.334532
0.337694
0.337712
0.337712
0.337712
0.337712
0.337712
0.337712
0.337712
0.337712
0.337712
0.337712
0.337712
0.337712
0.337712
0.337712
0.337712
0.337712
0.337712
0.337712
0.337712
0.337712
0.337712
0.337712
0.337712
0.337712
0.337693
0.334585
0.156484
0.154701
0.334524
0.337694
0.337712
0.337712
0.337712
0.337712
0.337712
0.337712
0.337712
0.337712
0.337712
0.337712
0.337712
0.337712
0.337712
0.337712
0.337712
0.337712
0.337712
0.337712
0.337712
0.337712
0.337712
0.337712
0.337712
0.337712
0.337693
0.334565
0.15615
0.154711
0.334523
0.337694
0.337712
0.337712
0.337712
0.337712
0.337712
0.337712
0.337712
0.337712
0.337712
0.337712
0.337712
0.337712
0.337712
0.337712
0.337712
0.337712
0.337712
0.337712
0.337712
0.337712
0.337712
0.337712
0.337712
0.337712
0.337693
0.334548
0.155862
0.154729
0.334518
0.337693
0.337712
0.337712
0.337712
0.337712
0.337712
0.337712
0.337712
0.337712
0.337712
0.337712
0.337712
0.337712
0.337712
0.337712
0.337712
0.337712
0.337712
0.337712
0.337712
0.337712
0.337712
0.337712
0.337712
0.337712
0.337693
0.334534
0.155618
0.154737
0.334516
0.337693
0.337712
0.337712
0.337712
0.337712
0.337712
0.337712
0.337712
0.337712
0.337712
0.337712
0.337712
0.337712
0.337712
0.337712
0.337712
0.337712
0.337712
0.337712
0.337712
0.337712
0.337712
0.337712
0.337712
0.337712
0.337693
0.334522
0.155415
0.154797
0.334518
0.337693
0.337712
0.337712
0.337712
0.337712
0.337712
0.337712
0.337712
0.337712
0.337712
0.337712
0.337712
0.337712
0.337712
0.337712
0.337712
0.337712
0.337712
0.337712
0.337712
0.337712
0.337712
0.337712
0.337712
0.337712
0.337693
0.334513
0.155252
0.154849
0.334519
0.337693
0.337712
0.337712
0.337712
0.337712
0.337712
0.337712
0.337712
0.337712
0.337712
0.337712
0.337712
0.337712
0.337712
0.337712
0.337712
0.337712
0.337712
0.337712
0.337712
0.337712
0.337712
0.337712
0.337712
0.337712
0.337693
0.334507
0.155126
0.15492
0.334804
0.337696
0.337712
0.337712
0.337712
0.337712
0.337712
0.337712
0.337712
0.337712
0.337712
0.337712
0.337712
0.337712
0.337712
0.337712
0.337712
0.337712
0.337712
0.337712
0.337712
0.337712
0.337712
0.337712
0.337712
0.337712
0.337693
0.334503
0.155033
0.172653
0.335704
0.33782
0.337832
0.337834
0.337835
0.337837
0.337839
0.337841
0.337843
0.337845
0.337847
0.33785
0.337852
0.337854
0.337856
0.337859
0.337861
0.337864
0.337866
0.337869
0.337872
0.337874
0.337877
0.33788
0.337883
0.337886
0.33783
0.331584
0.152057
0.17072
0.335339
0.337703
0.337715
0.337715
0.337715
0.337716
0.337716
0.337716
0.337716
0.337716
0.337716
0.337716
0.337716
0.337717
0.337717
0.337717
0.337717
0.337717
0.337718
0.337718
0.337718
0.337718
0.337718
0.337719
0.337719
0.33772
0.337698
0.333694
0.14351
0.169063
0.335257
0.337699
0.337712
0.337712
0.337712
0.337712
0.337712
0.337712
0.337712
0.337712
0.337712
0.337712
0.337712
0.337712
0.337712
0.337712
0.337712
0.337712
0.337712
0.337712
0.337712
0.337712
0.337712
0.337712
0.337712
0.337712
0.337697
0.334779
0.150264
0.167663
0.335199
0.337699
0.337712
0.337712
0.337712
0.337712
0.337712
0.337712
0.337712
0.337712
0.337712
0.337712
0.337712
0.337712
0.337712
0.337712
0.337712
0.337712
0.337712
0.337712
0.337712
0.337712
0.337712
0.337712
0.337712
0.337712
0.337696
0.334749
0.154251
0.16639
0.335137
0.337698
0.337712
0.337712
0.337712
0.337712
0.337712
0.337712
0.337712
0.337712
0.337712
0.337712
0.337712
0.337712
0.337712
0.337712
0.337712
0.337712
0.337712
0.337712
0.337712
0.337712
0.337712
0.337712
0.337712
0.337712
0.337694
0.334555
0.154009
0.165171
0.335072
0.337698
0.337712
0.337712
0.337712
0.337712
0.337712
0.337712
0.337712
0.337712
0.337712
0.337712
0.337712
0.337712
0.337712
0.337712
0.337712
0.337712
0.337712
0.337712
0.337712
0.337712
0.337712
0.337712
0.337712
0.337712
0.337695
0.334532
0.153578
0.16402
0.335011
0.337697
0.337712
0.337712
0.337712
0.337712
0.337712
0.337712
0.337712
0.337712
0.337712
0.337712
0.337712
0.337712
0.337712
0.337712
0.337712
0.337712
0.337712
0.337712
0.337712
0.337712
0.337712
0.337712
0.337712
0.337712
0.337695
0.334565
0.153777
0.162954
0.334954
0.337697
0.337712
0.337712
0.337712
0.337712
0.337712
0.337712
0.337712
0.337712
0.337712
0.337712
0.337712
0.337712
0.337712
0.337712
0.337712
0.337712
0.337712
0.337712
0.337712
0.337712
0.337712
0.337712
0.337712
0.337712
0.337695
0.334591
0.154076
0.161984
0.334902
0.337696
0.337712
0.337712
0.337712
0.337712
0.337712
0.337712
0.337712
0.337712
0.337712
0.337712
0.337712
0.337712
0.337712
0.337712
0.337712
0.337712
0.337712
0.337712
0.337712
0.337712
0.337712
0.337712
0.337712
0.337712
0.337695
0.334616
0.154588
0.161109
0.334854
0.337696
0.337712
0.337712
0.337712
0.337712
0.337712
0.337712
0.337712
0.337712
0.337712
0.337712
0.337712
0.337712
0.337712
0.337712
0.337712
0.337712
0.337712
0.337712
0.337712
0.337712
0.337712
0.337712
0.337712
0.337712
0.337695
0.334609
0.154896
0.160313
0.334809
0.337695
0.337712
0.337712
0.337712
0.337712
0.337712
0.337712
0.337712
0.337712
0.337712
0.337712
0.337712
0.337712
0.337712
0.337712
0.337712
0.337712
0.337712
0.337712
0.337712
0.337712
0.337712
0.337712
0.337712
0.337712
0.337695
0.334595
0.154929
0.159589
0.334768
0.337695
0.337712
0.337712
0.337712
0.337712
0.337712
0.337712
0.337712
0.337712
0.337712
0.337712
0.337712
0.337712
0.337712
0.337712
0.337712
0.337712
0.337712
0.337712
0.337712
0.337712
0.337712
0.337712
0.337712
0.337712
0.337695
0.334588
0.155013
0.158931
0.33473
0.337695
0.337712
0.337712
0.337712
0.337712
0.337712
0.337712
0.337712
0.337712
0.337712
0.337712
0.337712
0.337712
0.337712
0.337712
0.337712
0.337712
0.337712
0.337712
0.337712
0.337712
0.337712
0.337712
0.337712
0.337712
0.337695
0.334568
0.154926
0.158329
0.334694
0.337694
0.337712
0.337712
0.337712
0.337712
0.337712
0.337712
0.337712
0.337712
0.337712
0.337712
0.337712
0.337712
0.337712
0.337712
0.337712
0.337712
0.337712
0.337712
0.337712
0.337712
0.337712
0.337712
0.337712
0.337712
0.337695
0.334561
0.15484
0.157787
0.334662
0.337694
0.337712
0.337712
0.337712
0.337712
0.337712
0.337712
0.337712
0.337712
0.337712
0.337712
0.337712
0.337712
0.337712
0.337712
0.337712
0.337712
0.337712
0.337712
0.337712
0.337712
0.337712
0.337712
0.337712
0.337712
0.337694
0.334557
0.154854
0.157301
0.334633
0.337694
0.337712
0.337712
0.337712
0.337712
0.337712
0.337712
0.337712
0.337712
0.337712
0.337712
0.337712
0.337712
0.337712
0.337712
0.337712
0.337712
0.337712
0.337712
0.337712
0.337712
0.337712
0.337712
0.337712
0.337712
0.337694
0.334543
0.154793
0.156867
0.334607
0.337694
0.337712
0.337712
0.337712
0.337712
0.337712
0.337712
0.337712
0.337712
0.337712
0.337712
0.337712
0.337712
0.337712
0.337712
0.337712
0.337712
0.337712
0.337712
0.337712
0.337712
0.337712
0.337712
0.337712
0.337712
0.337694
0.334537
0.15473
0.156484
0.334585
0.337693
0.337712
0.337712
0.337712
0.337712
0.337712
0.337712
0.337712
0.337712
0.337712
0.337712
0.337712
0.337712
0.337712
0.337712
0.337712
0.337712
0.337712
0.337712
0.337712
0.337712
0.337712
0.337712
0.337712
0.337712
0.337694
0.334534
0.154738
0.156151
0.334565
0.337693
0.337712
0.337712
0.337712
0.337712
0.337712
0.337712
0.337712
0.337712
0.337712
0.337712
0.337712
0.337712
0.337712
0.337712
0.337712
0.337712
0.337712
0.337712
0.337712
0.337712
0.337712
0.337712
0.337712
0.337712
0.337694
0.334525
0.154719
0.155862
0.334548
0.337693
0.337712
0.337712
0.337712
0.337712
0.337712
0.337712
0.337712
0.337712
0.337712
0.337712
0.337712
0.337712
0.337712
0.337712
0.337712
0.337712
0.337712
0.337712
0.337712
0.337712
0.337712
0.337712
0.337712
0.337712
0.337694
0.334521
0.154697
0.155618
0.334534
0.337693
0.337712
0.337712
0.337712
0.337712
0.337712
0.337712
0.337712
0.337712
0.337712
0.337712
0.337712
0.337712
0.337712
0.337712
0.337712
0.337712
0.337712
0.337712
0.337712
0.337712
0.337712
0.337712
0.337712
0.337712
0.337693
0.33452
0.154726
0.155416
0.334522
0.337693
0.337712
0.337712
0.337712
0.337712
0.337712
0.337712
0.337712
0.337712
0.337712
0.337712
0.337712
0.337712
0.337712
0.337712
0.337712
0.337712
0.337712
0.337712
0.337712
0.337712
0.337712
0.337712
0.337712
0.337712
0.337693
0.334516
0.154754
0.155252
0.334513
0.337693
0.337712
0.337712
0.337712
0.337712
0.337712
0.337712
0.337712
0.337712
0.337712
0.337712
0.337712
0.337712
0.337712
0.337712
0.337712
0.337712
0.337712
0.337712
0.337712
0.337712
0.337712
0.337712
0.337712
0.337712
0.337693
0.334516
0.154782
0.155125
0.334507
0.337693
0.337712
0.337712
0.337712
0.337712
0.337712
0.337712
0.337712
0.337712
0.337712
0.337712
0.337712
0.337712
0.337712
0.337712
0.337712
0.337712
0.337712
0.337712
0.337712
0.337712
0.337712
0.337712
0.337712
0.337712
0.337693
0.33452
0.15485
0.155033
0.334503
0.337693
0.337712
0.337712
0.337712
0.337712
0.337712
0.337712
0.337712
0.337712
0.337712
0.337712
0.337712
0.337712
0.337712
0.337712
0.337712
0.337712
0.337712
0.337712
0.337712
0.337712
0.337712
0.337712
0.337712
0.337712
0.337696
0.334804
0.154923
0.125929
0.126163
0.126398
0.126632
0.126867
0.127101
0.127336
0.12757
0.127805
0.128039
0.128274
0.128509
0.128743
0.128978
0.129212
0.129447
0.129681
0.129916
0.13015
0.130385
0.130619
0.130854
0.131088
0.131323
0.131557
0.131792
0.132027
0.132261
0.132496
0.13273
0.132965
0.133199
0.133434
0.133668
0.133903
0.134138
0.134372
0.134607
0.134841
0.135076
0.13531
0.135545
0.135779
0.136014
0.136249
0.136483
0.136718
0.136952
0.137187
0.137421
0.137656
0.13789
0.138125
0.13836
0.138594
0.138829
0.139063
0.139298
0.139532
0.139767
0.140002
0.140236
0.140471
0.140705
0.14094
0.141175
0.141409
0.141644
0.141878
0.142113
0.142347
0.142582
0.142817
0.143051
0.143286
0.14352
0.143755
0.14399
0.144224
0.144459
0.144693
0.144928
0.145163
0.145397
0.145632
0.145866
0.146101
0.146336
0.14657
0.146805
0.147039
0.147274
0.147509
0.147743
0.147978
0.148212
0.148447
0.148682
0.148916
0.149151
0.149385
0.14962
0.149855
0.150089
0.150324
0.150558
0.150793
0.151028
0.151262
0.151497
0.151732
0.151966
0.152201
0.152435
0.15267
0.152905
0.153139
0.153374
0.153608
0.153843
0.154078
0.154312
0.154547
0.154782
0.155016
0.331388
0.331438
0.331474
0.33151
0.331545
0.331581
0.331616
0.33165
0.331685
0.331719
0.331753
0.331787
0.331821
0.331854
0.331887
0.33192
0.331953
0.331985
0.332018
0.33205
0.332082
0.332113
0.332145
0.332176
0.332207
0.332238
0.332268
0.332298
0.332329
0.332359
0.332388
0.332418
0.332447
0.332476
0.332505
0.332534
0.332563
0.332591
0.33262
0.332648
0.332675
0.332703
0.332731
0.332758
0.332785
0.332812
0.332839
0.332865
0.332892
0.332918
0.332944
0.33297
0.332996
0.333022
0.333047
0.333072
0.333097
0.333122
0.333147
0.333172
0.333196
0.333221
0.333245
0.333269
0.333293
0.333316
0.33334
0.333363
0.333387
0.33341
0.333433
0.333456
0.333478
0.333501
0.333523
0.333546
0.333568
0.33359
0.333612
0.333633
0.333655
0.333676
0.333698
0.333719
0.33374
0.333761
0.333782
0.333802
0.333823
0.333843
0.333863
0.333884
0.333904
0.333924
0.333943
0.333963
0.333983
0.334002
0.334021
0.334041
0.33406
0.334079
0.334097
0.334116
0.334135
0.334153
0.334172
0.33419
0.334208
0.334226
0.334244
0.334262
0.33428
0.334298
0.334315
0.334333
0.33435
0.334367
0.334384
0.334401
0.334418
0.334435
0.334452
0.334469
0.334489
0.337654
0.337655
0.337655
0.337656
0.337656
0.337657
0.337657
0.337658
0.337658
0.337659
0.337659
0.33766
0.33766
0.337661
0.337661
0.337662
0.337662
0.337663
0.337663
0.337664
0.337664
0.337664
0.337665
0.337665
0.337666
0.337666
0.337667
0.337667
0.337667
0.337668
0.337668
0.337669
0.337669
0.337669
0.33767
0.33767
0.337671
0.337671
0.337671
0.337672
0.337672
0.337672
0.337673
0.337673
0.337673
0.337674
0.337674
0.337674
0.337675
0.337675
0.337675
0.337676
0.337676
0.337676
0.337677
0.337677
0.337677
0.337678
0.337678
0.337678
0.337679
0.337679
0.337679
0.337679
0.33768
0.33768
0.33768
0.33768
0.337681
0.337681
0.337681
0.337682
0.337682
0.337682
0.337682
0.337683
0.337683
0.337683
0.337683
0.337684
0.337684
0.337684
0.337684
0.337685
0.337685
0.337685
0.337685
0.337685
0.337686
0.337686
0.337686
0.337686
0.337687
0.337687
0.337687
0.337687
0.337687
0.337688
0.337688
0.337688
0.337688
0.337688
0.337689
0.337689
0.337689
0.337689
0.337689
0.33769
0.33769
0.33769
0.33769
0.33769
0.33769
0.337691
0.337691
0.337691
0.337691
0.337691
0.337691
0.337692
0.337692
0.337692
0.337692
0.337692
0.337692
0.337711
0.337711
0.337711
0.337711
0.337711
0.337711
0.337711
0.337711
0.337711
0.337711
0.337711
0.337711
0.337711
0.337711
0.337711
0.337711
0.337711
0.337711
0.337711
0.337711
0.337711
0.337711
0.337711
0.337711
0.337711
0.337711
0.337711
0.337711
0.337711
0.337711
0.337711
0.337711
0.337711
0.337712
0.337712
0.337712
0.337712
0.337712
0.337712
0.337712
0.337712
0.337712
0.337712
0.337712
0.337712
0.337712
0.337712
0.337712
0.337712
0.337712
0.337712
0.337712
0.337712
0.337712
0.337712
0.337712
0.337712
0.337712
0.337712
0.337712
0.337712
0.337712
0.337712
0.337712
0.337712
0.337712
0.337712
0.337712
0.337712
0.337712
0.337712
0.337712
0.337712
0.337712
0.337712
0.337712
0.337712
0.337712
0.337712
0.337712
0.337712
0.337712
0.337712
0.337712
0.337712
0.337712
0.337712
0.337712
0.337712
0.337712
0.337712
0.337712
0.337712
0.337712
0.337712
0.337712
0.337712
0.337712
0.337712
0.337712
0.337712
0.337712
0.337712
0.337712
0.337712
0.337712
0.337712
0.337712
0.337712
0.337712
0.337712
0.337712
0.337712
0.337712
0.337712
0.337712
0.337712
0.337712
0.337712
0.337712
0.337712
0.337712
0.337712
0.337712
0.337712
0.337712
0.337712
0.337712
0.337712
0.337712
0.337712
0.337712
0.337712
0.337712
0.337712
0.337712
0.337712