/*--------------------------------*- C++ -*----------------------------------*\
| =========                 |                                                 |
| \\      /  F ield         | OpenFOAM: The Open Source CFD Toolbox           |
|  \\    /   O peration     | Version:  2112                                  |
|   \\  /    A nd           | Website:  www.openfoam.com                      |
|    \\/     M anipulation  |                                                 |
\*---------------------------------------------------------------------------*/
FoamFile
{
    version     2.0;
    format      ascii;
    arch        "LSB;label=32;scalar=64";
    class       surfaceScalarField;
    location    "9e-05";
    object      phi;
}
// * * * * * * * * * * * * * * * * * * * * * * * * * * * * * * * * * * * * * //

dimensions      [1 0 -1 0 0 0 0];

oriented        oriented;

internalField   nonuniform List<scalar> 
27436
(
-0.704431
8.51937
-0.229335
7.44488
-0.126962
7.64207
-0.101405
7.72026
-0.0776666
7.75211
-0.0631984
7.77601
-0.0485626
7.78777
-0.0357794
7.79581
-0.0243994
7.8002
-0.0137699
7.80232
-0.00347235
7.80325
0.00664545
7.80363
0.0167126
7.80373
0.0268333
7.80371
0.0372436
7.80334
0.0476707
7.80253
0.0587812
7.80047
0.0717503
7.79589
0.0865637
7.78782
0.100863
7.77626
0.124821
7.75225
0.149506
7.72091
0.248
7.64371
0.683705
7.46204
8.53404
-0.458325
9.14576
-0.375334
7.66952
-0.247563
7.78342
-0.153294
7.92956
-0.101844
8.01005
-0.0708247
8.06119
-0.0504476
8.08837
-0.0356411
8.10383
-0.0237746
8.11197
-0.0132948
8.11582
-0.00336883
8.11744
0.00634932
8.11807
0.0160182
8.11824
0.0257687
8.11808
0.0356845
8.11748
0.0460249
8.11604
0.057706
8.11224
0.0723796
8.10398
0.0925649
8.08857
0.123227
8.06162
0.173981
8.01065
0.267619
7.9304
0.390425
7.78551
0.462076
7.68387
9.25743
-0.541944
9.90115
-0.479842
7.8648
-0.3577
7.79314
-0.24628
7.91594
-0.178776
8.0125
-0.137562
8.07449
-0.110612
8.1112
-0.0910097
8.13141
-0.0750972
8.14185
-0.0608622
8.1467
-0.0472855
8.1487
-0.0339384
8.14944
-0.0206393
8.14963
-0.00726447
8.14942
0.00631062
8.14863
0.0204697
8.14666
0.0362759
8.14183
0.0558385
8.13131
0.0828261
8.11104
0.124084
8.07429
0.191428
8.01246
0.302063
7.91691
0.420348
7.79596
0.481517
7.86896
9.98159
-0.493318
10.8894
-0.454995
7.73744
-0.353706
7.68713
-0.2541
7.79326
-0.183081
7.89709
-0.137389
7.96362
-0.106956
8.00778
-0.08464
8.03144
-0.0663807
8.04311
-0.0499404
8.04817
-0.0342467
8.05011
-0.0188152
8.05076
-0.00343365
8.05091
0.0120138
8.05072
0.0276879
8.04999
0.044048
8.04805
0.0622007
8.04305
0.0844111
8.0314
0.114737
8.00775
0.160243
7.96366
0.230551
7.89775
0.329097
7.79641
0.425729
7.69516
0.457633
7.7296
10.6844
-0.0954872
12.6376
-0.152921
9.14064
-0.21902
9.53865
-0.186415
9.67508
-0.139728
9.88549
-0.101492
10.0403
-0.0735328
10.1348
-0.0522701
10.1837
-0.0347775
10.2062
-0.0192316
10.2155
-0.00459369
10.2188
0.00970063
10.2199
0.0239256
10.2202
0.0382032
10.22
0.0527888
10.219
0.0682652
10.216
0.085606
10.2072
0.106541
10.1852
0.133942
10.1368
0.171292
10.043
0.216408
9.88858
0.247163
9.68606
0.184713
9.5529
0.120985
9.12629
12.3851
0.747563
11.6697
0.448688
10.5478
0.180159
10.5669
0.0205609
10.3898
-0.0354795
10.3813
-0.0461203
10.4129
-0.0397325
10.4437
-0.0286519
10.4569
-0.0168383
10.4672
-0.00524474
10.4717
0.00603959
10.4735
0.0171343
10.4742
0.0281688
10.4744
0.0392418
10.4742
0.0504741
10.4736
0.0619885
10.4719
0.073641
10.4676
0.0844302
10.4575
0.0905384
10.4444
0.0797614
10.4139
0.0228493
10.3834
-0.131469
10.3888
-0.403432
10.5691
-0.694419
10.5274
11.6967
0.888477
9.51673
0.654912
9.77955
0.345385
9.90681
0.118513
9.79326
0.00969029
9.76088
-0.0437354
9.77541
-0.0699847
9.78866
-0.0865629
9.79266
-0.100096
9.79527
-0.112843
9.79662
-0.125488
9.79738
-0.138161
9.7978
-0.150861
9.79791
-0.163545
9.79778
-0.176184
9.79741
-0.188905
9.79666
-0.202389
9.79526
-0.218961
9.79262
-0.245113
9.78855
-0.297316
9.77518
-0.407717
9.76241
-0.648723
9.79823
-0.933759
9.90088
-1.16452
9.77145
9.36919
0.615425
6.01593
0.607129
6.50751
0.456317
6.60999
0.309663
6.65615
0.2262
6.64817
0.178906
6.65102
0.149251
6.65305
0.126602
6.65492
0.106251
6.65635
0.0864634
6.65736
0.0667341
6.65801
0.0469827
6.65839
0.0272201
6.65849
0.00746464
6.65836
-0.012262
6.65799
-0.0320717
6.6573
-0.0525171
6.65613
-0.0753547
6.65444
-0.105373
6.65221
-0.153265
6.64914
-0.237192
6.64417
-0.377377
6.64832
-0.524032
6.59361
-0.490182
6.47401
5.98797
0.0521704
2.23272
0.0828176
2.30221
0.0692202
2.33663
0.0457714
2.33266
0.0299784
2.3278
0.0233049
2.32802
0.0213807
2.32982
0.0212328
2.33139
0.0215265
2.33244
0.0218591
2.33323
0.0221455
2.33386
0.0224033
2.33438
0.0226443
2.33469
0.0228935
2.33478
0.0231894
2.33476
0.0235238
2.33455
0.0237991
2.33401
0.0235994
2.333
0.0216159
2.33142
0.0147928
2.32959
-0.00104173
2.3292
-0.0199098
2.33347
-0.0336652
2.33425
-0.00164135
2.29448
2.20647
-0.169951
0.149172
-0.165186
0.162242
-0.146562
0.172468
-0.133394
0.173119
-0.1196
0.173574
-0.104649
0.173969
-0.0892422
0.174306
-0.073569
0.174514
-0.0578322
0.174604
-0.0421017
0.174612
-0.0263819
0.174574
-0.0106686
0.174513
0.00504055
0.174443
0.0207449
0.174371
0.0364507
0.174289
0.052154
0.174183
0.0678403
0.174037
0.0834588
0.173817
0.0988709
0.173478
0.113801
0.172996
0.127504
0.172429
0.140882
0.171882
0.159691
0.170698
0.163632
0.159943
0.14276
-0.0129752
0.0156448
-0.016632
0.0171269
-0.0186976
0.0200195
-0.0181804
0.020796
-0.0164236
0.0211531
-0.0142627
0.0212532
-0.0120063
0.0212857
-0.00972741
0.0212998
-0.0074416
0.0213071
-0.00515324
0.0213113
-0.00286393
0.0213139
-0.000574262
0.0213158
0.00171584
0.0213173
0.00400574
0.0213187
0.00629543
0.0213198
0.00858412
0.0213203
0.0108701
0.0213191
0.0131486
0.0213142
0.0154031
0.0213024
0.0175635
0.0212718
0.0193054
0.0211722
0.0197374
0.0208211
0.0174493
0.0200367
0.0134021
0.0170818
0.0155183
-0.000334674
0.0110728
-0.00400149
0.0110829
-0.00781112
0.0137886
-0.0088968
0.01467
-0.0084507
0.0151202
-0.00745287
0.0152409
-0.00632518
0.0152648
-0.00517368
0.0152685
-0.00401841
0.015269
-0.00286256
0.015269
-0.00170661
0.015269
-0.000550632
0.015269
0.000605375
0.015269
0.0017614
0.0152691
0.00291743
0.0152691
0.00407341
0.0152692
0.00522891
0.0152693
0.00638084
0.0152689
0.00750982
0.0152656
0.00851232
0.0152439
0.00897247
0.0151337
0.00791625
0.0147164
0.00413223
0.0139051
0.000427863
0.0112603
0.0114004
0.000759836
0.0110855
-0.00297271
0.0103431
-0.00708931
0.0128018
-0.00849745
0.0134945
-0.00826811
0.0139053
-0.00736183
0.0140264
-0.00627732
0.0140547
-0.00515743
0.0140597
-0.00403164
0.0140604
-0.00290499
0.0140605
-0.00177823
0.0140605
-0.000651456
0.0140605
0.000475318
0.0140605
0.00160209
0.0140605
0.00272885
0.0140605
0.00385552
0.0140605
0.00498142
0.0140604
0.00610195
0.0140598
0.00719001
0.0140554
0.00811213
0.0140299
0.00839137
0.0139206
0.00708744
0.0135447
0.00311415
0.0129024
-0.000499172
0.0105152
0.0112683
0.00132235
0.0110083
-0.00240466
0.0100855
-0.00646838
0.0120197
-0.00802337
0.012522
-0.00798624
0.0128687
-0.00720853
0.0129752
-0.0062156
0.0130008
-0.00517584
0.0130055
-0.00412761
0.0130064
-0.00307806
0.0130065
-0.00202832
0.0130065
-0.000978556
0.0130065
7.12101e-05
0.0130065
0.00112097
0.0130065
0.00217072
0.0130065
0.00322028
0.0130065
0.00426862
0.0130063
0.00530911
0.0130051
0.00630598
0.0129986
0.00710034
0.0129684
0.00718533
0.0128427
0.00571444
0.0124433
0.00170043
0.0118357
-0.00197315
0.0097552
0.0103592
0.00242873
0.0105781
-0.000976514
0.00986418
-0.00482589
0.0112723
-0.00638384
0.0116105
-0.00647751
0.0119064
-0.00581559
0.0120053
-0.0049157
0.0120313
-0.00396011
0.0120366
-0.00299363
0.0120375
-0.00202529
0.0120377
-0.00105667
0.0120377
-8.80122e-05
0.0120377
0.00088065
0.0120377
0.00184931
0.0120377
0.00281791
0.0120377
0.00378615
0.0120377
0.00475204
0.0120375
0.00570438
0.0120364
0.00658951
0.0120299
0.00719915
0.011999
0.006976
0.0118842
0.00519911
0.0115534
0.00117732
0.0111792
-0.00226864
0.00969117
0.0102117
0.001314
0.0117799
-0.00158104
0.0105066
-0.00483695
0.0111675
-0.00626204
0.0110355
-0.00640116
0.011056
-0.00578835
0.0110642
-0.00490788
0.011068
-0.00395768
0.0110689
-0.0029925
0.0110691
-0.00202452
0.0110692
-0.00105607
0.0110692
-8.75449e-05
0.0110692
0.000880984
0.0110692
0.0018495
0.0110692
0.00281794
0.0110692
0.00378585
0.0110692
0.00475062
0.0110692
0.00569875
0.0110691
0.00657044
0.0110688
0.00715325
0.0110678
0.00693788
0.0110691
0.00536974
0.0110679
0.0019392
0.0112274
-0.00110336
0.0105232
0.0120144
0.00117705
0.013297
-0.000945635
0.0111184
-0.0031793
0.0110028
-0.0041673
0.0107094
-0.00432587
0.0105345
-0.00396479
0.010477
-0.00341842
0.0104638
-0.00282321
0.0104611
-0.00221715
0.0104606
-0.00160895
0.0104605
-0.00100037
0.0104605
-0.000391733
0.0104605
0.000216915
0.0104605
0.000825556
0.0104605
0.00143414
0.0104605
0.00204238
0.0104605
0.00264863
0.0104606
0.00324471
0.0104611
0.00379444
0.0104639
0.00416564
0.0104777
0.00402907
0.0105351
0.0030923
0.0107177
0.00089232
0.0109988
-0.00126755
0.0111453
0.0134966
7.42445e-05
0.013896
-0.000427436
0.0111959
-0.00104295
0.0109842
-0.00134465
0.0105947
-0.00142174
0.0104047
-0.00135749
0.0103471
-0.00124373
0.0103335
-0.00111701
0.0103307
-0.000987354
0.0103302
-0.00085711
0.0103302
-0.000726757
0.0103301
-0.000596385
0.0103301
-0.000466011
0.0103301
-0.00033564
0.0103301
-0.000205284
0.0103301
-7.5025e-05
0.0103302
5.47039e-05
0.0103302
0.000181832
0.0103305
0.000297508
0.0103323
0.000372524
0.0103413
0.00034989
0.0103807
0.000223269
0.0105139
-8.80393e-05
0.0109017
-0.000279612
0.0111192
0.013696
0.000249103
0.0112466
0.00221825
0.00996294
0.00414945
0.0107839
0.00500571
0.0107914
0.00505487
0.0109067
0.00463025
0.010948
0.00404744
0.0109603
0.00342481
0.010963
0.00279343
0.0109635
0.00216033
0.0109636
0.00152692
0.0109636
0.000893461
0.0109636
0.000259994
0.0109636
-0.000373467
0.0109636
-0.00100689
0.0109636
-0.00164004
0.0109636
-0.00227174
0.0109636
-0.00289586
0.0109632
-0.00348476
0.0109611
-0.00393111
0.0109515
-0.00394897
0.0109204
-0.0032698
0.0108336
-0.00156853
0.0108793
7.79446e-05
0.0100858
0.0116515
-0.0014345
0.00923059
0.00165479
0.00896407
0.00517469
0.0106734
0.00699635
0.0113266
0.00731553
0.0118041
0.00668945
0.0119801
0.00572335
0.0120286
0.00466913
0.0120389
0.00359591
0.0120408
0.00251909
0.0120411
0.00144167
0.0120411
0.000364159
0.0120411
-0.000713366
0.0120411
-0.00179088
0.0120411
-0.0028683
0.0120411
-0.00394511
0.0120411
-0.0050183
0.0120408
-0.00607237
0.0120389
-0.00703777
0.0120284
-0.00766103
0.0119794
-0.0073344
0.0118037
-0.00550583
0.011319
-0.00198973
0.0106572
0.00114404
0.00888718
0.00918174
-0.00236251
0.00925023
0.000774408
0.00938045
0.00471909
0.0113689
0.00671736
0.0123562
0.00701946
0.0128749
0.00637231
0.0130408
0.0054147
0.0130814
0.00438296
0.0130893
0.00333641
0.0130905
0.00228728
0.0130907
0.00123774
0.0130907
0.000188153
0.0130907
-0.000861444
0.0130907
-0.00191103
0.0130907
-0.00296056
0.0130907
-0.00400962
0.0130907
-0.00505573
0.0130905
-0.0060851
0.013089
-0.00703172
0.0130798
-0.00763774
0.0130332
-0.00722661
0.0128459
-0.00504129
0.0122667
-0.000918937
0.0111743
0.002341
0.00908659
0.00888876
-0.00173241
0.0101962
0.0013861
0.0108105
0.0051582
0.0127101
0.00681189
0.0135059
0.00684559
0.01391
0.00613994
0.0140252
0.00522842
0.0140503
0.00427316
0.0140547
0.00330996
0.0140553
0.00234549
0.0140554
0.00138085
0.0140554
0.000416188
0.0140554
-0.000548479
0.0140554
-0.00151314
0.0140554
-0.00247778
0.0140554
-0.00344222
0.0140554
-0.00440523
0.0140553
-0.00535943
0.0140546
-0.00626569
0.0140498
-0.0069499
0.0140227
-0.00685376
0.0138995
-0.00508338
0.0134718
-0.00119958
0.0126182
0.00194942
0.0106657
0.0100059
-0.000607854
0.0116434
0.00215538
0.0122461
0.00545308
0.013903
0.00662784
0.0145402
0.00644917
0.0148229
0.00574822
0.0148933
0.00492257
0.0149068
0.00407324
0.014909
0.00322001
0.0149093
0.00236621
0.0149093
0.00151233
0.0149093
0.000658451
0.0149093
-0.000195432
0.0149093
-0.00104931
0.0149093
-0.00190319
0.0149093
-0.00275699
0.0149093
-0.00361024
0.0149093
-0.00445971
0.014909
-0.00528633
0.0149069
-0.00599278
0.014894
-0.00619556
0.0148269
-0.00509027
0.0145578
-0.00189275
0.0139577
0.000797763
0.0123666
0.0118821
0.000114333
0.0133458
0.00247285
0.0136505
0.00518675
0.0150034
0.0058856
0.0154437
0.00554567
0.0156258
0.00486514
0.0156657
0.00411479
0.0156725
0.00335254
0.0156735
0.00258851
0.0156736
0.00182425
0.0156736
0.00105995
0.0156736
0.000295657
0.0156736
-0.00046864
0.0156736
-0.00123294
0.0156736
-0.00199723
0.0156736
-0.0027615
0.0156736
-0.00352553
0.0156736
-0.0042878
0.0156735
-0.0050383
0.0156725
-0.00571964
0.0156657
-0.00606207
0.0156258
-0.00536359
0.0154434
-0.00264292
0.0150036
-0.000215703
0.0136462
0.0133294
0.000803583
0.0141819
0.00321097
0.0146279
0.00561509
0.0158799
0.00604801
0.0162597
0.00559448
0.0164026
0.00488698
0.0164306
0.00413333
0.0164349
0.00337249
0.0164355
0.00261065
0.0164356
0.00184869
0.0164356
0.00108672
0.0164356
0.000324746
0.0164356
-0.000437227
0.0164356
-0.0011992
0.0164356
-0.00196117
0.0164356
-0.00272313
0.0164356
-0.00348496
0.0164356
-0.00424578
0.0164355
-0.00499919
0.0164349
-0.00570527
0.0164305
-0.00615202
0.016402
-0.00569832
0.0162563
-0.00326082
0.0158632
-0.00082306
0.0145892
0.0140816
0.0011323
0.0149663
0.00345143
0.0155196
0.0056227
0.0166739
0.00591056
0.0170073
0.00543673
0.0171211
0.00476598
0.0171414
0.00406237
0.0171443
0.00335395
0.0171446
0.00264491
0.0171447
0.0019358
0.0171447
0.00122668
0.0171447
0.000517562
0.0171447
-0.000191556
0.0171447
-0.000900675
0.0171447
-0.00160979
0.0171447
-0.0023189
0.0171447
-0.00302795
0.0171447
-0.00373641
0.0171446
-0.00444029
0.0171443
-0.0051128
0.0171415
-0.00559589
0.0171221
-0.00534212
0.0170134
-0.00323363
0.0167038
-0.000999728
0.0155904
0.0152379
0.00126261
0.0161203
0.00334546
0.0164692
0.00518535
0.0174613
0.0052978
0.0177201
0.00479123
0.0178048
0.00414065
0.0178187
0.00346799
0.0178206
0.00279229
0.0178208
0.00211623
0.0178208
0.00144013
0.0178208
0.000764023
0.0178208
8.79173e-05
0.0178208
-0.000588189
0.0178208
-0.00126429
0.0178208
-0.0019404
0.0178208
-0.0026165
0.0178208
-0.00329256
0.0178208
-0.00396823
0.0178208
-0.0046407
0.0178205
-0.00528997
0.0178186
-0.00578869
0.0178036
-0.00564033
0.0177131
-0.00371513
0.0174305
-0.00150409
0.0163862
0.0158156
0.00170437
0.0166842
0.00374654
0.0172275
0.00541792
0.0181522
0.00544415
0.0183878
0.00492743
0.0184588
0.00429589
0.0184697
0.00364787
0.0184711
0.0029977
0.0184712
0.00234728
0.0184712
0.00169683
0.0184712
0.00104638
0.0184712
0.00039593
0.0184712
-0.00025452
0.0184712
-0.00090497
0.0184712
-0.00155542
0.0184712
-0.00220587
0.0184712
-0.00285629
0.0184712
-0.00350646
0.0184712
-0.00415441
0.0184711
-0.00478551
0.0184697
-0.00529994
0.018459
-0.00526858
0.0183883
-0.00359815
0.0181471
-0.0015796
0.0172216
0.0165865
0.00183495
0.0171613
0.0037695
0.0179468
0.00527514
0.0187892
0.0052551
0.0190045
0.00476243
0.0190622
0.00417667
0.0190705
0.00357817
0.0190714
0.00297806
0.0190715
0.00237777
0.0190715
0.00177747
0.0190715
0.00117717
0.0190715
0.000576864
0.0190715
-2.34399e-05
0.0190715
-0.000623744
0.0190715
-0.00122405
0.0190715
-0.00182435
0.0190715
-0.00242464
0.0190715
-0.00302477
0.0190715
-0.00362346
0.0190714
-0.00421061
0.0190706
-0.00471236
0.0190632
-0.0047759
0.0190113
-0.0033817
0.0188292
-0.00160123
0.018068
0.0176347
0.00154121
0.0184261
0.00310521
0.0187975
0.00427974
0.0194299
0.00416663
0.0195737
0.00369473
0.0196124
0.00315761
0.0196175
0.0026121
0.0196181
0.00206559
0.0196182
0.00151897
0.0196182
0.000972335
0.0196182
0.000425704
0.0196182
-0.000120928
0.0196182
-0.00066756
0.0196182
-0.00121419
0.0196182
-0.00176082
0.0196182
-0.00230745
0.0196182
-0.00285407
0.0196182
-0.00340058
0.0196182
-0.00394599
0.0196181
-0.0044823
0.0196174
-0.00494859
0.0196116
-0.00502781
0.019568
-0.00374746
0.0193988
-0.00199992
0.0186901
0.0179893
0.00190063
0.018965
0.00342586
0.0193921
0.00449204
0.0199604
0.0043595
0.0200847
0.00391581
0.0201166
0.00342009
0.0201206
0.00291797
0.0201211
0.0024151
0.0201211
0.00191216
0.0201211
0.00140921
0.0201211
0.000906263
0.0201211
0.000403315
0.0201211
-9.96336e-05
0.0201211
-0.000602582
0.0201211
-0.00110553
0.0201211
-0.00160848
0.0201211
-0.00211142
0.0201211
-0.00261429
0.0201211
-0.0031164
0.0201211
-0.00361205
0.0201207
-0.00405528
0.0201167
-0.00418929
0.0200856
-0.0031379
0.0199612
-0.00166315
0.0194016
0.0189349
0.00201677
0.0192125
0.0034611
0.0199188
0.00442088
0.0204551
0.00426466
0.0205752
0.00382991
0.0206026
0.00335078
0.0206059
0.00286633
0.0206062
0.00238129
0.0206062
0.00189619
0.0206062
0.00141109
0.0206062
0.000925981
0.0206062
0.000440876
0.0206062
-4.42295e-05
0.0206062
-0.000529335
0.0206062
-0.00101444
0.0206062
-0.00149955
0.0206062
-0.00198465
0.0206062
-0.00246969
0.0206062
-0.00295419
0.0206062
-0.00343381
0.0206059
-0.00387217
0.0206029
-0.00404943
0.0205782
-0.00315452
0.0204761
-0.00181064
0.019997
0.0195731
0.00156811
0.0202072
0.0027441
0.0205399
0.00351329
0.0209348
0.00333723
0.0210153
0.00294392
0.0210342
0.00251781
0.0210363
0.00208794
0.0210365
0.00165766
0.0210366
0.00122734
0.0210366
0.000797014
0.0210366
0.000366691
0.0210366
-6.36319e-05
0.0210366
-0.000493955
0.0210366
-0.000924278
0.0210366
-0.0013546
0.0210366
-0.00178492
0.0210366
-0.00221524
0.0210366
-0.00264552
0.0210366
-0.00307536
0.0210365
-0.00350118
0.0210363
-0.00389228
0.0210339
-0.00405224
0.021013
-0.00322388
0.0209179
-0.00192926
0.0204744
0.0198664
0.00181119
0.0206402
0.00295511
0.0209894
0.00366107
0.0213431
0.00348878
0.021413
0.00312503
0.0214289
0.00273411
0.0214307
0.00234017
0.0214308
0.0019459
0.0214309
0.0015516
0.0214309
0.00115731
0.0214309
0.000763006
0.0214309
0.000368708
0.0214309
-2.55911e-05
0.0214309
-0.00041989
0.0214309
-0.000814189
0.0214309
-0.00120849
0.0214309
-0.00160278
0.0214309
-0.00199705
0.0214309
-0.002391
0.0214308
-0.00278199
0.0214307
-0.00314637
0.0214291
-0.00332525
0.0214142
-0.00265408
0.0213482
-0.00158138
0.0210123
0.0207126
0.00192459
0.0207461
0.00300544
0.0213883
0.00363758
0.0217357
0.00344777
0.0218071
0.00308267
0.0218213
0.00269346
0.0218229
0.00230161
0.021823
0.00190948
0.021823
0.00151732
0.021823
0.00112516
0.021823
0.000733006
0.021823
0.000340849
0.021823
-5.13089e-05
0.021823
-0.000443466
0.021823
-0.000835624
0.021823
-0.00122778
0.021823
-0.00161994
0.021823
-0.00201207
0.021823
-0.00240395
0.021823
-0.00279338
0.0218229
-0.00316026
0.0218215
-0.00336154
0.0218086
-0.00276646
0.021749
-0.00175062
0.0214441
0.0210852
0.00140689
0.021556
0.00228366
0.0218629
0.00279668
0.0221101
0.00261055
0.0221577
0.00228549
0.0221675
0.00194201
0.0221686
0.00159658
0.0221686
0.00125096
0.0221687
0.000905315
0.0221687
0.000559671
0.0221687
0.000214027
0.0221687
-0.000131617
0.0221687
-0.00047726
0.0221687
-0.000822904
0.0221687
-0.00116855
0.0221687
-0.00151419
0.0221687
-0.00185983
0.0221687
-0.00220546
0.0221687
-0.00255086
0.0221686
-0.00289413
0.0221685
-0.00321749
0.0221673
-0.00339002
0.0221558
-0.00282176
0.0220957
-0.00182723
0.021798
0.0211942
0.00159561
0.0218966
0.00245248
0.0222065
0.0029303
0.0224265
0.0027627
0.0224678
0.00247159
0.0224762
0.00216489
0.0224771
0.00185656
0.0224772
0.00154807
0.0224772
0.00123956
0.0224772
0.000931052
0.0224772
0.000622544
0.0224772
0.000314036
0.0224772
5.52865e-06
0.0224772
-0.000302979
0.0224772
-0.000611487
0.0224772
-0.000919994
0.0224772
-0.0012285
0.0224772
-0.00153699
0.0224772
-0.00184533
0.0224772
-0.00215206
0.0224771
-0.00244345
0.0224763
-0.00261482
0.0224684
-0.00215893
0.022429
-0.00135779
0.0222193
0.0219382
0.0016775
0.0219216
0.00248075
0.0225086
0.00290484
0.0227313
0.00272761
0.0227753
0.00243657
0.0227831
0.00213144
0.0227838
0.00182485
0.0227839
0.00151811
0.0227839
0.00121137
0.0227839
0.00090462
0.0227839
0.000597874
0.0227839
0.000291127
0.0227839
-1.56196e-05
0.0227839
-0.000322366
0.0227839
-0.000629113
0.0227839
-0.000935859
0.0227839
-0.00124261
0.0227839
-0.00154934
0.0227839
-0.00185594
0.0227839
-0.0021612
0.0227838
-0.00245328
0.0227832
-0.00263805
0.0227764
-0.00224094
0.0227413
-0.00149119
0.0225557
0.0222546
0.00115403
0.0225992
0.00178875
0.0228704
0.00212798
0.023018
0.00196204
0.0230461
0.00170623
0.0230512
0.00143958
0.0230517
0.00117183
0.0230518
0.000903982
0.0230518
0.000636125
0.0230518
0.000368266
0.0230518
0.000100408
0.0230518
-0.000167451
0.0230518
-0.00043531
0.0230518
-0.000703168
0.0230518
-0.000971027
0.0230518
-0.00123889
0.0230518
-0.00150674
0.0230518
-0.00177459
0.0230518
-0.00204232
0.0230518
-0.00230884
0.0230517
-0.00256347
0.0230511
-0.00271917
0.0230447
-0.0023348
0.0230068
-0.00159478
0.0228146
0.0222397
0.00130341
0.0228563
0.00192828
0.0231244
0.0022504
0.0232543
0.00210949
0.0232784
0.00188836
0.0232828
0.00165791
0.0232832
0.00142654
0.0232832
0.00119507
0.0232832
0.000963597
0.0232832
0.000732124
0.0232832
0.00050065
0.0232832
0.000269177
0.0232832
3.77037e-05
0.0232832
-0.00019377
0.0232832
-0.000425243
0.0232832
-0.000656716
0.0232832
-0.000888189
0.0232832
-0.00111965
0.0232832
-0.00135103
0.0232832
-0.00158151
0.0232832
-0.00180285
0.0232828
-0.00194659
0.0232787
-0.00164101
0.0232555
-0.00106415
0.0231324
0.0228746
0.00137211
0.0228066
0.00195263
0.0233422
0.00223448
0.0234814
0.00208777
0.023509
0.00186683
0.0235132
0.00163737
0.0235136
0.00140707
0.0235136
0.00117668
0.0235136
0.000946292
0.0235136
0.0007159
0.0235136
0.000485508
0.0235136
0.000255116
0.0235136
2.47237e-05
0.0235136
-0.000205669
0.0235136
-0.000436061
0.0235136
-0.000666453
0.0235136
-0.000896845
0.0235136
-0.00112723
0.0235136
-0.00135754
0.0235136
-0.00158708
0.0235136
-0.00180873
0.0235133
-0.00196116
0.0235098
-0.00170267
0.0234897
-0.00117188
0.0233845
0.0231346
0.000856458
0.0233701
0.00129606
0.0236088
0.00151586
0.0236912
0.0013838
0.0237075
0.00119425
0.0237101
0.000998187
0.0237104
0.000801501
0.0237104
0.000604756
0.0237104
0.000408007
0.0237104
0.000211257
0.0237104
1.45076e-05
0.0237104
-0.000182242
0.0237104
-0.000378992
0.0237104
-0.000575741
0.0237104
-0.000772491
0.0237104
-0.00096924
0.0237104
-0.00116599
0.0237104
-0.00136273
0.0237104
-0.00155941
0.0237104
-0.00175538
0.0237104
-0.00194413
0.02371
-0.00206868
0.0237065
-0.00181373
0.0236829
-0.00128479
0.0235638
0.0230392
0.000978063
0.0235589
0.0014121
0.0237871
0.00162327
0.023858
0.00151682
0.0238717
0.00135924
0.0238739
0.00119606
0.0238741
0.00103234
0.0238742
0.000868573
0.0238742
0.000704801
0.0238742
0.000541028
0.0238742
0.000377255
0.0238742
0.000213482
0.0238742
4.97095e-05
0.0238742
-0.000114063
0.0238742
-0.000277836
0.0238742
-0.000441609
0.0238742
-0.000605381
0.0238742
-0.00076915
0.0238742
-0.00093287
0.0238742
-0.00109607
0.0238741
-0.00125379
0.023874
-0.00136222
0.0238718
-0.00116209
0.0238582
-0.000765159
0.0237898
0.0235497
0.00104185
0.0234506
0.00144001
0.0239322
0.00162087
0.0240166
0.00151143
0.0240339
0.00135479
0.0240363
0.001193
0.0240365
0.00103072
0.0240365
0.000868389
0.0240365
0.000706056
0.0240365
0.000543722
0.0240365
0.000381388
0.0240365
0.000219055
0.0240365
5.6721e-05
0.0240365
-0.000105613
0.0240365
-0.000267946
0.0240365
-0.00043028
0.0240365
-0.000592613
0.0240365
-0.000754944
0.0240365
-0.000917233
0.0240365
-0.00107908
0.0240365
-0.00123623
0.0240363
-0.00135009
0.0240346
-0.00118963
0.0240234
-0.000837122
0.0239686
0.0237587
0.000555529
0.0239084
0.000837481
0.0241161
0.000973227
0.024158
0.000880248
0.0241673
0.000752237
0.0241686
0.000620429
0.0241687
0.000488267
0.0241687
0.000356072
0.0241687
0.000223875
0.0241687
9.16773e-05
0.0241687
-4.052e-05
0.0241687
-0.000172717
0.0241687
-0.000304915
0.0241687
-0.000437112
0.0241687
-0.00056931
0.0241687
-0.000701507
0.0241687
-0.000833704
0.0241687
-0.000965898
0.0241687
-0.00109805
0.0241687
-0.0012298
0.0241687
-0.00135728
0.0241685
-0.00144495
0.0241667
-0.00128326
0.0241523
-0.000930758
0.0240832
0.0236378
0.000653848
0.0240386
0.000929785
0.0242307
0.00105885
0.0242656
0.000987472
0.0242731
0.000885473
0.0242742
0.000780244
0.0242742
0.000674712
0.0242742
0.000569152
0.0242742
0.000463589
0.0242742
0.000358027
0.0242742
0.000252464
0.0242742
0.000146902
0.0242742
4.13391e-05
0.0242742
-6.42235e-05
0.0242742
-0.000169786
0.0242742
-0.000275349
0.0242742
-0.000380911
0.0242742
-0.000486471
0.0242742
-0.000592005
0.0242742
-0.000697245
0.0242742
-0.000799326
0.0242741
-0.000871843
0.0242731
-0.000748573
0.0242649
-0.000496022
0.0242285
0.0240049
0.000714181
0.0238888
0.000962192
0.0243133
0.00106908
0.0243639
0.000997692
0.0243754
0.000898466
0.0243766
0.000796303
0.0243767
0.000693861
0.0243767
0.000591394
0.0243767
0.000488924
0.0243767
0.000386455
0.0243767
0.000283985
0.0243767
0.000181516
0.0243767
7.90466e-05
0.0243767
-2.34229e-05
0.0243767
-0.000125892
0.0243767
-0.000228362
0.0243767
-0.000330831
0.0243767
-0.000433299
0.0243767
-0.000535744
0.0243767
-0.000637947
0.0243767
-0.000737536
0.0243766
-0.000812286
0.0243759
-0.000722263
0.0243701
-0.000514293
0.0243453
0.0241811
0.000273824
0.0242512
0.000425753
0.024433
0.000499268
0.0244475
0.000444155
0.0244522
0.000370286
0.0244527
0.000294429
0.0244528
0.000218392
0.0244528
0.000142339
0.0244528
6.62846e-05
0.0244528
-9.76989e-06
0.0244528
-8.58244e-05
0.0244528
-0.000161879
0.0244528
-0.000237933
0.0244528
-0.000313988
0.0244528
-0.000390042
0.0244528
-0.000466097
0.0244528
-0.000542151
0.0244528
-0.000618204
0.0244528
-0.000694237
0.0244528
-0.000770048
0.0244528
-0.000843512
0.0244527
-0.000894445
0.0244518
-0.000798517
0.0244443
-0.000586344
0.0244123
0.0240805
0.000351748
0.0243684
0.000488616
0.0245861
0.00055469
0.0245126
0.00051403
0.0245117
0.000457207
0.0245115
0.000398702
0.0245114
0.000340041
0.0245114
0.000281366
0.0245114
0.00022269
0.0245114
0.000164014
0.0245114
0.000105338
0.0245114
4.66617e-05
0.0245114
-1.20144e-05
0.0245114
-7.06905e-05
0.0245114
-0.000129367
0.0245114
-0.000188043
0.0245114
-0.000246719
0.0245114
-0.000305394
0.0245114
-0.000364054
0.0245114
-0.000422552
0.0245114
-0.000479288
0.0245114
-0.0005191
0.0245115
-0.000445164
0.0245095
-0.000300797
0.024572
0.0242883
0.000318628
0.0248508
0.000485064
0.0250122
0.000560318
0.0245952
0.000527267
0.0245705
0.00047417
0.0245669
0.000419092
0.0245667
0.000363833
0.0245667
0.000308559
0.0245667
0.000253283
0.0245667
0.000198007
0.0245667
0.00014273
0.0245667
8.74544e-05
0.0245667
3.21783e-05
0.0245667
-2.30978e-05
0.0245667
-7.83739e-05
0.0245667
-0.00013365
0.0245667
-0.000188926
0.0245667
-0.000244201
0.0245667
-0.000299461
0.0245667
-0.00035455
0.0245667
-0.000407741
0.0245669
-0.000441608
0.0245709
-0.000376027
0.0246
-0.000230908
0.0250261
0.0248946
-0.0119793
0.0522649
-0.0139241
0.0545163
-0.0139774
0.0558758
-0.0134985
0.0559594
-0.0129813
0.055966
-0.0124621
0.0559662
-0.0119428
0.0559662
-0.0114236
0.0559662
-0.0109043
0.0559662
-0.0103851
0.0559662
-0.00986583
0.0559662
-0.00934658
0.0559662
-0.00882732
0.0559662
-0.00830807
0.0559662
-0.00778881
0.0559662
-0.00726956
0.0559662
-0.00675031
0.0559662
-0.00623105
0.0559662
-0.0057118
0.0559662
-0.00519254
0.0559662
-0.00467329
0.0559662
-0.00415403
0.0559662
-0.00363478
0.0559662
-0.00311553
0.0559662
-0.00259627
0.0559662
-0.002077
0.0559662
-0.00155742
0.0559662
-0.00102931
0.055965
-0.000367154
0.0559183
0.0559609
-0.0139342
0.0561386
-0.015782
0.0543382
-0.0158189
0.0553438
-0.0152724
0.0553747
-0.0146868
0.0553786
-0.0140994
0.0553788
-0.013512
0.0553788
-0.0129245
0.0553788
-0.012337
0.0553788
-0.0117495
0.0553788
-0.011162
0.0553788
-0.0105746
0.0553788
-0.0099871
0.0553788
-0.00939962
0.0553788
-0.00881214
0.0553788
-0.00822467
0.0553788
-0.00763719
0.0553788
-0.00704972
0.0553788
-0.00646224
0.0553788
-0.00587476
0.0553788
-0.00528729
0.0553788
-0.00469981
0.0553788
-0.00411233
0.0553788
-0.00352486
0.0553788
-0.00293738
0.0553788
-0.0023499
0.0553788
-0.0017623
0.0553788
-0.0011726
0.0553786
-0.000584882
0.0553759
0.0553258
-0.0118398
0.0561021
-0.013261
0.0540418
-0.0132683
0.0548528
-0.012802
0.0548831
-0.0123106
0.0548862
-0.0118183
0.0548863
-0.0113258
0.0548863
-0.0108334
0.0548863
-0.010341
0.0548863
-0.00984855
0.0548863
-0.00935613
0.0548863
-0.0088637
0.0548863
-0.00837127
0.0548863
-0.00787884
0.0548863
-0.00738641
0.0548863
-0.00689399
0.0548863
-0.00640156
0.0548863
-0.00590913
0.0548863
-0.0054167
0.0548863
-0.00492428
0.0548863
-0.00443185
0.0548863
-0.00393942
0.0548863
-0.00344699
0.0548863
-0.00295457
0.0548863
-0.00246214
0.0548863
-0.00196971
0.0548863
-0.00147722
0.0548863
-0.000983997
0.0548863
-0.000490905
0.054886
0.0548302
-0.0100981
0.0544969
-0.0112614
0.0536797
-0.0112495
0.0544363
-0.010852
0.054466
-0.0104355
0.0544688
-0.0100181
0.0544689
-0.00960067
0.0544689
-0.00918325
0.0544689
-0.00876583
0.0544689
-0.00834841
0.0544689
-0.00793099
0.0544689
-0.00751357
0.0544689
-0.00709615
0.0544689
-0.00667873
0.0544689
-0.00626131
0.0544689
-0.00584389
0.0544689
-0.00542647
0.0544689
-0.00500905
0.0544689
-0.00459162
0.0544689
-0.0041742
0.0544689
-0.00375678
0.0544689
-0.00333936
0.0544689
-0.00292194
0.0544689
-0.00250452
0.0544689
-0.0020871
0.0544689
-0.00166968
0.0544689
-0.00125221
0.0544689
-0.000834148
0.0544689
-0.000416108
0.0544687
0.0544126
-0.00959941
0.0539585
-0.0107381
0.0533838
-0.0107248
0.0540427
-0.0103461
0.0540684
-0.00994902
0.0540709
-0.00955109
0.0540709
-0.00915313
0.0540709
-0.00875517
0.0540709
-0.00835721
0.0540709
-0.00795925
0.0540709
-0.00756128
0.0540709
-0.00716332
0.0540709
-0.00676536
0.0540709
-0.0063674
0.0540709
-0.00596944
0.0540709
-0.00557147
0.0540709
-0.00517351
0.0540709
-0.00477555
0.0540709
-0.00437759
0.0540709
-0.00397962
0.0540709
-0.00358166
0.0540709
-0.0031837
0.0540709
-0.00278574
0.0540709
-0.00238777
0.0540709
-0.00198981
0.0540709
-0.00159185
0.0540709
-0.00119384
0.0540709
-0.000795264
0.0540709
-0.000396731
0.0540707
0.0540145
-0.0091898
0.0537108
-0.0102756
0.0530962
-0.0102609
0.053667
-0.00989821
0.053688
-0.00951828
0.0536902
-0.00913759
0.0536902
-0.00875685
0.0536902
-0.00837612
0.0536902
-0.00799539
0.0536902
-0.00761466
0.0536902
-0.00723392
0.0536902
-0.00685319
0.0536902
-0.00647246
0.0536902