/*--------------------------------*- C++ -*----------------------------------*\
| =========                 |                                                 |
| \\      /  F ield         | OpenFOAM: The Open Source CFD Toolbox           |
|  \\    /   O peration     | Version:  2112                                  |
|   \\  /    A nd           | Website:  www.openfoam.com                      |
|    \\/     M anipulation  |                                                 |
\*---------------------------------------------------------------------------*/
FoamFile
{
    version     2.0;
    format      ascii;
    arch        "LSB;label=32;scalar=64";
    class       volVectorField;
    location    "9e-05";
    object      U;
}
// * * * * * * * * * * * * * * * * * * * * * * * * * * * * * * * * * * * * * //

dimensions      [0 1 -1 0 0 0 0];

internalField   nonuniform List<vector> 
13875
(
(2201.79 118.927 1.87269e-18)
(2120.5 37.8616 -9.64051e-19)
(2146.65 10.8535 -9.8064e-19)
(2155.93 5.1557 0)
(2159.64 3.13971 0)
(2162.65 1.80198 9.5805e-19)
(2163.99 1.06844 -9.59229e-19)
(2164.95 0.534523 -4.78144e-19)
(2165.45 0.237204 4.77729e-19)
(2165.68 0.101582 0)
(2165.76 0.0406697 -4.37868e-22)
(2165.8 0.0117659 -4.3785e-22)
(2165.82 -0.00434734 0)
(2165.83 -0.0203583 -4.77232e-19)
(2165.8 -0.0576645 4.77677e-19)
(2165.77 -0.119044 0)
(2165.57 -0.227943 9.56062e-19)
(2164.99 -0.511799 -9.56507e-19)
(2164 -1.05929 4.38566e-22)
(2162.68 -1.80469 -4.38978e-22)
(2159.64 -3.13865 -9.66398e-19)
(2155.97 -5.13441 9.63485e-19)
(2146.74 -10.5584 -1.96185e-18)
(2121.36 -35.7954 1.99501e-18)
(2190.79 -115.864 1.86209e-18)
(2225.03 109.566 -1.65998e-18)
(2182.52 54.537 1.9569e-18)
(2195.22 37.2069 9.21042e-19)
(2206.68 20.0634 -9.0336e-19)
(2213.73 10.0342 4.4952e-22)
(2218.45 4.79876 4.69085e-22)
(2220.9 2.26115 4.45484e-22)
(2222.21 0.987532 -4.45169e-19)
(2222.84 0.408201 4.44778e-19)
(2223.11 0.16688 2.21781e-19)
(2223.21 0.0672119 -1.66177e-19)
(2223.24 0.0197309 -5.41894e-20)
(2223.26 -0.0105168 0)
(2223.25 -0.044072 -4.44773e-19)
(2223.24 -0.0969299 4.43891e-19)
(2223.18 -0.188158 4.44413e-19)
(2222.92 -0.402195 -4.44583e-19)
(2222.28 -0.955339 4.65408e-22)
(2220.96 -2.20891 -4.66743e-22)
(2218.5 -4.71563 4.69027e-22)
(2213.77 -9.88814 -9.00164e-19)
(2206.7 -19.8182 2.71679e-18)
(2195.19 -36.716 -1.84127e-18)
(2182.62 -51.8219 4.95926e-22)
(2224.27 -107.809 -1.77574e-18)
(2212.98 109.401 0)
(2179.32 55.4356 0)
(2189.03 45.1288 0)
(2201.03 25.2101 0)
(2208.8 12.6849 -1.76455e-18)
(2213.75 6.02556 1.75089e-18)
(2216.37 2.75265 1.74431e-18)
(2217.74 1.17853 -2.60933e-18)
(2218.39 0.482027 8.6903e-19)
(2218.66 0.19533 4.14693e-22)
(2218.76 0.0782219 -4.3392e-19)
(2218.8 0.0227205 4.33962e-19)
(2218.81 -0.0136234 0)
(2218.81 -0.0531696 0)
(2218.8 -0.112266 4.14593e-22)
(2218.73 -0.220075 0)
(2218.46 -0.482303 8.96343e-22)
(2217.8 -1.15333 4.34903e-19)
(2216.42 -2.70604 -4.35929e-19)
(2213.77 -5.9504 0)
(2208.79 -12.5547 0)
(2200.97 -24.995 0)
(2188.89 -44.6829 0)
(2179.37 -53.0315 0)
(2211.69 -106.999 0)
(2179.32 97.7146 0)
(2136.27 41.8156 2.04503e-18)
(2132.7 46.5652 -4.18311e-18)
(2141.39 27.8369 4.21047e-18)
(2148.31 14.5931 -2.09158e-18)
(2152.61 7.07172 0)
(2154.96 3.23194 -9.63809e-22)
(2156.15 1.38939 0)
(2156.71 0.571054 0)
(2156.94 0.230338 0)
(2157.02 0.0904492 0)
(2157.05 0.0258922 -9.59033e-22)
(2157.06 -0.0157177 -6.46742e-20)
(2157.06 -0.0596639 6.46758e-20)
(2157.04 -0.125705 0)
(2156.98 -0.256493 0)
(2156.75 -0.576197 1.30315e-21)
(2156.19 -1.36936 -1.03911e-18)
(2154.98 -3.18498 1.03973e-18)
(2152.6 -6.98447 -2.08488e-18)
(2148.24 -14.4198 2.10149e-18)
(2141.23 -27.5061 2.09599e-18)
(2132.52 -45.9037 -2.11122e-18)
(2136.26 -39.7593 0)
(2175.57 -94.2553 0)
(2076.79 14.5483 2.14067e-18)
(1971.82 -21.3493 0)
(1935.88 19.7249 0)
(1932.16 15.7272 0)
(1936.13 10.3231 0)
(1939.52 5.76522 2.66074e-21)
(1941.58 2.89949 2.64621e-21)
(1942.59 1.36324 5.55005e-19)
(1943.02 0.606065 -5.48846e-19)
(1943.19 0.256122 2.73026e-19)
(1943.25 0.102115 -2.78223e-19)
(1943.27 0.0316358 0)
(1943.27 -0.0119973 0)
(1943.26 -0.0554914 -2.63228e-21)
(1943.24 -0.123271 0)
(1943.17 -0.269203 -2.63288e-21)
(1943 -0.603886 1.09831e-18)
(1942.57 -1.33432 -1.10007e-18)
(1941.55 -2.8255 2.21439e-18)
(1939.46 -5.61377 -2.22463e-18)
(1936.01 -10.0067 2.68526e-21)
(1931.97 -15.2135 0)
(1935.64 -19.1616 0)
(1971.41 22.2527 0)
(2074.33 -13.4622 0)
(1718.46 -54.613 0)
(1579.56 -85.699 1.16884e-18)
(1557.07 -34.4781 -1.14799e-18)
(1565.64 -14.9128 0)
(1577.32 -4.37901 1.14592e-18)
(1585.1 -0.672067 -5.75624e-19)
(1589.3 0.272461 -2.17686e-21)
(1591.29 0.347743 -2.86481e-19)
(1592.13 0.238403 -5.7052e-19)
(1592.46 0.134818 2.15033e-19)
(1592.58 0.0667226 1.87701e-21)
(1592.61 0.0249707 3.5298e-19)
(1592.62 -0.00504373 -2.84156e-19)
(1592.6 -0.0342607 4.09909e-21)
(1592.56 -0.0730518 -5.68323e-19)
(1592.44 -0.135875 5.70272e-19)
(1592.11 -0.230447 1.87895e-21)
(1591.28 -0.323241 -1.88027e-21)
(1589.31 -0.225132 -1.8826e-21)
(1585.14 0.748089 -1.14536e-18)
(1577.4 4.44546 1.14403e-18)
(1565.81 14.9276 0)
(1557.43 34.0077 0)
(1579.11 86.1161 -2.40916e-18)
(1719.88 55.9112 -8.51262e-20)
(1283.78 -62.8646 -7.74846e-20)
(1239.18 -89.8239 7.38786e-20)
(1242.21 -45.081 0)
(1253.57 -22.7539 -3.18324e-23)
(1263.29 -8.81394 -3.16093e-23)
(1269.56 -2.84077 0)
(1272.91 -0.697735 0)
(1274.46 -0.0575879 -1.10195e-18)
(1275.11 0.0800355 1.10147e-18)
(1275.37 0.0775657 0)
(1275.46 0.0484143 2.20216e-18)
(1275.49 0.0214769 2.15904e-21)
(1275.49 -0.000478311 -2.20238e-18)
(1275.48 -0.0215384 -2.18118e-21)
(1275.45 -0.0458821 0)
(1275.35 -0.0712238 4.40542e-18)
(1275.09 -0.0653028 5.50483e-22)
(1274.43 0.0944943 -8.81956e-18)
(1272.86 0.782275 4.41389e-18)
(1269.5 3.03294 3.14754e-23)
(1263.2 9.17022 0)
(1253.39 23.0825 4.53799e-18)
(1242.2 45.2323 -4.47164e-18)
(1239.28 87.6665 4.70799e-18)
(1287.37 61.1175 -4.96832e-18)
(931.696 -25.6083 -4.9305e-20)
(932.961 -52.1919 -9.14811e-18)
(944.604 -29.0337 7.80613e-22)
(951.825 -16.5197 3.55049e-23)
(957.092 -6.88153 -7.2758e-22)
(960.759 -2.37001 0)
(962.773 -0.619471 -4.23878e-18)
(963.726 -0.0651968 4.23749e-18)
(964.138 0.0613587 0)
(964.308 0.0641944 -7.58213e-22)
(964.376 0.0422611 -7.58208e-22)
(964.4 0.0209375 0)
(964.404 0.00241249 0)
(964.397 -0.0160016 -1.48151e-21)
(964.373 -0.0375828 -7.58161e-22)
(964.307 -0.0600671 3.48496e-23)
(964.139 -0.0551296 -7.93006e-22)
(963.728 0.0804674 -3.48662e-23)
(962.775 0.653236 -2.12172e-18)
(960.76 2.44546 -6.95933e-21)
(957.129 7.02831 2.12951e-18)
(951.948 16.4031 8.04393e-22)
(944.699 28.314 4.40211e-18)
(932.632 49.5185 -4.54341e-18)
(929.046 22.7781 4.11826e-23)
(526.066 1.44253 8.23991e-19)
(553.669 -13.4308 0)
(567.026 -8.65584 -1.25304e-21)
(569.998 -6.09919 -7.8951e-19)
(571.76 -2.41596 1.57498e-18)
(573.139 -0.688955 -1.56929e-18)
(573.994 -0.0575724 1.60936e-22)
(574.457 0.0881199 7.83958e-19)
(574.682 0.0844181 0)
(574.786 0.0550527 -7.82981e-19)
(574.833 0.0311964 7.85595e-19)
(574.851 0.0147776 0)
(574.853 0.00238428 0)
(574.842 -0.0093556 2.63757e-21)
(574.815 -0.0263804 1.20379e-21)
(574.759 -0.0526121 7.8429e-19)
(574.643 -0.0831614 -7.83172e-19)
(574.405 -0.0858154 0)
(573.928 0.0616592 7.83975e-19)
(573.05 0.69358 -1.56887e-18)
(571.656 2.44903 7.8402e-19)
(569.998 5.95584 -1.22533e-21)
(566.558 8.14552 0)
(552.714 11.7281 0)
(522.197 -2.8459 0)
(154.698 1.70089 -2.09586e-17)
(165.812 -1.58002 2.11362e-17)
(172.556 -0.875725 0)
(173.123 -0.882733 -1.08323e-17)
(173.465 -0.250274 1.08355e-17)
(173.781 -0.0150575 0)
(174.046 0.0476656 -8.01123e-21)
(174.216 0.0442294 -5.41647e-18)
(174.305 0.0286007 5.40523e-18)
(174.347 0.0165171 -8.00253e-21)
(174.363 0.00927529 0)
(174.365 0.00470376 -1.3541e-18)
(174.358 0.00131542 2.0237e-18)
(174.343 -0.00170421 -6.84946e-19)
(174.321 -0.00631242 -7.56074e-21)
(174.283 -0.0144169 0)
(174.216 -0.0273534 0)
(174.099 -0.0437017 -1.0807e-17)
(173.901 -0.0474842 1.08e-17)
(173.602 0.0150369 -1.07886e-17)
(173.24 0.264583 1.07802e-17)
(172.901 0.850348 1.08043e-17)
(172.06 0.772161 -1.07683e-17)
(165.001 1.13018 -2.08492e-17)
(150.581 -2.0276 3.76058e-19)
(16.7065 -2.88364 -1.44776e-17)
(18.884 -3.56974 1.46246e-17)
(21.1 -1.11868 0)
(21.599 -0.419537 1.45236e-17)
(21.8136 -0.0911043 -1.45381e-17)
(21.8859 -0.0112461 -7.2685e-18)
(21.9229 0.0029813 7.28325e-18)
(21.9446 0.00414753 -7.27637e-18)
(21.9568 0.00360152 7.28401e-18)
(21.9633 0.00314525 1.11242e-20)
(21.9668 0.00290351 0)
(21.9687 0.0027885 -4.55676e-19)
(21.9693 0.00271439 4.67022e-19)
(21.9691 0.00263822 1.11398e-20)
(21.968 0.00250192 1.11421e-20)
(21.965 0.00223698 7.00673e-21)
(21.9587 0.00177943 0)
(21.9463 0.00125666 0)
(21.9239 0.00257384 -1.46113e-17)
(21.8853 0.0176859 1.46292e-17)
(21.8077 0.102275 -1.46435e-17)
(21.5866 0.442325 2.93341e-17)
(21.0291 1.16559 -1.46556e-17)
(18.6976 3.66771 -1.09756e-20)
(16.257 2.9758 7.1038e-21)
(7.25624 -3.79986 -1.57141e-17)
(7.53709 -4.38963 1.69474e-19)
(9.39927 -1.45965 3.13842e-17)
(9.99321 -0.60869 -1.57141e-17)
(10.2688 -0.156518 0)
(10.3393 -0.0317477 1.56522e-17)
(10.3535 -0.00526482 -1.56565e-17)
(10.3562 -0.000772781 0)
(10.3568 -0.000126924 7.78043e-21)
(10.3571 -4.67295e-05 0)
(10.3572 -3.76096e-05 0)
(10.3573 -3.6192e-05 0)
(10.3574 -3.516e-05 9.79376e-19)
(10.3575 -3.36045e-05 -9.79441e-19)
(10.3576 -3.13062e-05 -7.64936e-21)
(10.3576 -2.28318e-05 -7.78475e-21)
(10.3576 5.20716e-05 0)
(10.3571 0.000668939 0)
(10.3548 0.00500059 0)
(10.3415 0.0308062 -1.56734e-17)
(10.2744 0.153508 3.137e-17)
(10.0099 0.601628 -1.5682e-17)
(9.44488 1.44118 -1.57597e-17)
(7.59792 4.40683 1.57296e-17)
(7.4018 3.84006 -7.84776e-21)
(7.31875 -4.26146 1.71646e-17)
(7.06853 -4.83426 0)
(8.99454 -1.67219 0)
(9.57861 -0.770989 -1.6921e-17)
(9.89863 -0.215237 1.69465e-17)
(9.98784 -0.047561 0)
(10.0068 -0.00853131 2.06526e-21)
(10.0101 -0.00132046 8.45864e-18)
(10.0105 -0.000181516 -8.45581e-18)
(10.0106 -2.45089e-05 0)
(10.0106 -5.21345e-06 -2.11398e-18)
(10.0106 -3.03579e-06 2.11577e-18)
(10.0106 -2.74239e-06 -1.05667e-18)
(10.0106 -2.46752e-06 1.05849e-18)
(10.0106 -4.77263e-07 8.25447e-21)
(10.0106 1.67987e-05 -8.44718e-18)
(10.0105 0.000158016 1.68908e-17)
(10.0101 0.00119199 1.12543e-22)
(10.0073 0.00780727 -8.43871e-18)
(9.99006 0.0441082 -1.68781e-17)
(9.90832 0.202393 1.68548e-17)
(9.61049 0.736433 1.03035e-20)
(9.07056 1.59879 2.06527e-21)
(7.1996 4.74111 1.70947e-17)
(7.51312 4.20662 1.35676e-19)
(7.81196 -4.45565 0)
(7.28363 -4.95745 0)
(9.0727 -1.76221 0)
(9.56182 -0.881811 0)
(9.87823 -0.262578 0)
(9.97341 -0.0625621 1.79027e-17)
(9.99557 -0.0121029 -1.78912e-17)
(9.99962 -0.00201223 1.74524e-20)
(10.0002 -0.000295364 -2.1796e-21)
(10.0003 -3.91494e-05 4.45966e-18)
(10.0003 -4.83686e-06 -4.47287e-18)
(10.0003 -6.65013e-07 -3.69493e-20)
(10.0003 -1.53103e-07 -1.38969e-19)
(10.0003 3.35321e-07 1.54011e-19)
(10.0003 4.28847e-06 -4.43772e-18)
(10.0003 3.67457e-05 4.43283e-18)
(10.0002 0.000277612 1.51345e-20)
(9.99966 0.00188439 0)
(9.99588 0.0113449 0)
(9.97517 0.0589267 0)
(9.88586 0.249171 -1.76584e-17)
(9.58611 0.848928 -6.4891e-20)
(9.10567 1.71078 1.75994e-17)
(7.43313 4.86105 2.16053e-21)
(7.8991 4.33313 2.17369e-21)
(8.46682 -4.37271 0)
(7.86006 -4.85336 4.56488e-21)
(9.25139 -1.79794 0)
(9.6185 -0.952069 -1.86038e-17)
(9.88731 -0.298183 3.72712e-17)
(9.97335 -0.075796 -1.8642e-17)
(9.99494 -0.0156966 0)
(9.99919 -0.00280541 -1.82236e-20)
(9.9999 -0.000443307 0)
(10 -6.31216e-05 0)
(10 -8.2503e-06 -2.31503e-18)
(10 -9.81181e-07 2.37153e-18)
(10 3.66757e-08 2.34115e-18)
(10 1.30027e-06 -2.36091e-18)
(10 1.07289e-05 0)
(9.99999 8.10783e-05 -9.38148e-18)
(9.99984 0.00056064 9.36849e-18)
(9.99885 0.00348071 9.39693e-18)
(9.99302 0.0189836 -9.39712e-18)
(9.96433 0.0887476 0)
(9.85352 0.337958 0)
(9.5218 1.03758 -1.8402e-20)
(9.05191 1.95096 -1.89444e-17)
(7.50688 4.98129 3.8076e-17)
(7.99227 4.43335 -1.89989e-17)
(9.08915 -4.2887 -2.02399e-17)
(8.26877 -4.62406 2.03607e-17)
(9.42073 -1.79367 0)
(9.66217 -1.01584 -2.01242e-17)
(9.89179 -0.345375 3.10322e-20)
(9.97214 -0.0958579 3.02502e-17)
(9.99429 -0.0217166 -2.0184e-17)
(9.99902 -0.00423775 1.01001e-17)
(9.99985 -0.00073175 0)
(9.99998 -0.000114078 0)
(10 -1.6252e-05 -4.94353e-21)
(10 -2.10809e-06 1.48455e-20)
(10 3.95715e-08 0)
(10 2.41957e-06 0)
(10 1.84606e-05 5.07646e-18)
(9.99998 0.000128553 -5.07964e-18)
(9.99982 0.000818196 -1.01655e-17)
(9.99882 0.00469688 2.03284e-17)
(9.99332 0.0238304 1.79928e-21)
(9.96799 0.104044 -1.01731e-17)
(9.87748 0.371275 0)
(9.6221 1.07997 0)
(9.35571 1.9 -2.05129e-17)
(8.08883 4.8344 2.05616e-17)
(8.93103 4.50403 -5.0677e-21)
(11.1839 -3.32498 2.04022e-17)
(9.73031 -3.40886 -9.94343e-21)
(10.0775 -1.22169 1.01005e-17)
(9.96201 -0.743514 -1.01286e-17)
(9.98627 -0.246363 -4.92414e-21)
(9.99562 -0.0687756 9.84761e-21)
(9.99904 -0.0157262 1.00809e-17)
(9.99983 -0.00315132 -1.51191e-17)
(9.99997 -0.00056723 5.04372e-18)
(10 -9.34235e-05 0)
(10 -1.42524e-05 -2.51358e-18)
(10 -2.00208e-06 2.51369e-18)
(10 -2.59111e-08 0)
(10 1.81232e-06 4.9159e-21)
(10 1.30017e-05 -2.51139e-18)
(10 8.57368e-05 2.51565e-18)
(9.99999 0.000524522 0)
(9.99994 0.00294106 -1.00476e-17)
(9.9996 0.0148342 1.00544e-17)
(9.99809 0.0657118 1.00462e-17)
(9.99573 0.23751 -2.01156e-17)
(9.99083 0.730256 1.00549e-17)
(10.1588 1.17237 0)
(9.862 3.39319 2.02835e-17)
(11.5644 3.3551 7.08044e-20)
(13.581 -1.00777 8.76542e-21)
(10.9319 -0.963289 1.00776e-17)
(10.5865 -0.351948 -5.02066e-18)
(10.1911 -0.207967 -5.01044e-18)
(10.0526 -0.0688771 7.51843e-18)
(10.0117 -0.019006 -5.0067e-18)
(10.0023 -0.00432122 5.00665e-18)
(10.0004 -0.000873729 -5.00495e-18)
(10.0001 -0.000160117 -4.88338e-21)
(10 -2.70531e-05 2.50145e-18)
(10 -4.2614e-06 1.24559e-18)
(10 -6.21084e-07 -4.27327e-21)
(10 -1.24409e-08 -1.25037e-18)
(10 5.32372e-07 -4.27168e-21)
(10 3.68638e-06 -5.49098e-21)
(10 2.348e-05 -1.56155e-19)
(10.0001 0.000138727 -1.83691e-25)
(10.0004 0.000754509 4.68263e-19)
(10.0022 0.00368393 -3.12106e-19)
(10.0114 0.0155296 0)
(10.0514 0.0524041 1.25318e-18)
(10.1867 0.140342 -3.7504e-18)
(10.5662 0.233678 4.99826e-18)
(10.9059 0.544331 -7.52475e-18)
(13.4009 0.550561 7.54261e-18)
(12.5234 3.55107 -1.95597e-20)
(10.1265 3.43994 -2.01677e-20)
(10.3672 1.12556 2.01212e-20)
(10.0611 0.699264 -6.31049e-22)
(10.0164 0.224974 -1.95164e-20)
(10.0029 0.0608288 -2.07743e-20)
(10.0006 0.0134967 -6.29253e-22)
(10.0001 0.00267396 0)
(10 0.000481405 0)
(10 8.00603e-05 5.1248e-18)
(10 1.24349e-05 -5.14152e-18)
(10 1.79032e-06 -6.2721e-22)
(10 4.68366e-08 6.26653e-22)
(10 -1.45168e-06 -6.62079e-19)
(10 -1.02281e-05 6.41584e-19)
(10 -6.64982e-05 0)
(10 -0.000404896 0)
(10.0003 -0.00228419 -5.11647e-18)
(10.0015 -0.011738 5.09281e-18)
(10.007 -0.0537908 -1.99528e-20)
(10.0317 -0.200573 0)
(10.108 -0.62759 0)
(10.4395 -1.00067 -2.04672e-20)
(10.3558 -3.08788 -2.04865e-20)
(12.6517 -3.15643 2.04721e-17)
(8.61857 4.85374 -2.09617e-17)
(7.8569 5.19534 -2.0967e-17)
(9.2353 2.178 2.08882e-17)
(9.53884 1.26407 0)
(9.84697 0.446188 2.04937e-20)
(9.95974 0.126386 1.05211e-17)
(9.99169 0.0288907 -2.10115e-17)
(9.99856 0.00567775 1.05125e-17)
(9.99979 0.000989518 -1.05291e-17)
(9.99997 0.000156026 1.05449e-17)
(10 2.25527e-05 2.62213e-18)
(10 2.97678e-06 -3.28177e-18)
(10 -5.19689e-10 -6.58853e-19)
(10 -2.98872e-06 1.32823e-18)
(10 -2.2673e-05 0)
(9.99997 -0.000156979 0)
(9.99978 -0.000996152 1.05543e-17)
(9.99854 -0.0057189 -2.11144e-17)
(9.9916 -0.0291166 1.05808e-17)
(9.95943 -0.127515 2.06295e-20)
(9.84674 -0.450239 2.10993e-17)
(9.5406 -1.27647 -1.04059e-19)
(9.27214 -2.17482 -6.33005e-17)
(7.84534 -5.27171 6.34367e-17)
(8.80818 -4.9902 -2.13309e-17)
(7.41576 4.40195 9.24984e-21)
(7.30427 5.01529 -1.89872e-17)
(8.84399 2.15433 1.88981e-17)
(9.4291 1.15688 0)
(9.82273 0.387092 0)
(9.95706 0.102602 0)
(9.9917 0.0218945 0)
(9.99864 0.00400275 0)
(9.99981 0.000646338 -4.7607e-18)
(9.99998 9.3959e-05 9.53809e-18)
(10 1.24438e-05 -7.16595e-18)
(10 1.49372e-06 2.67985e-18)
(10 -3.06086e-08 -2.9908e-19)
(10 -1.75058e-06 -3.25951e-29)
(10 -1.44099e-05 -4.79057e-18)
(9.99997 -0.000107984 4.79361e-18)
(9.99977 -0.000736807 0)
(9.99838 -0.00452033 0)
(9.99023 -0.0244532 -1.91951e-17)
(9.9502 -0.113023 1.92191e-17)
(9.79773 -0.420179 -1.87748e-20)
(9.36104 -1.23123 9.38728e-21)
(8.72 -2.27863 -9.38073e-21)
(7.07083 -5.18482 -9.39905e-21)
(7.15574 -4.54186 0)
(7.4015 3.88951 -1.73202e-17)
(7.49285 4.46945 1.70921e-17)
(8.96995 1.75914 -1.67949e-20)
(9.5469 0.85683 1.72435e-17)
(9.87371 0.254806 -1.72154e-17)
(9.97241 0.060309 0)
(9.99512 0.0115769 -8.62544e-18)
(9.99926 0.00192373 8.61836e-18)
(9.9999 0.000283347 -4.31417e-18)
(9.99999 3.76186e-05 8.64643e-18)
(10 4.55031e-06 -4.30691e-18)
(10 4.99867e-07 1.68587e-20)
(10 -8.56723e-09 0)
(10 -5.79654e-07 2.16672e-18)
(10 -5.21879e-06 2.15842e-18)
(9.99999 -4.27691e-05 -4.30861e-18)
(9.99988 -0.000319012 -8.64273e-18)
(9.99914 -0.00214211 8.64287e-18)
(9.9944 -0.012731 -8.64185e-18)
(9.96877 -0.0653173 8.63436e-18)
(9.85898 -0.271583 8.42588e-21)
(9.50131 -0.89726 -8.41458e-21)
(8.86597 -1.83311 0)
(7.32372 -4.52893 8.40775e-21)
(7.13447 -3.90276 0)
(7.73843 3.29789 1.58804e-17)
(7.99047 3.79301 -1.56732e-17)
(9.23572 1.35732 6.72548e-21)
(9.69931 0.600252 0)
(9.92543 0.158402 0)
(9.98544 0.0333278 -9.63087e-22)
(9.99767 0.00573779 0)
(9.99968 0.000865562 7.6997e-21)
(9.99996 0.000116356 0)
(10 1.41654e-05 3.9318e-18)
(10 1.57736e-06 -5.90708e-18)
(10 1.60536e-07 2.93801e-18)
(10 2.5516e-10 -9.828e-19)
(10 -1.57773e-07 0)
(10 -1.54803e-06 0)
(10 -1.38648e-05 3.92158e-18)
(9.99996 -0.000113498 -1.17789e-17)
(9.99968 -0.000841204 7.84594e-18)
(9.9977 -0.00555683 -7.8506e-18)
(9.98576 -0.032188 7.84556e-18)
(9.92749 -0.152766 0)
(9.70844 -0.580927 0)
(9.25571 -1.31438 0)
(8.06171 -3.70095 -9.55952e-22)
(7.813 -3.21102 -1.56266e-17)
(8.41864 2.77586 -2.66841e-21)
(8.58435 3.15804 1.45941e-17)
(9.52034 0.993808 -1.45327e-17)
(9.82704 0.404001 0)
(9.96208 0.0933735 0)
(9.99338 0.0174298 8.90385e-22)
(9.99904 0.00269197 7.29909e-18)
(9.99988 0.000369394 -7.29299e-18)
(9.99999 4.53969e-05 3.56328e-21)
(10 5.08331e-06 3.56375e-21)
(10 5.23197e-07 3.56419e-21)
(10 4.94702e-08 -8.91152e-22)
(10 6.18885e-11 -8.9125e-22)
(10 -4.87519e-08 1.8219e-18)
(10 -5.15533e-07 -1.8292e-18)
(10 -5.00781e-06 4.45752e-21)
(9.99999 -4.47283e-05 4.45787e-21)
(9.99988 -0.00036418 0)
(9.99905 -0.00265658 -7.30013e-18)
(9.99345 -0.0172414 7.30257e-18)
(9.96251 -0.0927107 0)
(9.82894 -0.402989 -1.45759e-17)
(9.52998 -0.990438 1.46226e-17)
(8.59109 -3.17453 8.89908e-22)
(8.48035 -2.80359 -1.45921e-17)
(8.74638 2.55546 3.38219e-21)
(8.82762 2.86748 0)
(9.65007 0.82188 0)
(9.88103 0.312611 -6.95401e-18)
(9.97669 0.0650434 6.94351e-18)
(9.99634 0.0109751 0)
(9.99952 0.00154571 6.94538e-18)
(9.99994 0.000195169 -6.95283e-18)
(9.99999 2.21043e-05 3.47844e-18)
(10 2.29176e-06 -3.47873e-18)
(10 2.19279e-07 1.73441e-18)
(10 1.93521e-08 -1.74472e-18)
(10 -5.68068e-11 0)
(10 -2.00175e-08 -1.73475e-18)
(10 -2.26497e-07 1.74163e-18)
(10 -2.3649e-06 -3.39515e-21)
(9.99999 -2.27862e-05 -3.39528e-21)
(9.99994 -0.000200927 6.79078e-21)
(9.9995 -0.00158906 6.95042e-18)
(9.9962 -0.0112558 -6.95069e-18)
(9.97582 -0.066506 -6.7909e-21)
(9.87686 -0.317754 -6.78983e-21)
(9.6361 -0.836071 0)
(8.79292 -2.88736 -6.78978e-21)
(8.67149 -2.56741 3.38746e-21)
(8.81714 2.29618 1.25683e-23)
(8.98757 2.57795 0)
(9.71436 0.697561 1.2569e-23)
(9.9103 0.248645 6.42272e-21)
(9.9839 0.0478184 -1.25716e-23)
(9.99767 0.00747403 -6.59021e-18)
(9.99972 0.000982859 6.58897e-18)
(9.99997 0.000116358 0)
(10 1.23618e-05 -6.43226e-21)
(10 1.20578e-06 -1.25606e-23)
(10 1.08764e-07 -1.25581e-23)
(10 9.07675e-09 6.44103e-21)
(10 4.38886e-11 0)
(10 -8.53351e-09 0)
(10 -1.02514e-07 -1.25477e-23)
(10 -1.13865e-06 -1.25449e-23)
(10 -1.16974e-05 -3.28783e-18)
(9.99997 -0.000110381 9.85475e-18)
(9.99974 -0.000935029 -6.57255e-18)
(9.99784 -0.00714017 0)
(9.98505 -0.0458792 -6.56026e-18)
(9.91617 -0.240724 6.57468e-18)
(9.73316 -0.67526 1.25158e-23)
(9.0455 -2.53253 6.40218e-21)
(8.9129 -2.25742 1.25031e-23)
(9.06121 2.01695 -8.43831e-20)
(9.20038 2.25522 -9.64465e-20)
(9.79127 0.561872 1.25028e-17)
(9.93845 0.189556 -6.27409e-18)
(9.98989 0.0333764 6.26138e-18)
(9.99864 0.00484045 -6.27134e-18)
(9.99985 0.000595553 6.27315e-18)
(9.99998 6.63672e-05 -3.13752e-18)
(10 6.64004e-06 3.13842e-18)
(10 6.12263e-07 1.19755e-23)
(10 5.23028e-08 1.19789e-23)
(10 4.13942e-09 -1.19822e-23)
(10 -2.03099e-11 7.79342e-19)
(10 -4.40526e-09 7.85689e-19)
(10 -5.55139e-08 -1.57792e-18)
(10 -6.48559e-07 1.19949e-23)
(10 -7.02058e-06 6.29042e-18)
(9.99998 -7.00346e-05 -1.25778e-17)
(9.99983 -0.00062705 6.29352e-18)
(9.99853 -0.00508127 0)
(9.98907 -0.0349755 -1.2009e-23)
(9.93388 -0.197531 1.2009e-23)
(9.77857 -0.585191 -1.20027e-23)
(9.14713 -2.32721 -1.25157e-17)
(9.01905 -2.08635 1.26575e-17)
(9.17676 1.87328 1.17642e-20)
(9.295 2.08181 0)
(9.82935 0.488967 0)
(9.95175 0.156845 5.88988e-21)
(9.99263 0.0257108 1.17816e-20)
(9.99907 0.00349575 0)
(9.9999 0.00040703 6.02588e-18)
(9.99999 4.30784e-05 -6.03733e-18)
(10 4.09181e-06 5.88975e-21)
(10 3.59485e-07 -5.88938e-21)
(10 2.9304e-08 -1.50758e-18)
(10 2.21692e-09 1.51337e-18)
(10 -5.4817e-12 3.88619e-19)
(10 -2.29701e-09 -3.76815e-19)
(10 -3.03258e-08 1.51303e-18)
(10 -3.71563e-07 -4.52104e-18)
(10 -4.22241e-06 3.00788e-18)
(9.99999 -4.43355e-05 -5.88573e-21)
(9.9999 -0.000417897 5.88518e-21)
(9.99903 -0.00357456 -6.02559e-18)
(9.9923 -0.0261401 -4.29819e-21)
(9.94987 -0.157883 7.73916e-21)
(9.81821 -0.493682 6.03222e-18)
(9.27319 -2.06675 5.88152e-21)
(9.05584 -1.8503 5.86859e-21)
(9.10156 1.68049 1.16459e-17)
(9.36198 1.871 -1.1529e-17)
(9.8475 0.426846 0)
(9.96032 0.129893 -5.79714e-18)
(9.99428 0.0202317 -6.88776e-21)
(9.99932 0.00261866 5.79508e-18)
(9.99993 0.000292153 5.79656e-18)
(9.99999 2.96372e-05 -5.78511e-18)
(10 2.69887e-06 -5.65353e-21)
(10 2.27783e-07 -2.88817e-18)
(10 1.78492e-08 1.44792e-18)
(10 1.29998e-09 1.44187e-18)
(10 1.17004e-11 -5.64729e-21)
(10 -1.13704e-09 0)
(10 -1.56942e-08 0)
(10 -2.0117e-07 0)
(10 -2.39457e-06 5.6408e-21)
(9.99999 -2.64493e-05 1.40979e-21)
(9.99994 -0.000262241 -7.04684e-21)
(9.99943 -0.00237141 0)
(9.99515 -0.0184727 5.6339e-21)
(9.96592 -0.1208 1.40797e-21)
(9.86963 -0.395632 -7.03325e-21)
(9.44159 -1.78803 -1.14649e-17)
(9.26402 -1.60805 1.15755e-17)
(9.32697 1.38706 5.56167e-18)
(9.5462 1.54387 -1.107e-17)
(9.89728 0.325138 1.10923e-17)
(9.97497 0.0951263 -5.54168e-18)
(9.99665 0.013719 -5.55904e-18)
(9.99962 0.0016783 5.55407e-18)
(9.99996 0.000177761 2.77467e-18)
(10 1.72155e-05 -2.78513e-18)
(10 1.49672e-06 1.3849e-18)
(10 1.21112e-07 -2.77617e-18)
(10 9.10655e-09 2.08556e-18)
(10 6.36929e-10 -8.712e-19)
(10 -4.44379e-12 1.74027e-19)
(10 -7.03165e-10 -5.44015e-21)
(10 -1.00214e-08 2.78628e-18)
(10 -1.32864e-07 -2.79264e-18)
(10 -1.63726e-06 5.44553e-21)
(10 -1.87815e-05 5.58212e-18)
(9.99996 -0.000193341 6.79717e-21)
(9.99957 -0.00181638 -5.57618e-18)
(9.99618 -0.0148235 0)
(9.97172 -0.102063 5.58445e-18)
(9.88743 -0.349536 -5.58721e-18)
(9.49422 -1.63769 -1.11099e-17)
(9.30599 -1.4783 5.73844e-20)
(9.51967 1.29374 -5.41406e-18)
(9.62359 1.42435 5.37096e-18)
(9.92285 0.281295 2.6348e-21)
(9.98106 0.0795202 -7.90516e-21)
(9.99761 0.010744 2.63493e-21)
(9.99974 0.00125037 5.39849e-18)
(9.99998 0.000127098 -2.69497e-18)
(10 1.18519e-05 -2.69202e-18)
(10 9.91172e-07 5.26752e-21)
(10 7.75531e-08 -5.26688e-21)
(10 5.64447e-09 2.63311e-21)
(10 3.82522e-10 -2.63278e-21)
(10 -6.96161e-13 0)
(10 -3.89947e-10 -3.18621e-33)
(10 -5.7511e-09 -1.34483e-18)
(10 -7.8961e-08 1.35255e-18)
(10 -1.00817e-06 -2.69948e-18)
(10 -1.20244e-05 -2.63023e-21)
(9.99998 -0.000128721 2.69085e-18)
(9.99974 -0.00126289 -7.88995e-21)
(9.99755 -0.0107987 -5.38481e-18)
(9.98067 -0.0791321 5.37697e-18)
(9.91758 -0.280787 0)
(9.61538 -1.40008 -5.36131e-18)
(9.40825 -1.26402 5.40364e-18)
(9.44747 1.18638 0)
(9.64819 1.30695 -5.26213e-18)
(9.92819 0.254351 5.2482e-18)
(9.9836 0.069093 2.56654e-21)
(9.99802 0.00902526 2.56635e-21)
(9.99979 0.00101647 -5.25743e-18)
(9.99998 0.000100405 5.25697e-18)
(10 9.08806e-06 2.62713e-18)
(10 7.37914e-07 3.20639e-22)
(10 5.61508e-08 -2.62602e-18)
(10 3.97468e-09 -2.56407e-21)
(10 2.61927e-10 2.88413e-21)
(10 1.74113e-12 0)
(10 -2.33845e-10 5.12573e-21)
(10 -3.56259e-09 -2.56246e-21)
(10 -5.05203e-08 1.31177e-18)
(10 -6.66427e-07 -1.31123e-18)
(10 -8.25026e-06 -2.5612e-21)
(9.99998 -9.15595e-05 -2.88088e-21)
(9.99982 -0.000934184 2.56035e-21)
(9.9983 -0.00834824 -5.24221e-18)
(9.98578 -0.0649607 5.8255e-21)
(9.93846 -0.237582 5.24205e-18)
(9.69016 -1.25646 0)
(9.55381 -1.14193 5.23499e-18)
(9.56397 0.990544 -1.02001e-17)
(9.74569 1.09213 5.07171e-18)
(9.94982 0.198993 5.09493e-18)
(9.9892 0.0527805 -5.09237e-18)
(9.99876 0.00650333 0)
(9.99988 0.000704719 -3.11088e-22)
(9.99999 6.69947e-05 0)
(10 5.86622e-06 -3.11205e-22)
(10 4.60476e-07 -3.11263e-22)
(10 3.39977e-08 0)
(10 2.33481e-09 0)
(10 1.49251e-10 -3.11435e-22)
(10 -6.94511e-13 0)
(10 -1.62174e-10 0)
(10 -2.52798e-09 -1.27633e-18)
(10 -3.67195e-08 1.27656e-18)
(10 -4.96171e-07 -3.11714e-22)
(10 -6.30712e-06 -2.55401e-18)
(9.99999 -7.18823e-05 2.55477e-18)
(9.99986 -0.000752541 0)
(9.99861 -0.00693444 5.11028e-18)
(9.98793 -0.0559199 -1.02206e-17)
(9.94518 -0.212013 1.02202e-17)
(9.71971 -1.14652 -2.5373e-20)
(9.54102 -1.04384 -5.1324e-18)
(9.70148 0.927882 1.2187e-21)
(9.79024 1.01437 -1.21887e-21)
(9.96214 0.175938 0)
(9.9916 0.0455126 0)
(9.99908 0.00533482 0)
(9.99991 0.000558954 1.21833e-21)
(9.99999 5.16507e-05 0)
(10 4.40396e-06 -1.21807e-21)
(10 3.36211e-07 0)
(10 2.42657e-08 -1.21781e-21)
(10 1.62865e-09 0)
(10 1.01821e-10 -3.11693e-19)
(10 3.88099e-13 3.10441e-19)
(10 -9.97119e-11 0)
(10 -1.5974e-09 1.24636e-18)
(10 -2.37991e-08 -2.49244e-18)
(10 -3.29811e-07 1.24486e-18)
(10 -4.3146e-06 0)
(9.99999 -5.05691e-05 2.49158e-18)
(9.99991 -0.000546943 -2.4913e-18)
(9.9991 -0.00520667 4.98048e-18)
(9.99177 -0.0441473 -4.98151e-18)
(9.96091 -0.170769 0)
(9.79208 -0.976773 0)
(9.64047 -0.888956 0)
(9.63557 0.861946 -1.19545e-21)
(9.79558 0.942653 1.19613e-21)
(9.96273 0.163067 0)
(9.9923 0.0408827 0)
(9.99918 0.00469551 0)
(9.99992 0.000481746 -1.19585e-21)
(9.99999 4.36972e-05 0)
(10 3.64904e-06 1.19564e-21)
(10 2.7295e-07 0)
(10 1.93196e-08 -1.22293e-18)
(10 1.27131e-09 1.22341e-18)
(10 7.79235e-11 -1.19522e-21)
(10 4.86381e-13 1.19511e-21)
(10 -7.00392e-11 1.195e-21)
(10 -1.1466e-09 0)
(10 -1.74884e-08 0)
(10 -2.47912e-07 1.19466e-21)
(10 -3.33247e-06 -2.44644e-18)
(9.99999 -4.00705e-05 2.4462e-18)
(9.99994 -0.000445422 0)
(9.99932 -0.00436979 1.1942e-21)
(9.99347 -0.0387402 0)
(9.96953 -0.153078 0)
(9.8248 -0.914366 0)
(9.73868 -0.838105 0)
(9.69688 0.723916 -4.79801e-18)
(9.85128 0.792708 4.7678e-18)
(9.97334 0.129033 0)
(9.99483 0.0319854 -2.33736e-21)
(9.99947 0.00350364 0)
(9.99995 0.000349363 -2.39428e-18)
(10 3.07147e-05 4.78699e-18)
(10 2.50143e-06 -2.39271e-18)
(10 1.82221e-07 -1.20005e-18)
(10 1.25994e-08 1.1979e-18)
(10 8.09314e-10 5.85007e-22)
(10 4.85259e-11 1.55636e-19)
(10 -2.85181e-13 -1.49809e-19)
(10 -5.45283e-11 1.1928e-18)
(10 -9.06086e-10 -1.19884e-18)
(10 -1.40551e-08 0)
(10 -2.02558e-07 -2.34221e-21)
(10 -2.77072e-06 0)
(10 -3.39316e-05 0)
(9.99994 -0.000383059 -2.39951e-18)
(9.99937 -0.00382852 2.40224e-18)
(9.99392 -0.0345886 0)
(9.96957 -0.141123 4.7951e-18)
(9.82942 -0.845154 -2.11544e-20)
(9.67227 -0.774225 -9.61655e-18)
(9.79495 0.675735 4.71162e-18)
(9.8793 0.735095 2.30171e-21)
(9.97995 0.115536 4.71415e-18)
(9.99593 0.0280374 -2.35291e-18)
(9.9996 0.00295669 -2.35635e-18)
(9.99996 0.000288157 0)
(10 2.48373e-05 1.15043e-21)
(10 1.98386e-06 2.35475e-18)
(10 1.41596e-07 -2.35342e-18)
(10 9.63959e-09 0)
(10 6.09098e-10 0)
(10 3.60183e-11 -3.44995e-21)
(10 1.18573e-13 4.59957e-21)
(10 -3.54845e-11 2.2996e-21)
(10 -5.99249e-10 5.89801e-19)
(10 -9.48474e-09 -5.88603e-19)
(10 -1.39371e-07 1.14952e-21)
(10 -1.94928e-06 2.35403e-18)
(10 -2.43764e-05 -4.70767e-18)
(9.99996 -0.000282691 2.35364e-18)
(9.99959 -0.00289414 -2.29828e-21)
(9.99591 -0.027256 0)
(9.97832 -0.112145 2.29741e-21)
(9.87593 -0.709143 4.6944e-18)
(9.73152 -0.648557 -9.42964e-18)
(9.73824 0.627498 -4.64996e-18)
(9.87936 0.682646 -4.65207e-18)
(9.97952 0.10783 4.64512e-18)
(9.99614 0.0255072 2.32416e-18)
(9.99963 0.00265907 -2.32448e-18)
(9.99997 0.000255665 0)
(10 2.17786e-05 5.67307e-22)
(10 1.71434e-06 -1.70181e-21)
(10 1.2068e-07 1.16169e-18)
(10 8.10601e-09 -2.32323e-18)
(10 5.05142e-10 1.16154e-18)
(10 2.91838e-11 2.89798e-19)
(10 2.06635e-13 -2.71632e-19)
(10 -2.61777e-11 2.69912e-19)
(10 -4.55132e-10 -2.9144e-19)
(10 -7.32873e-09 0)
(10 -1.09455e-07 1.70077e-21)
(10 -1.56346e-06 -5.66885e-22)
(10 -1.99334e-05 -2.3218e-18)
(9.99997 -0.000236026 2.32106e-18)
(9.9997 -0.00246946 0)
(9.99683 -0.0241242 0)
(9.98392 -0.100788 -5.66622e-22)
(9.90042 -0.660463 -4.62958e-18)
(9.82081 -0.6082 1.35232e-20)
(9.77713 0.52032 -2.29293e-18)
(9.91373 0.567133 2.28e-18)
(9.98535 0.0845141 5.57793e-22)
(9.99744 0.0199839 0)
(9.99976 0.00200261 2.28619e-18)
(9.99998 0.000188404 -2.28367e-18)
(10 1.56307e-05 5.58149e-22)
(10 1.20755e-06 5.58216e-22)
(10 8.32423e-08 2.23313e-21)
(10 5.48971e-09 -2.85874e-19)
(10 3.35774e-10 1.42954e-19)
(10 1.90254e-11 2.80915e-19)
(10 -3.58761e-13 -1.43515e-19)
(10 -2.20239e-11 5.74252e-19)
(10 -3.84051e-10 -5.72085e-19)
(10 -6.25647e-09 0)
(10 -9.44722e-08 1.67642e-21)
(10 -1.36462e-06 -2.28634e-18)
(10 -1.762e-05 2.28717e-18)
(9.99997 -0.000210373 5.59e-22)
(9.9997 -0.00222556 0)
(9.99688 -0.0219286 0)
(9.9829 -0.0943357 5.59113e-22)
(9.89846 -0.612114 -4.5703e-18)
(9.76037 -0.563446 4.59509e-18)
(9.85604 0.483589 2.207e-21)
(9.93298 0.524055 0)
(9.98941 0.0762061 -1.10321e-21)
(9.99801 0.017686 -2.25834e-18)
(9.99982 0.00172159 2.26035e-18)
(9.99998 0.000159534 -2.26138e-18)
(10 1.30588e-05 2.26015e-18)
(10 9.94628e-07 -1.12946e-18)
(10 6.75532e-08 1.12719e-18)
(10 4.41009e-09 -5.64666e-19)
(10 2.66892e-10 5.64634e-19)
(10 1.49464e-11 -2.7789e-19)
(10 1.60287e-14 3.17501e-19)
(10 -1.45192e-11 -3.74887e-20)
(10 -2.59909e-10 5.65606e-19)
(10 -4.29968e-09 -1.12784e-18)
(10 -6.59269e-08 -5.66642e-19)