/*--------------------------------*- C++ -*----------------------------------*\
| =========                 |                                                 |
| \\      /  F ield         | OpenFOAM: The Open Source CFD Toolbox           |
|  \\    /   O peration     | Version:  2112                                  |
|   \\  /    A nd           | Website:  www.openfoam.com                      |
|    \\/     M anipulation  |                                                 |
\*---------------------------------------------------------------------------*/
FoamFile
{
    version     2.0;
    format      ascii;
    arch        "LSB;label=32;scalar=64";
    class       volScalarField;
    location    "0.00902";
    object      p;
}
// * * * * * * * * * * * * * * * * * * * * * * * * * * * * * * * * * * * * * //

dimensions      [1 -1 -2 0 0 0 0];

internalField   nonuniform List<scalar> 
13875
(
951600
984297
973570
975906
973665
974516
975145
974621
975011
975158
975084
975056
974675
974780
974832
974698
974633
975330
975171
973970
973387
975648
972331
982587
945562
733799
659573
672168
677203
669240
669744
677479
679420
679849
679520
678974
678464
670215
669165
670406
678032
679299
679308
677537
669947
669573
676913
672251
657199
731000
736888
635515
664289
653636
649226
647819
647269
647197
649113
649978
648929
649068
645404
645300
645225
648909
646256
648193
647934
647646
648543
652165
661934
632182
733701
743529
636159
665172
653794
649529
647989
646367
645783
645840
645532
644071
644821
645442
645403
645253
644531
643500
644587
646114
647795
648825
652290
662682
632790
739306
757358
639165
667727
654502
650380
648469
646526
645951
645941
645568
644101
644850
645574
645672
645373
644562
643597
644669
646234
648229
649607
652883
664965
635435
750367
759038
647821
673495
656472
652169
649473
647014
646402
646209
645711
644234
644975
645848
646213
645631
644689
643880
644938
646633
649155
651280
654754
670540
643169
751786
765046
668330
685723
661387
655811
651514
648109
647147
646744
646072
644624
645345
646425
646786
646130
644994
644506
645651
647710
651211
654916
660354
682065
665861
755832
791232
718364
711648
674734
663589
655918
650581
648743
647988
646996
645595
646186
647562
647941
647190
645806
645787
647149
649954
655322
662290
673140
707062
715352
781702
908671
827936
766529
704396
679124
664582
655635
652032
650618
649075
647755
648102
649855
650262
649394
647796
648403
650280
654567
663396
676944
700897
760205
823147
909507
1.52416e+06
1.02956e+06
833616
739399
697563
675045
662963
657701
655403
653220
652194
652315
654390
654804
653956
652351
653370
655818
661554
673905
695761
736822
829428
1.02531e+06
1.51712e+06
2.90561e+06
1.39299e+06
957365
796366
725951
692038
675889
668274
664564
661877
661017
660874
662978
663455
662925
661816
663003
666199
673612
689596
722311
789404
941186
1.3514e+06
2.86077e+06
5.6043e+06
2.34611e+06
1.28684e+06
936498
790052
729233
702683
690089
683813
680395
679236
678875
680453
681113
681202
681443
683361
688598
700634
727012
786941
926031
1.25254e+06
2.27473e+06
5.57507e+06
5.38994e+06
4.84676e+06
2.31308e+06
1.39991e+06
979597
829059
767718
741662
729305
723468
721088
720259
720623
721515
722757
725359
730672
742381
769109
834659
990068
1.38739e+06
2.18338e+06
4.87613e+06
5.34378e+06
4.84079e+06
4.65367e+06
4.72128e+06
3.98697e+06
1.63572e+06
1.13614e+06
955357
885441
853467
838354
831616
828649
827479
828704
832232
840344
857723
894087
975579
1.20158e+06
1.83493e+06
4.03332e+06
4.69e+06
4.71858e+06
4.76432e+06
4.03116e+06
4.13074e+06
4.50496e+06
4.25658e+06
3.994e+06
2.49257e+06
1.66135e+06
1.37657e+06
1.26463e+06
1.21733e+06
1.19791e+06
1.18993e+06
1.18705e+06
1.18875e+06
1.19593e+06
1.21559e+06
1.26468e+06
1.38387e+06
1.69413e+06
2.68638e+06
4.11467e+06
4.24403e+06
4.51179e+06
4.2868e+06
4.26871e+06
3.53437e+06
3.46175e+06
3.92964e+06
4.05673e+06
4.26504e+06
4.33673e+06
3.69019e+06
3.05563e+06
2.84685e+06
2.68112e+06
2.57528e+06
2.53483e+06
2.51928e+06
2.52468e+06
2.55416e+06
2.63702e+06
2.84618e+06
3.04484e+06
3.75457e+06
4.38997e+06
4.23658e+06
4.07838e+06
4.05348e+06
3.57199e+06
3.74935e+06
2.55142e+06
2.69355e+06
3.06061e+06
3.4933e+06
4.19998e+06
5.139e+06
6.79016e+06
7.59648e+06
7.95938e+06
8.05663e+06
8.12311e+06
8.13694e+06
8.14901e+06
8.14235e+06
8.14017e+06
8.08332e+06
7.98325e+06
7.67574e+06
6.80669e+06
5.10178e+06
4.19931e+06
3.56028e+06
3.15023e+06
2.81809e+06
2.70454e+06
1.43401e+06
1.7199e+06
2.31201e+06
2.99532e+06
4.1723e+06
5.58722e+06
6.77306e+06
7.42006e+06
7.6611e+06
7.63269e+06
7.55402e+06
7.48629e+06
7.46887e+06
7.48675e+06
7.55621e+06
7.66098e+06
7.72429e+06
7.48908e+06
6.8057e+06
5.57388e+06
4.11787e+06
2.93073e+06
2.19219e+06
1.6222e+06
1.34511e+06
695584
1.02849e+06
1.70812e+06
2.59944e+06
4.07953e+06
5.15656e+06
5.83425e+06
6.33917e+06
6.50189e+06
6.47372e+06
6.43108e+06
6.44523e+06
6.46634e+06
6.46549e+06
6.45406e+06
6.5143e+06
6.59179e+06
6.47468e+06
6.05239e+06
5.39221e+06
4.1161e+06
2.66754e+06
1.72782e+06
1.0427e+06
705129
383224
617356
1.13543e+06
2.19873e+06
3.6302e+06
4.35255e+06
4.68624e+06
5.01706e+06
5.24065e+06
5.39734e+06
5.5414e+06
5.65396e+06
5.69255e+06
5.66578e+06
5.55602e+06
5.40046e+06
5.23258e+06
5.01435e+06
4.73965e+06
4.43745e+06
3.6686e+06
2.1934e+06
1.1306e+06
607314
374289
956089
979771
1.17155e+06
1.88496e+06
2.89365e+06
3.38995e+06
3.7169e+06
4.10245e+06
4.42698e+06
4.65876e+06
4.83486e+06
4.94074e+06
4.96473e+06
4.94036e+06
4.82751e+06
4.63001e+06
4.36464e+06
4.02872e+06
3.68394e+06
3.40812e+06
2.87578e+06
1.85968e+06
1.1466e+06
970877
960438
1.01608e+06
977776
1.15686e+06
1.60304e+06
2.16941e+06
2.62165e+06
3.02088e+06
3.45722e+06
3.7959e+06
4.03287e+06
4.20044e+06
4.28926e+06
4.30386e+06
4.28169e+06
4.1843e+06
3.99513e+06
3.7256e+06
3.37151e+06
2.93766e+06
2.60654e+06
2.12781e+06
1.56021e+06
1.12342e+06
946994
987558
1.12452e+06
1.01786e+06
1.13224e+06
1.34303e+06
1.69358e+06
2.08541e+06
2.52552e+06
2.95705e+06
3.26437e+06
3.48384e+06
3.62992e+06
3.70196e+06
3.71539e+06
3.69037e+06
3.6057e+06
3.43956e+06
3.19772e+06
2.89165e+06
2.42173e+06
2.06031e+06
1.65509e+06
1.30953e+06
1.10225e+06
1.00766e+06
1.13984e+06
1.32009e+06
1.14987e+06
1.13513e+06
1.19052e+06
1.44115e+06
1.77818e+06
2.1342e+06
2.53102e+06
2.80217e+06
3.00436e+06
3.12669e+06
3.19309e+06
3.20613e+06
3.18111e+06
3.10449e+06
2.96088e+06
2.74328e+06
2.47213e+06
2.05931e+06
1.73615e+06
1.39483e+06
1.1528e+06
1.10888e+06
1.15821e+06
1.30805e+06
1.3782e+06
1.28088e+06
1.14356e+06
1.13088e+06
1.29618e+06
1.55732e+06
1.83845e+06
2.16748e+06
2.4011e+06
2.5816e+06
2.69587e+06
2.7532e+06
2.7668e+06
2.74297e+06
2.67783e+06
2.55058e+06
2.3552e+06
2.12138e+06
1.78728e+06
1.51397e+06
1.24659e+06
1.10804e+06
1.12161e+06
1.28565e+06
1.36191e+06
1.4374e+06
1.38759e+06
1.16069e+06
1.13153e+06
1.20502e+06
1.39664e+06
1.60776e+06
1.87542e+06
2.07202e+06
2.22862e+06
2.33178e+06
2.38281e+06
2.39539e+06
2.37484e+06
2.31623e+06
2.20182e+06
2.03331e+06
1.83555e+06
1.57384e+06
1.36726e+06
1.16544e+06
1.10842e+06
1.13728e+06
1.36844e+06
1.40664e+06
1.4768e+06
1.4191e+06
1.18027e+06
1.13168e+06
1.15069e+06
1.27143e+06
1.42835e+06
1.63601e+06
1.79862e+06
1.93077e+06
2.0203e+06
2.06411e+06
2.0779e+06
2.0577e+06
2.00561e+06
1.90745e+06
1.76349e+06
1.60237e+06
1.39638e+06
1.24345e+06
1.119e+06
1.10851e+06
1.16381e+06
1.40552e+06
1.44901e+06
1.56071e+06
1.49132e+06
1.21569e+06
1.12865e+06
1.11035e+06
1.17419e+06
1.27987e+06
1.43956e+06
1.56919e+06
1.68087e+06
1.75715e+06
1.79828e+06
1.81123e+06
1.79505e+06
1.75087e+06
1.66896e+06
1.54965e+06
1.41599e+06
1.25834e+06
1.15339e+06
1.08744e+06
1.1064e+06
1.20095e+06
1.47966e+06
1.53717e+06
1.67339e+06
1.60118e+06
1.25703e+06
1.11809e+06
1.08091e+06
1.09744e+06
1.16067e+06
1.27941e+06
1.38432e+06
1.47468e+06
1.53734e+06
1.57114e+06
1.58383e+06
1.56773e+06
1.52846e+06
1.46169e+06
1.36403e+06
1.26055e+06
1.14431e+06
1.08416e+06
1.06353e+06
1.09646e+06
1.22649e+06
1.53076e+06
1.59159e+06
1.73121e+06
1.7111e+06
1.30091e+06
1.10985e+06
1.04894e+06
1.0447e+06
1.06676e+06
1.14949e+06
1.22872e+06
1.30255e+06
1.35384e+06
1.38307e+06
1.39255e+06
1.38001e+06
1.34652e+06
1.2927e+06
1.21475e+06
1.13202e+06
1.04894e+06
1.02658e+06
1.03168e+06
1.08766e+06
1.27024e+06
1.64382e+06
1.6825e+06
1.73268e+06
1.72428e+06
1.34005e+06
1.10688e+06
1.01566e+06
992885
991814
1.03892e+06
1.09822e+06
1.15568e+06
1.19653e+06
1.22049e+06
1.22944e+06
1.21833e+06
1.19108e+06
1.1487e+06
1.08838e+06
1.02934e+06
979589
980920
1.00075e+06
1.08174e+06
1.30116e+06
1.68687e+06
1.71717e+06
1.73867e+06
1.72393e+06
1.41211e+06
1.10759e+06
979894
937781
929213
954215
994067
1.03737e+06
1.06847e+06
1.08742e+06
1.09296e+06
1.08543e+06
1.06346e+06
1.03018e+06
985121
944291
918719
925445
964292
1.08183e+06
1.35358e+06
1.68912e+06
1.72319e+06
1.75049e+06
1.71179e+06
1.47092e+06
1.10965e+06
953471
892190
878621
879496
904595
935479
958351
971753
976608
969464
952643
929053
897232
872191
868762
881382
935655
1.08412e+06
1.41812e+06
1.68866e+06
1.72495e+06
1.75029e+06
1.6932e+06
1.54132e+06
1.11872e+06
928064
849074
822944
817922
827519
849136
865636
876393
879288
875219
862728
846927
824911
811832
816165
837842
911560
1.09155e+06
1.51866e+06
1.68085e+06
1.72768e+06
1.74926e+06
1.66656e+06
1.54833e+06
1.14071e+06
917809
818454
778200
764799
764176
774610
785546
792789
795335
791640
782057
771056
760693
760842
771243
806151
898873
1.10864e+06
1.55844e+06
1.66703e+06
1.72698e+06
1.7437e+06
1.63966e+06
1.54286e+06
1.16146e+06
918502
787463
733479
715118
709473
712890
718841
723945
725279
723192
715906
711681
706850
710736
727894
778545
899733
1.14387e+06
1.55847e+06
1.64286e+06
1.72502e+06
1.73197e+06
1.61442e+06
1.53603e+06
1.20652e+06
925257
768535
700302
670642
660503
657591
659637
662630
663449
661870
657245
655661
658930
668834
695792
758574
903315
1.18879e+06
1.54339e+06
1.61735e+06
1.71727e+06
1.70814e+06
1.58675e+06
1.52322e+06
1.29587e+06
943485
754344
668924
632013
616879
612133
610843
612573
612213
611644
609360
611170
615351
627638
662432
742348
915342
1.27909e+06
1.51644e+06
1.58498e+06
1.69951e+06
1.67516e+06
1.56715e+06
1.48774e+06
1.34179e+06
963530
754846
647701
599104
578555
569219
566943
567297
566697
566369
564745
566927
577081
596527
641088
742940
943525
1.32868e+06
1.46513e+06
1.55389e+06
1.66331e+06
1.61752e+06
1.54223e+06
1.42291e+06
1.34042e+06
1.00713e+06
760936
629188
570581
544926
534447
530272
530333
528305
529570
529337
533870
543662
566487
622145
746226
979189
1.32684e+06
1.3972e+06
1.5238e+06
1.6194e+06
1.5615e+06
1.50885e+06
1.36608e+06
1.33609e+06
1.09392e+06
776954
629214
551343
517841
501694
496508
495373
493974
495206
495036
499304
515075
547081
622155
756853
1.04819e+06
1.32157e+06
1.34515e+06
1.49636e+06
1.56835e+06
1.52203e+06
1.47308e+06
1.31502e+06
1.31775e+06
1.17839e+06
796859
631343
538621
494762
476534
468900
467049
464422
467124
468251
475539
492029
532003
626049
783306
1.1911e+06
1.30994e+06
1.30198e+06
1.4596e+06
1.50387e+06
1.47886e+06
1.44056e+06
1.28169e+06
1.28024e+06
1.17728e+06
839627
640736
538860
480009
452548
442957
439901
437888
440331
442004
450666
476827
529382
632125
819051
1.18932e+06
1.28211e+06
1.27403e+06
1.42707e+06
1.46266e+06
1.43264e+06
1.39685e+06
1.25267e+06
1.21839e+06
1.16959e+06
925590
661506
541434
471059
436495
422596
418485
414725
417949
422316
434874
466265
530682
647930
890186
1.17987e+06
1.22663e+06
1.25054e+06
1.39114e+06
1.41576e+06
1.40013e+06
1.3574e+06
1.23076e+06
1.16165e+06
1.14414e+06
1.0261e+06
693639
546052
471286
424486
404455
397356
394162
397559
402346
420000
466533
538000
684280
1.03734e+06
1.15878e+06
1.17298e+06
1.23163e+06
1.34502e+06
1.37499e+06
1.36e+06
1.32044e+06
1.21159e+06
1.11817e+06
1.09299e+06
1.02311e+06
762015
561441
474086
422002
393371
382374
377071
381350
391816
415498
468014
551726
747822
1.03477e+06
1.11177e+06
1.1255e+06
1.21141e+06
1.30215e+06
1.34619e+06
1.31379e+06
1.27533e+06
1.1921e+06
1.08221e+06
1.03926e+06
1.01301e+06
901401
594137
481514
422756
388072
370898
364093
370216
385023
415790
473270
579861
876747
1.02277e+06
1.05459e+06
1.08613e+06
1.19049e+06
1.26748e+06
1.31041e+06
1.26676e+06
1.23652e+06
1.16927e+06
1.05669e+06
994413
986679
900132
653135
494456
424638
388263
367623
353095
365693
385266
418583
487767
640797
895580
995665
1.00646e+06
1.05751e+06
1.16389e+06
1.22835e+06
1.25847e+06
1.17226e+06
1.17846e+06
1.13622e+06
1.0381e+06
959845
938421
893739
776303
521706
432561
389958
367920
353207
365851
386368
425855
514707
760595
890922
942061
964647
1.03413e+06
1.13646e+06
1.1741e+06
1.16779e+06
1.03693e+06
1.10063e+06
1.07974e+06
1.01279e+06
931122
891623
874445
794917
577662
452149
395664
369550
354355
366952
391056
443812
569456
796823
873792
887470
929135
1.00978e+06
1.08215e+06
1.09722e+06
1.03694e+06
97036.7
107706
109098
113028
112774
113339
113008
113833
114224
115455
115893
113727
109594
106572
105212
104497
104119
103963
103833
104071
104579
105066
105491
106010
106376
106880
107311
108093
108936
108968
96742.1
109579
109702
113565
113163
113652
113543
114505
114972
116029
116134
113679
109840
107318
105445
104521
104112
103933
103825
104056
104563
105054
105490
106005
106456
107061
107726
109097
110174
110681
99574.9
111651
111310
113938
113816
114195
114304
115425
116061
116852
116207
113638
110246
107763
105622
104800
104322
104063
104039
104302
105092
105647
106289
106921
107456
108140
109030
110770
111399
112215
104424
113519
113281
114739
114740
115009
115232
116270
116937
117390
116247
113716
110767
107802
105959
105099
104437
104289
104231
104489
105440
106232
107040
107823
108574
109472
110332
111604
112400
113257
108787
115451
115168
116055
116050
116377
116718
117411
117687
117723
116425
113794
110765
107800
106414
105607
104974
104790
104723
105170
106170
107285
108127
109049
109995
111155
111946
112606
113527
114209
112425
117606
117076
117782
117703
118093
118387
118556
118539
117877
116493
113839
110675
108127
106996
106060
105562
105344
105297
105795
106886
108322
109086
110107
111181
112455
113292
113753
114430
114847
115768
119700
119118
119747
119623
119675
119320
119126
118939
117937
116339
113866
110797
108844
107670
106722
106344
106208
106173
106736
107719
108882
110294
111464
112654
113853
114546
114910
115268
115424
119146
121881
121371
122114
121409
120826
119984
119446
119177
117969
116108
113873
111192
109415
108320
107577
107269
107164
107149
107651
108522
109663
111357
112830
114093
114998
115477
115804
115976
115990
122373
124012
123662
123935
122318
121405
120176
119594
119296
118042
115663
113564
111511
110204
109246
108669
108438
108342
108322
108676
109473
110555
112427
114417
115651
116164
116414
116670
116681
116654
125259
126273
125237
124832
122736
121625
120254
119644
119344
117580
114998
113197
111761
110929
110192
109766
109554
109464
109444
109697
110425
111483
113418
115761
116841
117241
117300
117357
117242
117179
127637
127769
126005
125237
122905
121695
120282
119657
119366
116857
114164
112763
111888
111478
111067
110800
110744
110754
110847
111540
111944
113085
114943
116597
117483
117929
118123
118055
117812
117836
129889
128474
126325
125402
122977
121717
120266
119637
119301
115643
113514
112456
111947
111784
111760
111764
111908
112606
112845
113241
113847
114779
116233
117387
118163
118437
118550
118589
118376
118361
131198
128740
126428
125455
123007
121610
120105
118876
117932
114594
112951
112244
111968
111910
112259
112507
113709
114106
114421
114373
115296
116549
117519
118148
118482
118857
119070
119119
118940
118872
131729
128832
126446
125415
122905
121114
120054
117831
115837
113559
112488
112086
111965
111952
112657
113333
114136
114692
115256
116138
117437
118196
118517
118649
118733
119145
119451
119549
119442
119326
131854
128686
125926
124678
122365
120596
119732
116889
114130
112697
112033
111805
111746
111957
112826
113948
114562
115315
116426
117833
118713
118977
119026
118951
118886
119236
119604
119851
119901
119952
131590
128066
125096
123219
121496
119558
118594
115391
113133
112031
111553
111395
111363
111914
112896
114297
115190
116206
117660
118679
119249
119319
119263
119107
119023
119304
119698
120026
120250
120365
130632
126720
124059
121449
120126
118156
116931
113713
112006
111175
110838
110743
110734
111707
112914
114487
115721
116993
118212
119032
119429
119441
119345
119177
119105
119379
119743
120109
120438
120575
129266
125453
122543
119722
118389
116421
114790
112111
110789
110177
109942
109876
109890
111277
112879
114546
115952
117431
118408
119126
119459
119462
119357
119192
119124
119401
119755
120139
120516
120659
127218
122632
120715
117761
116392
114431
112761
110634
109593
109074
108841
108760
108909
110643
112486
114510
116003
117505
118438
119133
119375
119293
119093
118781
118602
119138
119629
120140
120530
120673
125274
120810
118680
115645
114210
112230
110738
109115
108284
107741
107491
107408
107921
109872
112021
113951
115984
117515
118346
118637
118581
118318
117954
117096
116627
117729
118500
119531
120175
120412
121815
117853
115858
113467
111605
109938
108539
107489
106890
106398
106162
106070
107047
109166
111647
113493
115743
117032
117526
117614
117558
117159
115961
115425
115910
116621
117332
118298
119046
119266
118972
115085
113316
111164
109026
107517
106486
105845
105456
105178
104993
104971
106311
108535
111330
112896
114948
115951
116384
116517
116379
115268
114958
114891
115133
115038
115398
116848
117458
117281
113853
111371
110326
108300
106559
105314
104484
104085
103966
103997
104050
104108
105304
107362
110006
111200
112687
114163
114882
115130
114813
114452
114372
114240
113846
113535
113550
114110
114832
115522
110916
108254
107920
105762
104046
103335
102738
102479
102426
102744
102896
103006
103470
104715
107562
108742
109965
112365
113569
113995
113993
113766
113296
113049
112730
112489
112493
112896
113691
114028
100914
103897
105232
103656
102148
101481
101110
100992
101009
101050
101056
101022
100946
101268
104903
106604
107956
110793
112512
113261
113450
113080
112587
112241
111965
111811
111905
112235
112790
113146
107129
106887
106256
105619
105105
104586
103986
103284
102686
102152
101494
101339
101381
101622
102175
103217
105319
107367
111481
113736
113514
112785
112598
112100
112371
111903
112162
108682
107592
97627.5
108879
107684
106825
105883
105214
104555
104020
103275
102682
102139
101485
101301
101345
101619
102169
103316
105284
108459
112021
113954
114186
113411
113331
112905
112964
112373
112719
109108
109385
97317.2
110372
109508
108325
106994
106146
105336
104598
103955
103357
102878
102288
101853
101908
102030
102551
103492
105240
109255
112303
114080
114931
114295
114108
113704
113616
113104
113100
110531
111216
99954.9
111439
110588
109639
108232
107237
106280
105485
104819
104151
103493
102763
102281
102319
102504
102908
104051
105758
109303
112460
114320
115360
115198
114976
114763
114562
114055
113919
112413
112919
104600
112413
111586
111057
109919
108761
107545
106704
106048
105172
103978
103161
102957
103009
103215
103617
104727
106320
109294
112572
114597
115696
116117
116119
116220
115996
115263
115165
114223
114754
108753
113215
112893
112193
111365
110159
108658
107720
107019
105789
104681
103887
103643
103696
103873
104308
105325
106795
109446
112644
114738
115900
116818
117255
117528
117614
116963
116771
116027
116818
112195
113940
113998
113631
112945
111739
110124
108979
108140
106780
105656
104831
104544
104579
104731
105119
105977
107239
109657
112613
114906
116159
117346
117840
118232
119105
118876
118717
117982
118825
115423
114584
114775
114627
114112
113156
111734
110274
109198
107908
106602
105722
105451
105489
105639
106003
106847
108024
109872
112410
114737
116231
117682
118180
118741
119774
120383
120878
120230
120937
118634
115290
115439
115431
115145
114541
113486
111789
110420
109166
107825
106892
106574
106606
106734
107076
107800
109050
110273
112251
114489
116285
118025
118428
119052
120128
121123
122647
122498
122964
121757
115850
115964
116070
116017
115902
115237
113417
111618
110358
109125
108196
107751
107760
107842
108115
108724
109744
110452
111927
114004
116383
118143
118525
119144
120287
121466
123494
123966
125199
124574
116544
116593
116834
116844
116643
116177
115095
113031
111674
110571
109854
109256
109123
109147
109230
109477
110122
110556
111498
113194
115786
118178
118538
119160
120347
121627
123843
124658
126549
126883
117272
117292
117514
117446
117239
116892
116102
114431
112916
111811
111365
110908
110430
110294
110289
110335
110390
110594
111212
112396
114674
118180
118514
119126
120383
121696
123974
124932
127167
129080
118058
118001
118072
117979
117744
117423
116976
115996
114593
113468
112717
112516
111994
111445
111149
110771
110490
110594
110949
111765
113567
117417
117991
118762
120437
121719
124021
125019
127399
130216
118649
118599
118592
118337
118028
117689
117485
117216
116513
115792
114537
113858
113265
112589
111921
111132
110512
110565
110764
111287
112574
115337
116992
118546
119827
121548
123945
125021
127485
130656
119123
119026
118870
118604
118213
117936
117937
117922
117815
117397
116780
115427
114432
113522
112523
111427
110502
110491
110562
110840
111649
113345
115968
118188
119111
120967
123311
124542
127317
130758
119624
119409
119056
118724
118273
118053
118151
118278
118362
118259
117876
117031
115730
114583
113293
111733
110491
110194
110235
110402
110935
112112
114509
117115
118082
120027
121988
123614
126782
130445
119874
119583
119163
118777
118332
118137
118248
118436
118617
118611
118389
117842
116709
115297
113722
111879
110483
109724
109742
109845
110194
110999
112612
115552
116721
118702
120123
122681
125436
129528
119977
119685
119205
118797
118354
118164
118273
118474
118680
118717
118586
118184
117194
115630
113902
111918
110333
109105
109064
109117
109323
109846
110953
113280
115074
117017
118376
121202
124164
128051
120004
119717
119211
118668
118236
118053
118142
118414
118664
118729
118626
118275
117373
115732
113933
111831
109871
108329
108104
108179
108441
108787
109483
111065
113190
115080
116458
119407
121386
126020
119824
119546
118782
117133
116998
116933
117071
117558
118048
118414
118456
118260
117407
115735
113758
111421
109200
107453
106898
106979
107368
107587
108043
109113
111088
112959
114393
117424
119592
124069
118530
118243
117459
116020
115942
115878
115970
116262
116829
117453
117657
117549
116981
115390
113220
111002
108496
106637
105637
105731
106024
106250
106569
107284
108764
110539
112188
114710
116699
120660
115999
115976
116003
115299
114668
114548
114543
114663
114998
115750
116501
116384
115914
114788
112765
110724
107911
106000
104753
104701
104749
104975
105066
105434
106458
107988
110117
112246
114055
117809
113579
113657
113388
113749
113755
113443
113180
113352
113906
114555
115087
114922
114386
113176
111590
109913
106935
105272
104108
103922
103684
103357
103410
103669
104304
105598
107403
109382
110588
112545
112695
112580
111954
112127
112114
112042
112088
112478
113055
113762
113782
113447
112511
110680
109437
107894
104920
103875
103278
103057
102568
102026
101878
102001
102393
103203
105017
107045
107686
109432
112046
111795
111302
111334
111355
111404
111523
111893
112626
113110
112978
112318
110738
108415
107273
105228
101968
101528
101510
101424
101232
100948
100424
100468
100716
101359
102952
104553
103565
99394.2
298261
314201
328568
341383
351600
360220
367670
373833
378965
383296
387005
390333
392952
395127
396959
398453
399486
400178
400492
400601
400603
400239
399536
398521
397251
395757
394056
392161
390091
387858
385438
382863
380291
377190
374135
370992
367716
364303
360762
357091
353307
349387
345344
341185
336918
332550
328085
323501
318838
314097
309285
304386
299416
294397
289356
284302
279243
274094
268897
263690
258467
253233
247982
242733
237502
232286
227075
221867
216669
211492
206336
201202
196093
191035
186032
181106
176272
171553
166968
162539
158278
154208
150328
146648
143175
139908
136850
133983
131304
128814
126510
124368
122385
120513
118729
117070
115505
114101
112892
111739
110778
109893
109119
108335
107557
106866
106275
105630
104794
104466
104457
104498
104642
104951
105616
106926
108727
109664
110304
110416
110534
110772
111174
111499
111661
300198
313195
326264
337817
347608
355910
363085
369168
374346
378869
382829
386339
389397
392108
394523
396614
398345
399444
400021
400234
400284
400263
399775
398883
397663
396189
394480
392549
390404
388048
385478
382768
379873
376780
373490
370062
366549
362949
359257
355467
351629
347632
343468
339296
335032
330682
326265
321776
317209
312567
307863
303107
298301
293437
288515
283526
278474
273408
268301
263220
258192
253113
247977
242752
237459
232118
226776
221415
216069
210775
205541
200369
195243
190158
185142
180211
175390
170708
166195
161850
157688
153722
149957
146405
143067
139907
136939
134139
131506
129025
126714
124548
122520
120644
118915
117276
115736
114311
113053
111893
110877
109918
109055
108267
107503
106863
106245
105725
105001
104632
104634
104689
104868
105277
105986
107298
109340
110070
110500
110572
110679
110901
111203
111344
111473
303009
313916
325128
335265
344174
351915
358640
364500
369645
374221
378343
382077
385451
388425
391057
393354
395293
396967
398035
398550
398756
398804
398662
397964
396915
395573
393954
392061
389897
387469
384787
381910
378960
375776
372444
368988
365436
361794
358058
354234
350336
346355
342277
338116
333885
329600
325291
320653
316177
311624
306994
302311
297580
292776
287898
282959
277970
272941
267864
262679
257370
252037
246690
241316
236151
231009
225811
220564
215273
209963
204668
199393
194138
189017
184042
179233
174578
170067
165688
161466
157407
153530
149848
146372
143087
139998
137101
134321
131744
129348
127099
124986
123012
121168
119460
117834
116294
114843
113521
112319
111237
110275
109361
108603
107862
107245
106547
106113
105610
105225
105229
105299
105516
105984
106641
107993
110548
110933
110931
110928
110931
110941
110958
110971
111048
306460
315218
324629
333295
340939
347779
353931
359478
364522
369152
373447
377423
381095
384451
387421
389994
392150
393963
395564
396371
396728
396844
396857
396444
395592
394395
392882
391061
388947
386579
384010
381268
378217
375006
371672
368223
364667
361016
357272
353439
349522
345519
341440
337293
333083
328816
324494
320096
315626
311078
306468
301804
296924
292011
287120
282163
277170
272154
267091
261967
256778
251533
246229
240864
235244
229586
223957
218345
213006
207846
202742
197691
192728
187795
182925
178157
173467
168971
164683
160594
156693
152975
149431
146068
142896
139896
137069
134413
131935
129601
127400
125302
123323
121452
119700
118035
116474
114997
113657
112467
111406
110512
109671
108997
108383
107876
107308
106956
106778
106361
106348
106408
106620
107086
107795
109139
111431
111414
111391
111341
111256
111110
110921
110936
111027
310237
317267
325065
332361
339098
345185
350728
355862
360673
365208
369501
373559
377349
380856
384006
386737
389090
391157
393025
394074
394568
394761
394810
394680
393990
392933
391531
389792
387746
385435
382912
380100
377116
373975
370700
367308
363803
360191
356480
352673
348779
344804
340759
336650
332480
328246
323943
319556
315089
310536
305896
301179
296376
291487
286527
281522
276488
271346
265966
260802
255559
250283
244991
239665
234293
228884
223457
218049
212442
206766
201204
195770
190786
185984
181294
176719
172337
168069
163918
159888
156001
152345
148917
145697
142657
139786
137060
134498
132072
129772
127603
125560
123606
121780
120050
118407
116858
115401
114061
112858
111781
110884
110136
109554
109090
108695
108322
108073
108075
108071
108053
108099
108290
108725
109605
110902
112122
112061
111884
111610
111327
111004
110884
110904
111020
313830
319668
326459
332831
338720
344214
349369
354227
358830
363206
367361
371317
375064
378460
381537
384294
386733
388922
390866
391994
392549
392794
392872
392880
392279
391312
389983
388293
386271
384028
381473
378729
375813
372754
369570
366264
362840
359296
355633
351869
348015
344085
340089
336030
331908
327716
323443
319076
314608
310031
305344
300549
295653
290677
285639
280563
275463
270332
265154
259939
254697
249426
243954
238310
232887
227421
221982
216577
211226
205909
200640
195412
190006
184757
179738
175205
170889
166706
162675
158847
155250
151799
148489
145352
142377
139565
136937
134449
132119
129937
127863
125889
124000
122195
120458
118801
117190
115652
114356
113259
112256
111372
110618
110028
109578
109243
109117
109118
109134
109182
109252
109394
109726
110419
111763
113244
113211
113041
112606
111653
111248
111105
111218
111108
111155
316879
321898
328160
333987
339392
344466
349281
353890
358331
362563
366447
370051
373421
376653
379669
382423
384908
387128
389028
390134
390711
390999
391109
391130
390559
389600
388276
386607
384587
382303
379787
377102
374265
371299
368226
365024
361690
358225
354633
350929
347132
343270
339341
335350
331290
327153
322919
318572
314099
309495
304758
299900
294938
289896
284797
279662
274500
269296
264071
258845
253607
248338
243003
237600
232148
226697
221327
215234
209857
204478
199194
194045
189063
184173
179367
174402
169648
165271
161342
157640
154100
150740
147588
144628
141849
139211
136707
134320
132057
129907
127860
125926
124071
122304
120630
119035
117506
116073
114762
113574
112494
111567
110808
110227
109794
109481
109455
109462
109492
109568
109724
109879
110200
110875
112292
114540
114458
114139
113418
111971
111609
111306
111152
111162
111254
318867
323077
328976
334516
339682
344520
349069
353356
357401
361267
365092
368774
372248
375486
378471
381184
383594
385671
387379
388449
388969
389222
389346
389382
388774
387782
386384
384629
382593
380239
377715
375054
372285
369423
366462
363364
360127
356760
353247
349620
345924
342157
338315
334419
330451
326391
322205
317875
313387
308745
303950
299030
294006
288907
283766
278584
273355
268104
262874
257673
252457
247172
241774
236325
230844
225351
219870
214392
208918
203518
198292
192462
187417
182533
177849
173357
169023
164694
160331
156197
152635
149416
146393
143535
140851
138368
136052
133875
131768
129728
127766
125873
124061
122340
120688