/*--------------------------------*- C++ -*----------------------------------*\
| =========                 |                                                 |
| \\      /  F ield         | OpenFOAM: The Open Source CFD Toolbox           |
|  \\    /   O peration     | Version:  2112                                  |
|   \\  /    A nd           | Website:  www.openfoam.com                      |
|    \\/     M anipulation  |                                                 |
\*---------------------------------------------------------------------------*/
FoamFile
{
    version     2.0;
    format      ascii;
    arch        "LSB;label=32;scalar=64";
    class       volScalarField;
    location    "0.00386";
    object      nut;
}
// * * * * * * * * * * * * * * * * * * * * * * * * * * * * * * * * * * * * * //

dimensions      [0 2 -1 0 0 0 0];

internalField   nonuniform List<scalar> 
13875
(
0.051167
0.0366262
0.0343734
0.0343259
0.0342615
0.0343253
0.0343269
0.0343122
0.0342958
0.034278
0.0342709
0.0342859
0.0343284
0.0343485
0.0343343
0.0342859
0.0342503
0.0342818
0.0343167
0.0343448
0.0342796
0.0343306
0.0343838
0.0365571
0.0514334
0.0532619
0.0341209
0.0322298
0.0321021
0.0320207
0.0320625
0.0320582
0.0320506
0.0320393
0.0320234
0.0320183
0.0320294
0.0320604
0.0320817
0.0320649
0.0320377
0.0319806
0.0320294
0.0320556
0.0320854
0.0320359
0.0320967
0.0322289
0.034046
0.0536497
0.0564573
0.0335629
0.0318097
0.0315855
0.0315133
0.0315531
0.0315432
0.0315252
0.0314542
0.0314356
0.0314415
0.031456
0.0315383
0.0315668
0.0315403
0.0314648
0.0313916
0.0314618
0.0315359
0.03158
0.0315325
0.031572
0.0317935
0.0334921
0.0566068
0.0590717
0.033234
0.0314959
0.0312685
0.0312071
0.0312424
0.0312286
0.0312088
0.0311249
0.0311028
0.0311026
0.0311223
0.0312211
0.0312509
0.0312239
0.0311265
0.0310657
0.031129
0.0312198
0.0312668
0.0312248
0.0312543
0.0314835
0.0331716
0.0591508
0.0611276
0.0330052
0.0312524
0.030994
0.0309308
0.0309609
0.0309451
0.0309215
0.0308384
0.0308158
0.0308152
0.0308334
0.0309343
0.0309652
0.030938
0.030837
0.0307809
0.030839
0.0309331
0.0309846
0.0309477
0.0309813
0.0312291
0.0329235
0.0612588
0.0628211
0.0328495
0.031095
0.0307619
0.0306985
0.0307174
0.0306953
0.0306642
0.0305797
0.0305558
0.0305569
0.0305731
0.0306764
0.0307089
0.0306812
0.0305743
0.0305257
0.0305784
0.03068
0.0307422
0.0307162
0.0307538
0.0310576
0.0328259
0.0629658
0.0648303
0.0330744
0.0311096
0.0306239
0.0305175
0.030514
0.0304781
0.030438
0.0303506
0.0303272
0.0303297
0.0303437
0.0304503
0.0304838
0.0304531
0.03034
0.0303026
0.0303528
0.0304636
0.0305377
0.030537
0.0306272
0.0311141
0.0330735
0.0648577
0.0671017
0.0339411
0.0314329
0.0306464
0.0304428
0.0303826
0.0303151
0.0302574
0.0301631
0.0301383
0.0301415
0.0301497
0.0302618
0.0302997
0.030266
0.0301424
0.0301192
0.0301684
0.0302965
0.030402
0.0304547
0.0306349
0.0313923
0.0338953
0.0673524
0.0736571
0.0363002
0.0320537
0.0308536
0.0304555
0.0303293
0.0302206
0.0301362
0.0300337
0.0300079
0.030011
0.0300139
0.0301326
0.0301765
0.0301397
0.0300065
0.029995
0.0300465
0.0301925
0.0303432
0.0304686
0.0308139
0.0319448
0.0360128
0.0742068
0.0829133
0.0384979
0.0327572
0.0311849
0.0306429
0.0303876
0.0302283
0.0301116
0.0300123
0.0299868
0.0299867
0.0299883
0.0301107
0.0301599
0.0301235
0.0299969
0.0299818
0.0300333
0.0301809
0.0303846
0.0306384
0.0311456
0.0326479
0.0381204
0.083514
0.0907612
0.0441949
0.0347253
0.0321286
0.0310549
0.0306528
0.0304237
0.0302731
0.0301754
0.0301459
0.0301392
0.0301405
0.0302636
0.0303156
0.0302871
0.0301857
0.0301599
0.0302096
0.0303634
0.0306107
0.0310368
0.0320537
0.0344917
0.0433627
0.0894122
0.0949939
0.0548809
0.0407835
0.0338024
0.032351
0.0314523
0.0310148
0.0308047
0.0306834
0.030641
0.0306249
0.0306299
0.0307436
0.0307974
0.0307803
0.0307163
0.0306976
0.0307679
0.0309593
0.0314087
0.0322617
0.0335682
0.0402394
0.0536942
0.0942476
0.0866603
0.0676559
0.0539261
0.042783
0.0353659
0.0330967
0.0325178
0.0322545
0.0321131
0.0320534
0.032035
0.0320469
0.0321476
0.0321958
0.0321943
0.0321676
0.032183
0.0322901
0.0325316
0.0331617
0.035801
0.0426613
0.0526368
0.0671483
0.0866254
0.0796446
0.0655668
0.0596275
0.0699579
0.0452559
0.040273
0.0375311
0.0361553
0.0356383
0.0354674
0.0353995
0.0354114
0.035491
0.0355557
0.0355801
0.0356253
0.0357808
0.0362944
0.0377557
0.0410537
0.0468667
0.0690964
0.0588436
0.065585
0.0817681
0.0756897
0.0647871
0.0583576
0.0647307
0.0578368
0.0556912
0.0533498
0.0484803
0.0474383
0.0471612
0.0470681
0.0470637
0.0471076
0.047227
0.0472869
0.0473308
0.0475413
0.0484851
0.0535638
0.0568596
0.0579103
0.0648141
0.0578155
0.0644685
0.075202
0.0683135
0.0636042
0.0589081
0.0654435
0.065108
0.0702366
0.0672572
0.065469
0.0686309
0.0710408
0.0719439
0.0719681
0.0722387
0.0726148
0.0722332
0.0715305
0.0684489
0.0651425
0.0660496
0.0710819
0.0655103
0.065949
0.0583077
0.0628601
0.0676896
0.0654876
0.0642575
0.0621098
0.0680063
0.0684141
0.0753143
0.0701472
0.0661115
0.0656754
0.0661168
0.0669259
0.0668957
0.0671884
0.0674389
0.0673047
0.0665417
0.0658465
0.0663045
0.0684002
0.0759103
0.0696973
0.0689714
0.0615749
0.0631213
0.065301
0.061367
0.0659377
0.0672327
0.0672618
0.0659481
0.0734548
0.0692501
0.0654206
0.0646163
0.0643171
0.0645452
0.0642681
0.0645791
0.0648004
0.0649333
0.064508
0.0647466
0.0656978
0.0678895
0.0724624
0.0668704
0.0690547
0.0681281
0.0653219
0.060926
0.0546758
0.0673792
0.0697221
0.0667567
0.0635403
0.0675098
0.067704
0.066365
0.0652015
0.063653
0.0626889
0.0619956
0.0621307
0.0623961
0.0628916
0.0634684
0.0649324
0.0661771
0.0666815
0.0671401
0.0641992
0.0681938
0.0708852
0.0681742
0.0553314
0.0518362
0.071291
0.0693361
0.0651485
0.0617118
0.06368
0.065671
0.0662194
0.06552
0.0632875
0.0612531
0.0599856
0.0599051
0.0603668
0.0614275
0.063102
0.065262
0.0659669
0.0650446
0.0637437
0.0626923
0.0665278
0.0701444
0.0715731
0.0512757
0.0623499
0.0686941
0.0656762
0.0623611
0.0596027
0.061129
0.0635586
0.0649681
0.0647048
0.0622874
0.0596206
0.0578548
0.057613
0.0583053
0.059915
0.0622839
0.0645322
0.0647017
0.0631955
0.0615297
0.060804
0.0638465
0.0666988
0.0686758
0.0611903
0.0816063
0.0737541
0.0633413
0.0600815
0.0577491
0.0592085
0.0614734
0.0632328
0.0633077
0.0608205
0.0577616
0.055669
0.0552727
0.056122
0.0580822
0.060857
0.0631175
0.0629213
0.061218
0.0598278
0.0589886
0.0615074
0.0643639
0.0755487
0.0826469
0.0956157
0.079539
0.061808
0.0577397
0.0559834
0.0573357
0.0593841
0.0613179
0.0615548
0.059054
0.0557753
0.0534798
0.0529648
0.0538527
0.0559945
0.0590275
0.0613305
0.0609593
0.0590357
0.0579067
0.0571429
0.0589814
0.0625849
0.0815033
0.0978455
0.105284
0.0810019
0.0598341
0.0557388
0.0542624
0.0552619
0.0573148
0.059381
0.0596145
0.0569645
0.0535949
0.0512814
0.0507612
0.0516901
0.0538992
0.0570347
0.0594312
0.0590352
0.0569159
0.0557144
0.0554099
0.0570424
0.0608207
0.0827533
0.106185
0.111239
0.0816032
0.0585008
0.054261
0.0527406
0.0534196
0.0554537
0.0574364
0.057602
0.0549293
0.0515172
0.0492179
0.0487161
0.0496349
0.0518562
0.0550892
0.0574939
0.0571021
0.0550369
0.053726
0.053737
0.0555019
0.0596074
0.0840833
0.112356
0.117874
0.0828653
0.0577212
0.053259
0.0514537
0.0518974
0.0537822
0.0555222
0.0555617
0.0529207
0.0495784
0.047322
0.0468183
0.047711
0.0498652
0.0530353
0.0554005
0.0551417
0.0533387
0.0520563
0.0522013
0.0543068
0.05872
0.084682
0.119853
0.124868
0.0830467
0.0571351
0.0523917
0.0504224
0.050612
0.052215
0.0536063
0.0534477
0.0508824
0.047683
0.0455626
0.0450905
0.045966
0.0480597
0.0511543
0.0534776
0.0533554
0.0518143
0.0506984
0.0510455
0.0533911
0.058299
0.0854556
0.12583
0.130734
0.0834275
0.056948
0.0516316
0.0496937
0.0496002
0.0508137
0.0518449
0.0514986
0.0490118
0.0459907
0.0439828
0.0435135
0.0443607
0.0463504
0.0492667
0.0515236
0.0516153
0.0504283
0.0496131
0.0501765
0.0524897
0.0579598
0.0853374
0.133336
0.138383
0.0839641
0.0567638
0.0509585
0.049058
0.0487801
0.0495577
0.0502313
0.0497023
0.0473002
0.0444447
0.0425419
0.0420764
0.0428801
0.0447276
0.0474526
0.0496592
0.0499908
0.0491588
0.0487006
0.0493924
0.0516644
0.0576146
0.0850908
0.141026
0.145599
0.0844647
0.0566499
0.0502919
0.0483966
0.0480325
0.0483899
0.0486583
0.0478775
0.0455685
0.0429598
0.0412147
0.0407698
0.0415692
0.0433283
0.0458711
0.0480044
0.0485612
0.0480846
0.0479379
0.048673
0.0509865
0.0576444
0.0864239
0.146704
0.148873
0.0851756
0.0569155
0.049875
0.0477862
0.0472914
0.0473455
0.0472978
0.0463262
0.0440875
0.0416513
0.040013
0.0395783
0.0403501
0.0419731
0.0443338
0.0464261
0.0472257
0.0470782
0.0471695
0.0479754
0.050468
0.0577344
0.0868779
0.151656
0.152416
0.0864864
0.0573747
0.0498309
0.0471997
0.0465733
0.0464083
0.046055
0.0449166
0.0427377
0.0404785
0.0389323
0.038497
0.0392421
0.0407569
0.0429323
0.0449686
0.0459845
0.0461479
0.0464202
0.0473229
0.0502994
0.0580884
0.087304
0.154717
0.156236
0.0866623
0.0581443
0.0499436
0.0467207
0.0458272
0.0454645
0.0448584
0.043581
0.0414683
0.0393625
0.0379288
0.0375096
0.0382458
0.0396726
0.0417256
0.0437349
0.0448779
0.0452701
0.04568
0.0467975
0.0503668
0.058833
0.08828
0.157949
0.158746
0.0871829
0.0591806
0.0504192
0.0464116
0.0451694
0.0445778
0.0437961
0.0424041
0.0403523
0.0383948
0.0370364
0.0366156
0.0373261
0.038673
0.0405753
0.0425288
0.0438227
0.0444275
0.0450348
0.0464491
0.0507106
0.0599362
0.0884969
0.161255
0.161294
0.0883998
0.0596556
0.0510833
0.0463638
0.0445693
0.0437235
0.0428082
0.0413687
0.0393821
0.0375103
0.0362221
0.0358026
0.0364882
0.0377594
0.0395749
0.0414735
0.0428439
0.0435943
0.0444407
0.0463927
0.0513945
0.0607184
0.0888185
0.163429
0.164098
0.0883457
0.0595325
0.0517868
0.0465598
0.0441042
0.0429364
0.0418547
0.0403528
0.0384337
0.0366939
0.0354802
0.0350685
0.035748
0.0369744
0.03868
0.0405237
0.041962
0.0428703
0.0440061
0.0466092
0.052312
0.0608766
0.0898848
0.165695
0.165794
0.0887952
0.0595145
0.0530433
0.0469866
0.0438495
0.0422621
0.0409966
0.0394701
0.0376298
0.0359648
0.0348
0.034394
0.0350574
0.0362209
0.0378541
0.039622
0.0411076
0.0422156
0.0437637
0.0470349
0.0536285
0.0606287
0.0897291
0.167942
0.167811
0.0892906
0.0595182
0.0540446
0.0477734
0.0438119
0.0417633
0.0402578
0.0386642
0.0368702
0.0353029
0.0341847
0.033782
0.034436
0.035543
0.0370705
0.0387996
0.0403616
0.0417486
0.0437652
0.0479566
0.0546443
0.0603362
0.0898003
0.169604
0.169846
0.0892372
0.0588593
0.0540907
0.0486698
0.0439584
0.0414556
0.0396063
0.0379098
0.0361676
0.0346718
0.033604
0.0332165
0.0338654
0.0349278
0.0364072
0.0380916
0.0397347
0.0414708
0.0439714
0.0490783
0.0549682
0.0598264
0.0902187
0.171505
0.171091
0.0897564
0.0581232
0.0540552
0.0503059
0.0444328
0.0413542
0.0391439
0.0372785
0.0355438
0.0341132
0.0330883
0.0326988
0.0333311
0.0343485
0.0357578
0.0374468
0.0392764
0.0413711
0.0444683
0.0508091
0.0548618
0.0588861
0.0902945
0.173217
0.17241
0.090935
0.0577083
0.053756
0.0514408
0.0452508
0.0414212
0.0389002
0.0367843
0.0350123
0.0336041
0.0326051
0.0322206
0.0328302
0.0338191
0.0352034
0.0369369
0.0390001
0.0414492
0.0454976
0.0520567
0.0545003
0.0581101
0.0909663
0.174199
0.173659
0.0916486
0.0570849
0.0531077
0.0515031
0.0465233
0.0416606
0.0387596
0.0364334
0.0345583
0.0331363
0.032163
0.0317819
0.032391
0.0333586
0.0347591
0.0365924
0.0388949
0.0418493
0.0471947
0.0520597
0.0539207
0.0580138
0.0925882
0.17532
0.174226
0.0927655
0.0569036
0.0524144
0.0511656
0.0482412
0.0424079
0.0387764
0.0362858
0.0342163
0.0327417
0.0317573
0.0313746
0.0319767
0.0329452
0.0343938
0.0364149
0.0388726
0.0427278
0.0488908
0.0516259
0.0531399
0.0575354
0.0932442
0.176219
0.174867
0.094572
0.0573927
0.0519008
0.0506162
0.0489916
0.043879
0.0390116
0.0362109
0.0340235
0.0324542
0.0314184
0.0310139
0.0316271
0.0326436
0.0341906
0.0363313
0.0391476
0.044528
0.0495939
0.0509385
0.052502
0.0575458
0.0942625
0.17671
0.175763
0.0952273
0.0573482
0.0513723
0.0499059
0.0487418
0.0460635
0.0397065
0.036238
0.0339814
0.0323143
0.0311668
0.0307279
0.0313767
0.0324903
0.0341506
0.036423
0.0401453
0.0465766
0.0492562
0.050189
0.0520615
0.0581645
0.0957457
0.177235
0.176073
0.0964149
0.058019
0.0510744
0.0492488
0.0483431
0.0473196
0.0415648
0.0365391
0.0339917
0.032289
0.0310586
0.0305481
0.0312661
0.0324426
0.0341474
0.0367858
0.0419628
0.0473359
0.0487165
0.049529
0.051672
0.0584961
0.0963858
0.177873
0.17633
0.0979139
0.0589845
0.0510109
0.0487684
0.0478085
0.0470917
0.0438736
0.0376469
0.0341272
0.0322761
0.0310273
0.0304655
0.0312319
0.0324263
0.0342786
0.0379756
0.0442161
0.0471189
0.0480897
0.0490451
0.0515105
0.0590337
0.0971993
0.17796
0.175942
0.0983223
0.0594016
0.0509486
0.0483638
0.0472395
0.0466907
0.0449752
0.0397591
0.0346271
0.0323198
0.0310182
0.0304441
0.0312247
0.0324999
0.034948
0.0404348
0.0452468
0.0467659
0.0475519
0.0487124
0.0515886
0.0599847
0.098323
0.177092
0.174187
0.0984255
0.0598984
0.0509737
0.0480854
0.0467782
0.0461428
0.0448463
0.0419879
0.0360299
0.0325772
0.031047
0.0304575
0.031246
0.0327797
0.0365014
0.0424605
0.0451145
0.0462669
0.0471058
0.0484823
0.0516118
0.0603787
0.0981434
0.175274
0.167833
0.0971003
0.0603288
0.0509857
0.047885
0.0464078
0.0456064
0.0445298
0.0428629
0.0384947
0.0334926
0.0312368
0.03058
0.0314181
0.0337612
0.0389656
0.0429958
0.0447792
0.045768
0.0467564
0.0483056
0.0515534
0.0605499
0.096414
0.168937
0.0882615
0.232948
0.307211
0.330903
0.337815
0.3408
0.343982
0.348252
0.353191
0.358824
0.364714
0.370625
0.37644
0.382097
0.387489
0.39247
0.39716
0.40121
0.404859
0.40859
0.411599
0.415641
0.423571
0.455205
0.554981
0.613581
0.613929
0.58157
0.476226
0.150643
0.0796283
0.240886
0.313807
0.335531
0.34164
0.344602
0.34815
0.352862
0.358356
0.364607
0.371063
0.377515
0.383667
0.389383
0.394723
0.399537
0.403782
0.407588
0.411116
0.413996
0.417795
0.423558
0.443862
0.535457
0.621994
0.634373
0.626682
0.590936
0.487054
0.151004
0.0821562
0.252096
0.319132
0.33817
0.343655
0.346993
0.351317
0.35687
0.363286
0.370444
0.37768
0.384675
0.391116
0.396678
0.40166
0.406002
0.409634
0.412934
0.415448
0.417919
0.422172
0.433363
0.491642
0.612165
0.637011
0.638323
0.628702
0.59186
0.487236
0.152718
0.0842313
0.258332
0.320994
0.339108
0.344917
0.349084
0.354486
0.361144
0.36876
0.376896
0.384629
0.391848
0.39832
0.404032
0.408379
0.412229
0.415358
0.417875
0.419819
0.422353
0.428721
0.462886
0.585497
0.639953
0.646354
0.645106
0.632422
0.590685
0.483245
0.154602
0.0842556
0.260245
0.322092
0.340242
0.346825
0.352153
0.358803
0.36674
0.375355
0.383603
0.391607
0.398968
0.405384
0.410917
0.415313
0.418553
0.421267
0.423211
0.425007
0.428131
0.44552
0.535623
0.635461
0.652084
0.65586
0.652045
0.635631
0.587877
0.475306
0.156178
0.0845135
0.262658
0.323994
0.342178
0.349769
0.356426
0.364462
0.37331
0.382149
0.390686
0.398845
0.406148
0.412372
0.417689
0.421866
0.42493
0.426954
0.428832
0.430839
0.438599
0.490653
0.620514
0.654358
0.661443
0.663102
0.656223
0.636913
0.583078
0.463965
0.157328
0.0851741
0.265709
0.326625
0.345035
0.353774
0.361728
0.370761
0.380007
0.389163
0.397799
0.405842
0.412904
0.418838
0.423863
0.427801
0.43039
0.432123
0.434046
0.437809
0.463838
0.57971
0.651275
0.663279
0.667715
0.666626
0.657619
0.634883
0.575199
0.449566
0.158078
0.0861105
0.269352
0.329963
0.34877
0.358622
0.367543
0.377144
0.386628
0.395798
0.404148
0.411716
0.418326
0.423833
0.428491
0.432263
0.434415
0.436352
0.438866
0.450635
0.52193
0.638624
0.662039
0.668019
0.669471
0.666036
0.655369
0.629019
0.56375
0.432987
0.15833
0.0870447
0.273417
0.333915
0.35316
0.363798
0.373309
0.382994
0.392218
0.40078
0.408345
0.415283
0.421311
0.426402
0.430773
0.43452
0.436868
0.439189
0.444718
0.479363
0.604087
0.656396
0.664498
0.666999
0.666634
0.661472
0.648774
0.618974
0.548993
0.415443
0.158101
0.0878917
0.277909
0.338378
0.357837
0.368681
0.378088
0.387141
0.395461
0.402937
0.409636
0.415425
0.420877
0.425727
0.43002
0.433781
0.436765
0.44052
0.455515
0.53593
0.639802
0.657577
0.660365
0.660467
0.658513
0.652791
0.638062
0.60518
0.531629
0.397645
0.157524
0.0886943
0.28294
0.343181
0.3622
0.37224
0.380571
0.388044
0.394843
0.400855
0.406338
0.411149
0.415998
0.42075
0.425173
0.429258
0.433364
0.440516
0.477918
0.598559
0.647859
0.650147
0.649317
0.648457
0.645728
0.639694
0.623438
0.588045
0.512225
0.380045
0.156692
0.0895086
0.288603
0.347863
0.365091
0.372922
0.378991
0.383992
0.388716
0.392992
0.397226
0.401235
0.405622
0.410378
0.414971
0.419628
0.425578
0.442612
0.524647
0.626729
0.638926
0.635209
0.632691
0.631067
0.628935
0.622512
0.605209
0.568071
0.491369
0.362723
0.155615
0.0904695
0.29479
0.351413
0.364795
0.368715
0.371449
0.373446
0.375772
0.378169
0.381237
0.384634
0.388678
0.393269
0.398318
0.404599
0.414706
0.455455
0.576393
0.620435
0.617897
0.613154
0.610562
0.609537
0.608388
0.601787
0.584037
0.545867
0.469516
0.345675
0.15431
0.0916247
0.300735
0.352066
0.359298
0.357863
0.35638
0.355165
0.355186
0.355867
0.357952
0.360787
0.364736
0.369807
0.376056
0.38453
0.40653
0.495863
0.582799
0.594838
0.588733
0.585318
0.584069
0.584984
0.584717
0.578324
0.560541
0.522051
0.447175
0.329043
0.15279
0.0932103
0.305079
0.347687
0.346789
0.339198
0.333305
0.328971
0.327061
0.326516
0.328103
0.330757
0.335045
0.340813
0.348548
0.36277
0.41533
0.522677
0.552992
0.557316
0.55473
0.553393
0.554846
0.557979
0.558634
0.552903
0.535429
0.497311
0.424812
0.313058
0.151094
0.0949573
0.305627
0.336372
0.326379
0.312819
0.303147
0.296288
0.293057
0.291989
0.293577
0.2963
0.301132
0.307994
0.318975
0.350027
0.442488
0.489512
0.508038
0.515265
0.517859
0.519285
0.52422
0.529194
0.53108
0.52624
0.509465
0.472276
0.402775
0.297901
0.149257
0.0971873
0.300803
0.31714
0.298388
0.280251
0.268131
0.259918
0.25633
0.255523
0.257645
0.261016
0.267115
0.276309
0.296309
0.360989
0.412574
0.439985
0.460653
0.472937
0.479766
0.485012
0.492875
0.499694
0.502899
0.499099
0.483266
0.447433
0.381441
0.283644
0.147319
0.0992393
0.28813
0.289493
0.264728
0.244497
0.232111
0.224281
0.221708
0.222191
0.225309
0.23012
0.238696
0.253873
0.291885
0.334183
0.363785
0.392495
0.416448
0.43197
0.442617
0.451957
0.461837
0.470416
0.474896
0.47221
0.457437
0.423244
0.361084
0.270374
0.14532
0.10153
0.269002
0.258159
0.22964
0.210903
0.200703
0.195891
0.195345
0.198224
0.20737
0.219501
0.230323
0.243668
0.269753
0.295571
0.323185
0.353156
0.377286
0.394125
0.408727
0.420741
0.432225
0.442163
0.447827
0.446192
0.432441
0.400028
0.341819
0.258087
0.143266
0.103752
0.24422
0.22461
0.200076
0.187416
0.183867
0.187084
0.201408
0.214952
0.221929
0.228393
0.232656
0.239341
0.254184
0.271639
0.294582
0.321745
0.343602
0.361451
0.378677
0.392224
0.404914
0.415686
0.422248
0.421423
0.408557
0.377956
0.323777
0.246734
0.141163
0.106159
0.22125
0.198397
0.182645
0.18449
0.206153
0.239183
0.251376
0.258843
0.260533
0.260379
0.257654
0.254904
0.254697
0.262133
0.277401
0.298519
0.31725
0.334256
0.352545
0.366925
0.380199
0.391454
0.398496
0.398157
0.386061
0.35732
0.307121
0.236294
0.13906
0.110355
0.20929
0.194149
0.201708
0.242264
0.291745
0.315971
0.323462
0.328552
0.322734
0.310761
0.29601
0.281178
0.267671
0.263318
0.268712
0.2824
0.296971
0.312827
0.330471
0.345003
0.358269
0.369595
0.376773
0.376662
0.36524
0.338219
0.291831
0.226765
0.136996
0.119891
0.208331
0.223035
0.265939
0.338901
0.37883
0.40392
0.413575
0.411213
0.392452
0.367809
0.339583
0.311257
0.285489
0.269863
0.265309
0.271482
0.282361
0.296584
0.3124
0.326308
0.339298
0.35033
0.35723
0.356987
0.346113
0.32065
0.277794
0.218128
0.134989
0.132279
0.254805
0.274417
0.343207
0.415501
0.45972
0.49448
0.503335
0.486129
0.452836
0.416553
0.375196
0.335625
0.301132
0.276717
0.264932
0.264537
0.272243
0.28455
0.29802
0.310746
0.323065
0.333505
0.339818
0.339167
0.328654
0.304653
0.264969
0.210267
0.133046
0.156141
0.212498
0.234555
0.379373
0.482126
0.536101
0.5748
0.57373
0.537512
0.492107
0.445199
0.398733
0.350748
0.30967
0.280752
0.265664
0.261343
0.265787
0.275634
0.286865
0.298187
0.309468
0.318877
0.324208
0.32321
0.312791
0.290226
0.253321
0.20302
0.13118
0.150643
0.476345
0.58174
0.613993
0.613575
0.554863
0.454932
0.423224
0.415309
0.411343
0.408343
0.404696
0.401192
0.397105
0.392443
0.387494
0.38216
0.37659
0.370858
0.364995
0.359129
0.353472
0.348536
0.344277
0.341118
0.338138
0.331185
0.307393
0.233
0.0882742
0.151037
0.487335
0.591296
0.626863
0.634452
0.621966
0.535386
0.443538
0.423199
0.417555
0.413789
0.411003
0.407578
0.403842
0.399629
0.394846
0.389624
0.384078
0.378019
0.371534
0.364952
0.358627
0.353179
0.348459
0.344936
0.341982
0.335874
0.314041
0.240977
0.0796983
0.152778
0.487675
0.59233
0.629014
0.638474
0.637028
0.612088
0.491468
0.433021
0.421866
0.417683
0.415274
0.412836
0.409684
0.406139
0.401897
0.397163
0.391738
0.385397
0.37837
0.370923
0.363648
0.357243
0.351685
0.347364
0.344042
0.338547
0.319377
0.252183
0.0822109
0.154648
0.483772
0.591146
0.632765
0.645326
0.64646
0.639911
0.585437
0.462657
0.428424
0.422139
0.419682
0.417798
0.415333
0.412317
0.40872
0.40463
0.398851
0.392355
0.385094
0.377442
0.369247
0.361617
0.354935
0.349522
0.345351
0.339531
0.321338
0.258541
0.0843288
0.156225
0.475797
0.588305
0.635976
0.652335
0.656075
0.65215
0.635406
0.535576
0.445313
0.42796
0.424933
0.423329
0.421489
0.418926
0.415872
0.411532
0.405984
0.3995
0.392082
0.384144
0.375965
0.367407
0.359378
0.352663
0.347303
0.340682
0.322451
0.260473
0.0843104
0.157372
0.464467
0.583439
0.637222
0.65653
0.663382
0.66163
0.654401
0.620471
0.49056
0.438497
0.430912
0.428972
0.427361
0.425437
0.422602
0.418341
0.412985
0.406691
0.399326
0.391231
0.38279
0.37397
0.365325
0.357151
0.350291
0.342632
0.324344
0.262885
0.084528
0.158117
0.450013
0.575516
0.635163
0.657926
0.66696
0.668006
0.663441
0.65129
0.579577
0.463724
0.437972
0.4343
0.432598
0.431182
0.428556
0.424516
0.419441
0.413423
0.406295
0.398337
0.389798
0.380686
0.371483
0.362481
0.354473
0.345506
0.326975
0.265946
0.0853295
0.158367
0.433368
0.564062
0.629313
0.655707
0.666434
0.669902
0.668306
0.662125
0.63838
0.521558
0.450816
0.439333
0.436915
0.435401
0.433057
0.429078
0.424376
0.418773
0.412072
0.404653
0.396399
0.387276
0.377806
0.368199
0.359197
0.349269
0.330308
0.269552
0.0861732
0.158142
0.415786
0.54934
0.619308
0.649185
0.661992
0.66721
0.66746
0.664701
0.65651
0.603565
0.479476
0.445305
0.439998
0.437754
0.435216
0.431374
0.426879
0.421668
0.415609
0.4089
0.401356
0.392809
0.383544
0.373823
0.364283
0.353681
0.33431
0.273702
0.0871665
0.157575
0.397994
0.532034
0.605597
0.638584
0.653467
0.659235
0.661194
0.660877
0.658099
0.640523
0.536479
0.456155
0.441424
0.437567
0.434303
0.430474
0.426055
0.421047
0.415638
0.409841
0.403179
0.395738
0.387386
0.378432
0.369072
0.358298
0.33882
0.278262
0.0880472
0.156752
0.380433
0.512707
0.588553
0.624065
0.640524
0.646651
0.649433
0.650326
0.650793
0.648646
0.600007
0.479007
0.441443
0.433809
0.429499
0.425336
0.420806
0.415906
0.411056
0.406171
0.400682
0.394759
0.388046
0.380642
0.372447
0.362543
0.343608
0.283356
0.0888235
0.155689
0.363167
0.491942
0.568677
0.605932
0.623466
0.630045
0.63221
0.633903
0.635826
0.639288
0.626855
0.52626
0.443387
0.425623
0.419403
0.414678
0.410095
0.405178
0.400784
0.396695
0.392439
0.388197
0.383604
0.378688
0.372843
0.365245
0.348223
0.289071
0.0897171
0.154397
0.3462
0.470192
0.546587
0.584866
0.602837
0.609601
0.610813
0.611747
0.613963
0.618156
0.620155
0.577351
0.456237
0.414588
0.404085
0.397644
0.392453
0.387687
0.383687
0.380356
0.37724
0.374759
0.372579
0.37068
0.368257
0.36466
0.351582
0.295176
0.0906425
0.152887
0.329647
0.447951
0.522875
0.561451
0.579438
0.585976
0.586217
0.585218
0.586226
0.588954
0.593892
0.581594
0.496589
0.406227
0.38369
0.375121
0.368831
0.363488
0.359532
0.356569
0.354526
0.353761
0.353886
0.355246
0.356953
0.358786
0.35195
0.301003
0.0917812
0.151202
0.313685
0.42564
0.498209
0.536385
0.554019
0.559937
0.559172
0.555826
0.554196
0.55485
0.556366
0.551264
0.521458
0.415227
0.361778
0.347332
0.339619
0.333545
0.329274
0.326433
0.324801
0.325286
0.327252
0.331899
0.337925
0.345814
0.347202
0.30515
0.0933624
0.149388
0.298535
0.40361
0.473213
0.510448
0.527362
0.532348
0.530369
0.52504
0.519922
0.517784
0.514358
0.506287
0.487226
0.441406
0.349332
0.31783
0.306821
0.299575
0.294729
0.291768
0.290046
0.29104
0.294253
0.301328
0.311173
0.325022
0.335517
0.305458
0.0951194
0.147473
0.284307
0.382313
0.448437
0.484266
0.500174
0.504095
0.500799
0.493726
0.485384
0.479526
0.471965
0.458926
0.437451
0.409316
0.359672
0.295518
0.275615
0.265911
0.259752
0.256004
0.253625
0.254294
0.257774
0.266091
0.278297
0.296671
0.315957
0.300482
0.0973057
0.145494
0.271068
0.362005
0.424267
0.458411
0.473186
0.475984
0.47147
0.462625
0.452283
0.44228
0.430882
0.414738
0.390008
0.360443
0.330198
0.290462
0.254464
0.238602
0.22923
0.223818
0.220368
0.219938
0.222419
0.230198
0.242493
0.262817
0.288069
0.287603
0.0993582
0.143457
0.258789
0.342725
0.401013
0.433355
0.447045
0.448775
0.443165
0.432935
0.421056
0.408298
0.393007
0.375619
0.350796
0.320355
0.292354
0.26669
0.242419
0.230648
0.221786
0.20948
0.198742
0.19402
0.194794
0.199514
0.209216
0.227899
0.256743
0.268399
0.101676
0.141356
0.247403
0.324598
0.378891
0.409401
0.422159
0.423044
0.41655
0.405569
0.392434
0.37822
0.360399
0.342128
0.319588
0.292289
0.26958
0.25308
0.239066
0.234794
0.232048
0.225881
0.219477
0.207022
0.190091
0.184333
0.187182
0.199135
0.223417
0.243413
0.103958
0.139237
0.236877
0.307848
0.358193
0.386825
0.398798
0.399137
0.392117
0.380805
0.367194
0.352089
0.333275
0.316068
0.296751
0.275865
0.261423
0.255801
0.256481
0.261672
0.266431
0.267328
0.265944
0.259138
0.24722
0.215063
0.187264
0.183259
0.198
0.220456
0.106409
0.13716
0.227239
0.292472
0.339014
0.365913
0.377217
0.377275
0.370092
0.35878
0.345329
0.330009
0.312098
0.295988
0.2811
0.267966
0.263682
0.27037
0.285207
0.301941
0.319233
0.331643
0.336266
0.33241
0.325707
0.302603
0.255355
0.206771
0.195522
0.209225
0.110714
0.135143
0.218486
0.278357
0.321361
0.346694
0.357472
0.357625
0.35069
0.339689
0.326478
0.312019
0.296043
0.28172
0.270601
0.265221
0.271019
0.289173
0.316821
0.347375
0.378406
0.403666
0.420558
0.421508
0.411753
0.389537
0.352257
0.281026
0.228925
0.209983
0.120626
0.133187
0.210532
0.265464
0.305259
0.329162
0.339593
0.340124
0.333739
0.323307
0.310853
0.297782
0.284232
0.271783
0.264168
0.265373
0.278376
0.304844
0.34114
0.383395
0.426538
0.464587
0.4968
0.513023
0.501261
0.466323
0.425136
0.355001
0.28505
0.260071
0.133306
0.131304
0.203249
0.253746
0.290702
0.313242
0.323506
0.324392
0.318934
0.309552
0.298224
0.286947
0.275397
0.265547
0.261534
0.266552
0.282823
0.313584
0.357522
0.406573
0.452046
0.500228
0.545682
0.583602
0.582134
0.542234
0.489506
0.390322
0.246283
0.21644
0.157673
0.0617826
0.0619333
0.0620855
0.0622377
0.0623899
0.0625423
0.0626948
0.0628474
0.0630001
0.0631532
0.0633374
0.0653914
0.107233
0.163001
0.193682
0.213005
0.229297
0.243027
0.253397
0.260261
0.264272
0.266609
0.26849
0.270071
0.268623
0.265984
0.26282
0.259774
0.256001
0.252093
0.249065
0.246309
0.243601
0.240996
0.238293
0.235546
0.232921
0.23037
0.227898
0.225589
0.223514
0.221511
0.219446
0.21726
0.214956
0.212637
0.210306
0.207767
0.20467
0.200674
0.195996
0.191068
0.185945
0.180868
0.175833
0.170964
0.166386
0.162159
0.158312
0.154785
0.151563
0.148665
0.146011
0.143622
0.141431
0.139352
0.137348
0.135367
0.133397
0.131479
0.129645
0.127911
0.126274
0.124716
0.123243
0.121856
0.120544
0.119292
0.118098
0.116969
0.115901
0.11488
0.113907
0.113003
0.112186
0.111476
0.110869
0.110347
0.109888
0.109479
0.109116
0.108809
0.108562
0.108375
0.108238
0.10814
0.108075
0.108043
0.108055
0.108121
0.108251
0.108445
0.108703
0.109016
0.109381
0.109792
0.110253
0.110764
0.111309
0.111899
0.112544
0.113239
0.113978
0.11475
0.11558
0.116505
0.117566
0.118755
0.119991
0.121285
0.122705
0.124248
0.125908
0.127677
0.129546
0.22074
0.221014
0.221259
0.221495
0.221729
0.221963
0.222195
0.222428
0.222659
0.222892
0.22305
0.179852
0.0717795
0.133834
0.185315
0.212609
0.231707
0.250483
0.272918
0.295906
0.31636
0.332828
0.338931
0.334968
0.327108
0.319606
0.313617
0.309973
0.307944
0.307005
0.307548
0.309196
0.311133
0.312662
0.314057
0.315555
0.317058
0.319306
0.322544
0.32667
0.331995
0.338445
0.346264
0.355885
0.36755
0.378649
0.386654
0.389504
0.386601
0.378148
0.363665
0.344357
0.325184
0.3084
0.292138
0.277312
0.264092
0.25256
0.242613
0.233823
0.226072
0.219368
0.213608
0.208593
0.204419
0.200838
0.197629
0.19451
0.191355
0.18836
0.185574
0.182965
0.180378
0.17786
0.175528
0.173427
0.171425
0.169494
0.167586
0.165727
0.164032
0.162341
0.160741
0.159271
0.157896
0.156622
0.155471
0.15446
0.15356
0.152686
0.151818
0.151022
0.15037
0.14985
0.149426
0.149071
0.148783
0.148565
0.148426
0.148381
0.148427
0.148564
0.148767
0.14905
0.14943
0.149906
0.150474
0.151137
0.151864
0.152674
0.153644
0.154739
0.155924
0.157199
0.158675
0.160475
0.16277
0.165528
0.168411
0.171645
0.175422
0.179736
0.18465
0.190301
0.196602
0.287979
0.288155
0.288313
0.288465
0.288614
0.288763
0.288911
0.289058
0.289205
0.289351
0.289473
0.266831
0.0766549
0.12636
0.18375
0.212412
0.229221
0.243165
0.258382
0.272452
0.285419
0.293631
0.29628
0.295535
0.296465
0.297245
0.299962
0.30403
0.309254
0.313658
0.318316
0.32401
0.330309
0.336449
0.342008
0.348148
0.355493
0.363936
0.372819
0.383407
0.395585
0.40929
0.423837
0.438331
0.451233
0.462177
0.472866
0.483366
0.488247
0.487508
0.484549
0.474323
0.455072
0.430496
0.404825
0.379304
0.355267
0.333702
0.315355
0.299602
0.286267
0.274851
0.264972
0.256682
0.249813
0.243699
0.238263
0.233532
0.229234
0.224969
0.220813
0.216906
0.213315
0.210004
0.206911
0.204048
0.201321
0.198678
0.196125
0.193684
0.191435
0.189374
0.187497
0.185726
0.184043
0.182531
0.181207
0.180035
0.179014
0.178081
0.177178
0.176308
0.175528
0.174852
0.174252
0.17372
0.173266
0.172925
0.172725
0.172682
0.172796
0.173036
0.173369
0.173776
0.174274
0.174875
0.175592
0.176415
0.177342
0.178409
0.179631
0.181015
0.18258
0.184318
0.186388
0.189047
0.192411
0.196261
0.200361
0.205165
0.210816
0.217393
0.224929
0.23348
0.243163
0.311343
0.311418
0.311484
0.311547
0.311608
0.311669
0.311729
0.311789