/*--------------------------------*- C++ -*----------------------------------*\
| =========                 |                                                 |
| \\      /  F ield         | OpenFOAM: The Open Source CFD Toolbox           |
|  \\    /   O peration     | Version:  2112                                  |
|   \\  /    A nd           | Website:  www.openfoam.com                      |
|    \\/     M anipulation  |                                                 |
\*---------------------------------------------------------------------------*/
FoamFile
{
    version     2.0;
    format      ascii;
    arch        "LSB;label=32;scalar=64";
    class       surfaceScalarField;
    location    "0.01074";
    object      phi;
}
// * * * * * * * * * * * * * * * * * * * * * * * * * * * * * * * * * * * * * //

dimensions      [1 0 -1 0 0 0 0];

oriented        oriented;

internalField   nonuniform List<scalar> 
27436
(
-0.533486
8.19283
-0.0933623
7.47164
-0.0849352
7.78709
-0.0706418
7.78653
-0.063567
7.78765
-0.0477993
7.78175
-0.0393098
7.78887
-0.0352472
7.79291
-0.0261079
7.78828
-0.0164524
7.78701
-0.00809819
7.7887
0.00104704
7.78843
0.0143241
7.78375
0.031144
7.78086
0.04625
7.78233
0.0549146
7.78825
0.0580364
7.79261
0.0658456
7.78973
0.0753389
7.7883
0.0895276
7.78253
0.096195
7.7879
0.111739
7.7856
0.123734
7.78265
0.573432
7.46042
8.21735
-0.247181
8.44
-0.0960813
7.32055
-0.081141
7.77213
-0.0544211
7.75961
-0.0586402
7.79207
-0.0612262
7.78414
-0.0391747
7.7671
-0.0300266
7.78394
-0.0202733
7.77951
-0.0090971
7.77597
0.00175515
7.77928
0.0155428
7.7746
0.0150197
7.78402
0.0215039
7.77433
0.0210278
7.78279
0.0377147
7.77156
0.0466211
7.7837
0.0589581
7.7774
0.0823561
7.76492
0.0776806
7.78721
0.0722239
7.79334
0.10299
7.75481
0.114226
7.77104
0.268427
7.30833
8.49108
-0.227247
8.66726
-0.141071
7.23445
-0.120444
7.75159
-0.107034
7.74651
-0.104701
7.78995
-0.106179
7.78474
-0.0901437
7.74966
-0.0748061
7.76705
-0.0658532
7.76975
-0.0508889
7.76342
-0.0372045
7.76832
-0.0141552
7.75125
-0.0126463
7.7824
-0.0114506
7.77311
-0.00829332
7.77962
0.0126913
7.75057
0.0240857
7.77231
0.0473023
7.75412
0.060954
7.75128
0.0594105
7.78877
0.0638941
7.7889
0.0787098
7.73989
0.100889
7.74892
0.192075
7.21831
8.67749
-0.169551
8.83681
-0.13946
7.2044
-0.134158
7.74639
-0.112948
7.72551
-0.113484
7.7906
-0.108944
7.77881
-0.088706
7.7287
-0.0746242
7.75192
-0.0613363
7.75581
-0.0444306
7.74729
-0.0277346
7.75345
-0.00607458
7.7303
0.00298036
7.77324
0.00482178
7.77126
0.0149111
7.76951
0.035304
7.73017
0.0494607
7.75813
0.069687
7.73383
0.0885477
7.73242
0.0942411
7.78309
0.0944631
7.78872
0.118982
7.71533
0.111709
7.75648
0.162318
7.16644
8.83278
-0.0736412
8.91045
-0.0366306
7.16743
-0.0926223
7.80251
-0.062565
7.69581
-0.0696532
7.79799
-0.0670382
7.77607
-0.0515073
7.7116
-0.0402229
7.7395
-0.0291271
7.74402
-0.0150431
7.73423
0.000440379
7.73973
0.0182613
7.71288
0.0268063
7.76463
0.0276112
7.77046
0.0369825
7.76013
0.0543844
7.71274
0.06448
7.748
0.0819873
7.71626
0.0969725
7.71742
0.101068
7.77902
0.0968728
7.79297
0.124866
7.68737
0.0903244
7.79128
0.097773
7.15788
8.92823
0.118441
8.792
0.0436319
7.24228
-0.0501868
7.89643
-0.0125184
7.65832
-0.0312902
7.81702
-0.033933
7.77719
-0.024221
7.70058
-0.0182733
7.73186
-0.0121935
7.73753
-0.00224211
7.72659
0.00791006
7.73075
0.021434
7.70005
0.0257607
7.76045
0.0249625
7.77132
0.0296337
7.75545
0.0421939
7.70017
0.0463946
7.74377
0.0583159
7.70429
0.0684118
7.70733
0.0690604
7.77839
0.0523875
7.8097
0.0884512
7.65129
-0.0137936
7.894
-0.0210254
7.16488
8.90993
0.304469
8.48752
0.135883
7.41091
-0.00693896
8.03931
0.0221859
7.62949
-0.0223604
7.86193
-0.0469184
7.80189
-0.0596022
7.712
-0.0746533
7.74588
-0.0897698
7.75193
-0.094561
7.73278
-0.109214
7.74548
-0.117088
7.70882
-0.130409
7.77412
-0.146302
7.7873
-0.158085
7.76724
-0.166354
7.70842
-0.184961
7.76235
-0.193135
7.71243
-0.208026
7.72221
-0.228716
7.79909
-0.262795
7.84385
-0.284751
7.67326
-0.354883
7.96457
-0.658396
7.46786
8.25546
0.873208
7.61428
0.521721
7.76243
0.410403
8.15085
0.33224
7.70812
0.268512
7.92607
0.227977
7.84194
0.192715
7.74605
0.162818
7.77645
0.134781
7.77933
0.115567
7.75353
0.0862364
7.77336
0.0641174
7.73191
0.0386996
7.80023
0.00676546
7.81936
-0.0192281
7.79324
-0.0444303
7.73359
-0.0742596
7.79215
-0.100816
7.73895
-0.130724
7.75212
-0.167129
7.83555
-0.228212
7.90503
-0.27904
7.72418
-0.40626
8.09218
-0.693649
7.7552
7.56647
0.592887
7.02133
0.410078
7.9452
0.23773
8.32342
0.187814
7.75832
0.128929
7.98516
0.0976321
7.87153
0.084165
7.7585
0.075202
7.78642
0.0718686
7.78173
0.0766952
7.75106
0.075287
7.77175
0.0744977
7.73404
0.0782477
7.79761
0.0768799
7.82088
0.0770071
7.7931
0.0723937
7.73816
0.067449
7.79705
0.0627884
7.74358
0.0560946
7.75881
0.0292867
7.8624
-0.0267481
7.96117
-0.0466119
7.74416
-0.219311
8.26526
-0.372426
7.90851
7.19474
-3.05209
10.0729
-3.39273
8.28623
-2.76578
7.69695
-2.62086
7.6137
-2.30285
7.66712
-1.93305
7.50172
-1.66234
7.48769
-1.37056
7.49621
-1.0816
7.49205
-0.783547
7.45509
-0.491517
7.47658
-0.206667
7.45152
0.0996045
7.49252
0.404004
7.51659
0.694995
7.50208
0.967219
7.46587
1.26355
7.50066
1.54041
7.46669
1.83486
7.46433
2.19622
7.50103
2.50174
7.65571
2.65996
7.58609
3.23561
7.68974
2.95101
8.19349
10.1435
-4.25923
14.3315
-4.36907
8.39722
-4.19633
7.52495
-3.89755
7.31395
-3.31697
7.08534
-2.81157
6.99736
-2.36633
7.04416
-1.91604
7.04562
-1.45971
7.03461
-1.01324
7.01018
-0.562277
7.02493
-0.119305
7.0115
0.343617
7.03048
0.811542
7.04868
1.25905
7.05454
1.67815
7.04669
2.13048
7.04825
2.56761
7.02949
3.02213
7.00974
3.5742
6.94892
4.13243
7.09744
4.44374
7.27501
4.61527
7.51815
4.56498
8.24395
14.7074
-2.75548
17.0861
-4.86905
10.515
-4.96992
7.62657
-4.13276
6.47251
-3.63305
6.58305
-3.19509
6.56094
-2.69859
6.54893
-2.20223
6.54562
-1.70168
6.53229
-1.21522
6.52522
-0.725471
6.53749
-0.241605
6.53079
0.261506
6.52775
0.762793
6.54728
1.25782
6.55948
1.71732
6.58713
2.20596
6.55953
2.69505
6.54027
3.18854
6.51614
3.66458
6.47283
4.24689
6.51508
5.09858
6.42337
4.72236
7.89428
2.77953
10.1864
17.4864
2.36536
14.7197
0.192171
12.6951
-4.99214
12.8116
-3.89223
5.36983
-3.80728
6.49662
-3.31121
6.06692
-2.86215
6.09854
-2.35777
6.03579
-1.83777
6.01142
-1.32565
6.01494
-0.812285
6.02797
-0.304746
6.02607
0.215566
6.00726
0.742814
6.01985
1.26402
6.03831
1.78468
6.06655
2.27925
6.06491
2.75931
6.06
3.19854
6.07655
3.7578
5.91333
3.9709
6.30197
5.10579
5.2891
-0.18133
13.1814
-2.39893
12.4036
15.0874
2.45363
12.2649
3.52751
11.626
3.4547
12.8972
-0.821722
9.64238
-3.60825
9.27823
-3.20832
5.6712
-2.95908
5.8499
-2.46581
5.54074
-1.9455
5.49217
-1.468
5.54011
-0.975162
5.53905
-0.470756
5.5231
0.0293962
5.50649
0.535376
5.51378
1.03293
5.54102
1.52309
5.57667
2.02311
5.56491
2.4804
5.60227
2.60973
5.9467
2.98444
5.5389
-0.092551
9.37922
-4.15934
9.35626
-3.87909
12.9017
-2.95633
11.4799
12.1303
1.8755
10.39
3.87087
9.63148
5.79451
10.9856
4.99306
10.4527
4.05292
10.2104
-1.27104
10.9638
-2.37728
6.94973
-2.04084
5.20692
-1.6319
5.08513
-1.14014
5.05026
-0.601891
5.00237
-0.0606418
4.98192
0.472654
4.97242
1.008
4.9782
1.54861
5.00113
2.05758
5.06856
2.4477
5.17496
2.80033
5.24906
1.50256
7.24288
-3.66911
10.709
-4.2378
9.94907
-4.88926
10.0076
-3.05306
11.0662
-1.33379
9.76014
10.796
1.09358
9.29778
2.17334
8.55324
3.98787
9.17992
4.9512
9.49715
5.07175
10.0907
5.78098
10.2551
2.71738
10.0061
1.08837
6.83598
-0.095042
6.27041
-0.397989
5.35559
-0.250609
4.85436
0.0451121
4.68564
0.396534
4.61984
0.719808
4.65419
0.932235
4.78893
0.811188
5.18998
-0.51722
6.50312
-2.3345
7.06601
-5.02893
9.93489
-4.28071
9.96135
-3.97088
9.64046
-3.50784
9.54492
-1.86096
9.41939
-0.761126
8.66028
10.0346
2.01014
7.29094
3.1855
7.38048
4.39185
7.97508
5.95956
7.9264
7.07557
8.97457
6.64613
10.686
4.66382
11.9913
2.12981
9.36472
0.846843
7.55077
0.143547
6.05517
-0.0397143
5.03622
-0.0707299
4.71936
-0.0338797
4.58713
-0.0241236
4.6475
-0.160746
4.92848
-0.808503
5.83938
-2.35772
8.05203
-4.92734
9.6346
-6.7351
11.7422
-7.2457
10.4739
-6.42347
8.81958
-5.00277
8.12421
-3.70697
8.12389
-2.56046
7.51398
7.47415
2.53754
4.75629
4.15703
5.7635
4.6981
7.43503
4.33247
8.28836
4.54042
8.76481
4.31818
10.9075
4.14984
12.1585
2.5259
10.9877
1.33896
8.73197
0.566959
6.82241
0.189435
5.4111
-0.103025
5.01197
-0.395355
4.88095
-0.693036
4.94545
-1.02865
5.26334
-1.88953
6.69903
-3.20889
9.3703
-4.89976
11.3255
-5.83243
12.6731
-6.24011
10.8808
-5.96663
8.5451
-5.94118
8.09838
-4.96501
7.14764
-2.94049
5.4894
4.53389
3.16573
1.59243
6.24036
2.69139
8.48792
5.18905
8.27635
8.49416
6.49413
10.5526
5.95901
11.4441
5.61171
12.506
4.90606
11.6952
4.16673
9.47018
3.24698
7.73915
1.98052
6.67633
0.819716
6.17298
-0.327005
6.02805
-1.51691
6.13412
-2.88224
6.6264
-3.97
7.78376
-4.38508
9.7829
-4.77063
11.7099
-4.64364
12.5459
-5.26036
11.4991
-7.52593
10.8105
-7.85874
8.42835
-5.77205
5.06073
-2.95946
2.67708
1.57466
1.20096
0.391894
2.92994
0.962923
4.95479
3.16392
6.4887
6.95728
5.78264
11.2571
5.46761
11.7574
5.4391
12.5329
4.88735
12.249
3.82084
10.5378
2.66146
8.89904
1.51142
7.82757
0.380321
7.30509
-0.748899
7.15752
-1.91294
7.29753
-3.1582
7.87063
-4.45104
9.07576
-5.46887
10.8002
-5.89144
12.1321
-5.81398
12.4689
-6.0887
11.7752
-6.67452
11.3949
-4.98691
6.73865
-2.98078
3.05391
-1.21173
0.907823
0.362811
0.580204
-0.188508
0.868146
0.674607
1.00761
3.02419
1.32684
6.63575
2.26289
10.3233
2.9219
11.0983
3.42992
12.0208
3.35066
12.3285
2.67427
11.2173
1.80329
9.77126
0.944606
8.68734
0.110581
8.13968
-0.726996
7.99532
-1.60004
8.17072
-2.54043
8.81105
-3.48805
10.0235
-4.09873
11.411
-4.03658
12.07
-3.4212
11.8536
-2.72171
11.0754
-1.66411
10.3353
-1.14243
6.2162
-0.91705
2.82819
-0.597534
0.588174
-0.235123
-0.152067
-0.0373374
-0.29688
0.818808
-0.696981
3.42204
-0.655485
6.59341
0.395392
9.2744
1.31152
10.1827
1.91256
11.4167
2.04815
12.1931
1.75449
11.5144
1.27919
10.2485
0.724658
9.24305
0.15308
8.71191
-0.406858
8.55599
-0.982859
8.74755
-1.5415
9.37018
-1.98289
10.4653
-2.16734
11.5955
-1.95807
11.86
-1.27565
11.1706
-0.301191
10.1005
0.796889
9.2364
0.6856
6.3263
0.360447
3.15279
0.199744
0.748614
-0.0354916
-0.526553
0.488406
-1.36615
1.65832
-1.78318
3.83958
-1.80285
6.61284
-0.919483
8.3935
-0.0528879
9.31758
0.477229
10.8846
0.781707
11.8889
0.866955
11.4317
0.733143
10.3842
0.498937
9.47834
0.224504
8.98713
-0.0703567
8.85172
-0.330516
9.00868
-0.527329
9.56755
-0.598537
10.5369
-0.470365
11.4671
-0.188163
11.5782
0.441872
10.5405
1.30187
9.24036
2.16789
8.36976
2.02751
6.46617
1.4933
3.68706
0.541429
1.70102
0.506099
-0.402435
0.889854
-1.51042
2.76661
-2.42791
4.7572
-2.54918
6.73466
-2.06532
7.91099
-1.58744
8.83915
-1.01944
10.3146
-0.506709
11.3758
-0.156226
11.0835
0.0076953
10.2214
0.0246554
9.46185
-0.0454393
9.0576
-0.129733
8.93669
-0.203958
9.08359
-0.190261
9.55412
-0.010963
10.3577
0.348984
11.1075
0.832649
11.0937
1.3422
10.0304
1.91866
8.66286
2.45438
7.83284
2.33461
6.58536
1.36635
4.65563
0.352114
2.71597
0.859473
-0.38543
1.27343
-1.39676
3.77783
-2.18309
5.54298
-2.42675
6.97873
-2.19155
7.67731
-1.88079
8.52836
-1.44567
9.87834
-0.918451
10.8487
-0.4702
10.6357
-0.22171
9.97321
-0.103896
9.34371
-0.0504793
9.00414
-0.0321876
8.91868
0.0310891
9.02058
0.170818
9.4146
0.437118
10.0914
0.870163
10.6747
1.3787
10.586
1.76692
9.6416
2.10515
8.32428
2.3745
7.56317
2.1079
6.85197
1.29668
5.46661
0.344892
3.66851
1.2056
-0.351713
1.62457
-1.23347
4.6573
-2.0546
6.36437
-2.41462
7.33873
-2.38088
7.64276
-2.152
8.29887
-1.77255
9.49867
-1.21626
10.2927
-0.719976
10.1394
-0.342431
9.5945
-0.125763
9.12595
0.0137569
8.86415
0.152275
8.78015
0.295538
8.87747
0.526641
9.18363
0.931419
9.68704
1.4457
10.1604
1.96004
10.0717
2.2827
9.31903
2.49561
8.11073
2.50378
7.55448
2.13527
7.21963
1.23834
6.36347
0.352216
4.55499
1.55837
-0.478242
2.1025
-1.39143
5.56919
-2.20779
7.18227
-2.53459
7.66616
-2.58942
7.69735
-2.45733
8.16658
-2.16425
9.20541
-1.65591
9.78424
-1.13405
9.61617
-0.747073
9.20545
-0.458066
8.83558
-0.222338
8.62785
-0.0280547
8.58563
0.207281
8.64215
0.501779
8.88927
0.878722
9.31006
1.35365
9.68598
1.83433
9.59082
2.14135
9.01108
2.29499
7.95683
2.23658
7.61185
1.95232
7.50437
1.21413
7.10242
0.368271
5.40127
1.92631
-0.365177
2.46994
-1.22937
6.43631
-1.9776
7.93131
-2.16959
7.85707
-2.35502
7.88395
-2.26695
8.07946
-1.98629
8.92578
-1.49295
9.29062
-1.02271
9.14285
-0.611745
8.79261
-0.308241
8.53066
-0.0632681
8.3821
0.183123
8.33894
0.429052
8.39585
0.74136
8.57694
1.1801
8.87151
1.66492
9.2009
2.10416
9.15231
2.33866
8.7768
2.40736
7.8872
2.19454
7.82252
1.94279
7.75489
1.17822
7.86677
0.365885
6.21577
2.29259
-0.308813
2.77842
-1.21133
7.34591
-1.91977
8.64312
-2.08877
8.02543
-2.234
8.02811
-2.16515
8.00964
-1.92096
8.68226
-1.49038
8.85819
-1.02847
8.67758
-0.650559
8.41277
-0.314615
8.19343
-0.0133923
8.08046
0.257526
8.06741
0.566542
8.0868
0.915753
8.22739
1.30268
8.48436
1.7415
8.76186
2.16394
8.72887
2.37998
8.5599
2.44419
7.8254
2.28004
7.98639
2.09146
7.94295
1.40815
8.54936
0.473193
7.1522
2.77263
-0.538357
3.31197
-1.44375
8.25258
-2.05414
9.25731
-2.22835
8.20325
-2.40243
8.20356
-2.4371
8.04611
-2.24047
8.48445
-1.78691
8.40155
-1.34991
8.23794
-0.934596
7.99577
-0.598811
7.85675
-0.304164
7.78479
-0.00172802
7.76429
0.294275
7.79025
0.635324
7.88602
1.05738
8.06196
1.48894
8.33001
1.87052
8.34802
2.07063
8.35923
2.03502
7.85813
1.93128
8.08962
1.72315
8.15337
1.15697
9.11911
0.401193
7.92212
3.17769
-0.461583
3.77635
-1.28646
9.07662
-1.88294
9.84953
-2.03418
8.3497
-2.03725
8.20401
-2.01575
8.02557
-1.82469
8.29312
-1.46998
8.04575
-1.07422
7.83929
-0.728855
7.64945
-0.392426
7.51947
-0.0676892
7.45974
0.234559
7.46139
0.56389
7.46059
0.906007
7.54341
1.26235
7.70508
1.64416
7.948
2.01306
7.9782
2.15618
8.21639
2.16106
7.85299
2.14728
8.10203
1.93791
8.36342
1.4152
9.64199
0.515916
8.81928
3.6775
-0.420524
4.20103
-0.813123
9.4703
-1.58896
10.6261
-1.75656
8.51755
-1.8186
8.26595
-1.77725
7.98535
-1.65015
8.16385
-1.322
7.71466
-0.999581
7.51471
-0.655254
7.30448
-0.353204
7.21683
-0.0709449
7.17671
0.229149
7.16077
0.507279
7.18208
0.816771
7.23347
1.18566
7.33559
1.5287
7.60373
1.79692
7.7105
1.92154
8.09127
1.94949
7.82599
1.93534
8.1139
1.85308
8.44523
1.12173
10.3744
0.54186
9.37559
4.22675
-0.628578
4.83003
-1.11326
9.95788
-1.86487
11.3789
-1.98796
8.64581
-1.9546
8.23641
-1.89027
7.92304
-1.71225
7.98522
-1.42571
7.42697
-1.10954
7.19795
-0.822802
7.01712
-0.528871
6.92252
-0.223275
6.8706
0.0608658
6.87615
0.371913
6.87031
0.670568
6.93432
0.952617
7.05326
1.24911
7.30744
1.54742
7.41048
1.68405
7.95536
1.75429
7.75663
1.75193
8.11653
1.69547
8.50005
0.790894
11.2739
0.463511
9.69762
4.70763
-0.450088
5.27917
-0.779583
10.2808
-1.388
11.9752
-1.60064
8.85235
-1.6576
8.28701
-1.60466
7.86801
-1.45263
7.82844
-1.18778
7.16166
-0.910714
6.91955
-0.606841
6.7131
-0.327011
6.64229
-0.0680377
6.61131
0.214518
6.59308
0.470414
6.61411
0.751683
6.65277
1.06909
6.73484
1.34866
7.02724
1.58847
7.17018
1.74547
7.79642
1.76591
7.73452
1.75285
8.12816
1.48962
8.76146
1.00503
11.7694
0.538367
10.1827
5.23675
-0.307845
5.58814
-0.488384
10.4461
-1.0092
12.4961
-1.51681
9.36273
-1.56264
8.33751
-1.48379
7.79488
-1.26542
7.61312
-1.05539
6.95117
-0.816338
6.68004
-0.581008
6.47787
-0.33464
6.39543
-0.0698015
6.34592
0.171158
6.35162
0.440563
6.34413
0.685638
6.40686
0.916972
6.50322
1.16313
6.7798
1.39597
6.93827
1.56992
7.62324
1.62243
7.68118
1.67248
8.08005
1.26405
9.17062
0.748385
12.2784
0.311908
10.6259
5.50552
-0.439253
6.03025
-0.680334
10.6737
-0.993174
12.8121
-1.60608
9.98212
-1.56656
8.3022
-1.51747
7.74799
-1.37487
7.46928
-1.12383
6.69954
-0.909896
6.46603
-0.6568
6.22447
-0.416931
6.15531
-0.197707
6.12616
0.0481111
6.10536
0.264973
6.12668
0.512989
6.15889
0.777338
6.23844
0.980845
6.57605
1.19712
6.72017
1.35625
7.46512
1.39124
7.64809
1.35088
8.1211
0.738885
9.79002
0.410419
12.6183
0.148069
10.8792
5.64574
-0.246879
6.29155
-0.358498
10.786
-0.504427
12.9599
-1.25037
10.7158
-1.37123
8.4154
-1.3363
7.70871
-1.12576
7.2547
-0.909514
6.48451
-0.69907
6.25631
-0.503729
6.02913
-0.290212
5.94135
-0.0517654
5.88756
0.162977
5.8901
0.408231
5.8808
0.618056
5.94822
0.81088
6.04458
1.03978
6.3463
1.2787
6.47962
1.45853
7.27993
1.48075
7.62214
1.40743
8.1939
0.700109
10.5003
0.61357
12.7028
0.37003
11.1474
6.04186
-0.0561166
6.35742
-0.0748642
10.8172
-0.101278
12.9844
-0.788288
11.4022
-1.17771
8.81035
-1.1364
7.67382
-1.02755
7.15179
-0.833025
6.29082
-0.654487
6.07743
-0.445031
5.81952
-0.241797
5.73806
-0.06148
5.70687
0.146652
5.68162
0.321642
5.70566
0.52645
5.74316
0.756606
5.81438
0.921501
6.18092
1.10439
6.29759
1.27556
7.11189
1.34156
7.55709
0.981035
8.55334
0.309186
11.1766
0.273434
12.73
0.340899
11.0878
6.39708
-0.24082
6.60792
-0.399052
10.982
-0.233901
12.8105
-0.757505
11.9343
-1.33438
9.38303
-1.23339
7.57474
-1.06398
6.97988
-0.882264
6.10641
-0.691144
5.8861
-0.525509
5.65337
-0.354641
5.567
-0.150727
5.50288
0.0313381
5.49931
0.235197
5.50094
0.406681
5.57119
0.56747
5.65223
0.775012
5.97252
0.948408
6.12091
1.04889
7.01069
1.1264
7.48081
0.476616
9.20824
-0.0951688
11.746
0.0472582
12.5843
0.143023
10.8947
6.57682
-0.0441969
6.65235
-0.0741596
11.0113
0.111518
12.6249
-0.192965
12.2313
-0.872304
10.0459
-0.938856
7.63526
-0.861985
6.90132
-0.718593
5.9657
-0.574047
5.74343
-0.386228
5.46638
-0.202088
5.38305
-0.0432078
5.34389
0.13632
5.31939
0.292892
5.34412
0.476537
5.38694
0.682263
5.44673
0.814035
5.84048
0.960921
5.97404
1.0903
6.87966
1.03882
7.53132
0.400853
9.84528
0.0910244
12.0587
0.261848
12.4097
0.228167
10.9324
6.87234
0.0178818
6.62664
0.0740173
10.9512
0.291907
12.4099
0.220999
12.3189
-0.5442
10.8297
-0.907248
8.00779
-0.735926
6.73805
-0.636211
5.86779
-0.487765
5.5949
-0.352221
5.32997
-0.209964
5.24078
-0.0431667
5.17697
0.111935
5.16421
0.286384
5.16971
0.42361
5.24945
0.561666
5.30795
0.74384
5.65789
0.840589
5.87731
1.05001
6.67045
0.765304
7.81232
-0.00586547
10.6101
-0.14243
12.1923
0.0403502
12.2278
0.0238237
11.046
6.87947
-0.124416
6.7425
-0.0920108
10.9188
0.0737992
12.2507
0.150848
12.2427
-0.323509
11.3053
-0.82092
8.50809
-0.776439
6.69049
-0.662208
5.75165
-0.56822
5.50091
-0.417557
5.17951
-0.262033
5.08534
-0.123543
5.03816
0.0284951
5.01182
0.160766
5.03664
0.321377
5.08807
0.477007
5.15173
0.550518
5.58239
0.631198
5.79494
0.726821
6.57386
0.179832
8.36382
-0.433348
11.2252
-0.301443
12.065
-0.243871
12.2103
-0.200337
10.9911
6.66746
-0.0317542
6.76847
0.0453631
10.8382
0.197472
12.1024
0.539077
11.8945
0.100953
11.7328
-0.499035
9.10043
-0.646632
6.83973
-0.509419
5.6186
-0.411997
5.4054
-0.303816
5.07224
-0.182443
4.96437
-0.0352834
4.89119
0.103431
4.87325
0.257047
4.88351
0.373893
4.97165
0.494111
5.03212
0.640045
5.43823
0.75824
5.67766
0.635128
6.69564
0.0732632
8.92364
-0.288832
11.5798
-0.0700862
11.8523
0.017653
12.1305
0.0330829
10.9631
6.67738
0.08945
6.67834
0.264437
10.6639
0.322142
12.0442
0.584593
11.6439
0.739351
11.5914
-0.0417224
9.89912
-0.466846
7.28271
-0.448526
5.60133
-0.371347
5.32829
-0.271531
4.97097
-0.146141
4.83855
-0.0317415
4.77678
0.0966539
4.7448
0.209349
4.7707
0.34357
4.83705
0.453543
4.9214
0.521934
5.36889
0.592067
5.60799
0.333153
6.95672
-0.423479
9.67581
-0.441228
11.5889
-0.220278
11.6341
-0.202267
12.1267
-0.021039
10.7825
6.61997
-0.124253
6.80351
-0.0134446
10.5544
0.0992511
11.9304
0.36322
11.3634
0.625632
11.3296
0.0620341
10.4578
-0.410967
7.75189
-0.467219
5.65532
-0.383263
5.24376
-0.303751
4.89254
-0.215619
4.75086
-0.093389
4.65382
0.0229131
4.62691
0.145233
4.64831
0.230985
4.75107
0.316331
4.83691
0.410442
5.27456
0.318687
5.69836
-0.161076
7.44022
-0.801322
10.325
-0.588066
11.3797
-0.383652
11.4279
-0.300018
11.9899
-0.0414267
10.4111
6.55121
0.0462757
6.75784
0.226229
10.3707
0.290111
11.8527
0.473717
11.173
0.872003
10.9256
0.698145
10.6339
0.00054326
8.44723
-0.300975
5.96429
-0.317885
5.26358
-0.215968
4.79137
-0.12086
4.65556
-0.0298854
4.56388
0.0796546
4.51987
0.172504
4.55572
0.280839
4.64261
0.349125
4.76908
0.379379
5.24572
0.140201
5.93939
-0.441894
8.02477
-0.785156
10.6659
-0.383593
10.9753
-0.177483
11.2073
-0.10137
11.8725
0.0544615
10.2697
6.60203
0.0638049
6.69252
0.293812
10.1389
0.402696
11.7466
0.582396
11.0055
0.845864
10.6599
0.96833
10.5201
0.310792
9.11247
-0.0780037
6.35595
-0.211948
5.39435
-0.159495
4.73713
-0.097129
4.59264
-0.0146313
4.48146
0.070293
4.43651
0.164443
4.46262
0.227712
4.58024
0.313231
4.68187
0.254659
5.30224
-0.13383
6.32998
-0.843508
8.74042
-0.751427
10.5718
-0.430769
10.6503
-0.224988
10.9747
-0.149045
11.8117
0.0277275
10.1399
6.65199
-0.0239526
6.71724
0.1433
9.97531
0.260929
11.6332
0.398077
10.8544
0.621602
10.4175
1.02645
10.0986
0.71531
9.41689
0.0668123
6.99873
-0.226103
5.68575
-0.187494
4.70008
-0.125968
4.53219
-0.0578643
4.41315
0.0119648
4.36372
0.0749973
4.39968
0.14021
4.51596
0.17077
4.65124
-0.0807224
5.55363
-0.704948
6.95271
-1.1866
9.21694
-0.799081
10.1852
-0.558725
10.4053
-0.410401
10.8294
-0.315825
11.7571
-0.0719081
9.94361
6.60665
-0.0225178
6.74108
0.230235
9.72725
0.410745
11.4478
0.517082
10.7468
0.734205
10.2094
1.02212
9.81223
0.983973
9.46721
0.359949
7.62806
0.00487317
6.04509
-0.0985581
4.80399
-0.0614242
4.49479
-0.0117949
4.36367
0.0373682
4.31174
0.091258
4.34612
0.137374
4.47088
0.0895435
4.70062
-0.239034
5.88331
-0.867199
7.58401
-1.07601
9.42736
-0.714717
9.81771
-0.464161
10.1558
-0.356875
10.756
-0.162033
11.5958
0.0859734
9.71535
6.71623
0.0193911
6.71555
0.277642
9.46729
0.551441
11.1803
0.622136
10.6817
0.790399
10.0419
1.00388
9.59931
1.32436
9.13815
0.892783
8.05568
0.174715
6.758
-0.00713771
4.98357
-0.017411
4.50474
0.00686511
4.33934
0.0369332
4.27882
0.0660151
4.31676
0.0735637
4.46437
-0.096353
4.86978
-0.781066
6.56611
-1.1953
8.00016
-0.974374
9.20224
-0.725557
9.57028
-0.538495
9.97173
-0.486252
10.7021
-0.176753
11.3109
0.078464
9.45185
6.81537
-0.0328341
-0.571181
-0.0543647
-0.627145
-0.0820968
-0.673634
-0.106363
-0.746278
-0.133988
-0.823323
-0.163399
-0.898378
-0.185797
-0.96448
-0.199682
-1.02255
-0.20728
-1.07645
-0.207226
-1.12846
-0.200014
-1.17129
-0.188451
-1.1953
-0.173354
-1.2178
-0.155044
-1.23408
-0.135594
-1.24803
-0.116291
-1.2641
-0.0980761
-1.28191
-0.0818916
-1.30052
-0.067507
-1.32561
-0.0576818
-1.3535
-0.0519862
-1.37296
-0.0481352
-1.39907
-0.0445893
-1.42474
-0.040683
-1.44868
-0.0367691
-1.47139
-0.0319825
-1.49349
-0.0278098
-1.51694
-0.0192865
-1.52762
-0.00782911
-1.50675
-1.43262
0.00663131
-0.577531
-0.0212274
-0.594666
-0.0441006
-0.643665
-0.0719125
-0.708388
-0.0991658
-0.781871
-0.126895
-0.851547
-0.148708
-0.912923
-0.162363
-0.970872
-0.172652
-1.02997
-0.175942
-1.08825
-0.172604
-1.13669
-0.164473
-1.17051
-0.1533
-1.203
-0.138182
-1.2277
-0.120557
-1.24835
-0.102573
-1.26865
-0.0856604
-1.28799
-0.0717689
-1.30557
-0.0596906
-1.33136
-0.0502943
-1.36313
-0.0437856
-1.38261
-0.0406233
-1.4082
-0.0382162
-1.43264
-0.0361897
-1.45711
-0.0338976
-1.48078
-0.0302408
-1.50242
-0.0268227
-1.52082
-0.021298
-1.528
-0.0108608
-1.50624
-1.44006
-0.0256496
-0.551507
-0.0563539
-0.556772
-0.0858146
-0.60651
-0.116574
-0.666897
-0.148691
-0.734244
-0.179203
-0.798124
-0.198817
-0.85702
-0.217346
-0.918742
-0.229174
-0.981279
-0.233225
-1.04522
-0.229345
-1.09966
-0.22027
-1.14323
-0.207461
-1.18557
-0.189825
-1.21891
-0.168973
-1.24742
-0.147222
-1.27336
-0.126953
-1.29561
-0.109248
-1.3134
-0.0944943
-1.34039
-0.08206
-1.37097
-0.073606
-1.38826
-0.0668096
-1.41405
-0.0614377
-1.44009
-0.0560846
-1.46545
-0.0507085
-1.49026
-0.0445225
-1.51177
-0.0365112
-1.52459
-0.0271569
-1.53084
-0.0144673
-1.50372
-1.43408
-0.043014
-0.507603
-0.0780498
-0.51559
-0.113144
-0.564016
-0.147666
-0.621497
-0.181687
-0.683212
-0.208817
-0.741477
-0.235782
-0.801176
-0.25585
-0.865395
-0.268978
-0.931496
-0.275142
-0.998265
-0.273229
-1.05748
-0.266656
-1.10936
-0.25492
-1.16052
-0.237114
-1.20274
-0.21532
-1.24076
-0.191705
-1.27402
-0.168943
-1.30145
-0.14908
-1.32114
-0.131668
-1.34935
-0.115688
-1.37887
-0.102199
-1.39612
-0.0921236
-1.42027
-0.08374
-1.44481
-0.0749835
-1.47146
-0.066783
-1.49674
-0.0570712
-1.52431
-0.046607
-1.53439
-0.0341375
-1.53152
-0.0189698
-1.51007
-1.42402
-0.0434401
-0.46296
-0.0789722
-0.473583
-0.115697
-0.519059
-0.151385
-0.574287
-0.185566
-0.63239
-0.212823
-0.686237
-0.238933
-0.746911
-0.26098
-0.812823
-0.276444
-0.879752
-0.285062
-0.94905
-0.285741
-1.012
-0.282415
-1.07074
-0.273562
-1.12907
-0.257737
-1.17998
-0.237243
-1.22762
-0.21383
-1.26919
-0.1896
-1.30391
-0.165088
-1.3306
-0.147955
-1.35537
-0.13121
-1.38566
-0.116143
-1.4033
-0.103009
-1.42712
-0.0926932
-1.45002
-0.082435
-1.47709
-0.0733651
-1.50177
-0.0620332
-1.53672
-0.0497919
-1.54543
-0.0360373
-1.53158
-0.0203538
-1.50787
-1.43022
-0.0410749
-0.42216
-0.079052
-0.428929
-0.117396
-0.47222
-0.153368
-0.525981
-0.187424
-0.582301
-0.213948
-0.634144
-0.241045
-0.694588
-0.263116
-0.760277
-0.280834
-0.827217
-0.291486
-0.898668
-0.294988
-0.964546
-0.295234
-1.02838
-0.290037
-1.0918
-0.27762
-1.15007
-0.259915
-1.2065
-0.237758
-1.25729
-0.21303
-1.30077
-0.189197
-1.3362
-0.166609
-1.36375
-0.149021
-1.39288
-0.130145
-1.41339
-0.116659
-1.43463
-0.103575
-1.45866
-0.0918317
-1.48574
-0.0811432
-1.50881
-0.0677604
-1.53297
-0.0537824
-1.53908
-0.0388151
-1.5313
-0.021123
-1.50656
-1.43172
-0.0418239
-0.377707
-0.0810221
-0.382894
-0.120098
-0.424678
-0.156483
-0.476775
-0.189305
-0.532795
-0.216648
-0.584664
-0.243363
-0.643824
-0.266786
-0.708431
-0.285548
-0.775505
-0.297644
-0.848308
-0.303524
-0.916439
-0.306701
-0.98438
-0.304938
-1.05172
-0.296146
-1.11658
-0.282075
-1.18098
-0.262678
-1.24037
-0.238467
-1.29353
-0.212397
-1.33836
-0.186366
-1.37296
-0.167022
-1.40056
-0.147727
-1.42418
-0.130582
-1.44548
-0.114964
-1.46917
-0.101464
-1.49175
-0.0876011
-1.51376
-0.0733618
-1.53218
-0.0573267
-1.53592
-0.0410318
-1.53171
-0.02158
-1.5063
-1.42982
-0.0437677
-0.329472
-0.0842289
-0.334774
-0.124017
-0.375939
-0.160719
-0.427195
-0.191863
-0.484059
-0.219803
-0.536839
-0.246899
-0.594903
-0.271232
-0.658426
-0.290349
-0.725455
-0.303927
-0.798536
-0.311892
-0.868199
-0.317649
-0.939821
-0.31902
-1.0103
-0.313827
-1.08038
-0.303597
-1.15096
-0.28731
-1.21817
-0.266176
-1.28038
-0.241717
-1.33408
-0.216047
-1.37664
-0.189576
-1.41219
-0.166659
-1.43891
-0.147323
-1.45849
-0.129542
-1.47903
-0.112642
-1.49777
-0.0965913
-1.51585
-0.0799338
-1.53044
-0.0621415
-1.53494
-0.0441354
-1.53479
-0.0224771
-1.50721
-1.43049
-0.0472867
-0.27693
-0.0874061
-0.286943
-0.127174
-0.327256
-0.163506
-0.37832
-0.194514
-0.436264
-0.221835
-0.490477
-0.249078
-0.547876
-0.273197
-0.610655
-0.29254
-0.677577
-0.307206
-0.749964
-0.317061
-0.820682
-0.325016
-0.894962
-0.329223
-0.967977
-0.326515
-1.04231
-0.319741
-1.11703
-0.309252
-1.18893
-0.292757
-1.25895
-0.270162
-1.32213
-0.243557
-1.37475
-0.215993
-1.41873
-0.189196
-1.45305
-0.165058
-1.47341
-0.143192
-1.48824
-0.123358
-1.5039
-0.105076
-1.51894
-0.086175
-1.53083
-0.0671013
-1.53586
-0.0472868
-1.53763
-0.024064
-1.51029
-1.47282
-0.0481755
-0.223118
-0.0885867
-0.23909
-0.128148
-0.279028
-0.163828
-0.330542
-0.196002
-0.389568
-0.221335
-0.445731
-0.247787
-0.50308
-0.271191
-0.565313
-0.291098
-0.631672
-0.306927
-0.70278
-0.318644
-0.773642
-0.328494
-0.849699
-0.332924
-0.926117
-0.334298
-1.00163
-0.333411
-1.07717
-0.327563
-1.15324
-0.314313
-1.23131
-0.294487
-1.30148
-0.269346
-1.36454
-0.242029
-1.41829
-0.215634
-1.46063
-0.184798
-1.4911
-0.15662
-1.50441
-0.1339
-1.51468
-0.112824
-1.52584
-0.0921549
-1.53471
-0.0699195
-1.54046
-0.0463449
-1.54114
-0.0261325
-1.52339
-1.47274
-0.0471928
-0.169545
-0.0878951
-0.191048
-0.126953
-0.231477
-0.161732
-0.284154
-0.193157
-0.344291
-0.218122
-0.402905
-0.243302
-0.46048
-0.266135
-0.522187
-0.286404
-0.587648
-0.30303
-0.657078
-0.315081
-0.728169
-0.324221
-0.807077
-0.333223
-0.881881
-0.339893
-0.957225
-0.342397
-1.03398
-0.339279
-1.11515
-0.329743
-1.1974
-0.313258
-1.27423
-0.290753
-1.34695
-0.263914
-1.41118
-0.236702
-1.46186
-0.205698
-1.50149
-0.174082
-1.51985
-0.145867
-1.52782
-0.121562
-1.53465
-0.0981186
-1.54327
-0.0737069
-1.55603
-0.0483865
-1.5618
-0.0247156
-1.532
-1.46754
-0.0454581
-0.116022
-0.0863801
-0.142749
-0.124321
-0.185085
-0.157935
-0.239376
-0.188518
-0.30069
-0.213147
-0.361213
-0.237199
-0.41987
-0.259311
-0.481558
-0.279111
-0.546617
-0.296381
-0.612803
-0.30656
-0.688526
-0.320501
-0.762093
-0.332315
-0.836221
-0.341077
-0.912244
-0.345649
-0.990137
-0.346237
-1.07414
-0.340273
-1.15922
-0.327501
-1.24128
-0.308544
-1.32245
-0.283053
-1.39672
-0.253786
-1.45891
-0.22307
-1.50433
-0.189983
-1.53118
-0.158843
-1.5413
-0.131029
-1.54556
-0.104338
-1.55353
-0.078113
-1.56425
-0.0516679
-1.56585
-0.0254199
-1.53937
-1.47033
-0.045117
-0.0616351
-0.0852252
-0.0951957
-0.12121
-0.140782
-0.153136
-0.196643
-0.182663
-0.259174
-0.208215
-0.320159
-0.230868
-0.381355
-0.251371
-0.443841
-0.269793
-0.508634
-0.282861
-0.574257
-0.299293
-0.645882
-0.315061
-0.718245
-0.328545
-0.791581
-0.338605
-0.86717
-0.345497
-0.946878
-0.349117
-1.03153
-0.346251
-1.11801
-0.337279
-1.20412
-0.322447
-1.29208
-0.300139
-1.37525
-0.272741
-1.44702
-0.237793
-1.50491
-0.201892
-1.53963
-0.169284
-1.55294
-0.138859
-1.55782
-0.10982
-1.56413
-0.0831786
-1.57115
-0.0568283
-1.56908
-0.0282156
-1.54848
-1.47962
-0.0451668
-0.00821866
-0.0839346
-0.0482676
-0.117707
-0.09785
-0.147884
-0.155651
-0.175215
-0.220778
-0.200097
-0.28212
-0.222033
-0.344821
-0.242043
-0.407472
-0.260608
-0.471684
-0.275348
-0.537698
-0.291398
-0.606257
-0.307962
-0.675708
-0.321888
-0.748478
-0.332828
-0.82315
-0.342092
-0.903805
-0.348132
-0.988389
-0.348107
-1.07504
-0.342872
-1.16379
-0.332228
-1.25651
-0.314
-1.34677
-0.287995
-1.42891
-0.254654
-1.49594
-0.216171
-1.54345
-0.177668
-1.56634
-0.144282
-1.57172
-0.114231
-1.57445
-0.0866285
-1.57897
-0.0608231
-1.5783
-0.0312825
-1.55859
-1.4928
-0.0455253
0.0456668
-0.0809161
-0.0045372
-0.112868
-0.0564647
-0.14132