/*--------------------------------*- C++ -*----------------------------------*\
| =========                 |                                                 |
| \\      /  F ield         | OpenFOAM: The Open Source CFD Toolbox           |
|  \\    /   O peration     | Version:  2112                                  |
|   \\  /    A nd           | Website:  www.openfoam.com                      |
|    \\/     M anipulation  |                                                 |
\*---------------------------------------------------------------------------*/
FoamFile
{
    version     2.0;
    format      ascii;
    arch        "LSB;label=32;scalar=64";
    class       volScalarField;
    location    "0.01";
    object      alphat;
}
// * * * * * * * * * * * * * * * * * * * * * * * * * * * * * * * * * * * * * //

dimensions      [1 -1 -1 0 0 0 0];

internalField   nonuniform List<scalar> 
13875
(
0.11986
0.081602
0.078451
0.0782729
0.0783294
0.0783767
0.0783138
0.0782705
0.0782993
0.0783108
0.0783091
0.0783156
0.0783798
0.0784123
0.0783941
0.0782974
0.0782559
0.0782948
0.0783038
0.0783543
0.0783209
0.078266
0.0784863
0.0814923
0.120923
0.103937
0.0576787
0.0570822
0.0571687
0.056672
0.0567606
0.057064
0.0571289
0.0571408
0.057129
0.0571259
0.0571213
0.0566613
0.0566146
0.0566678
0.0570972
0.0571184
0.0571523
0.0570736
0.0566795
0.0566747
0.057139
0.057068
0.0573619
0.104472
0.110618
0.0553234
0.0558736
0.0547209
0.0545931
0.0544789
0.0543535
0.0543367
0.0542876
0.0541581
0.054142
0.0543431
0.0542516
0.0542777
0.0542412
0.0543493
0.0541081
0.0542547
0.0542802
0.05445
0.0545301
0.0546026
0.0557865
0.055065
0.111199
0.115885
0.0546442
0.0553818
0.0543179
0.0540566
0.0539484
0.0537298
0.0535528
0.0534609
0.0534067
0.0533453
0.0534531
0.0537058
0.0537412
0.0536934
0.053484
0.053365
0.0534644
0.0536336
0.0539048
0.053999
0.0542031
0.0551957
0.054284
0.115894
0.121031
0.0546339
0.0551207
0.0537481
0.0536922
0.0535006
0.0532113
0.0530538
0.0529719
0.052921
0.0528541
0.0529611
0.0532225
0.0532665
0.0532163
0.0529953
0.0528774
0.0529562
0.0531091
0.0534736
0.0536069
0.0536125
0.0550203
0.0543243
0.121472
0.124407
0.0547438
0.0551867
0.0536115
0.0533104
0.0531158
0.0528148
0.0526036
0.0525419
0.0524908
0.0524122
0.0525067
0.0527787
0.0528517
0.0527676
0.0525401
0.0524485
0.0525464
0.0527326
0.0530513
0.0532375
0.0535051
0.0548829
0.0543907
0.124116
0.128744
0.0564729
0.0557836
0.0534565
0.053284
0.0528966
0.0524315
0.052243
0.0521532
0.0521145
0.0520282
0.0521218
0.0524084
0.0524785
0.0523994
0.0521503
0.0520774
0.0521617
0.0523572
0.0528622
0.0531938
0.053364
0.0556426
0.0563543
0.128976
0.1357
0.0611941
0.0578327
0.0544115
0.0534116
0.0528639
0.0522799
0.0519804
0.0518669
0.0518246
0.0517369
0.0517958
0.0521034
0.0521881
0.0520854
0.0518232
0.0518065
0.0519226
0.0522174
0.0527842
0.0533228
0.0542769
0.0575125
0.0610295
0.135537
0.1513
0.0692429
0.061538
0.0559184
0.0544114
0.0531565
0.05223
0.0518738
0.051714
0.0516563
0.0515687
0.0515928
0.0519337
0.0520299
0.0519252
0.051625
0.0516549
0.0518001
0.0521602
0.0530929
0.0542245
0.0556182
0.061028
0.0684062
0.154136
0.2393
0.0874259
0.0664511
0.0589884
0.0553762
0.0536798
0.0525008
0.0520001
0.0518176
0.0517314
0.0516537
0.0516353
0.0519953
0.0521133
0.0520029
0.0517142
0.051765
0.0519461
0.0524375
0.053604
0.0552558
0.0586505
0.0660057
0.0866813
0.241155
0.365296
0.118392
0.0759629
0.0629282
0.0575536
0.0547374
0.0531187
0.0526014
0.0523263
0.0522046
0.0521342
0.0520849
0.0524319
0.0525761
0.0524961
0.0522645
0.0523154
0.0525528
0.0530335
0.0546152
0.0573242
0.0616255
0.0748283
0.11302
0.365696
0.65811
0.192991
0.104009
0.0743812
0.0612916
0.0572836
0.0551665
0.0542099
0.0537031
0.0534948
0.0533891
0.0533252
0.0536031
0.0537815
0.0537764
0.0536801
0.0537661
0.0541677
0.0551237
0.0568203
0.0618878
0.0733861
0.100181
0.182918
0.643662
0.581858
0.435638
0.176194
0.0921138
0.0767656
0.0649715
0.059745
0.0578497
0.0569127
0.0565644
0.0563996
0.056324
0.056486
0.0566777
0.056793
0.056883
0.0571416
0.0579446
0.0598581
0.0653171
0.0763306
0.0896947
0.172091
0.433679
0.581348
0.491331
0.400215
0.346861
0.327467
0.115899
0.0804705
0.0735493
0.0676015
0.0650815
0.0643001
0.0638938
0.0637043
0.0637483
0.0639318
0.0642435
0.0647514
0.0656954
0.0683799
0.0749715
0.0831
0.131171
0.328518
0.337496
0.40146
0.500178
0.408041
0.349306
0.329219
0.334359
0.3018
0.200582
0.127444
0.0945092
0.0864943
0.0859015
0.0853138
0.0850012
0.085027
0.0852091
0.0856799
0.086638
0.0875658
0.0953699
0.134085
0.21305
0.302305
0.330372
0.331369
0.360346
0.421796
0.329529
0.293111
0.282111
0.301557
0.313118
0.321576
0.244125
0.191816
0.171477
0.148542
0.136451
0.132398
0.130938
0.131676
0.134392
0.143246
0.171702
0.195441
0.249628
0.324119
0.307807
0.303926
0.291597
0.298468
0.341958
0.238887
0.227078
0.225533
0.265146
0.319169
0.400576
0.530242
0.565377
0.53924
0.538389
0.557757
0.570717
0.577799
0.573968
0.560564
0.550033
0.53926
0.568184
0.532119
0.396328
0.314194
0.266875
0.230389
0.234542
0.252012
0.140295
0.152397
0.185756
0.227308
0.311771
0.432085
0.564524
0.616357
0.560878
0.513289
0.495535
0.492399
0.494892
0.493607
0.498727
0.530159
0.566328
0.606735
0.566089
0.438228
0.310623
0.229378
0.177442
0.143032
0.131189
0.0684728
0.103036
0.165372
0.251058
0.349872
0.40816
0.474481
0.533551
0.499811
0.453425
0.433571
0.430691
0.432332
0.435373
0.441682
0.462945
0.496915
0.527603
0.488269
0.427336
0.372847
0.26596
0.168437
0.104666
0.0704424
0.0268027
0.052655
0.113869
0.231041
0.345941
0.36196
0.385302
0.426988
0.424409
0.402753
0.390682
0.384882
0.382449
0.39039
0.398863
0.406339
0.414693
0.414676
0.389376
0.377889
0.36374
0.228945
0.112154
0.0519828
0.0259154
0.0796433
0.0887053
0.115128
0.186993
0.27486
0.285326
0.307584
0.3518
0.369528
0.361248
0.349518
0.338773
0.33329
0.344899
0.356992
0.361969
0.35737
0.3379
0.307312
0.295777
0.283186
0.186124
0.113437
0.0891002
0.0844563
0.125263
0.154416
0.12921
0.156822
0.207087
0.224376
0.25219
0.298238
0.322277
0.320309
0.308442
0.294354
0.28778
0.300353
0.315394
0.320203
0.310596
0.285456
0.247883
0.230239
0.21072
0.153982
0.125524
0.150296
0.125732
0.171261
0.166314
0.133323
0.134319
0.163869
0.180861
0.21179
0.256062
0.280978
0.280929
0.268845
0.254254
0.247138
0.259026
0.274083
0.279223
0.269041
0.245961
0.205885
0.1835
0.16582
0.134501
0.129896
0.161796
0.172289
0.210904
0.198044
0.134732
0.123739
0.1385
0.15466
0.18028
0.219958
0.242599
0.244422
0.232295
0.218153
0.212195
0.22263
0.237245
0.242743
0.231894
0.21082
0.176111
0.155387
0.139471
0.123987
0.132896
0.203193
0.206268
0.231772
0.235727
0.137758
0.119412
0.122714
0.135052
0.156738
0.188974
0.208671
0.210355
0.20041
0.188007
0.182554
0.192122
0.205361
0.210016
0.199992
0.181624
0.153667
0.134373
0.122986
0.121449
0.137465
0.243421
0.228292
0.254443
0.264114
0.138144
0.115972
0.112058
0.121177
0.13857
0.164454
0.180298
0.182245
0.173525
0.162162
0.157609
0.165545
0.177476
0.181577
0.172949
0.157665
0.135967
0.120818
0.112575
0.117381
0.138766
0.271145
0.251558
0.28301
0.278528
0.139134
0.112794
0.105723
0.109854
0.124283
0.143758
0.156169
0.156884
0.150053
0.140721
0.136654
0.143907
0.153919
0.156987
0.150148
0.13808
0.121328
0.108599
0.106513
0.114175
0.141763
0.291204
0.276465
0.312095
0.296208
0.138716
0.10815
0.100561
0.101797
0.112585
0.126938
0.135644
0.136279
0.130388
0.122259
0.119158
0.125112
0.134135
0.137352
0.132115
0.122478
0.110139
0.1009
0.101613
0.109828
0.142231
0.308381
0.305344
0.343126
0.326537
0.143346
0.105868
0.0979807
0.095168
0.10281
0.112833
0.119521
0.11905
0.114224
0.107529
0.104398
0.109704
0.116757
0.119231
0.115824
0.109003
0.100505
0.0942359
0.0985185
0.106514
0.144373
0.322769
0.334695
0.371275
0.341033
0.143773
0.101867
0.0935768
0.0906547
0.0953336
0.101529
0.105231
0.104532
0.100208
0.0943502
0.0920666
0.0963931
0.102923
0.105492
0.103113
0.0980231
0.092759
0.0887033
0.0939816
0.103002
0.145668
0.34025
0.360446
0.386686
0.346336
0.148968
0.100853
0.0911888
0.0862565
0.0890704
0.0911526
0.09351
0.0920659
0.0886349
0.0839553
0.0815726
0.0857463
0.090953
0.0930347
0.0920769
0.0890243
0.0869148
0.0848511
0.0907121
0.101077
0.148709
0.346235
0.385808
0.396903
0.346171
0.152874
0.0993407
0.0864666
0.0814362
0.0835846
0.0838259
0.0842355
0.0825639
0.0791788
0.0746253
0.0728075
0.0760987
0.0810659
0.0832856
0.0830393
0.081341
0.0816012
0.0795661
0.0858964
0.0994277
0.150875
0.344984
0.397599
0.41522
0.340788
0.158439
0.100515
0.0845284
0.0780172
0.0791897
0.0765472
0.0760762
0.073806
0.0709694
0.0673108
0.0653744
0.0686969
0.0727372
0.0746691
0.075404
0.0749555
0.0771686
0.0763844
0.0830285
0.0998194
0.157691
0.347221
0.410143
0.422808
0.334814
0.163309
0.100879
0.080702
0.0741197
0.0736392
0.070898
0.0691606
0.0669127
0.0641767
0.0605424
0.0591161
0.0617274
0.0658403
0.0680405
0.0690741
0.0694824
0.0722771
0.0721743
0.0798593
0.0998034
0.164182
0.337159
0.424276
0.428938
0.332417
0.16408
0.104014
0.0807561
0.0720084
0.0699528
0.0656502
0.0635492
0.0607279
0.0583448
0.0554088
0.0537909
0.0564177
0.0596511
0.0614966
0.0634097
0.0646694
0.0684496
0.0701913
0.0784738
0.101971
0.167964
0.339552
0.433431
0.435816
0.323816
0.162032
0.105767
0.0804378
0.0686136
0.0652647
0.0609841
0.0585684
0.0558512
0.0534274
0.0503961
0.0492397
0.0513131
0.0547648
0.0569284
0.0587506
0.0598828
0.064373
0.0674326
0.0784973
0.104907
0.166402
0.339401
0.43487
0.440581
0.325167
0.161887
0.110624
0.082333
0.0672899
0.0625322
0.0566706
0.0542589
0.0512345
0.0490971
0.0466868
0.0453389
0.0474949
0.0502105
0.0520645
0.0546328
0.0560874
0.0616365
0.0658173
0.0800468
0.109663
0.165857
0.337305
0.43943
0.436155
0.323621
0.159513
0.118374
0.0839968
0.0655968
0.0590252
0.0530385
0.050405
0.0478058
0.0455764
0.0429453
0.0419582
0.043656
0.04666
0.0486877
0.0507249
0.0521537
0.058177
0.064269
0.0812525
0.117289
0.161438
0.334241
0.437911
0.433335
0.322435
0.155892
0.1223
0.0873215
0.0665769
0.0572609
0.0498826
0.0471673
0.0441986
0.0422981
0.0402096
0.0390538
0.0409184
0.0432387
0.0448791
0.0476443
0.0494495
0.0561768
0.0649633
0.0856146
0.12212
0.15797
0.333581
0.432199
0.423454
0.323658
0.149164
0.122049
0.091557
0.0665608
0.0547447
0.0471338
0.0441486
0.041634
0.0396534
0.0373345
0.0365197
0.0379477
0.040651
0.0424613
0.044658
0.0466285
0.0540765
0.0651044
0.0891507
0.121941
0.150349
0.328227
0.427352
0.41157
0.324292
0.145012
0.122149
0.100035
0.0694782
0.0551238
0.0454122
0.0419971
0.0388676
0.0371386
0.035344
0.0342957
0.0358599
0.0379201
0.0393895
0.0424915
0.0450718
0.0538896
0.0674341
0.0970209
0.121563
0.146217
0.331413
0.417936
0.40638
0.322216
0.1397
0.120009
0.107697
0.071031
0.0541987
0.0440303
0.0398625
0.0370535
0.0351424
0.0330361
0.0323393
0.0335457
0.0360333
0.037706
0.0403511
0.0435437
0.0536621
0.0696431
0.108774
0.120499
0.143157
0.329141
0.404967
0.397293
0.323368
0.137824
0.116251
0.107651
0.076057
0.0554846
0.0440855
0.0388443
0.03497
0.0331777
0.0315353
0.0306045
0.0319735
0.0338778
0.0354348
0.0393939
0.0436018
0.0544333
0.0745142
0.109028
0.117578
0.141081
0.328769
0.398153
0.388342
0.318952
0.137188
0.111372
0.106812
0.0840748
0.0569718
0.0438863
0.0378233
0.0339086
0.0317631
0.0297054
0.0290686
0.0301181
0.0325133
0.0342939
0.0380869
0.0433699
0.0558677
0.0818878
0.107719
0.112432
0.139649
0.327231
0.389556
0.381995
0.316138
0.13562
0.106416
0.103916
0.0931325
0.0609037
0.0445567
0.0380807
0.0327753
0.0303474
0.0286032
0.0277282
0.0289737
0.0308478
0.0328917
0.0384068
0.0443836
0.0602086
0.0941635
0.105427
0.108344
0.14126
0.322402
0.380523
0.375026
0.314498
0.136305
0.10293
0.0991617
0.092913
0.0677209
0.0460062
0.0378185
0.032737
0.0296871
0.0272917
0.0266105
0.0276375
0.0303592
0.0327958
0.0380188
0.0455776
0.0668595
0.0936832
0.100828
0.104236
0.139721
0.31847
0.375638
0.362928
0.308211
0.138177
0.100719
0.0947603
0.0918579
0.078876
0.0499213
0.0389195
0.0324811
0.0291326
0.0268968
0.0257557
0.027134
0.0294956
0.0324299
0.0389617
0.0492888
0.0774171
0.0925116
0.0959904
0.101257
0.139817
0.316684
0.366893
0.353473
0.30415
0.137249
0.0985415
0.0907729
0.0887658
0.0788047
0.0559095
0.0398536
0.032862
0.0293308
0.0263737
0.025096
0.0266349
0.0299218
0.0328959
0.0398596
0.0556563
0.0786985
0.0893367
0.0918481
0.0994351
0.140264
0.311423
0.354891
0.327483
0.292893
0.136624
0.0974621
0.0879689
0.0847275
0.0782554
0.0654971
0.0437883
0.0332251
0.0292163
0.0266306
0.0250881
0.0268162
0.0295193
0.0332163
0.0438117
0.065483
0.0782519
0.0850789
0.0883882
0.0980457
0.13911
0.300089
0.328777
0.296089
0.273761
0.132755
0.0962241
0.0855605
0.0807542
0.0764809
0.0677074
0.0490211
0.035535
0.0299596
0.0264844
0.0251448
0.0267008
0.0304216
0.0352935
0.0490913
0.0684851
0.0766217
0.0803222
0.0854147
0.0962021
0.134224
0.28159
0.298826
0.127322
0.560505
0.799988
0.892275
0.897658
0.892487
0.870192
0.839798
0.791916
0.727326
0.651389
0.571931
0.496938
0.434036
0.384688
0.346727
0.31729
0.29476
0.276207
0.258028
0.243333
0.230833
0.218524
0.205011
0.189909
0.173077
0.153299
0.128959
0.0997718
0.079697
0.121836
0.593675
0.826555
0.910526
0.912141
0.908912
0.889705
0.861131
0.815192
0.755268
0.682655
0.605055
0.528107
0.459679
0.401628
0.356611
0.321004
0.294656
0.273061
0.255183
0.239291
0.226333
0.214521
0.200448
0.185558
0.168802
0.149064
0.125051
0.0967718
0.0778922
0.131528
0.655613
0.857281
0.931974
0.934073
0.931279
0.912548
0.882386
0.844285
0.790934
0.72304
0.646269
0.567866
0.492031
0.425104
0.37137
0.330985
0.299014
0.272836
0.254174
0.237629
0.223867
0.211037
0.19747
0.182406
0.165638
0.145712
0.121853
0.094574
0.0769763
0.139943
0.685948
0.885608
0.954927
0.95784
0.954381
0.928759
0.904318
0.873855
0.830413
0.769706
0.69483
0.613413
0.533034
0.457578
0.394913
0.346083
0.307316
0.27724
0.254848
0.237255
0.222482
0.208141
0.19442
0.179244
0.162388
0.142471
0.118789
0.0926208
0.0759126
0.144214
0.710705
0.916618
0.983333
0.982729
0.973618
0.947289
0.927942
0.903822
0.868419
0.816189
0.746751
0.666151
0.580476
0.498127
0.424735
0.366366
0.319808
0.284557
0.257646
0.237954
0.22205
0.206894
0.192255
0.176793
0.159752
0.139819
0.116384
0.0911912
0.0752589
0.147783
0.738128
0.951055
1.01659
1.00651
0.991588
0.965996
0.949129
0.933171
0.905466
0.861451
0.799087
0.722726
0.634166
0.544467
0.462735
0.394319
0.338091
0.295587
0.264039
0.240594
0.222231
0.20603
0.190559
0.174486
0.157115
0.137175
0.113948
0.0896472
0.0747821
0.151909
0.766087
0.986035
1.04744
1.02729
1.0079
0.982258
0.969136
0.958544
0.938237
0.902879
0.849342
0.77927
0.692321
0.599608
0.509786
0.430437
0.364114
0.313123
0.275111
0.246698
0.224863
0.206573
0.189811
0.172957
0.155277
0.135229
0.112154
0.0886461
0.0743363
0.155959
0.795374
1.02136
1.07403
1.04771
1.02313
0.997626
0.988067
0.980783
0.967088
0.941518
0.898378
0.835771
0.753277
0.660849
0.565241
0.475574
0.398987
0.337758
0.291342
0.25591
0.229234
0.208163
0.189702
0.171815
0.153723
0.133535
0.110675
0.0878433
0.0737212
0.159816
0.823162
1.05162
1.099
1.06766
1.03787
1.0103
1.0021
0.998383
0.991177
0.974112
0.941366
0.888415
0.814663
0.726141
0.628573
0.531424
0.444493
0.371461
0.314156
0.26982
0.23656
0.211634
0.190977
0.172083
0.153363
0.132748
0.110081
0.0875213
0.0735896
0.162512
0.845596
1.0786
1.12352
1.0871
1.05244
1.02109
1.01346
1.01202
1.00951
0.999605
0.97716
0.93529
0.873233
0.792004
0.696784
0.596139
0.499786
0.413877
0.342927
0.288065
0.247307
0.217163
0.193736
0.173529
0.15373
0.132553
0.109811
0.08728
0.0734817
0.164939
0.864879
1.10424
1.14726
1.1055
1.06504
1.03066
1.02054
1.02116
1.02184
1.01721
1.00435
0.974034
0.924895
0.854673
0.766797
0.666778
0.563773
0.465312
0.37974
0.312992
0.262881
0.226206
0.198912
0.176589
0.155192
0.133212
0.110095
0.087497
0.0738881
0.166856
0.883692
1.12888
1.16934
1.12144
1.07487
1.03855
1.02587
1.02486
1.02937
1.02783
1.02297
1.0037
0.96782
0.910702
0.833658
0.738386
0.632505
0.524803
0.426374
0.345616
0.28382
0.238743
0.206099
0.180522
0.157127
0.134105
0.11029
0.087637
0.0743398
0.168551
0.899855
1.15009
1.18661
1.13357
1.08165
1.04351
1.0298
1.02449
1.03109
1.0325
1.03397
1.02491
1.00146
0.958256
0.894466
0.808846
0.705696
0.593193
0.483867
0.388159
0.312245
0.256483
0.216135
0.185976
0.160173
0.135642
0.110986
0.0882038
0.0751706
0.169185
0.913604
1.16546
1.1989
1.14133
1.08525
1.04535
1.03208
1.0203
1.02559
1.03297
1.03993
1.04012
1.02759
0.997718
0.947724
0.874553
0.779207
0.667504
0.551136
0.441406
0.350135
0.2809
0.229979
0.193546
0.164473
0.137683
0.111861
0.0891491
0.0763035
0.168715
0.924214
1.17403
1.20574
1.1448
1.08643
1.04606
1.02918
1.01332
1.01823
1.0317
1.04326
1.05029
1.04663
1.02897
0.993469
0.934362
0.850744
0.745151
0.626317
0.506552
0.399423
0.313584
0.25039
0.205063
0.170781
0.14091
0.113497
0.089913
0.0771426
0.16761
0.928989
1.1805
1.2052
1.14444
1.08563
1.04504
1.02159
1.00793
1.01198
1.02823
1.04412
1.05596
1.05944
1.05222
1.03073
0.986307
0.916151
0.820874
0.705178
0.579638
0.458027
0.354672
0.276841
0.220593
0.179543
0.146205
0.116005
0.0904609
0.0776236
0.166714
0.927469
1.18002
1.19987
1.13953
1.08304
1.04115
1.01211
1.00118
1.00661
1.02331
1.04356
1.05895
1.06785
1.07011
1.05982
1.02971
0.975297
0.892785
0.784886
0.658263
0.525919
0.405146
0.310044
0.241005
0.191491
0.152458
0.119255
0.0915401
0.0784405
0.164655
0.920833
1.17255
1.1908
1.129
1.07813
1.03388
1.00379
0.994272
1.00131
1.019
1.04094
1.06034
1.073
1.0833
1.08365
1.06478
1.02483
0.956962
0.861059
0.738416
0.600676
0.464869
0.351203
0.266275
0.20583
0.159623
0.122203
0.09275
0.0792621
0.161743
0.906919
1.15309
1.174
1.11519
1.06916
1.02459
0.99634
0.988005
0.99712
1.0158
1.03778
1.06073
1.07637
1.09332
1.10253
1.09409
1.06591
1.01251
0.930837
0.817407
0.679991
0.533695
0.401916
0.297973
0.223332
0.16884
0.126101
0.0940422
0.0801075
0.158833
0.889549
1.12625
1.14865
1.09673
1.0553
1.01446
0.989846
0.982073
0.992865
1.01336
1.03643
1.05968
1.07877
1.10098
1.11725
1.11724
1.09921
1.05911
0.992042
0.891307
0.759526
0.608783
0.461837
0.337204
0.244937
0.179657
0.130689
0.0950965
0.0805403
0.154832
0.862189
1.08936
1.11536
1.07126
1.03719
1.00352
0.983043
0.977773
0.989582
1.01081
1.03455
1.05846
1.0808
1.10716
1.1287
1.1356
1.12591
1.09753
1.04383
0.9573
0.835828
0.686125
0.529444
0.384513
0.272042
0.193174
0.136238
0.0965912
0.0807141
0.151339
0.831124
1.04155
1.06419
1.03799
1.01422
0.991168
0.974466
0.974023
0.987435
1.00949
1.03399
1.05801
1.08238
1.11282
1.13776
1.14966
1.14634
1.1276
1.08557
1.01031
0.899861
0.761144
0.601426
0.439693
0.30541
0.21006
0.143083
0.0981444
0.0808394
0.145989
0.783645
0.97348
1.0038
0.995472
0.986605
0.976055
0.965757
0.969193
0.985552
1.00972
1.03483
1.05902
1.08579
1.1179
1.14548
1.16027
1.16087
1.14918
1.11622
1.05201
0.957409
0.832592
0.674467
0.501215
0.345663
0.231142
0.152018
0.100074
0.081198
0.143437
0.710151
0.870522
0.917074
0.940883
0.952299
0.957194
0.955926
0.964389
0.983435
1.00958
1.03642
1.06321
1.09053
1.12281
1.15202
1.16823
1.17024
1.16335
1.13896
1.08877
1.01221
0.900093
0.746611
0.567125
0.392915
0.256889
0.163227
0.102606
0.0820625
0.124997
0.528324
0.675157
0.787281
0.858936
0.909255
0.932931
0.943157
0.958388
0.981062
1.00955
1.03887
1.06994
1.09748
1.12898
1.15656
1.17459
1.17759
1.1757
1.16127
1.12568
1.06337
0.9639
0.819983
0.639729
0.449534
0.290829
0.178767
0.106358
0.0822422
0.078368
0.0978079
0.1273
0.15125
0.171328
0.189358
0.203273
0.217658
0.230675
0.24546
0.260055
0.276769
0.297247
0.32124
0.348839
0.383798
0.43084
0.49224
0.564915
0.639635
0.714345
0.777016
0.825128
0.856601
0.883502
0.888573
0.883394
0.792532
0.55529
0.125924
0.0765457
0.095688
0.123571
0.147224
0.167434
0.184449
0.19961
0.213528
0.22699
0.240916
0.256985
0.274969
0.296687
0.324609
0.358725
0.400284
0.454036
0.520271
0.594754
0.671375
0.742339
0.802577
0.849822
0.874412
0.89848
0.902301
0.900875
0.818651
0.588458
0.120711
0.0756335
0.0937291
0.120564
0.144461
0.164131
0.181246
0.196868
0.21046
0.22436
0.238625
0.254392
0.274745
0.299194
0.330667
0.372289
0.422306
0.483966
0.556345
0.633527
0.709301
0.777318
0.831438
0.872882
0.896564
0.920098
0.923319
0.921569
0.849137
0.650225
0.130429
0.0746565
0.091768
0.117774
0.14232
0.16102
0.178045
0.194223
0.207768
0.221808
0.237164
0.2547
0.277047
0.305594
0.344015
0.392724
0.452611
0.52324
0.601506
0.680309
0.752977
0.81497
0.86185
0.894124
0.916227
0.944434
0.946571
0.943543
0.876655
0.680725
0.139119
0.0741662
0.0904718
0.115855
0.139811
0.158751
0.175705
0.192011
0.206565
0.220767
0.237412
0.257543
0.282809
0.316864
0.361846
0.418656
0.48857
0.567263
0.65167
0.731022
0.801374
0.854885
0.892661
0.917475
0.934026
0.966032
0.971695
0.971492
0.906683
0.705537
0.14349
0.0734976
0.0892345
0.113936
0.137342
0.156663
0.173711
0.189821
0.205712
0.221263
0.239377
0.262876
0.293327
0.334109
0.388249
0.454539
0.534705
0.620455
0.706237
0.784252
0.849144
0.893922
0.922787
0.939203
0.953637
0.984309
0.998106
1.00421
0.940267
0.732916
0.147232
0.0731467
0.0884055
0.112446
0.13546
0.155213
0.172391
0.189192
0.205905
0.223567
0.244771
0.27274
0.309859
0.359218
0.423954
0.500963
0.58942
0.680116
0.764425
0.835662
0.891336
0.927606
0.948773
0.958596
0.969991
1.00084
1.01922
1.03575
0.974399
0.760413
0.151816
0.0727256
0.087556
0.111054
0.133814
0.154233
0.17176
0.189071
0.206873
0.227628
0.253324
0.287642
0.333274
0.392731
0.468052
0.556329
0.650832
0.743082
0.823275
0.885152
0.92937
0.956166
0.971615
0.976887
0.984862
1.01609
1.03956
1.0625
1.00902
0.788584
0.155964
0.0727733
0.0872065
0.110259
0.132871
0.15397
0.172224
0.190378
0.210204
0.234668
0.266402
0.308611
0.365577
0.436775
0.522422
0.619184
0.716631
0.80615
0.878561
0.929518
0.962456
0.979855
0.990706
0.993091
0.998398
1.03101
1.05991
1.08725
1.03972
0.815839
0.16028
0.0728093
0.0869219
0.10969
0.132503
0.153983
0.173513
0.192831
0.215181
0.244061
0.283624
0.336292
0.406223
0.490456
0.585507
0.68645
0.782297
0.864797
0.926292
0.966272
0.988607
0.998389
1.00563
1.0059
1.01061
1.04571
1.07985
1.11158
1.06661
0.838078
0.163396
0.0734133
0.0870739
0.109752
0.132902
0.154913
0.175962
0.197191
0.222929
0.258175
0.307032
0.372115
0.455804
0.553117
0.655444
0.755892
0.845086
0.916221
0.965099
0.994374
1.00724
1.01142
1.01607
1.01354
1.02032
1.0595
1.09893
1.13548
1.09183
0.857139
0.165709
0.073447
0.0871667
0.109935
0.13352
0.156291
0.179032
0.203366
0.233899
0.276896
0.336777
0.416035
0.512689
0.620346
0.726283
0.822205
0.901052
0.95917
0.995551
1.01463
1.01931
1.01951
1.02134
1.01868
1.02831
1.06956
1.11646
1.15818
1.11625
0.875503
0.167704
0.0736948
0.0875905
0.110635
0.134895
0.158656
0.183553
0.212081
0.249997
0.302544
0.375555
0.46987
0.578356
0.691618
0.795921
0.882723
0.948362
0.992942
1.01777
1.02738
1.02551
1.02261
1.0212
1.02157
1.03453
1.07626
1.12984
1.17675
1.13839
0.891893
0.169572
0.0743522
0.0880208
0.111443
0.136866
0.162568
0.190215
0.224091
0.271216
0.336715
0.424145
0.532581
0.649572
0.762642
0.859973
0.934948
0.987009
1.01876
1.03293
1.03378
1.02688
1.01998
1.01692
1.022
1.0385
1.07962
1.13838
1.19026
1.15491
0.90637
0.170405
0.0754782
0.0889027
0.112995
0.139931
0.168483
0.200113
0.24151
0.300013
0.380846
0.4852
0.604474
0.72418
0.832013
0.918329
0.980003
1.01764
1.03729
1.04288
1.03716
1.02623
1.01369
1.00934
1.02092
1.03928
1.08025
1.14184
1.19796
1.16466
0.918476
0.170047
0.0764179
0.0900272
0.11519
0.144004
0.175583
0.213002
0.264492
0.336565
0.435013
0.554231
0.680283
0.798141
0.896647
0.969866
1.01686
1.04106
1.05046
1.0488
1.03833
1.02347
1.00756
1.00368
1.01558
1.03779
1.07879
1.14097
1.19816
1.17214
0.924769
0.169193
0.077489
0.0912063
0.117857
0.149392
0.185004
0.230031
0.293272
0.381803
0.498011
0.628998
0.757155
0.869085
0.955771
1.01391
1.04629
1.0596
1.05938
1.05208
1.03802
1.01879
1.0028
0.997289
1.00806
1.03322
1.07544
1.13537
1.19356
1.17324
0.925674
0.167821
0.0780795
0.0920025
0.120518
0.15561
0.196883
0.251387
0.32877
0.43582
0.568035
0.706168
0.831862
0.934302
1.00726
1.0507
1.07145
1.07363
1.06497
1.05382
1.03595
1.01474
0.997787
0.991529
1.00116
1.02568
1.06971
1.12414
1.18553
1.16699
0.918493
0.165902
0.0788227
0.0930469
0.123731
0.162879
0.211461
0.278149
0.372865
0.498835
0.643396
0.783391
0.90247
0.992023
1.05057
1.08229
1.09186
1.08456
1.06852
1.05452
1.03262
1.0116
0.993872
0.985797
0.994266
1.01629
1.06024
1.11013
1.16952
1.15112
0.906602
0.163105
0.0798421
0.0947343
0.127677
0.171955
0.229627
0.31127
0.426147
0.569153
0.720413
0.857331
0.966069
1.04133
1.08626
1.10748
1.10804
1.09316
1.07106
1.05386
1.03066
1.00869
0.989782
0.980434
0.987719
1.00604
1.04629
1.09155
1.14509
1.125
0.890345
0.16028
0.0807537
0.0964005
0.132686
0.183772
0.252997
0.352924
0.488934
0.643739
0.796428
0.925873
1.02165
1.08251
1.11489
1.12728
1.12093
1.10032
1.07349
1.05291
1.02894
1.00692
0.986644
0.975466
0.979879
0.994586
1.02839
1.06636
1.11268
1.08983
0.864102
0.156263
0.0809405
0.0977721
0.138994
0.198615
0.282108
0.402806
0.557286
0.718972
0.864316
0.98315
1.06649
1.11436
1.13644
1.14236
1.13133
1.10674
1.07588
1.05185
1.0277
1.00484
0.983778
0.972021
0.972395
0.981238
1.00582
1.03347
1.06223
1.04266
0.83406
0.152767
0.0813206
0.0996667
0.146552
0.216751
0.317184
0.459894
0.629125
0.792189
0.926877
1.03151
1.10177
1.13774
1.15182
1.1537
1.1402
1.1126
1.07935
1.05208
1.02769
1.00381
0.981893
0.967875
0.963948
0.965882
0.978384
0.991364
1.00241
0.974925
0.787087
0.147265
0.0816499
0.101724
0.155891
0.238825
0.358905
0.522718
0.701987
0.862223
0.985916
1.07332
1.12926
1.15529
1.1631
1.16272
1.1482
1.11795
1.08359
1.05444
1.02955
1.00467
0.980771
0.962235
0.952315
0.94757
0.944506
0.93691
0.916321
0.872839
0.713337
0.14459
0.0822929
0.104973
0.168431
0.267825
0.410481
0.592996
0.777957
0.929884
1.04066
1.11227
1.15419
1.17051
1.17279
1.1711
1.1548
1.12443
1.08993
1.06022
1.03321
1.00593
0.97877
0.955401
0.938191
0.923582
0.902307
0.859061
0.788138
0.678968
0.528412
0.126271
0.533113
0.527371
0.534739
0.534634
0.53765
0.539482
0.541747
0.544169
0.546724
0.549637
0.552789
0.556241
0.559921
0.563795
0.567823
0.571971
0.576222
0.58056
0.585114
0.589585
0.593774
0.597553
0.601052
0.604504
0.607807
0.610789
0.613418
0.615703
0.617665
0.619295
0.620573
0.621482
0.621997
0.62209
0.621743
0.620937
0.619652
0.617875
0.615623
0.612871
0.60957
0.605627
0.601294
0.597078
0.591818
0.586475
0.580567
0.574096
0.567081
0.559429
0.551345
0.542939
0.534113
0.524862
0.515177
0.505237
0.495024
0.484503
0.473651
0.462475
0.451053
0.439391
0.42749
0.41537
0.403081
0.390664
0.37815
0.365593
0.353108
0.340982
0.329189
0.317741
0.306698
0.296046
0.285836
0.276098
0.266794
0.258097
0.249874
0.24213
0.235226
0.228658
0.222629
0.217366
0.212136
0.207734
0.204657
0.201828
0.198956
0.196399
0.193973
0.191764
0.1894
0.186831
0.184026
0.180832
0.177161
0.173044
0.168426
0.16321
0.157467
0.151368
0.144751
0.137894
0.130923
0.124269
0.117896
0.11182
0.106249
0.101068
0.0965678
0.0928907
0.0900103
0.0878708
0.0864732
0.0853927
0.0846346
0.0844427
0.0841777
0.0839212
0.0836924
0.0835388
0.0834108
0.0830629
0.0826207
4.62474
4.56049
4.56243
4.5755
4.59536
4.6161
4.63944
4.66488
4.69262
4.72296
4.75568
4.79063
4.82741
4.86544
4.90401
4.94232
4.9794
5.01423
5.0459
5.076
5.10583
5.13098
5.15282
5.17257
5.19193
5.20969
5.22579
5.23993
5.25188
5.26142
5.26825
5.27208
5.27261
5.26959
5.26286
5.25231
5.23783
5.21932
5.19667
5.16978
5.13818
5.10173
5.0604
5.01315
4.96062
4.9035
4.84223
4.77718
4.70967
4.63952
4.56093
4.48348
4.40293
4.32019
4.23499
4.14744
4.05761
3.96539
3.8707
3.77336
3.6743
3.57328
3.47028
3.36547
3.25925
3.15192
3.04355
2.9339
2.82156
2.70341
2.58234
2.46385
2.34892
2.23716
2.12891
2.02466
1.92503
1.83023
1.74014
1.65469
1.5743
1.49853
1.42767
1.36352
1.30697
1.25682
1.21171
1.17009
1.13288
1.1001
1.07192
1.04822
1.02781
1.01022
0.995009
0.981326
0.968379
0.955289
0.941343
0.925228
0.906559
0.884131
0.857158
0.825588
0.788654
0.748032
0.703277
0.653931
0.601417
0.545954
0.489528
0.434347
0.381887
0.33315
0.288958
0.250765
0.21829
0.190582
0.167938
0.150064
0.136896
0.127332
0.120229
0.11422
0.109289
7.51692
7.44282
7.44537
7.47
7.50242
7.53861
7.57809
7.62043
7.66521
7.71278
7.76254
7.8138
7.86582
7.91755
7.96784
8.01553
8.05949
8.09876
8.13327
8.16669
8.19438
8.21489
8.23114
8.24527
8.25895
8.26723
8.27254
8.27484
8.27363
8.26841
8.25871
8.2441
8.22426
8.19903
8.16834
8.13215
8.09043
8.04306
7.98992
7.93092
7.86589
7.79431
7.71656
7.63216
7.54124
7.44443
7.34224
7.23523
7.12424
7.00946
6.89031
6.76743
6.64182
6.51433
6.37885
6.24181
6.10482
5.96484
5.82233
5.67689
5.52893
5.37791
5.22426
5.06828
4.91062
4.75184
4.59203
4.43133
4.26977
4.10747
3.94478
3.78013
3.61619
3.45786
3.30619
3.15904
3.01609
2.87843
2.74678
2.62201
2.50427
2.39352
2.29011
2.19417
2.10543
2.02387
1.94921
1.88008
1.81613
1.7572
1.70343
1.65456
1.60851
1.56561
1.52665
1.49015
1.45521
1.42118
1.38764
1.35363
1.31882
1.28224
1.24361
1.20301
1.15976
1.11511
1.06905
1.02003
0.970222
0.915917
0.858285
0.798408
0.736647
0.672913
0.608185
0.544281
0.48442
0.426746
0.374313
0.327682
0.287907
0.255718
0.228406
0.204446
0.184551
9.21522
9.13032
9.13145
9.15984
9.19696
9.23967
9.28638
9.33614
9.38838
9.44273
9.49834
9.55388
9.60871
9.66139
9.71064
9.75529
9.79433
9.82732
9.85522
9.87995
9.89417
9.90077
9.90305
9.90341
9.90325
9.89627
9.88582
9.87172
9.85342
9.83027
9.8017
9.7673
9.72689
9.68046
9.62811
9.56991
9.50584
9.43578
9.35961
9.2772
9.18858
9.09327
8.99111
8.88234
8.7672
8.64611
8.51957
8.38819
8.25259
8.11308
7.97002
7.82405
7.67569
7.52534
7.37235
7.21636
7.05784
6.89751
6.73604
6.55847
6.39085
6.22051
6.04811
5.87416
5.6981
5.51993
5.34002
5.15905
4.97781
4.7976
4.61875
4.44162
4.26629
4.09102
3.91772
3.75125
3.59465
3.44456
3.3005
3.16211
3.03003
2.90478
2.7867
2.6763
2.57328
2.47723
2.38803
2.3054
2.22867
2.15673
2.08918
2.02545
1.96465
1.90673
1.85164
1.79918
1.74909
1.69987
1.6528
1.60699
1.56195
1.51725
1.47254
1.428
1.38336
1.33939
1.29605
1.25172
1.20809
1.16185
1.11305
1.06274
1.01031
0.954399
0.895356
0.834369
0.770328
0.702931
0.63462
0.567311
0.504363
0.448405
0.395797
0.346394
0.302842
10.2201
10.1324
10.1268
10.1544
10.1906
10.233
10.2798
10.3295
10.3812
10.434
10.4869
10.5385
10.5877
10.6331
10.6736
10.7081
10.7359
10.7576
10.7747