/*--------------------------------*- C++ -*----------------------------------*\
| =========                 |                                                 |
| \\      /  F ield         | OpenFOAM: The Open Source CFD Toolbox           |
|  \\    /   O peration     | Version:  2112                                  |
|   \\  /    A nd           | Website:  www.openfoam.com                      |
|    \\/     M anipulation  |                                                 |
\*---------------------------------------------------------------------------*/
FoamFile
{
    version     2.0;
    format      ascii;
    arch        "LSB;label=32;scalar=64";
    class       volScalarField;
    location    "0.01";
    object      p;
}
// * * * * * * * * * * * * * * * * * * * * * * * * * * * * * * * * * * * * * //

dimensions      [1 -1 -2 0 0 0 0];

internalField   nonuniform List<scalar> 
13875
(
951598
984297
973568
975949
973670
974678
974891
974692
974987
975135
975112
975028
974728
974808
974831
974695
974630
975334
975176
973971
973383
975645
972326
982454
945256
733799
659571
672185
677299
669443
671234
677304
678859
679082
679126
679152
678549
670353
669186
670409
678025
679293
679308
677538
669949
669575
676913
672244
657204
730865
736888
635520
664288
653687
649336
648205
648521
649123
648446
646598
646624
649045
645420
645318
645244
648901
646251
648254
647923
647639
648543
652165
661956
632144
733615
743532
636163
665170
653847
649642
648366
647448
645969
644619
643720
643149
644359
645453
645420
645274
644558
643525
644640
646119
647788
648825
652290
662705
632751
739307
757363
639169
667722
654553
650500
648832
647585
646028
644670
643811
643198
644388
645573
645686
645395
644589
643623
644721
646240
648221
649606
652884
664992
635393
750500
759039
647823
673485
656519
652293
649818
647998
646245
644863
644075
643379
644505
645824
646219
645656
644717
643907
644987
646641
649147
651278
654755
670572
643125
751876
765037
668324
685704
661417
655924
651847
648904
646779
645333
644618
643871
644861
646367
646792
646159
645022
644535
645693
647720
651201
654912
660356
682095
665819
755937
791199
718338
711607
674723
663642
656131
651058
648140
646497
645782
644976
645653
647429
647947
647224
645833
645818
647182
649965
655312
662283
673142
707080
715319
781808
908577
827859
766434
704300
679046
664527
655648
651137
649033
648171
647290
647483
649591
650278
649429
647810
648434
650305
654581
663387
676931
700891
760197
823120
909578
1.52384e+06
1.02934e+06
833416
739160
697271
674602
662219
656333
653847
652762
651855
651573
653937
654857
653981
652316
653393
655848
661577
673905
695740
736796
829384
1.02525e+06
1.51708e+06
2.90462e+06
1.39241e+06
957035
796018
725303
690900
674401
666709
663340
661757
660683
659984
662256
663537
662956
661735
663012
666249
673662
689621
722289
789338
941075
1.35122e+06
2.86045e+06
5.60191e+06
2.34333e+06
1.28637e+06
936026
788964
727525
700993
688834
683129
680354
678729
677805
679430
681086
681254
681438
683381
688671
700724
727075
786934
925940
1.25231e+06
2.27433e+06
5.57414e+06
5.38714e+06
4.83591e+06
2.3118e+06
1.40058e+06
979311
828167
766762
741014
728961
723127
720247
719023
719381
721180
722744
725481
730756
742479
769248
834802
990123
1.3871e+06
2.18278e+06
4.87541e+06
5.34289e+06
4.83633e+06
4.64428e+06
4.71066e+06
3.9932e+06
1.64141e+06
1.13856e+06
955780
885164
852846
837337
830361
827404
826244
827984
832007
840437
857862
894206
975769
1.20189e+06
1.83525e+06
4.03235e+06
4.68886e+06
4.71778e+06
4.76352e+06
4.02512e+06
4.12485e+06
4.4974e+06
4.26064e+06
4.01216e+06
2.52586e+06
1.66426e+06
1.37637e+06
1.26366e+06
1.21591e+06
1.19662e+06
1.18884e+06
1.18602e+06
1.1878e+06
1.19529e+06
1.21526e+06
1.26445e+06
1.38371e+06
1.69439e+06
2.68752e+06
4.11547e+06
4.24515e+06
4.51132e+06
4.28585e+06
4.26767e+06
3.52951e+06
3.4585e+06
3.92849e+06
4.06277e+06
4.27478e+06
4.34415e+06
3.69911e+06
3.05702e+06
2.84868e+06
2.68124e+06
2.57496e+06
2.5341e+06
2.51867e+06
2.52367e+06
2.5528e+06
2.63552e+06
2.84524e+06
3.04355e+06
3.75516e+06
4.39008e+06
4.23734e+06
4.07931e+06
4.054e+06
3.57164e+06
3.7487e+06
2.54844e+06
2.69178e+06
3.06306e+06
3.50325e+06
4.20955e+06
5.14207e+06
6.79402e+06
7.60644e+06
7.96269e+06
8.06443e+06
8.12751e+06
8.13654e+06
8.14814e+06
8.13636e+06
8.13417e+06
8.07661e+06
7.97824e+06
7.67334e+06
6.80727e+06
5.10287e+06
4.19989e+06
3.56084e+06
3.15021e+06
2.81773e+06
2.7043e+06
1.43363e+06
1.72104e+06
2.31653e+06
3.00544e+06
4.17793e+06
5.5875e+06
6.77657e+06
7.42284e+06
7.66647e+06
7.64047e+06
7.56193e+06
7.49661e+06
7.4788e+06
7.49416e+06
7.56191e+06
7.66278e+06
7.72287e+06
7.48587e+06
6.80643e+06
5.57619e+06
4.11715e+06
2.93423e+06
2.19319e+06
1.62247e+06
1.34509e+06
695149
1.02822e+06
1.70913e+06
2.61459e+06
4.08974e+06
5.15173e+06
5.83179e+06
6.33594e+06
6.50386e+06
6.4782e+06
6.43716e+06
6.45152e+06
6.47238e+06
6.47256e+06
6.46165e+06
6.5228e+06
6.59695e+06
6.47612e+06
6.05355e+06
5.39501e+06
4.11901e+06
2.67372e+06
1.72819e+06
1.04256e+06
704958
384442
619917
1.14156e+06
2.21755e+06
3.637e+06
4.34646e+06
4.68006e+06
5.01774e+06
5.23915e+06
5.39538e+06
5.54146e+06
5.65541e+06
5.69537e+06
5.66935e+06
5.56036e+06
5.40437e+06
5.23609e+06
5.01497e+06
4.73754e+06
4.4343e+06
3.67119e+06
2.20135e+06
1.13346e+06
608298
374612
960277
983367
1.17469e+06
1.89406e+06
2.89337e+06
3.38139e+06
3.71563e+06
4.10432e+06
4.42499e+06
4.65644e+06
4.83292e+06
4.94016e+06
4.96522e+06
4.94232e+06
4.83042e+06
4.63332e+06
4.36712e+06
4.02909e+06
3.6817e+06
3.40711e+06
2.8771e+06
1.86074e+06
1.14764e+06
971502
961453
1.01729e+06
980368
1.15907e+06
1.60706e+06
2.16884e+06
2.6155e+06
3.02167e+06
3.45742e+06
3.79313e+06
4.02963e+06
4.19881e+06
4.28808e+06
4.30359e+06
4.28226e+06
4.18595e+06
3.99671e+06
3.72755e+06
3.37208e+06
2.93607e+06
2.60535e+06
2.12895e+06
1.5608e+06
1.12428e+06
947329
987460
1.12588e+06
1.01956e+06
1.13287e+06
1.34428e+06
1.69186e+06
2.0812e+06
2.52645e+06
2.95623e+06
3.26281e+06
3.48216e+06
3.62799e+06
3.70185e+06
3.71595e+06
3.69203e+06
3.60697e+06
3.44149e+06
3.19963e+06
2.89281e+06
2.42132e+06
2.0591e+06
1.65484e+06
1.30979e+06
1.10266e+06
1.00818e+06
1.14041e+06
1.319e+06
1.15068e+06
1.13549e+06
1.19037e+06
1.43951e+06
1.77553e+06
2.13335e+06
2.52998e+06
2.80142e+06
3.00342e+06
3.12619e+06
3.1914e+06
3.2057e+06
3.1807e+06
3.1052e+06
2.96173e+06
2.74416e+06
2.47316e+06
2.05954e+06
1.73632e+06
1.39456e+06
1.15275e+06
1.10928e+06
1.15819e+06
1.30913e+06
1.37411e+06
1.2804e+06
1.14337e+06
1.13059e+06
1.29409e+06
1.55548e+06
1.83727e+06
2.16701e+06
2.40074e+06
2.58098e+06
2.69593e+06
2.75466e+06
2.76865e+06
2.74538e+06
2.6784e+06
2.55139e+06
2.35682e+06
2.12244e+06
1.78814e+06
1.51379e+06
1.24613e+06
1.10787e+06
1.12172e+06
1.28456e+06
1.36395e+06
1.43162e+06
1.38159e+06
1.15971e+06
1.13098e+06
1.20338e+06
1.3956e+06
1.60665e+06
1.87499e+06
2.07194e+06
2.22847e+06
2.33165e+06
2.3826e+06
2.39531e+06
2.3746e+06
2.31659e+06
2.20251e+06
2.03385e+06
1.83624e+06
1.57443e+06
1.36795e+06
1.16548e+06
1.10821e+06
1.13733e+06
1.37055e+06
1.41089e+06
1.4762e+06
1.41388e+06
1.17851e+06
1.13097e+06
1.1493e+06
1.27082e+06
1.42755e+06
1.63602e+06
1.79838e+06
1.93078e+06
2.02145e+06
2.06635e+06
2.07912e+06
2.05985e+06
2.00718e+06
1.90888e+06
1.76522e+06
1.6033e+06
1.397e+06
1.24354e+06
1.11895e+06
1.1083e+06
1.16396e+06
1.40741e+06
1.4527e+06
1.56422e+06
1.48807e+06
1.21267e+06
1.12754e+06
1.10904e+06
1.17411e+06
1.27946e+06
1.43953e+06
1.56919e+06
1.68098e+06
1.75814e+06
1.79752e+06
1.81124e+06
1.79439e+06
1.75156e+06
1.66967e+06
1.54992e+06
1.41667e+06
1.25893e+06
1.15422e+06
1.08784e+06
1.10679e+06
1.20133e+06
1.4809e+06
1.53936e+06
1.67292e+06
1.60441e+06
1.25505e+06
1.11632e+06
1.08006e+06
1.09747e+06
1.16017e+06
1.27986e+06
1.38459e+06
1.47541e+06
1.53853e+06
1.5739e+06
1.58507e+06
1.56989e+06
1.52974e+06
1.46292e+06
1.36552e+06
1.26133e+06
1.14482e+06
1.084e+06
1.06345e+06
1.09677e+06
1.2287e+06
1.54014e+06
1.58377e+06
1.72995e+06
1.71457e+06
1.30064e+06
1.10923e+06
1.04866e+06
1.04458e+06
1.0665e+06
1.14993e+06
1.22913e+06
1.3031e+06
1.35442e+06
1.38284e+06
1.39342e+06
1.37873e+06
1.34658e+06
1.29299e+06
1.21479e+06
1.13262e+06
1.04954e+06
1.02717e+06
1.03236e+06
1.08853e+06
1.27004e+06
1.63525e+06
1.66475e+06
1.73263e+06
1.72503e+06
1.33931e+06
1.10654e+06
1.01576e+06
993103
991876
1.03952e+06
1.09872e+06
1.15663e+06
1.19762e+06
1.22312e+06
1.23088e+06
1.22059e+06
1.19229e+06
1.14967e+06
1.08945e+06
1.02984e+06
979677
980980
1.001e+06
1.08239e+06
1.30126e+06
1.67354e+06
1.71069e+06
1.74126e+06
1.72469e+06
1.4104e+06
1.10719e+06
980018
938180
929610
954780
994653
1.03806e+06
1.06877e+06
1.08652e+06
1.09332e+06
1.08482e+06
1.06373e+06
1.03053e+06
985583
944174
919033
925857
964882
1.08244e+06
1.35488e+06
1.68016e+06
1.71284e+06
1.75333e+06
1.71353e+06
1.46928e+06
1.1093e+06
953588
892677
879088
880336
905315
936389
959065
973567
977733
971916
954012
930041
898227
872244
868689
881291
935894
1.08447e+06
1.41595e+06
1.67889e+06
1.71596e+06
1.75266e+06
1.69607e+06
1.54364e+06
1.11853e+06
928419
849849
823588
818600
828018
849689
865719
875550
879282
874637
863000
846991
824783
812111
816565
838322
912032
1.09146e+06
1.51116e+06
1.66749e+06
1.725e+06
1.75104e+06
1.66828e+06
1.55064e+06
1.14071e+06
918126
819065
778741
765445
764763
775197
786280
794661
796652
793621
783160
771770
761076
761086
771266
806104
898908
1.10785e+06
1.54857e+06
1.66364e+06
1.73407e+06
1.7447e+06
1.64134e+06
1.54499e+06
1.16154e+06
918789
788231
733951
715323
709689
713333
719091
723629
725148
722446
715908
711517
706976
711044
728388
778921
899737
1.14238e+06
1.54998e+06
1.65599e+06
1.7324e+06
1.73207e+06
1.61529e+06
1.53769e+06
1.20673e+06
925407
768957
700735
671019
661032
658256
660608
664633
664920
663386
657840
656247
659355
669110
696001
758762
903420
1.18662e+06
1.53664e+06
1.63771e+06
1.72377e+06
1.70695e+06
1.58574e+06
1.52387e+06
1.29621e+06
943140
754208
669009
632150
617193
612472
611024
612117
612023
611422
609116
610881
615320
627968
663016
743159
915690
1.2757e+06
1.51266e+06
1.60125e+06
1.70252e+06
1.67355e+06
1.56553e+06
1.48631e+06
1.34211e+06
962027
754648
647946
599584
579256
570104
567912
568464
567380
568238
565431
567637
577277
596653
641418
743824
944466
1.33002e+06
1.46669e+06
1.55774e+06
1.65769e+06
1.6164e+06
1.541e+06
1.42169e+06
1.3407e+06
1.00325e+06
760495
629154
570849
545503
534954
530261
528864
528077
528711
529269
533868
543785
566789
622784
747203
981363
1.32831e+06
1.39809e+06
1.51765e+06
1.61845e+06
1.56064e+06
1.50843e+06
1.36438e+06
1.33636e+06
1.08502e+06
775805
629183
551834
518469
502343
497159
496614
494107
495958
495822
500218
515688
547466
622825
758006
1.05041e+06
1.32311e+06
1.34558e+06
1.48763e+06
1.56758e+06
1.52073e+06
1.47374e+06
1.31367e+06
1.31806e+06
1.18092e+06
794543
631254
538834
495195
476857
468751
465566
464046
465303
468080
475789
492631
532672
626845
784752
1.19338e+06
1.31131e+06
1.3021e+06
1.45469e+06
1.5032e+06
1.47665e+06
1.44047e+06
1.28132e+06
1.28044e+06
1.17985e+06
834822
640546
539061
480399
452972
443423
440995
437749
440377
442333
451336
477514
530465
633143
820997
1.19148e+06
1.28299e+06
1.27359e+06
1.4259e+06
1.46151e+06
1.42979e+06
1.39567e+06
1.25277e+06
1.21903e+06
1.17216e+06
915529
661174
541555
471231
436706
422519
416741
414365
416487
421868
434845
466686
531835
649363
893058
1.18169e+06
1.22639e+06
1.25092e+06
1.39227e+06
1.41539e+06
1.39704e+06
1.3554e+06
1.23091e+06
1.16227e+06
1.14661e+06
1.03015e+06
693359
545994
471442
424786
404701
398154
394074
397790
402362
420444
466983
539263
686466
1.04183e+06
1.15981e+06
1.17217e+06
1.23388e+06
1.34608e+06
1.37505e+06
1.35752e+06
1.31877e+06
1.21184e+06
1.11863e+06
1.09515e+06
1.02712e+06
761887
561129
474193
421965
393535
381031
376972
380654
391934
415928
468491
553170
751456
1.03881e+06
1.11141e+06
1.12486e+06
1.21381e+06
1.30501e+06
1.34707e+06
1.31156e+06
1.27429e+06
1.19316e+06
1.08288e+06
1.04306e+06
1.01673e+06
901583
593490
481561
422654
387980
372108
364185
371012
385368
416216
473813
581691
883446
1.02582e+06
1.05527e+06
1.0862e+06
1.19232e+06
1.27027e+06
1.31201e+06
1.26552e+06
1.23542e+06
1.16966e+06
1.05758e+06
997367
989703
900406
651747
494428
424499
388166
367471
353212
365965
385633
419022
488422
643441
897587
996743
1.00721e+06
1.05858e+06
1.16625e+06
1.23101e+06
1.26046e+06
1.17302e+06
1.17948e+06
1.13797e+06
1.03779e+06
961416
940057
894102
773403
521518
432329
389851
367719
353336
366144
386750
426376
515520
764943
892834
943345
966061
1.03663e+06
1.13756e+06
1.17492e+06
1.16951e+06
1.03708e+06
1.10164e+06
1.08082e+06
1.01482e+06
932834
892728
874896
794798
577255
451790
395534
369230
354490
367368
391352
444553
570561
798400
875482
888886
930618
1.01106e+06
1.08146e+06
1.09803e+06
1.03758e+06
102710
107249
106678
108018
107033
107085
106124
105470
104870
104583
104506
104671
104731
104787
104755
104114
102888
101574
100127
97684.2
96050
95064.1
94257.6
93290.6
92029.9
90876.3
89965.3
89386.9
88825.6
87935.4
102386
108149
106719
108139
107131
107381
106619
105726
104871
104457
104336
104640
104766
104784
104240
103403
101884
100664
99079.9
97468.7
95716.2
94797.1
94332
93092.7
91982
90888.7
89970.6
89413
88725.8
87914.2
103281
109293
107312
108554
108008
108359
107316
105833
104876
104442
104317
104532
104761
104500
103611
102478
101482
100112
98216.8
97185.3
95768.3
94811.4
94055
93162.9
92038
90983.7
89962.4
89352.5
88626.1
88150.9
105853
110357
108387
109420
109383
109751
107683
105871
104807
104512
104335
104289
104170
103996
103045
102045
101021
99579.7
98010.7
96815.6
95853.3
94975.7
93858.4
93071.5
92034.8
91008.4
89997.9
89312.4
88758.7
88356.9
108258
111507
109676
110654
110686
110537
107857
105929
104631
104016
103717
103596
103447
102997
102232
101056
100046
98689.9
97438.3
96224.2
95549.2
94906.6
93869.8
92935.2
91980.2
90995.8
90000.7
89308.7
88863.4
88515.5
110387
112652
111090
112201
111752
110887
107895
105854
104568
103714
103188
102931
102777
102055
101069
100140
99229.8
97836.7
96742.3
95932.7
95315.1
94681.3
93798.6
92904.4
91963.1
90983.2
90065.6
89339.1
88929.4
89124.5
112207
113772
112531
113497
112243
111019
107899
105796
104398
103336
102591
102226
101950
101218
100336
99444.1
98486.1
97310.5
96432.6
95826.1
95308.2
94698.6
93818.1
92890.8
91958.8
91072.2
90207
89456.3
89129.1
89385
114008
114968
113888
114143
112454
111069
107912
105801
104226
102983
102168
101775
101348
100546
99757.1
98887.1
97915.5
97066.1
96303.6
95797.8
95290.1
94645
93841.8
92893.5
91963.9
91191.7
90409.9
89713.6
89551
89608.9
115564
116085
114656
114432
112544
111095
107807
105548
103909
102628
101683
101215
100697
99989.4
99257.7
98474.4
97623.9
96965.5
96264.1
95795.6
95294.2
94551.4
93832.4
92930.5
92161.8
91557.5
90809.7
90311.9
90147.2
90016.9
116863
116643
115022
114552
112586
111093
107601
105269
103489
102134
101064
100529
99995.6
99453.7
98784.6
98080
97462.3
96925.9
96251.3
95599.8
95106.4
94525
93833
93107.7
92620.8
92102.8
91438.7
91096.8
90884.2
90587.2
117775
116852
115175
114596
112590
110853
107313
104775
102932
101415
100255
99681.3
99185.5
98763.1
98214.4
97697.8
97248.1
96827.9
96141
95344.6
94964.7
94515.8
94011.3
93553.6
93283.5
92806.2
92301.4
92063.5
91833
91479.7
118222
116914
115223
114564
112378
110324
106879
104189
102191
100522
99273.1
98658.8
98217.3
97916.8
97541.1
97245.5
96865.3
96473
95894.9
95310.7
94913.1
94511.1
94163.6
93993.3
93832.3
93389.4
93098.4
92893.6
92744
92567
118371
116592
115048
114185
111826
109534
106185
103550
101235
99415.1
98133.8
97507.9
97139.8
96949.5
96766.3
96678.5
96478.9
96171.7
95697.3
95294.3
94901.3
94529.2
94395.7
94335.9
94221.4
93978.4
93941.6
93849.9
93920.1
93908.6
118380
116026
114515
113472
110921
108474
105239
102873
99934
97989.1
96874.3
96346.5
96110.7
96026.2
96015.8
96068
96041.2
95883.1
95573.6
95315.2
94968.9
94831.5
94866.8
94632.6
94575.6
94634.6
94752.6
94856.2
95628.1
95824.7
117392
115251
113510
112420
109686
107215
104162
101678
98390.7
96576.5
95677.9
95269.9
95104.7
95052.6
95181.6
95480
95612.1
95650.3
95504.8
95336.9
95275.3
95282
95345.1
95349.1
95279.8
95367.4
95658
96055.7
96936.9
97259.8
116355
114036
112500
110890
108214
105799
102873
99947.7
96924.1
95300.7
94516.1
94181.9
94050.2
94010.1
94236.8
94832.9
95167.7
95312.5
95355.9
95347.6
95406.5
95456.8
95639.5
95914.7
96045.7
96325.5
97215.2
97538.8
97782.3
98136.9
114861
112453
111111
109161
106518
104284
101318
98024.8
95498.2
94030
93381.4
93084.4
92976
92947.8
93345.4
94038.3
94600.2
95032.8
95238.8
95357.3
95468.7
95583.7
95755.7
96180.8
96785.9
97517.8
98396
99015.7
98904
99212
113170
110591
109456
107394
104550
102684
99502.4
96226.1
94048.9
92789.5
92219
91971.2
91888.1
91869
92453.8
93342.3
93930
94586.4
95003.2
95339.9
95494.4
95638.7
95797.2
96301.3
97146
98277.1
99036.3
99613.4
100104
100374
110664
108460
107175
105346
102584
100893
97572.4
94534.5
92603.6
91576.9
91055.6
90864.6
90796
90786.2
91574.9
92640.8
93342.7
94037.3
94629.1
95218.1
95501.3
95660.9
95815.5
96375.2
97318.6
98561.3
99585.7
100220
101064
101407
108511
106232
104872
103066
100578
98902
95688.9
92975.5
91126.5
90280.3
89911.3
89743.9
89687.1
89692
90679.5
91893.4
92697.2
93415.4
94157.8
94975.3
95439.1
95665.5
95818.2
96439.6
97459.1
98655.8
99699.6
100611
101534
101981
105357
103487
102427
100839
98449
96838
93893.1
91420.6
89763.2
88991.2
88661.1
88541.1
88502.1
88634.8
89738.5
91062.4
91985.8
92719.1
93596.1
94530.1
95188.3
95553.7
95687.1
96458.4
97519.9
98695.5
99751.7
100875
102166
102259
102741
100856
99984.9
98076.8
96323.6
94742
92184.7
89754.5
88428
87742.6
87439.7
87345
87315
87578.1
88774.5
90143.1
91146.2
91890.2
92860.8
93870.4
94430.1
94744.1
95478.2
96459.2
97546
98706.6
99763.5
101002
102310
102441
98632.1
97673.4
97327
95953
94243.8
92746.2
90516.3
88215.3
87011.7
86485.3
86297.3
86206.4
86155.9
86535.6
87807.7
89153.7
90148
90848.8
91844.6
92852
93398.7
94108.5
95384.7
96455.6
97550.4
98677.6
99761.4
101124
102221
102743
96181.3
94913
95137.2
93797
92383
90860.4
88931
86805.2
85698.5
85224.3
85094.5
85062.3
85154.5
85557.3
86783.1
88099.6
88993.2
89591.9
90560.9
91631.4
92497.4
93799.8
95357.5
96472.3
97544.9
98667.5
99748.3
101201
102269
103780
87339.1
91554.1
92815.8
92186.1
90431.1
89278.1
87488.2
85495.4
84465.1
84015.5
83905.6
83940.7
84278.2
84611.6
85682.4
86933.4
87723.4
88287.9
89351.9
90693.1
92028
93649.5
95355.5
96765.5
98013.1
99215.1
100624
102261
102959
104132
86285.9
86805.2
87831.4
88240.8
89314.9
90959.7
91605.6
92946.9
93998.1
95925.9
97627.6
99376.8
101354
103261
104170
104187
104032
103728
103299
102520
102498
102581
103224
104055
105674
105686
106738
105477
106155
101800
86252.4
87421
87894.7
88315.3
89440.2
90589.7
91830.2
92917.7
94037.6
95355.7
97183.1
98776.9
100349
102144
103499
103684
103641
103383
102921
102616
102545
102876
103950
104378
105860
105784
106859
105553
107105
101517
86484.5
87430.6
87843.5
88607.7
89402
90581.2
91988
92865.8
94027.2
95153.7
96266.6
97974.3
99434.9
100779
102423
102910
103047
102965
102715
102485
102570
103069
104268
105052
106748
106572
107256
106168
108351
102540
86789.7
87465.6
87923.1
89260.6
89440
90501.2
92087.5
92786.8
93743
94849.2
95796.3
97066
98422.1
100035
101357
102118
102497
102590
102512
102340
102544
103182
104423
105717
108287
107900
108054
107214
109495
105197
87155.8
87585.4
88104.5
89190.4
89511.5
90435.5
91912.9
92832.6
93473.4
94427.4
95283.8
96059.2
97317.2
98670.1
99745.3
100696
101221
101718
101862
102158
102520
103291
104494
106117
109408
109216
109248
108444
110689
107726
87526.6
87781.9
88330.2
89194
89711.8
90529.8
91651.4
92826.2
93510.2
94126.7
94845.4
95508.3
96486.7
97792.8
98713.7
99810.7
100471
100964
101450
101984
102458
103344
104506
106278
109945
110600
110732
109792
111850
109938
87861.8
88040.2
88529.1
89295.3
89967
90611.6
91730.9
92711.7
93477.3
94023.2
94611.2
95245.8
96081.5
97284.4
98191.3
99232
100003
100512
100953
101462
102167
103271
104465
106315
110154
111262
112152
111181
112928
111910
88355.5
88390.4
88815.7
89413.7
90363.8
90880.4
91778.4
92541
93441.1
93978.3
94493.1
95144.7
95898.7
96821.5
97860.4
98772
99599.9
100198
100553
100969
101765
103175
104432
106326
110232
111575
112909
112532
114038
113836
89028.7
88944.5
89230.5
89649.7
90780.1
91207.1
91884.2
92586.3
93409.2
93959.7
94306.4
95117.6
95830.7
96531.3
97522.3
98391.5
99221.6
99781.3
100086
100515
101357
103019
104414
106329
110272
111724
113261
113404
115076
115562
89780.8
89652.4
89804.5
90167.8
91130.2
91631.4
92048.5
92608.4
93171.2
93840
94304.2
95112.9
95810.3
96365.5
97126.5
97933.1
98681.4
99103.7
99436.9
99927.6
100897
102739
104288
106284
110296
111789
113409
113831
115616
117093
90944.4
90543.7
90556
90858.9
91595
92106.7
92285.9
92617
93119
93751.8
94328.4
95078.8
95798.5
96255.9
96790.5
97415
97966.4
98267.3
98635.3
99179.8
100260
102279
103862
105996
110190
111817
113463
114014
115840
118071
91603.3
91422.3
91341.3
91513.7
92006
92445.3
92657.9
92731.3
93108.9
93635.3
94304.8
94891.5
95594.8
96005.7
96394.5
96780
97134.9
97368.7
97746.4
98304.3
99411.7
101593
103272
105590
109687
111753
113466
114075
115906
118569
92194.1
92434
92302.8
92301.8
92389.9
92727.8
92956.5
93101.7
93184.4
93600.1
94300.6
94799
95387.4
95724.6
95898.2
96013.4
96187.3
96373.9
96714.8
97270.2
98372
100623
102503
105020
108890
111322
113183
113978
115686
118766
93421.1
93516.8
93300.4
93222.4
93131.8
93209.1
93312.8
93505.8
93575.9
93678.7
94318.1
94757.1
95123.2
95298.5
95283.7
95219.2
95225.8
95309.4
95541.7
96050.8
97122.5
99308.3
101592
104271
107798
110485
112558
113500
115215
118798
95150.3
94900.8
94520.5
94291.7
94206.2
94019.3
94015.4
94146.4
94134.8
94271.9
94535.5
94745.1
94892.7
94845.6
94690.9
94355.9
94195.2
94257.4
94444.1
94877.3
95797.9
97688.8
100560
103207
106474
109256
111571
112571
114578
117877
96637.6
96414.5
95915.5
95375.8
95007.2
94773.5
94810.9
94729.9
94703.4
94695.5
94725.8
94740.7
94667.8
94451.2
94044.1
93426.8
93165.8
93213.1
93363.9
93729.3
94537.3
96210.6
99068.7
101902
104993
107743
110091
111627
113497
116968
97928.4
97653.8
97110.3
96445.4
95762.1
95486.1
95262.5
95061
95028.8
94933.6
94812.2
94712.1
94480.3
93988.5
93287.4
92592.9
92139.8
92174
92298.7
92614.9
93337.7
94833.2
97371.9
100329
103411
105981
108410
110358
112157
115169
98651.4
98347.9
97794.6
97243.6
96516.6
96025.1
95486.3
95238.3
95180.9
95044.1
94843.9
94634.6
94206
93446.9
92679.3
91769.9
91116.6
91138.9
91241.9
91528.6
92152.9
93518.9
95755.4
98530.2
101742
103942
106726
108767
110100
113528
99545.3
99118.5
98372.6
97701
96970.2
96329
95598.3
95331.1
95254.5
95086.7
94849.9
94438.7
93772.6
92984.9
92067.3
90967.3
90093.4
90103
90183.8
90423.1
91013
92172.8
94178.6
96634.2
99922.1
101960
104739
106764
108135
111084
100971
100560
99060.1
98160.8
97342.4
96525.3
95777.5
95416.8
95281.9
95095.6
94767.3
94108.4
93252.9
92441
91411.3
90156.8
89061.5
89048.8
89110.1
89282.4
89776.9
90804.3
92667.9
94778.3
97949.8
99956.2
102551
104461
105996
108971
102392
101642
99867.1
98856.4
97887
96977.7
96217
95443.7
95285.9
95041.7
94549.5
93630.9
92611.6
91795.5
90695.8
89325.5
88057.1
87954.8
87997.8
88168.5
88545.9
89418.4
91052.2
92973.8
95934.8
97872
100393
102133
103322
105764
102593
101870
100674
99567.1
98478.3
97416.2
96421.5
95445
94792.4
94500.6
93960.8
92896.6
91793.2
91020.6
89912.8
88465.3
87112.4
86794.7
86819.5
86940.2
87264.2
88143.5
89533
91204.7
93892.7
95787.9
97632.4
99724.1
100776
103106
102898
102201
101080
99981.7
98746.6
97620.8
96512.8
95409.3
94323.4
93776.9
93118.9
91895.7
90775.8
90091.8
89058.7
87586.1
86138
85619.2
85641.4
85733.8
86037.6
86815.5
88046.5
89544.1
91920.8
93751.3
95528.7
97138.8
97695.3
98871
103259
102408
101533
100304
98877.7
97715.8
96561.5
95404.8
94094
93053.5
92120.2
90791.7
89643.1
89047.3
88139.9
86647.4
85178.5
84514.9
84537.7
84652.7
84897.3
85441.5
86480.6
88031.5
90059.6
91842.8
93391.9
95086
95036.5
96329.4
104133
103265
102546
101390
99639.9
98219.5
96982.1
95503.7
93981.1
92540.5
91275.5
89755
88514
87957.6
87149.4
85632
84223.7
83598.3
83532.8
83593.3
83737
84141.5
85048.8
86610.8
88490.7
90061.6
91788
92928.1
91603.9
87421.6
319393
322734
326232
329023
331785
334445
337002
339500
341909
344251
346526
348734
350849
352853
354728
356462
358051
359466
360701
361743
362669
363464
363851
364013
364066
364075
363945
363632
363129
362440
361563
360495
359226
357749
356057
354148
352017
349663
347089
344302
341300
338004
334563
331079
326946
322844
318566
314115
309531
304803
299932
294960
289887
284734
279495
274181
268795
263344
257832
252257
246633
240962
235252
229518
223773
218028
212298
206608
200977
195434
189979
184651
179472
174461
169627
164976
160522
156296
152285
148494
145010
141742
138644
135678
132755
130192
128190
126338
124341
122439
120692
119070
117486
115960
114479
113048
111671
110362
109117
107936
106857
105886
104927
104086
103314
102911
102765
102699
102696
102698
102720
102794
102959
103279
103810
104115
104304
104828
104976
104982
104972
105002
105018
104770
104353
321613
323447
326421
329214
331919
334539
337081
339557
341954
344280
346531
348697
350760
352703
354503
356135
357591
358871
359946
360918
361798
362231
362413
362469
362477
362324
362012
361537
360891
360069
359062
357863
356462
354854
353036
351006
348762
346302
343628
340739
337631
334309
330791
327045
323079
318938
314630
310168
305628
300994
295904
291003
285971
280880
275737
270506
265194
259818
254394
248911
243395
237843
232264
226671
221073
215485
209920
204402
198939
193555
188288
183180
178223
173372
168654
164110
159798
155717
151853
148208
144770
141535
138493
135617
132942
130512
128326
126294
124340
122514
120838
119255
117684
116142
114652
113212
111832
110515
109269
108083
106998
105996
105063
104239
103490
103006
102754
102684
102686
102689
102693
102712
102770
102902
103134
103671
104140
104230
104240
104278
104398
104316
104488
104499
104191
322845
323431
326088
328801
331432
333998
336504
338952
341340
343667
345920
348084
350138
352061
353828
355419
356818
358014
359040
359987
360638
360950
361076
361110
361111
360859
360467
359933
359241
358378
357333
356094
354654
353008
351153
349088
346812
344322
341617
338696
335550
332193
328627
324840
320841
316657
312307
307811
303202
298486
293639
288695
283686
278655
273354
268047
262808
257511
252186
246814
241401
235936
230443
224934
219425
213933
208471
203055
197699
192423
187245
182122
177117
172350
167845
163493
159258
155189
151311
147668
144265
141088
138142
135393
132807
130408
128220
126182
124267
122468
120798
119214
117629
116101
114677
113311
111986
110708
109487
108320
107222
106183
105213
104348
103590
103014
102632
102416
102372
102283
102269
102275
102299
102359
102484
102642
103057
103100
103194
103360
103503
103756
103871
103775
103419
323430
323396
325785
328356
330869
333361
335832
338272
340674
343023
345298
347480
349545
351464
353213
354773
356131
357294
358318
359221
359723
359960
360053
360078
360069
359797
359396
358859
358168
357308
356263
355019
353570
351913
350046
347968
345676
343166
340433
337476
334288
330872
327235
323379
319318
315067
310646
306075
301374
296555
291630
286625
281561
276457
271301
266087
260832
255566
250330
244558
239219
233834
228432
223028
217605
212171
206743
201348
196006
190762
185631
180635
175776
170995
166332
161926
157879
154045
150394
146901
143582
140452
137514
134786
132258
129917
127765
125784
123948
122212
120559
118971
117429
115941
114510
113127
111794
110498
109273
108108
107008
105981
105011
104137
103364
102729
102227
101864
101680
101507
101395
101368
101369
101374
101394
101463
101619
101689
101738
101837
102058
102469
102453
102313
101915
323181
323133
325307
327823
330277
332735
335195
337640
340056
342422
344712
346900
348958
350858
352577
354099
355417
356547
357562
358375
358780
358971
359050
359073
359075
358825
358454
357947
357287
356452
355423
354186
352736
351074
349199
347109
344799
342262
339494
336493
333256
329775
326062
322134
318004
313685
309194
304551
299775
294884
289898
284838
279721
274556
269342
264093
258819
253532
248242
242922
237582
232237
226900
221400
215754
210412
205063
199759
194485
189289
184173
179170
174316
169650
165160
160807
156517
152417
148793
145445
142302
139356
136617
134079
131703
129477
127389
125426
123565
121809
120154
118589
117088
115639
114235
112873
111548
110266
109024
107842
106718
105563
104472
103580
102797
102104
101537
101082
100769
100515
100325
100211
100127
100059
100061
100079
100138
100244
100272
100345
100506
100837
100839
100737
100378
322626
322563
324734
327275
329717
332179
334649
337108
339536
341907
344191
346359
348382
350234
351895
353354
354615
355717
356696
357393
357739
357898
357959
357975
357965
357746
357424
356958
356336
355522
354499
353252
351776
350081
348170
346037
343677
341080
338245
335171
331855
328291
324487
320479
316288
311918
307377
302676
297834
292874
287823
282706
277541
272330
267077
261795
256498
251200
245908
240618
235341
230063
224785
219485
214143
208784
203446
198177
192333
187281
182253
177355
172583
167957
163494
159231
155200
151416
147615
144044
140831
138004
135405
132975
130702
128586
126626
124803
123094
121467
119876
118332
116832
115366
113908
112484
111113
109794
108523
107297
106115
104975
103904
102916
102012
101182
100519
100006
99587.6
99237.5
98962.6
98751.6
98607.4
98477.7
98396.2
98402.3
98434.2
98511.9
98676.4
98950.1
98984.2
98984.2
98990.6
98938.8
98708.7
321678
321621
324103
326690
329170
331666
334161
336635
339065
341420
343670
345785
347738
349506
351074
352432
353593
354591
355442
356094
356455
356631
356708
356729
356718
356491
356162
355698
355075
354258
353210
351914
350360
348581
346586
344362
341902
339197
336250
333063
329628
325944
322037
317952
313723
309354
304806
300085
295210
290213
285123
279981
274802
269552
264242
258896
253554
248245
242990
237791
232629
227463
222280
217053
211780
206484
201184
195912
190683
185527
180494
175539
170454
165967
161627
157478
153524
149785
146299
143058
139970
136980
134208
131876
129787
127832
125967
124178
122466
120827
119269
117759
116285
114841
113443
112063
110687
109335
107993
106665
105386
104177
103041
101992
101035