/*--------------------------------*- C++ -*----------------------------------*\
| =========                 |                                                 |
| \\      /  F ield         | OpenFOAM: The Open Source CFD Toolbox           |
|  \\    /   O peration     | Version:  2112                                  |
|   \\  /    A nd           | Website:  www.openfoam.com                      |
|    \\/     M anipulation  |                                                 |
\*---------------------------------------------------------------------------*/
FoamFile
{
    version     2.0;
    format      ascii;
    arch        "LSB;label=32;scalar=64";
    class       volScalarField;
    location    "0.00181";
    object      p;
}
// * * * * * * * * * * * * * * * * * * * * * * * * * * * * * * * * * * * * * //

dimensions      [1 -1 -2 0 0 0 0];

internalField   nonuniform List<scalar> 
13875
(
951464
984029
973648
975534
973403
974422
974608
974384
974847
974781
975135
974786
974796
974657
974254
974487
974557
973915
974309
974252
973027
975553
972381
982464
944990
733665
659204
672123
677000
670329
668544
668567
670316
677669
678805
678470
670061
669230
669228
670034
677554
677477
670543
668596
668360
669811
677008
672288
657301
730606
736755
635677
664639
653747
648436
646069
645156
645686
647856
645840
648265
645306
645048
644487
645082
644933
647562
645399
644808
645628
647619
652053
662052
632207
733380
743402
636343
665542
653909
648729
646273
645308
645741
645119
643466
645100
645373
645165
644577
645163
643439
644208
645440
644950
645815
647890
652174
662804
632813
739147
757241
639413
668159
654637
649633
646882
645750
645976
645191
643608
645212
645621
645487
644878
645421
643661
644274
645644
645374
646363
648686
652761
665105
635463
750503
759186
648236
674096
656686
651580
648184
646683
646550
645483
644083
645583
646183
646140
645535
645970
644283
644557
646156
646269
647549
650428
654642
670722
643226
751981
765741
669166
686736
661861
655620
650859
648579
647829
646331
645219
646515
647377
647449
646887
647100
645547
645488
647394
648139
650154
654343
660362
682351
666038
756306
793097
720344
713699
676041
664469
656601
652543
650677
648604
647687
648576
649827
650122
649645
649521
648117
647812
650110
651917
655444
662464
673496
707640
715885
782752
915232
833200
771396
708097
682703
668233
660618
656741
653879
652935
653183
654929
655603
655268
654652
653382
653127
655929
659556
666088
679008
702358
761650
824609
912058
1.55007e+06
1.04396e+06
845770
750098
707619
685554
674237
668153
664855
663749
663382
665569
666694
666513
665425
664353
664339
667091
672820
682791
702715
742035
833355
1.02906e+06
1.52562e+06
2.98845e+06
1.43735e+06
998469
825457
751665
717192
700382
691880
687882
686124
685344
687461
689141
689038
687775
687096
687500
690091
697379
712004
741640
804587
953640
1.36079e+06
2.88488e+06
5.85149e+06
2.40963e+06
1.44535e+06
1.02676e+06
855076
789370
760412
746756
740434
737566
736431
737320
739730
739497
738538
738828
740209
744308
755266
780056
835720
973530
1.30336e+06
2.3018e+06
5.635e+06
5.65793e+06
4.84957e+06
3.2652e+06
1.77667e+06
1.15495e+06
993408
928197
897846
883530
877027
874807
872057
876529
874798
875308
877420
882458
893887
919803
976535
1.11392e+06
1.54117e+06
2.39824e+06
4.91463e+06
5.40889e+06
5.13221e+06
4.723e+06
4.96467e+06
4.93906e+06
2.10337e+06
1.67234e+06
1.5075e+06
1.42178e+06
1.38544e+06
1.36606e+06
1.36748e+06
1.34613e+06
1.36731e+06
1.3508e+06
1.35639e+06
1.36294e+06
1.37965e+06
1.41605e+06
1.49841e+06
1.66736e+06
2.13448e+06
4.64933e+06
5.07898e+06
4.80943e+06
4.85103e+06
4.22321e+06
4.37626e+06
4.87539e+06
5.21457e+06
5.1731e+06
4.05982e+06
3.74576e+06
3.41964e+06
3.40033e+06
3.19092e+06
3.27614e+06
3.10787e+06
3.22492e+06
3.14233e+06
3.17286e+06
3.19683e+06
3.27102e+06
3.4331e+06
3.6886e+06
3.86564e+06
4.8215e+06
4.98753e+06
5.00555e+06
4.54966e+06
4.47782e+06
3.83958e+06
3.93224e+06
4.67987e+06
5.419e+06
6.77653e+06
8.02559e+06
9.40797e+06
9.23651e+06
9.8519e+06
9.4927e+06
9.88812e+06
9.60047e+06
9.83993e+06
9.64531e+06
9.79422e+06
9.65318e+06
9.71587e+06
9.45244e+06
9.4269e+06
8.51508e+06
7.15479e+06
5.52307e+06
4.96667e+06
4.15927e+06
4.16711e+06
3.06595e+06
3.6106e+06
4.79978e+06
5.55173e+06
6.77349e+06
7.69488e+06
7.82207e+06
7.70096e+06
7.50196e+06
7.45183e+06
7.15756e+06
7.34185e+06
7.07854e+06
7.27661e+06
7.25225e+06
7.38101e+06
7.51274e+06
7.7082e+06
7.75089e+06
7.88045e+06
7.22197e+06
5.92208e+06
5.09494e+06
3.88556e+06
3.44614e+06
2.53902e+06
3.39236e+06
4.70306e+06
5.3007e+06
5.86164e+06
6.10457e+06
5.87059e+06
5.87556e+06
5.8762e+06
5.90435e+06
5.91607e+06
5.93586e+06
5.93355e+06
5.93684e+06
5.93689e+06
5.93308e+06
5.92064e+06
5.92144e+06
5.93707e+06
6.1116e+06
6.22785e+06
5.75677e+06
5.08774e+06
3.44904e+06
2.50598e+06
1.37213e+06
2.38697e+06
3.8792e+06
4.29411e+06
4.50942e+06
4.69825e+06
4.82597e+06
5.01054e+06
5.16172e+06
5.26086e+06
5.32623e+06
5.36256e+06
5.38463e+06
5.38311e+06
5.36217e+06
5.32136e+06
5.24581e+06
5.12214e+06
4.97639e+06
4.85528e+06
4.7316e+06
4.59318e+06
4.14847e+06
2.71991e+06
1.52727e+06
691752
1.63053e+06
2.73765e+06
3.19538e+06
3.41478e+06
3.70285e+06
4.07499e+06
4.39866e+06
4.60164e+06
4.72396e+06
4.81033e+06
4.86076e+06
4.89026e+06
4.88823e+06
4.85664e+06
4.79696e+06
4.6972e+06
4.51902e+06
4.20695e+06
3.80516e+06
3.51413e+06
3.31321e+06
2.85722e+06
1.81757e+06
743902
727585
1.21196e+06
1.8385e+06
2.27241e+06
2.60784e+06
3.01422e+06
3.48382e+06
3.84073e+06
4.05815e+06
4.19993e+06
4.30182e+06
4.36099e+06
4.38961e+06
4.38119e+06
4.33691e+06
4.25471e+06
4.12834e+06
3.92761e+06
3.5581e+06
3.05118e+06
2.62857e+06
2.31336e+06
1.9072e+06
1.23459e+06
768263
929601
1.04215e+06
1.27524e+06
1.71588e+06
2.07661e+06
2.54963e+06
2.98914e+06
3.31838e+06
3.53885e+06
3.69149e+06
3.79762e+06
3.85848e+06
3.88646e+06
3.87173e+06
3.81907e+06
3.72456e+06
3.58002e+06
3.37003e+06
3.03044e+06
2.56542e+06
2.07264e+06
1.72264e+06
1.32155e+06
1.06441e+06
972030
1.35614e+06
1.05183e+06
1.08482e+06
1.39225e+06
1.73292e+06
2.20675e+06
2.58132e+06
2.86445e+06
3.07819e+06
3.22963e+06
3.33247e+06
3.39073e+06
3.41497e+06
3.39618e+06
3.33917e+06
3.2411e+06
3.0918e+06
2.88275e+06
2.5991e+06
2.21857e+06
1.72618e+06
1.39471e+06
1.12122e+06
1.08102e+06
1.41674e+06
1.43326e+06
1.07699e+06
1.08651e+06
1.23894e+06
1.51509e+06
1.90635e+06
2.22083e+06
2.47811e+06
2.67085e+06
2.80838e+06
2.9123e+06
2.96627e+06
2.98915e+06
2.96788e+06
2.91053e+06
2.81172e+06
2.66816e+06
2.47614e+06
2.21894e+06
1.90291e+06
1.52237e+06
1.24977e+06
1.10482e+06
1.10332e+06
1.42846e+06
1.43298e+06
1.11816e+06
1.0972e+06
1.16814e+06
1.36939e+06
1.66091e+06
1.91972e+06
2.15147e+06
2.32439e+06
2.44907e+06
2.54224e+06
2.59299e+06
2.61254e+06
2.59371e+06
2.53841e+06
2.4483e+06
2.31409e+06
2.14071e+06
1.90987e+06
1.65089e+06
1.37585e+06
1.1795e+06
1.1135e+06
1.14018e+06
1.42715e+06
1.43897e+06
1.18002e+06
1.12213e+06
1.13088e+06
1.25959e+06
1.46212e+06
1.67571e+06
1.87538e+06
2.02659e+06
2.13798e+06
2.2234e+06
2.26479e+06
2.28643e+06
2.26494e+06
2.2163e+06
2.13103e+06
2.01098e+06
1.85888e+06
1.66255e+06
1.45257e+06
1.27087e+06
1.14605e+06
1.13474e+06
1.18642e+06
1.42709e+06
1.4527e+06
1.28192e+06
1.16777e+06
1.13091e+06
1.1834e+06
1.31515e+06
1.48369e+06
1.6483e+06
1.77836e+06
1.87575e+06
1.94769e+06
1.9854e+06
1.99978e+06
1.98455e+06
1.9375e+06
1.86488e+06
1.76064e+06
1.63014e+06
1.46815e+06
1.30228e+06
1.18468e+06
1.13479e+06
1.17072e+06
1.27436e+06
1.43907e+06
1.49494e+06
1.47739e+06
1.21358e+06
1.12926e+06
1.12685e+06
1.19654e+06
1.32149e+06
1.45304e+06
1.56213e+06
1.64742e+06
1.71285e+06
1.74359e+06
1.75804e+06
1.74064e+06
1.70415e+06
1.63869e+06
1.54934e+06
1.44114e+06
1.31331e+06
1.18985e+06
1.12988e+06
1.13157e+06
1.20467e+06
1.43959e+06
1.47316e+06
1.58829e+06
1.55664e+06
1.23898e+06
1.1212e+06
1.09171e+06
1.11497e+06
1.19902e+06
1.29846e+06
1.38685e+06
1.45722e+06
1.50928e+06
1.53801e+06
1.54892e+06
1.5352e+06
1.50193e+06
1.44868e+06
1.37389e+06
1.28516e+06
1.1893e+06
1.10886e+06
1.09194e+06
1.11911e+06
1.22872e+06
1.5068e+06
1.55059e+06
1.78481e+06
1.59855e+06
1.25366e+06
1.10744e+06
1.05774e+06
1.05397e+06
1.09739e+06
1.16633e+06
1.23478e+06
1.29301e+06
1.34006e+06
1.36184e+06
1.37153e+06
1.35783e+06
1.33277e+06
1.28519e+06
1.22434e+06
1.15663e+06
1.08957e+06
1.04805e+06
1.05375e+06
1.10255e+06
1.25071e+06
1.57015e+06
1.69244e+06
1.848e+06
1.63932e+06
1.27889e+06
1.09321e+06
1.01858e+06
999659
1.01728e+06
1.06217e+06
1.11145e+06
1.15626e+06
1.19162e+06
1.2119e+06
1.21935e+06
1.20941e+06
1.1857e+06
1.15061e+06
1.10497e+06
1.05736e+06
1.01309e+06
997551
1.01613e+06
1.08748e+06
1.26587e+06
1.60403e+06
1.84819e+06
1.8472e+06
1.66023e+06
1.32353e+06
1.09185e+06
984502
951067
948047
974292
1.00631e+06
1.03807e+06
1.06902e+06
1.08271e+06
1.09077e+06
1.08137e+06
1.06473e+06
1.03446e+06
1.00133e+06
970067
945321
947944
979954
1.08007e+06
1.2908e+06
1.62284e+06
1.84794e+06
1.8382e+06
1.66075e+06
1.3812e+06
1.09387e+06
954329
904344
892779
901915
922436
942507
962399
974867
980098
973354
957746
939189
917987
897618
889506
901590
949553
1.08235e+06
1.33714e+06
1.62841e+06
1.84302e+06
1.81993e+06
1.66027e+06
1.50074e+06
1.1063e+06
934023
862328
839111
836196
845822
857784
873727
879962
885682
879743
871314
855656
843910
835445
839684
861520
928645
1.08852e+06
1.40832e+06
1.62579e+06
1.82483e+06
1.78398e+06
1.65682e+06
1.56727e+06
1.13456e+06
928471
829452
792861
784383
784347
789490
797405
802531
805254
802006
794924
787782
783086
781474
791063
828008
926311
1.10973e+06
1.55426e+06
1.62058e+06
1.78813e+06
1.7531e+06
1.6376e+06
1.56442e+06
1.16425e+06
930753
802530
750531
732948
728623
729018
732516
733207
736405
732802
731318
727456
727534
732412
751587
802204
930334
1.15097e+06
1.55837e+06
1.60689e+06
1.716e+06
1.71113e+06
1.59745e+06
1.55901e+06
1.22636e+06
941914
788249
717650
691137
681532
678487
677252
676964
677978
676703
676633
677827
680795
689111
716969
787021
937493
1.20873e+06
1.55016e+06
1.57136e+06
1.67261e+06
1.66382e+06
1.54737e+06
1.5446e+06
1.35056e+06
967633
788863
692234
652866
637062
631096
629264
626016
627535
626426
628776
631492
637724
653398
692390
787736
956821
1.32499e+06
1.53187e+06
1.52247e+06
1.6273e+06
1.63012e+06
1.50547e+06
1.50666e+06
1.35021e+06
998581
792789
678092
624528
602316
592729
587057
584759
584779
585000
586734
593241
602399
622883
677362
795287
997938
1.33157e+06
1.49265e+06
1.48008e+06
1.58739e+06
1.59408e+06
1.46669e+06
1.43101e+06
1.34602e+06
1.06377e+06
807272
678661
602355
570001
556150
550916
546039
546781
546775
550977
557387
571693
603459
677646
804232
1.06184e+06
1.32623e+06
1.40888e+06
1.44183e+06
1.56234e+06
1.5527e+06
1.42834e+06
1.35804e+06
1.33249e+06
1.1946e+06
838057
683367
592529
547795
529189
518799
515099
514425
515318
518862
529730
548516
591801
680990
824342
1.19154e+06
1.31248e+06
1.33907e+06
1.40825e+06
1.53067e+06
1.5216e+06
1.3978e+06
1.2964e+06
1.29762e+06
1.19315e+06
884187
689947
592979
531620
503174
491775
485772
485357
485235
492677
504148
532656
592304
693628
867233
1.19119e+06
1.28235e+06
1.28362e+06
1.37716e+06
1.49144e+06
1.47434e+06
1.37017e+06
1.2518e+06
1.22897e+06
1.18408e+06
980901
708714
597617
527009
488831
468630
462286
460429
462293
468641
489366
526839
594552
714128
938951
1.17622e+06
1.21959e+06
1.24007e+06
1.34719e+06
1.46174e+06
1.42354e+06
1.3416e+06
1.21664e+06
1.16525e+06
1.15977e+06
1.0446e+06
745662
609856
527888
474730
450886
439707
438264
440002
451798
476475
527500
601539
755203
1.04274e+06
1.14458e+06
1.15406e+06
1.20514e+06
1.3222e+06
1.4222e+06
1.38524e+06
1.30881e+06
1.19085e+06
1.11406e+06
1.10647e+06
1.03982e+06
809801
631756
530258
474718
440537
425213
420388
425315
440951
476563
532153
620139
842082
1.03837e+06
1.0845e+06
1.1041e+06
1.17772e+06
1.28879e+06
1.37329e+06
1.34555e+06
1.27504e+06
1.17038e+06
1.07429e+06
1.04176e+06
1.02588e+06
942201
679299
540267
476537
439883
415163
408710
415438
439454
477524
542018
651687
925064
1.02008e+06
1.02916e+06
1.06311e+06
1.15784e+06
1.261e+06
1.34263e+06
1.29897e+06
1.23255e+06
1.14975e+06
1.04604e+06
994275
994177
941005
776777
563782
481912
440544
414887
403533
415291
439982
481023
564516
714870
922399
980483
984705
1.03535e+06
1.13833e+06
1.22703e+06
1.29718e+06
1.25838e+06
1.19801e+06
1.12944e+06
1.02959e+06
957174
940703
928651
848920
608464
492775
442396
415324
404028
415887
443132
492187
614948
844016
913646
928909
950757
1.01906e+06
1.11977e+06
1.19355e+06
1.25068e+06
1.17693e+06
1.14519e+06
1.10204e+06
1.01253e+06
933323
899165
901037
846712
702799
516900
449504
417586
406133
417891
450814
515140
714540
842908
891556
888832
926760
1.00237e+06
1.09351e+06
1.1411e+06
1.16546e+06
1.04767e+06
1.07912e+06
1.05942e+06
993181
916732
861993
853176
835314
770993
567995
468112
424093
411744
423866
469264
564430
769417
832792
847234
854086
910864
983934
1.05414e+06
1.0769e+06
1.03989e+06
71002.7
70916.4
71013.6
70976.5
70972.3
70916.7
70918.9
70927.2
70968.3
70976.6
70943.1
70873.2
70793.3
70727.3
70683.3
70658.8
70646.5
70640.5
70637.8
70636.8
70636.5
70636.4
70636.2
70636
70634.3
70638
70625.6
70646.5
70600.7
70670.1
70977.4
70903.5
70981.7
70968.5
70971.4
70910.8
70887.4
70892.9
70955.2
70980.1
70964.7
70902.3
70819.7
70745.8
70694.2
70664.3
70649
70641.5
70638.2
70637
70636.6
70636.4
70636.3
70636
70634.4
70637.9
70626.9
70645.5
70617
70655.4
70954.4
70897.6
70978.9
70982.6
70987
70909
70860.5
70868.6
70953.8
70991.2
70990.3
70929.3
70841.2
70759.7
70702
70668.2
70650.7
70642.1
70638.5
70637.2
70636.7
70636.5
70636.3
70636.1
70634.7
70637.7
70630
70643.1
70627.1
70646.6
70962.1
70909
70994.7
71020.9
71032.2
70933.5
70866.7
70871.7
70957.5
71010.8
71018.1
70954.7
70860.1
70771.5
70708.6
70671.4
70652
70642.6
70638.7
70637.3
70636.8
70636.6
70636.4
70636.2
70635.3
70637.4
70632.1
70641.2
70631
70642.7
70985.7
70950.4
71053.3
71121.9
71139.7
71010.4
70923.1
70911.8
70982.2
71039.1
71045.6
70975.7
70874.5
70780.4
70713.5
70673.7
70653
70643
70638.8
70637.3
70636.8
70636.7
70636.5
70636.3
70635.7
70637
70633.6
70639.8
70633.4
70640.4
71060.2
71073.1
71220.2
71370.4
71422.2
71281.7
71146.1
71074.1
71090.9
71097.6
71077.7
70993.1
70884.3
70785.8
70716.3
70675
70653.4
70643.1
70638.8
70637.3
70636.9
70636.8
70636.7
70636.4
70636.1
70636.8
70634.8
70638.9
70635
70639
71249.3
71410.2
71670.9
72013.1
72203.6
72097.3
71860.1
71591.1
71407.6
71254.4
71145.7
71016.3
70892.3
70788.8
70717.4
70675.4
70653.5
70643.1
70638.8
70637.3
70637
70636.9
70636.8
70636.6
70636.3
70636.7
70635.5
70638.2
70635.8
70638.3
71767.7
72309.6
72909
73757
74423.4
74563.6
74209.2
73378.8
72432.6
71723.4
71333.8
71080.4
70910.1
70792.4
70718
70675.4
70653.5
70643
70638.7
70637.3
70637
70637
70636.9
70636.7
70636.5
70636.6
70636.1
70637.7
70636.4
70637.9
73252.6
74682
75860.4
77576.7
79486.3
80648.5
80290.2
78678.6
75920.7
73402.3
71945.1
71278.5
70968.4
70806.8
70720.7
70675.7
70653.4
70642.9
70638.7
70637.3
70637
70637
70637
70636.8
70636.7
70636.6
70636.4
70637.4
70636.7
70637.8
76754.1
79813.5
82666.1
86520.8
90267.9
93414.2
95804.7
95016
87635.1
79136.8
74319
71979.2
71169
70858.5
70732.2
70677.7
70653.6
70642.9
70638.5
70637.2
70636.9
70637.1
70637.1
70637
70636.8
70636.7
70636.6
70637.2
70636.9
70637.7
85075.4
89473.1
90273.5
91108.5
92808.6
96033.7
100376
105214
108279
100928
82538.6
74873.9
71895.1
71042.6
70774.8
70686.2
70654.8
70642.9
70638.4
70637.1
70636.9
70637.1
70637.1
70637.1
70636.9
70636.7
70636.7
70637
70637
70637.7
89590.6
91460.3
90946.3
91221
92501.5
95586.3
100233
105732
111700
116319
112051
85416.4
74905.8
71700.9
70927.3
70717.6
70660.2
70643.6
70638.4
70637
70636.8
70637
70637.2
70637.2
70637.1
70636.8
70636.8
70637
70637.1
70637.7
89261.2
90784
90184.6
90203.6
90180.5
92476.6
97925.9
104688
111560
117935
123299
118966
86061
74361.8
71456.9
70830.5
70681.2
70646.8
70638.8
70637
70636.8
70637
70637.2
70637.2
70637.2
70637
70636.9
70637
70637.1
70637.6
87433.5
88438.7
87817.6
87365.1
86851.3
87738.7
92809.6
100400
109544
117691
124534
129998
121872
83940.9
73476
71208.7
70756.2
70659.7
70640.8
70637.2
70636.7
70636.9
70637.2
70637.3
70637.3
70637.1
70636.9
70637
70637.1
70637.5
84160.5
84909.8
84628
83771.4
83218.1
83153.6
87025.7
94487
104286
115118
124396
131762
136107
118350
80506.4
72544.8
70999.2
70704.9
70647.9
70638.2
70636.7
70636.8
70637.2
70637.3
70637.4
70637.3
70637.1
70636.9
70637
70637.6
81389.4
81455.6
81257.6
80169.4
79536.8
79107.3
81484.2
88487.8
98179.5
109654
122008
131726
139553
140651
106822
77188.4
71799.7
70845.9
70672.2
70641.7
70637.1
70636.7
70637
70637.3
70637.3
70637.4
70637.2
70637
70636.9
70636.9
76893.2
77245
77630.9
76891.8
76016.6
75600.7
76666.1
82451.1
92559.1
103558
117024
130061
139722
147421
141409
93415.8
74486.9
71282.3
70746.9
70653.5
70638.7
70636.8
70636.9
70637.2
70637.2
70637.3
70637.4
70637.2
70637.2
70636.8
75235.9
75645.7
75813.2
74105.6
73090.1
72675.9
72696.3
77017.2
86971.5
97971.4
111105
125915
138822
148649
154261
133722
82397.1
72652.2
70962.8
70689.6
70643.8
70637.3
70636.8
70637.1
70637.2
70637.3
70637.1
70637.4
70637.5
70638.1
75472.5
75340.1
73589.9
71583.6
70767.2
70050.4
69665.4
72158.2
81303.5
92885.5
105707
120351
135948
148434
158564
153723
109815
76733.2
71605.1
70787
70659.3
70639.4
70636.9
70637
70637.2
70637.5
70637.3
70637.1
70636.8
70636.7
75142.7
75116.7
73050.4
70141.1
68569.2
67987.2
67884.1
68598.2
76043.7
87850.7
100622
114817
131330
147115
159564
163033
149829
88955.9
73457.5
71058.2
70700.2
70645.3
70637.6
70636.9
70637.2
70637.1
70637.7
70637.1
70636.8
70636.8
75021.2
74959.6
73793
69187.3
67437
66965.7
66075.7
65327.6
70723.4
82262.4
95518.6
109905
125936
143613
159049
168507
164455
121877
78297.5
71808.1
70804.8
70661.1
70639.6
70636.9
70637.2
70637.1
70637.3
70637.9
70638
70638.1
74801.2
74684.7
75128
70612.8
65827.4
63546.5
62301.5
62666.4
67241.1
77979.8
90915.5
105189
121117
138966
156984
172492
172985
158916
92203.6
73748.2
71072.2
70697.9
70644.9
70637.5
70636.8
70637.3
70637.2
70637.5
70637.6
70637.4
73845.4
74650.1
78337.5
67806.7
62744.5
61263.5
60811.2
62821.8
66108.9
73965.2
85846.1
99065.2
115571
133751
153374
172596
178075
174600
126596
78351.5
71752.6
70786.8
70657.2
70639.2
70636.8
70636.8
70637
70636.8
70636.8
70636.8
75898
73567.4
75708.4
65680
62095.5
61241
62442
63519.4
62238.2
69802.5
83357.9
96086.1
112151
130665
151319
171914
183447
183562
164212
89510.3
73342.8
70990.6
70683.6
70643
70637.5
70636.8
70636.7
70636.7
70636.7
70636.9
57013.6
70174
73837.6
65466
62661.6
61636.6
61071.3
60555.9
60291.2
68362.1
82488.3
95002.1
110633
129185
149988
171231
188520
190878
183760
119432
76744.3
71451.6
70742.3
70650.3
70638.4
70637.1
70636.9
70636.9
70637
70637.1
70670.1
70600.7
70646.5
70625.6
70638
70634.3
70636
70636.2
70636.4
70636.5
70636.8
70637.8
70640.5
70646.5
70658.8
70683.3
70727.3
70793.3
70873.1
70943
70976.4
70968.1
70927
70918.8
70916.7
70972.2
70976.5
71013.7
70916.6
71003
70655.4
70617
70645.5
70626.9
70637.9
70634.4
70636
70636.3
70636.4
70636.6
70637
70638.2
70641.5
70649
70664.3
70694.2
70745.8
70819.6
70902.2
70964.6
70979.9
70955
70892.7
70887.3
70910.8
70971.4
70968.5
70981.8
70903.6
70977.4
70646.6
70627.1
70643.1
70630
70637.7
70634.7
70636.1
70636.3
70636.5
70636.7
70637.2
70638.5
70642.1
70650.7
70668.2
70702
70759.7
70841.1
70929.2
70990.1
70991.1
70953.6
70868.5
70860.4
70909
70987
70982.6
70978.9
70897.7
70954.5
70642.7
70631
70641.2
70632.1
70637.4
70635.3
70636.2
70636.4
70636.6
70636.8
70637.3
70638.6
70642.6
70652
70671.4
70708.5
70771.5
70860.1
70954.6
71018
71010.7
70957.3
70871.5
70866.5
70933.4
71032.2
71020.8
70994.7
70909.1
70962.2
70640.4
70633.4
70639.8
70633.6
70637
70635.7
70636.3
70636.5
70636.7
70636.8
70637.3
70638.8
70643
70653
70673.7
70713.5
70780.4
70874.5
70975.6
71045.5
71039
70982
70911.6
70922.8
71010.1
71139.6
71121.9
71053.3
70950.3
70985.7
70639
70635
70638.9
70634.8
70636.8
70636.1
70636.4
70636.7
70636.8
70636.9
70637.3
70638.8
70643.1
70653.4
70675
70716.3
70785.7
70884.2
70993.1
71077.7
71097.4
71090.5
71073.4
71145.2
71280.9
71421.6
71370.2
71220
71072.9
71060.3
70638.3
70635.8
70638.2
70635.5
70636.7
70636.3
70636.6
70636.8
70636.9
70637
70637.3
70638.8
70643.1
70653.5
70675.4
70717.4
70788.8
70892.2
71016.2
71145.4
71253.6
71406
71588.7
71857.1
72094.6
72201.7
72012
71669.9
71409.3
71248.7
70637.9
70636.4
70637.7
70636.1
70636.6
70636.5
70636.7
70636.9
70637
70637
70637.3
70638.7
70643
70653.5
70675.4
70718
70792.4
70909.9
71080
71332.6
71720.3
72425.8
73368.7
74198.3
74554.4
74417
73753.5
72906
72307.2
71766.6
70637.8
70636.7
70637.4
70636.4
70636.6
70636.7
70636.8
70637
70637
70637
70637.3
70638.7
70642.9
70653.4
70675.7
70720.7
70806.7
70968
71276.9
71939.8
73387.6
75894.2
78644.4
80253.5
80614.1
79464.5
77565.4
75851.2
74675
73247.7
70637.7
70636.9
70637.2
70636.6
70636.7
70636.8
70637
70637.1
70637.1
70636.9
70637.2
70638.5
70642.9
70653.6
70677.7
70732.1
70858.1
71167.3
71972.2
74293.9
79082.8
87512.1
94906.2
95725.2
93358.4
90224.8
86485.1
82635.9
79791.3
76741.3
70637.7
70637
70637
70636.7
70636.7
70636.9
70637.1
70637.1
70637.1
70636.9
70637.1
70638.4
70642.9
70654.8
70686.1
70774.3
71040.6
71886.7
74839
82440.1
100721
108168
105139
100319
95985.9
92768.9
91065.8
90233.6
89433.9
85035
70637.7
70637.1
70637
70636.8
70636.8
70637.1
70637.2
70637.2
70637
70636.8
70637
70638.4
70643.6
70660.2
70717.3
70925.7
71693
74865.3
85243.8
111791
116199
111617
105665
100179
95540.4
92461.3
91177.8
90908.6
91427.9
89568.1
70637.6
70637.1
70637
70636.9
70637
70637.2
70637.2
70637.2
70637
70636.8
70637
70638.8
70646.8
70681
70829.3
71450.6
74325.3
85877.5
118694
123170
117839
111478
104624
97879.7
92434
90138.8
90157.6
90144
90750.3
89236.4
70637.5
70637.1
70637
70636.9
70637.1
70637.3
70637.3
70637.2
70636.9
70636.7
70637.2
70640.7
70659.6
70755.4
71204
73447.5
83779.4
121534
129847
124429
117599
109480
100352
92777.8
87699.8
86806.8
87318.4
87772.4
88402.2
87408.7
70637.6
70637
70636.9
70637.1
70637.3
70637.4
70637.3
70637.2
70636.8
70636.7
70638.2
70647.9
70704.4
70996.3
72525.6
80404.3
117938
135924
131644
124295
115052
104249
94450.5
87007.4
83114.6
83170
83719.5
84574.5
84866.7
84126.4
70636.9
70636.9
70637
70637.2
70637.4
70637.3
70637.3
70637
70636.7
70637.1
70641.7
70672
70844.3
71789
77121.4
106435
140430
139410
131611
121932
109609
98150.1
88454
81465.9
79062.3
79484.3
80105.6
81186.4
81403.3
81354.8
70636.8
70637.2
70637.2
70637.4
70637.3
70637.2
70637.2
70636.9
70636.8
70638.7
70653.4
70746
71276.7
74448.2
93142.5
141120
147238
139586
129962
116965
103514
92527.2
82411.1
76639.3
75547
75956
76806.3
77533.5
77150.9
76834.6
70638.1
70637.5
70637.4
70637.1
70637.3
70637.2
70637.1
70636.8
70637.3
70643.8
70689.2
70960.1
72632.5
82271.3
133251
153999
148481
138698
125833
111048
97914.1
86933.8
76967.7
72645.8
72606.3
73011.3
73997.8
75664.4
75519.1
75148.5
70636.7
70636.8
70637.1
70637.3
70637.5
70637.2
70637
70636.9
70639.4
70659.2
70785.8
71596.3
76672
109380
153436
158344
148271
135836
120261
105621
92797.3
81241.3
72091.9
69573.9
69954.6
70670.3
71486.1
73470.7
75218.8
75371.1
70636.8
70636.8
70637.1
70637.7
70637.1
70637.2
70636.9
70637.5
70645.2
70699.7
71054.6
73429.9
88710.4
149439
162752
159356
146958
131221
114718
100535
87759.5
75987.1
68541.6
67842
67951.3
68526.7
70104.9
73009.9
74998.8
75035.6
70638.1
70638
70637.9
70637.3
70637.1
70637.2
70636.9
70639.6
70661
70803.4
71796.8
78219.9
121374
164125
168213
158852
143487
125815
109782
95431.9
82194.6
70741.6
65332.9
66159.7
66969.7
67461.4
69196.9
73757.9
74867.8
74925.7
70637.4
70637.6
70637.5
70637.2
70637.3
70636.8
70637.5
70644.9
70697.5
71068.5
73716.2
91880.2
158467
172677
172221
156804
138799
120948
105049
90759.5
77826.4
67281.4
62735.8
62416.5
63759.7
66102.9
70833.5
75140.8
74661.9
74733.8
70636.8
70636.8
70636.8
70637
70636.8
70636.8
70639.2
70657.1
70785.6
71741.4
78273.2
126039
174222
177759
172343
153149
133562
115412
98914.7
85764.8
73878.6
66160.4
62937.3
60959.2
61406.1
62848.8
67844.9
78381.7
74663.3
73837
70636.9
70636.7
70636.7
70636.7
70636.8
70637.5
70643
70683.2
70987.4
73314.3
89206.6
163641
183189
183099
171668
151096
130485
111998
95958.6
83357.2
69930.7
62414.6
63759.3
62659.5
61387.9
62274.8
65764.8
75633.8
73723.5
76085.8
70637.1
70637
70636.9
70636.9
70637.1
70638.4
70650.2
70741.4
71443.3
76679.3
118857
183313
190508
188183
170994
149791
129015
110497
94910.1
82535.2
68582.9
60469.8
60900.5
61242
61646.2
62493.1
65416.3
73946.4
70392
57130.4
70637
70637
70637
70637
70637
70637
70637
70637
70637
70637
70637
70637
70637
70637
70637
70637
70637
70637
70637
70637
70637
70637
70637
70637
70637
70637
70637
70637
70637
70637
70637
70637
70637
70637
70637
70637
70637
70637
70637
70637
70637
70637
70637
70637
70637
70637
70637
70637
70637
70637
70637
70637
70637
70637
70637
70637
70637
70637
70637
70637
70637
70637
70637
70637
70637
70637
70637
70637
70637
70637
70637
70637
70637
70637
70637
70637
70637
70637
70637
70637
70637
70637
70637
70637
70637
70637
70637
70637
70637
70637
70637
70637
70637
70637
70637
70637
70637
70637
70637
70637
70637
70637
70637
70637
70637
70637
70637
70637
70637
70637.1
70637.1
70637.1
70637.1
70637.1
70637.1
70637.1
70637.1
70637.1
70637.1
70637.1
70637.1
70637.1
70637.1
70637.2
70637.2
70637
70637
70637
70637
70637
70637
70637
70637
70637
70637
70637
70637
70637
70637
70637
70637
70637
70637
70637
70637
70637
70637
70637
70637
70637
70637
70637
70637
70637
70637
70637
70637
70637
70637
70637
70637
70637
70637
70637
70637
70637
70637
70637
70637
70637
70637
70637
70637
70637
70637
70637
70637
70637
70637
70637
70637
70637
70637
70637
70637
70637
70637
70637
70637
70637
70637
70637
70637
70637
70637
70637
70637
70637
70637
70637
70637
70637
70637
70637
70637
70637
70637
70637
70637
70637
70637
70637
70637
70637
70637
70637
70637
70637
70637
70637
70637
70637
70637
70637
70637
70637
70637
70637
70637
70637
70637
70637
70637
70637
70637
70637
70637
70637
70637
70637
70637
70637
70637
70637
70637
70637
70637.1
70637.1
70637.1
70637.1
70637
70637
70637
70637
70637
70637
70637
70637
70637
70637
70637
70637
70637
70637
70637
70637
70637
70637
70637
70637
70637
70637
70637
70637
70637
70637
70637
70637
70637
70637
70637
70637
70637
70637
70637
70637
70637
70637
70637
70637
70637
70637
70637
70637
70637
70637
70637
70637
70637
70637
70637
70637
70637
70637
70637
70637
70637
70637
70637
70637
70637
70637
70637
70637
70637
70637
70637
70637
70637
70637
70637
70637
70637
70637
70637
70637
70637
70637
70637
70637
70637
70637
70637
70637
70637
70637
70637
70637
70637
70637
70637
70637
70637
70637
70637
70637
70637
70637
70637
70637
70637
70637
70637
70637
70637
70637.1
70637.2
70637.2
70637.3
70637.4
70637.4
70637.3
70637.3
70637.2
70637.2
70637.1
70637.1
70637.1
70637.1
70637.1
70637.1
70637.1
70637.1
70637.1
70637.1
70637
70637
70637
70637
70637
70637
70637
70637
70637
70637
70637
70637
70637
70637
70637
70637
70637
70637
70637
70637
70637
70637
70637
70637
70637
70637
70637
70637
70637
70637
70637
70637
70637
70637
70637
70637
70637
70637
70637
70637
70637
70637
70637
70637
70637
70637
70637
70637
70637
70637
70637
70637
70637
70637
70637
70637
70637
70637
70637
70637
70637
70637
70637
70637
70637
70637
70637
70637
70637
70637
70637
70637
70637
70637
70637
70637
70637
70637
70637
70637
70637
70637
70637
70637
70637
70637
70637
70637
70637
70637
70637
70637
70637
70637
70637
70637
70637
70637
70637
70637
70637
70637.2
70637.5
70638.1
70639.1
70640.4
70641.8
70643.1
70644.1
70644.4
70644.3
70643.6
70642.7
70641.6
70640.5
70639.5
70638.8
70638.2
70637.8
70637.5
70637.3
70637.2
70637.1
70637.1
70637.1
70637
70637
70637
70637
70637
70637
70637
70637
70637
70637
70637
70637
70637
70637
70637
70637
70637
70637
70637
70637
70637
70637
70637
70637
70637
70637
70637
70637
70637
70637
70637
70637
70637
70637
70637
70637
70637
70637
70637
70637
70637
70637
70637
70637
70637
70637
70637
70637
70637
70637
70637
70637
70637
70637
70637
70637
70637
70637
70637
70637
70637
70637
70637
70637
70637
70637
70637
70637
70637
70637
70637
70637
70637
70637
70637
70637
70637
70637
70637
70637
70637
70637
70637
70637
70637
70637
70637
70637
70637
70637
70637
70637
70637
70637
70637
70637
70637
70637
70637.2
70637.8
70639.6
70643.5
70650.2
70660.6
70674.7
70691.5
70708.7
70723.5
70732.2
70733.8
70729.5
70719.2
70706.1
70692
70679.1
70667.8
70659
70652.1
70647.2
70643.5
70640.9
70639.2
70638.1
70637.6
70637.3
70637
70637
70637
70637
70637
70637
70637
70637
70637
70637
70637
70637
70637
70637
70637
70637
70637
70637
70637
70637
70637
70637
70637
70637
70637
70637
70637
70637
70637
70637
70637
70637
70637
70637
70637
70637
70637
70637
70637
70637
70637
70637
70637
70637
70637
70637
70637
70637
70637
70637
70637
70637
70637
70637
70637
70637
70637
70637
70637
70637
70637
70637
70637
70637
70637
70637
70637
70637
70637
70637
70637
70637
70637
70637
70637
70637
70637
70637
70637
70637
70637
70637
70637
70637
70637
70637
70637
70637
70637
70637
70637
70637
70637
70637
70637
70637.1
70637.5
70639.4
70645.6
70659.7
70689.7
70747.8
70850.4
71009.6
71223.9
71467.9
71699.2
71877.9
71955.9
71940.9
71838.5
71661.8
71461.6
71261.4
71091.9
70957.3
70858.8
70785.2
70734
70699.1
70675.5
70660
70649.9
70643.5
70640.1
70637
70637
70637
70637
70637
70637
70637
70637
70637
70637
70637
70637
70637
70637
70637
70637
70637
70637
70637
70637
70637
70637
70637
70637
70637
70637
70637
70637
70637
70637
70637
70637
70637
70637
70637
70637
70637
70637
70637
70637
70637
70637
70637
70637
70637
70637
70637
70637
70637
70637
70637
70637
70637
70637
70637
70637
70637
70637
70637
70637
70637
70637
70637
70637
70637
70637
70637
70637
70637
70637
70637
70637
70637
70637
70637
70637
70637
70637
70637
70637
70637
70637
70637
70637
70637
70637
70637
70637
70637
70637
70637
70637
70637
70637.1
70637.7
70641.5
70654.5
70692.5
70799.1
71066.3
71628.7
72637
74226.3
76474.4
79224.2
82030.7
84396.7
85902.8
86301.1
85685.6
84194.6
82081.5
79835.3
77610.5
75685.1
74113.2
72973.2
72134.8
71560.6
71195.1
70971
70832.4
70745.9
70694.2
70665.8
70637
70637
70637
70637
70637
70637
70637
70637
70637
70637
70637
70637
70637
70637
70637
70637
70637
70637
70637
70637
70637
70637