/*--------------------------------*- C++ -*----------------------------------*\
| =========                 |                                                 |
| \\      /  F ield         | OpenFOAM: The Open Source CFD Toolbox           |
|  \\    /   O peration     | Version:  2112                                  |
|   \\  /    A nd           | Website:  www.openfoam.com                      |
|    \\/     M anipulation  |                                                 |
\*---------------------------------------------------------------------------*/
FoamFile
{
    version     2.0;
    format      ascii;
    arch        "LSB;label=32;scalar=64";
    class       volScalarField;
    location    "0.00355";
    object      k;
}
// * * * * * * * * * * * * * * * * * * * * * * * * * * * * * * * * * * * * * //

dimensions      [0 2 -2 0 0 0 0];

internalField   nonuniform List<scalar> 
13875
(
812.078
3462.68
3540.12
3539.39
3542.54
3540.5
3540.68
3541.27
3541.38
3540.63
3540.58
3541.2
3540.9
3540.38
3540.44
3541.55
3542.53
3541.32
3540.53
3539.62
3542.15
3539.06
3539.98
3462.39
820.323
881.792
2936.7
3012.93
3000.63
3000.9
2997.39
2996.63
2997.12
2997.64
2997.37
2997.52
2997.41
2996.88
2996.82
2996.38
2998.43
2995.87
2997.83
2997.27
2997.36
3000.48
2999.04
3011.5
2935.08
894.208
993.374
2710.94
2777.37
2755.09
2756.58
2753.73
2752.45
2751.92
2745.3
2743.95
2745.61
2745.27
2752.04
2752.74
2751.31
2745.76
2741.49
2745.6
2752.51
2754.41
2757.02
2752.65
2774.33
2707.13
998.044
1091.1
2533.75
2580.92
2561.25
2564.5
2561.87
2560.28
2559.53
2550.16
2549.07
2551.03
2550.51
2559.72
2560.54
2559.18
2550.59
2548.34
2550.85
2560.35
2562.38
2564.9
2558.94
2578.96
2529.5
1093.71
1172.18
2380.52
2413.09
2392.54
2395.65
2393.22
2391.69
2390.49
2380.88
2380.6
2382.05
2381.29
2390.87
2391.87
2390.48
2381.27
2380.09
2381.5
2391.36
2393.91
2396.15
2390.69
2410.32
2375.27
1177.29
1241.11
2237.24
2270.84
2244.51
2248.58
2245.55
2243.58
2241.52
2231.63
2231.86
2232.67
2232.03
2241.82
2243.18
2241.59
2231.51
2231.71
2232.06
2242.73
2246.6
2249.3
2243.38
2267.66
2247.09
1247.34
1321.15
2121.96
2158.22
2119.95
2120.48
2115.85
2112.78
2109.66
2099.57
2100.13
2100.39
2100.16
2109.99
2111.75
2109.68
2098.79
2100.51
2100.13
2111.63
2117.08
2121.26
2119.47
2153.97
2095.67
1323.67
1410.22
2001.22
2073.74
2019.63
2014.17
2005.22
1999.25
1994.26
1983.58
1983.97
1983.83
1983.65
1993.69
1996.22
1993.63
1981.49
1985.2
1984.34
1997.29
2006.08
2014.43
2018.81
2068.03
1992.58
1420.69
1692.29
2029.67
2022.57
1945.37
1924.66
1911.27
1901.96
1894.5
1883.31
1883.51
1883.04
1882.7
1893.08
1896.53
1893.36
1880.15
1885.6
1884.73
1898.77
1911.75
1925.62
1943.37
2018.42
2034.32
1717.63
2511.09
2288.4
2019.96
1900.81
1866.06
1841.64
1827.9
1817.23
1806.87
1806.64
1805.75
1805.3
1815.75
1820.02
1816.68
1804.04
1808.95
1809.17
1822.38
1840.22
1864.81
1898.12
2013.57
2266.94
2528.26
3883.27
3032.24
2160.71
1929.23
1837.84
1801.8
1781.67
1767.64
1758.01
1756.92
1755.71
1755.14
1765.25
1770.02
1767.34
1757.23
1760.27
1762.12
1775.18
1796.96
1836.37
1923.7
2142.3
2948.77
3866.01
5181.82
6435.52
2918.45
2029.33
1900.12
1815.33
1775.6
1755.94
1744.35
1741.57
1740.01
1739.57
1748.34
1753.35
1751.82
1745.61
1748.14
1753.29
1769.62
1810.24
1892.45
2008.42
2843.21
6333.08
5120.56
5066.28
7296.17
7369.11
3634.35
2142.23
1907
1854.07
1828.84
1817.17
1812.7
1811.13
1811.39
1818.6
1822.97
1823.25
1821.15
1825.23
1833.01
1854.12
1915.26
2189.52
3503.54
7054.8
7297.35
5013.77
4836.67
6168.39
7332.35
9502.95
5343.03
2664.04
2313.63
2150.61
2095.78
2076.73
2069.26
2068.34
2074.17
2080.37
2083.62
2089.46
2109.5
2164.15
2336.8
2778.88
5790.05
8771.42
7091.16
6158.08
4855.02
4656.29
5472.17
6229.64
7607.87
6792.73
6048.9
5895.38
4733.53
4666
4704.25
4759.24
4743.77
4783.19
4778.46
4787.77
4744.3
4700.02
4768.52
5926.12
6246.7
6870.18
7246.44
6112.32
5450.82
4763.15
4454.07
4931.24
5712.59
6969.14
7168.59
8067.66
7231.95
6087.06
6388.04
6777.53
6876.83
6895.85
6943.93
6991.67
6936.48
6865.05
6377.02
6050.4
7025.3
8128.63
7249.34
6747.6
5628.27
4894.29
4539.44
4137.23
4664.71
5521.52
6754.83
7128.9
8155.85
6421
5255.46
5180.09
5260.4
5329.75
5335.63
5367.99
5397.63
5381.05
5319.19
5189.2
5309.19
6270.03
8101.11
7311.55
6630.99
5405.12
4535.54
4103.01
3596.23
4609.92
5698.72
6034.02
6171.54
6997.39
5737.58
4756.52
4552.94
4480.27
4474.07
4450.94
4477.92
4501.85
4523.98
4519.62
4582.39
4834.31
5625.55
6803.06
6263.63
6000.96
5783.36
4591.17
3529.76
3035.68
4659.77
5510.02
5366.89
5231.77
5737.97
5365.37
4723.77
4332.25
4040.85
3893.79
3822.87
3829.3
3855.84
3914.97
4027.67
4305.42
4695.8
5216.61
5616.17
5261.24
5407.5
5685.35
4797.28
3022.96
2829.41
5091.84
5054.65
4776.34
4606.11
4929.19
4959.91
4618.52
4205.12
3784.63
3508.4
3376.38
3361.12
3404.86
3526.82
3778.06
4191.21
4580.05
4840.91
4856.58
4652.33
4851.92
5145.96
5135.82
2822.07
3308.25
4518.01
4458.13
4232.47
4107.92
4383.35
4534.07
4331.11
3958.69
3516.56
3177.53
2999.82
2969.93
3032.89
3209.57
3536.3
3965.97
4298.31
4441.73
4345.51
4172.74
4343.42
4589.2
4530.6
3266.4
4629.33
4790.2
4048.32
3819.95
3723.67
3971.23
4122.3
3984.55
3663.53
3234.26
2873.7
2674.4
2633.11
2705.69
2906.5
3256.11
3666.05
3942.12
4038.71
3960.47
3791.77
3927.41
4166.24
5006.45
4730.22
5352.96
5279.46
3742.94
3448.01
3397.78
3606.19
3730.56
3626.21
3348.25
2950.44
2595.31
2390.94
2343.05
2413.72
2615.73
2959.7
3338.22
3572.23
3639.38
3592.24
3453.71
3531.75
3804.34
5538.97
5485.58
5517.66
5252.52
3421.6
3141.83
3102.27
3249.69
3366.41
3285.25
3031.7
2661.78
2331.09
2140.04
2095.09
2163.79
2356.32
2678.34
3027.82
3238.68
3280.51
3227.55
3155.18
3222.3
3476.77
5421.87
5602.62
5589.35
5108.96
3167.18
2898.11
2847.02
2942.61
3047.95
2974.87
2745.3
2408.99
2102.44
1926.05
1885.43
1948.68
2127.58
2429.67
2748.36
2935.15
2970.23
2911.17
2883.89
2970.62
3226.28
5313.77
5661.72
5653.76
5016.01
2981.65
2710.11
2629.65
2686.31
2769.09
2694.17
2486.33
2184.05
1905.56
1744.07
1705.84
1763.56
1925.53
2199.15
2484.9
2653.81
2694.5
2646.99
2644.16
2761.05
3032.27
5169.38
5712.46
5719.96
4907.65
2828.48
2547.06
2446.59
2466.67
2516.5
2435.22
2247.32
1979.24
1730
1586.85
1552.81
1606.01
1753.56
2001.98
2259.2
2412.17
2458.89
2430.64
2452.35
2590.74
2883.89
5108.39
5789.37
5820.12
4833.19
2719.21
2402.5
2298.67
2286.81
2301.81
2213.42
2042.17
1803.18
1581.37
1453.16
1421.27
1469.97
1602.16
1822.22
2051.52
2193.65
2250.63
2250.7
2294.53
2434.76
2758.99
4972.24
5890.77
6015.77
4723.87
2618.47
2272.72
2166.89
2133.7
2115.53
2021.22
1864.3
1650.89
1452.6
1337.36
1307.56
1351.37
1467.85
1661.91
1867.25
2001.12
2067.23
2096.43
2154.66
2292.1
2645.38
4756.08
6002.32
6080.98
4597.96
2530.43
2152.27
2041.68
1995.1
1948.1
1846.68
1699.35
1509.62
1336.86
1235.92
1208.83
1250.15
1355.35
1527.15
1711.24
1839.74
1915.37
1965.6
2030.14
2169.64
2556.67
4653.46
6160.59
6024.16
4482.88
2469.33
2054.7
1929.03
1870.43
1805.99
1701.66
1563.13
1391.97
1238.14
1147.7
1122.58
1160.52
1253.14
1404.65
1571.22
1695.76
1777.84
1842.51
1911.95
2069.16
2479.83
4512.05
6109.42
5984.75
4403.09
2421.43
1986.47
1825.57
1757.74
1683.61
1576.24
1444.91
1289.19
1152.63
1071.04
1047.15
1082.09
1164.58
1297.85
1448.65
1570.07
1658.45
1730.7
1807.46
1993.68
2423.5
4385.07
6011.8
5892.18
4254.61
2399.71
1930.59
1734.92
1651.1
1570.1
1462.94
1338.69
1197.02
1075.11
1002.51
980.566
1013.42
1087.77
1207.51
1346.36
1462.09
1552.15
1629.24
1717.9
1935.61
2398.75
4291.51
5968.29
5854.27
4123.09
2388.4
1898.24
1660.54
1558.55
1470.5
1366.11
1247.75
1117.86
1008.86
942.9
921.884
952.255
1019.28
1125.63
1252.44
1364.71
1455.64
1539.62
1644.92
1898.76
2404.05
4149.82
5895.54
5829.34
4026.15
2339.27
1877.68
1606.05
1476.93
1380.61
1279.99
1169.17
1049.88
949.991
889.862
869.877
897.898
958.496
1055.28
1171.79
1278.21
1368.01
1459.95
1593.79
1884.46
2379.14
4011.73
5831.7
5748.09
3869.59
2259.94
1861.83
1567.45
1407.81
1300.81
1201
1096.15
986.554
897.152
842.627
823.802
850.365
906.46
993.942
1100.92
1202.72
1293.23
1394.76
1558.65
1884.37
2310.94
3904.64
5772.63
5691.45
3743.97
2186.85
1877.38
1542.77
1354.4
1232.31
1132.33
1033.35
932.657
850.528
800.131
782.358
807.228
858.326
938.512
1036.53
1133.1
1225.77
1343.69
1536.96
1910.34
2222.12
3744.16
5689.98
5664.99
3623.61
2117.89
1874.14
1538.02
1314.73
1176.94
1073.11
977.309
883.428
808.837
762.231
745.323
768.875
815.742
887.976
979.11
1073.51
1172.67
1307.37
1541.84
1911.36
2131.56
3603.04
5648.74
5603.13
3487.66
2018.99
1823.02
1541.39
1285.14
1134.39
1021.07
926.338
838.752
770.278
727.334
711.708
734.163
777.541
844.692
929.819
1022.98
1132.53
1282.85
1559.57
1866.93
2033.65
3488.01
5629.19
5565.91
3385.35
1920.95
1768.61
1583.59
1272.38
1102.87
980.254
882.735
799.354
736.206
696.426
681.319
702.429
742.588
804.285
885.482
982.672
1101.32
1274.05
1610.71
1803.43
1924
3375.05
5567.22
5542.53
3315.87
1843.33
1704.89
1595.47
1276.91
1080.43
949.918
846.584
765.055
705.383
667.945
653.613
673.228
710.891
769.095
848.735
951.985
1080.36
1293.85
1630
1729.81
1831.64
3295.39
5519.49
5486.47
3240.01
1761.44
1628.87
1557.12
1303.24
1066.19
924.992
817.589
735.105
677.345
642.118
628.382
647.326
682.992
739.625
820.5
928.656
1076.72
1351.58
1582.62
1651.59
1776.86
3247.25
5490.51
5442.33
3182.04
1703.94
1554.32
1503.03
1351.86
1074.46
906.966
796.844
710.105
652.915
618.503
605.201
623.307
657.754
714.156
798.893
910.601
1097.02
1390.21
1520.1
1572.77
1707.8
3180.27
5434.92
5408.83
3143.98
1676.37
1489.99
1442.29
1355.43
1116.03
898.108
778.928
691.232
632.959
597.967
584.399
602.336
637.306
695.343
781.261
906.33
1158.9
1373.85
1448.66
1504.17
1665.7
3123.17
5391.25
5376.75
3077.6
1630.25
1429.96
1377.1
1314.87
1188.8
907.3
765.377
677.815
618.573
580.907
566.678
585.201
622.352
681.923
770.483
935.419
1216.79
1328.22
1378.35
1446.37
1648.8
3081.26
5359.01
5340.65
3025.95
1612.72
1380.92
1316.48
1270.48
1217.22
967.193
761.652
666.526
608.032
568.905
552.78
572.984
611.024
670.278
770.586
999.361
1211.7
1276.58
1317.65
1394.25
1619.55
3018.6
5331.23
5306.98
2987.18
1606.19
1343.16
1265.99
1221.73
1182.94
1043.18
788.981
659.363
598.041
559.384
542.151
563.278
600.98
663.239
805.204
1065.42
1177.24
1223.31
1267.29
1353.34
1598.08
2964.08
5292.76
5229.52
2914.48
1579.14
1308.29
1221.36
1173.1
1143.29
1066.37
855.789
664.861
590
550.82
533.595
554.612
593.807
676.81
886.769
1073.43
1139.49
1176.3
1225.07
1321.77
1589.94
2915.34
5208.71
5094.22
2828.58
1554.32
1277.25
1183.41
1130.82
1099.27
1041.46
924.854
702.659
588.738
543.498
526.268
546.973
593.806
721.254
941.845
1047.25
1097.52
1134.87
1189.03
1289.77
1561.51
2826.24
5072.69
4706.4
2683.25
1523.84
1244.75
1149.26
1093.55
1057.22
1010.65
940.522
779.833
609.243
541.224
522.311
544.19
617.274
796.668
939.779
1014.95
1057.33
1099
1155.69
1254.73
1523.99
2672.82
4694.14
364.868
514
571.098
586.277
590.153
594.613
598.512
605.604
614.597
626.365
640.674
657.205
675.133
693.112
710.755
728.011
747.579
768.114
788.423
808.571
829.934
853.056
881.053
911.388
943.765
981.332
1024.67
1076.18
1061.72
793.575
318.68
494.413
554.984
572.173
578.629
586.044
593.309
603.602
615.1
628.63
644.627
662.912
681.455
699.596
716.86
734.211
750.551
769.235
787.217
804.336
822.745
844.537
868.623
896.487
926.094
962.324
1022.34
1171.42
1505.53
738.556
304.713
488.555
546.123
563.351
571.074
580.179
590.29
604.089
619.65
637.328
655.248
674.389
693.093
710.84
727.407
741.737
756.488
771.494
790.008
807.204
826.253
847.484
869.943
893.317
922.529
962.287
1067.7
1443.61
1757.03
757.24
304.227
487.604
543.227
561.317
569.587
580.925
594.163
611.486
630.795
651.38
671.933
691.478
710.206
727.917
743.37
756.865
770.074
784.325
801.039
821.354
841.261
862.56
884.894
907.587
939.127
1004.56
1264.05
1870.41
1895.15
814.46
304.451
488.211
544.334
562.471
572.449
586.211
602.825
623.467
646.046
669.241
692.056
712.799
731.782
749.077
764.297
777.46
789.617
803.196
819.307
840.382
861.035
882.846
903.575
929.397
970.342
1117.94
1710.38
2069.48
1975.16
874.264
305.759
490.386
546.303
564.899
577.088
593.904
614.303
638.385
664.108
690.026
715.036
737.496
757.424
774.597
789.165
802.041
813.446
826.523
842.317
862.429
883.51
905.371
926.082
956.606
1035.45
1406.38
2102.31
2149.32
2009.88
918.968
308.22
493.387
549.189
568.99
584.348
604.785
629.386
657.209
686.245
715.134
741.859
765.926
786.583
803.025
817.607
830.312
840.859
852.498
867.877
886.821
908.47
929.105
952.824
996.946
1201.38
1958.67
2253.57
2191.36
2005.77
953.655
311.16
497.656
553.76
576.109
595.738
620.608
649.955
681.726
713.609
744.847
773.358
797.73
818.099
834.42
848.252
860.354
870.845
881.667
895.53
912.783
934.411
953.132
984.02
1082.49
1617.44
2241.96
2308
2204.37
1983.49
989.892
314.128
503.254
560.7
586.837
611.806
642.152
676.335
711.374
745.498
778.175
807.022
831.135
851.048
866.804
879.315
890.847
901.205
910.541
922.469
938.6
959.454
980.542
1029.79
1306.09
2131.17
2337.14
2327.01
2201.4
1951.93
1023.73
316.874
510.603
570.514
601.505
632.685
668.545
706.785
744.121
779.406
812.006
840.407
863.509
882.484
898.113
908.966
918.838
928.06
936.405
946.559
961.673
979.109
1009.62
1134.05
1801.13
2321.68
2365.61
2323.42
2185.86
1919.21
1051.64
320.639
520.309
583.941
620.692
658.319
698.759
739.431
777.31
811.999
843.165
870.055
891.844
909.931
923.75
932.83
940.792
948.759
956.113
965.798
978.368
996.494
1053.56
1403.48
2204.42
2365.24
2362.16
2304.5
2160.86
1885.51
1073.09
325.867
532.974
601.6
644.464
687.503
730.337
771.466
807.544
839.854
868.62
892.433
911.61
928.115
939.985
947.382
953.78
960.81
967.856
975.536
986.099
1014.26
1163.77
1888
2320.71
2359.31
2336.74
2273.92
2129.04
1845.96
1087.51
333.523
549.352
623.7
671.399
717.25
760.346
798.686
830.927
858.403
882.548
902.373
918.806
933.388
943.481
949.674
954.686
961.185
968.135
974.785
986.362
1047.09
1439.01
2185.97
2320.33
2324.13
2293.18
2238.02
2089.07
1799.63
1094.78
342.838
569.6
648.745
699.229
744.512
783.487
815.526
841.209
862.019
880.478
896.36
910.103
922.666
931.127
936.852
942.256
948.875
955.553
962.438
986.711
1142.96
1858.4
2244.16
2279.87
2272.36
2238.42
2194
2038.7
1747.41
1095.04
355.519
593.868
674.995
724.246
764.377
794.4
816.918
833.914
847.044
859.684
871.557
882.198
893.387
901.853
909.488
916.786
923.84
930.438
942.888
998.897
1381.55
2080.14
2203.8
2212.61
2206.16
2179.58
2139.17
1979.45
1689.57
1089.49
369.707
620.375
699.108
741.496
771.179
789.343
800.19
807.444
813.567
820.901
829.375
838.228
849.083
858.955
869.493
879.939
887.42
897.122
920.393
1060.26
1718.74
2090.59
2128.71
2133.06
2128.4
2115.94
2076.04
1912.95
1629.44
1079.68
389.004
647.975
717.733
745.583
759.963
766.571
767.282
766.709
767.029
770.556
775.49
783.176
794.114
805.9
818.656
831.075
841.907
857.93
905.059
1230.19
1896.66
2016.53
2035.24
2046.27
2046.84
2044.64
2005.81
1842.38
1568.89
1066.41
407.703
670.188
722.842
733.916
733.444
731.296
725.469
719.266
714.998
715.024
718.094
724.799
735.243
747.329
759.485
773.724
790.28
815.385
925.574
1492.43
1880.05
1917.33
1934.7
1953.84
1963.41
1969.17
1931.35
1770.13
1508.51
1050.39
429.979
686.397
718.47
708.846
701.877
697.2
690.317
681.34
674.08
670.032
670.448
674.115
681.924
690.888
702.144
717.433
737.731
780.737
1028.51
1666.82
1791.32
1809.68
1834.4
1858.37
1881.83
1892.33
1854.59
1697.3
1448.63
1032.08
451.236
695
700.584
691.082
692.41
692.251
688.354
676.513
665.015
654.006
649.166
645.934
645.153
646.925
655.069
669.898
693.033
783.206
1254.6
1650.78
1684.85
1704.45
1737.73
1767.84
1800.13
1814.8
1776.55
1624.39
1390.54
1012.13
474.948
705.448
706.805
705.81
733.64
744.14
750.949
730.656
709.836
683.966
666.928
646.886
631.523
624.695
627.407
640.048
673.18
884.989
1441.16
1581.58
1588.39
1611.04
1645.24
1685.34
1720.87
1738.04
1699.09
1553.58
1335.23
991.083
513.951
766.233
776.346
846.28
892.885
906.497
902.383
859.435
814.695
761.822
722.69
687.148
658.078
638.086
631.449
636.774
716.009
1153.57
1446.2
1500.2
1504.17
1526.8
1562.67
1607.79
1647.06
1664.62
1624.38
1486.57
1283.29
969.575
595.964
868.517
1011.39
1090.69
1137.92
1153.62
1136.36
1059.87
983.105
897.601
834.961
784.411
739.442
707.888
688.047
728.39
1005.49
1314.41
1410.31
1431.61
1431.45
1450.03
1491.93
1537.78
1577.82
1594.89
1554.3
1423.88
1234.37
947.616
711.198
1397.85
1374.28
1351.88
1405.68
1434.14
1419.31
1328.61
1223.51
1113.4
1016.99
967.777
950.877
942.491
974.733
1175.33
1343.01
1362.94
1380.94
1377.94
1366.13
1386.6
1427.6
1474.97
1514.8
1529.93
1489.08
1365.04
1188.9
925.074
958.658
2073.59
1709.27
1601.28
1667.11
1692.47
1706.65
1647.71
1552.68
1426.16
1358.72
1435.97
1620.45
1721.71
1737.69
1725.26
1537.69
1418.75
1368.42
1333.4
1309.8
1332.9
1374.26
1419.97
1457.44
1469.27
1429.24
1310.29
1146.63
902.285
791.274
1056.11
1075.12
1024.14
980.767
943.186
910.524
880.052
852.073
829.059
807.751
787.698
767.627
746.955
727.352
710.152
692.55
674.519
656.88
640.469
626.266
614.571
605.646
598.624
594.786
590.379
586.51
571.312
514.171
365.046
737.132
1502.04
1169.34
1021.42
961.497
925.181
895.533
867.677
843.324
821.593
803.333
786.225
768.451
749.857
733.367
716.172
699.11
681.101
662.562
644.445
628.423
615.207
604.064
593.867
586.585
579.054
572.558
555.302
494.609
318.773
755.609
1756.56
1440.69
1066.17
961.26
921.441
892.305
868.871
846.337
825.075
806.097
788.905
770.672
755.727
741.348
726.901
710.409
692.8
674.149
655.207
637.39
620.38
604.987
591.182
581.011
571.891
564.014
546.612
488.925
304.818
813.064
1895.61
1871.17
1262.55
1003.4
938.067
906.501
883.732
861.502
840.188
820.264
800.006
783.424
769.385
756.473
743.107
727.682
710.114
691.571
672.325
652.464
631.919
612.562
595.262
581.993
570.625
562.338
544.071
488.339
304.455
873.574
1976.59
2071.87
1709.95
1116.94
969.29
928.273
902.49
881.801
860.036
839.377
818.411
802.345
789.009
777.055
764.12
749.159
732.229
713.52
693.154
670.572
647.369
624.626
604.03
587.44
573.63
563.653
545.514
489.174
304.797
919.156
2012.86
2152.13
2103.79
1406.04
1034.44
955.477
924.914
904.282
882.473
861.426
841.459
825.698
812.853
801.913
789.281
775.013
758.263
738.866
716.596
691.634
665.495
639.563
615.506
595.1
578.313
566.141
547.518
491.52
306.321
954.155
2009.87
2194.72
2256.31
1960.07
1200.87
995.84
951.644
927.924
907.389
885.847
867.021
851.799
840.637
830.126
817.763
803.642
787.82
767.832
743.714
716.858
687.637
658.392
630.626
606.034
585.585
570.212
550.384
494.554
308.981
990.91
1988.17
2208.17
2311.23
2243.99
1618.9
1081.64
982.833
951.931
933.321
911.908
894.843
881.192
870.936
860.454
848.507
835.496
819.929
800.109
775.625
746.694
715.127
682.978
651.283
622.033
597.066
577.368
554.886
498.691
311.804
1025.03
1956.64
2205.42
2330.42
2339.56
2133.07
1306.34
1028.71
979.358
958.367
937.782
921.876
910.704
901.662
891.622
880.364
868.595
853.432
833.502
809.396
780.115
747.272
712.949
677.858
643.76
613.382
588.257
561.833
504.232
314.776
1052.96
1923.4
2189.79
2326.97
2368.46
2323.75
1803.29
1133.44
1008.45
977.751
960.964
946.376
937.05
928.872
920.188
911.205
900.625
884.833
865.352
841.956
813.615
781.387
746.294
708.905
670.541
634.574
603.149
571.733
511.528
317.56
1074.24
1889.04
2164.42
2307.98
2365.19
2367.78
2206.35
1404.29
1052.64
995.633
977.798
965.652
956.998
949.911
942.579
935.574
926.595
912.346
893.961
871.549
844.453
813.837
779.831
742.245
701.309
660.56
622.609
585.325
521.269
321.299
1088.61
1848.92
2132.12
2277.12
2339.83
2362.22
2323.07
1890.45
1163.67
1013.61
985.405
975.978
968.872
962.297
956.024
950.471
942.853
930.316
913.671
893.806
869.657
841.48
809.982
774.284
733.292
690.081
646.682
603.204
534.129
326.755
1095.78
1802.07
2091.82
2240.76
2296.3
2327.39
2323.24
2188.52
1440.67
1046.93
986.97
975.969
969.567
963.595
958.016
953.022
946.217
935.119
920.477
903.493
883.322
859.434
832.736
800.997
762.789
719.854
673.807
625.471
550.733
334.558
1095.9
1749.5
2041.22
2196.58
2241.48
2276.07
2283.43
2247.29
1861.59
1143.7
987.727
964.099
957.812
952.038
946.303
940.715
934.013
923.884
911.046
896.828
880.765
862.416
841.952
816.997
785.115
746.486
701.492
650.732
571.307
344.135
1090.23
1691.53
1981.87
2141.83
2182.94
2210.35
2217.02
2207.41
2083.46
1384.34
1000.44
945.765
934.123
927.568
920.608
911.929
903.575
893.718
882.114
870.992
859.016
846.702
833.521
816.922
795.048
765.359
725.888
676.97
595.782
357.137
1080.44
1631.38
1915.45
2078.93
2119.73
2133.17
2138.63
2133.33
2094.43
1723.47
1062.47
923.313
900.148
891.04
881.916
869.946
859.053
848.37
836.981
828.117
819.416
812.037
805.65
798.488
788.559
770.749
742.271
700.881
622.33
371.476
1067.18
1570.85
1845
2008.93
2048.8
2052.26
2052.92
2041.13
2020.79
1899.39
1234.19
907.982
860.377
844.899
832.049
817.689
804.229
792.288
780.94
773.547
767.874
764.275
763.731
764.422
764.684
758.811
745.471
718.917
649.879
390.465
1051.23
1510.65
1772.89
1934.76
1973.56
1969.11
1961.25
1941.57
1922.14
1882.46
1496.56
928.566
816.985
790.511
772.946
758.007
745.013
732.898
722.659
716.674
713.159
713.286
716.98
722.875
729.154
732.075
733.288
723.498
671.752
408.947
1032.9
1450.76
1700.12
1858.43
1896.97
1887.65
1865.75
1842.4
1815.6
1794.06
1667.72
1032.38
781.617
736.653
715.102
700.062
689.009
679.522
672.605
669.324
668.478
672.691
681.348
689.629
696.316
701.081
708.559
719.609
688.257
431.217
1012.87
1392.57
1627.13
1780.76
1819.66
1805.89
1774.69
1746.07
1711.54
1688.53
1651.08
1257.22
783.473
691.605
667.598
652.808
645.192
643.371
645.127
648.5
652.718
664.482
678.728
692.133
695.164
695.403
692.636
701.639
696.356
452.459
991.869
1337.38
1556.46
1703.35
1742.8
1726.57
1691.57
1652.33
1618.18
1592.31
1580.02
1439.3
886.957
671.755
639.173
627.166
625.435
632.209
650.327
668.418
684
709.804
733.959
759.266
755.653
744.081
712.067
708.963
706.654
476.16
970.417
1285.37
1489.42
1628.93
1669.4
1652.38
1613.26
1568.23
1532.83
1507.92
1498.86
1441.76
1157.16
719.671
639.008
633.558
642.569
662.46
697.501
733.068
771.557
821.922
867.099
911.762
919.892
911.74
863.658
786.443
770.868
515.101
948.552
1236.29
1426.54
1558.6
1599.58
1582.96
1543.03
1496.57
1454.5
1434.93
1430.66
1405.1
1312.98
1023.35
744.576
701.195
721.131
749.987
800.508
852.169
913.777
1004.14
1084.72
1155.54
1171.61
1157.27
1113.47
1035.78
880.71
600.343
926.096
1190.24
1367.43
1492.74
1534.38
1519.3
1479.51
1432.19
1390.73
1368.54
1377.81
1377.57
1362.78
1358
1220.19
1038.57
999.024
989.327
998.182
1038.25
1132.5
1246.25
1361.73
1451.39
1460.22
1427.4
1370.89
1401.45
1421.66
716.67
903.344
1147.4
1312.4
1432.24
1473.31
1461.53
1423.92
1377.83
1335.55
1312.11
1334.25
1366.6
1422.02
1557.48
1762.74
1818.32
1859.24
1766.79
1547.57
1419.31
1454.43
1571.46
1666.23
1725.9
1715.56
1691.05
1620.13
1725.58
2082.83
965.856
243.934
244.238
244.553
244.867
245.18
245.494
245.807
246.12
246.433
246.746
247.059
247.372
247.685
247.997
248.31
248.622
248.935
249.247
249.559
249.871
250.183
250.495
250.807
251.123
251.951
291.635
1070.86
2343.22
3204.58
3730.84
4117.27
4436.03
4669.38
4799.93
4782.48
4669.18
4532.43
4403.39
4285.52
4153.18
3998.61
3865.58
3742.66
3625.44
3519.89
3426.2
3348.51
3285.99
3225.32
3167.51
3109.92
3043.56
2961.23
2865.1
2754.64
2630.19
2495.89
2355.11
2214.14
2080.66
1959.18
1847.85
1746.39
1653.87
1568.55
1490.19
1419.1
1354.48
1295.27
1241
1190.99
1144.7
1101.86
1062.36
1025.82
992.09
961.142
932.253
905.106
880.194
857.682
837.434
819.119
802.414
786.973
772.814
759.766
747.71
736.595
726.348
716.856
708.072
699.995
692.622
685.987
680.166
675.195
671.051
667.72
665.205
663.561
662.815
662.948
663.865
665.491
667.779
670.732
674.338
678.544
683.361
688.889
695.142
702.127
709.805
718.315
727.892
738.904
751.648
766.144
781.84
799.04
817.757
837.757
858.849
880.855
425.214
425.484
425.732
425.972
426.209
426.445
426.681
426.916
427.15
427.384
427.617
427.85
428.081
428.312
428.543
428.773
429.002
429.231
429.459
429.686
429.913
430.139
430.365
430.603
432.212
545.584
2505.31
5519.85
6220.1
5670.58
5251.07
5179.22
5158.88
5034.01
4834.81
4605.91
4399.56
4217.22
4073.96
3977.21
3905.9
3839.29
3779.91
3732.36
3693.16
3666.62
3659.6
3657.24
3662.14
3671.48
3673.32
3655.05
3599.21
3505.15
3369.67
3203.37
3024.26
2844.63
2680.55
2529.47
2384.89
2251.66
2129.92
2020.25
1923
1836.64
1759.88
1691.32
1629.35
1572.36
1519.22
1469.48
1422.51
1378.41
1337.39
1299.83
1264.72
1231.3
1198.76
1167.35
1139.08
1112.91
1089.4
1067.9
1047.21
1027.37
1008.65
991.422
975.622
960.488
945.76
931.769
918.911
907.024
896.012
886.044
877.31
869.807
863.436
858.069
853.523
849.692
846.533
844.28
842.961
842.463
842.792
843.919
845.613
848.027
851.66
856.369
861.822
868.079
875.788
885.531
898.326
914.172
932.418
953.184
977.438
1005.1
1036.32
1070.87
1108.05
483.101
483.246
483.377
483.503
483.627
483.75
483.872
483.994
484.115
484.235
484.355
484.474
484.592
484.71
484.827
484.944
485.06
485.175
485.29
485.404
485.518
485.631
485.743
485.864
486.761
554.548
2060.32
5007.05
6336.26
6083.8
5906.17
5716.95
5278.06
4876.2
4561.45
4330.07
4166.38
4038.46
3984.72
3978.88
4000.03
4038.09
4072.49
4104.86
4146.66
4207.26
4290.03
4387.64
4484.43
4574.75
4644.9
4676.51
4645.25
4563.8
4438.69
4282.79
4105.38
3885.89
3615.61
3336.68
3088.03
2872.68
2681.09
2506.55
2353.83
2220.92
2105.16
2004.31
1916.47
1837.68
1765.89
1699.99
1639.68
1585
1534.44
1487.89
1445.09
1404.81
1366.47
1329.84
1295.98
1265.86
1239.33
1214.43
1190.47
1167.92
1146.75
1127.04
1109.24
1092.95
1077.56
1062.58
1048.26
1034.88
1022.47
1011.02
1000.74
991.934
984.546
978.423
973.242
968.652
964.649
961.301
958.808
957.301
956.825
957.275
958.463
960.474
963.57
967.866
973.068
979.244
987.339
998.21
1012.54
1029.99
1050.04
1074.1
1102.37
1135.16
1172.32
1214.35
1261.63
501.209
501.264
501.313
501.36
501.406
501.451
501.496
501.54
501.584
501.628
501.671
501.714
501.756
501.799
501.84
501.882
501.923
501.964
502.004
502.045
502.084
502.124
502.163
502.203
502.278
505.426
693.097
2887.04
5731.41
6854.07
6460.04
5817.75
5291.56
4842.46
4465.06
4182.99
3956.2
3841.13
3794.94
3792.56
3813.85
3869.4
3956.04
4077.16
4237.56
4439.79
4686.43
4987.45
5341.86
5739.08
6133.76
6496.06
6743.9
6707.71
6392.57
6121.12
5800.43
5470.14
5063.14
4617.48
4191.15
3805.21
3460.75
3173.04
2941.85
2746.23
2574.12
2424.68
2294.68
2184.53
2090.55
2006.58
1928.05
1855.95
1789
1725.76
1669.11
1617.99
1571.14
1526.87
1484.83
1446.39
1411.72
1380.68
1351.3
1323.86
1298.07
1273.65
1251.21
1230.68
1212.05
1194.56
1178.3
1163.42
1149.71
1136.96
1125.41
1115.58
1107.17
1100.12
1094.1
1088.57
1083.61
1079.17
1075.45
1072.71
1071.05
1070.3
1070.34
1071.25
1073.04
1075.74
1078.7
1082.7
1089.7
1100.61
1114.57
1130.94
1150.7
1175.57
1205.08
1239.4
1279.11
1324.89
1376.82
505.828
505.844
505.857
505.87
505.882
505.894
505.906
505.918
505.93
505.941
505.953
505.964
505.975
505.986
505.997
506.008
506.019
506.029
506.039
506.05
506.06
506.07
506.08
506.093
506.23
512.843
789.496
3135.7
5299.36
5194.71
4885.59
4764.99
4806.8
4569.48
4325.87
4129.91
3973.28
3824.93
3695.36
3691.19
3731.17
3833.97
4007.83
4269.99
4646.69
5157.02
5818
6667.99
7741.82
9166.35
10917
12724.3
13929.5
13999.9
13157.2
11577.6
10052.2
8713.9
7536.85
6662.73
5939.39
5326.74
4810.78
4327.63
3878.49
3503.21
3190.78
2942.51
2753.97
2597.23
2456.22
2332.26
2226.11
2131.33
2045.67
1968.2
1898.43
1835.58
1777.42
1724.08
1676
1631.02
1588.15
1548.07
1510.49
1475.38
1442.79
1412.09
1384.15
1358.3
1335.55
1314.3
1293.71
1274.32
1256.55
1240.52
1226.05
1213.6
1203.07
1194.16
1186.56
1179.73
1173.5
1167.95
1163.28
1159.6
1156.78
1154.59
1153.28
1152.37
1152.04
1152.02
1151.95
1152.97
1157.48
1164.78
1174.51
1187.22
1204.35
1226.4
1253.51
1285.9
1323.59
1367.24
1417.58
506.77
506.773
506.776
506.779
506.781
506.784
506.786
506.789
506.791
506.793
506.796
506.798
506.8
506.802
506.804
506.807
506.809
506.811
506.813
506.815
506.817
506.819
506.822
506.875
509.322
633.418
2159.35
4547.82
4429.63
4002.5
3644
3452.5
3502.11
3806.9
4061.26
4000.4
3903.36
3837.17
3780.44
3714.14
3764.75
3916.74
4205.36
4701.44
5431.72
6414.41
7731.43
9490.92
11666.1
14014.7
16163
18108.7
19744.2
20674.7
20730.5
19940.1
17862
15115.5
11803
9302.29
7807.09
6928.95
6255.13
5587.52
4994.13
4503.23
4078.31
3706.62
3397.61
3137.18
2922.56
2745.59
2590.28
2453.77
2333.03
2225.73
2129.68
2043.91
1968.32
1902.36
1844.17
1791.21
1742.03
1695.95
1652.12
1611.09
1572.3
1535.95
1503.46
1474.65
1446.85
1420.43
1395.4
1372.09
1351.5
1332.93
1316.33
1301.73
1289.09
1278.02
1268.14
1258.97
1250.36
1242.74
1236.29
1230.74
1225.78
1221.22
1217.28
1213.54
1209.53
1205.02
1200.85
1197.83
1196.76
1197.58
1201.61
1209.47
1221.76
1238.73
1260.9
1288.5
1321.83
1363.26
1409.94
506.926
506.927
506.928
506.928
506.928
506.929
506.929
506.93
506.93
506.93
506.931
506.931
506.931
506.932
506.932
506.933
506.933
506.933
506.934
506.934
506.934
506.935
506.955
507.894
562.08
1531.78
3959.82
4199.64
3798.32
3405.3
3079.33
2840.82
2709.56
2729.05
2969.25
3423.35
3596.26
3642.32
3693.43
3769.5
3834.75
4065.01
4469.56
5107.11
5992.34
7206.94
8838.79
10525.4
11923.4
13303.1
14950
17117
20191.1
24463.5
29737.2
35179.6
37906.7
33586.9
25587.2
17455.9
12023.6
9262.04
7816.6
6819.63
6033.37
5405.53
4890.99
4482.7
4128.53
3816.61
3540.52
3280.37
3050.72
2858.2
2692.24
2546.49
2416.97
2301.53
2201.2
2114.16
2037.31
1969.87
1909.71
1854.74
1802.71
1753.8
1707.57
1664.35
1625.85
1592.7
1559.27
1527.94
1499.06
1472.23
1445.35
1420.49
1398.45
1379.92
1364.42
1350.79
1338.93
1328.26
1318.06
1308.75
1300.63
1293.13
1285.37
1277.85
1270.65
1262.14
1252.92
1242.71
1234.41
1226.31
1218.7
1212.7
1209.52
1210.77
1216.49
1227.03
1243.6
1266.44
1296.2
1333.5
1375.64
506.948
506.949
506.949
506.949
506.949
506.949
506.949
506.949
506.949
506.949
506.949
506.949
506.949
506.949
506.949
506.949
506.949
506.949
506.949
506.949
506.95
506.956
507.238
524.149
998.162
3276.55
4096.24
3783.64
3392.48
3057.9
2779.3
2555.32
2387.06
2290.29
2297.47
2498.97
2970.9
3339.58
3541.45
3740.38
3955.09
4220.75
4646.21
5194.97
5966.6
6982.79
7940.23
8973.79
10085.7
11527
13428.7
15993.1
19631.6
24771.1
31292.1
38658.8
46597.5
52870.6
48863.4
36016.7
22760
14471.8
10539.5
8487.87
7215.7
6325.14
5688.16
5196.96
4791.36
4455.2