/*--------------------------------*- C++ -*----------------------------------*\
| =========                 |                                                 |
| \\      /  F ield         | OpenFOAM: The Open Source CFD Toolbox           |
|  \\    /   O peration     | Version:  2112                                  |
|   \\  /    A nd           | Website:  www.openfoam.com                      |
|    \\/     M anipulation  |                                                 |
\*---------------------------------------------------------------------------*/
FoamFile
{
    version     2.0;
    format      ascii;
    arch        "LSB;label=32;scalar=64";
    class       volScalarField;
    location    "0.0029";
    object      nut;
}
// * * * * * * * * * * * * * * * * * * * * * * * * * * * * * * * * * * * * * //

dimensions      [0 2 -1 0 0 0 0];

internalField   nonuniform List<scalar> 
13875
(
0.0511666
0.0366242
0.0343763
0.0343198
0.0342612
0.0343258
0.034328
0.0343111
0.0342893
0.034284
0.0342954
0.0342828
0.0343283
0.0343476
0.034298
0.0342651
0.0342999
0.0342946
0.0343241
0.0343319
0.03427
0.0343302
0.0343873
0.0365687
0.0514239
0.0532611
0.0341193
0.0322329
0.0320984
0.0320209
0.0320636
0.0320583
0.0320442
0.0320371
0.0320397
0.0320545
0.0320398
0.0320727
0.0320896
0.0320529
0.0320272
0.0320536
0.0320404
0.0320607
0.0320707
0.0320265
0.0320974
0.0322328
0.0340494
0.05364
0.0564567
0.0335619
0.0318135
0.0315839
0.0315143
0.031554
0.0315433
0.0315204
0.0314631
0.0314656
0.0314884
0.0314853
0.031562
0.0315758
0.0314954
0.0314556
0.0314792
0.0314906
0.0315425
0.0315617
0.0315198
0.0315733
0.031798
0.033491
0.0566012
0.0590714
0.0332332
0.0314997
0.0312671
0.0312082
0.0312431
0.0312286
0.0312029
0.0311225
0.0311266
0.0311565
0.0311611
0.031239
0.0312559
0.0311694
0.031118
0.0311409
0.0311765
0.0312281
0.0312499
0.0312126
0.0312554
0.0314876
0.0331694
0.0591523
0.0611279
0.0330045
0.0312563
0.0309927
0.0309321
0.0309617
0.0309456
0.0309163
0.0308325
0.0308369
0.0308677
0.0308727
0.0309494
0.0309675
0.0308797
0.0308303
0.0308523
0.0308912
0.0309442
0.0309677
0.0309354
0.0309824
0.0312329
0.0329228
0.0612699
0.0628228
0.0328496
0.0311001
0.0307614
0.0307006
0.0307189
0.0306974
0.0306614
0.0305718
0.0305751
0.0306057
0.0306122
0.0306865
0.0307105
0.0306179
0.0305691
0.0305917
0.030637
0.0306944
0.0307248
0.0307036
0.0307552
0.0310614
0.0328286
0.0629813
0.0648332
0.0330755
0.0311151
0.0306247
0.0305214
0.0305174
0.0304832
0.0304374
0.0303437
0.0303425
0.0303725
0.0303818
0.0304516
0.0304814
0.0303856
0.0303371
0.0303614
0.0304166
0.030481
0.0305218
0.0305252
0.0306297
0.0311186
0.0330786
0.0648751
0.0671199
0.0339486
0.031443
0.0306512
0.0304508
0.0303909
0.0303273
0.0302623
0.0301627
0.0301484
0.0301764
0.0301882
0.0302548
0.0302918
0.0301935
0.0301428
0.0301739
0.0302421
0.0303223
0.0303907
0.0304464
0.0306407
0.0314003
0.0339029
0.0673707
0.0736836
0.0363116
0.0320672
0.0308642
0.0304709
0.030348
0.0302454
0.030153
0.0300467
0.0300164
0.0300393
0.0300531
0.0301178
0.0301622
0.0300642
0.0300106
0.0300521
0.030133
0.0302377
0.0303431
0.0304678
0.0308239
0.031957
0.0360257
0.0742306
0.0830444
0.0385385
0.0327925
0.0312015
0.0306824
0.0304299
0.0302736
0.0301481
0.0300424
0.0300036
0.0300165
0.0300279
0.0300903
0.0301399
0.0300536
0.0300027
0.0300444
0.0301306
0.0302587
0.0304168
0.030662
0.0311634
0.032677
0.0381642
0.0835744
0.0907775
0.0442136
0.0347487
0.0322046
0.0311405
0.0307375
0.0305035
0.0303387
0.0302313
0.0301878
0.0301883
0.0301902
0.0302483
0.0302978
0.0302359
0.0301982
0.0302359
0.0303229
0.0304799
0.0306985
0.0311111
0.0321163
0.0345538
0.0434362
0.0895142
0.0947966
0.055172
0.0411414
0.0340473
0.0325397
0.0316115
0.0311537
0.0309266
0.0307928
0.0307362
0.0307215
0.0307094
0.0307542
0.0308056
0.0307731
0.0307635
0.030814
0.0309284
0.0311442
0.0315816
0.0324481
0.033779
0.0405311
0.0539483
0.0943332
0.0864653
0.0664592
0.0560324
0.0431593
0.0357929
0.0334493
0.032828
0.0324943
0.032376
0.0323066
0.0322833
0.0322697
0.0322991
0.0323495
0.0323435
0.0323598
0.0324345
0.0325532
0.0328655
0.0336099
0.0362158
0.0431861
0.0538938
0.066653
0.0866981
0.0794235
0.0648083
0.0609094
0.0726287
0.0458685
0.0410945
0.0389701
0.0371844
0.0366179
0.036387
0.0363355
0.0362913
0.0363753
0.0364022
0.0364482
0.0365183
0.0368183
0.0374678
0.0393924
0.0420799
0.047975
0.0703742
0.059788
0.0656185
0.0819106
0.0755444
0.0642289
0.0594403
0.0667246
0.0590534
0.0549489
0.0558452
0.050742
0.0488229
0.0481637
0.0480344
0.0479835
0.047812
0.0479672
0.0481289
0.0481849
0.048874
0.0510582
0.0569925
0.0554821
0.0591042
0.0662014
0.0587529
0.0647207
0.0755461
0.0682612
0.0636698
0.0607837
0.0675318
0.0666304
0.0766101
0.0754942
0.0660859
0.0682852
0.0696961
0.0703032
0.0706644
0.0702703
0.0704333
0.0703629
0.0698182
0.0676592
0.0653283
0.0741288
0.0784048
0.0672582
0.0677166
0.0597255
0.0636557
0.0681906
0.0659733
0.0650719
0.0646269
0.0722523
0.0723503
0.0837939
0.0745824
0.062773
0.0645875
0.0644799
0.0655356
0.0654515
0.0655131
0.0653122
0.0657282
0.0648096
0.0640784
0.0621294
0.0721161
0.0867153
0.0730058
0.0722117
0.0644234
0.0649236
0.0663012
0.0622629
0.0689254
0.070044
0.0705534
0.0691512
0.0790649
0.07282
0.0629056
0.0630694
0.0627133
0.0630277
0.0626224
0.0627437
0.0625323
0.0632178
0.0629328
0.0626191
0.062685
0.0720291
0.0802826
0.0692273
0.0708307
0.0702297
0.0690118
0.0623247
0.0557997
0.0709569
0.0719864
0.0686203
0.065233
0.0711364
0.0717585
0.0660574
0.0635429
0.06188
0.0610908
0.0603009
0.0602647
0.0601089
0.0610552
0.0616377
0.0627826
0.0654363
0.0717141
0.0720922
0.0651293
0.0687496
0.071674
0.071577
0.0567799
0.0529669
0.0713929
0.0690172
0.0660656
0.0628676
0.0662107
0.0695639
0.0675694
0.0644012
0.0615572
0.0596887
0.0583454
0.0580769
0.0582034
0.0596292
0.0613278
0.0639449
0.0673553
0.0696987
0.0666758
0.0629989
0.0663126
0.0689273
0.0703925
0.0523518
0.062135
0.0673377
0.065211
0.0630524
0.0605587
0.0632261
0.0673009
0.0669639
0.0639911
0.0606879
0.058121
0.0562739
0.0558296
0.0562623
0.0582035
0.0606751
0.0638466
0.0669583
0.0674437
0.0635956
0.0608874
0.0634247
0.0647765
0.0660597
0.0608496
0.0784792
0.0700313
0.0629687
0.0608732
0.0587093
0.0611355
0.0651104
0.0654686
0.0628068
0.0593064
0.0563106
0.0541244
0.0535283
0.054159
0.0564266
0.0593329
0.0626921
0.0654282
0.0652466
0.061589
0.0591099
0.0612368
0.0622367
0.0687957
0.0782412
0.0925498
0.0757349
0.0616908
0.0587302
0.0569663
0.0592149
0.0629623
0.0635752
0.0611357
0.0575943
0.0543617
0.0519673
0.0512617
0.0519454
0.0543707
0.0574885
0.0608632
0.0634
0.0630516
0.0596629
0.057306
0.0589699
0.0607623
0.0745876
0.0934533
0.101845
0.0772331
0.0601099
0.0568151
0.0553337
0.0572006
0.0607841
0.0615267
0.0590728
0.0554942
0.0522256
0.0497917
0.0490926
0.0498298
0.0523012
0.0554566
0.0588067
0.0613433
0.0608594
0.0575768
0.0557755
0.0572009
0.0594745
0.0759269
0.101129
0.107692
0.0779239
0.0587807
0.0553169
0.0539021
0.0554126
0.0587195
0.0594121
0.0570042
0.0534711
0.0501813
0.047759
0.0470858
0.0478205
0.0502804
0.0534674
0.0567562
0.0591969
0.058768
0.0557356
0.0543315
0.0557507
0.0584209
0.0772478
0.10695
0.114182
0.0787777
0.0580624
0.0542469
0.0527116
0.0539231
0.0567898
0.057264
0.0549098
0.0514988
0.0482822
0.0458952
0.0452255
0.0459429
0.0483183
0.0514128
0.0545457
0.0568998
0.0567347
0.0542108
0.0530678
0.0546109
0.0577809
0.0781162
0.11402
0.121103
0.0794766
0.0575234
0.0534352
0.0517853
0.0526654
0.0549184
0.0550484
0.0527539
0.0495129
0.046421
0.0441665
0.0435329
0.0442386
0.0465431
0.0495486
0.052543
0.0547907
0.0548915
0.0529272
0.0521162
0.0538798
0.0575356
0.079713
0.119711
0.126888
0.0807096
0.0573959
0.0527633
0.0511224
0.0516279
0.0532353
0.0530134
0.0507705
0.0477048
0.0447668
0.0426132
0.0419916
0.0426774
0.0448641
0.0476997
0.0505143
0.0526913
0.0531248
0.0518575
0.0514391
0.0531872
0.0573981
0.0804905
0.126543
0.134206
0.0814185
0.0572865
0.0521361
0.0505574
0.0507605
0.0517087
0.0511578
0.0489617
0.0460455
0.0432481
0.0412003
0.0405884
0.0412417
0.0432702
0.0459359
0.0485987
0.0507107
0.0514602
0.0509126
0.0508407
0.0525253
0.0572646
0.0802584
0.133507
0.141266
0.0816096
0.0572202
0.0515536
0.0499516
0.0499309
0.050231
0.0493029
0.0471096
0.0443733
0.0417825
0.0398944
0.039313
0.0399667
0.0419037
0.0444047
0.0469194
0.0490187
0.0500501
0.0500722
0.0502294
0.0519737
0.0573618
0.0811843
0.139823
0.144678
0.082028
0.0575042
0.0512155
0.0493237
0.0490901
0.048928
0.0477448
0.0455538
0.0429331
0.0404881
0.0387143
0.0381539
0.0387875
0.0405746
0.0429209
0.0453294
0.0474221
0.0486954
0.0491711
0.0495418
0.0515985
0.0575192
0.0815886
0.14513
0.148204
0.0829846
0.0579356
0.0512054
0.0487184
0.0482588
0.0477654
0.0463348
0.0441348
0.0416189
0.0393297
0.0376526
0.0371011
0.0377201
0.039385
0.0415716
0.0438786
0.0459692
0.0474689
0.0482674
0.0489023
0.0514806
0.0578822
0.0821855
0.148131
0.15208
0.0830613
0.058742
0.0513562
0.0482142
0.0473802
0.0465923
0.0449833
0.042796
0.040379
0.0382163
0.0366636
0.0361416
0.0367574
0.0383261
0.0404101
0.0426548
0.0447212
0.046354
0.0473798
0.0483761
0.0515748
0.0585848
0.0832816
0.151405
0.154831
0.0834317
0.0596942
0.0518449
0.0478756
0.0465993
0.0455232
0.0437997
0.0416082
0.0392866
0.0372594
0.0357876
0.0352701
0.0358751
0.0373472
0.0392992
0.0414641
0.0435385
0.0452634
0.0465668
0.0480043
0.0519239
0.0597932
0.0837395
0.154776
0.157637
0.0845138
0.0600624
0.0524974
0.0477907
0.0458932
0.044515
0.0427232
0.0405763
0.0383379
0.036379
0.0349851
0.0344795
0.0350688
0.0364502
0.0383334
0.0404273
0.0424642
0.044233
0.0458336
0.0479019
0.0526257
0.0606893
0.0842487
0.156939
0.160469
0.0844875
0.0599332
0.0531724
0.047944
0.0453259
0.0435942
0.0416759
0.0395529
0.0374071
0.0355692
0.0342547
0.0337623
0.0343563
0.0356879
0.0374725
0.0394898
0.0415074
0.0433527
0.0452809
0.0480462
0.0534977
0.0608391
0.0854451
0.159109
0.162197
0.0848834
0.0598798
0.0544124
0.0483278
0.0449972
0.0428035
0.0407672
0.0386787
0.0366187
0.0348458
0.0335894
0.0331081
0.0336924
0.0349428
0.0366712
0.0386059
0.0405923
0.042541
0.0449151
0.0483739
0.0547399
0.060577
0.0852922
0.161448
0.164161
0.085555
0.0598272
0.0553376
0.0490583
0.0449027
0.0422262
0.0399887
0.0378711
0.03587
0.0341942
0.0329902
0.0325146
0.0330926
0.0342777
0.035907
0.0377881
0.0398162
0.0419743
0.0448022
0.049137
0.0556565
0.0602359
0.0852723
0.163244
0.166242
0.0854849
0.0591476
0.0553349
0.0499145
0.0449661
0.0418567
0.0393105
0.0371276
0.0351785
0.0335682
0.0324224
0.0319683
0.0325415
0.0336733
0.0352543
0.0370959
0.0391897
0.0416548
0.0448836
0.0501428
0.0558932
0.0596893
0.0856597
0.165254
0.167596
0.0858489
0.058403
0.0552372
0.0515086
0.0453924
0.0417146
0.0388493
0.0365022
0.0345669
0.0330209
0.0319186
0.0314658
0.0320267
0.0331066
0.0346182
0.0364517
0.0387275
0.041498
0.0452304
0.0517395
0.0557363
0.0587496
0.0856933
0.167094
0.16901
0.0868934
0.0579615
0.0548827
0.0526186
0.0462043
0.0417582
0.0386018
0.0360311
0.0340479
0.032518
0.0314483
0.0310023
0.031541
0.0325822
0.0340693
0.0359588
0.0384627
0.0415465
0.0461474
0.0528803
0.0553348
0.0579733
0.0862604
0.168267
0.170329
0.0874017
0.0573073
0.0542053
0.052646
0.0475279
0.0419917
0.0384499
0.035701
0.0336023
0.032058
0.0310169
0.0305756
0.0311133
0.0321293
0.033632
0.0356451
0.0383485
0.0419714
0.0478289
0.0528142
0.0547236
0.0578438
0.0877952
0.169594
0.171059
0.0883272
0.057058
0.0534804
0.0522811
0.0491386
0.0427677
0.0384925
0.0355694
0.0332592
0.031669
0.0306219
0.0301815
0.0307128
0.0317181
0.0332805
0.0354777
0.0383503
0.0428906
0.0493334
0.0523541
0.0539333
0.05735
0.0884364
0.17071
0.17185
0.0900247
0.0574235
0.052904
0.0516908
0.0497063
0.0442616
0.0388235
0.035506
0.0330642
0.0313856
0.0302929
0.0298328
0.0303742
0.0314251
0.0330824
0.0353901
0.0386853
0.0447412
0.0497976
0.0516315
0.0532572
0.0573183
0.0894772
0.171385
0.172875
0.090565
0.0573252
0.0523368
0.0509414
0.0494739
0.0464766
0.0396489
0.0355708
0.0330046
0.0312421
0.0300497
0.029558
0.0301308
0.0312764
0.0330273
0.0354846
0.0398234
0.0466638
0.049513
0.0508491
0.0527557
0.0578428
0.0910556
0.172082
0.173307
0.0917326
0.0578914
0.0519658
0.0502594
0.049106
0.04772
0.0418522
0.0359391
0.0330071
0.0312116
0.0299492
0.0293865
0.030022
0.0312253
0.033009
0.0358581
0.0418133
0.0472499
0.0490331
0.0501731
0.0523091
0.0580964
0.091767
0.172887
0.173678
0.0932616
0.0587311
0.0518376
0.0497659
0.0486204
0.0475378
0.0440561
0.0372629
0.0331361
0.0311925
0.0299216
0.0293064
0.0299856
0.0312076
0.0331245
0.037112
0.0439219
0.0470923
0.0484468
0.0496701
0.0520814
0.0585595
0.0926851
0.173149
0.173385
0.0937088
0.0590984
0.0517454
0.0493572
0.0480903
0.0471673
0.0448894
0.0395262
0.0336774
0.0312267
0.0299092
0.0292877
0.0299742
0.0312743
0.0338002
0.0395509
0.0447578
0.0467862
0.0479353
0.0493093
0.052078
0.0594117
0.093945
0.17251
0.171748
0.0939312
0.0595414
0.0517365
0.0490856
0.0476522
0.0466389
0.0448376
0.041687
0.035145
0.0314808
0.0299339
0.0293015
0.0299955
0.0315578
0.0352957
0.0414693
0.0446998
0.0463308
0.0475028
0.0490635
0.0520393
0.0597548
0.093909
0.170908
0.165531
0.0928905
0.0599249
0.0516911
0.0488721
0.0472928
0.0461092
0.0445765
0.0424675
0.0376284
0.0323983
0.030119
0.0294222
0.0301671
0.0325107
0.037659
0.042011
0.0444216
0.045867
0.0471729
0.0488599
0.0519322
0.0599167
0.0924259
0.164863
0.112478
0.265668
0.325342
0.340645
0.344101
0.345969
0.347997
0.350824
0.354416
0.358773
0.363995
0.369856
0.376113
0.382434
0.38853
0.394209
0.399291
0.40287
0.402339
0.38091
0.347652
0.336219
0.33374
0.333135
0.332912
0.332792
0.332546
0.33078
0.313073
0.145953
0.0926576
0.261862
0.3266
0.343603
0.34734
0.349452
0.351916
0.355365
0.359643
0.364646
0.370387
0.376733
0.383601
0.3908
0.398213
0.405752
0.413353
0.420824
0.428026
0.43134
0.399223
0.34724
0.332074
0.32953
0.32895
0.328725
0.328111
0.323175
0.288182
0.117442
0.0920874
0.266441
0.32753
0.34309
0.346239
0.348733
0.351778
0.356013
0.361049
0.3667
0.372851
0.379479
0.386588
0.394127
0.402166
0.410355
0.418321
0.426178
0.433465
0.439956
0.439062
0.393498
0.342416
0.329948
0.328009
0.327489
0.326493
0.319453
0.276319
0.106219
0.0932764
0.267625
0.326395
0.340991
0.344164
0.347207
0.350999
0.356278
0.362324
0.368828
0.375536
0.382613
0.390156
0.397886
0.405782
0.413971
0.422448
0.430453
0.437747
0.444145
0.449366
0.443928
0.383323
0.336494
0.327059
0.325586
0.324272
0.316365
0.270913
0.102367
0.0929176
0.267668
0.326211
0.340669
0.344152
0.347875
0.352364
0.35846
0.365431
0.372856
0.380099
0.38744
0.395323
0.403239
0.411197
0.419017
0.426753
0.4348
0.442499
0.448782
0.454223
0.458763
0.446498
0.371415
0.33159
0.324947
0.322945
0.314629
0.2687
0.100744
0.0928006
0.269121
0.326811
0.340998
0.345055
0.349591
0.355071
0.362117
0.369878
0.37794
0.385708
0.393295
0.401204
0.409258
0.417071
0.424651
0.432075
0.439427
0.446865
0.453825
0.459552
0.464964
0.468241
0.443475
0.358927
0.328153
0.322855
0.313939
0.267707
0.0996636
0.093231
0.271335
0.32848
0.342466
0.34729
0.352714
0.359282
0.367368
0.376
0.384623
0.39257
0.399844
0.407664
0.415462
0.423189
0.430466
0.437526
0.444403
0.451446
0.458668
0.465239
0.47078
0.476344
0.477059
0.431691
0.347695
0.324928
0.31391
0.267105
0.0987361
0.0939861
0.274231
0.330823
0.34496
0.350731
0.357367
0.365127
0.374135
0.383428
0.392413
0.400469
0.40749
0.414285
0.42153
0.429256
0.436271
0.443118
0.44979
0.456459
0.463453
0.470518
0.476794
0.482518
0.488131
0.483854
0.41139
0.337348
0.315024
0.26676
0.0979046
0.0947369
0.277291
0.333573
0.348301
0.355401
0.363374
0.372395
0.382108
0.391789
0.400755
0.408614
0.415323
0.421163
0.427549
0.434838
0.441899
0.448612
0.45519
0.461679
0.468316
0.475372
0.482406
0.488629
0.494768
0.499981
0.485767
0.385992
0.321894
0.26702
0.0971904
0.0953299
0.28038
0.336711
0.352414
0.361328
0.370764
0.380792
0.390826
0.400251
0.408798
0.416053
0.422165
0.427339
0.432942
0.439492
0.446711
0.453392
0.459983
0.466492
0.472982
0.479895
0.487273
0.49446
0.500925
0.507439
0.510663
0.475767
0.353797
0.270105
0.0966732
0.0958826
0.283835
0.340413
0.357364
0.367917
0.378391
0.388798
0.3988
0.407333
0.414645
0.421124
0.426691
0.431505
0.436515
0.442424
0.449487
0.456487
0.463259
0.470033
0.476737
0.483751
0.491319
0.49929
0.506774
0.513639
0.520152
0.517754
0.439732
0.287571
0.0966625
0.0963608
0.28792
0.344768
0.362265
0.372997
0.383149
0.392954
0.402303
0.410068
0.416635
0.422204
0.427286
0.432009
0.436508
0.442114
0.448975
0.456679
0.463875
0.471223
0.478593
0.486166
0.494112
0.502648
0.511318
0.519204
0.52646
0.531708
0.511108
0.350476
0.0986655
0.0970734
0.293117
0.349584
0.366183
0.375323
0.383748
0.391838
0.400019
0.406968
0.412867
0.417804
0.422333
0.426889
0.431171
0.437159
0.444268
0.452752
0.460864
0.469139
0.477585
0.486154
0.494913
0.504129
0.513736
0.523143
0.531388
0.538169
0.535592
0.447475
0.108316
0.0977678
0.2991
0.35377
0.367144
0.372325
0.377603
0.383448
0.390067
0.396091
0.401619
0.406236
0.410734
0.415754
0.420799
0.426679
0.434593
0.443981
0.45356
0.463122
0.473003
0.482903
0.492955
0.503235
0.513827
0.52459
0.534492
0.542174
0.544538
0.502157
0.137718
0.0991055
0.305563
0.355215
0.362115
0.361449
0.363007
0.366056
0.370921
0.376073
0.381217
0.386015
0.391246
0.397267
0.403594
0.41006
0.419151
0.429727
0.441313
0.452548
0.464237
0.475844
0.487637
0.49938
0.511215
0.523285
0.534955
0.54434
0.549886
0.527211
0.167609
0.100395
0.310404
0.350708
0.348397
0.341115
0.338553
0.338804
0.342066
0.346494
0.351545
0.357144
0.363457
0.371052
0.379031
0.38722
0.397502
0.409655
0.423496
0.436856
0.450681
0.464431
0.478289
0.491856
0.505347
0.518915
0.532083
0.543402
0.555254
0.552395
0.196951
0.102758
0.31035
0.336217
0.324168
0.310732
0.304936
0.302953
0.30499
0.308952
0.314404
0.320994
0.328637
0.337995
0.347694
0.358139
0.369698
0.38379
0.400009
0.415817
0.432007
0.448223
0.464321
0.480062
0.495651
0.511143
0.525138
0.541189
0.56414
0.592422
0.218679
0.104747
0.302243
0.310822
0.290672
0.272965
0.265004
0.26187
0.263366
0.267432
0.27309
0.28033
0.289225
0.300055
0.311639
0.324046
0.336901
0.352921
0.371229
0.389607
0.408177
0.42699
0.445474
0.463775
0.481887
0.499659
0.515357
0.537199
0.576284
0.637758
0.225567
0.107741
0.283672
0.275237
0.250341
0.231935
0.224251
0.221423
0.223028
0.226648
0.23192
0.239618
0.249233
0.260946
0.273781
0.287598
0.301206
0.318457
0.338392
0.359054
0.379834
0.401082
0.422151
0.443096
0.463902
0.484366
0.504158
0.533018
0.594115
0.671485
0.227351
0.109845
0.257549
0.236857
0.211306
0.195993
0.19022
0.188713
0.189236
0.191712
0.197015
0.204354
0.21346
0.224527
0.236718
0.249928
0.264295
0.281752
0.303028
0.325441
0.348257
0.371639
0.395223
0.418705
0.441997
0.465053
0.489681
0.527847
0.619558
0.676173
0.226353
0.113462
0.226112
0.201
0.180668
0.173683
0.170456
0.168196
0.167591
0.169098
0.172959
0.178395
0.185219
0.193634
0.204381
0.216793
0.230989
0.247779
0.268882
0.291665
0.315332
0.340131
0.365564
0.391269
0.416826
0.441685
0.471842
0.52255
0.648003
0.64968
0.223192
0.117278
0.201071
0.180381
0.173375
0.173491
0.170425
0.166506
0.162748
0.161012
0.161344
0.16356
0.166934
0.172701
0.181255
0.191979
0.204519
0.219538
0.238831
0.260364
0.283365
0.30841
0.334705
0.361821
0.389148
0.416633
0.451345
0.517636
0.668994
0.600083
0.219589
0.12534
0.186125
0.184662
0.192239
0.195132
0.188749
0.182412
0.173912
0.166321
0.161178
0.159736
0.160043
0.162453
0.16757
0.175339
0.185124
0.197361
0.214065
0.233302
0.254381
0.278305
0.304337
0.331773
0.360034
0.389883
0.429741
0.514358
0.677917
0.5517
0.216532
0.135098
0.205936
0.212211
0.223364
0.223923
0.218393
0.211813
0.197297
0.182622
0.17126
0.165398
0.162563
0.161248
0.162238
0.166142
0.172574
0.180624
0.193818
0.210323
0.229387
0.251326
0.276026
0.302706
0.33091
0.362412
0.408676
0.513888
0.671163
0.513383
0.21393
0.157817
0.206606
0.21857
0.2557
0.257703
0.249498
0.244444
0.229045
0.208242
0.18958
0.178067
0.171997
0.167601
0.164333
0.163633
0.165319
0.169255
0.178521
0.192061
0.208811
0.228422
0.251043
0.276044
0.303286
0.335811
0.390101
0.519303
0.640257
0.480506
0.211616
0.145953
0.313074
0.330781
0.332546
0.332792
0.332912
0.333132
0.333727
0.336142
0.347279
0.380095
0.401902
0.402556
0.399009
0.393949
0.388291
0.382219
0.375921
0.369686
0.363848
0.358644
0.354306
0.35073
0.347916
0.345897
0.344036
0.340586
0.325298
0.265652
0.112466
0.117441
0.288182
0.323175
0.328111
0.328724
0.328947
0.329516
0.331985
0.346705
0.397911
0.430803
0.427684
0.420508
0.413064
0.405484
0.397966
0.390574
0.383397
0.376548
0.370223
0.364503
0.359521
0.355263
0.351829
0.349376
0.34727
0.343541
0.326562
0.261884
0.0926742
0.106218
0.276317
0.319452
0.326493
0.327487
0.327998
0.329881
0.341935
0.392001
0.438364
0.439539
0.433095
0.42584
0.418008
0.410066
0.4019
0.39388
0.386359
0.37927
0.372664
0.366534
0.360907
0.355895
0.351679
0.348647
0.346163
0.343022
0.327479
0.266427
0.0920582
0.102367
0.270913
0.316365
0.324271
0.325578
0.327011
0.336096
0.381728
0.443016
0.448875
0.443708
0.437351
0.430089
0.42211
0.413656
0.405483
0.397605
0.389896
0.382373
0.375318
0.368633
0.362153
0.356129
0.350879
0.347109
0.344078
0.340914
0.32634
0.267642
0.0932928
0.100744
0.268701
0.314629
0.322939
0.324913
0.331295
0.369936
0.445264
0.458208
0.453743
0.448325
0.442079
0.434412
0.426387
0.418669
0.41087
0.402932
0.395038
0.387168
0.379847
0.372624
0.365223
0.358299
0.352236
0.34777
0.344059
0.340583
0.326135
0.267621
0.0929084
0.0996628
0.267704
0.313934
0.322832
0.327956
0.357676
0.441644
0.467599
0.464462
0.459055
0.453359
0.446432
0.439016
0.431685
0.424281
0.416722
0.408925
0.400896
0.392954
0.385384
0.377689
0.369676
0.361948
0.354928
0.349474
0.344956
0.340906
0.326726
0.269051
0.0927369
0.0987363
0.267104
0.313896
0.324808
0.346724
0.429353
0.476308
0.475844
0.470278
0.464749
0.458212
0.45101
0.443983
0.437123
0.430084
0.422831
0.415117
0.407343
0.399526
0.392323
0.384396
0.375798
0.367195
0.359135
0.352595
0.347193
0.342379
0.32841
0.271321
0.0932831
0.0979046
0.26675
0.314956
0.336674
0.40885
0.482937
0.487674
0.482051
0.476309
0.470063
0.463023
0.456047
0.449396
0.442742
0.435911
0.428923
0.421205
0.413999
0.407269
0.400259
0.392214
0.38325
0.373984
0.364996
0.357262
0.35065
0.344888
0.330754
0.274164
0.0939383
0.0971881
0.266981
0.321492
0.38379
0.484451
0.499532
0.494356
0.488178
0.481968
0.474967
0.467932
0.461317
0.454855
0.448301
0.441601
0.434571
0.427287
0.420964
0.415153
0.408503
0.400619
0.391639
0.382001
0.372317
0.363322
0.355368
0.348275
0.333569
0.277305
0.094735
0.0966659
0.269906
0.35224
0.473527
0.510201
0.507131
0.500566
0.494078
0.486917
0.479561
0.472674
0.466221
0.459751
0.453194
0.446529
0.439341
0.432797
0.42718
0.422028
0.415885
0.408616
0.400114
0.390715
0.380827
0.370817
0.361383
0.352478
0.336779
0.280431
0.0953475
0.0966317
0.286656
0.436925
0.517194
0.519965
0.513395
0.506476
0.499005
0.491057
0.483513
0.476533
0.469878
0.463151
0.456427
0.449454
0.442411
0.436489
0.431383
0.426464
0.420984
0.414656
0.407357
0.398881
0.389111
0.378713
0.368211
0.35759
0.340578
0.283959
0.0958726
0.0985329
0.347936
0.510175
0.531616
0.52636
0.51902
0.511121
0.502466
0.493948
0.486031
0.478505
0.471189
0.463887
0.456748
0.449083
0.442213
0.436408
0.431886
0.427285
0.42233
0.416936
0.410488
0.402821
0.393409
0.383596
0.373414
0.362638
0.345063
0.288165
0.0964431
0.107832
0.4453
0.53546
0.538206
0.531347
0.523056
0.513652
0.50405
0.494852
0.48613
0.477612
0.469224
0.460994
0.452942
0.444507
0.437269
0.43158
0.427329
0.422871
0.418271
0.413443
0.407656
0.400697
0.392377
0.384211
0.375769
0.36661
0.349984
0.293422
0.0971491
0.136914
0.501606
0.544643
0.542268
0.534536
0.524624
0.513855
0.503259
0.492998
0.482989
0.473141
0.463325
0.453815
0.444287
0.434959
0.426783
0.421487
0.41651
0.411545
0.406836
0.402319
0.396854
0.390724
0.38401
0.378041
0.372756
0.367589
0.354207
0.299513
0.0978795
0.167038
0.527037
0.550079
0.544531
0.535123
0.523429
0.511341
0.499507
0.487791
0.476048
0.464499
0.452888
0.441725
0.43019
0.419702
0.41085
0.404476
0.398176
0.392148
0.386866
0.38206
0.376735
0.371368
0.366391
0.36326
0.361687
0.362463
0.355638
0.306026
0.0992645
0.196679
0.552228
0.555466
0.543717
0.532372
0.519151
0.505572
0.492096
0.478569
0.464773
0.451093
0.437352
0.424077
0.410294
0.398277
0.388349
0.379947
0.3721
0.364351
0.357994
0.352332
0.3469
0.342206
0.338816
0.33854
0.341067
0.348494
0.351021
0.310902
0.100583
0.218743
0.592431
0.564451
0.541598
0.525551
0.511476
0.495984
0.480438
0.464754
0.44872
0.432572
0.416463
0.40075
0.3846
0.370666
0.359314
0.348663
0.339003
0.329422
0.321735
0.314948
0.309049
0.304749
0.30253
0.304537
0.310368
0.323993
0.336707
0.310935
0.102896
0.225728
0.638275
0.576674
0.537688
0.515827
0.500111
0.482332
0.464287
0.446056
0.427641
0.408886
0.390356
0.372099
0.353833
0.337971
0.325216
0.312563
0.301018
0.289912
0.280855
0.273301
0.267204
0.262888
0.261193
0.264345
0.272368
0.290241
0.310967
0.30265
0.104883
0.227556
0.67249
0.594615
0.533567
0.504721
0.48495
0.464459
0.443712
0.422824
0.401827
0.380633
0.359874
0.339306
0.319388
0.302124
0.288569
0.274478
0.26175
0.249641
0.239953
0.231882
0.226272
0.2224
0.220703
0.223609
0.231219
0.24993
0.275238
0.283778
0.107881
0.226585
0.67772
0.620263
0.52848
0.490324
0.465753
0.442653
0.419394
0.395958
0.372427
0.349093
0.32634
0.303972
0.282672
0.265264
0.250747
0.237235
0.224922
0.21358
0.204561
0.196796
0.191418
0.188724
0.188049
0.189776
0.195446
0.211162
0.236908
0.257418
0.109969
0.223431
0.651077
0.64906
0.523295
0.472559
0.442436
0.417548
0.392001
0.366331
0.340913
0.316152
0.292489
0.269798
0.248834
0.231911
0.217588
0.204871
0.194028
0.185266
0.178378
0.172755
0.168893
0.167355
0.16819
0.170417
0.173478
0.180389
0.200717
0.22593
0.113626
0.219828
0.601203
0.67037
0.518569
0.452061
0.417287
0.38987
0.362551
0.335456
0.309176
0.284137
0.261104
0.239593
0.22038
0.205266
0.192604
0.181713
0.173131
0.167228
0.1637
0.16127
0.160972
0.162797
0.166887
0.171117
0.17447
0.173695
0.180136
0.200977
0.117519
0.216768
0.552524
0.679755
0.515595
0.430461
0.390549
0.360735
0.332481
0.305065
0.279057
0.255082
0.233902
0.214602
0.197992
0.185701
0.175807
0.168002
0.162889
0.160598
0.16013
0.161534
0.16673
0.174336
0.183299
0.189446
0.196039
0.193974
0.185991
0.186449
0.125739
0.214192
0.51397
0.672787
0.515488
0.409512
0.363114
0.331576
0.303379
0.276706
0.252017
0.230015
0.210982
0.194389
0.181019
0.173012
0.166617
0.162732
0.161768
0.163416
0.165954
0.171604
0.183362
0.198393
0.212819
0.219221
0.224809
0.225094
0.21427
0.207434
0.1357
0.211742
0.480822
0.641124
0.521377
0.391093
0.33649
0.30389
0.276658
0.251648
0.229064
0.209447
0.192671
0.179323
0.169669
0.165736
0.164166
0.165061
0.168315
0.173226
0.178806
0.189957
0.20879
0.229818
0.244096
0.249025
0.258192
0.257258
0.220338
0.207772
0.158782
0.0698629
0.0700312
0.070201
0.0703709
0.0705409
0.070711
0.0708811
0.0710514
0.0712218
0.0713923
0.0715629
0.0717336
0.0719044
0.0720753
0.0722463
0.0724174
0.0725886
0.0727599
0.0729313
0.0731028
0.0732745
0.0734462
0.073618
0.07379
0.073962
0.0741341
0.0743064
0.0744787
0.0746511
0.0748237
0.0749963
0.0751691
0.0753419
0.0755148
0.0756879
0.075861
0.0760343
0.0762076
0.076381
0.0765546
0.0767282
0.076902
0.0770758
0.0772497
0.0774237
0.0775979
0.0777721
0.0779464
0.0781208
0.0782953
0.0784701
0.0786496
0.0789208
0.0815135
0.119466
0.225439
0.298755
0.343467
0.372406
0.373283
0.369556
0.364757
0.358951
0.350091
0.339766
0.329799
0.3207
0.312543
0.305277
0.298749
0.292891
0.287554
0.282542
0.277703
0.27307
0.268559
0.264075
0.259512
0.25484
0.250071
0.245386
0.240876
0.236557
0.232373
0.228325
0.224494
0.220886
0.217459
0.214191
0.211078
0.208137
0.205368
0.202758
0.200273
0.197813
0.195559
0.193579
0.191894
0.190487
0.189335
0.188401
0.18763
0.187021
0.186588
0.186334
0.186239
0.186287
0.186444
0.186685
0.187015
0.187469
0.188087
0.188866
0.189822
0.190972
0.192328
0.193856
0.195505
0.19729
0.199243
0.201335
0.20351
0.205682
0.207807
0.209907
0.235691
0.235972
0.236219
0.236457
0.236694
0.236929
0.237164
0.237399
0.237633
0.237866
0.238099
0.238331
0.238562
0.238794
0.239024
0.239254
0.239484
0.239713
0.239941
0.240169
0.240397
0.240624
0.24085
0.241076
0.241301
0.241526
0.24175
0.241974
0.242197
0.24242
0.242642
0.242864
0.243085
0.243306
0.243526
0.243746
0.243965
0.244183
0.244401
0.244619
0.244836
0.245053
0.245269
0.245484
0.245699
0.245914
0.246128
0.246341
0.246554
0.246767
0.246995
0.247375
0.208849
0.113967
0.185584
0.233215
0.249704
0.262715
0.280335
0.300363
0.322178
0.346303
0.3748
0.410224
0.428246
0.437976
0.44368
0.444895
0.44228
0.437214
0.430441
0.422544
0.414526
0.407129
0.399528
0.391846
0.384285
0.376874
0.369508
0.362234
0.355248
0.348618
0.342342
0.336265
0.330383
0.324808
0.319606
0.314679
0.310037
0.305608
0.301445
0.297587
0.294047
0.290744
0.287568
0.284473
0.281668
0.279507
0.277822
0.27648
0.275317
0.274335
0.273599
0.273205
0.273197
0.273561
0.274291
0.27534
0.276666
0.278264
0.280353
0.283118
0.286778
0.29146
0.29734
0.304581
0.313233
0.323415
0.335248
0.34881
0.364361
0.382105
0.402363
0.425785
0.452096
0.300021
0.300173
0.300305
0.300431
0.300556
0.300679
0.300802
0.300924
0.301046
0.301167
0.301287
0.301407
0.301526
0.301644
0.301761
0.301878
0.301995
0.30211
0.302226
0.30234
0.302454
0.302567
0.30268
0.302792
0.302903
0.303014
0.303124
0.303233
0.303342
0.303451
0.303558
0.303666
0.303772
0.303878
0.303984
0.304088
0.304193
0.304296
0.304399
0.304502
0.304604
0.304705
0.304806
0.304907
0.305006
0.305105
0.305204
0.305302
0.3054
0.305515
0.305596
0.226827
0.133757
0.210201
0.2391
0.244168
0.245695
0.249611
0.255585
0.264147
0.276712
0.293648
0.317129
0.348
0.384904
0.426412
0.471639
0.518339
0.56649
0.59654
0.61172
0.615416
0.607422
0.588535
0.564212
0.541525
0.520794
0.501948
0.484925
0.470368
0.457522
0.445478
0.434053
0.423325
0.413427
0.404363
0.396051
0.388384
0.381373
0.375
0.369273
0.364067
0.359171
0.354588
0.350325
0.346388
0.342786
0.339664
0.337029
0.334799
0.332947
0.331388
0.330127
0.329398
0.329232
0.329511
0.330146
0.331057
0.332313
0.334013
0.336516
0.340001
0.344509
0.35029
0.357764
0.367549
0.380884
0.39701
0.416146
0.438337
0.463664
0.492839
0.525684
0.562137
0.601908
0.318386