/*--------------------------------*- C++ -*----------------------------------*\
| =========                 |                                                 |
| \\      /  F ield         | OpenFOAM: The Open Source CFD Toolbox           |
|  \\    /   O peration     | Version:  2112                                  |
|   \\  /    A nd           | Website:  www.openfoam.com                      |
|    \\/     M anipulation  |                                                 |
\*---------------------------------------------------------------------------*/
FoamFile
{
    version     2.0;
    format      ascii;
    arch        "LSB;label=32;scalar=64";
    class       volScalarField;
    location    "0.00244";
    object      alphat;
}
// * * * * * * * * * * * * * * * * * * * * * * * * * * * * * * * * * * * * * //

dimensions      [1 -1 -1 0 0 0 0];

internalField   nonuniform List<scalar> 
13875
(
0.119861
0.0816019
0.0784663
0.0782727
0.0782676
0.0783708
0.0783858
0.0783536
0.0783196
0.078316
0.0783223
0.0782838
0.0783014
0.0783378
0.0783378
0.0782903
0.0782948
0.0783346
0.0783695
0.0783711
0.0782756
0.0782606
0.0784877
0.0814723
0.120935
0.103926
0.0576609
0.0570908
0.057134
0.0566641
0.0565736
0.0565731
0.0566531
0.0570363
0.0571346
0.0571741
0.0571258
0.0571077
0.0570705
0.0571223
0.0571548
0.057088
0.0566782
0.0565707
0.0565655
0.0566598
0.0571385
0.0570744
0.0573895
0.10455
0.110615
0.0553421
0.0559021
0.0547364
0.0544675
0.0543263
0.0542572
0.0542319
0.0541517
0.0541399
0.0543105
0.0542063
0.0541533
0.0541595
0.054173
0.0543911
0.0541513
0.0542521
0.0542443
0.0543051
0.0544326
0.0545893
0.0557922
0.0550882
0.111107
0.115885
0.0546479
0.0554062
0.0542971
0.0539146
0.0537878
0.0537195
0.0536876
0.0534692
0.0534151
0.053568
0.0535872
0.0535537
0.053575
0.0535622
0.053563
0.0534446
0.0537033
0.0537065
0.0537692
0.0538899
0.0541831
0.0552081
0.054289
0.115773
0.121037
0.0546551
0.0551505
0.0537588
0.0535778
0.0533795
0.053266
0.0532251
0.0529854
0.0529289
0.0530793
0.0531138
0.0530772
0.0530944
0.0530787
0.0530651
0.0529634
0.0532221
0.0532461
0.0533473
0.0535234
0.0536001
0.0550281
0.0543242
0.121412
0.124442
0.0547598
0.0552236
0.0535923
0.05319
0.0529815
0.0528719
0.0528026
0.0525489
0.0525161
0.0526541
0.0527128
0.0526707
0.0526866
0.0526671
0.0526376
0.0525493
0.052804
0.052854
0.0529498
0.0531426
0.0534876
0.0549014
0.054402
0.124161
0.128834
0.0565259
0.0558482
0.0534861
0.0532036
0.0528416
0.0526289
0.0524955
0.0522091
0.052187
0.052303
0.0523992
0.0523524
0.0523676
0.0523335
0.0522666
0.0522418
0.0525065
0.0526135
0.0528
0.0531332
0.0533736
0.0556602
0.0563706
0.129086
0.135912
0.0613066
0.0579397
0.0544656
0.053399
0.0528448
0.0525257
0.0523187
0.0520257
0.0519961
0.0520825
0.0522055
0.0521709
0.0521838
0.0521455
0.0520329
0.0520645
0.0523362
0.0525158
0.0527911
0.053314
0.0543117
0.0575675
0.0610759
0.135742
0.152347
0.0695772
0.0618272
0.0561392
0.0545845
0.05351
0.0528718
0.0524781
0.0521335
0.0520776
0.0521194
0.0522463
0.0522374
0.0522465
0.0521931
0.052057
0.0521722
0.0525006
0.0528429
0.053395
0.0543978
0.0558149
0.0611109
0.0684615
0.154419
0.240947
0.0880767
0.0669627
0.0593804
0.0560167
0.0545192
0.0536234
0.0530696
0.0527368
0.052656
0.052645
0.0527521
0.0527791
0.0527774
0.0527233
0.0526054
0.0527408
0.0531004
0.0536111
0.0543854
0.0558793
0.0589399
0.066292
0.0870328
0.241859
0.37249
0.12081
0.0776338
0.0635924
0.0594393
0.0567353
0.0553925
0.0546404
0.0542873
0.0541491
0.054077
0.0541307
0.0541932
0.0541798
0.0541387
0.0540997
0.054222
0.0546143
0.0553386
0.0564954
0.0589301
0.0628733
0.0755732
0.113504
0.366654
0.659498
0.203008
0.104961
0.0793303
0.0666647
0.0613572
0.0594113
0.0583081
0.0578493
0.0575917
0.0574677
0.0574571
0.0575285
0.0575056
0.0574907
0.0575795
0.0577696
0.0582147
0.059284
0.0609464
0.0658791
0.0766602
0.104247
0.187161
0.648097
0.58835
0.407434
0.231069
0.107731
0.0875055
0.0745781
0.0694794
0.0674741
0.0665491
0.0660319
0.0657753
0.0657624
0.0657844
0.0657946
0.0658359
0.0661055
0.066586
0.067415
0.069358
0.0740323
0.0852578
0.0981157
0.185419
0.419222
0.584331
0.505023
0.392349
0.374699
0.435732
0.149526
0.108862
0.101322
0.0951573
0.0935967
0.0924683
0.0923641
0.0919896
0.0928376
0.0921419
0.0926294
0.0930792
0.0942274
0.0954764
0.100639
0.110682
0.165109
0.397459
0.368729
0.401811
0.509299
0.414038
0.358523
0.360266
0.422634
0.35768
0.231929
0.209524
0.178396
0.15391
0.148335
0.143838
0.142971
0.142206
0.14237
0.142858
0.147135
0.15231
0.174501
0.210069
0.232143
0.342543
0.402127
0.35938
0.378033
0.439493
0.357371
0.331253
0.350849
0.429443
0.521685
0.659233
0.709445
0.57805
0.599503
0.594269
0.626141
0.618479
0.627932
0.617175
0.62361
0.611027
0.598533
0.564209
0.661934
0.681046
0.541594
0.435624
0.35473
0.345445
0.381359
0.282857
0.312297
0.401104
0.480335
0.550071
0.693342
0.601561
0.466872
0.452973
0.442981
0.448646
0.450179
0.445429
0.445738
0.448177
0.448332
0.451352
0.447324
0.540898
0.703722
0.595341
0.495444
0.406622
0.331925
0.313966
0.234855
0.312974
0.405069
0.442548
0.46752
0.548217
0.472097
0.379052
0.362506
0.357959
0.364537
0.362703
0.367102
0.361645
0.366298
0.366073
0.367005
0.372684
0.447516
0.544825
0.503253
0.46484
0.430846
0.314762
0.227914
0.116498
0.24466
0.373439
0.371413
0.36948
0.415585
0.40827
0.361182
0.336561
0.326801
0.327133
0.324353
0.328278
0.323574
0.328361
0.330676
0.334445
0.347709
0.395047
0.420806
0.385428
0.384054
0.38166
0.275174
0.127127
0.0530883
0.169162
0.275897
0.290818
0.290683
0.328703
0.361398
0.348278
0.321223
0.303069
0.297328
0.292108
0.294695
0.292109
0.298252
0.30446
0.316546
0.337732
0.35718
0.334361
0.298468
0.296053
0.285551
0.18477
0.054629
0.0516171
0.120193
0.186452
0.213337
0.228103
0.269804
0.315733
0.319502
0.296858
0.276653
0.266966
0.260355
0.261617
0.260828
0.267977
0.277233
0.292592
0.312489
0.313965
0.272897
0.230812
0.215881
0.192126
0.118697
0.0530081
0.0862849
0.121429
0.137297
0.166545
0.185805
0.230395
0.274389
0.283669
0.266044
0.247155
0.236716
0.229001
0.229466
0.229499
0.237363
0.246972
0.261759
0.277863
0.273211
0.232535
0.186893
0.16732
0.138701
0.118609
0.0872012
0.147396
0.132432
0.121275
0.137931
0.15724
0.200006
0.239188
0.249173
0.235898
0.218589
0.207644
0.20027
0.199947
0.200321
0.207328
0.21684
0.230186
0.242472
0.237145
0.202524
0.157278
0.137743
0.122623
0.130495
0.150252
0.17526
0.140047
0.119396
0.121768
0.138457
0.173661
0.205981
0.21649
0.205055
0.190048
0.180902
0.173847
0.173786
0.17414
0.180831
0.188612
0.19954
0.209859
0.203406
0.174264
0.139983
0.122638
0.120237
0.13866
0.174618
0.190825
0.14718
0.116342
0.113756
0.126072
0.152122
0.178554
0.187873
0.178589
0.165451
0.157126
0.151407
0.151081
0.151722
0.157147
0.164397
0.174162
0.182535
0.176207
0.152107
0.126789
0.114746
0.118
0.145628
0.186496
0.204649
0.155621
0.116896
0.10887
0.116099
0.134893
0.15517
0.162669
0.154723
0.144033
0.137172
0.131624
0.131665
0.131923
0.13704
0.142757
0.150179
0.156985
0.152515
0.134311
0.117546
0.109894
0.11824
0.154457
0.20384
0.222021
0.168792
0.119009
0.107695
0.110012
0.122072
0.136789
0.141236
0.134588
0.125622
0.119505
0.115336
0.114891
0.115575
0.119407
0.124797
0.131141
0.136789
0.134295
0.121134
0.10995
0.108059
0.120087
0.16935
0.217231
0.240042
0.189771
0.12053
0.10662
0.104771
0.111101
0.120261
0.122514
0.116667
0.109792
0.104987
0.101056
0.100884
0.101173
0.105057
0.109189
0.114083
0.119084
0.118648
0.110613
0.105371
0.107069
0.121473
0.187392
0.235771
0.268394
0.200524
0.122877
0.104593
0.10146
0.103755
0.108558
0.108313
0.102993
0.0968686
0.0923291
0.0894103
0.0889017
0.0894992
0.0921284
0.0960509
0.100191
0.104568
0.106155
0.102933
0.101398
0.105029
0.122412
0.195594
0.26428
0.314653
0.206415
0.123221
0.10255
0.0981116
0.0972083
0.0972752
0.0951211
0.0900561
0.0852796
0.0818878
0.0790596
0.0788358
0.0791136
0.0820304
0.0849343
0.0883215
0.0925089
0.0955547
0.0966495
0.0981134
0.102688
0.124378
0.203275
0.298796
0.33691
0.214438
0.127595
0.100369
0.0941033
0.0914181
0.089135
0.0854553
0.0805274
0.0761724
0.0726718
0.0707624
0.0702058
0.0708287
0.0726908
0.075797
0.079097
0.0834672
0.0877734
0.0910882
0.0937586
0.100773
0.126675
0.209268
0.337574
0.345628
0.219838
0.130962
0.100321
0.0908665
0.0861663
0.0815344
0.0769937
0.0720051
0.0680263
0.065378
0.0631936
0.0629887
0.0633294
0.0654991
0.0677457
0.0707097
0.0749031
0.0800067
0.0855284
0.0901712
0.100551
0.129432
0.21261
0.348395
0.357027
0.221252
0.138494
0.101319
0.0871404
0.0808996
0.0757992
0.0703822
0.0655668
0.0617405
0.0586776
0.0572815
0.0567371
0.0573932
0.0587685
0.061547
0.0646812
0.0688038
0.0745407
0.0804337
0.0864903
0.100795
0.135762
0.217066
0.356241
0.363347
0.22262
0.149501
0.102566
0.0850326
0.0763058
0.0697477
0.0641018
0.0594068
0.0558489
0.0534703
0.0517282
0.0514747
0.0518671
0.0537114
0.0557415
0.0587509
0.0627769
0.0687616
0.0759736
0.0844588
0.102016
0.144383
0.216749
0.364472
0.363555
0.224448
0.156275
0.106967
0.0835982
0.0724786
0.0653447
0.0597089
0.0550751
0.0515833
0.0486753
0.0475114
0.0469283
0.0476199
0.0487904
0.0514281
0.0544739
0.0583736
0.0639362
0.0722159
0.0833248
0.105025
0.155735
0.218117
0.365569
0.367277
0.222184
0.155541
0.110097
0.0836965
0.0694489
0.0606347
0.0548028
0.0504737
0.0472617
0.0449074
0.0433972
0.0430939
0.0435199
0.0452084
0.0472428
0.0501253
0.0538601
0.0595601
0.0691588
0.0835885
0.109594
0.155983
0.218522
0.359727
0.366116
0.21901
0.15563
0.117686
0.0843774
0.067377
0.0574473
0.051418
0.0472865
0.0442036
0.0414317
0.0403916
0.0397734
0.040487
0.0416363
0.0441669
0.0469508
0.0505797
0.0561933
0.0674797
0.0841295
0.116315
0.155456
0.214634
0.359651
0.363338
0.214627
0.153992
0.128515
0.0872686
0.0668538
0.0546028
0.0479208
0.0437293
0.0408243
0.0386773
0.0373157
0.0369596
0.0374399
0.0389285
0.0408747
0.0435296
0.0472653
0.0534196
0.0663531
0.0865207
0.126792
0.152629
0.209238
0.358146
0.36367
0.209142
0.149936
0.129056
0.0904127
0.0666017
0.0531574
0.0457494
0.0414484
0.0385555
0.0359764
0.0351196
0.034507
0.0352338
0.0362102
0.0386037
0.0412988
0.0453244
0.0522028
0.0666954
0.0906734
0.12795
0.149297
0.206045
0.355476
0.362758
0.206299
0.142478
0.128295
0.0978203
0.0678273
0.0523901
0.0437351
0.0388106
0.0358803
0.0339228
0.0327399
0.0323782
0.0328575
0.0341986
0.0360132
0.0388049
0.0434862
0.0514346
0.0672955
0.0978394
0.12726
0.1408
0.201405
0.35672
0.357636
0.203965
0.135998
0.127054
0.108816
0.0705553
0.0525637
0.0431465
0.0375564
0.0344146
0.0318638
0.031118
0.0305113
0.0312036
0.0320855
0.0344747
0.0374586
0.0429911
0.0516168
0.0699813
0.108713
0.125467
0.133811
0.199599
0.354815
0.356642
0.202141
0.129838
0.122735
0.10911
0.0758937
0.0530376
0.0426086
0.0361168
0.0324031
0.0303215
0.0292528
0.028877
0.0293087
0.0306222
0.0325431
0.0362277
0.0426636
0.0527782
0.0758577
0.10905
0.121722
0.12891
0.199018
0.351381
0.349272
0.201375
0.125867
0.116645
0.107701
0.0846908
0.0550166
0.0429925
0.0361181
0.0318409
0.0288362
0.0280543
0.0274269
0.0281258
0.029068
0.0319821
0.0361176
0.0428054
0.0552569
0.0843644
0.107259
0.115513
0.1244
0.196578
0.348235
0.342651
0.201721
0.124208
0.110848
0.105192
0.0888276
0.0592291
0.0438564
0.0357915
0.03052
0.0278831
0.0266093
0.0261851
0.0266865
0.0281737
0.0307534
0.0358992
0.0435731
0.060372
0.0879811
0.103863
0.109514
0.121656
0.196447
0.344058
0.337031
0.198079
0.121657
0.106447
0.100207
0.0885895
0.0658539
0.0463065
0.0362008
0.0310638
0.0272411
0.0259646
0.0251667
0.0260212
0.0275115
0.0312608
0.0362965
0.0461424
0.0688655
0.0874845
0.0980953
0.10532
0.120673
0.194694
0.335152
0.332026
0.197406
0.12172
0.102472
0.0945902
0.0875138
0.0758492
0.0515674
0.0368505
0.0304876
0.0272626
0.0252447
0.0245413
0.0253205
0.027542
0.0307207
0.0371663
0.0505929
0.0725144
0.0861635
0.0931772
0.10138
0.119744
0.192626
0.332523
0.322901
0.193987
0.121344
0.10085
0.0908717
0.0850103
0.0762039
0.0603517
0.0397491
0.0315697
0.02721
0.0254641
0.0242648
0.0255005
0.0274278
0.0315856
0.0396668
0.0576899
0.0725723
0.0827373
0.0891626
0.0994986
0.118731
0.189875
0.323562
0.317014
0.191058
0.120749
0.09903
0.0874814
0.0815624
0.075122
0.0642509
0.0445176
0.0319514
0.0273794
0.0252231
0.0242595
0.0252821
0.0277616
0.0321673
0.0448515
0.0629393
0.0718682
0.0793334
0.0863536
0.0978557
0.11925
0.188229
0.316161
0.297231
0.183803
0.118607
0.0982434
0.0860357
0.078428
0.0730907
0.0645727
0.0519076
0.0354774
0.0278408
0.0256195
0.0243507
0.0256608
0.0282259
0.0354418
0.051977
0.0631619
0.0700769
0.0763061
0.0848314
0.0971146
0.117176
0.180802
0.294925
0.270878
0.174436
0.116306
0.0964205
0.084207
0.0760829
0.0697333
0.0637304
0.0562831
0.0395611
0.0295966
0.0257616
0.0246746
0.0257968
0.0300326
0.0392445
0.0547836
0.0623489
0.0673407
0.0741375
0.083178
0.0951037
0.114463
0.171305
0.269963
0.120403
0.27339
0.308878
0.317349
0.321977
0.327406
0.333353
0.337678
0.33931
0.337464
0.329903
0.321422
0.312752
0.306704
0.303322
0.301685
0.300889
0.30048
0.300226
0.300052
0.299927
0.299832
0.299754
0.299685
0.299602
0.299559
0.299318
0.297985
0.282074
0.131352
0.0941411
0.278685
0.333238
0.354719
0.366216
0.373003
0.379833
0.387834
0.396947
0.405522
0.406873
0.383407
0.346236
0.320752
0.306602
0.300715
0.298479
0.297552
0.297132
0.296908
0.296764
0.29666
0.296576
0.296505
0.296423
0.296358
0.295896
0.292217
0.262158
0.108158
0.0962881
0.299563
0.357775
0.373063
0.3777
0.380834
0.386188
0.39459
0.405972
0.419879
0.435293
0.446168
0.433072
0.37144
0.326699
0.305945
0.298687
0.296297
0.295402
0.295025
0.294836
0.294715
0.294622
0.294544
0.294459
0.294369
0.293752
0.28873
0.25296
0.100004
0.103496
0.303209
0.358848
0.372268
0.37634
0.379889
0.385977
0.395206
0.407509
0.422644
0.440285
0.459636
0.47697
0.475607
0.403446
0.331823
0.304329
0.296242
0.29392
0.293151
0.292868
0.292741
0.292666
0.292611
0.292552
0.292476
0.291823
0.286337
0.249175
0.0973198
0.10382
0.29854
0.355187
0.369409
0.373892
0.378265
0.384363
0.393425
0.406807
0.424114
0.444154
0.46485
0.486082
0.507305
0.511054
0.433367
0.33538
0.302751
0.294609
0.29253
0.291923
0.291735
0.291666
0.291631
0.2916
0.29154
0.29089
0.285227
0.247734
0.096053
0.103669
0.293856
0.349058
0.363869
0.368349
0.373456
0.379836
0.38869
0.401881
0.420064
0.443085
0.468258
0.492765
0.515549
0.538173
0.542398
0.452352
0.334981
0.300943
0.293621
0.291903
0.291454
0.291335
0.2913
0.29128
0.291226
0.290571
0.284774
0.247013
0.095095
0.103118
0.289153
0.342569
0.35747
0.362131
0.368519
0.375705
0.384641
0.39736
0.414971
0.437822
0.465306
0.495167
0.522824
0.546852
0.569594
0.570218
0.455572
0.330099
0.298838
0.292927
0.291608
0.291294
0.291221
0.291199
0.291142
0.290473
0.284544
0.246454
0.0942317
0.102198
0.284646
0.336602
0.350583
0.355959
0.363823
0.37216
0.381407
0.393402
0.410525
0.433023
0.459559
0.490961
0.52438
0.554333
0.579017
0.601273
0.593188
0.440642
0.322065
0.296764
0.292387
0.291442
0.291234
0.291186
0.291123
0.290437
0.284379
0.245938
0.0934396
0.100964
0.280384
0.33118
0.344226
0.350779
0.360098
0.369782
0.37956
0.390371
0.405982
0.428601
0.45458
0.484734
0.519233
0.555482
0.586755
0.61174
0.632808
0.607347
0.410143
0.313164
0.295025
0.291973
0.291337
0.291202
0.29112
0.290414
0.284238
0.245454
0.0927208
0.0996348
0.277242
0.326982
0.339668
0.347431
0.357938
0.368533
0.378669
0.388577
0.40176
0.42327
0.449401
0.478891
0.511819
0.549465
0.587869
0.619645
0.64516
0.662552
0.603774
0.375953
0.305402
0.293668
0.291672
0.291265
0.291127
0.290397
0.284111
0.245004
0.0920716
0.0983738
0.275464
0.324537
0.337575
0.346201
0.357361
0.367828
0.377854
0.38683
0.397699
0.41629
0.442629
0.472013
0.504082
0.540259
0.581213
0.621323
0.65294
0.679794
0.687149
0.560139
0.345668
0.299707
0.292697
0.291465
0.29116
0.290384
0.283994
0.244583
0.0914839
0.097778
0.276733
0.325491
0.338792
0.347223
0.357289
0.366776
0.375597
0.383489
0.39198
0.407989
0.432251
0.462772
0.494585
0.530051
0.570118
0.614631
0.655915
0.687541
0.715444
0.700725
0.482145
0.323638
0.29609
0.292049
0.291269
0.290385
0.283885
0.24419
0.0909494
0.0978321
0.280624
0.329416
0.342143
0.349494
0.356926
0.363378
0.369859
0.376487
0.383032
0.396836
0.41804
0.449726
0.481951
0.517732
0.557234
0.602124
0.65019
0.691758
0.724701
0.750495
0.689632
0.407535
0.308767
0.293888
0.291584
0.290427
0.283791
0.243827
0.0904628
0.0980874
0.285807
0.335392
0.346029
0.350294
0.354408
0.357658
0.362428
0.367928
0.373969
0.381543
0.400727
0.431418
0.465305
0.502116
0.542189
0.586729
0.637123
0.687743
0.72856
0.766
0.777604
0.621213
0.353397
0.300112
0.292537
0.290576
0.283723
0.243495
0.0900199
0.0989962
0.292685
0.340256
0.346759
0.346289
0.346606
0.346835
0.349848
0.354531
0.359783
0.365001
0.380049
0.407958
0.444048
0.482154
0.523682
0.56905
0.619653
0.674738
0.726505
0.769469
0.810901
0.774791
0.497574
0.322898
0.295527
0.291033
0.283717
0.243204
0.0896214
0.0999203
0.297623
0.338724
0.339157
0.334117
0.331643
0.328848
0.32979
0.332053
0.336794
0.342736
0.355019
0.380124
0.416754
0.456676
0.500055
0.547449
0.598769
0.655619
0.714804
0.767307
0.818875
0.844818
0.739848
0.39683
0.305859
0.292421
0.283859
0.242965
0.0892654
0.101782
0.298954
0.326903
0.318649
0.309091
0.30466
0.299953
0.298193
0.299515
0.30491
0.312316
0.323439
0.346219
0.382208
0.423931
0.468895
0.518823
0.572064
0.630599
0.694041
0.756766
0.814169
0.870069
0.851937
0.601153
0.340625
0.296832
0.284418
0.242814
0.0889512
0.103428
0.293397
0.302591
0.285736
0.270873
0.264037
0.258955
0.25757
0.259341
0.265645
0.274305
0.284612
0.30527
0.340256
0.383509
0.429318
0.481131
0.537351
0.598528
0.665344
0.735984
0.802798
0.869836
0.901641
0.82467
0.451236
0.311735
0.28618
0.242856
0.0886851
0.106441
0.275831
0.265754
0.241752
0.223588
0.217834
0.213998
0.212273
0.214828
0.222259
0.231877
0.242833
0.260309
0.294546
0.336241
0.382087
0.434674
0.493831
0.558124
0.628017
0.705391
0.782601
0.855727
0.92566
0.919934
0.693467
0.35687
0.291873
0.243372
0.088481
0.108705
0.248941
0.224126
0.195976
0.178478
0.173271
0.167818
0.168322
0.172948
0.181498
0.190284
0.201024
0.21725
0.245593
0.286413
0.331183
0.383604
0.443609
0.509619
0.58239
0.664214
0.749499
0.833275
0.916447
0.954917
0.893167
0.498987
0.310416
0.245225
0.0883804
0.112754
0.211745
0.180376
0.153859
0.141796
0.134184
0.132205
0.13331
0.13724
0.143767
0.152197
0.162759
0.178594
0.203313
0.241618
0.284372
0.333479
0.391286
0.45678
0.530422
0.613512
0.701297
0.798161
0.890681
0.969924
0.97447
0.763294
0.362519
0.251384
0.0885052
0.117846
0.180398
0.147402
0.122733
0.113287
0.108587
0.10864
0.107872
0.109749
0.115172
0.122821
0.132703
0.147228
0.168964
0.203474
0.242675
0.286947
0.340569
0.402957
0.474858
0.556787
0.650973
0.74911
0.852951
0.955679
0.999958
0.945334
0.525379
0.270799
0.0891916
0.120803
0.153868
0.122244
0.10231
0.0973297
0.0949126
0.0941384
0.0909966
0.0926158
0.0974492
0.103984
0.112337
0.124416
0.142105
0.168809
0.201497
0.242078
0.290356
0.349583
0.419109
0.498438
0.593369
0.693678
0.80421
0.917813
0.999287
1.01516
0.798299
0.322835
0.0915112
0.146198
0.139095
0.0937417
0.0878025
0.0849212
0.0885681
0.0862246
0.0840885
0.0839662
0.0873498
0.0929127
0.0992806
0.107197
0.116432
0.140152
0.169292
0.205113
0.248826
0.302299
0.36707
0.443243
0.534104
0.636897
0.744607
0.867843
0.986621
1.03222
0.966583
0.485812
0.098862
0.114383
0.105638
0.0727416
0.0823222
0.0804123
0.0797961
0.0831377
0.0806293
0.0798264
0.0814654
0.0847503
0.0893959
0.0938786
0.10082
0.121596
0.146928
0.177561
0.215794
0.263315
0.322124
0.393079
0.477716
0.576779
0.685689
0.808564
0.93914
1.01625
1.03035
0.742526
0.119275
0.131352
0.282075
0.297985
0.299318
0.299559
0.299603
0.299685
0.299754
0.299833
0.299928
0.300053
0.300227
0.300481
0.300888
0.301677
0.303299
0.306643
0.312639
0.32123
0.329645
0.337147
0.339039
0.337451
0.333176
0.327272
0.321892
0.317305
0.308834
0.273413
0.120377
0.108157
0.262157
0.292217
0.295896
0.296358
0.296423
0.296505
0.296576
0.29666
0.296764
0.296908
0.297132
0.297549
0.298468
0.300678
0.306485
0.320441
0.345654
0.382459
0.406152
0.405088
0.396616
0.387556
0.379583
0.372756
0.365963
0.354482
0.333066
0.278611
0.0941463
0.100002
0.252958
0.28873
0.293752
0.294369
0.294459
0.294544
0.294622
0.294715
0.294836
0.295025
0.295399
0.296286
0.298646
0.305793
0.326231
0.370261
0.431867
0.445572
0.43489
0.419556
0.405692
0.39434
0.385959
0.380614
0.377491
0.372868
0.357602
0.299414
0.0962325
0.0973192
0.249175
0.286337
0.291823
0.292476
0.292552
0.292611
0.292666
0.292741
0.292868
0.293148
0.29391
0.296201
0.304148
0.331189
0.401724
0.474518
0.47636
0.459195
0.439905
0.422308
0.407212
0.394939
0.385736
0.379665
0.376137
0.372088
0.358705
0.303126
0.103502
0.0960534
0.247735
0.285227
0.29089
0.29154
0.2916
0.291631
0.291665
0.291735
0.291921
0.292521
0.294572
0.302564
0.334625
0.431253
0.50998
0.506663
0.485561
0.464384
0.443759
0.423776
0.406512
0.393151
0.384109
0.378025
0.373677
0.369214
0.355024
0.29841
0.103804
0.0950943
0.247012
0.284774
0.290571
0.291226
0.29128
0.2913
0.291335
0.291452
0.291896
0.293589
0.300768
0.334171
0.449878
0.541229
0.537449
0.514928
0.492222
0.467808
0.442719
0.419745
0.401595
0.388414
0.379576
0.373215
0.368131
0.363667
0.348886
0.2937
0.103581
0.0942321
0.246455
0.284544
0.290473
0.291142
0.291198
0.291221
0.291293
0.291603
0.292902
0.298693
0.329313
0.45271
0.568798
0.568746
0.546131
0.522203
0.494663
0.464889
0.437455
0.414629
0.397052
0.384338
0.375423
0.368262
0.361899
0.357261
0.342394
0.289072
0.103139
0.0934402
0.245938
0.284379
0.290437
0.291123
0.291186
0.291233
0.291439
0.292369
0.296662
0.321414
0.437747
0.591546
0.600308
0.578197
0.553643
0.523817
0.490495
0.459143
0.432651
0.410171
0.393079
0.381079
0.371851
0.363541
0.355704
0.350345
0.336367
0.284421
0.102105
0.0927207
0.245454
0.284238
0.290414
0.29112
0.291202
0.291334
0.29196
0.294955
0.312666
0.407515
0.605113
0.631615
0.61079
0.585936
0.554823
0.518698
0.484264
0.45415
0.428221
0.405618
0.390027
0.379215
0.369453
0.359796
0.350502
0.343969
0.330936
0.280185
0.100903
0.0920722
0.245005
0.284111
0.290397
0.291127
0.291263
0.291664
0.293623
0.305074
0.373875
0.600473
0.661047
0.644087
0.618731
0.587135
0.548856
0.511274
0.478398
0.448944
0.422873
0.401352
0.38819
0.378298
0.368181
0.357603
0.347117
0.339373
0.326702
0.276996
0.0995653
0.0914835
0.244582
0.283993
0.290384
0.291159
0.29146
0.292668
0.299511
0.344384
0.555496
0.685243
0.678553
0.651889
0.620483
0.580552
0.539703
0.50359
0.471578
0.442232
0.415959
0.397308
0.386449
0.377489
0.367485
0.357017
0.345852
0.337247
0.324228
0.275168
0.0982265
0.0909491
0.244191
0.283886
0.290385
0.291266
0.292033
0.295982
0.322797
0.477609
0.698148
0.71403
0.686364
0.654961
0.613894
0.56952
0.529536
0.494139
0.462402
0.431919
0.407736
0.391532
0.383112
0.375255
0.366463
0.357009
0.34695
0.338507
0.325195
0.276465
0.0976901
0.0904633
0.243828
0.283791
0.290425
0.291575
0.29383
0.308302
0.404293
0.685553
0.748812
0.723453
0.690706
0.649393
0.601497
0.556754
0.517347
0.481642
0.44952
0.417872
0.39669
0.38298
0.376406
0.369781
0.363314
0.356906
0.349382
0.341976
0.32916
0.280341
0.0977224
0.0900201
0.243495
0.283723
0.290571
0.292507
0.29988
0.351739
0.61499
0.775389
0.764761
0.727406
0.68689
0.636543
0.586304
0.541918
0.501977
0.465256
0.431504
0.400838
0.38194
0.374467
0.368424
0.3629
0.35799
0.354688
0.350492
0.346123
0.33534
0.285672
0.0979969
0.0896212
0.243203
0.283715
0.291018
0.295418
0.321989
0.492259
0.771781
0.809702
0.768496
0.725683
0.674232
0.619393
0.568959
0.523763
0.482431
0.444435
0.408544
0.380623
0.365884
0.36069
0.355422
0.350642
0.347487
0.347262
0.346898
0.347243
0.340568
0.292829
0.0989983
0.0892656
0.242965
0.283852
0.292371
0.305431
0.39343
0.734393
0.842208
0.818267
0.766586
0.714444
0.65557
0.599003
0.547847
0.500572
0.457435
0.41765
0.381271
0.356118
0.343802
0.337907
0.33319
0.330978
0.329707
0.33264
0.335063
0.340018
0.339428
0.298094
0.100067
0.0889512
0.242811
0.284396
0.296651
0.339187
0.593795
0.849439
0.869519
0.813952
0.75657
0.694247
0.631145
0.572894
0.519875
0.469984
0.425216
0.3836
0.347701
0.324869
0.313448
0.306095
0.300768
0.299665
0.301371
0.306174
0.310512
0.319919
0.328096
0.299736
0.102031
0.0886843
0.242847
0.286108
0.311081
0.446243
0.82098
0.900276
0.87002
0.802978
0.736501
0.666218
0.599705
0.538756
0.482739
0.430876
0.385115
0.341929
0.306966
0.286256
0.275708
0.266974
0.260694
0.259023
0.260505
0.265603
0.272256
0.287196
0.304113
0.294497
0.103796
0.0884798
0.243346
0.291627
0.355043
0.685513
0.918303
0.925629
0.856323
0.783354
0.706534
0.629414
0.559731
0.495527
0.436341
0.383731
0.337917
0.295945
0.261094
0.244261
0.23329
0.223582
0.216105
0.213893
0.215316
0.219361
0.224851
0.243097
0.267474
0.277362
0.107012
0.0883765
0.245143
0.309631
0.493346
0.890722
0.954899
0.917389
0.834264
0.750893
0.665818
0.584108
0.511411
0.445335
0.385071
0.33258
0.287532
0.246886
0.218207
0.20213
0.191418
0.182625
0.174215
0.169761
0.169344
0.174801
0.179378
0.197054
0.225389
0.250501
0.109418
0.0884931
0.251116
0.360478
0.756119
0.973981
0.97038
0.892115
0.799741
0.703065
0.615309
0.532141
0.458487
0.392841
0.334874
0.285592
0.24255
0.204529
0.179743
0.164213
0.153611
0.144974
0.138478
0.134352
0.133368
0.135076
0.141939
0.153705
0.180896
0.213007
0.113656
0.0891579
0.270005
0.519541
0.943857
1.00113
0.957561
0.854858
0.751279
0.652845
0.558523
0.476375
0.404384
0.341757
0.28812
0.243694
0.204198
0.169997
0.148163
0.134008
0.124086
0.116224
0.110929
0.108793
0.10917
0.108444
0.113154
0.121991
0.147811
0.181411
0.119106
0.0914141
0.320891
0.792389
1.01599
1.00095
0.920127
0.806517
0.695719
0.595368
0.500052
0.420514
0.350771
0.291366
0.243015
0.202411
0.169438
0.142885
0.125103
0.113146
0.104993
0.098326
0.0936758
0.0918683
0.0947061
0.0947681
0.0963772
0.101546
0.121803
0.154671
0.121731
0.0985842
0.48093
0.966043
1.03434
0.989178
0.870429
0.747315
0.639141
0.536069
0.444787
0.368541
0.303397
0.249769
0.205867
0.170098
0.140862
0.117494
0.108123
0.0998653
0.0938005
0.0882261
0.0847534
0.084599
0.086732
0.0880671
0.0845392
0.0875032
0.0933074
0.139234
0.147493
0.118645
0.738107
1.03195
1.01885
0.941996
0.811317
0.687989
0.579026
0.479569
0.39457
0.323322
0.264294
0.216576
0.178152
0.14757
0.122171
0.101719
0.0949172
0.0901855
0.0856647
0.0821206
0.0801624
0.0813593
0.0833463
0.0795553
0.079587
0.0820614
0.0723001
0.105526
0.115021
0.0670159
0.0671755
0.0673365
0.0674975
0.0676587
0.0678199
0.0679812
0.0681426
0.0683041
0.0684657
0.0686274
0.0687892
0.068951
0.0691129
0.069275
0.0694371
0.0695993
0.0697615
0.0699239
0.0700864
0.0702489
0.0704115
0.0705743
0.0707371
0.0708999
0.0710629
0.071226
0.0713891
0.0715523
0.0717156
0.071879
0.0720425
0.0722061
0.0723697
0.0725334
0.0726972
0.0728611
0.0730251
0.0731892
0.0733533
0.0735175
0.0736818
0.0738462
0.0740107
0.0741752
0.0743399
0.0745046
0.0746694
0.0748342
0.0749992
0.0751642
0.0753293
0.0754945
0.0756598
0.0758252
0.0759906
0.0761561
0.0763217
0.0764874
0.0766531
0.076819
0.0769849
0.0771508
0.0773169
0.0774831
0.0776493
0.0778156
0.0779819
0.0781484
0.0783149
0.0784817
0.0786508
0.0788366
0.0791453
0.0803362
0.0873211
0.123926
0.239938
0.442884
0.686903
0.929726
1.14685
1.35377
1.54402
1.72169
1.86113
1.96638
2.04655
2.10532
2.15073
2.1592
2.1551
2.14417
2.12356
2.09365
2.05827
2.02099
1.98328
1.94556
1.90775
1.86793
1.82654
1.78213
1.74141
1.6991
1.65728
1.61491
1.5713
1.52576
1.47797
1.42732
1.37272
1.31343
1.24924
1.1814
1.10813
1.02832
0.939787
0.842476
0.735465
0.621832
0.507814
0.395099
0.284274
0.183687
0.219069
0.219322
0.219541
0.219754
0.219964
0.220174
0.220383
0.220591
0.220799
0.221007
0.221214
0.22142
0.221626
0.221831
0.222036
0.22224
0.222444
0.222647
0.22285
0.223052
0.223253
0.223454
0.223655
0.223855
0.224054
0.224253
0.224452
0.22465
0.224847
0.225044
0.225241
0.225436
0.225632
0.225827
0.226021
0.226215
0.226408
0.226601
0.226793
0.226985
0.227176
0.227367
0.227557
0.227747
0.227936
0.228125
0.228313
0.228501
0.228688
0.228875
0.229061
0.229247
0.229432
0.229617
0.229801
0.229985
0.230168
0.230351
0.230534
0.230715
0.230897
0.231077
0.231258
0.231438
0.231617
0.231796
0.231974
0.232152
0.23233
0.232508
0.232702
0.233033
0.234124
0.221072
0.147205
0.188946
0.382509
0.587052
0.700366
0.766068
0.812458
0.862362
0.90273
0.931684
0.961366
0.980592
0.992822
1.00252
1.00994
1.01523
1.01891
1.02539
1.03549
1.04555
1.05226
1.05594
1.05783
1.05868
1.05914
1.05815
1.05488
1.04944
1.04201
1.03384
1.02355
1.01246
1.00126
0.99069
0.981405
0.974361
0.969736
0.969399
0.973139
0.981795
0.995903
1.01634
1.04439
1.07318
1.09464
1.1034
1.10381
1.07933
1.04845
1.00654
0.927725
0.274462
0.274582
0.274685
0.274784
0.274881
0.274977
0.275072
0.275167
0.275262
0.275356
0.275449
0.275542
0.275634
0.275726
0.275817
0.275907
0.275997
0.276087
0.276176
0.276264
0.276352
0.276439
0.276526
0.276613
0.276698
0.276784
0.276868
0.276953
0.277036
0.27712
0.277202
0.277285
0.277366
0.277448
0.277528
0.277609
0.277689
0.277768
0.277847
0.277925
0.278003
0.27808
0.278157
0.278234
0.27831
0.278386
0.278461
0.278535
0.27861
0.278683
0.278757
0.27883
0.278902
0.278974
0.279046
0.279117
0.279188
0.279258
0.279328
0.279397
0.279466
0.279535
0.279603
0.279671
0.279738
0.279805
0.279872
0.279938
0.280008
0.280124
0.280652
0.278215
0.191881
0.170715
0.361958
0.605674
0.731309
0.772611
0.773806
0.766149
0.762891
0.762949
0.753531
0.749868
0.739145
0.729773
0.719489
0.7141
0.708298
0.701554
0.69337
0.685165
0.677742
0.671741
0.666413
0.66027
0.653162
0.645361
0.637393
0.629378
0.621116
0.612729
0.603615
0.596348
0.589621
0.582902
0.576807
0.571758
0.568744
0.568516
0.571251
0.578207
0.589938
0.60803
0.632363
0.662523
0.697543
0.740516
0.788197
0.842824
0.896391
0.952999
0.995397
1.02336
1.03905
0.288292
0.288326
0.288354
0.28838
0.288406
0.288432
0.288457
0.288482
0.288507
0.288532
0.288556
0.28858
0.288604
0.288628
0.288651
0.288674
0.288697
0.28872
0.288743
0.288765
0.288787
0.288809
0.288831
0.288852
0.288874
0.288895
0.288916
0.288936
0.288957
0.288977
0.288997
0.289017
0.289037
0.289056
0.289075
0.289095
0.289114
0.289132
0.289151
0.289169
0.289188
0.289206
0.289224
0.289241
0.289259
0.289276
0.289293
0.289311
0.289327
0.289344
0.289361
0.289377
0.289393
0.28941