/*--------------------------------*- C++ -*----------------------------------*\
| =========                 |                                                 |
| \\      /  F ield         | OpenFOAM: The Open Source CFD Toolbox           |
|  \\    /   O peration     | Version:  2112                                  |
|   \\  /    A nd           | Website:  www.openfoam.com                      |
|    \\/     M anipulation  |                                                 |
\*---------------------------------------------------------------------------*/
FoamFile
{
    version     2.0;
    format      ascii;
    arch        "LSB;label=32;scalar=64";
    class       volScalarField;
    location    "0.00028";
    object      k;
}
// * * * * * * * * * * * * * * * * * * * * * * * * * * * * * * * * * * * * * //

dimensions      [0 2 -2 0 0 0 0];

internalField   nonuniform List<scalar> 
13875
(
828.157
3442.7
3570.15
3572.68
3574.13
3574.99
3575.42
3576.08
3575.57
3575.52
3576.07
3576.16
3576.33
3576.24
3575.94
3575.58
3576.2
3576.21
3576.97
3574.45
3573.17
3574.44
3558.28
3481.16
821.508
902.035
2946.75
3050.39
3048.79
3049.83
3049.15
3048.78
3048.86
3048.19
3048.03
3048.41
3048.53
3048.59
3048.53
3048.37
3048.43
3048.74
3048.93
3050.07
3048.71
3049.12
3051.27
3045.25
2979.83
895.033
1017.21
2745.87
2815.39
2810.3
2810.46
2808.36
2807.28
2806.59
2805.45
2805.05
2805.22
2805.34
2805.33
2805.3
2805.23
2805.49
2805.75
2806.53
2808.25
2807.92
2809.92
2812.93
2816.34
2768.06
994.854
1112.96
2567.99
2603.72
2592.86
2590.34
2586.46
2584.32
2583.18
2581.97
2581.51
2581.51
2581.62
2581.54
2581.54
2581.53
2581.9
2582.08
2583.08
2585.03
2586.03
2590.22
2594.61
2609.35
2578.71
1089.25
1199.22
2410.36
2423.52
2401.6
2397.11
2391.73
2388.47
2386.76
2385.44
2384.91
2384.77
2384.85
2384.73
2384.74
2384.78
2385.23
2385.42
2386.71
2389.13
2391.57
2397.57
2404.15
2430.84
2411.72
1178.2
1322.29
2290.62
2301.73
2271.91
2265.62
2257.61
2252.22
2249.01
2246.86
2245.91
2245.58
2245.61
2245.48
2245.53
2245.62
2246.11
2246.72
2248.78
2252.75
2258.03
2267.04
2276.09
2311.68
2301.07
1291.52
1546.34
2295.12
2329.9
2289.6
2275.37
2260.91
2250.49
2243.8
2239.66
2237.42
2236.8
2236.79
2236.67
2236.77
2236.87
2237.46
2239.42
2243.7
2251.23
2262.35
2278.6
2296.56
2335.88
2265.02
1484.66
2059.72
2676.76
2755.75
2720.94
2659.34
2608.16
2571.93
2549.21
2535.95
2528.55
2525.69
2525.29
2525.15
2525.4
2525.77
2528.25
2535.5
2549.26
2572.84
2610.5
2666.03
2731.5
2772.23
2682.27
2053.38
4264.47
5148.87
4885.57
4626
4178.51
3887.43
3707.21
3604.92
3547.32
3516.31
3503.51
3499.38
3498.23
3499.69
3503.55
3515.07
3545.21
3602.84
3705.42
3890.16
4199.94
4689.32
5060.3
5388.51
4436.72
22970.8
25821.3
16512.6
12291.6
9055.72
7394.77
6560.05
6139.25
5919.2
5803.46
5752.08
5733.37
5728.54
5735.85
5756.19
5806.92
5923.1
6146.47
6573.62
7439.41
9244.94
12896.4
18061.3
29065
23626
42058.4
97752.3
91490.6
66128.4
39263
22275.8
14884.9
12322.8
11220.2
10705.3
10479.9
10394.5
10367.4
10389.3
10469.7
10680.9
11169.4
12235.5
14733
22062
39498.5
67841.4
96002.9
102770
42824.1
51963
121021
150996
173534
185772
132785
65425.4
36253.3
26602.1
23274.2
22048.2
21620.1
21503.5
21611.5
22049.2
23280.7
26540.7
36078.2
65436
134379
185560
172503
152762
122433
51767.1
56853.8
125070
161272
193437
225300
237608
223004
149544
83466.3
58674
51011.4
48581.4
48007
48660.4
51373.5
59513.5
84513.5
150813
223402
235713
223513
192157
161803
125735
57056.4
58978.5
126064
163113
193427
219533
237026
244192
230046
183358
132078
103648
92829.9
90094.7
93139
105001
135271
185815
229707
242401
234369
216816
191101
161465
123710
58781.5
57876.4
120399
157754
186749
210416
227512
236576
235864
224242
196622
164427
142450
135125
142022
163584
195594
223370
234880
235766
226693
209897
186698
158340
121621
58300.3
54552.5
114566
149997
177776
200358
217478
228766
233187
231106
222273
204805
186819
178318
185367
203038
220959
231007
233349
229453
218705
201984
179861
152737
117402
56743.4
48483.4
100261
134252
160912
182916
201129
215460
225359
230657
232508
231651
227063
224141
226770
231539
232580
230902
225869
216218
201922
183616
161603
134783
99894.2
49027.2
39872
81238.6
114514
140482
162168
180726
196571
210460
222661
232826
243500
252696
255751
252199
242755
232084
222115
210286
196394
180464
161714
139859
113816
80620.6
40078.5
32105.1
63626.9
93724.3
118308
139758
158716
175596
190564
205566
220912
238451
256575
265744
258206
240012
221956
206101
190871
175968
159288
140395
118854
94108.7
63910.3
32556.7
27788.6
56079.6
80736.6
102184
122563
141440
158524
173951
188630
205543
225308
248202
260924
249827
226791
206426
188986
174041
158558
141591
122651
102105
80485.2
55799.8
28217.7
30449.8
55885.8
76861
96372.2
114694
131771
147202
161171
174444
189339
209189
233113
246980
233633
209966
189728
174631
161154
147009
131556
114365
95893.1
76096.5
54559.1
30398.4
33936.9
58732.2
77197.5
94566.9
111483
126460
139529
150948
161660
173703
190355
212696
226102
212889
190758
173906
161720
150957
139409
126278
111145
94082.8
76648.5
58423.1
34405.5
25948.2
56511.3
81073.9
95884.4
108358
120243
131072
141014
150365
160326
172668
189728
201453
189977
172833
160516
150503
141185
131242
120423
108574
95775.4
81170.5
56974
26756.5
18422.6
44154
72534.2
91149.3
104234
114997
124405
133196
141302
149331
159030
171345
179833
171392
159185
149473
141404
133328
124585
115198
104437
91252.8
72251.5
43889
18536.4
10146.9
28269.4
52189
74484.9
91777.5
104229
114896
124212
131384
137008
143014
150052
154803
150190
143243
137173
131468
124253
114971
104291
91841.9
74438.1
51792.9
27935.3
10041.4
1368.98
8458.77
26791.3
46625.7
63367.8
76124.1
86103.6
93095.7
98252.4
101547
103607
105152
105933
105634
104158
102021
98625.9
93277.1
86104.1
76030.8
63210.2
46408.6
26409.7
8235.54
1349.82
674.777
1047.7
3196.22
9664.8
17328.6
24722.7
31064.9
35972.4
38946.5
39637.2
38509
36661.1
35343.6
37251.7
39214.6
40255.4
39472.3
36287.4
31098.4
24584.5
17103.6
9485.42
3099.74
1035.92
673.146
678.916
886.264
933.922
1030.96
1244.44
1600.5
2070.03
2542.73
2795.53
2730.53
2420.26
2100.24
1928.31
2156.66
2507.43
2822.7
2880.15
2592.63
2076.46
1590.06
1233.34
1026.35
932.931
886.019
679.203
687.199
888.325
918.691
924.234
927.091
930.679
934.538
937.947
939.451
938.799
936.752
934.908
934.028
935.141
937.17
939.299
939.948
938.261
934.605
930.65
927.048
924.223
918.864
889.093
688.799
696.921
891.908
919.736
924.539
926.432
928.232
929.449
930.148
930.444
930.537
930.552
930.548
930.545
930.549
930.553
930.539
930.447
930.149
929.449
928.226
926.452
924.571
919.626
891.341
695.14
702.62
894.236
920.617
925.287
927.059
928.657
929.686
930.229
930.444
930.51
930.526
930.529
930.529
930.529
930.526
930.51
930.443
930.225
929.68
928.652
927.052
925.272
920.608
894.179
703.135
707.89
895.969
921.362
925.94
927.573
928.991
929.869
930.306
930.469
930.516
930.526
930.528
930.529
930.528
930.527
930.516
930.47
930.309
929.877
929.005
927.581
925.943
921.493
896.498
708.826
714.651
898.493
922.259
926.477
927.998
929.271
930.013
930.363
930.487
930.52
930.527
930.529
930.529
930.529
930.527
930.52
930.487
930.364
930.015
929.274
928.014
926.52
922.191
898.153
713.658
718.733
900.215
922.95
926.994
928.363
929.49
930.122
930.405
930.499
930.523
930.528
930.529
930.529
930.529
930.528
930.523
930.499
930.404
930.122
929.494
928.368
926.986
922.969
900.242
719.216
722.375
901.387
923.498
927.411
928.661
929.657
930.198
930.432
930.507
930.525
930.528
930.529
930.529
930.529
930.528
930.525
930.507
930.434
930.204
929.669
928.673
927.429
923.601
901.792
722.95
727.269
903.208
924.166
927.752
928.905
929.8
930.261
930.453
930.512
930.526
930.528
930.529
930.529
930.529
930.528
930.526
930.512
930.454
930.262
929.8
928.92
927.786
924.101
902.89
726.407
730.284
904.482
924.675
928.09
929.127
929.916
930.311
930.47
930.516
930.527
930.529
930.529
930.529
930.529
930.529
930.527
930.516
930.469
930.31
929.914
929.12
928.075
924.685
904.463
730.621
732.931
905.308
925.085
928.368
929.31
930.007
930.348
930.481
930.519
930.527
930.529
930.529
930.529
930.529
930.529
930.527
930.519
930.482
930.35
930.011
929.312
928.37
925.155
905.638
733.374
736.483
906.657
925.598
928.604
929.465
930.088
930.38
930.491
930.521
930.528
930.529
930.529
930.529
930.529
930.529
930.528
930.521
930.491
930.38
930.086
929.471
928.618
925.529
906.379
735.8
738.683
907.619
925.991
928.842
929.611
930.156
930.406
930.499
930.523
930.528
930.529
930.529
930.529
930.529
930.529
930.528
930.523
930.498
930.405
930.154
929.604
928.826
925.993
907.571
738.912
740.565
908.202
926.31
929.039
929.733
930.21
930.426
930.504
930.524
930.528
930.529
930.529
930.529
930.529
930.529
930.528
930.524
930.504
930.427
930.212
929.734
929.041
926.366
908.486
740.922
743.106
909.212
926.713
929.211
929.838
930.259
930.443
930.508
930.525
930.528
930.529
930.529
930.529
930.529
930.529
930.528
930.525
930.509
930.443
930.259
929.842
929.219
926.659
909
742.61
744.661
909.943
927.021
929.386
929.938
930.301
930.458
930.512
930.526
930.528
930.529
930.529
930.529
930.529
930.529
930.528
930.526
930.512
930.457
930.3
929.934
929.376
927.023
909.88
744.795
745.939
910.343
927.273
929.528
930.024
930.336
930.47
930.515
930.526
930.528
930.529
930.529
930.529
930.529
930.529
930.529
930.526
930.515
930.47
930.338
930.024
929.533
927.316
910.579
746.216
747.668
911.086
927.587
929.66
930.097
930.368
930.48
930.518
930.527
930.529
930.529
930.529
930.529
930.529
930.529
930.529
930.527
930.518
930.48
930.368
930.101
929.663
927.546
910.942
747.344
748.674
911.602
927.82
929.786
930.168
930.396
930.489
930.52
930.527
930.529
930.529
930.529
930.529
930.529
930.529
930.529
930.527
930.52
930.488
930.395
930.165
929.778
927.813
911.524
748.726
749.352
911.729
927.967
929.863
930.222
930.417
930.496
930.522
930.528
930.529
930.529
930.529
930.529
930.529
930.529
930.529
930.528
930.522
930.496
930.417
930.219
929.863
927.993
911.913
749.563
750.249
912.063
928.062
929.861
930.243
930.428
930.499
930.522
930.528
930.529
930.529
930.529
930.529
930.529
930.529
930.529
930.528
930.523
930.5
930.426
930.242
929.861
928.035
911.982
750.08
750.913
912.267
928.09
929.833
930.235
930.423
930.498
930.522
930.528
930.529
930.529
930.529
930.529
930.529
930.529
930.529
930.528
930.522
930.498
930.421
930.234
929.828
928.075
912.182
750.889
755.85
913.091
928.158
929.747
930.21
930.405
930.494
930.521
930.528
930.529
930.529
930.529
930.529
930.529
930.529
930.529
930.528
930.521
930.493
930.404
930.208
929.746
928.176
913.167
755.885
887.243
941.314
943.009
941.984
941.523
941.29
941.126
940.978
940.834
940.693
940.556
940.421
940.289
940.16
940.033
939.91
939.788
939.67
939.553
939.439
939.328
939.218
939.111
939.006
938.902
938.801
938.699
938.579
937.241
888.541
861.365
931.866
933.053
931.85
931.482
931.372
931.334
931.309
931.286
931.264
931.243
931.223
931.204
931.185
931.167
931.15
931.133
931.117
931.101
931.086
931.072
931.058
931.044
931.031
931.019
931.006
930.992
930.949
929.408
873.846
865.963
931.533
932.257
930.994
930.666
930.588
930.575
930.572
930.57
930.568
930.567
930.565
930.564
930.562
930.561
930.56
930.558
930.557
930.556
930.555
930.554
930.553
930.552
930.551
930.551
930.55
930.547
930.513
928.953
872.181
869.682
931.344
932.191
930.919
930.608
930.54
930.532
930.531
930.531
930.531
930.53
930.53
930.53
930.53
930.53
930.53
930.53
930.53
930.53
930.53
930.53
930.53
930.53
930.53
930.53
930.53
930.529
930.497
928.911
871.216
869.912
930.986
932.131
930.874
930.595
930.537
930.53
930.529
930.529
930.529
930.529
930.529
930.529
930.529
930.529
930.529
930.529
930.529
930.529
930.529
930.529
930.529
930.529
930.529
930.529
930.529
930.528
930.497
928.875
870.358
869.403
930.708
931.969
930.841
930.589
930.536
930.53
930.529
930.529
930.529
930.529
930.529
930.529
930.529
930.529
930.529
930.529
930.529
930.529
930.529
930.529
930.529
930.529
930.529
930.529
930.529
930.528
930.496
928.835
869.535
868.517
930.541
931.855
930.817
930.584
930.536
930.529
930.529
930.529
930.529
930.529
930.529
930.529
930.529
930.529
930.529
930.529
930.529
930.529
930.529
930.529
930.529
930.529
930.529
930.529
930.529
930.528
930.495
928.796
868.746
868.247
930.433
931.749
930.796
930.579
930.535
930.529
930.529
930.529
930.529
930.529
930.529
930.529
930.529
930.529
930.529
930.529
930.529
930.529
930.529
930.529
930.529
930.529
930.529
930.529
930.529
930.528
930.494
928.76
868.008
868.078
930.316
931.643
930.773
930.573
930.534
930.529
930.529
930.529
930.529
930.529
930.529
930.529
930.529
930.529
930.529
930.529
930.529
930.529
930.529
930.529
930.529
930.529
930.529
930.529
930.529
930.528
930.493
928.726
867.329
867.792
930.154
931.54
930.746
930.568
930.533
930.529
930.529
930.529
930.529
930.529
930.529
930.529
930.529
930.529
930.529
930.529
930.529
930.529
930.529
930.529
930.529
930.529
930.529
930.529
930.529
930.528
930.492
928.696
866.709
867.377
930.002
931.447
930.725
930.564
930.533
930.529
930.529
930.529
930.529
930.529
930.529
930.529
930.529
930.529
930.529
930.529
930.529
930.529
930.529
930.529
930.529
930.529
930.529
930.529
930.529
930.528
930.491
928.668
866.141
866.901
929.868
931.363
930.707
930.56
930.532
930.529
930.529
930.529
930.529
930.529
930.529
930.529
930.529
930.529
930.529
930.529
930.529
930.529
930.529
930.529
930.529
930.529
930.529
930.529
930.529
930.528
930.491
928.642
865.621
866.434
929.743
931.286
930.691
930.557
930.532
930.529
930.529
930.529
930.529
930.529
930.529
930.529
930.529
930.529
930.529
930.529
930.529
930.529
930.529
930.529
930.529
930.529
930.529
930.529
930.529
930.528
930.49
928.617
865.142
865.973
929.625
931.213
930.675
930.554
930.531
930.529
930.529
930.529
930.529
930.529
930.529
930.529
930.529
930.529
930.529
930.529
930.529
930.529
930.529
930.529
930.529
930.529
930.529
930.529
930.529
930.528
930.489
928.595
864.704
865.599
929.511
931.144
930.66
930.551
930.531
930.529
930.529
930.529
930.529
930.529
930.529
930.529
930.529
930.529
930.529
930.529
930.529
930.529
930.529
930.529
930.529
930.529
930.529
930.529
930.529
930.528
930.489
928.575
864.306
865.186
929.399
931.076
930.645
930.549
930.531
930.529
930.529
930.529
930.529
930.529
930.529
930.529
930.529
930.529
930.529
930.529
930.529
930.529
930.529
930.529
930.529
930.529
930.529
930.529
930.529
930.528
930.488
928.556
863.947
864.813
929.294
931.011
930.631
930.546
930.531
930.529
930.529
930.529
930.529
930.529
930.529
930.529
930.529
930.529
930.529
930.529
930.529
930.529
930.529
930.529
930.529
930.529
930.529
930.529
930.529
930.528
930.488
928.54
863.624
864.481
929.191
930.949
930.618
930.544
930.53
930.529
930.529
930.529
930.529
930.529
930.529
930.529
930.529
930.529
930.529
930.529
930.529
930.529
930.529
930.529
930.529
930.529
930.529
930.529
930.529
930.528
930.487
928.525
863.339
864.139
929.094
930.889
930.605
930.542
930.53
930.529
930.529
930.529
930.529
930.529
930.529
930.529
930.529
930.529
930.529
930.529
930.529
930.529
930.529
930.529
930.529
930.529
930.529
930.529
930.529
930.528
930.487
928.513
863.088
863.845
929.002
930.832
930.594
930.54
930.53
930.529
930.529
930.529
930.529
930.529
930.529
930.529
930.529
930.529
930.529
930.529
930.529
930.529
930.529
930.529
930.529
930.529
930.529
930.529
930.529
930.528
930.486
928.502
862.871
863.57
928.911
930.777
930.582
930.538
930.53
930.529
930.529
930.529
930.529
930.529
930.529
930.529
930.529
930.529
930.529
930.529
930.529
930.529
930.529
930.529
930.529
930.529
930.529
930.529
930.529
930.528
930.486
928.493
862.687
863.284
928.804
930.718
930.571
930.536
930.529
930.529
930.529
930.529
930.529
930.529
930.529
930.529
930.529
930.529
930.529
930.529
930.529
930.529
930.529
930.529
930.529
930.529
930.529
930.529
930.529
930.528
930.486
928.485
862.533
862.982
928.637
930.647
930.556
930.534
930.529
930.529
930.529
930.529
930.529
930.529
930.529
930.529
930.529
930.529
930.529
930.529
930.529
930.529
930.529
930.529
930.529
930.529
930.529
930.529
930.529
930.528
930.486
928.479
862.409
862.7
928.406
930.549
930.531
930.53
930.529
930.529
930.529
930.529
930.529
930.529
930.529
930.529
930.529
930.529
930.529
930.529
930.529
930.529
930.529
930.529
930.529
930.529
930.529
930.529
930.529
930.528
930.486
928.475
862.313
864.349
928.346
930.456
930.495
930.524
930.528
930.529
930.529
930.529
930.529
930.529
930.529
930.529
930.529
930.529
930.529
930.529
930.529
930.529
930.529
930.529
930.529
930.529
930.529
930.529
930.529
930.528
930.486
928.473
862.242
888.54
937.241
938.579
938.7
938.802
938.903
939.006
939.112
939.219
939.329
939.441
939.555
939.672
939.791
939.912
940.036
940.163
940.292
940.424
940.559
940.697
940.838
940.982
941.131
941.295
941.528
941.989
943.015
941.317
887.23
873.845
929.408
930.949
930.992
931.006
931.019
931.031
931.044
931.058
931.072
931.086
931.101
931.117
931.133
931.15
931.167
931.185
931.204
931.223
931.243
931.264
931.286
931.309
931.334
931.372
931.482
931.85
933.053
931.864
861.379
872.18
928.953
930.513
930.547
930.55
930.551
930.551
930.552
930.553
930.554
930.555
930.556
930.557
930.558
930.56
930.561
930.562
930.564
930.565
930.567
930.568
930.57
930.572
930.575
930.588
930.666
930.993
932.257
931.53
865.942
871.215
928.911
930.497
930.529
930.53
930.53
930.53
930.53
930.53
930.53
930.53
930.53
930.53
930.53
930.53
930.53
930.53
930.53
930.53
930.53
930.531
930.531
930.531
930.532
930.54
930.608
930.919
932.19
931.345
869.714
870.359
928.875
930.497
930.528
930.529
930.529
930.529
930.529
930.529
930.529
930.529
930.529
930.529
930.529
930.529
930.529
930.529
930.529
930.529
930.529
930.529
930.529
930.529
930.53
930.537
930.595
930.874
932.13
930.985
869.926
869.534
928.835
930.496
930.528
930.529
930.529
930.529
930.529
930.529
930.529
930.529
930.529
930.529
930.529
930.529
930.529
930.529
930.529
930.529
930.529
930.529
930.529
930.529
930.53
930.536
930.589
930.841
931.969
930.706
869.356
868.747
928.796
930.495
930.528
930.529
930.529
930.529
930.529
930.529
930.529
930.529
930.529
930.529
930.529
930.529
930.529
930.529
930.529
930.529
930.529
930.529
930.529
930.529
930.529
930.536
930.584
930.817
931.855
930.545
868.576
868.008
928.76
930.494
930.528
930.529
930.529
930.529
930.529
930.529
930.529
930.529
930.529
930.529
930.529
930.529
930.529
930.529
930.529
930.529
930.529
930.529
930.529
930.529
930.529
930.535
930.579
930.796
931.749
930.43
868.218
867.329
928.726
930.493
930.528
930.529
930.529
930.529
930.529
930.529
930.529
930.529
930.529
930.529
930.529
930.529
930.529
930.529
930.529
930.529
930.529
930.529
930.529
930.529
930.529
930.534
930.573
930.773
931.643
930.317
868.08
866.709
928.696
930.492
930.528
930.529
930.529
930.529
930.529
930.529
930.529
930.529
930.529
930.529
930.529
930.529
930.529
930.529
930.529
930.529
930.529
930.529
930.529
930.529
930.529
930.533
930.568
930.747
931.541
930.156
867.805
866.141
928.668
930.491
930.528
930.529
930.529
930.529
930.529
930.529
930.529
930.529
930.529
930.529
930.529
930.529
930.529
930.529
930.529
930.529
930.529
930.529
930.529
930.529
930.529
930.533
930.564
930.725
931.447
930.002
867.344
865.62
928.642
930.491
930.528
930.529
930.529
930.529
930.529
930.529
930.529
930.529
930.529
930.529
930.529
930.529
930.529
930.529
930.529
930.529
930.529
930.529
930.529
930.529
930.529
930.532
930.56
930.707
931.364
929.869
866.927
865.143
928.617
930.49
930.528
930.529
930.529
930.529
930.529
930.529
930.529
930.529
930.529
930.529
930.529
930.529
930.529
930.529
930.529
930.529
930.529
930.529
930.529
930.529
930.529
930.532
930.557
930.691
931.286
929.742
866.433
864.704
928.595
930.489
930.528
930.529
930.529
930.529
930.529
930.529
930.529
930.529
930.529
930.529
930.529
930.529
930.529
930.529
930.529
930.529
930.529
930.529
930.529
930.529
930.529
930.531
930.554
930.675
931.213
929.625
865.967
864.305
928.575
930.489
930.528
930.529
930.529
930.529
930.529
930.529
930.529
930.529
930.529
930.529
930.529
930.529
930.529
930.529
930.529
930.529
930.529
930.529
930.529
930.529
930.529
930.531
930.551
930.66
931.144
929.511
865.597
863.947
928.556
930.488
930.528
930.529
930.529
930.529
930.529
930.529
930.529
930.529
930.529
930.529
930.529
930.529
930.529
930.529
930.529
930.529
930.529
930.529
930.529
930.529
930.529
930.531
930.549
930.645
931.076
929.399
865.195
863.624
928.54
930.488
930.528
930.529
930.529
930.529
930.529
930.529
930.529
930.529
930.529
930.529
930.529
930.529
930.529
930.529
930.529
930.529
930.529
930.529
930.529
930.529
930.529
930.531
930.546
930.631
931.011
929.293
864.804
863.338
928.525
930.487
930.528
930.529
930.529
930.529
930.529
930.529
930.529
930.529
930.529
930.529
930.529
930.529
930.529
930.529
930.529
930.529
930.529
930.529
930.529
930.529
930.529
930.53
930.544
930.618
930.949
929.192
864.479
863.088
928.513
930.487
930.528
930.529
930.529
930.529
930.529
930.529
930.529
930.529
930.529
930.529
930.529
930.529
930.529
930.529
930.529
930.529
930.529
930.529
930.529
930.529
930.529
930.53
930.542
930.605
930.889
929.094
864.151
862.871
928.502
930.486
930.528
930.529
930.529
930.529
930.529
930.529
930.529
930.529
930.529
930.529
930.529
930.529
930.529
930.529
930.529
930.529
930.529
930.529
930.529
930.529
930.529
930.53
930.54
930.594
930.832
929.001
863.835
862.687
928.493
930.486
930.528
930.529
930.529
930.529
930.529
930.529
930.529
930.529
930.529
930.529
930.529
930.529
930.529
930.529
930.529
930.529
930.529
930.529
930.529
930.529
930.529
930.53
930.538
930.582
930.776
928.912
863.568
862.534
928.485
930.486
930.528
930.529
930.529
930.529
930.529
930.529
930.529
930.529
930.529
930.529
930.529
930.529
930.529
930.529
930.529
930.529
930.529
930.529
930.529
930.529
930.529
930.529
930.536
930.571
930.719
928.804
863.297
862.409
928.479
930.486
930.528
930.529
930.529
930.529
930.529
930.529
930.529
930.529
930.529
930.529
930.529
930.529
930.529
930.529
930.529
930.529
930.529
930.529
930.529
930.529
930.529
930.529
930.534
930.556
930.647
928.636
862.973
862.312
928.475
930.486
930.528
930.529
930.529
930.529
930.529
930.529
930.529
930.529
930.529
930.529
930.529
930.529
930.529
930.529
930.529
930.529
930.529
930.529
930.529
930.529
930.529
930.529
930.53
930.531
930.549
928.406
862.698
862.242
928.473
930.486
930.528
930.529
930.529
930.529
930.529
930.529
930.529
930.529
930.529
930.529
930.529
930.529
930.529
930.529
930.529
930.529
930.529
930.529
930.529
930.529
930.529
930.528
930.524
930.495
930.456
928.345
864.349
836.162
836.408
836.657
836.904
837.151
837.397
837.642
837.887
838.131
838.374
838.616
838.858
839.099
839.339
839.579
839.818
840.056
840.293
840.53
840.766
841.002
841.236
841.47
841.704
841.936
842.168
842.4
842.63
842.861
843.09
843.319
843.547
843.774
844.001
844.227
844.452
844.677
844.902
845.125
845.348
845.57
845.792
846.013
846.233
846.453
846.672
846.891
847.109
847.326
847.543
847.759
847.975
848.19
848.404
848.618
848.831
849.044
849.255
849.467
849.678
849.888
850.098
850.307
850.515
850.723
850.93
851.137
851.343
851.549
851.754
851.959
852.163
852.366
852.569
852.772
852.973
853.175
853.375
853.575
853.775
853.974
854.173
854.371
854.568
854.765
854.962
855.158
855.353
855.548
855.742
855.936
856.13
856.322
856.515
856.707
856.898
857.089
857.279
857.469
857.658
857.847
858.035
858.223
858.411
858.597
858.784
858.97
859.155
859.34
859.525
859.708
859.892
860.075
860.258
860.44
860.621
860.802
860.983
861.163
861.343
861.522
861.701
861.88
862.058
862.226
926.56
926.59
926.612
926.633
926.655
926.676
926.697
926.719
926.74
926.76
926.781
926.802
926.822
926.842
926.862
926.882
926.902
926.922
926.942
926.961
926.981
927
927.019
927.038
927.057
927.076
927.094
927.113
927.131
927.15
927.168
927.186
927.204
927.222
927.239
927.257
927.274
927.292
927.309
927.326
927.343
927.36
927.377
927.394
927.411
927.427
927.444
927.46
927.476
927.492
927.508
927.524
927.54
927.556
927.571
927.587
927.602
927.618
927.633
927.648
927.663
927.678
927.693
927.708
927.723
927.737
927.752
927.766
927.781
927.795
927.809
927.823
927.837
927.851
927.865
927.879
927.892
927.906
927.919
927.933
927.946
927.96
927.973
927.986
927.999
928.012
928.025
928.038
928.05
928.063
928.075
928.088
928.1
928.113
928.125
928.137
928.149
928.161
928.173
928.185
928.197
928.209
928.221
928.232
928.244
928.256
928.267
928.278
928.29
928.301
928.312
928.323
928.334
928.345
928.356
928.367
928.378
928.389
928.399
928.41
928.421
928.431
928.442
928.452
928.464
930.404
930.406
930.407
930.408
930.409
930.41
930.411
930.412
930.413
930.414
930.415
930.416
930.417
930.418
930.419
930.42
930.421
930.422
930.423
930.424
930.425
930.426
930.427
930.428
930.429
930.429
930.43
930.431
930.432
930.433
930.434
930.434
930.435
930.436
930.437
930.438
930.438
930.439
930.44
930.441
930.442
930.442
930.443
930.444
930.445
930.445
930.446
930.447
930.447
930.448
930.449
930.449
930.45
930.451
930.451
930.452
930.453
930.453
930.454
930.455
930.455
930.456
930.457
930.457
930.458
930.458
930.459
930.459
930.46
930.461
930.461
930.462
930.462
930.463
930.463
930.464
930.464
930.465
930.466
930.466
930.467
930.467
930.468
930.468
930.469
930.469
930.47
930.47
930.471
930.471
930.472
930.472
930.472
930.473
930.473
930.474
930.474
930.475
930.475
930.476
930.476
930.476
930.477
930.477
930.478
930.478
930.478
930.479
930.479
930.48
930.48
930.48
930.481
930.481
930.482
930.482
930.482
930.483
930.483
930.483
930.484
930.484
930.485
930.485
930.485
930.526
930.526
930.526
930.526
930.526
930.526
930.526
930.526
930.526
930.526
930.526
930.526
930.527
930.527
930.527
930.527
930.527
930.527
930.527
930.527
930.527
930.527
930.527
930.527
930.527
930.527
930.527
930.527
930.527
930.527
930.527
930.527
930.527
930.527
930.527
930.527
930.527
930.527
930.527
930.527
930.527
930.527
930.527
930.527
930.527
930.527
930.527
930.527
930.527
930.527
930.527
930.527
930.527
930.527
930.527
930.527
930.527
930.527
930.528
930.528
930.528
930.528
930.528
930.528
930.528
930.528
930.528
930.528
930.528
930.528
930.528
930.528
930.528
930.528
930.528
930.528
930.528
930.528
930.528
930.528
930.528
930.528
930.528
930.528
930.528
930.528
930.528
930.528
930.528
930.528
930.528
930.528
930.528
930.528
930.528
930.528
930.528
930.528
930.528
930.528
930.528
930.528
930.528
930.528
930.528
930.528
930.528
930.528
930.528
930.528
930.528
930.528
930.528
930.528
930.528
930.528
930.528
930.528
930.528
930.528
930.528
930.528
930.528
930.528
930.528
930.529
930.529
930.529
930.529
930.529
930.529
930.529
930.529
930.529
930.529
930.529
930.529
930.529
930.529
930.529
930.529
930.529
930.529
930.529
930.529
930.529
930.529
930.529
930.529
930.529
930.529
930.529
930.529
930.529
930.529
930.529
930.529
930.529
930.529
930.529
930.529
930.529
930.529
930.529
930.529
930.529
930.529
930.529
930.529
930.529
930.529
930.529
930.529
930.529
930.529
930.529
930.529
930.529
930.529
930.529
930.529
930.529
930.529
930.529
930.529
930.529
930.529
930.529
930.529
930.529
930.529
930.529
930.529
930.529
930.529
930.529
930.529
930.529
930.529
930.529
930.529
930.529
930.529
930.529
930.529
930.529
930.529
930.529
930.529
930.529
930.529
930.529
930.529
930.529
930.529
930.529
930.529
930.529
930.529
930.529
930.529
930.529
930.529
930.529
930.529
930.529
930.529
930.529
930.529
930.529
930.529
930.529
930.529
930.529
930.529
930.529
930.529
930.529
930.529
930.529
930.529
930.529
930.529
930.529
930.529
930.529
930.529
930.529
930.529
930.529
930.529
930.529
930.529
930.529
930.529
930.529
930.529
930.529
930.529
930.529
930.529
930.529
930.529
930.529
930.529
930.529
930.529
930.529
930.529
930.529
930.529
930.529
930.529
930.529
930.529
930.529
930.529
930.529
930.529
930.529
930.529
930.529
930.529
930.529
930.529
930.529
930.529
930.529
930.529
930.529
930.529
930.529
930.529
930.529
930.529
930.529
930.529
930.529
930.529
930.529
930.529
930.529
930.529
930.529
930.529
930.529
930.529
930.529
930.529
930.529
930.529
930.529
930.529
930.529
930.529
930.529
930.529
930.529
930.529
930.529
930.529
930.529
930.529
930.529
930.529
930.529
930.529
930.529
930.529
930.529
930.529
930.529
930.529
930.529
930.529
930.529
930.529
930.529
930.529
930.529
930.529
930.529
930.529
930.529
930.529
930.529
930.529
930.529
930.529
930.529
930.529
930.529
930.529
930.529
930.529
930.529
930.529
930.529
930.529
930.529
930.529
930.529
930.529
930.529
930.529
930.529
930.529
930.529
930.529
930.529
930.529
930.529
930.529
930.529
930.529
930.529
930.529
930.529
930.529
930.529
930.529
930.529
930.529
930.529
930.529
930.529
930.529
930.529
930.529
930.529
930.529
930.529
930.529
930.529
930.529
930.529
930.529
930.529
930.529
930.529
930.529
930.529
930.529
930.529
930.529
930.529
930.529
930.529
930.529
930.529
930.529
930.529
930.529
930.529
930.529
930.529
930.529
930.529
930.529
930.529
930.529
930.529
930.529
930.529
930.529
930.529
930.529
930.529
930.529
930.529
930.529
930.529
930.529
930.529
930.529
930.529
930.529
930.529
930.529
930.529
930.529
930.529
930.529
930.529
930.529
930.529
930.529
930.529
930.529
930.529
930.529
930.529
930.529
930.529
930.529
930.529
930.529
930.529
930.529
930.529
930.529
930.529
930.529
930.529
930.529
930.529
930.529
930.529
930.529
930.529
930.529
930.529
930.529
930.529
930.529
930.529
930.529
930.529
930.529
930.529
930.529
930.529
930.529
930.529
930.529
930.529
930.529
930.529
930.529
930.529
930.529
930.529
930.529
930.529
930.529
930.529
930.529
930.529
930.529
930.529
930.529
930.529
930.529
930.529
930.529
930.529
930.529
930.529
930.529
930.529
930.529
930.529
930.529
930.529
930.529
930.529
930.529
930.529
930.529
930.529
930.529
930.529
930.529
930.529
930.529
930.529
930.529
930.529
930.529
930.529
930.529
930.529
930.529
930.529
930.529
930.529
930.529
930.529
930.529
930.529
930.529
930.529
930.529
930.529
930.529
930.529
930.529
930.529
930.529
930.529
930.529
930.529
930.529
930.529
930.529
930.529
930.529
930.529
930.529
930.529
930.529
930.529
930.529
930.529
930.529
930.529
930.529
930.529
930.529
930.529
930.529
930.529
930.529
930.529
930.529
930.529