/*--------------------------------*- C++ -*----------------------------------*\
| =========                 |                                                 |
| \\      /  F ield         | OpenFOAM: The Open Source CFD Toolbox           |
|  \\    /   O peration     | Version:  2112                                  |
|   \\  /    A nd           | Website:  www.openfoam.com                      |
|    \\/     M anipulation  |                                                 |
\*---------------------------------------------------------------------------*/
FoamFile
{
    version     2.0;
    format      ascii;
    arch        "LSB;label=32;scalar=64";
    class       surfaceScalarField;
    location    "0.00028";
    object      phi;
}
// * * * * * * * * * * * * * * * * * * * * * * * * * * * * * * * * * * * * * //

dimensions      [1 0 -1 0 0 0 0];

oriented        oriented;

internalField   nonuniform List<scalar> 
27436
(
-0.601717
8.24906
-0.103437
7.41697
-0.0824665
7.79194
-0.0800894
7.80784
-0.0667192
7.79934
-0.0567808
7.80193
-0.0456587
7.80131
-0.0355737
7.80254
-0.0246307
7.80198
-0.0140562
7.8023
-0.00344794
7.80244
0.00719326
7.80249
0.0175061
7.80248
0.0281713
7.80225
0.0390859
7.80199
0.0490164
7.80332
0.0597566
7.80236
0.0708694
7.80175
0.0794396
7.80324
0.0919573
7.80049
0.107876
7.79772
0.105334
7.80946
0.125859
7.79427
0.567189
7.48154
8.2161
-0.256491
8.54842
-0.102727
7.27282
-0.064555
7.75777
-0.0612719
7.81398
-0.0517265
7.8012
-0.0438782
7.80524
-0.0360674
7.80325
-0.0281579
7.80316
-0.0197037
7.80122
-0.0112412
7.80115
-0.00280352
7.80103
0.00567413
7.80104
0.014113
7.80103
0.022638
7.80077
0.0311152
7.80068
0.0392407
7.80288
0.0474233
7.80163
0.0551782
7.8025
0.0627489
7.80498
0.0711952
7.80252
0.078875
7.8011
0.0846039
7.81086
0.111658
7.77713
0.256501
7.32603
8.47646
-0.248797
8.79101
-0.152849
7.21667
-0.128617
7.74177
-0.118039
7.81259
-0.106324
7.80173
-0.0959229
7.80688
-0.0855808
7.80393
-0.07468
7.80492
-0.0633393
7.80512
-0.0519806
7.80616
-0.040594
7.80598
-0.0291858
7.80593
-0.0177687
7.80581
-0.00626849
7.8055
0.00515697
7.80556
0.0161976
7.80835
0.0271873
7.80573
0.0379544
7.80412
0.0480965
7.80355
0.0584376
7.80327
0.0682461
7.80259
0.0814177
7.803
0.0876748
7.78151
0.188333
7.24477
8.70561
-0.186455
8.90767
-0.143272
7.18725
-0.146565
7.74815
-0.1323
7.80827
-0.11554
7.79813
-0.102639
7.8072
-0.0891515
7.80316
-0.0749631
7.80345
-0.0606756
7.80528
-0.0465146
7.80747
-0.0321783
7.80689
-0.0177654
7.80671
-0.00330931
7.80643
0.0111634
7.80614
0.0254811
7.80648
0.0391415
7.80994
0.052927
7.80568
0.0670473
7.80206
0.0806428
7.80087
0.0941076
7.80221
0.107005
7.80156
0.127228
7.79574
0.0998506
7.82001
0.164501
7.18908
8.88309
-0.100838
8.97529
-0.0607672
7.16596
-0.111912
7.805
-0.0820214
7.78972
-0.0690613
7.79637
-0.0595802
7.80846
-0.0494842
7.8054
-0.038552
7.80526
-0.0271571
7.8066
-0.0154159
7.80866
-0.00343989
7.80731
0.00868411
7.80693
0.0209108
7.80659
0.0331784
7.80635
0.0452091
7.80715
0.0566929
7.81085
0.0677696
7.80653
0.0783972
7.80196
0.0883551
7.80191
0.0976935
7.8028
0.106819
7.80303
0.12865
7.78381
0.0823397
7.88044
0.0973093
7.1807
8.98792
0.0781065
8.92529
0.0377339
7.22329
-0.0691152
7.91926
-0.0440166
7.76694
-0.0388312
7.79429
-0.0343185
7.80819
-0.028457
7.80717
-0.0205672
7.80321
-0.0121019
7.80643
-0.00381783
7.80979
0.00450861
7.8087
0.0128045
7.80827
0.0210636
7.80798
0.0293237
7.8078
0.0374459
7.80893
0.0452614
7.8124
0.0528924
7.80644
0.0607079
7.79966
0.067347
7.80069
0.0706809
7.80168
0.0710261
7.80562
0.0966285
7.75786
-0.0155898
8.00551
5.26912e-05
7.18818
8.9815
0.255586
8.67624
0.106433
7.4037
-0.0262825
8.08211
0.00479057
7.76192
-0.0216648
7.83026
-0.0408318
7.83437
-0.0581122
7.83434
-0.0727762
7.82583
-0.0866772
7.83337
-0.0997929
7.83983
-0.111362
7.83739
-0.123073
7.83706
-0.134681
7.83687
-0.146126
7.8365
-0.157666
7.83796
-0.170041
7.84186
-0.18409
7.83373
-0.199637
7.82575
-0.217556
7.82594
-0.240971
7.83356
-0.262311
7.84037
-0.293996
7.82796
-0.356177
8.1136
-0.653883
7.53133
8.31735
0.898966
7.77452
0.572997
7.7929
0.455268
8.26073
0.347034
7.90529
0.286951
7.92152
0.239983
7.90203
0.200038
7.89874
0.166964
7.88612
0.138165
7.8913
0.111232
7.90028
0.085935
7.90509
0.0607109
7.90422
0.0348995
7.90401
0.00921732
7.90436
-0.0168387
7.90724
-0.0449651
7.90318
-0.0747114
7.88866
-0.107897
7.88209
-0.147928
7.88723
-0.197336
7.90313
-0.267248
7.93945
-0.359014
7.95901
-0.488485
8.30273
-0.745177
7.85384
7.53478
0.832838
7.0208
0.480225
8.27762
0.339365
8.49177
0.283919
8.04925
0.210891
8.03102
0.160325
7.97527
0.124681
7.9631
0.101445
7.9513
0.0873849
7.95513
0.0798199
7.96849
0.0772354
7.97831
0.0770932
7.9762
0.0771265
7.97779
0.0771783
7.97589
0.0761652
7.97844
0.0703913
7.97153
0.0579057
7.95309
0.0345168
7.94669
-0.00397206
7.95631
-0.0543994
7.97657
-0.127836
8.04464
-0.168924
8.07593
-0.32861
8.5185
-0.625007
8.29406
6.99098
-3.1957
9.92576
-3.5674
8.90934
-3.27398
8.49257
-2.87965
7.82973
-2.54187
7.82004
-2.14471
7.62301
-1.77156
7.63146
-1.43012
7.67673
-1.11445
7.72506
-0.814212
7.77263
-0.51448
7.79075
-0.209291
7.78971
0.0980964
7.79205
0.401901
7.79002
0.700799
7.78991
1.00121
7.77535
1.31076
7.73001
1.64522
7.67678
2.01563
7.6292
2.39821
7.63941
2.71007
7.86104
3.06777
7.89811
3.29119
8.54862
2.77452
8.81386
9.60672
-0.196336
10.1438
-2.45731
11.9781
-4.05903
10.2254
-4.10627
8.06749
-3.83666
7.63485
-3.24027
7.06712
-2.65104
7.16228
-2.07651
7.23958
-1.55447
7.3736
-1.0673
7.47857
-0.595859
7.51812
-0.118684
7.51691
0.363309
7.51442
0.839503
7.51803
1.31288
7.51374
1.81221
7.46864
2.33288
7.37769
2.90795
7.23709
3.50445
7.15164
4.1589
7.02517
4.47864
7.64488
4.28671
8.28054
2.30881
10.6667
0.240772
11.4639
9.93691
0.890516
9.26118
2.09561
10.5979
2.2741
10.6305
0.922588
10.2293
-1.90448
10.7153
-2.75363
7.93763
-2.91303
6.95462
-2.36162
6.66128
-1.79205
6.88708
-1.27698
7.14989
-0.775834
7.25005
-0.254517
7.25627
0.276544
7.24747
0.791879
7.26219
1.29273
7.23908
1.8339
7.10772
2.37839
6.89985
2.94974
6.65405
2.76634
6.9678
1.81949
7.9844
-1.02442
10.8917
-2.28964
10.3779
-1.86636
10.7663
-0.865217
10.4032
9.22953
0.596714
9.13041
1.66777
9.67527
2.57481
10.2058
3.24355
10.0305
4.4768
10.0329
2.72442
9.83484
-0.207702
9.74931
-1.83437
8.25463
-1.5864
7.16498
-1.2316
7.15443
-0.783447
7.20029
-0.294597
7.28702
0.220239
7.30372
0.710368
7.28253
1.1726
7.17055
1.61395
7.08963
1.74702
7.24789
0.0770759
8.35947
-3.07093
9.75123
-4.70883
9.83955
-3.4334
10.0465
-2.71211
10.0694
-1.79782
10.2299
-0.725471
9.4874
8.93953
0.475608
9.25518
1.46571
9.27601
2.53255
9.80691
3.37267
9.93305
4.00464
10.1046
4.36424
10.081
4.50418
10.0585
1.82201
9.93136
0.0444116
9.77428
-0.954049
8.94214
-0.849179
8.06017
-0.475126
8.04981
0.00427522
8.08098
0.377018
8.01175
0.366177
8.08672
-0.638623
8.9687
-2.73429
9.76579
-5.37517
10.0949
-5.22673
10.1009
-4.7864
10.0512
-4.09536
10.0655
-3.15398
9.86259
-1.97499
9.7113
-0.956502
9.16173
8.75928
0.917141
8.96556
1.703
9.13458
2.89289
9.30431
3.88992
9.67984
4.70969
10.0036
5.25013
10.1295
5.27658
10.3879
4.96797
10.0909
3.34597
9.96656
1.84689
9.76135
0.82379
9.32173
0.35068
9.01901
0.0746209
8.88656
-0.403695
8.99467
-1.37302
9.28528
-2.78027
9.73017
-4.40052
9.97594
-4.55483
10.1738
-4.47338
10.3643
-3.93254
10.1178
-3.10989
9.96061
-2.13135
9.61161
-1.01261
9.29627
-0.328387
9.10193
9.01083
0.194706
9.15709
0.883973
8.8956
1.67237
8.99104
2.61674
9.20551
3.63811
9.40998
4.46957
9.66743
5.09282
9.94372
4.90085
10.1497
4.65292
9.80796
3.51464
9.60665
2.20637
9.32707
0.939351
9.04068
-0.247954
8.92612
-1.47754
9.01567
-2.74579
9.28609
-3.86493
9.54332
-4.16305
9.73099
-4.26944
10.1339
-3.65489
9.9278
-2.83989
9.6647
-1.85278
9.42179
-0.946876
9.23039
-0.227882
9.05185
0.362785
8.96475
9.77269
1.44458
8.07498
2.27327
8.5427
3.07098
8.72451
3.9339
8.92322
4.8145
9.13752
5.63277
9.36006
6.3531
9.58647
6.76251
9.79142
6.20962
10.1158
5.45859
9.76626
3.50403
9.74379
1.26259
9.59675
-1.10567
9.49485
-3.36723
9.55027
-5.38552
9.69275
-6.19732
9.77029
-6.89291
10.2212
-6.6533
9.94482
-6.00761
9.64893
-5.26303
9.44965
-4.43949
9.24073
-3.62183
9.03598
-2.84787
8.8189
-2.00251
8.58952
8.15637
2.35048
5.92984
3.75919
7.52222
4.61731
8.38724
5.39403
8.80359
6.15635
9.14013
6.85423
9.45451
7.45195
9.76058
7.77857
10.0406
7.42993
10.4714
6.05709
10.7684
4.12932
10.5911
1.05177
10.5437
-2.26444
10.5446
-5.35296
10.559
-7.2234
10.4673
-8.57842
10.7258
-8.8896
10.529
-8.45194
10.0685
-7.80541
9.74799
-7.04461
9.43423
-6.19632
9.11525
-5.31737
8.77123
-4.32172
8.33153
-2.7287
7.36146
5.63191
3.1143
2.86592
6.08718
4.59436
7.81936
6.8
8.88647
8.01487
9.59546
8.7663
10.0772
9.38068
10.3433
9.9568
10.4645
10.5014
10.172
11.0987
8.86286
11.9198
6.2886
12.1595
2.74414
12.2839
-1.276
12.2032
-4.89438
12.3041
-7.62788
12.1807
-9.08196
11.9233
-9.46638
11.131
-9.35788
10.5602
-9.11359
9.98835
-8.66923
9.4083
-8.00106
8.77858
-6.99863
8.03846
-5.40947
6.90076
-2.7857
4.77877
2.87513
1.55942
1.387
3.48317
2.8562
5.23398
5.45231
6.59183
7.0054
7.5948
8.05832
8.2937
9.01014
8.72216
9.88767
8.85853
10.7492
8.77677
11.644
7.97774
12.5873
5.76145
13.548
2.06845
14.2128
-2.25574
14.2464
-6.04038
14.2644
-8.35795
13.7203
-9.18778
12.6182
-9.27727
11.6447
-9.09663
10.7609
-8.62763
9.88761
-7.9071
9.01371
-6.8879
8.05639
-5.53354
7.00649
-3.71134
5.46572
-1.62562
2.89274
1.33325
0.406177
0.845214
0.804599
2.41025
1.99156
4.15912
3.34936
5.81576
4.44754
7.28191
5.32481
8.55048
6.00223
9.67189
6.4576
10.6914
6.64953
11.7493
6.32123
12.8979
4.94256
14.2009
1.68735
15.4869
-2.48044
15.8336
-5.73072
15.5298
-7.04766
14.2671
-7.26318
12.8859
-7.02319
11.6941
-6.5091
10.6336
-5.77251
9.59829
-4.83584
8.46591
-3.66151
7.1798
-2.21929
5.69848
-0.950569
4.07103
-0.422985
2.32222
0.780367
-0.378317
1.26924
-0.287621
2.33771
0.389232
3.50269
1.13822
4.86658
2.01766
6.16365
2.88764
7.5106
3.65897
8.80596
4.2791
10.046
4.70333
11.29
4.77535
12.5999
4.0083
14.1332
1.64379
15.7085
-1.88493
16.4055
-4.19992
15.7155
-4.90644
14.1435
-4.76433
12.5834
-4.30142
11.2478
-3.65213
9.99489
-2.85686
8.73781
-1.97855
7.43378
-1.10564
6.08408
-0.377728
4.77931
0.313278
3.3932
0.389996
2.2662
1.18657
-0.711045
2.63397
-0.461942
3.28861
-0.0621446
3.40652
0.352857
4.7273
0.94914
6.00401
1.66967
7.11034
2.38812
8.21237
2.97676
9.29628
3.34796
10.3766
3.40132
11.6039
3.01369
13.122
1.49563
14.9241
-1.04184
15.6833
-2.59559
14.9632
-2.98567
13.1758
-2.95276
11.6267
-2.61539
10.3658
-2.06628
9.26812
-1.39463
8.17952
-0.723691
7.07879
-0.177027
5.97655
0.287694
4.64891
0.596643
3.39598
0.831567
3.26394
2.67965
-1.12806
3.11292
-0.775959
3.67321
-0.424083
4.35391
0.083218
5.47626
0.604638
6.58629
1.21455
7.23384
1.80563
8.00796
2.29762
8.711
2.51309
9.35794
2.49301
10.0433
1.99969
11.0101
0.820734
12.3872
-1.06848
13.0707
-2.16032
12.4022
-2.60338
11.0199
-2.58248
10.0298
-2.34626
9.3171
-1.85344
8.65336
-1.25168
7.95511
-0.636946
7.18982
-0.105593
6.56964
0.405374
5.44231
0.752259
4.31804
1.08801
3.63897
3.0973
-0.884671
0.687001
-0.955898
2.32198
-0.43688
4.12162
0.155205
5.35933
0.724156
6.54456
1.27061
7.00288
1.75158
7.50078
2.07446
7.48434
2.21755
7.35744
2.12847
7.60211
1.65727
7.87859
0.654849
8.29061
-0.798563
8.52487
-1.74276
8.30081
-2.17649
7.89338
-2.24006
7.60812
-2.07896
7.34848
-1.74678
7.44347
-1.2637
7.4579
-0.720076
6.96759
-0.151329
6.52277
0.445539
5.34253
0.945537
4.05781
0.849635
2.28626
0.67467
-0.0746821
0.0537896
-0.309573
0.203898
-0.236663
1.01373
0.0453332
2.03345
0.335917
2.75478
0.616098
3.25692
0.853236
3.61184
1.03667
3.83799
1.15667
3.99739
1.15109
4.05616
0.880088
4.03393
0.368915
3.99347
-0.325514
3.96621
-0.819409
4.02588
-1.06893
4.07224
-1.06723
4.08801
-0.94021
4.02124
-0.748315
3.84555
-0.516494
3.59753
-0.251222
3.23154
0.00483438
2.72221
0.281782
2.00148
0.329938
0.979285
0.0766271
0.195771
0.0530776
0.00189607
0.0155671
0.00208963
0.0234604
0.00326308
0.0637639
0.0211821
0.142635
0.0507206
0.23936
0.0870233
0.351485
0.130445
0.472756
0.174314
0.587129
0.205842
0.648193
0.202288
0.632097
0.140123
0.556202
0.0464542
0.477
-0.0795242
0.433504
-0.172727
0.492601
-0.236759
0.579604
-0.237892
0.656027
-0.201579
0.670023
-0.15099
0.600317
-0.103043
0.474029
-0.0634906
0.347836
-0.0314526
0.234526
-0.00857779
0.139511
-0.00437915
0.0622447
-0.00274543
0.022876
0.0154218
-9.93369e-05
0.0154424
-0.00125453
0.0153536
-0.00130344
0.0159688
0.00187894
0.0189127
0.00599772
0.0243289
0.00983249
0.0309496
0.0129147
0.0378948
0.0144308
0.043421
0.0138564
0.0454003
0.0111117
0.0437116
0.00701944
0.0391964
0.00259391
0.0346604
-0.00233436
0.0322486
-0.0067377
0.0353076
-0.0107528
0.0401907
-0.0133956
0.0447632
-0.013816
0.0464104
-0.0121284
0.0441144
-0.00906239
0.0380628
-0.00535029
0.0308209
-0.00134764
0.0241124
0.00160828
0.0188083
0.00144574
0.0159545
0.000230824
0.0153262
0.0153849
-0.000490177
0.0159515
-0.00196735
0.0158916
-0.00319066
0.0159038
-0.00204697
0.0163311
-3.58738e-05
0.0172533
0.00154603
0.0181161
0.00258335
0.0187993
0.00282758
0.0191895
0.00251852
0.0193409
0.0019439
0.0193503
0.00128212
0.019296
0.00062115
0.0192414
-3.59178e-05
0.0192155
-0.000690814
0.0192466
-0.00134344
0.0193056
-0.00191401
0.0193622
-0.00222877
0.0193544
-0.00200528
0.0192035
-0.00100155
0.0188154
0.000611922
0.0181486
0.00253633
0.0172539
0.00363901
0.0163045
0.00234391
0.0159412
0.000747826
0.0159659
0.0161861
-0.00114886
0.0168118
-0.0025753
0.0166253
-0.00357639
0.0167613
-0.00235774
0.0172386
-0.000516584
0.0181245
0.000866061
0.0188097
0.00163219
0.0192602
0.0017319
0.0194956
0.00143103
0.0195924
0.000954732
0.0196223
0.000423144
0.0196271
-0.000121396
0.019626
-0.000668229
0.019625
-0.0012132
0.0196262
-0.00174557
0.0196275
-0.00222319
0.019623
-0.00252417
0.0195935
-0.00241802
0.0194961
-0.00163781
0.0192584
-0.000242576
0.0187986
0.00163184
0.0181261
0.00289571
0.0172517
0.00198437
0.0167122
0.000679628
0.0165702
0.0165746
-0.00101712
0.0173662
-0.00212439
0.0173092
-0.00272114
0.0175232
-0.00138281
0.0180873
0.000376363
0.0189028
0.00159358
0.0194997
0.00218143
0.0198686
0.00217984
0.0200383
0.00185289
0.0200997
0.00139681
0.0201166
0.000903988
0.0201204
0.000403
0.0201212
-9.92974e-05
0.0201212
-0.000600235
0.0201212
-0.00109277
0.0201204
-0.00154763
0.0201164
-0.00187159
0.0200995
-0.00186953
0.0200376
-0.00127962
0.0198663
-8.96712e-05
0.0194956
0.00167627
0.0188985
0.00299727
0.0180852
0.00236201
0.0175345
0.00122376
0.0173146
0.0173491
-0.000998151
0.0178289
-0.00182341
0.0180256
-0.00212098
0.0182859
-0.000789361
0.0188763
0.000815537
0.0196062
0.00187068
0.0201084
0.0022979
0.020414
0.00220981
0.0205464
0.00185537
0.0205914
0.00140288
0.0206032
0.000924506
0.0206057
0.000440667
0.0206061
-4.40285e-05
0.0206062
-0.000527906
0.0206062
-0.00100643
0.0206057
-0.0014594
0.0206033
-0.00181574
0.0205917
-0.00191017
0.0205477
-0.00149442
0.0204185
-0.00046863
0.0201216
0.00112674
0.0196112
0.0024506
0.0188804
0.00210051
0.0183054
0.00119551
0.0180297
0.0180139
-0.00149098
0.0186532
-0.00222163
0.0186944
-0.00236416
0.0190229
-0.0010516
0.0195723
0.00042775
0.0202198
0.0013261
0.020654
0.00165086
0.020894
0.00153209
0.020994
0.00119899
0.0210265
0.000791598
0.0210346
0.000365758
0.0210362
-6.37593e-05
0.0210365
-0.000493827
0.0210365
-0.000923347
0.0210365
-0.00134924
0.0210362
-0.00175707
0.0210346
-0.00209154
0.0210266
-0.00221119
0.0209943
-0.00188662
0.0208939
-0.000965561
0.0206501
0.000518457
0.0202258
0.00182535
0.0195775
0.00175605
0.0190042
0.00112313
0.018704
0.0184668
-0.00123121
0.0191637
-0.00172452
0.0193061
-0.00163689
0.0196409
-0.000387441
0.0201916
0.000973053
0.0207627
0.00176537
0.0211287
0.00200211
0.0213234
0.00185449
0.0214003
0.00153202
0.021424
0.00115368
0.0214296
0.000762398
0.0214307
0.000368627
0.0214308
-2.55086e-05
0.0214308
-0.000419277
0.0214308
-0.000810527
0.0214307
-0.00118863
0.0214296
-0.00151034
0.0214241
-0.00165786
0.0214006
-0.00142354
0.0213242
-0.000648451
0.0211317
0.000694115
0.0207683
0.00195056
0.020204
0.00200085
0.0196689
0.00146555
0.0193243
0.0192082
-0.00106764
0.0194663
-0.00137269
0.0198983
-0.00113117
0.0202203
5.23535e-06
0.0207491
0.00122748
0.0212651
0.00188728
0.021574
0.0020305
0.0217383
0.00183923
0.0218
0.0015028
0.0218181
0.00112255
0.0218221
0.000732577
0.0218229
0.000340792
0.021823
-5.12558e-05
0.021823
-0.000443055
0.021823
-0.000833097
0.0218229
-0.00121364
0.0218222
-0.00155112
0.0218182
-0.00174624
0.0218006
-0.00161153
0.021741
-0.000969683
0.0215845
0.000233705
0.0212758
0.00137432
0.020781
0.00157692
0.0202571
0.00122111
0.019918
0.0196875
-0.00147422
0.0201673
-0.00175967
0.020412
-0.00149232
0.0207675
-0.000391347
0.0212601
0.000708947
0.0217004
0.00127296
0.0219714
0.00137881
0.0221026
0.00119639
0.0221512
0.000894482
0.022165
0.000557794
0.022168
0.000213729
0.0221686
-0.000131654
0.0221686
-0.000477222
0.0221687
-0.000822605
0.0221686
-0.00116668
0.0221686
-0.00150354
0.022168
-0.00180636
0.0221651
-0.00198977
0.0221515
-0.00188396
0.0221029
-0.00130754
0.0219687
-0.000206808
0.0217064
0.00087784
0.0212536
0.00123356
0.0207641
0.00106271
0.0204475
0.0199672
-0.00117343
0.020568
-0.0013025
0.0208838
-0.00090783
0.0212189
0.000107392
0.0216974
0.00111478
0.0220871
0.00161075
0.0223174
0.00168368
0.0224258
0.00150685
0.0224642
0.00123164
0.0224746
0.000929701
0.0224767
0.000622334
0.0224771
0.00031401
0.0224772
5.55625e-06
0.0224772
-0.000302764
0.0224772
-0.000610107
0.0224771
-0.000911858
0.0224767
-0.00118617
0.0224745
-0.00136115
0.022464
-0.00128608
0.0224254
-0.000794036
0.0223169
0.000212911
0.0220855
0.00123376
0.0216979
0.00158386
0.0212329
0.00140949
0.0208907
0.0205954
-0.000968968
0.0207531
-0.000985672
0.0213526
-0.000522098
0.0216537
0.00038993
0.0220935
0.00126093
0.0224537
0.00166301
0.0226496
0.00168282
0.0227427
0.00148527
0.0227739
0.00120519
0.022782
0.000903584
0.0227836
0.000597715
0.0227839
0.000291107
0.0227839
-1.56007e-05
0.0227839
-0.000322212
0.0227839
-0.000628104
0.0227839
-0.000929785
0.0227836
-0.00121006
0.022782
-0.0014086
0.0227739
-0.00139161
0.0227431
-0.000996854
0.0226538
-0.000118415
0.0224555
0.000792768
0.0221174
0.00121008
0.0216626
0.00113811
0.0213379
0.0209722
-0.00131218
0.021356
-0.00135973
0.0217396
-0.000949142
0.0220575
-0.000103734
0.0224747
0.000700213
0.022771
0.00104434
0.0229438
0.00105446
0.0230184
0.000877425
0.0230438
0.000631294
0.0230503
0.000367483
0.0230515
0.00010029
0.0230517
-0.000167465
0.0230518
-0.000435295
0.0230518
-0.00070305
0.0230518
-0.000970243
0.0230517
-0.00123413
0.0230515
-0.00148088
0.0230503
-0.00165899
0.023044
-0.0016489
0.0230188
-0.00129684
0.0229412
-0.000509368
0.0227727
0.000329634
0.0224534
0.00084008
0.0220455
0.000896898
0.0217606
0.0211157
-0.000999483
0.0216724
-0.000945195
0.0221007
-0.000465967
0.0223896
0.000311893
0.0227865
0.00102472
0.0230479
0.00132886
0.0231949
0.00133244
0.0232571
0.00117462
0.0232772
0.000959941
0.0232821
0.000731535
0.0232831
0.000500563
0.0232832
0.000269167
0.0232832
3.77144e-05
0.0232832
-0.000193681
0.0232832
-0.000424639
0.0232832
-0.000652939
0.0232831
-0.000866986
0.0232821
-0.00102309
0.0232771
-0.00101702
0.0232566
-0.000713375
0.0231939
2.34945e-05
0.0230452
0.000791873
0.0227828
0.00122413
0.0223952
0.00123391
0.0220988
0.0216813
-0.000768205
0.0217678
-0.00065243
0.0224675
-0.000150261
0.0227139
0.000513634
0.0230657
0.00112022
0.023314
0.00135793
0.0234386
0.00132885
0.0234926
0.00116003
0.0235089
0.000943349
0.0235128
0.00071543
0.0235135
0.000485439
0.0235136
0.000255108
0.0235136
2.47315e-05
0.0235136
-0.000205602
0.0235136
-0.000435602
0.0235136
-0.000663548
0.0235135
-0.000880235
0.0235128
-0.00104925
0.0235088
-0.00107956
0.0234923
-0.000846255
0.0234409
-0.000235828
0.0233135
0.000443885
0.0230896
0.000889536
0.0227139
0.000951416
0.0224418
0.0219964
-0.0010749
0.0222848
-0.00101737
0.0227475
-0.000616812
0.0230034
-6.64148e-06
0.0233426
0.000555963
0.0235383
0.000760301
0.0236494
0.000735481
0.0236927
0.000590859
0.0237064
0.000405625
0.0237097
0.000210888
0.0237103
1.4454e-05
0.0237104
-0.000182248
0.0237104
-0.000378985
0.0237104
-0.000575688
0.0237104
-0.000772124
0.0237104
-0.000966917
0.0237103
-0.00115266
0.0237097
-0.00129863
0.0237067
-0.00132468
0.0236934
-0.00111616
0.0236482
-0.000574665
0.0235408
9.98729e-06
0.0233212
0.000523407
0.0229968
0.000671577
0.0227697
0.0220458
-0.000772452
0.0225268
-0.000652626
0.0230095
-0.000219798
0.0232368
0.000331942
0.0235564
0.000816705
0.0237292
0.000999343
0.0238239
0.000979605
0.0238602
0.000857833
0.0238712
0.00070297
0.0238736
0.000540744
0.0238741
0.000377215
0.0238741
0.000213478
0.0238742
4.97143e-05
0.0238742
-0.000114022
0.0238742
-0.000277545
0.0238741
-0.000439714
0.0238741
-0.000594181
0.0238736
-0.000714702
0.0238711
-0.000732508
0.0238599
-0.000550144
0.0238232
-5.56005e-05
0.0237276
0.000501795
0.0235533
0.000891255
0.0232435
0.000975888
0.0230121
0.0225246
-0.000534354
0.0225477
-0.000385147
0.0232836
3.52503e-05
0.0234684
0.000491805
0.0237445
0.000891683
0.023914
0.00102742
0.0239936
0.000987017
0.0240254
0.000859596
0.0240342
0.000704563
0.0240361
0.000543491
0.0240364
0.000381356
0.0240365
0.000219051
0.0240365
5.67246e-05
0.0240365
-0.000105581
0.0240365
-0.000267721
0.0240365
-0.000428799
0.0240364
-0.000583768
0.0240361
-0.000711007
0.024034
-0.000751706
0.0240249
-0.000618973
0.0239949
-0.000216005
0.0239127
0.00025237
0.0237663
0.000622961
0.023467
0.000723006
0.0232588
0.0227785
-0.000810041
0.0229908
-0.000730214
0.0234884
-0.000417442
0.023669
-5.65983e-06
0.0239351
0.000361765
0.0240617
0.000479778
0.0241335
0.000450973
0.0241589
0.000348582
0.0241666
0.000222642
0.0241683
9.14925e-05
0.0241686
-4.05456e-05
0.0241687
-0.00017272
0.0241687
-0.000304912
0.0241687
-0.000437087
0.0241687
-0.000569128
0.0241687
-0.000700322
0.0241686
-0.000826667
0.0241684
-0.000930365
0.0241668
-0.000960891
0.0241597
-0.000840509
0.0241333
-0.00049017
0.0240655
-7.74972e-05
0.0239204
0.000303395
0.0236722
0.000456251
0.0235164
0.0227993
-0.000530442
0.0232543
-0.000428245
0.0237616
-0.000105785
0.0238477
0.000254994
0.0240859
0.00056151
0.0241874
0.000666747
0.024246
0.000645614
0.0242668
0.000563473
0.0242727
0.000462651
0.024274
0.000357885
0.0242742
0.000252445
0.0242742
0.000146899
0.0242742
4.13413e-05
0.0242742
-6.42034e-05
0.0242742
-0.000169641
0.0242742
-0.000274376
0.0242742
-0.000374964
0.024274
-0.000456254
0.0242727
-0.000475868
0.0242667
-0.000370347
0.0242459
-5.64051e-05
0.0241881
0.000312647
0.024086
0.000605647
0.0238646
0.000689202
0.0237738
0.0232473
-0.00030688
0.0235691
-0.000240248
0.0242368
6.48808e-05
0.0241052
0.000379516
0.0242671
0.000627173
0.0243216
0.000702746
0.0243575
0.000670203
0.024372
0.000586807
0.0243758
0.000488165
0.0243766
0.00038634
0.0243767
0.00028397
0.0243767
0.000181514
0.0243767
7.90483e-05
0.0243767
-2.34073e-05
0.0243767
-0.000125779
0.0243767
-0.000227597
0.0243767
-0.000326114
0.0243765
-0.000408977
0.0243756
-0.000440576
0.0243715
-0.000365524
0.0243586
-0.000110235
0.024321
0.00020813
0.0242856
0.000481976
0.0241049
0.000507698
0.0242389
0.0238059
-0.000638549
0.0241479
-0.000724553
0.0247883
-0.000449708
0.0244397
-0.000121569
0.0245242
0.000126503
0.0244518
0.000209314
0.0244546
0.00019655
0.0244519
0.000138076
0.0244524
6.56047e-05
0.0244527
-9.87109e-06
0.0244528
-8.58374e-05
0.0244528
-0.00016188
0.0244528
-0.000237932
0.0244528
-0.000313975
0.0244528
-0.000389948
0.0244528
-0.000465466
0.0244528
-0.000538278
0.0244527
-0.000597801
0.0244528
-0.000611722
0.024453
-0.000525392
0.024455
-0.000275088
0.0244536
4.68596e-05
0.0245214
0.000365942
0.0244139
0.000311712
0.0247202
0.0240053
-0.000451676
0.0242912
-0.000727497
0.0253345
-0.00044029
0.0246744
-6.68702e-05
0.0247296
0.000204369
0.0245601
0.000312597
0.0245322
0.000318386
0.0245161
0.000277321
0.0245125
0.00022206
0.0245116
0.000163923
0.0245115
0.000105326
0.0245114
4.66604e-05
0.0245114
-1.2013e-05
0.0245114
-7.06779e-05
0.0245114
-0.000129272
0.0245114
-0.000187386
0.0245115
-0.000242517
0.0245116
-0.000283057
0.0245122
-0.000275792
0.0245155
-0.000164732
0.024532
0.000108524
0.0245569
0.000474867
0.0247186
0.000763585
0.0246815
0.000506718
0.0253446
0.0242078
-0.000464315
0.0241812
-0.000865785
0.0257224
-0.00058147
0.0248104
-0.000142094
0.0248351
0.000170103
0.0246251
0.000317485
0.0245928
0.000337958
0.0245723
0.000303758
0.0245679
0.000252542
0.0245669
0.000197901
0.0245667
0.000142716
0.0245667
8.74529e-05
0.0245667
3.21799e-05
0.0245667
-2.30834e-05
0.0245667
-7.82642e-05
0.0245667
-0.000132866
0.0245667
-0.000183766
0.0245668
-0.000216875
0.0245675
-0.000195165
0.0245713
-4.38236e-05
0.0245903
0.000270062
0.0246211
0.00069904
0.0248296
0.000973927
0.0247978
0.000551933
0.0257442
0.0242546
-0.00401332
0.0368371
-0.00851359
0.0467795
-0.0119999
0.0535854
-0.0129237
0.0553075
-0.0128699
0.0558418
-0.0124473
0.0559481
-0.0119414
0.0559643
-0.0114235
0.0559661
-0.0109043
0.0559662
-0.0103851
0.0559662
-0.00986583
0.0559662
-0.00934658
0.0559662
-0.00882732
0.0559662
-0.00830807
0.0559662
-0.00778881
0.0559662
-0.00726956
0.0559662
-0.00675031
0.0559662
-0.00623105
0.0559662
-0.0057118
0.0559662
-0.00519254
0.0559662
-0.00467329
0.0559662
-0.00415403
0.0559662
-0.00363478
0.0559662
-0.00311551
0.0559662
-0.00259605
0.0559662
-0.00207475
0.0559659
-0.00154023
0.0559629
-0.00100544
0.0559564
-0.000106622
0.0557146
0.0560592
-0.00549075
0.0442299
-0.0104671
0.0486074
-0.013929
0.0540712
-0.0147215
0.0550185
-0.0145825
0.0553297
-0.0140861
0.0553722
-0.0135107
0.0553781
-0.0129244
0.0553787
-0.012337
0.0553788
-0.0117495
0.0553788
-0.011162
0.0553788
-0.0105746
0.0553788
-0.0099871
0.0553788
-0.00939962
0.0553788
-0.00881214
0.0553788
-0.00822467
0.0553788
-0.00763719
0.0553788
-0.00704972
0.0553788
-0.00646224
0.0553788
-0.00587476
0.0553788
-0.00528729
0.0553788
-0.00469981
0.0553788
-0.00411233
0.0553788
-0.00352484
0.0553788
-0.00293718
0.0553787
-0.002348
0.0553783
-0.00175122
0.0553749
-0.00114967
0.0553558
-0.000639305
0.0552583
0.0553549
-0.00364446
0.0500771
-0.00806195
0.0493714
-0.0116248
0.0542284
-0.0123421
0.0546162
-0.0122294
0.0548477
-0.0118088
0.0548799
-0.011325
0.0548855
-0.0108333
0.0548863
-0.010341
0.0548863
-0.00984855
0.0548863
-0.00935613
0.0548863
-0.0088637
0.0548863
-0.00837127
0.0548863
-0.00787884
0.0548863
-0.00738641
0.0548863
-0.00689399
0.0548863
-0.00640156
0.0548863
-0.00590913
0.0548863
-0.0054167
0.0548863
-0.00492428
0.0548863
-0.00443185
0.0548863
-0.00393942
0.0548863
-0.00344699
0.0548863
-0.00295456
0.0548863
-0.00246204
0.0548863
-0.00196884
0.0548862
-0.00147162
0.0548849
-0.000974223
0.0548698
-0.000517925
0.0548505
0.0547601
-0.00220164
0.052731
-0.0061982
0.0493685
-0.00975905
0.054232
-0.0104443
0.0541823
-0.0103709
0.0544157
-0.0100114
0.0544607
-0.00960012
0.0544681
-0.00918321
0.0544688
-0.00876583
0.0544689
-0.00834841
0.0544689
-0.00793099
0.0544689
-0.00751357
0.0544689
-0.00709615
0.0544689
-0.00667873
0.0544689
-0.00626131
0.0544689
-0.00584389
0.0544689
-0.00542647
0.0544689
-0.00500905
0.0544689
-0.00459162
0.0544689
-0.0041742
0.0544689
-0.00375678
0.0544689
-0.00333936
0.0544689
-0.00292194
0.0544689
-0.00250452
0.0544689
-0.00208706
0.0544689
-0.00166934
0.0544689
-0.00125046
0.0544686
-0.000831231
0.0544668
-0.000421776
0.05446
0.0543074
-0.00217515
0.0545571
-0.00595163
0.0493259
-0.00933361
0.0537037
-0.00998245
0.0537636
-0.0098925
0.0540211
-0.00954506
0.0540637
-0.00915262
0.0540703
-0.00875513
0.0540709
-0.00835721
0.0540709
-0.00795925
0.0540709
-0.00756128
0.0540709
-0.00716332
0.0540709
-0.00676536
0.0540709
-0.0063674
0.0540709
-0.00596944
0.0540709
-0.00557147
0.0540709
-0.00517351
0.0540709
-0.00477555
0.0540709
-0.00437759
0.0540709
-0.00397962
0.0540709
-0.00358166
0.0540709
-0.0031837
0.0540709
-0.00278574
0.0540709
-0.00238777
0.0540709
-0.00198978
0.0540709
-0.00159163
0.0540709
-0.00119288
0.0540708
-0.000794069
0.0540705
-0.000397697
0.0540675
0.0539024
-0.00234131
0.0537851
-0.00583165
0.0495685
-0.00897086
0.0533168
-0.00956279
0.0534322
-0.00946654
0.0536504
-0.00913205
0.0536851
-0.00875638
0.0536897
-0.00837609
0.0536902
-0.00799539
0.0536902
-0.00761466
0.0536902
-0.00723392
0.0536902
-0.00685319
0.0536902
-0.00647246
0.0536902
-0.00609172
0.0536902
-0.00571099
0.0536902
-0.00533026
0.0536902
-0.00494953
0.0536902
-0.00456879
0.0536902
-0.00418806
0.0536902
-0.00380733
0.0536902
-0.0034266
0.0536902
-0.00304586
0.0536902
-0.00266513
0.0536902
-0.00228439
0.0536902
-0.00190364
0.0536902
-0.00152273
0.0536902
-0.00114135
0.0536901
-0.000759973
0.05369
-0.000379866
0.0536876
0.0535205
-0.00233743
0.0534974
-0.00554491
0.0499671
-0.00843671
0.0530567
-0.00898742
0.0531399
-0.00889217
0.0533043
-0.00857651
0.0533289
-0.00822344
0.0533323
-0.00786626
0.0533326
-0.00750873
0.0533327
-0.00715117
0.0533327
-0.00679362
0.0533327
-0.00643606
0.0533327
-0.0060785
0.0533327
-0.00572094
0.0533327
-0.00536338
0.0533327
-0.00500582
0.0533327
-0.00464826
0.0533327
-0.0042907
0.0533327
-0.00393315
0.0533327
-0.00357559
0.0533327
-0.00321803
0.0533327
-0.00286047
0.0533327
-0.00250291
0.0533327
-0.00214535
0.0533327
-0.00178777
0.0533327
-0.00143005
0.0533326
-0.00107189
0.0533326
-0.000713777
0.0533324
-0.000356726
0.0533301
0.0531626
-0.00208889
0.0537285
-0.00503582
0.0503485
-0.00771095
0.0528198
-0.00821658
0.0528576
-0.00812896
0.0529824
-0.00783913
0.0530025
-0.00751615
0.0530055
-0.00718967
0.0530058
-0.00686289
0.0530059
-0.00653609
0.0530059
-0.00620928
0.0530059
-0.00588248
0.0530059
-0.00555567
0.0530059
-0.00522887
0.0530059
-0.00490206
0.0530059
-0.00457526
0.0530059
-0.00424846
0.0530059
-0.00392165
0.0530059
-0.00359485
0.0530059
-0.00326804
0.0530059
-0.00294124
0.0530059
-0.00261443
0.0530059
-0.00228763
0.0530059
-0.00196082
0.0530059
-0.001634
0.0530058
-0.00130704
0.0530058
-0.000979689
0.0530058
-0.000652412
0.0530056
-0.000326107
0.0530033
0.0528356
-0.00183104
0.0537492
-0.0045076
0.0504756
-0.00696454
0.0525803
-0.00742755
0.0525693
-0.00734719
0.0526883
-0.00708373
0.0527074
-0.00679163
0.0527103
-0.00649659
0.0527105
-0.00620131
0.0527106
-0.00590601
0.0527106