/*--------------------------------*- C++ -*----------------------------------*\
| =========                 |                                                 |
| \\      /  F ield         | OpenFOAM: The Open Source CFD Toolbox           |
|  \\    /   O peration     | Version:  2112                                  |
|   \\  /    A nd           | Website:  www.openfoam.com                      |
|    \\/     M anipulation  |                                                 |
\*---------------------------------------------------------------------------*/
FoamFile
{
    version     2.0;
    format      ascii;
    arch        "LSB;label=32;scalar=64";
    class       volScalarField;
    location    "0.00015";
    object      alphat;
}
// * * * * * * * * * * * * * * * * * * * * * * * * * * * * * * * * * * * * * //

dimensions      [1 -1 -1 0 0 0 0];

internalField   nonuniform List<scalar> 
13875
(
0.128282
0.0798392
0.103765
0.114753
0.120301
0.123841
0.125717
0.126713
0.12719
0.127393
0.127477
0.127511
0.127515
0.127503
0.127463
0.127376
0.127179
0.126707
0.125729
0.123871
0.120291
0.114785
0.103903
0.0801175
0.129368
0.164406
0.111495
0.162754
0.183756
0.196219
0.204283
0.209002
0.211599
0.212878
0.213442
0.213678
0.213767
0.213787
0.213763
0.213667
0.213428
0.212876
0.21161
0.209049
0.204383
0.196351
0.184083
0.16328
0.112617
0.16872
0.262582
0.265189
0.37667
0.428915
0.463501
0.485895
0.499384
0.5068
0.510498
0.512158
0.512866
0.513133
0.513199
0.513134
0.512867
0.512166
0.510522
0.506838
0.499449
0.485988
0.463603
0.429166
0.377336
0.265627
0.258521
0.391782
0.607122
0.833449
0.942422
1.01802
1.06714
1.09755
1.11451
1.12314
1.12712
1.12886
1.12952
1.1297
1.12955
1.1289
1.12719
1.12322
1.11463
1.09768
1.06727
1.01817
0.942533
0.833266
0.60629
0.396642
0.54776
1.22599
1.66149
1.86306
2.00355
2.09438
2.15161
2.18421
2.20123
2.20937
2.21302
2.21446
2.21487
2.21452
2.21312
2.20954
2.20145
2.18457
2.15208
2.09496
2.00419
1.8631
1.65905
1.22516
0.536855
0.741037
2.19701
2.9778
3.32182
3.55529
3.70407
3.79888
3.85424
3.88391
3.8986
3.90538
3.90816
3.90898
3.90835
3.90567
3.89899
3.88438
3.8549
3.7997
3.70494
3.5557
3.31924
2.97186
2.19082
0.724939
0.981683
3.41056
4.61341
5.15693
5.50934
5.73637
5.88288
5.9706
6.01864
6.04293
6.05435
6.05915
6.06049
6.05921
6.0543
6.04256
6.0177
5.96876
5.87976
5.73188
5.502
5.13651
4.55906
3.26379
0.957083
1.2542
5.34314
7.9786
9.14095
9.75011
10.1076
10.3372
10.4814
10.5639
10.6074
10.6287
10.6382
10.6413
10.6391
10.6296
10.608
10.5644
10.4815
10.3373
10.1076
9.74562
9.11278
7.93592
5.32295
1.24505
1.80087
8.9271
14.0219
16.231
17.1888
17.6649
17.9303
18.0793
18.162
18.2038
18.2215
18.228
18.2294
18.2278
18.2219
18.2048
18.1638
18.0824
17.9335
17.6593
17.1748
16.2118
14.0674
9.06257
1.7575
3.20886
12.8223
17.0496
18.9113
19.8355
20.3602
20.6581
20.8233
20.9114
20.9538
20.9718
20.9792
20.9806
20.9795
20.973
20.9561
20.9147
20.8272
20.6587
20.3524
19.8205
18.9043
17.0562
12.8173
3.22882
3.71901
13.8831
17.6895
19.2411
20.0821
20.5923
20.8821
21.0349
21.1116
21.1468
21.1608
21.1658
21.1666
21.1663
21.1622
21.1503
21.118
21.0431
20.8884
20.5935
20.0823
19.2509
17.7294
13.9508
3.778
3.57103
13.657
16.7529
17.8881
18.5208
18.9243
19.1599
19.2814
19.3409
19.3699
19.3822
19.3854
19.3851
19.3855
19.3841
19.3767
19.3511
19.2921
19.1692
18.9315
18.5335
17.9102
16.7959
13.7079
3.62454
2.92437
11.186
13.3562
14.0461
14.4447
14.7042
14.8642
14.9487
14.992
15.0154
15.0255
15.0277
15.0277
15.027
15.0241
15.0156
14.9934
14.9494
14.8631
14.7015
14.4446
14.0535
13.3836
11.2083
2.9288
1.65783
5.39766
6.36947
6.61939
6.77251
6.87631
6.94406
6.98377
7.00506
7.01448
7.01775
7.02112
7.02207
7.01735
7.00582
6.99141
6.97449
6.94666
6.90026
6.8261
6.71884
6.56823
6.33719
5.43782
1.64083
0.582412
1.12121
1.38974
1.45453
1.49776
1.52648
1.54398
1.55402
1.55953
1.56158
1.56308
1.56572
1.56663
1.56543
1.56211
1.55787
1.55377
1.54695
1.53523
1.51627
1.4868
1.44405
1.38256
1.13402
0.568744
0.157801
0.0604439
0.0731448
0.0748247
0.0761247
0.0770504
0.0776569
0.07803
0.0782705
0.0783952
0.0784897
0.0786324
0.0787048
0.0786693
0.0785091
0.0782841
0.0781094
0.077862
0.0774303
0.0767719
0.0758152
0.0745017
0.0729293
0.0610445
0.153655
0.0267264
0.139604
0.221538
0.245248
0.247192
0.245602
0.24429
0.243552
0.243155
0.242974
0.242856
0.242689
0.242609
0.242659
0.242868
0.243176
0.243437
0.243853
0.244685
0.246086
0.247746
0.245917
0.22239
0.140227
0.0267262
0.0246196
0.152621
0.263036
0.296209
0.301743
0.302253
0.30219
0.302129
0.302102
0.302093
0.30209
0.302089
0.302089
0.302089
0.30209
0.302094
0.302105
0.302129
0.302183
0.302218
0.301652
0.29602
0.262593
0.1521
0.0246679
0.0236476
0.144116
0.254571
0.292768
0.300184
0.301583
0.301993
0.302157
0.302217
0.302237
0.302242
0.302243
0.302244
0.302243
0.302242
0.302237
0.302219
0.30216
0.302002
0.301617
0.300336
0.293478
0.256739
0.146661
0.0240664
0.023022
0.136745
0.246953
0.289173
0.298532
0.300791
0.301657
0.30204
0.302184
0.302229
0.30224
0.302243
0.302243
0.302243
0.30224
0.302229
0.302184
0.302041
0.301663
0.30081
0.298564
0.28913
0.246601
0.136229
0.0227457
0.0257084
0.146074
0.253435
0.290602
0.298498
0.300708
0.301643
0.302048
0.302191
0.302231
0.302241
0.302243
0.302243
0.302243
0.302241
0.30223
0.302186
0.302033
0.301605
0.300621
0.298289
0.289894
0.251284
0.14342
0.0251984
0.0285876
0.158702
0.262377
0.29302
0.299089
0.301002
0.301814
0.302122
0.302215
0.302238
0.302242
0.302243
0.302244
0.302243
0.302242
0.302237
0.302211
0.302109
0.301775
0.30091
0.298906
0.292597
0.261345
0.157529
0.0284997
0.0315178
0.171068
0.270315
0.295437
0.300019
0.301446
0.301997
0.302181
0.30223
0.302241
0.302243
0.302244
0.302244
0.302244
0.302243
0.302241
0.30223
0.302181
0.301995
0.301444
0.300024
0.295541
0.270973
0.172462
0.0318369
0.034477
0.184055
0.277525
0.297471
0.300782
0.301774
0.302116
0.302215
0.302238
0.302243
0.302243
0.302244
0.302244
0.302244
0.302243
0.302243
0.302238
0.302215
0.302117
0.301778
0.300794
0.297494
0.277568
0.184022
0.0343765
0.0364184
0.192259
0.281586
0.298594
0.301217
0.301946
0.302172
0.302229
0.302241
0.302243
0.302244
0.302244
0.302244
0.302244
0.302244
0.302243
0.302241
0.302229
0.30217
0.301942
0.301206
0.298548
0.281363
0.191708
0.0363532
0.0385765
0.19961
0.284655
0.299335
0.301475
0.302039
0.302199
0.302235
0.302242
0.302243
0.302244
0.302244
0.302244
0.302244
0.302244
0.302243
0.302242
0.302236
0.3022
0.302044
0.301491
0.299403
0.285011
0.200641
0.0387852
0.0408752
0.20786
0.287643
0.299985
0.301678
0.302105
0.302216
0.302239
0.302243
0.302244
0.302244
0.302244
0.302244
0.302244
0.302244
0.302244
0.302243
0.302239
0.302215
0.302102
0.301666
0.299925
0.287302
0.206754
0.0405766
0.0426139
0.213494
0.289541
0.300391
0.301807
0.302145
0.302225
0.302241
0.302243
0.302244
0.302244
0.302244
0.302244
0.302244
0.302244
0.302244
0.302243
0.302241
0.302225
0.302142
0.301799
0.300367
0.289454
0.213263
0.0427057
0.0445297
0.21855
0.29109
0.300697
0.301896
0.30217
0.302231
0.302242
0.302243
0.302244
0.302244
0.302244
0.302244
0.302244
0.302244
0.302244
0.302243
0.302242
0.302231
0.302174
0.301914
0.300777
0.291561
0.220316
0.0448566
0.0468307
0.225865
0.293079
0.30106
0.30199
0.302193
0.302235
0.302242
0.302243
0.302244
0.302244
0.302244
0.302244
0.302244
0.302244
0.302244
0.302243
0.302242
0.302235
0.302192
0.301983
0.301014
0.292742
0.224374
0.0464103
0.048279
0.230147
0.294199
0.301272
0.302048
0.302207
0.302238
0.302243
0.302244
0.302244
0.302244
0.302244
0.302244
0.302244
0.302244
0.302244
0.302244
0.302243
0.302238
0.302206
0.302045
0.301263
0.294179
0.23012
0.0484371
0.0497323
0.233146
0.294939
0.301404
0.302082
0.302215
0.302239
0.302243
0.302244
0.302244
0.302244
0.302244
0.302244
0.302244
0.302244
0.302244
0.302244
0.302243
0.30224
0.302216
0.302089
0.301441
0.295198
0.234402
0.0499381
0.0515616
0.238254
0.296029
0.301573
0.30212
0.302223
0.302241
0.302243
0.302244
0.302244
0.302244
0.302244
0.302244
0.302244
0.302244
0.302244
0.302244
0.302243
0.302241
0.302222
0.302117
0.301554
0.295862
0.23729
0.0513172
0.0527269
0.241223
0.296654
0.301674
0.302144
0.302228
0.302241
0.302243
0.302244
0.302244
0.302244
0.302244
0.302244
0.302244
0.302244
0.302244
0.302244
0.302243
0.302241
0.302228
0.302144
0.301679
0.29669
0.241417
0.0528735
0.0538555
0.243036
0.297038
0.301736
0.302158
0.30223
0.302242
0.302243
0.302244
0.302244
0.302244
0.302244
0.302244
0.302244
0.302244
0.302244
0.302244
0.302243
0.302242
0.302231
0.302162
0.301758
0.297207
0.244047
0.0539857
0.055315
0.246813
0.297704
0.301826
0.302175
0.302233
0.302242
0.302243
0.302244
0.302244
0.302244
0.302244
0.302244
0.302244
0.302244
0.302244
0.302244
0.302243
0.302242
0.302233
0.302173
0.301809
0.297548
0.245764
0.0550848
0.056256
0.248922
0.298086
0.301881
0.302187
0.302236
0.302243
0.302243
0.302244
0.302244
0.302244
0.302244
0.302244
0.302244
0.302244
0.302244
0.302244
0.302243
0.302243
0.302235
0.302187
0.301882
0.298097
0.249021
0.0563645
0.0571547
0.250086
0.298315
0.301916
0.302195
0.302237
0.302243
0.302244
0.302244
0.302244
0.302244
0.302244
0.302244
0.302244
0.302244
0.302244
0.302244
0.302244
0.302243
0.302237
0.302196
0.301929
0.298437
0.250989
0.0572526
0.0582817
0.252949
0.298753
0.30197
0.302204
0.302238
0.302243
0.302244
0.302244
0.302244
0.302244
0.302244
0.302244
0.302244
0.302244
0.302244
0.302244
0.302244
0.302243
0.302238
0.302202
0.301957
0.298629
0.25197
0.0580986
0.0590144
0.254459
0.299
0.302002
0.30221
0.302239
0.302243
0.302244
0.302244
0.302244
0.302244
0.302244
0.302244
0.302244
0.302244
0.302244
0.302244
0.302244
0.302243
0.302239
0.30221
0.302003
0.299005
0.254522
0.0590946
0.0596984
0.255154
0.299137
0.302022
0.302214
0.30224
0.302243
0.302244
0.302244
0.302244
0.302244
0.302244
0.302244
0.302244
0.302244
0.302244
0.302244
0.302244
0.302243
0.30224
0.302215
0.302032
0.299235
0.255985
0.0597745
0.0605313
0.257338
0.299438
0.302057
0.30222
0.302241
0.302243
0.302244
0.302244
0.302244
0.302244
0.302244
0.302244
0.302244
0.302244
0.302244
0.302244
0.302244
0.302243
0.30224
0.302219
0.302048
0.299346
0.256509
0.0604041
0.0610721
0.258418
0.299604
0.302078
0.302223
0.302241
0.302243
0.302244
0.302244
0.302244
0.302244
0.302244
0.302244
0.302244
0.302244
0.302244
0.302244
0.302244
0.302243
0.302241
0.302223
0.302078
0.299603
0.258425
0.0611212
0.0615632
0.258781
0.299687
0.30209
0.302226
0.302241
0.302243
0.302244
0.302244
0.302244
0.302244
0.302244
0.302244
0.302244
0.302244
0.302244
0.302244
0.302244
0.302243
0.302242
0.302227
0.302097
0.299764
0.259506
0.0616162
0.0621338
0.260417
0.299897
0.302114
0.302229
0.302242
0.302243
0.302244
0.302244
0.302244
0.302244
0.302244
0.302244
0.302244
0.302244
0.302244
0.302244
0.302244
0.302243
0.302242
0.302229
0.302108
0.299834
0.259795
0.0620618
0.0625011
0.261176
0.30001
0.302127
0.302232
0.302242
0.302243
0.302244
0.302244
0.302244
0.302244
0.302244
0.302244
0.302244
0.302244
0.302244
0.302244
0.302244
0.302243
0.302242
0.302231
0.302127
0.300003
0.261113
0.0625227
0.062824
0.261301
0.300058
0.302136
0.302233
0.302242
0.302243
0.302244
0.302244
0.302244
0.302244
0.302244
0.302244
0.302244
0.302244
0.302244
0.302244
0.302244
0.302243
0.302243
0.302234
0.30214
0.300117
0.26191
0.0628525
0.0631678
0.262472
0.300203
0.302151
0.302235
0.302243
0.302244
0.302244
0.302244
0.302244
0.302244
0.302244
0.302244
0.302244
0.302244
0.302244
0.302244
0.302244
0.302244
0.302243
0.302235
0.302147
0.30016
0.26206
0.0631312
0.063367
0.262926
0.300264
0.302155
0.302236
0.302243
0.302244
0.302244
0.302244
0.302244
0.302244
0.302244
0.302244
0.302244
0.302244
0.302244
0.302244
0.302244
0.302244
0.302243
0.302236
0.302153
0.300242
0.26275
0.0633682
0.0635705
0.263588
0.300295
0.302141
0.302234
0.302243
0.302244
0.302244
0.302244
0.302244
0.302244
0.302244
0.302244
0.302244
0.302244
0.302244
0.302244
0.302244
0.302244
0.302243
0.302234
0.302142
0.300313
0.263778
0.0635762
0.135967
0.294454
0.302699
0.302665
0.302636
0.302628
0.302621
0.302615
0.302609
0.302603
0.302598
0.302592
0.302587
0.302581
0.302576
0.302571
0.302566
0.302561
0.302556
0.302552
0.302547
0.302543
0.302538
0.302534
0.30253
0.302526
0.302522
0.302492
0.299439
0.152742
0.128119
0.296954
0.302427
0.302297
0.302272
0.30227
0.302269
0.302268
0.302267
0.302266
0.302266
0.302265
0.302264
0.302264
0.302263
0.302262
0.302262
0.302261
0.302261
0.30226
0.30226
0.302259
0.302259
0.302258
0.302258
0.302258
0.302257
0.302226
0.298745
0.150776
0.134296
0.298401
0.3024
0.302264
0.302246
0.302245
0.302245
0.302245
0.302245
0.302244
0.302244
0.302244
0.302244
0.302244
0.302244
0.302244
0.302244
0.302244
0.302244
0.302244
0.302244
0.302244
0.302244
0.302244
0.302244
0.302244
0.302244
0.302212
0.298625
0.149282
0.137799
0.298329
0.302365
0.302258
0.302245
0.302244
0.302244
0.302244
0.302244
0.302244
0.302244
0.302244
0.302244
0.302244
0.302244
0.302244
0.302244
0.302244
0.302244
0.302244
0.302244
0.302244
0.302244
0.302244
0.302244
0.302244
0.302243
0.302211
0.29854
0.148026
0.137407
0.298026
0.302348
0.302257
0.302244
0.302244
0.302244
0.302244
0.302244
0.302244
0.302244
0.302244
0.302244
0.302244
0.302244
0.302244
0.302244
0.302244
0.302244
0.302244
0.302244
0.302244
0.302244
0.302244
0.302244
0.302244
0.302243
0.30221
0.29845
0.146886
0.136987
0.297969
0.30234
0.302256
0.302244
0.302244
0.302244
0.302244
0.302244
0.302244
0.302244
0.302244
0.302244
0.302244
0.302244
0.302244
0.302244
0.302244
0.302244
0.302244
0.302244
0.302244
0.302244
0.302244
0.302244
0.302244
0.302243
0.302209
0.298358
0.145796
0.136915
0.297976
0.302331
0.302255
0.302244
0.302244
0.302244
0.302244
0.302244
0.302244
0.302244
0.302244
0.302244
0.302244
0.302244
0.302244
0.302244
0.302244
0.302244
0.302244
0.302244
0.302244
0.302244
0.302244
0.302244
0.302244
0.302243
0.302207
0.298268
0.144764
0.13721
0.297998
0.302321
0.302254
0.302244
0.302244
0.302244
0.302244
0.302244
0.302244
0.302244
0.302244
0.302244
0.302244
0.302244
0.302244
0.302244
0.302244
0.302244
0.302244
0.302244
0.302244
0.302244
0.302244
0.302244
0.302244
0.302243
0.302206
0.298186
0.14381
0.137503
0.29799
0.30231
0.302252
0.302244
0.302244
0.302244
0.302244
0.302244
0.302244
0.302244
0.302244
0.302244
0.302244
0.302244
0.302244
0.302244
0.302244
0.302244
0.302244
0.302244
0.302244
0.302244
0.302244
0.302244
0.302244
0.302243
0.302205
0.298111
0.142943
0.137656
0.297959
0.302299
0.302251
0.302244
0.302244
0.302244
0.302244
0.302244
0.302244
0.302244
0.302244
0.302244
0.302244
0.302244
0.302244
0.302244
0.302244
0.302244
0.302244
0.302244
0.302244
0.302244
0.302244
0.302244
0.302244
0.302243
0.302204
0.298042
0.142158
0.137654
0.297916
0.30229
0.30225
0.302244
0.302244
0.302244
0.302244
0.302244
0.302244
0.302244
0.302244
0.302244
0.302244
0.302244
0.302244
0.302244
0.302244
0.302244
0.302244
0.302244
0.302244
0.302244
0.302244
0.302244
0.302244
0.302243
0.302203
0.297978
0.141448
0.137557
0.297875
0.302282
0.30225
0.302244
0.302244
0.302244
0.302244
0.302244
0.302244
0.302244
0.302244
0.302244
0.302244
0.302244
0.302244
0.302244
0.302244
0.302244
0.302244
0.302244
0.302244
0.302244
0.302244
0.302244
0.302244
0.302243
0.302202
0.297918
0.1408
0.137444
0.297837
0.302274
0.302249
0.302244
0.302244
0.302244
0.302244
0.302244
0.302244
0.302244
0.302244
0.302244
0.302244
0.302244
0.302244
0.302244
0.302244
0.302244
0.302244
0.302244
0.302244
0.302244
0.302244
0.302244
0.302244
0.302243
0.302202
0.297863
0.140209
0.137289
0.297804
0.302267
0.302248
0.302244
0.302244
0.302244
0.302244
0.302244
0.302244
0.302244
0.302244
0.302244
0.302244
0.302244
0.302244
0.302244
0.302244
0.302244
0.302244
0.302244
0.302244
0.302244
0.302244
0.302244
0.302244
0.302243
0.302201
0.297812
0.139671
0.137229
0.297778
0.30226
0.302248
0.302244
0.302244
0.302244
0.302244
0.302244
0.302244
0.302244
0.302244
0.302244
0.302244
0.302244
0.302244
0.302244
0.302244
0.302244
0.302244
0.302244
0.302244
0.302244
0.302244
0.302244
0.302244
0.302243
0.3022
0.297766
0.139186
0.137088
0.297741
0.302253
0.302247
0.302244
0.302244
0.302244
0.302244
0.302244
0.302244
0.302244
0.302244
0.302244
0.302244
0.302244
0.302244
0.302244
0.302244
0.302244
0.302244
0.302244
0.302244
0.302244
0.302244
0.302244
0.302244
0.302243
0.302199
0.297724
0.138751
0.136989
0.297717
0.302247
0.302247
0.302244
0.302244
0.302244
0.302244
0.302244
0.302244
0.302244
0.302244
0.302244
0.302244
0.302244
0.302244
0.302244
0.302244
0.302244
0.302244
0.302244
0.302244
0.302244
0.302244
0.302244
0.302244
0.302243
0.302199
0.297687
0.138363
0.136925
0.297692
0.302241
0.302246
0.302244
0.302244
0.302244
0.302244
0.302244
0.302244
0.302244
0.302244
0.302244
0.302244
0.302244
0.302244
0.302244
0.302244
0.302244
0.302244
0.302244
0.302244
0.302244
0.302244
0.302244
0.302244
0.302243
0.302198
0.297654
0.138021
0.136827
0.297665
0.302235
0.302246
0.302244
0.302244
0.302244
0.302244
0.302244
0.302244
0.302244
0.302244
0.302244
0.302244
0.302244
0.302244
0.302244
0.302244
0.302244
0.302244
0.302244
0.302244
0.302244
0.302244
0.302244
0.302244
0.302243
0.302198
0.297625
0.137722
0.136779
0.297649
0.302229
0.302245
0.302244
0.302244
0.302244
0.302244
0.302244
0.302244
0.302244
0.302244
0.302244
0.302244
0.302244
0.302244
0.302244
0.302244
0.302244
0.302244
0.302244
0.302244
0.302244
0.302244
0.302244
0.302244
0.302243
0.302198
0.297601
0.137463
0.13674
0.297628
0.302224
0.302245
0.302244
0.302244
0.302244
0.302244
0.302244
0.302244
0.302244
0.302244
0.302244
0.302244
0.302244
0.302244
0.302244
0.302244
0.302244
0.302244
0.302244
0.302244
0.302244
0.302244
0.302244
0.302244
0.302243
0.302197
0.297581
0.137245
0.136695
0.297612
0.302219
0.302245
0.302244
0.302244
0.302244
0.302244
0.302244
0.302244
0.302244
0.302244
0.302244
0.302244
0.302244
0.302244
0.302244
0.302244
0.302244
0.302244
0.302244
0.302244
0.302244
0.302244
0.302244
0.302244
0.302243
0.302197
0.297564
0.137064
0.136698
0.297599
0.302214
0.302244
0.302244
0.302244
0.302244
0.302244
0.302244
0.302244
0.302244
0.302244
0.302244
0.302244
0.302244
0.302244
0.302244
0.302244
0.302244
0.302244
0.302244
0.302244
0.302244
0.302244
0.302244
0.302244
0.302243
0.302197
0.297551
0.136917
0.136682
0.297567
0.302208
0.302244
0.302244
0.302244
0.302244
0.302244
0.302244
0.302244
0.302244
0.302244
0.302244
0.302244
0.302244
0.302244
0.302244
0.302244
0.302244
0.302244
0.302244
0.302244
0.302244
0.302244
0.302244
0.302244
0.302243
0.302197
0.297542
0.136805
0.136668
0.297906
0.3022
0.302243
0.302244
0.302244
0.302244
0.302244
0.302244
0.302244
0.302244
0.302244
0.302244
0.302244
0.302244
0.302244
0.302244
0.302244
0.302244
0.302244
0.302244
0.302244
0.302244
0.302244
0.302244
0.302244
0.302243
0.302197
0.297537
0.136722
0.152741
0.299439
0.302492
0.302522
0.302526
0.30253
0.302534
0.302538
0.302543
0.302547
0.302552
0.302557
0.302561
0.302566
0.302571
0.302576
0.302581
0.302587
0.302592
0.302598
0.302604
0.302609
0.302615
0.302622
0.302628
0.302636
0.302665
0.302699
0.294447
0.135931
0.150775
0.298745
0.302226
0.302257
0.302258
0.302258
0.302258
0.302259
0.302259
0.30226
0.30226
0.302261
0.302261
0.302262
0.302262
0.302263
0.302264
0.302264
0.302265
0.302266
0.302266
0.302267
0.302268
0.302269
0.30227
0.302272
0.302297
0.302427
0.296956
0.128137
0.14928
0.298624
0.302212
0.302244
0.302244
0.302244
0.302244
0.302244
0.302244
0.302244
0.302244
0.302244
0.302244
0.302244
0.302244
0.302244
0.302244
0.302244
0.302244
0.302244
0.302244
0.302245
0.302245
0.302245
0.302245
0.302246
0.302264
0.3024
0.2984
0.134264
0.148026
0.29854
0.302211
0.302243
0.302244
0.302244
0.302244
0.302244
0.302244
0.302244
0.302244
0.302244
0.302244
0.302244
0.302244
0.302244
0.302244
0.302244
0.302244
0.302244
0.302244
0.302244
0.302244
0.302244
0.302244
0.302245
0.302258
0.302365
0.298336
0.137845
0.146886
0.298451
0.30221
0.302243
0.302244
0.302244
0.302244
0.302244
0.302244
0.302244
0.302244
0.302244
0.302244
0.302244
0.302244
0.302244
0.302244
0.302244
0.302244
0.302244
0.302244
0.302244
0.302244
0.302244
0.302244
0.302244
0.302257
0.302348
0.298022
0.137426
0.145795
0.298357
0.302209
0.302243
0.302244
0.302244
0.302244
0.302244
0.302244
0.302244
0.302244
0.302244
0.302244
0.302244
0.302244
0.302244
0.302244
0.302244
0.302244
0.302244
0.302244
0.302244
0.302244
0.302244
0.302244
0.302244
0.302256
0.302339
0.297967
0.136921
0.144765
0.298269
0.302207
0.302243
0.302244
0.302244
0.302244
0.302244
0.302244
0.302244
0.302244
0.302244
0.302244
0.302244
0.302244
0.302244
0.302244
0.302244
0.302244
0.302244
0.302244
0.302244
0.302244
0.302244
0.302244
0.302244
0.302255
0.302332
0.297985
0.137003
0.143811
0.298186
0.302206
0.302243
0.302244
0.302244
0.302244
0.302244
0.302244
0.302244
0.302244
0.302244
0.302244
0.302244
0.302244
0.302244
0.302244
0.302244
0.302244
0.302244
0.302244
0.302244
0.302244
0.302244
0.302244
0.302244
0.302254
0.302321
0.297989
0.137162
0.142942
0.298111
0.302205
0.302243
0.302244
0.302244
0.302244
0.302244
0.302244
0.302244
0.302244
0.302244
0.302244
0.302244
0.302244
0.302244
0.302244
0.302244
0.302244
0.302244
0.302244
0.302244
0.302244
0.302244
0.302244
0.302244
0.302252
0.30231
0.297994
0.137509
0.142159
0.298042
0.302204
0.302243
0.302244
0.302244
0.302244
0.302244
0.302244
0.302244
0.302244
0.302244
0.302244
0.302244
0.302244
0.302244
0.302244
0.302244
0.302244
0.302244
0.302244
0.302244
0.302244
0.302244
0.302244
0.302244
0.302251
0.302299
0.297958
0.137677
0.141447
0.297977
0.302203
0.302243
0.302244
0.302244
0.302244
0.302244
0.302244
0.302244
0.302244
0.302244
0.302244
0.302244
0.302244
0.302244
0.302244
0.302244
0.302244
0.302244
0.302244
0.302244
0.302244
0.302244
0.302244
0.302244
0.30225
0.30229
0.297913
0.137606
0.140799
0.297918
0.302202
0.302243
0.302244
0.302244
0.302244
0.302244
0.302244
0.302244
0.302244
0.302244
0.302244
0.302244
0.302244
0.302244
0.302244
0.302244
0.302244
0.302244
0.302244
0.302244
0.302244
0.302244
0.302244
0.302244
0.30225
0.302282
0.297882
0.137596
0.14021
0.297863
0.302202
0.302243
0.302244
0.302244
0.302244
0.302244
0.302244
0.302244
0.302244
0.302244
0.302244
0.302244
0.302244
0.302244
0.302244
0.302244
0.302244
0.302244
0.302244
0.302244
0.302244
0.302244
0.302244
0.302244
0.302249
0.302274
0.297833
0.137437
0.139671
0.297812
0.302201
0.302243
0.302244
0.302244
0.302244
0.302244
0.302244
0.302244
0.302244
0.302244
0.302244
0.302244
0.302244
0.302244
0.302244
0.302244
0.302244
0.302244
0.302244
0.302244
0.302244
0.302244
0.302244
0.302244
0.302248
0.302267
0.297803
0.137284
0.139186
0.297766
0.3022
0.302243
0.302244
0.302244
0.302244
0.302244
0.302244
0.302244
0.302244
0.302244
0.302244
0.302244
0.302244
0.302244
0.302244
0.302244
0.302244
0.302244
0.302244
0.302244
0.302244
0.302244
0.302244
0.302244
0.302248
0.30226
0.297779
0.137225
0.138752
0.297724
0.302199
0.302243
0.302244
0.302244
0.302244
0.302244
0.302244
0.302244
0.302244
0.302244
0.302244
0.302244
0.302244
0.302244
0.302244
0.302244
0.302244
0.302244
0.302244
0.302244
0.302244
0.302244
0.302244
0.302244
0.302247
0.302253
0.297741
0.137101
0.138363
0.297686
0.302199
0.302243
0.302244
0.302244
0.302244
0.302244
0.302244
0.302244
0.302244
0.302244
0.302244
0.302244
0.302244
0.302244
0.302244
0.302244
0.302244
0.302244
0.302244
0.302244
0.302244
0.302244
0.302244
0.302244
0.302247
0.302247
0.297715
0.136978
0.13802
0.297654
0.302198
0.302243
0.302244
0.302244
0.302244
0.302244
0.302244
0.302244
0.302244
0.302244
0.302244
0.302244
0.302244
0.302244
0.302244
0.302244
0.302244
0.302244
0.302244
0.302244
0.302244
0.302244
0.302244
0.302244
0.302246
0.302241
0.297695
0.136922
0.137722
0.297626
0.302198
0.302243
0.302244
0.302244
0.302244
0.302244
0.302244
0.302244
0.302244
0.302244
0.302244
0.302244
0.302244
0.302244
0.302244
0.302244
0.302244
0.302244
0.302244
0.302244
0.302244
0.302244
0.302244
0.302244
0.302246
0.302235
0.297666
0.136844
0.137464
0.297601
0.302198
0.302243
0.302244
0.302244
0.302244
0.302244
0.302244
0.302244
0.302244
0.302244
0.302244
0.302244
0.302244
0.302244
0.302244
0.302244
0.302244
0.302244
0.302244
0.302244
0.302244
0.302244
0.302244
0.302244
0.302245
0.302229
0.297646
0.136766
0.137245
0.297581
0.302197
0.302243
0.302244
0.302244
0.302244
0.302244
0.302244
0.302244
0.302244
0.302244
0.302244
0.302244
0.302244
0.302244
0.302244
0.302244
0.302244
0.302244
0.302244
0.302244
0.302244
0.302244
0.302244
0.302244
0.302245
0.302224
0.297631
0.136738
0.137064
0.297564
0.302197
0.302243
0.302244
0.302244
0.302244
0.302244
0.302244
0.302244
0.302244
0.302244
0.302244
0.302244
0.302244
0.302244
0.302244
0.302244
0.302244
0.302244
0.302244
0.302244
0.302244
0.302244
0.302244
0.302244
0.302245
0.302219
0.297612
0.136711
0.136918
0.297551
0.302197
0.302243
0.302244
0.302244
0.302244
0.302244
0.302244
0.302244
0.302244
0.302244
0.302244
0.302244
0.302244
0.302244
0.302244
0.302244
0.302244
0.302244
0.302244
0.302244
0.302244
0.302244
0.302244
0.302244
0.302244
0.302214
0.297596
0.136685
0.136804
0.297542
0.302197
0.302243
0.302244
0.302244
0.302244
0.302244
0.302244
0.302244
0.302244
0.302244
0.302244
0.302244
0.302244
0.302244
0.302244
0.302244
0.302244
0.302244
0.302244
0.302244
0.302244
0.302244
0.302244
0.302244
0.302244
0.302208
0.297569
0.136684
0.136721
0.297537
0.302197
0.302243
0.302244
0.302244
0.302244
0.302244
0.302244
0.302244
0.302244
0.302244
0.302244
0.302244
0.302244
0.302244
0.302244
0.302244
0.302244
0.302244
0.302244
0.302244
0.302244
0.302244
0.302244
0.302244
0.302243
0.3022
0.297906
0.13667
0.110686
0.110895
0.111105
0.111315
0.111524
0.111734
0.111944
0.112154
0.112363
0.112573
0.112783
0.112993
0.113202
0.113412
0.113622
0.113832
0.114041
0.114251
0.114461
0.114671
0.11488
0.11509
0.1153
0.11551
0.115719
0.115929
0.116139
0.116349
0.116559
0.116768
0.116978
0.117188
0.117398
0.117607
0.117817
0.118027
0.118237
0.118447
0.118656
0.118866
0.119076
0.119286
0.119496
0.119705
0.119915
0.120125
0.120335
0.120545
0.120755
0.120964
0.121174
0.121384
0.121594
0.121804
0.122014
0.122223
0.122433
0.122643
0.122853
0.123063
0.123273
0.123482
0.123692
0.123902
0.124112
0.124322
0.124532
0.124742
0.124951
0.125161
0.125371
0.125581
0.125791
0.126001
0.126211
0.126421
0.12663
0.12684
0.12705
0.12726
0.12747
0.12768
0.12789
0.1281
0.12831
0.128519
0.128729
0.128939
0.129149
0.129359
0.129569
0.129779
0.129989
0.130199
0.130409
0.130618
0.130828
0.131038
0.131248
0.131458
0.131668
0.131878
0.132088
0.132298
0.132508
0.132718
0.132928
0.133138
0.133347
0.133557
0.133767
0.133977
0.134187
0.134397
0.134607
0.134817
0.135027
0.135237
0.135447
0.135657
0.135867
0.136077
0.136287
0.136497
0.136706
0.293122
0.293191
0.293242
0.293292
0.293342
0.293391
0.29344
0.293489
0.293537
0.293585
0.293633
0.293681
0.293728
0.293775
0.293821
0.293867
0.293913
0.293959
0.294004
0.294049
0.294094
0.294139
0.294183
0.294227
0.29427
0.294314
0.294357
0.2944
0.294442
0.294484
0.294526
0.294568
0.294609
0.294651
0.294692
0.294732
0.294773
0.294813
0.294853
0.294892
0.294932
0.294971
0.29501
0.295048
0.295087
0.295125
0.295163
0.2952
0.295238
0.295275
0.295312
0.295349
0.295385
0.295422
0.295458
0.295494
0.295529
0.295565
0.2956
0.295635
0.29567
0.295704
0.295739
0.295773
0.295807
0.29584
0.295874
0.295907
0.29594
0.295973
0.296006
0.296038
0.296071
0.296103
0.296135
0.296166
0.296198
0.296229
0.29626
0.296291
0.296322
0.296353
0.296383
0.296413
0.296443
0.296473
0.296503
0.296532
0.296562
0.296591
0.29662
0.296649
0.296677
0.296706
0.296734
0.296762
0.29679
0.296818
0.296846
0.296873
0.296901
0.296928
0.296955
0.296982
0.297008
0.297035
0.297061
0.297087
0.297113
0.297139
0.297165
0.297191
0.297216
0.297242
0.297267
0.297292
0.297317
0.297341
0.297366
0.29739
0.297415
0.297439
0.297463
0.297487
0.297516
0.302104
0.302106
0.302107
0.302108
0.30211
0.302111
0.302112
0.302113
0.302114
0.302116
0.302117
0.302118
0.302119
0.30212
0.302121
0.302123
0.302124
0.302125
0.302126
0.302127
0.302128
0.302129
0.30213
0.302131
0.302132
0.302133
0.302134
0.302135
0.302136
0.302137
0.302138
0.302139
0.30214
0.302141
0.302142
0.302143
0.302143
0.302144
0.302145
0.302146
0.302147
0.302148
0.302149
0.30215
0.30215
0.302151
0.302152
0.302153
0.302154
0.302154
0.302155
0.302156
0.302157
0.302157
0.302158
0.302159
0.30216
0.30216
0.302161
0.302162
0.302163
0.302163
0.302164
0.302165
0.302165
0.302166
0.302167
0.302167
0.302168
0.302169
0.302169
0.30217
0.302171
0.302171
0.302172
0.302172
0.302173
0.302174
0.302174
0.302175
0.302175
0.302176
0.302176
0.302177
0.302178
0.302178
0.302179
0.302179
0.30218
0.30218
0.302181
0.302181
0.302182
0.302182
0.302183
0.302183
0.302184
0.302184
0.302185
0.302185
0.302186
0.302186
0.302187
0.302187
0.302188
0.302188
0.302189
0.302189
0.30219
0.30219
0.30219
0.302191
0.302191
0.302192
0.302192
0.302193
0.302193
0.302193
0.302194
0.302194
0.302195
0.302195
0.302195
0.302196
0.302196
0.302242
0.302242
0.302242
0.302242
0.302242
0.302242
0.302242
0.302242
0.302242
0.302242
0.302242
0.302242
0.302242
0.302242
0.302242
0.302242
0.302242
0.302242
0.302242
0.302243
0.302243
0.302243
0.302243
0.302243
0.302243
0.302243
0.302243
0.302243
0.302243
0.302243
0.302243
0.302243
0.302243
0.302243
0.302243
0.302243
0.302243
0.302243
0.302243
0.302243
0.302243
0.302243
0.302243
0.302243
0.302243
0.302243
0.302243
0.302243
0.302243
0.302243
0.302243
0.302243
0.302243
0.302243
0.302243
0.302243
0.302243
0.302243
0.302243
0.302243
0.302243
0.302243
0.302243
0.302243
0.302243
0.302243
0.302243
0.302243
0.302243
0.302243
0.302243
0.302243
0.302243
0.302243
0.302243
0.302243
0.302243
0.302243
0.302243
0.302243
0.302243
0.302243
0.302243
0.302243
0.302243
0.302243
0.302243
0.302243
0.302243
0.302243
0.302243
0.302243
0.302243
0.302243
0.302243
0.302243
0.302243
0.302243
0.302243
0.302243
0.302243
0.302243
0.302243
0.302243
0.302243
0.302243
0.302243
0.302243
0.302243
0.302243
0.302243
0.302243
0.302243
0.302243
0.302243
0.302243
0.302243
0.302243
0.302243
0.302243
0.302243
0.302243
0.302243
0.302243
0.302243
0.302244
0.302244
0.302244
0.302244
0.302244
0.302244
0.302244
0.302244
0.302244
0.302244
0.302244
0.302244
0.302244
0.302244
0.302244
0.302244
0.302244
0.302244
0.302244
0.302244
0.302244
0.302244
0.302244
0.302244
0.302244