/*--------------------------------*- C++ -*----------------------------------*\
| =========                 |                                                 |
| \\      /  F ield         | OpenFOAM: The Open Source CFD Toolbox           |
|  \\    /   O peration     | Version:  2112                                  |
|   \\  /    A nd           | Website:  www.openfoam.com                      |
|    \\/     M anipulation  |                                                 |
\*---------------------------------------------------------------------------*/
FoamFile
{
    version     2.0;
    format      ascii;
    arch        "LSB;label=32;scalar=64";
    class       surfaceScalarField;
    location    "0.00037";
    object      phi;
}
// * * * * * * * * * * * * * * * * * * * * * * * * * * * * * * * * * * * * * //

dimensions      [1 0 -1 0 0 0 0];

oriented        oriented;

internalField   nonuniform List<scalar> 
27436
(
-0.58271
8.21325
-0.106149
7.43626
-0.0927144
7.79283
-0.0764446
7.80082
-0.0589001
7.77191
-0.0554694
7.79299
-0.0454739
7.79102
-0.0346045
7.79046
-0.0246738
7.79131
-0.0147232
7.79111
-0.00470908
7.79094
0.00735099
7.78805
0.0178038
7.79003
0.0279783
7.79021
0.0386873
7.78846
0.049447
7.78861
0.0600827
7.78968
0.0709052
7.78906
0.0775309
7.79173
0.0846107
7.7856
0.105179
7.76356
0.114477
7.80439
0.127552
7.79832
0.574579
7.46951
8.22739
-0.249029
8.46761
-0.0833548
7.26995
-0.0613932
7.77047
-0.0637875
7.80149
-0.0619783
7.73661
-0.0472031
7.76278
-0.0369836
7.75967
-0.0312505
7.76323
-0.0206919
7.76245
-0.0104318
7.76257
-0.00154535
7.76173
0.00618265
7.75882
0.014318
7.75993
0.0227945
7.76027
0.0310866
7.75853
0.0387555
7.759
0.0479056
7.75988
0.0581365
7.75973
0.0697421
7.75458
0.0821384
7.74829
0.0810558
7.74937
0.0795001
7.80777
0.0985022
7.78172
0.256975
7.31194
8.48645
-0.244738
8.73023
-0.145718
7.18318
-0.125451
7.75116
-0.111057
7.78919
-0.0979468
7.72227
-0.0887808
7.75402
-0.0794327
7.75067
-0.0714011
7.75542
-0.0630978
7.75525
-0.051679
7.75306
-0.0404073
7.75254
-0.028578
7.75095
-0.0173373
7.75067
-0.00639716
7.75149
0.00461702
7.75184
0.015012
7.75263
0.0239234
7.7535
0.0326878
7.75264
0.0418876
7.74505
0.0518505
7.73609
0.066596
7.74164
0.0748211
7.8033
0.0847078
7.77547
0.190945
7.20808
8.68119
-0.182981
8.91094
-0.137623
7.15785
-0.140793
7.7526
-0.118888
7.77103
-0.103656
7.71501
-0.0921849
7.74024
-0.080376
7.73724
-0.0704046
7.74582
-0.0601175
7.74667
-0.0471695
7.74272
-0.033616
7.7419
-0.0185226
7.74064
-0.00346486
7.73869
0.0109309
7.73997
0.0244506
7.74285
0.0370481
7.74419
0.0475535
7.74594
0.0572565
7.74164
0.0689653
7.72901
0.0830276
7.71966
0.100587
7.73642
0.119628
7.78639
0.102115
7.79484
0.170249
7.14056
8.86017
-0.101411
8.99205
-0.0613262
7.12373
-0.107598
7.79584
-0.0677778
7.72958
-0.0520187
7.7092
-0.0483063
7.73421
-0.0436855
7.73448
-0.0374381
7.74195
-0.0296399
7.74186
-0.0160921
7.73303
-0.0029127
7.733
0.0102345
7.73462
0.021432
7.73437
0.0321412
7.73522
0.0449186
7.73715
0.0572878
7.7388
0.0647597
7.74421
0.0709026
7.73438
0.0745654
7.72569
0.0816921
7.7154
0.100363
7.72949
0.125746
7.76386
0.087253
7.8364
0.102379
7.12955
8.96838
0.0711064
8.90065
0.032994
7.15799
-0.0655959
7.89428
-0.0233852
7.6963
-0.0175838
7.71797
-0.0132173
7.73246
-0.0112584
7.73728
-0.0126061
7.75216
-0.0122175
7.74877
-0.0063374
7.73961
0.00158429
7.73878
0.0106714
7.74168
0.0219899
7.73907
0.0313538
7.74055
0.0383989
7.74553
0.0422518
7.75072
0.0444155
7.75404
0.042443
7.73718
0.043567
7.72836
0.050426
7.71684
0.0544875
7.7394
0.0891756
7.73357
-0.00873488
7.93923
0.0110396
7.11684
8.98008
0.257249
8.65666
0.105707
7.31096
-0.0227132
8.027
0.0184857
7.66095
-0.000667444
7.7572
-0.025006
7.76552
-0.0496754
7.77373
-0.0708658
7.78863
-0.0864223
7.78137
-0.0975512
7.76848
-0.111588
7.76994
-0.122933
7.77085
-0.130916
7.76498
-0.143582
7.77039
-0.157199
7.7775
-0.168285
7.77719
-0.184769
7.78648
-0.20758
7.7684
-0.235332
7.76676
-0.259558
7.75658
-0.272171
7.76952
-0.291701
7.75581
-0.340749
7.99472
-0.634789
7.42079
8.34258
0.91111
7.77696
0.545147
7.68385
0.418877
8.17085
0.331486
7.77809
0.287499
7.83198
0.253963
7.81923
0.21167
7.84235
0.171708
7.85007
0.138918
7.83526
0.107313
7.81556
0.0801801
7.81648
0.0556777
7.81239
0.0364525
7.80174
0.0127556
7.81189
-0.0154134
7.82255
-0.0482735
7.82554
-0.0837651
7.84503
-0.12308
7.8284
-0.162364
7.83232
-0.19513
7.817
-0.245945
7.8495
-0.313603
7.85165
-0.440213
8.14227
-0.741019
7.73496
7.59761
0.834538
7.00735
0.462882
8.10916
0.310925
8.35224
0.237669
7.87533
0.181762
7.9313
0.142325
7.90514
0.109134
7.9151
0.0932111
7.91381
0.0870444
7.87719
0.08106
7.84868
0.0774969
7.84048
0.0755802
7.82886
0.075844
7.8155
0.0737508
7.82945
0.0684509
7.84515
0.0636159
7.85877
0.0560521
7.88601
0.0399358
7.89412
0.00561271
7.91156
-0.0336788
7.90959
-0.0914541
7.9498
-0.141382
7.92651
-0.303892
8.3254
-0.657299
8.1323
6.97215
-2.6714
9.7256
-3.55924
9.08206
-2.91834
7.77503
-2.82907
7.87285
-2.44073
7.62575
-2.06829
7.59692
-1.74382
7.6505
-1.41232
7.62173
-1.09381
7.59876
-0.783132
7.5586
-0.494924
7.56743
-0.203538
7.54542
0.0929638
7.52634
0.387642
7.54362
0.677254
7.56906
0.980939
7.57824
1.29676
7.61126
1.62231
7.62756
1.94889
7.65592
2.3173
7.60938
2.6958
7.65697
2.78303
7.9296
3.32736
7.85593
2.32409
9.19387
9.29516
-2.51737
12.36
-5.16582
11.7958
-4.46485
7.38728
-4.55812
8.03757
-3.81831
7.01101
-3.14421
7.08925
-2.59451
7.17826
-2.03527
7.12484
-1.50522
7.11806
-1.01824
7.09682
-0.55554
7.11474
-0.107941
7.09865
0.336548
7.08004
0.788204
7.09177
1.25981
7.10216
1.75297
7.1054
2.28448
7.12959
2.84581
7.14223
3.40261
7.18974
4.10392
7.07098
4.88107
7.00739
4.68323
8.20396
5.26819
7.56819
1.51233
12.9956
10.8241
1.47035
10.9885
1.70397
11.7864
-2.0377
11.1203
-4.75153
11.0769
-4.17748
6.69892
-3.53532
6.47954
-3.12152
6.89504
-2.4132
6.4978
-1.73989
6.56852
-1.25052
6.64739
-0.750149
6.61919
-0.243434
6.58342
0.262644
6.56168
0.765958
6.58026
1.27483
6.5995
1.77621
6.63866
2.44746
6.57842
3.15541
6.50535
3.50297
6.96351
4.19429
6.39888
4.76311
6.79151
1.87302
11.3866
-2.09924
11.2333
-1.16906
12.2526
9.94445
1.56217
9.51275
2.42493
10.9891
2.62259
10.6393
3.00304
10.9931
1.27743
9.11625
-1.45374
10.2565
-2.88884
8.73822
-2.28002
6.06584
-1.74778
6.00426
-1.29181
6.24819
-0.735162
6.05209
-0.27622
6.11051
0.193646
6.05469
0.659215
6.09588
1.25883
5.99367
1.70906
6.25581
2.24723
6.05431
2.83539
6.05486
1.24372
8.97819
-1.60601
10.2273
-3.2766
9.30877
-2.63667
11.0594
-2.27136
10.6422
-1.15927
11.1588
9.01803
1.16551
8.40957
2.48273
9.70224
3.54668
9.46584
4.43879
10.2013
4.44317
9.29423
5.31301
9.32118
5.18438
9.38414
3.28792
8.67809
0.449914
9.91192
-1.10574
7.89177
-1.01154
6.00375
-0.623878
5.66135
0.044139
5.31757
0.417373
5.65289
0.273196
6.28886
-1.19756
7.68099
-4.01969
9.84665
-6.0077
8.7602
-6.06261
9.49886
-5.17694
9.34839
-5.12426
9.47459
-4.08459
10.0917
-3.03392
9.50859
-1.28839
9.43551
7.91592
0.909018
7.57122
2.511
8.1445
3.73708
8.31198
5.32241
8.59147
5.72126
8.94512
6.47623
8.53117
6.95526
8.87913
7.35672
8.24282
8.51108
8.53863
7.17619
9.16401
3.84118
9.61108
1.3036
8.08483
-1.31373
7.83866
-3.67679
7.86182
-6.51943
9.41611
-7.84159
8.89571
-6.71951
8.52864
-6.30899
8.31167
-5.79683
8.94733
-5.07049
8.62334
-4.49177
8.9665
-3.12775
8.67273
-1.87674
8.33524
-0.492371
8.10917
7.49547
0.422733
7.34388
1.4148
7.22155
2.38989
7.40854
3.33504
7.55486
4.64535
7.64646
5.51529
7.67554
6.45589
7.86951
6.99056
7.5505
7.00845
8.0899
6.47408
8.74936
4.76313
9.96029
1.81328
10.9305
-0.905864
10.8387
-3.84342
10.7453
-5.67973
9.86213
-6.34703
8.68173
-6.33798
8.08796
-5.80056
7.60348
-4.86869
7.92961
-4.00683
7.73375
-2.76142
7.69372
-1.77389
7.59275
-0.901037
7.45234
-0.0698113
7.27091
7.64955
1.22903
6.40614
2.08919
6.68216
2.94193
6.83152
3.79628
6.95011
4.67108
7.02374
5.35894
7.11851
5.89085
7.14026
5.81494
7.36994
4.76744
8.49572
3.13711
9.87377
1.4352
11.3113
0.538936
12.0132
-0.46596
12.4579
-1.388
11.9114
-3.17193
11.3099
-4.90443
9.88393
-5.95175
8.50048
-6.06828
7.36241
-5.62237
7.38321
-4.98396
7.22224
-4.20715
7.14256
-3.42124
7.06061
-2.59506
6.90384
-1.65921
6.67031
6.34246
1.8327
4.83296
2.8894
5.9503
3.5118
6.53451
3.94592
6.78992
4.11664
7.03087
3.87241
7.37765
3.10249
7.86144
1.56481
8.48675
-0.0330577
9.63121
-0.994007
10.5711
-1.40853
11.8598
-0.937156
12.1261
-0.00975471
12.3861
0.402605
12.0869
-0.205392
12.0481
-1.59879
10.9109
-3.18593
9.61889
-4.50099
8.34947
-5.0329
7.79236
-5.07526
7.33184
-4.70474
6.9918
-4.07796
6.7447
-3.28681
6.45229
-2.07201
5.78449
4.52151
2.53287
2.43377
4.75614
3.89698
5.80761
5.63873
6.22063
6.52672
6.11764
7.16865
5.42135
7.88689
4.16811
8.72152
2.60719
9.63994
1.37308
10.6292
0.445768
11.4534
0.323988
12.2233
0.380891
12.5923
0.656802
12.7512
0.625892
12.6323
0.606636
12.3603
-0.197923
11.6454
-1.52448
10.7268
-3.20042
9.67715
-4.54609
8.76456
-5.30856
7.91784
-5.44234
7.18796
-5.03667
6.53831
-4.08084
5.71618
-2.20413
4.09528
2.45981
1.21935
1.28279
2.71984
2.55218
3.95965
4.60111
4.84798
5.78403
5.10536
6.82999
4.58799
8.05285
3.51077
9.30239
2.25279
10.4924
1.1983
11.5521
0.41297
12.3919
-0.0157903
13.0194
-0.240984
13.3854
-0.381255
13.4944
-0.587751
13.3717
-0.89299
13.0465
-1.55051
12.4359
-2.54138
11.5815
-3.77541
10.5116
-4.8345
9.32545
-5.33992
8.08299
-5.0977
6.87214
-4.23643
5.80584
-2.94178
4.60657
-1.28703
2.5834
1.24494
0.43943
0.858204
0.78892
2.26529
1.57478
3.88996
2.31853
5.05575
2.58142
6.31721
2.19408
7.88804
1.43369
9.47778
0.636567
10.9187
0.0556698
12.1079
-0.320555
13.007
-0.471047
13.651
-0.449614
14.0015
-0.379919
14.0933
-0.345617
13.9629
-0.42052
13.596
-0.69602
12.9695
-1.23007
12.0801
-1.9801
10.8812
-2.68144
9.43453
-2.9932
7.84546
-2.64431
6.2681
-1.79931
4.99809
-0.927409
3.83301
-0.462761
2.18173
0.799431
-0.301618
1.16696
-0.207321
2.1546
0.33079
3.37163
0.700828
4.62457
0.723243
5.99902
0.345118
7.67176
-0.139486
9.46516
-0.542958
11.0714
-0.721359
12.3863
-0.706968
13.3606
-0.521011
14.0398
-0.225082
14.4128
0.0938123
14.5206
0.387548
14.3781
0.583816
13.9848
0.630457
13.3147
0.474309
12.3409
0.0788417
11.0154
-0.38507
9.39777
-0.740615
7.60073
-0.702118
5.93429
-0.325725
4.5657
0.200845
3.33036
0.296391
2.07469
1.09848
-0.386933
1.54189
-0.594906
2.33115
-0.476209
3.17619
-0.43975
4.387
-0.592764
5.87304
-0.98632
7.59139
-1.36001
9.46029
-1.5088
11.1264
-1.39931
12.4895
-1.08446
13.5123
-0.620507
14.2227
-0.0668597
14.6157
0.50727
14.7448
1.05198
14.6009
1.50499
14.2024
1.82028
13.4914
1.91653
12.4697
1.73879
11.106
1.32248
9.4374
0.877306
7.56712
0.65735
5.84869
0.645605
4.36436
0.71918
3.17578
0.432923
2.32519
1.51951
-0.400951
1.87758
-0.904383
2.78213
-1.12138
3.29521
-1.32203
4.34937
-1.71194
5.77634
-2.20059
7.5001
-2.55391
9.40861
-2.58992
11.1385
-2.32288
12.5208
-1.83992
13.5651
-1.20997
14.2961
-0.487675
14.6891
0.265714
14.8239
0.99491
14.6746
1.64431
14.2686
2.15254
13.5301
2.44249
12.4854
2.43329
11.1011
2.11649
9.37145
1.66095
7.45814
1.27149
5.73808
1.07648
4.30707
0.86807
3.27913
0.386233
2.75043
1.83722
-0.0455403
2.43315
-0.634026
3.26727
-1.2374
3.8022
-1.60548
4.45312
-2.06884
5.85898
-2.57488
7.42466
-2.90667
9.25212
-2.88488
10.9828
-2.52516
12.4372
-1.9374
13.5529
-1.21866
14.313
-0.433396
14.7196
0.373639
14.8637
1.15721
14.7142
1.87638
14.2997
2.47138
13.5328
2.83765
12.4158
2.86607
10.9516
2.53882
9.21341
2.04477
7.37428
1.62046
5.786
1.20555
4.45178
0.611084
3.76716
0.0136947
3.23895
2.3159
0.18056
2.96485
-0.408633
3.88964
-1.22981
4.47856
-1.85423
4.74329
-2.38229
5.9686
-2.93022
7.42515
-3.22162
9.13062
-3.15799
10.7704
-2.75329
12.1793
-2.07882
13.3259
-1.24707
14.1707
-0.341583
14.6378
0.589768
14.8101
1.49644
14.642
2.32497
14.1761
2.989
13.3293
3.38042
12.1772
3.43385
10.7605
3.12766
9.11611
2.54149
7.4024
2.0217
5.88955
1.35166
4.76255
0.483578
4.46821
-0.102931
3.88153
2.98558
0.0592388
4.02059
-0.419464
4.65421
-1.17544
5.07976
-2.01338
5.3434
-2.62174
6.05943
-3.12626
7.48065
-3.54558
9.05214
-3.54579
10.6536
-3.14849
12.0373
-2.48521
13.1184
-1.65531
13.9234
-0.703781
14.3842
0.293365
14.5584
1.25453
14.3778
2.10975
13.9054
2.79454
13.1005
3.21492
12.0046
3.2478
10.5967
2.8755
8.99729
2.41128
7.41728
1.84811
5.92269
1.02126
5.33562
0.302018
5.0769
-0.154886
4.667
3.67766
-0.234796
5.36127
-0.404205
5.96618
-0.856685
6.1666
-1.71494
6.218
-2.39425
6.48395
-2.85568
7.45524
-3.13461
9.01509
-3.17892
10.5062
-2.83231
11.8125
-2.16237
12.925
-1.33095
13.6759
-0.397353
14.0745
0.58649
14.2185
1.51848
14.0704
2.33258
13.6605
2.96716
12.9017
3.29073
11.777
3.23389
10.4642
2.95118
8.91571
2.45566
7.42511
1.76002
6.37746
0.896865
6.31146
0.458551
6.15289
0.349422
5.92444
5.33474
-1.38316
6.62274
-1.1029
6.8625
-1.23959
7.23915
-1.4074
7.39574
-2.06371
7.72617
-2.61906
7.73913
-2.92759
9.1287
-2.90103
10.483
-2.63023
11.679
-2.00815
12.7681
-1.18684
13.5553
-0.265552
13.9925
0.687925
14.1448
1.59463
13.9892
2.39813
13.5448
2.99204
12.7521
3.2117
11.6837
3.2023
10.4427
2.88583
8.98356
2.29822
7.71192
1.56901
7.71553
1.43446
7.40215
1.30956
7.23935
1.65583
6.84219
6.75038
-2.42397
6.44721
-2.56138
6.88302
-2.1848
7.4694
-2.12039
7.96216
-2.31042
8.47591
-2.64978
9.05531
-2.93762
10.1757
-3.05718
10.6493
-2.84245
11.7401
-2.33301
12.8653
-1.56208
13.593
-0.723834
13.9976
0.170212
14.1249
1.03003
13.9721
1.82836
13.5526
2.35798
12.7918
2.59201
11.7039
2.50536
10.5972
2.24668
9.92258
1.9773
8.98174
1.81655
8.41832
1.90587
7.91536
2.29038
7.42286
2.12427
6.86373
6.2598
-1.14584
2.10288
-2.44724
3.28858
-2.47248
6.04201
-2.29854
7.18463
-2.20579
8.09461
-2.26308
9.34195
-2.31631
10.7087
-2.25245
11.8544
-1.96851
12.782
-1.56458
13.2507
-0.922327
13.7647
-0.233492
14.0495
0.492106
14.11
1.17155
14.0218
1.80878
13.7105
2.17718
13.1811
2.45749
12.7295
2.49678
11.7661
2.41486
10.5944
2.35794
9.27061
2.43615
8.03536
2.58393
7.13281
2.51588
5.98703
1.17811
3.24524
2.05595
-0.138869
0.133237
-0.695652
0.360733
-1.49288
1.69633
-1.97347
3.35814
-2.10782
5.81596
-2.10052
7.7455
-1.9907
9.44026
-1.79632
11.367
-1.56831
12.9545
-1.08132
13.9552
-0.584172
14.2689
-0.108874
14.1607
0.379566
14.0358
0.854972
14.124
1.34954
14.2195
1.8068
13.9183
2.0276
12.9625
2.19288
11.3196
2.27298
9.40595
2.2601
7.72982
2.08846
5.76363
1.55289
3.31859
0.705316
1.62787
0.142749
0.345088
0.129841
-0.00168118
0.0209214
-0.0312783
0.0344184
-0.175269
0.108022
-0.594481
0.369434
-1.15859
1.50164
-1.54765
3.19749
-1.71958
4.59202
-1.6752
7.33883
-1.59391
9.84922
-1.17564
11.6041
-0.748615
12.5277
-0.334843
12.7209
0.0452065
12.6717
0.442988
12.6948
0.870849
12.4877
1.30911
11.5668
1.46747
9.80227
1.55812
7.30176
1.43227
4.55352
1.07877
3.16547
0.540407
1.44923
0.155464
0.356747
0.025661
0.103441
0.000370976
0.0333592
0.0206797
0.000316431
0.0188981
-0.00101931
0.0192582
-0.00385089
0.0210069
-0.0207708
0.0355507
-0.09782
0.0944847
-0.28003
0.284488
-0.485035
0.902677
-0.6182
2.31904
-0.630164
3.68143
-0.500681
4.66793
-0.337227
5.31914
-0.0712635
5.72758
0.190781
5.86384
0.442745
5.71575
0.58094
5.30553
0.701872
4.65718
0.672844
3.66832
0.521213
2.30519
0.298713
0.889832
0.103092
0.278959
0.0221615
0.0919594
0.00447234
0.0347896
0.00135739
0.0208852
1.34918e-05
0.0192529
0.0189525
0.000343415
0.0192567
-0.000974479
0.0195558
-0.0021534
0.0195704
-0.00191244
0.0200273
-0.00132429
0.0218229
-0.00443323
0.0308693
-0.0210908
0.0614144
-0.0558087
0.140115
-0.0878043
0.294755
-0.0845053
0.557877
-0.0671389
0.861319
-0.0163234
1.1274
0.0413525
1.21508
0.0863278
1.11457
0.0983664
0.849073
0.0987151
0.553735
0.0621933
0.292782
0.0239044
0.139027
0.00552743
0.0608272
0.0018285
0.0305211
0.00220831
0.0217719
0.00239347
0.0200326
0.00118692
0.0196426
-0.0001414
0.019671
0.0194704
-0.000212389
0.0199676
-0.00144239
0.0201677
-0.00260236
0.020182
-0.00234274
0.0204319
-0.00145739
0.0209233
-0.00038307
0.0215221
0.000384515
0.0223256
0.000464896
0.0243353
-0.000382361
0.0300213
-0.00164134
0.0406234
-0.00272401
0.0520853
-0.00244144
0.0620623
-0.00133181
0.0655879
-0.000716311
0.0616283
-0.00105075
0.0517251
-0.0014539
0.0405169
-0.00166136
0.0299712
-0.00120142
0.0243101
-0.000281663
0.0223157
0.000824971
0.0215204
0.0017584
0.0209141
0.00205837
0.02046
0.000963573
0.0201454
-0.000235027
0.0200992
0.0197581
-2.00276e-05
0.0203588
-0.00110258
0.0206231
-0.0020847
0.0206603
-0.00172224
0.02096
-0.000827889
0.0214276
0.00013074
0.0218602
0.000845771
0.0221713
0.00114801
0.0223947
0.00113446
0.0225366
0.000938427
0.0226545
0.000655423
0.0227742
0.000344163
0.0228884
2.17743e-05
0.0229336
-0.000298267
0.022884
-0.000592069
0.0227714
-0.000797219
0.022654
-0.000817523
0.0225362
-0.000521631
0.0223942
0.00019156
0.0221714
0.00114955
0.0218632
0.00202176
0.0214414
0.00236696
0.0209739
0.0013504
0.0206736
0.000243036
0.0206331
0.0204052
0.000119605
0.0205579
-0.000866578
0.0209543
-0.00172946
0.0210518
-0.00132599
0.0214487
-0.000463105
0.0218663
0.000372707
0.0222608
0.000965524
0.0225385
0.00117358
0.0226869
0.00110128
0.0227543
0.000877227
0.0227837
0.00059284
0.0227954
0.000290896
0.0228008
-1.42898e-05
0.0228025
-0.000316446
0.0228007
-0.000600933
0.0227951
-0.000825493
0.022783
-0.000899961
0.0227535
-0.000697393
0.0226876
-0.000107391
0.0225413
0.000731031
0.0222767
0.00156924
0.0218755
0.00195669
0.0214381
0.001075
0.0211244
7.42667e-05
0.0210627
0.0207638
-0.000346541
0.0211321
-0.00126129
0.0214264
-0.00205307
0.0215179
-0.00163965
0.0218512
-0.000843286
0.0222644
-7.81851e-05
0.0226221
0.000450141
0.0228505
0.000618957
0.0229746
0.000545814
0.0230271
0.000345255
0.0230452
9.5418e-05
0.0230504
-0.000168193
0.0230519
-0.000434648
0.0230522
-0.000698761
0.023052
-0.000949528
0.0230507
-0.00115157
0.023046
-0.00122489
0.0230281
-0.00105137
0.0229744
-0.000527095
0.0228493
0.000224849
0.0226081
0.00107177
0.0222576
0.00151675
0.0218715
0.000779746
0.0214585
-8.40172e-05
0.0213424
0.0209133
-0.000132095
0.0214322
-0.0009184
0.0217782
-0.00156254
0.0218804
-0.00111386
0.0222219
-0.00032934
0.0225939
0.000358769
0.0229171
0.00081979
0.0231163
0.000963581
0.0232209
0.000893637
0.0232641
0.000715354
0.0232785
0.000497297
0.0232823
0.000268673
0.0232831
3.82571e-05
0.0232832
-0.000190186
0.023283
-0.000407567
0.0232823
-0.000584413
0.0232785
-0.000652744
0.023264
-0.000508988
0.0232208
-4.3736e-05
0.0231161
0.00065269
0.0229168
0.00141374
0.0225979
0.00184828
0.0222218
0.00117273
0.0218756
0.000366602
0.0217679
0.0214476
3.28468e-08
0.0215528
-0.000669761
0.0220259
-0.00122356
0.0221672
-0.000790363
0.0225873
-5.78903e-05
0.0229114
0.00051553
0.0231922
0.000892352
0.0233746
0.000984658
0.0234633
0.000889743
0.0234991
0.000702672
0.0235103
0.000482906
0.023513
0.000254724
0.0235135
2.51336e-05
0.0235136
-0.000203001
0.0235135
-0.000422551
0.0235129
-0.000609311
0.0235099
-0.000704738
0.0234982
-0.000615431
0.0234629
-0.000240866
0.0233749
0.000350042
0.0232055
0.00104839
0.0229113
0.00146704
0.0225667
0.000893377
0.0222314
0.000177483
0.0221151
0.0217464
-0.000393729
0.0220292
-0.0010299
0.022404
-0.00153595
0.0225331
-0.00113278
0.0228712
-0.000499975
0.0231891
3.38954e-05
0.0234488
0.000366984
0.0235946
0.000443058
0.0236689
0.000360176
0.0236979
0.000199875
0.0237073
1.18973e-05
0.0237098
-0.000182581
0.0237102
-0.000378697
0.0237104
-0.000573743
0.0237103
-0.000762181
0.0237099
-0.000924007
0.0237077
-0.00100801
0.0236989
-0.000929394
0.0236694
-0.000597595
0.0235945
-7.29751e-05
0.0234356
0.000599396
0.0231857
0.00102642
0.0228894
0.00056666
0.0224728
-8.53706e-06
0.0223258
0.0218286
-0.000171083
0.0222699
-0.000701206
0.0226759
-0.00109662
0.0228026
-0.000696648
0.0231353
-8.73199e-05
0.0234161
0.000377279
0.0236483
0.000668846
0.0237771
0.000737756
0.0238403
0.000667907
0.0238644
0.000532769
0.0238719
0.000375689
0.0238737
0.000213252
0.0238741
4.99532e-05
0.0238741
-0.000112376
0.0238741
-0.000269047
0.0238737
-0.000403127
0.0238719
-0.000471659
0.0238644
-0.000402712
0.0238403
-0.000109149
0.0237772
0.000368773
0.0236486
0.0009534
0.0234197
0.00134467
0.0231356
0.000925934
0.0227969
0.000380105
0.0226658
0.0222699
-1.3084e-05
0.0223648
-0.000455326
0.0228824
-0.000786547
0.0230132
-0.000426946
0.0234027
0.000100825
0.023638
0.000494525
0.0238359
0.000724726
0.0239557
0.000760236
0.0240092
0.000676163
0.0240293
0.000537136
0.0240349
0.000380146
0.0240362
0.000218873
0.0240364
5.69046e-05
0.0240365
-0.000104319
0.0240364
-0.000261107
0.0240361
-0.000399642
0.0240346
-0.000483552
0.0240284
-0.000449764
0.0240085
-0.000221099
0.0239553
0.000169707
0.0238471
0.000684449
0.0236382
0.00103326
0.0233879
0.000682967
0.0230811
0.000204156
0.0229664
0.0225588
-0.000372821
0.0229129
-0.00080116
0.0232824
-0.00109589
0.0233389
-0.000774501
0.0236258
-0.000323662
0.0238337
2.71838e-05
0.0240108
0.000231318
0.0241012
0.000264162
0.0241457
0.000197831
0.0241621
8.56736e-05
0.0241671
-4.16408e-05
0.0241684
-0.000172868
0.0241686
-0.000304775
0.0241687
-0.000436144
0.0241686
-0.00056413
0.0241685
-0.000677597
0.0241674
-0.000745338
0.0241629
-0.000711338
0.0241466
-0.000508804
0.0241024
-0.000155258
0.0240028
0.000318554
0.0238356
0.000657252
0.0236459
0.000396489
0.023301
1.23389e-05
0.0232325
0.0227526
-0.000195444
0.0233553
-0.000573868
0.0237212
-0.00076458
0.0236735
-0.000450839
0.0239104
-1.81635e-05
0.0240189
0.000284492
0.0241533
0.000462941
0.0242224
0.000496089
0.0242567
0.000443954
0.0242694
0.000353825
0.0242732
0.000251691
0.0242741
0.000146792
0.0242742
4.14557e-05
0.0242742
-6.33901e-05
0.0242742
-0.000165286
0.0242741
-0.000254706
0.0242732
-0.000305767
0.0242695
-0.000272063
0.024257
-9.12552e-05
0.0242233
0.000224272
0.0241549
0.00064065
0.024026
0.000952396
0.0239136
0.000745362
0.0236686
0.000352493
0.0237169
0.0233438
-6.48387e-05
0.0234218
-0.000456816
0.0241007
-0.000599065
0.0240114
-0.000308443
0.0242474
8.46137e-05
0.0242396
0.000366937
0.0243103
0.000513842
0.0243485
0.000530674
0.0243673
0.00047295
0.0243744
0.000383081
0.0243763
0.000283363
0.0243767
0.000181427
0.0243767
7.91388e-05
0.0243767
-2.27248e-05
0.0243767
-0.000122241
0.0243766
-0.000211442
0.024376
-0.0002682
0.0243736
-0.000251166
0.0243665
-0.000102551
0.0243475
0.000179032
0.0243167
0.000564856
0.0242395
0.000847638
0.0242414
0.00070035
0.0240417
0.000270377
0.0241689
0.0235976
-0.000394972
0.0237597
-0.000924006
0.0245498
-0.00107519
0.0243142
-0.000806022
0.024528
-0.000412324
0.0244284
-0.000111232
0.0244568
4.70424e-05
0.0244483
8.31453e-05
0.0244516
4.9709e-05
0.024452
-1.37029e-05
0.0244525
-8.64574e-05
0.0244526
-0.000161962
0.0244528
-0.000237859
0.0244528
-0.000313454
0.0244528
-0.000387076
0.0244528
-0.000451772
0.0244528
-0.000486629
0.024453
-0.000450612
0.0244526
-0.000288517
0.024449
6.50459e-06
0.0244527
0.000416857
0.0244205
0.000682724
0.0245198
0.000545947
0.0242977
8.06733e-05
0.0245367
0.0236669
-0.000174071
0.0236944
-0.000821531
0.0249857
-0.000982305
0.0245192
-0.000748817
0.0247103
-0.000339632
0.0245509
-1.25228e-05
0.0245626
0.000168457
0.0245264
0.000223384
0.024517
0.000207266
0.0245127
0.000160816
0.0245117
0.000104771
0.0245115
4.65849e-05
0.0245115
-1.19337e-05
0.0245114
-7.01154e-05
0.0245115
-0.000126093
0.0245115
-0.000172346
0.0245118
-0.000187734
0.0245131
-0.000131068
0.024518
5.1451e-05
0.0245263
0.0003786
0.0245586
0.000787067
0.0245505
0.00103689
0.0247132
0.000862356
0.0244701
0.000214194
0.0249188
0.0236556
-9.61927e-05
0.0236671
-0.000784643
0.0252385
-0.000985829
0.024535
-0.000790037
0.0247803
-0.000372188
0.0245679
-1.84007e-05
0.024605
0.000176751
0.0245764
0.000245313
0.0245707
0.000236492
0.0245678
0.000194552
0.024567
0.000142129
0.0245668
8.73729e-05
0.0245667
3.22681e-05
0.0245667
-2.23931e-05
0.0245667
-7.44769e-05
0.0245667
-0.000115553
0.0245668
-0.000123529
0.0245673
-5.36454e-05
0.0245699
0.000141617
0.0245754
0.000492574
0.024604
0.000912434
0.0245718
0.00110656
0.0247819
0.000904655
0.0245381
0.000191436
0.0252338
0.0236709
-0.00137847
0.0336659
-0.00552657
0.0429808
-0.0101843
0.050946
-0.0120545
0.0541914
-0.0125499
0.0555265
-0.0123663
0.0558693
-0.0119274
0.0559498
-0.0114217
0.0559641
-0.0109042
0.055966
-0.0103851
0.0559662
-0.00986583
0.0559662
-0.00934658
0.0559662
-0.00882732
0.0559662
-0.00830807
0.0559662
-0.00778881
0.0559662
-0.00726956
0.0559662
-0.00675031
0.0559662
-0.00623105
0.0559662
-0.0057118
0.0559662
-0.00519254
0.0559662
-0.00467329
0.0559662
-0.00415403
0.0559662
-0.00363477
0.0559662
-0.00311541
0.0559662
-0.00259523
0.0559661
-0.00206936
0.0559653
-0.00152166
0.0559583
-0.00100113
0.0559571
-1.36126e-05
0.0556041
0.0561231
-0.00279993
0.0391117
-0.00779803
0.04568
-0.0122155
0.0521669
-0.0138837
0.0541946
-0.0142735
0.0551497
-0.0140091
0.0553381
-0.0134979
0.0553732
-0.0129228
0.0553781
-0.0123368
0.0553787
-0.0117495
0.0553788
-0.011162
0.0553788
-0.0105746
0.0553788
-0.0099871
0.0553788
-0.00939962
0.0553788
-0.00881214
0.0553788
-0.00822467
0.0553788
-0.00763719
0.0553788
-0.00704972
0.0553788
-0.00646224
0.0553788
-0.00587476
0.0553788
-0.00528729
0.0553788
-0.00469981
0.0553788
-0.00411232
0.0553788
-0.00352473
0.0553787
-0.00293635
0.0553785
-0.00234325
0.0553769
-0.00173976
0.0553695
-0.00114929
0.0553566
-0.000681641
0.0551837
0.0553838
-0.000641643
0.0445286
-0.00542076
0.0473039
-0.00998686
0.0529664
-0.0115626
0.0540109
-0.0119527
0.0547322
-0.0117449
0.0548608
-0.0113152
0.0548819
-0.0108322
0.0548857
-0.0103409
0.0548863
-0.00984854
0.0548863
-0.00935612
0.0548863
-0.0088637
0.0548863
-0.00837127
0.0548863
-0.00787884
0.0548863
-0.00738641
0.0548863
-0.00689399
0.0548863
-0.00640156
0.0548863
-0.00590913
0.0548863
-0.0054167
0.0548863
-0.00492428
0.0548863
-0.00443185
0.0548863
-0.00393942
0.0548863
-0.00344698
0.0548863
-0.00295448
0.0548863
-0.00246143
0.0548862
-0.00196573
0.0548852
-0.00146554
0.0548801
-0.000971883
0.054857
-0.000556754
0.0548014
0.0547768
0.00131948
0.0487943
-0.00340354
0.0481461
-0.00817504
0.0534078
-0.00968784
0.0537128
-0.0101154
0.0543332
-0.00995772
0.0544306
-0.00959282
0.0544622
-0.00918247
0.054468
-0.00876576
0.0544688
-0.0083484
0.0544689
-0.00793099
0.0544689
-0.00751357
0.0544689
-0.00709615
0.0544689
-0.00667873
0.0544689
-0.00626131
0.0544689
-0.00584389
0.0544689
-0.00542647
0.0544689
-0.00500905
0.0544689
-0.00459162
0.0544689
-0.0041742
0.0544689
-0.00375678
0.0544689
-0.00333936
0.0544689
-0.00292194
0.0544689
-0.00250448
0.0544689
-0.00208679
0.0544689
-0.00166789
0.0544685
-0.00124472
0.0544663
-0.000829839
0.0544439
-0.000439238
0.0544398
0.0542836
0.00142642
0.0516481
-0.00315474
0.0484408
-0.00782649
0.053681
-0.00923812
0.0533648
-0.00966295
0.0539153
-0.00949981
0.0540326
-0.00914648
0.0540647
-0.00875448
0.0540702
-0.00835715
0.0540709
-0.00795924
0.0540709
-0.00756128
0.0540709
-0.00716332
0.0540709
-0.00676536
0.0540709
-0.0063674
0.0540709
-0.00596944
0.0540709
-0.00557147
0.0540709
-0.00517351
0.0540709
-0.00477555
0.0540709
-0.00437759
0.0540709
-0.00397962
0.0540709
-0.00358166
0.0540709
-0.0031837
0.0540709
-0.00278573
0.0540709
-0.00238775
0.0540709
-0.00198965
0.0540709
-0.00159102
0.0540708
-0.00119102
0.0540702
-0.000793487
0.0540674
-0.000402825
0.054061
0.0538579
0.00115864
0.0540541
-0.00315714
0.0483217
-0.00756998
0.0535418
-0.00888097
0.0529869
-0.00926054
0.0535519
-0.00909146
0.0536575
-0.00875088
0.0536851
-0.0083755
0.0536897
-0.00799533
0.0536902
-0.00761465
0.0536902
-0.00723392
0.0536902
-0.00685319
0.0536902
-0.00647246
0.0536902
-0.00609172
0.0536902
-0.00571099
0.0536902
-0.00533026
0.0536902
-0.00494953
0.0536902
-0.00456879
0.0536902
-0.00418806
0.0536902
-0.00380733
0.0536902
-0.0034266
0.0536902
-0.00304586
0.0536902
-0.00266513
0.0536902
-0.00228438
0.0536902
-0.00190354
0.0536902
-0.00152236
0.0536901
-0.00114074
0.0536899
-0.000759971
0.0536893
-0.000381274
0.0536849
0.0534706
0.000840662
0.0550433
-0.00305867
0.0486572
-0.00717294
0.0530171
-0.0083634
0.0527418
-0.00870436
0.0532197
-0.00854007
0.0533069
-0.00821855
0.0533291
-0.00786574
0.0533323
-0.00750868
0.0533326
-0.00715117
0.0533327
-0.00679362
0.0533327
-0.00643606
0.0533327
-0.0060785
0.0533327
-0.00572094
0.0533327
-0.00536338
0.0533327
-0.00500582
0.0533327
-0.00464826
0.0533327
-0.0042907
0.0533327
-0.00393315
0.0533327
-0.00357559
0.0533327
-0.00321803
0.0533327
-0.00286047
0.0533327
-0.00250291
0.0533327
-0.00214534
0.0533327
-0.00178768
0.0533326
-0.00142974
0.0533326
-0.0010715
0.0533324
-0.000714003
0.0533322
-0.000357382
0.0533282
0.0531117
0.000733279
0.0540526
-0.00277148
0.0491755
-0.00653657
0.0528126
-0.00763732
0.0525333
-0.00795827
0.0529173
-0.00780671
0.0529863
-0.00751192
0.0530031
-0.00718923
0.0530055
-0.00686285
0.0530058
-0.00653608
0.0530058
-0.00620928
0.0530059
-0.00588248
0.0530059
-0.00555567
0.0530059
-0.00522887
0.0530059
-0.00490206
0.0530059
-0.00457526
0.0530059
-0.00424846
0.0530059
-0.00392165
0.0530059
-0.00359485
0.0530059
-0.00326804
0.0530059
-0.00294124
0.0530059
-0.00261443
0.0530059
-0.00228763
0.0530059
-0.00196081
0.0530059
-0.00163392
0.0530058
-0.00130676
0.0530058
-0.000979369
0.0530057
-0.000652693
0.0530054
-0.000326626
0.0530016
0.0527845
0.000819843
0.0541073
-0.00240644
0.0496718
-0.00587312
0.0526255
-0.00688983
0.0523399
-0.00719322
0.0526401
-0.00705549
0.0526935
-0.00678809
0.0527079
-0.00649624
0.0527102
-0.00620128
0.0527105
-0.00590601
0.0527105
-0.00561071
0.0527106
-0.00531541
0.0527106
-0.00502011
0.0527106
-0.00472481
0.0527106
-0.00442951
0.0527106
-0.00413421
0.0527106
-0.00383891
0.0527106
-0.00354361
0.0527106
-0.00324831
0.0527106
-0.00295301
0.0527106
-0.00265771
0.0527106
-0.0023624
0.0527106
-0.0020671
0.0527106
-0.00177179
0.0527106
-0.00147641
0.0527105
-0.00118078
0.0527105
-0.000884966
0.0527104
-0.000589838
0.0527102
-0.000295203
0.0527062
0.0524889
0.000849492
0.0540797
-0.00210246
0.0499772
-0.00528119
0.052422
-0.00621601
0.0521219
-0.00650074
0.052383
-0.00637418
0.0524287
-0.00613128
0.0524416
-0.00586742
0.0524436
-0.00560099
0.0524438
-0.0053343
0.0524438
-0.00506758
0.0524438
-0.00480087
0.0524438
-0.00453415
0.0524438
-0.00426744
0.0524438
-0.00400072
0.0524438
-0.00373401
0.0524438
-0.00346729
0.0524438
-0.00320058
0.0524438
-0.00293386
0.0524438
-0.00266715
0.0524438