/*--------------------------------*- C++ -*----------------------------------*\
| =========                 |                                                 |
| \\      /  F ield         | OpenFOAM: The Open Source CFD Toolbox           |
|  \\    /   O peration     | Version:  2112                                  |
|   \\  /    A nd           | Website:  www.openfoam.com                      |
|    \\/     M anipulation  |                                                 |
\*---------------------------------------------------------------------------*/
FoamFile
{
    version     2.0;
    format      ascii;
    arch        "LSB;label=32;scalar=64";
    class       volScalarField;
    location    "0.00205";
    object      nut;
}
// * * * * * * * * * * * * * * * * * * * * * * * * * * * * * * * * * * * * * //

dimensions      [0 2 -1 0 0 0 0];

internalField   nonuniform List<scalar> 
13875
(
0.0511668
0.0366204
0.034377
0.0343197
0.0342614
0.0343243
0.0343273
0.0343154
0.0342869
0.0342528
0.0342914
0.0343254
0.0343271
0.0343338
0.0343107
0.0342629
0.0342779
0.0343027
0.0343281
0.0343334
0.0342722
0.0343305
0.0343863
0.0365617
0.0514316
0.0532596
0.0341176
0.0322347
0.0320997
0.0320221
0.0320628
0.0320586
0.0320502
0.0320331
0.0319862
0.03204
0.032057
0.0320581
0.0320652
0.0320494
0.0319868
0.0320249
0.0320382
0.0320578
0.0320693
0.0320287
0.032098
0.0322321
0.0340486
0.0536476
0.0564569
0.0335625
0.031817
0.0315867
0.0315159
0.0315541
0.0315444
0.0315271
0.0314567
0.0313938
0.0314609
0.0315353
0.0315403
0.0315403
0.0315072
0.0313968
0.0314452
0.0315126
0.0315411
0.0315588
0.0315205
0.0315739
0.0317975
0.0334935
0.0566063
0.0590731
0.0332339
0.0315034
0.03127
0.03121
0.0312436
0.0312298
0.0312097
0.0311184
0.0310611
0.0311205
0.0312189
0.0312249
0.0312248
0.0311934
0.0310715
0.0311038
0.0311962
0.0312263
0.0312473
0.0312131
0.031256
0.0314873
0.0331724
0.0591537
0.061133
0.0330059
0.0312609
0.0309961
0.0309342
0.0309627
0.0309465
0.0309224
0.0308286
0.0307755
0.0308315
0.0309334
0.0309402
0.0309398
0.0309084
0.0307872
0.0308145
0.0309082
0.0309427
0.0309653
0.0309357
0.0309829
0.0312329
0.0329246
0.0612654
0.0628337
0.032854
0.0311067
0.0307659
0.0307035
0.0307207
0.0306982
0.0306664
0.0305669
0.030519
0.0305702
0.030677
0.0306852
0.0306849
0.0306524
0.0305331
0.0305535
0.0306508
0.0306938
0.0307225
0.0307035
0.0307556
0.0310617
0.0328288
0.062976
0.0648496
0.0330858
0.0311261
0.0306325
0.0305267
0.0305209
0.0304844
0.0304417
0.0303363
0.0302943
0.0303402
0.0304523
0.0304629
0.0304629
0.0304255
0.0303118
0.0303258
0.0304272
0.0304802
0.0305198
0.0305253
0.03063
0.031119
0.0330787
0.0648712
0.0671936
0.0339811
0.0314665
0.0306663
0.0304622
0.0303986
0.0303297
0.0302674
0.0301521
0.0301129
0.0301488
0.0302672
0.0302833
0.0302853
0.0302421
0.030134
0.0301424
0.0302496
0.0303215
0.0303894
0.0304463
0.0306407
0.0314011
0.0339043
0.0673721
0.0737975
0.0363757
0.03211
0.030896
0.0304946
0.0303631
0.0302504
0.0301588
0.0300367
0.0299981
0.0300222
0.0301475
0.0301705
0.0301743
0.0301254
0.0300255
0.0300307
0.0301382
0.0302368
0.0303444
0.0304694
0.0308241
0.0319575
0.0360282
0.0742393
0.0833988
0.0387381
0.032902
0.0312649
0.0307248
0.0304567
0.0302869
0.0301584
0.0300445
0.0300055
0.0300275
0.0301473
0.030177
0.0301821
0.030132
0.0300463
0.0300484
0.0301389
0.0302615
0.030421
0.0306644
0.0311624
0.0326777
0.0381684
0.0835849
0.0912168
0.0443651
0.0347577
0.0323677
0.0312339
0.0307859
0.0305422
0.030372
0.0302638
0.0302212
0.0302446
0.0303473
0.0303833
0.0303894
0.0303479
0.0302774
0.0302789
0.0303548
0.0305014
0.030713
0.0311197
0.0321212
0.0345577
0.0434366
0.0895204
0.0947382
0.0560328
0.0420897
0.034593
0.0327506
0.0317362
0.0312531
0.0310209
0.0308889
0.0308342
0.0308538
0.0309279
0.0309636
0.0309761
0.0309499
0.0308961
0.0309108
0.0310085
0.0312071
0.0316221
0.0324487
0.0337778
0.0405656
0.0539728
0.0943275
0.0864167
0.0650859
0.060156
0.0435607
0.0366005
0.0338389
0.0331207
0.0327503
0.0326116
0.0325794
0.0325652
0.0326484
0.0326622
0.0326808
0.0326691
0.0326329
0.032663
0.0327743
0.0330525
0.0337609
0.0363603
0.0432836
0.0541761
0.0664349
0.0866901
0.0792501
0.0641962
0.0619923
0.0754027
0.0470605
0.0425874
0.0407695
0.0387519
0.0381357
0.037545
0.0378858
0.0373231
0.0379597
0.0374612
0.0375963
0.0375643
0.0378638
0.0384774
0.0402586
0.0426291
0.0486185
0.0706473
0.0599371
0.0655428
0.0819035
0.0751988
0.0641313
0.0605777
0.0688169
0.0597545
0.0548758
0.0585615
0.0548003
0.0523342
0.0501928
0.0511278
0.0498253
0.0508203
0.0497652
0.0501628
0.0501956
0.0509779
0.0531108
0.0585166
0.0561497
0.0598952
0.0667409
0.0591371
0.0647894
0.0755938
0.0678838
0.0642321
0.0625905
0.0691088
0.0663249
0.0779933
0.0828593
0.0690828
0.0662797
0.0667622
0.0666381
0.0686102
0.0671456
0.0683238
0.067505
0.0679726
0.0667175
0.0661381
0.0754602
0.0829465
0.0698672
0.0688563
0.0605716
0.0642537
0.0684297
0.0656885
0.066167
0.0671198
0.0730538
0.0701395
0.0863579
0.0817433
0.0649515
0.0629427
0.0617111
0.0633231
0.0633609
0.0638378
0.0633323
0.0633364
0.0631504
0.0629837
0.0619667
0.0728028
0.0901064
0.0760001
0.0741716
0.0665684
0.0663034
0.0668688
0.0620905
0.0698344
0.0709488
0.0704584
0.0667787
0.0819622
0.0788424
0.065625
0.0618951
0.0599063
0.0608236
0.0603524
0.0611906
0.0603855
0.0607986
0.0611103
0.0614416
0.0625241
0.073086
0.0826859
0.0715801
0.0722295
0.0717937
0.0712172
0.0631887
0.0556011
0.0709821
0.0720944
0.0685892
0.0639771
0.0722453
0.0757004
0.0692162
0.0636684
0.0598237
0.059001
0.0580286
0.0586744
0.0579339
0.0587212
0.0597904
0.0616966
0.0656703
0.0732443
0.0741144
0.0668748
0.0697811
0.0725395
0.0733688
0.0577488
0.0525971
0.0705595
0.069122
0.0661245
0.0621689
0.0664576
0.0719614
0.0704701
0.0653253
0.0602797
0.0578306
0.0561785
0.0564705
0.0560554
0.0574725
0.0597405
0.0632834
0.0680331
0.0713532
0.0683493
0.0641863
0.0669181
0.0692611
0.070502
0.0532791
0.0615496
0.0664124
0.0650335
0.0631028
0.0600926
0.0631575
0.0688981
0.0695138
0.0652563
0.0599105
0.0564942
0.0542432
0.0542553
0.0542054
0.0562515
0.0593559
0.0635132
0.0678402
0.0690267
0.0650333
0.0618414
0.0638697
0.0649342
0.0654962
0.0618161
0.0772637
0.068415
0.0627456
0.0609536
0.0583612
0.0609347
0.0662799
0.0677486
0.0642044
0.058833
0.0548775
0.0522415
0.052019
0.0522274
0.0546492
0.0582117
0.0625524
0.0663501
0.0667125
0.0628765
0.0600071
0.0616439
0.0622233
0.0673765
0.0771595
0.0913765
0.0742565
0.0614571
0.0588505
0.0566559
0.0589521
0.063943
0.0657047
0.0625507
0.0572661
0.0530675
0.0502167
0.0498253
0.0501313
0.052724
0.0564738
0.0607798
0.0642773
0.0644263
0.0608848
0.0581984
0.0595144
0.0607564
0.0728887
0.0914852
0.100483
0.0759037
0.0599167
0.0568836
0.0550523
0.0570015
0.0617197
0.0635926
0.0604171
0.0551521
0.0509904
0.0481415
0.0477295
0.0481284
0.0507594
0.0545231
0.0587491
0.0621681
0.0621684
0.0587697
0.0566596
0.0578771
0.0596419
0.0742044
0.0990665
0.106255
0.076709
0.0586056
0.0553324
0.0536634
0.0553327
0.0596657
0.0613667
0.0582204
0.0530888
0.0489817
0.0462029
0.0457909
0.0462167
0.0488213
0.0525677
0.056727
0.0599719
0.0599706
0.0568954
0.0552417
0.0565067
0.0587583
0.0754458
0.104893
0.112693
0.0779323
0.0579263
0.0542057
0.0525348
0.0539874
0.0577724
0.0590703
0.0559562
0.0510737
0.0471139
0.0444219
0.0439862
0.0444244
0.0469318
0.0505332
0.0544912
0.0576087
0.0578451
0.0553309
0.0540088
0.0553826
0.0581409
0.0758678
0.11183
0.11958
0.0789649
0.0574415
0.0534035
0.0516895
0.0528902
0.0559389
0.0566625
0.0535874
0.0490224
0.0452729
0.0427715
0.0423406
0.0427869
0.0452222
0.0487014
0.0524759
0.055424
0.0559028
0.0539966
0.0530465
0.0546556
0.0578627
0.0773783
0.117476
0.125327
0.0801906
0.0573472
0.0527638
0.0511137
0.0519739
0.0542648
0.0544428
0.0514106
0.0471668
0.0436416
0.0412804
0.0408402
0.0412898
0.0435981
0.0468627
0.0503996
0.0532453
0.0540619
0.0528786
0.0523513
0.054002
0.0577014
0.0784581
0.124148
0.132637
0.0807794
0.0572552
0.0521794
0.0506445
0.0512094
0.052726
0.052403
0.0494274
0.0454632
0.0421439
0.0399226
0.0394735
0.0399119
0.042053
0.0451134
0.0484399
0.051163
0.0522917
0.0518703
0.0517084
0.0533304
0.0576291
0.0783382
0.130934
0.139666
0.0809359
0.0572037
0.0516293
0.0501324
0.0504802
0.0512192
0.0503356
0.0473831
0.0437488
0.0406984
0.0386704
0.0382296
0.0386846
0.0407293
0.0435913
0.0467241
0.0494038
0.050818
0.0509772
0.0510692
0.0527718
0.0577331
0.0790563
0.13724
0.143037
0.0814197
0.0575199
0.0513429
0.0495815
0.0496921
0.0498678
0.0486045
0.0456905
0.042286
0.0394289
0.0375377
0.0371005
0.0375494
0.0394375
0.0421194
0.0450925
0.0477108
0.0493636
0.0500094
0.0503619
0.0524112
0.0578852
0.0794737
0.142591
0.146581
0.0824002
0.0579927
0.0513687
0.0490374
0.0488812
0.0486427
0.0470433
0.044165
0.0409626
0.0382964
0.0365183
0.0360738
0.0365248
0.0382809
0.0407682
0.0436009
0.046197
0.0480702
0.0490438
0.0497026
0.0522797
0.0582215
0.0800054
0.145592
0.150472
0.0824963
0.0588472
0.0515778
0.0485965
0.0480206
0.0473932
0.0455506
0.0427326
0.0397157
0.0372069
0.0355715
0.0351373
0.0355936
0.0372529
0.0396214
0.0423469
0.0448824
0.0468742
0.0481076
0.0491631
0.0523529
0.0589112
0.081028
0.148933
0.153155
0.0827842
0.0597757
0.0521163
0.0483097
0.0472527
0.046272
0.0442626
0.0414862
0.0386275
0.0362762
0.0347301
0.034286
0.0347465
0.0363012
0.0385074
0.0411272
0.0436498
0.0457163
0.0472462
0.0488256
0.0527019
0.0599887
0.0813905
0.152355
0.155893
0.0837917
0.0600772
0.0527862
0.0482789
0.0465443
0.0452004
0.0431002
0.04041
0.0376855
0.0354206
0.0339594
0.0335133
0.0339672
0.0354297
0.0375538
0.0400646
0.042521
0.0446332
0.0464796
0.0487202
0.0533196
0.0607241
0.0818443
0.154615
0.15867
0.0836106
0.0599318
0.0534881
0.0484537
0.0459686
0.0442138
0.0419678
0.0393448
0.0367574
0.0346326
0.0332577
0.0328119
0.0332801
0.034688
0.0366956
0.0391182
0.0415443
0.0437211
0.0459032
0.0488209
0.0541481
0.0608449
0.0829348
0.156842
0.160379
0.0838559
0.0598334
0.0546986
0.048867
0.0456304
0.0433743
0.0409942
0.0384395
0.0359747
0.033933
0.0326202
0.0321726
0.0326407
0.0339656
0.035902
0.0382136
0.0405966
0.0428837
0.0455227
0.0491065
0.0552706
0.0605409
0.0827761
0.159239
0.162364
0.0843708
0.0597186
0.0556013
0.0495832
0.0455164
0.0427413
0.040155
0.0376067
0.0352325
0.0332998
0.0320477
0.0315927
0.0320665
0.0333189
0.0351485
0.0373929
0.0398098
0.0422818
0.0453955
0.0497946
0.0560987
0.0601472
0.0827505
0.161067
0.164457
0.0842317
0.0590217
0.055557
0.0504174
0.0455647
0.0423118
0.0394189
0.0368361
0.0345463
0.0326916
0.031503
0.0310578
0.0315368
0.0327382
0.0345141
0.036701
0.039175
0.0419595
0.0454657
0.0507083
0.0562108
0.0595605
0.0832795
0.163086
0.165862
0.0845105
0.0582577
0.0554165
0.0519638
0.0459583
0.0421313
0.0389249
0.0362007
0.0339422
0.0321609
0.0310175
0.0305673
0.0310462
0.0321922
0.0338944
0.036065
0.0387074
0.0417969
0.0457747
0.0521175
0.0559632
0.0586232
0.0833098
0.164993
0.167329
0.0855047
0.0577892
0.0550204
0.0530313
0.0467738
0.0421235
0.0386457
0.0357188
0.0334314
0.0316718
0.0305636
0.0301135
0.0305826
0.0316934
0.0333648
0.0355783
0.0384501
0.041832
0.0466144
0.0531469
0.0554755
0.0578718
0.0837947
0.166285
0.168688
0.0859723
0.0571304
0.054326
0.052989
0.0481032
0.0423225
0.0384788
0.0353723
0.0329867
0.0312229
0.0301458
0.0296957
0.0301743
0.031264
0.0329559
0.0352883
0.0383404
0.0422533
0.0481991
0.05302
0.0548246
0.0577181
0.0852446
0.167746
0.169452
0.0868665
0.0568598
0.0535411
0.0525731
0.0495995
0.0431043
0.0385174
0.0352355
0.0326533
0.030844
0.0297609
0.0293088
0.0297924
0.0308758
0.0326248
0.0351231
0.0383325
0.0430804
0.0495719
0.052545
0.05403
0.0572229
0.085738
0.168929
0.170245
0.0885477
0.0571936
0.0529234
0.0519087
0.049999
0.0445929
0.038861
0.0351725
0.0324663
0.0305688
0.029436
0.0289663
0.0294681
0.0306002
0.0324397
0.0350424
0.0386311
0.0448242
0.0499416
0.051807
0.0533768
0.0571327
0.0866161
0.169709
0.171248
0.0890231
0.0570733
0.0523474
0.0511209
0.0497325
0.0467677
0.0397384
0.0352384
0.0323979
0.0304302
0.0292039
0.0286946
0.0292386
0.0304662
0.0323957
0.0351426
0.0397103
0.046593
0.0496678
0.0510328
0.0528953
0.0575477
0.0881291
0.170472
0.171668
0.0900934
0.0575775
0.0519778
0.0504125
0.0493516
0.0479549
0.0420332
0.035624
0.0324114
0.0304041
0.0291074
0.0285245
0.0291356
0.0304228
0.0323872
0.0354832
0.0415063
0.0471353
0.0491964
0.0503848
0.0524716
0.0577098
0.0887115
0.171309
0.172013
0.0915476
0.0583363
0.0518183
0.0498905
0.0488444
0.0477694
0.0441685
0.0370328
0.0325507
0.0303898
0.029076
0.028444
0.0291011
0.030409
0.0324993
0.0366396
0.0435974
0.0470193
0.0486249
0.0498919
0.0522464
0.058069
0.089563
0.171587
0.17175
0.0918535
0.0586525
0.0516826
0.0494644
0.0483114
0.0473806
0.0448534
0.0393226
0.0331332
0.0304292
0.0290587
0.0284224
0.0290881
0.030481
0.0331455
0.0389704
0.0445244
0.0467691
0.0481135
0.049532
0.0521881
0.0588575
0.090809
0.171035
0.170081
0.0919445
0.0589907
0.0516151
0.0491775
0.0478604
0.0468454
0.0448295
0.0415097
0.0346466
0.0306932
0.0290841
0.0284333
0.0291102
0.0307624
0.0345612
0.0408712
0.0445232
0.0463661
0.0476855
0.0492785
0.0521094
0.0591448
0.0907922
0.169466
0.163944
0.0908434
0.059344
0.0515474
0.0489332
0.0474958
0.0463187
0.0445982
0.0423135
0.03719
0.0316219
0.029266
0.0285488
0.0292784
0.031674
0.0368356
0.041492
0.0443032
0.0459477
0.0473711
0.0490523
0.0519893
0.0593345
0.0894301
0.163555
0.132847
0.301302
0.332397
0.336902
0.33735
0.337352
0.337222
0.337116
0.337037
0.33697
0.33691
0.336823
0.336697
0.336544
0.336393
0.336262
0.336156
0.33607
0.335996
0.335928
0.335863
0.335799
0.335735
0.335671
0.335605
0.335541
0.335378
0.333961
0.316787
0.147314
0.103742
0.288146
0.327676
0.33391
0.334511
0.334504
0.334328
0.334123
0.333935
0.333785
0.333665
0.333542
0.333395
0.33322
0.333041
0.332883
0.332752
0.332645
0.332554
0.332471
0.332393
0.332316
0.332241
0.332167
0.332091
0.332005
0.331657
0.328195
0.296854
0.124423
0.101772
0.284601
0.325259
0.331346
0.332045
0.332092
0.331921
0.331627
0.331317
0.331079
0.330921
0.330796
0.330665
0.330504
0.33033
0.330171
0.330038
0.329931
0.32984
0.32976
0.329686
0.329615
0.329546
0.32948
0.329412
0.329326
0.32888
0.32444
0.288184
0.117199
0.103145
0.28179
0.323289
0.329642
0.330735
0.331066
0.330982
0.330525
0.329864
0.329286
0.32891
0.328684
0.328517
0.328364
0.328213
0.32808
0.327977
0.3279
0.327842
0.327795
0.327754
0.327717
0.327682
0.327648
0.327613
0.327556
0.327102
0.322368
0.285009
0.114814
0.103006
0.280343
0.323593
0.330995
0.333099
0.334444
0.334953
0.334397
0.332586
0.330404
0.328887
0.3281
0.327706
0.327468
0.327304
0.327185
0.327102
0.327048
0.327014
0.326991
0.326974
0.326959
0.326947
0.326935
0.326922
0.326883
0.326431
0.321569
0.283832
0.113519
0.103215
0.282085
0.327964
0.337409
0.341766
0.346069
0.349014
0.349553
0.346353
0.339756
0.333119
0.329404
0.327937
0.327354
0.327076
0.326927
0.326844
0.326798
0.326773
0.326759
0.326751
0.326745
0.326741
0.326738
0.326733
0.326699
0.326239
0.321259
0.283148
0.112442
0.104294
0.28848
0.338851
0.351173
0.357375
0.36304
0.369328
0.375214
0.378051
0.371226
0.353037
0.337572
0.330115
0.327875
0.327177
0.326909
0.326794
0.326741
0.326717
0.326706
0.3267
0.326698
0.326696
0.326695
0.326692
0.326659
0.326185
0.321084
0.282554
0.111447
0.107043
0.298378
0.348963
0.358974
0.363118
0.368887
0.37671
0.385403
0.394781
0.402531
0.40071
0.372235
0.342728
0.330573
0.327753
0.327043
0.326817
0.326738
0.326708
0.326696
0.326691
0.326689
0.326688
0.326687
0.326685
0.32665
0.326161
0.320945
0.281995
0.110529
0.108815
0.29951
0.350069
0.360266
0.36549
0.372696
0.381834
0.391868
0.40266
0.413365
0.423011
0.425012
0.391948
0.34667
0.330555
0.327568
0.326934
0.326762
0.326711
0.326695
0.326689
0.326687
0.326686
0.326686
0.326684
0.326648
0.326145
0.320821
0.281474
0.109696
0.109181
0.298729
0.34993
0.361314
0.367733
0.376013
0.386206
0.39772
0.410017
0.421787
0.432564
0.442549
0.445025
0.405799
0.347633
0.330033
0.327359
0.32685
0.326728
0.326698
0.32669
0.326687
0.326686
0.326686
0.326684
0.326646
0.32613
0.320709
0.280992
0.108943
0.109169
0.298297
0.349457
0.362148
0.370083
0.379501
0.39029
0.40244
0.415536
0.428667
0.440995
0.451489
0.460983
0.461824
0.410336
0.345118
0.329216
0.327161
0.326789
0.326709
0.326691
0.326688
0.326687
0.326686
0.326684
0.326645
0.326117
0.320604
0.280544
0.108262
0.108897
0.298404
0.349544
0.363781
0.372958
0.383143
0.393844
0.406156
0.419449
0.432646
0.446248
0.458761
0.468977
0.477886
0.474543
0.403331
0.340264
0.328404
0.326996
0.326747
0.326698
0.326689
0.326687
0.326686
0.326684
0.326644
0.326104
0.320505
0.280127
0.107641
0.10848
0.299598
0.350554
0.365921
0.375221
0.385165
0.395137
0.40665
0.420256
0.433594
0.447363
0.461439
0.474289
0.484514
0.492898
0.480701
0.386576
0.335139
0.327752
0.326874
0.32672
0.326692
0.326687
0.326686
0.326684
0.326643
0.326092
0.320414
0.279741
0.107077
0.108256
0.302109
0.352567
0.36742
0.374717
0.382887
0.391496
0.401915
0.414893
0.429132
0.443566
0.45854
0.473878
0.487514
0.4983
0.505235
0.473699
0.365912
0.331296
0.327298
0.326792
0.326704
0.326689
0.326687
0.326684
0.326642
0.326081
0.320328
0.279385
0.106562
0.108311
0.30613
0.354414
0.365413
0.368036
0.373165
0.380034
0.38923
0.401284
0.416417
0.432386
0.448999
0.466528
0.483953
0.498845
0.510669
0.513189
0.446612
0.348791
0.329001
0.327015
0.326741
0.326695
0.326687
0.326684
0.326641
0.32607
0.320252
0.279065
0.106099
0.108731
0.310518
0.353462
0.356719
0.351836
0.353559
0.358582
0.366812
0.378113
0.393561
0.411943
0.430949
0.451286
0.472359
0.492458
0.508984
0.522197
0.511243
0.405001
0.337144
0.327798
0.326853
0.326713
0.32669
0.326684
0.32664
0.326061
0.320183
0.278776
0.105684
0.110591
0.314778
0.344531
0.335507
0.324068
0.323105
0.326477
0.334502
0.345227
0.360885
0.381618
0.403444
0.427258
0.452154
0.477243
0.500118
0.518953
0.530492
0.491715
0.3672
0.33104
0.3272
0.326765
0.326698
0.326685
0.32664
0.326053
0.320121
0.278518
0.105312
0.111923
0.310846
0.322837
0.303618
0.286649
0.283325
0.286264
0.294635
0.30506
0.320801
0.342547
0.367235
0.394382
0.423265
0.453115
0.482342
0.507981
0.529816
0.529832
0.440483
0.344605
0.328422
0.326913
0.326721
0.326688
0.326639
0.326046
0.320067
0.278294
0.104986
0.11488
0.294937
0.286338
0.260278
0.242562
0.239751
0.243129
0.251407
0.261669
0.276578
0.298149
0.324835
0.354146
0.386423
0.420623
0.455609
0.488758
0.518021
0.536046
0.514306
0.384417
0.333268
0.327364
0.326782
0.326698
0.32664
0.32604
0.320019
0.278097
0.1047
0.116492
0.264845
0.243368
0.218934
0.201951
0.199426
0.20284
0.210591
0.220473
0.234144
0.253295
0.279642
0.309496
0.343776
0.381433
0.420976
0.460477
0.497339
0.526411
0.535326
0.459596
0.349841
0.328898
0.326947
0.326721
0.326643
0.326035
0.319979
0.27793
0.104453
0.121088
0.222981
0.199954
0.181728
0.170956
0.169644
0.17273
0.178197
0.185273
0.196011
0.211857
0.236523
0.265021
0.298814
0.337832
0.380375
0.424444
0.46848
0.508329
0.53324
0.520609
0.391911
0.334404
0.327423
0.326779
0.326651
0.326032
0.319947
0.277793
0.104245
0.124292
0.18984
0.171417
0.163892
0.164415
0.160046
0.156061
0.156021
0.159424
0.16673
0.178868
0.199934
0.224989
0.256048
0.293518
0.3365
0.38332
0.431812
0.48049
0.517366
0.534907
0.463314
0.350624
0.32895
0.326932
0.326671
0.32603
0.31992
0.277678
0.104071
0.135725
0.165568
0.167342
0.183359
0.186968
0.171774
0.156226
0.149924
0.14872
0.151225
0.157793
0.172346
0.191826
0.218272
0.252004
0.292684
0.339537
0.39053
0.444083
0.491839
0.525234
0.516033
0.386772
0.333842
0.327336
0.326719
0.326035
0.3199
0.277589
0.10393
0.146335
0.174442
0.195498
0.224918
0.220029
0.202044
0.179417
0.161376
0.151701
0.14683
0.145232
0.153313
0.167838
0.188561
0.216967
0.253403
0.297553
0.348013
0.403376
0.458888
0.503305
0.525841
0.447946
0.346412
0.328504
0.326831
0.326048
0.319889
0.277526
0.103822
0.167363
0.209723
0.241391
0.295568
0.261155
0.23956
0.211931
0.184507
0.1621
0.149341
0.14239
0.145034
0.154467
0.169332
0.191651
0.222231
0.261371
0.308442
0.362446
0.421253
0.474237
0.513846
0.498432
0.370315
0.331846
0.327103
0.326078
0.319884
0.277477
0.103742
0.147313
0.316787
0.333961
0.335378
0.335541
0.335605
0.335672
0.335736
0.3358
0.335864
0.335929
0.335997
0.336071
0.336157
0.336263
0.336394
0.336545
0.336698
0.336824
0.336911
0.336971
0.337038
0.337117
0.337224
0.337354
0.337352
0.336904
0.332397
0.301292
0.132819
0.124422
0.296854
0.328195
0.331657
0.332005
0.332091
0.332167
0.332241
0.332316
0.332393
0.332471
0.332554
0.332646
0.332752
0.332883
0.333041
0.33322
0.333395
0.333542
0.333665
0.333784
0.333934
0.334122
0.334328
0.334504
0.334511
0.333911
0.327677
0.288148
0.103757
0.117197
0.288183
0.32444
0.32888
0.329326
0.329412
0.32948
0.329546
0.329615
0.329686
0.32976
0.32984
0.329931
0.330039
0.330171
0.330331
0.330505
0.330666
0.330796
0.330921
0.331078
0.331315
0.331625
0.33192
0.332091
0.332045
0.331347
0.325261
0.284609
0.101749
0.114813
0.285009
0.322368
0.327102
0.327556
0.327613
0.327648
0.327682
0.327717
0.327754
0.327795
0.327842
0.327901
0.327977
0.32808
0.328213
0.328364
0.328517
0.328683
0.328907
0.329281
0.329857
0.330515
0.330973
0.331059
0.330731
0.329639
0.32329
0.281807
0.103182
0.113519
0.283833
0.321569
0.326431
0.326883
0.326922
0.326935
0.326947
0.326959
0.326974
0.326991
0.327014
0.327048
0.327102
0.327185
0.327304
0.327468
0.327705
0.328096
0.328876
0.33038
0.332548
0.334357
0.334918
0.334417
0.333082
0.330984
0.323582
0.280321
0.10302
0.112441
0.283146
0.321259
0.326239
0.326699
0.326733
0.326738
0.326741
0.326745
0.326751
0.326759
0.326773
0.326798
0.326844
0.326927
0.327075
0.327352
0.32793
0.329381
0.333055
0.339635
0.346209
0.34941
0.348897
0.345983
0.341711
0.337372
0.327939
0.282077
0.103162
0.111447
0.282556
0.321084
0.326185
0.326659
0.326692
0.326695
0.326696
0.326698
0.3267
0.326706
0.326717
0.326741
0.326794
0.326908
0.327175
0.327866
0.330077
0.337431
0.35275
0.370859
0.377775
0.375021
0.369183
0.362927
0.357279
0.35109
0.33879
0.28846
0.10436
0.11053
0.281995
0.320945
0.326161
0.32665
0.326685
0.326687
0.326688
0.326689
0.326691
0.326696
0.326708
0.326738
0.326817
0.327041
0.327744
0.330523
0.342498
0.371698
0.400262
0.402255
0.394565
0.385223
0.376566
0.368769
0.363021
0.358886
0.348883
0.298297
0.106991
0.109696
0.281474
0.320821
0.326145
0.326648
0.326684
0.326686
0.326686
0.326687
0.326689
0.326695
0.326711
0.326761
0.326933
0.32756
0.330497
0.34635
0.39118
0.424536
0.422684
0.413092
0.402423
0.391668
0.381672
0.372565
0.365389
0.360183
0.350007
0.299484
0.108813
0.108944
0.280993
0.320709
0.326131
0.326646
0.326684
0.326686
0.326686
0.326687
0.32669
0.326698
0.326728
0.326849
0.327352
0.329981
0.347278
0.404881
0.444515
0.442186
0.432242
0.421501
0.409773
0.397511
0.386034
0.375867
0.367619
0.361224
0.349861
0.298691
0.109188
0.108261
0.280543
0.320603
0.326117
0.326645
0.326684
0.326686
0.326687
0.326688
0.326691
0.326709
0.326788
0.327155
0.329177
0.344788
0.409314
0.46127
0.460592
0.451132
0.440681
0.4284
0.415313
0.40224
0.390124
0.37935
0.369959
0.362052
0.349377
0.298228
0.109118
0.107641
0.280127
0.320505
0.326104
0.326644
0.326684
0.326686
0.326687
0.326689
0.326698
0.326746
0.326992
0.328379
0.340003
0.402218
0.473859
0.477456
0.468601
0.458443
0.44599
0.43243
0.41927
0.405994
0.393702
0.383008
0.372836
0.363682
0.349473
0.298399
0.108917
0.107077
0.279742
0.320414
0.326092
0.326643
0.326684
0.326686
0.326687
0.326692
0.326719
0.326872
0.327738
0.33498
0.385668
0.479914
0.492467
0.484159
0.474003
0.461223
0.447207
0.43348
0.420187
0.406587
0.395073
0.38509
0.375123
0.365825
0.350471
0.299531
0.108455
0.106563
0.279385
0.320328
0.326081
0.326642
0.326684
0.326687
0.326689
0.326703
0.326791
0.32729
0.331211
0.365252
0.472554
0.504735
0.497954
0.487255
0.473718
0.458462
0.443557
0.429169
0.414979
0.401996
0.391555
0.38293
0.374688
0.367354
0.352497
0.302038
0.108229
0.106099
0.279065
0.320252
0.32607
0.326641
0.326684
0.326687
0.326695
0.326741
0.327011
0.328962
0.348386
0.445291
0.512592
0.510335
0.49863
0.483869
0.466555
0.44912
0.432589
0.41667
0.401581
0.389519
0.380278
0.373388
0.368138
0.365425
0.35438
0.306059
0.108276
0.105684
0.278777
0.320183
0.326061
0.32664
0.326684
0.32669
0.326712
0.326851
0.327781
0.33694
0.403867
0.510458
0.521857
0.508813
0.492446
0.472497
0.451549
0.431318
0.412398
0.394059
0.378648
0.367345
0.359056
0.35401
0.352132
0.356859
0.353499
0.310459
0.108696
0.105313
0.278518
0.32012
0.326053
0.32664
0.326685
0.326698
0.326764
0.327193
0.330958
0.366521
0.490451
0.530007
0.518814
0.500165
0.477476
0.452548
0.427788
0.404082
0.382337
0.361627
0.345978
0.335263
0.327178
0.32379
0.324563
0.335818
0.344719
0.314779
0.110539
0.104985
0.278293
0.320066
0.326045
0.326639
0.326688
0.326721
0.32691
0.328391
0.34426
0.439043
0.529212
0.529668
0.508071
0.48265
0.453617
0.423931
0.395182
0.368128
0.343505
0.321738
0.305967
0.295552
0.287104
0.28418
0.287303
0.304108
0.32319
0.310964
0.111884
0.104701
0.278098
0.320019
0.32604
0.32664
0.326698
0.32678
0.327354
0.333134
0.383417
0.513356
0.535821
0.518142
0.489119
0.456194
0.42139
0.387334
0.35516
0.325871
0.299225
0.277659
0.262656
0.252366
0.243963
0.240629
0.243253
0.260841
0.286793
0.2952
0.114871
0.104453
0.27793
0.319979
0.326035
0.326643
0.326721
0.326943
0.328857
0.349423
0.458181
0.534928
0.526469
0.497729
0.461101
0.421826
0.382435
0.344869
0.310627
0.280798
0.254352
0.235185
0.221364
0.211414
0.203508
0.200104
0.20248
0.219471
0.243875
0.265272
0.116505
0.104245
0.277792
0.319947
0.326032
0.326651
0.326778
0.32741
0.334242
0.390804
0.519782
0.533195
0.508602
0.469159
0.425284
0.38143
0.338997
0.300003
0.266206
0.237637
0.212833
0.196854
0.185933
0.178727
0.173181
0.170017
0.171159
0.181929
0.200506
0.223444
0.12114
0.104072
0.27768
0.319921
0.32603
0.32667
0.326929
0.328904
0.350188
0.461906
0.534718
0.517684
0.481181
0.432763
0.384422
0.337609
0.294681
0.25715
0.22601
0.200827
0.179585
0.167263
0.159773
0.156203
0.156166
0.159936
0.164416
0.163949
0.171671
0.19027
0.124461
0.10393
0.277589
0.3199
0.326035
0.326717
0.327325
0.333691
0.38576
0.51537
0.525479
0.492448
0.445039
0.391579
0.340714
0.293822
0.253032
0.219182
0.19259
0.172945
0.158132
0.15141
0.148664
0.149766
0.155838
0.17112
0.186218
0.183557
0.167705
0.166047
0.135897
0.103822
0.277525
0.319889
0.326047
0.326828
0.328466
0.346058
0.446634
0.525836
0.503859
0.459752
0.404439
0.349112
0.298639
0.254383
0.217729
0.189153
0.168254
0.153591
0.145254
0.146721
0.151241
0.160663
0.178375
0.201231
0.219387
0.225217
0.195598
0.174939
0.146564
0.103742
0.277477
0.319884
0.326077
0.327095
0.331735
0.369639
0.49769
0.514315
0.475062
0.422267
0.363541
0.309476
0.262285
0.222978
0.192178
0.169662
0.154622
0.14507
0.142116
0.149139
0.161394
0.182814
0.210714
0.239102
0.261531
0.295892
0.241523
0.208991
0.167441
0.0797097
0.0798969
0.0800857
0.0802746
0.0804636
0.0806526
0.0808418
0.081031
0.0812203
0.0814097
0.0815992
0.0817888
0.0819785
0.0821682
0.0823581
0.082548
0.0827381
0.0829282
0.0831184
0.0833087
0.0834991
0.0836895
0.0838801
0.0840707
0.0842615
0.0844523
0.0846432
0.0848342
0.0850253
0.0852164
0.0854077
0.085599
0.0857904
0.0859819
0.0861735
0.0863652
0.0865569
0.0867488
0.0869407
0.0871327
0.0873248
0.087517
0.0877092
0.0879016
0.088094
0.0882865
0.0884791
0.0886718
0.0888645
0.0890573
0.0892503
0.0894432
0.0896363
0.0898295
0.0900227
0.090216
0.0904094
0.0906029
0.0907965
0.0909901
0.0911838
0.0913776
0.0915715
0.0917654
0.0919595
0.0921536
0.0923478
0.092542
0.0927364
0.0929308
0.0931253
0.0933198
0.0935145
0.0937092
0.093904
0.0940989
0.0942939
0.0944889
0.094684
0.0948792
0.0950745
0.0952698
0.0954652
0.0956607
0.0958562
0.0960519
0.0962476
0.0964434
0.0966392
0.0968351
0.0970312
0.0972273
0.0974236
0.0976203
0.097818
0.0980175
0.0982201
0.0984277
0.0986425
0.0988663
0.0990995
0.0993403
0.099585
0.0998279
0.100063
0.100279
0.100476
0.100655
0.100819
0.100974
0.101129
0.101285
0.101448
0.101618
0.101795
0.101978
0.102167
0.102358
0.102553
0.102749
0.102946
0.103143
0.103341
0.103536
0.103724
0.253065
0.253345
0.253586
0.253819
0.25405
0.25428
0.254509
0.254737
0.254965
0.255192
0.255419
0.255645
0.25587
0.256095
0.256319
0.256542
0.256765
0.256987
0.257208
0.257429
0.257649
0.257869
0.258087
0.258306
0.258523
0.25874
0.258956
0.259172
0.259387
0.259602
0.259815
0.260028
0.260241
0.260453
0.260664
0.260875
0.261085
0.261294
0.261503
0.261711
0.261919
0.262126
0.262332
0.262538
0.262743
0.262948
0.263152
0.263355
0.263558
0.26376
0.263961
0.264162
0.264363
0.264562
0.264761
0.26496
0.265158
0.265355
0.265552
0.265748
0.265944
0.266139
0.266333
0.266527
0.26672
0.266913
0.267105
0.267297
0.267488
0.267678
0.267868
0.268057
0.268246
0.268434
0.268621
0.268808
0.268995
0.269181
0.269366
0.269551
0.269735
0.269918
0.270101
0.270284
0.270466
0.270647
0.270828
0.271008
0.271188
0.271367
0.271547
0.271728
0.271916
0.272119
0.272354
0.272651
0.273049
0.273548
0.274021
0.274193
0.273838
0.272981
0.27172
0.270612
0.270302
0.271039
0.272772
0.27503
0.277122
0.278467
0.278847
0.278518
0.277879
0.277223
0.27674
0.276472
0.276373
0.276378
0.276448
0.276559
0.276692
0.276837
0.276991
0.277157
0.277341
0.311824
0.311941
0.312039
0.312132
0.312224
0.312315
0.312405
0.312495
0.312584
0.312673
0.312761
0.312849
0.312936
0.313022
0.313108
0.313193
0.313278
0.313362
0.313446
0.313529
0.313611
0.313693
0.313775
0.313856
0.313936
0.314016
0.314095
0.314174
0.314252
0.31433
0.314408
0.314484
0.314561
0.314636
0.314712
0.314787
0.314861
0.314935
0.315008
0.315081
0.315153
0.315225
0.315297
0.315368
0.315438
0.315508
0.315578
0.315647
0.315716
0.315784
0.315852
0.315919
0.315986
0.316053
0.316119
0.316185
0.31625
0.316315
0.316379
0.316443
0.316507
0.31657
0.316632
0.316695
0.316757
0.316818
0.316879
0.31694
0.317
0.31706
0.31712
0.317179
0.317238
0.317296
0.317354
0.317412
0.317469
0.317526
0.317582
0.317638
0.317694
0.31775
0.317805
0.317859
0.317914
0.317968
0.318021
0.318075
0.318129
0.318187
0.318257
0.318365
0.318562
0.318825
0.31825
0.313002
0.296955
0.269989
0.244054
0.227386
0.219946
0.218417
0.221018
0.226699
0.233167
0.239567
0.245755
0.252036
0.259116
0.268193
0.28074
0.293978
0.306546
0.317254
0.323513
0.324859
0.323362
0.321698
0.320647
0.320141
0.319919
0.319829
0.319806