/*--------------------------------*- C++ -*----------------------------------*\
| =========                 |                                                 |
| \\      /  F ield         | OpenFOAM: The Open Source CFD Toolbox           |
|  \\    /   O peration     | Version:  2112                                  |
|   \\  /    A nd           | Website:  www.openfoam.com                      |
|    \\/     M anipulation  |                                                 |
\*---------------------------------------------------------------------------*/
FoamFile
{
    version     2.0;
    format      ascii;
    arch        "LSB;label=32;scalar=64";
    class       volScalarField;
    location    "0.00558";
    object      T;
}
// * * * * * * * * * * * * * * * * * * * * * * * * * * * * * * * * * * * * * //

dimensions      [0 0 0 1 0 0 0];

internalField   nonuniform List<scalar> 
13875
(
1412
1535.57
1482.4
1487.55
1482.03
1483.76
1484.57
1484
1484.27
1484.24
1484.46
1484.25
1483.49
1483.92
1483.81
1483.94
1483.45
1484.61
1484.8
1483.11
1481.9
1487.63
1480.55
1533
1396.96
1307.02
1356.16
1318.91
1322.05
1316.58
1317.96
1322.19
1322.84
1323.66
1323.84
1323.98
1323.26
1317.98
1317.67
1318.33
1322.84
1322.91
1323.37
1322.23
1317.81
1316.7
1321.86
1319.58
1356.01
1302.16
1307.23
1340.05
1314.28
1311.71
1305.32
1305.64
1305.83
1305.28
1304.91
1305.08
1305.54
1306.12
1303.77
1304.07
1303.88
1305.82
1303.86
1305.71
1306.06
1305.18
1304.9
1311.05
1311.42
1335.95
1297.83
1317.38
1344.8
1314.66
1308.58
1306.07
1305.88
1304.9
1303.37
1303.6
1303.69
1303.09
1303.72
1303.86
1304.12
1304.04
1303.47
1302.34
1303.39
1304.21
1305.51
1305.38
1307.69
1313.94
1343.89
1312.6
1329.53
1342.13
1315.73
1312.38
1305.02
1305.7
1305.17
1303.55
1303.63
1303.84
1303.12
1303.36
1303.7
1304.25
1303.8
1303.29
1302.45
1303.91
1305.26
1305.2
1304.81
1311.72
1312.03
1338.54
1316.56
1332.22
1351.14
1318.81
1309.84
1308.03
1306.62
1304.88
1303.31
1303.86
1303.94
1303.15
1303.76
1304.12
1304.53
1304.29
1303.59
1302.55
1303.44
1304.3
1306.19
1307.27
1308.4
1318.99
1348.99
1326.02
1339
1360.48
1329.05
1317.53
1308.06
1307.47
1305.94
1303.92
1304.3
1304.29
1303.43
1303.66
1304.31
1304.92
1304.24
1303.59
1303.1
1304.57
1306.22
1307.07
1307.87
1317.63
1325.76
1358.19
1321.19
1359.75
1384.7
1344.04
1321.13
1316.45
1310.39
1306.77
1305.04
1305.06
1304.89
1304.02
1304.52
1305.16
1305.72
1305.25
1304.29
1303.68
1304.98
1306.33
1309.59
1315
1320.32
1341.48
1380.92
1349.95
1537.28
1508.59
1387.2
1350.8
1322.12
1315.85
1310.27
1307.1
1307.32
1306.65
1305.64
1305.67
1306.43
1307.14
1306.58
1305.96
1305.7
1307.55
1310.66
1314.87
1321.71
1349.67
1382.97
1505.86
1521.89
1835.07
1574.33
1426.93
1358.33
1338.39
1321.28
1314.71
1310.8
1310.35
1309.63
1308.63
1308.55
1309.32
1310.06
1309.73
1309.21
1309.19
1311.38
1314.64
1320.5
1336.12
1356.4
1424.23
1566.3
1827.26
2507.62
1805.16
1518.47
1410.14
1351.09
1332.4
1326.76
1318.98
1317.54
1316.17
1314.58
1314.22
1314.89
1315.89
1315.88
1315.89
1316.14
1318.69
1326.67
1330.94
1349.52
1416.81
1503.36
1799.56
2430.93
2813.05
2301.13
1736.67
1462.29
1419.84
1364.31
1341.43
1333.67
1331.6
1329.6
1327.45
1326.96
1327.28
1328.33
1328.64
1329.56
1330.51
1333.87
1342.31
1365.81
1405.37
1455.78
1725.35
2302.92
2837.12
2787.39
2658.51
2355.86
2222.56
1535.24
1419.62
1401.73
1377.88
1369.98
1364.16
1359.59
1358.23
1357.84
1359.03
1360.5
1364.22
1370.02
1378.65
1408.85
1426.61
1571.03
2246.68
2260.16
2683.93
2768.44
2723.45
2660.97
2750.38
2748
2051.88
1857.56
1538.21
1499.53
1479.72
1468.1
1459.91
1457.66
1457.12
1458.2
1460.53
1467.26
1479.45
1499.57
1549.71
1874
2109.4
2780.9
2788.92
2704.17
2698.79
2585.46
2643.47
2694.81
2706.25
2639.96
2417.16
2108.13
1991.59
1929.19
1836.41
1789.9
1772.36
1767.8
1770.14
1781.15
1819.86
1909.48
2004.56
2036.88
2419.99
2638.47
2731.95
2689.41
2642.49
2627.36
2503.96
2536.42
2648.3
2719.87
2699.15
2747.41
2898.19
3086.99
3302.6
3289.75
3372.89
3388.11
3400.97
3394.48
3371.68
3296.48
3213.52
3165.62
2948.68
2755.28
2688.2
2732.37
2654.2
2569.6
2531.76
2327.87
2429.15
2466.23
2532.5
2654.28
2798.89
3091.43
3431.23
3625.34
3689.5
3684.87
3672.44
3667
3672.19
3687.27
3702.91
3658
3512.73
3130.73
2828.25
2686.41
2577.26
2469.29
2403.08
2338.08
2044.25
2169.03
2389.41
2670.59
2801.07
2886.92
3065.11
3429.05
3610.6
3670.01
3666.72
3656.11
3650.16
3656.51
3670.39
3678.82
3618.97
3455.57
3066.9
2887.06
2808.21
2677.45
2308.33
2157.01
2037.88
1833.95
1903.09
2023.8
2404.55
2781.1
2879.04
2941.66
3138.22
3357.32
3477.32
3505.34
3508.19
3508.79
3509.95
3509.25
3485.78
3383.35
3190.74
2963.34
2903.56
2812.51
2412.44
2022.4
1934.44
1838.82
2483.43
2360.45
2072.71
2277.15
2608.42
2694.51
2701.76
2874.27
3099.77
3286.85
3376.46
3398.41
3398.86
3400.3
3382.59
3299.68
3120.73
2890.41
2704.19
2699.82
2620.85
2272.24
2097.57
2424.27
2533.78
3240.48
3270.96
2558.68
2241.32
2415.44
2509.15
2532.81
2679.18
2914.14
3129.59
3248.85
3283.94
3288.52
3284.63
3251.47
3130.37
2914.86
2679.57
2520.76
2506.42
2411.73
2223.85
2633.15
3370.9
3187.39
3496.77
3381.89
2474.53
2100.54
2239.79
2344.64
2404.2
2543.32
2766.96
2987.85
3123.35
3167.65
3171.32
3166.25
3120.54
2981.27
2762.2
2537.84
2391.44
2331
2228.13
2081.25
2495.96
3385.62
3490.86
3482.29
2906
2263.74
1952.86
2096.78
2207.25
2303.09
2428.59
2641.38
2853.66
2994.05
3044.36
3051.94
3042.4
2992.96
2851.52
2637.28
2430.5
2292.37
2192.34
2090.25
1932.57
2242.22
2904.08
3547.96
3345.92
2626.31
2057.7
1848.23
2013.09
2123.33
2210.65
2336.43
2533.21
2738.34
2877.49
2928.95
2933.21
2925.86
2875.23
2737.17
2534.72
2335.93
2204.3
2102.98
1997.18
1828.32
2015.87
2556.49
3243.2
3177.31
2423.27
1933.73
1797.45
1964.13
2045.33
2126.64
2248
2440.27
2636.13
2768.26
2813.85
2820.6
2809.41
2760.33
2628.31
2434.12
2244.51
2118.4
2035.02
1951.59
1778.88
1927.58
2430.31
3183.69
3164.5
2377.12
1901.75
1798.23
1933.24
1989.86
2054.47
2172.75
2355
2539.62
2664.04
2707.63
2710.87
2703.67
2656.65
2533.01
2353.22
2169.82
2052.4
1978.22
1920.48
1778.98
1882.99
2311.56
3121.63
3109.89
2292.89
1885.85
1812.13
1910.86
1928.9
1990.39
2108
2281.28
2456.79
2566.6
2603.49
2609.7
2598.91
2556.52
2445.41
2275.76
2101.88
1981.01
1923.37
1899.61
1795.36
1881.39
2276.02
3081.93
3073.73
2265.15
1885.82
1826.6
1873.84
1886.29
1940.52
2054.79
2225.49
2377.01
2473.36
2508.46
2512.03
2505.46
2464.51
2361.73
2209.21
2045.04
1933.74
1875.76
1863.34
1803.99
1869.52
2264.45
3063.79
3083.1
2275.9
1901.29
1839.01
1883.87
1844.63
1892.78
2004.59
2151.46
2301.92
2387.2
2417.7
2423.68
2414.34
2381.81
2294.27
2150.09
1996.19
1882.91
1841.32
1873.49
1826.23
1886.68
2218.57
3025.38
3088.27
2271.16
1903.6
1837.95
1847.01
1817.84
1860.8
1961.22
2112.7
2234.2
2307.22
2335.7
2338.64
2332.77
2300.38
2223.04
2099.81
1957.01
1851.56
1803.63
1835.34
1824.76
1886.39
2252.2
3040.13
3049.74
2269.76
1925.06
1848.86
1853.31
1796.34
1830.89
1930.45
2052.7
2172.17
2235.53
2257.01
2261.94
2254.12
2230.86
2164.43
2047.08
1917.97
1819.23
1794.38
1840.85
1836.37
1915.57
2284.03
3031.57
3044.51
2287.06
1930.11
1860.81
1809.77
1761.31
1808.24
1891.61
2016.27
2115.69
2165.05
2187.58
2189.3
2185.52
2161.52
2110.01
2013.3
1898.64
1800.47
1754.28
1806.12
1854.15
1927.88
2284.47
3014.57
2999.76
2271.38
1945.43
1875.09
1810.26
1746.69
1786.04
1865.39
1976.94
2061.26
2106.94
2119.35
2123.66
2116.69
2103.23
2057.36
1972.87
1863.55
1784.63
1749.29
1801.52
1870.74
1946.29
2267.6
2989.31
2944.98
2244.2
1977.21
1884.56
1792.53
1711.88
1775.57
1836.78
1948.13
2017.56
2045.37
2062.21
2062.4
2060.82
2041.66
2012.72
1939.48
1848.16
1768.3
1714.24
1793.95
1874.19
1976.72
2254.44
2947.51
2931.48
2255.07
2031.11
1903.16
1796.73
1706.35
1754.38
1816.1
1917.97
1962.41
1997.88
2002.73
2007.35
2000.3
1995.69
1961.55
1910.44
1822.44
1763.07
1710.1
1799.02
1900.77
2016.61
2232.47
2914.02
2890.1
2229.5
2034.63
1922.87
1774.35
1690.51
1747.68
1786.2
1890.55
1929.91
1943.29
1957.3
1955.23
1955.94
1938.76
1926.63
1879.04
1800.96
1742.21
1698.57
1782.42
1916.13
2033.59
2227.57
2913.18
2849.85
2206.15
2030.18
1939.08
1801.08
1701.98
1732.47
1772.05
1870.16
1878.31
1905.52
1904.54
1910
1902.33
1903.05
1876.5
1852.92
1779.05
1740.22
1700.62
1801.37
1943.96
2026.09
2201.52
2881.74
2827.73
2183.45
2030.12
2001.93
1786.78
1693.93
1726.83
1742.2
1834.8
1851.68
1858.14
1869.09
1865.31
1867.96
1853.23
1851.17
1824.21
1752.34
1721.25
1710.07
1788.49
1980.23
2027.47
2179.51
2846.75
2794.15
2173.21
2019.73
2024.58
1826.23
1726.37
1716.83
1731.28
1820.67
1808.69
1826.65
1822.81
1828.01
1821.48
1823.5
1806.91
1801.47
1742.68
1722.87
1723.69
1828.09
2035.39
2016.26
2169.79
2805.4
2741.8
2152.46
2001.06
2030.56
1845.28
1735.98
1718.68
1713.44
1785.93
1781.89
1789.11
1793.89
1790.29
1793.74
1783.39
1781.79
1772.15
1715.21
1709.91
1747.06
1839.77
2028.63
2001.84
2161.51
2761.38
2710.36
2157.53
1968.91
2011.77
1919.23
1773.52
1731.39
1717.44
1782.09
1748.24
1758.37
1754.55
1758.27
1753.41
1756.31
1747.42
1758.67
1729.27
1734.78
1755.81
1888.48
2017.32
1962.4
2144.99
2712.88
2671.97
2142.95
1944.02
2004.12
1964.33
1795.33
1740.78
1707.96
1745.42
1723.63
1734.17
1730.69
1727.35
1730.67
1726.69
1725.73
1731.35
1706.78
1741.53
1811.29
1978.49
2003.89
1935.71
2145.86
2670.31
2645.78
2130.98
1921.33
1972.73
1951.48
1858.68
1764.5
1736.78
1769.39
1703.79
1700.72
1697.03
1699.76
1696.46
1697.95
1703.88
1740.93
1737.75
1759.98
1839.78
1969.78
1977.29
1911.79
2135.26
2643.05
2617.45
2121.62
1907.69
1946.85
1945.1
1949.79
1792.81
1733.15
1725.55
1684.33
1688.69
1679.19
1674.07
1679.29
1684.92
1682.3
1712.56
1727.44
1782
1937.23
1959.68
1950.85
1893.93
2114.2
2607.34
2599.31
2113.25
1900.04
1915.18
1924.71
1947.84
1843.55
1775.52
1774.31
1678.72
1662.79
1651.68
1652.63
1651.85
1657.86
1680.02
1756.33
1771.59
1827.47
1957.04
1936
1917.34
1888.25
2109.97
2594.46
2562.91
2088.75
1890.13
1899.75
1890.35
1935.28
1931.48
1790.3
1745.06
1674.71
1664.45
1644.13
1635.55
1643.93
1659.31
1668.92
1729.38
1788.17
1915.97
1950.63
1898.68
1900.91
1881.23
2097.48
2571.51
2546.61
2087.37
1890.69
1874.54
1855.68
1917.47
1956.21
1860.89
1795.02
1681.49
1648.89
1625.2
1623.79
1625.6
1645.95
1681.29
1779.79
1859.11
1976.68
1927
1862.58
1874.02
1882.31
2087.08
2554.84
2501.55
2063.55
1877.84
1870.55
1827.19
1880.28
1940.73
1950.87
1787.56
1689.12
1665.45
1639.79
1624.84
1638.66
1664.78
1684.62
1782.61
1956.23
1951.54
1892.42
1833.83
1870.02
1876.91
2073.55
2510.09
2461.04
2052.27
1873.81
1848.81
1807.17
1850.69
1919.48
1974.3
1883.6
1716.83
1653.72
1625.42
1626.74
1625.36
1651.44
1712.33
1871.61
1983.26
1935.7
1857.1
1810.63
1847.29
1875.12
2061.5
2473.74
2316.77
2002.38
1845.57
1846.13
1792.01
1808.84
1888.81
1951.7
1978.59
1754.55
1693.65
1651.51
1631.71
1650.18
1691.47
1745.13
1976.24
1962.79
1895.6
1820.33
1798.55
1846.76
1850.33
2010.38
2327.47
369.651
365.623
366.582
367.51
371.081
374.151
373.305
368.811
364.266
362.566
361.405
359.135
355.722
350.199
335.153
322.181
315.398
309.622
305.408
302.62
299.872
297.414
295.72
294.757
294.19
293.446
292.425
291.356
291.311
291.156
368.098
366.084
371.488
378.759
389.745
395.701
392.765
380.152
369.959
365.027
363.558
361.4
359.17
354.305
341.153
324.717
316.749
310.562
304.199
300.373
297.217
294.279
292.487
291.609
291.246
291.041
290.266
289.077
288.507
287.818
366.914
367.647
383.891
400.149
420.563
422.923
413.103
393.404
378.513
369.516
366.032
363.088
360.584
355.763
346.182
328.471
319.75
312.697
305.06
299.773
296.294
293.051
291.191
290.333
290.002
290.037
289.402
288.194
287.503
286.764
371.115
376.221
413.621
444.365
478.379
477.525
461.025
424.34
395.476
377.536
370.121
366.166
363.223
358.352
350.542
332.983
322.859
314.699
306.248
298.867
294.814
291.375
289.396
288.48
288.123
288.302
287.787
286.58
286.086
285.545
376.139
393.347
472.477
527.959
585.514
577.659
544.187
476.123
423.928
391.717
376.819
369.913
365.648
361.055
354.029
338.894
326.802
317.861
308.061
299.53
293.979
290.344
288.182
287.139
286.719
286.929
286.646
285.591
285.313
285.014
387.587
425.721
581.444
687.447
783.554
764.377
701.565
574.248
475.46
416.049
387.463
375.122
369.025
364.116
357.252
344.493
331.342
321.604
310.611
300.746
293.555
289.61
287.142
285.8
285.249
285.418
285.451
285.017
284.807
284.256
400.884
480.838
773.707
977.217
1104.92
1062.6
976.035
754.651
565.032
456.429
404.812
382.855
373.45
367.423
360.538
349.631
337.328
325.951
314.332
302.333
294.084
289.436
286.732
285.206
284.546
284.823
285.066
285.136
285.131
284.318
423.107
571.015
1079.32
1289.71
1266.06
1195.15
1151.26
1025.03
714.403
522.039
432.426
394.389
379.361
371.67
364.561
355.208
341.586
331.205
318.764
304.995
295.363
290.113
287.045
285.241
284.409
284.602
284.645
282.929
281.57
279.829
452.734
707.669
1337.11
1359.49
1279.32
1193.41
1162.49
1130.39
924.305
621.903
474.711
411.641
387.35
376.752
369.037
360.834
345.736
338.618
323.864
309.01
297.065
290.887
287.311
285.317
284.047
282.694
281.105
278.894
277.358
275.702
495.299
892.959
1400.92
1357.71
1224.99
1116.71
1100.08
1120.66
1055.82
754.776
534.619
436.52
398.472
383.205
374.125
365.826
350.706
342.839
331.264
313.79
299.252
290.625
286.114
282.951
280.831
279.405
278.087
276.353
275.128
273.76
553.978
1108.96
1414.69
1316.33
1121.03
992.477
985.006
1047.07
1072.64
892.201
608.704
469.648
413.411
391.53
380.189
371.171
356.08
346.039
340.657
320.102
301.944
290.543
284.422
281.095
279.063
277.985
276.957
275.453
274.325
273.038
631.806
1298.42
1416.18
1255.46
1041.56
901.784
884.21
952.015
1047.91
971.477
691.338
508.871
431.389
401.494
387.025
376.874
361.934
349.158
344.838
332.273
305.866
291.63
283.933
280.466
278.545
277.513
276.465
275.019
273.91
272.595
726.844
1379.98
1409.84
1214.81
1000.08
856.628
827.031
883.35
1014.29
993.624
770.63
549.078
450.685
412.541
394.785
383.266
368.101
352.548
348.138
345.326
313.414
293.751
284.535
280.191
278.42
277.377
276.299
274.867
273.748
272.426
824.616
1411.16
1399.11
1191.05
958.998
826.671
798.853
850.348
986.416
991.555
815.549
581.146
468.981
424.458
403.671
390.163
374.368
356.248
351.266
349.067
330.463
298.584
285.988
280.778
278.691
277.625
276.507
275.07
273.849
272.449
911.352
1429.52
1389.35
1156.15
905.566
790.652
775.377
834.03
967.031
977.217
819.625
593.008
482.814
435.47
412.762
397.699
380.671
360.136
354.472
351.835
349.284
308.297
289.006
282.271
279.229
278.219
277.045
275.581
274.257
272.828
988.367
1445.59
1381.72
1124.96
870.298
761.901
750.739
812.752
934.176
947.863
795.168
590.552
490.694
445.304
422.18
405.982
387.233
364.592
357.804
354.863
353.283
333.09
295.374
284.337
280.52
279.032
277.814
276.272
274.774
273.194
1063.28
1462.8
1376.67
1110.28
856.561
739.007
718.929
775.222
874.637
889.47
746.026
576.937
493.333
454.255
430.944
414.656
394.675
369.789
361.503
358.407
356.08
352.211
308.88
288.347
282.458
279.739
278.611
276.977
275.258
273.541
1135.89
1480.62
1372.98
1106.7
853.03
720.474
689.366
727.068
796.148
807.289
679.394
556.083
494.006
461.941
439.024
423.488
403.524
376.306
366.021
362.219
359.423
356.498
341.832
297.089
284.947
280.807
279.019
277.438
275.594
273.778
1199.45
1495.69
1373.02
1109.29
857.302
713.384
664.61
675.214
716.513
719.258
618.65
535.973
494.118
467.921
446.093
429.824
409.606
385.114
372.211
366.94
363.393
360.193
354.975
318.744
290.321
282.639
278.914
277.268
275.47
273.582
1254.69
1512.3
1381.7
1131.74
878.621
715.029
650.451
634.149
648.937
648.505
575.859
522.055
492.824
470.741
450.046
434.283
414.477
396.012
380.809
373.043
368.135
364.31
359.884
351.29
302.251
286.099
280.157
276.643
275.056
273.348
1319.63
1528.72
1401.63
1170.79
921.851
739.474
647.592
614.362
604.245
599.112
553.856
511.683
490.094
472.04
453.631
437.199
419.06
403.454
391.314
380.938
373.972
369.199
364.473
359.212
332.737
293.482
282.309
277.546
274.137
272.444
1340.82
1548.5
1438.1
1225.42
976.767
787.167
665.446
609.762
589.468
577.297
544.689
507.521
488.479
474.214
460.478
440.808
424.816
410.013
399.264
390.118
381.273
374.664
369.569
363.948
354.619
307.907
286.47
279.165
274.873
272.367
1405.08
1572.61
1483.22
1296.33
1056.16
856.023
710.235
624.138
589.381
573.298
544.303
510.618
492.061
480.886
466.899
447.083
431.026
416.906
407.271
398.18
389.467
381.291
375.261
368.155
360.544
340.555
294.096
281.355
276.279
273.37
1408.85
1598.3
1546.19
1377.38
1152.16
942.746
786.195
666.857
606.587
578.756
554.119
525.396
503.375
490.207
474.953
456.416
438.554
425.187
415.317
406.233
397.325
389.092
380.924
372.313
364.787
354.651
310.604
285.61
278.04
274.95
1426.18
1640.36
1616.18
1460.82
1258.21
1051.19
876.001
743.699
649.292
599.857
576.015
549.935
520.751
498.269
483.731
468.166
447.872
435.258
424.028
414.456
404.445
396.089
386.952
377.044
368.673
359.926
342.202
294.31
280.872
276.724
291.709
291.798
291.731
292.602
293.4
294.007
294.638
295.693
297.474
299.917
302.592
305.36
309.973
315.892
323.121
337.408
350.267
355.774
358.861
361.087
362.154
364.481
369.887
374.523
375.311
371.811
367.754
366.272
364.908
368.843
288.378
288.99
289.409
290.348
290.866
290.985
291.48
292.493
294.391
297.288
300.382
304.491
310.997
317.27
326.002
343.717
354.741
359.134
361.034
363.145
364.937
370.935
382.63
395.807
399.115
392.46
380.265
371.875
365.563
367.22
287.335
287.99
288.512
289.443
289.808
289.739
290.205
291.217
293.17
296.413
299.784
305.494
313.229
320.39
329.875
348.256
356.16
360.455
362.927
365.785
370.028
380.332
396.947
418.684
429.174
425.942
403.855
386.355
367.762
366.626
286.041
286.494
286.832
287.784
288.023
287.854
288.32
289.412
291.477
294.965
299.037
306.738
315.34
323.684
334.827
351.365
358.658
363.064
366.115
370.285
379.13
399.396
431.547
472.101
488.624
487.791
452.468
419.653
377.514
371.599
285.44
285.657
285.795
286.611
286.647
286.478
286.963
288.213
290.47
294.195
299.9
308.691
318.628
327.741
340.891
354.45
361.322
365.651
370.155
377.814
395.064
431.423
489.526
563.402
598.636
604.457
543.445
483.86
396.56
377.463
284.643
285.092
285.13
285.307
285.127
285.009
285.609
287.128
289.762
293.836
301.166
311.363
322.422
332.528
346.104
357.526
364.269
369.164
375.689
389.72
422.444
489.314
599.868
737.452
802.581
817.998
715.275
601.452
431.754
389.549
284.704
285.394
285.174
284.856
284.482
284.273
284.992
286.705
289.584
294.435
302.854
315.175
326.8
338.121
351.287
360.826
367.642
373.748
384.112
409.262
467.613
589.458
801.971
1024.13
1099.55
1143.98
1023.53
806.256
491.386
403.887
280.173
281.799
282.982
284.44
284.177
284.089
284.992
286.976
290.214
295.717
305.701
319.628
332.352
342.386
356.905
364.915
371.977
379.977
396.845
440.227
540.855
754.36
1061.43
1161.26
1203.99
1276.72
1310.52
1118.77
587.431
427.207
275.971
277.579
278.942
280.977
282.47
283.705
284.908
287.091
290.898
297.44
309.832
324.726
339.208
347.048
361.321
369.277
377.039
388.354
415.913
487.118
649.811
968.954
1137.81
1161.02
1194.36
1283.29
1366.36
1353.95
732.027
458.559
274.039
275.376
276.462
278.039
279.24
280.665
282.816
286.045
290.741
299.762
314.585
332.222
343.077
352.121
366.054
374.225
383.666
400.286
443.382
552.957
793.365
1072.43
1114.97
1087.91
1110.96
1224.93
1362.18
1409.4
923.368
503.346
273.256
274.49
275.514
276.912
277.861
278.957
281.056
284.442
290.738
302.556
320.912
340.518
346.121
357.319
371.232
380.254
392.293
416.306
479.455
632.613
928.995
1076.22
1030.04
972.103
988.974
1124.62
1320.42
1421.74
1138.66
564.469
272.729
274.02
275.036
276.392
277.366
278.406
280.39
283.969
291.89
306.549
333.086
344.392
349.139
363.233
376.83
387.153
402.627
435.579
521.821
721.351
991.642
1046.09
935.023
873.449
905.785
1052.34
1264.16
1423.2
1315.47
645.038
272.53
273.835
274.862
276.21
277.218
278.264
280.089
284.587
294.095
314.34
344.574
347.605
352.619
369.282
383.024
394.895
414.041
456.207
565.401
802.882
1004.63
1009.07
872.608
823.554
861.257
1012.53
1228.44
1417.79
1387.2
742.3
272.505
273.879
275.019
276.377
277.436
278.512
280.674
286.065
299.026
331.258
348.064
350.564
356.149
375.339
389.729
403.7
426.177
474.813
598.026
846.026
1000.34
980.917
843.591
798.916
829.903
968.884
1204.84
1408.72
1416.38
840.034
272.894
274.293
275.528
276.905
278.025
279.041
282.159
289.132
308.876
348.427
350.802
353.67
360.045
381.479
397.279
412.729
437.276
488.487
608.477
848.111
986.11
962.804
827.934
773.69
792.103
913.532
1169.26
1400.07
1434.46
924.426
273.307
274.848
276.241
277.671
278.835
280.337
284.238
295.548
333.237
352.13
353.818
356.922
364.442
388.162
405.597
421.912
446.716
495.078
603.49
821.399
956.002
930.564
805.498
748.155
763.837
880.702
1140.14
1393.63
1450.85
999.613
273.672
275.348
276.956
278.477
279.551
282.284
288.306
309.02
351.066
354.873
357.166
360.557
369.656
396.097
414.31
430.513
455.296
496.601
586.444
766.605
897.866
872.783
768.515
717.538
742.062
867.935
1125.96
1389.52
1468.42
1072.09
273.899
275.677
277.399
278.847
280.639
284.802
297.035
340.954
355.181
358.164
360.912
365.104
376.444
405.876
423.741
438.355
461.987
496.298
562.504
692.404
814.252
797.594
722.843
689.397
724.473
864.349
1122.21
1386.51
1486.64
1142.68
273.629
275.467
277.151
278.816
282.474
290.252
318.515
353.458
358.819
362.092
365.656
371.51
386.339
411.335
430.427
445.781
467.302
495.308
540.497
626.717
724.253
717.801
673.022
665.89
717.92
869.489
1124.93
1386.59
1502.14
1203.89
273.274
274.919
276.591
280.091
286
302.183
349.919
358.398
362.898
366.766
371.997
380.652
396.556
416.051
434.937
450.164
470.522
492.525
524.66
581.974
651.125
648.742
633.467
651.931
720.49
891.119
1147.32
1395.28
1519.02
1258.23
272.308
274.075
277.551
282.326
293.487
332.32
357.617
362.948
367.792
372.715
380.989
391.315
403.948
420.051
438.737
454.252
471.907
489.613
513.135
557.225
599.719
604.031
614.552
649.822
746.544
935.274
1186.52
1414.95
1535.74
1323.72
272.376
274.908
279.232
286.678
308.122
353.28
362.533
368.041
373.428
380.393
390.634
399.378
410.334
425.363
442.046
460.894
473.989
488.104
508.903
546.384
577.275
589.941
611.126
669.645
797.254
991.197
1241.67
1451.16
1554.86
1343.72
273.416
276.367
281.541
294.518
340.249
359.414
367.071
373.617
380.181
389.108
398.099
407.324
417.107
431.418
448.374
467.12
480.07
491.682
511.987
545.545
573.073
590.094
627.066
716.546
865.353
1068.97
1311.18
1495.96
1578.12
1404.77
274.96
278.097
285.873
311.665
353.556
363.867
371.476
379.404
387.66
396.314
405.574
415.311
425.382
438.919
457.936
474.686
487.912
503.052
526.412
554.729
578.291
608.122
671.61
793.678
953.778
1166.09
1391.93
1556.74
1602.91
1407.8
276.747
280.975
294.851
342.634
359.086
367.871
376.234
385.429
394.702
403.554
413.409
424.053
435.779
448.705
469.66
484.591
497.157
520.729
550.466
575.856
599.894
652.135
750.711
883.859
1063.43
1277.75
1475.72
1624.77
1643.7
1424.18
847.273
841.725
826.381
819.321
805.468
795.639
782.382
769.468
756.866
743.508
731.137
717.39
705.462
693.962
683.092
672.555
663.124
653.46
644.079
638.341
630.555
625.673
620.442
615.349
612.196
608.474
605.472
602.41
600.734
599.578
600.737
603.468
607.501
612.823
619.466
627.772
637.162
647.686
658.75
669.62
680.469
690.111
699.444
708.403
717.535
727.215
738.903
754.587
769.874
776.625
772.688
762.243
751.985
744.618
738.565
729.894
720.846
710.292
703.206
698.758
695.828
694.196
692.824
691.619
690.214
688.763
686.3
682.588
678.644
674.678
670.845
667.426
663.765
660.008
656.017
651.863
647.927
643.995
640.029
636.135
632.49
629.068
625.762
622.166
617.842
612.743
607.228
601.759
596.459
591.285
586.173
581.086
575.894
570.424
564.52
558.158
551.5
544.528
537.419
530.334
523.199
515.928
508.844
502.207
496.043
489.49
483.934
479.748
476.531
473.618
470.467
467.323
464.704
462.442
459.548
455.922
448.326
430.393
396.351
368.569
337.554
308.772
292.703
284.107
279.372
850.692
846.971
831.443
824.557
811.742
802.173
790.274
777.99
766.223
753.473
742.391
730.209
720.229
709.909
700.478
692.231
683.204
676.836
668.196
664.461
659.424
656.794
655.937
655.591
657.192
659.101
662.135
666.244
672.181
682.075
695.321
711.358
729.886
749.908
772.271
795.753
820.251
845.764
871.57
896.452
919.395
938.628
955.564
970.242
983.375
997.283
1013.51
1028.86
1036.07
1031.71
1019.89
998.977
974.823
951.597
924.481
891.159
852.315
813.761
781.237
758.501
743.619
732.658
721.746
712.283
705.007
699.172
693.66
688.143
682.496
677.242
672.691
668.542
664.859
661.808
659.258
656.615
653.816
650.882
647.782
644.477
641.012
637.272
633.215
628.947
624.46
619.716
614.713
609.328
603.514
597.294
590.657
583.649
576.371
568.956
561.707
554.7
547.889
541.254
534.867
528.994
523.989
520.013
516.986
514.873
512.802
510.844
508.683
507.442
504.951
502.094
497.508
488.414
471.659
455.571
439.518
423.024
406.642
391.361
377.537
365.94
356.196
346.309
322.863
298.072
286.737
872.038
868.981
853.909
847.248
835.657
826.185
814.705
803.623
793.381
782.89
775.006
764.955
759.165
751.881
746.937
742.631
738.803
737.527
735.122
736.274
738.037
742.035
751.03
761.29
777.912
797.041
818.481
840.87
866.617
895.226
927.576
964.036
1006.74
1050.07
1093.93
1137.79
1181.94
1225.95
1268.57
1308.7
1346.41
1380.52
1409.76
1434.97
1456.95
1479.41
1503.48
1520.46
1523.57
1520.35
1513.52
1500.03
1483.23
1449.45
1387.6
1301.42
1200.88
1094.74
985.398
899.561
839.52
800.486
776.485
759.274
746.007
735.381
726.145
717.79
709.974
702.726
696.278
690.65
685.777
681.96
678.807
675.82
672.625
668.954
664.624
659.752
654.512
649.015
643.303
637.744
632.529
627.454
622.149
616.522
610.493
603.95
596.868
589.455
582.016
574.924
568.561
563.159
558.693
555.101
551.959
548.896
545.643
542.357
539.562
537.108
534.633
531.804
526.52
518.456
507.257
493.278
477.083
460.933
445.682
431.879
419.467
407.877
395.953
385.229
376.736
369.138
363.533
357.618
350.37
341.173
316.355
909.245
910.431
897.969
892.416
883.517
876.771
870.151
863.574
856.266
849.955
845.896
843.4
843.054
842.903
847.448
852.1
858.377
871.493
878.024
895.137
910.757
927.856
951.003
974.87
1005.65
1040.94
1083.39
1130.98
1176.45
1223.47
1269.88
1316.22
1363.86
1411.04
1457.13
1499.61
1537.41
1571.63
1602.24
1630.28
1655.65
1678.44
1699.59
1720.21
1739.53
1759.16
1783.52
1804.83
1814.34
1816.74
1818.38
1821.1
1825.52
1831.3
1831.27
1810.75
1756.5
1649.32
1458.91
1246.77
1073.19
956.196
884.976
841.237
813.128
793.044
779.596
770.159
763.147
757.117
750.648
743.745
737.912
732.693
728.481
724.584
719.862
713.362
705.559
697.446
689.831
682.873
676.249
670.142
664.274
657.971
651.029
643.677
636.087
628.377
620.625
613.03
605.822
599.343
593.683
588.838
584.735
581.149
577.663
573.704
568.618
562.271
554.627
544.916
532.865
519.668
505.937
492.236
479.092
466.933
455.52
444.83
434.842
425.101
416.57
407.943
399.658
390.4
382.737
377.215
372.226
367.43
362.683
357.836
351.958
980.864
990.858
991.241
992.457
992.008
993.59
994.185
999.8
1001.86
1011.08
1016.33
1021.99
1035.58
1042.62
1060.91
1076.7
1094.79
1125.58
1140.52
1169.22
1195.51
1221.39
1249.73
1279.73
1311.96
1345.96
1380.5
1417.85
1457.13
1494.79
1531.29
1563.92
1594.76
1623.34
1649.1
1673.2
1694.94
1715.07
1733.61
1750.94
1767.21
1783.93
1800.49
1816.1
1832.1
1848.1
1864.23
1883.68
1896.49
1901.39
1902.87
1904.32
1907.61
1913.7
1923.39
1931.48
1931.47
1921.07
1880.94
1765.19
1516.29
1270.53
1098.76
988.643
917.36
870.467
841.93
826.849
819.548
816.251
815.248
814.785
815.384
817.894
819.075
817.118
812.634
805.584
793.311
779.374
766.367
754.707
744.153
733.942
723.345
712.091
700.351
688.762
677.606
666.947
656.718
646.756
637.011
627.669
618.742
610.096
601.666
592.799
582.82
571.853
559.834
547.032
533.466
519.796
506.861
494.85
483.669
473.655
464.527
455.864
447.27
439.035
431.566
424.127
417.2
410.868
403.482
397.451
392
386.806
381.784
376.929
372.019
367.364
363.23
1127.56
1169.39
1181.13
1205.66
1216.17
1238.89
1247.55
1270.25
1282.15
1311.82
1329.29
1350.72
1375.19
1387.55
1406.4
1422.25
1431.94
1450.23
1458.28
1472.19
1484.88
1498.07
1514.01
1531.68
1549.21
1567.35
1587.23
1609.19
1629.46
1649.75
1667.74
1685.45
1702.67
1718.98
1734.85
1750.54
1766.25
1782.3
1798.49
1814.82
1831.12
1847.1
1863.04
1881.19
1899.82
1915.48
1931.13
1944.64
1954.65
1957.51
1956.89
1955.65
1954.35
1954.63
1956.58
1959.25
1960.45
1960.12
1954.22
1928.39
1852.76
1662.28
1436.35
1249.21
1111.04
1014.12
950.398
911.637
895.172
893.133
894.598
900.126
912.278
927.467
941.759
950.068
949.741
946.393
938.499
920.902
897.369
874.11
851.82
829.577
806.812
782.829
758.476
735.143
714.091
695.502
678.744
663.221
648.499
634.15
619.819
605.724
591.913
578.306
564.845
551.799
539.284
527.436
516.324
505.816
495.832
486.327
477.41
469.333
461.926
455.183
448.68
442.328
435.975
429.68
422.812
416.454
411.449
406.572
401.856
397.293
392.07
386.807
381.655
376.672
372.18
1460.56
1561.52
1584.97
1635.57
1654.01
1679.2
1685.82
1696.58
1695.2
1699.79
1696.76
1696.48
1695.73
1692.7
1687.84
1682.79
1675.1
1670.47
1665.36
1663.32
1662.04
1662.55
1666.02
1672.09
1680.22
1690.35
1702.15
1714.04
1726.18
1738.71
1751.61
1765.7
1780.94
1797.65
1815.79
1835.65
1856.8
1878.82
1901.03
1922.91
1944.72
1962.8
1981.28
1998.82
2015.43
2031.4
2045.74
2054.86
2061.02
2059.18
2054.18
2046.05
2036.79
2027.45
2018.7
2010.38
2002.63
1994.24
1985.03
1970.72
1941.07
1867.1
1719.89
1538.64
1369.58
1237.63
1140.8
1074.06
1036.07
1023.3
1024.07
1029.47
1042.85
1065.01
1088.32
1105.7
1112.67
1112.27
1108.37
1096.08
1067.91
1031.29
992.729
954.419
916.347
876.444
835.102
794.45
757.127
724.643
697.243
673.797
652.885
633.751
616.22
600.265
585.453
571.438
558.333
546.392
535.52
525.425
515.915
506.887
497.944
489.346
481.381
474.22
467.794
461.725
455.401
449.044
442.513
436.072
430.77
425.908
420.912
416.047
411.658
407.599
403.115
398.11
392.692
386.996
381.75
1951.39
2018.5
2014.79
2014.89
2004.93
1989.12
1970.31
1948.91
1926.76
1904.5
1881.38
1858.91
1840.78
1825.1
1810.94
1798.93
1786.67
1775.22
1765.59
1759.18
1755.05
1753.61
1755.5
1760.07
1768.23
1777.53
1788.54
1801.07
1815.51
1832.5
1851.57
1872.91
1896.66
1922.45
1947.86
1972.9
1997.59
2021.21
2042.43
2060.78
2076.45
2089.6
2099.84
2107.26
2112.65
2117.11
2120.72
2123.08
2123.19
2119.13
2112.48
2104.27
2095.01
2084.89
2073.77
2061.6
2048.36
2033.84
2018
1999.66
1971.3
1915.74
1823.33
1697.26