/*--------------------------------*- C++ -*----------------------------------*\
| =========                 |                                                 |
| \\      /  F ield         | OpenFOAM: The Open Source CFD Toolbox           |
|  \\    /   O peration     | Version:  2112                                  |
|   \\  /    A nd           | Website:  www.openfoam.com                      |
|    \\/     M anipulation  |                                                 |
\*---------------------------------------------------------------------------*/
FoamFile
{
    version     2.0;
    format      ascii;
    arch        "LSB;label=32;scalar=64";
    class       volScalarField;
    location    "0.00133";
    object      nut;
}
// * * * * * * * * * * * * * * * * * * * * * * * * * * * * * * * * * * * * * //

dimensions      [0 2 -1 0 0 0 0];

internalField   nonuniform List<scalar> 
13875
(
0.0511668
0.036619
0.0343772
0.03432
0.0342615
0.0343254
0.0343251
0.0343101
0.0342942
0.0342946
0.0342995
0.0342949
0.0343084
0.0343062
0.0343073
0.0342929
0.0342896
0.0343112
0.0343229
0.0343306
0.0342751
0.0343306
0.0343871
0.0365665
0.0514282
0.0532591
0.0341171
0.0322355
0.0321007
0.0320226
0.0320645
0.0320592
0.0320464
0.0320314
0.0320332
0.0320471
0.0320344
0.0320447
0.0320474
0.0320601
0.0320524
0.0320396
0.0320519
0.0320526
0.0320671
0.0320308
0.0320991
0.0322339
0.034055
0.0536374
0.0564571
0.0335628
0.0318184
0.0315883
0.0315169
0.0315562
0.031546
0.0315215
0.0314396
0.0314447
0.0314794
0.0314836
0.0315214
0.0315316
0.0314991
0.0314859
0.031478
0.0315103
0.0315327
0.031556
0.0315242
0.0315767
0.0318007
0.0334977
0.0565919
0.0590737
0.0332344
0.0315048
0.0312715
0.031211
0.0312453
0.0312315
0.031204
0.031109
0.031111
0.0311524
0.0311635
0.0311979
0.0312096
0.03117
0.0311522
0.031151
0.0311978
0.0312169
0.0312435
0.0312162
0.0312587
0.0314907
0.0331735
0.059143
0.0611349
0.0330067
0.0312625
0.0309976
0.0309356
0.0309645
0.0309487
0.0309171
0.0308221
0.0308219
0.0308631
0.0308742
0.0309089
0.0309225
0.0308769
0.0308619
0.0308671
0.030915
0.0309326
0.0309607
0.0309386
0.0309856
0.0312361
0.0329239
0.0612582
0.0628381
0.032856
0.031109
0.0307677
0.0307056
0.0307229
0.0307012
0.0306626
0.0305656
0.0305615
0.0306025
0.0306136
0.0306507
0.0306641
0.0306123
0.0305992
0.030613
0.0306647
0.0306835
0.030718
0.0307074
0.0307594
0.0310656
0.0328297
0.0629822
0.0648589
0.0330903
0.0311304
0.0306354
0.0305302
0.0305242
0.0304893
0.0304401
0.030341
0.0303348
0.030373
0.0303849
0.0304232
0.0304335
0.0303787
0.0303679
0.0303907
0.0304482
0.0304718
0.0305168
0.0305304
0.0306355
0.031124
0.0330832
0.0648922
0.0672158
0.0339954
0.0314758
0.0306736
0.0304686
0.0304046
0.0303393
0.030271
0.0301671
0.0301512
0.0301846
0.0301984
0.0302374
0.0302441
0.0301856
0.0301762
0.0302139
0.0302809
0.0303179
0.0303897
0.0304553
0.0306495
0.0314117
0.0339172
0.0673997
0.0738207
0.036399
0.0321281
0.0309099
0.030508
0.0303741
0.0302697
0.0301752
0.0300627
0.0300374
0.0300646
0.0300797
0.030118
0.0301189
0.0300574
0.0300503
0.0301073
0.0301851
0.0302456
0.0303537
0.030483
0.0308385
0.0319749
0.036052
0.0742949
0.0835196
0.0388266
0.0329507
0.0313101
0.0307479
0.0304823
0.0303205
0.0301959
0.0300833
0.0300546
0.0300719
0.030086
0.0301197
0.0301144
0.0300567
0.0300533
0.0301193
0.0302054
0.0302978
0.0304493
0.0306945
0.0311798
0.0327101
0.0382597
0.0836187
0.0913718
0.0443604
0.0347489
0.032454
0.0312925
0.0308349
0.0306027
0.0304385
0.0303257
0.0302905
0.030296
0.0303051
0.0303299
0.03032
0.030273
0.030277
0.0303458
0.0304412
0.0305718
0.0307748
0.0311845
0.0321851
0.0346077
0.0434976
0.089634
0.094727
0.0562899
0.04255
0.0348981
0.0328663
0.0318385
0.031366
0.0311354
0.0309961
0.0309395
0.03093
0.0309253
0.0309394
0.0309268
0.0308968
0.0309143
0.0309955
0.0311243
0.0313151
0.0317329
0.0325698
0.0339882
0.0409023
0.0543818
0.0943894
0.0864033
0.064474
0.0622286
0.0434115
0.0370231
0.0340582
0.0333423
0.0330006
0.0328366
0.0328094
0.0327451
0.0327721
0.0327513
0.0327502
0.0327278
0.0327601
0.0328575
0.0330189
0.0332831
0.0339784
0.0366852
0.0435666
0.0557568
0.0657178
0.0866971
0.0791395
0.0639446
0.0626875
0.0752966
0.0478619
0.0432095
0.041539
0.0397191
0.0393741
0.0387335
0.0392629
0.0384374
0.039404
0.0387218
0.0388755
0.0388525
0.039132
0.0395727
0.0410406
0.0432199
0.0495361
0.0716765
0.0608769
0.0653733
0.0818544
0.075004
0.0641558
0.0612842
0.0689426
0.0601992
0.0554585
0.0595195
0.0567023
0.0551734
0.0527462
0.0545568
0.0519361
0.0545263
0.052675
0.0530716
0.0530401
0.0537146
0.0553164
0.0597045
0.0571635
0.0608287
0.0678215
0.0600545
0.0648899
0.0755309
0.0678201
0.0649581
0.0637606
0.0692872
0.066767
0.0795858
0.0851263
0.0696143
0.0664064
0.0663549
0.0650423
0.0661376
0.064906
0.0659605
0.0652602
0.066207
0.0661931
0.0675315
0.0775613
0.0847704
0.071509
0.0699312
0.0617463
0.064715
0.0684324
0.0659407
0.0676303
0.0688538
0.0733096
0.0705855
0.0866828
0.0831113
0.0652402
0.0633916
0.0614336
0.062329
0.0611844
0.0625437
0.0615929
0.0615046
0.0620393
0.0628953
0.0635911
0.0752592
0.0904568
0.0768742
0.0752205
0.0683257
0.0672235
0.0669673
0.0624979
0.0719721
0.0717655
0.0701848
0.0670203
0.0815649
0.0791978
0.0662401
0.0626041
0.0598361
0.0599401
0.0583994
0.0599159
0.0587986
0.0592503
0.060357
0.0621338
0.0647597
0.0751865
0.0825754
0.0716195
0.0725416
0.0727481
0.0723959
0.0633272
0.0559955
0.0722018
0.072511
0.0683368
0.0638778
0.0718322
0.0755212
0.0695012
0.0643594
0.0601639
0.058489
0.0565091
0.057433
0.0565461
0.057587
0.0597094
0.0632628
0.0682342
0.0747753
0.0738699
0.066788
0.0698233
0.0729481
0.0738143
0.0578221
0.0529267
0.0704377
0.0693774
0.0659471
0.0619425
0.0660331
0.0716377
0.0705681
0.065857
0.0607303
0.0576164
0.054985
0.0553378
0.0549487
0.0569577
0.0604385
0.0653819
0.0702904
0.0721246
0.0680208
0.0640986
0.0669624
0.0694762
0.0703567
0.0532009
0.0616165
0.0659214
0.0650806
0.0629061
0.059846
0.0627488
0.068532
0.069473
0.0656764
0.0603879
0.0564326
0.0533022
0.0532702
0.0534119
0.0562195
0.0605516
0.0657782
0.0697375
0.0694109
0.0646873
0.0617818
0.0639051
0.0650765
0.0653261
0.0616507
0.075786
0.0669385
0.0625685
0.0607072
0.0581382
0.0605345
0.0659418
0.0676636
0.0645122
0.0593125
0.0549178
0.0514685
0.051151
0.0516605
0.054935
0.0596647
0.0648493
0.0680825
0.0669221
0.0624527
0.0599613
0.0616677
0.06239
0.06678
0.0764191
0.0891604
0.0721376
0.0612201
0.0586943
0.0564598
0.0585731
0.0636287
0.0655705
0.062811
0.0577623
0.0531946
0.0495969
0.0490626
0.0497325
0.0531782
0.0580065
0.0630843
0.0660228
0.0646039
0.0604126
0.0581837
0.0595881
0.0609269
0.0721046
0.0903905
0.0983406
0.0741766
0.0597949
0.0567685
0.0548135
0.0566753
0.0614601
0.0634813
0.0606529
0.055623
0.0511396
0.0476153
0.0470548
0.0478436
0.0512748
0.0560022
0.0610498
0.0640442
0.0623965
0.058286
0.056504
0.0578937
0.0597494
0.0738763
0.0980168
0.104088
0.0751153
0.0585382
0.0552514
0.0534306
0.0550403
0.0594075
0.0612729
0.0584915
0.0535582
0.0491224
0.045741
0.0451782
0.045984
0.0493195
0.0539321
0.0589438
0.0619124
0.0603394
0.0565074
0.0550066
0.056451
0.0587195
0.0751074
0.10394
0.110481
0.0758681
0.0577904
0.0540915
0.0523059
0.0537212
0.0575459
0.0590467
0.0562605
0.0515364
0.047271
0.0440267
0.0434182
0.0442148
0.047396
0.0517897
0.0565823
0.0595912
0.0584136
0.0550746
0.0537154
0.0552369
0.0580363
0.0752707
0.110882
0.117269
0.0766888
0.0572387
0.0532434
0.0514576
0.0526466
0.0557455
0.0566821
0.0539126
0.0494666
0.045423
0.0424355
0.0418252
0.042608
0.045656
0.0498298
0.0543457
0.0573482
0.0566514
0.0539029
0.0527647
0.0543981
0.0576661
0.0766948
0.116558
0.122992
0.0780021
0.0569795
0.0525995
0.0508747
0.0517571
0.0541395
0.0545663
0.0517801
0.0476042
0.043812
0.0410014
0.0403626
0.0411287
0.0439901
0.0478996
0.0521183
0.0551101
0.0549531
0.0529391
0.0520901
0.0537037
0.0574245
0.0778582
0.123476
0.130272
0.0790468
0.0569461
0.0520006
0.05043
0.0510375
0.0526577
0.0525534
0.0497863
0.045894
0.042341
0.039708
0.0390424
0.0397851
0.0424384
0.0460458
0.0499201
0.0528884
0.0533195
0.0521107
0.0515658
0.0529933
0.057317
0.0780654
0.130457
0.137213
0.0794834
0.0569285
0.0514566
0.0499439
0.050355
0.0512287
0.0505834
0.0477828
0.0441653
0.0408961
0.0385037
0.0378475
0.0385923
0.0411013
0.0444934
0.0481392
0.0510648
0.0518931
0.0513186
0.0509888
0.0524531
0.0573609
0.0791042
0.137078
0.140713
0.0799742
0.0572663
0.051196
0.0494034
0.0496193
0.0499331
0.0488532
0.0460498
0.0426823
0.0396639
0.0374255
0.0367548
0.0374999
0.0398469
0.0429739
0.0463595
0.049267
0.0505404
0.0505277
0.050375
0.0521276
0.0575187
0.0798303
0.142793
0.144335
0.0807397
0.0577407
0.0512282
0.0488936
0.0488376
0.048751
0.0473377
0.0445518
0.041349
0.038518
0.0364478
0.0357815
0.0365064
0.0386834
0.0416309
0.0448556
0.0477101
0.0492906
0.0496719
0.0498372
0.0520268
0.0579004
0.080717
0.145857
0.148287
0.0806904
0.05845
0.0514333
0.0484836
0.0480331
0.0475429
0.0458142
0.0430402
0.0400674
0.0374589
0.0355407
0.0348746
0.0356325
0.0377213
0.0404804
0.0435376
0.0463533
0.0481803
0.0488583
0.049396
0.0522001
0.0586015
0.0821441
0.149178
0.15106
0.080969
0.0591958
0.0518904
0.04823
0.0472801
0.0464064
0.0445324
0.0418102
0.038971
0.036505
0.034726
0.0340732
0.0348216
0.0367714
0.0394085
0.0423357
0.0450982
0.0470425
0.0480899
0.0491134
0.0525422
0.0598223
0.0829467
0.152584
0.153869
0.0819599
0.0595469
0.0525397
0.0481991
0.0466086
0.0453643
0.0433356
0.0406591
0.0379843
0.0356861
0.0339956
0.0333278
0.0340897
0.0359619
0.0384435
0.0412361
0.0439524
0.0460281
0.0474117
0.0490682
0.0533606
0.0607952
0.0836814
0.15486
0.15681
0.0819943
0.0594396
0.0531893
0.0483686
0.0460431
0.0443606
0.042185
0.0395972
0.0370764
0.034881
0.0333172
0.0326783
0.0334444
0.0352307
0.0376514
0.040319
0.0429496
0.0451197
0.0468738
0.0492477
0.0542603
0.0611103
0.0851359
0.15714
0.158797
0.0824322
0.0594541
0.0544328
0.0487613
0.0457149
0.0435387
0.0412058
0.0386581
0.0362613
0.0342118
0.0327312
0.0320765
0.0328495
0.0345544
0.0368345
0.039391
0.0419868
0.0443025
0.0465354
0.0496383
0.0557162
0.0610568
0.0853941
0.159712
0.160838
0.0833909
0.0594614
0.0553166
0.0494938
0.0455896
0.0429067
0.0403858
0.0378426
0.035565
0.0335928
0.0321925
0.0315593
0.0323112
0.0339261
0.0361314
0.0385844
0.0411554
0.0436835
0.0464267
0.0504694
0.0568079
0.0609653
0.0856292
0.161673
0.163268
0.0836514
0.0589059
0.0553376
0.0503741
0.0456478
0.0425018
0.0396882
0.0371128
0.0348905
0.0330213
0.0317094
0.0310808
0.0318341
0.0333835
0.0354922
0.0378964
0.0405382
0.0433525
0.0465606
0.0516716
0.0572837
0.0607839
0.0864244
0.163983
0.165032
0.0845214
0.0583034
0.0552165
0.0518922
0.0460718
0.0423209
0.0392247
0.0365515
0.0343595
0.032539
0.0312808
0.03067
0.0313968
0.0328596
0.034916
0.0373106
0.0401196
0.0431862
0.0470365
0.0535386
0.0571733
0.0600096
0.0870893
0.16616
0.166616
0.0863516
0.0580661
0.0548656
0.052905
0.0469724
0.0423689
0.0389911
0.0361495
0.0339348
0.0321269
0.0309158
0.0302982
0.0310037
0.0323973
0.034422
0.0368751
0.0399053
0.0432779
0.0482456
0.0548919
0.056782
0.0594557
0.0882471
0.167743
0.168274
0.0873014
0.0575268
0.0542312
0.0528144
0.0484186
0.0426711
0.0388931
0.0359269
0.0335845
0.0317797
0.0305922
0.0299927
0.0306824
0.0320497
0.0340746
0.0366742
0.0398259
0.043868
0.0504429
0.0547855
0.0562074
0.0595568
0.0909501
0.169053
0.169432
0.0886489
0.0574643
0.0535826
0.0524216
0.0499409
0.0437055
0.0390331
0.0358807
0.0334021
0.0315341
0.0303443
0.0297494
0.0304343
0.0317713
0.033879
0.0365763
0.0399405
0.045177
0.0521657
0.0543498
0.0554764
0.0591966
0.0926229
0.170313
0.170741
0.0911094
0.0580572
0.0530934
0.0518727
0.0502659
0.0456408
0.0395319
0.035936
0.0333885
0.0314466
0.0301879
0.0295662
0.0302621
0.0316609
0.0338549
0.0365905
0.0405916
0.0478023
0.0524683
0.0537224
0.0549029
0.0595629
0.0949781
0.171036
0.172036
0.0925852
0.0582937
0.0526622
0.0512233
0.0500223
0.0476889
0.0408481
0.036119
0.0334149
0.0314769
0.030179
0.029529
0.0302479
0.0316833
0.0339049
0.0368752
0.0425273
0.0499571
0.0522382
0.0531079
0.0546328
0.0608151
0.0978885
0.171549
0.172625
0.0948781
0.0594134
0.0525182
0.0506835
0.0497429
0.0485516
0.0435868
0.0368485
0.0335913
0.0315789
0.0302809
0.0296474
0.0303438
0.0317641
0.0340659
0.037699
0.0455244
0.0503855
0.0518688
0.052623
0.0545171
0.0619122
0.0999685
0.172044
0.172998
0.0975653
0.0609157
0.0526873
0.050328
0.0493344
0.0484166
0.0458959
0.038829
0.0340456
0.0317445
0.0304113
0.0298296
0.0305042
0.0319483
0.0345194
0.0399281
0.0479535
0.0503267
0.0514146
0.0523442
0.0547229
0.06334
0.102184
0.171892
0.172504
0.0991258
0.0619374
0.0529047
0.0501001
0.0489191
0.0481931
0.0465451
0.0418191
0.0353155
0.0321122
0.0305774
0.0300833
0.0307123
0.0323907
0.0361311
0.0433879
0.0484858
0.050193
0.0510948
0.0522434
0.0552296
0.0651248
0.10461
0.170846
0.170731
0.100619
0.0630978
0.0532714
0.0500344
0.0486493
0.0478398
0.0465269
0.0441321
0.0382682
0.0330941
0.0309805
0.0305028
0.0311238
0.0334682
0.0395663
0.0456862
0.0485861
0.0499594
0.0508763
0.052251
0.0557032
0.0664161
0.106099
0.168929
0.164495
0.100562
0.0642198
0.0536148
0.050024
0.0485108
0.0475919
0.0464868
0.0447131
0.041327
0.0357691
0.031747
0.0312627
0.0319384
0.0363889
0.0426633
0.0462471
0.0485847
0.0498279
0.0507804
0.0522911
0.0560549
0.0674701
0.105713
0.162581
0.134294
0.304072
0.335062
0.338645
0.338908
0.338918
0.338893
0.338745
0.338543
0.338341
0.338182
0.338069
0.337986
0.33792
0.337861
0.337805
0.337751
0.337697
0.337643
0.337589
0.337535
0.33748
0.337426
0.337372
0.337317
0.337264
0.337162
0.336206
0.320778
0.150394
0.111179
0.295944
0.331417
0.335078
0.335272
0.335283
0.335288
0.335143
0.334932
0.334705
0.334515
0.334373
0.334267
0.334181
0.334105
0.334034
0.333966
0.3339
0.333835
0.333772
0.333709
0.333647
0.333587
0.333527
0.333469
0.333409
0.333247
0.33133
0.306399
0.134852
0.113482
0.296632
0.329224
0.332178
0.332349
0.332442
0.332523
0.332425
0.332249
0.332042
0.331871
0.331751
0.331669
0.331609
0.331561
0.331518
0.331479
0.331441
0.331405
0.33137
0.331336
0.331303
0.331272
0.331241
0.331212
0.331179
0.331024
0.328801
0.301517
0.13079
0.116402
0.295839
0.327899
0.330828
0.33104
0.331188
0.33133
0.331251
0.331094
0.330903
0.330751
0.330655
0.330599
0.330566
0.330545
0.330529
0.330515
0.330503
0.330492
0.330481
0.330471
0.330461
0.330451
0.330443
0.330434
0.330421
0.330279
0.32797
0.300117
0.129144
0.11632
0.294384
0.327334
0.33042
0.330668
0.33086
0.331031
0.330948
0.330794
0.330604
0.330458
0.330369
0.330322
0.330299
0.330288
0.330282
0.330278
0.330275
0.330272
0.33027
0.330267
0.330265
0.330263
0.330262
0.33026
0.330253
0.330112
0.327738
0.299496
0.127925
0.116078
0.293813
0.327182
0.330318
0.330583
0.330831
0.330996
0.330899
0.330741
0.330546
0.3304
0.330313
0.330268
0.330248
0.330239
0.330235
0.330234
0.330233
0.330233
0.330232
0.330231
0.330231
0.330231
0.330231
0.33023
0.330224
0.33008
0.327636
0.298973
0.126797
0.11614
0.293789
0.327169
0.330294
0.330568
0.330862
0.331012
0.33089
0.330731
0.330534
0.330389
0.330303
0.330259
0.33024
0.330231
0.330228
0.330227
0.330227
0.330227
0.330227
0.330226
0.330226
0.330226
0.330226
0.330226
0.33022
0.330071
0.327556
0.298464
0.125734
0.11656
0.293902
0.327194
0.330287
0.330602
0.330898
0.331022
0.330883
0.330724
0.330529
0.330386
0.330301
0.330258
0.330238
0.33023
0.330227
0.330226
0.330226
0.330226
0.330226
0.330226
0.330225
0.330225
0.330226
0.330226
0.330219
0.330065
0.327485
0.297985
0.124752
0.116995
0.293904
0.327204
0.330284
0.330639
0.330926
0.331021
0.330871
0.330715
0.330521
0.330382
0.330299
0.330256
0.330237
0.330229
0.330227
0.330226
0.330226
0.330226
0.330226
0.330226
0.330225
0.330225
0.330226
0.330226
0.330219
0.33006
0.32742
0.297543
0.123858
0.117292
0.293819
0.327221
0.330347
0.33067
0.330948
0.331016
0.330853
0.3307
0.330509
0.330376
0.330296
0.330254
0.330236
0.330229
0.330227
0.330226
0.330226
0.330226
0.330226
0.330226
0.330225
0.330225
0.330226
0.330226
0.330219
0.330056
0.327361
0.297138
0.123052
0.117422
0.293757
0.32729
0.330452
0.33073
0.330972
0.331005
0.330824
0.330677
0.330493
0.330367
0.33029
0.330252
0.330235
0.330229
0.330227
0.330226
0.330226
0.330226
0.330226
0.330226
0.330226
0.330225
0.330226
0.330226
0.330218
0.330051
0.327305
0.296763
0.122321
0.117458
0.293824
0.327486
0.330717
0.3309
0.331052
0.330994
0.330791
0.330649
0.330473
0.330355
0.330285
0.33025
0.330234
0.330229
0.330227
0.330226
0.330226
0.330226
0.330226
0.330226
0.330226
0.330226
0.330226
0.330226
0.330218
0.330047
0.327253
0.296415
0.121655
0.117506
0.294181
0.328118
0.331474
0.331461
0.331345
0.331077
0.330779
0.330622
0.330452
0.330344
0.33028
0.330248
0.330234
0.330228
0.330227
0.330226
0.330226
0.330226
0.330226
0.330226
0.330226
0.330226
0.330226
0.330226
0.330218
0.330043
0.327205
0.296093
0.121049
0.117643
0.295411
0.330265
0.334414
0.333919
0.33255
0.331498
0.330894
0.33063
0.330438
0.330335
0.330275
0.330246
0.330233
0.330228
0.330227
0.330226
0.330226
0.330226
0.330226
0.330226
0.330226
0.330226
0.330226
0.330225
0.330217
0.330039
0.32716
0.295797
0.120497
0.11824
0.299319
0.337636
0.346112
0.346185
0.340262
0.334026
0.331482
0.330763
0.330459
0.330331
0.330271
0.330244
0.330232
0.330228
0.330227
0.330226
0.330226
0.330226
0.330226
0.330226
0.330226
0.330226
0.330226
0.330225
0.330217
0.330035
0.327119
0.295531
0.12
0.119687
0.309658
0.35676
0.374657
0.381574
0.373878
0.351328
0.335549
0.331449
0.330587
0.330354
0.330272
0.330243
0.330232
0.330228
0.330226
0.330226
0.330226
0.330226
0.330226
0.330226
0.330226
0.330226
0.330226
0.330226
0.330216
0.330032
0.327081
0.295289
0.119553
0.123552
0.324051
0.368543
0.379825
0.392517
0.410907
0.406582
0.361722
0.33614
0.331221
0.330462
0.330289
0.330244
0.330231
0.330227
0.330226
0.330226
0.330226
0.330226
0.330226
0.330226
0.330226
0.330226
0.330226
0.330226
0.330216
0.330029
0.327048
0.295074
0.119154
0.125993
0.325942
0.357187
0.349599
0.356631
0.384091
0.420422
0.425999
0.364276
0.335127
0.330937
0.330364
0.330255
0.330232
0.330227
0.330226
0.330226
0.330226
0.330226
0.330226
0.330226
0.330226
0.330226
0.330226
0.330226
0.330217
0.330027
0.327019
0.294887
0.118804
0.126394
0.315041
0.315686
0.292095
0.294757
0.324497
0.371237
0.423421
0.425904
0.357397
0.333409
0.33066
0.330299
0.330238
0.330228
0.330226
0.330226
0.330226
0.330226
0.330226
0.330226
0.330226
0.330226
0.330226
0.330226
0.330217
0.330025
0.326994
0.294723
0.118497
0.126478
0.281801
0.254667
0.230087
0.229629
0.256991
0.302261
0.36298
0.425994
0.407213
0.346711
0.33194
0.330456
0.33026
0.33023
0.330227
0.330226
0.330226
0.330226
0.330226
0.330226
0.330226
0.330226
0.330226
0.330226
0.330217
0.330023
0.326973
0.294584
0.118232
0.123669
0.2301
0.195412
0.180587
0.18031
0.20168
0.236778
0.290366
0.362996
0.421926
0.377415
0.338015
0.331022
0.330332
0.33024
0.330227
0.330226
0.330226
0.330226
0.330226
0.330226
0.330226
0.330226
0.330226
0.330226
0.330216
0.330022
0.326956
0.294468
0.118008
0.125464
0.172629
0.160929
0.153873
0.152779
0.166633
0.188881
0.22739
0.288261
0.3664
0.401967
0.353969
0.33326
0.330551
0.330269
0.330231
0.330226
0.330226
0.330226
0.330226
0.330226
0.330226
0.330226
0.330226
0.330226
0.330216
0.33002
0.326941
0.294373
0.117822
0.139682
0.146068
0.142618
0.145696
0.154589
0.155586
0.162955
0.182858
0.224753
0.293442
0.368054
0.36603
0.34009
0.331251
0.330344
0.33024
0.330227
0.330226
0.330226
0.330226
0.330226
0.330226
0.330226
0.330226
0.330226
0.330216
0.33002
0.32693
0.2943
0.117671
0.163682
0.154607
0.165603
0.181894
0.205292
0.171048
0.155697
0.158645
0.18154
0.229594
0.301092
0.356653
0.345654
0.333401
0.330541
0.330263
0.33023
0.330226
0.330226
0.330226
0.330226
0.330226
0.330226
0.330226
0.330226
0.330216
0.330019
0.326923
0.294246
0.117555
0.255486
0.249864
0.282104
0.333344
0.297492
0.217619
0.168314
0.153732
0.159389
0.186781
0.240178
0.31136
0.331881
0.337257
0.331038
0.330315
0.330236
0.330227
0.330226
0.330226
0.330226
0.330226
0.330226
0.330226
0.330226
0.330216
0.330019
0.326919
0.294208
0.11747
0.150393
0.320778
0.336206
0.337162
0.337264
0.337318
0.337372
0.337427
0.337481
0.337535
0.33759
0.337644
0.337698
0.337752
0.337806
0.337862
0.337921
0.337988
0.338071
0.338184
0.338343
0.338544
0.338746
0.338895
0.33892
0.33891
0.338647
0.335062
0.304061
0.134263
0.134851
0.306399
0.33133
0.333247
0.333409
0.333469
0.333527
0.333587
0.333647
0.333709
0.333772
0.333836
0.3339
0.333966
0.334034
0.334105
0.334181
0.334268
0.334374
0.334515
0.334705
0.334933
0.335143
0.335289
0.335283
0.335272
0.335079
0.331418
0.295947
0.111195
0.130788
0.301515
0.328801
0.331024
0.331179
0.331212
0.331242
0.331272
0.331303
0.331336
0.33137
0.331405
0.331441
0.331479
0.331518
0.331561
0.33161
0.33167
0.331751
0.331871
0.332042
0.332249
0.332425
0.332524
0.332442
0.33235
0.332178
0.329225
0.296638
0.113453
0.129143
0.300117
0.32797
0.330279
0.330421
0.330434
0.330443
0.330451
0.330461
0.330471
0.330481
0.330492
0.330503
0.330516
0.330529
0.330545
0.330566
0.330599
0.330655
0.330751
0.330903
0.331094
0.331251
0.33133
0.331187
0.33104
0.330828
0.327902
0.295857
0.116445
0.127926
0.299497
0.327738
0.330112
0.330253
0.33026
0.330262
0.330263
0.330265
0.330267
0.33027
0.330272
0.330275
0.330278
0.330282
0.330288
0.330299
0.330322
0.330369
0.330458
0.330604
0.330794
0.330948
0.331031
0.33086
0.330668
0.330419
0.327332
0.294365
0.116337
0.126796
0.298972
0.327636
0.33008
0.330224
0.33023
0.330231
0.330231
0.330231
0.330231
0.330232
0.330233
0.330233
0.330234
0.330235
0.330239
0.330248
0.330268
0.330313
0.3304
0.330546
0.330741
0.330899
0.330996
0.330831
0.330583
0.330318
0.327182
0.293818
0.11602
0.125735
0.298466
0.327557
0.330071
0.33022
0.330226
0.330226
0.330226
0.330226
0.330226
0.330227
0.330227
0.330227
0.330227
0.330228
0.330231
0.33024
0.330259
0.330303
0.330389
0.330534
0.33073
0.330889
0.331012
0.330862
0.330568
0.330294
0.327171
0.293798
0.116219
0.124752
0.297985
0.327485
0.330065
0.330219
0.330226
0.330226
0.330225
0.330225
0.330226
0.330226
0.330226
0.330226
0.330226
0.330227
0.33023
0.330238
0.330258
0.330301
0.330386
0.330529
0.330724
0.330883
0.331022
0.330898
0.330602
0.330287
0.327191
0.293886
0.116519
0.123858
0.297543
0.32742
0.33006
0.330219
0.330226
0.330226
0.330225
0.330225
0.330226
0.330226
0.330226
0.330226
0.330226
0.330227
0.330229
0.330237
0.330256
0.330299
0.330382
0.330521
0.330715
0.330871
0.331021
0.330926
0.330639
0.330285
0.327206
0.293913
0.117
0.123052
0.297139
0.327361
0.330056
0.330219
0.330226
0.330226
0.330225
0.330225
0.330226
0.330226
0.330226
0.330226
0.330226
0.330227
0.330229
0.330236
0.330255
0.330296
0.330376
0.330509
0.3307
0.330853
0.331016
0.330948
0.33067
0.330347
0.327219
0.293807
0.11731
0.12232
0.296762
0.327305
0.330051
0.330218
0.330226
0.330226
0.330225
0.330226
0.330226
0.330226
0.330226
0.330226
0.330226
0.330227
0.330229
0.330235
0.330252
0.33029
0.330366
0.330493
0.330677
0.330824
0.331005
0.330972
0.33073
0.330452
0.327291
0.293768
0.117379
0.121655
0.296415
0.327253
0.330047
0.330218
0.330226
0.330226
0.330226
0.330226
0.330226
0.330226
0.330226
0.330226
0.330226
0.330227
0.330229
0.330234
0.33025
0.330285
0.330355
0.330473
0.330649
0.330791
0.330994
0.331052
0.330901
0.330718
0.327487
0.293829
0.117492
0.12105
0.296094
0.327205
0.330043
0.330218
0.330226
0.330226
0.330226
0.330226
0.330226
0.330226
0.330226
0.330226
0.330226
0.330227
0.330228
0.330234
0.330248
0.33028
0.330344
0.330452
0.330622
0.330779
0.331077
0.331344
0.331462
0.331475
0.328118
0.294171
0.117502
0.120498
0.295797
0.32716
0.330039
0.330217
0.330225
0.330226
0.330226
0.330226
0.330226
0.330226
0.330226
0.330226
0.330226
0.330227
0.330228
0.330233
0.330246
0.330275
0.330335
0.330438
0.33063
0.330894
0.331498
0.332549
0.333919
0.334414
0.330266
0.295409
0.117638
0.119999
0.29553
0.327118
0.330035
0.330217
0.330225
0.330226
0.330226
0.330226
0.330226
0.330226
0.330226
0.330226
0.330226
0.330227
0.330228
0.330232
0.330244
0.330271
0.330331
0.330459
0.330763
0.331482
0.334022
0.340248
0.346168
0.346101
0.337633
0.299321
0.118236
0.119554
0.29529
0.327081
0.330032
0.330216
0.330226
0.330226
0.330226
0.330226
0.330226
0.330226
0.330226
0.330226
0.330226
0.330226
0.330228
0.330232
0.330243
0.330272
0.330354
0.330587
0.331449
0.335538
0.351283
0.373822
0.381536
0.374627
0.356737
0.309635
0.119696
0.119155
0.295074
0.327048
0.330029
0.330216
0.330226
0.330226
0.330226
0.330226
0.330226
0.330226
0.330226
0.330226
0.330226
0.330226
0.330227
0.330231
0.330244
0.330289
0.330462
0.33122
0.336126
0.361661
0.406545
0.410971
0.392599
0.379846
0.368512
0.324012
0.123527
0.118803
0.294887
0.327019
0.330027
0.330217
0.330226
0.330226
0.330226
0.330226
0.330226
0.330226
0.330226
0.330226
0.330226
0.330226
0.330227
0.330232
0.330255
0.330364
0.330936
0.335113
0.364202
0.425995
0.420642
0.384409
0.356932
0.349731
0.357216
0.325942
0.125978
0.118497
0.294724
0.326995
0.330025
0.330217
0.330226
0.330226
0.330226
0.330226
0.330226
0.330226
0.330226
0.330226
0.330226
0.330226
0.330228
0.330238
0.330299
0.330659
0.333401
0.357337
0.425934
0.423745
0.371736
0.325012
0.295181
0.292291
0.315788
0.315093
0.126399
0.118233
0.294584
0.326973
0.330023
0.330217
0.330226
0.330226
0.330226
0.330226
0.330226
0.330226
0.330226
0.330226
0.330226
0.330227
0.33023
0.33026
0.330456
0.331936
0.346678
0.407314
0.426398
0.363572
0.302877
0.257519
0.230013
0.230261
0.254794
0.281929
0.12645
0.118008
0.294468
0.326955
0.330022
0.330216
0.330226
0.330226
0.330226
0.330226
0.330226
0.330226
0.330226
0.330226
0.330226
0.330227
0.33024
0.330332
0.331021
0.337995
0.377504
0.422348
0.363645
0.291039
0.237335
0.2021
0.180588
0.180709
0.195479
0.230221
0.123643
0.117822
0.294374
0.326941
0.330021
0.330216
0.330226
0.330226
0.330226
0.330226
0.330226
0.330226
0.330226
0.330226
0.330226
0.330231
0.330269
0.330551
0.333255
0.35403
0.402425
0.367157
0.288992
0.227952
0.189237
0.166808
0.152914
0.153937
0.160966
0.172798
0.12545
0.117672
0.294299
0.32693
0.33002
0.330216
0.330226
0.330226
0.330226
0.330226
0.330226
0.330226
0.330226
0.330226
0.330227
0.33024
0.330344
0.331252
0.340112
0.366523
0.368894
0.294235
0.225294
0.183132
0.163018
0.155364
0.154423
0.145726
0.142618
0.146101
0.139645
0.117555
0.294246
0.326923
0.330019
0.330216
0.330226
0.330226
0.330226
0.330226
0.330226
0.330226
0.330226
0.330226
0.33023
0.330264
0.330542
0.333405
0.345877
0.357475
0.301937
0.230177
0.181806
0.158614
0.155325
0.169927
0.204101
0.181243
0.165307
0.154543
0.162557
0.117469
0.294208
0.326919
0.330019
0.330216
0.330226
0.330226
0.330226
0.330226
0.330226
0.330226
0.330226
0.330227
0.330236
0.330316
0.331041
0.3373
0.332534
0.312271
0.240822
0.187061
0.159335
0.153281
0.167333
0.215136
0.292656
0.32794
0.279258
0.247212
0.252289
0.0913191
0.091525
0.0917323
0.0919396
0.092147
0.0923544
0.092562
0.0927695
0.0929772
0.0931849
0.0933927
0.0936005
0.0938085
0.0940164
0.0942245
0.0944326
0.0946407
0.094849
0.0950573
0.0952656
0.0954741
0.0956826
0.0958911
0.0960997
0.0963084
0.0965171
0.0967259
0.0969348
0.0971437
0.0973527
0.0975617
0.0977709
0.09798
0.0981893
0.0983985
0.0986079
0.0988173
0.0990268
0.0992363
0.0994459
0.0996555
0.0998653
0.100075
0.100285
0.100495
0.100705
0.100915
0.101125
0.101335
0.101545
0.101755
0.101966
0.102176
0.102386
0.102597
0.102807
0.103018
0.103228
0.103439
0.10365
0.103861
0.104072
0.104282
0.104493
0.104704
0.104916
0.105127
0.105338
0.105549
0.10576
0.105972
0.106183
0.106395
0.106606
0.106818
0.107029
0.107241
0.107453
0.107664
0.107876
0.108088
0.1083
0.108512
0.108724
0.108936
0.109148
0.109361
0.109573
0.109785
0.109997
0.11021
0.110422
0.110635
0.110847
0.11106
0.111273
0.111485
0.111698
0.111911
0.112124
0.112337
0.112549
0.112762
0.112976
0.113189
0.113402
0.113615
0.113828
0.114041
0.114255
0.114468
0.114682
0.114895
0.115109
0.115322
0.115536
0.115749
0.115963
0.116177
0.116391
0.116605
0.116818
0.117032
0.117245
0.117452
0.272798
0.273063
0.273283
0.273495
0.273706
0.273916
0.274125
0.274333
0.274541
0.274748
0.274954
0.275159
0.275363
0.275567
0.27577
0.275973
0.276174
0.276375
0.276575
0.276774
0.276973
0.277171
0.277368
0.277564
0.27776
0.277955
0.278149
0.278343
0.278536
0.278728
0.278919
0.27911
0.2793
0.279489
0.279678
0.279866
0.280053
0.280239
0.280425
0.28061
0.280794
0.280978
0.281161
0.281344
0.281525
0.281706
0.281887
0.282066
0.282245
0.282424
0.282601
0.282778
0.282955
0.28313
0.283306
0.28348
0.283654
0.283827
0.283999
0.284171
0.284342
0.284513
0.284683
0.284852
0.28502
0.285188
0.285356
0.285523
0.285689
0.285854
0.286019
0.286183
0.286347
0.28651
0.286672
0.286834
0.286996
0.287156
0.287316
0.287476
0.287634
0.287793
0.28795
0.288107
0.288264
0.28842
0.288575
0.28873
0.288884
0.289037
0.28919
0.289343
0.289494
0.289646
0.289796
0.289947
0.290096
0.290245
0.290394
0.290542
0.290689
0.290836
0.290982
0.291128
0.291273
0.291417
0.291561
0.291705
0.291848
0.29199
0.292132
0.292274
0.292414
0.292555
0.292695
0.292834
0.292973
0.293111
0.293248
0.293385
0.293522
0.293658
0.293794
0.293935
0.294093
0.322286
0.322361
0.322421
0.322477
0.322533
0.322588
0.322643
0.322697
0.322751
0.322805
0.322858
0.32291
0.322963
0.323015
0.323066
0.323117
0.323168
0.323218
0.323268
0.323318
0.323367
0.323416
0.323464
0.323512
0.32356
0.323607
0.323654
0.323701
0.323747
0.323793
0.323838
0.323883
0.323928
0.323973
0.324017
0.324061
0.324104
0.324147
0.32419
0.324233
0.324275
0.324317
0.324358
0.324399
0.32444
0.324481
0.324521
0.324561
0.324601
0.32464
0.324679
0.324718
0.324757
0.324795
0.324833
0.32487
0.324908
0.324945
0.324981
0.325018
0.325054
0.32509
0.325126
0.325161
0.325196
0.325231
0.325266
0.3253
0.325334
0.325368
0.325402
0.325435
0.325468
0.325501
0.325533
0.325566
0.325598
0.32563
0.325661
0.325693
0.325724
0.325755
0.325786
0.325816
0.325846
0.325876
0.325906
0.325936
0.325965
0.325994
0.326023
0.326052
0.32608
0.326108
0.326137
0.326164
0.326192
0.32622
0.326247
0.326274
0.326301
0.326327
0.326354
0.32638
0.326406
0.326432
0.326458
0.326483
0.326509
0.326534
0.326559
0.326583
0.326608
0.326632
0.326657
0.326681
0.326704
0.326728
0.326752
0.326775
0.326798
0.326821
0.326844
0.326869
0.326896
0.329471
0.329482
0.32949
0.329498
0.329506
0.329514