/*--------------------------------*- C++ -*----------------------------------*\
| =========                 |                                                 |
| \\      /  F ield         | OpenFOAM: The Open Source CFD Toolbox           |
|  \\    /   O peration     | Version:  2112                                  |
|   \\  /    A nd           | Website:  www.openfoam.com                      |
|    \\/     M anipulation  |                                                 |
\*---------------------------------------------------------------------------*/
FoamFile
{
    version     2.0;
    format      ascii;
    arch        "LSB;label=32;scalar=64";
    class       volScalarField;
    location    "0.00295";
    object      nut;
}
// * * * * * * * * * * * * * * * * * * * * * * * * * * * * * * * * * * * * * //

dimensions      [0 2 -1 0 0 0 0];

internalField   nonuniform List<scalar> 
13875
(
0.0511665
0.0366245
0.0343755
0.034321
0.0342614
0.0343249
0.0343241
0.0343091
0.0342868
0.0342874
0.0342832
0.0342843
0.0343553
0.0343446
0.0342765
0.0342825
0.034299
0.0342863
0.0343203
0.0343361
0.0342794
0.0343309
0.0343851
0.0365577
0.0514342
0.0532612
0.0341195
0.0322322
0.0320992
0.0320213
0.0320627
0.0320564
0.0320435
0.032038
0.0320472
0.0320428
0.0320392
0.0320987
0.0320905
0.0320315
0.03204
0.0320596
0.0320244
0.0320546
0.0320749
0.0320329
0.0320985
0.0322315
0.0340482
0.0536494
0.0564566
0.033562
0.0318128
0.0315842
0.0315146
0.0315536
0.0315427
0.0315213
0.031464
0.0314719
0.0314731
0.0314728
0.0315873
0.0315822
0.0314757
0.0314654
0.0314862
0.0314609
0.0315344
0.0315676
0.0315241
0.0315744
0.0317973
0.0334946
0.0566049
0.0590712
0.0332332
0.0314991
0.0312672
0.0312084
0.0312429
0.0312285
0.0312044
0.0311235
0.0311298
0.0311387
0.0311466
0.0312674
0.0312654
0.0311535
0.031124
0.0311454
0.0311381
0.0312217
0.031256
0.0312159
0.0312564
0.0314874
0.0331736
0.0591502
0.0611278
0.0330047
0.0312558
0.0309927
0.0309322
0.0309617
0.0309455
0.030918
0.030835
0.0308387
0.0308528
0.0308598
0.0309807
0.030981
0.030868
0.0308329
0.0308556
0.0308568
0.030939
0.0309743
0.0309386
0.0309832
0.0312332
0.0329249
0.0612591
0.0628232
0.0328498
0.0310996
0.0307612
0.0307002
0.0307188
0.0306969
0.0306629
0.0305749
0.0305751
0.030595
0.0306035
0.0307202
0.0307264
0.0306106
0.0305691
0.0305937
0.0306078
0.0306901
0.0307325
0.0307071
0.0307559
0.0310621
0.032828
0.0629697
0.0648356
0.0330764
0.0311148
0.0306243
0.0305206
0.0305171
0.0304823
0.0304381
0.0303462
0.0303408
0.0303661
0.0303782
0.0304872
0.0304983
0.030381
0.0303354
0.0303611
0.030393
0.0304779
0.0305294
0.0305288
0.0306304
0.0311194
0.0330774
0.064866
0.0671182
0.0339495
0.0314423
0.0306505
0.0304492
0.0303899
0.0303257
0.030262
0.0301635
0.0301458
0.0301737
0.030188
0.0302922
0.0303111
0.030191
0.0301395
0.0301702
0.0302232
0.030319
0.0303977
0.0304498
0.0306414
0.031401
0.0339028
0.0673688
0.073694
0.0363161
0.0320677
0.0308627
0.0304682
0.0303454
0.0302424
0.0301512
0.0300447
0.0300127
0.0300379
0.0300575
0.0301575
0.0301847
0.0300633
0.0300052
0.0300452
0.030117
0.0302332
0.030349
0.0304697
0.0308249
0.0319574
0.0360269
0.0742375
0.0829892
0.038554
0.0327871
0.0312034
0.0306765
0.0304242
0.0302672
0.0301434
0.0300376
0.0299989
0.030014
0.0300372
0.0301331
0.0301663
0.0300552
0.0299952
0.0300357
0.0301164
0.0302511
0.0304161
0.0306612
0.0311658
0.0326781
0.0381646
0.0835798
0.0908886
0.0442731
0.034776
0.0321929
0.0311284
0.0307277
0.0304933
0.0303317
0.0302245
0.0301812
0.0301831
0.0302014
0.0302918
0.0303274
0.0302401
0.0301896
0.030227
0.0303081
0.0304691
0.0306907
0.0311062
0.0321149
0.0345532
0.0434345
0.0895143
0.0950185
0.0551883
0.0410428
0.0339767
0.0325107
0.0315924
0.0311416
0.0309165
0.0307827
0.0307268
0.0307171
0.0307198
0.0307939
0.0308356
0.0307781
0.0307561
0.0308043
0.0309116
0.0311301
0.0315689
0.0324372
0.0337668
0.0405104
0.0539326
0.0943347
0.0865572
0.0670042
0.0553929
0.0430516
0.0357006
0.0334109
0.0328022
0.0324751
0.0323605
0.0322952
0.0322813
0.0322723
0.0323258
0.0323732
0.0323455
0.0323535
0.0324231
0.0325288
0.0328386
0.0335871
0.0361874
0.0431438
0.0538162
0.0666752
0.0866976
0.0795242
0.0652211
0.0606585
0.0721364
0.045766
0.0410213
0.0388667
0.0370938
0.0365629
0.0363411
0.0362869
0.0362559
0.0363432
0.0363797
0.0364028
0.0364693
0.0367495
0.0373875
0.0393242
0.0420289
0.0478902
0.0703008
0.0597352
0.0656054
0.0819019
0.0756598
0.0644967
0.0592341
0.0663855
0.0588881
0.0549057
0.0558327
0.0505454
0.0486532
0.0480682
0.0479252
0.0478947
0.0477577
0.0479078
0.0480357
0.0480999
0.0486975
0.0509147
0.0569067
0.0554387
0.0590302
0.0661326
0.0586979
0.0646939
0.0755258
0.0683518
0.06376
0.0604431
0.0672032
0.0665922
0.0766514
0.0751119
0.0659832
0.0683794
0.0698813
0.0704097
0.070754
0.0704699
0.0706492
0.0705315
0.0699114
0.0676814
0.0651853
0.073766
0.0781202
0.0671562
0.0676282
0.0596557
0.0635889
0.0681532
0.0660324
0.065008
0.0640634
0.0718645
0.0726612
0.0837061
0.0741991
0.0627023
0.064713
0.0646827
0.0656279
0.0655475
0.0656307
0.0655185
0.0658507
0.0649117
0.0641267
0.0620624
0.0717462
0.0863234
0.0729924
0.072144
0.0642652
0.0648057
0.066239
0.06226
0.0687739
0.0697008
0.0703395
0.0694644
0.0788564
0.0724345
0.0628461
0.0632457
0.0629336
0.0631485
0.0627305
0.0628553
0.0627376
0.063358
0.0630318
0.0625793
0.0624957
0.0716863
0.0800239
0.0692576
0.070881
0.070239
0.0688365
0.0622447
0.0557848
0.0708604
0.0718457
0.0684908
0.0653313
0.0710086
0.0714392
0.0659334
0.0636969
0.0621245
0.0612547
0.0604308
0.060371
0.0603084
0.0612002
0.06172
0.0627206
0.0652321
0.0714371
0.0719333
0.0651557
0.068829
0.0718302
0.0715367
0.0566977
0.0529422
0.0714846
0.068958
0.0659717
0.0628828
0.0661225
0.0693023
0.0673932
0.0644943
0.0617971
0.0598851
0.0585016
0.0581899
0.0583958
0.0597711
0.0613945
0.0638859
0.0671789
0.0694999
0.06659
0.0630318
0.0664016
0.0690886
0.070604
0.0523038
0.0621489
0.0675381
0.0652232
0.0629863
0.0605469
0.0631524
0.0670764
0.0667685
0.0640323
0.0609068
0.0583351
0.0564532
0.055949
0.0564492
0.0583475
0.0607463
0.06381
0.066818
0.0672904
0.0635389
0.0609165
0.0635075
0.0649421
0.0662584
0.0607949
0.0785607
0.0703279
0.0630145
0.0608182
0.0586977
0.0610811
0.0649211
0.0652724
0.0628104
0.0594959
0.0565243
0.054318
0.0536505
0.0543396
0.0565756
0.0594167
0.0626794
0.0653155
0.0651159
0.0615443
0.0591289
0.0613034
0.0624053
0.0691504
0.0785059
0.0926614
0.0759826
0.0617327
0.0586829
0.0569647
0.0591804
0.0628002
0.0633814
0.0611059
0.0577475
0.0545619
0.052164
0.0513824
0.0521175
0.0545215
0.0575846
0.0608746
0.0633122
0.0629241
0.0596163
0.0573226
0.0590184
0.0609074
0.0750155
0.0937879
0.101957
0.077415
0.0601272
0.0567844
0.0553375
0.0571775
0.0606486
0.0613388
0.0590177
0.0556162
0.0524027
0.0499817
0.0492065
0.0499909
0.0524477
0.0555583
0.0588351
0.0612752
0.0607317
0.0575194
0.0557864
0.0572391
0.0595802
0.0763684
0.10146
0.107793
0.0780663
0.0587952
0.0553023
0.0539119
0.0553942
0.0586038
0.0592258
0.0569283
0.0535591
0.0503319
0.0479334
0.0471904
0.0479701
0.0504193
0.0535679
0.0567935
0.0591458
0.0586516
0.0556672
0.0543275
0.0557846
0.058505
0.0776288
0.107274
0.114283
0.0788586
0.0580735
0.0542508
0.0527249
0.0539073
0.0566874
0.0570792
0.0548162
0.0515527
0.0484049
0.0460538
0.0453193
0.0460804
0.0484459
0.0515081
0.054589
0.056864
0.0566334
0.0541355
0.0530484
0.0546312
0.0578535
0.0783882
0.114332
0.12121
0.0794946
0.0575217
0.0534383
0.0517994
0.0526436
0.0548127
0.0548652
0.0526517
0.0495405
0.0465206
0.0443076
0.0436181
0.0443647
0.0466589
0.0496358
0.0525858
0.0547648
0.054808
0.0528526
0.0520848
0.0538856
0.0575929
0.0799271
0.119992
0.127012
0.0806995
0.0573913
0.0527651
0.0511317
0.0515993
0.0531283
0.0528358
0.0506609
0.047711
0.0448486
0.0427411
0.0420691
0.042793
0.0449677
0.0477777
0.0505553
0.052672
0.0530552
0.0517866
0.0513984
0.0531789
0.0574466
0.0806879
0.12682
0.134359
0.0813994
0.057276
0.0521368
0.0505581
0.0507213
0.0515965
0.0509868
0.0488516
0.0460407
0.043319
0.0413171
0.0406599
0.0413474
0.0433627
0.0460043
0.0486342
0.0506938
0.0514023
0.0508471
0.0507934
0.0525015
0.0573022
0.0804523
0.133782
0.141481
0.0816276
0.0572163
0.051554
0.0499452
0.0498863
0.0501216
0.0491445
0.0470067
0.0443693
0.0418512
0.0400023
0.0393801
0.0400633
0.0419855
0.0444628
0.0469475
0.0490003
0.0499965
0.0500102
0.0501798
0.0519401
0.0573874
0.0813507
0.140056
0.144891
0.0820818
0.0575119
0.051216
0.0493168
0.0490435
0.0488204
0.0476015
0.045466
0.0429379
0.0405576
0.0388164
0.0382172
0.0388747
0.0406463
0.04297
0.0453504
0.0474008
0.0486447
0.04911
0.0494871
0.0515612
0.057531
0.081715
0.145324
0.148403
0.0830826
0.0579444
0.0512035
0.0487085
0.0482109
0.0476643
0.0462135
0.044069
0.0416383
0.0394027
0.0377501
0.0371608
0.037798
0.0394474
0.0416116
0.0438921
0.045945
0.0474152
0.0482052
0.0488446
0.0514403
0.0578836
0.0822817
0.148303
0.152274
0.0831962
0.0587433
0.0513509
0.0482042
0.0473329
0.0465012
0.0448908
0.0427598
0.0404147
0.0382932
0.0367563
0.0361989
0.0368271
0.0383797
0.0404424
0.0426624
0.0446943
0.0462971
0.0473135
0.0483136
0.051526
0.0585731
0.0833713
0.151567
0.154973
0.0835347
0.0596851
0.0518324
0.0478625
0.0465549
0.0454517
0.0437384
0.0415965
0.0393366
0.0373389
0.035876
0.0353253
0.0359373
0.0373938
0.039326
0.0414685
0.0435105
0.0452056
0.0464981
0.0479352
0.0518715
0.0597817
0.0838522
0.154948
0.157722
0.0845071
0.0600529
0.0524805
0.0477748
0.0458559
0.0444636
0.0426883
0.0405823
0.038396
0.0364591
0.0350692
0.0345336
0.0351255
0.0364922
0.0383564
0.040431
0.0424384
0.0441771
0.045762
0.0478295
0.0525749
0.060692
0.0844006
0.157125
0.160516
0.0844109
0.059906
0.0531453
0.0479238
0.0452922
0.0435567
0.0416578
0.0395704
0.0374692
0.0356474
0.0343351
0.0338163
0.0344097
0.0357272
0.0374947
0.0394942
0.0414851
0.0433005
0.0452081
0.0479751
0.0534503
0.0608489
0.0856343
0.159306
0.162228
0.0847676
0.0598338
0.054372
0.0483001
0.0449672
0.042775
0.0407544
0.0387011
0.0366803
0.0349211
0.0336664
0.0331625
0.0337447
0.0349823
0.0366955
0.0386157
0.0405764
0.0424961
0.0448469
0.0483077
0.0546922
0.0605872
0.0855136
0.16165
0.164221
0.0854162
0.0597735
0.0552803
0.0490174
0.0448608
0.0421909
0.0399733
0.0378935
0.0359295
0.0342656
0.0330645
0.0325699
0.0331463
0.0343201
0.0359359
0.0378036
0.039808
0.0419374
0.0447406
0.0490822
0.0556123
0.0602478
0.0855151
0.163442
0.166335
0.0853628
0.0591101
0.0552736
0.0498605
0.0449202
0.0418138
0.0392907
0.0371479
0.0352341
0.0336355
0.0324937
0.0320241
0.0325982
0.0337204
0.0352902
0.0371195
0.0391899
0.041627
0.0448308
0.0500969
0.0558521
0.0596996
0.0859123
0.165434
0.167728
0.0857845
0.0583758
0.0551783
0.0514461
0.0453322
0.0416621
0.038824
0.0365199
0.0346171
0.0330841
0.0319869
0.0315223
0.0320876
0.0331591
0.0346627
0.0364841
0.0387359
0.0414787
0.0451822
0.0517027
0.0556985
0.0587499
0.0859458
0.16725
0.169152
0.0869686
0.0579552
0.0548326
0.0525536
0.0461417
0.0416987
0.0385723
0.0360438
0.0340916
0.0325768
0.0315126
0.0310584
0.0316051
0.0326408
0.034122
0.0359996
0.0384821
0.0415352
0.0461018
0.0528528
0.0553051
0.0579691
0.0864901
0.168395
0.170487
0.0875596
0.0573075
0.0541621
0.0525744
0.0474599
0.0419351
0.0384171
0.0357085
0.033638
0.0321118
0.0310762
0.0306308
0.03118
0.0321931
0.0336917
0.0356905
0.0383747
0.0419603
0.0477693
0.0527983
0.0547032
0.0578374
0.08798
0.169694
0.171192
0.0885569
0.05707
0.0534428
0.05222
0.0490873
0.0427035
0.038453
0.0355733
0.0332906
0.0317177
0.0306759
0.0302352
0.0307805
0.031786
0.0333448
0.0355284
0.0383805
0.0428758
0.0492991
0.0523465
0.0539178
0.0573312
0.0885837
0.170785
0.171943
0.0902743
0.0574456
0.0528739
0.0516388
0.049669
0.0441984
0.0387673
0.0355035
0.0330933
0.0314291
0.0303402
0.0298836
0.0304394
0.0314936
0.0331482
0.0354444
0.0387139
0.0447236
0.0498071
0.0516359
0.053249
0.0572942
0.089592
0.171461
0.17291
0.0908008
0.0573423
0.0523106
0.0508968
0.0494438
0.0464131
0.0395743
0.0355696
0.0330343
0.0312829
0.0300927
0.0296059
0.0301959
0.0313458
0.0330942
0.035537
0.039842
0.0466721
0.0495219
0.0508544
0.0527517
0.0578188
0.0911532
0.172167
0.173314
0.0919066
0.057899
0.0519489
0.0502229
0.0490807
0.0476766
0.0417471
0.0359419
0.0330407
0.0312504
0.0299882
0.0294308
0.0300846
0.0312936
0.0330743
0.0359072
0.0418369
0.0472929
0.0490435
0.050176
0.0522992
0.0580757
0.0918615
0.172984
0.173644
0.0933592
0.0587324
0.0518239
0.0497323
0.0485914
0.0475004
0.0439804
0.0372592
0.0331777
0.0312329
0.029958
0.0293466
0.030045
0.0312745
0.033186
0.037156
0.0439639
0.047128
0.0484577
0.049668
0.0520706
0.0585544
0.0927823
0.173251
0.173345
0.0937009
0.0590878
0.0517279
0.0493243
0.0480597
0.04714
0.0448635
0.03953
0.0337259
0.0312705
0.0299475
0.0293268
0.0300315
0.0313391
0.033856
0.0396007
0.0448124
0.0468132
0.0479413
0.049305
0.052071
0.0594174
0.0940463
0.172611
0.171708
0.0938176
0.0595045
0.0517106
0.0490475
0.0476174
0.0466195
0.0448247
0.0417152
0.0352041
0.03153
0.0299757
0.0293406
0.0300511
0.0316203
0.0353525
0.0415212
0.0447416
0.0463494
0.0475065
0.049061
0.0520369
0.0597704
0.0940191
0.171013
0.165513
0.0926983
0.0598716
0.0516609
0.0488324
0.0472558
0.0460959
0.0445776
0.0425262
0.0377056
0.0324543
0.030166
0.0294625
0.0302219
0.032573
0.0377149
0.0420566
0.0444513
0.0458768
0.0471711
0.0488538
0.0519336
0.05994
0.092545
0.164973
0.110534
0.262562
0.323114
0.339192
0.342831
0.34478
0.34688
0.349813
0.35353
0.357964
0.363171
0.368987
0.375234
0.381627
0.387885
0.393747
0.399103
0.403698
0.406581
0.403631
0.374411
0.343679
0.335046
0.333299
0.332829
0.332649
0.332384
0.3306
0.312884
0.145908
0.0917046
0.2595
0.324772
0.342353
0.346197
0.348361
0.350872
0.354398
0.358774
0.363847
0.369514
0.375695
0.382346
0.389314
0.3965
0.403835
0.411228
0.418651
0.425831
0.432649
0.432472
0.386153
0.341167
0.330717
0.328997
0.328544
0.327862
0.322844
0.287724
0.117153
0.0912543
0.264512
0.326046
0.341939
0.345161
0.347661
0.350721
0.355079
0.360244
0.365996
0.372069
0.378507
0.385372
0.392496
0.400035
0.407998
0.416008
0.423752
0.431308
0.438244
0.444207
0.437767
0.377572
0.336994
0.328918
0.327564
0.32637
0.319156
0.275712
0.105706
0.0924574
0.266132
0.3253
0.340271
0.343557
0.346565
0.350212
0.355373
0.361455
0.368101
0.374777
0.381636
0.388901
0.39637
0.403994
0.411682
0.419729
0.427968
0.435594
0.442609
0.448658
0.453041
0.43897
0.366744
0.332061
0.326212
0.324266
0.316062
0.270193
0.101753
0.0920793
0.266314
0.325272
0.340114
0.343724
0.347425
0.351853
0.357894
0.364782
0.372148
0.379315
0.386382
0.393957
0.401691
0.409441
0.417119
0.424655
0.432222
0.440173
0.447374
0.453228
0.458668
0.461629
0.43509
0.355792
0.328207
0.32326
0.314342
0.267927
0.100102
0.091963
0.267937
0.326033
0.340526
0.344729
0.349252
0.354717
0.361756
0.369524
0.377593
0.385247
0.392344
0.399976
0.40779
0.415589
0.423062
0.430368
0.437553
0.444763
0.451984
0.458485
0.463978
0.469454
0.469886
0.424328
0.345916
0.32479
0.31386
0.266963
0.0990213
0.0924651
0.27032
0.327827
0.342169
0.347132
0.352609
0.359166
0.367187
0.375799
0.384494
0.392567
0.399845
0.40679
0.414256
0.422068
0.429261
0.43626
0.443007
0.449684
0.45665
0.46362
0.469765
0.475378
0.480877
0.476589
0.40655
0.336602
0.314813
0.266534
0.0981077
0.0933136
0.273435
0.330345
0.344879
0.35085
0.357557
0.365416
0.374383
0.383663
0.392701
0.400889
0.408036
0.414234
0.420895
0.428273
0.435368
0.44209
0.44862
0.455032
0.461586
0.468518
0.475357
0.481371
0.487333
0.49245
0.479077
0.384066
0.321669
0.26678
0.0973202
0.0941499
0.276708
0.333289
0.348434
0.355923
0.36412
0.373266
0.382955
0.392507
0.401528
0.409417
0.416045
0.421639
0.427394
0.433969
0.441083
0.44765
0.454072
0.460382
0.46666
0.473323
0.480398
0.487251
0.493422
0.499718
0.503055
0.471414
0.354044
0.269995
0.0967427
0.0948158
0.279962
0.336593
0.352808
0.362314
0.372074
0.382212
0.392316
0.401453
0.409561
0.416621
0.422703
0.427936
0.43298
0.438786
0.445558
0.452273
0.458671
0.465036
0.471309
0.477851
0.484935
0.492405
0.499422
0.505914
0.512139
0.510524
0.439568
0.288367
0.0967143
0.0954241
0.283588
0.340446
0.357678
0.368354
0.378752
0.389098
0.3992
0.407787
0.415122
0.42144
0.426918
0.431813
0.436198
0.441521
0.447792
0.454907
0.46144
0.468077
0.47469
0.481493
0.48872
0.496579
0.504593
0.511851
0.518561
0.523425
0.505074
0.353077
0.0988691
0.0959433
0.287858
0.344927
0.362471
0.373122
0.38304
0.392666
0.402034
0.410126
0.416806
0.422323
0.426918
0.431357
0.43539
0.440717
0.446852
0.454293
0.461399
0.468579
0.475898
0.483379
0.491129
0.499423
0.508175
0.516746
0.524203
0.530173
0.527623
0.445864
0.109181
0.0966917
0.2932
0.349777
0.366261
0.375108
0.38312
0.391195
0.39925
0.406556
0.412661
0.417576
0.421791
0.426231
0.430579
0.435137
0.441821
0.44964
0.457821
0.465847
0.47418
0.482654
0.49136
0.500395
0.509826
0.519513
0.528466
0.535165
0.536932
0.495627
0.138563
0.0974212
0.299268
0.353852
0.366947
0.371762
0.376836
0.382523
0.388876
0.395161
0.400812
0.405199
0.409666
0.414627
0.419669
0.424446
0.4318
0.440316
0.450013
0.459249
0.468941
0.478712
0.488753
0.498901
0.509258
0.519928
0.530268
0.538263
0.543586
0.521569
0.169453
0.0987692
0.30567
0.355084
0.361706
0.360815
0.361967
0.364661
0.369256
0.374505
0.37963
0.384293
0.389457
0.395466
0.40159
0.407978
0.41594
0.425659
0.437048
0.448063
0.459509
0.470999
0.482724
0.494328
0.505966
0.517773
0.529085
0.539272
0.551768
0.554953
0.201909
0.100061
0.310244
0.350392
0.347819
0.340272
0.337265
0.337052
0.340006
0.344283
0.349342
0.354793
0.361116
0.368536
0.376285
0.38471
0.39383
0.405168
0.418502
0.431753
0.445266
0.458872
0.472527
0.485934
0.499278
0.512549
0.523683
0.539414
0.564767
0.605062
0.214753
0.102393
0.309932
0.335775
0.323481
0.309795
0.303369
0.300929
0.302687
0.306422
0.311821
0.318158
0.325663
0.334761
0.34448
0.354966
0.365548
0.378766
0.394218
0.410076
0.425893
0.441879
0.457647
0.473205
0.488639
0.503786
0.517725
0.539128
0.583774
0.654694
0.219315
0.104378
0.301662
0.310266
0.289879
0.271911
0.263511
0.259894
0.261116
0.264825
0.27042
0.277349
0.28597
0.296446
0.308037
0.320293
0.33244
0.347384
0.364724
0.383296
0.401386
0.419818
0.437949
0.455991
0.473871
0.491367
0.509612
0.53961
0.612359
0.686601
0.220332
0.107354
0.283034
0.27472
0.249646
0.231097
0.223117
0.219795
0.220956
0.224383
0.229604
0.236852
0.246105
0.257475
0.270211
0.283576
0.297033
0.31284
0.331605
0.35227
0.372497
0.393276
0.41398
0.434563
0.454941
0.47447
0.498425
0.540863
0.650648
0.67814
0.218635
0.10948
0.257032
0.236451
0.211015
0.195609
0.189557
0.187681
0.187834
0.190223
0.195297
0.202269
0.210957
0.221581
0.233694
0.246325
0.260598
0.276547
0.2964
0.318424
0.340593
0.363398
0.386464
0.40954
0.432343
0.455093
0.484302
0.544215
0.685857
0.6307
0.215555
0.11306
0.226077
0.201096
0.180759
0.173815
0.170288
0.168013
0.16713
0.168497
0.172174
0.177287
0.183769
0.191859
0.201982
0.213958
0.227894
0.243128
0.262562
0.28494
0.307723
0.331788
0.356548
0.381654
0.406701
0.432793
0.468584
0.551075
0.710902
0.579978
0.212621
0.11692
0.201651
0.181238
0.174214
0.174163
0.171065
0.167192
0.163267
0.161369
0.161678
0.163877
0.166799
0.171889
0.179753
0.189941
0.202098
0.215618
0.233334
0.254323
0.276309
0.300357
0.325839
0.352114
0.378841
0.408072
0.452516
0.561487
0.706984
0.539523
0.210296
0.124992
0.187293
0.186029
0.193366
0.195812
0.189823
0.183823
0.175409
0.167645
0.162803
0.161072
0.160755
0.162514
0.166992
0.174155
0.18342
0.194402
0.209621
0.22827
0.248252
0.271029
0.29599
0.322403
0.349839
0.382109
0.438545
0.576587
0.674455
0.503847
0.207911
0.134838
0.208009
0.214222
0.22437
0.224714
0.219549
0.213443
0.199341
0.184993
0.173621
0.16724
0.163925
0.162185
0.162578
0.165931
0.171596
0.179609
0.191126
0.206611
0.22439
0.245074
0.268499
0.293976
0.321173
0.356276
0.428363
0.58467
0.633768
0.471898
0.206172
0.157314
0.205209
0.217467
0.255322
0.258223
0.250561
0.245809
0.231206
0.211174
0.192376
0.180477
0.174253
0.169694
0.165918
0.16476
0.165735
0.169344
0.176632
0.189171
0.20485
0.223099
0.2444
0.268148
0.295044
0.332375
0.422272
0.582534
0.593292
0.443988
0.204568
0.145908
0.312884
0.330601
0.332384
0.332648
0.332827
0.333289
0.334989
0.343369
0.373509
0.403096
0.406232
0.403386
0.398815
0.39348
0.387642
0.381408
0.375038
0.368812
0.363019
0.357831
0.353416
0.349716
0.346797
0.344705
0.342762
0.33913
0.323068
0.262544
0.110523
0.117152
0.287723
0.322844
0.327861
0.328542
0.328987
0.330659
0.340761
0.384748
0.431778
0.432266
0.425488
0.418335
0.410934
0.403563
0.396248
0.389082
0.382135
0.375505
0.369345
0.3637
0.358649
0.354293
0.350783
0.348282
0.346126
0.342291
0.324736
0.259524
0.0917222
0.105705
0.275711
0.319155
0.326368
0.327556
0.328875
0.336655
0.376166
0.436835
0.443741
0.437844
0.430941
0.423413
0.415693
0.407707
0.399763
0.392241
0.385137
0.37829
0.371873
0.365822
0.360094
0.35495
0.350616
0.347573
0.345083
0.341869
0.325991
0.264497
0.091222
0.101752
0.270193
0.31606
0.32426
0.326181
0.331803
0.365415
0.437642
0.452484
0.448199
0.442185
0.435203
0.427603
0.419388
0.411358
0.403688
0.396083
0.388635
0.381382
0.374512
0.367875
0.361266
0.355227
0.350096
0.346467
0.34347
0.340193
0.325247
0.266154
0.0924735
0.100103
0.267928
0.314339
0.323238
0.328028
0.354666
0.433246
0.460993
0.458185
0.452752
0.446931
0.439764
0.431836
0.424286
0.416769
0.409111
0.401379
0.393668
0.386058
0.379065
0.371938
0.364603
0.357743
0.351729
0.347322
0.343632
0.340028
0.3252
0.266275
0.0920721
0.0990204
0.266958
0.313845
0.324676
0.345009
0.422073
0.469144
0.468964
0.463484
0.458004
0.451537
0.44434
0.437148
0.429982
0.422695
0.415243
0.407458
0.399665
0.392066
0.384998
0.377368
0.36933
0.36159
0.354578
0.349138
0.344632
0.340436
0.325953
0.267874
0.0919019
0.0981075
0.266525
0.314746
0.335947
0.404071
0.475641
0.480401
0.474902
0.469274
0.463162
0.456215
0.449262
0.442602
0.435874
0.428894
0.421724
0.413921
0.406505
0.399599
0.392338
0.38428
0.375611
0.367029
0.359032
0.3525
0.347046
0.342092
0.327773
0.270319
0.0925193
0.0973185
0.26674
0.321265
0.381922
0.477797
0.491997
0.486913
0.480913
0.474911
0.4681
0.461187
0.45465
0.448257
0.441745
0.435037
0.42797
0.420597
0.414035
0.407872
0.400772
0.392528
0.383499
0.374252
0.365314
0.357483
0.350792
0.344831
0.330309
0.273391
0.0932678
0.0967342
0.269784
0.352447
0.469269
0.502565
0.49937
0.493031
0.486839
0.480017
0.472962
0.466318
0.460067
0.453786
0.447389
0.440832
0.433745
0.427173
0.421429
0.415815
0.409179
0.401368
0.392354
0.382849
0.373248
0.364123
0.355942
0.348455
0.333329
0.276752
0.0941538
0.0966821
0.287409
0.436844
0.509966
0.511906
0.505631
0.49909
0.492086
0.484633
0.477567
0.471052
0.464819
0.458492
0.452129
0.445432
0.438676
0.432851
0.42774
0.422491
0.416423
0.409432
0.401245
0.392239
0.382377
0.372265
0.3625
0.35295
0.336715
0.280051
0.0948451
0.0987266
0.35055
0.504203
0.523292
0.518412
0.511629
0.504359
0.496358
0.488508
0.481301
0.474531
0.467964
0.461367
0.454882
0.447793
0.441501
0.435956
0.431592
0.426762
0.421339
0.415219
0.408126
0.399613
0.389481
0.37913
0.368718
0.357999
0.340679
0.283757
0.0954258
0.108635
0.443839
0.527453
0.530146
0.524112
0.516615
0.508047
0.499293
0.491005
0.483281
0.475842
0.468571
0.461428
0.454373
0.446968
0.440566
0.435655
0.43162
0.427274
0.422614
0.417199
0.410684
0.402623
0.393176
0.383476
0.373535
0.362876
0.345284
0.288154
0.0960403
0.137787
0.495092
0.536989
0.535206
0.52846
0.519493
0.509792
0.500352
0.491327
0.482653
0.474221
0.465943
0.457959
0.449821
0.442048
0.43514
0.431067
0.426803
0.422343
0.418037
0.413319
0.407256
0.399888
0.391765
0.383588
0.375544
0.366695
0.350202
0.293555
0.0967835
0.168886
0.521327
0.54371
0.538405
0.530372
0.520006
0.509312
0.498946
0.488814
0.478813
0.469089
0.459461
0.450283
0.440624
0.43219
0.425218
0.420379
0.415359
0.410408
0.405969
0.401586
0.395827
0.389398
0.382976
0.377225
0.372127
0.367381
0.354303
0.299712
0.0975535
0.201714
0.554668
0.551882
0.539502
0.529301
0.517936
0.506109
0.494475
0.482897
0.471223
0.459792
0.448425
0.43749
0.426151
0.416554
0.40895
0.402441
0.396363
0.390296
0.38515
0.380454
0.374994
0.369574
0.364847
0.362158
0.360999
0.361992
0.355481
0.306163
0.0989364
0.214808
0.605007
0.564946
0.539724
0.523995
0.512798
0.499518
0.4862
0.472837
0.459241
0.445703
0.43227
0.419113
0.405845
0.394669
0.385734
0.377172
0.369471
0.361914
0.355667
0.350011
0.344507
0.340017
0.336853
0.337124
0.340155
0.34786
0.350644
0.310742
0.100248
0.219463
0.655238
0.584039
0.539511
0.51811
0.504143
0.488989
0.473607
0.45811
0.4424
0.426476
0.410723
0.394986
0.379607
0.366534
0.356006
0.345346
0.335709
0.326427
0.318766
0.312142
0.306291
0.302364
0.300395
0.30285
0.309368
0.323251
0.336215
0.310437
0.10251
0.220523
0.68797
0.61281
0.540094
0.510087
0.491868
0.474337
0.456516
0.438538
0.420476
0.402095
0.384024
0.365614
0.348308
0.3335
0.321383
0.308874
0.297353
0.286468
0.277693
0.270403
0.264362
0.260566
0.259125
0.262794
0.271287
0.289427
0.310426
0.301963
0.104494
0.218852
0.679695
0.651413
0.541433
0.499046
0.475141
0.455519
0.435172
0.414638
0.394004
0.373287
0.353087
0.332523
0.313763
0.29792
0.284451
0.270809
0.258188
0.246353
0.237033
0.229402
0.223795
0.220308
0.218999
0.222398
0.230275
0.249107
0.274682
0.283084
0.107498
0.215778
0.632035
0.687045
0.545017
0.484946
0.455679
0.433001
0.41021
0.387176
0.36416
0.341417
0.319333
0.297332
0.277517
0.261519
0.247099
0.234087
0.221907
0.21096
0.202346
0.194958
0.189814
0.187282
0.186964
0.189021
0.194946
0.210753
0.236381
0.256862
0.109615
0.212845
0.581097
0.712811
0.552176
0.469249
0.433459
0.407392
0.382358
0.357294
0.332567
0.30855
0.285786
0.263463
0.244117
0.228779
0.214665
0.20235
0.192129
0.183727
0.177214
0.171828
0.168218
0.166928
0.167963
0.170229
0.173548
0.180457
0.200722
0.225844
0.113245
0.210558
0.540442
0.708289
0.562987
0.453312
0.408748
0.379529
0.352828
0.326604
0.301167
0.277112
0.255078
0.234101
0.216459
0.202819
0.190513
0.180129
0.172303
0.167105
0.163945
0.161524
0.161293
0.163381
0.167712
0.171784
0.175146
0.174525
0.18091
0.201514
0.117187
0.208125
0.504509
0.675381
0.578496
0.439559
0.382798
0.350464
0.323121
0.29675
0.271816
0.248981
0.22889
0.210242
0.195052
0.183968
0.174621
0.167409
0.162982
0.161389
0.161503
0.163153
0.168059
0.175815
0.184854
0.190662
0.196842
0.195207
0.187457
0.187579
0.125427
0.20631
0.4723
0.634474
0.586754
0.429706
0.356978
0.321886
0.294676
0.269202
0.245757
0.225002
0.207246
0.191766
0.180007
0.172115
0.166448
0.163185
0.162787
0.164871
0.167855
0.174045
0.185916
0.200517
0.214403
0.220361
0.225736
0.226083
0.216385
0.20948
0.135492
0.204657
0.444222
0.593862
0.584587
0.423959
0.333183
0.295759
0.26879
0.245021
0.223762
0.205465
0.189867
0.177413
0.169743
0.16625
0.165366
0.166741
0.170443
0.175505
0.181193
0.19268
0.211643
0.232035
0.246082
0.250266
0.258892
0.256484
0.21912
0.206624
0.15834
0.0693755
0.0695427
0.0697115
0.0698804
0.0700493
0.0702184
0.0703876
0.0705568
0.0707262
0.0708957
0.0710652
0.0712349
0.0714047
0.0715746
0.0717446
0.0719147
0.0720849
0.0722552
0.0724256
0.0725961
0.0727667
0.0729375
0.0731083
0.0732792
0.0734502
0.0736214
0.0737926
0.0739639
0.0741354
0.0743069
0.0744785
0.0746503
0.0748221
0.0749941
0.0751661
0.0753383
0.0755105
0.0756828
0.0758553
0.0760278
0.0762005
0.0763732
0.076546
0.076719
0.076892
0.0770651
0.0772384
0.0774117
0.0775853
0.077764
0.078043
0.0810241
0.126745
0.245613
0.322065
0.363165
0.371584
0.369191
0.364524
0.359177
0.350833
0.340293
0.330261
0.321325
0.31333
0.30639
0.3005
0.295299
0.290688
0.286717
0.282658
0.278631
0.27436
0.269732
0.264872
0.259896
0.254806
0.249623
0.244513
0.239601
0.234859
0.230359
0.226114
0.222073
0.218199
0.214536
0.211107
0.207884
0.204833
0.201935
0.199195
0.196613
0.194178
0.191791
0.189635
0.187726
0.186049
0.184602
0.183375
0.18237
0.181586
0.180974
0.180498
0.180165
0.179988
0.179959
0.180065
0.180275
0.180575
0.180971
0.181474
0.182116
0.182903
0.183827
0.184906
0.186163
0.187622
0.189287
0.191086
0.192937
0.194876
0.196915
0.199017
0.201095
0.203088
0.23481
0.23509
0.235337
0.235576
0.235812
0.236048
0.236283
0.236517
0.236751
0.236984
0.237217
0.23745
0.237681
0.237912
0.238143
0.238373
0.238603
0.238832
0.239061
0.239289
0.239516
0.239743
0.23997
0.240196
0.240421
0.240646
0.240871
0.241095
0.241318
0.241541
0.241763
0.241985
0.242207
0.242428
0.242648
0.242868
0.243087
0.243306
0.243524
0.243742
0.243959
0.244176
0.244392
0.244608
0.244823
0.245038
0.245252
0.245466
0.245696
0.246074
0.205742
0.114597
0.190282
0.237007
0.25436
0.271588
0.291778
0.313766
0.338645
0.370259
0.403933
0.419477
0.427893
0.432946
0.434426
0.433842
0.431635
0.427736
0.422636
0.416993
0.411077
0.404782
0.398101
0.391105
0.383979
0.376962
0.370011
0.362749
0.355185
0.347682
0.340603
0.333943
0.327728
0.321778
0.316062
0.310678
0.305677
0.300926
0.296449
0.292239
0.288333
0.284752
0.281488
0.278443
0.275458
0.272636
0.270245
0.268347
0.266821
0.265593
0.264564
0.263724
0.263089
0.262736
0.262714
0.263027
0.263679
0.264621
0.265884
0.267502
0.269622
0.27236
0.275846
0.280121
0.285382
0.291831
0.299621
0.308844
0.319601
0.331816
0.345591
0.361132
0.378633
0.398302
0.420077
0.299358
0.299511
0.299645
0.299773
0.299899
0.300024
0.300149
0.300273
0.300396
0.300518
0.30064
0.300761
0.300882
0.301001
0.301121
0.301239
0.301357
0.301474
0.301591
0.301707
0.301822
0.301937
0.302051
0.302165
0.302278
0.30239
0.302502
0.302613
0.302723
0.302833
0.302942
0.303051
0.303159
0.303267
0.303374
0.30348
0.303586
0.303691
0.303796
0.3039
0.304003
0.304106
0.304208
0.30431
0.304411
0.304512
0.304613
0.304729
0.304818
0.227423
0.133944
0.210748
0.240155
0.244721
0.246563
0.25139
0.258518
0.268999
0.284356
0.306597
0.337329
0.374788
0.417516
0.464588
0.515416
0.558824
0.584547
0.600116
0.606179
0.600737
0.585577
0.566232
0.546675
0.527743
0.510709
0.495495
0.481041
0.466771
0.453137
0.440397
0.428664
0.417849
0.407861
0.398541
0.389826
0.381768
0.37434
0.367422
0.361028
0.355201
0.349997
0.345314
0.340939
0.336842
0.333005
0.329419
0.326241
0.323613
0.32129
0.319326
0.317741
0.316448
0.315428
0.314851
0.314778
0.315144
0.315887
0.316898
0.318254
0.320031
0.322406
0.325458
0.329469
0.334912
0.341968
0.350931
0.361909
0.374988
0.390947
0.41106
0.433763
0.459456
0.488277
0.520475
0.556139
0.31802