/*--------------------------------*- C++ -*----------------------------------*\
| =========                 |                                                 |
| \\      /  F ield         | OpenFOAM: The Open Source CFD Toolbox           |
|  \\    /   O peration     | Version:  2112                                  |
|   \\  /    A nd           | Website:  www.openfoam.com                      |
|    \\/     M anipulation  |                                                 |
\*---------------------------------------------------------------------------*/
FoamFile
{
    version     2.0;
    format      ascii;
    arch        "LSB;label=32;scalar=64";
    class       volScalarField;
    location    "0.00465";
    object      T;
}
// * * * * * * * * * * * * * * * * * * * * * * * * * * * * * * * * * * * * * //

dimensions      [0 0 0 1 0 0 0];

internalField   nonuniform List<scalar> 
13875
(
1412.03
1535.59
1482.55
1487.57
1481.03
1483.46
1483.48
1483.26
1484
1484.57
1484.44
1483.58
1483.51
1484.21
1484.01
1483.61
1482.8
1484.59
1482.65
1483.49
1480.99
1487.71
1480.73
1532.77
1397.86
1307.06
1356.2
1319.13
1322.27
1316.55
1317.16
1317.15
1317.88
1322.66
1324.14
1324.19
1322.67
1318.02
1318.02
1318.5
1322.51
1322.19
1322.37
1317.49
1317.1
1315.83
1321.92
1319.67
1356.37
1304.49
1307.27
1340.1
1314.42
1311.57
1303.78
1304.18
1303.64
1303.53
1303.65
1304.79
1304.92
1303.7
1303.82
1304.25
1304.1
1305.43
1302.83
1305.78
1304.08
1304.7
1303.61
1310.84
1311.46
1336.57
1297.49
1317.41
1344.82
1314.84
1308.52
1304.91
1304.65
1303.8
1303.53
1302.81
1303.03
1303.16
1302.94
1303.87
1304.26
1304.21
1303.73
1302.06
1303.97
1303.96
1304.96
1304.21
1307.39
1313.93
1343.65
1311.33
1329.57
1342.15
1315.85
1312.14
1303.3
1303.99
1303.88
1303.74
1303.07
1303.06
1303.21
1303.18
1303.95
1304.37
1304.23
1303.52
1302.18
1304.5
1304.38
1305
1303.41
1311.5
1312.11
1338.35
1315.68
1332.25
1351.16
1318.99
1309.68
1306.7
1305.98
1304.65
1304.07
1303.24
1303.24
1303.4
1303.43
1304.23
1304.67
1304.67
1303.92
1302.43
1304.1
1304.46
1306.35
1306.12
1308.12
1318.88
1349.05
1326.41
1339.02
1360.48
1329.18
1317.21
1306.57
1306.02
1305.15
1304.71
1303.93
1303.75
1303.9
1303.98
1304.84
1305.28
1305.04
1304.1
1303.21
1305.34
1305.68
1306.76
1306.71
1317.24
1325.87
1358.25
1321.83
1359.79
1384.7
1344.16
1321.01
1315.67
1311.39
1307.91
1306.04
1305.07
1304.87
1305.24
1305.17
1306.1
1306.57
1306.4
1305.24
1304.4
1306.11
1307.02
1311.26
1314.58
1320.32
1341.09
1380.91
1350.73
1536.86
1507.9
1387.19
1350.78
1322.06
1315.33
1311.5
1309.44
1307.94
1307.33
1307.51
1307.74
1308.7
1309.15
1308.72
1307.63
1307.28
1309.65
1311.43
1315.3
1321.42
1348.12
1383.93
1507.43
1522.45
1835.23
1574.5
1428.14
1361.58
1341.33
1325.56
1318.06
1314.78
1313.16
1312.47
1312.6
1313.29
1314.05
1314.49
1314.06
1313
1312.76
1315.31
1317.28
1324.53
1337.26
1360.4
1424.91
1565.76
1827.58
2509.26
1803.89
1522.09
1429.92
1358.07
1339.91
1330.87
1326.71
1324.62
1323.75
1323.53
1324.6
1325.21
1325.69
1325.36
1324.66
1324.23
1327.25
1330.53
1338.33
1355.58
1419.03
1511.64
1807.18
2439.89
2814.78
2301.96
1769.09
1482.07
1425.73
1384.9
1362.14
1354.61
1351.5
1350.23
1349.72
1350.63
1350.93
1351.46
1351.43
1351.45
1351.37
1355.35
1361.97
1387
1415.49
1469.53
1732.07
2292.19
2840.43
2792.13
2677.9
2423.53
2270.65
1576.61
1474.85
1451.21
1437.21
1431.89
1429.25
1428.08
1428.45
1428.05
1428.66
1429.35
1430.78
1432.14
1439.17
1453.5
1481.29
1617.37
2316.39
2375.33
2698.6
2780.43
2709.53
2661.65
2802.9
2792.15
2046.04
2001.27
1801.55
1708.77
1688.83
1680.31
1676.06
1674.33
1672.37
1673.36
1675.89
1681.18
1689.18
1712.68
1813.99
2079.61
2027.76
2813.87
2812.15
2698.58
2697.17
2634.96
2705.48
2765.62
2771.32
2774.61
2895.67
2753.58
2864.78
2922.2
2903.93
2897.27
2882.71
2876.89
2878.77
2887.15
2896.11
2905.63
2866.3
2750.32
2949.33
2793.07
2798.47
2797.46
2694.8
2649.45
2507.41
2570
2752.62
2880.74
2926.57
3227.96
3453.95
3642.63
3651.08
3637.85
3632.13
3624.39
3622.49
3622.71
3625.13
3628.71
3639.32
3641.74
3460.99
3260.26
2937.72
2902.99
2760.75
2590.2
2550.05
2409.77
2533.1
2643.37
2760.59
2883.45
3138.4
3302.02
3526.29
3614.53
3627.03
3626.29
3623.38
3623.33
3623.74
3624.75
3624.63
3617.73
3522.18
3337.92
3197.35
2918.32
2799.2
2662.5
2533.65
2416.88
2165.95
2330.91
2655.76
2860.03
2852.47
3072.17
3294.69
3487.07
3552.62
3562.51
3580.22
3590.27
3592.52
3590.15
3575.11
3546.38
3529.54
3454.27
3286.45
3046.16
2874.97
2885.06
2630.99
2317.39
2164.74
2024.25
2134.42
2420.71
2641.19
2707.23
2855.64
3054.87
3282.93
3437.07
3488.12
3503.07
3510.4
3513.9
3510.3
3496.88
3476.2
3429.49
3301.73
3090.32
2872.94
2741.9
2671.34
2415.41
2125.67
2030.96
2173.26
2073.21
2338.09
2454.8
2527.44
2644.97
2812.94
3040.13
3227.96
3331.4
3354.6
3359.48
3360.29
3356.91
3343.27
3320.91
3230.6
3062.59
2837.09
2653.3
2547.41
2430.75
2276.22
2089.04
2170.61
3219.6
2401.21
2169.04
2288.89
2380.79
2498.26
2636.44
2848.93
3051.32
3179.46
3228.79
3235.32
3238.52
3232.7
3221.32
3170.15
3045.94
2856.4
2643.66
2498.68
2389.25
2263.9
2157.93
2418.7
3283.65
3222.99
2204.21
1997.34
2146.47
2244.67
2371.72
2494.09
2693.77
2902.23
3048.09
3106.44
3125.98
3127.3
3123.61
3098.76
3037.09
2892.87
2695.68
2497.49
2369.05
2248.36
2118.03
1997.58
2228.35
3299.92
3187.89
2183.11
1910.87
2027.56
2127.75
2268.15
2376.06
2564.4
2768.13
2917.39
2992.06
3011.63
3018.71
3008.6
2986.51
2910.99
2762.34
2567.53
2377.18
2262.92
2136.32
2006.37
1900.95
2204.48
3292.87
3048.3
2145.57
1903.92
1961.21
2046.42
2165.04
2276.24
2464.79
2661.32
2807.22
2875.65
2906.21
2910.23
2904.18
2869.91
2800.85
2657.53
2466.97
2278.39
2160.55
2050.08
1932.4
1898.48
2150.62
3056.32
2949.43
2113.45
1916.8
1919.24
1982.38
2078.6
2190.88
2376.69
2561.19
2698.4
2773.59
2796.89
2805.52
2793.64
2767.1
2690.13
2552.81
2371.49
2183.67
2077.76
1991.04
1899.99
1915.26
2145.97
3019.68
2928.4
2162.24
1954.56
1893.7
1931.65
2007.55
2120.88
2298.64
2472.68
2604.08
2668.09
2699.38
2702.87
2697.45
2661.49
2595.52
2468.97
2299.96
2121.7
2003.96
1940.03
1871.41
1942.63
2126.27
2929.87
2867.11
2134.17
1961.52
1881.59
1897.46
1954.06
2061.98
2231.29
2390.97
2509.32
2579.13
2598.02
2606.99
2595.3
2571.69
2500.86
2383.72
2228.68
2057.21
1952.82
1910.14
1874.21
1956.52
2128.77
2902.68
2862.6
2155.92
1977.63
1883.27
1874.78
1911.95
2017.05
2175.19
2321.37
2431.38
2484.29
2511.76
2514.43
2509.76
2475.69
2419.22
2313.27
2171.72
2014.82
1903.31
1881.38
1872.18
1955.59
2156.65
2901.21
2879.77
2168.7
1967.59
1875.95
1861.22
1882.51
1972.59
2117.54
2249.83
2344.67
2405.38
2420.38
2429.55
2418.16
2400.31
2339.34
2244.68
2119.15
1973.31
1882.29
1870.46
1877.92
1960.66
2148.81
2864.33
2905.97
2209.05
1977.77
1877.18
1849.81
1858.55
1946.89
2077.98
2193.59
2281.56
2321.62
2345.75
2347.23
2343.69
2313.26
2270.07
2186.71
2076.56
1947.19
1850.05
1854.62
1868.17
1961.25
2192.6
2883.26
2842.72
2214.29
1961.93
1881.85
1833.99
1850.07
1923.26
2037.02
2137.64
2204.73
2254.63
2264.31
2272.87
2262.03
2249.08
2198.74
2127.06
2031.85
1919.51
1845.2
1840.63
1883.07
1973.94
2231.61
2873.56
2839.41
2225.72
1994.14
1890.63
1820.98
1828.31
1901.05
2004.99
2088.23
2153.39
2180.29
2199.95
2200.65
2199.59
2173.65
2144.23
2083.18
2007.44
1905.17
1821.84
1828.94
1892.21
1986.63
2237.31
2850.33
2808.28
2219.71
2004.27
1883.15
1818.87
1823.1
1886.3
1970.72
2044.23
2085.96
2124.72
2128.81
2136.58
2127.47
2119.41
2080.58
2033.18
1965.24
1887.23
1818.49
1828.32
1894.99
2010.82
2232.58
2832.77
2777.36
2207.92
2054.73
1910.69
1822.47
1802.37
1870.87
1946.23
2002.43
2048.7
2061.53
2075.21
2074.33
2075.11
2054.32
2038.58
1996.98
1945.39
1872.06
1793.49
1829.41
1909.9
2049.29
2224.7
2811.14
2768.78
2216.44
2078.16
1905.87
1834.22
1799.24
1857.32
1915.11
1963.6
1986.75
2015.26
2014
2020.36
2013.23
2011.04
1982.49
1954.24
1910.73
1865.1
1795.48
1844.88
1915.4
2089.33
2210.27
2777.47
2744.59
2203.71
2074.68
1941.35
1841.34
1789.84
1840.37
1893.81
1928.44
1959.91
1961.7
1970.85
1968.03
1970.09
1955.08
1951.18
1925.02
1890.23
1841.99
1786.19
1846.03
1953.12
2086.12
2195.98
2767.49
2710.33
2185.94
2070.67
1960.05
1857.83
1803.78
1835.77
1866.69
1895.8
1905.56
1923.54
1918.46
1923.31
1917.28
1920.39
1900.85
1885.44
1861.55
1840.29
1797
1862.34
1980.03
2083.79
2175.73
2737.8
2694.36
2166.6
2067.35
2031.88
1878.37
1808.59
1818.26
1846.11
1861.64
1884.42
1878.85
1883.87
1879.51
1883.65
1873.61
1877.99
1862.35
1839.73
1819.01
1819.39
1874.49
2051.3
2073.49
2155.87
2696.87
2674.22
2154.25
2054.07
2018.51
1893.83
1839.09
1827.4
1825.92
1834.85
1834.76
1846.82
1838.52
1842.91
1838.34
1844.96
1831.16
1825.18
1823.01
1831.71
1842.4
1906.47
2042.13
2060.58
2147.89
2674.28
2642.2
2135.01
2025.91
2022.89
1944.55
1850.59
1829.33
1812.89
1806.94
1821.9
1809.56
1811.37
1806.24
1811.69
1804.49
1815.37
1808.17
1805.15
1815.98
1862.26
1953.73
2041.35
2022.46
2142.67
2646.69
2627.83
2131.03
1994.93
2004.64
2004.04
1891.81
1848.99
1806.85
1789.17
1776.51
1782.29
1772.16
1775.73
1772.13
1781.47
1772.09
1778.88
1804.8
1854.65
1887.82
2030.59
2024.36
1992.37
2127.31
2619.2
2598.94
2121.78
1970.29
1995.12
2011.61
1912.89
1850
1804.55
1770.51
1772.61
1752.17
1751.26
1745.3
1750.88
1747.45
1768.5
1772.19
1799.37
1853.51
1941.16
2027.3
2005.73
1969.1
2127.34
2595.96
2575.77
2111.54
1950.33
1954.16
1993.15
1978.5
1880.33
1819.7
1773.13
1733.23
1729.67
1717.14
1719.72
1716.92
1729.33
1727.39
1758.95
1815.09
1893
2004.27
2006.11
1965.23
1951.9
2120.55
2579.78
2542.06
2107.09
1935.68
1929.84
1982.91
2030.75
1900.89
1822.93
1763.5
1747.24
1708.92
1701.89
1694.35
1701.65
1704.82
1745.8
1765.35
1820.53
1918.55
2047.87
1990.73
1943.14
1935.56
2103.27
2550.07
2525.38
2102.56
1929.02
1895.28
1948.9
2013.18
1962
1843.94
1783.33
1716.41
1696.89
1674.6
1674.57
1674.58
1696.23
1708.93
1773.94
1847.31
2005.48
2024.99
1940.97
1907.48
1932.23
2101.31
2537.15
2492.03
2080.91
1916.96
1882.23
1916.67
2001.01
2051.54
1868.59
1775.85
1749.39
1696.13
1672.05
1659.24
1671.55
1689.46
1750.13
1784.98
1873.83
2051.07
2007.37
1910.04
1893.81
1920.38
2085.37
2507.62
2478.02
2079.29
1917.04
1859.29
1882.41
1972.27
2026.91
1940.71
1817.4
1722.4
1695.05
1657.51
1651.23
1658.14
1692.34
1712.58
1812.66
1955.11
2036.57
1971.34
1873.84
1872.39
1919.15
2074.84
2493.15
2440.49
2058.24
1903.2
1857.69
1860.29
1928.28
2013.49
2033.88
1842.07
1765.41
1699.66
1672.88
1652.18
1673.4
1694.95
1769.59
1872.56
2037.5
2015.89
1928.27
1856.9
1869.52
1904.42
2060.11
2447.36
2406.17
2046.27
1897.66
1840.54
1840.42
1894.91
1991.14
2011.3
1949.44
1753.69
1705.94
1658.95
1654.84
1659.5
1705.3
1743.44
1980.96
2018.48
1995.65
1895.81
1834.97
1851.9
1898.83
2048.06
2415.81
2275.34
1999.56
1872.07
1838.74
1830.7
1856.76
1949.07
1999.58
2000.77
1850.53
1728.11
1683.9
1662.16
1684.28
1726.77
1852.68
2003.95
2005.19
1954.41
1862.12
1831.66
1850.49
1871.04
1998.77
2280.04
282.146
282.726
283.323
283.713
283.989
284.153
284.283
284.249
284.139
284.296
285.541
293.153
330.479
353.276
354.257
352.499
350.036
347.996
346.206
343.98
340.069
335.732
331.847
328.742
326.503
325.125
324.688
325.264
327.916
332.033
283.087
283.775
284.149
284.403
284.551
284.536
284.703
284.747
285.064
286.93
296.512
339.02
358.457
360.638
359.146
355.745
352.651
350.422
348.113
345.5
341.015
335.768
331.009
327.348
324.814
323.115
322.229
322.295
324.391
326.269
283.755
284.734
284.779
284.933
284.963
285.052
285.43
286.27
288.742
299.976
345.837
365.175
366.577
364.05
359.936
356
353.023
350.537
348.115
345.865
341.421
335.755
330.739
326.983
324.305
322.392
321.15
320.912
322.783
323.844
284.704
285.132
285.176
285.31
285.541
286.419
288.386
292.645
306.52
353.246
369.233
371.741
370.194
365.874
360.968
356.581
352.937
350.166
348.05
345.713
341.752
335.699
330.463
326.163
322.906
320.555
318.957
318.337
319.304
319.04
285.178
285.461
285.467
286.078
287.657
291.816
299.875
320.304
357.835
370.631
374.578
374.81
372.034
367.317
361.715
356.201
351.718
348.89
346.687
344.274
340.815
333.84
328.346
323.988
320.701
318.481
316.835
316.092
316.839
316.52
285.526
286.04
286.462
289.066
295.537
309.653
335.226
354.201
367.481
374.167
376.805
376.69
373.575
367.898
360.701
354.629
350.384
347.726
345.207
342.549
339.47
332.296
326.454
321.907
318.484
316.217
314.508
313.818
314.51
314.296
287.545
289.594
291.484
299.83
317.654
343.713
352.664
363.527
370.454
375.155
378.161
378.174
373.736
366.391
359.09
353.505
349.221
346.505
343.918
341.098
338.065
331.638
325.102
320.403
316.874
314.57
313.061
312.564
313.476
313.361
302.213
313.589
316.1
327.425
349.357
356.495
361.581
368.314
372.327
375.807
378.914
378.054
372.06
364.724
357.697
352.077
347.884
345.305
342.771
340.047
337.125
331.46
324.47
319.677
316.058
313.731
312.364
311.901
312.696
312.378
380.067
398.785
384.61
364.186
363.353
364.749
367.552
371.807
374.552
376.476
378.175
376.18
370.509
363.34
356.153
350.379
346.369
344.035
341.705
339.021
336.122
331.548
324.212
319.294
315.601
313.269
311.977
311.515
312.263
311.937
405.313
408.691
393.329
382.267
374.402
373.501
374.458
377.036
378.174
377.752
377.644
375.161
369.59
362.073
354.786
348.771
344.864
342.78
340.655
337.857
335.07
331.597
324.126
319.097
315.361
313.04
311.791
311.348
311.928
311.421
408.323
405.066
398.601
401.086
391.51
387.402
387.545
387.798
386.188
383.052
379.152
374.812
369.272
361.712
354.3
347.711
343.527
341.668
339.58
336.578
334.085
331.451
324.08
318.986
315.221
312.922
311.664
311.223
311.576
310.846
406.35
405.019
408.965
423.576
428.651
419.206
415.094
408.728
402.721
393.468
384.054
375.554
369.698
361.719
354.498
347.405
342.755
340.753
338.51
335.425
333.041
331.044
323.964
318.805
314.998
312.728
311.363
310.868
310.96
309.986
405.049
413.163
434.335
466.334
490.879
489.684
471.515
449.318
431.55
412.292
394.504
379.36
372.064
364.314
355.898
347.645
342.628
340.029
337.543
334.515
331.885
330.354
323.627
318.352
314.529
312.249
310.736
310.186
310.121
309.034
405.128
429.057
487.455
559.233
617.25
625.889
581.933
524.489
481.626
443.517
412.591
387.743
377.023
370.599
358.942
348.852
343.014
339.69
336.795
333.696
330.745
329.373
323
317.687
313.805
311.493
309.925
309.329
309.109
307.818
411.701
461.454
596.443
746.438
868.692
880.083
782.34
657.77
564.441
491.897
440.351
402.114
386.64
379.167
363.236
351.016
343.946
339.656
336.321
332.806
329.671
327.988
321.993
316.805
312.927
310.643
309.145
308.512
308.182
306.732
428.773
529.935
810.404
1108.2
1286.53
1253.21
1097.42
878.542
695.314
563.16
478.309
422.552
399.954
389.015
369.331
354.318
345.538
340.122
336.165
332.039
328.629
326.351
320.65
315.677
311.964
309.807
308.427
307.799
307.365
305.821
459.003
667.113
1192.11
1529.02
1484.59
1382.43
1249.03
1098.6
884.541
656.312
525.229
449.543
416.261
400.84
377.206
358.379
347.468
340.954
336.224
331.519
327.696
324.654
319.184
314.384
310.984
308.987
307.724
307.104
306.505
304.796
505.603
912.358
1568.12
1632.34
1493.25
1369.64
1252.09
1147.72
1012.72
770.672
580.19
480.702
435.763
413.675
386.057
363.418
349.879
342.192
336.334
331.198
326.733
323.046
317.77
313.178
310.055
308.192
307.045
306.42
305.589
303.724
580.069
1250.03
1670.12
1635.39
1434.37
1284.73
1189.66
1123.29
1032.99
865.88
639.921
515.568
457.057
426.415
395.679
369.299
352.878
343.805
336.623
331.105
326.002
321.697
316.531
312.03
309.225
307.492
306.41
305.745
304.656
302.684
690.992
1538.18
1702.99
1631.94
1392.44
1199.82
1088.32
1050.51
1011.26
890.438
696.039
544.047
475.413
439.486
406.067
375.298
356.23
345.865
337.159
331.228
325.487
320.892
315.225
311.166
308.532
306.927
305.855
305.135
303.809
301.808
818.98
1656
1724.23
1635.4
1386.74
1176.99
1018.63
962.938
948.552
884.917
719.743
564.707
490.309
451.519
416.829
380.762
359.92
347.815
337.765
331.714
324.931
320.561
314.155
310.809
308.125
306.645
305.508
304.666
303.157
301.131
947.82
1712.61
1749.24
1669.35
1414.38
1180.11
992.274
897.541
871.992
849.351
719.996
580.013
501.62
461.704
428.601
386.642
363.999
349.781
338.768
332.394
324.771
320.433
313.914
310.755
307.935
306.426
305.194
304.206
302.66
300.555
1142.78
1777.79
1776.85
1722
1485.68
1206.41
986.591
860.377
811.853
800.655
716.313
590.052
511.024
469.027
445.158
393.702
368.212
351.588
339.82
333.27
325.336
320.517
314.02
310.786
307.837
306.263
304.855
303.787
302.182
299.984
1135.49
1801.98
1805.19
1774.65
1561.36
1258.77
997.249
845.153
770.349
748.884
704.431
594.231
515.372
472.71
452.867
402.656
373.577
354.543
341.143
333.367
326.176
320.445
314.033
310.876
307.783
306.229
304.706
303.36
301.688
299.574
1166.28
1859.61
1828.15
1812.43
1631.77
1326.71
1035.82
842.72
750.632
707.379
680.081
594.856
514.144
473.339
456.742
417.734
381.318
357.314
342.171
333.566
326.339
320.933
314.345
311.352
307.993
306.392
304.673
303.005
301.253
299.16
332.26
328.067
325.422
324.905
325.428
326.881
329.197
332.416
336.34
340.712
344.443
346.733
348.684
350.728
353.113
354.942
354.228
333.245
294.401
285.987
284.514
284.29
284.34
284.449
284.298
284.136
283.898
283.539
282.942
282.359
326.551
324.633
322.559
322.559
323.53
325.284
327.899
331.666
336.448
341.591
345.808
348.417
350.941
353.234
356.303
359.677
361.368
359.318
342.772
298.36
287.569
285.374
284.965
284.856
284.738
284.723
284.523
284.248
283.853
283.317
324.159
323.056
321.221
321.531
322.852
324.808
327.576
331.408
336.506
341.909
346.105
348.413
350.92
353.495
356.502
360.374
364.547
367.167
365.979
350.081
302.518
289.709
286.87
285.786
285.328
285.192
285.057
284.795
284.607
283.9
319.428
319.663
318.731
319.422
321.098
323.471
326.815
331.217
336.343
342.113
345.817
348.256
350.45
353.263
356.982
361.391
366.275
370.667
372.228
369.968
357.145
311.35
294.594
289.488
287.054
285.883
285.5
285.2
285.149
284.645
316.953
317.26
316.563
317.355
319.06
321.314
324.679
329.094
334.621
340.935
344.234
346.722
349.024
351.889
356.444
362.044
367.719
372.483
375.187
374.883
370.979
359.163
326.071
302.995
293.555
288.424
286.432
285.598
285.53
285.209
314.733
314.955
314.313
315.081
316.848
319.16
322.67
327.251
333.035
339.438
342.527
345.231
347.714
350.468
354.823
360.907
368.21
374.012
377.029
376.933
373.921
367.308
354.309
339.277
314.83
297.752
290.092
286.956
286.379
285.765
313.797
313.926
313.055
313.634
315.206
317.548
321.163
325.919
332.314
338.031
341.146
343.975
346.455
349.233
353.661
359.309
366.648
374.072
378.391
378.112
374.768
370.31
363.468
353.526
345.342
322.726
302.892
294.003
291.876
288.853
312.831
313.155
312.399
312.946
314.345
316.711
320.416
325.229
332.08
337.043
340.051
342.791
345.199
347.813
352.129
357.864
365.03
372.369
378.058
378.672
375.474
372.357
368.28
361.697
357.885
351.77
333.189
333.833
332.169
311.078
312.403
312.757
312.03
312.555
313.866
316.236
319.985
324.899
332.022
335.985
338.992
341.652
343.868
346.221
350.336
356.271
363.612
370.848
376.073
377.759
376.257
374.729
371.922
367.813
365.711
365.237
369.453
390.2
404.599
390.651
311.914
312.444
311.873
312.365
313.628
315.975
319.74
324.749
331.915
334.87
337.818
340.551
342.554
344.652
348.714
354.923
362.399
369.859
375.057
377.506
378.045
378.796
377.631
375.4
374.833
376.867
387.853
394.338
408.309
405.798
311.35
312.105
311.754
312.24
313.504
315.805
319.582
324.652
331.625
333.828
336.493
339.437
341.399
343.255
347.645
354.471
362.103
369.471
374.715
379.565
384.137
387.71
389.501
389.956
390.905
398.414
404.208
399.313
404.361
407.525
310.451
311.462
311.391
311.928
313.301
315.544
319.328
324.463
331.082
332.809
335.226
338.334
340.484
342.48
347.314
354.717
362.141
369.74
375.713
385.328
395.571
405.574
412.523
420.742
427.353
436.841
427.99
410.911
405.141
405.37
309.459
310.586
310.68
311.269
312.806
315.036
318.812
324.048
330.248
331.7
334.248
337.346
339.83
342.369
347.568
356.194
365.119
371.754
380.136
396.987
416.023
436.889
457.494
483.53
506.284
504.469
475.507
438.934
413.865
404.327
308.227
309.539
309.786
310.408
312.016
314.279
318.071
323.333
329.135
330.608
333.44
336.6
339.487
342.736
348.827
359.326
371.632
377.254
389.327
416.764
449.672
491.511
540.171
604.933
654.844
643.536
576.401
496.898
431.585
405.536
307.09
308.569
308.924
309.575
311.11
313.371
317.134
322.232
327.688
329.534
332.675
336.116
339.501
343.636
351.032
363.734
380.399
387.457
404.313
446.603
501.953
582.22
685.684
824.597
931.755
917.42
779.887
616.884
467.094
413.377
306.125
307.704
308.168
308.808
310.222
312.378
315.973
320.831
326.105
328.568
331.964
335.984
339.906
345.272
354.478
369.873
390.481
401.204
426.287
487.277
578.927
725.173
923.039
1146
1293.72
1336.02
1165.32
847.528
543.854
432.455
305.077
306.802
307.439
308.06
309.353
311.35
314.654
319.281
324.51
327.681
331.511
336.117
340.714
347.222
358.673
377.717
402.561
418.168
454.672
537.772
680.39
926.228
1126.99
1270.06
1394.42
1492.73
1552.91
1247.61
693.54
464.431
303.949
305.831
306.715
307.329
308.502
310.366
313.403
317.862
322.962
326.744
331.202
336.292
341.993
349.614
364.169
386.479
415.715
439.111
487.625
597.25
805.002
1038.57
1164.56
1264.57
1373.29
1493.22
1634.06
1588.59
956.464
514.311
302.866
304.845
305.981
306.624
307.719
309.465
312.25
316.646
321.78
326.045
331.047
336.648
343.674
352.75
370.294
396.045
427.892
459.272
522.278
660.64
892.22
1048.52
1131.22
1192.4
1285.12
1433.93
1634.8
1674.06
1296.77
592.295
301.946
303.949
305.3
305.992
307.044
308.688
311.323
315.427
321.073
325.526
331.151
337.252
345.752
356.31
376.672
406.695
439.593
477.518
549.833
713.258
907.377
1017.37
1050.57
1090.19
1209.93
1400.68
1633.3
1704.86
1560.8
707.367
301.23
303.248
304.757
305.574
306.7
308.212
310.912
314.34
320.719
325.037
331.679
337.969
347.761
360.038
382.49
418.001
450.951
492.321
570.866
731.76
895.415
947.967
962.779
1027.49
1192.74
1398.61
1639.95
1726.78
1666.33
834.594
300.593
302.671
304.262
305.28
306.487
308.013
310.805
314.019
320.619
324.918
332.495
338.99
349.945
364.133
388.316
430.757
460.916
503.753
586.792
729.319
853.321
870.801
900.249
1003.47
1196.94
1430.94
1678.8
1753.62
1718.76
959.176
300.057
302.232
303.834
304.944
306.335
307.934
310.795
314.089
320.771
325.456
333.386
340.047
351.922
368.433
395.272
446.609
469.105
514.326
596.033
721.501
799.841
811.611
864.921
999.136
1227.05
1502.86
1732.73
1782.89
1783.24
1156.13
299.582
301.738
303.417
304.779
306.294
307.907
310.811
314.05
320.857
326.256
333.599
341.256
354.84
374.162
404.452
452.087
471.298
517.436
600.55
705.936
747.482
771.989
851.377
1011.35
1284.52
1578.47
1782.91
1810.66
1807.18
1148.93
299.142
301.26
303.039
304.746
306.436
308.188
311.183
314.415
321.447
326.546
333.667
342.546
357.937
382.578
421.798
455.22
472.323
515.599
600.457
681.891
709.283
754.788
850.149
1051.75
1354.6
1653.04
1822.49
1834.27
1860.59
1177.17
916.618
902.782
896.664
890.664
891.225
885.372
879.468
876.584
873.699
871.648
870.244
868.696
866.12
863.234
860.03
855.399
850.893
847.701
845.854
844.028
840.782
836.635
832.97
829.173
823.814
817.96
812.227
805.605
798.838
793.365
787.091
780.587
773.34
766.144
759.192
751.96
744.358
736.658
728.879
720.81
711.695
701.66
690.993
679.513
667.661
655.002
640.943
629.981
620.328
611.158
601.977
593.662
586.654
579.766
573.193
567.541
562.273
557.179
552.439
547.971
543.969
540.306
537.049
534.029
531.602
529.497
527.474
525.363
522.951
520.413
517.843
515.379
513
510.722
508.6
506.639
504.588
502.4
499.54
496.111
491.071
483.638
475.382
466.704
457.697
448.349
438.759
429.153
419.79
410.838
402.352
394.345
386.847
379.928
373.644
367.992
362.927
358.362
354.215
350.4
346.853
343.516
340.349
337.299
334.39
331.551
328.693
325.873
323.066
320.24
317.452
314.816
312.339
310.081
307.922
305.936
304.136
302.688
301.884
300.622
299.651
299.13
298.75
298.729
298.839
888.743
885.5
879.714
878.425
873.409
871.799
870.044
869.434
868.537
868.332
866.602
864.714
862.921
860.78
857.88
854.66
852.31
850.793
850.124
849.329
847.328
844.915
843.647
842.54
840.499
838.496
836.431
834.485
833.751
833.854
835.584
838.868
842.582
848.167
856.361
866.745
876.743
880.513
880.404
875.354
863.645
846.785
827.656
805.845
781.595
753.44
725.888
698.572
673.246
650.735
632.281
617.494
606.243
596.124
587.308
579.681
573.013
566.943
561.31
556.12
551.701
548.112
544.846
541.864
539.609
538.004
536.729
535.694
534.658
533.558
532.171
530.595
528.779
526.923
525.253
525.025
524.36
523.395
521.492
518.526
514.462
508.873
502.778
496.226
489.075
480.863
471.452
460.831
448.814
435.305
421.082
409.078
398.711
389.16
380.763
373.576
367.476
362.149
357.451
353.21
349.301
345.651
342.226
338.961
335.878
332.897
329.934
327.032
324.156
321.303
318.5
315.852
313.396
311.161
309.008
307.144
305.461
304.171
303.455
302.338
301.545
301.131
300.824
300.814
300.932
894.065
896.703
894.085
891.235
893.948
897.5
896.186
893.316
891.757
889.291
886.221
883.603
881.199
876.905
873.495
871.341
870.105
869.094
868.459
868.043
867.613
867.462
867.762
868.89
871.366
875.87
882.24
891.416
906.18
929.904
963.551
1004.89
1051.27
1103.48
1158.22
1211.6
1257.42
1293.88
1310
1309.12
1292.33
1258.6
1215.11
1167.21
1113.83
1048.83
977.53
905.535
834.491
770.886
719.14
681.24
653.376
632.164
615.907
604.057
594.31
585.753
578.881
573.338
568.238
563.958
560.662
558.226
556.916
556.801
557.658
558.995
559.382
558.565
557.298
554.639
551.549
548.744
545.976
542.642
538.177
533.906
529.985
525.491
521.129
516.327
511.195
505.855
500.472
495.06
489.659
484.325
478.919
473.191
466.068
455.042
439.79
421.312
404.345
392.273
382.084
373.643
366.792
361.086
356.09
351.552
347.374
343.462
339.81
336.354
333.012
329.824
326.735
323.812
321.05
318.511
316.023
313.818
311.697
309.843
307.878
306.43
305.649
304.483
303.63
303.147
302.771
302.758
302.851
885.267
892.97
900.3
902.199
906.863
907.414
906.88
906.671
905.004
901.169
898.013
896.893
895.949
893.796
892.044
891.554
891.586
891.798
892.273
893.565
896.013
900.038
906.263
916.291
932.145
956.09
990.926
1039.32
1105
1196.96
1324.64
1474.13
1609.33
1718.94
1797.65
1842
1860.57
1862.91
1848.96
1829.78
1804.23
1768.45
1728.12
1682.27
1628.61
1566.83
1492.76
1403.03
1289.08
1164.49
1026.35
889.93
788.452
720.462
675.673
646.374
626.134
612.274
602.324
595.375
590.786
588.72
587.659
587.23
586.971
587.392
587.933
589.033
589.723
588.456
585.633
582.139
575.682
569.931
564.014
558.1
551.802
546.344
541.176
536.299
531.676
526.863
521.967
517.053
512.167
507.231
502.183
497.097
492.082
487.06
482.002
477.206
472.59
466.809
455.765
437.718
416.683
398.51
386.346
376.253
368.251
361.673
355.995
351.004
346.629
342.66
338.902
335.333
331.877
328.436
325.256
322.445
319.841
317.553
315.212
313.266
311.253
309.793
308.841
307.531
306.618
305.897
305.308
304.946
304.838
872.681
892.5
901.173
905.012
908.245
907.223
906.964
909.637
911.964
913.289
914.597
916.219
916.678
917.729
919.781
922.882
926.679
930.906
935.369
940.737
948.241
961.162
982.659
1015.5
1064.55
1141.05
1257.49
1421.28
1613.14
1795.5
1950.12
2042.43
2074.18
2078.07
2069.41
2053.58
2035.95
2016.2
1993.22
1966.24
1937.84
1907.79
1878.49
1848.08
1816.41
1782.25
1743.94
1697.52
1641.9
1562.16
1459.07
1320.98
1155.06
978.38
835.253
745.741
692.799
660.538
640.152
628.888
623.171
621.957
625.697
628.768
631.717
634.286
631.422
628.132
623.633
619.227
614.819
609.643
603.238
596.426
589.527
582.437
575.402
568.515
561.687
555.028
548.589
542.362
536.339
530.425
524.649
518.982
513.418
508.074
502.891
497.923
493.012
488.038
483.185
478.444
473.932
469.813
464.515
454.002
431.539
408.93
391.627
379.561
370.196
362.741
356.313
350.646
345.558
341.067
337.067
333.404
330.174
327.089
324.27
321.488
319.102
317.26
315.051
313.012
311.668
310.236
309.071
308.177
307.493
307.017
306.693
866.404
895.283
903.604
907.622
911.105
910.31
914.202
919.909
927.135
934.334
940.702
944.529
948.455
952.817
957.838
962.718
968.905
975.492
985.653
1001.17
1025.36
1062.51
1124.59
1224.88
1376.88
1590.89
1836.32
2052.69
2143.27
2160.95
2157.01
2143.28
2127.03
2108.19
2086.86
2062.98
2044.98
2023.96
2005.74
1988.14
1965.93
1940
1913.84
1889.04
1864.33
1841.05
1818.9
1794.46
1771.77
1740.6
1695.28
1625.23
1518.91
1371.22
1178.52
991.143
850.261
766.365
715.405
687.852
676.228
674.832
677.099
677.942
672.91
666.576
657.749
650.928
645.041
640.978
637.631
632.989
627.384
621.089
614.506
608.088
601.85
595.275
588.106
580.907
573.761
566.58
559.366
552.028
544.603
537.176
529.892
522.917
516.215
509.745
503.407
497.395
491.839
486.879
482.349
478.271
474.816
471.533
468.275
462.982
449.805
422.504
399.748
383.969
372.358
363.613
356.367
350.31
344.983
340.263
336.128
332.405
329.382
326.404
323.737
321.344
318.862
316.943
315.18
313.652
312.396
311.404
310.487
309.59
308.769
865.157
895.281
902.523
909.161
914.748
916.475
925.539
935.66
946.492
956.604
968.628
979.6
991.534
1003.24
1015.28
1027.07
1041.2
1058.45
1081.66
1117.82
1178.56
1283.42
1451.83
1691.91
1984.2
2166.48
2211.56
2213.68
2203.85
2189.13
2172.32
2156
2138.66
2117.44
2099.02
2085.72
2064.71
2040.62
2017.63
1998.22
1981.44
1965.9
1946.08
1922.79
1898.43
1875.75
1856.06
1839.96
1827.29
1809.97
1791.32
1762.37
1720.05
1648.01
1523.42
1352.46
1170.69
1000.32
882.005
817.594
783.222
753.907
733.348
721.266
709.01
698.22
689.617
681.724
675.92
673.344
672.266
668.079
661.39
654.032
647.06
639.932
632.547
624.787
616.555
608.216
599.917
591.902
584.265
576.725
568.986
560.943
552.693
544.43
536.106
527.893
519.861
512.237
505.015
498.269
492.268
487.018
482.344
478.066
474.082
470.915
467.71
464.445
458.875
438.071
408.702
389.923
376.127
365.792
357.57
350.795
345.215
340.237
335.834
331.905
328.287
325.941
323.786
321.701
319.845
318.16
316.282
314.528
313.271
312.464
311.87
868.084
893.951
898.191
909.54
917.355
921.307
934.818
948.304
962.063
974.426
995.101
1018.17
1041.78
1067.73
1096.58
1132.05
1167.68
1208.63
1265.2
1355.18
1492.7
1695.48
1967.94
2181.79
2241.49
2240.93
2234.24
2226.07
2213.12
2199.62
2189.4
2178.39
2160.04
2142.01
2136.46
2131.41
2121.26
2103.68
2078.7
2050.96
2027.7
2008.11
1990.27
1971.53
1950.07
1926.83
1905.08
1887.35
1874.28
1859.56
1847.62
1836.8
1823.45
1798.16
1744.68
1638.47
1498.83
1337.95
1199.76
1086.64
971.169
875.877
826.347
798.882
777.213
765.13
753.32
743.935
740.225