/*--------------------------------*- C++ -*----------------------------------*\
| =========                 |                                                 |
| \\      /  F ield         | OpenFOAM: The Open Source CFD Toolbox           |
|  \\    /   O peration     | Version:  2112                                  |
|   \\  /    A nd           | Website:  www.openfoam.com                      |
|    \\/     M anipulation  |                                                 |
\*---------------------------------------------------------------------------*/
FoamFile
{
    version     2.0;
    format      ascii;
    arch        "LSB;label=32;scalar=64";
    class       volScalarField;
    location    "0.00383";
    object      alphat;
}
// * * * * * * * * * * * * * * * * * * * * * * * * * * * * * * * * * * * * * //

dimensions      [1 -1 -1 0 0 0 0];

internalField   nonuniform List<scalar> 
13875
(
0.119858
0.0816043
0.0784615
0.0782751
0.0782674
0.0783687
0.0783846
0.0783598
0.0782972
0.0782825
0.0782902
0.0782792
0.0783871
0.0784333
0.0783991
0.0782878
0.078229
0.0782811
0.0783446
0.0783759
0.0782873
0.0782597
0.0784852
0.0814871
0.120935
0.103939
0.0576798
0.0570942
0.0571597
0.0566647
0.0565701
0.0565702
0.056684
0.0570549
0.0571056
0.0570855
0.0570617
0.0566696
0.0566326
0.0566746
0.0570742
0.0570484
0.0570135
0.0566733
0.0565817
0.056635
0.0571352
0.0570737
0.0573892
0.104505
0.110621
0.0553286
0.0558863
0.0547056
0.0544559
0.0543156
0.0542518
0.0542735
0.0542846
0.0542591
0.0541836
0.0542814
0.054271
0.0543001
0.0542549
0.0543373
0.0540289
0.0542944
0.0543124
0.0543723
0.0544479
0.0545705
0.0557804
0.0550726
0.111104
0.115889
0.0546468
0.0553899
0.0542879
0.053902
0.0537761
0.053714
0.0537303
0.0535722
0.0535039
0.0534948
0.0535747
0.0537308
0.0537628
0.053712
0.0535756
0.0533763
0.0535759
0.0537683
0.0538386
0.0539134
0.0541712
0.0551958
0.0542781
0.115813
0.121037
0.0546375
0.0551295
0.0537245
0.0535612
0.0533634
0.0532543
0.0532463
0.0530844
0.0530112
0.0530087
0.053088
0.0532532
0.0532873
0.0532365
0.05309
0.0528978
0.0531028
0.0533045
0.0534029
0.0535372
0.0535812
0.0550132
0.0543172
0.121455
0.124417
0.0547464
0.0551924
0.053574
0.0531681
0.0529585
0.0528586
0.0528238
0.0526564
0.052587
0.0525779
0.05266
0.0528456
0.0528819
0.0528232
0.0526453
0.0524899
0.0526526
0.0528884
0.0530196
0.0531661
0.0534736
0.0548853
0.0543918
0.124157
0.128762
0.056478
0.0557897
0.0534302
0.0531651
0.0528028
0.0526021
0.0525082
0.0523042
0.0522289
0.0522313
0.0523196
0.052519
0.0525636
0.052498
0.052285
0.0521732
0.0523419
0.0526298
0.0528553
0.0531463
0.0533469
0.0556349
0.0563532
0.129044
0.135733
0.0612037
0.0578477
0.0543956
0.0533264
0.0527758
0.0524727
0.0523247
0.0520827
0.0519988
0.0520133
0.0520747
0.0523253
0.0523843
0.0523026
0.0520345
0.0519906
0.0521353
0.0524943
0.0528243
0.053316
0.0542787
0.0575311
0.0610406
0.135632
0.151413
0.0692843
0.0615909
0.0559652
0.0544328
0.0533659
0.0527415
0.0524198
0.0520855
0.0519961
0.0520184
0.0520451
0.052358
0.0524472
0.0523434
0.0520122
0.0520452
0.0522214
0.0527142
0.0533558
0.0543451
0.0557368
0.0610284
0.0683865
0.15419
0.239437
0.0874595
0.0665583
0.0590913
0.0557093
0.0542429
0.0533873
0.0528835
0.0525272
0.0524416
0.0524602
0.0524572
0.0528235
0.0529528
0.05283
0.0524704
0.0525385
0.0527337
0.0532894
0.0541921
0.0557143
0.0588322
0.0661589
0.0868322
0.241328
0.365698
0.118758
0.0764517
0.0629356
0.0587095
0.0561891
0.0549232
0.054177
0.053798
0.0537155
0.0537078
0.0536778
0.0540631
0.0542396
0.0541395
0.0538124
0.0538574
0.0540771
0.0547093
0.0559725
0.0584286
0.0625991
0.0751057
0.112884
0.365393
0.659185
0.194657
0.105135
0.0765191
0.0647714
0.060284
0.0583562
0.0573034
0.0568613
0.0567248
0.0566694
0.0566377
0.0569939
0.0572173
0.0571751
0.0569773
0.0570139
0.0573109
0.0581549
0.0598112
0.0646318
0.075514
0.103006
0.185676
0.645268
0.583757
0.424855
0.187089
0.0972958
0.0825598
0.0715731
0.0669518
0.0651957
0.0643731
0.0640357
0.0639097
0.0639053
0.0641981
0.0644413
0.0644862
0.0645218
0.0647653
0.0654685
0.0670161
0.0714685
0.0821258
0.0943226
0.17709
0.421766
0.58124
0.500082
0.401144
0.363305
0.376856
0.138359
0.0971287
0.0905088
0.087446
0.0859916
0.0852782
0.0850689
0.0851081
0.0853864
0.0856231
0.0858283
0.0861959
0.0870407
0.0887397
0.0919631
0.100767
0.155797
0.376999
0.356188
0.401159
0.505791
0.411583
0.356637
0.34928
0.384541
0.320358
0.219068
0.188364
0.152131
0.135907
0.132816
0.130625
0.130838
0.130395
0.131062
0.131665
0.133743
0.137014
0.152021
0.191643
0.227627
0.318324
0.381484
0.344054
0.367953
0.430664
0.354367
0.325869
0.326581
0.392933
0.485395
0.550217
0.528474
0.495181
0.523268
0.537375
0.546433
0.543016
0.546682
0.54887
0.548517
0.542844
0.522794
0.492933
0.524296
0.557604
0.489134
0.399495
0.331357
0.33278
0.366544
0.277095
0.288595
0.35084
0.438092
0.518512
0.591758
0.536998
0.477956
0.4649
0.462961
0.466494
0.464731
0.466427
0.468198
0.469619
0.466593
0.466835
0.477368
0.512953
0.589858
0.532768
0.44365
0.350286
0.292486
0.292137
0.214422
0.280248
0.367503
0.408984
0.452563
0.497935
0.446994
0.407726
0.397322
0.393844
0.395454
0.392883
0.394708
0.395943
0.397502
0.394551
0.398109
0.408846
0.438744
0.492278
0.463167
0.428526
0.375842
0.263525
0.195257
0.10401
0.201854
0.345924
0.360068
0.368912
0.39703
0.380311
0.362132
0.358207
0.354982
0.353018
0.35088
0.352196
0.353122
0.354259
0.354052
0.356948
0.359948
0.373373
0.393723
0.373437
0.370065
0.355468
0.205405
0.103003
0.0444787
0.145966
0.26878
0.287289
0.290656
0.320087
0.337902
0.335762
0.331404
0.32381
0.317702
0.313233
0.313973
0.315527
0.319283
0.323587
0.330613
0.334248
0.334768
0.319814
0.295887
0.296126
0.275907
0.146963
0.0434559
0.0446625
0.114598
0.182682
0.210344
0.228276
0.264317
0.2953
0.303261
0.301232
0.291817
0.282838
0.277443
0.277311
0.280029
0.285095
0.2928
0.301497
0.303097
0.293496
0.263397
0.230245
0.213552
0.181662
0.108602
0.0417315
0.0922837
0.125971
0.132964
0.165633
0.185082
0.225727
0.256639
0.26824
0.267847
0.258943
0.249625
0.242931
0.242505
0.245185
0.25165
0.26006
0.268237
0.26779
0.255236
0.225083
0.18528
0.166989
0.13116
0.124299
0.0928871
0.148981
0.138327
0.121081
0.135145
0.155645
0.195377
0.222792
0.235029
0.236537
0.227986
0.218259
0.212122
0.210944
0.213726
0.219423
0.228141
0.235622
0.233409
0.220371
0.195239
0.154921
0.13535
0.121111
0.137698
0.150901
0.176487
0.145659
0.117436
0.120229
0.136761
0.168281
0.191766
0.204658
0.205998
0.198351
0.189921
0.183799
0.183167
0.185307
0.191114
0.198457
0.204737
0.202221
0.188311
0.167359
0.137448
0.121027
0.11764
0.146404
0.173135
0.193257
0.154287
0.115832
0.11214
0.123839
0.146255
0.166138
0.177693
0.179622
0.172715
0.164809
0.160145
0.159115
0.16154
0.166107
0.173056
0.178851
0.176009
0.163134
0.144346
0.123932
0.112787
0.116479
0.155302
0.18759
0.206663
0.164738
0.117053
0.108523
0.113888
0.129174
0.145112
0.15475
0.155877
0.150492
0.144053
0.139006
0.138574
0.140126
0.144767
0.150428
0.154446
0.151976
0.141955
0.127477
0.114087
0.109057
0.117658
0.166793
0.205546
0.225832
0.181506
0.11849
0.10752
0.107102
0.116229
0.128272
0.134874
0.136009
0.131341
0.125429
0.121869
0.120986
0.122887
0.126168
0.131526
0.135032
0.13285
0.125459
0.113886
0.106393
0.107725
0.119337
0.187286
0.2217
0.245274
0.19738
0.119756
0.105598
0.101887
0.106054
0.113618
0.117966
0.118207
0.114781
0.110335
0.10658
0.106246
0.107373
0.110958
0.115123
0.117702
0.116348
0.11164
0.104738
0.101322
0.105797
0.120729
0.198971
0.244903
0.276122
0.206236
0.122184
0.103732
0.0985084
0.0987696
0.102799
0.104619
0.104648
0.101361
0.0969337
0.0944485
0.0936366
0.0950511
0.0973444
0.101179
0.103627
0.102814
0.100395
0.0969645
0.0976672
0.103465
0.121775
0.205518
0.283186
0.325023
0.212891
0.122794
0.100942
0.0944405
0.0930476
0.0929963
0.0928876
0.0918587
0.0891482
0.0861191
0.0833525
0.0830484
0.0838505
0.0865615
0.0894275
0.0914386
0.0915079
0.0911776
0.0915415
0.0934073
0.101035
0.124525
0.215586
0.318233
0.343818
0.222048
0.127109
0.0985505
0.0908225
0.0873615
0.0853188
0.0836197
0.0822661
0.0796938
0.0763755
0.0746571
0.0739492
0.0751593
0.0767627
0.079727
0.0820188
0.0829348
0.0840982
0.0862612
0.0899795
0.0984806
0.126921
0.224566
0.344888
0.352157
0.228811
0.130845
0.0979073
0.0872695
0.0827725
0.0787666
0.0760412
0.0738223
0.0710654
0.068779
0.0665898
0.0663172
0.0670307
0.0690587
0.0711468
0.073302
0.0749834
0.0774265
0.0815092
0.0861068
0.0975431
0.130654
0.229766
0.356421
0.363264
0.23014
0.137655
0.0988783
0.0840492
0.0777142
0.0732723
0.0694793
0.0671267
0.0645744
0.0617326
0.0603708
0.0597261
0.0607992
0.0620088
0.064595
0.0670357
0.069035
0.0719827
0.0766046
0.0829674
0.098008
0.137143
0.234033
0.364793
0.368516
0.232617
0.14908
0.0995854
0.0815686
0.073643
0.067931
0.0638212
0.0611176
0.0582431
0.0562944
0.0544743
0.0541696
0.0548213
0.0565633
0.0583886
0.0609085
0.0633125
0.0672432
0.072729
0.0804485
0.0988901
0.146897
0.233715
0.373774
0.367525
0.234398
0.156572
0.104014
0.0805124
0.0699349
0.0634657
0.0592524
0.0564268
0.0538958
0.0512622
0.0500403
0.0493887
0.0503298
0.051451
0.0538975
0.0564112
0.0588312
0.0624421
0.0690953
0.0792938
0.102229
0.159674
0.234985
0.375984
0.371321
0.232625
0.156359
0.106561
0.0805137
0.0671542
0.0593526
0.0548725
0.0521077
0.0492013
0.0472922
0.0457068
0.0453461
0.0459317
0.0475622
0.0493559
0.0519426
0.0546567
0.0588218
0.066281
0.0796349
0.106964
0.160603
0.234755
0.371287
0.371104
0.229621
0.15601
0.114312
0.0814927
0.0650073
0.0559541
0.0513812
0.0484539
0.0461145
0.0436443
0.0424981
0.0418471
0.042715
0.0438522
0.0462106
0.0486072
0.0511656
0.0553003
0.0644937
0.0803206
0.114516
0.159171
0.230313
0.371117
0.369082
0.224692
0.154943
0.124647
0.0841369
0.0646073
0.0536575
0.0481804
0.0452799
0.0424832
0.0406926
0.0392117
0.0388499
0.0394427
0.0409538
0.0426193
0.0451051
0.0481592
0.0532183
0.0636636
0.0830848
0.126091
0.156763
0.223517
0.369967
0.369777
0.218763
0.15035
0.125838
0.0878088
0.0642284
0.0519653
0.0459582
0.0425342
0.0402372
0.0379263
0.0368465
0.0362481
0.0371074
0.0381464
0.0403292
0.0427219
0.045638
0.0515613
0.0639422
0.0879367
0.12759
0.152047
0.219487
0.367046
0.368828
0.215928
0.143019
0.125079
0.094602
0.0655497
0.0516515
0.0440144
0.0402243
0.0373205
0.0356735
0.0343198
0.0339873
0.0345523
0.0359372
0.0375005
0.0401564
0.0440835
0.0514158
0.0648396
0.0956415
0.12706
0.143223
0.215112
0.367852
0.363465
0.21355
0.136202
0.124289
0.10613
0.0679583
0.0514283
0.0433133
0.0384784
0.035892
0.0335975
0.0326043
0.0320085
0.0327827
0.0337721
0.0359467
0.0386881
0.0430286
0.051041
0.0677599
0.108034
0.125275
0.135582
0.21425
0.364736
0.362402
0.211843
0.130299
0.120044
0.10582
0.072577
0.052225
0.0430197
0.0372927
0.0336735
0.0318983
0.0306178
0.0302894
0.0307783
0.0321383
0.0337844
0.0372639
0.0430423
0.052509
0.0734357
0.108087
0.121608
0.131239
0.213788
0.359825
0.354735
0.211271
0.126378
0.114385
0.105354
0.0806568
0.0536768
0.0431676
0.0367987
0.033169
0.0304109
0.0293623
0.0287599
0.0295154
0.0305468
0.0332005
0.0369184
0.0429372
0.0545133
0.0823534
0.106898
0.115279
0.126609
0.211502
0.355516
0.347517
0.211369
0.124967
0.108668
0.102723
0.0874537
0.0580229
0.0439076
0.0368365
0.031636
0.0293144
0.0278323
0.0274503
0.0279772
0.0295015
0.0317026
0.0367819
0.0437542
0.0598624
0.0884553
0.103096
0.109279
0.124506
0.211321
0.350368
0.341638
0.207788
0.122511
0.104687
0.0987116
0.0874548
0.0642819
0.045625
0.0367952
0.0322436
0.0286926
0.0271369
0.0263761
0.0272644
0.0287874
0.0323241
0.0370472
0.045961
0.0682677
0.0882381
0.0979808
0.105173
0.12376
0.209067
0.340855
0.336093
0.207077
0.122773
0.10069
0.0930024
0.0860926
0.0741771
0.0498174
0.0376197
0.0316289
0.0286428
0.0263588
0.025696
0.0264939
0.0287012
0.0316719
0.0379966
0.0504624
0.0739383
0.0864064
0.0924493
0.101344
0.123355
0.206446
0.337803
0.326522
0.203382
0.122628
0.0993798
0.0895075
0.0837741
0.0744961
0.0568019
0.0397127
0.0326598
0.02863
0.0265415
0.0253699
0.0266789
0.0286386
0.0326901
0.0404426
0.0571921
0.0738503
0.0829192
0.0888503
0.0993408
0.122707
0.203152
0.328707
0.320383
0.200361
0.122157
0.0974218
0.0859937
0.0797499
0.0735684
0.064264
0.0441718
0.032931
0.0287466
0.0262837
0.025362
0.026432
0.0288751
0.0331353
0.0458083
0.0647061
0.0730963
0.0791531
0.0857315
0.0982053
0.123273
0.200666
0.320846
0.30011
0.19282
0.120294
0.0970778
0.0843488
0.0765359
0.0714345
0.0645365
0.0507893
0.0362805
0.0292499
0.0266862
0.0254572
0.0268199
0.0294283
0.0368087
0.0536026
0.0647798
0.0709809
0.0761683
0.0843767
0.0975208
0.121294
0.192355
0.298774
0.273699
0.182793
0.118121
0.094984
0.0824869
0.0739905
0.0683113
0.0636587
0.0566343
0.0402706
0.0309179
0.026807
0.0257896
0.0269113
0.0312312
0.0407621
0.0569595
0.0639525
0.0680932
0.073808
0.0827884
0.095872
0.118372
0.181819
0.273766
0.0833312
0.220986
0.2919
0.314543
0.321029
0.324658
0.328048
0.333908
0.339661
0.345959
0.351905
0.357535
0.363249
0.369235
0.375201
0.380906
0.386281
0.390721
0.397096
0.406271
0.415367
0.424158
0.441978
0.481116
0.635238
1.01965
1.1237
1.06652
0.871324
0.26362
0.0754194
0.230403
0.300299
0.320789
0.325998
0.329177
0.332877
0.339153
0.345518
0.352952
0.360197
0.36709
0.373424
0.379427
0.385074
0.389793
0.393627
0.397669
0.40193
0.406905
0.416062
0.431751
0.45945
0.567456
0.945836
1.08803
1.11472
1.06244
0.880706
0.259207
0.0781983
0.242432
0.306509
0.324318
0.328879
0.332337
0.336962
0.343978
0.351424
0.36001
0.368194
0.375808
0.382673
0.388384
0.39303
0.396434
0.398811
0.401336
0.403291
0.40743
0.41776
0.437992
0.500186
0.8007
1.06106
1.10164
1.10393
1.04462
0.858767
0.259153
0.0805236
0.24951
0.309198
0.32627
0.331387
0.335757
0.341563
0.34967
0.358316
0.368635
0.377954
0.38611
0.392846
0.397158
0.400367
0.40276
0.404005
0.405333
0.40605
0.410034
0.422103
0.458759
0.633159
1.01339
1.1023
1.11446
1.09603
1.02169
0.83608
0.259664
0.0809438
0.252577
0.31121
0.328512
0.334828
0.340602
0.347715
0.356874
0.367423
0.37697
0.386249
0.394429
0.400971
0.4061
0.407998
0.409337
0.410063
0.410337
0.410406
0.414522
0.432817
0.526621
0.918676
1.08806
1.12173
1.12504
1.08939
1.00572
0.814476
0.261427
0.0817836
0.255661
0.314168
0.331731
0.339544
0.346912
0.355307
0.365858
0.375485
0.384662
0.393833
0.401746
0.407912
0.412912
0.415268
0.415489
0.415724
0.41503
0.415465
0.422005
0.46921
0.738388
1.04703
1.11422
1.13308
1.12169
1.08119
0.99046
0.790959
0.26266
0.0829017
0.25899
0.317667
0.335928
0.345258
0.35402
0.363675
0.373565
0.382749
0.391578
0.400506
0.408088
0.413934
0.418684
0.421014
0.420963
0.41943
0.419557
0.421624
0.441844
0.577427
0.97211
1.09373
1.12589
1.13029
1.10857
1.0682
0.970338
0.761831
0.2623
0.0840816
0.262903
0.321799
0.340962
0.351607
0.361113
0.370761
0.38017
0.389054
0.397525
0.405819
0.412884
0.418271
0.422631
0.425021
0.424223
0.422913
0.423613
0.431712
0.493781
0.835569
1.05814
1.10602
1.12118
1.1156
1.09146
1.04729
0.942416
0.725651
0.260573
0.0851855
0.267274
0.326547
0.346427
0.357677
0.367322
0.37661
0.385364
0.393519
0.40041
0.407833
0.414575
0.419782
0.42375
0.426722
0.425681
0.425354
0.428638
0.456004
0.638034
0.993164
1.07893
1.10243
1.10466
1.09137
1.06769
1.01905
0.907512
0.686895
0.257272
0.0862481
0.272167
0.331727
0.351839
0.362868
0.372106
0.380503
0.387715
0.394349
0.400324
0.406291
0.412622
0.417814
0.422172
0.425533
0.425249
0.426962
0.437597
0.513602
0.875498
1.04099
1.073
1.08005
1.07794
1.06126
1.03582
0.983653
0.867715
0.647925
0.252832
0.0873268
0.27767
0.337223
0.356838
0.366676
0.374559
0.381126
0.386716
0.391671
0.396403
0.400966
0.406705
0.412083
0.416703
0.42055
0.422113
0.42631
0.458345
0.655168
0.970694
1.03617
1.04738
1.04785
1.03925
1.0246
0.997306
0.942432
0.824225
0.609187
0.247522
0.0883988
0.28412
0.342757
0.360512
0.36797
0.373469
0.37678
0.380218
0.383396
0.386939
0.390357
0.395568
0.401067
0.405989
0.410113
0.414176
0.427194
0.505191
0.846051
1.00487
1.01118
1.00778
1.0046
0.993108
0.98056
0.952864
0.896566
0.778156
0.571611
0.241762
0.0896168
0.291721
0.347767
0.361416
0.364757
0.366911
0.366861
0.367126
0.368413
0.370629
0.373276
0.377942
0.383204
0.387815
0.393064
0.401896
0.436509
0.638325
0.952141
0.992806
0.973343
0.960482
0.951079
0.942186
0.930381
0.903533
0.847128
0.730814
0.535186
0.235745
0.0912586
0.299734
0.35064
0.357323
0.354998
0.352934
0.349807
0.347508
0.346049
0.346824
0.348745
0.35253
0.357021
0.362599
0.371627
0.389745
0.476608
0.831239
0.969194
0.94785
0.920734
0.903519
0.892514
0.887647
0.876342
0.851175
0.795753
0.68328
0.499996
0.2293
0.0935173
0.306639
0.348567
0.346096
0.33698
0.329843
0.323519
0.31868
0.315561
0.315266
0.316629
0.320251
0.325769
0.333591
0.346704
0.390064
0.626576
0.892803
0.931035
0.884847
0.858254
0.839451
0.833402
0.830633
0.820555
0.797089
0.743465
0.636537
0.466425
0.222538
0.0961509
0.309939
0.33915
0.326343
0.310082
0.298356
0.288923
0.282468
0.2786
0.278497
0.280255
0.284527
0.291152
0.301472
0.32723
0.450122
0.766864
0.860144
0.858367
0.815844
0.788422
0.774501
0.773263
0.771498
0.764194
0.742985
0.69176
0.591193
0.434807
0.215634
0.0992043
0.306905
0.320414
0.297771
0.275732
0.26038
0.248681
0.241839
0.238661
0.239757
0.24241
0.248192
0.257375
0.275484
0.341815
0.610008
0.735232
0.78126
0.774392
0.74251
0.715993
0.711285
0.712332
0.712625
0.708244
0.689731
0.641558
0.547904
0.405318
0.208617
0.10223
0.295177
0.292235
0.261431
0.235639
0.218866
0.206759
0.20186
0.201806
0.20568
0.211467
0.221212
0.23692
0.281973
0.465056
0.586125
0.649
0.691899
0.691526
0.665157
0.647607
0.648793
0.6523
0.655936
0.65437
0.638409
0.593548
0.507242
0.377957
0.201577
0.104583
0.274609
0.25625
0.21988
0.193417
0.178149
0.169979
0.170131
0.175474
0.18606
0.204852
0.231255
0.271466
0.357519
0.444197
0.505563
0.563111
0.608243
0.608144
0.589356
0.585221
0.588725
0.595559
0.602413
0.603415
0.589661
0.548119
0.469032
0.352482
0.194445
0.107821
0.248075
0.218181
0.180004
0.1578
0.147887
0.147345
0.157125
0.185962
0.21937
0.241241
0.257774
0.280689
0.334792
0.385242
0.434204
0.487391
0.527562
0.526801
0.523173
0.526661
0.532849
0.543236
0.55272
0.555794
0.543827
0.505494
0.433382
0.32881
0.187279
0.108337
0.21851
0.176339
0.142861
0.131481
0.135789
0.163753
0.210818
0.235628
0.242856
0.245381
0.252353
0.265747
0.303184
0.333413
0.368568
0.414504
0.451175
0.455607
0.46486
0.472756
0.482314
0.495483
0.506914
0.511639
0.501138
0.465988
0.400892
0.307141
0.180265
0.114598
0.196637
0.148771
0.126532
0.133976
0.182026
0.229701
0.248522
0.254712
0.247239
0.241003
0.242083
0.248218
0.2717
0.290641
0.313888
0.350843
0.385402
0.393167
0.412507
0.4244
0.437447
0.452698
0.465422
0.471201
0.46182
0.429905
0.371554
0.287629
0.173575
0.112324
0.167768
0.119803
0.12217
0.183078
0.235164
0.255969
0.263544
0.256638
0.235711
0.226484
0.218892
0.22717
0.240127
0.251179
0.267396
0.297562
0.32629
0.343335
0.365234
0.381848
0.397933
0.41495
0.428625
0.434841
0.426057
0.397265
0.345043
0.270307
0.167359
0.139006
0.159878
0.117003
0.151885
0.221127
0.247691
0.259427
0.25443
0.235022
0.214704
0.202957
0.197456
0.201937
0.209306
0.218152
0.231512
0.255889
0.279403
0.303151
0.32494
0.344499
0.362909
0.381255
0.395626
0.401945
0.394017
0.368084
0.321302
0.254575
0.161483
0.103327
0.0906337
0.0772133
0.17172
0.226482
0.243271
0.243983
0.233318
0.214435
0.20199
0.192014
0.182769
0.17869
0.18275
0.19258
0.205567
0.225204
0.246293
0.270447
0.290341
0.312933
0.332444
0.351056
0.364606
0.371585
0.365494
0.342139
0.300076
0.240379
0.155926
0.263901
0.872432
1.06792
1.12483
1.01991
0.635298
0.4809
0.441761
0.423924
0.415124
0.406166
0.397147
0.391114
0.386734
0.381292
0.375649
0.369753
0.363878
0.358343
0.352869
0.347191
0.340689
0.3349
0.329001
0.325662
0.321986
0.315376
0.292555
0.221379
0.0834154
0.259527
0.882391
1.0643
1.11591
1.0888
0.946435
0.567504
0.459215
0.431484
0.415976
0.406898
0.401952
0.398029
0.394192
0.390584
0.385928
0.380495
0.374878
0.368886
0.362015
0.354396
0.346667
0.340313
0.334026
0.330358
0.327225
0.322033
0.301403
0.231186
0.0756294
0.259658
0.861151
1.04684
1.10545
1.10267
1.06183
0.801478
0.500198
0.437739
0.41766
0.407531
0.403534
0.401794
0.399525
0.397519
0.394354
0.390087
0.385058
0.378481
0.37063
0.361811
0.35279
0.345356
0.338309
0.333681
0.330263
0.325731
0.307712
0.243317
0.0784535
0.259822
0.837647
1.02344
1.09774
1.11578
1.1032
1.0141
0.633744
0.458683
0.422006
0.410209
0.406441
0.405707
0.404815
0.4038
0.402174
0.399863
0.395515
0.388766
0.380384
0.370656
0.360035
0.351305
0.343139
0.337308
0.332956
0.327802
0.310542
0.250565
0.0808481
0.261577
0.815569
1.00722
1.09093
1.12637
1.12284
1.08885
0.919453
0.526876
0.432864
0.414762
0.410911
0.410864
0.410812
0.410944
0.410222
0.409155
0.403523
0.396726
0.38831
0.378946
0.369374
0.35884
0.349529
0.342346
0.336549
0.330129
0.312602
0.253657
0.0812102
0.262678
0.791953
0.99143
1.08223
1.12285
1.13427
1.11517
1.04794
0.73935
0.469583
0.422469
0.416312
0.416469
0.417388
0.417858
0.418193
0.415836
0.41055
0.403959
0.395678
0.386577
0.377688
0.368398
0.357972
0.348928
0.341379
0.333418
0.315556
0.256701
0.0820133
0.262179
0.762382
0.9708
1.06875
1.10938
1.13135
1.12702
1.09491
0.973513
0.578537
0.442673
0.423062
0.421147
0.42197
0.42365
0.424388
0.4216
0.416562
0.410317
0.402323
0.393498
0.384996
0.375943
0.366414
0.356868
0.347334
0.337665
0.319042
0.260007
0.0833152
0.260383
0.725781
0.942524
1.04747
1.09197
1.11661
1.12252
1.1074
1.05976
0.837065
0.495079
0.433532
0.42581
0.425565
0.42802
0.428634
0.425313
0.420891
0.41498
0.407285
0.399416
0.391286
0.382477
0.373247
0.363404
0.353987
0.34277
0.323179
0.26388
0.0844096
0.257072
0.686879
0.907457
1.01907
1.0681
1.09235
1.10645
1.10418
1.08088
0.994264
0.638903
0.45847
0.431554
0.428659
0.429924
0.430199
0.42665
0.422287
0.416753
0.409485
0.402708
0.395737
0.387626
0.378737
0.369273
0.359507
0.348299
0.328005
0.268406
0.08558
0.252651
0.647901
0.867697
0.98372
1.03635
1.06263
1.08017
1.08253
1.07527
1.04349
0.877915
0.517049
0.441582
0.431208
0.429853
0.4286
0.424932
0.420037
0.41433
0.408004
0.402247
0.396474
0.389576
0.38205
0.373715
0.36449
0.353593
0.333287
0.273468
0.086717
0.247383
0.60926
0.824343
0.942679
0.998163
1.02645
1.04187
1.05165
1.05128
1.04188
0.977522
0.660681
0.462547
0.431486
0.425836
0.423206
0.41907
0.413895
0.408088
0.402304
0.397657
0.392894
0.388064
0.382107
0.375719
0.367948
0.358198
0.338808
0.279123
0.0878142
0.24167
0.571847
0.778482
0.897027
0.954035
0.982883
0.996396
1.00933
1.01445
1.01887
1.01476
0.856519
0.511003
0.431107
0.416633
0.41214
0.4079
0.402444
0.396464
0.391319
0.38749
0.383826
0.38085
0.377371
0.373869
0.368673
0.361548
0.344185
0.285641
0.0889885
0.235689
0.535585
0.731409
0.847885
0.904998
0.933091
0.946116
0.956261
0.968064
0.98007
1.00123
0.959916
0.646313
0.440024
0.403904
0.393685
0.388199
0.383625
0.37805
0.373426
0.370644
0.368286
0.366909
0.366625
0.366292
0.364901
0.36197
0.348836
0.29307
0.0901532
0.2293
0.500577
0.684116
0.796786
0.852928
0.879415
0.891822
0.897995
0.910721
0.92837
0.955694
0.976562
0.840243
0.480815
0.390894
0.371655
0.362429
0.356375
0.351586
0.347769
0.345915
0.345237
0.346326
0.348996
0.351875
0.354568
0.357437
0.351254
0.300844
0.0917129
0.222574
0.467105
0.637587
0.745024
0.799201
0.823719
0.834949
0.838319
0.84614
0.86576
0.891967
0.935139
0.896132
0.631894
0.390723
0.346192
0.333001
0.325226
0.319406
0.315663
0.313821
0.314159
0.317075
0.322302
0.329075
0.336318
0.345736
0.348757
0.307391
0.0939004
0.21578
0.43565
0.59246
0.693606
0.745278
0.767406
0.77602
0.778016
0.7797
0.795509
0.82218
0.86115
0.860896
0.767978
0.453414
0.326939
0.300854
0.290537
0.283538
0.279219
0.277097
0.27696
0.280568
0.287222
0.297608
0.309306
0.325677
0.338924
0.310287
0.0965165
0.208897
0.406387
0.549432
0.643681
0.692172
0.711408
0.716897
0.716958
0.715835
0.721695
0.747657
0.776631
0.780897
0.733661
0.611614
0.344946
0.276064
0.257591
0.247722
0.241638
0.238415
0.236932
0.239757
0.246642
0.259014
0.274666
0.296887
0.319951
0.307054
0.0994973
0.201973
0.379252
0.509041
0.595863
0.640896
0.657328
0.659632
0.656763
0.653396
0.651731
0.669152
0.693153
0.690871
0.645967
0.582767
0.467867
0.288916
0.23968
0.222761
0.212203
0.205122
0.200129
0.199882
0.204779
0.217182
0.234221
0.260216
0.291484
0.295168
0.102517
0.194941
0.353932
0.470926
0.55037
0.591985
0.606051
0.60568
0.59964
0.592775
0.589115
0.592054
0.608735
0.606997
0.559629
0.501122
0.439695
0.356341
0.280144
0.241194
0.214042
0.190249
0.17633
0.169445
0.168872
0.176935
0.191844
0.218441
0.255466
0.27449
0.104881
0.18781
0.330218
0.435115
0.50754
0.545866
0.558029
0.55548
0.546613
0.536498
0.530147
0.524959
0.52679
0.525726
0.483053
0.429499
0.380945
0.329579
0.27901
0.257771
0.245827
0.230022
0.198084
0.163703
0.148239
0.14763
0.156727
0.178616
0.217247
0.247973
0.108345
0.180756
0.308317
0.402403
0.467856
0.502968
0.513512
0.509145
0.498043
0.485423
0.475996
0.466001
0.454685
0.449209
0.409635
0.364036
0.329395
0.299283
0.263462
0.25
0.245934
0.245332
0.240893
0.222551
0.176484
0.138394
0.13077
0.141233
0.174941
0.218191
0.108871
0.173988
0.288541
0.372867
0.431594
0.463459
0.472688
0.467119
0.454608
0.439787
0.427057
0.4128
0.391896
0.382832
0.346179
0.309934
0.287359
0.269063
0.246232
0.238688
0.240734
0.247274
0.25459
0.252033
0.23694
0.19732
0.138299
0.126472
0.147415
0.196269
0.115491
0.167704
0.271042
0.346167
0.398661
0.427297
0.435893
0.429718
0.416156
0.399554
0.384047
0.364794
0.342025
0.323457
0.293238
0.264051
0.248697
0.237096
0.22564
0.218888
0.224631
0.236718
0.25422
0.262252
0.256396
0.240123
0.197618
0.127065
0.120183
0.166884
0.112956
0.161776
0.255138
0.322159
0.369151
0.394864
0.402784
0.396286
0.381914
0.363916
0.346005
0.324131
0.301739
0.276988
0.252566
0.228906
0.216301
0.206613
0.200997
0.196482
0.200686
0.213811
0.232816
0.252129
0.258166
0.246783
0.224633
0.162496
0.119163
0.15978
0.139297
0.156176
0.240814
0.300791
0.342947
0.366176
0.371981
0.365014
0.351295
0.332592
0.312573
0.289432
0.269211
0.2451
0.223613
0.203682
0.190865
0.18081
0.178022
0.183295
0.192659
0.203946
0.21513
0.232034
0.242556
0.242396
0.227375
0.176466
0.0819157
0.0911101
0.103438
0.055556
0.0556915
0.0558283
0.0559651
0.056102
0.056239
0.0563761
0.0565132
0.0566505
0.0567879
0.0569256
0.057084
0.0584513
0.099411
0.291821
0.557295
0.725432
0.811003
0.853612
0.892565
0.937666
1.00691
1.09487
1.18587
1.32668
1.42914
1.47646
1.47278
1.45431
1.41132
1.3485
1.30252
1.27653
1.25642
1.22883
1.20087
1.17311
1.14871
1.12792
1.10772
1.08577
1.06125
1.03542
1.00975
0.984041
0.957457
0.926952
0.889924
0.847708
0.797185
0.739595
0.681777
0.623554
0.568818
0.517918
0.472039
0.433168
0.399816
0.370873
0.345395
0.322993
0.30386
0.28725
0.272348
0.2587
0.246216
0.234508
0.223383
0.212859
0.203032
0.194108
0.186046
0.178706
0.171896
0.165624
0.159831
0.154431
0.149374
0.144709
0.140331
0.136173
0.132206
0.128481
0.12513
0.122217
0.119715
0.11756
0.115735
0.114151
0.112746
0.111484
0.110353
0.109345
0.10844
0.107617
0.106864
0.106183
0.10559
0.105118
0.104791
0.104618
0.104593
0.104698
0.104929
0.105296
0.105808
0.106455
0.107282
0.108246
0.109284
0.110482
0.111845
0.113358
0.114931
0.116591
0.118441
0.120682
0.12352
0.126626
0.129593
0.133009
0.136855
0.141114
0.145805
0.150931
0.198169
0.198415
0.198634
0.198846
0.199056
0.199265
0.199474
0.199682
0.19989
0.200097
0.200305
0.200542
0.19301
0.0725018
0.211237
0.514478
0.723855
0.816595
0.870693
0.973897
1.14273
1.2996
1.48067
1.67857
1.80135
1.80926
1.77582
1.732
1.69802
1.66918
1.63286
1.60683
1.588
1.57819
1.56989
1.55856
1.54447
1.5325
1.52962
1.52862
1.52971
1.53441
1.53915
1.54509
1.55584
1.5612
1.54857
1.50926
1.44695
1.3676
1.26725
1.14629
1.02098
0.919182
0.824166
0.74041
0.668488
0.607579
0.555166
0.509728
0.47086
0.438437
0.410081
0.385715
0.36461
0.345906
0.329057
0.313245
0.298234
0.28427
0.271602
0.260166
0.249641
0.239821
0.230836
0.222697
0.21508
0.207928
0.201238
0.194907
0.189006
0.183318
0.17803
0.173278
0.16905
0.16535
0.162103
0.159317
0.15688
0.154631
0.152459
0.150405
0.148581
0.147013
0.145644
0.144439
0.143397
0.142504
0.141819
0.141384
0.14117
0.141137
0.141249
0.14152
0.141974
0.142628
0.143464
0.144541
0.145784
0.147151
0.14882
0.150779
0.152961
0.155265
0.157822
0.160916
0.164927
0.170165
0.175594
0.181386
0.188275
0.196244
0.205405
0.215941
0.227867
0.258368
0.258525
0.258666
0.258802
0.258935
0.259068
0.2592
0.259331
0.259462
0.259592
0.259722
0.259869
0.257516
0.0976282
0.171586
0.471661
0.697124
0.791513
0.847658
0.961483
1.06359
1.17841
1.353
1.55542
1.63645
1.6828
1.65987
1.63867
1.62506
1.64215
1.64682
1.63487
1.61779
1.61192
1.61568
1.61616
1.6146
1.61067
1.6239
1.63509
1.65613
1.6802
1.70583
1.72113
1.70815
1.6643
1.60195
1.55926
1.51798
1.45931
1.41519
1.36848
1.28468
1.17862
1.07287
0.969694
0.872199
0.78334
0.706588
0.640551
0.584259
0.536495
0.498005
0.466221
0.43856
0.413854
0.391825
0.372133
0.354141
0.337145
0.321226
0.306802
0.293784
0.281835
0.270803
0.260687
0.251214
0.242315
0.234113
0.226439
0.219254
0.212549
0.20636
0.200692
0.195586
0.191146
0.187263
0.183917
0.180989
0.178284
0.175742
0.173336
0.171099
0.168986
0.167043
0.165335
0.163892
0.162693
0.161789
0.161222
0.161014
0.161076
0.161336
0.161777
0.162396
0.163227
0.164238
0.165482
0.166941
0.168626
0.170715
0.173184
0.176017
0.179082
0.182616
0.186973
0.192539
0.199475
0.206836
0.214982
0.224721
0.236136
0.249362
0.264445
0.281612
0.279184
0.27925
0.279309
0.279364
0.279419
0.279473
0.279526
0.279579
0.279632
0.279684
0.279736
0.279794
0.279666
0.174041
0.120811
0.388529
0.653425
0.759839
0.839259
0.921315
1.02007
1.17879
1.37329
1.52531
1.5857
1.57902
1.59661
1.62092
1.65173
1.66834
1.67763
1.6717
1.64258
1.61689
1.5996
1.58823
1.59232
1.60447
1.62926
1.65399
1.67099
1.68077
1.67485
1.63764
1.57149
1.4851
1.42356
1.41685
1.41448
1.36479
1.28664
1.22715
1.21957
1.19897
1.16149
1.0953
1.01093
0.923653
0.836854
0.755133
0.685261
0.627299
0.580897
0.541616
0.508584
0.479588
0.452803
0.427512
0.404498
0.3844
0.366921
0.350992
0.335778
0.321756
0.308724
0.296453
0.284767
0.273981
0.264414
0.255498
0.247111
0.239235
0.232029
0.225497
0.219555
0.214285
0.209597
0.205347
0.201562
0.198141
0.195016
0.192183
0.189691
0.187289