/*--------------------------------*- C++ -*----------------------------------*\
| =========                 |                                                 |
| \\      /  F ield         | OpenFOAM: The Open Source CFD Toolbox           |
|  \\    /   O peration     | Version:  2112                                  |
|   \\  /    A nd           | Website:  www.openfoam.com                      |
|    \\/     M anipulation  |                                                 |
\*---------------------------------------------------------------------------*/
FoamFile
{
    version     2.0;
    format      ascii;
    arch        "LSB;label=32;scalar=64";
    class       volScalarField;
    location    "0.00398";
    object      T;
}
// * * * * * * * * * * * * * * * * * * * * * * * * * * * * * * * * * * * * * //

dimensions      [0 0 0 1 0 0 0];

internalField   nonuniform List<scalar> 
13875
(
1412.01
1535.55
1482.6
1487.38
1481.06
1483.41
1483.45
1483.22
1483.38
1484.35
1483.95
1484.22
1483.63
1484
1484
1483.49
1482.94
1483.35
1482.81
1483.48
1481.02
1487.64
1480.71
1532.94
1396.81
1307.05
1356.18
1319.15
1322.26
1316.69
1317.14
1317.1
1317.88
1319.67
1322.8
1322.98
1322.98
1318.06
1317.75
1318.45
1322.37
1322.25
1322
1317.75
1317.08
1315.88
1321.9
1319.64
1355.89
1302.12
1307.25
1340.05
1314.46
1311.46
1303.8
1304.15
1303.47
1303.51
1304.02
1305.36
1305.58
1305.72
1304.16
1304.35
1304.13
1305.28
1302.85
1304.72
1303.91
1304.56
1303.64
1310.86
1311.51
1336.01
1298.17
1317.39
1344.83
1314.89
1308.55
1304.98
1304.66
1303.64
1303.64
1304.04
1303.91
1303.63
1304.31
1304.22
1304.36
1304.22
1303.87
1302.36
1304.02
1304.09
1304.85
1304.28
1307.47
1313.92
1343.96
1312.84
1329.55
1342.12
1315.89
1312.07
1303.31
1303.96
1303.71
1303.57
1304.18
1304.06
1303.7
1304.37
1304.41
1304.53
1304.29
1303.66
1302.47
1303.78
1304.09
1304.76
1303.4
1311.5
1312.15
1338.6
1316.64
1332.25
1351.17
1319.04
1309.71
1306.74
1306
1304.51
1304.03
1304.34
1304.1
1304.01
1304.62
1304.68
1304.85
1304.71
1304.06
1302.74
1304.26
1304.89
1306.28
1306.19
1308.19
1318.92
1348.95
1325.89
1339.04
1360.47
1329.21
1317.13
1306.59
1306.01
1305.03
1304.71
1304.67
1304.55
1304.55
1304.86
1305.29
1305.52
1305.18
1304.28
1303.47
1304.59
1305.28
1306.61
1306.77
1317.27
1325.95
1358.25
1321.13
1359.87
1384.77
1344.28
1321.03
1315.74
1311.45
1308.27
1306.62
1305.56
1305.66
1305.66
1305.98
1306.47
1306.91
1306.54
1305.42
1304.77
1306.22
1307.85
1311.51
1314.77
1320.45
1341.3
1380.89
1350.1
1537.17
1507.99
1387.31
1350.74
1322.11
1315.35
1311.73
1309.65
1308.43
1308.51
1308.15
1308.25
1309.09
1309.68
1309.09
1307.89
1307.66
1309.07
1311.16
1315.38
1321.67
1348.22
1384.08
1507.41
1523.12
1836.23
1575.49
1428.81
1361.91
1341.39
1325.94
1319.18
1315.94
1314.49
1314.36
1313.58
1313.63
1314.6
1315.37
1314.75
1313.55
1313.41
1315.17
1318.31
1325.79
1338.3
1361.34
1425.69
1566.31
1829.43
2511.77
1804.07
1522.64
1430.87
1358.86
1341.69
1332.61
1329.02
1327.5
1326.35
1325.4
1325.35
1326.49
1327.35
1326.83
1325.92
1325.73
1327.91
1332.12
1340.12
1357.15
1421.54
1512.59
1807.74
2442.06
2817.1
2304.52
1776.2
1486.08
1428.47
1390.1
1367.44
1360.3
1356.64
1354.43
1353.34
1353.24
1354.33
1355.13
1354.88
1354.74
1354.96
1358.49
1366.59
1392.13
1419.52
1474.97
1738.97
2295.66
2842.32
2794.86
2679
2439.59
2292.87
1587.06
1489.73
1466.32
1450.45
1444.99
1441.8
1440.34
1440.32
1441.16
1441.6
1441.86
1442.71
1444.58
1450.09
1468.78
1496.18
1622.72
2323.05
2388.06
2702.77
2781.97
2710.41
2668.89
2816.88
2804.6
2067.01
2055.75
1862.57
1756.47
1725.67
1716.11
1711.79
1710.72
1710.81
1711.56
1712.83
1716.81
1727.05
1759.24
1879.87
2134.59
2060.69
2821.43
2823.99
2705.01
2700.26
2643.3
2702.94
2789.3
2790.84
2807.8
2991.28
2962.5
3011.07
3129.9
3121.75
3133.83
3121.07
3130.12
3128.99
3131.62
3120.88
3129.71
3037.69
2992.8
2996.91
2828.05
2813.45
2813.73
2698.94
2654.79
2517.82
2580.76
2777.94
2915.27
2968.6
3317.07
3552.22
3679.29
3690.14
3678.05
3670.81
3667.52
3667.25
3667.89
3669.21
3673.57
3686.63
3683.38
3560.62
3353.61
2985.27
2927.68
2780.55
2602.01
2562.59
2426.67
2562.71
2689.36
2815.72
2932.1
3213.23
3429.85
3601.87
3659.95
3654.82
3650.59
3647.33
3647.21
3647.82
3648.32
3649.7
3656.79
3632.35
3502.88
3276.09
2966.21
2850.27
2714.81
2568.27
2430.89
2214.94
2393.12
2704.57
2909.44
2887.27
3163.79
3366.32
3494.89
3530.11
3537.7
3533.98
3535.08
3534.79
3535.38
3532.21
3534.05
3524.61
3480.67
3346.47
3139.52
2906.78
2928.8
2685.66
2368.25
2211.21
2074.87
2204.64
2515.07
2683.28
2717.8
2867.05
3085.92
3285.51
3380.58
3412.85
3426.6
3429.48
3431.89
3428.84
3423.44
3407.42
3382.36
3303.59
3109.86
2877.15
2746.06
2723.01
2518.43
2202.2
2080.87
2202.05
2053.58
2396.01
2481.61
2525.67
2623.96
2822.77
3056.56
3225.43
3296.13
3314.85
3327.07
3329.07
3327.46
3313.98
3296.84
3236.47
3076.31
2831.75
2631.76
2535.47
2471.89
2347.02
2059.25
2208.57
3112.53
2322.81
2177.01
2297.62
2369.48
2470.51
2643.18
2879.06
3072.51
3172.22
3207.82
3217
3222.43
3217.2
3207.37
3172.22
3074.65
2879.85
2639.09
2471.52
2370
2283.78
2168.52
2312.01
3194.22
3071.8
2119.59
1982.99
2147.13
2237.79
2353.48
2505.24
2728.48
2937.27
3050.72
3090.36
3109.77
3112.05
3109.74
3088.6
3046.6
2931.47
2722.79
2498.71
2355.23
2235.09
2129.17
1977.33
2129.68
3149.51
3023.95
2115.79
1886.39
2032.72
2129.32
2263
2391.73
2601.66
2803.43
2929.42
2981.48
2995
3002.31
2993.77
2978.89
2926.42
2799.35
2596.95
2387.78
2267.87
2124.67
2019.73
1875.54
2124.67
3076.52
2960.33
2094.67
1892.86
1966.09
2054.88
2171.77
2297.43
2500.5
2698.46
2817.22
2865.91
2890.71
2893.03
2889.79
2863.57
2813.49
2694.78
2498.42
2290.44
2170.52
2052.57
1948.6
1883.06
2084.39
2960.54
2846.3
2068.77
1908.33
1931.05
1993.06
2091.32
2211.85
2412.72
2594.07
2712.45
2766.1
2780.81
2788.63
2779.09
2762.97
2707.04
2585.51
2401.67
2200.69
2089.73
1995.49
1922.75
1896.3
2094.35
2900.31
2831.58
2101.92
1930.09
1908.26
1947.65
2021.24
2142.4
2332.17
2507.3
2614.24
2660.27
2684.78
2686.32
2683.74
2656.9
2609.29
2503.27
2329.58
2135.27
2015.39
1948.51
1898.65
1915.15
2082.62
2813.83
2780.36
2130.53
1964.39
1894.52
1910.28
1966.87
2081.77
2265.22
2420.56
2522.92
2572.79
2583.19
2591.02
2581.17
2567.18
2517.63
2413.69
2257.68
2074.65
1963.38
1910.99
1893.29
1958.83
2127.04
2791.42
2772.36
2168.34
1984.81
1899.49
1888.82
1923.27
2038.37
2207.06
2352.47
2439.63
2476.71
2498.44
2498.89
2497.12
2471.18
2431.98
2344.84
2200.29
2029.12
1914.46
1885.61
1890.32
1961.82
2155.55
2806.76
2798.06
2166.4
1978.39
1895.74
1870.63
1892.4
1992.44
2149.95
2275.34
2356.28
2399.89
2407.13
2415
2404.88
2394.98
2352.92
2271.34
2148.13
1991.93
1893.43
1869.3
1895.4
1971.7
2144.2
2814.81
2850.76
2186.01
1984.4
1894.29
1860.85
1869.81
1969.39
2108.48
2220.86
2287.64
2314.81
2334.28
2333.45
2332.02
2308.56
2279.66
2214.29
2104.66
1963.71
1864.71
1860.12
1886.66
1972.92
2193.64
2851.36
2798.55
2192
1967.39
1897.48
1839.15
1859.63
1944.28
2068.92
2158.53
2213.19
2249.53
2252.86
2260.54
2250.65
2244.31
2209.14
2149.37
2061.33
1938.98
1857.09
1840.37
1900.09
1975.65
2206.21
2835.51
2794.82
2206.73
1995.9
1904.81
1829.39
1841.78
1925.1
2034.17
2111.46
2157.56
2174.28
2190.71
2189.46
2189.88
2168.88
2150.97
2107.17
2033.67
1920.94
1839.98
1831.65
1903.48
1985.81
2210.31
2797.55
2761.76
2203.89
2008.71
1894.99
1823.22
1835.69
1908.81
2000.8
2060.64
2091.52
2120.62
2119.61
2127.06
2118.42
2115.28
2087.72
2050.69
1995.43
1906.57
1832.15
1827.08
1906.9
2011.6
2201.84
2782
2734.79
2193.83
2056.18
1921.45
1827.06
1820.48
1896.19
1974.02
2021.91
2050.02
2055.76
2068.08
2065.83
2067.76
2050.04
2043.36
2017.55
1970.07
1888.22
1813.87
1827.57
1912.35
2046.75
2203.09
2751.34
2716.37
2202.87
2088.25
1914.72
1837.39
1816.63
1879.68
1942.8
1978.01
1989.14
2011.97
2006.9
2013.3
2006.19
2007.36
1986.36
1970.16
1940.8
1882.07
1811.44
1844.33
1921.9
2094.63
2190.21
2718.91
2691.66
2193.15
2084.14
1947.57
1848.08
1809.88
1864.44
1920.49
1943.35
1960.54
1956.95
1965.88
1961.62
1964.67
1951.56
1955.18
1940.83
1915.02
1858.94
1805.12
1848.73
1948.89
2093.74
2196.22
2703.77
2661.67
2179.73
2080.88
1965.01
1866.35
1819.84
1857.98
1890.32
1906.27
1905.98
1921.75
1913.3
1918.14
1912.01
1918.07
1903.35
1898.35
1888.59
1858.3
1812.7
1869.12
1977.89
2090.85
2175.91
2681.63
2646.91
2161.43
2077.46
2032.88
1887.28
1829.68
1844.38
1871.86
1873.49
1884.09
1875.35
1880.38
1874.53
1879.91
1871.09
1880.64
1873.5
1863.23
1840.83
1831.57
1882.58
2040.11
2084
2158.58
2652.4
2629.14
2148.15
2063.78
2023.49
1904.82
1856.99
1848.25
1845.21
1842.17
1834.79
1846.12
1834.35
1838.59
1834.43
1843.46
1832.65
1835.24
1847.3
1848.98
1859.54
1913.62
2037.22
2069.6
2140.7
2639.64
2598.77
2127.45
2034.83
2028.53
1952.5
1869.57
1854.39
1837.49
1818.21
1821.59
1807.09
1808.67
1801.97
1808.95
1802.86
1817.95
1817.55
1825.62
1841.23
1871.49
1958.1
2033.93
2031.72
2133.63
2614.5
2584.26
2121.53
2003.86
2010.61
2011.2
1904.93
1877.35
1821.64
1794.22
1776.59
1782.62
1768.76
1772.03
1768.6
1780.71
1773.95
1788.12
1825.72
1874.66
1899.42
2030.58
2023.32
1999.77
2115.13
2586.81
2554.94
2109.82
1978.85
2002.86
2016.7
1926.57
1877.84
1827.39
1783.68
1773.3
1750.4
1749.27
1741.62
1748.78
1746.46
1771.14
1780.52
1817.34
1872.88
1941.65
2029.13
2007.56
1975.99
2113.63
2555.96
2531.53
2099.38
1959.23
1963.88
1998.44
1985.81
1911.21
1833.01
1778.54
1732.86
1731.26
1714.24
1716.74
1714.21
1729.28
1729.44
1768.61
1836.28
1911.37
1995.81
2008.22
1969.89
1958.15
2105.14
2537.29
2498.05
2093.29
1943.68
1939.59
1989.18
2037.7
1928.84
1844.16
1779.19
1750.33
1708.36
1700.68
1691.54
1700.5
1704.36
1748.32
1771.39
1835.41
1933.6
2056.66
1995.42
1943.64
1941.79
2087.63
2503.38
2482.52
2088.64
1936.36
1905.3
1952.6
2018.39
1990.59
1860.72
1787.41
1714.36
1699.68
1672.8
1672.69
1672.91
1697.07
1710.63
1782.63
1867.54
2014.71
2036.28
1949.28
1911.48
1936.95
2086.6
2488.14
2450.88
2067.61
1923.59
1892.04
1922.75
2006.93
2073.09
1896.22
1793.78
1753.51
1697.46
1673.47
1657.96
1672.5
1690.44
1752.6
1789.21
1884.01
2070.82
2016.56
1921.43
1894.79
1926.76
2072.89
2460.48
2437.72
2065.75
1922.79
1868.16
1886.21
1975.03
2052.47
1972.21
1820.66
1721.14
1699.92
1658.29
1652.59
1658.68
1694.36
1714.95
1817.16
1969.66
2053.13
1982.66
1886.03
1876.99
1925.88
2063.88
2449.21
2400.57
2045.02
1909.15
1866.73
1868.6
1932.72
2034.56
2051.61
1859.88
1769.82
1701.52
1675.1
1653.73
1675.33
1696.38
1772.72
1875.23
2050.21
2035.51
1938.79
1869.16
1871.18
1914.06
2049.16
2405.29
2369.05
2033.43
1903.19
1848.22
1845.8
1898.65
2011.81
2032.15
1958.96
1749.95
1711.45
1660.1
1656.57
1660.47
1708.33
1745.7
1982.93
2035.94
2013.57
1906.57
1847.47
1858.66
1908.67
2036.06
2378.04
2229.37
1985.32
1877.62
1846.47
1840.65
1864.79
1966.02
2018.95
2010.1
1852.35
1732.09
1687.42
1664.07
1687.57
1728.76
1852.53
2008.12
2019.72
1969.96
1873.74
1841.87
1852.38
1881.43
1986.37
2233
280.026
280.541
281.104
281.281
281.535
281.547
281.744
282.21
282.658
283.286
283.846
284.318
284.67
284.935
285.178
285.604
286.135
286.269
286.359
286.598
288.633
295.778
330.854
357.618
359.565
360.404
361.351
362.455
365.405
379.664
280.643
281.008
281.424
281.677
281.987
282.026
282.253
282.697
283.221
283.961
284.691
285.355
285.901
286.284
286.531
286.668
286.583
286.507
286.589
287.804
292.068
315.297
350.517
358.407
360.931
360.939
360.402
360.344
362.511
374.589
281.13
281.614
281.956
282.258
282.571
282.642
282.912
283.441
284.119
284.943
285.69
286.4
286.923
287.309
287.553
287.496
287.157
287.119
287.553
289.589
301.898
347.906
355.59
357.713
357.887
357.681
357.819
358.4
362.141
372.585
281.711
282.265
282.546
282.91
283.198
283.34
283.739
284.433
285.066
285.74
286.409
287.054
287.531
287.868
288.108
287.893
287.46
287.554
288.313
294.179
334.308
354.455
356.673
357.06
356.766
356.37
356.703
357.473
361.241
368.701
282.35
282.977
283.195
283.578
283.883
284.155
284.767
285.346
285.856
286.343
286.849
287.448
287.915
288.229
288.451
288.119
287.864
288.006
290.532
311.193
350.903
356.428
357.242
356.987
356.179
355.927
356.156
356.924
360.801
366.599
282.883
283.77
283.847
284.242
284.612
285.007
285.485
286.009
286.384
286.759
287.198
287.799
288.275
288.576
288.755
288.249
288.273
289.236
297.746
341.922
355.184
357.174
357.376
356.926
356.132
355.858
356.015
356.643
360.506
364.187
283.66
284.563
284.552
284.877
285.287
285.648
286.096
286.469
286.78
287.124
287.538
288.094
288.471
288.723
288.684
288.638
288.954
292.643
319.45
352.319
357.391
357.901
357.658
356.883
356.281
355.936
355.968
356.4
359.951
361.841
284.585
285.211
285.221
285.428
285.838
286.214
286.574
286.828
287.12
287.375
287.626
288.074
288.408
288.607
288.621
289.067
290.581
302.115
348.064
357.876
359.01
358.765
357.94
356.883
356.178
355.732
355.677
355.858
358.8
359.691
285.439
285.745
285.756
285.887
286.301
286.693
287.015
287.207
287.419
287.578
287.748
288.02
288.285
288.338
288.931
289.926
295.157
328.3
357.538
361.201
360.55
359.672
357.882
356.822
355.886
355.164
354.84
354.847
357.463
357.732
286.075
286.179
286.172
286.307
286.8
287.273
287.53
287.669
287.689
287.673
287.8
287.869
288.014
288.549
289.47
292.379
307.778
355.423
363.674
364.057
362.263
360.186
357.94
356.619
355.388
354.254
353.735
353.709
356.142
356.093
286.537
286.537
286.54
286.761
287.363
287.919
288.211
288.18
287.855
287.717
287.825
288.027
288.381
289.147
290.906
299.166
344.208
368.866
369.384
366.896
364.22
360.596
358.11
356.324
354.726
353.349
352.708
352.712
355.177
355.052
286.884
286.836
286.929
287.273
287.927
288.441
288.747
288.643
288.278
288.273
288.46
288.73
289.173
290.302
295.098
324.517
372.507
375.754
373.49
369.901
365.875
361.279
358.343
356.172
354.164
352.552
351.824
351.952
354.445
354.144
287.218
287.173
287.369
287.871
288.497
288.994
289.303
289.343
289.158
289.245
289.486
289.818
290.548
293.486
310.191
373.054
382.236
381.103
377.31
373.244
367.187
362.098
358.703
356.15
353.814
351.928
351.157
351.443
353.753
353.162
287.43
287.628
287.9
288.618
289.21
289.808
290.327
290.54
290.669
291.028
291.534
292.231
294.342
305.894
366.128
388.523
389.113
385.97
381.641
376.748
368.621
363.152
359.169
356.211
353.575
351.49
350.671
351.107
353.149
352.395
287.751
288.182
288.622
289.619
290.344
291.237
292.186
293.125
294.347
295.582
297.343
300.079
309.029
362.298
394.202
397.051
395.807
391.466
386.374
379.801
370.376
364.402
359.856
356.464
353.433
351.169
350.348
350.832
352.607
351.624
288.165
288.843
289.589
291.033
292.481
294.466
297.311
301.073
305.881
310.896
319.143
334.408
368.376
399.489
405.86
405.84
403.598
397.471
390.169
382.894
372.538
365.705
360.757
356.877
353.417
350.971
350.161
350.639
352.072
350.86
288.785
289.739
291.082
293.536
297.243
303.278
314.018
330.861
354.113
369.89
381.151
387.688
405.943
416.116
418.857
417.538
412.644
402.09
393.824
386.282
374.639
367.059
361.68
357.259
353.455
350.871
350.073
350.533
351.601
350.186
289.245
290.672
293.646
299.95
311.53
336.566
383.019
411.216
421.023
423.326
425.222
424.709
434.227
437.13
435.564
430.136
420.166
406.087
397.736
389.294
376.563
368.272
362.463
357.52
353.451
350.88
350.15
350.484
351.207
349.577
289.503
292.289
299.472
317.911
370.69
436.454
471.814
487.938
493.27
491.788
487.426
478.412
472.577
461.191
453.127
442.321
427.074
410.126
400.625
391.661
378.066
369.245
362.924
357.716
353.5
351.007
350.335
350.52
350.873
348.951
290.545
296.738
318.811
396.6
489.457
551.766
591.465
606.283
609.813
602.914
582.816
552.449
520.368
490.224
470.024
452.785
432.307
413.393
402.367
393.118
379.121
370.014
363.172
357.917
353.565
351.154
350.517
350.548
350.532
348.181
292.918
310.053
402.052
545.834
648.483
729.642
763.85
774.562
778.755
760.505
707.216
642.956
575.26
520.233
487.206
462.645
434.435
415.532
403.304
393.48
379.603
370.548
363.466
358.08
353.584
351.306
350.655
350.499
350.115
347.399
298.524
365.763
572.832
746.735
864.876
937.811
970.387
1001.29
1018.52
981.035
876.541
745.96
631.987
552.524
506.067
470.641
435.208
416.076
403.075
393.294
379.572
370.685
363.64
358.162
353.64
351.514
350.732
350.38
349.684
346.665
334.605
524.359
857.202
962.848
1087.91
1164.74
1244.11
1303.69
1272.62
1178.34
1042.56
855.759
690.103
583.482
520.888
473.078
435.631
416.269
401.763
392.553
378.458
370.916
363.778
358.19
353.801
351.803
350.826
350.284
349.349
345.99
375.733
763.779
1075.79
1139.14
1305.82
1441.24
1486.5
1445.55
1334.83
1220.03
1091.4
935.135
753.077
613.647
531.272
475.723
435.748
415.484
399.474
391.37
377.57
371.141
363.894
358.584
354.228
352.11
350.911
350.221
349.122
345.495
522.781
1099.46
1208.98
1329.88
1534.33
1599.36
1565.74
1454.05
1318.57
1199.99
1090.67
951.043
799.835
635.308
536.182
476.469
436.208
414.502
399.068
390.434
376.571
370.425
363.798
359.187
354.671
352.371
351.038
350.179
348.889
345.2
380.031
365.633
362.622
361.503
360.523
359.65
357.675
330.91
295.815
288.686
286.697
286.488
286.423
286.297
285.68
285.444
285.327
285.083
284.707
284.206
283.586
282.936
282.509
282.031
281.843
281.835
281.573
281.367
280.783
280.181
374.926
362.64
360.5
360.545
361.048
361.018
358.459
350.542
315.371
292.133
287.927
286.818
286.781
286.91
287.066
286.958
286.778
286.417
285.832
285.08
284.329
283.551
283.045
282.574
282.355
282.3
281.972
281.687
281.264
280.866
372.882
362.257
358.497
357.898
357.737
357.932
357.75
355.611
347.93
301.948
289.703
287.734
287.43
287.562
288.054
288.107
287.842
287.397
286.805
286.002
285.335
284.514
283.854
283.293
283.004
282.908
282.569
282.232
281.897
281.365
368.966
361.321
357.537
356.734
356.386
356.798
357.085
356.692
354.475
334.124
294.28
288.519
287.826
287.93
288.55
288.727
288.43
288.018
287.463
286.775
286.164
285.538
284.955
284.286
283.787
283.571
283.254
282.841
282.558
281.981
366.717
360.845
356.921
356.154
355.915
356.178
357.028
357.274
356.476
350.762
311.053
290.834
288.418
288.384
288.829
289.094
288.803
288.412
287.858
287.239
286.801
286.344
285.857
285.369
284.805
284.352
283.951
283.507
283.3
282.665
364.284
360.514
356.615
356.008
355.835
356.127
356.976
357.452
357.248
355.302
341.721
298.136
289.764
288.879
288.955
289.429
289.161
288.778
288.213
287.602
287.235
286.873
286.496
285.994
285.512
285.178
284.657
284.194
284.135
283.213
361.916
359.957
356.375
355.955
355.913
356.278
356.951
357.825
358.098
357.804
352.871
319.987
293.188
289.61
289.362
289.452
289.306
288.974
288.491
287.955
287.609
287.261
286.942
286.534
286.103
285.697
285.311
284.934
284.965
284.009
359.722
358.796
355.832
355.661
355.714
356.197
356.976
358.224
359.239
359.682
358.643
349.035
302.899
291.358
289.789
289.118
289.182
288.918
288.455
288.104
287.859
287.595
287.297
286.962
286.578
286.23
285.823
285.628
285.634
284.986
357.738
357.456
354.83
354.824
355.168
355.955
356.976
358.237
360.309
361.343
362.167
358.662
329.438
296.041
290.59
289.42
288.758
288.716
288.385
288.163
287.928
287.746
287.503
287.332
286.985
286.615
286.205
286.163
286.182
285.885
356.08
356.132
353.712
353.75
354.299
355.511
356.861
358.339
360.917
363.117
365.076
364.947
357.012
308.826
292.873
289.937
288.896
288.329
288.142
288.024
287.89
287.968
287.859
287.743
287.433
287.002
286.58
286.532
286.604
286.527
355.031
355.181
352.742
352.759
353.43
354.923
356.653
358.528
361.383
365.143
367.889
370.348
369.867
345.891
299.811
291.301
289.473
288.659
288.29
288.102
287.985
288.01
288.264
288.317
287.971
287.487
286.988
286.858
286.903
286.944
354.187
354.507
352.024
351.93
352.688
354.431
356.551
358.832
362.049
366.903
370.908
374.33
376.516
373.296
325.88
295.548
290.582
289.438
288.975
288.714
288.527
288.52
288.787
288.911
288.669
288.071
287.481
287.201
287.128
287.197
353.286
353.89
351.585
351.337
352.135
354.129
356.568
359.258
362.853
368.219
374.264
378.104
381.782
382.912
374.283
311.317
293.929
290.856
290.107
289.77
289.52
289.41
289.562
289.538
289.364
288.766
288.084
287.614
287.408
287.421
352.561
353.354
351.311
350.917
351.762
353.917
356.698
359.811
363.901
369.605
377.718
382.385
386.63
389.799
389.415
368.658
307.356
295.04
292.791
292.005
291.45
291.084
290.872
290.613
290.22
289.611
288.902
288.172
287.809
287.586
351.877
352.863
351.089
350.618
351.475
353.796
357.008
360.544
365.236
371.305
380.594
387.082
392.134
396.511
397.877
395.284
366.294
311.237
301.993
298.795
296.666
295.245
293.859
292.777
291.711
290.816
290.037
288.948
288.363
287.9
351.157
352.374
350.961
350.461
351.299
353.819
357.451
361.474
366.589
373.36
383.558
390.774
398.143
404.403
406.74
406.861
400.586
372.352
341.956
326.742
314.541
308.767
303.143
298.662
295.269
293.063
291.532
289.993
289.079
288.342
350.532
351.941
350.905
350.403
351.217
353.871
357.873
362.422
367.881
375.606
386.826
394.251
402.687
413.483
418.585
420.128
417.169
406.533
390.477
385.6
377.894
363.906
340.573
318.331
305.592
298.366
294.234
291.564
290.07
289.036
349.965
351.595
350.878
350.486
351.244
353.888
358.11
363.192
369.079
377.497
389.762
398.016
406.578
420.969
431.124
436.718
438.788
435.922
428.443
429.765
428.881
427.329
418.816
395.369
347.998
315.209
301.396
294.388
291.135
289.588
349.383
351.314
350.96
350.706
351.396
353.934
358.236
363.656
370.02
378.917
391.96
400.806
410.425
427.878
443.433
454.257
463.85
475.507
485.43
495.426
500.484
503.133
498.216
482.528
448.197
386.194
322.746
300.871
292.951
289.97
348.623
351.014
351.031
350.912
351.552
353.992
358.399
363.858
370.697
379.792
393.163
402.378
413.414
432.901
453.745
471.191
494.393
524.679
563.311
596.291
616.925
624.739
621.728
608.103
568.794
504.971
414.426
324.123
297.971
291.177
347.85
350.602
350.99
351.052
351.677
354.009
358.525
364.048
371.255
380.054
393.307
403.098
415.266
434.967
463.44
488.418
526.13
580.608
657.03
729.949
784.433
801.175
796.708
785.31
754.43
674.73
566.31
421.5
313.799
293.778
347.136
350.144
350.838
351.13
351.85
354.03
358.565
364.115
371.273
380.026
393.064
402.501
415.61
435.735
471.738
507.402
559.89
639.872
763.01
908.707
1018.53
1055.02
1036.63
996.862
964.731
897.693
776.82
597.254
380.571
300.712
346.451
349.757
350.703
351.196
352.12
354.143
358.562
364.133
371.306
378.579
392.396
401.373
415.826
436.146
474.7
521.874
591.814
702.43
877.9
1068.7
1198.8
1292.78
1336.77
1280.94
1195.28
1120.69
991.498
891.154
550.084
344.137
345.894
349.512
350.596
351.242
352.381
354.465
358.735
364.147
371.326
377.569
391.138
399.054
415.021
436.521
478.018
533.145
623.18
769.846
946.48
1104.72
1229.39
1339.18
1452.67
1505.14
1471.96
1340.62
1166.76
1102.6
800.827
390.012
345.552
349.245
350.517
351.34
352.592
354.867
359.3
363.951
370.417
376.571
390.101
398.51
414.038
436.608
478.279
539.713
644.108
815.141
957.48
1097.09
1204.55
1319.88
1454.84
1570.46
1613.03
1558.05
1359.76
1225.9
1133.77
547.965
274.003
274.003
274.003
274.003
274.004
274.1
278.883
444.202
983.472
1190.75
1192.38
1189.98
1193.28
1195.19
1178.11
1142.35
1130.91
1118.04
1094.46
1068.81
1036.14
1016.33
1011.41
1011.85
1008.21
1003.63
1001.43
996.055
988.607
978.243
967.005
957.308
948.42
940.292
931.18
922.084
912.98
905.16
900.268
897.407
894.852
890.918
886.349
882.457
877.648
871.729
863.603
852.085
836.409
819.183
799.915
780.941
762.348
743.036
724.604
706.943
688.947
671.47
655.334
640.675
627.391
614.987
603.859
594.108
585.698
577.89
570.67
563.581
556.454
549.331
542.095
534.852
527.745
520.889
514.225
507.732
501.427
495.249
489.034
483.056
477.436
472.066
466.832
461.559
456.237
451.112
446.391
441.913
437.597
433.404
429.352
425.504
421.876
418.463
415.201
411.993
408.769
405.5
402.194
398.864
395.553
392.279
389.064
385.905
382.758
379.578
376.453
373.289
370.077
367.005
364.108
361.412
358.92
356.46
354.102
351.981
350.155
348.939
348.022
346.891
346.204
345.685
345.409
345.341
345.395
274.001
274.001
274.001
274.001
274.002
274.086
278.078
423.671
957.388
1174.86
1170.45
1165.53
1172.92
1173.09
1128.64
1084.9
1049.4
1021.19
989.876
965.882
960.162
961.579
969.214
983.742
991.102
989.032
984.138
984.205
983.636
979.992
973.504
967.854
962.79
958.359
954.467
949.707
944.755
942.976
942.489
942.268
943.666
947.769
953.654
961.141
967.612
969.572
966.752
952.887
929.933
898.115
864.785
834.174
806.563
777.403
751.884
728.335
707.105
687.95
670.645
655.322
641.152
627.885
615.769
605.338
596.471
588.438
581.047
573.936
566.831
559.679
552.39
545.048
537.724
530.586
523.653
516.806
510.137
503.573
497.053
490.805
484.922
479.357
473.925
468.479
463.095
457.9
453.108
448.534
444.067
439.701
435.463
431.394
427.537
423.854
420.315
416.846
413.307
409.664
405.917
402.142
398.448
394.912
391.504
388.173
384.899
381.633
378.452
375.27
372.106
369.103
366.285
363.69
361.292
358.954
356.788
354.828
353.214
352.251
351.27
350.295
349.668
349.225
348.988
348.981
349.074
274
274
274
274
274.001
274.038
275.954
359.835
849.272
1157.3
1177.45
1179.81
1186.91
1164.87
1091.67
1042.88
1002.74
966.907
939.3
929.798
934.274
947.698
967.267
992.3
1007.68
1007.51
1001.15
999.149
998.264
996.016
992.539
987.51
985.074
984.185
983.841
985.452
987.137
989.343
994.944
1006.42
1023.31
1046.94
1085.45
1139.09
1203.84
1235.89
1241.24
1224.02
1172.43
1089.96
1004.37
935.201
879.825
835.549
796.963
764.967
737.046
714.21
694.385
676.522
660.368
645.718
631.991
619.487
609.098
599.598
590.864
582.447
574.054
565.931
558.124
550.428
542.851
535.594
528.648
521.879
515.279
508.807
502.374
496.177
490.392
484.824
479.389
474.027
468.772
463.658
458.885
454.362
449.978
445.711
441.614
437.814
434.255
430.838
427.52
424.136
420.581
416.911
413.127
409.181
405.134
401.177
397.389
393.707
390.141
386.635
383.292
380.068
376.926
373.971
371.118
368.367
365.684
363.074
360.491
358.195
356.193
355.195
353.688
352.509
351.728
351.117
350.663
350.461
350.49
274
274
274
274
274
274.011
274.615
299.923
655.552
1095.75
1163.32
1179.59
1189.02
1151.03
1090.43
1023.35
965.129
933.382
923.056
925.046
948.041
998.707
1009.47
1011.58
1012.85
1011.05
1008.7
1008.09
1007.83
1008.62
1012.4
1015.47
1019.24
1023.85
1031.33
1040.28
1052.06
1069.33
1098.91
1148.73
1227.27
1344.76
1523.18
1740.41
1946.99
2038.35
2055.58
2015.96
1904.99
1719.3
1508.64
1283.26
1108.91
994.513
909.542
844.614
794.021
755.267
725.44
702.754
683.354
667.524
652.88
639.204
626.55
615.037
604.854
595.818
587.107
578.394
569.361
560.393
552.072
544.188
536.503
528.964
522.035
515.515
509.092
502.985
497.092
491.519
486.118
480.702
475.37
470.287
465.636
461.324
457.186
453.146
449.379
445.728
442.046
438.448
434.896
431.244
427.514
423.7
419.702
415.53
411.328
407.109
402.993
399.023
395.171
391.387
387.809
384.315
380.918
377.743
374.795
371.947
369.204
366.48
364.011
361.546
359.389
358.26
356.37
354.941
353.828
352.94
352.274
351.804
351.546
274
274
274
274
274
274.003
274.149
280.605
474.956
986.052
1145.52
1170.39
1179.69
1134.35
1078.08
998.259
923.64
906.837
912.069
949.146
991.298
1000.42
1002.58
1009.2
1016.61
1023.1
1025.17
1028.17
1034.03
1036.8
1042.24
1053.54
1068.28
1084.55
1104.09
1131.52
1174.82
1240.16
1347.98
1524.96
1810.19
2170.29
2416.65
2491.55
2509.38
2509.49
2496.09
2458.46
2391.56
2280.24
2152.07
1939.12
1686.01
1454.23
1243.44
1071.91
941.04
850.526
787.721
744.165
713.814
691.94
674.658
659.55
646.407
634.956
624.463
614.296
605.14
596.454
587.697
578.925
570.349
562.071
553.614
544.787
536.535
528.604
520.832
513.759
507.336
501.378
495.768
490.329
485.066
479.863
474.921
470.153
465.528
461.09
456.594
452.315
448.204
444.345
440.676
436.995
433.217
429.431
425.475
421.298
416.934
412.514
408.099
403.737
399.576
395.595
391.984
388.657
385.437
382.239
378.954
375.757
372.656
369.732
366.966
364.075
361.832
360.136
358.11
356.576
355.368
354.433
353.678
353.11
352.792
274
274
274
274
274
274.001
274.027
275.407
338.347
787.129
1114.68
1174.46
1158.39
1112.45
1035.55
936.492
915.123
920.021
959.151
981.777
998.704
1004.92
1010.53
1017
1033.3
1050.47
1057.72
1061.23
1070.62
1084.33
1099.5
1118.27
1146.92
1181.12
1226.08
1299.23
1427.22
1645.86
1994.84
2374.48
2526.81
2564.54
2570.03
2563.12
2557.96
2545.93
2538.39
2521.65
2480.02
2410.2
2320.98
2225.65
2069.61
1878.42
1677.37
1463.96
1265.74
1082.75
932.362
834.528
781.104
744.919
713.895
689.324
670.785
655.213
643.116
633.31
623.733
614.721
606.264
598.078
589.619
581.204
573.48
565.711
557.324
548.729
540.533
532.719
525.02
517.631
510.631
503.955
497.634
491.695
486.126
480.62
475.26
470.172
465.344
460.894
456.871
453.032
448.979
444.793
440.527
436.023
431.546
426.943
422.447
418.013
413.766
409.729
405.789
401.892
398.26
394.409
390.635
386.989
383.479
380.014
376.644
373.604
370.537
368.083
365.965
363.944
361.809
360.093
358.719
357.65
356.762
355.905
355.3
274
274
274
274
274
274
274.005
274.272
286.069
547.754
1021.09
1162.96
1140.36
1068.57
966.242
942.264
945.966
965.575
995.166
1007.74
1008.3
1009.21
1025.58
1044.22
1059.94
1073.41
1092.8
1116.76
1143.61
1170.1
1206.69
1256.84
1314.15
1390.25
1506.74
1704.4
2000.15
2320.94
2485.9
2533.92
2541.87
2520.6
2509.65
2513.16
2517.2
2513.22
2502.26
2518.07
2508.9
2468.24
2381.99
2301.02
2218.96
2087.3
1934.65
1753.53
1561.14
1371.04
1171.36
1007.45
907.421
848.733
797.816
752.54
722.791
699.05
679.938
665.752
656.691
650.625
642.665
632.83
623.773
614.499
605.432
596.804
587.952
578.682
569.688
560.883
552.063
543.493
534.876
526.198
517.621
509.469
501.764
494.558
487.995
482.213
476.754
471.737
466.575
461.813
457.151
452.434
447.713
443.288
439.02
434.945
430.447
425.705
421.065
416.669
412.648
408.94
405.247
401.402
397.856
394.329
390.721
387.118
383.525
379.794
376.415
373.239
370.099
367.668
365.873
364.243
362.88
361.787
360.938
360.241
359.849
274
274
274
274
274
274
274.001
274.024
275.399
348.169
808.038
1137.22
1105.24
1005.8
980.57
984.109
1005.88
1014.67
1014.56
1017.97
1018.32
1027.61
1040.55
1055.93
1073.06
1096.19
1128.47
1170.95
1221.3
1287.45
1373.94
1470.89
1576.72
1725.58
1929.74
2167.57
2375.92
2464.93
2490.5
2490.51
2469.75
2464.15
2487.18
2515.15
2520.16
2519.41
2468.95
2422.87
2388.41
2379.68
2373.09
2320.32
2272.51
2200.35
2087.96
1949.63
1798.81
1631.26
1434.17
1249.69
1105.93
1003.27
924.987
863.199
816.716
776.191
744.95
723.213
707.1
693.991
681.913
670.977
662.684
655.705
648.063
640.821
633.087
624.544
615.04
605.381