/*--------------------------------*- C++ -*----------------------------------*\
| =========                 |                                                 |
| \\      /  F ield         | OpenFOAM: The Open Source CFD Toolbox           |
|  \\    /   O peration     | Version:  2112                                  |
|   \\  /    A nd           | Website:  www.openfoam.com                      |
|    \\/     M anipulation  |                                                 |
\*---------------------------------------------------------------------------*/
FoamFile
{
    version     2.0;
    format      ascii;
    arch        "LSB;label=32;scalar=64";
    class       volScalarField;
    location    "0.00629";
    object      alphat;
}
// * * * * * * * * * * * * * * * * * * * * * * * * * * * * * * * * * * * * * //

dimensions      [1 -1 -1 0 0 0 0];

internalField   nonuniform List<scalar> 
13875
(
0.11986
0.0816019
0.0784501
0.0782832
0.0783298
0.078374
0.0782751
0.0782789
0.0783385
0.0783227
0.0782806
0.0783006
0.078377
0.0784122
0.0783947
0.078299
0.0782555
0.0782914
0.0783
0.0783543
0.0783205
0.0782651
0.0784856
0.081439
0.120899
0.103938
0.0576789
0.0570808
0.0571621
0.0566537
0.0566624
0.0570358
0.0571152
0.0571749
0.0572116
0.0571505
0.0571127
0.0566533
0.0566134
0.0566679
0.0570979
0.0571179
0.0571482
0.0570737
0.0566803
0.0566731
0.0571392
0.057065
0.0573492
0.104644
0.110619
0.0553251
0.0558754
0.0547239
0.0545658
0.0544411
0.0542313
0.0541446
0.0542074
0.0543781
0.0542608
0.0543502
0.0542477
0.0542769
0.0542405
0.0543507
0.0541063
0.0542456
0.0542829
0.054455
0.0545308
0.0546023
0.0557804
0.0550926
0.111297
0.115885
0.0546448
0.0553818
0.0543166
0.0540262
0.0538964
0.0536328
0.0534771
0.0534747
0.0534913
0.0533914
0.0534895
0.0537025
0.05374
0.0536926
0.0534814
0.0533601
0.0534609
0.0536399
0.0539099
0.0540001
0.0542011
0.0551937
0.0543028
0.115798
0.121032
0.0546342
0.0551207
0.0537437
0.0536665
0.0534787
0.0531186
0.0529834
0.0529834
0.0529952
0.0528968
0.0530048
0.0532234
0.0532653
0.0532156
0.0529929
0.0528728
0.0529527
0.0531132
0.0534791
0.0536081
0.0536114
0.055018
0.0543243
0.121308
0.124409
0.0547451
0.0551863
0.0536059
0.0532859
0.0530676
0.0527215
0.0525555
0.0525512
0.0525613
0.0524528
0.0525469
0.05278
0.0528502
0.0527664
0.0525372
0.0524438
0.0525459
0.0527391
0.0530612
0.0532406
0.0535036
0.054885
0.0543931
0.124018
0.128747
0.0564751
0.0557807
0.0534494
0.0532678
0.052861
0.0523629
0.0521963
0.0521691
0.0521559
0.05207
0.0521677
0.0524209
0.052477
0.0523979
0.0521477
0.052074
0.0521623
0.0523633
0.0528625
0.0531979
0.053362
0.0556455
0.0563555
0.128933
0.135707
0.0611978
0.0578345
0.0544111
0.0534122
0.0528393
0.0521968
0.0519625
0.0518906
0.0518566
0.0517771
0.0518425
0.0521223
0.0521872
0.0520835
0.0518216
0.0518065
0.0519285
0.0522251
0.0527956
0.0533321
0.0542777
0.0575204
0.0610305
0.135591
0.151314
0.0692448
0.061543
0.0559097
0.0544158
0.0531378
0.0522133
0.0518534
0.051716
0.051663
0.0516153
0.0516552
0.051974
0.0520362
0.0519243
0.0516258
0.0516604
0.051812
0.0521734
0.0530997
0.0542323
0.0556194
0.0610299
0.0684133
0.154261
0.239337
0.0874435
0.0664709
0.0590278
0.0554356
0.05375
0.052517
0.0520469
0.0518303
0.0517172
0.051707
0.0517271
0.052063
0.0521322
0.0520118
0.0517278
0.0517835
0.0519722
0.0524555
0.0536234
0.0552805
0.0586786
0.0660327
0.0867039
0.241221
0.365416
0.118423
0.0760257
0.0629255
0.0576172
0.054842
0.0532221
0.0526401
0.0523488
0.0522164
0.0522268
0.0522271
0.052547
0.0526249
0.0525343
0.0523078
0.0523597
0.0526021
0.05308
0.0546548
0.0573471
0.0617371
0.0747977
0.112967
0.365581
0.658223
0.193251
0.104181
0.074574
0.0616216
0.0574988
0.0553288
0.054266
0.0537901
0.053592
0.0535625
0.0535467
0.0537974
0.0539088
0.0538871
0.0537824
0.0538679
0.0542721
0.0552144
0.0569402
0.0619413
0.0734576
0.100415
0.183001
0.643645
0.582103
0.435794
0.176853
0.0927784
0.0769794
0.0653023
0.0599236
0.0580535
0.0571952
0.0568469
0.0567289
0.0566897
0.0568251
0.056975
0.057061
0.0571167
0.0573728
0.0581856
0.0600334
0.0654962
0.0764454
0.0892781
0.170967
0.434096
0.581334
0.49183
0.400991
0.348666
0.328959
0.117587
0.0814513
0.0740656
0.0682393
0.0658183
0.0649571
0.0645838
0.064406
0.0644242
0.0646223
0.0649082
0.0653473
0.0662415
0.0689226
0.0755334
0.0836387
0.132167
0.332293
0.338039
0.401155
0.500203
0.408748
0.350275
0.331357
0.337373
0.302335
0.201184
0.127161
0.0991274
0.0895633
0.0878736
0.0874107
0.0871253
0.0871803
0.0873812
0.0878079
0.0885391
0.0894119
0.0974194
0.134714
0.21603
0.305301
0.333973
0.331364
0.360871
0.421506
0.331074
0.295237
0.284171
0.305393
0.318775
0.325705
0.255835
0.19509
0.171096
0.150394
0.138033
0.134162
0.132161
0.133333
0.136365
0.146516
0.173648
0.195574
0.25354
0.32855
0.313194
0.306912
0.292674
0.299677
0.342937
0.241219
0.229705
0.230314
0.273698
0.32895
0.411055
0.539671
0.624369
0.61223
0.569707
0.597873
0.609408
0.620386
0.615468
0.602842
0.582991
0.588562
0.623496
0.572835
0.414291
0.325985
0.276255
0.234003
0.237243
0.253889
0.143759
0.156276
0.190744
0.231543
0.331316
0.462002
0.599869
0.670589
0.564787
0.499755
0.494889
0.494713
0.500413
0.499185
0.499671
0.518318
0.567974
0.650552
0.614202
0.468589
0.341571
0.242679
0.185094
0.147195
0.134463
0.0693646
0.104695
0.168738
0.260326
0.375768
0.426184
0.495168
0.544538
0.481323
0.428334
0.418936
0.417302
0.420734
0.423388
0.425621
0.434567
0.474998
0.534798
0.501272
0.43553
0.39607
0.286734
0.175999
0.106166
0.0708844
0.0265055
0.0527968
0.119804
0.252136
0.365602
0.367177
0.387554
0.428727
0.422257
0.394988
0.382862
0.374469
0.373215
0.379785
0.385025
0.390056
0.406007
0.41553
0.387091
0.372747
0.380787
0.269306
0.126699
0.0532481
0.0255804
0.069052
0.0813249
0.112639
0.196226
0.283786
0.288174
0.308346
0.354197
0.373203
0.360095
0.344647
0.330802
0.327531
0.336205
0.345881
0.3521
0.355837
0.341434
0.305484
0.290337
0.287977
0.195649
0.112782
0.0799358
0.0665107
0.118661
0.125426
0.126475
0.159954
0.210433
0.223618
0.254172
0.303138
0.328732
0.320585
0.30387
0.28831
0.283818
0.293498
0.305312
0.312847
0.313355
0.291286
0.248391
0.223326
0.213773
0.15638
0.131857
0.131846
0.120259
0.157848
0.134874
0.12939
0.136532
0.164147
0.180446
0.214989
0.261514
0.287317
0.281244
0.264598
0.248914
0.244127
0.252814
0.26518
0.273387
0.272628
0.251805
0.210075
0.178468
0.16624
0.136581
0.131629
0.137889
0.160409
0.199716
0.156076
0.129519
0.123816
0.137506
0.155214
0.184599
0.225443
0.24877
0.243467
0.228122
0.214232
0.209628
0.217824
0.22911
0.236649
0.23627
0.216481
0.180128
0.153427
0.138284
0.123182
0.129275
0.149727
0.196456
0.221189
0.181839
0.132418
0.118932
0.121826
0.136821
0.160206
0.193326
0.213402
0.209669
0.196627
0.184034
0.180375
0.187199
0.198035
0.205207
0.203772
0.186289
0.157483
0.134637
0.122093
0.118434
0.131404
0.177529
0.219594
0.24313
0.206154
0.132003
0.115293
0.111658
0.12286
0.141968
0.168291
0.184352
0.180841
0.169991
0.159259
0.155654
0.161901
0.170758
0.176544
0.176098
0.161822
0.139138
0.121492
0.111382
0.114814
0.130029
0.195031
0.243797
0.267561
0.219974
0.132775
0.112379
0.105425
0.111685
0.126739
0.146701
0.158895
0.155696
0.146756
0.137566
0.134986
0.14005
0.147991
0.153036
0.152178
0.141255
0.124293
0.109741
0.104786
0.112031
0.131517
0.212642
0.263355
0.290773
0.235379
0.131587
0.108017
0.0995536
0.102855
0.114886
0.129607
0.137834
0.134509
0.127316
0.120103
0.117575
0.122438
0.128817
0.133001
0.133497
0.125364
0.112405
0.101367
0.0994164
0.108003
0.129886
0.225496
0.290087
0.322458
0.257135
0.135277
0.105708
0.0970014
0.0964592
0.104382
0.114687
0.12067
0.11756
0.111457
0.104911
0.103021
0.106764
0.112385
0.115859
0.115983
0.110845
0.102461
0.0942287
0.0957138
0.105671
0.131308
0.238558
0.316141
0.351217
0.275303
0.136097
0.101455
0.0920894
0.0914638
0.096692
0.103149
0.10603
0.102695
0.0977175
0.0927045
0.0907197
0.0944663
0.0988744
0.101905
0.103123
0.0995041
0.0939847
0.0889142
0.0911507
0.100848
0.132897
0.258634
0.342932
0.364193
0.286254
0.140067
0.0993637
0.0895493
0.0876253
0.0898461
0.0920903
0.0935654
0.090595
0.0865122
0.0818843
0.0804219
0.0833456
0.0875701
0.0901688
0.0910465
0.0897094
0.0875789
0.0851791
0.0875945
0.0993226
0.136149
0.27657
0.371188
0.37297
0.288583
0.14294
0.0976011
0.0855946
0.0826037
0.0839186
0.0847032
0.0843336
0.081043
0.0771053
0.0734142
0.071705
0.0746155
0.0777837
0.0802966
0.082086
0.0815777
0.0817081
0.0807329
0.0836046
0.0957348
0.138921
0.286169
0.388079
0.387053
0.287053
0.149642
0.0981201
0.0835034
0.0792359
0.0793409
0.0768954
0.0756257
0.0725394
0.0692681
0.065638
0.0643989
0.0666798
0.0699764
0.0720889
0.0737433
0.0747873
0.076948
0.0770262
0.0818645
0.0960952
0.14655
0.291757
0.396897
0.394772
0.287118
0.159042
0.0988309
0.0799933
0.0752004
0.0736455
0.0711826
0.0689628
0.0656892
0.0624711
0.0596316
0.0581597
0.0605455
0.063073
0.0654112
0.0676657
0.0687809
0.0721692
0.0731422
0.0778842
0.0961201
0.155771
0.290018
0.403947
0.40068
0.287662
0.16382
0.101374
0.0798941
0.0731574
0.0698735
0.0657713
0.0628943
0.059639
0.0569784
0.0539764
0.0528989
0.0547415
0.0574223
0.0592305
0.0612885
0.063781
0.0677158
0.0708994
0.0774923
0.0981241
0.164724
0.292217
0.411489
0.407946
0.28261
0.162237
0.104002
0.0800652
0.0692242
0.0648177
0.0612359
0.0582089
0.0548613
0.0519324
0.0496411
0.0483743
0.0503524
0.0523858
0.0546802
0.0571204
0.058974
0.0632142
0.0672574
0.0770392
0.102284
0.167094
0.290714
0.411389
0.413623
0.279944
0.162501
0.10878
0.0816809
0.0679972
0.0621754
0.056795
0.053544
0.0502169
0.0479306
0.0454298
0.0444938
0.0460366
0.0482912
0.0499843
0.0525574
0.0553639
0.0601215
0.0658427
0.0790819
0.10728
0.166789
0.282087
0.414248
0.411178
0.275669
0.16167
0.11754
0.0837825
0.0655438
0.0582247
0.0532954
0.0499771
0.0470145
0.0442224
0.0422891
0.0411444
0.0427834
0.0445484
0.0468376
0.0491162
0.0511731
0.0565183
0.0633469
0.0802412
0.117158
0.165582
0.276307
0.407419
0.406809
0.273161
0.158818
0.129243
0.0868621
0.0663887
0.0569738
0.0501268
0.0463702
0.0432735
0.0412891
0.0390957
0.0382475
0.0395261
0.0415621
0.0430877
0.0456675
0.0487673
0.0550069
0.0638743
0.0854279
0.132669
0.164502
0.27333
0.396477
0.395843
0.272762
0.153363
0.129691
0.0923592
0.066135
0.0540246
0.0470829
0.0435806
0.0409865
0.0384271
0.0367606
0.0357168
0.0371684
0.038728
0.0408826
0.0429898
0.0454174
0.052454
0.0637775
0.0899288
0.133074
0.158828
0.268896
0.390865
0.3841
0.271245
0.146673
0.129196
0.101229
0.0689767
0.0545748
0.0455492
0.0412158
0.0380338
0.0361812
0.0342505
0.0335065
0.0346331
0.0363677
0.0378345
0.0406049
0.0442645
0.0525321
0.0660128
0.0998322
0.132155
0.150933
0.268132
0.386253
0.379624
0.268709
0.139666
0.126747
0.114566
0.0708878
0.0534797
0.0437536
0.0392027
0.0364809
0.0339682
0.032477
0.0315591
0.032869
0.0342408
0.0363655
0.0385741
0.042228
0.0519558
0.0689038
0.11455
0.129763
0.143303
0.266046
0.380981
0.372685
0.268292
0.135298
0.121658
0.114143
0.0770327
0.055131
0.0440852
0.0379157
0.034148
0.0322296
0.0305017
0.0298507
0.0308442
0.0324306
0.0340427
0.0374801
0.0426312
0.053108
0.0747589
0.114917
0.124151
0.136997
0.265804
0.37883
0.365827
0.265227
0.132918
0.115795
0.113566
0.0864053
0.0562922
0.0435246
0.0370991
0.0334108
0.0306233
0.0291989
0.0283298
0.0294968
0.0308163
0.0332285
0.036423
0.0418729
0.0544931
0.0842861
0.11387
0.116085
0.132223
0.267612
0.374944
0.360477
0.262098
0.130058
0.109752
0.109438
0.0974357
0.0613883
0.0447562
0.0371814
0.0320469
0.0294328
0.0276491
0.027012
0.027919
0.0295739
0.0317626
0.0367084
0.0435216
0.0600298
0.0991105
0.11089
0.110671
0.130872
0.266584
0.368247
0.354729
0.260867
0.129924
0.105939
0.104036
0.0972098
0.0691113
0.0459967
0.0369214
0.0324675
0.0286039
0.026827
0.0259104
0.0270726
0.0287338
0.0319706
0.0362884
0.0446383
0.0682948
0.0990224
0.105729
0.106043
0.130518
0.263586
0.363534
0.343854
0.254953
0.130541
0.102239
0.098108
0.0952904
0.082076
0.0512398
0.0381785
0.0319577
0.0283398
0.0259841
0.0251375
0.0261945
0.0284528
0.0315049
0.0374403
0.0498427
0.0810498
0.0962982
0.0996207
0.103048
0.131179
0.259845
0.35338
0.335404
0.251111
0.129694
0.100577
0.0944313
0.0916294
0.0821698
0.0579572
0.0396894
0.0326684
0.0282872
0.026035
0.0246579
0.0262342
0.0284137
0.0322192
0.0390525
0.057465
0.0817479
0.0922122
0.0954937
0.101538
0.133142
0.253737
0.340862
0.311235
0.240785
0.128905
0.0985771
0.0903909
0.0870833
0.08114
0.069592
0.0449684
0.0329182
0.0284161
0.0257848
0.024656
0.0259855
0.0285079
0.0325849
0.0444743
0.0695462
0.0803894
0.0868782
0.0914051
0.100088
0.132002
0.242439
0.313632
0.282619
0.225596
0.124917
0.0974865
0.0886316
0.0828321
0.0786881
0.0698886
0.0519275
0.0361363
0.0289715
0.0261996
0.0247629
0.0263748
0.0289933
0.0355388
0.0513481
0.0699846
0.0781435
0.0825911
0.0892454
0.0988796
0.127887
0.227322
0.285371
0.144129
0.278536
0.255438
0.259541
0.268268
0.276337
0.272762
0.263453
0.281794
0.32399
0.375487
0.432465
0.489911
0.543637
0.590211
0.622184
0.644314
0.657841
0.670096
0.681188
0.687174
0.668425
0.558696
0.419019
0.351432
0.313668
0.280236
0.234955
0.171848
0.0791764
0.126344
0.236729
0.213903
0.245788
0.271038
0.281049
0.281411
0.266341
0.242815
0.266098
0.327608
0.392973
0.45521
0.512353
0.560935
0.599102
0.624429
0.641034
0.655376
0.668931
0.677486
0.674108
0.628069
0.457958
0.356807
0.305808
0.268872
0.224046
0.163473
0.076355
0.129173
0.228259
0.22595
0.269515
0.289442
0.302844
0.305431
0.288505
0.26046
0.259591
0.310078
0.366937
0.42583
0.482683
0.533074
0.574501
0.604129
0.624922
0.642581
0.657903
0.671314
0.673761
0.646795
0.512471
0.365127
0.298155
0.254971
0.211539
0.153964
0.073369
0.125703
0.219883
0.246214
0.285437
0.301493
0.319504
0.325274
0.309517
0.280241
0.245541
0.275202
0.335102
0.393799
0.450667
0.502472
0.547057
0.581325
0.605077
0.625436
0.644114
0.659069
0.664771
0.650655
0.581815
0.390103
0.294559
0.244953
0.200202
0.145772
0.071085
0.119736
0.220754
0.267933
0.301259
0.32099
0.344574
0.353036
0.336395
0.296939
0.255051
0.254375
0.310742
0.365108
0.419662
0.472093
0.518147
0.556228
0.586378
0.60736
0.627671
0.644771
0.654322
0.648019
0.606066
0.450036
0.301742
0.237091
0.189883
0.138719
0.06935
0.112921
0.225519
0.290183
0.315185
0.3401
0.360103
0.362263
0.352413
0.31169
0.259536
0.240004
0.288734
0.339027
0.390835
0.443238
0.490277
0.529763
0.561872
0.588038
0.609193
0.627566
0.638172
0.633884
0.609309
0.530715
0.334945
0.235062
0.181841
0.131137
0.066788
0.108041
0.245216
0.311678
0.330906
0.35916
0.368983
0.358566
0.342245
0.311473
0.259084
0.235209
0.269133
0.315786
0.36482
0.41596
0.463677
0.504524
0.537755
0.56574
0.589907
0.608893
0.620547
0.620279
0.602233
0.559274
0.42646
0.250851
0.175891
0.123547
0.0636953
0.10512
0.268934
0.334103
0.351006
0.373268
0.369097
0.348948
0.32688
0.2997
0.253493
0.231956
0.250351
0.29438
0.341969
0.392686
0.439846
0.479876
0.514103
0.542978
0.567836
0.587966
0.601503
0.60408
0.584696
0.55797
0.49067
0.31859
0.179407
0.118741
0.0618369
0.103699
0.293421
0.356486
0.376606
0.391661
0.372935
0.335533
0.311368
0.284734
0.24608
0.226497
0.235994
0.276057
0.323616
0.371616
0.416707
0.457857
0.492317
0.521408
0.545864
0.564743
0.578228
0.584472
0.575835
0.538188
0.494496
0.405757
0.214359
0.119069
0.0608365
0.104196
0.317403
0.377164
0.397964
0.404784
0.370534
0.322444
0.291496
0.267782
0.237674
0.218672
0.226779
0.262206
0.307444
0.351855
0.395135
0.436358
0.47163
0.500912
0.524308
0.5415
0.552589
0.557979
0.552121
0.525806
0.477407
0.421448
0.305122
0.135842
0.0617268
0.106673
0.341732
0.395946
0.414369
0.410155
0.366928
0.311724
0.2698
0.252081
0.230306
0.212358
0.222188
0.256024
0.295828
0.336286
0.376978
0.417241
0.452123
0.48041
0.502448
0.518183
0.528273
0.533769
0.529865
0.506791
0.457491
0.412405
0.340617
0.191329
0.0684077
0.109935
0.364418
0.412095
0.426843
0.414291
0.36466
0.304008
0.257066
0.243009
0.226856
0.211411
0.223995
0.253388
0.289978
0.326036
0.36374
0.401585
0.435664
0.462562
0.483184
0.497652
0.506755
0.511019
0.505994
0.48398
0.436517
0.396942
0.351087
0.261753
0.0875632
0.114459
0.383205
0.424805
0.437051
0.421615
0.366537
0.303021
0.250915
0.239013
0.227903
0.218263
0.231267
0.25708
0.289396
0.321561
0.355643
0.390455
0.422037
0.446433
0.465173
0.478231
0.48583
0.488057
0.481452
0.459385
0.414744
0.380253
0.348417
0.300472
0.153384
0.119029
0.399037
0.434411
0.443753
0.430993
0.375539
0.314454
0.257234
0.245642
0.235559
0.234228
0.24623
0.267744
0.294289
0.322082
0.351689
0.382803
0.410582
0.432143
0.448393
0.459678
0.465795
0.466216
0.457681
0.435353
0.39352
0.367445
0.344533
0.333554
0.216574
0.124131
0.41415
0.44161
0.445878
0.43894
0.39042
0.337744
0.283323
0.265864
0.254736
0.260351
0.269869
0.28285
0.303216
0.325979
0.351064
0.377588
0.401189
0.419743
0.433556
0.442525
0.446431
0.444773
0.435427
0.413254
0.376577
0.358454
0.34788
0.372126
0.232157
0.129026
0.426439
0.445732
0.448038
0.445014
0.407678
0.368606
0.321851
0.297404
0.287723
0.295414
0.296111
0.299743
0.3139
0.332528
0.352535
0.374159
0.392834
0.40816
0.419101
0.425537
0.426818
0.423459
0.413719
0.393732
0.367417
0.352802
0.366285
0.450362
0.232293
0.13383
0.437049
0.449363
0.448098
0.448887
0.422133
0.392334
0.357048
0.331052
0.321202
0.322004
0.318503
0.317056
0.325105
0.339416
0.354915
0.371127
0.385166
0.396661
0.40435
0.408013
0.407309
0.403124
0.393787
0.376311
0.36171
0.356549
0.401389
0.49198
0.227771
0.138618
0.446715
0.452372
0.445254
0.448043
0.436378
0.415764
0.38182
0.353897
0.338708
0.335758
0.333038
0.330744
0.334104
0.34551
0.356502
0.367871
0.37764
0.384796
0.389151
0.390597
0.389018
0.385347
0.378651
0.366948
0.357216
0.371085
0.476276
0.485769
0.224056
0.142025
0.454247
0.452471
0.439411
0.440171
0.445555
0.441399
0.410509
0.377113
0.356166
0.348669
0.343073
0.341593
0.342489
0.3495
0.355995
0.363343
0.369343
0.372783
0.374273
0.37407
0.37241
0.370158
0.367647
0.361178
0.359726
0.400084
0.525153
0.467751
0.223172
0.14572
0.460022
0.45013
0.426737
0.429318
0.446
0.458594
0.444622
0.412329
0.385649
0.3693
0.358057
0.353927
0.350738
0.351483
0.353008
0.356942
0.360002
0.360978
0.360314
0.359268
0.358463
0.357975
0.359293
0.357059
0.37151
0.445749
0.527542
0.448057
0.222524
0.150191
0.456568
0.439666
0.408426
0.414894
0.437834
0.461651
0.47043
0.449342
0.422768
0.396758
0.377227
0.366596
0.356899
0.350983
0.346683
0.348278
0.349783
0.348963
0.347628
0.346837
0.347789
0.34981
0.353376
0.36
0.396133
0.512651
0.513592
0.433932
0.223596
0.154482
0.451068
0.424242
0.387494
0.396513
0.424347
0.452791
0.478159
0.478925
0.462107
0.432033
0.404321
0.383748
0.363607
0.348245
0.34082
0.339804
0.339674
0.338433
0.336625
0.33672
0.338551
0.341842
0.348858
0.369751
0.433383
0.525625
0.497496
0.422347
0.222193
0.151634
0.430701
0.398345
0.364202
0.377375
0.409311
0.4404
0.471651
0.495791
0.497753
0.474234
0.443175
0.411109
0.375842
0.350833
0.338673
0.333992
0.331538
0.329778
0.327838
0.328652
0.331458
0.336738
0.34958
0.389357
0.504406
0.517681
0.475416
0.412035
0.219553
0.15158
0.408171
0.368425
0.34489
0.360275
0.39384
0.426267
0.459276
0.495353
0.516955
0.511553
0.489013
0.450788
0.401742
0.361179
0.342772
0.331651
0.325833
0.322889
0.321711
0.323537
0.326317
0.334891
0.356686
0.418373
0.526333
0.505218
0.460107
0.401592
0.216105
0.133069
0.321757
0.332632
0.330865
0.348533
0.379562
0.411908
0.445176
0.481483
0.513382
0.529252
0.527147
0.496193
0.443154
0.38326
0.355073
0.334473
0.323323
0.318663
0.317456
0.318385
0.322439
0.335681
0.371438
0.474484
0.525064
0.492205
0.446055
0.390159
0.211552
0.0786385
0.171262
0.234869
0.280671
0.31439
0.353822
0.425116
0.570739
0.666527
0.681473
0.674529
0.66337
0.651656
0.638086
0.614955
0.581248
0.534168
0.479244
0.42198
0.365535
0.315265
0.276014
0.265897
0.276088
0.277575
0.268721
0.256583
0.250127
0.272915
0.142009
0.0757889
0.162785
0.223975
0.269345
0.306887
0.360016
0.466731
0.628774
0.670137
0.671854
0.662713
0.648842
0.63513
0.617985
0.591575
0.552128
0.50202
0.444976
0.38266
0.317614
0.2583
0.24677
0.272613
0.288006
0.285081
0.274292
0.248634
0.213875
0.231215
0.12403
0.0727597
0.153244
0.211486
0.255403
0.299481
0.369019
0.519893
0.644745
0.66874
0.665393
0.651748
0.636363
0.618944
0.597471
0.566822
0.524491
0.472923
0.4163
0.358405
0.302007
0.255766
0.266655
0.295414
0.313487
0.307487
0.292538
0.27226
0.227093
0.224369
0.126944
0.0704187
0.144979
0.200144
0.245312
0.29605
0.393814
0.582306
0.646355
0.659203
0.653492
0.638265
0.619663
0.599268
0.574336
0.539457
0.494233
0.441512
0.384974
0.327639
0.268913
0.249222
0.287257
0.317177
0.331039
0.322777
0.304879
0.288594
0.248729
0.217345
0.123241
0.0686732
0.137956
0.189728
0.237414
0.302812
0.451967
0.603535
0.643914
0.648773
0.639518
0.622547
0.601954
0.580243
0.549539
0.510834
0.463965
0.411272
0.357468
0.304728
0.251281
0.260803
0.306225
0.344464
0.356139
0.34642
0.324595
0.304938
0.271219
0.220266
0.117301
0.0662437
0.130574
0.181566
0.234928
0.333425
0.52459
0.607364
0.633408
0.634604
0.622923
0.6044
0.582837
0.555863
0.523379
0.483148
0.435502
0.383644
0.332554
0.283139
0.240408
0.26503
0.320133
0.355624
0.363078
0.361224
0.343129
0.319274
0.293801
0.227411
0.110689
0.0631951
0.12294
0.175397
0.248511
0.419055
0.560342
0.602453
0.619297
0.61762
0.605406
0.585567
0.560738
0.532335
0.498474
0.457127
0.409411
0.358504
0.310642
0.264275
0.23755
0.263886
0.31789
0.344405
0.360001
0.370884
0.361211
0.334457
0.315764
0.24815
0.106386
0.0613404
0.118056
0.17755
0.307127
0.487789
0.55952
0.586757
0.603123
0.598988
0.58415
0.563399
0.538047
0.509365
0.474492
0.433171
0.386338
0.336743
0.28981
0.246439
0.234779
0.25772
0.305276
0.330227
0.35244
0.373422
0.375891
0.354184
0.338779
0.27265
0.104026
0.0603208
0.117771
0.207442
0.402469
0.496464
0.540684
0.57772
0.583802
0.575216
0.561056
0.541351
0.51693
0.487515
0.452075
0.411178
0.36603
0.318853
0.27223
0.232769
0.229173
0.249725
0.289749
0.314262
0.339689
0.378735
0.395143
0.379491
0.361334
0.297766
0.103007
0.0610159
0.132365
0.296143
0.421831
0.480836
0.533028
0.554343
0.558234
0.55208
0.540081
0.522404
0.498592
0.469273
0.43343
0.391323
0.346916
0.30351
0.258508
0.223959
0.220952
0.241173
0.272061
0.294156
0.326571
0.375674
0.407999
0.400486
0.381667
0.3225
0.103976
0.0669405
0.18238
0.336785
0.413903
0.462805
0.511537
0.531112
0.534716
0.52888
0.518125
0.502096
0.479729
0.451311
0.415192
0.374284
0.332345
0.292823
0.252777
0.21942
0.213903
0.233194
0.25522
0.272675
0.316275
0.372013
0.413066
0.416198
0.399791
0.34719
0.106787
0.0838229
0.253169
0.348694
0.397835
0.441886
0.488947
0.508278
0.511251
0.506487
0.497313
0.482571
0.461692
0.434701
0.400008
0.361897
0.323443
0.287497
0.250772
0.221112
0.212428
0.228989
0.244837
0.260661
0.308895
0.370199
0.418856
0.428358
0.415622
0.369665
0.110456
0.145313
0.295298
0.347093
0.38069
0.420195
0.465398
0.483886
0.488305
0.485342
0.477179
0.46386
0.444992
0.420352
0.388633
0.354297
0.319928
0.287107
0.254975
0.228546
0.218918
0.228843
0.239917
0.254367
0.308283
0.372552
0.426808
0.438228
0.428077
0.388181
0.114976
0.211344
0.329594
0.343775
0.36782
0.39928
0.442108
0.460383
0.466216
0.464792
0.458634
0.44714
0.430541
0.408429
0.380989
0.350764
0.321071
0.292562
0.266521
0.244564
0.233184
0.235965
0.246157
0.260392
0.319947
0.381016
0.4361
0.446142
0.438498
0.403715
0.119463
0.228512
0.368639
0.347948
0.360997
0.38122
0.419798
0.437699
0.444764
0.444998
0.440756
0.431465
0.417735
0.398643
0.375866
0.350206
0.325865
0.302108
0.281795
0.269286
0.258033
0.253995
0.265741
0.286236
0.342884
0.396056
0.44392
0.448709
0.446089
0.418596
0.12437
0.22932
0.446152
0.367414
0.356681
0.371851
0.400518
0.415901
0.423358
0.425432
0.423396
0.41663
0.405575
0.390156
0.372308
0.351763
0.332457
0.31343
0.299078
0.29583
0.294028
0.286256
0.297878
0.324612
0.372896
0.413001
0.450268
0.45106
0.45038
0.431021
0.129205
0.225388
0.489758
0.40219
0.360574
0.367042
0.38391
0.395805
0.402893
0.406029
0.406058
0.401978
0.394263
0.382472
0.369116
0.353978
0.339333
0.325091
0.317166
0.318122
0.322014
0.320888
0.33201
0.360042
0.396509
0.427015
0.453943
0.450741
0.45495
0.441944
0.133876
0.221833
0.483964
0.475046
0.374841
0.363192
0.372481
0.379642
0.384594
0.387581
0.388813
0.387
0.382661
0.375146
0.365601
0.354999
0.34546
0.334491
0.33155
0.333062
0.336267
0.33969
0.355453
0.385348
0.419867
0.440812
0.45282
0.448619
0.458669
0.451831
0.1386
0.220897
0.465971
0.525714
0.402821
0.365077
0.366101
0.368371
0.369899
0.371501
0.372764
0.372628
0.370883
0.367441
0.3614
0.354902
0.349649
0.342807
0.342671
0.343697
0.349688
0.358464
0.379371
0.413988
0.444856
0.449089
0.443878
0.444337
0.45981
0.460111
0.141864
0.222193
0.447196
0.528571
0.446296
0.375472
0.360704
0.36098
0.358722
0.358132
0.358684
0.359228
0.359342
0.358711
0.355395
0.352586
0.351358
0.351301
0.35464
0.358804
0.371007
0.389778
0.416202
0.44902
0.462534
0.449641
0.433156
0.431259
0.457599
0.466299
0.145386
0.223011
0.433632
0.514937
0.514464
0.399056
0.362583
0.354651
0.351031
0.347587
0.346526
0.347109
0.348378
0.349352
0.347736
0.347287
0.350778
0.358227
0.368283
0.379611
0.39967
0.428454
0.455121
0.475737
0.465806
0.441605
0.418693
0.412676
0.446337
0.462976
0.14994
0.221656
0.42299
0.499621
0.528435
0.434246
0.371141
0.350544
0.343278
0.338459
0.336814
0.337003
0.338778
0.339893
0.340793
0.342016
0.350069
0.365537
0.387449
0.408978
0.43608
0.468106
0.486322
0.484085
0.457469
0.428141
0.400119
0.391875
0.43001
0.457366
0.154197
0.218962
0.413225
0.479797
0.521409
0.504294
0.390382
0.35087
0.337231
0.331681
0.329274
0.329052
0.330814
0.332344
0.335762
0.340917
0.353877
0.38055
0.417182
0.450251
0.478483
0.502293
0.503319
0.477355
0.445111
0.41332
0.380987
0.368949
0.403111
0.435485
0.151488
0.215455
0.403851
0.462301
0.509256
0.530623
0.41836
0.357051
0.335592
0.327158
0.324437
0.323008
0.324674
0.327598
0.33462
0.347242
0.366771
0.410315
0.458771
0.497446
0.515702
0.519768
0.50231
0.465342
0.430751
0.398062
0.364335
0.350164
0.372712
0.411672
0.151478
0.21176
0.391963
0.448804
0.496284
0.531177
0.471383
0.371142
0.336413
0.323406
0.319564
0.318963
0.320818
0.326503
0.339108
0.361682
0.39277
0.455842
0.506258
0.536084
0.53427
0.51514
0.488047
0.453101
0.416283
0.383492
0.352499
0.336272
0.336647
0.322677
0.133134
0.239982
0.241154
0.245278
0.24881
0.254054
0.25918
0.264656
0.269842
0.279051
0.287768
0.29774
0.308157
0.317867
0.327643
0.338558
0.351163
0.365163
0.378324
0.387332
0.39783
0.408092
0.420017
0.433506
0.446568
0.459601
0.470347
0.477124
0.479724
0.47766
0.471778
0.461751
0.44911
0.435231
0.421322
0.407045
0.392443
0.378208
0.363723
0.349186
0.334836
0.321316
0.309749
0.300314
0.290966
0.281556
0.273013
0.265079
0.257622
0.251002
0.245661
0.241627
0.238164
0.23505
0.231629
0.228266
0.225225
0.222138
0.218898
0.215276
0.211198
0.206968
0.202976
0.198669
0.19377
0.188906
0.184204
0.179512
0.175108
0.171227
0.16781
0.164875
0.162295
0.159985
0.15794
0.155969
0.154193
0.152755
0.15184
0.151333
0.150903
0.150243
0.149261
0.148052
0.146697
0.145252
0.143741
0.142182
0.140628
0.139162
0.137877
0.136815
0.136007
0.135448
0.135122
0.135021
0.135217
0.135745
0.136603
0.137505
0.138536
0.139638
0.140892
0.142581
0.145072
0.147425
0.149596
0.151533
0.15322
0.154984
0.156667
0.158203
0.159645
0.16051
0.160213
0.161519
0.163082
0.165209
0.168025
0.171631
0.176683
0.18147
0.185422
0.189661
0.196693
0.204991
0.501658
0.508504
0.514078
0.523134
0.531606
0.539118
0.549545
0.562595
0.580948
0.600523
0.622919
0.649599
0.677423
0.70731
0.743532
0.788162
0.842778
0.910225
0.989044
1.07391
1.16485
1.25369
1.33704
1.4237
1.51189
1.60574
1.68964
1.75637
1.80471
1.83951
1.86219
1.8666
1.85064
1.81395
1.76355
1.70211
1.63442
1.56259
1.48858
1.41616
1.34828
1.28605
1.22875
1.17304
1.11825
1.06354
1.01051
0.960619
0.916092
0.877887
0.844783
0.814426
0.784988
0.753442
0.721844
0.691357
0.66348
0.637244
0.612987
0.588896
0.563292
0.535947
0.508079
0.481635
0.4582
0.438178
0.421223
0.406363
0.393753
0.382916
0.373412
0.364529
0.356098
0.347695
0.339311
0.331732
0.325236
0.320066
0.315872
0.311937
0.307616
0.302601
0.296958
0.29092
0.284677
0.278365
0.272099
0.266034
0.260327
0.255127
0.250502
0.24648
0.243032
0.240145
0.237794
0.236108
0.235142
0.235196
0.235488
0.236383
0.237951
0.23981
0.242445
0.245712
0.248617
0.251261
0.25379
0.256469
0.259206
0.259795
0.25967
0.261377
0.263671
0.266979
0.271777
0.278762
0.28794
0.301657
0.314471
0.325579
0.335726
0.349593
0.360725
0.371065
0.381356
0.640011
0.650683
0.660583
0.673356
0.69167
0.710044
0.731767
0.756002
0.783263
0.814068
0.842458
0.872511
0.908187
0.941224
0.976224
1.01753
1.06454
1.12495
1.20077
1.29309
1.41311
1.53779
1.67238
1.8088
1.9352
2.05974
2.17447
2.27771
2.36901
2.44394
2.5037
2.54747
2.5689
2.56174
2.52461
2.45934
2.36536
2.26076
2.14934
2.03758
1.92993
1.82835
1.73094
1.63432
1.53763
1.44237
1.35082
1.26496
1.18755
1.12105
1.06469
1.01492
0.968977
0.924565
0.88313
0.846825
0.817207
0.794142
0.775426
0.756038
0.735897
0.713603
0.686424
0.655
0.622591
0.592159
0.565654
0.543189
0.524554
0.508715
0.494913
0.482252
0.470044
0.458835
0.448899
0.440017
0.432038
0.424678
0.41759
0.410241
0.402266
0.393726
0.384871
0.37591
0.366981
0.3582
0.34969
0.341541
0.333842
0.326694
0.320188
0.314366
0.309249
0.304793
0.30102
0.298043
0.296021
0.295069
0.29499
0.295288
0.296177
0.297526
0.299442
0.301098
0.302865
0.305063
0.308062
0.311517
0.314693
0.317975
0.321204
0.325914
0.332715
0.340393
0.348038
0.357064
0.367286
0.377207
0.387131
0.395913
0.404564
0.412696
0.420838
0.43003
0.439268
0.988172
0.999288
1.02099
1.04944
1.08853
1.12892
1.16345
1.19721
1.22783
1.25749
1.27825
1.29315
1.30707
1.31588
1.31975
1.32471
1.33105
1.34589
1.38283
1.4457
1.54768
1.696
1.89719
2.14317
2.41814
2.69575
2.94146
3.16175
3.3345
3.46452
3.55236
3.60721
3.63023
3.62005
3.57492
3.49596
3.38369
3.24637
3.09849
2.94434
2.78988
2.63939
2.4927
2.3475
2.20152
2.05455
1.90883
1.76766
1.6346
1.51198
1.39966
1.29611
1.20131
1.11463
1.03516
0.963926
0.903738
0.852926
0.80939
0.777909
0.767505
0.774839
0.780183
0.773199
0.753291
0.724607
0.693464
0.665031
0.64011
0.618795
0.600145
0.58383
0.568961
0.554481
0.540265
0.526544
0.514812
0.504227
0.494056
0.483766
0.472837