/*--------------------------------*- C++ -*----------------------------------*\
| =========                 |                                                 |
| \\      /  F ield         | OpenFOAM: The Open Source CFD Toolbox           |
|  \\    /   O peration     | Version:  2112                                  |
|   \\  /    A nd           | Website:  www.openfoam.com                      |
|    \\/     M anipulation  |                                                 |
\*---------------------------------------------------------------------------*/
FoamFile
{
    version     2.0;
    format      ascii;
    arch        "LSB;label=32;scalar=64";
    class       volScalarField;
    location    "0.00319";
    object      p;
}
// * * * * * * * * * * * * * * * * * * * * * * * * * * * * * * * * * * * * * //

dimensions      [1 -1 -2 0 0 0 0];

internalField   nonuniform List<scalar> 
13875
(
951583
984256
973636
975681
973383
974395
974534
974468
975121
975040
974961
975069
974760
974920
974448
974590
974678
974636
973722
973835
973121
975579
972389
982516
945423
733799
659526
672268
677210
670272
668567
668638
670364
677748
678978
678736
678153
670263
669327
670281
677697
678927
677260
670215
668212
669281
676927
672319
657252
730903
736889
635532
664408
653500
648230
645946
645078
645516
646598
645937
647687
648454
645839
645591
645677
647870
645707
647266
646136
646308
647719
651963
661996
632206
733649
743534
636178
665290
653649
648509
646139
645218
645575
644429
643626
645019
645939
645926
645706
645756
645603
643672
644792
646219
646518
648004
652086
662745
632814
739325
757369
639189
667842
654339
649367
646711
645628
645810
644516
643778
645105
646031
646210
646019
646013
645690
643863
644873
646513
647092
648821
652679
665036
635466
750485
759091
647859
673617
656292
651210
647925
646487
646337
644842
644263
645406
646368
646811
646655
646566
645992
644409
645189
647188
648286
650596
654571
670631
643226
751928
765180
668408
685880
661229
655017
650405
648221
647479
645749
645380
646232
647229
647977
647902
647683
646738
645558
646204
648760
650826
654512
660289
682225
666016
756159
791548
718555
711948
674793
663327
655713
651841
650056
648030
647735
648153
649099
650300
650408
649976
648578
647936
648652
652069
655911
662547
673386
707451
715786
782414
909628
828464
767338
705270
680333
666404
659188
655576
653093
652639
652483
653182
655034
655464
654708
652810
652873
654139
658898
666024
678760
702071
761304
824297
911350
1.52792e+06
1.03094e+06
836333
743573
702809
681966
671341
665859
663258
662544
661801
662053
664643
665508
664470
662232
662902
664859
670429
681390
701528
741024
832549
1.02829e+06
1.5237e+06
2.91926e+06
1.39795e+06
967638
809145
741522
709725
694309
686893
683842
682569
681236
680879
683995
685426
684414
682352
683386
686173
692597
707304
737641
801585
951154
1.35852e+06
2.87934e+06
5.64456e+06
2.35764e+06
1.32772e+06
975913
830049
771944
746213
734514
729386
726929
725101
724374
727407
729353
728763
727914
729540
734288
744922
769047
824830
962913
1.29252e+06
2.29484e+06
5.62066e+06
5.43759e+06
4.84142e+06
2.47375e+06
1.5325e+06
1.08345e+06
944936
887265
860933
848869
843466
841001
840124
842421
844640
845432
847213
851797
863459
890139
948060
1.08691e+06
1.50414e+06
2.35254e+06
4.90163e+06
5.39172e+06
4.91944e+06
4.71547e+06
4.99851e+06
4.47476e+06
1.88993e+06
1.50307e+06
1.35481e+06
1.28191e+06
1.25275e+06
1.241e+06
1.23719e+06
1.23617e+06
1.23828e+06
1.24016e+06
1.24395e+06
1.25088e+06
1.2658e+06
1.30017e+06
1.38718e+06
1.57072e+06
2.05487e+06
4.53428e+06
4.99095e+06
4.78416e+06
4.8255e+06
4.18175e+06
4.3311e+06
4.87312e+06
4.8445e+06
4.58759e+06
3.45839e+06
3.28192e+06
2.96748e+06
2.82132e+06
2.76025e+06
2.73667e+06
2.72709e+06
2.72693e+06
2.73076e+06
2.74426e+06
2.77491e+06
2.84296e+06
3.00079e+06
3.35276e+06
3.56954e+06
4.59569e+06
4.8479e+06
4.89777e+06
4.48317e+06
4.41779e+06
3.82063e+06
3.87684e+06
4.55116e+06
5.14403e+06
6.46937e+06
7.80593e+06
8.71631e+06
8.62708e+06
8.85876e+06
8.77523e+06
8.84671e+06
8.78494e+06
8.83348e+06
8.79785e+06
8.84669e+06
8.80536e+06
8.86823e+06
8.66909e+06
8.7552e+06
7.91551e+06
6.57769e+06
5.22854e+06
4.66346e+06
4.03656e+06
4.05694e+06
3.05087e+06
3.47016e+06
4.57191e+06
5.37799e+06
6.72996e+06
7.57488e+06
7.78517e+06
7.71604e+06
7.53756e+06
7.40566e+06
7.32927e+06
7.28681e+06
7.26111e+06
7.27332e+06
7.31579e+06
7.38705e+06
7.52492e+06
7.70593e+06
7.74204e+06
7.61183e+06
6.80963e+06
5.48037e+06
4.66836e+06
3.58407e+06
3.23175e+06
2.40608e+06
3.19187e+06
4.60342e+06
5.36246e+06
6.15014e+06
6.26153e+06
6.07282e+06
6.0422e+06
6.03251e+06
6.03885e+06
6.04025e+06
6.03303e+06
6.03088e+06
6.03196e+06
6.03631e+06
6.02684e+06
6.01258e+06
6.01203e+06
6.03899e+06
6.19117e+06
6.11632e+06
5.44861e+06
4.61872e+06
2.98963e+06
2.21348e+06
1.25198e+06
2.11186e+06
3.91626e+06
4.3562e+06
4.59389e+06
4.78286e+06
4.94091e+06
5.13043e+06
5.29822e+06
5.40209e+06
5.45494e+06
5.48002e+06
5.48851e+06
5.47853e+06
5.45299e+06
5.39604e+06
5.29334e+06
5.12945e+06
4.95607e+06
4.82643e+06
4.65814e+06
4.44795e+06
3.90832e+06
2.23894e+06
1.25419e+06
615291
1.35179e+06
2.87891e+06
3.23243e+06
3.42886e+06
3.74039e+06
4.13579e+06
4.4705e+06
4.69853e+06
4.83189e+06
4.9133e+06
4.96015e+06
4.97832e+06
4.9644e+06
4.9216e+06
4.84344e+06
4.71687e+06
4.49679e+06
4.16187e+06
3.7619e+06
3.45615e+06
3.23221e+06
2.7254e+06
1.50634e+06
632789
686270
1.19621e+06
1.8105e+06
2.26285e+06
2.60514e+06
3.03178e+06
3.51874e+06
3.87998e+06
4.11838e+06
4.26987e+06
4.37053e+06
4.42985e+06
4.45198e+06
4.43552e+06
4.38193e+06
4.28589e+06
4.14025e+06
3.90488e+06
3.52132e+06
3.0084e+06
2.57584e+06
2.23989e+06
1.76886e+06
1.11031e+06
672021
965618
1.06467e+06
1.23344e+06
1.70971e+06
2.06258e+06
2.55866e+06
3.00796e+06
3.33888e+06
3.57365e+06
3.73401e+06
3.84093e+06
3.90332e+06
3.92634e+06
3.9077e+06
3.84915e+06
3.74527e+06
3.58763e+06
3.35395e+06
3.0066e+06
2.53179e+06
2.01389e+06
1.67453e+06
1.20454e+06
994864
926080
1.37246e+06
1.06998e+06
1.06856e+06
1.38276e+06
1.71112e+06
2.21317e+06
2.58905e+06
2.87331e+06
3.09632e+06
3.25424e+06
3.35789e+06
3.41862e+06
3.44015e+06
3.41929e+06
3.35979e+06
3.25586e+06
3.09786e+06
2.87271e+06
2.58015e+06
2.20169e+06
1.65993e+06
1.34928e+06
1.05e+06
1.01866e+06
1.38656e+06
1.43195e+06
1.09002e+06
1.07468e+06
1.23141e+06
1.49784e+06
1.91067e+06
2.22286e+06
2.47862e+06
2.67822e+06
2.82181e+06
2.92443e+06
2.98164e+06
3.00371e+06
2.98151e+06
2.92361e+06
2.81862e+06
2.67132e+06
2.46924e+06
2.19715e+06
1.88512e+06
1.4725e+06
1.19845e+06
1.05287e+06
1.04934e+06
1.40795e+06
1.4312e+06
1.12659e+06
1.09114e+06
1.1593e+06
1.35525e+06
1.66076e+06
1.91672e+06
2.14816e+06
2.32572e+06
2.45545e+06
2.54829e+06
2.60324e+06
2.62083e+06
2.60213e+06
2.54773e+06
2.44974e+06
2.31521e+06
2.13532e+06
1.89082e+06
1.62868e+06
1.33564e+06
1.13399e+06
1.06662e+06
1.09816e+06
1.40714e+06
1.43536e+06
1.18321e+06
1.12567e+06
1.12548e+06
1.25029e+06
1.45925e+06
1.67044e+06
1.87052e+06
2.0243e+06
2.13997e+06
2.22446e+06
2.269e+06
2.28823e+06
2.26797e+06
2.22007e+06
2.13202e+06
2.00947e+06
1.85307e+06
1.64482e+06
1.42908e+06
1.2365e+06
1.10544e+06
1.09826e+06
1.16535e+06
1.40753e+06
1.44658e+06
1.27609e+06
1.16585e+06
1.12591e+06
1.17566e+06
1.3099e+06
1.47745e+06
1.64354e+06
1.77512e+06
1.87595e+06
1.94748e+06
1.98739e+06
2.00029e+06
1.98521e+06
1.93929e+06
1.8651e+06
1.75745e+06
1.62267e+06
1.45328e+06
1.27805e+06
1.15371e+06
1.10572e+06
1.14927e+06
1.29719e+06
1.42278e+06
1.48648e+06
1.46427e+06
1.20535e+06
1.12372e+06
1.12072e+06
1.19057e+06
1.31553e+06
1.44776e+06
1.55746e+06
1.64558e+06
1.70963e+06
1.74207e+06
1.75597e+06
1.73949e+06
1.70296e+06
1.63732e+06
1.54432e+06
1.43269e+06
1.29807e+06
1.16806e+06
1.10335e+06
1.10589e+06
1.18577e+06
1.46534e+06
1.46647e+06
1.57733e+06
1.54914e+06
1.23061e+06
1.11465e+06
1.08535e+06
1.10853e+06
1.19384e+06
1.29376e+06
1.38264e+06
1.4554e+06
1.50686e+06
1.53756e+06
1.54679e+06
1.53412e+06
1.50058e+06
1.44626e+06
1.36813e+06
1.27581e+06
1.17595e+06
1.08841e+06
1.06918e+06
1.09961e+06
1.21294e+06
1.52317e+06
1.56504e+06
1.77053e+06
1.6004e+06
1.24513e+06
1.09973e+06
1.05044e+06
1.04709e+06
1.09283e+06
1.16124e+06
1.22996e+06
1.29028e+06
1.33629e+06
1.35919e+06
1.3686e+06
1.35505e+06
1.32883e+06
1.28141e+06
1.21734e+06
1.14601e+06
1.07564e+06
1.02986e+06
1.03442e+06
1.08553e+06
1.23853e+06
1.58768e+06
1.72233e+06
1.83958e+06
1.63905e+06
1.27014e+06
1.08548e+06
1.0115e+06
992689
1.01314e+06
1.05758e+06
1.10749e+06
1.154e+06
1.18866e+06
1.21052e+06
1.21659e+06
1.20741e+06
1.18284e+06
1.14619e+06
1.09731e+06
1.04639e+06
1.00088e+06
980729
999680
1.07343e+06
1.25772e+06
1.62182e+06
1.86017e+06
1.83937e+06
1.66045e+06
1.31398e+06
1.08305e+06
977624
945508
943902
969559
1.00204e+06
1.03536e+06
1.06516e+06
1.08004e+06
1.08729e+06
1.07827e+06
1.0599e+06
1.0289e+06
992982
959186
931810
933558
964501
1.06861e+06
1.28823e+06
1.64689e+06
1.85869e+06
1.83224e+06
1.66331e+06
1.36948e+06
1.08494e+06
948152
899234
888653
897723
919051
940240
959297
972714
976749
970740
953758
933266
909619
887274
877200
887833
936384
1.07175e+06
1.34453e+06
1.65329e+06
1.85343e+06
1.8181e+06
1.6629e+06
1.48461e+06
1.09666e+06
926838
857150
835532
832321
842516
854604
870018
877600
882030
876194
865824
849362
835844
824753
827784
848239
915624
1.07945e+06
1.43394e+06
1.6507e+06
1.83475e+06
1.79075e+06
1.66017e+06
1.56343e+06
1.12442e+06
919784
823411
789009
780490
781723
786745
793895
800108
801790
798433
789622
781455
775415
772392
781015
815245
911614
1.10345e+06
1.58644e+06
1.64568e+06
1.79701e+06
1.764e+06
1.64229e+06
1.56153e+06
1.15376e+06
921812
796708
747146
729445
725295
725279
728861
731307
732751
728850
725559
720788
719746
723208
740257
789057
915983
1.14972e+06
1.58955e+06
1.6321e+06
1.72517e+06
1.71858e+06
1.60509e+06
1.55696e+06
1.21491e+06
932416
781529
713441
687337
678240
675237
674045
674749
674191
672667
671220
671622
673659
681093
707027
775001
923649
1.21529e+06
1.57909e+06
1.59757e+06
1.685e+06
1.66986e+06
1.55714e+06
1.54436e+06
1.33714e+06
958009
781887
688244
649204
633866
627700
625266
623160
623192
622052
623114
625190
630260
644034
681358
775735
945413
1.34758e+06
1.55706e+06
1.54259e+06
1.6451e+06
1.63689e+06
1.51243e+06
1.50922e+06
1.34533e+06
989172
785438
673353
620482
599267
589986
583820
581223
580238
580630
581864
586820
595597
615297
668546
783920
991134
1.35446e+06
1.51151e+06
1.49557e+06
1.60892e+06
1.60039e+06
1.47286e+06
1.43911e+06
1.34209e+06
1.05522e+06
799146
673870
598288
566904
552828
546785
542245
541914
542112
545560
551004
564049
594495
668842
795878
1.06345e+06
1.3482e+06
1.41637e+06
1.45635e+06
1.58314e+06
1.55695e+06
1.43406e+06
1.36188e+06
1.33044e+06
1.18765e+06
828555
678229
587680
544522
526408
515431
511288
509460
510647
514099
523607
542012
584893
672802
822990
1.21012e+06
1.33176e+06
1.33756e+06
1.42424e+06
1.54792e+06
1.52485e+06
1.40262e+06
1.30067e+06
1.29785e+06
1.18707e+06
871899
684625
588023
528355
499812
487615
481547
480501
480610
486881
497775
525709
585596
687590
881365
1.20975e+06
1.29597e+06
1.28303e+06
1.39416e+06
1.50406e+06
1.47681e+06
1.37433e+06
1.25311e+06
1.23275e+06
1.17959e+06
963043
703379
592192
523875
486042
465189
458401
455673
457733
463880
483117
520461
588606
712281
984787
1.19373e+06
1.22405e+06
1.237e+06
1.36438e+06
1.46996e+06
1.42562e+06
1.34455e+06
1.21842e+06
1.17037e+06
1.15842e+06
1.04297e+06
740571
603683
524692
470873
446818
435920
433690
435345
445994
469877
521254
598123
762016
1.04588e+06
1.15861e+06
1.16104e+06
1.20596e+06
1.33768e+06
1.42725e+06
1.38713e+06
1.31001e+06
1.19057e+06
1.11834e+06
1.11039e+06
1.03896e+06
805262
624463
526952
470770
436990
421572
416030
420675
435838
469961
526538
622485
867167
1.04075e+06
1.08956e+06
1.10818e+06
1.18243e+06
1.3022e+06
1.37571e+06
1.34597e+06
1.27684e+06
1.17095e+06
1.07524e+06
1.04413e+06
1.02628e+06
939247
669716
536634
472452
436468
411533
404302
410689
434026
471053
537863
665878
927026
1.02005e+06
1.02684e+06
1.06642e+06
1.1646e+06
1.26892e+06
1.34172e+06
1.29944e+06
1.23481e+06
1.15035e+06
1.04741e+06
995958
996639
938547
762361
559499
477610
437117
411268
399230
410554
434556
474995
562778
753770
923879
976121
979673
1.03822e+06
1.14589e+06
1.23269e+06
1.29766e+06
1.2581e+06
1.19947e+06
1.13007e+06
1.02829e+06
956424
942314
927071
844857
603137
488199
438910
411688
399713
411168
437726
486955
618209
841003
912681
923253
943913
1.02103e+06
1.12567e+06
1.19511e+06
1.2487e+06
1.17516e+06
1.14722e+06
1.10102e+06
1.0141e+06
933317
899155
900838
842994
695304
511879
445813
413893
401812
413234
445605
510763
728208
839407
885948
882942
923045
1.00614e+06
1.09625e+06
1.14107e+06
1.16181e+06
1.0462e+06
1.07623e+06
1.05984e+06
993683
914785
860886
852317
832197
766144
562253
464019
420262
407415
419380
464504
560567
763477
827740
842198
848945
906878
986470
1.05264e+06
1.07085e+06
1.03658e+06
78025.1
76596.8
75896.6
76760
76464
76743
76884.2
77192.7
77730.2
78367.8
79016.6
79638.8
80596.7
82116.2
84148.7
86626.2
89624.9
93053.1
96764.8
100657
104744
108306
110154
104044
81187.4
73597
71312.8
70824.3
70627.1
70684.1
77268.8
75596.7
75381.1
76238.6
75979.8
76177.7
76155.4
76321.8
76732.6
77331.4
77947.6
78395
78915.5
80244.8
82405.9
84835.2
87736.6
91123.4
95484.7
100102
104893
109720
113760
116254
111235
82778.4
73578.9
71320.7
70749.5
70700.4
76106
75043.9
75069.9
75953
75785.8
75918.2
75877.4
75976.4
76268.9
76717.4
77198.5
77555
77880.8
78630.8
80605
83430.3
86499
90278.7
94576.3
99839.5
105056
110459
115508
119951
121869
109174
80241.3
72889.3
71108
70773.2
74802.3
74727
74888.2
75767.7
75719.5
75821.6
75772.1
75828.8
76040.8
76397.3
76800
77120.8
77365.7
77889.6
79391.1
82297
85683
89645.7
94092.3
99086.4
105003
110620
116127
121055
125084
125061
104796
78139.9
72237.8
71041.8
74184.5
74624.7
74841.2
75722.6
75742
75844.3
75804
75837.1
76005
76313.3
76679.3
76995.5
77222.3
77682.3
78982.5
81619.3
85225.5
89265.7
93687
98567.5
104136
110487
116182
121223
125731
129166
126710
96927.8
76123.8
71926.3
74087.4
74853
75133.8
76017.5
76273.2
76452.1
76459.3
76433.2
76446.1
76609.3
76902.4
77192
77371.1
77700.3
78970.7
81234.8
84978.7
89057.5
93473.1
98215.2
103454
109263
115505
121117
125806
130056
131599
125080
88672.6
75147.9
74327.9
75389
75695.2
76574.5
77113.7
77522.4
77614.8
77599.9
77538.9
77519.6
77616.6
77747.3
77943.6
78315.7
79058.1
81081.2
84670.5
88738.6
93133.7
97719.4
102547
107903
113932
120159
125645
130138
133351
134217
118031
86577.6
75082
76155.6
76461.8
77317.5
77994.9
78403.5
78607
78708.7
78734.9
78611
78498.2
78456.4
78592.8
78746.5
79085.5
80957.6
84028.5
88068.5
92303.7
96733.5
101409
106472
112208
118576
124815
130055
134150
140505
144451
138869
76272.3
77171.6
77434.9
78086.8
78475.3
78842
79112.9
79352.5
79464.8
79563.6
79432.5
79271.3
79165.8
79085.8
79313.3
80626.9
83046.9
86865.4
90986
95379.4
100060
105053
110549
116726
123273
129202
134613
144734
169772
281775
77625.1
78283.9
78425.5
78733.3
78936.3
79260.1
79586.6
79963.1
80257.7
80494
80410.4
79933.4
79611.6
79520
79605.5
80064.3
81975.1
85385.2
89538.4
93911.1
98590.7
103598
108981
114881
121268
126194
134888
153218
197977
324764
78891.6
79273.3
79253.1
79318.2
79406.6
79708.3
80084.6
80561.7
81024.1
81316.4
81153.6
80534
80050.8
79908.3
79742
79709.6
81118.3
84035.6
88204.7
92518.9
97136.3
102141
107469
113150
118408
125154
137430
166920
262105
329263
79900.3
80034
79890.6
79839.5
79860.3
80122.6
80525.4
81120.6
81703.9
81960.8
81669.9
81192.3
80591.9
80082.6
79724.7
79622.2
80519.6
83013.6
86978.4
91291.6
95843.9
100783
105990
111494
116065
124941
144120
198982
301711
325437
80599.2
80551.1
80396.4
80346.1
80334.8
80506
80967.5
81737.6
82297.8
82522.8
82291.9
81652.6
80837
80134.8
79689.5
79543.4
80086.7
82208.8
85882.9
90239
94730.1
99544.2
104552
109761
115437
126904
155328
274157
308463
308403
80999.1
80938.3
80868.4
80870.5
80868.5
80977.9
81546.2
82181.3
82658.5
82824.3
82665.8
81886.3
80964.8
80149.6
79659
79485.8
79764.4
81520.4
84884.5
89284.1
93693
98354.9
103178
107439
115387
131851
177424
300637
305752
290229
81254.5
81318.2
81378.6
81385.9
81386.6
81467
81837.3
82349.2
82798.1
82952.3
82829.8
81973.6
80998.6
80133.9
79591.9
79382.4
79411.5
80832.7
83979.4
88336.4
92690.9
97182.1
101870
106811
116433
141927
238540
303058
298972
277075
81492.3
81712
81880.4
81797.9
81764.7
81779.5
81946.3
82381.8
82823.7
82982.6
82876.6
81988.3
80982.2
80007.8
79435.9
79115.5
78910.5
79967.6
82955.6
87258.3
91630.5
96064.5
100746
106772
119930
161376
281021
302992
288728
267403
81772.1
82013.4
82261.2
82081
81950.1
81878
81957.4
82363.3
82803.3
82961.8
82856.8
81814
80720.2
79679.3
78931
78305.9
78119.2
78817.9
81606.3
85910
90411.9
94910.3
99478
107470
127305
207422
288803
299313
278181
261160
82154.6
82363.3
82682.8
82384.9
82063.4
81833.9
81659.7
82048.6
82523.1
82670.4
82493.7
81285.3
80096.1
79115.8
78546
77587.7
77170.6
77472.8
80005
84258.6
88948
93570.9
98376.4
109333
141923
261019
289388
292418
269705
258034
82422
82476.8
82515.6
82524.9
82021
81667.4
81534.6
81604.3
82039.8
82197.4
81734.4
80440.3
79416.8
78791.8
78346.8
77207.9
76576.5
76224.7
78427.7
82464.4
87227.7
92035.9
98375.4
113928
175889
275099
286531
283947
263418
256498
83021.3
82918.8
83447
83139.4
82398.2
81852.6
81531.9
81385.8
81205.9
81109.8
80679.7
79468.5
78913.5
78524.7
77912
76382.5
75453.3
74848.3
76764.5
80646.9
85468.5
90578.9
98761.3
122384
225728
277241
281339
275274
259367
255356
82955.8
82915.1
82588.3
82818.4
82011.5
81743.9
81051.2
80555.3
80346.4
79777.9
79536
78912.6
78412.2
77391.1
75445.7
74333.3
73559.8
73260.7
74851.1
78776.1
83758.3
89020.9
100723
142927
256784
277025
275980
268378
257203
254382
84259.7
83406.2
84244.6
83786.2
83046.9
81370.5
80518
79885.3
79492.5
79219.3
79075.3
78690.2
77601.9
75275.2
74056
73392.3
72624.9
72342.7
72962.5
76906.9
82088.1
88079.5
104995
179980
266624
275297
270877
262943
255061
253302
81836.8
82881.6
82256.4
82104.1
81649
81515.8
80496.8
79688.4
79207.1
78985.9
78902.1
77601.2
75638.2
74001.4
73389
73167.6
72367.2
71943.8
71536.6
75096.6
80649.7
88327.6
112914
222844
269066
272813
265554
258814
252986
251938
87703.1
83046
83988.6
83745.1
83596.1
81638.8
80492.2
79055.4
78236.9
77910.9
77336.3
75723.7
74139.2
73338.8
73076.6
73266
72692.7
71863.7
70924.8
73556.6
79027.8
89692.4
135033
247858
269146
269859
260360
255871
251643
250690
65978.2
79511.6
81032.1
81736.8
81227.5
80258.7
79546.4
78289.9
77745
76736.5
75552.1
74110.8
73389.8
73039
72926.5
73317.4
72882.5
71874.4
70432.6
72232.5
77263
92837.5
170079
257231
267587
265616
257007
253428
250311
249201
70683.8
70626.2
70819.6
71293.6
73509.3
80860.9
103559
109988
108188
104667
100595
96710.5
93001.9
89584.5
86588.2
84110.7
82072.2
80549.7
79594.9
78975.3
78329.7
77694.1
77153.3
76841.6
76703.5
76415.5
76718.8
75858.1
76560
77995.2
70699.2
70745.2
71301.4
73484.8
82363.3
110635
116111
113669
109649
104838
100052
95437
91079.1
87692.5
84792.3
82358.8
80177
78874.4
78362.6
77915.2
77293.6
76700.4
76292.4
76120.8
76131.2
75933.3
76194.5
75331.8
75558
77238.5
70769.7
71093.4
72815.8
79950.6
108285
121675
119884
115448
110418
105018
99798.7
94541
90233.9
86443.1
83391.8
80550.4
78610.7
77866.6
77542.8
77188
76707.2
76255.9
75960.6
75858.7
75898.1
75763.9
75912.7
75045.8
75006.9
76074.1
71030
72185
77904.4
103803
124838
125008
121003
116083
110592
104975
99060
94066.7
89624.2
85666.8
82273.5
79391.4
77880.7
77358.7
77118.1
76802.8
76398.2
76037.4
75823.6
75764.5
75812.7
75708.6
75754.2
74884.2
74712.8
74784.4
71885.7
75948.1
96017.4
126446
129093
125690
121174
116144
110482
104150
98583
93695.5
89281.4
85239.3
81616.7
78989.8
77672.3
77214.5
76995.1
76687.3
76319
76006.6
75839.7
75810.5
75851.8
75748.8
75725.1
74850.6
74623.4
74179.6
75001.5
88042.6
124706
131524
130034
125771
121086
115518
109300
103487
98244.9
93502.4
89088.6
85010.4
81260.6
78946.8
77681.5
77351.9
77185.1
76928.2
76649.9
76483.8
76479.9
76517.4
76519.8
76345.5
76082.8
75195.6
74896.3
74092.4
86097.7
117089
134015
133321
130128
125632
120184
113990
107964
102603
97777
93195.1
88799.7
84730.6
81122.7
79000.9
78226.1
77906.4
77736.9
77617.3
77572.4
77626.7
77726.2
77763.2
77690
77293
76727.4
75825.8
75495.2
74384.8
136557
143926
140356
134143
130060
124856
118655
112298
106555
101484
96811.1
92386.7
88149.2
84103.8
81003
79128.7
78832.6
78645.2
78538.5
78594.5
78749.5
78996.5
79034.3
78921.7
78683.8
78263.1
77579.1
76676.9
76342.4
75204.2
280529
169459
144747
134669
129263
123371
116843
110656
105148
100149
95465.4
91068.6
86939.9
83103.1
80619.4
79519.5
79318.6
79358.1
79448.7
79652.7
79921.8
79912.6
79769.9
79483.3
79168.6
78782.8
78428.8
77743.9
77455.6
76485.5
324725
197744
153181
134958
126309
121399
115004
109087
103692
98677.9
93992
89613.4
85450.7
82018.6
80025.4
79880
79775.6
79887.9
80275.9
80773.9
80955.7
80717.9
80421.2
79969.5
79613.4
79277.6
79099.5
78803.9
78655.6
77929.1
329493
261896
166832
137493
125274
118553
113268
107569
102229
97217.5
92591.4
88274.1
84105.8
81190.6
79929
79960.5
80246.3
80394.7
80940.2
81674.7
81853.2
81510.8
81023.8
80474.1
80090.4
79781.7
79702.4
79665
79712.8
79293.3
325857
302086
198953
144200
125056
116176
111596
106079
100860
95912.9
91355
87043
83103.3
80641.4
79909.5
80008.7
80423.9
81084.4
81710.8
82397.3
82613.5
82191.2
81524.5
80911.4
80522.3
80264.3
80249.8
80307
80513
80382.8
309047
308989
274487
155455
127006
115543
109875
104637
99619
94800.3
90308.5
85960.6
82333.6
80273.4
79903.4
80006.1
80495.5
81448.7
82349.8
83099.8
83146
82841.7
82046.3
81331
80903.6
80758.2
80763.7
80833
81036.4
81062.2
290863
306318
301064
177628
131954
115495
107532
103257
98426.8
93763.3
89360.6
84976.7
81692.8
80016
79839.9
79995.8
80588.5
81620.5
82633.8
83400.1
83389.8
83164.9
82610.5
81842.2
81367.7
81307.6
81313.3
81327.7
81395.7
81397.8
277691
299535
303473
239180
142063
116508
106862
101935
97238.6
92749.8
88418
84087.3
81056.8
79725.3
79729.4
80025.8
80666
81673.7
82731.3
83528.8
83477.5
83298
82830.5
82286.4
81970.5
81906.2
81880.5
81859.5
81727.1
81618.2
268321
289269
303390
281409
161622
119981
106813
100775
96087.5
91664.8
87347
83092.6
80246.2
79327.8
79599.3
80048
80682.2
81680.3
82752.6
83567.8
83501.2
83333.7
82908
82436.2
82330.8
82344.8
82386.7
82386.5
82105.1
81840.5
261506
278651
299645
289078
208178
127381
107466
99381.7
94900.9
90427.6
86024.7
81812.4
79161.2
78679.9
78920.9
79800.1
80572.4
81527.9
82636.3
83523.9
83447.5
83293.1
82911
82478
82466.7
82538.7
82703.5
82761.5
82409.9
82126.6
258184
270069
292680
289630
261377
142101
109287
98363.2
93548.8
88986.7
84434.9
80301.1
77918.3
77838.7
78428.8
79589.8
80136.8
81013
82104.2
83079.5
83057.2
82955.5
82681.1
82312.1
82432.6
82628.9
82896.2
83117.7
82778.3
82592.2
256303
263543
284183
286643
275111
176309
113902
98361.6
92033.8
87344.9
82734.9
78841.9
76906.2
77359.6
78223.4
79464.4
79855.1
80360.1
81260.1
82236.8
82443.7
82360.7
82038.1
81969.3
82125.1
82546.2
82900.1
82846.4
82835.3
82869.3
255187
259116
275169
281221
277093
226390
122431
98781.4
90639
85667.1
81071.5
77359.1
75637.5
76233.5
77276.2
78754.6
79398.3
79709.9
80257.8
81354.9
81937.9
81741.9
81729.5
81805.3
82116
82813.2
83528.1
83723.9
83278.6
83516.1
254093
256835
268044
275655
276806
256884
143462
100829
89070.8
84041.8
79341.3
75620.1
74291.7
74604.4
75426.9
76653.2
78109.8
78925
79324.6
79973.8
80226
80761.7
80940.5
81332.1
81838.6
82065.1
82843.9
82810.5
83272.6
83419.3
252876
254695
262587
270427
274992
266561
180944
105243
88400.2
82489.5
77659.2
73942.3
73522.3
73826.7
74538.3
75016
76027.6
77805.7
78877.2
79261
79336
79723.1
80300.8
80983
81614.6
82843.2
83603.9
84516.3
83834.2
84762.8
251420
252519
258389
265044
272491
268920
224028
113478
88795.2
81190.3
76052.4
72563
73135.6
73643.2
74194.5
74095.9
74613.1
75909.3
77876.7
78932.2
78814.5
78959.6
79346
80134.8
81474.6
81695.9
82293.8
82647
83162.4
82179.8
250077
251037
255323
259559
269473
268948
248388
136435
90406.9
79648.7
74640.7
71926.1
73024.5
73765.5
74071.5
73481.2
73708.6
74462.3
76063.8
77923.8
78365
78437.9
78808.9
79658.8
81300.3
82907.4
83322.6
84013
83198
88011.1
248779
249747
252850
256642
265100
267445
257758
172014
93800.4
78205.2
73311.4
71471
73017.8
73878.1
73841.6
73179.8
73280.9
73594.8
74296.8
75826.6
76924
78025.1
78522
79680.1
80362.3
81229.4
82309
81423.3
79601
66095.9
70637
70637
70637
70637
70637
70637
70637
70637
70637
70637
70637
70637
70637
70637
70637
70637
70637
70637
70637
70637
70637
70637
70637
70637
70637
70637
70637
70637
70637
70637
70637
70637
70637
70637
70637
70637
70637
70637
70637.2
70662.6
72242.7
135539
583825
1.41413e+06
2.02213e+06
2.22918e+06
2.28174e+06
2.28173e+06
2.15247e+06
2.12202e+06
2.11246e+06
2.1184e+06
2.13617e+06
2.13962e+06
2.14168e+06
2.14064e+06
2.13587e+06
2.12214e+06
2.0914e+06
2.04159e+06
1.97428e+06
1.88824e+06
1.78183e+06
1.66481e+06
1.54494e+06
1.42868e+06
1.31897e+06
1.21759e+06
1.12549e+06
1.04194e+06
967127
900544
841958
790564
744807
703506
666044
631996
600795
572396
546587
522661
500170
479095
459543
441314
424249
408106
392814
378728
365899
354258
343770
334296
325669
317745
310381
303487
296983
290817
284990
279563
274623
270138
266002
262098
258453
255161
252318
250004
248231
246937
245973
245331
245011
244890
244850
244818
244925
245074
245269
245449
245782
246224
247142
70637
70637
70637
70636.9
70636.9
70636.9
70636.9
70636.9
70636.9
70636.9
70636.9
70636.9
70636.9
70636.9
70636.9
70636.9
70636.9
70636.9
70636.9
70636.9
70636.9
70636.9
70636.9
70636.9
70636.9
70636.9
70636.9
70636.9
70636.9
70636.9
70636.9
70636.9
70636.9
70636.9
70636.9
70636.9
70636.9
70637
70637.6
70654.3
71026.3
77398.9
163162
628923
1.28397e+06
1.95637e+06
2.42514e+06
2.58417e+06
2.60806e+06
2.59845e+06
2.5072e+06
2.32907e+06
2.1522e+06
2.00961e+06
1.9122e+06
1.84746e+06
1.79558e+06
1.75325e+06
1.71703e+06
1.67926e+06
1.63546e+06
1.58844e+06
1.53978e+06
1.48459e+06
1.42956e+06
1.37124e+06
1.30427e+06
1.22361e+06
1.13106e+06
1.04156e+06
962011
892137
830955
776319
727580
684356
645926
612261
582518
555275
530265
507138
485703
465868
447605
430698
414855
400059
385979
372383
359990
348798
338771
329637
321220
313401
306074
299175
292655
286493
280678
275263
270331
265831
261663
257728
254065
250750
247859
245478
243545
242150
241204
240627
240533
240574
240736
241138
241958
243363
244429
245313
246114
246926
248249
70637
70637
70637
70637
70637
70637
70636.9
70636.9
70636.9
70636.9
70636.9
70636.9
70636.9
70636.9
70636.9
70636.9
70636.9
70636.9
70636.9
70636.9
70636.9
70636.9
70636.9
70636.9
70636.9
70636.9
70636.9
70636.9
70636.9
70636.9
70636.9
70636.9
70636.9
70636.9
70636.9
70636.9
70637
70637.4
70651.6
70991.9
77031.6
154468
468912
780381
939319
1.09804e+06
1.29855e+06
1.53729e+06
2.09177e+06
2.63888e+06
2.81765e+06
2.84012e+06
2.82268e+06
2.72873e+06
2.52922e+06
2.28312e+06
2.05658e+06
1.86941e+06
1.72573e+06
1.6139e+06
1.53254e+06
1.47366e+06
1.42746e+06
1.38663e+06
1.33822e+06
1.27675e+06
1.1995e+06
1.12966e+06
1.06963e+06
1.0056e+06
938595
873913
814417
761579
714248
671697
634068
601034
571651
545184
520850
498261
477322
458118
440495
424093
408716
394301
380721
367730
355425
344293
334317
325393
317221
309520
302165
295184
288614
282447
276672
271305
266392
261899
257739
253829
250220
247031
244246
241940
240188
238994
238354
238160
238245
238560
239273
240546
241816
243421
244671
245985
247383
248477
250731
70637
70637
70637
70637
70637
70637
70637
70636.9
70636.9
70636.9
70636.9
70636.9
70636.9
70636.9
70636.9
70636.9
70636.9
70636.9
70636.9
70636.9
70636.9
70636.9
70636.9
70636.9
70636.9
70636.9
70636.9
70636.9
70636.9
70636.9
70636.9
70636.9
70636.9
70636.9
70636.9
70637
70637.3
70647.6
70943.1
76930.4
169579
484564
664945
755218
814806
876030
952966
1.04151e+06
1.16659e+06
1.33894e+06
1.52658e+06
1.81832e+06
2.34867e+06
2.55948e+06
2.60556e+06
2.59572e+06
2.49604e+06
2.30831e+06
2.08063e+06
1.85602e+06
1.66333e+06
1.50924e+06
1.37882e+06
1.27199e+06
1.18247e+06
1.10408e+06
1.0363e+06
971140
917902
874537
834577
794692
753207
711628
670926
632539
598914
569069
541971
518099
495801
475002
455831
438359
422239
407020
392679
379212
366669
354934
343660
332783
322929
314640
307196
299927
292653
285584
278985
272898
267234
261966
257119
252656
248489
244582
241080
238050
235501
233485
232014
231168
231173
231362
231922
233125
234928
237415
240054
242802
244725
246459
248783
251076
254136
70637
70637
70637
70637
70637
70637
70637
70636.9
70636.9
70636.9
70636.9
70636.9
70636.9
70636.9
70636.9
70636.9
70636.9
70636.9
70636.9
70636.9
70636.9
70636.9
70636.9
70636.9
70636.9
70636.9
70636.9
70636.9
70636.9
70636.9
70636.9
70636.9
70636.9
70636.9
70637
70637.1
70643.2
70847.5
75478.8
159298
494131
657521
716973
748260
779176
810126
838758
873879
917937
976131
1.04511e+06
1.12068e+06
1.23423e+06
1.38746e+06
1.62586e+06
2.09608e+06
2.34022e+06
2.39433e+06
2.38941e+06
2.32931e+06
2.1941e+06
1.97907e+06
1.72117e+06
1.44874e+06
1.2342e+06
1.09207e+06
982714
892293
814747
758424
715557
683147
654221
625564
598437
571633
542830
515473
491252
469427
449425
431697
415860
401617
388528
376218
364565
353423
342885
333075
323969
315422
307382
299747
292641
286025
279400
272765
266441
260596
255142
250069
245469
241315
237529
234133
231188
228680
226749
225272
224574
224603
224928
225816
227688
230035
232917
236383
239896
243058
245913
248963
252074
256404
260773
70637
70637
70637
70637
70637
70637
70637
70637
70636.9
70636.9
70636.9
70636.9
70636.9
70636.9
70636.9
70636.9
70636.9
70636.9
70636.9
70636.9
70636.9
70636.9
70636.9
70636.9
70636.9
70636.9
70636.9
70636.9
70636.9
70636.9
70636.9
70636.9
70636.9
70637
70637.1
70639.9
70747.9
73523
129707
453060
656318
713970
738420
750844
768490
783997
796424
810546
826809
847780
872922
903685
944920
1.00042e+06
1.07234e+06
1.1736e+06
1.30108e+06
1.47719e+06
1.78799e+06
2.09077e+06
2.18186e+06
2.18543e+06
2.07259e+06
1.8063e+06
1.48693e+06
1.17842e+06
967382
843973
763580
703965
659076
622739
590272
559143
532478
510204
492769
474917
456323
437899
420932
405296
390520
376726
364128
352655
342241
332573
323521
314986
306978
299436
292387
285776
279262
272644
266318
260153
254207
248511
243223
238387
233970
229978
226425