/*--------------------------------*- C++ -*----------------------------------*\
| =========                 |                                                 |
| \\      /  F ield         | OpenFOAM: The Open Source CFD Toolbox           |
|  \\    /   O peration     | Version:  2112                                  |
|   \\  /    A nd           | Website:  www.openfoam.com                      |
|    \\/     M anipulation  |                                                 |
\*---------------------------------------------------------------------------*/
FoamFile
{
    version     2.0;
    format      ascii;
    arch        "LSB;label=32;scalar=64";
    class       volScalarField;
    location    "0.00267";
    object      T;
}
// * * * * * * * * * * * * * * * * * * * * * * * * * * * * * * * * * * * * * //

dimensions      [0 0 0 1 0 0 0];

internalField   nonuniform List<scalar> 
13875
(
1411.9
1535.26
1482.67
1486.72
1481.08
1483.43
1483.46
1483.15
1483.71
1483.98
1485.09
1484.91
1484.56
1483.69
1484.14
1484.08
1484.02
1482.33
1483.22
1483.55
1480.89
1487.56
1480.74
1533.47
1398.19
1307.01
1356.11
1319.17
1322.06
1316.6
1317.12
1317.09
1317.76
1321.93
1323.06
1324.61
1324.52
1323.58
1320.87
1323.1
1323.42
1322.52
1317.42
1316.83
1317.16
1316.17
1321.99
1319.68
1356.36
1302
1307.17
1339.83
1314.56
1311
1303.87
1304.24
1303.69
1303.57
1304.86
1306.21
1305.93
1305.36
1305.56
1304.88
1305.88
1306.45
1305.64
1303.31
1303.36
1304.15
1303.52
1310.87
1311.61
1335.93
1296.77
1317.3
1344.87
1315.01
1308.63
1305.02
1304.72
1303.88
1303.7
1303.98
1304.27
1304.93
1304.88
1305.15
1304.95
1305.55
1304.69
1303.84
1303.49
1303.57
1304.51
1304.32
1307.67
1314.05
1343.69
1312.51
1329.46
1341.92
1316.02
1311.62
1303.4
1304.07
1303.9
1303.7
1303.86
1304.35
1305.09
1305.04
1305.42
1305.13
1305.65
1304.78
1303.68
1303.59
1303.72
1304.02
1303.17
1311.55
1312.22
1338.73
1316.88
1332.21
1351.26
1319.22
1309.86
1306.91
1306.13
1304.83
1304.31
1304.38
1304.81
1305.1
1305.31
1305.79
1305.32
1305.71
1304.66
1304.03
1304.2
1304.65
1305.93
1306.18
1308.38
1319.06
1349.21
1326.67
1339.07
1360.43
1329.29
1316.81
1306.88
1306.29
1305.42
1304.93
1304.98
1304.85
1305.7
1305.98
1306.38
1305.88
1306.44
1305.33
1304.48
1304.7
1305.29
1306.24
1306.67
1317.28
1326.04
1358.45
1321.68
1360.55
1385.24
1345.08
1321.53
1316.31
1312.04
1309.03
1307.48
1306.97
1306.39
1306.74
1307.41
1307.6
1307.21
1307.56
1306.31
1306.16
1307.09
1308.62
1311.53
1315.03
1320.76
1341.66
1381.29
1350.34
1536.26
1508.48
1387.85
1351.16
1323.28
1316.43
1312.76
1310.75
1309.76
1309.25
1309.57
1310.32
1310.24
1310.44
1310.3
1308.9
1308.97
1310.11
1312.28
1315.79
1322.01
1348.28
1384.44
1508.01
1522.92
1844.32
1580.15
1433.63
1365.78
1344.61
1328.25
1321.6
1318.26
1316.16
1315.46
1315.72
1316.52
1316.15
1316.89
1316.23
1314.9
1315.41
1317.35
1320.8
1327.88
1340.39
1363.67
1427.74
1568.26
1831.28
2511.92
1805.54
1529.81
1444.05
1363.96
1346.52
1337.17
1332.26
1329.69
1328.93
1329.31
1329.82
1329.42
1330.34
1329.59
1328.42
1329.17
1331.75
1336.23
1345.43
1361.18
1428.07
1515.4
1809.94
2447.39
2880.19
2269.97
1878.32
1510.83
1439.08
1403.29
1377.27
1368.74
1363.06
1361.53
1361.72
1361.61
1361.56
1362.18
1361.81
1361.38
1362.99
1368.6
1376.3
1404.04
1430.16
1489.68
1760
2308.01
2849.14
2839.72
2689.47
2560.97
2350.98
1612.98
1524.06
1499.77
1478.91
1469.05
1466.36
1466.39
1465.48
1467.48
1466.24
1466.58
1467.1
1470.33
1480.41
1499.73
1531
1636.81
2346.33
2420.31
2716.38
2787.89
2743.7
2677.23
2860.49
2835.44
2146.68
2150.44
1966.2
1876.11
1816.14
1799.27
1797.92
1787.45
1798.75
1792.37
1796.41
1802.81
1823.39
1884.79
1998.4
2174.08
2156.25
2847.87
2862.83
2730.56
2710.15
2659.98
2698.71
2835.39
2821.88
2835.57
3040.27
3397.05
3322.95
3508.69
3444.7
3550.83
3478.29
3568.27
3501.17
3535.58
3480.69
3514.24
3368.75
3388.93
3097.7
2866.35
2850.94
2848.42
2706.54
2672.37
2532.75
2612.18
2842.28
2955.71
2983.57
3310.37
3603.79
3700.64
3684.64
3677.99
3637.38
3648.09
3621.4
3649.17
3640.12
3670.12
3690.22
3722.07
3634.02
3395.7
3039.39
2960.99
2867.67
2658.7
2578.97
2466.58
2570.9
2707.81
2912.52
3015.49
3329.98
3578.57
3677.66
3663.68
3658.46
3618.89
3626.6
3606.31
3628.32
3618.99
3651.85
3675.32
3705.03
3623.97
3414.58
3037.58
2959.17
2767.81
2605.46
2493.22
2270.84
2522.71
2824.86
2948.98
2953.01
3184.6
3377.42
3474.38
3493.83
3507.91
3501.55
3502.48
3499.36
3507.07
3504.91
3513.82
3504.67
3485.38
3394.34
3208.87
2985.41
2978.16
2828.46
2517.7
2286.41
2188.51
2273.92
2586.79
2762.25
2741.13
2867.29
3111.91
3303.07
3379.63
3402.99
3407.42
3408.44
3409.44
3414.42
3406.97
3406.12
3398.2
3348.09
3159.85
2907.46
2761.79
2779.34
2624.92
2294.65
2211.24
2284.15
2227.58
2357.73
2511.15
2544.55
2625.09
2839.74
3089.93
3244.21
3305.82
3314.14
3318.62
3318.5
3320.92
3312.75
3312.62
3272.5
3129.21
2866.78
2649.36
2566.39
2538.31
2327.54
2221.44
2309.04
2921.07
2268.86
2175.2
2312.86
2384.29
2465.4
2660.45
2907.83
3091.96
3186.56
3214.17
3218.54
3219.76
3220.69
3213.97
3194.63
3112.88
2927.38
2672.39
2479.64
2401.25
2319.38
2152.93
2245.11
2917.81
2898.71
2050.04
1973.6
2160.99
2256.86
2355.04
2523.88
2759.41
2957.3
3069.24
3101.28
3112.65
3112.34
3113.88
3099.64
3072.93
2968.63
2766.52
2532.06
2370.3
2267.23
2159.41
1967.73
2039
2887.48
2901.73
2059.57
1884.25
2041.91
2154.41
2265.36
2408.46
2624.16
2819.9
2946.46
2992.41
3001.6
3004.61
3002.92
2992.15
2953.7
2834.41
2633.35
2420
2284.37
2166.52
2044.58
1857
2049.99
2977.76
2834.25
2039.79
1870.51
1989.15
2079.62
2181.16
2318
2523.89
2710.36
2832.74
2878.2
2895.92
2896.36
2896.95
2878.19
2841.16
2727.66
2532.28
2325.16
2194.6
2089.5
1991.65
1858.64
2016.6
2822.3
2762.19
2033.2
1898.65
1951.23
2015.34
2099.49
2230.19
2427.74
2602.94
2726.93
2777.48
2789.02
2793.42
2790.66
2778.58
2735.53
2617.39
2431.57
2232.85
2109.76
2034.89
1960.92
1881.31
2031.45
2790.15
2733.3
2055.63
1917.57
1939.83
1968.84
2033.64
2162.42
2348.65
2513.81
2628.34
2673.09
2691.48
2692.31
2692.82
2673.01
2636.88
2533.87
2358.31
2167.34
2041.32
1981.03
1952.68
1899.86
2036.73
2727.04
2703.86
2084.91
1941.88
1929.94
1925.6
1976.11
2099.09
2274.47
2428.66
2539.1
2585.02
2593.36
2597.99
2594.04
2584.3
2544.61
2445.95
2284.01
2102.75
1982.64
1940.98
1944.77
1935.35
2079.58
2716.83
2705.63
2148.94
1981.43
1930.81
1898.06
1937.51
2058.16
2220.93
2363.46
2455.65
2491.11
2506.18
2507.17
2507.63
2488.68
2458.23
2375.52
2226.45
2058.37
1939.44
1908.49
1945.14
1967.2
2136.84
2720.01
2736.51
2159.18
1979.24
1922.63
1882.97
1904.64
2009.86
2159.61
2289.02
2375.51
2414.07
2418.29
2423.89
2418.09
2413.61
2378.37
2304.65
2172.39
2016.55
1912.02
1897
1936.54
1983.84
2122.96
2716.12
2790.31
2176.85
2000.81
1930
1868.36
1886.51
1991.05
2125.23
2238.84
2305.29
2330.68
2343.16
2343.31
2342.79
2326.84
2304.28
2245.74
2130.96
1991.84
1889.35
1877.98
1940.38
1996.01
2155.72
2761.91
2756.35
2175.66
1985.91
1922.32
1850.19
1877.22
1963.87
2081.79
2176.79
2232.91
2266.21
2263.5
2270.92
2264.17
2263.91
2233.28
2183.37
2085.68
1961.44
1877.45
1862.47
1931.88
1995.36
2156.51
2755.02
2753.59
2182.16
2018.22
1933.21
1842.35
1861.69
1949.06
2053.88
2133.19
2175.14
2191.19
2200.04
2200.52
2200.14
2187.19
2173.61
2139.01
2061.16
1949.05
1862.74
1855.46
1933.25
2006.34
2164.54
2723.7
2727.7
2180.5
2030.9
1915.37
1835.1
1856.05
1930.03
2015.01
2079.64
2110.3
2138.85
2130.05
2138.31
2130.62
2135.39
2110.29
2082.91
2019.79
1928.37
1852.36
1844.47
1928.86
2026.89
2162.3
2716.84
2698.02
2173.24
2077.74
1941.95
1840.74
1843.05
1920.16
1994.2
2044.56
2065.1
2073.67
2076.77
2077.42
2077.59
2068.37
2063.38
2047.37
1999.39
1915.81
1837.46
1846.7
1939.6
2061.29
2165.23
2691.62
2693.18
2182.21
2102.42
1929.43
1847.66
1838.2
1898.64
1956.96
1993.49
2007
2031.23
2016.28
2024.56
2016.57
2027.32
2007.57
1997.05
1967.37
1905.6
1831.22
1857.86
1942.56
2120.45
2161.37
2669.44
2666.69
2174.03
2099.3
1961.98
1864.69
1832.62
1888.32
1938.34
1966.12
1973.44
1975.67
1973.48
1973.05
1973.66
1969.38
1971.87
1968.33
1944.03
1890.95
1825.9
1869.46
1968.05
2117.87
2167.82
2642.52
2636.33
2161
2093.22
1976.27
1877.5
1842.09
1874.18
1903.87
1919.23
1920.94
1942.25
1920.42
1929.26
1921.25
1937.86
1922.78
1921.29
1914.39
1886.03
1828.17
1879.19
1993.56
2114.51
2154.03
2616.61
2614.86
2145.17
2090.66
2040.3
1904.27
1851.92
1867
1887.03
1895.68
1895.36
1894.37
1887.62
1886.24
1888.18
1887.98
1894.67
1899.03
1890.38
1881.92
1850.44
1899.17
2050.94
2106.69
2136.86
2585.46
2595.93
2135.36
2075.73
2030.91
1920.13
1870.77
1865.27
1859.2
1854.6
1846.81
1867.08
1841.37
1850.5
1842.73
1861.96
1849.67
1857.66
1868.65
1882.03
1867.47
1925.44
2049.19
2091.39
2121.09
2572.52
2566.66
2114.4
2048.2
2035.72
1967.61
1888.3
1879.49
1848.77
1838.9
1830.63
1826.3
1815.66
1814.63
1817.26
1819.2
1829.63
1841.86
1852.04
1895.23
1890.06
1966.86
2044.4
2056.65
2112.83
2549.56
2555.03
2109.46
2017.19
2018.66
2025.2
1921.79
1893.36
1835.57
1806.81
1786.59
1804.29
1775.85
1785.01
1777.1
1798.71
1788.7
1811.96
1844.62
1915.49
1916.75
2033.41
2036.21
2024.61
2095.11
2528.88
2528.41
2097.31
1992.26
2011.33
2028.94
1948.28
1897.63
1849.67
1801.96
1782.14
1769.7
1756.62
1755.13
1757.31
1763.03
1782.03
1806.4
1850.37
1926.03
1962.6
2032.26
2018.79
2000.82
2090.98
2508
2509.03
2087.36
1972.94
1973.84
2013.94
2012.31
1922.51
1853.97
1786.48
1743.27
1753.3
1721.54
1730.75
1723.14
1748.1
1745.64
1793.36
1856.82
1951.96
2025.69
2012.65
1985.03
1982.25
2084.4
2493.11
2477.99
2080.95
1957.59
1948.1
2003.21
2045.98
1943.74
1873.48
1797.49
1760.74
1728.28
1708.31
1706.06
1709.71
1721.83
1761.57
1799.95
1868.43
1989.84
2047.65
2000.59
1956.37
1965.91
2067.94
2463.84
2463.85
2077.45
1950.61
1915.51
1966.34
2028.61
2001.62
1888.76
1797.31
1724.99
1722.49
1680.73
1687.61
1682.74
1718.16
1730.64
1807.32
1890.57
2064.35
2034.79
1953.76
1927.72
1959.14
2067.65
2450.11
2432.9
2056.3
1936.65
1900.21
1935.87
2016.14
2081.1
1944.58
1812.98
1766.57
1717.9
1682.56
1673.55
1683.09
1709.75
1765.21
1819.59
1930.26
2085.29
2008.92
1926.65
1906.83
1947.95
2052.63
2420.05
2419.77
2055.24
1935.88
1879.32
1898.27
1988.9
2060.61
2024.34
1835.46
1733.27
1722.91
1667.06
1668.83
1669.03
1717.45
1736.45
1844.71
2012.78
2070.65
1978.09
1892.31
1892.38
1943.76
2044.23
2409.36
2383.15
2034.34
1921.18
1874.78
1881.79
1947.22
2046.1
2069.07
1883.57
1784.76
1721.27
1683.82
1670.01
1685.97
1714.25
1784.21
1899.58
2057.5
2051.13
1932.29
1878.35
1881.74
1930.78
2028.04
2364.53
2352.91
2023.53
1914.78
1858.85
1858.91
1918.59
2016.39
2051
1988.87
1764.99
1736.46
1668.5
1673.06
1671.01
1731.49
1768.41
2006.57
2046.4
2024.36
1903.68
1856.95
1873.28
1923.41
2016.41
2338.08
2214.37
1975.17
1889
1855.03
1854.27
1883.03
1977.24
2037.63
2015.09
1868.62
1754.31
1696.68
1680.9
1697.97
1747.29
1861.29
2008.52
2030.69
1984.2
1873.22
1852.57
1861.54
1898.1
1966.5
2197.24
281.979
286.647
287.709
288.579
289.206
289.768
290.309
291.024
292.093
293.521
295.479
297.888
300.371
302.239
301.821
292.333
281.049
276.507
274.819
274.264
274.083
274.027
274.009
274.003
273.999
274
273.996
274.001
273.996
274.001
284.903
286.282
286.391
286.856
287.35
287.893
288.455
289.135
290.108
291.544
293.639
296.308
299.408
302.62
305.976
308.792
301.769
283.735
277.169
274.919
274.271
274.079
274.022
274.006
273.999
274
273.993
274.001
273.989
274.011
286.205
286.754
286.339
286.688
287.012
287.533
288.104
288.783
289.765
291.33
293.68
296.681
300.223
304.059
307.788
311.222
313.19
304.751
283.821
276.9
274.788
274.217
274.056
274.014
274
274.001
273.993
274.001
273.992
274.009
286.647
286.845
285.996
286.36
286.47
286.965
287.508
288.113
288.98
290.494
292.945
296.247
300.172
304.21
308.053
311.494
314.595
316.437
306.362
283.314
276.475
274.631
274.16
274.038
274.005
274.002
273.995
274.001
273.995
274.006
286.739
286.229
285.278
285.618
285.554
286.126
286.727
287.418
288.213
289.491
291.668
294.666
298.453
302.949
307.587
311.55
314.783
317.828
319.461
306.001
282.22
275.976
274.476
274.113
274.022
274.005
273.997
274.001
273.996
274.004
285.974
284.938
284.345
284.436
284.367
284.997
285.693
286.488
287.217
288.192
290.089
292.913
296.542
300.812
305.727
310.716
314.879
318.156
321.166
322.332
302.733
280.667
275.48
274.341
274.072
274.015
273.999
274.001
273.998
274.003
284.805
283.589
283.269
283.12
283.111
283.759
284.516
285.377
286.051
286.756
288.255
290.986
294.585
298.758
303.525
308.885
314.145
318.34
321.628
324.585
324.795
296.811
278.984
275.053
274.227
274.047
274.005
274.002
273.998
274.002
283.563
282.464
282.207
281.967
281.995
282.653
283.413
284.26
284.889
285.435
286.491
288.917
292.631
296.83
301.525
306.72
312.454
317.831
321.921
325.286
327.946
325.875
290.446
277.464
274.705
274.147
274.026
274.005
273.999
274.002
282.47
281.891
281.714
281.371
281.443
281.85
282.466
283.195
283.758
284.213
284.935
286.934
290.638
294.973
299.711
304.79
310.38
316.4
321.727
325.666
329.209
331.148
322.048
285.202
276.255
274.45
274.088
274.017
274.001
274.002
281.966
281.821
281.716
281.381
281.494
281.727
282.027
282.476
282.844
283.117
283.434
285.288
288.622
293.216
298.056
303.144
308.565
314.537
320.694
325.813
329.696
333.314
334.397
312.2
281.429
275.407
274.271
274.052
274.008
274.003
281.843
281.95
282.053
281.787
281.872
282.029
282.296
282.638
282.889
283.001
283.129
284.009
286.966
291.523
296.594
301.755
307.132
312.881
319.192
325.317
330.119
334.132
337.523
337.168
299.601
278.591
274.841
274.157
274.028
274.007
281.824
282.198
282.56
282.536
282.683
282.898
283.083
283.297
283.372
283.395
283.504
283.812
285.899
290.03
295.427
300.653
306.075
311.686
317.8
324.33
330.165
334.67
338.858
341.437
335
288.558
276.665
274.48
274.085
274.018
281.959
282.598
283.026
283.507
284.091
284.56
284.751
284.619
284.183
284.086
284.024
284.121
285.507
289.009
294.463
299.82
305.341
310.946
316.859
323.26
329.677
335.102
339.485
343.679
345.002
321.65
282.579
275.483
274.26
274.051
282.103
282.792
283.342
284.423
285.607
286.417
286.841
286.128
285.266
284.753
284.586
284.662
285.503
288.464
293.572
299.12
304.743
310.436
316.286
322.39
328.851
334.984
340.05
344.644
348.562
347.985
303.827
278.756
274.791
274.149
282.434
283.095
283.78
285.034
286.372
287.266
287.81
287.132
286.194
285.52
285.218
285.307
285.481
288.006
292.545
298.341
304.025
309.836
315.702
321.657
328.004
334.446
340.346
345.234
350.248
353.073
343.665
288.944
276.462
274.443
282.606
283.423
284.164
285.498
286.964
287.974
288.717
288.223
287.341
286.279
285.85
285.802
285.763
287.806
291.711
297.543
303.288
309.166
315.073
320.98
327.266
333.743
340.23
345.957
351.021
355.873
356.401
324.234
281.861
275.337
283.27
283.981
284.758
286.115
287.757
289.016
290.032
289.909
288.862
287.876
287.43
287.184
287.104
288.138
291.508
297.237
303.006
308.81
314.635
320.471
326.592
333.014
339.839
346.285
351.866
357.462
361.32
358.37
300.508
278.159
283.461
284.498
285.34
287.345
289.737
291.758
293.493
293.634
292.527
291.41
290.651
289.987
289.531
289.353
292.246
297.635
303.312
308.88
314.558
320.329
326.231
332.636
339.459
346.34
352.577
358.26
363.72
364.485
342.252
286.789
284.179
285.322
286.93
290.916
295.213
298.634
301.269
301.383
299.618
297.82
296.126
294.672
293.427
292.276
293.949
298.982
304.392
309.561
315.022
320.641
326.347
332.819
339.41
346.333
353.153
359.196
365.079
369.449
369.172
316.351
284.368
286.445
290.586
299.155
308.206
314.069
317.528
315.741
312.727
309.021
305.702
302.611
299.305
297.199
297.871
301.739
307.025
311.683
316.481
321.745
327.271
333.641
339.978
346.577
353.514
360.153
366.24
372.874
376.86
366.333
285.354
289.082
299.756
321.045
339.25
347.167
348.013
344.781
338.058
329.995
322.083
315.398
309.787
305.84
304.62
306.965
311.556
315.351
319.231
323.937
329.161
334.893
341.159
347.451
353.904
360.774
367.039
374.768
385.83
407.4
284.43
295.34
324.695
379.947
409.844
413.636
404.664
395.53
379.362
360.728
346.915
335.972
326.419
319.228
315.309
315.286
318.339
320.748
323.496
327.191
331.805
336.819
342.549
348.813
354.882
361.605
366.69
376.465
396.544
444.102
293.334
311.979
398.702
503.949
532.832
511.753
489.654
466.082
434.639
403.301
381.845
365.069
350.51
338.733
330.97
327.587
327.551
327.513
329.066
331.458
335.032
339.476
344.424
350.268
356.682
362.559
368.624
380.964
410.16
475.864
276.609
371.338
586.924
665.137
681.234
625.955
603.385
556.082
503.338
459.065
427.38
401.888
380.561
362.707
348.04
338.991
336.93
335.378
335.346
336.676
339.202
342.82
347.324
352.525
358.471
364.626
371.646
387.03
425.265
503.794
308.424
541.159
817.815
826.421
835.803
784.735
726.39
666.739
579.488
524.297
481.888
445.079
414.86
388.517
367.145
353.618
350.247
346.792
344.776
344.03
344.849
347.18
350.975
355.603
360.903
366.716
375.467
394.242
440.484
527.072
274.001
273.996
274.001
273.996
274
273.999
274.003
274.009
274.026
274.082
274.26
274.807
276.468
280.945
292.051
301.669
302.16
300.315
297.844
295.439
293.481
292.054
290.985
290.271
289.731
289.171
288.547
287.68
286.617
281.956
274.011
273.989
274.001
273.993
274
273.999
274.006
274.022
274.078
274.267
274.905
277.115
283.581
301.397
308.711
305.929
302.576
299.367
296.271
293.603
291.508
290.072
289.098
288.419
287.858
287.318
286.826
286.364
286.257
284.885
274.009
273.992
274.001
273.993
274.001
274
274.014
274.056
274.214
274.776
276.847
283.654
304.331
313.088
311.158
307.737
304.018
300.189
296.647
293.648
291.298
289.731
288.747
288.068
287.498
286.98
286.657
286.31
286.725
286.177
274.006
273.995
274.001
273.995
274.002
274.005
274.037
274.158
274.62
276.427
283.142
305.881
316.328
314.52
311.429
308.002
304.171
300.141
296.22
292.919
290.464
288.947
288.077
287.472
286.929
286.435
286.324
285.961
286.814
286.611
274.004
273.996
274.001
273.997
274.005
274.021
274.111
274.468
275.935
282.056
305.453
319.338
317.739
314.704
311.486
307.538
302.911
298.418
294.631
291.633
289.453
288.173
287.376
286.684
286.084
285.512
285.575
285.233
286.185
286.702
274.003
273.998
274
273.999
274.014
274.071
274.334
275.449
280.523
302.102
322.177
321.061
318.066
314.805
310.659
305.684
300.772
296.505
292.875
290.05
288.148
287.17
286.441
285.646
284.949
284.318
284.385
284.29
284.885
285.929
274.002
273.998
274.001
274.005
274.046
274.223
275.03
278.865
296.209
324.574
324.458
321.527
318.254
314.079
308.832
303.475
298.709
294.538
290.938
288.206
286.7
285.994
285.322
284.463
283.704
283.053
283.06
283.207
283.523
284.744
274.002
273.999
274.005
274.025
274.144
274.689
277.377
289.954
325.449
327.781
325.167
321.817
317.75
312.388
306.661
301.466
296.771
292.574
288.858
286.427
285.362
284.817
284.194
283.35
282.587
281.929
281.899
282.137
282.387
283.485
274.002
274.001
274.016
274.086
274.44
276.195
284.904
321.255
330.964
329.079
325.547
321.631
316.326
310.315
304.728
299.65
294.914
290.583
286.87
284.851
284.117
283.661
283.112
282.394
281.794
281.389
281.311
281.639
281.808
282.375
274.003
274.008
274.051
274.264
275.37
281.22
311.174
334.197
333.179
329.57
325.701
320.608
314.461
308.491
303.073
297.988
293.151
288.562
285.178
283.368
283.078
282.817
282.449
281.999
281.697
281.455
281.333
281.648
281.745
281.901
274.007
274.027
274.153
274.818
278.455
298.743
336.881
337.376
334.017
329.996
325.224
319.12
312.813
307.065
301.691
296.54
291.474
286.924
283.955
283.133
283.019
282.917
282.652
282.298
282.018
281.862
281.768
282.016
281.907
281.817
274.018
274.083
274.467
276.584
288.079
334.149
341.266
338.755
334.554
330.067
324.266
317.742
311.63
306.024
300.61
295.399
290.011
285.903
283.837
283.549
283.437
283.419
283.346
283.126
282.94
282.727
282.572
282.584
282.214
281.815
274.05
274.253
275.44
282.315
320.427
344.821
343.582
339.388
335.001
329.614
323.226
316.829
310.925
305.328
299.813
294.481
289.04
285.568
284.202
284.096
284.165
284.263
284.716
284.835
284.669
284.205
283.622
283.134
282.693
282.028
274.145
274.768
278.605
302.759
347.735
348.456
344.581
339.954
334.922
328.834
322.392
316.296
310.456
304.775
299.156
293.634
288.537
285.569
284.769
284.683
284.842
285.417
286.348
287.15
286.72
285.897
284.68
283.547
282.977
282.266
274.431
276.386
288.462
342.707
352.949
350.193
345.171
340.294
334.436
328.022
321.688
315.747
309.893
304.106
298.421
292.641
288.085
285.398
285.389
285.302
285.627
286.38
287.394
288.224
287.647
286.737
285.377
284.084
283.358
282.686
275.298
281.617
322.925
356.27
355.827
350.993
345.906
340.217
333.77
327.311
321.039
315.14
309.229
303.352
297.611
291.767
287.867
285.843
285.769
285.916
286.432
287.557
288.478
289.183
288.425
287.39
285.887
284.563
283.794
282.906
278.032
299.474
358.093
361.283
357.449
351.831
346.27
339.865
333.062
326.644
320.512
314.668
308.825
303.014
297.249
291.481
288.162
287.253
287.362
287.732
288.293
289.438
290.423
290.665
289.606
288.251
286.559
285.213
284.461
283.703
286.431
341.216
364.434
363.714
358.244
352.56
346.367
339.505
332.677
326.26
320.339
314.561
308.875
303.294
297.615
292.148
289.471
289.759
290.276
291.036
291.937
293.268
294.498
294.103
292.282
290.238
287.784
285.781
285.043
284.012
315.16
368.976
369.403
365.096
359.185
353.172
346.387
339.45
332.837
326.349
320.627
315.009
309.555
304.374
298.959
293.898
292.521
293.693
295.033
296.56
298.384
300.419
302.408
301.96
299.211
295.565
291.337
287.406
285.928
284.819
365.375
376.833
372.899
366.248
360.169
353.553
346.63
340.012
333.664
327.259
321.72
316.453
311.675
306.961
301.811
297.989
297.645
299.678
303.091
306.239
309.958
313.657
316.804
318.452
314.939
308.732
299.644
291.128
287.073
285.005
406.787
385.789
374.821
367.076
360.816
353.873
347.472
341.178
334.902
329.129
323.888
319.176
315.288
311.443
307.095
304.86
306.351
310.375
316.205
322.819
331.139
339.232
346.261
349.39
348.6
340.803
322.413
300.652
289.725
285.892
443.787
396.431
376.519
366.739
361.647
354.968
348.815
342.559
336.778
331.752
327.113
323.412
320.641
318.18
315.412
315.55
319.776
327.164
337.158
347.988
362.502
380.879
397.416
406.914
415.75
413.409
384.101
326.765
296.134
284.767
475.767
410.115
380.975
368.675
362.603
356.726
350.301
344.393
339.432
334.953
331.313
328.884
327.323
327.309
327.651
331.175
339.327
351.34
366.786
383.1
406.29
436.872
468.568
492.748
513.708
538.574
510.757
404.761
313.45
293.867
503.917
425.285
387.077
371.687
364.669
358.496
352.508
347.272
342.724
339.032
336.444
335.074
335.122
336.728
339.113
348.471
363.346
381.46
404.212
428.677
462.673
508.347
558.404
606.797
631.084
689.815
675.254
598.663
375.577
277.068
527.38
440.576
394.296
375.515
366.774
360.895
355.543
350.885
347.03
344.538
343.598
344.312
346.488
350.081
353.907
367.768
389.544
415.973
447.603
483.646
526.946
587.3
670.834
728.81
789.627
849.294
840.548
830.969
547.601
309.74
274.002
274.002
274.002
274.002
274.002
274.002
274.002
274.002
274.002
274.002
274.002
274.002
274.002
274.002
274.002
274.002
274.002
274.002
274.002
274.002
274.002
274.002
274.002
274.002
274.002
274.002
274.002
274.002
274.002
274.002
274.002
274.002
274.002
274.002
274.002
274.002
274.002
274.002
274.002
274.002
274.002
274.002
274.002
274.002
274.002
274.002
274.002
274.002
274.002
274.002
274.002
274.002
274.002
274.002
274.002
274.002
274.002
274.002
274.002
274.002
274.003
274.014
274.152
275.796
294.678
425.234
654.083
807.176
898.205
967.246
1024.39
1072.65
1119.15
1145.38
1150.82
1150.58
1148.48
1141.46
1128.8
1105.64
1074.94
1042.6
1011.8
984.514
960.094
937.357
916.332
896.548
877.668
859.786
842.924
827.003
811.801
797.273
783.356
769.954
756.839
743.736
730.638
717.559
705.67
694.667
683.76
673.145
662.978
653.088
643.628
634.962
626.976
619.4
612.503
605.926
600.011
594.735
589.758
585.038
581.188
580.945
581.137
581.537
581.556
579.987
575.834
563.489
545.964
274.001
274.001
274.001
274.001
274.001
274.001
274.001
274.001
274.001
274.001
274.001
274.001
274.001
274.001
274.001
274.001
274.001
274.001
274.001
274.001
274.001
274.001
274.001
274.001
274.001
274.001
274.001
274.001
274.001
274.001
274.001
274.001
274.001
274.001
274.001
274.001
274.001
274.001
274.001
274.001
274.001
274.001
274.001
274.001
274.001
274.001
274.001
274.001
274.001
274.001
274.001
274.001
274.001
274.001
274.001
274.001
274.001
274.001
274.001
274.002
274.023
274.33
278.805
342.479
585.689
741.32
778.768
795.953
822.907
857.291
893.305
934.149
977.56
1017.28
1046.87
1067.3
1081.33
1091.59
1099.47
1111.67
1126.66
1123.36
1114.08
1098.9
1079.87
1058.77
1036.46
1014.23
991.62
968.788
947.517
927.473
907.697
888.471
869.866
852.064
835.004
818.295
801.832
786.07
771.644
758.4
746.232
735.16
724.781
714.654
704.627
694.381
684.069
673.438
663.225
653.09
643.882
635.144
626.809
618.499
607.515
592.565
573.929
552.348
528.757
505.333
486.198
471.185
455.958
274
274
274
274
274
274
274
274
274
274
274
274
274
274
274
274
274
274
274
274
274
274
274
274
274
274
274
274
274
274
274
274
274
274
274
274
274
274
274
274
274
274
274
274
274
274
274
274
274
274
274
274
274
274
274
274
274
274
274.002
274.038
274.658
285.504
426.132
710.072
783.114
783.079
783.152
787.192
798.983
813.722
830.079
843.111
856.394
868.379
880.271
895.881
910.946
925.275
940.479
956.078
976.521
1000.13
1020.66
1041.86
1058.86
1069.59
1075.58
1076.96
1075.68
1068.93
1057.95
1044.57
1029.43
1012.44
991.853
970.966
950.926
932.188
914.565
897.845
882.111
867.277
853.043
839.54
826.216
812.732
798.942
784.43
768.936
750.794
730.41
707.27
682.094
653.987
624.027
592.055
560.848
532.201
506.003
482.185
460.849
442.275
426.594
413.617
403.067
274
274
274
274
274
274
274
274
274
274
274
274
274
274
274
274
274
274
274
274
274
274
274
274
274
274
274
274
274
274
274
274
274
274
274
274
274
274
274
274
274
274
274
274
274
274
274
274
274
274
274
274
274
274
274
274
274
274.003
274.057
275.163
297.382
521.769
770.77
796.989
793.461
792.415
794.152
799.286
806.731
814.471
821.922
826.391
833.083
840.619
846.634
856.842
864.695
871.13
877.909
885.035
891.868
897.105
903.289
909.932
914.935
919.2
923.109
925.869
928.11
929.177
930.145
930.903
930.088
930.901
935.936
939.026
938.465
934.282
928.078
918.623
906.266
890.811
872.218
849.853
824.68
796.566
765.338
731.12
694.52
659.852
628.483
597.783
568.876
541.941
517.052
494.233
474.341
456.67
440.003
424.662
411.713
401.311
392.743
385.497
379.844
274
274
274
274
274
274
274
274
274
274
274
274
274
274
274
274
274
274
274
274
274
274
274
274
274
274
274
274
274
274
274
274
274
274
274
274
274
274
274
274
274
274
274
274
274
274
274
274
274
274
274
274
274
274
274
274
274.003
274.075
275.809
315.413
607.671
797.196
805.098
802.209
803.453
806.645
812.42
819.304
826.168
833.518
838.334
843.246
847.747
851.565
856.277
863.402
868.303
872.869
874.572
875.092
873.624
869.654
867.243
865.578
863.525
861.247
858.627
854.601
850.022
845.397
841.733
838.483
833.454
827.585
822.503
817.579
812.125
805.92
798.717
789.806
778.882
765.745
750.048
731.3
710.185
687.132
662.968
638.036
612.619
587.597
562.944
538.464
515.815
494.658
475.662
457.427
441.245
427.222
414.658
403.116
392.79
384.384
377.885
372.757
368.821
274
274
274
274
274
274
274
274
274
274
274
274
274
274
274
274
274
274
274
274
274
274
274
274
274
274
274
274
274
274
274
274
274
274
274
274
274
274
274
274
274
274
274
274
274
274
274
274
274
274
274
274
274
274
274
274.003
274.089
276.439
337.289
668.789
809.197
811.59
810.141
813.104
818.357
825.502
832.813
839.785
846.332
854.56
861.94
873.152
885.996
900.67
919.037
936.471
952.93
966.94
970.353
967.926
965.931
962.758
954.526
947.091
936.9
926.672
913.222
897.445
880.983
866.615
852.465
840.151
827.274
815.738
806.11
797.648
789.128
780.831
772.233
763.15
753.117
741.793
728.566
712.469
693.711
672.419
649.34
625.128
600.489
576.328
552.099
528.164
506.062
485.631
467.286
449.036
433.109
419.162
407.162
396.958
387.533
378.951
372.563
368.133
364.155
274
274
274
274
274
274
274
274
274
274
274
274
274
274
274
274
274
274
274
274
274
274
274
274
274
274
274
274
274
274
274
274
274
274
274
274
274
274
274
274
274
274
274
274
274
274
274
274
274
274
274
274
274
274
274.003
274.091
276.793
353.584
703.641
816.558
816.989
817.137
822.425
828.981
836.288
843.823
850.728
859.137
869.149
883.375
902.61
930.284
962.572
998.934
1040.05
1075.31
1099.42
1119.92
1131.07
1133.29
1130.96
1121.16
1105.77
1088.05
1066.89
1046.74
1027.86
1007.36
985.588
964.964
944.943
929.237
914.09
901.741
890.854
881.368
870.833
860.677
849.914
838.844
827.433
814.934
800.161
781.894
759.996
734.798
706.675
676.185
644.567
613.907
583.724
554.344
527.341
502.392
480.501
458.906
440.535
424.17
410.012
398.13
387.658
378.219
369.912
363.866
359.408
274
274
274
274
274
274
274
274
274
274
274
274
274
274
274
274
274
274
274
274
274
274
274
274
274
274
274
274
274
274
274
274
274
274
274
274
274
274
274
274
274
274
274
274
274
274
274
274
274
274
274
274
274
274.002
274.081
276.683
356.021
715.623
821.322
821.43
823.391
830.792
838.302
845.879
853.508
861.115
871.112
886.357
906.067
936.109
978.958
1036.6
1103.89
1180.01
1258.36
1326.19
1371.18
1397.34
1404.74
1397.53
1384.19
1360.09
1332.83
1306.1
1276.12
1248.35
1220.36
1189.97
1157.03
1125.99
1098.15
1073.89
1051.35
1033.31
1017.83
1005.24
992.428
980.434
968.469
956.588
944.866
932.105
917.596
898.962
875.007
845.152
809.732
770.014
727.933
686.347
645.294
605.877
569.818
536.79
507.583
479.271
455.861
435.065
417.35
402.606
389.996
379.041
369.578
361.341
355.421
274
274
274
274
274
274
274
274
274
274
274
274
274
274
274
274
274
274
274
274
274
274
274
274
274
274
274
274
274
274
274
274
274
274
274
274
274
274
274
274
274
274
274
274
274
274
274
274
274
274
274
274
274.002
274.061
276.164
344.002
706.621
823.904
824.998
828.112
836.945
846.801
853.695
863.584
873.094
885.866
905.704
933.337
973.343
1035.76
1119.36
1227.07
1354.84
1493.03
1599.33
1651.01
1667.5
1668.57
1656.16
1632.05
1608.03
1591.17
1573.09
1539.81
1499.87
1462.34
1425.85
1388.36
1349.03
1312.28
1278.03
1249.45
1220.49
1196.5
1176.6
1161.12
1146.02
1130.85
1116.49
1103.3
1090.06
1076.23
1061.48
1043.57
1019.63
989.462
951.1
904.135
850.554
795.08
738.706
684.009
634.391
589.688
550.035
511.685
480.562
453.186
430.49
411.696
395.54
382.063
370.83
360.939
352.94
274
274
274
274
274
274
274
274
274
274
274
274