/*--------------------------------*- C++ -*----------------------------------*\
| =========                 |                                                 |
| \\      /  F ield         | OpenFOAM: The Open Source CFD Toolbox           |
|  \\    /   O peration     | Version:  2112                                  |
|   \\  /    A nd           | Website:  www.openfoam.com                      |
|    \\/     M anipulation  |                                                 |
\*---------------------------------------------------------------------------*/
FoamFile
{
    version     2.0;
    format      ascii;
    arch        "LSB;label=32;scalar=64";
    class       volVectorField;
    location    "0.00775";
    object      U;
}
// * * * * * * * * * * * * * * * * * * * * * * * * * * * * * * * * * * * * * //

dimensions      [0 1 -1 0 0 0 0];

internalField   nonuniform List<vector> 
13875
(
(2204.17 109.697 1.81269e-18)
(2142.49 5.6253 -9.3873e-19)
(2170.27 -2.16578 -9.41084e-19)
(2168.02 -0.775764 0)
(2170.33 0.10543 0)
(2169.58 -1.39714 9.36561e-19)
(2169.28 -1.28326 -9.37077e-19)
(2169.64 -0.27309 -4.68647e-19)
(2169.43 0.0813051 4.68313e-19)
(2169.04 0.358908 0)
(2169.35 0.381599 -3.88395e-22)
(2169.43 0.978212 -3.88119e-22)
(2169.61 0.922587 0)
(2169.4 -0.0278355 -4.68218e-19)
(2169.45 -0.923477 4.68587e-19)
(2169.6 -1.29066 0)
(2169.87 -0.264738 9.37055e-19)
(2169.22 0.348122 -9.37804e-19)
(2169.13 0.944103 3.87945e-22)
(2169.81 1.18785 -3.85755e-22)
(2170.45 -0.166988 -9.36286e-19)
(2167.85 0.299862 9.37167e-19)
(2171.11 2.48644 -1.87817e-18)
(2143.38 -8.64939 1.91696e-18)
(2210.09 -106.888 1.76511e-18)
(2253.4 91.9296 -1.63241e-18)
(2228.47 -1.17298 1.88339e-18)
(2247.41 0.61799 8.71745e-19)
(2245.6 0.969601 -8.67096e-19)
(2248.45 -0.596451 4.1695e-22)
(2247.77 2.01812 5.20174e-22)
(2245.85 1.63934 4.15944e-22)
(2245.56 0.36476 -4.35866e-19)
(2245.12 0.337998 4.35986e-19)
(2244.97 -0.360836 2.17686e-19)
(2245.14 -0.720772 -1.63078e-19)
(2245.39 -1.31346 -5.3173e-20)
(2247.73 -1.17608 0)
(2247.86 0.080338 -4.3498e-19)
(2247.56 1.04627 4.33454e-19)
(2245.6 1.43138 4.36028e-19)
(2245.51 0.498025 -4.35306e-19)
(2245.2 -0.24453 5.18487e-22)
(2245.69 -1.56508 -5.18688e-22)
(2247.84 -1.97146 5.19786e-22)
(2248.39 0.746146 -8.71459e-19)
(2245.59 -0.720217 2.5997e-18)
(2247.28 -1.55557 -1.74253e-18)
(2228.84 3.54376 5.42989e-22)
(2256.73 -97.1664 -1.71311e-18)
(2252.4 78.118 0)
(2236.34 -18.2518 0)
(2249.48 4.36273 0)
(2250.7 -1.87565 0)
(2253.47 -2.59641 -1.63933e-18)
(2253.28 1.55322 1.64227e-18)
(2253.19 2.14444 1.72178e-18)
(2253.69 0.547418 -2.58026e-18)
(2253.59 0.180358 8.61322e-19)
(2253.36 0.373473 4.3101e-22)
(2253.32 0.125141 -4.31022e-19)
(2253.11 -2.45038 4.3011e-19)
(2254.12 -2.55703 0)
(2253.99 0.0310622 0)
(2254.05 2.371 4.08174e-22)
(2253.18 2.00592 0)
(2254.06 0.223472 8.38101e-22)
(2253.11 -0.290377 4.30555e-19)
(2253.09 -2.51672 -4.30688e-19)
(2253.54 -1.75597 0)
(2253.71 2.35092 0)
(2250.91 1.31098 0)
(2250.68 -4.79442 0)
(2238.16 13.6698 0)
(2257.5 -74.2745 0)
(2247.86 51.3555 0)
(2235.03 -28.6808 1.81426e-18)
(2249.27 7.16709 -3.41692e-18)
(2251.59 -4.74381 3.46589e-18)
(2253.23 -3.10101 -1.63487e-18)
(2253.15 1.30428 0)
(2253.74 1.42642 -8.42147e-22)
(2254.4 -0.028663 0)
(2254.02 0.080126 0)
(2253.81 0.00841534 0)
(2254.36 0.0242728 0)
(2254.16 -2.21727 -8.44145e-22)
(2254.1 -2.48301 -5.08679e-20)
(2253.97 0.00321876 5.07104e-20)
(2254.01 2.28376 0)
(2254.26 1.80823 0)
(2254.74 0.269622 7.99425e-22)
(2254.17 0.388524 -8.57557e-19)
(2253.81 -1.75441 8.56076e-19)
(2253.42 -1.49089 -1.62408e-18)
(2253.56 2.743 1.62362e-18)
(2251.98 4.32933 1.74091e-18)
(2249.75 -8.88495 -1.72061e-18)
(2235.85 31.1948 0)
(2251.6 -58.6294 0)
(2244.88 39.2846 1.749e-18)
(2235.43 -47.8563 0)
(2248.73 10.4496 0)
(2250.33 -7.64402 0)
(2253.41 -4.27907 0)
(2253.24 0.74671 1.67597e-21)
(2253.54 0.977951 1.68686e-21)
(2254.24 -0.274449 4.25887e-19)
(2253.96 0.0729559 -4.08656e-19)
(2253.71 -0.0842104 2.02872e-19)
(2254.34 -0.0113565 -2.0327e-19)
(2254.21 -1.81754 0)
(2254.12 -2.30962 0)
(2253.9 -0.00991053 -1.65659e-21)
(2254.06 2.08267 0)
(2254.3 1.35966 -1.68505e-21)
(2254.71 0.280299 8.07648e-19)
(2254.01 0.725223 -8.51321e-19)
(2253.5 -1.23677 1.71513e-18)
(2253.54 -0.840218 -1.69144e-18)
(2253.61 3.75289 1.65338e-21)
(2250.68 6.45963 0)
(2250.03 -11.5593 0)
(2237.24 42.7249 0)
(2250.14 -35.4974 0)
(2241.5 6.76457 0)
(2231.52 -63.5995 9.12444e-19)
(2247.19 12.2908 -8.47609e-19)
(2250.81 -11.1591 0)
(2252.45 -4.97249 8.60408e-19)
(2252.78 0.0768735 -4.37153e-19)
(2253.65 0.167823 -3.01332e-21)
(2254.26 -0.80626 -2.17311e-19)
(2253.83 0.0389539 -4.25933e-19)
(2253.65 -0.330517 1.62878e-19)
(2254.3 -0.152083 1.6508e-21)
(2254.09 -1.61939 2.68538e-19)
(2253.99 -2.18105 -2.15337e-19)
(2253.78 -0.0917752 3.36085e-21)
(2253.89 1.89106 -4.27521e-19)
(2254.21 1.15993 4.33242e-19)
(2254.64 0.336904 1.63775e-21)
(2254.12 1.33368 -1.68412e-21)
(2253.73 -0.352811 -1.67933e-21)
(2252.96 -0.370897 -8.59355e-19)
(2252.77 4.12285 8.46099e-19)
(2251.44 10.6855 0)
(2247.38 -15.1954 0)
(2232.42 65.4369 -1.93289e-18)
(2245.99 -18.6595 -1.26166e-19)
(2254.03 2.91272 -4.95252e-20)
(2227.47 -79.3199 6.0244e-20)
(2243.04 12.2838 0)
(2248.42 -15.6007 -2.6919e-23)
(2252.07 -6.79731 -2.62422e-23)
(2252.34 -1.04899 0)
(2253.17 -0.634322 0)
(2253.91 -1.05101 -8.63298e-19)
(2253.53 0.138115 8.39759e-19)
(2253.44 -0.439916 0)
(2254.15 -0.276187 1.71334e-18)
(2254.06 -1.24474 4.0772e-21)
(2253.88 -1.82367 -1.72178e-18)
(2253.63 -0.0921918 -1.71177e-21)
(2253.86 1.45207 0)
(2254.18 0.694943 3.44571e-18)
(2254.42 0.382248 1.81073e-21)
(2253.76 1.72439 -6.90571e-18)
(2253.08 0.300453 3.45128e-18)
(2252.82 0.941317 2.64193e-23)
(2252.27 6.08591 0)
(2248.52 12.9686 3.5273e-18)
(2244.19 -12.5272 -3.30772e-18)
(2228.9 73.0799 3.81561e-18)
(2247.17 2.96363 -3.18013e-18)
(2218.35 -22.8214 -3.16978e-19)
(2214.68 -87.4535 -7.49658e-18)
(2235.64 3.57035 8.70624e-22)
(2245.99 -22.3615 2.61178e-23)
(2248.75 -8.95667 -8.09208e-22)
(2251.14 -2.74289 0)
(2252.72 -1.81443 -3.44572e-18)
(2253.51 -1.55184 3.4521e-18)
(2253.2 -0.164412 0)
(2253.26 -0.835736 -8.2896e-22)
(2253.9 -0.637459 -8.2949e-22)
(2253.77 -1.08667 0)
(2253.54 -1.65911 0)
(2253.32 -0.106538 -1.66047e-21)
(2253.47 1.27071 -8.38531e-22)
(2253.93 0.538057 2.60065e-23)
(2254.13 0.688794 -8.56129e-22)
(2253.54 2.46195 -2.62956e-23)
(2252.91 1.75688 -1.73299e-18)
(2251.4 2.38628 -1.62202e-20)
(2249.26 8.0371 1.68873e-18)
(2246.39 19.3978 8.85496e-22)
(2236.71 -4.80746 3.459e-18)
(2216.52 81.5897 -3.53858e-18)
(2222.43 18.1672 2.50169e-23)
(2113.21 -37.8389 9.42713e-19)
(2168.58 -98.5976 0)
(2217.12 -20.1423 -8.31471e-22)
(2234.91 -32.2756 -8.65873e-19)
(2245.73 -17.4175 1.71147e-18)
(2248.59 -6.61159 -1.72793e-18)
(2251.18 -3.70831 9.32354e-21)
(2252.51 -2.33708 8.62064e-19)
(2252.25 -0.2005 0)
(2252.63 -0.959739 -8.41574e-19)
(2253.27 -0.661243 8.49555e-19)
(2253.27 -0.533842 0)
(2252.96 -1.18573 0)
(2252.72 -0.235638 2.10511e-21)
(2252.95 0.564111 8.34562e-22)
(2253.3 0.0438241 8.42261e-19)
(2253.33 0.88953 -8.44337e-19)
(2252.56 3.27859 0)
(2251.26 3.395 8.60875e-19)
(2249.48 6.02681 -1.72858e-18)
(2246.23 15.1363 8.44949e-19)
(2236.19 28.8863 -8.40904e-22)
(2219.04 16.6571 0)
(2171.36 94.0137 0)
(2117.27 35.3664 0)
(1873.42 -142.239 -6.57104e-17)
(2125.67 -161.424 8.42646e-17)
(2198.89 -54.724 0)
(2229.31 -54.0021 -2.99333e-17)
(2239.73 -21.8428 3.07506e-17)
(2246.37 -11.2224 0)
(2249.32 -7.36725 -2.95168e-20)
(2250.89 -3.60017 -1.46658e-17)
(2251.04 -1.37558 1.44215e-17)
(2251.48 -1.86045 -2.90584e-20)
(2252.08 -1.20612 0)
(2252.08 -0.486486 -3.69865e-18)
(2251.75 -0.879989 5.58909e-18)
(2251.51 -0.296847 -1.90245e-18)
(2251.7 0.426365 -2.92702e-20)
(2252 0.367876 0)
(2251.89 1.74992 0)
(2250.96 5.03666 -2.94704e-17)
(2249.44 7.58801 2.90862e-17)
(2246.69 10.2617 -3.05984e-17)
(2240.49 20.4617 2.91758e-17)
(2229.42 52.983 3.22054e-17)
(2199.9 52.4844 -2.9222e-17)
(2128.74 161.853 -8.3383e-17)
(1884.83 138.348 -1.25768e-17)
(1652.74 -215.555 -9.08575e-17)
(2011.23 -307.724 1.37674e-16)
(2159.67 -104.573 0)
(2211.01 -64.7763 6.82402e-17)
(2232.7 -29.5445 -7.09365e-17)
(2241.66 -15.1545 -3.40743e-17)
(2245.1 -7.34268 3.38339e-17)
(2247.49 -3.18329 -3.28632e-17)
(2248.19 -1.3746 3.31575e-17)
(2248.98 -1.61141 3.25004e-20)
(2249.73 -0.720845 0)
(2249.75 0.245845 -2.1152e-18)
(2249.43 -0.276515 2.16829e-18)
(2249.14 -0.451589 3.29813e-20)
(2249.26 -0.440646 3.28693e-20)
(2249.37 -0.422888 3.30737e-20)
(2249.13 0.845684 0)
(2248.03 4.52895 0)
(2245.11 7.62738 -6.77118e-17)
(2242.29 15.3872 6.82293e-17)
(2233.73 26.9158 -7.13536e-17)
(2211.59 59.0047 1.47077e-16)
(2166.15 99.4112 -6.99409e-17)
(2016.87 298.568 -3.86801e-20)
(1698.08 206.018 8.75257e-20)
(1281.13 -592.807 -1.08959e-16)
(1742 -592.149 1.18992e-16)
(2046.34 -180.854 2.16861e-16)
(2174 -106.726 -9.35647e-17)
(2208.22 -36.3561 0)
(2229.85 -20.2013 7.42197e-17)
(2238.1 -12.5016 -7.5072e-17)
(2241.26 -6.75215 0)
(2242.52 -4.36666 3.5474e-20)
(2243.76 -3.60043 0)
(2244.63 -1.57714 0)
(2244.68 0.0544814 0)
(2244.47 0.0597715 4.67644e-18)
(2244.16 -0.277755 -4.64039e-18)
(2244.16 -0.0481232 -3.72176e-20)
(2243.93 0.780216 -3.55472e-20)
(2243.33 2.78232 0)
(2241.75 7.15462 0)
(2238.02 13.9356 0)
(2228.62 19.1264 -7.89176e-17)
(2211.61 37.2442 1.56878e-16)
(2176.55 102.584 -7.23002e-17)
(2052.9 161.791 -1.33634e-16)
(1750.32 592.16 1.00484e-16)
(1286.32 543.525 -5.99354e-20)
(1301.53 -610.994 1.60806e-16)
(1112.49 -1085.89 0)
(1700.42 -455.669 0)
(1928.46 -130.124 -1.08173e-16)
(2150.86 -84.5631 1.09268e-16)
(2201.43 -41.962 0)
(2215.33 -12.9265 1.12548e-20)
(2223.91 -5.54629 4.04166e-17)
(2227.66 -2.20979 -4.08815e-17)
(2230.58 -1.58882 0)
(2232.01 0.174883 -1.00533e-17)
(2232.27 1.00375 1.01285e-17)
(2232.32 0.711006 -5.09023e-18)
(2231.98 -0.158388 5.0931e-18)
(2231.66 -0.780418 3.85851e-20)
(2230.56 -1.16624 -4.05658e-17)
(2228.13 -0.230268 8.04908e-17)
(2223.77 4.25372 1.0364e-18)
(2214.01 13.2457 -4.03908e-17)
(2198.08 44.7099 -9.08743e-17)
(2134.35 72.1106 8.43532e-17)
(1912.69 109.516 8.25679e-20)
(1759.18 455.284 2.60488e-20)
(1103.73 1071.28 1.67439e-16)
(1319.69 612.351 7.1827e-18)
(1358.63 -629.774 0)
(1141.87 -1058.38 0)
(1290.82 -753.03 0)
(1196.66 -812.941 0)
(1954.45 -255.367 0)
(2053.06 -61.7789 1.01328e-16)
(2156.97 -47.1985 -1.04014e-16)
(2175.16 -29.8095 1.15257e-19)
(2184.44 -19.6317 -1.03138e-20)
(2191.64 -11.2801 2.26067e-17)
(2194.26 -4.90591 -2.28283e-17)
(2195.05 -1.19441 -2.25662e-19)
(2195.34 0.331742 -7.0772e-19)
(2194.94 1.23018 8.02852e-19)
(2194.18 3.33084 -2.26705e-17)
(2191.79 8.10807 2.24533e-17)
(2185.09 17.3706 9.91959e-20)
(2174.51 31.3364 0)
(2149.95 52.3238 0)
(2019.83 86.6082 0)
(1918.07 323.417 -2.11209e-16)
(1171.08 814.374 -6.15902e-17)
(1297 702.577 1.6397e-16)
(1135.45 1023.11 2.05609e-20)
(1369.16 618.98 2.08591e-20)
(1436.77 -621.29 0)
(1273.12 -926.884 3.94118e-20)
(1320.58 -785.733 0)
(1236.43 -859.396 -1.68007e-16)
(1335.06 -807.12 3.17177e-16)
(1649.72 -550.279 -2.05108e-16)
(1938.02 -116.612 0)
(1959.75 -13.0588 -1.02421e-19)
(2007.54 14.4947 0)
(2044.53 8.26455 0)
(2056.34 6.18883 -1.40869e-17)
(2060.12 2.71106 1.44094e-17)
(2061.24 1.64179 1.42113e-17)
(2060.66 0.969204 -1.42787e-17)
(2058.3 -0.535191 0)
(2049.66 -4.38821 -5.86264e-17)
(2017.4 -10.4206 5.91852e-17)
(1962.07 16.8041 7.1156e-17)
(1937.01 139.898 -5.97335e-17)
(1603.16 583.851 0)
(1308.43 796.955 0)
(1204.53 850.177 -1.71183e-19)
(1331.19 779.574 -1.70811e-16)
(1266.98 918.949 3.6658e-16)
(1425.52 619.041 -1.69383e-16)
(1519.31 -631.304 -1.69215e-16)
(1386.74 -854.4 1.87233e-16)
(1383.21 -759.251 0)
(1281.82 -818.875 -1.90068e-16)
(1307.91 -785.964 -6.44706e-18)
(1307.79 -744.985 2.76923e-16)
(1255.6 -591.138 -2.00246e-16)
(1319.91 -517.576 1.18285e-16)
(1541.37 -269.34 0)
(1562.47 -121.552 0)
(1548.09 -59.8092 -4.08827e-20)
(1544.06 -22.2402 2.73735e-19)
(1541.05 -4.14928 0)
(1542.58 11.5127 0)
(1545.93 41.3418 5.80927e-17)
(1555.41 108.599 -5.52831e-17)
(1574.44 229.02 -1.10728e-16)
(1334.77 524.197 2.24319e-16)
(1242.73 594.775 1.83109e-17)
(1286.04 745.261 -9.03245e-17)
(1301.49 780.123 0)
(1253.01 822.474 0)
(1381.95 760.55 -1.73935e-16)
(1351.65 886.894 2.03004e-16)
(1502.42 641.037 -4.59415e-20)
(1659.96 -610.148 1.573e-16)
(1562.55 -750.286 -9.69504e-20)
(1527.58 -690.367 9.46952e-17)
(1466.24 -727.738 -8.49183e-17)
(1397.97 -682.364 -4.4803e-20)
(1338.77 -597.556 8.75234e-20)
(1187.49 -445.865 1.15776e-16)
(863.484 -238.097 -1.80657e-16)
(690.058 -124.205 6.39989e-17)
(532.137 -55.8073 0)
(407.686 -19.7795 -3.37196e-17)
(367.108 -6.36871 3.36468e-17)
(349.793 1.05612 0)
(356.809 9.14272 6.31413e-20)
(386.358 16.9405 -3.35866e-17)
(492.039 48.016 3.38285e-17)
(731.332 120.198 0)
(863.508 247.834 -1.16822e-16)
(1168.87 434.789 1.17251e-16)
(1324.14 593.507 8.89406e-17)
(1389.92 684.109 -1.86576e-16)
(1432.3 746.803 9.94177e-17)
(1519.98 710.601 0)
(1547.18 777.589 1.68715e-16)
(1649.99 625.256 -3.26698e-18)
(1815.11 -552.012 -3.30419e-18)
(1744.92 -602.008 8.0166e-17)
(1689.47 -548.169 -3.6339e-17)
(1544 -421.421 -5.72269e-17)
(1421.88 -355.595 7.31128e-17)
(1385.4 -275.1 -5.12389e-17)
(1288.72 -255.112 5.30086e-17)
(941.562 -196.451 -5.87164e-17)
(730.421 -105.569 -4.75848e-19)
(597.825 -57.8937 3.30062e-17)
(502.158 -30.5915 1.65036e-17)
(469.614 -16.466 -1.54225e-19)
(456.733 1.27794 -1.66858e-17)
(464.187 21.2343 -6.05313e-20)
(495.552 31.5817 -7.52059e-20)
(586.29 54.4872 -2.07029e-18)
(788.681 101.407 1.97791e-20)
(960.06 188.799 5.39337e-18)
(1282.06 231.103 -3.53008e-18)
(1374.18 303.748 0)
(1413.19 397.937 1.08875e-17)
(1549.15 469.05 -3.46666e-17)
(1689.2 588.288 4.14243e-17)
(1741.63 632.55 -5.66193e-17)
(1810.08 569.583 5.31319e-17)
(1995.5 -509.562 -8.62236e-20)
(1955.77 -331.587 -1.0397e-19)
(1881.58 -322.096 1.21241e-19)
(1788.73 -215.459 -5.51582e-21)
(1527.6 -63.2042 -1.84247e-19)
(1417.51 -26.7142 -2.00374e-19)
(1374.88 -73.204 -7.16603e-21)
(1193.86 -92.835 0)
(963.018 -106.734 0)
(819.273 -121.783 6.56468e-17)
(740.149 -103.29 -6.71048e-17)
(698.125 -49.2221 -8.85769e-21)
(683.798 3.09864 8.83775e-21)
(689.375 52.8643 -8.638e-18)
(724.439 115.417 8.3687e-18)
(808.877 147.176 0)
(982.323 127.793 0)
(1169.57 107.248 -5.64742e-17)
(1344.86 77.1403 5.60901e-17)
(1375.74 15.6357 -1.94477e-19)
(1522.04 59.0132 0)
(1795.47 221.174 0)
(1885.42 323.254 -1.24553e-19)
(1953.5 334.118 -1.07245e-19)
(1997.77 524.576 1.22968e-16)
(1521.98 -189.01 -1.86264e-16)
(1751.32 -122.903 -2.3791e-16)
(1856.92 102.253 1.21952e-16)
(1802.23 144.257 0)
(1641.61 195.171 1.99234e-19)
(1518.77 143.27 1.07898e-16)
(1506 31.0149 -2.08689e-16)
(1405.17 -19.9454 1.06359e-16)
(1222.94 -57.8198 -1.2103e-16)
(1062.17 -85.2311 1.25313e-16)
(936.91 -73.3169 3.29867e-17)
(866.298 -28.9166 -4.10647e-17)
(842.365 5.99909 -8.31372e-18)
(859.751 39.8994 1.6818e-17)
(929.938 89.3076 0)
(1067.78 108.74 0)
(1242.01 76.7426 1.16674e-16)
(1388.09 35.6454 -2.20796e-16)
(1490.77 -30.8418 1.09456e-16)
(1504.05 -152.268 2.27599e-19)
(1650.18 -203.028 1.54728e-16)
(1790.62 -158.573 -9.67081e-17)
(1836.19 -137.477 -4.88611e-16)
(1745.36 131.411 6.20773e-16)
(1504.08 188.408 -2.49592e-16)
(-1.15389 -79.5611 1.14356e-19)
(527.845 -97.834 -2.57725e-16)
(1413.21 306.521 1.71733e-16)
(1673.27 501.942 0)
(1667.58 423.695 0)
(1611.38 273.59 0)
(1603.38 134.694 0)
(1528.4 65.2337 0)
(1370.27 18.7781 -5.17508e-17)
(1208.32 -19.959 1.0849e-16)
(1079.31 -26.8015 -8.46837e-17)
(1001.25 -5.92525 3.21818e-17)
(979.918 8.76969 -3.62646e-18)
(1000.9 21.0713 1.5792e-20)
(1085.62 45.5417 -5.58597e-17)
(1232.44 40.8908 5.54935e-17)
(1399 -2.48084 0)
(1525.19 -53.3174 0)
(1605.5 -133.398 -1.72834e-16)
(1605.44 -293.328 1.86002e-16)
(1672.13 -428.981 -1.62801e-19)
(1657.85 -503.772 7.26865e-20)
(1375.13 -283.341 -9.51305e-20)
(450.491 135.61 -1.16245e-19)
(-89.6117 87.7965 0)
(-318.496 -61.5875 -2.25611e-16)
(408.795 282.813 2.30503e-16)
(1267.64 660.65 -1.69859e-19)
(1630.26 748.769 1.63166e-16)
(1723.28 578.679 -1.2122e-16)
(1690.28 384.961 0)
(1675.74 231.701 -8.18805e-17)
(1612.01 158.338 7.46671e-17)
(1474.69 93.9197 -4.4609e-17)
(1324.68 37.6023 9.35809e-17)
(1195.49 12.402 -4.82109e-17)
(1122.68 10.1952 1.83142e-19)
(1101.2 6.88796 0)
(1127.11 2.53533 2.49109e-17)
(1212.15 -0.136326 2.31464e-17)
(1355.93 -28.9767 -4.74217e-17)
(1502.34 -90.5452 -8.1526e-17)
(1608.69 -153.308 8.3926e-17)
(1681.4 -234.77 -7.19127e-17)
(1687.46 -409.338 7.98749e-17)
(1723.35 -596.116 7.98336e-20)
(1600.96 -764.398 -7.54475e-20)
(1217.56 -648.711 0)
(351.595 -282.053 1.12454e-19)
(-299.125 22.8522 0)
(292.311 294.994 1.90263e-16)
(882.732 752.439 -1.87388e-16)
(1413.57 880.909 6.13732e-20)
(1677.97 871.897 0)
(1775.12 676.601 0)
(1738.38 506.034 -7.31039e-21)
(1718.78 352.166 0)
(1667.22 248.987 7.41552e-20)
(1551.04 168.38 0)
(1415.89 96.8561 4.16334e-17)
(1301.12 50.1101 -6.40076e-17)
(1228.89 25.2768 3.26543e-17)
(1209.62 6.25145 -1.101e-17)
(1233.61 -15.3416 0)
(1315.33 -40.1848 0)
(1443.24 -89.2438 3.88678e-17)
(1573.24 -162.396 -1.09278e-16)
(1661.82 -248.274 7.30854e-17)
(1734.97 -344.016 -6.07313e-17)
(1740.79 -512.274 7.0165e-17)
(1781 -679.897 0)
(1668.07 -884.815 0)
(1406.06 -886.004 0)
(904.79 -769.732 -1.14993e-20)
(287.245 -249.446 -2.00344e-16)
(353.835 118.77 -3.59505e-20)
(1122.98 742.866 1.5484e-16)
(1541.95 944.99 -1.17883e-16)
(1742.65 912.839 0)
(1805.52 738.778 0)
(1764.23 593.998 7.56769e-21)
(1757.37 442.413 6.44365e-17)
(1714.38 327.084 -5.70575e-17)
(1613.02 224.69 3.03559e-20)
(1493.74 139.73 3.30143e-20)
(1388.34 78.9151 3.4874e-20)
(1325.71 37.6086 -1.03388e-20)
(1305.09 3.85775 -1.03902e-20)
(1329.65 -30.664 1.92879e-17)
(1402.15 -73.5264 -1.93491e-17)
(1518.9 -137.603 4.22686e-20)
(1633.41 -221.35 3.88977e-20)
(1706.99 -330.345 0)
(1767.22 -435.623 -5.40666e-17)
(1772.95 -589.303 6.24899e-17)
(1816.95 -738.804 0)
(1741.69 -919.219 -9.84871e-17)
(1533.74 -942.732 1.21141e-16)
(1109.23 -736.226 8.9343e-21)
(352.898 -95.0836 -1.874e-16)
(536.266 137.081 4.16586e-20)
(1274.53 766.497 0)
(1635.83 944.87 0)
(1786.56 918.793 -4.73015e-17)
(1817.61 780.446 4.59445e-17)
(1780.62 652.799 0)
(1787.81 509.7 5.86486e-17)
(1750.58 387.416 -5.25953e-17)
(1661.45 275.404 3.18816e-17)
(1555.29 179.247 -3.21437e-17)
(1465.78 103.361 1.7698e-17)
(1406.88 48.7051 -1.7823e-17)
(1391.35 1.91038 0)
(1412.89 -46.7777 -1.76546e-17)
(1480.44 -103.864 1.76963e-17)
(1580.88 -183.096 -3.47465e-20)
(1682.77 -274.138 -3.20697e-20)
(1744.65 -396.202 5.17483e-20)
(1796.31 -509.081 4.95452e-17)
(1786.81 -657.517 -5.7406e-17)
(1828.22 -781.887 -4.59043e-20)
(1783.57 -927.842 -4.42522e-20)
(1630.91 -933.012 0)
(1240.85 -746.268 -7.17076e-20)
(502.953 -115.975 4.21994e-20)
(576.264 148.93 1.59547e-22)
(1345.8 703.258 0)
(1702.8 884.375 9.19476e-23)
(1786.79 914.323 3.99797e-20)
(1821.06 809.734 -8.55468e-23)
(1797.13 701.387 -5.18715e-17)
(1815.91 561.884 4.58957e-17)
(1786.51 437.991 0)
(1708.38 314.312 -5.90901e-20)
(1616.86 212.349 -1.08025e-22)
(1533.49 126.004 -1.1374e-22)
(1484.59 57.7432 6.88004e-20)
(1467.13 0.269208 0)
(1487.96 -56.8681 0)
(1545.42 -126.525 -1.13102e-22)
(1637.57 -217.189 -1.06933e-22)
(1726.88 -314.111 -2.63407e-17)
(1777.96 -445.493 7.51563e-17)
(1817.88 -560.024 -5.32988e-17)
(1802.78 -700.192 0)
(1836.03 -802.803 -4.39497e-17)
(1786.74 -916.104 4.39953e-17)
(1703.21 -876.257 9.21736e-23)
(1337.02 -682.855 6.16161e-20)
(570.204 -148.87 1.59718e-22)
(692.498 201.526 3.17192e-18)
(1463.91 683.166 1.33095e-17)
(1749.9 856.458 9.74707e-17)
(1795.33 901.063 -4.08339e-17)
(1833.77 810.24 4.24851e-17)
(1814.54 716.631 -4.77338e-17)
(1841.18 590.56 4.27477e-17)
(1812.14 471.756 -2.51931e-17)
(1742.88 347.013 2.46886e-17)
(1662.82 240.528 1.14832e-22)
(1595.68 144.055 1.2066e-22)
(1549.4 67.0305 -1.23326e-22)
(1536.51 0.447957 7.43282e-18)
(1553.28 -67.622 7.26028e-18)
(1606.11 -146.796 -1.4856e-17)
(1682.61 -246.497 1.13936e-22)
(1763.14 -342.586 4.89114e-17)
(1807.13 -475.849 -9.52767e-17)
(1846.6 -586.246 4.87654e-17)
(1815.77 -721.739 0)
(1844.21 -804.364 -8.41043e-23)
(1797.35 -901.224 7.84536e-23)
(1745.95 -853.857 -8.36232e-23)
(1455.12 -678.163 -1.20961e-16)
(679.64 -206.798 1.49377e-16)
(738.483 221.575 1.40745e-19)
(1511.95 634.662 0)
(1769.66 801.014 0)
(1800.45 872.546 3.91595e-20)
(1841.15 798.04 8.08846e-20)
(1834.99 727.976 0)
(1867.51 609.228 4.48828e-17)
(1840.58 492.525 -4.22244e-17)
(1778.42 362.925 4.43003e-20)
(1710.96 256.021 -4.75941e-20)
(1648.36 154.804 -1.37378e-17)
(1611.76 70.044 1.37216e-17)
(1597.71 -3.83428 3.57179e-18)
(1615.04 -77.8602 -3.4682e-18)
(1659.28 -164.627 1.32472e-17)
(1729.41 -272.323 -3.79077e-17)
(1798.45 -372.363 2.46785e-17)
(1832.49 -508.294 -4.63152e-20)
(1865.22 -614.061 3.95179e-20)
(1835.46 -735.701 -4.04378e-17)
(1850.09 -799.233 8.96514e-19)
(1805.48 -868.063 -2.02948e-18)
(1770.95 -787.733 4.10567e-17)
(1481.99 -603.974 5.67895e-20)
(668.747 -203.615 6.89142e-20)
(736.581 208.754 1.35772e-16)
(1547.97 579.959 -1.086e-16)
(1797.03 758.55 0)
(1817.31 845.991 -3.79591e-17)
(1856.79 786.943 3.59935e-19)
(1854.23 721.846 3.93525e-17)
(1889.76 616.967 4.16528e-17)
(1860.69 511.062 -3.99009e-17)
(1807.1 386.276 -4.69741e-20)
(1748.49 278.738 -2.45453e-17)
(1700.44 171.113 1.19159e-17)
(1664.59 81.3204 1.26355e-17)
(1654.24 0.647913 -5.38611e-20)
(1666.45 -81.0858 0)
(1706.54 -172.601 0)
(1762.13 -284.677 0)
(1826.43 -379.246 4.64842e-20)
(1856.24 -512.649 9.66868e-21)
(1891.7 -610.38 -4.96839e-20)
(1854.28 -722.724 0)
(1863.29 -782.037 3.84605e-20)
(1821.11 -842.283 9.38479e-21)
(1799.56 -756.191 -4.862e-20)
(1557.69 -577.519 -1.06509e-16)
(776.213 -232.26 1.3669e-16)
(782.118 237.813 6.59999e-17)
(1571.73 518.536 -9.62998e-17)
(1812.93 675.851 8.22101e-17)
(1828.91 789.16 -4.1087e-17)
(1867.84 755.904 -3.75242e-17)
(1872.37 709.891 3.74153e-17)
(1911.18 619.286 1.92285e-17)
(1883.36 517.785 -1.8936e-17)
(1836.05 390.139 1.08071e-17)
(1788.52 283.866 -2.23675e-17)
(1742.24 175.124 1.73728e-17)
(1715.61 82.208 -7.38026e-18)
(1704.14 -2.53788 1.48943e-18)
(1717.38 -87.704 -4.37043e-20)
(1750.32 -181.382 2.28526e-17)
(1802.08 -298.62 -2.28616e-17)
(1856.23 -395.901 3.8742e-20)
(1877.06 -527.2 3.78662e-17)
(1909.13 -617.05 -1.84874e-18)
(1869.16 -715.383 -3.8146e-17)
(1874.64 -757.462 0)
(1832.98 -788.024 4.14197e-17)
(1812.27 -681.167 -3.66911e-17)
(1574.49 -519.732 -1.03166e-16)
(797.913 -256.286 -6.31622e-19)
(911.525 271.009 -6.25948e-17)
(1639.76 477.495 4.81299e-17)
(1837.69 633.12 1.90743e-20)
(1844.33 749.091 -5.38719e-20)
(1889.07 739.708 1.82102e-20)
(1893.58 687.623 3.58883e-17)
(1932.77 599.502 -1.722e-17)
(1898.6 510.963 -1.83218e-17)
(1859.04 393.335 4.15342e-20)
(1817.08 291.358 -4.41323e-20)
(1783.98 179.636 2.02729e-20)
(1757.35 85.0787 -2.06138e-20)
(1750.61 -3.41294 0)
(1759.56 -93.6585 5.27611e-21)
(1789.91 -189.933 -1.07079e-17)
(1828.96 -307.055 1.07676e-17)
(1880.3 -396.312 -1.92891e-17)
(1896.97 -523.644 9.77941e-19)
(1932.35 -600.224 1.8072e-17)
(1889.67 -691.224 -5.32012e-20)
(1889.89 -741.658 -3.68614e-17)
(1852.62 -744.473 3.48385e-17)
(1837.97 -633.849 0)
(1628.94 -475.218 -4.87165e-17)
(854.191 -269.162 6.24918e-17)
(924.032 271.274 0)
(1654 429.509 -4.26996e-17)
(1839.83 552.726 4.23308e-17)
(1865.01 669.097 1.77895e-20)
(1900.39 699.463 1.71412e-20)
(1912.94 666.373 -3.4305e-17)
(1946.46 596.101 3.41034e-17)
(1917.64 514.591 1.82978e-17)
(1884.65 396.469 8.14138e-19)
(1852.73 295.157 -1.96844e-17)
(1818.91 184.082 -2.14662e-20)
(1800.12 89.0582 2.41744e-20)
(1791.09 -1.00906 0)
(1800.57 -91.6008 4.34766e-20)
(1824.19 -185.674 -2.13894e-20)
(1861.56 -307.057 9.76182e-18)
(1904.4 -398.001 -9.64158e-18)
(1912.51 -520.424 -1.82696e-20)
(1943.62 -591.95 -1.92044e-20)
(1909.93 -668.288 1.73848e-20)
(1900.25 -702.78 -3.66564e-17)
(1870.82 -676.382 -6.87125e-18)
(1846.53 -568.147 3.38236e-17)
(1665.55 -440.137 0)
(981.251 -293.437 5.99769e-17)
(1026.6 284.801 -1.14522e-16)
(1692.46 397.37 4.47993e-17)
(1855.44 492.702 3.24659e-17)
(1888.5 622.664 -4.10057e-17)
(1917.73 672.029 0)
(1934.75 646.208 -2.059e-21)
(1965.4 572.907 0)
(1930.56 497.01 -2.19745e-21)
(1904.02 390.686 -2.33534e-21)
(1874.56 296.149 0)
(1852.9 184.323 0)
(1833.22 89.313 -2.5683e-21)
(1828.99 -2.0974 0)
(1834.75 -95.6089 0)
(1856.98 -191.023 -9.63138e-18)
(1882.85 -308.566 9.62056e-18)
(1925.88 -389.539 -2.31007e-21)
(1931.7 -506.804 -1.71584e-17)
(1963.29 -571.996 1.63478e-17)
(1931.15 -646.284 0)
(1917.75 -676.775 3.58768e-17)
(1891.73 -629.479 -7.34333e-17)
(1860.33 -511.92 7.22312e-17)
(1697.96 -399.71 3.70562e-18)
(1022.79 -277.154 -5.6785e-17)
(1078.83 274.617 1.36133e-20)
(1710.14 366.212 -1.04102e-20)
(1861.2 430.737 0)
(1906.27 535.626 0)
(1927.77 615.694 0)
(1952.55 615.292 7.65409e-21)
(1975.58 560.017 0)
(1945.47 488.947 -7.86933e-21)
(1926.55 383.93 0)
(1906.21 288.999 -8.49237e-21)
(1881.25 178.843 0)
(1868.5 86.9371 -2.35179e-18)
(1861.63 -3.734 2.34597e-18)
(1868.85 -95.0789 0)
(1885.81 -185.453 9.19012e-18)
(1911.72 -307.056 -1.80481e-17)
(1946.03 -390.192 8.72719e-18)
(1944.47 -498.279 0)
(1973.86 -560.573 1.60108e-17)
(1948.39 -619.672 -1.57953e-17)
(1928.67 -621.181 3.59166e-17)
(1912.29 -546.594 -3.16361e-17)
(1859.76 -447.785 0)
(1704.41 -367.29 0)
(1038.27 -244.933 0)
(1127.35 266.853 -1.32077e-20)
(1734.17 345.261 1.02695e-20)
(1878.62 367.954 0)
(1923.01 464.344 0)
(1945.06 579.459 0)
(1970.77 596.503 -7.60652e-21)
(1995.31 537.347 0)
(1958.34 467.873 8.21316e-21)
(1944.61 373.733 0)
(1924 289.754 -8.80814e-18)
(1910.09 181.784 8.81846e-18)
(1895.15 90.2718 -8.41258e-21)
(1892.55 -0.211181 9.25827e-21)
(1895.69 -93.0579 8.40526e-21)
(1912.22 -183.079 0)
(1928.31 -297.524 0)
(1965.54 -369.856 8.49743e-21)
(1961.82 -475.269 -1.62223e-17)
(1993.91 -534.297 1.51312e-17)
(1967.09 -596.1 0)
(1943.41 -586.579 7.76833e-21)
(1927.11 -475.58 0)
(1878.92 -392.304 0)
(1727.98 -346.702 0)
(1100.75 -235.269 0)
(1156.84 239.225 -5.06818e-17)
(1746.28 313.111 4.18114e-17)
(1887.52 317.495 0)
(1933.3 379.958 -1.68682e-20)
(1956.3 516.467 0)
(1982.22 551.007 -1.44814e-17)
(2003.62 516.985 3.01789e-17)
(1971.99 456.99 -1.58399e-17)
(1963.73 364.156 -8.12143e-18)
(1951.95 278.555 8.33671e-18)
(1933.07 172.497 4.34669e-21)
(1924.54 85.9323 1.11168e-18)
(1918.86 -2.63012 -1.07371e-18)
(1924.35 -92.1722 8.47757e-18)
(1937.13 -176.338 -8.52948e-18)
(1954.18 -294.464 0)
(1982.21 -367.75 -1.51846e-20)
(1972.95 -465.378 0)
(2001.84 -520.749 0)
(1978.69 -558.247 -1.629e-17)
(1954.17 -521.822 1.46363e-17)
(1937.8 -392.433 0)
(1886.85 -331.964 3.67757e-17)
(1724.98 -319.542 2.1129e-18)
(1137.97 -237.365 -1.04686e-16)
(1218.19 222.967 5.06884e-17)
(1773.41 291.924 1.92712e-20)
(1902.16 267.288 3.10176e-17)
(1934.79 317.41 -2.3194e-17)
(1967.97 474.755 -1.77389e-17)
(1996.09 521.584 0)
(2020.61 492.146 7.56006e-21)
(1984.94 429.545 1.51939e-17)
(1980.13 345.003 -1.58491e-17)
(1965.36 270.828 0)
(1956.61 170.08 0)
(1945.28 85.0103 -2.59581e-20)
(1944.28 -2.30084 3.21413e-20)
(1945.87 -92.897 1.69498e-20)
(1958.69 -175.265 4.07407e-18)
(1967.57 -282.459 -4.03918e-18)
(2000.84 -346.564 8.40595e-21)
(1991.71 -442.246 1.55477e-17)
(2020.38 -491.861 -2.91149e-17)
(1993.38 -523.004 1.40297e-17)
(1967.85 -481.695 -1.48734e-20)
(1939.9 -316.309 0)
(1903.88 -274.636 1.69335e-20)
(1757.01 -302.381 4.03201e-17)
(1212.44 -245.557 -1.00831e-16)
(1220.62 185.738 -4.98132e-17)
(1773.91 259.922 -3.81069e-17)
(1904.8 232.443 3.48951e-17)
(1922.65 240.623 1.45625e-17)
(1976.46 391.532 -1.84024e-17)
(2004.62 460.731 0)
(2027.07 463.034 3.67572e-21)
(1997.4 418.473 -1.1043e-20)
(1998.07 338.581 7.5774e-18)
(1990.71 261.907 -1.5591e-17)
(1975.96 163.21 7.89905e-18)
(1970.14 83.3023 1.97458e-18)
(1965.7 -1.08668 -1.86019e-18)
(1969.82 -86.6231 1.83641e-18)
(1979.07 -162.71 -1.97858e-18)
(1989.9 -274.446 0)
(2014.78 -338.693 1.12424e-20)
(2000.76 -424.257 -3.57004e-21)
(2025.65 -471.165 -1.49356e-17)
(2002.04 -471.889 1.36781e-17)
(1975.33 -399.912 0)
(1931.62 -256.161 0)
(1909.97 -232.555 -4.09005e-21)
(1779.93 -272.004 -4.00793e-17)
(1258.86 -217.715 -1.7246e-18)
(1261.19 169.782 -2.34201e-17)
(1789.67 242.467 1.95316e-17)
(1919.7 210.508 4.10687e-21)
(1926.62 180.657 0)
(1986.19 314.911 1.34622e-17)
(2017.63 420.934 -1.62186e-17)
(2038.33 436.13 3.42712e-21)
(2010.29 386.506 3.66379e-21)
(2013.21 316.647 1.40836e-20)
(2000.77 251.896 -1.89421e-18)
(1995.01 159.391 9.52095e-19)
(1986.29 81.3182 1.88429e-18)
(1986.35 -1.57414 -9.61354e-19)
(1986.6 -87.8572 3.84548e-18)
(1996.88 -161.427 -3.80138e-18)
(2001.01 -261.104 0)
(2033.05 -318.112 1.02017e-20)
(2019.13 -399.762 -1.51239e-17)
(2038.43 -437.306 1.32901e-17)
(2014.66 -427.68 3.47637e-21)
(1985.11 -337.858 0)
(1927.39 -181.097 0)
(1927.93 -211.676 4.11397e-21)
(1794.29 -247.586 -3.93076e-17)
(1261.9 -182.328 4.59225e-17)
(1294.35 142.913 2.34122e-20)
(1798.42 208.916 0)
(1930.69 183.883 -7.81198e-21)
(1931.31 123.993 -1.45291e-17)
(1981.35 239.838 1.76948e-17)
(2018.14 348.502 -1.31334e-17)
(2039.39 390.478 1.52957e-17)
(2018.61 369.881 -7.03157e-18)
(2028.24 306.909 7.34693e-18)
(2023.45 240.44 -3.63442e-18)
(2011.1 149.163 3.70428e-18)
(2007.26 75.96 -1.81521e-18)
(2003.96 -3.19746 2.08972e-18)
(2006.91 -83.6531 -2.4571e-19)
(2014.43 -152.234 3.70081e-18)
(2021.43 -255.696 -7.29761e-18)
(2044.04 -308.989 -3.77298e-18)
(2026.33 -377.725 7.01069e-18)
(2041.78 -405.483 1.35472e-20)
(2018.78 -361.925 -7.0114e-21)
(1986.28 -239.481 0)
(1935.59 -140.684 0)
(1937.34 -187.02 0)
(1794.09 -209.105 -1.93704e-17)
(1256.59 -148.876 2.27331e-17)
(1315.6 139.984 -2.78601e-21)
(1806.14 191.127 0)
(1948.13 168.327 9.82102e-21)
(1937.34 89.7254 -7.95397e-21)
(1963.23 156.94 -7.23449e-21)
(2028.09 291.813 0)
(2047.11 353.028 -6.65214e-21)
(2030.81 335.211 6.84971e-18)
(2041.5 284.347 -7.29313e-18)
(2030.65 230.977 0)
(2027.23 147.797 1.70103e-21)
(2020.32 76.6477 0)
(2020.95 -0.486908 0)
(2020.06 -81.3508 1.8064e-18)
(2028.55 -146.666 -1.79436e-18)
(2028.94 -237.835 -7.24165e-21)
(2060.76 -285.246 -1.6565e-21)
(2041.68 -347.7 6.98574e-21)
(2047.07 -357.406 -7.54177e-18)
(2027.7 -315.64 6.38526e-18)
(1975.84 -183.34 -1.72977e-17)