/*--------------------------------*- C++ -*----------------------------------*\
| =========                 |                                                 |
| \\      /  F ield         | OpenFOAM: The Open Source CFD Toolbox           |
|  \\    /   O peration     | Version:  2112                                  |
|   \\  /    A nd           | Website:  www.openfoam.com                      |
|    \\/     M anipulation  |                                                 |
\*---------------------------------------------------------------------------*/
FoamFile
{
    version     2.0;
    format      ascii;
    arch        "LSB;label=32;scalar=64";
    class       volScalarField;
    location    "0.0088";
    object      epsilon;
}
// * * * * * * * * * * * * * * * * * * * * * * * * * * * * * * * * * * * * * //

dimensions      [0 2 -3 0 0 0 0];

internalField   nonuniform List<scalar> 
13875
(
1.16001e+06
2.94627e+07
3.28233e+07
3.28371e+07
3.29041e+07
3.28444e+07
3.29154e+07
3.29794e+07
3.29053e+07
3.28708e+07
3.29102e+07
3.2915e+07
3.2873e+07
3.28446e+07
3.28611e+07
3.29102e+07
3.29482e+07
3.29132e+07
3.28932e+07
3.28607e+07
3.28994e+07
3.28302e+07
3.28041e+07
2.94733e+07
1.1781e+06
1.31389e+06
2.27475e+07
2.53552e+07
2.52372e+07
2.5278e+07
2.52149e+07
2.52371e+07
2.52679e+07
2.52166e+07
2.52154e+07
2.52372e+07
2.52518e+07
2.52122e+07
2.5194e+07
2.52007e+07
2.525e+07
2.5246e+07
2.52362e+07
2.52252e+07
2.5229e+07
2.52696e+07
2.52197e+07
2.53276e+07
2.27481e+07
1.34265e+06
1.57303e+06
1.97066e+07
2.18299e+07
2.16262e+07
2.16948e+07
2.16317e+07
2.15659e+07
2.1566e+07
2.1508e+07
2.14977e+07
2.15201e+07
2.1549e+07
2.16098e+07
2.16027e+07
2.15972e+07
2.1547e+07
2.15317e+07
2.153e+07
2.15485e+07
2.16408e+07
2.16832e+07
2.16019e+07
2.17888e+07
1.96859e+07
1.58524e+06
1.81372e+06
1.73852e+07
1.90384e+07
1.88794e+07
1.89639e+07
1.89086e+07
1.88276e+07
1.8824e+07
1.87708e+07
1.87539e+07
1.87742e+07
1.87896e+07
1.88866e+07
1.88808e+07
1.88765e+07
1.87874e+07
1.87939e+07
1.878e+07
1.88064e+07
1.8915e+07
1.89519e+07
1.8858e+07
1.90132e+07
1.73646e+07
1.82106e+06
2.02278e+06
1.54524e+07
1.67725e+07
1.66209e+07
1.67009e+07
1.6652e+07
1.65677e+07
1.65664e+07
1.65244e+07
1.65126e+07
1.65316e+07
1.65347e+07
1.66284e+07
1.66277e+07
1.66196e+07
1.65335e+07
1.65473e+07
1.65307e+07
1.65525e+07
1.66546e+07
1.66901e+07
1.66051e+07
1.67431e+07
1.54316e+07
2.03676e+06
2.20645e+06
1.37123e+07
1.49284e+07
1.47389e+07
1.48292e+07
1.47719e+07
1.4678e+07
1.46791e+07
1.46438e+07
1.46341e+07
1.4654e+07
1.46477e+07
1.47393e+07
1.47427e+07
1.47319e+07
1.46466e+07
1.46676e+07
1.46477e+07
1.46667e+07
1.47748e+07
1.48193e+07
1.47292e+07
1.49026e+07
1.385e+07
2.2227e+06
2.42253e+06
1.22513e+07
1.34783e+07
1.32079e+07
1.32688e+07
1.31994e+07
1.30917e+07
1.3092e+07
1.30597e+07
1.30492e+07
1.30693e+07
1.30563e+07
1.31465e+07
1.31518e+07
1.31378e+07
1.3055e+07
1.30835e+07
1.30616e+07
1.30853e+07
1.32005e+07
1.32569e+07
1.32013e+07
1.3421e+07
1.19528e+07
2.42888e+06
2.66593e+06
1.06156e+07
1.23132e+07
1.19756e+07
1.19983e+07
1.18865e+07
1.17595e+07
1.17499e+07
1.17168e+07
1.1704e+07
1.17273e+07
1.17067e+07
1.17963e+07
1.18044e+07
1.17879e+07
1.17049e+07
1.17428e+07
1.17208e+07
1.17513e+07
1.18843e+07
1.19813e+07
1.19655e+07
1.22643e+07
1.05439e+07
2.6941e+06
3.49631e+06
1.02129e+07
1.14832e+07
1.10301e+07
1.09388e+07
1.07877e+07
1.0639e+07
1.06186e+07
1.05802e+07
1.0562e+07
1.05926e+07
1.05658e+07
1.06537e+07
1.06646e+07
1.06471e+07
1.05658e+07
1.06085e+07
1.05867e+07
1.06248e+07
1.07802e+07
1.09225e+07
1.10213e+07
1.14749e+07
1.03371e+07
3.57425e+06
6.8357e+06
1.22204e+07
1.11974e+07
1.0428e+07
1.01661e+07
9.93372e+06
9.76923e+06
9.73363e+06
9.69125e+06
9.67151e+06
9.70282e+06
9.67424e+06
9.75691e+06
9.76977e+06
9.75286e+06
9.68303e+06
9.71943e+06
9.70838e+06
9.74516e+06
9.91507e+06
1.01433e+07
1.03601e+07
1.1162e+07
1.21302e+07
6.8941e+06
1.49167e+07
1.86901e+07
1.20466e+07
1.03207e+07
9.61577e+06
9.32577e+06
9.14424e+06
9.07025e+06
9.02084e+06
9.00189e+06
9.0276e+06
9.00044e+06
9.07441e+06
9.08941e+06
9.07808e+06
9.02823e+06
9.05579e+06
9.06166e+06
9.12394e+06
9.28496e+06
9.6087e+06
1.02676e+07
1.18782e+07
1.7939e+07
1.50003e+07
2.5475e+07
6.88265e+07
1.81751e+07
1.07089e+07
9.70763e+06
9.01951e+06
8.72102e+06
8.60451e+06
8.53855e+06
8.51894e+06
8.53239e+06
8.51027e+06
8.56972e+06
8.58681e+06
8.58411e+06
8.55571e+06
8.58015e+06
8.61047e+06
8.70269e+06
9.0173e+06
9.65454e+06
1.05538e+07
1.75785e+07
6.72521e+07
2.50367e+07
2.65954e+07
7.5968e+07
8.7028e+07
2.40382e+07
1.09399e+07
9.12507e+06
8.73681e+06
8.44933e+06
8.32806e+06
8.28459e+06
8.27513e+06
8.25217e+06
8.29378e+06
8.31258e+06
8.32298e+06
8.32496e+06
8.37936e+06
8.49135e+06
8.76214e+06
9.15284e+06
1.12986e+07
2.26272e+07
8.08236e+07
7.64682e+07
2.60847e+07
2.63704e+07
5.52184e+07
7.99706e+07
1.04705e+08
5.75835e+07
1.30516e+07
9.63029e+06
8.81779e+06
8.57238e+06
8.55556e+06
8.5456e+06
8.5248e+06
8.55718e+06
8.57533e+06
8.59408e+06
8.61389e+06
8.65261e+06
8.8859e+06
9.95006e+06
1.45078e+07
6.5796e+07
9.10503e+07
7.52718e+07
5.44688e+07
2.57582e+07
2.53557e+07
4.26278e+07
5.82334e+07
7.26122e+07
7.51394e+07
7.44349e+07
2.33508e+07
1.31041e+07
1.10998e+07
1.03925e+07
1.01069e+07
9.99576e+06
9.99394e+06
1.00237e+07
1.01068e+07
1.03423e+07
1.10331e+07
1.31876e+07
2.62632e+07
7.75678e+07
7.50662e+07
6.60411e+07
5.65614e+07
4.22116e+07
2.6417e+07
2.47342e+07
3.35926e+07
4.34432e+07
5.4319e+07
5.91701e+07
6.77229e+07
5.10797e+07
4.53133e+07
4.14988e+07
3.25807e+07
3.45336e+07
3.5635e+07
3.64175e+07
3.61417e+07
3.49983e+07
3.30398e+07
4.02955e+07
4.90125e+07
5.20196e+07
6.8638e+07
5.82125e+07
5.05085e+07
4.25937e+07
3.33968e+07
2.5796e+07
2.00655e+07
2.52795e+07
3.23126e+07
4.19424e+07
4.93962e+07
6.18631e+07
7.04758e+07
7.03161e+07
5.75629e+07
4.96399e+07
5.22093e+07
5.49361e+07
5.65327e+07
5.59217e+07
5.30987e+07
5.33109e+07
5.79741e+07
7.05684e+07
7.06091e+07
6.12434e+07
4.71483e+07
3.90506e+07
3.08894e+07
2.45045e+07
1.99384e+07
1.48328e+07
1.91264e+07
2.64342e+07
3.72941e+07
4.54017e+07
5.30239e+07
6.34309e+07
6.8585e+07
5.15286e+07
3.83624e+07
3.53059e+07
3.55622e+07
3.62335e+07
3.59137e+07
3.58874e+07
4.15699e+07
5.18241e+07
6.46678e+07
6.25636e+07
5.40093e+07
4.52218e+07
3.60147e+07
2.53518e+07
1.85539e+07
1.45174e+07
1.22232e+07
1.66882e+07
2.38532e+07
3.70585e+07
4.78936e+07
4.63634e+07
4.91159e+07
5.47285e+07
4.55881e+07
3.42443e+07
2.88113e+07
2.724e+07
2.70671e+07
2.75486e+07
2.95415e+07
3.55803e+07
4.39976e+07
5.11921e+07
4.87294e+07
4.79335e+07
5.04035e+07
3.68474e+07
2.35322e+07
1.64306e+07
1.20565e+07
1.16108e+07
1.81588e+07
2.47782e+07
3.67992e+07
4.365e+07
3.93876e+07
3.865e+07
4.22601e+07
3.89308e+07
3.14357e+07
2.55828e+07
2.2398e+07
2.14187e+07
2.29149e+07
2.66678e+07
3.21942e+07
3.7022e+07
3.96616e+07
3.85491e+07
4.07477e+07
4.50834e+07
3.61741e+07
2.47162e+07
1.83003e+07
1.17031e+07
2.99911e+07
5.91123e+07
4.46485e+07
3.21899e+07
3.47353e+07
3.17334e+07
3.09239e+07
3.38104e+07
3.29689e+07
2.78165e+07
2.22499e+07
1.84619e+07
1.72438e+07
1.92481e+07
2.3571e+07
2.83805e+07
3.12193e+07
3.192e+07
3.09923e+07
3.28113e+07
3.56987e+07
3.3022e+07
4.99513e+07
6.53972e+07
3.88314e+07
9.28743e+07
2.98367e+08
6.07465e+07
2.61042e+07
2.74784e+07
2.5779e+07
2.53119e+07
2.7723e+07
2.77865e+07
2.4027e+07
1.90358e+07
1.52535e+07
1.4015e+07
1.60458e+07
2.02447e+07
2.43701e+07
2.62063e+07
2.63305e+07
2.5358e+07
2.65473e+07
2.80814e+07
2.69845e+07
6.75887e+07
2.95775e+08
1.08287e+08
1.09059e+08
2.27794e+08
5.03171e+07
2.17479e+07
2.22575e+07
2.12953e+07
2.09676e+07
2.30273e+07
2.33425e+07
2.04284e+07
1.60891e+07
1.26573e+07
1.14803e+07
1.32787e+07
1.70421e+07
2.06061e+07
2.19245e+07
2.19295e+07
2.09768e+07
2.17321e+07
2.25909e+07
2.23983e+07
5.1473e+07
2.23729e+08
1.07181e+08
9.30839e+07
2.30331e+08
3.94281e+07
1.86267e+07
1.8304e+07
1.76746e+07
1.74893e+07
1.91735e+07
1.9571e+07
1.71883e+07
1.34296e+07
1.04774e+07
9.5058e+06
1.10623e+07
1.43307e+07
1.74089e+07
1.83936e+07
1.82866e+07
1.7548e+07
1.8035e+07
1.86311e+07
1.92496e+07
4.11232e+07
2.4244e+08
9.36799e+07
8.50701e+07
2.20774e+08
3.29193e+07
1.62585e+07
1.54401e+07
1.48669e+07
1.47966e+07
1.61099e+07
1.64735e+07
1.44964e+07
1.12988e+07
8.77912e+06
7.96657e+06
9.28507e+06
1.21056e+07
1.4732e+07
1.55111e+07
1.53668e+07
1.48255e+07
1.51664e+07
1.57846e+07
1.68432e+07
3.49697e+07
2.40209e+08
8.68552e+07
7.85397e+07
2.15072e+08
2.84205e+07
1.42182e+07
1.32516e+07
1.264e+07
1.26704e+07
1.36526e+07
1.39227e+07
1.22729e+07
9.58237e+06
7.43655e+06
6.74714e+06
7.85327e+06
1.02414e+07
1.2465e+07
1.31222e+07
1.29877e+07
1.26019e+07
1.28252e+07
1.3556e+07
1.46621e+07
3.00252e+07
2.30624e+08
8.15206e+07
7.49934e+07
1.90092e+08
2.40781e+07
1.24684e+07
1.15451e+07
1.08759e+07
1.09405e+07
1.16436e+07
1.17778e+07
1.03664e+07
8.13478e+06
6.35152e+06
5.77829e+06
6.72813e+06
8.76257e+06
1.06277e+07
1.1213e+07
1.11123e+07
1.08428e+07
1.10252e+07
1.18635e+07
1.29195e+07
2.59589e+07
2.06575e+08
7.81386e+07
7.09617e+07
1.72484e+08
2.11961e+07
1.10864e+07
1.01988e+07
9.49946e+06
9.54829e+06
1.00364e+07
1.00627e+07
8.85037e+06
6.99053e+06
5.4856e+06
4.99448e+06
5.80088e+06
7.51482e+06
9.08634e+06
9.62574e+06
9.57528e+06
9.41111e+06
9.60068e+06
1.04508e+07
1.14484e+07
2.29351e+07
1.90076e+08
7.34902e+07
6.55971e+07
1.62049e+08
1.91336e+07
9.93604e+06
9.09254e+06
8.43456e+06
8.40926e+06
8.71941e+06
8.65842e+06
7.60745e+06
6.05824e+06
4.78399e+06
4.35619e+06
5.03879e+06
6.47343e+06
7.78453e+06
8.30557e+06
8.3144e+06
8.23691e+06
8.45435e+06
9.25979e+06
1.02174e+07
2.01823e+07
1.65572e+08
6.97478e+07
6.07881e+07
1.44314e+08
1.74103e+07
8.99178e+06
8.11742e+06
7.53998e+06
7.47242e+06
7.61245e+06
7.45766e+06
6.5369e+06
5.25338e+06
4.19157e+06
3.82993e+06
4.42751e+06
5.65672e+06
6.76312e+06
7.24086e+06
7.29365e+06
7.29933e+06
7.53442e+06
8.25127e+06
9.23267e+06
1.8441e+07
1.51682e+08
6.52645e+07
5.64176e+07
1.2498e+08
1.60158e+07
8.248e+06
7.29683e+06
6.78582e+06
6.69579e+06
6.71316e+06
6.49914e+06
5.68859e+06
4.61465e+06
3.71107e+06
3.39437e+06
3.90802e+06
4.94844e+06
5.8761e+06
6.33826e+06
6.4457e+06
6.52287e+06
6.75235e+06
7.36527e+06
8.42301e+06
1.67766e+07
1.31567e+08
6.04005e+07
5.26121e+07
1.11933e+08
1.49495e+07
7.68492e+06
6.59819e+06
6.13058e+06
6.03403e+06
5.97026e+06
5.71514e+06
4.99826e+06
4.08815e+06
3.30925e+06
3.03005e+06
3.47136e+06
4.36378e+06
5.15881e+06
5.59159e+06
5.73906e+06
5.86136e+06
6.07385e+06
6.62098e+06
7.79639e+06
1.54139e+07
1.1434e+08
5.61914e+07
4.90535e+07
9.60681e+07
1.38484e+07
7.2371e+06
6.01313e+06
5.57206e+06
5.44406e+06
5.32944e+06
5.03591e+06
4.39813e+06
3.62971e+06
2.96568e+06
2.72412e+06
3.11486e+06
3.88875e+06
4.56745e+06
4.97705e+06
5.15365e+06
5.28891e+06
5.50352e+06
6.01688e+06
7.3031e+06
1.44036e+07
1.01277e+08
5.2418e+07
4.60648e+07
8.37053e+07
1.28463e+07
6.89384e+06
5.54755e+06
5.09518e+06
4.92479e+06
4.79184e+06
4.48281e+06
3.91478e+06
3.25681e+06
2.67734e+06
2.4631e+06
2.80184e+06
3.47508e+06
4.06419e+06
4.44577e+06
4.64526e+06
4.78437e+06
5.00976e+06
5.52244e+06
6.90986e+06
1.34987e+07
8.79962e+07
4.87934e+07
4.33598e+07
7.45285e+07
1.18536e+07
6.59195e+06
5.21849e+06
4.68032e+06
4.48167e+06
4.32659e+06
4.01775e+06
3.50611e+06
2.93942e+06
2.43167e+06
2.24159e+06
2.53816e+06
3.12434e+06
3.63731e+06
3.99602e+06
4.20482e+06
4.35268e+06
4.60422e+06
5.16337e+06
6.6162e+06
1.24714e+07
7.76407e+07
4.57781e+07
4.05846e+07
6.59453e+07
1.09209e+07
6.32539e+06
4.97307e+06
4.32742e+06
4.09017e+06
3.91137e+06
3.61162e+06
3.15309e+06
2.66013e+06
2.21587e+06
2.04908e+06
2.31327e+06
2.83631e+06
3.28752e+06
3.61507e+06
3.81932e+06
3.98323e+06
4.25145e+06
4.91228e+06
6.38232e+06
1.15604e+07
7.03726e+07
4.30732e+07
3.84372e+07
5.95287e+07
1.0131e+07
6.19261e+06
4.79571e+06
4.03964e+06
3.76159e+06
3.55615e+06
3.26663e+06
2.85781e+06
2.42651e+06
2.03269e+06
1.88343e+06
2.11556e+06
2.57708e+06
2.97416e+06
3.27774e+06
3.48068e+06
3.65754e+06
3.95567e+06
4.72487e+06
6.24117e+06
1.06311e+07
6.26674e+07
4.03557e+07
3.6351e+07
5.5276e+07
9.41534e+06
6.04299e+06
4.6712e+06
3.82813e+06
3.47135e+06
3.24796e+06
2.97002e+06
2.60517e+06
2.22535e+06
1.87246e+06
1.73824e+06
1.94284e+06
2.35597e+06
2.70799e+06
2.98253e+06
3.18803e+06
3.37435e+06
3.74003e+06
4.60989e+06
6.10066e+06
9.75519e+06
5.68721e+07
3.81344e+07
3.40845e+07
5.03578e+07
8.63358e+06
5.75587e+06
4.61623e+06
3.67261e+06
3.22824e+06
2.98042e+06
2.70709e+06
2.37864e+06
2.04343e+06
1.7306e+06
1.61173e+06
1.79639e+06
2.16718e+06
2.4792e+06
2.73276e+06
2.93737e+06
3.13745e+06
3.57841e+06
4.56442e+06
5.8518e+06
8.9571e+06
5.26856e+07
3.61166e+07
3.22403e+07
4.68558e+07
7.9498e+06
5.44492e+06
4.6267e+06
3.56569e+06
3.03786e+06
2.75513e+06
2.48572e+06
2.18754e+06
1.8891e+06
1.60615e+06
1.49901e+06
1.66268e+06
1.99705e+06
2.27599e+06
2.50851e+06
2.72197e+06
2.95364e+06
3.47024e+06
4.54129e+06
5.50109e+06
8.22443e+06
4.86522e+07
3.40596e+07
3.07438e+07
4.39545e+07
7.5365e+06
5.14543e+06
4.68639e+06
3.51053e+06
2.89553e+06
2.57237e+06
2.29658e+06
2.0205e+06
1.75201e+06
1.49591e+06
1.39959e+06
1.54607e+06
1.84625e+06
2.0985e+06
2.32003e+06
2.54329e+06
2.82041e+06
3.40431e+06
4.66643e+06
5.18686e+06
7.62224e+06
4.56325e+07
3.22368e+07
2.93145e+07
4.1162e+07
7.00938e+06
4.79088e+06
4.57536e+06
3.4996e+06
2.78225e+06
2.43212e+06
2.13578e+06
1.87226e+06
1.62795e+06
1.39591e+06
1.30995e+06
1.44276e+06
1.71849e+06
1.94805e+06
2.16193e+06
2.40477e+06
2.71162e+06
3.40847e+06
4.65476e+06
4.90139e+06
7.68609e+06
4.29158e+07
3.07194e+07
2.81407e+07
3.874e+07
6.64702e+06
4.45067e+06
4.34373e+06
3.59401e+06
2.71076e+06
2.32433e+06
2.0078e+06
1.74644e+06
1.5203e+06
1.30809e+06
1.23005e+06
1.34916e+06
1.60002e+06
1.81312e+06
2.02893e+06
2.29843e+06
2.6367e+06
3.46188e+06
4.42852e+06
4.54746e+06
7.2102e+06
4.04332e+07
2.93176e+07
2.71838e+07
3.63786e+07
6.8127e+06
4.15905e+06
4.06705e+06
3.72594e+06
2.69836e+06
2.23437e+06
1.91072e+06
1.64283e+06
1.42681e+06
1.22894e+06
1.15756e+06
1.26499e+06
1.49669e+06
1.69858e+06
1.92422e+06
2.21475e+06
2.62325e+06
3.66033e+06
4.1584e+06
4.23395e+06
7.06543e+06
3.79207e+07
2.82052e+07
2.62355e+07
3.44086e+07
6.40862e+06
3.86824e+06
3.7716e+06
3.68728e+06
2.77537e+06
2.17208e+06
1.82897e+06
1.55953e+06
1.34447e+06
1.15853e+06
1.09333e+06
1.19224e+06
1.40998e+06
1.60848e+06
1.84334e+06
2.15742e+06
2.72118e+06
3.70198e+06
3.86943e+06
4.00525e+06
7.18433e+06
3.55982e+07
2.73415e+07
2.53977e+07
3.24189e+07
6.4825e+06
3.66e+06
3.48764e+06
3.47627e+06
2.99958e+06
2.16965e+06
1.76792e+06
1.49749e+06
1.28207e+06
1.0996e+06
1.03731e+06
1.12908e+06
1.33989e+06
1.53955e+06
1.77674e+06
2.14414e+06
2.92121e+06
3.50786e+06
3.57867e+06
3.75784e+06
6.88508e+06
3.36436e+07
2.65339e+07
2.45988e+07
3.06387e+07
6.62725e+06
3.52171e+06
3.24338e+06
3.25285e+06
3.06219e+06
2.30538e+06
1.72691e+06
1.44199e+06
1.23377e+06
1.05472e+06
988705
1.08048e+06
1.28633e+06
1.48242e+06
1.72784e+06
2.25374e+06
3.03842e+06
3.28574e+06
3.31927e+06
3.56331e+06
6.71166e+06
3.1985e+07
2.57275e+07
2.34585e+07
2.88376e+07
6.46217e+06
3.37332e+06
3.03432e+06
3.02485e+06
2.90105e+06
2.52987e+06
1.7509e+06
1.39601e+06
1.19166e+06
1.01872e+06
951524
1.04299e+06
1.24274e+06
1.43561e+06
1.74579e+06
2.49007e+06
2.92143e+06
3.05355e+06
3.09823e+06
3.44709e+06
6.81568e+06
3.01313e+07
2.45544e+07
2.20845e+07
2.67966e+07
6.35963e+06
3.27612e+06
2.85756e+06
2.8036e+06
2.73049e+06
2.63596e+06
1.89721e+06
1.37539e+06
1.15669e+06
988613
924113
1.0114e+06
1.20385e+06
1.40775e+06
1.86752e+06
2.64925e+06
2.75449e+06
2.82399e+06
2.90764e+06
3.32884e+06
6.62414e+06
2.80873e+07
2.3106e+07
1.91635e+07
2.38348e+07
6.19652e+06
3.19304e+06
2.70771e+06
2.6154e+06
2.5571e+06
2.51499e+06
2.14681e+06
1.43796e+06
1.13616e+06
961578
899218
982377
1.17741e+06
1.44786e+06
2.12423e+06
2.56964e+06
2.58293e+06
2.63088e+06
2.74584e+06
3.22928e+06
6.3461e+06
2.49965e+07
2.0045e+07
6.564e+06
3.77361e+06
2.63204e+06
2.10861e+06
1.81111e+06
1.58007e+06
1.37589e+06
1.15333e+06
940296
737007
539136
380697
271080
204229
164359
141247
127165
118538
113143
108973
105103
101258
97509.1
93812.8
89779.7
85340.8
80605.6
76627.4
79130
136654
7.22754e+06
4.08922e+06
2.85306e+06
2.31254e+06
1.96568e+06
1.71266e+06
1.48241e+06
1.24935e+06
1.01766e+06
789525
576353
407369
290294
216290
170823
144567
128733
118636
112314
107691
103546
99600.7
95873.7
92129.9
87988.6
83528.4
78882.3
75204.6
78345.4
136113
7.36335e+06
4.18159e+06
3.02971e+06
2.46382e+06
2.06333e+06
1.7817e+06
1.53454e+06
1.30735e+06
1.07195e+06
839399
616719
438173
313371
231219
180214
149779
131191
119428
111990
106574
102013
97943.7
94259.5
90504.7
86485.8
82086.6
77531
74242.8
78100.3
136744
7.89316e+06
4.52283e+06
3.3591e+06
2.69083e+06
2.21433e+06
1.88543e+06
1.6198e+06
1.38751e+06
1.14452e+06
902494
668963
480752
344206
251418
192894
157051
135070
121265
112361
106051
101019
96824.2
93143.7
89307.9
85306.4
80933.3
76584.7
73666.9
78239.4
137408
8.58028e+06
4.91898e+06
3.74265e+06
2.94278e+06
2.3656e+06
1.97953e+06
1.69245e+06
1.44938e+06
1.20839e+06
971555
731421
532771
382309
276929
208755
166182
139962
123630
112969
105772
100362
96071.6
92292.1
88383.3
84350.4
80040.2
75981.8
73427.9
78552.2
138702
9.26742e+06
5.42034e+06
4.18702e+06
3.23838e+06
2.5441e+06
2.09272e+06
1.76938e+06
1.50706e+06
1.26866e+06
1.03814e+06
799189
590716
426145
307274
227657
177095
146064
126739
114386
106423
100355
95905.3
91947
87935.3
83736.5
79310.9
75473.1
73315
78939.3
139977
1.00118e+07
5.94224e+06
4.66615e+06
3.55777e+06
2.73717e+06
2.21478e+06
1.8538e+06
1.57116e+06
1.33069e+06
1.10481e+06
868602
655346
476686
342595
250112
190488
153632
130909
116864
107623
100826
96057.4
91828.7
87631.6
83275.5
78708.7
74966.4
73117.2
79170.6
140949
1.07066e+07
6.51963e+06
5.19463e+06
3.91656e+06
2.95487e+06
2.35761e+06
1.95192e+06
1.64739e+06
1.40188e+06
1.17328e+06
941534
725996
534937
384280
277323
207054
163247
136688
120299
109040
101726
96380.8
91889.6
87450.3
82874.3
78300.5
74591.4
72793.7
79249.2
141598
1.14265e+07
7.10875e+06
5.76129e+06
4.33833e+06
3.21298e+06
2.52827e+06
2.07378e+06
1.74412e+06
1.48777e+06
1.25044e+06
1.02068e+06
803328
602057
435039
311226
228031
175717
144420
124136
111140
102839
96771.6
91965
87266.2
82511.7
78059.6
74344
72490.7
79549.5
141976
1.20832e+07
7.72261e+06
6.40273e+06
4.81387e+06
3.52147e+06
2.73737e+06
2.22765e+06
1.86545e+06
1.59206e+06
1.34159e+06
1.10886e+06
887860
679319
496370
353917
255321
192214
153704
129423
113933
104126
97198.7
91945.9
87011.3
82257.9
77868.6
74106.4
72597.8
79599.8
141990
1.27345e+07
8.33322e+06
7.07716e+06
5.33699e+06
3.88732e+06
2.99345e+06
2.42062e+06
2.01976e+06
1.71599e+06
1.44936e+06
1.21126e+06
984448
767000
569325
407891
291307
214206
166339
136475
117614
105694
97862.6
92125.3
86946.1
82268.2
77717.9
74047.3
72294.4
79735.2
142181
1.34313e+07
8.97192e+06
7.78886e+06
5.91698e+06
4.32092e+06
3.31131e+06
2.66442e+06
2.21318e+06
1.86187e+06
1.57799e+06
1.33085e+06
1.09669e+06
870352
658764
476738
338508
243734
183721
146298
123223
108476
99408
93075
87208.6
82303.4
77618.1
73765.4
72146
80053.5
142633
1.4245e+07
9.68688e+06
8.54468e+06
6.56192e+06
4.83352e+06
3.70449e+06
2.9699e+06
2.45116e+06
2.03771e+06
1.72892e+06
1.46904e+06
1.22672e+06
992262
766710
563541
400390
283731
207623
159954
130585
112453
101509
93536.5
87515.2
82328.6
77446.6
73516.9
72086.3
80469.5
143266
1.50903e+07
1.04671e+07
9.35579e+06
7.27575e+06
5.42349e+06
4.17053e+06
3.33849e+06
2.73507e+06
2.24833e+06
1.9031e+06
1.62793e+06
1.37602e+06
1.13293e+06
893180
670190
480333
337313
240247
178609
140680
117757
103691
94313.5
87872.2
82305.6
77254.7
73328.6
71995.4
80890.2
144011
1.58344e+07
1.12768e+07
1.01979e+07
8.04623e+06
6.09884e+06
4.72101e+06
3.78189e+06
3.06056e+06
2.49534e+06
2.10986e+06
1.81278e+06
1.54596e+06
1.29193e+06
1.03841e+06
797087
580641
407609
284550
204239
154526
124829
106652
95546.3
88081
82320.6
77120.8
73078.7
71833.1
81341.2
144905
1.64892e+07
1.20449e+07
1.10325e+07
8.87527e+06
6.87308e+06
5.39653e+06
4.32472e+06
3.43866e+06
2.79268e+06
2.35963e+06
2.02908e+06
1.73931e+06
1.46913e+06
1.20366e+06
944530
703199
498848
344736
239739
174210
134605
111394
97792
88847.8
82350.8
76806.6
72725.6
71679.4
81929.7
146009
1.71248e+07
1.27589e+07
1.18294e+07
9.76416e+06
7.76011e+06
6.18979e+06
4.97073e+06
3.90319e+06
3.16017e+06
2.66272e+06
2.28407e+06
1.9611e+06
1.66692e+06
1.38911e+06
1.11564e+06
851346
614914
424556
288582
201705
149108
118694
100810
89877.4
82237.3
76364.1
72385
71621.4
82713.1
147522
1.76343e+07
1.34405e+07
1.2623e+07
1.06989e+07
8.75852e+06
7.12956e+06
5.73375e+06
4.48289e+06
3.61696e+06
3.0298e+06
2.58354e+06
2.21441e+06
1.89051e+06
1.59784e+06
1.30903e+06
1.02364e+06
755521
526488
354448
239473
169206
128770
105283
91527.2
82627
76266.6
72211.8
71656.2
83536.9
149209
1.84027e+07
1.39545e+07
1.33803e+07
1.16584e+07
9.86362e+06
8.23093e+06
6.65717e+06
5.20067e+06
4.18484e+06
3.4793e+06
2.94131e+06
2.50788e+06
2.1449e+06
1.82904e+06
1.52201e+06
1.21715e+06
919744
652461
439502
289772
196527
142552
111538
94117.2
83593.1
76511.6
72215.4
71903.6
84345.7
150991
1.86615e+07
1.44538e+07
1.40457e+07
1.26618e+07
1.10721e+07
9.51214e+06
7.7721e+06
6.09179e+06
4.89604e+06
4.03674e+06
3.37751e+06
2.85744e+06
2.43874e+06
2.08594e+06
1.7546e+06
1.42846e+06
1.10385e+06
800160
545179
355516
233334
161212
120049
97393.6
84716.7
76773
72142
72094.2
84965.1
152901
1.91697e+07
1.4631e+07
1.44441e+07
1.36142e+07
1.23846e+07
1.10046e+07
9.12545e+06
7.2055e+06
5.79056e+06
4.73497e+06
3.91768e+06
3.28397e+06
2.78701e+06
2.38085e+06
2.01586e+06
1.6607e+06
1.3065e+06
967689
672355
439759
282763
186512
131549
101556
85774.4
76710.1
71775.4
71893.8
85160.4
154835
1.93714e+07
1.485e+07
1.46736e+07
1.45164e+07
1.38761e+07
1.27633e+07
1.07835e+07
8.60535e+06
6.92043e+06
5.61684e+06
4.60213e+06
3.81456e+06
3.20895e+06
2.72783e+06
2.31113e+06
1.91632e+06
1.52748e+06
1.15557e+06
822187
546227
348386
221329
147651
107799
87567.5
76814.9
71299.8
71449.6
85116.9
156638
1.97611e+07
1.47456e+07
1.46779e+07
1.53563e+07
1.55853e+07
1.48679e+07
1.28357e+07
1.03713e+07
8.35745e+06
6.74409e+06
5.46826e+06
4.47821e+06
3.72027e+06
3.12498e+06
2.62553e+06
2.17982e+06
1.75652e+06
1.35836e+06
992291
676717
433486
268903
170552
117241
90720.7
77462.7
71074.8
70982.7
85039.3
158171
1.95427e+07
1.48689e+07
1.49165e+07
1.64308e+07
1.76747e+07
1.74779e+07
1.54092e+07
1.26189e+07
1.0193e+07
8.17592e+06
6.54887e+06
5.28491e+06
4.3165e+06
3.55717e+06
2.94761e+06
2.4414e+06
1.98856e+06
1.57007e+06
1.18006e+06
829769
539672
331676
201722
130362
95164.4
78522.5
70993.3
70537.1
84863.2
159564
1.81027e+07
1.81776e+07
1.70364e+07
1.85245e+07
2.04552e+07
2.08132e+07
1.86906e+07
1.5489e+07
1.253e+07
9.97412e+06
7.87351e+06
6.22004e+06
4.99998e+06
4.04745e+06
3.31788e+06
2.73813e+06
2.24773e+06
1.80099e+06
1.38504e+06
1.00053e+06
667278
410721
242123
147506
100959
79944.2
70895.2
69836.6
84503.5
160669
135393
78576.2
75993
79863.7
84295.9
88765.5
92779.7
96436.3
100133
103914
107638
111682
117378
127118
142434
167561
211916
287143
407521
580319
787750
1.00084e+06
1.23031e+06
1.46172e+06
1.67524e+06
1.92054e+06
2.24076e+06
2.79531e+06
4.00121e+06
6.9862e+06
134901
77832.9
74628.8
78195.1
82594.8
87085.6
91113.7
94878.4
98590.7
102448
106381
110959
117494
128402
145878
174593
223690
306015
434585
617645
841659
1.08073e+06
1.32686e+06
1.56792e+06
1.80857e+06
2.07909e+06
2.45566e+06
3.03053e+06
4.33208e+06
7.67684e+06
135610
77653.2
73817.2
76996.2
81246.8
85652.1
89653.2
93483.7
97213.7
101167
105496
110842
118566
131088
151151
184074
239214
329145
465733
655911
887320
1.1299e+06
1.37449e+06
1.60937e+06
1.86958e+06
2.17465e+06
2.61312e+06
3.2187e+06
4.423e+06
7.81222e+06
136328
77828.5
73358.3
76213.1
80357.1
84740.7
88739.6
92453.5
96265.8
100482
105425
111611
120703
135239
158562
196693
259407
359168
505761
706224
949701
1.19721e+06
1.44309e+06
1.68175e+06
1.96373e+06
2.32452e+06
2.84828e+06
3.56434e+06
4.7744e+06
8.34644e+06
137526
78107.9
73167.7
75744.3
79770.6
84095.7
88113.6
91725
95631.9
100068
105834
113063
123581
140462
167887
212413
284450
396168
555311
765891
1.01422e+06
1.25109e+06
1.49033e+06
1.74445e+06
2.05252e+06
2.47471e+06
3.10744e+06
3.96622e+06
5.18267e+06
9.03809e+06
138550
78363
73013.7
75328
79259.6
83631.7
87712.9
91519.7
95491.6
100186
106342
114959
127416
146775
178811
230663
313025
437500
610180
827357
1.07146e+06
1.30025e+06
1.53799e+06
1.81167e+06
2.15888e+06
2.65394e+06
3.41168e+06
4.42697e+06
5.69796e+06
9.72906e+06
139245
78459.3
72713.5
74838.2
78752.3
83335.5
87508.4
91478.2
95623
100629
107272
117005
132192
154528
191771
252013
346239
484855
670139
888521
1.12784e+06
1.35359e+06
1.5947e+06
1.89009e+06
2.28105e+06
2.84634e+06
3.74037e+06
4.91706e+06
6.2277e+06
1.0473e+07
140383
78761.9
72372.3
74361
78325.9
83141.4
87460.6
91577
96030
101452
108743
119990
137355
164325
207703
277630
385135
538509
733714
951782
1.18759e+06
1.4168e+06
1.66563e+06
1.98329e+06
2.42168e+06
3.07281e+06
4.11479e+06
5.45138e+06
6.81125e+06
1.11697e+07
140617
79037.9
72413.1
74049.6
78019.1
82770.2
87457.5
91822.7
96781.7
102761
110923
123875
144078
176218
227504
309379
432191
599707
802168
1.0214e+06
1.25481e+06
1.49496e+06
1.75682e+06
2.10122e+06
2.58917e+06
3.33405e+06
4.54937e+06
6.03832e+06
7.41066e+06
1.18897e+07
141202
79257
72456.8
74022.5
77866.3
82550.5
87449.3
92222
97304.1
104335
114040
128920
152943
191337
252967
349176
488341
668935
878918
1.1017e+06
1.33637e+06
1.5931e+06
1.87271e+06
2.25076e+06
2.79697e+06
3.64653e+06
5.0333e+06
6.68789e+06
8.03472e+06
1.25453e+07
141888
79629
72309.9
74060.7
77835.5
82500
87477.2
92576.2
97998.2
105965
117463
135626
164718
211357
286175
399597
556920
751316
967506
1.19587e+06
1.43555e+06
1.70757e+06
2.02082e+06
2.4414e+06
3.05404e+06
4.01783e+06
5.56346e+06
7.36588e+06
8.65342e+06
1.3197e+07
142068
80010.2
72292.6
74016.2
77853.8
82567.7
87615.6
92937.6
99191.4
108248
122260
144715
180675
238399
329470
463613
640831
849754
1.07191e+06
1.30533e+06
1.55491e+06
1.84373e+06
2.20719e+06
2.68244e+06
3.37275e+06
4.45901e+06
6.15492e+06
8.08614e+06
9.30599e+06
1.38971e+07
142607
80470.5
72327.3
73952
77878.5
82667.4
87905
93847.1
101099
111900
129134
157112
202616
275164
386545
544202
742475
963353
1.19382e+06
1.43487e+06
1.69737e+06
2.01078e+06
2.43723e+06
2.98372e+06
3.76727e+06
4.98603e+06
6.82171e+06
8.86028e+06
1.00393e+07
1.47228e+07
143329
80995.1
72369
73918.7
78021.5
82847.8
88268.6
94822.6
103741
117268
138696
174118
232581
324438
460782
643487
861235
1.09536e+06
1.33576e+06
1.58699e+06
1.86517e+06
2.21473e+06
2.7191e+06
3.35618e+06
4.24253e+06
5.58658e+06
7.55119e+06
9.68641e+06
1.08334e+07
1.55791e+07
144129
81538.4
72381.8
73899.7
78183.9
83199.6
88748.2
96108.8
107034
124328
151883
197846
273415
389857
555023
763692
999746
1.24735e+06
1.49906e+06
1.76568e+06
2.06599e+06
2.45859e+06
3.04686e+06
3.8038e+06
4.80351e+06
6.27784e+06
8.33483e+06
1.05384e+07
1.16492e+07
1.63271e+07
145201
82169.7
72368.2
73662.5
77857.4
83427
89652.3
98212.6
111995
133693
170516
231276
329405
475339
671586
905809
1.1584e+06
1.41845e+06
1.68438e+06
1.97253e+06
2.30589e+06
2.75262e+06
3.4292e+06
4.34978e+06
5.49271e+06
7.06508e+06
9.16903e+06
1.13839e+07
1.24169e+07
1.69729e+07
146927
82842.7
72287.1
73252.2
77397.4
83385.5
90839
101494
118636
147431
196474
277562
404646
585410
813042
1.07054e+06
1.33948e+06
1.61173e+06
1.89853e+06
2.21685e+06
2.59758e+06
3.11339e+06
3.89201e+06
5.01023e+06
6.30706e+06
7.96971e+06
1.007e+07
1.21933e+07
1.31269e+07
1.75936e+07
148752
83599.1
72299.3
73090.2
77229
83633.8
92494.4
105902
128390
166799
232807
340767
503714
723030
981444
1.2609e+06
1.54477e+06
1.83158e+06
2.14757e+06
2.51046e+06
2.95688e+06
3.55985e+06
4.46441e+06
5.77969e+06
7.26271e+06
9.00371e+06
1.10304e+07
1.29806e+07
1.37968e+07
1.80761e+07
150697
84393.7
72590.9
73225
77550.8
84516.2
95034.7
111989
141790
193363
281499
423408
627398
885873
1.17424e+06
1.47373e+06
1.77383e+06
2.08247e+06
2.43729e+06
2.86276e+06
3.4e+06
4.12027e+06
5.17722e+06
6.7036e+06
8.38772e+06
1.01444e+07
1.20083e+07
1.37358e+07
1.42945e+07
1.8808e+07
152735
85167.3
72948.1
73403.7
78097.9
85913.2
98483.1
120331
159817
229166
346054
527970
775042
1.0705e+06
1.38645e+06
1.70688e+06
2.0294e+06
2.37237e+06
2.781e+06
3.29066e+06
3.94929e+06
4.82481e+06
6.06704e+06
7.8243e+06
9.69539e+06
1.13832e+07
1.30234e+07
1.43979e+07
1.4786e+07
1.90576e+07
154765
85669.5
72934.9
73237
78274.4
87324.8
102824
131766
184525
277308
428998
654648
943897
1.27429e+06
1.61868e+06
1.96495e+06
2.32012e+06
2.71392e+06
3.19854e+06
3.82043e+06
4.6367e+06
5.71184e+06
7.17963e+06
9.18459e+06
1.12105e+07
1.27201e+07
1.39797e+07
1.4792e+07
1.49588e+07
1.95627e+07
156375
85676.9
72448.1
72601.5
78194.2
88974.2
108746
147516
218549
341802
534101
803900
1.13316e+06
1.49844e+06
1.87826e+06
2.26098e+06
2.66207e+06
3.12722e+06
3.717e+06
4.49323e+06
5.50774e+06
6.83557e+06
8.57787e+06
1.08475e+07
1.29871e+07
1.42259e+07
1.4895e+07
1.50127e+07
1.51671e+07
1.97692e+07
157914
85398.5
71738.4
72126.5
78588.5
91654.3
117339
169146
264586
425477
663459
975593
1.33974e+06
1.73532e+06
2.15412e+06
2.58513e+06
3.06013e+06
3.63017e+06
4.36826e+06
5.34463e+06
6.62228e+06
8.26845e+06
1.03487e+07
1.29096e+07
1.50985e+07
1.59451e+07
1.57332e+07
1.49957e+07
1.50514e+07
2.01912e+07
159287
85180.6
71032.7
71853.3
79455.3
95565.9
129479
198706
325235
530120
815666
1.1649e+06
1.55374e+06
1.97076e+06
2.4199e+06
2.91365e+06
3.49894e+06
4.22624e+06
5.1659e+06
6.41339e+06
8.03859e+06
1.00966e+07
1.26013e+07
1.54942e+07
1.77033e+07
1.80166e+07
1.68033e+07
1.5221e+07
1.51469e+07
1.99936e+07
160633
85044.1
70454.8
71631.7
80560.8
100788
145782
237706
402171
654890
985951
1.3701e+06
1.78302e+06
2.22471e+06
2.70655e+06
3.27541e+06
3.98278e+06
4.90611e+06
6.10449e+06
7.73486e+06
9.82687e+06
1.2427e+07
1.54773e+07
1.87806e+07
2.1023e+07
2.07747e+07
1.88799e+07
1.73326e+07
1.84055e+07
1.85301e+07
7.87969e+06
7.37587e+06
6.99041e+06
6.78178e+06
6.8381e+06
7.25711e+06
8.00735e+06
9.15768e+06
1.07367e+07
1.28122e+07
1.54147e+07
1.85708e+07
2.22677e+07
2.6477e+07
3.1106e+07
3.6039e+07
4.11538e+07
4.63341e+07
5.14705e+07
5.6466e+07
6.1274e+07
6.57729e+07
6.99003e+07
7.37208e+07
7.7309e+07