/*--------------------------------*- C++ -*----------------------------------*\
| =========                 |                                                 |
| \\      /  F ield         | OpenFOAM: The Open Source CFD Toolbox           |
|  \\    /   O peration     | Version:  2112                                  |
|   \\  /    A nd           | Website:  www.openfoam.com                      |
|    \\/     M anipulation  |                                                 |
\*---------------------------------------------------------------------------*/
FoamFile
{
    version     2.0;
    format      ascii;
    arch        "LSB;label=32;scalar=64";
    class       volScalarField;
    location    "0.01031";
    object      k;
}
// * * * * * * * * * * * * * * * * * * * * * * * * * * * * * * * * * * * * * //

dimensions      [0 2 -2 0 0 0 0];

internalField   nonuniform List<scalar> 
13875
(
812.097
3462.61
3540.36
3538.99
3541.62
3540.32
3541.66
3541.61
3539.83
3540.4
3542.05
3541.37
3540.68
3540.16
3540.45
3541.18
3541.9
3541.16
3540.76
3540.22
3541.14
3539
3539.88
3460.46
820.653
881.794
2936.62
3013.03
3000.29
3001.33
2998.41
2998.31
2998.69
2997.28
2996.43
2997.04
2998.43
2996.41
2996.35
2996.19
2998.5
2996.23
2997.1
2996.98
2998.58
3000.43
2999.28
3011.51
2934.35
894.623
993.362
2710.85
2777.49
2755.06
2759.08
2755.1
2747.63
2745.62
2743.79
2742.72
2742.36
2744.12
2751.21
2752.13
2750.89
2744.66
2741.21
2742.71
2745.32
2755.08
2757.66
2753.16
2774.41
2707.38
998.326
1091.07
2533.68
2581.02
2561.26
2566.95
2562.59
2553.69
2550.34
2548.51
2548.01
2547.43
2548.02
2559.03
2559.99
2558.85
2548.68
2547.32
2547.55
2551.17
2562.91
2565.48
2559.39
2579.07
2530.23
1093.76
1172.11
2380.46
2413.2
2392.72
2398.24
2393.81
2384.35
2381.08
2380.16
2379.93
2379.16
2379.07
2390.01
2391.37
2389.89
2379.76
2379.18
2379.03
2382.36
2393.91
2396.78
2391.15
2410.44
2375.94
1177.08
1241
2237.12
2270.97
2244.85
2251.52
2245.58
2234.51
2231.38
2231.17
2231.24
2230.19
2229.52
2240.54
2242.26
2240.51
2230.21
2230.47
2229.9
2233.09
2245.69
2249.95
2243.72
2267.9
2247.28
1246.88
1320.96
2121.81
2158.37
2120.36
2123.37
2115.57
2102.21
2098.61
2098.87
2099.1
2097.79
2096.6
2107.77
2109.67
2107.56
2097.23
2098.53
2097.65
2101.55
2115.5
2121.69
2119.75
2154.11
2095.47
1323.04
1409.74
2000.71
2073.59
2019.73
2016.53
2002.72
1985.83
1981.11
1981.39
1981.69
1980.17
1978.19
1989.59
1991.87
1989.44
1978.8
1981.39
1980.49
1985.43
2002.18
2013.96
2017.99
2068.38
1992.62
1420.14
1691.39
2029.39
2021.99
1944.45
1925.12
1904.97
1883.75
1877.35
1877.61
1878.01
1876.45
1873.67
1885.23
1887.95
1885.38
1874.59
1878.04
1877.13
1883.35
1903.87
1922.4
1942.21
2017.91
2033.53
1716.77
2509.07
2285.41
2018.17
1901.27
1859.01
1826.22
1802.04
1795.15
1794.41
1794.39
1792.81
1789.61
1800.76
1803.93
1801.45
1791.85
1794.86
1795.01
1801.33
1824.71
1855.62
1891.55
2011.49
2266.3
2529.92
3876.9
3026.52
2153.75
1915.96
1814.96
1772.07
1744.53
1734.59
1732.15
1731.01
1729.27
1725.9
1736.03
1739.55
1738
1730.95
1733.12
1735.02
1744.95
1768.22
1813.29
1907.2
2129.6
2936.66
3858.89
5185.97
6454.82
2853.06
1994.49
1854.04
1756.31
1712.07
1696.7
1690.81
1688.1
1685.97
1682.89
1691.05
1694.75
1694.71
1690.73
1692.82
1697.81
1712.23
1757.77
1847.05
1973.97
2789.44
6314.78
5120.42
5057.08
7626.45
7048.38
3336.48
2042.53
1796.17
1741.51
1701.59
1685.72
1678.31
1674.35
1671.02
1676.74
1680.29
1682.34
1682.88
1689.89
1706.49
1746.43
1804.09
2089.01
3232.05
6762.65
7645.06
5009.72
4826.74
6359.93
7173.55
8739.19
5169.3
2331.54
1900.29
1783.43
1748.48
1743.76
1740.67
1737.77
1742.46
1745.55
1748.64
1751.99
1757.78
1792.22
1941.02
2483.06
5618.11
8152.3
6954.53
6329.01
4832.71
4603.43
5512.89
6040.22
6991.02
6829.22
6732.59
3438.9
2379.07
2132.3
2037.12
1996.6
1981.64
1982.03
1986.39
1997.77
2029.51
2119.36
2386.85
3630.17
6896.09
6816.99
6704.14
5964.54
5485.8
4681.28
4293.28
4799.01
5114.17
5880.52
6061.12
6570.99
5577.62
5156.32
4847.25
4197.05
4270.26
4321.51
4364.15
4350.47
4288.1
4185.8
4743.4
5442.39
5661.97
6634.2
5996.88
5706.41
5070.61
4777.54
4365.32
3728.12
4040.4
4337.51
5065.57
5579.12
6483.42
7296.8
7560.49
6697.34
6253.42
6505.08
6737.34
6871.22
6817.47
6571.35
6549.53
6706.31
7549.46
7338.41
6457.7
5430.91
4899.27
4224.43
3960.02
3719.48
3064.42
3408.38
3951.87
4857.35
5497.11
6088.72
7058.94
7777.67
6531.73
5480.65
5207.45
5233.42
5302.08
5267.17
5266.22
5787.12
6520.42
7423.43
7020.78
6205.44
5529.89
4803.19
3860.44
3345.74
3027.1
2642.45
3173.04
3859.8
5063.56
5968.68
5767.93
6057.51
6767.4
6135.32
5179.83
4686.02
4541.25
4533.2
4586.72
4782.87
5319.95
5963.79
6450.29
6058.15
5957.58
6246.96
5087.63
3841.29
3154.49
2644.36
2529.15
3413.76
4089.65
5197.09
5764.11
5299.64
5234.95
5720.53
5571.45
4954.57
4415.72
4085.34
3974.97
4159.76
4548.89
5029.34
5359.71
5468.75
5260.08
5488.85
5952.21
5171.5
4094.26
3428.95
2520.99
5091.09
7700.25
6238.06
4834.93
5002.41
4646.03
4565.01
4969.27
5035.46
4624.27
4081.07
3651.57
3501.02
3763.03
4243.86
4674.39
4826.83
4769.71
4602.43
4811.83
5147.85
4957.79
6672.08
8188.76
5961.72
11558
23222.7
7860.41
4243.49
4306.18
4083.82
4040.13
4396.9
4540.27
4243.7
3725.86
3258.88
3090.41
3378.39
3883.43
4270.73
4340.6
4239.48
4069.59
4216.54
4411.8
4375.21
8373.47
23300.3
12735.8
13738.9
19526
6913.91
3781.58
3765.95
3629.09
3602.29
3928.93
4089.18
3852.83
3366.42
2908.6
2735.05
3010.48
3502.61
3866.57
3899.81
3796.01
3621.98
3721.77
3840.18
3888.69
6939.19
18974.1
13555.1
13038.7
19577.4
5839.18
3432.16
3330.02
3237.65
3230.38
3519.03
3678.98
3474.98
3018.35
2589.73
2434.11
2691.86
3156.02
3497.11
3507.75
3399.84
3251.07
3316.87
3403.45
3541.43
5970.17
20177
12966
12689.4
19192.8
5188.87
3161.01
2999.8
2915.75
2926.41
3170.76
3315.92
3133.36
2715.22
2321.88
2180.58
2415.69
2847.75
3161.92
3165.54
3060.95
2937.95
2982.66
3075.75
3269.37
5394.17
20401
12743.3
12439.5
19180.8
4725.41
2916.71
2736.69
2646.89
2674
2873.85
2995.88
2831.72
2454.73
2094.77
1965.57
2176.49
2570.36
2857.1
2863.69
2768.94
2667.43
2692.62
2805.67
3005.96
4897.85
20152.9
12685
12459.8
17826
4248.26
2695.89
2524.39
2424
2457.56
2616.1
2707.56
2552.06
2217.7
1898.72
1783.54
1976.71
2334.25
2591.9
2606
2523.86
2440.69
2458.74
2593.45
2787.92
4474.43
19006.3
12681.9
12348.2
16908.6
3926.93
2516.54
2351.16
2242.69
2273.11
2396.85
2462.24
2317
2019.4
1732.93
1628.03
1801.49
2122.28
2355.43
2379.31
2312.85
2247.49
2266.39
2407.6
2595
4152.83
18281.6
12541.2
12055.1
16442.6
3694.3
2362.43
2202.79
2097.62
2114.18
2206.4
2248.52
2110.78
1848.14
1591.54
1494.14
1649.18
1933.14
2141.44
2178.35
2129.4
2080.87
2105.03
2243.42
2427.37
3847.32
16847
12416.7
11799
15362.8
3493.93
2231.5
2065.24
1971.29
1978.83
2038.39
2055.15
1923.26
1691.23
1465.08
1378.55
1521.42
1778.35
1965
2007.13
1972.94
1942.12
1971.08
2097.59
2290.65
3656.69
16009.5
12163.1
11418.4
14116.8
3337.44
2128.64
1944.08
1858.77
1860.44
1894.09
1891.58
1765.25
1560.54
1358.05
1277.97
1407.18
1635.69
1802.24
1853.88
1836.61
1822.84
1852.27
1962.67
2173.77
3452.83
14616.2
11871.8
11089.3
13318
3220.63
2052.36
1836.45
1755.55
1754.52
1769.43
1751.44
1631.36
1447.86
1264.19
1190.68
1306.6
1512.83
1664.49
1720.95
1717.88
1716.18
1743.93
1845.38
2083.48
3284.51
13364.3
11549.9
10801.5
12137.7
3091.74
1992.39
1744.23
1664.77
1655.4
1656.69
1622.86
1507.48
1344.55
1180.81
1114.08
1221.51
1408.31
1544.87
1605.15
1614.38
1618.84
1649.17
1747.79
2013.93
3169.25
12583.2
11169.7
10486.3
11235.1
2976
1950.4
1669.35
1583.52
1563.13
1557.52
1513.53
1404.15
1257.33
1107.83
1046.76
1143.4
1313.63
1438.77
1501.01
1521.06
1528.95
1564.14
1666.6
1960.05
3065.99
11655.8
10785.2
10193.8
10607.5
2852.5
1914.88
1619.46
1510.46
1480.98
1467.08
1416.96
1312.1
1179.99
1043.91
987.228
1075.32
1229.41
1344.12
1408.73
1435.52
1448.85
1492.59
1609.25
1922.33
2937.57
10897.4
10464.6
9905.15
9927.68
2729.77
1883.32
1584.75
1446.84
1405.81
1382.9
1329.07
1229.91
1109.29
985.143
934.257
1015.36
1158.57
1264.11
1327.22
1357.02
1377.62
1428.33
1573.06
1894.36
2827.21
10334.6
10191.7
9646.62
9439.19
2626.92
1878.13
1563.68
1394.65
1340.06
1307.77
1250.8
1157.72
1047.88
934.194
886.883
961.104
1091.7
1189.17
1251.69
1285.68
1312.7
1373.9
1548.41
1885.11
2699.92
9639.73
9930.34
9388.9
9173.83
2530.55
1870.06
1554
1358.1
1280.15
1239.94
1180.99
1094.45
993.691
887.715
844.372
912.061
1033.59
1123.59
1183.12
1221.61
1254.06
1335.75
1539.63
1877.62
2573.4
9187.41
9704.15
9109.05
8736.56
2412.52
1828.7
1559.11
1333.8
1229.3
1179.07
1116.65
1034.83
942.477
845.692
806.216
869.336
981.895
1064.91
1122.83
1164.97
1204.26
1309.32
1545.01
1845.09
2461.14
8998.46
9466.06
8853.24
8483.93
2302.69
1778.57
1578.45
1320.25
1189.77
1126.27
1060.63
983.45
898.351
807.895
771.46
829.013
934.492
1011.29
1067.26
1115.15
1166.31
1295.22
1555.2
1788.04
2356.79
8807.31
9171.3
8641.61
8303.99
2233.76
1726.67
1614.17
1318.65
1161.65
1082.76
1011.57
936.881
857.744
773.699
739.936
792.805
890.519
962.878
1019
1073.58
1140.63
1291.88
1602.57
1737.33
2276.85
8678.92
8878.8
8442.3
8100.65
2149.29
1658.79
1605.96
1327.65
1140.5
1050.22
969.046
894.729
820.368
741.695
710.947
760.248
853.024
920.981
978.015
1041.86
1120.77
1306.55
1619.98
1691.08
2330.21
8480.62
8631.26
8256.05
7933.72
2096.28
1590.22
1564.94
1361.79
1130.31
1026.08
935.054
858.074
787.018
713.051
684.428
729.96
816.835
882.37
943.011
1018.76
1110.07
1335.03
1582.54
1623.25
2236.48
8249.07
8416.51
8102.41
7758.09
2147.73
1530.55
1507.97
1417.01
1136.49
1006.35
910.011
827.876
757.79
686.681
659.961
702.21
784.686
849.382
916.234
1001.5
1117.48
1402.83
1530.42
1558.32
2206.09
8048.17
8243.23
7955.19
7604.47
2084.91
1469.11
1443.21
1427.87
1169.64
995.032
889.492
803.564
731.747
662.926
637.874
677.886
758.074
823.59
896.115
992.089
1157.89
1429.73
1470.04
1507.68
2241.31
7874.76
8106.96
7809.59
7435.39
2119.65
1425.93
1378.55
1381.5
1246.06
1002.4
875.262
786.406
712.002
643.359
618.491
656.891
736.139
804.468
880.273
997.305
1229.64
1388.94
1405.4
1452.95
2216.97
7705.63
7977.34
7666.25
7282.32
2171.27
1398.86
1321.88
1328.85
1276.44
1053.04
867.509
771.275
697.467
628.31
601.265
640.583
719.718
789.014
870.387
1042.47
1275.19
1338.08
1344.74
1414.1
2214.81
7525.89
7833
7450.8
7098.72
2156.95
1367.71
1271.87
1272.28
1239.16
1131.46
881.999
759.474
685.183
616.934
588.588
628.651
706.856
777.347
883.895
1127.33
1249.29
1281.38
1293.27
1396.17
2255.44
7299.78
7609.37
7165.91
6850.37
2154.81
1348.49
1229.4
1215.39
1196.72
1175.61
937.691
756.767
675.93
607.574
579.826
618.686
696.146
772.484
934.147
1185.55
1207.78
1223.1
1246.85
1374
2224.82
7035.02
7321.55
6526.74
6391.87
2139.56
1332.87
1192.22
1166.14
1151.38
1147.15
1028.85
784.897
672.002
599.925
571.993
610.321
689.731
794.393
1028.07
1167.09
1162.66
1171.97
1206.47
1351.27
2179.89
6565.61
6674.72
6248.3
9429.56
9196.79
7706.88
6202.41
5144.59
4444.01
3928.38
3488.65
3085.01
2690.14
2301.71
1929.02
1593.58
1305.44
1070.22
885.447
743.139
632.953
549.991
488.399
441.135
404.177
372.993
344.579
317.255
290.476
265.178
251.843
325.931
6451.37
9933.35
9563.38
7969.08
6430.06
5362.64
4655.97
4139.28
3708.51
3314.03
2925.25
2536.7
2152.81
1792.96
1471.49
1199.42
979.869
807.589
674.151
575.395
502.071
447.406
405.983
372.297
342.638
315.087
288.668
264.187
252.639
326.984
6774.24
10485.3
9922.34
8262.62
6698.17
5611.68
4899.33
4384.62
3965.55
3579.16
3194.41
2804.28
2409.2
2025.01
1668.67
1356.03
1097.04
890.166
729.23
609.382
521.248
457.258
409.915
372.753
341.24
313.25
287.281
263.708
254.185
328.584
7089.24
11034.8
10423.8
8709.22
7089.53
5955.33
5217.84
4693.23
4274.52
3893.2
3511.23
3119.19
2714.18
2306.58
1914.29
1557.38
1252.13
1003.5
807.281
658.441
551.098
473.9
418.088
375.798
341.633
312.684
286.86
264.167
256.401
331.179
7339.79
11609.2
11026.3
9269.42
7575.27
6375.07
5599.91
5054.7
4632.06
4253.63
3872.07
3477.69
3063.35
2633.71
2206.99
1804.81
1448.5
1149.74
907.581
726.205
593.871
499.128
431.49
382.053
343.88
313.305
286.995
265.183
258.996
334.704
7596.02
12240.7
11702.3
9888.99
8125.54
6853.74
6032.4
5458.76
5030.62
4649.97
4265.73
3867.87
3444.89
2996.23
2538.29
2092.5
1683.72
1328.74
1039.05
818.651
654.185
535.291
451.513
392.237
348.337
315.053
287.808
266.74
261.989
339.036
7873.42
12907.2
12415.5
10564.5
8744.73
7396
6515
5907.37
5467.72
5076.66
4684.42
4279.6
3847.68
3382.42
2898.38
2415.18
1958.3
1549.58
1210.28
940.749
734.617
585.464
480.233
407.201
355.444
318.143
289.577
268.911
265.302
344.41
8145.87
13590.8
13169.7
11306.9
9436.85
8008.43
7058.42
6406.62
5943.84
5533.15
5127.98
4713.12
4272.08
3793.07
3290.35
2778.81
2281.25
1823.27
1427.45
1098.93
841.942
653.698
520.974
429.193
366.546
323.401
292.687
271.689
268.818
349.934
8408.73
14278.2
13976.6
12124.7
10202
8695.43
7669.25
6963.04
6465.03
6027.39
5607.85
5180.32
4729.96
4240.06
3723.78
3189.84
2658.14
2152.5
1694.37
1299.68
983.072
747.068
577.925
460.503
382.7
331.552
297.184
274.66
272.19
354.907
8674.57
14991.8
14847.3
13014.4
11042.7
9454.76
8349.02
7582.92
7041.21
6567.27
6129.48
5684.68
5223.27
4724.54
4197.54
3645.11
3084.05
2532.54
2012.69
1549.87
1167.15
871.439
654.717
504.352
405.981
343.473
302.713
277.726
275.416
361.338
8971.63
15742.4
15766.5
13962
11955.1
10285.5
9100.49
8274.34
7679.68
7159.37
6693.98
6227.27
5750.48
5243.7
4706.78
4138.6
3551.7
2959.22
2382.73
1852.89
1397.33
1030.97
756.567
564.159
437.654
358.559
309.711
282.002
279.23
368.54
9264.93
16501.4
16700
14950.4
12930.1
11187.4
9926.66
9042.48
8388.56
7807.93
7299.9
6805.52
6310.07
5792.55
5244.86
4662.46
4053.53
3427.54
2802.5
2209.57
1678.45
1232.03
888.271
643.253
479.68
378.529
318.536
286.651
283.346
374.624
9530.77
17245.3
17624.6
15968.8
13959.9
12159
10832.4
9895.94
9172.56
8514.23
7949.07
7421.71
6904.13
6374.08
5813.38
5215.75
4587.21
3932.91
3269.5
2617.89
2009.49
1480.69
1057.91
747.585
536.516
405.733
330.024
291.14
286.456
380.391
9744.18
17979.5
18537.5
17004.8
15035.4
13199.6
11823.5
10842.1
10035.8
9279.69
8649.38
8088.11
7546.12
6996.03
6414.56
5799.13
5152.53
4473.59
3776.16
3073.77
2397.22
1783.99
1272.8
884.479
613.518
443.277
346.049
297.414
289.524
385.997
9950.58
18681.7
19436.4
18042.4
16144.4
14306.8
12905.7
11885.9
10979.3
10116.7
9423.78
8823.57
8248.27
7666.24
7054.06
6417.03
5747.29
5043.7
4312.96
3567.14
2832.2
2140.15
1536.79
1058.53
714.477
493.327
367.877
305.387
292.486
391.267
10128.2
19318.4
20319.3
19084.8
17277.2
15480.5
14086.6
13027.3
12006.2
11053.1
10298.4
9644.22
9021.12
8394.68
7742.3
7075.53
6375.62
5641.78
4877.03
4090.04
3301.54
2539.29
1847.09
1273.12
843.93
559.649
396.605
315.859
296.105
396.359
10324.1
19854.4
21145.6
20099.7
18418.3
16709.9
15358.8
14259
13135.5
12105.4
11286.8
10564.2
9876.97
9192.13
8488.91
7780.57
7041.75
6270.99
5468.52
4640.6
3800.16
2974.57
2199.56
1529.1
1005.47
644.694
433.764
329.117
300.428
401.257
10424.9
20323.6
21855.5
21059
19549.8
17980.1
16714.1
15589.9
14390.7
13287.7
12393.8
11597.3
10831.8
10071.5
9305.44
8542.77
7754.25
6937.46
6090.84
5218.05
4328.27
3442.65
2591.89
1827.1
1201.95
752.121
481.424
346.02
305.356
405.97
10527.3
20641.7
22422.6
21892.8
20630.9
19273.9
18142.1
17027.6
15783.2
14612.7
13638.6
12757.8
11900.4
11047.5
10205.6
9374.53
8523.33
7649.07
6748.84
5824.91
4883.22
3939.01
3018.49
2164.76
1437.01
887.194
543.381
368.085
311.3
410.445
10559.9
20907.8
22796.8
22543.3
21637.9
20571.9
19634.2
18579.6
17311.8
16094.2
15039.8
14062.4
13100.4
12139.3
11205
10291.5
9363
8417.94
7452.24
6467.53
5466.5
4461.45
3470.98
2536.26
1711.31
1054.38
623.852
397.413
319.007
415.019
10609.2
20961.9
22960
22966.5
22498.8
21848.2
21185.1
20252.3
19004
17738.6
16603.9
15529.4
14448.7
13364.6
12324
11310.7
10288.7
9257
8211.15
7151.99
6079.57
5003.96
3940.6
2934.05
2019.12
1254.93
726.446
435.933
328.927
419.553
10608.8
20994
22880
23139.7
23219.7
23101.4
22790.1
22044.1
20862.1
19566.8
18351.9
17170.6
15955.8
14740.3
13580.3
12447.3
11313.3
10176.3
9032.51
7882.38
6725.27
5570.93
4436.94
3358.79
2355.44
1488.97
854.488
486.623
341.571
422.95
10683.8
20799.3
22508.2
23075.6
23809.5
24331.8
24445.6
23957.1
22891.2
21588.4
20293.6
18993.8
17645.1
16288.8
14985.9
13715.4
12446.8
11182.8
9922.18
8666.56
7417.91
6184.87
4981.46
3821.9
2727.47
1761.23
1013.57
553.053
358.794
426.875
10522.4
20648.2
22034.4
22936.8
24365.7
25560.1
26156.3
25987.1
25092.6
23813.2
22446.1
21022.1
19533
18019.9
16554.5
15126.7
13700.7
12287.7
10894.5
9524.47
8180.55
6865.68
5583.06
4336.4
3149.07
2077.2
1209.4
640.07
383.647
431.677
10029
21464.6
22186.8
23122.2
25082.5
26863
27950.6
28133
27464.7
26250.1
24827.7
23278.3
21633.3
19946.5
18297.7
16691.1
15085.1
13502.3
11964.1
10470.7
9021.71
7611.22
6234.67
4896.29
3617.17
2437.92
1443.05
750.095
416.816
438.617
324.66
250.769
264.784
290.618
317.834
345.391
374.811
405.775
442.984
490.563
550.688
633.517
741.336
883.974
1062.78
1287.98
1565.93
1894.96
2262.52
2646.65
3039.67
3449.16
3896.71
4428.42
5148.14
6232.51
7767.13
9279.54
9488.03
6270.19
325.755
251.444
263.888
288.88
315.734
343.476
373.847
407.961
449.456
503.24
575.547
674.273
804.119
975.677
1189.52
1452.3
1763.6
2115.89
2493.33
2877.31
3264.1
3663.5
4103.22
4635.99
5362.49
6454.63
8021
9639.84
9988.89
6476.53
327.27
252.797
263.744
287.791
314.038
341.963
373.304
410.772
457.912
520.956
607.695
727.477
885.504
1091.18
1345.65
1649.1
1995.65
2371.54
2759.42
3144.56
3526.95
3915.89
4343.68
4873.69
5609.1
6720.07
8308.64
9994.89
10547.3
6799.59
329.486
255.166
264.45
287.548
313.643
342.444
375.522
417.629
472.37
549.075
654.313
800.744
996.637
1243.85
1546.57
1896.3
2280.66
2680.28
3078.13
3463.91
3841.33
4223.41
4646.68
5186.9
5951.16
7110.08
8747.3
10490.8
11099.9
7123.41
331.757
257.654
265.399
287.895
314.202
344.258
380.568
428.872
494.887
587.891
717.565
894.497
1133.85
1432.59
1787.68
2186.52
2608.89
3032.14
3440.11
3827.87
4203.73
4580.83
5002.49
5563.44
6369.24
7593.07
9301.42
11089.4
11677.7
7379.92
335.318
260.118
266.517
288.676
315.694
347.961
389.032
446.177
527.619
643.187
804.456
1019.26
1303.05
1656.33
2062.59
2506.46
2961.79
3406.62
3825.89
4218.44
4599.65
4978.87
5404.06
5991.57
6844.18
8139.02
9916.63
11759.7
12309
7644.67
339.76
262.881
268.135
290.116
318.427
354.569
402.497
471.263
572.726
718.373
919.639
1183.84
1517.76
1923.05
2377.12
2858.84
3340.89
3803.58
4234.36
4634.57
5025.47
5414.09
5851.5
6470.48
7381.31
8753.19
10587.3
12466.4
12974.7
7934.92
344.904
266.276
270.586
292.688
323.154
364.35
422.286
508.025
634.774
818.071
1068.52
1392.3
1784.96
2240.78
2737.88
3250.43
3753.71
4230.49
4671.77
5081.94
5485.44
5891.66
6349.56
7009.02
7990.97
9443.93
11330.8
13218.9
13662.4
8216.41
351.081
270.34
273.883
296.594
330.185
378.444
449.723
558.602
719.184
948.883
1257.36
1646.46
2103.65
2609.43
3144.08
3682.71
4203.47
4692.18
5143.34
5565.77
5982.59
6415.58
6902.37
7612.14
8673.14
10208.8
12147.9
14021.4
14353.2
8487.66
357.994
274.883
278.114
302.059
339.916
397.851
487.328
626.016
830.97
1119.31
1492.05
1949.61
2469.78
3022.96
3589.68
4149.55
4684.66
5185.44
5648.5
6087.69
6520.89
6988.32
7516.43
8282.41
9427.48
11049.1
13040
14888.1
15064.1
8751.88
365.223
279.478
283.279
309.854
353.144
424.295
538.167
715.219
973.496
1327.53
1777.37
2301.33
2877.57
3473.26
4067.31
4644.45
5190.64
5704.38
6183.77
6645.31
7104.63
7616.48
8194.28
9023.99
10249
11957.5
13990.2
15808.4
15815
9044.14
371.609
283.031
287.21
318.421
371.01
460.334
606.463
832.344
1154.98
1583.3
2106.95
2694.85
3320.41
3951.67
4568.4
5161.06
5718.98
6245.42
6745.86
7238.17
7738.63
8309.37
8943.62
9837.04
11137.2
12925
14980.8
16747.1
16583.9
9347.87
377.557
286.19
291.857
328.341
394.786
508.837
697.212
983.15
1381.03
1890.22
2483.87
3129.95
3795.81
4455.89
5092.6
5701.19
6273.47
6814.17
7339.46
7869.03
8429.53
9075.19
9778.14
10728.6
12095.5
13947.1
16002.6
17682.2
17339
9614.35
383.366
290.173
297.635
341.911
425.947
573.11
815.773
1173.66
1655.09
2243.86
2905.81
3603.26
4303.01
4986.15
5641.24
6267.89
6863.03
7425.63
7978.84
8546.79
9175.75
9917.47
10706.1
11704.7
13120.7
15012.5
17038.9
18599.7
18077.9
9848.41
389.51
293.952
304.705
359.639
466.978
657.078
966.124
1407.72
1978.07
2645.49
3367.19
4107.85
4838.34
5543.75
6221.26
6869.46
7497.52
8094.76
8684.35
9294.3
9992.2
10839.7
11733.2
12773
14213.4
16111.4
18077.6
19504.3
18786.1
10068.6
395.216
297.247
313.298
382.675
521.09
766.132
1154.56
1689.08
2349
3088.13
3861.06
4640.68
5402.32
6135.47
6841.91
7519.69
8189.41
8834.49
9473.91
10141.5
10904
11848
12859.3
13940.6
15374.8
17235.5
19118.9
20396.8
19437.3
10242.3
400.218
300.156
323.589
412.148
590.869
904.442
1382.53
2013.21
2756.63
3559.49
4380.56
5199.09
5997.03
6766.83
7511.77
8231.3
8952.15
9658.71
10364.1
11104.2
11930.5
12958.2
14075.1
15202
16595.4
18371
20139.1
21241.7
19992.9
10453.9
404.59
303.363
336.233
449.819
679.747
1074.91
1649.8
2374.59
3194.62
4057.29
4929.05
5790.07
6631.89
7448.44
8243.51
9017.87
9800.08
10583.8
11370.4
12186.6
13094.6
14190.5
15388.3
16549.3
17860.7
19500.6
21113.6
21978.8
20486.5
10552.6
408.625
307.662
352.92
499.026
792.281
1280.02
1955.44
2769.76
3661.21
4584.27
5509.14
6420.72
7316.37
8191.85
9050.36
9893.96
10749.3
11626
12506.3
13412
14399.1
15558.8
16815.1
17974.1
19155.7
20584.8
21960.6
22563.9
20818.3
10653.4
412.482
313.637
375.648
563.859
934.006
1523.15
2299.38
3195.91
4158.53
5145.16
6130.35
7102.68
8063.49
9010.77
9946.77
10873.7
11817.7
12801.2
13789.5
14791.6
15860.8
17080.6
18357.1
19468.7
20461.4
21601.8
22642.4
22969.6
21112.3
10688.5
416.328
321.271
405.995
648.135
1109.03
1805.78
2678.53
3652.29
4689
5744.97
6800.72
7846.45
8885.99
9919.5
10948
11973.2
13023.9
14123.9
15233.9
16338.1
17491.9
18763.2
20021.6
21027.4
21752.7
22484.8
23072.8
23161.5
21195
10745.7
420.601
331.549
446.622
756.31
1319.17
2125.66
3090.82
4142.53
5253.78
6387.24
7525.13
8658.85
9793.02
10929.7
12068
13210.4
14380.7
15614.5
16857.1
18069.2
19302.9
20609.7
21817.1
22648.4
23025.3
23233.4
23283.6
23103.8
21247.6
10749.6
424.822
345.271
500.001
893.685
1569.92
2484.52
3543.13
4679.59
5866.16
7080.9
8309.13
9544.37
10790.1
12049.7
13318.6
14597.8
15906.2
17281.3
18666.2
20002.3
21314.1
22625.5
23740.9
24329.8
24281.5
23864.1
23247.6
22752.4
21063
10834.1
429.504
365.249
571.965
1067.09
1867.29
2894.8
4051.04
5277.41
6544.66
7844.16
9168.22
10515.1
11887.6
13290.6
14712.7
16145.5
17612.4
19143.7
20683.7
22144.8
23525.2
24825
25795
26076.8
25544.9
24446.6
23142.5
22283
20902.3
10677.3
434.912
391.884
664.696
1277.84
2211.12
3353.26
4608.5
5929.65
7290.76
8685.99
10115.1
11583
13096.2
14663.4
16261.2
17870.1
19516.6
21221.5
22927.4
24512.8
25954.8
27209.8
27980.5
27914
26893.6
25226.6
23362.9
22411.2
21659.2
10175.1
22026.6
22957
23754.1
24693.8
25579
26505.3
27396.5
28291.3
29169.9
30039.8
30900.1
31752.3
32599.1
33442
34289
35163.5
36053.4
36945.2
37823.3
38671.2
39476.2
40267.1
41126.7
41984.3
42805.4
43575.5
44300.1
45004.6
45683.5
46333.9
46953.6
47539.6
48089.4
48601.4
49074.2
49506.2
49895.6
50240.6
50538.3
50785.3
50978.5
51111.6
51185.2
51202
51142.9
51061.5
50975.4
50853.6
50661.2
50400
50064.3
49629.7
49140.7
48628.9
48062
47426.5
46715.1
45955.7
45137.1
44243.3
43263.8
42200.7
41065.6
39859.9
38585
37245.1
35851.9
34416.3
32946.7
31450.6
29933.8
28411.6
26897.8
25431
24016.7
22651.1
21332
20061
18837.4
17659.2
16530.1
15449.3
14411.2
13421.9
12479.5
11575.9
10724
9927.89
9180.18
8474.59
7808.18
7183.1
6600.89
6061.29
5563.76
5107.12
4689.18
4307.14
3958.23
3638.43
3343.72
3070.58
2815.79
2576.73
2351.18
2137.47
1933.79
1740.12
1557.41
1386.23
1228.51
1085.39
957.889
847.727
754.679
677.87
616.076
567.391
529.979
502.149
481.645
467.012
456.589
448.553
440.853
53909.8
55733.6
57622.2
59682.3
61750.2
63838.8
65916.5
67995.8
70071.5
72147.2
74225.9
76310.8
78403.2
80501.4
82599.8
84693.2
86802.2
88911.6
91011.2
93101.3
95195.1
97306.8
99391
101418
103385
105301
107182
109021
110807
112532
114193
115783
117300
118739
120098
121372
122555
123639
124617
125477
126208
126802
127247
127532
127652
127613
127379
126955
126361
125595
124664
123601
122294
120901
119362
117661
115799
113787
111611
109245
106678
103915
100985
97887
94627.4
91222.8
87702.8
84090.6
80406.4
76672
72908.5
69137.2
65372.9
61599
57857.2
54231.9
50747.4
47409.4
44216.2
41168.4
38269.7
35515.3
32906.3
30444.2
28119.7
25937.4
23916.7
22051.6
20314.3
18687.2
17174.1
15781.6
14507.7
13349.9
12303.3
11360.8
10515.2
9757.45
9077.15
8460.53
7895.75
7370.14
6874.48
6401.48
5944.63
5500.34
5063.06
4631.36
4206.24
3787.92
3379.76
2987.06
2614.1
2264.08
1944.43
1656.24
1400.29
1176.1
984.144
824.579
695.587
594.286
518.541
464.266
424.161
75071.7
77346.5
79783.5
82392.8
85063.1
87761.7
90470.6
93192.3
95926.3
98675.4
101443
104232
107039
109863
112696
115529
118366
121219
124082
126968
129874
132764
135591
138351
141055
143713
146323
148874
151357
153766
156096
158342
160501
162570
164543
166415
168177
169815
171315
172660
173832
174818
175601
176165
176503
176606
176456
176058
175418
174542
173438
172118
170567
168812
166863
164705
162335
159655
156758
153590
150131
146380
142401
138177
133711
129030
124185
119204
114115
108947
103742
98533.2
93345.3
88200.6
83117.3
78102.3
73200
68498.3
64000.1
59714.8
55641.3
51777.4
48121.9
44672.3
41423.2
38373.6
35525.4
32870.2
30389
28070.4
25912.1
23913.6
22072.2
20380.9
18833.9
17426.4
16146
14982.8
13927
12963.5
12079.6
11262.6
10502.1
9790.52
9119.56
8484.2
7876.04
7290.37
6724.51
6174.82
5639.35
5119.79
4619.09
4139.76
3685.93
3259.3
2860.26
2486.67
2137.79
1820.27
1538
1290.35
1081.91
914.042
778.023
94416.2
97056.4
99917
102966
106122
109329
112569
115842
119146
122485
125863
129278
132727
136207
139710
143224
146740
150266
153830
157437
161057
164626
168119
171544
174918
178241
181496
184680
187787
190814
193756
196613
199382
202061
204645
207123
209480
211698
213752
215619
217276
218706
219890
220809
221450
221806
221866
221626
221084
220244
219111
217695
216003
214053
211855
209404
206660
203577
200161
196400
192270
187694
182798
177615
172103
166302
160275
154066
147695
141203
134655
128099
121564
115084
108694
102416
96264.6
90237.5
84401.8
78866.7
73616.9
68657
63979
59575.5
55436.5
51553
47915
44507.7
41316
38328.9
35539.7
32942.7
30531.7
28300.2
26241.8
24350.7
22610
21007.7
19533
18174
16918.8
15757.6
14684.4
13686.9
12753.6
11880.3
11059.6
10285.2
9550.89
8849.86
8175.73
7527.06
6903.62
6306.6
5734.7
5188.42
4670.4
4177.62
3701.25
3249.1
2828.41
2439.74
2089.12
1784.94
1518.39
113426
116416
119643
123082
126671
130337
134060
137837
141668
145554
149496
153492
157540
161632
165762
169919
174092
178277
182479
186715
190935
195081
199142
203132
207062
210928
214707
218404
222021
225559
229019
232400
235704
238929
242067
245103
248012
250763
253322
255662
257760
259604
261176
262457
263432
264098
264445
264459
264128
263450
262424
261060
259371
257376
255084
252485
249537
246197
242442
238266
233664
228592
223090
217201
210907
204215
197120
189851
182356
174680
166900
159096
151292
143525
135855
128316
120932
113727
106735
99945.3
93446.1
87343.4
81606.5
76227
71180.9
66449
62012.2
57849
53939.9
50271.4
46832.8
43613.7
40604.5
37795.7
35178.5
32742.3
30473.9
28362.9
26398.8
24574
22878.7
21300.7
19830.5
18461.8
17186.9
16000.4
14893.5
13856.6
12883.9
11968.2
11101.6
10278.7
9495.11
8750.3
8039.58
7359.23
6712.44
6098.08
5499.84
4926.08
4382.94
3871.35
3395.4
2967.55
2579.48
132097
135414
138943
142720
146685
150747
154887
159100
163384
167737
172159
176647
181197
185801
190452
195138
199851
204584
209328
214016
218621
223131
227543
231875
236118
240273
244327
248296
252185
256003
259755
263443
267071
270635
274122
277507
280750
283805
286634
289212
291538
293614
295427
296951
298182
299122
299760
300074
300040
299645
298882
297750
296262
294436
292280
289782
286904
283581
279779
275495
270722
265446
259695
253488
246835
239726
232199
224340
216150
207637
198820
190032
181199
172350
163573
154919
146419
138117
130085
122349
114926
107787
101013
94685.4
88769.1
83225.3
78023.4
73130
68521.2
64177
60079.9
56217.3
52577.9
49151.3
45926.7
42893.4
40039.8
37356.2
34834.4
32466.9
30245.2
28161.9
26210.1
24385.1
22683.3
21092.1
19604.8
18214.4
16916.4
15701.3
14561.3
13490.8
12483.1
11533.4
10634.5
9780.47
8971.59
8207.37
7476.65
6777.48
6111.22
5477.25
4880.51
4333.84
3831.42
149905
153486
157234
161281
165530
169884
174327
178849
183445
188113
192850
197650
202508
207417
212366
217344
222337
227333
232291
237153
241848
246366
250759
255038
259194
263215
267119
270932
274671
278345
281963
285530
289052
292515
295902
299171
302264
305130
307733
310080
312204
314139
315862
317334
318583
319633
320473
321073
321402
321435
321143
320510
319533
318210
316531
314484
312031
309105
305714
301836
297456
292567
287179
281290
274911
268045
260722
252972
244801
236211
227294
218197
208917
199409
189827
180407
171095
161940
153113
144644
136553
128858
121548
114570
107942
101685
95814.1
90266.3
85008
80016.9
75271
70757.8
66469.3
62395.4
58526.3
54851.3
51361
48048
44906.4
41930.3
39114.2
36453.1
33942.7
31579.7
29359.4
27273.9
25317.6
23487
21772
20169
18669
17267.4
15956.9
14731.2
13580.6
12496.9
11477.6
10519.9
9618.06
8769.04
7966.14
7200.71
6478.49
5809.11
5189.13
166088
169833
173680
177879
182260
186734
191286
195902
200574
205297
210065
214870
219706
224562
229426
234281
239104
243870
248510
252990
257250
261289
265133
268814
272305
275589
278708
281707
284614
287452
290234
292966
295645
298258
300774
303143
305299
307201
308837
310266
311564
312790
313868
314794
315697
316627
317548
318415
319173
319768
320131
320222
320016
319487
318609
317395
315899
314070
311945
309329
306207
302574
298454
293849
288771
283216
277171
270619
263500
255816
247686
239224
230454
221336
211992
202560
193063
183431
174253
165492
157129
149201
141738
134675
127936
121456
115169
109087
103229
97633.6
92262.6
87104
82159.1
77414.7
72863.6
68502.6
64328
60335.7
56522.2
52883.3
49414.5
46113.8
42979.2
40009
37199.2
34545.7
32044.4
29692.1
27482.4
25412.1
23474.4
21662.1
19969.8
18391.5
16921
15547
14263.1
13063.2
11942.5
10900.4
9931.84
9017.54
8159.27
7362.9
6621.2
179735
183495
187265
191431
195705
200035
204401
208784
213173
217557