/*--------------------------------*- C++ -*----------------------------------*\
| =========                 |                                                 |
| \\      /  F ield         | OpenFOAM: The Open Source CFD Toolbox           |
|  \\    /   O peration     | Version:  2112                                  |
|   \\  /    A nd           | Website:  www.openfoam.com                      |
|    \\/     M anipulation  |                                                 |
\*---------------------------------------------------------------------------*/
FoamFile
{
    version     2.0;
    format      ascii;
    arch        "LSB;label=32;scalar=64";
    class       volScalarField;
    location    "0.00407";
    object      epsilon;
}
// * * * * * * * * * * * * * * * * * * * * * * * * * * * * * * * * * * * * * //

dimensions      [0 2 -3 0 0 0 0];

internalField   nonuniform List<scalar> 
13875
(
1.15999e+06
2.94626e+07
3.28137e+07
3.28398e+07
3.29577e+07
3.28763e+07
3.2918e+07
3.28693e+07
3.28567e+07
3.2925e+07
3.29889e+07
3.29113e+07
3.28542e+07
3.28389e+07
3.28537e+07
3.29241e+07
3.29773e+07
3.2916e+07
3.28808e+07
3.28341e+07
3.29387e+07
3.28319e+07
3.27988e+07
2.94677e+07
1.17834e+06
1.31391e+06
2.27477e+07
2.53489e+07
2.52381e+07
2.53049e+07
2.52282e+07
2.52419e+07
2.52052e+07
2.52051e+07
2.52447e+07
2.52639e+07
2.52429e+07
2.52016e+07
2.51933e+07
2.51971e+07
2.52578e+07
2.52579e+07
2.52458e+07
2.52274e+07
2.52033e+07
2.52901e+07
2.52174e+07
2.5323e+07
2.27488e+07
1.3429e+06
1.57309e+06
1.97068e+07
2.18244e+07
2.16249e+07
2.16964e+07
2.16362e+07
2.16337e+07
2.15888e+07
2.15965e+07
2.15574e+07
2.15476e+07
2.15491e+07
2.16035e+07
2.16051e+07
2.15964e+07
2.15659e+07
2.15515e+07
2.15665e+07
2.16264e+07
2.16239e+07
2.16934e+07
2.15971e+07
2.17843e+07
1.96891e+07
1.58517e+06
1.81385e+06
1.73853e+07
1.90339e+07
1.8879e+07
1.89632e+07
1.89124e+07
1.89032e+07
1.8867e+07
1.88742e+07
1.88093e+07
1.88063e+07
1.87986e+07
1.88822e+07
1.88829e+07
1.88757e+07
1.88119e+07
1.88199e+07
1.88197e+07
1.88999e+07
1.89009e+07
1.89606e+07
1.88542e+07
1.90094e+07
1.73678e+07
1.82078e+06
2.02299e+06
1.54524e+07
1.67685e+07
1.66204e+07
1.66966e+07
1.66531e+07
1.66426e+07
1.66134e+07
1.66165e+07
1.6548e+07
1.65526e+07
1.6542e+07
1.66283e+07
1.66294e+07
1.66215e+07
1.65517e+07
1.6569e+07
1.65572e+07
1.66408e+07
1.6647e+07
1.66964e+07
1.66016e+07
1.67403e+07
1.5433e+07
2.03607e+06
2.20674e+06
1.37127e+07
1.49246e+07
1.47377e+07
1.48209e+07
1.47759e+07
1.47596e+07
1.47324e+07
1.47279e+07
1.46585e+07
1.46698e+07
1.46549e+07
1.47446e+07
1.47476e+07
1.47385e+07
1.4661e+07
1.46887e+07
1.46666e+07
1.4758e+07
1.47765e+07
1.48235e+07
1.47266e+07
1.48995e+07
1.38489e+07
2.22214e+06
2.42292e+06
1.22516e+07
1.34745e+07
1.32064e+07
1.32584e+07
1.32041e+07
1.31785e+07
1.31497e+07
1.31383e+07
1.3069e+07
1.30864e+07
1.30667e+07
1.31594e+07
1.31656e+07
1.31531e+07
1.30699e+07
1.31077e+07
1.30788e+07
1.31773e+07
1.32087e+07
1.32615e+07
1.3199e+07
1.34194e+07
1.19512e+07
2.42879e+06
2.66685e+06
1.06175e+07
1.23111e+07
1.19757e+07
1.19904e+07
1.19077e+07
1.18606e+07
1.1822e+07
1.17992e+07
1.1731e+07
1.17531e+07
1.17261e+07
1.18212e+07
1.18336e+07
1.18182e+07
1.17269e+07
1.17776e+07
1.17428e+07
1.18529e+07
1.19115e+07
1.19902e+07
1.19708e+07
1.226e+07
1.05386e+07
2.69459e+06
3.49766e+06
1.02111e+07
1.14831e+07
1.10352e+07
1.09425e+07
1.08331e+07
1.07664e+07
1.07139e+07
1.06765e+07
1.06132e+07
1.06384e+07
1.06054e+07
1.07014e+07
1.0721e+07
1.07029e+07
1.0607e+07
1.06656e+07
1.06275e+07
1.07472e+07
1.08357e+07
1.09515e+07
1.10284e+07
1.1477e+07
1.03394e+07
3.5772e+06
6.83678e+06
1.22265e+07
1.12008e+07
1.04173e+07
1.02155e+07
1.00333e+07
9.94042e+06
9.87025e+06
9.81795e+06
9.76777e+06
9.78794e+06
9.7554e+06
9.84728e+06
9.87275e+06
9.85417e+06
9.76619e+06
9.81626e+06
9.78881e+06
9.89727e+06
1.00242e+07
1.02091e+07
1.04036e+07
1.11698e+07
1.21234e+07
6.88616e+06
1.49272e+07
1.86845e+07
1.20814e+07
1.04066e+07
9.77249e+06
9.50865e+06
9.37744e+06
9.28567e+06
9.22285e+06
9.18399e+06
9.19453e+06
9.16596e+06
9.25024e+06
9.27944e+06
9.2657e+06
9.1983e+06
9.23106e+06
9.2224e+06
9.32097e+06
9.4777e+06
9.7641e+06
1.03774e+07
1.19653e+07
1.80251e+07
1.50323e+07
2.54012e+07
6.77219e+07
1.86618e+07
1.09178e+07
9.99572e+06
9.39436e+06
9.12171e+06
8.98795e+06
8.9067e+06
8.86749e+06
8.866e+06
8.8453e+06
8.91557e+06
8.94604e+06
8.94185e+06
8.90244e+06
8.92733e+06
8.94693e+06
9.06197e+06
9.35994e+06
9.9245e+06
1.0748e+07
1.79436e+07
6.71217e+07
2.5024e+07
2.66248e+07
7.12852e+07
8.97022e+07
2.73618e+07
1.16848e+07
9.8462e+06
9.41001e+06
9.26223e+06
9.16518e+06
9.11588e+06
9.10726e+06
9.09579e+06
9.15165e+06
9.17838e+06
9.18895e+06
9.17913e+06
9.21547e+06
9.27112e+06
9.41071e+06
9.81264e+06
1.20563e+07
2.55089e+07
8.41751e+07
7.17871e+07
2.61024e+07
2.63844e+07
5.23902e+07
8.06777e+07
1.15381e+08
5.75184e+07
1.59046e+07
1.23889e+07
1.11418e+07
1.07298e+07
1.05928e+07
1.05417e+07
1.05303e+07
1.05711e+07
1.06056e+07
1.06359e+07
1.06825e+07
1.08167e+07
1.12104e+07
1.25264e+07
1.70096e+07
6.58455e+07
9.93995e+07
7.61114e+07
5.21438e+07
2.58996e+07
2.56863e+07
4.16594e+07
5.96274e+07
8.02938e+07
7.04049e+07
6.01818e+07
5.88485e+07
3.65147e+07
3.71341e+07
3.78297e+07
3.83029e+07
3.81631e+07
3.85422e+07
3.84648e+07
3.85057e+07
3.81057e+07
3.74831e+07
3.71194e+07
6.04312e+07
6.43199e+07
7.18936e+07
7.24629e+07
5.77104e+07
4.14484e+07
2.69684e+07
2.59644e+07
3.42725e+07
4.90203e+07
6.60343e+07
6.82188e+07
7.30592e+07
6.5312e+07
4.80956e+07
5.131e+07
5.56742e+07
5.69463e+07
5.70595e+07
5.7553e+07
5.7864e+07
5.71824e+07
5.62674e+07
5.12866e+07
4.72019e+07
6.42096e+07
7.4809e+07
6.94786e+07
6.12909e+07
4.77086e+07
3.39883e+07
2.71766e+07
2.30188e+07
2.96634e+07
4.2982e+07
5.62186e+07
5.9715e+07
6.61512e+07
5.73236e+07
4.05969e+07
3.57866e+07
3.65515e+07
3.71539e+07
3.72181e+07
3.74682e+07
3.76326e+07
3.73721e+07
3.6947e+07
3.61486e+07
4.10464e+07
5.53408e+07
6.64613e+07
6.10696e+07
5.39479e+07
4.18195e+07
2.85903e+07
2.26855e+07
1.82686e+07
2.6897e+07
4.11911e+07
4.57193e+07
4.67551e+07
5.43323e+07
4.70232e+07
3.47405e+07
2.87394e+07
2.71396e+07
2.69996e+07
2.69116e+07
2.70688e+07
2.7178e+07
2.72172e+07
2.74761e+07
2.94004e+07
3.55533e+07
4.53056e+07
5.21941e+07
4.67993e+07
4.47572e+07
4.14002e+07
2.64653e+07
1.77388e+07
1.45261e+07
2.67738e+07
3.70289e+07
3.76757e+07
3.67482e+07
4.06816e+07
3.87402e+07
3.24361e+07
2.66608e+07
2.29301e+07
2.12963e+07
2.06849e+07
2.06771e+07
2.08316e+07
2.13098e+07
2.27044e+07
2.63911e+07
3.21169e+07
3.72099e+07
3.93373e+07
3.64384e+07
3.72148e+07
3.74766e+07
2.72293e+07
1.42062e+07
1.32629e+07
3.01746e+07
3.2152e+07
3.09983e+07
2.99443e+07
3.21769e+07
3.24961e+07
2.96178e+07
2.51123e+07
2.05517e+07
1.77991e+07
1.66977e+07
1.65458e+07
1.68294e+07
1.78498e+07
2.04151e+07
2.48985e+07
2.92014e+07
3.13854e+07
3.13673e+07
2.98911e+07
3.09744e+07
3.23813e+07
3.01323e+07
1.33775e+07
1.55946e+07
2.51864e+07
2.62592e+07
2.54826e+07
2.47634e+07
2.64477e+07
2.73268e+07
2.59534e+07
2.25175e+07
1.81234e+07
1.50383e+07
1.36878e+07
1.34637e+07
1.38587e+07
1.52332e+07
1.82409e+07
2.24792e+07
2.55882e+07
2.65487e+07
2.60454e+07
2.49333e+07
2.57096e+07
2.66485e+07
2.50433e+07
1.56471e+07
2.40011e+07
2.82371e+07
2.2259e+07
2.14162e+07
2.09025e+07
2.22899e+07
2.305e+07
2.23321e+07
1.96887e+07
1.57455e+07
1.27308e+07
1.13373e+07
1.10678e+07
1.14926e+07
1.29304e+07
1.58823e+07
1.96267e+07
2.19345e+07
2.24183e+07
2.2105e+07
2.11475e+07
2.16426e+07
2.26415e+07
2.97199e+07
2.4655e+07
2.69542e+07
3.16224e+07
1.93609e+07
1.8005e+07
1.78252e+07
1.88861e+07
1.9427e+07
1.90337e+07
1.69283e+07
1.35185e+07
1.07803e+07
9.46109e+06
9.17808e+06
9.55895e+06
1.08868e+07
1.35577e+07
1.67896e+07
1.86051e+07
1.88018e+07
1.86966e+07
1.8018e+07
1.81613e+07
1.9507e+07
3.36278e+07
2.73054e+07
2.61509e+07
3.13976e+07
1.66785e+07
1.5387e+07
1.52235e+07
1.58793e+07
1.63676e+07
1.61713e+07
1.43877e+07
1.14146e+07
9.05774e+06
7.92679e+06
7.68088e+06
8.02584e+06
9.18998e+06
1.15118e+07
1.4311e+07
1.58224e+07
1.58336e+07
1.57133e+07
1.54161e+07
1.55953e+07
1.6894e+07
3.2154e+07
2.65494e+07
2.54319e+07
2.98643e+07
1.47085e+07
1.34334e+07
1.31166e+07
1.34724e+07
1.39001e+07
1.37609e+07
1.22464e+07
9.69794e+06
7.67204e+06
6.70571e+06
6.49922e+06
6.79505e+06
7.79757e+06
9.81938e+06
1.22223e+07
1.34801e+07
1.34436e+07
1.32963e+07
1.32504e+07
1.36176e+07
1.49252e+07
3.1136e+07
2.5978e+07
2.46001e+07
2.93203e+07
1.32799e+07
1.19517e+07
1.14236e+07
1.15762e+07
1.18899e+07
1.17284e+07
1.0432e+07
8.2726e+06
6.5538e+06
5.73008e+06
5.55025e+06
5.80241e+06
6.64863e+06
8.35911e+06
1.03864e+07
1.14634e+07
1.14802e+07
1.13667e+07
1.14543e+07
1.2054e+07
1.3419e+07
3.01863e+07
2.51506e+07
2.37579e+07
2.78245e+07
1.21552e+07
1.06942e+07
1.00622e+07
1.00299e+07
1.02015e+07
9.98597e+06
8.8624e+06
7.05671e+06
5.61988e+06
4.93513e+06
4.78646e+06
5.00384e+06
5.72793e+06
7.1854e+06
8.90477e+06
9.8377e+06
9.89643e+06
9.85682e+06
1.00706e+07
1.07871e+07
1.23329e+07
2.90886e+07
2.49695e+07
2.35391e+07
2.61707e+07
1.12875e+07
9.62334e+06
9.00202e+06
8.82581e+06
8.84577e+06
8.57634e+06
7.59119e+06
6.07306e+06
4.87056e+06
4.29429e+06
4.16426e+06
4.35181e+06
4.96225e+06
6.17912e+06
7.62385e+06
8.45567e+06
8.58893e+06
8.65017e+06
8.97063e+06
9.67462e+06
1.14045e+07
2.7481e+07
2.50745e+07
2.39126e+07
2.48626e+07
1.04901e+07
8.70769e+06
8.10077e+06
7.84692e+06
7.73043e+06
7.41828e+06
6.54803e+06
5.26753e+06
4.25512e+06
3.76575e+06
3.65207e+06
3.81112e+06
4.32008e+06
5.33331e+06
6.55085e+06
7.30365e+06
7.50045e+06
7.6619e+06
8.02715e+06
8.72373e+06
1.05822e+07
2.58795e+07
2.47401e+07
2.32299e+07
2.38137e+07
9.82899e+06
7.89247e+06
7.29442e+06
7.00903e+06
6.78766e+06
6.42139e+06
5.6343e+06
4.56328e+06
3.73068e+06
3.32476e+06
3.22734e+06
3.36992e+06
3.80537e+06
4.6562e+06
5.68881e+06
6.38057e+06
6.6339e+06
6.86493e+06
7.23006e+06
7.92328e+06
9.96884e+06
2.51213e+07
2.4331e+07
2.22741e+07
2.2746e+07
9.34918e+06
7.24462e+06
6.60577e+06
6.2928e+06
6.01599e+06
5.62933e+06
4.91586e+06
4.00413e+06
3.30292e+06
2.957e+06
2.87176e+06
2.99599e+06
3.36101e+06
4.07281e+06
4.95262e+06
5.59447e+06
5.88946e+06
6.16071e+06
6.53578e+06
7.26162e+06
9.46362e+06
2.39738e+07
2.30457e+07
2.1499e+07
2.18391e+07
8.97445e+06
6.7767e+06
6.00416e+06
5.67489e+06
5.37651e+06
4.97278e+06
4.32236e+06
3.53907e+06
2.94744e+06
2.64996e+06
2.57297e+06
2.68248e+06
2.99161e+06
3.58646e+06
4.33953e+06
4.93946e+06
5.26681e+06
5.55592e+06
5.93394e+06
6.77348e+06
9.12041e+06
2.26605e+07
2.20377e+07
2.03315e+07
2.04509e+07
8.7491e+06
6.39433e+06
5.49619e+06
5.12229e+06
4.81014e+06
4.40433e+06
3.81398e+06
3.14042e+06
2.63946e+06
2.38608e+06
2.31884e+06
2.41715e+06
2.68372e+06
3.1931e+06
3.8486e+06
4.39694e+06
4.73552e+06
5.0285e+06
5.43255e+06
6.39582e+06
8.91139e+06
2.14546e+07
2.136e+07
1.97146e+07
1.91874e+07
8.59398e+06
6.14518e+06
5.08508e+06
4.65904e+06
4.33073e+06
3.9377e+06
3.39793e+06
2.81222e+06
2.38493e+06
2.16411e+06
2.10263e+06
2.18996e+06
2.4196e+06
2.85022e+06
3.41927e+06
3.92849e+06
4.27071e+06
4.58049e+06
5.02953e+06
6.14073e+06
8.79055e+06
1.99812e+07
2.0471e+07
1.91772e+07
1.811e+07
8.22619e+06
5.96763e+06
4.78022e+06
4.26025e+06
3.91384e+06
3.53981e+06
3.05231e+06
2.5402e+06
2.16647e+06
1.97292e+06
1.91696e+06
1.99431e+06
2.19376e+06
2.56798e+06
3.06433e+06
3.52913e+06
3.8641e+06
4.19453e+06
4.74078e+06
5.98974e+06
8.47413e+06
1.85685e+07
1.98454e+07
1.83503e+07
1.67669e+07
7.70342e+06
5.82641e+06
4.55581e+06
3.9284e+06
3.55428e+06
3.18991e+06
2.7458e+06
2.2977e+06
1.97707e+06
1.80785e+06
1.75728e+06
1.82826e+06
2.00512e+06
2.32903e+06
2.76718e+06
3.19391e+06
3.52258e+06
3.88111e+06
4.52887e+06
5.91355e+06
7.99595e+06
1.73159e+07
1.92885e+07
1.78275e+07
1.56312e+07
7.23246e+06
5.83335e+06
4.40158e+06
3.67199e+06
3.25206e+06
2.89387e+06
2.49134e+06
2.09785e+06
1.81457e+06
1.66367e+06
1.61771e+06
1.68183e+06
1.83738e+06
2.1221e+06
2.50523e+06
2.89532e+06
3.22681e+06
3.63381e+06
4.38373e+06
5.94894e+06
7.40692e+06
1.5956e+07
1.84846e+07
1.74788e+07
1.45633e+07
6.79436e+06
5.74505e+06
4.33953e+06
3.47721e+06
3.01181e+06
2.64657e+06
2.27277e+06
1.92139e+06
1.67357e+06
1.53856e+06
1.4963e+06
1.55534e+06
1.69252e+06
1.93986e+06
2.28207e+06
2.64473e+06
2.98714e+06
3.44944e+06
4.35823e+06
5.86313e+06
6.83743e+06
1.48492e+07
1.79827e+07
1.68843e+07
1.35266e+07
6.23487e+06
5.44167e+06
4.31206e+06
3.32934e+06
2.81946e+06
2.43146e+06
2.07988e+06
1.76635e+06
1.54712e+06
1.42663e+06
1.38886e+06
1.44327e+06
1.56633e+06
1.78781e+06
2.09398e+06
2.43548e+06
2.80239e+06
3.31458e+06
4.36784e+06
5.5664e+06
6.2855e+06
1.39553e+07
1.76041e+07
1.65124e+07
1.27324e+07
5.71148e+06
5.12755e+06
4.44389e+06
3.24726e+06
2.67381e+06
2.26155e+06
1.91929e+06
1.63296e+06
1.43776e+06
1.32949e+06
1.29407e+06
1.3439e+06
1.45361e+06
1.64999e+06
1.93017e+06
2.26408e+06
2.65753e+06
3.23899e+06
4.51644e+06
5.21392e+06
5.73102e+06
1.31158e+07
1.70208e+07
1.62262e+07
1.21101e+07
5.301e+06
4.78727e+06
4.43304e+06
3.23129e+06
2.55756e+06
2.1341e+06
1.7877e+06
1.51943e+06
1.34117e+06
1.2421e+06
1.20959e+06
1.25449e+06
1.35439e+06
1.53276e+06
1.79441e+06
2.13192e+06
2.54654e+06
3.248e+06
4.52284e+06
4.83892e+06
5.27563e+06
1.24465e+07
1.661e+07
1.57802e+07
1.15318e+07
4.89438e+06
4.41587e+06
4.22135e+06
3.29425e+06
2.47287e+06
2.0282e+06
1.6804e+06
1.42163e+06
1.25522e+06
1.16458e+06
1.13436e+06
1.17681e+06
1.26823e+06
1.43575e+06
1.68742e+06
2.03035e+06
2.48291e+06
3.3689e+06
4.28459e+06
4.46185e+06
4.98847e+06
1.18669e+07
1.63224e+07
1.54533e+07
1.10363e+07
4.60109e+06
4.0669e+06
3.95298e+06
3.43937e+06
2.46476e+06
1.94534e+06
1.6019e+06
1.34061e+06
1.18125e+06
1.09496e+06
1.06662e+06
1.10621e+06
1.19217e+06
1.35118e+06
1.60624e+06
1.9446e+06
2.48539e+06
3.52372e+06
3.99413e+06
4.11056e+06
4.64959e+06
1.12921e+07
1.59146e+07
1.51968e+07
1.0582e+07
4.44056e+06
3.77443e+06
3.67215e+06
3.41371e+06
2.56779e+06
1.89147e+06
1.53426e+06
1.27866e+06
1.12077e+06
1.0351e+06
1.00684e+06
1.04527e+06
1.12984e+06
1.28717e+06
1.53864e+06
1.89151e+06
2.62501e+06
3.50547e+06
3.68343e+06
3.80991e+06
4.419e+06
1.076e+07
1.56354e+07
1.49391e+07
1.0105e+07
4.20855e+06
3.51208e+06
3.39016e+06
3.22001e+06
2.77742e+06
1.89259e+06
1.48038e+06
1.23206e+06
1.07544e+06
985493
956197
995279
1.08267e+06
1.24084e+06
1.49045e+06
1.91945e+06
2.83815e+06
3.29018e+06
3.39111e+06
3.5576e+06
4.29631e+06
1.02851e+07
1.54174e+07
1.47259e+07
9.6544e+06
4.09521e+06
3.30051e+06
3.13661e+06
3.01937e+06
2.8366e+06
2.0391e+06
1.45389e+06
1.19229e+06
1.04064e+06
948889
915791
958133
1.04579e+06
1.19982e+06
1.46675e+06
2.05482e+06
2.85472e+06
3.06339e+06
3.14202e+06
3.33549e+06
4.13126e+06
9.79093e+06
1.5207e+07
1.45424e+07
9.25638e+06
4.02212e+06
3.13372e+06
2.92634e+06
2.81409e+06
2.6861e+06
2.25905e+06
1.5126e+06
1.1633e+06
1.00781e+06
918721
883952
927594
1.01305e+06
1.17036e+06
1.52536e+06
2.28996e+06
2.70459e+06
2.84456e+06
2.93467e+06
3.15918e+06
4.00397e+06
9.33452e+06
1.49816e+07
1.41939e+07
8.79019e+06
3.87423e+06
2.98102e+06
2.74396e+06
2.61915e+06
2.52778e+06
2.31867e+06
1.69049e+06
1.1661e+06
980307
891667
857648
900168
987368
1.1851e+06
1.74113e+06
2.35908e+06
2.54825e+06
2.65368e+06
2.75991e+06
3.01966e+06
3.92229e+06
8.89215e+06
1.45981e+07
1.35989e+07
8.27683e+06
3.73747e+06
2.84472e+06
2.5884e+06
2.45224e+06
2.36326e+06
2.21094e+06
1.87964e+06
1.25602e+06
968806
867566
834427
875185
976297
1.28406e+06
1.91882e+06
2.24768e+06
2.38551e+06
2.48778e+06
2.60993e+06
2.88162e+06
3.77214e+06
8.35413e+06
1.39686e+07
1.21064e+07
7.53435e+06
3.58362e+06
2.71008e+06
2.45178e+06
2.30917e+06
2.20989e+06
2.09186e+06
1.90571e+06
1.45807e+06
1.00996e+06
855085
818850
860817
1.01992e+06
1.48687e+06
1.91896e+06
2.12254e+06
2.23249e+06
2.34342e+06
2.47396e+06
2.73924e+06
3.59328e+06
7.57294e+06
1.24537e+07
95458.7
79985.1
78385.6
78596.7
78814.2
79199.2
80066.9
81604.8
83759.3
86588.3
89823.6
93335.7
96884.2
100438
103972
107301
110186
113014
116033
122633
164264
301664
354635
359511
362244
365099
366872
362998
348372
304235
90465.1
75017.1
74862.6
75782.6
76471.6
77411.3
78932.6
81148.7
84040.6
87476.6
91190.2
95015
98855
102649
106213
109355
112406
115621
120263
145699
281906
375944
386307
382462
379980
379087
379930
376274
363496
320916
83958.9
71955.6
72825.2
74215.7
75304.1
76824.8
79072.5
82051.3
85627.8
89573.5
93699.2
97953
102192
106126
109717
112778
115888
119503
131380
216839
365868
391216
388917
386301
386979
388978
391724
387619
374870
338932
82157
71180.3
72335.2
73991.5
75466.8
77604.6
80581.7
84187
88350
92848.1
97476.5
102119
106578
110600
114185
117231
120449
126534
168862
338015
401732
399744
395507
394522
396050
398672
401367
395158
381419
353861
82903
71464.7
72705.9
74555.1
76474.6
79227.8
82835.4
87131.1
92036.4
97138.2
102161
107121
111704
115745
119262
122481
126576
145051
267746
402534
414920
408953
405650
404609
406406
408356
409906
401105
386273
367688
84467.1
72143.7
73495.8
75540.2
78007.7
81417.6
85903.3
91036.7
96678.3
102283
107635
112776
117392
121326
124601
128593
137096
200658
383175
431277
425283
419540
416090
415035
416018
417131
417569
406424
390008
379268
86536.2
73111.2
74579.7
76946
80144.3
84484.3
90017.7
96082.6
102257
108217
113749
118802
123184
126781
130751
136107
163471
316009
442365
446497
435286
429083
424825
423488
423795
424228
423677
410102
391824
388347
88826.3
74308.7
76012.5
78911.3
83137.6
88717.3
95359.4
102109
108690
114765
120294
125006
128955
132808
137358
150032
240657
434784
471429
457580
444627
435558
430513
428616
428567
428533
427090
411335
391783
394942
91277.5
75687.1
77856.1
81603.1
87238.3
94068.5
101703
108992
115860
121800
126877
131154
135055
139220
146337
192802
395639
493322
485851
466121
450966
438414
432582
430078
429742
429471
427051
409359
389320
398256
93758.5
77328
80246.5
85221.2
92298.4
100383
108901
116590
123201
128781
133611
137621
141292
146302
170447
325767
498018
511468
492705
471029
452223
437926
430952
428173
427430
426783
422993
403794
384032
397837
96443.9
79410.9
83440.7
89883.3
98452.7
107718
116764
124447
130832
135895
140200
143788
147587
161340
262481
489712
528284
515671
494519
471051
447656
433574
426119
423136
422129
420821
415653
395591
376782
394683
99429.3
82130
87558.6
95720.8
105711
115728
125022
132441
138147
142551
146321
149842
159067
224978
455270
531316
529466
511935
490622
465544
438951
425391
418101
415280
414109
412358
406106
385745
368193
389392
103025
85669.9
92764.2
102730
113845
124271
133176
139972
145375
150010
154837
163119
211632
408905
514120
525910
518421
501414
480415
454100
427544
413988
407296
404977
403899
401961
394918
374643
358357
382241
107234
90231.8
99151.3
110718
122490
132774
141749
150636
161122
173287
189592
225149
373601
475591
501630
506805
499545
483235
463063
438024
413224
399912
394525
392930
392100
390173
382486
362494
347434
373482
112281
96074.6
106720
119388
131796
144754
165279
196812
238999
282568
319010
366909
426560
460917
478011
482443
474121
456401
440246
419709
396760
384355
380606
379818
379392
377427
369149
349578
335727
363312
117839
103154
115477
129721
150260
198295
296141
386944
429162
427071
412555
410843
427328
446865
457364
455437
441907
427512
416693
399602
379197
368493
366217
366225
366266
364132
355285
336234
323614
352115
124738
112087
126648
155505
257305
445505
552011
581242
576047
535779
488472
459971
445604
442224
439739
428035
410863
400558
392120
378615
361900
352922
351917
352535
352978
350596
341271
322885
311430
340303
131438
122493
156797
324527
596409
740272
829520
842874
804263
709930
611191
539945
481929
451756
431656
407685
383867
375339
367928
357925
345161
338164
338023
339105
339907
337169
327460
309780
299620
328236
140365
149833
355057
727950
993676
1.20102e+06
1.33044e+06
1.31013e+06
1.18932e+06
983309
781827
644182
541213
474294
430550
391744
363906
352752
346134
338644
329464
324354
324785
326394
327420
324145
314089
297139
288330
316124
156873
309481
838830
1.29194e+06
1.72494e+06
2.06274e+06
2.19377e+06
2.03392e+06
1.72548e+06
1.32743e+06
993703
773095
613930
504871
434453
380533
350165
334898
327814
321646
315442
311780
312471
314539
315512
311738
301421
285079
277440
303997
222054
843709
1.62651e+06
2.3302e+06
2.9799e+06
3.37287e+06
3.36897e+06
2.94557e+06
2.35134e+06
1.71389e+06
1.22011e+06
907377
687194
536429
439561
372994
340361
323485
312883
307293
303351
300452
301126
303591
304277
300141
289601
273785
266881
291892
537187
1.78851e+06
3.14485e+06
3.84816e+06
4.55413e+06
4.86667e+06
4.6911e+06
3.99096e+06
3.09467e+06
2.18145e+06
1.45253e+06
1.02448e+06
760246
561714
441947
369809
333044
314810
300938
295620
293182
290174
291137
293708
293840
289456
278652
263336
256804
280004
1.33011e+06
3.52091e+06
4.9269e+06
5.03084e+06
5.89394e+06
6.25818e+06
5.9889e+06
5.01024e+06
3.7775e+06
2.646e+06
1.67828e+06
1.10944e+06
809414
575271
440180
363357
325302
307601
293220
287021
283948
281126
282884
285222
284580
279642
268613
253650
247602
268608
2.53781e+06
7.67295e+06
6.06071e+06
5.9956e+06
7.05148e+06
7.28892e+06
6.5426e+06
5.27671e+06
3.89875e+06
2.75716e+06
1.84848e+06
1.20879e+06
833331
577738
436273
357118
316657
298526
286370
279701
276002
274585
276870
278288
276421
270647
259453
244629
239229
257855
3.78571e+06
1.21545e+07
8.76491e+06
8.12726e+06
8.45961e+06
8.29266e+06
7.10254e+06
5.47291e+06
3.92728e+06
2.75945e+06
1.93571e+06
1.29982e+06
861596
569742
429721
353911
311743
291634
282011
273866
269138
270511
272365
272228
269131
262570
251395
236468
231283
247786
304278
348795
363506
367227
365347
362404
359508
354383
301280
163982
122508
116052
113123
110315
107539
104217
100683
97197.8
93580.2
90057.2
86806.1
83950
81796.3
80234.8
79370.3
78974.2
78745.7
78510.2
80130.4
95587.3
321007
363902
376753
380259
379291
380090
382419
385942
375474
280565
145235
120265
115779
112663
109726
106556
102922
99054
95202.3
91357.8
87729.7
84306.4
81407.6
79157.6
77612.3
76637.5
75923.5
74973.7
75152
90613.7
339153
375349
388127
392096
389236
387120
386288
388584
390922
365410
214857
131168
119646
116200
113198
110103
106456
102446
98200.8
93897.2
89837.9
85938.6
82376.8
79402.6
77088.3
75503
74380.6
72947.9
72089.2
84149.1
354149
381935
395641
401740
398942
396241
394629
395604
399717
402025
336869
168121
126676
120795
117707
114615
110984
106885
102411
97772.8
93189.6
88701.1
84517.2
80922.1
77969.1
75728.7
74189.1
72483.5
71332.6
82280
368020
386779
401537
410221
408623
406671
404899
406003
409252
415571
402851
267096
145222
127005
122979
119754
116192
112072
107458
102546
97534.7
92471.7
87527.6
83120.6
79508.6
76786
74797.4
72883.4
71643.3
83044.3
379550
390497
406936
417946
417487
416440
415546
416721
420119
426151
432306
384551
201124
137581
129088
125037
121825
117805
113143
108078
102721
97107.9
91480.5
86261.3
81671.3
78236.8
75795.5
73706.8
72353.1
84748
388702
392360
410708
424173
424712
424424
424317
425745
430199
436419
448051
443541
317767
164476
136653
131151
127238
123601
119191
114222
108684
102667
96425.4
90413.5
84786.9
80400.8
77181
74807.1
73349.3
86850.8
395430
392419
412040
427717
429182
429459
429720
431659
437085
445890
458804
472388
436916
243082
150846
137783
133135
129272
125349
120695
115176
109083
102417
95703.5
89005
83399.9
79135.1
76239.6
74564.1
89198.1
398857
390014
410220
427849
430306
430826
431371
434026
439949
452453
467200
485871
492636
398969
194632
146887
139531
135307
131398
127104
122062
116147
109328
102043
94366.2
87431.3
81835.3
78078.4
75942.8
91695.9
398580
384843
404823
423961
427798
428680
429616
432568
439484
453979
471945
492358
510202
497835
329827
171664
146651
141522
137866
133874
129074
123485
116902
109247
100829
92622.7
85444.8
80492.2
77566.3
94149.8
395593
377742
396790
416791
421954
423534
424682
427873
435148
449412
471737
493667
514014
526585
490113
266667
162275
147836
144019
140461
136172
131131
124842
117126
108223
98970.2
90178.2
83689.4
79639.1
96819.3
390471
369300
387069
407397
413615
415611
416905
419915
427024
440411
465959
489435
509702
526939
529239
459400
229753
160075
150263
146669
142859
138467
132805
125504
116330
106337
96143
87895.2
82370
99771.1
383473
359572
376038
396325
403339
405470
406630
409122
415672
428779
454017
479015
498950
515392
522737
511707
415556
216912
165744
156528
151112
146123
140480
133690
124867
114529
103326
93221.2
85960
103377
374828
348712
363942
383951
391590
393704
394535
396270
401662
414492
437721
461126
480642
496420
503272
497310
471853
379297
237848
198867
180532
165962
153164
143017
133520
123178
111403
99724.3
90602.9
107640
364703
337011
351023
370658
378798
380862
381371
382235
385929
398030
419466
438231
453734
470916
478927
473703
456189
421932
370414
337770
307115
264850
211098
173487
147665
132880
120172
107415
96546
112768
353507
324846
337595
356784
365453
367578
367696
367666
369812
380465
399081
414791
424953
438889
452094
453543
443597
424553
412425
420747
439778
447293
419421
332731
216677
156446
131232
116360
103759
118422
341686
312575
324148
342727
351892
354169
353901
353147
354089
362639
377872
390322
398005
408352
425638
437042
440656
446051
466800
501593
551958
595375
605117
579203
489975
298795
165352
128335
112895
125447
329594
300665
310960
328835
338411
340949
340350
339115
339111
345502
357051
366241
373001
381692
406331
430582
452774
486549
553260
634331
737973
834241
878582
868648
781167
640801
380097
168566
124059
132417
317462
289318
298223
315371
325283
328269
327413
325875
325154
329520
337789
344645
350825
362256
391495
430867
478016
550085
664717
818011
1.02937e+06
1.23884e+06
1.36936e+06
1.39789e+06
1.27482e+06
1.06222e+06
788622
418392
159167
141987
305308
278399
286030
302547
312749
316296
315393
313467
312430
315124
320891
326590
333534
349179
381154
436069
511447
626341
798653
1.04384e+06
1.40021e+06
1.80849e+06
2.12966e+06
2.29865e+06
2.1904e+06
1.859e+06
1.40265e+06
919908
369778
161107
293113
267700
274547
290577
301008
304999
304267
301980
301160
302694
306436
312007
322972
339904
374006
442327
545658
704602
935975
1.27509e+06
1.80757e+06
2.47402e+06
3.08201e+06
3.51147e+06
3.53377e+06
3.17238e+06
2.52964e+06
1.78699e+06
941063
251580
281069
257343
263912
279480
290182
294493
294234
291657
290982
292697
294536
300379
314786
332798
370720
446027
573165
780991
1.05241e+06
1.50309e+06
2.30086e+06
3.23871e+06
4.18108e+06
4.88915e+06
5.03731e+06
4.7407e+06
4.07197e+06
3.4184e+06
1.97064e+06
618755
269519
247849
254087
269258
280293
285082
285513
283043
281883
284107
286011
292995
307240
325124
365087
445610
587244
828699
1.14187e+06
1.73758e+06
2.69769e+06
3.8362e+06
5.13366e+06
6.15882e+06
6.40472e+06
6.03492e+06
5.1951e+06
5.15524e+06
3.83106e+06
1.49357e+06
258621
239327
244989
259940
271191
276810
278403
276951
275084
276260
279630
286866
297892
316184
358713
441063
587134
848837
1.24722e+06
1.90571e+06
2.80781e+06
3.91224e+06
5.29798e+06
6.5757e+06
7.34406e+06
7.15538e+06
6.13797e+06
6.19348e+06
8.1083e+06
2.73745e+06
248400
231429
236748
251696
262922
269405
272200
272318
270604
269546
274591
282482
291160
311515
355326
433759
579753
889927
1.35368e+06
1.98196e+06
2.8209e+06
4.00167e+06
5.56644e+06
7.17264e+06
8.34315e+06
8.52138e+06
8.24562e+06
8.91065e+06
1.27785e+07
4.03701e+06
69480.8
69498.6
70280.9
112782
585783
1.32567e+06
1.8867e+06
2.45598e+06
3.08957e+06
3.70424e+06
4.25464e+06
4.6629e+06
4.89056e+06
4.99946e+06
5.02902e+06
5.01453e+06
4.8864e+06
4.70538e+06
4.4721e+06
4.2424e+06
4.0364e+06
3.82653e+06
3.67152e+06
3.5129e+06
3.35887e+06
3.22058e+06
3.08631e+06
2.95649e+06
2.83416e+06
2.71262e+06
2.59369e+06
2.4908e+06
2.40109e+06
2.31884e+06
2.24604e+06
2.17774e+06
2.11065e+06
2.04355e+06
1.98117e+06
1.92593e+06
1.87805e+06
1.83816e+06
1.80239e+06
1.76613e+06
1.72066e+06
1.65895e+06
1.57782e+06
1.4718e+06
1.34723e+06
1.21465e+06
1.09757e+06
1.00182e+06
922831
853248
788143
729344
677217
629849
586852
548942
516058
486727
460288
436705
416022
397937
381787
367009
353013
339491
326173
313042
300368
288408
277309
267052
257602
248878
240730
233050
225835
219124
212904
207102
201616
196450
191663
187318
183428
179984
176954
174291
171960
169955
168261
166838
165637
164618
163762
163083
162632
162466
162625
163095
163845
164834
166002
167333
168825
170496
172384
174494
176745
179165
181858
185027
188881
193323
198086
203152
208871
215340
222486
230297
238822
61701.8
61725.7
65032.1
448080
3.76224e+06
6.89249e+06
7.03394e+06
6.23165e+06
5.46537e+06
4.82718e+06
4.43307e+06
4.27969e+06
4.27943e+06
4.45753e+06
4.63707e+06
4.60029e+06
4.29159e+06
3.85579e+06
3.4184e+06
3.01094e+06
2.65621e+06
2.37442e+06
2.14481e+06
1.97977e+06
1.85904e+06
1.75526e+06
1.66318e+06
1.58505e+06
1.52726e+06
1.48708e+06
1.45457e+06
1.42707e+06
1.40456e+06
1.38705e+06
1.37587e+06
1.368e+06
1.36379e+06
1.36646e+06
1.37887e+06
1.40598e+06
1.45664e+06
1.54237e+06
1.66206e+06
1.80281e+06
1.93977e+06
2.02724e+06
2.0146e+06
1.87925e+06
1.64856e+06
1.39758e+06
1.18991e+06
1.03756e+06
936972
860774
792601
733141
683060
641109
605778
574525
547395
522497
498874
477159
457696
441216
426886
413059
399158
385852
372979
360246
347304
334582
322746
312106
302392
293445
284972
276776
269142
261688
254513
247721
241189
234737
228411
222468
217045
212036
207349
203092
199398
196252
193547
191173
189074
187177
185417
183760
182178
180779
179667
178948
178650
178690
178915
179307
179820
180412
181281
182368
183336
184248
185392
187137
189695
192526
195381
198437
202209
206596
211547
217323
224085
62336.7
62349.2
63855.1
277159
3.51412e+06
7.58555e+06
8.13742e+06
7.31699e+06
6.37594e+06
5.53652e+06
4.90815e+06
4.49055e+06
4.2568e+06
4.19364e+06
4.04931e+06
3.75112e+06
3.34071e+06
2.9948e+06
2.68678e+06
2.40644e+06
2.16439e+06
1.97781e+06
1.84262e+06
1.75378e+06
1.67661e+06
1.60522e+06
1.53583e+06
1.47465e+06
1.4294e+06
1.40088e+06
1.38026e+06
1.3672e+06
1.36376e+06
1.37244e+06
1.39551e+06
1.43504e+06
1.49483e+06
1.58404e+06
1.71843e+06
1.91823e+06
2.21261e+06
2.64258e+06
3.21774e+06
3.9148e+06
4.66584e+06
5.24598e+06
5.37671e+06
4.95486e+06
4.03217e+06
3.13618e+06
2.44799e+06
1.95821e+06
1.59317e+06
1.3216e+06
1.12407e+06
978618
867846
780201
712249
658368
616648
581359
550675
523881
500462
480117
462214
446835
433045
418526
402816
386896
372031
358411
346014
335012