/*--------------------------------*- C++ -*----------------------------------*\
| =========                 |                                                 |
| \\      /  F ield         | OpenFOAM: The Open Source CFD Toolbox           |
|  \\    /   O peration     | Version:  2112                                  |
|   \\  /    A nd           | Website:  www.openfoam.com                      |
|    \\/     M anipulation  |                                                 |
\*---------------------------------------------------------------------------*/
FoamFile
{
    version     2.0;
    format      ascii;
    arch        "LSB;label=32;scalar=64";
    class       volScalarField;
    location    "0.00812";
    object      alphat;
}
// * * * * * * * * * * * * * * * * * * * * * * * * * * * * * * * * * * * * * //

dimensions      [1 -1 -1 0 0 0 0];

internalField   nonuniform List<scalar> 
13875
(
0.11986
0.0816025
0.0784501
0.078285
0.0783228
0.0783901
0.0782885
0.0782898
0.078296
0.0782905
0.0783003
0.0783166
0.0783864
0.078413
0.078394
0.0782975
0.0782558
0.0782949
0.0783038
0.0783544
0.078321
0.0782657
0.0784874
0.0814883
0.12091
0.103938
0.0576795
0.0570799
0.0571605
0.056654
0.0566711
0.0570524
0.0571438
0.0571534
0.057111
0.057107
0.0571267
0.0566615
0.0566154
0.0566683
0.0570973
0.0571184
0.0571521
0.0570736
0.0566794
0.0566746
0.0571391
0.0570688
0.0573498
0.104484
0.110619
0.0553254
0.0558754
0.054723
0.0545873
0.0544861
0.0543285
0.0543822
0.0543649
0.0542497
0.054185
0.05434
0.0542503
0.0542768
0.0542415
0.0543497
0.0541081
0.0542534
0.0542803
0.0544501
0.05453
0.0546028
0.0557849
0.0550644
0.111253
0.115885
0.0546448
0.055382
0.0543161
0.0540532
0.05394
0.0537338
0.0536095
0.0535338
0.0534421
0.0533754
0.0534629
0.0537039
0.0537401
0.0536936
0.0534837
0.0533645
0.0534636
0.0536338
0.053905
0.0539989
0.0542029
0.0551938
0.0542903
0.115912
0.121032
0.0546342
0.055122
0.0537467
0.0536842
0.0535066
0.0532142
0.0531098
0.0530312
0.0529526
0.0528847
0.0529697
0.0532212
0.0532653
0.0532163
0.0529948
0.0528768
0.0529555
0.0531091
0.0534739
0.0536068
0.0536123
0.0550185
0.0543271
0.121458
0.124408
0.0547451
0.0551889
0.0536113
0.0533123
0.0531085
0.0528206
0.0526644
0.0525962
0.0525219
0.0524452
0.0525149
0.0527769
0.0528508
0.0527673
0.0525396
0.0524479
0.052546
0.0527326
0.0530517
0.0532375
0.053505
0.0548808
0.0543918
0.124082
0.128745
0.0564749
0.0557856
0.0534617
0.0532893
0.0529027
0.052429
0.0522766
0.0522068
0.0521339
0.0520591
0.0521293
0.0524082
0.0524778
0.0523991
0.0521493
0.0520767
0.0521611
0.0523571
0.0528619
0.0531939
0.0533638
0.0556413
0.0563564
0.128945
0.135701
0.0611962
0.0578382
0.0544205
0.0534208
0.0528544
0.0522792
0.0520076
0.0519219
0.0518387
0.0517618
0.051801
0.0521038
0.0521876
0.0520839
0.0518218
0.0518056
0.0519225
0.0522173
0.0527858
0.0533234
0.0542763
0.0575115
0.0610292
0.135513
0.151301
0.0692436
0.0615429
0.0559319
0.0544276
0.0531665
0.0522343
0.0518896
0.0517495
0.0516672
0.0515853
0.0516052
0.051936
0.0520288
0.0519232
0.0516227
0.0516535
0.0517995
0.0521599
0.0530924
0.0542245
0.0556172
0.0610275
0.0684064
0.154147
0.239299
0.0874302
0.0664626
0.0589974
0.055384
0.0537038
0.0525389
0.0520299
0.0518212
0.0517336
0.0516617
0.0516474
0.0520005
0.0521106
0.0519994
0.0517112
0.0517628
0.0519463
0.0524381
0.0536055
0.0552572
0.0586502
0.0660054
0.0866783
0.241169
0.365326
0.118399
0.075962
0.0629286
0.0575661
0.0547752
0.0531462
0.0526173
0.0523162
0.0522026
0.0521359
0.0520962
0.0524401
0.0525696
0.0524915
0.0522611
0.0523117
0.0525498
0.0530327
0.0546163
0.0573245
0.0616221
0.0748268
0.113016
0.365676
0.658172
0.193004
0.103991
0.0743776
0.0613195
0.0572984
0.05517
0.054194
0.0536818
0.0534905
0.0533884
0.0533357
0.0536141
0.0537688
0.0537689
0.0536743
0.0537576
0.0541588
0.0551147
0.0568333
0.061887
0.0733824
0.100169
0.182892
0.643642
0.581976
0.436252
0.176031
0.0921085
0.0767249
0.0649455
0.0597146
0.0578328
0.0568912
0.0565593
0.0564
0.0563306
0.0564922
0.0566572
0.0567796
0.0568727
0.0571303
0.0579356
0.0598267
0.0653006
0.076309
0.089672
0.17204
0.433703
0.581344
0.491513
0.400527
0.346752
0.326482
0.115745
0.0803999
0.0735233
0.0676044
0.0650807
0.0643028
0.063898
0.0636946
0.0637342
0.0639038
0.0642125
0.0647309
0.0656895
0.0683679
0.0749508
0.0831891
0.131072
0.328268
0.33743
0.401452
0.50019
0.408233
0.349575
0.32928
0.333499
0.301434
0.199725
0.127018
0.0945692
0.086545
0.0859089
0.0853194
0.0849839
0.0850046
0.0851795
0.0856448
0.0866135
0.0875691
0.0953299
0.133826
0.212016
0.302504
0.330231
0.331365
0.360367
0.421761
0.329668
0.293017
0.281873
0.300832
0.312747
0.32147
0.243995
0.191256
0.171193
0.14851
0.136397
0.132303
0.130843
0.131575
0.134283
0.143071
0.171499
0.195583
0.249072
0.324287
0.307933
0.303763
0.291504
0.298399
0.341946
0.239007
0.227202
0.225177
0.26431
0.318692
0.401214
0.530822
0.565287
0.539638
0.538382
0.557889
0.571192
0.578511
0.574759
0.56153
0.551227
0.539321
0.56824
0.531196
0.398481
0.314428
0.26678
0.230418
0.234584
0.251993
0.140469
0.152383
0.185715
0.22723
0.312879
0.433085
0.563911
0.616762
0.561145
0.512356
0.4948
0.491608
0.494428
0.493431
0.498747
0.530351
0.566292
0.607105
0.566533
0.438921
0.311655
0.229367
0.177685
0.143134
0.131321
0.0684147
0.102747
0.16397
0.248499
0.350235
0.408963
0.474114
0.533272
0.499506
0.452631
0.432911
0.430226
0.431894
0.43492
0.441128
0.462257
0.49612
0.527854
0.487409
0.424844
0.372183
0.26543
0.167873
0.104469
0.0703025
0.0265005
0.0521605
0.113012
0.230797
0.347825
0.362318
0.384844
0.426545
0.42462
0.402578
0.390377
0.384888
0.382253
0.390055
0.397987
0.405573
0.414276
0.414737
0.388638
0.376201
0.362576
0.230425
0.112339
0.0518788
0.0257849
0.0768325
0.0858859
0.113269
0.187242
0.275849
0.285625
0.307443
0.351537
0.369246
0.361046
0.349159
0.338315
0.333052
0.344246
0.356281
0.361449
0.35713
0.33832
0.307178
0.294397
0.282228
0.185879
0.112125
0.0868059
0.0818558
0.122445
0.145735
0.126246
0.156334
0.2073
0.224346
0.25243
0.298437
0.322405
0.320068
0.308124
0.294368
0.287612
0.300115
0.314603
0.319426
0.310456
0.285815
0.247582
0.228856
0.210256
0.15374
0.12371
0.144425
0.123413
0.166462
0.153092
0.130181
0.133968
0.163447
0.180544
0.211877
0.255832
0.280624
0.280719
0.268428
0.253718
0.24695
0.258322
0.273419
0.278767
0.268808
0.246198
0.206288
0.182644
0.165158
0.1341
0.127719
0.154995
0.168543
0.206877
0.183529
0.132183
0.123253
0.13797
0.154404
0.180412
0.220073
0.242595
0.24399
0.23197
0.218275
0.212022
0.222493
0.236637
0.24207
0.231654
0.21106
0.176049
0.154785
0.13904
0.123457
0.130715
0.194216
0.204618
0.226941
0.221417
0.135639
0.118919
0.122069
0.134655
0.156617
0.188687
0.20826
0.210095
0.199976
0.187449
0.18235
0.191376
0.204783
0.209726
0.199795
0.181647
0.153891
0.134144
0.122359
0.120812
0.135602
0.233847
0.225265
0.248962
0.250471
0.136464
0.115441
0.111523
0.120846
0.13853
0.164489
0.180149
0.181781
0.173259
0.162265
0.157443
0.165464
0.17699
0.18102
0.17281
0.157761
0.135774
0.120572
0.11213
0.116791
0.13716
0.262088
0.248239
0.276004
0.26712
0.137979
0.112457
0.105073
0.109513
0.124128
0.143405
0.155686
0.156616
0.149609
0.140188
0.136531
0.143254
0.153374
0.156676
0.149936
0.138007
0.121447
0.108529
0.105762
0.113789
0.140672
0.283373
0.272494
0.304089
0.286474
0.138048
0.107975
0.0998355
0.101517
0.112433
0.12684
0.135442
0.135842
0.130091
0.122424
0.119002
0.125127
0.133713
0.136869
0.131977
0.122481
0.109888
0.100836
0.101073
0.10955
0.141783
0.302804
0.301031
0.334062
0.315033
0.143153
0.105728
0.0972679
0.0949182
0.102584
0.11241
0.11898
0.118756
0.11385
0.106991
0.104281
0.109121
0.116352
0.118928
0.115562
0.108885
0.100546
0.0941814
0.0979775
0.106472
0.144364
0.317624
0.329919
0.3617
0.32838
0.143716
0.101759
0.092933
0.0905729
0.0951052
0.101343
0.105014
0.104167
0.0999544
0.0945003
0.0918783
0.0964885
0.102585
0.105117
0.102973
0.0979485
0.0925418
0.0889537
0.0936882
0.102954
0.146704
0.334128
0.354071
0.377142
0.334079
0.14952
0.100972
0.090741
0.0861515
0.0887338
0.090708
0.0929911
0.0917683
0.0883638
0.0834554
0.0814511
0.0851925
0.0906418
0.0927609
0.091788
0.088937
0.086937
0.0849486
0.0906322
0.101256
0.149543
0.334882
0.377273
0.386606
0.333669
0.153972
0.0992702
0.0862411
0.0814492
0.0832122
0.0835796
0.0840581
0.0823061
0.0789477
0.0748215
0.0726612
0.0761889
0.0807556
0.0829771
0.0828777
0.0812304
0.081403
0.0799184
0.0856903
0.0996978
0.151681
0.331027
0.393849
0.40522
0.32841
0.159558
0.100662
0.0843356
0.0780007
0.0788067
0.0761571
0.075617
0.0735525
0.0707535
0.0668712
0.065272
0.068172
0.0725021
0.0744053
0.0751241
0.0749337
0.077133
0.0764606
0.0832336
0.0999561
0.15861
0.335284
0.40438
0.412528
0.322636
0.163493
0.100989
0.0807272
0.0741776
0.0733243
0.0706422
0.0690566
0.0667424
0.0639398
0.0607297
0.0590029
0.0618391
0.065554
0.0678022
0.0689584
0.0693706
0.0721194
0.0726413
0.0798791
0.10028
0.163984
0.328121
0.412053
0.419457
0.321646
0.164108
0.104189
0.0808939
0.0720989
0.0696276
0.0653729
0.0631478
0.0604806
0.0581758
0.054979
0.0536805
0.0559501
0.0594917
0.0612643
0.0631984
0.0646667
0.0683313
0.0703389
0.0790152
0.102006
0.166347
0.329065
0.419069
0.424964
0.313724
0.161951
0.106111
0.0807668
0.0686761
0.064988
0.0608775
0.0584818
0.0557513
0.0531897
0.0505463
0.0491452
0.0514504
0.0545113
0.0567704
0.0585854
0.0598143
0.0641526
0.0675541
0.0787344
0.105112
0.165795
0.326154
0.422036
0.430208
0.315468
0.161806
0.111531
0.0827629
0.0674639
0.0623066
0.056431
0.0539001
0.0509486
0.0489427
0.046286
0.0452204
0.0470682
0.0501154
0.0518588
0.0544272
0.0560819
0.0615272
0.0659411
0.0803683
0.109328
0.163056
0.322311
0.429931
0.426139
0.313502
0.159202
0.119655
0.0847376
0.065674
0.0588019
0.0529319
0.0503335
0.0477652
0.0453602
0.0431065
0.041878
0.0437522
0.0464418
0.0485697
0.0505376
0.0520185
0.058061
0.0642876
0.0814227
0.116919
0.159237
0.315568
0.437578
0.422694
0.31219
0.155494
0.1225
0.0883214
0.0668331
0.0571327
0.0497528
0.0468328
0.043908
0.0421615
0.0398749
0.0389749
0.0405033
0.0431444
0.0446641
0.0474785
0.0494243
0.0561005
0.06495
0.0855953
0.1215
0.154301
0.318488
0.43691
0.41344
0.312517
0.148405
0.122346
0.0938933
0.0668472
0.0546608
0.046992
0.0440332
0.0416181
0.039468
0.0375313
0.0364482
0.0380772
0.0404378
0.0423503
0.0444362
0.0464743
0.0539931
0.0650554
0.088856
0.121702
0.148859
0.321123
0.428613
0.402706
0.312881
0.144247
0.121972
0.102881
0.0700691
0.0550445
0.0453615
0.0417305
0.0386224
0.0370091
0.0350042
0.0342399
0.0355116
0.0378163
0.0391659
0.0423548
0.0450067
0.0537661
0.0672395
0.096153
0.120883
0.145381
0.325529
0.415569
0.398033
0.310584
0.138922
0.119549
0.107892
0.0719768
0.0542242
0.0439994
0.0397536
0.0370701
0.0349703
0.0332195
0.0322786
0.0337256
0.0358274
0.0376046
0.0401095
0.0433851
0.0535497
0.0694108
0.10791
0.120364
0.143639
0.323319
0.395499
0.389752
0.31211
0.137038
0.115617
0.107297
0.077892
0.0555349
0.0440634
0.0386435
0.0347493
0.0330372
0.0312143
0.0305577
0.0316644
0.0337815
0.0352039
0.0392817
0.0434899
0.0543227
0.0740849
0.107367
0.11694
0.140497
0.31652
0.38517
0.381328
0.30796
0.136157
0.110596
0.106443
0.0865974
0.0571345
0.043876
0.0378099
0.0339698
0.0315966
0.0298999
0.0290183
0.0302799
0.0322991
0.0342159
0.0378297
0.0431384
0.0556154
0.0812623
0.10693
0.112527
0.137878
0.316346
0.377726
0.37524
0.305396
0.134877
0.106062
0.103425
0.0923516
0.0611827
0.0446607
0.0379833
0.0325597
0.0302205
0.0283172
0.0276797
0.0286729
0.0308011
0.0326625
0.038277
0.0442657
0.0599593
0.0932191
0.104369
0.10711
0.138624
0.313251
0.372141
0.368473
0.303691
0.135083
0.102562
0.0985213
0.091857
0.0679787
0.0461247
0.0377696
0.0328105
0.0295257
0.0274739
0.0265542
0.0277623
0.030061
0.0327278
0.0377632
0.0452181
0.0663361
0.0927368
0.100411
0.103552
0.138049
0.31536
0.369505
0.356561
0.297375
0.13671
0.100171
0.0937891
0.0908798
0.0790996
0.0503144
0.0388809
0.0323453
0.0291155
0.0265939
0.0257197
0.0268202
0.029521
0.0322302
0.0388334
0.0489229
0.0766554
0.091757
0.0950456
0.100092
0.141375
0.311465
0.362154
0.347056
0.293025
0.135282
0.0982244
0.0902267
0.08798
0.0791078
0.0564623
0.0399548
0.032947
0.0291955
0.0266231
0.0251295
0.0267919
0.0296611
0.032845
0.0396195
0.055081
0.0781766
0.0887442
0.0916257
0.100146
0.141672
0.302944
0.351758
0.32124
0.281636
0.134716
0.0970382
0.0872688
0.0843809
0.0783466
0.0663916
0.0440912
0.0331395
0.029186
0.0263595
0.0251311
0.0265343
0.0295709
0.0329812
0.0436881
0.0646608
0.0778586
0.0849163
0.088469
0.0985228
0.140434
0.288815
0.327051
0.291444
0.263031
0.130265
0.0955087
0.0853264
0.0802414
0.0766343
0.0678684
0.049635
0.0357746
0.02981
0.0267705
0.025213
0.0268937
0.0301193
0.0352418
0.0487523
0.0681369
0.0763232
0.0802121
0.0859698
0.0975275
0.134759
0.268904
0.297021
0.0718403
0.209929
0.339712
0.456897
0.503537
0.474971
0.416485
0.372224
0.347842
0.340052
0.342105
0.355456
0.387531
0.431982
0.469176
0.51931
0.572986
0.61507
0.640838
0.654225
0.651307
0.634392
0.608162
0.576826
0.541243
0.501117
0.454081
0.394966
0.306332
0.162821
0.0801414
0.256996
0.404956
0.518694
0.549763
0.516492
0.47579
0.44233
0.409224
0.400018
0.399756
0.417513
0.447379
0.467055
0.487913
0.526266
0.562413
0.592322
0.609252
0.615631
0.60933
0.592036
0.567362
0.538466
0.505676
0.46894
0.426156
0.372007
0.288313
0.1577
0.0924777
0.314778
0.467736
0.569757
0.58719
0.56474
0.530101
0.508071
0.482629
0.473747
0.465409
0.468341
0.47632
0.480339
0.492358
0.524286
0.547315
0.565404
0.574925
0.57682
0.569114
0.552527
0.530206
0.503764
0.473597
0.43963
0.400669
0.35115
0.273394
0.153232
0.106141
0.383468
0.534824
0.637834
0.644837
0.610996
0.573533
0.556734
0.545109
0.535433
0.526807
0.515756
0.49996
0.49024
0.493269
0.515109
0.529598
0.537797
0.540858
0.538848
0.529983
0.514141
0.493658
0.469748
0.442465
0.41183
0.377253
0.332101
0.260043
0.148817
0.115018
0.439743
0.598157
0.71069
0.715075
0.674952
0.633153
0.613658
0.598542
0.579574
0.566544
0.545821
0.519406
0.501801
0.49734
0.506896
0.510361
0.511517
0.510915
0.506682
0.496819
0.481339
0.462468
0.440772
0.41584
0.388152
0.357124
0.31553
0.247865
0.144157
0.126767
0.508774
0.673195
0.78831
0.790693
0.741506
0.698977
0.679195
0.661957
0.637865
0.615584
0.583052
0.546968
0.51939
0.503626
0.498063
0.492192
0.487525
0.482602
0.475749
0.465383
0.450678
0.433629
0.413909
0.390966
0.366006
0.337595
0.298738
0.2346
0.138529
0.139643
0.576628
0.74319
0.858338
0.858776
0.797738
0.754843
0.736866
0.721075
0.69374
0.660677
0.619489
0.575088
0.536558
0.507307
0.488647
0.474986
0.465517
0.457733
0.449478
0.439177
0.425474
0.409908
0.390225
0.368365
0.345556
0.319226
0.282747
0.222001
0.133067
0.153418
0.637341
0.809785
0.921082
0.918831
0.843476
0.798708
0.778675
0.760745
0.731332
0.693876
0.648055
0.59846
0.550218
0.509543
0.479274
0.458276
0.444566
0.434044
0.424734
0.414845
0.402197
0.386182
0.368947
0.35049
0.330062
0.30558
0.27067
0.212265
0.129113
0.168674
0.694436
0.876253
0.978068
0.965404
0.875984
0.825166
0.800717
0.78123
0.754106
0.715506
0.668963
0.616767
0.560808
0.51137
0.470947
0.443599
0.426019
0.413482
0.403571
0.394198
0.381834
0.369485
0.354837
0.338156
0.318977
0.29543
0.261323
0.204317
0.125928
0.183361
0.74872
0.938117
1.02937
1.0147
0.903781
0.847327
0.819273
0.800573
0.77358
0.735656
0.688938
0.634636
0.572651
0.515227
0.465795
0.431525
0.41055
0.396185
0.385796
0.375996
0.366749
0.356184
0.343597
0.327626
0.309028
0.286033
0.252684
0.197531
0.123213
0.196986
0.799207
0.997253
1.08269
1.05815
0.932081
0.871739
0.842585
0.823788
0.797524
0.760243
0.712554
0.655369
0.589736
0.522822
0.465473
0.424417
0.399559
0.383275
0.372321
0.363865
0.356236
0.346818
0.334981
0.319564
0.301415
0.278843
0.246163
0.192234
0.121076
0.208168
0.852642
1.04521
1.11443
1.08408
0.951653
0.892259
0.86616
0.848733
0.824504
0.788009
0.73788
0.679894
0.60977
0.536043
0.471423
0.423885
0.39376
0.374603
0.363033
0.355093
0.348141
0.339118
0.32739
0.312278
0.294406
0.272121
0.23995
0.18711
0.118917
0.2168
0.901098
1.07129
1.13178
1.10103
0.966341
0.909401
0.885958
0.870291
0.848849
0.8141
0.764348
0.706415
0.632625
0.554237
0.482709
0.428044
0.390646
0.369066
0.357424
0.349256
0.342088
0.333146
0.321807
0.307408
0.289675
0.267239
0.234793
0.182367
0.117054
0.223701
0.932063
1.08747
1.14738
1.11628
0.980155
0.923346
0.900312
0.883842
0.865971
0.836782
0.792272
0.73558
0.66063
0.578685
0.501175
0.435971
0.392324
0.368551
0.354455
0.345437
0.337978
0.329772
0.318303
0.30429
0.286163
0.263234
0.230364
0.178669
0.115981
0.228113
0.952182
1.10299
1.16291
1.13046
0.988584
0.929002
0.909472
0.894865
0.881065
0.858467
0.820431
0.767416
0.69376
0.610156
0.525196
0.44988
0.399681
0.370814
0.354038
0.343639
0.335226
0.32664
0.316058
0.301032
0.283099
0.260109
0.226916
0.175801
0.115002
0.230833
0.969308
1.11426
1.16683
1.13594
0.995192
0.929186
0.912438
0.901195
0.892401
0.877471
0.847237
0.800353
0.730957
0.648098
0.556135
0.471134
0.411555
0.375773
0.355672
0.343073
0.333276
0.323796
0.312493
0.297419
0.279979
0.257131
0.223856
0.173291
0.114197
0.232176
0.977717
1.11802
1.16093
1.12873
0.991041
0.92682
0.910764
0.905233
0.901251
0.893777
0.871918
0.832908
0.770124
0.690356
0.593171
0.50036
0.428917
0.38381
0.359034
0.343332
0.331387
0.320337
0.308562
0.294949
0.277363
0.254724
0.221546
0.17137
0.113891
0.232625
0.976882
1.10975
1.14282
1.11034
0.980852
0.920391
0.906694
0.908147
0.908827
0.907625
0.893984
0.862601
0.808276
0.735165
0.639482
0.538082
0.453237
0.395834
0.361977
0.34084
0.326542
0.316333
0.305844
0.293924
0.276311
0.253351
0.220769
0.170248
0.11396
0.230224
0.961839
1.08693
1.11353
1.0817
0.966696
0.912296
0.901323
0.908465
0.914842
0.918576
0.912073
0.888957
0.845186
0.782477
0.691862
0.584786
0.483987
0.409609
0.364857
0.338306
0.323832
0.313845
0.30347
0.291665
0.275999
0.253252
0.219957
0.169454
0.114133
0.227644
0.941118
1.05307
1.074
1.04454
0.946745
0.901408
0.894192
0.907415
0.919649
0.92756
0.92683
0.912651
0.881023
0.831307
0.749169
0.636812
0.517839
0.425315
0.367881
0.338515
0.323203
0.312074
0.301653
0.28973
0.274684
0.252301
0.218258
0.169402
0.114485
0.222944
0.896867
1.00026
1.02124
0.998111
0.923203
0.889782
0.888657
0.905046
0.923992
0.933627
0.939108
0.933909
0.913166
0.87642
0.801834
0.686737
0.557619
0.449625
0.377729
0.342723
0.324024
0.310422
0.300559
0.288902
0.27358
0.251641
0.218575
0.168037
0.115023
0.219351
0.849941
0.937936
0.960209
0.945253
0.897074
0.877538
0.883902
0.902843
0.925777
0.939901
0.949402
0.952558
0.938622
0.910646
0.843778
0.734717
0.605408
0.483653
0.395772
0.350249
0.325953
0.308905
0.299843
0.28813
0.272256
0.250422
0.217226
0.167479
0.115563
0.207068
0.772307
0.849238
0.889104
0.888622
0.869745
0.865504
0.880477
0.902104
0.926154
0.945261
0.957306
0.963027
0.953097
0.930207
0.877178
0.781798
0.659831
0.529269
0.423452
0.361927
0.328757
0.310743
0.299336
0.28712
0.270343
0.248523
0.215414
0.166578
0.116239
0.201455
0.691177
0.755555
0.813714
0.834721
0.84201
0.852748
0.875349
0.900071
0.924101
0.94823
0.958966
0.962136
0.954977
0.941552
0.907403
0.829819
0.719768
0.585186
0.461934
0.379473
0.333475
0.312787
0.296981
0.284195
0.268284
0.246235
0.213667
0.165526
0.116902
0.172742
0.523014
0.628373
0.733473
0.785994
0.81466
0.837248
0.865885
0.894216
0.922109
0.944351
0.957853
0.955478
0.951052
0.947733
0.934943
0.875361
0.781038
0.649235
0.510462
0.40462
0.344712
0.31495
0.296658
0.282508
0.266378
0.244461
0.212253
0.164467
0.116474
0.162009
0.304658
0.393484
0.452787
0.50047
0.540074
0.575911
0.607367
0.634342
0.651683
0.654097
0.639373
0.612162
0.572645
0.518618
0.473284
0.436767
0.392176
0.360882
0.35054
0.349986
0.361018
0.389615
0.437912
0.496726
0.523386
0.473971
0.351372
0.216649
0.0720269
0.15683
0.286521
0.370283
0.424695
0.468281
0.504793
0.537648
0.566738
0.591961
0.609723
0.616146
0.608917
0.591629
0.562863
0.525975
0.493412
0.474849
0.456171
0.428939
0.41369
0.415679
0.430747
0.467891
0.502479
0.542325
0.571677
0.536352
0.417579
0.265419
0.0800086
0.152254
0.271339
0.348952
0.398833
0.438748
0.472843
0.502949
0.529597
0.552311
0.569195
0.577689
0.575556
0.565775
0.547428
0.523904
0.498775
0.490318
0.488894
0.485513
0.482761
0.492205
0.504261
0.530197
0.554462
0.59277
0.613658
0.590711
0.483001
0.325098
0.0928697
0.147785
0.257696
0.329539
0.3752
0.410815
0.442054
0.469333
0.493407
0.514209
0.530107
0.540166
0.542116
0.53904
0.531041
0.519061
0.500801
0.502046
0.514659
0.532452
0.544531
0.555641
0.567807
0.580296
0.600088
0.643923
0.677654
0.662484
0.551923
0.396465
0.107248
0.142915
0.245169
0.312745
0.35488
0.38682
0.415259
0.440254
0.462143
0.481201
0.496474
0.507532
0.51206
0.513248
0.512681
0.511141
0.506338
0.515986
0.53716
0.5662
0.58922
0.604345
0.626067
0.641222
0.665144
0.713341
0.750682
0.735115
0.617376
0.454474
0.116464
0.137321
0.23195
0.296101
0.335561
0.364557
0.39023
0.413134
0.432981
0.450188
0.464757
0.476139
0.483208
0.488746
0.494626
0.502771
0.513178
0.53533
0.567651
0.606755
0.643193
0.666697
0.691773
0.708663
0.731113
0.779558
0.828904
0.811529
0.693846
0.526411
0.128478
0.131439
0.218688
0.27956
0.316772
0.344113
0.367726
0.389775
0.408865
0.424599
0.438337
0.449515
0.458091
0.466664
0.477531
0.493885
0.517535
0.553722
0.59705
0.643624
0.687338
0.721019
0.749174
0.765728
0.787084
0.835409
0.898558
0.880928
0.763843
0.594348
0.141476
0.127453
0.209052
0.267556
0.302936
0.328061
0.348816
0.367127
0.384328
0.400047
0.413683
0.424552
0.434282
0.445873
0.461464
0.48496
0.519983
0.566421
0.619255
0.670093
0.717325
0.755311
0.783717
0.803205
0.826736
0.87671
0.958276
0.941169
0.830433
0.654958
0.155454
0.124319
0.201348
0.258292
0.292764
0.316886
0.336204
0.352818
0.366827
0.379429
0.391413
0.402735
0.413431
0.427517
0.447622
0.477554
0.52177
0.575519
0.634445
0.687672
0.735222
0.773688
0.800203
0.820364
0.849069
0.906098
1.00497
0.995505
0.897495
0.712892
0.170806
0.121569
0.19475
0.249817
0.283543
0.307102
0.325781
0.341459
0.354153
0.364965
0.374464
0.383659
0.395359
0.411707
0.435861
0.473008
0.525872
0.58606
0.649393
0.704632
0.751916
0.789335
0.816128
0.83647
0.86883
0.931537
1.05233
1.04327
0.957726
0.767461
0.185389
0.119424
0.189585
0.24336
0.276586
0.299651
0.317925
0.332992
0.345104
0.354796
0.362661
0.37112
0.382458
0.399889
0.427274
0.47216
0.533239
0.601577
0.667407
0.725051
0.773498
0.810938
0.837727
0.858519
0.890391
0.958424
1.09269
1.09339
1.01559
0.820059
0.198765
0.117439
0.184746
0.237378
0.270047
0.292681
0.310737
0.325628
0.337963
0.347007
0.354323
0.362705
0.374528
0.393883
0.426499
0.476579
0.544474
0.619081
0.689031
0.747946
0.799332
0.8359
0.860791
0.881047
0.909546
0.976915
1.11608
1.12133
1.05905
0.876702
0.210009
0.115775
0.180266
0.2324
0.264875
0.287389
0.305276
0.3199
0.332935
0.34117
0.348698
0.357568
0.370334
0.391559
0.430092
0.486092
0.560964
0.640068
0.713559
0.773161
0.822004
0.856681
0.880758
0.900283
0.926266
0.992013
1.13209
1.13755
1.08267
0.919399
0.218176
0.114656
0.176604
0.227941
0.260507
0.283259
0.301512
0.31697
0.328112
0.33743
0.345157
0.35494
0.369318
0.393709
0.437909
0.503149
0.582912
0.665559
0.739829
0.798318
0.842965
0.872942
0.89316
0.911853
0.939058
1.00718
1.14756
1.15369
1.09843
0.946648
0.225049
0.113633
0.173562
0.224471
0.257468
0.280692
0.300521
0.316263
0.32671
0.335183
0.343732
0.354839
0.371772
0.400789
0.451563
0.526506
0.612045
0.695501
0.768881
0.824361
0.862692
0.886093
0.901925
0.919964
0.94566
1.01546
1.16258
1.17003
1.11458
0.965133
0.229211
0.112798
0.171038
0.221668
0.255091
0.278562
0.299005
0.313382
0.324604
0.33405
0.343854
0.356932
0.377089
0.412467
0.472354
0.556593
0.647471
0.730675
0.800527
0.849721
0.880388
0.896112
0.906868
0.921105
0.943754
1.01895
1.16863
1.17637
1.1278
0.981827
0.231891
0.112556
0.169407
0.219601
0.253226
0.277169
0.295891
0.310591
0.322459
0.333051
0.344662
0.360547
0.385311
0.42898
0.500783
0.59345
0.688126
0.76852
0.832329
0.873415
0.895943
0.904409
0.910248
0.918358
0.939958
1.01357
1.15951
1.1714
1.13206
0.989363
0.232963
0.112969
0.169363
0.218789
0.252425
0.277176
0.293947
0.307241
0.319324
0.33083
0.345719
0.3658
0.397202
0.45219
0.536899
0.636875
0.732277
0.806603
0.862434
0.895533
0.909931
0.912152
0.912866
0.914027
0.932394
1.00141
1.13808
1.15431
1.12455
0.987901
0.233009
0.11379
0.168474
0.218789
0.252497
0.275355
0.291905
0.30343
0.315707
0.32722
0.342523
0.368691
0.411674
0.482441
0.581395
0.68732
0.778722
0.843757
0.889614
0.914542
0.921685
0.918965
0.914044
0.909613
0.92426
0.98412
1.10626
1.12567
1.10214
0.973189
0.230626
0.113737
0.167158
0.217506
0.251112
0.273847
0.28931
0.301054
0.313125
0.325863
0.341327
0.36983
0.426151
0.517272
0.632985
0.743276
0.826907
0.879969
0.914594
0.929894
0.930931
0.924137
0.913864
0.90309
0.913544
0.963391
1.06541
1.08607
1.0682
0.953184
0.228061
0.113992
0.166556
0.216825
0.25036
0.272501
0.287478
0.300548
0.309818
0.325732
0.344342
0.378544
0.448283
0.553951
0.681273
0.796263
0.872173
0.912465
0.936008
0.940968
0.936952
0.928013
0.910524
0.896596
0.901434
0.93923
1.01738
1.03417
1.01615
0.908884
0.223265
0.114142
0.165788
0.215531
0.249236
0.271291
0.286811
0.299069
0.310191
0.326583
0.350614
0.394545
0.478257
0.595531
0.724527
0.835037
0.904948
0.936312
0.952223
0.948312
0.940856
0.92802
0.906877
0.891073
0.889126
0.912748
0.963615
0.974445
0.954614
0.863018
0.219504
0.114167
0.164927
0.213962
0.247772
0.270002
0.285921
0.298045
0.310944
0.32791
0.360473
0.419497
0.519935
0.646136
0.767798
0.865041
0.921554
0.947615
0.958546
0.953224
0.94401
0.926174
0.903986
0.886676
0.876855
0.885155
0.907241
0.904957
0.866874
0.786091
0.207266
0.114018
0.16416
0.212379
0.2459
0.268424
0.284554
0.29811
0.312448
0.332273
0.376564
0.455357
0.573154
0.703556
0.814378
0.893937
0.929768
0.94905
0.955679
0.953431
0.944632
0.924139
0.901913
0.880345
0.862927
0.857725
0.854566
0.832492
0.774273
0.704441
0.201464
0.113826
0.163444
0.211048
0.244164
0.266924
0.283392
0.297828
0.314898
0.343161
0.400228
0.501492
0.635012
0.764529
0.860794
0.923438
0.941274
0.944381
0.949152
0.952383
0.941246
0.920211
0.898248
0.873343
0.848051
0.829502
0.806149
0.753696
0.646445
0.532348
0.173
0.502274
0.519779
0.540247
0.539345
0.530297
0.518755
0.509104
0.501945
0.496618
0.494191
0.497319
0.50236
0.507712
0.511389
0.512743
0.511807
0.50906
0.504767
0.499274
0.493257
0.486879
0.480602
0.47434
0.470312
0.466005
0.461902
0.458555
0.4558
0.453531
0.451725
0.450306
0.449292
0.44881
0.448699
0.448784
0.44899
0.449128
0.449012
0.448628
0.44774
0.44646
0.44461
0.44206
0.438935
0.435258
0.431056
0.426374
0.421231
0.415622
0.409491
0.402807
0.395787
0.3891
0.382281
0.374827
0.366798
0.358182
0.348981
0.339012
0.328198
0.316565
0.304168
0.291207
0.277881
0.264452
0.251162
0.238048
0.225177
0.212744
0.200897
0.189909
0.179729
0.170328
0.16187
0.154386
0.147744
0.141778
0.136429
0.131606
0.127252
0.123229
0.119559
0.116227
0.113244
0.110587
0.108203
0.10608
0.104217
0.102574
0.101174
0.0999016
0.098823
0.0979047
0.0971624
0.0966146
0.0960951
0.0956598
0.0953035
0.094995
0.0952274
0.0958997
0.0965909
0.0973794
0.0982873
0.0994724
0.100668
0.102466
0.104726
0.106993
0.109268
0.111605
0.113358
0.114683
0.116003
0.118186
0.118998
0.119387
0.119511
0.119421
0.119196
0.118071
0.116815
0.115943
0.114659
0.113953
4.27515
4.46823
4.7126
4.74048
4.67076
4.59398
4.53632
4.50705
4.49922
4.52687
4.58872
4.6535
4.70202
4.72356
4.7167
4.685
4.63491
4.57324
4.50582
4.43783
4.37317
4.31572
4.26841
4.22886
4.19163
4.16319
4.14147
4.12738
4.11997
4.11783
4.12011
4.12699
4.13444
4.14122
4.14623
4.14855
4.14729
4.14184
4.13197
4.11724
4.09799
4.0741
4.04527
4.01184
3.97401
3.93226
3.88673
3.83739
3.78418
3.72675
3.66468
3.59665
3.51825
3.43402
3.34715
3.25849
3.1671
3.07446
2.97999
2.88035
2.77436
2.66164
2.54214
2.41604
2.2839
2.14673
2.00387
1.8582
1.71169
1.56636
1.42434
1.28747
1.15834
1.03808
0.92715
0.825973
0.734858
0.653649
0.581906
0.519262
0.4654
0.419769
0.381172
0.348542
0.320959
0.297571
0.277701
0.260851
0.246511
0.234284
0.22358
0.214062
0.205288
0.197466
0.190458
0.184296
0.178788
0.173843
0.169537
0.166118
0.164212
0.162863
0.161775
0.16087
0.160323
0.160564
0.161436
0.163038
0.164436
0.165959
0.167857
0.168465
0.168555
0.168985
0.170666
0.171617
0.170825
0.17029
0.169959
0.169537
0.167764
0.164935
0.163962
0.163118
0.162936
6.21319
6.49107
6.8265
7.08541
7.12549
7.10466
7.08037
7.07021
7.08429
7.1049
7.13907
7.169
7.18294
7.17375
7.14038
7.08789
7.02344
6.95307
6.88146
6.81253
6.74941
6.69478
6.64933
6.61327
6.58458
6.56173
6.54438
6.53215
6.5234
6.51593
6.5101
6.50419
6.49711
6.48587
6.46933
6.44685
6.41802
6.38269
6.34091
6.29272
6.23855
6.17835
6.11214
6.04031
5.96333
5.8814
5.79466
5.70317
5.60702
5.50632
5.40126
5.29184
5.17815
5.05993
4.93722
4.81003
4.6784
4.53956
4.39252
4.24004
4.08267
3.92066
3.75441
3.58547
3.41569
3.25005
3.08703
2.92334
2.75888
2.59485
2.43203
2.27392
2.1209
1.97222
1.82636
1.68288
1.54261
1.40701
1.27732
1.15484
1.04035
0.934817
0.838787
0.752557
0.67629
0.609854
0.552515
0.503112
0.460639
0.424282
0.393279
0.36688
0.344147
0.32442
0.307227
0.292251
0.279208
0.267781
0.258529
0.250957
0.244687
0.239346
0.234913
0.231326
0.228454
0.226731
0.225941
0.225313
0.225045
0.224341
0.223421
0.222001
0.220846
0.220941
0.223109
0.223109
0.221376
0.219591
0.217889
0.216919
0.215434
0.212621
0.210764
0.209716
0.210054
7.3938
7.71436
8.04614
8.35054
8.60833
8.70706
8.75293
8.7783
8.82187
8.84378
8.85107
8.83703
8.80101
8.7446
8.67212
8.59019
8.50545
8.42335
8.34791
8.28172
8.22626
8.18138
8.14645
8.121
8.10274
8.08925
8.07872
8.06844
8.05715
8.04613
8.03512
8.01743
7.99298
7.96148
7.92285
7.87716
7.8246
7.76553
7.70021
7.629
7.55224
7.47005
7.38244
7.28956
7.19343
7.09327
6.98936
6.88194
6.77121
6.65726
6.54002
6.41923
6.29471
6.16641
6.03392
5.89661
5.75391
5.60553
5.45146
5.29225
5.12806
4.95906
4.78561
4.60771
4.42476
4.23372
4.04025
3.84757
3.66077
3.47982
3.30259
3.12695
2.95368
2.78306
2.61507
2.45015
2.29311
2.14421
2.0036
1.8703
1.74383
1.62312
1.5075
1.39688
1.29126
1.19132
1.09646
1.00619
0.922068
0.845047
0.775121
0.71221
0.65587
0.605059
0.55932
0.51838
0.482151
0.449922
0.422439
0.398117
0.376702
0.35795
0.341809
0.327589
0.315834
0.305325