/*--------------------------------*- C++ -*----------------------------------*\
| =========                 |                                                 |
| \\      /  F ield         | OpenFOAM: The Open Source CFD Toolbox           |
|  \\    /   O peration     | Version:  2112                                  |
|   \\  /    A nd           | Website:  www.openfoam.com                      |
|    \\/     M anipulation  |                                                 |
\*---------------------------------------------------------------------------*/
FoamFile
{
    version     2.0;
    format      ascii;
    arch        "LSB;label=32;scalar=64";
    class       volScalarField;
    location    "8e-05";
    object      alphat;
}
// * * * * * * * * * * * * * * * * * * * * * * * * * * * * * * * * * * * * * //

dimensions      [1 -1 -1 0 0 0 0];

internalField   nonuniform List<scalar> 
13875
(
0.610005
2.53082
3.53039
4.16233
4.54991
4.77232
4.8956
4.95868
4.9877
5.00001
5.00485
5.00659
5.00702
5.0066
5.00491
5.00017
4.98792
4.95901
4.89612
4.7731
4.55093
4.16402
3.53246
2.53399
0.612775
1.09196
4.52268
6.02243
7.03521
7.64302
8.00145
8.19207
8.28558
8.32831
8.34632
8.35338
8.35588
8.35646
8.3559
8.35347
8.34651
8.32868
8.28628
8.19321
8.00322
7.64567
7.03923
6.02705
4.52757
1.10355
1.44676
6.48373
8.32569
9.39492
10.0511
10.4348
10.6456
10.7501
10.7978
10.8179
10.8257
10.8285
10.8291
10.8285
10.8257
10.8176
10.7977
10.7503
10.6458
10.4348
10.0506
9.39449
8.32559
6.48098
1.44592
1.66274
7.54271
9.78919
10.9329
11.6253
12.0389
12.2617
12.3711
12.4197
12.4397
12.4472
12.4497
12.4503
12.4496
12.447
12.4395
12.4196
12.3712
12.2618
12.0388
11.6246
10.9327
9.78902
7.52583
1.64022
1.90035
10.5356
14.606
16.2971
17.3014
17.8846
18.194
18.3445
18.4112
18.4377
18.4473
18.4504
18.4511
18.4503
18.4473
18.4383
18.4123
18.3461
18.196
17.8874
17.3045
16.3056
14.6234
10.5398
1.90127
1.79787
11.3624
15.6856
17.268
18.0825
18.5296
18.7578
18.8635
18.9085
18.9262
18.9326
18.9346
18.935
18.9344
18.9322
18.9259
18.9084
18.8639
18.759
18.532
18.0882
17.2762
15.7076
11.399
1.79869
1.35643
8.49828
11.7897
13.0807
13.7042
14.0112
14.1556
14.2184
14.2439
14.2537
14.2572
14.2583
14.2584
14.2581
14.2568
14.2532
14.2433
14.2176
14.1542
14.0081
13.6981
13.0711
11.756
8.42511
1.34514
0.744523
3.82207
5.24879
5.85085
6.1195
6.23513
6.28481
6.3054
6.31349
6.31651
6.31759
6.31795
6.31801
6.31785
6.31736
6.31611
6.31288
6.30457
6.28364
6.23324
6.11615
5.84738
5.23414
3.79942
0.73651
0.261493
0.646672
0.882222
0.9721
1.01261
1.03015
1.03779
1.04105
1.04238
1.04289
1.04308
1.04315
1.04315
1.04312
1.04303
1.0428
1.04225
1.04087
1.03754
1.02981
1.01212
0.972075
0.880482
0.643542
0.259191
0.0530679
0.0653558
0.0660248
0.0651692
0.0646925
0.0644606
0.064362
0.0643241
0.0643106
0.0643059
0.0643041
0.0643031
0.0643022
0.0643012
0.0643001
0.0642995
0.0643015
0.0643122
0.0643474
0.0644441
0.0646756
0.0651563
0.0660259
0.0654586
0.0530209
0.0393968
0.221541
0.285595
0.289069
0.288283
0.287858
0.287671
0.287587
0.287549
0.28753
0.28752
0.287513
0.287506
0.287501
0.287497
0.287497
0.287504
0.287532
0.287606
0.287783
0.288203
0.288951
0.285246
0.219809
0.0388831
0.035525
0.214814
0.295126
0.302589
0.302716
0.302654
0.30264
0.302638
0.302637
0.302637
0.302637
0.302637
0.302637
0.302637
0.302637
0.302637
0.302637
0.302638
0.30264
0.302653
0.302715
0.30259
0.2952
0.215043
0.0354497
0.0325953
0.204284
0.29276
0.302514
0.302781
0.302701
0.302682
0.302678
0.302678
0.302678
0.302678
0.302678
0.302678
0.302678
0.302678
0.302678
0.302678
0.302678
0.302681
0.302699
0.302774
0.302523
0.29314
0.205848
0.0327458
0.0304724
0.196117
0.290546
0.302346
0.302796
0.302708
0.302683
0.302678
0.302678
0.302678
0.302678
0.302678
0.302678
0.302678
0.302678
0.302678
0.302678
0.302678
0.302683
0.302706
0.30279
0.302392
0.291294
0.198789
0.0312889
0.0293822
0.189643
0.288561
0.30214
0.302798
0.302714
0.302684
0.302679
0.302678
0.302678
0.302678
0.302678
0.302678
0.302678
0.302678
0.302678
0.302678
0.302679
0.302686
0.302722
0.302819
0.302063
0.287336
0.186157
0.028866
0.0268376
0.178281
0.284261
0.301632
0.302787
0.302723
0.302687
0.302679
0.302678
0.302678
0.302678
0.302678
0.302678
0.302678
0.302678
0.302678
0.302678
0.302679
0.302688
0.302727
0.302797
0.301564
0.283467
0.176256
0.0263271
0.0265643
0.178011
0.284183
0.301429
0.302715
0.302706
0.302684
0.302679
0.302678
0.302678
0.302678
0.302678
0.302678
0.302678
0.302678
0.302678
0.302678
0.302679
0.302684
0.302704
0.302714
0.301477
0.28465
0.179104
0.0266178
0.0265047
0.179732
0.284206
0.301164
0.30261
0.302681
0.302679
0.302678
0.302678
0.302678
0.302678
0.302678
0.302678
0.302678
0.302678
0.302678
0.302678
0.302678
0.302679
0.30268
0.302604
0.301129
0.284021
0.179404
0.0265296
0.025182
0.167672
0.277512
0.29983
0.302376
0.302639
0.302672
0.302677
0.302677
0.302678
0.302678
0.302678
0.302678
0.302678
0.302678
0.302678
0.302678
0.302677
0.302673
0.302645
0.302414
0.300119
0.279146
0.170808
0.0256247
0.0244469
0.158479
0.271354
0.298443
0.302127
0.302595
0.302664
0.302675
0.302677
0.302678
0.302678
0.302678
0.302678
0.302678
0.302678
0.302678
0.302677
0.302675
0.302664
0.302594
0.302118
0.298371
0.270933
0.157643
0.0241613
0.0272096
0.169989
0.276946
0.299401
0.302251
0.302614
0.302667
0.302676
0.302677
0.302678
0.302678
0.302678
0.302678
0.302678
0.302678
0.302678
0.302677
0.302676
0.302666
0.302605
0.302201
0.299076
0.275269
0.166781
0.0266763
0.0302028
0.184144
0.283414
0.300549
0.302425
0.302643
0.302672
0.302677
0.302678
0.302678
0.302678
0.302678
0.302678
0.302678
0.302678
0.302678
0.302678
0.302677
0.302672
0.302639
0.302404
0.300424
0.282789
0.182942
0.0301108
0.0332918
0.197467
0.288449
0.301331
0.302536
0.30266
0.302675
0.302677
0.302678
0.302678
0.302678
0.302678
0.302678
0.302678
0.302678
0.302678
0.302678
0.302677
0.302675
0.30266
0.302542
0.301393
0.288968
0.199204
0.033633
0.0363928
0.21088
0.292475
0.301862
0.302602
0.302669
0.302677
0.302678
0.302678
0.302678
0.302678
0.302678
0.302678
0.302678
0.302678
0.302678
0.302678
0.302678
0.302677
0.302669
0.302603
0.301864
0.29246
0.210704
0.0362893
0.0383895
0.218416
0.294368
0.302086
0.302628
0.302672
0.302677
0.302678
0.302678
0.302678
0.302678
0.302678
0.302678
0.302678
0.302678
0.302678
0.302678
0.302678
0.302677
0.302672
0.302627
0.302071
0.294233
0.21783
0.0383196
0.0406165
0.225365
0.295827
0.302232
0.302643
0.302674
0.302677
0.302678
0.302678
0.302678
0.302678
0.302678
0.302678
0.302678
0.302678
0.302678
0.302678
0.302678
0.302677
0.302674
0.302645
0.302252
0.296045
0.226507
0.0408373
0.0430005
0.233171
0.297249
0.30236
0.302655
0.302676
0.302677
0.302678
0.302678
0.302678
0.302678
0.302678
0.302678
0.302678
0.302678
0.302678
0.302678
0.302678
0.302677
0.302675
0.302654
0.302344
0.297043
0.231913
0.0426773
0.0447732
0.238039
0.298041
0.302426
0.302661
0.302676
0.302677
0.302678
0.302678
0.302678
0.302678
0.302678
0.302678
0.302678
0.302678
0.302678
0.302678
0.302678
0.302677
0.302676
0.302661
0.302423
0.298013
0.237922
0.0448731
0.0467381
0.242544
0.298694
0.302476
0.302665
0.302677
0.302678
0.302678
0.302678
0.302678
0.302678
0.302678
0.302678
0.302678
0.302678
0.302678
0.302678
0.302678
0.302678
0.302677
0.302666
0.302493
0.298936
0.244294
0.0470939
0.0491277
0.249204
0.299565
0.302536
0.302669
0.302677
0.302678
0.302678
0.302678
0.302678
0.302678
0.302678
0.302678
0.302678
0.302678
0.302678
0.302678
0.302678
0.302678
0.302677
0.302669
0.302525
0.299376
0.24762
0.0486697
0.05058
0.25261
0.299968
0.302563
0.302671
0.302677
0.302678
0.302678
0.302678
0.302678
0.302678
0.302678
0.302678
0.302678
0.302678
0.302678
0.302678
0.302678
0.302678
0.302677
0.302671
0.302563
0.299976
0.252722
0.0507495
0.0520459
0.255074
0.300233
0.302579
0.302672
0.302677
0.302678
0.302678
0.302678
0.302678
0.302678
0.302678
0.302678
0.302678
0.302678
0.302678
0.302678
0.302678
0.302678
0.302677
0.302673
0.302586
0.300351
0.256207
0.0522701
0.0539305
0.259478
0.300673
0.302604
0.302674
0.302677
0.302678
0.302678
0.302678
0.302678
0.302678
0.302678
0.302678
0.302678
0.302678
0.302678
0.302678
0.302678
0.302678
0.302677
0.302674
0.302599
0.300584
0.25853
0.0536578
0.055091
0.261742
0.300881
0.302615
0.302675
0.302677
0.302678
0.302678
0.302678
0.302678
0.302678
0.302678
0.302678
0.302678
0.302678
0.302678
0.302678
0.302678
0.302678
0.302677
0.302675
0.302616
0.300905
0.261997
0.0552558
0.0562207
0.263165
0.301004
0.302621
0.302675
0.302677
0.302678
0.302678
0.302678
0.302678
0.302678
0.302678
0.302678
0.302678
0.302678
0.302678
0.302678
0.302678
0.302678
0.302677
0.302675
0.302625
0.301074
0.263996
0.0563587
0.0577148
0.266274
0.301258
0.302634
0.302676
0.302678
0.302678
0.302678
0.302678
0.302678
0.302678
0.302678
0.302678
0.302678
0.302678
0.302678
0.302678
0.302678
0.302678
0.302677
0.302676
0.30263
0.301185
0.265341
0.0574595
0.0586486
0.267835
0.301379
0.302639
0.302676
0.302678
0.302678
0.302678
0.302678
0.302678
0.302678
0.302678
0.302678
0.302678
0.302678
0.302678
0.302678
0.302678
0.302678
0.302678
0.302676
0.30264
0.30139
0.267985
0.0587722
0.0595416
0.268732
0.301445
0.302642
0.302676
0.302678
0.302678
0.302678
0.302678
0.302678
0.302678
0.302678
0.302678
0.302678
0.302678
0.302678
0.302678
0.302678
0.302678
0.302678
0.302676
0.302644
0.301495
0.269435
0.0596485
0.0606931
0.271
0.301606
0.302649
0.302677
0.302678
0.302678
0.302678
0.302678
0.302678
0.302678
0.302678
0.302678
0.302678
0.302678
0.302678
0.302678
0.302678
0.302678
0.302678
0.302676
0.302647
0.30155
0.270188
0.060488
0.0614147
0.272091
0.301679
0.302652
0.302677
0.302678
0.302678
0.302678
0.302678
0.302678
0.302678
0.302678
0.302678
0.302678
0.302678
0.302678
0.302678
0.302678
0.302678
0.302678
0.302677
0.302653
0.301687
0.272192
0.0615067
0.062089
0.27262
0.301715
0.302654
0.302677
0.302678
0.302678
0.302678
0.302678
0.302678
0.302678
0.302678
0.302678
0.302678
0.302678
0.302678
0.302678
0.302678
0.302678
0.302678
0.302677
0.302655
0.301754
0.273247
0.0621745
0.0629391
0.274305
0.301822
0.302658
0.302677
0.302678
0.302678
0.302678
0.302678
0.302678
0.302678
0.302678
0.302678
0.302678
0.302678
0.302678
0.302678
0.302678
0.302678
0.302678
0.302677
0.302656
0.301781
0.273644
0.0627932
0.0634675
0.275073
0.301868
0.30266
0.302677
0.302678
0.302678
0.302678
0.302678
0.302678
0.302678
0.302678
0.302678
0.302678
0.302678
0.302678
0.302678
0.302678
0.302678
0.302678
0.302677
0.30266
0.301872
0.275114
0.0635245
0.0639471
0.275349
0.301886
0.30266
0.302677
0.302678
0.302678
0.302678
0.302678
0.302678
0.302678
0.302678
0.302678
0.302678
0.302678
0.302678
0.302678
0.302678
0.302678
0.302678
0.302677
0.302661
0.301917
0.275886
0.0640098
0.0645292
0.276594
0.301959
0.302663
0.302677
0.302678
0.302678
0.302678
0.302678
0.302678
0.302678
0.302678
0.302678
0.302678
0.302678
0.302678
0.302678
0.302678
0.302678
0.302678
0.302677
0.302662
0.301931
0.276104
0.0644421
0.0648846
0.277125
0.301989
0.302664
0.302677
0.302678
0.302678
0.302678
0.302678
0.302678
0.302678
0.302678
0.302678
0.302678
0.302678
0.302678
0.302678
0.302678
0.302678
0.302678
0.302677
0.302664
0.301989
0.277103
0.0649109
0.0651956
0.277228
0.301997
0.302664
0.302677
0.302678
0.302678
0.302678
0.302678
0.302678
0.302678
0.302678
0.302678
0.302678
0.302678
0.302678
0.302678
0.302678
0.302678
0.302678
0.302677
0.302665
0.302021
0.277673
0.0652351
0.0655482
0.278132
0.302048
0.302666
0.302677
0.302678
0.302678
0.302678
0.302678
0.302678
0.302678
0.302678
0.302678
0.302678
0.302678
0.302678
0.302678
0.302678
0.302678
0.302678
0.302677
0.302665
0.302029
0.277796
0.0655009
0.0657568
0.278487
0.302067
0.302667
0.302677
0.302678
0.302678
0.302678
0.302678
0.302678
0.302678
0.302678
0.302678
0.302678
0.302678
0.302678
0.302678
0.302678
0.302678
0.302678
0.302677
0.302667
0.30206
0.278366
0.0657528
0.0659448
0.278742
0.302075
0.302667
0.302677
0.302678
0.302678
0.302678
0.302678
0.302678
0.302678
0.302678
0.302678
0.302678
0.302678
0.302678
0.302678
0.302678
0.302678
0.302678
0.302677
0.302667
0.302083
0.278901
0.0659582
0.13757
0.297903
0.302778
0.302804
0.302801
0.302799
0.302796
0.302794
0.302792
0.30279
0.302789
0.302787
0.302785
0.302783
0.302781
0.30278
0.302778
0.302777
0.302775
0.302773
0.302772
0.302771
0.302769
0.302768
0.302766
0.302765
0.302764
0.302755
0.301051
0.155062
0.130022
0.299643
0.302684
0.302683
0.302682
0.302682
0.302682
0.302682
0.302682
0.302681
0.302681
0.302681
0.302681
0.302681
0.302681
0.302681
0.302681
0.302681
0.30268
0.30268
0.30268
0.30268
0.30268
0.30268
0.30268
0.30268
0.30268
0.302671
0.300781
0.153356
0.136086
0.300465
0.30268
0.302678
0.302678
0.302678
0.302678
0.302678
0.302678
0.302678
0.302678
0.302678
0.302678
0.302678
0.302678
0.302678
0.302678
0.302678
0.302678
0.302678
0.302678
0.302678
0.302678
0.302678
0.302678
0.302678
0.302678
0.302669
0.300718
0.151872
0.139423
0.300412
0.302676
0.302678
0.302678
0.302678
0.302678
0.302678
0.302678
0.302678
0.302678
0.302678
0.302678
0.302678
0.302678
0.302678
0.302678
0.302678
0.302678
0.302678
0.302678
0.302678
0.302678
0.302678
0.302678
0.302678
0.302678
0.302668
0.300671
0.150616
0.139174
0.30026
0.302675
0.302678
0.302678
0.302678
0.302678
0.302678
0.302678
0.302678
0.302678
0.302678
0.302678
0.302678
0.302678
0.302678
0.302678
0.302678
0.302678
0.302678
0.302678
0.302678
0.302678
0.302678
0.302678
0.302678
0.302678
0.302668
0.300621
0.149474
0.138832
0.300235
0.302674
0.302678
0.302678
0.302678
0.302678
0.302678
0.302678
0.302678
0.302678
0.302678
0.302678
0.302678
0.302678
0.302678
0.302678
0.302678
0.302678
0.302678
0.302678
0.302678
0.302678
0.302678
0.302678
0.302678
0.302678
0.302668
0.30057
0.148383
0.138812
0.300247
0.302674
0.302678
0.302678
0.302678
0.302678
0.302678
0.302678
0.302678
0.302678
0.302678
0.302678
0.302678
0.302678
0.302678
0.302678
0.302678
0.302678
0.302678
0.302678
0.302678
0.302678
0.302678
0.302678
0.302678
0.302678
0.302667
0.30052
0.14735
0.139153
0.300269
0.302673
0.302678
0.302678
0.302678
0.302678
0.302678
0.302678
0.302678
0.302678
0.302678
0.302678
0.302678
0.302678
0.302678
0.302678
0.302678
0.302678
0.302678
0.302678
0.302678
0.302678
0.302678
0.302678
0.302678
0.302678
0.302667
0.300475
0.146394
0.139497
0.300272
0.302672
0.302678
0.302678
0.302678
0.302678
0.302678
0.302678
0.302678
0.302678
0.302678
0.302678
0.302678
0.302678
0.302678
0.302678
0.302678
0.302678
0.302678
0.302678
0.302678
0.302678
0.302678
0.302678
0.302678
0.302678
0.302667
0.300433
0.145525
0.139701
0.300262
0.302672
0.302678
0.302678
0.302678
0.302678
0.302678
0.302678
0.302678
0.302678
0.302678
0.302678
0.302678
0.302678
0.302678
0.302678
0.302678
0.302678
0.302678
0.302678
0.302678
0.302678
0.302678
0.302678
0.302678
0.302678
0.302666
0.300395
0.14474
0.139747
0.300245
0.302671
0.302678
0.302678
0.302678
0.302678
0.302678
0.302678
0.302678
0.302678
0.302678
0.302678
0.302678
0.302678
0.302678
0.302678
0.302678
0.302678
0.302678
0.302678
0.302678
0.302678
0.302678
0.302678
0.302678
0.302678
0.302666
0.300359
0.144028
0.139695
0.300229
0.30267
0.302678
0.302678
0.302678
0.302678
0.302678
0.302678
0.302678
0.302678
0.302678
0.302678
0.302678
0.302678
0.302678
0.302678
0.302678
0.302678
0.302678
0.302678
0.302678
0.302678
0.302678
0.302678
0.302678
0.302678
0.302666
0.300326
0.14338
0.139621
0.300213
0.30267
0.302678
0.302678
0.302678
0.302678
0.302678
0.302678
0.302678
0.302678
0.302678
0.302678
0.302678
0.302678
0.302678
0.302678
0.302678
0.302678
0.302678
0.302678
0.302678
0.302678
0.302678
0.302678
0.302678
0.302678
0.302666
0.300295
0.142788
0.139505
0.300201
0.302669
0.302678
0.302678
0.302678
0.302678
0.302678
0.302678
0.302678
0.302678
0.302678
0.302678
0.302678
0.302678
0.302678
0.302678
0.302678
0.302678
0.302678
0.302678
0.302678
0.302678
0.302678
0.302678
0.302678
0.302678
0.302665
0.300267
0.14225
0.139477
0.300192
0.302669
0.302678
0.302678
0.302678
0.302678
0.302678
0.302678
0.302678
0.302678
0.302678
0.302678
0.302678
0.302678
0.302678
0.302678
0.302678
0.302678
0.302678
0.302678
0.302678
0.302678
0.302678
0.302678
0.302678
0.302678
0.302665
0.300241
0.141764
0.139372
0.300177
0.302668
0.302678
0.302678
0.302678
0.302678
0.302678
0.302678
0.302678
0.302678
0.302678
0.302678
0.302678
0.302678
0.302678
0.302678
0.302678
0.302678
0.302678
0.302678
0.302678
0.302678
0.302678
0.302678
0.302678
0.302678
0.302665
0.300218
0.141328
0.139305
0.30017
0.302668
0.302678
0.302678
0.302678
0.302678
0.302678
0.302678
0.302678
0.302678
0.302678
0.302678
0.302678
0.302678
0.302678
0.302678
0.302678
0.302678
0.302678
0.302678
0.302678
0.302678
0.302678
0.302678
0.302678
0.302678
0.302665
0.300197
0.140939
0.13927
0.300161
0.302667
0.302678
0.302678
0.302678
0.302678
0.302678
0.302678
0.302678
0.302678
0.302678
0.302678
0.302678
0.302678
0.302678
0.302678
0.302678
0.302678
0.302678
0.302678
0.302678
0.302678
0.302678
0.302678
0.302678
0.302678
0.302665
0.300179
0.140597
0.139204
0.300152
0.302667
0.302678
0.302678
0.302678
0.302678
0.302678
0.302678
0.302678
0.302678
0.302678
0.302678
0.302678
0.302678
0.302678
0.302678
0.302678
0.302678
0.302678
0.302678
0.302678
0.302678
0.302678
0.302678
0.302678
0.302678
0.302664
0.300163
0.140297
0.139183
0.300147
0.302666
0.302678
0.302678
0.302678
0.302678
0.302678
0.302678
0.302678
0.302678
0.302678
0.302678
0.302678
0.302678
0.302678
0.302678
0.302678
0.302678
0.302678
0.302678
0.302678
0.302678
0.302678
0.302678
0.302678
0.302678
0.302664
0.300149
0.140039
0.13917
0.30014
0.302666
0.302678
0.302678
0.302678
0.302678
0.302678
0.302678
0.302678
0.302678
0.302678
0.302678
0.302678
0.302678
0.302678
0.302678
0.302678
0.302678
0.302678
0.302678
0.302678
0.302678
0.302678
0.302678
0.302678
0.302678
0.302664
0.300138
0.13982
0.139152
0.300136
0.302666
0.302678
0.302678
0.302678
0.302678
0.302678
0.302678
0.302678
0.302678
0.302678
0.302678
0.302678
0.302678
0.302678
0.302678
0.302678
0.302678
0.302678
0.302678
0.302678
0.302678
0.302678
0.302678
0.302678
0.302678
0.302664
0.300129
0.139638
0.13918
0.300134
0.302665
0.302678
0.302678
0.302678
0.302678
0.302678
0.302678
0.302678
0.302678
0.302678
0.302678
0.302678
0.302678
0.302678
0.302678
0.302678
0.302678
0.302678
0.302678
0.302678
0.302678
0.302678
0.302678
0.302678
0.302678
0.302664
0.300122
0.139492
0.139203
0.300131
0.302665
0.302678
0.302678
0.302678
0.302678
0.302678
0.302678
0.302678
0.302678
0.302678
0.302678
0.302678
0.302678
0.302678
0.302678
0.302678
0.302678
0.302678
0.302678
0.302678
0.302678
0.302678
0.302678
0.302678
0.302678
0.302664
0.300116
0.139379
0.139224
0.300347
0.302666
0.302678
0.302678
0.302678
0.302678
0.302678
0.302678
0.302678
0.302678
0.302678
0.302678
0.302678
0.302678
0.302678
0.302678
0.302678
0.302678
0.302678
0.302678
0.302678
0.302678
0.302678
0.302678
0.302678
0.302678
0.302664
0.300114
0.139296
0.155062
0.301051
0.302755
0.302764
0.302765
0.302766
0.302768
0.302769
0.302771
0.302772
0.302773
0.302775
0.302777
0.302778
0.30278
0.302781
0.302783
0.302785
0.302787
0.302789
0.302791
0.302792
0.302794
0.302797
0.302799
0.302801
0.302804
0.302778
0.297898
0.137533
0.153355
0.300781
0.302671
0.30268
0.30268
0.30268
0.30268
0.30268
0.30268
0.30268
0.30268
0.30268
0.302681
0.302681
0.302681
0.302681
0.302681
0.302681
0.302681
0.302681
0.302681
0.302682
0.302682
0.302682
0.302682
0.302682
0.302683
0.302684
0.299644
0.13004
0.15187
0.300718
0.302669
0.302678
0.302678
0.302678
0.302678
0.302678
0.302678
0.302678
0.302678
0.302678
0.302678
0.302678
0.302678
0.302678
0.302678
0.302678
0.302678
0.302678
0.302678
0.302678
0.302678
0.302678
0.302678
0.302678
0.302678
0.30268
0.300465
0.136055
0.150615
0.300671
0.302668
0.302678
0.302678
0.302678
0.302678
0.302678
0.302678
0.302678
0.302678
0.302678
0.302678
0.302678
0.302678
0.302678
0.302678
0.302678
0.302678
0.302678
0.302678
0.302678
0.302678
0.302678
0.302678
0.302678
0.302678
0.302676
0.300416
0.139468
0.149474
0.300622
0.302668
0.302678
0.302678
0.302678
0.302678
0.302678
0.302678
0.302678
0.302678
0.302678
0.302678
0.302678
0.302678
0.302678
0.302678
0.302678
0.302678
0.302678
0.302678
0.302678
0.302678
0.302678
0.302678
0.302678
0.302678
0.302675
0.300257
0.139192
0.148382
0.30057
0.302668
0.302678
0.302678
0.302678
0.302678
0.302678
0.302678
0.302678
0.302678
0.302678
0.302678
0.302678
0.302678
0.302678
0.302678
0.302678
0.302678
0.302678
0.302678
0.302678
0.302678
0.302678
0.302678
0.302678
0.302678
0.302674
0.300234
0.138768
0.14735
0.300521
0.302667
0.302678
0.302678
0.302678
0.302678
0.302678
0.302678
0.302678
0.302678
0.302678
0.302678
0.302678
0.302678
0.302678
0.302678
0.302678
0.302678
0.302678
0.302678
0.302678
0.302678
0.302678
0.302678
0.302678
0.302678
0.302674
0.300252
0.138896
0.146395
0.300475
0.302667
0.302678
0.302678
0.302678
0.302678
0.302678
0.302678
0.302678
0.302678
0.302678
0.302678
0.302678
0.302678
0.302678
0.302678
0.302678
0.302678
0.302678
0.302678
0.302678
0.302678
0.302678
0.302678
0.302678
0.302678
0.302673
0.300264
0.139107
0.145525
0.300433
0.302667
0.302678
0.302678
0.302678
0.302678
0.302678
0.302678
0.302678
0.302678
0.302678
0.302678
0.302678
0.302678
0.302678
0.302678
0.302678
0.302678
0.302678
0.302678
0.302678
0.302678
0.302678
0.302678
0.302678
0.302678
0.302672
0.300275
0.139503
0.144741
0.300395
0.302666
0.302678
0.302678
0.302678
0.302678
0.302678
0.302678
0.302678
0.302678
0.302678
0.302678
0.302678
0.302678
0.302678
0.302678
0.302678
0.302678
0.302678
0.302678
0.302678
0.302678
0.302678
0.302678
0.302678
0.302678
0.302672
0.300261
0.139721
0.144028
0.300359
0.302666
0.302678
0.302678
0.302678
0.302678
0.302678
0.302678
0.302678
0.302678
0.302678
0.302678
0.302678
0.302678
0.302678
0.302678
0.302678
0.302678
0.302678
0.302678
0.302678
0.302678
0.302678
0.302678
0.302678
0.302678
0.302671
0.300244
0.139702
0.143379
0.300326
0.302666
0.302678
0.302678
0.302678
0.302678
0.302678
0.302678
0.302678
0.302678
0.302678
0.302678
0.302678
0.302678
0.302678
0.302678
0.302678
0.302678
0.302678
0.302678
0.302678
0.302678
0.302678
0.302678
0.302678
0.302678
0.30267
0.300232
0.139731
0.142789
0.300295
0.302666
0.302678
0.302678
0.302678
0.302678
0.302678
0.302678
0.302678
0.302678
0.302678
0.302678
0.302678
0.302678
0.302678
0.302678
0.302678
0.302678
0.302678
0.302678
0.302678
0.302678
0.302678
0.302678
0.302678
0.302678
0.30267
0.300211
0.139615
0.14225
0.300267
0.302665
0.302678
0.302678
0.302678
0.302678
0.302678
0.302678
0.302678
0.302678
0.302678
0.302678
0.302678
0.302678
0.302678
0.302678
0.302678
0.302678
0.302678
0.302678
0.302678
0.302678
0.302678
0.302678
0.302678
0.302678
0.302669
0.300201
0.1395
0.141764
0.300241
0.302665
0.302678
0.302678
0.302678
0.302678
0.302678
0.302678
0.302678
0.302678
0.302678
0.302678
0.302678
0.302678
0.302678
0.302678
0.302678
0.302678
0.302678
0.302678
0.302678
0.302678
0.302678
0.302678
0.302678
0.302678
0.302669
0.300193
0.139473
0.141329
0.300218
0.302665
0.302678
0.302678
0.302678
0.302678
0.302678
0.302678
0.302678
0.302678
0.302678
0.302678
0.302678
0.302678
0.302678
0.302678
0.302678
0.302678
0.302678
0.302678
0.302678
0.302678
0.302678
0.302678
0.302678
0.302678
0.302668
0.300178
0.139384
0.140939
0.300197
0.302665
0.302678
0.302678
0.302678
0.302678
0.302678
0.302678
0.302678
0.302678
0.302678
0.302678
0.302678
0.302678
0.302678
0.302678
0.302678
0.302678
0.302678
0.302678
0.302678
0.302678
0.302678
0.302678
0.302678
0.302678
0.302668
0.300169
0.139295
0.140596
0.300179
0.302665
0.302678
0.302678
0.302678
0.302678
0.302678
0.302678
0.302678
0.302678
0.302678
0.302678
0.302678
0.302678
0.302678
0.302678
0.302678
0.302678
0.302678
0.302678
0.302678
0.302678
0.302678
0.302678
0.302678
0.302678
0.302667
0.300162
0.139268
0.140298
0.300163
0.302664
0.302678
0.302678
0.302678
0.302678
0.302678
0.302678
0.302678
0.302678
0.302678
0.302678
0.302678
0.302678
0.302678
0.302678
0.302678
0.302678
0.302678
0.302678
0.302678
0.302678
0.302678
0.302678
0.302678
0.302678
0.302667
0.300152
0.139219
0.140039
0.300149
0.302664
0.302678
0.302678
0.302678
0.302678
0.302678
0.302678
0.302678
0.302678
0.302678
0.302678
0.302678
0.302678
0.302678
0.302678
0.302678
0.302678
0.302678
0.302678
0.302678
0.302678
0.302678
0.302678
0.302678
0.302678
0.302666
0.300145
0.139171
0.13982
0.300138
0.302664
0.302678
0.302678
0.302678
0.302678
0.302678
0.302678
0.302678
0.302678
0.302678
0.302678
0.302678
0.302678
0.302678
0.302678
0.302678
0.302678
0.302678
0.302678
0.302678
0.302678
0.302678
0.302678
0.302678
0.302678
0.302666
0.300142
0.139168
0.139639
0.300129
0.302664
0.302678
0.302678
0.302678
0.302678
0.302678
0.302678
0.302678
0.302678
0.302678
0.302678
0.302678
0.302678
0.302678
0.302678
0.302678
0.302678
0.302678
0.302678
0.302678
0.302678
0.302678
0.302678
0.302678
0.302678
0.302666
0.300136
0.139167
0.139492
0.300122
0.302664
0.302678
0.302678
0.302678
0.302678
0.302678
0.302678
0.302678
0.302678
0.302678
0.302678
0.302678
0.302678
0.302678
0.302678
0.302678
0.302678
0.302678
0.302678
0.302678
0.302678
0.302678
0.302678
0.302678
0.302678
0.302665
0.300133
0.139168
0.139378
0.300116
0.302664
0.302678
0.302678
0.302678
0.302678
0.302678
0.302678
0.302678
0.302678
0.302678
0.302678
0.302678
0.302678
0.302678
0.302678
0.302678
0.302678
0.302678
0.302678
0.302678
0.302678
0.302678
0.302678
0.302678
0.302678
0.302665
0.300133
0.139204
0.139296
0.300114
0.302664
0.302678
0.302678
0.302678
0.302678
0.302678
0.302678
0.302678
0.302678
0.302678
0.302678
0.302678
0.302678
0.302678
0.302678
0.302678
0.302678
0.302678
0.302678
0.302678
0.302678
0.302678
0.302678
0.302678
0.302678
0.302666
0.300346
0.139225
0.113211
0.113421
0.113631
0.113841
0.114051
0.114262
0.114472
0.114682
0.114892
0.115102
0.115313
0.115523
0.115733
0.115943
0.116153
0.116364
0.116574
0.116784
0.116994
0.117205
0.117415
0.117625
0.117835
0.118045
0.118256
0.118466
0.118676
0.118886
0.119097
0.119307
0.119517
0.119727
0.119937
0.120148
0.120358
0.120568
0.120778
0.120989
0.121199
0.121409
0.121619
0.121829
0.12204
0.12225
0.12246
0.12267
0.122881
0.123091
0.123301
0.123511
0.123722
0.123932
0.124142
0.124352
0.124562
0.124773
0.124983
0.125193
0.125403
0.125614
0.125824
0.126034
0.126244
0.126455
0.126665
0.126875
0.127085
0.127296
0.127506
0.127716
0.127926
0.128137
0.128347
0.128557
0.128767
0.128978
0.129188
0.129398
0.129608
0.129819
0.130029
0.130239
0.130449
0.13066
0.13087
0.13108
0.13129
0.131501
0.131711
0.131921
0.132131
0.132342
0.132552
0.132762
0.132973
0.133183
0.133393
0.133603
0.133814
0.134024
0.134234
0.134444
0.134655
0.134865
0.135075
0.135285
0.135496
0.135706
0.135916
0.136127
0.136337
0.136547
0.136757
0.136968
0.137178
0.137388
0.137598
0.137809
0.138019
0.138229
0.13844
0.13865
0.13886
0.13907
0.139281
0.297609
0.29765
0.297679
0.297707
0.297736
0.297764
0.297793
0.297821
0.297849
0.297876
0.297904
0.297931
0.297958
0.297985
0.298011
0.298038
0.298064
0.29809
0.298116
0.298142
0.298168
0.298193
0.298219
0.298244
0.298269
0.298293
0.298318
0.298342
0.298367
0.298391
0.298415
0.298439
0.298462
0.298486
0.298509
0.298532
0.298555
0.298578
0.298601
0.298623
0.298646
0.298668
0.29869
0.298712
0.298734
0.298756
0.298777
0.298799
0.29882
0.298841
0.298862
0.298883
0.298903
0.298924
0.298945
0.298965
0.298985
0.299005
0.299025
0.299045
0.299064
0.299084
0.299103
0.299123
0.299142
0.299161
0.29918
0.299199
0.299217
0.299236
0.299254
0.299273
0.299291
0.299309
0.299327
0.299345
0.299363
0.29938
0.299398
0.299415
0.299433
0.29945
0.299467
0.299484
0.299501
0.299518
0.299535
0.299551
0.299568
0.299584
0.2996
0.299617
0.299633
0.299649
0.299664
0.29968
0.299696
0.299712
0.299727
0.299743
0.299758
0.299773
0.299788
0.299803
0.299818
0.299833
0.299848
0.299862
0.299877
0.299892
0.299906
0.29992
0.299935
0.299949
0.299963
0.299977
0.299991
0.300005
0.300018
0.300032
0.300046
0.300059
0.300072
0.300086
0.300102
0.302636
0.302637
0.302637
0.302638
0.302638
0.302639
0.302639
0.302639
0.30264
0.30264
0.30264
0.302641
0.302641
0.302641
0.302642
0.302642
0.302642
0.302643
0.302643
0.302643
0.302644
0.302644
0.302644
0.302645
0.302645
0.302645
0.302646
0.302646
0.302646
0.302646
0.302647
0.302647
0.302647
0.302648
0.302648
0.302648
0.302648
0.302649
0.302649
0.302649
0.302649
0.30265
0.30265
0.30265
0.30265
0.302651
0.302651
0.302651
0.302651
0.302652
0.302652
0.302652
0.302652
0.302652
0.302653
0.302653
0.302653
0.302653
0.302654
0.302654
0.302654
0.302654
0.302654
0.302655
0.302655
0.302655
0.302655
0.302655
0.302656
0.302656
0.302656
0.302656
0.302656
0.302657
0.302657
0.302657
0.302657
0.302657
0.302657
0.302658
0.302658
0.302658
0.302658
0.302658
0.302658
0.302659
0.302659
0.302659
0.302659
0.302659
0.302659
0.30266
0.30266
0.30266
0.30266
0.30266
0.30266
0.30266
0.302661
0.302661
0.302661
0.302661
0.302661
0.302661
0.302661
0.302662
0.302662
0.302662
0.302662
0.302662
0.302662
0.302662
0.302663
0.302663
0.302663
0.302663
0.302663
0.302663
0.302663
0.302663
0.302663
0.302664
0.302664
0.302664
0.302664
0.302677
0.302677
0.302677
0.302677
0.302677
0.302677
0.302677
0.302677
0.302677
0.302677
0.302677
0.302677
0.302677
0.302677
0.302677
0.302677
0.302677
0.302677
0.302677
0.302677
0.302677
0.302677
0.302677
0.302677
0.302677
0.302677
0.302677
0.302677
0.302677
0.302677
0.302677
0.302677
0.302677
0.302677
0.302677
0.302677
0.302677
0.302678
0.302678
0.302678
0.302678
0.302678
0.302678
0.302678
0.302678
0.302678
0.302678
0.302678
0.302678
0.302678
0.302678
0.302678
0.302678
0.302678
0.302678
0.302678
0.302678
0.302678
0.302678
0.302678
0.302678
0.302678
0.302678
0.302678
0.302678
0.302678
0.302678
0.302678
0.302678
0.302678
0.302678
0.302678
0.302678
0.302678
0.302678
0.302678
0.302678
0.302678
0.302678
0.302678
0.302678
0.302678
0.302678
0.302678
0.302678
0.302678
0.302678
0.302678
0.302678
0.302678
0.302678
0.302678
0.302678
0.302678
0.302678
0.302678
0.302678
0.302678
0.302678
0.302678
0.302678
0.302678
0.302678
0.302678
0.302678
0.302678
0.302678
0.302678
0.302678
0.302678
0.302678
0.302678
0.302678
0.302678
0.302678
0.302678
0.302678
0.302678
0.302678
0.302678
0.302678
0.302678
0.302678
0.302678
0.302678
0.302678
0.302678
0.302678
0.302678
0.302678
0.302678
0.302678
0.302678
0.302678
0.302678
0.302678