/*--------------------------------*- C++ -*----------------------------------*\
| =========                 |                                                 |
| \\      /  F ield         | OpenFOAM: The Open Source CFD Toolbox           |
|  \\    /   O peration     | Version:  2112                                  |
|   \\  /    A nd           | Website:  www.openfoam.com                      |
|    \\/     M anipulation  |                                                 |
\*---------------------------------------------------------------------------*/
FoamFile
{
    version     2.0;
    format      ascii;
    arch        "LSB;label=32;scalar=64";
    class       volScalarField;
    location    "8e-05";
    object      epsilon;
}
// * * * * * * * * * * * * * * * * * * * * * * * * * * * * * * * * * * * * * //

dimensions      [0 2 -3 0 0 0 0];

internalField   nonuniform List<scalar> 
13875
(
2.40385e+08
1.95887e+09
2.81739e+09
3.46393e+09
3.8638e+09
4.10427e+09
4.23367e+09
4.29906e+09
4.32898e+09
4.34147e+09
4.34624e+09
4.3479e+09
4.3483e+09
4.34788e+09
4.34636e+09
4.34194e+09
4.32959e+09
4.29963e+09
4.23431e+09
4.1051e+09
3.86484e+09
3.46546e+09
2.81924e+09
1.96119e+09
2.43981e+08
1.12561e+09
2.3713e+09
3.18522e+09
3.83898e+09
4.25394e+09
4.50098e+09
4.6317e+09
4.69528e+09
4.72372e+09
4.73535e+09
4.73969e+09
4.74116e+09
4.74149e+09
4.74112e+09
4.73975e+09
4.73566e+09
4.72421e+09
4.69588e+09
4.63246e+09
4.50203e+09
4.25541e+09
3.84114e+09
3.18805e+09
2.37577e+09
1.14257e+09
2.04701e+09
2.6637e+09
3.40955e+09
4.00387e+09
4.38691e+09
4.61051e+09
4.72938e+09
4.78667e+09
4.81194e+09
4.82213e+09
4.82587e+09
4.82709e+09
4.82735e+09
4.82703e+09
4.82583e+09
4.82223e+09
4.81219e+09
4.78701e+09
4.72975e+09
4.61079e+09
4.38693e+09
4.00351e+09
3.40819e+09
2.65887e+09
2.02595e+09
2.33106e+09
2.54939e+09
3.10703e+09
3.57089e+09
3.87222e+09
4.04745e+09
4.1393e+09
4.18297e+09
4.20193e+09
4.20949e+09
4.21222e+09
4.21309e+09
4.21324e+09
4.21299e+09
4.21211e+09
4.20947e+09
4.202e+09
4.18309e+09
4.1394e+09
4.04738e+09
3.8717e+09
3.56977e+09
3.10389e+09
2.54047e+09
2.29156e+09
1.79533e+09
1.97602e+09
2.40192e+09
2.7705e+09
3.00421e+09
3.13704e+09
3.20464e+09
3.23627e+09
3.24977e+09
3.25499e+09
3.2568e+09
3.25735e+09
3.25743e+09
3.25725e+09
3.25667e+09
3.25492e+09
3.24978e+09
3.23632e+09
3.20475e+09
3.13716e+09
3.00433e+09
2.77076e+09
2.40216e+09
1.97274e+09
1.78174e+09
1.1231e+09
1.43066e+09
1.74781e+09
2.00857e+09
2.16749e+09
2.2548e+09
2.29785e+09
2.31716e+09
2.32509e+09
2.32807e+09
2.32907e+09
2.32935e+09
2.32938e+09
2.32928e+09
2.32894e+09
2.32794e+09
2.32499e+09
2.31711e+09
2.29788e+09
2.25497e+09
2.16809e+09
2.00966e+09
1.74887e+09
1.43046e+09
1.11728e+09
5.65208e+08
9.21557e+08
1.16076e+09
1.33288e+09
1.43264e+09
1.48576e+09
1.51083e+09
1.52157e+09
1.52579e+09
1.52732e+09
1.52782e+09
1.52796e+09
1.52797e+09
1.52791e+09
1.52774e+09
1.52722e+09
1.52568e+09
1.52142e+09
1.51059e+09
1.48527e+09
1.43183e+09
1.33137e+09
1.1587e+09
9.16737e+08
5.63367e+08
2.02127e+08
5.1924e+08
6.72252e+08
7.71185e+08
8.25433e+08
8.52439e+08
8.64597e+08
8.69614e+08
8.71525e+08
8.72202e+08
8.7242e+08
8.72478e+08
8.72478e+08
8.72446e+08
8.72362e+08
8.72122e+08
8.71424e+08
8.6949e+08
8.64435e+08
8.52174e+08
8.25e+08
7.70688e+08
6.7101e+08
5.16835e+08
1.98792e+08
2.45484e+07
1.34842e+08
1.77675e+08
2.0233e+08
2.15615e+08
2.22026e+08
2.24889e+08
2.26087e+08
2.26552e+08
2.2672e+08
2.26777e+08
2.26794e+08
2.26794e+08
2.26784e+08
2.2676e+08
2.26695e+08
2.26517e+08
2.26042e+08
2.24833e+08
2.21948e+08
2.155e+08
2.02316e+08
1.77321e+08
1.34161e+08
2.39961e+07
1.67225e+06
3.27438e+06
4.3626e+06
4.91587e+06
5.22364e+06
5.3734e+06
5.44255e+06
5.47276e+06
5.48472e+06
5.48888e+06
5.48989e+06
5.48978e+06
5.48917e+06
5.48816e+06
5.48662e+06
5.4838e+06
5.47781e+06
5.46399e+06
5.43192e+06
5.3609e+06
5.20907e+06
4.90725e+06
4.34082e+06
3.24699e+06
1.6601e+06
1.61207e+06
351887
275127
270627
271032
271393
271578
271666
271706
271726
271737
271745
271752
271758
271762
271763
271755
271726
271649
271476
271126
270784
275556
354704
1.62957e+06
1.74787e+06
360286
264438
256264
255590
255519
255510
255509
255508
255508
255508
255508
255508
255508
255508
255508
255508
255508
255509
255518
255587
256249
264343
359793
1.75065e+06
1.86263e+06
378045
266984
256513
255575
255470
255456
255454
255454
255454
255454
255454
255454
255454
255454
255454
255454
255454
255456
255469
255566
256448
266500
374983
1.85493e+06
1.95049e+06
392451
269123
256768
255608
255476
255457
255454
255453
255453
255453
255453
255453
255453
255453
255453
255453
255454
255456
255474
255598
256678
268345
387385
1.91364e+06
1.99437e+06
404475
270885
256989
255637
255481
255458
255454
255453
255453
255453
255453
255453
255453
255453
255453
255453
255454
255459
255487
255670
257203
272309
412216
2.02108e+06
2.11239e+06
427452
274660
257468
255694
255490
255459
255454
255453
255453
255453
255453
255453
255453
255453
255453
255453
255454
255460
255494
255716
257613
275627
432446
2.14257e+06
2.10675e+06
425305
273583
257229
255641
255479
255457
255454
255453
255453
255453
255453
255453
255453
255453
255453
255453
255454
255457
255478
255632
257163
273130
422741
2.10375e+06
2.08023e+06
418527
271776
256869
255563
255463
255454
255453
255453
255453
255453
255453
255453
255453
255453
255453
255453
255453
255454
255462
255559
256851
271738
418794
2.07347e+06
2.09835e+06
440990
275319
257067
255507
255443
255450
255453
255453
255453
255453
255453
255453
255453
255453
255453
255453
255453
255450
255444
255497
256899
273965
433879
2.07729e+06
2.10694e+06
459184
279374
257443
255476
255424
255446
255452
255453
255453
255453
255453
255453
255453
255453
255453
255453
255452
255446
255424
255480
257491
279768
461535
2.12409e+06
1.94879e+06
429336
273925
256729
255425
255427
255447
255452
255453
255453
255453
255453
255453
255453
255453
255453
255453
255452
255447
255424
255428
256882
275290
436441
1.97345e+06
1.81232e+06
399752
268734
256194
255423
255437
255450
255453
255453
255453
255453
255453
255453
255453
255453
255453
255453
255453
255450
255436
255420
256231
269147
401803
1.81464e+06
1.69574e+06
375981
265043
255890
255431
255445
255452
255453
255453
255453
255453
255453
255453
255453
255453
255453
255453
255453
255452
255445
255431
255861
264652
373059
1.68383e+06
1.59418e+06
354917
262226
255705
255439
255449
255452
255453
255453
255453
255453
255453
255453
255453
255453
255453
255453
255453
255453
255449
255440
255706
262245
355233
1.59776e+06
1.53474e+06
344084
260937
255634
255444
255451
255453
255453
255453
255453
255453
255453
255453
255453
255453
255453
255453
255453
255453
255450
255444
255638
261031
344893
1.5366e+06
1.47263e+06
334530
259937
255584
255446
255451
255453
255453
255453
255453
255453
255453
255453
255453
255453
255453
255453
255453
255453
255451
255446
255577
259787
333025
1.46685e+06
1.41232e+06
324471
258979
255543
255448
255452
255453
255453
255453
255453
255453
255453
255453
255453
255453
255453
255453
255453
255453
255452
255448
255549
259116
326045
1.42e+06
1.37042e+06
318489
258452
255523
255449
255452
255453
255453
255453
255453
255453
255453
255453
255453
255453
255453
255453
255453
255453
255452
255449
255524
258470
318603
1.36805e+06
1.32709e+06
313124
258024
255508
255450
255453
255453
255453
255453
255453
255453
255453
255453
255453
255453
255453
255453
255453
255453
255453
255450
255503
257868
311135
1.32008e+06
1.27931e+06
305617
257467
255492
255451
255453
255453
255453
255453
255453
255453
255453
255453
255453
255453
255453
255453
255453
255453
255453
255451
255495
257589
307375
1.28805e+06
1.25156e+06
301914
257209
255485
255452
255453
255453
255453
255453
255453
255453
255453
255453
255453
255453
255453
255453
255453
255453
255453
255451
255485
257205
301776
1.24827e+06
1.22455e+06
299259
257042
255480
255452
255453
255453
255453
255453
255453
255453
255453
255453
255453
255453
255453
255453
255453
255453
255453
255452
255479
256967
298080
1.22091e+06
1.1923e+06
294678
256766
255474
255452
255453
255453
255453
255453
255453
255453
255453
255453
255453
255453
255453
255453
255453
255453
255453
255452
255475
256821
295652
1.19674e+06
1.17305e+06
292373
256633
255471
255452
255453
255453
255453
255453
255453
255453
255453
255453
255453
255453
255453
255453
255453
255453
255453
255452
255471
256622
292120
1.17056e+06
1.15476e+06
290929
256557
255470
255452
255453
255453
255453
255453
255453
255453
255453
255453
255453
255453
255453
255453
255453
255453
255453
255453
255469
256512
290107
1.15277e+06
1.13194e+06
287855
256399
255467
255453
255453
255453
255453
255453
255453
255453
255453
255453
255453
255453
255453
255453
255453
255453
255453
255453
255467
256444
288765
1.13559e+06
1.11808e+06
286333
256323
255465
255453
255453
255453
255453
255453
255453
255453
255453
255453
255453
255453
255453
255453
255453
255453
255453
255453
255465
256318
286191
1.11634e+06
1.10504e+06
285463
256284
255465
255453
255453
255453
255453
255453
255453
255453
255453
255453
255453
255453
255453
255453
255453
255453
255453
255453
255464
256251
284788
1.10363e+06
1.08906e+06
283301
256186
255463
255453
255453
255453
255453
255453
255453
255453
255453
255453
255453
255453
255453
255453
255453
255453
255453
255453
255464
256220
284067
1.09172e+06
1.07923e+06
282268
256140
255462
255453
255453
255453
255453
255453
255453
255453
255453
255453
255453
255453
255453
255453
255453
255453
255453
255453
255462
256138
282178
1.07803e+06
1.07016e+06
281773
256120
255462
255453
255453
255453
255453
255453
255453
255453
255453
255453
255453
255453
255453
255453
255453
255453
255453
255453
255462
256095
281186
1.06914e+06
1.05924e+06
280209
256056
255461
255453
255453
255453
255453
255453
255453
255453
255453
255453
255453
255453
255453
255453
255453
255453
255453
255453
255462
256081
280819
1.06099e+06
1.05255e+06
279498
256028
255461
255453
255453
255453
255453
255453
255453
255453
255453
255453
255453
255453
255453
255453
255453
255453
255453
255453
255461
256028
279466
1.05184e+06
1.04652e+06
279251
256020
255461
255453
255453
255453
255453
255453
255453
255453
255453
255453
255453
255453
255453
255453
255453
255453
255453
255453
255460
256000
278756
1.04585e+06
1.03953e+06
278118
255977
255460
255453
255453
255453
255453
255453
255453
255453
255453
255453
255453
255453
255453
255453
255453
255453
255453
255453
255460
255994
278562
1.0405e+06
1.03534e+06
277634
255960
255460
255453
255453
255453
255453
255453
255453
255453
255453
255453
255453
255453
255453
255453
255453
255453
255453
255453
255460
255961
277660
1.03501e+06
1.03168e+06
277551
255957
255460
255453
255453
255453
255453
255453
255453
255453
255453
255453
255453
255453
255453
255453
255453
255453
255453
255453
255460
255943
277145
1.03131e+06
1.02777e+06
276741
255929
255460
255453
255453
255453
255453
255453
255453
255453
255453
255453
255453
255453
255453
255453
255453
255453
255453
255453
255460
255940
277039
1.02818e+06
1.02553e+06
276413
255918
255460
255453
255453
255453
255453
255453
255453
255453
255453
255453
255453
255453
255453
255453
255453
255453
255453
255453
255460
255922
276524
1.02542e+06
1.0245e+06
276111
255910
255459
255453
255453
255453
255453
255453
255453
255453
255453
255453
255453
255453
255453
255453
255453
255453
255453
255453
255459
255905
275965
1.02445e+06
547431
260338
255978
255914
255906
255899
255892
255885
255879
255872
255866
255860
255854
255848
255843
255837
255832
255827
255822
255817
255812
255807
255802
255798
255793
255789
255785
255786
257148
481976
575749
258309
255501
255463
255462
255462
255462
255462
255461
255461
255461
255461
255460
255460
255460
255460
255460
255459
255459
255459
255459
255459
255459
255459
255458
255458
255458
255465
256992
485558
551392
257519
255481
255454
255453
255453
255453
255453
255453
255453
255453
255453
255453
255453
255453
255453
255453
255453
255453
255453
255453
255453
255453
255453
255453
255453
255453
255460
257039
489912
537734
257516
255477
255454
255453
255453
255453
255453
255453
255453
255453
255453
255453
255453
255453
255453
255453
255453
255453
255453
255453
255453
255453
255453
255453
255453
255453
255460
257077
493678
538091
257634
255477
255454
255453
255453
255453
255453
255453
255453
255453
255453
255453
255453
255453
255453
255453
255453
255453
255453
255453
255453
255453
255453
255453
255453
255453
255461
257118
497152
538967
257643
255476
255453
255453
255453
255453
255453
255453
255453
255453
255453
255453
255453
255453
255453
255453
255453
255453
255453
255453
255453
255453
255453
255453
255453
255453
255461
257160
500518
538611
257615
255475
255453
255453
255453
255453
255453
255453
255453
255453
255453
255453
255453
255453
255453
255453
255453
255453
255453
255453
255453
255453
255453
255453
255453
255453
255461
257200
503747
536853
257577
255473
255453
255453
255453
255453
255453
255453
255453
255453
255453
255453
255453
255453
255453
255453
255453
255453
255453
255453
255453
255453
255453
255453
255453
255453
255462
257237
506771
535074
257555
255472
255453
255453
255453
255453
255453
255453
255453
255453
255453
255453
255453
255453
255453
255453
255453
255453
255453
255453
255453
255453
255453
255453
255453
255453
255462
257271
509552
533841
257547
255471
255453
255453
255453
255453
255453
255453
255453
255453
255453
255453
255453
255453
255453
255453
255453
255453
255453
255453
255453
255453
255453
255453
255453
255453
255462
257303
512091
533238
257547
255470
255453
255453
255453
255453
255453
255453
255453
255453
255453
255453
255453
255453
255453
255453
255453
255453
255453
255453
255453
255453
255453
255453
255453
255453
255462
257332
514416
533037
257549
255470
255453
255453
255453
255453
255453
255453
255453
255453
255453
255453
255453
255453
255453
255453
255453
255453
255453
255453
255453
255453
255453
255453
255453
255453
255463
257359
516552
532941
257550
255469
255453
255453
255453
255453
255453
255453
255453
255453
255453
255453
255453
255453
255453
255453
255453
255453
255453
255453
255453
255453
255453
255453
255453
255453
255463
257384
518516
533019
257550
255469
255453
255453
255453
255453
255453
255453
255453
255453
255453
255453
255453
255453
255453
255453
255453
255453
255453
255453
255453
255453
255453
255453
255453
255453
255463
257407
520318
532772
257547
255468
255453
255453
255453
255453
255453
255453
255453
255453
255453
255453
255453
255453
255453
255453
255453
255453
255453
255453
255453
255453
255453
255453
255453
255453
255463
257428
521953
532839
257550
255468
255453
255453
255453
255453
255453
255453
255453
255453
255453
255453
255453
255453
255453
255453
255453
255453
255453
255453
255453
255453
255453
255453
255453
255453
255463
257447
523427
532772
257548
255467
255453
255453
255453
255453
255453
255453
255453
255453
255453
255453
255453
255453
255453
255453
255453
255453
255453
255453
255453
255453
255453
255453
255453
255453
255463
257464
524753
532596
257547
255467
255453
255453
255453
255453
255453
255453
255453
255453
255453
255453
255453
255453
255453
255453
255453
255453
255453
255453
255453
255453
255453
255453
255453
255453
255464
257479
525925
532565
257547
255466
255453
255453
255453
255453
255453
255453
255453
255453
255453
255453
255453
255453
255453
255453
255453
255453
255453
255453
255453
255453
255453
255453
255453
255453
255464
257492
526953
532372
257543
255466
255453
255453
255453
255453
255453
255453
255453
255453
255453
255453
255453
255453
255453
255453
255453
255453
255453
255453
255453
255453
255453
255453
255453
255453
255464
257503
527845
532165
257542
255466
255453
255453
255453
255453
255453
255453
255453
255453
255453
255453
255453
255453
255453
255453
255453
255453
255453
255453
255453
255453
255453
255453
255453
255453
255464
257512
528600
532004
257540
255465
255453
255453
255453
255453
255453
255453
255453
255453
255453
255453
255453
255453
255453
255453
255453
255453
255453
255453
255453
255453
255453
255453
255453
255453
255464
257520
529231
531675
257535
255465
255453
255453
255453
255453
255453
255453
255453
255453
255453
255453
255453
255453
255453
255453
255453
255453
255453
255453
255453
255453
255453
255453
255453
255453
255464
257525
529740
531379
257530
255465
255453
255453
255453
255453
255453
255453
255453
255453
255453
255453
255453
255453
255453
255453
255453
255453
255453
255453
255453
255453
255453
255453
255453
255453
255464
257530
530133
531157
257327
255462
255453
255453
255453
255453
255453
255453
255453
255453
255453
255453
255453
255453
255453
255453
255453
255453
255453
255453
255453
255453
255453
255453
255453
255453
255464
257532
530423
481978
257148
255786
255785
255789
255793
255798
255802
255807
255812
255817
255822
255827
255832
255837
255843
255849
255854
255860
255866
255872
255879
255885
255892
255899
255906
255914
255978
260342
547575
485561
256992
255465
255458
255458
255458
255459
255459
255459
255459
255459
255459
255459
255460
255460
255460
255460
255460
255461
255461
255461
255461
255462
255462
255462
255462
255463
255501
258308
575677
489918
257039
255460
255453
255453
255453
255453
255453
255453
255453
255453
255453
255453
255453
255453
255453
255453
255453
255453
255453
255453
255453
255453
255453
255453
255453
255454
255481
257519
551512
493680
257077
255460
255453
255453
255453
255453
255453
255453
255453
255453
255453
255453
255453
255453
255453
255453
255453
255453
255453
255453
255453
255453
255453
255453
255453
255454
255477
257512
537564
497150
257118
255461
255453
255453
255453
255453
255453
255453
255453
255453
255453
255453
255453
255453
255453
255453
255453
255453
255453
255453
255453
255453
255453
255453
255453
255454
255477
257636
538023
500521
257160
255461
255453
255453
255453
255453
255453
255453
255453
255453
255453
255453
255453
255453
255453
255453
255453
255453
255453
255453
255453
255453
255453
255453
255453
255453
255476
257644
539206
503745
257200
255461
255453
255453
255453
255453
255453
255453
255453
255453
255453
255453
255453
255453
255453
255453
255453
255453
255453
255453
255453
255453
255453
255453
255453
255453
255475
257611
538293
506769
257237
255462
255453
255453
255453
255453
255453
255453
255453
255453
255453
255453
255453
255453
255453
255453
255453
255453
255453
255453
255453
255453
255453
255453
255453
255453
255474
257582
537026
509552
257271
255462
255453
255453
255453
255453
255453
255453
255453
255453
255453
255453
255453
255453
255453
255453
255453
255453
255453
255453
255453
255453
255453
255453
255453
255453
255472
257553
535051
512089
257302
255462
255453
255453
255453
255453
255453
255453
255453
255453
255453
255453
255453
255453
255453
255453
255453
255453
255453
255453
255453
255453
255453
255453
255453
255453
255471
257548
533768
514418
257332
255462
255453
255453
255453
255453
255453
255453
255453
255453
255453
255453
255453
255453
255453
255453
255453
255453
255453
255453
255453
255453
255453
255453
255453
255453
255470
257549
533409
516554
257359
255463
255453
255453
255453
255453
255453
255453
255453
255453
255453
255453
255453
255453
255453
255453
255453
255453
255453
255453
255453
255453
255453
255453
255453
255453
255470
257546
532897
518513
257384
255463
255453
255453
255453
255453
255453
255453
255453
255453
255453
255453
255453
255453
255453
255453
255453
255453
255453
255453
255453
255453
255453
255453
255453
255453
255469
257552
532963
520317
257407
255463
255453
255453
255453
255453
255453
255453
255453
255453
255453
255453
255453
255453
255453
255453
255453
255453
255453
255453
255453
255453
255453
255453
255453
255453
255469
257550
533037
521953
257428
255463
255453
255453
255453
255453
255453
255453
255453
255453
255453
255453
255453
255453
255453
255453
255453
255453
255453
255453
255453
255453
255453
255453
255453
255453
255468
257547
532785
523426
257447
255463
255453
255453
255453
255453
255453
255453
255453
255453
255453
255453
255453
255453
255453
255453
255453
255453
255453
255453
255453
255453
255453
255453
255453
255453
255468
257550
532792
524753
257464
255463
255453
255453
255453
255453
255453
255453
255453
255453
255453
255453
255453
255453
255453
255453
255453
255453
255453
255453
255453
255453
255453
255453
255453
255453
255467
257549
532814
525927
257479
255464
255453
255453
255453
255453
255453
255453
255453
255453
255453
255453
255453
255453
255453
255453
255453
255453
255453
255453
255453
255453
255453
255453
255453
255453
255467
257546
532607
526952
257492
255464
255453
255453
255453
255453
255453
255453
255453
255453
255453
255453
255453
255453
255453
255453
255453
255453
255453
255453
255453
255453
255453
255453
255453
255453
255466
257547
532505
527844
257503
255464
255453
255453
255453
255453
255453
255453
255453
255453
255453
255453
255453
255453
255453
255453
255453
255453
255453
255453
255453
255453
255453
255453
255453
255453
255466
257545
532422
528602
257512
255464
255453
255453
255453
255453
255453
255453
255453
255453
255453
255453
255453
255453
255453
255453
255453
255453
255453
255453
255453
255453
255453
255453
255453
255453
255466
257541
532173
529229
257520
255464
255453
255453
255453
255453
255453
255453
255453
255453
255453
255453
255453
255453
255453
255453
255453
255453
255453
255453
255453
255453
255453
255453
255453
255453
255465
257540
531943
529739
257526
255464
255453
255453
255453
255453
255453
255453
255453
255453
255453
255453
255453
255453
255453
255453
255453
255453
255453
255453
255453
255453
255453
255453
255453
255453
255465
257536
531726
530135
257530
255464
255453
255453
255453
255453
255453
255453
255453
255453
255453
255453
255453
255453
255453
255453
255453
255453
255453
255453
255453
255453
255453
255453
255453
255453
255465
257529
531376
530424
257532
255464
255453
255453
255453
255453
255453
255453
255453
255453
255453
255453
255453
255453
255453
255453
255453
255453
255453
255453
255453
255453
255453
255453
255453
255453
255462
257327
531149
640255
639188
638125
637065
636009
634957
633908
632862
631820
630781
629746
628714
627686
626660
625639
624620
623605
622593
621584
620579
619577
618578
617582
616590
615600
614614
613631
612652
611675
610701
609731
608763
607799
606837
605879
604924
603972
603022
602076
601133
600192
599255
598320
597389
596460
595534
594611
593691
592774
591859
590947
590039
589132
588229
587329
586431
585536
584644
583754
582867
581983
581101
580222
579346
578473
577602
576733
575868
575004
574144
573286
572431
571578
570727
569879
569034
568191
567351
566513
565678
564845
564015
563187
562361
561538
560717
559899
559083
558269
557458
556649
555842
555038
554236
553436
552639
551844
551051
550261
549473
548687
547903
547122
546343
545566
544791
544018
543248
542479
541713
540949
540188
539428
538670
537915
537162
536411
535662
534915
534170
533427
532686
531947
531211
530475
259595
259561
259537
259513
259489
259466
259442
259419
259396
259373
259351
259328
259306
259283
259261
259239
259217
259196
259174
259153
259132
259111
259090
259069
259048
259028
259008
258987
258967
258947
258928
258908
258889
258869
258850
258831
258812
258793
258774
258756
258737
258719
258700
258682
258664
258646
258629
258611
258594
258576
258559
258542
258525
258508
258491
258474
258458
258441
258425
258408
258392
258376
258360
258344
258328
258313
258297
258282
258266
258251
258236
258221
258206
258191
258176
258162
258147
258132
258118
258104
258090
258075
258061
258047
258034
258020
258006
257992
257979
257965
257952
257939
257926
257913
257900
257887
257874
257861
257848
257836
257823
257811
257798
257786
257774
257761
257749
257737
257725
257714
257702
257690
257678
257667
257655
257644
257632
257621
257610
257599
257588
257577
257566
257555
257542
255486
255486
255485
255485
255485
255484
255484
255484
255483
255483
255483
255483
255482
255482
255482
255481
255481
255481
255481
255480
255480
255480
255480
255479
255479
255479
255479
255479
255478
255478
255478
255478
255477
255477
255477
255477
255476
255476
255476
255476
255476
255475
255475
255475
255475
255475
255474
255474
255474
255474
255474
255474
255473
255473
255473
255473
255473
255472
255472
255472
255472
255472
255472
255471
255471
255471
255471
255471
255471
255471
255470
255470
255470
255470
255470
255470
255470
255469
255469
255469
255469
255469
255469
255469
255468
255468
255468
255468
255468
255468
255468
255468
255467
255467
255467
255467
255467
255467
255467
255467
255466
255466
255466
255466
255466
255466
255466
255466
255466
255465
255465
255465
255465
255465
255465
255465
255465
255465
255465
255465
255464
255464
255464
255464
255464
255453
255453
255453
255453
255453
255453
255453
255453
255453
255453
255453
255453
255453
255453
255453
255453
255453
255453
255453
255453
255453
255453
255453
255453
255453
255453
255453
255453
255453
255453
255453
255453
255453
255453
255453
255453
255453
255453
255453
255453
255453
255453
255453
255453
255453
255453
255453
255453
255453
255453
255453
255453
255453
255453
255453
255453
255453
255453
255453
255453
255453
255453
255453
255453
255453
255453
255453
255453
255453
255453
255453
255453
255453
255453
255453
255453
255453
255453
255453
255453
255453
255453
255453
255453
255453
255453
255453
255453
255453
255453
255453
255453
255453
255453
255453
255453
255453
255453
255453
255453
255453
255453
255453
255453
255453
255453
255453
255453
255453
255453
255453
255453
255453
255453
255453
255453
255453
255453
255453
255453
255453
255453
255453
255453
255453
255453
255453
255453
255453
255453
255453
255453
255453
255453
255453
255453
255453
255453
255453
255453
255453
255453
255453
255453
255453
255453
255453
255453
255453
255453
255453
255453
255453
255453
255453
255453
255453
255453
255453
255453
255453
255453
255453
255453
255453
255453
255453
255453
255453
255453
255453
255453
255453
255453
255453
255453
255453
255453
255453
255453
255453
255453
255453
255453
255453
255453
255453
255453
255453
255453
255453
255453
255453
255453
255453
255453
255453
255453
255453
255453
255453
255453
255453
255453
255453
255453
255453
255453
255453
255453
255453
255453
255453
255453
255453
255453
255453
255453
255453
255453
255453
255453
255453
255453
255453
255453
255453
255453
255453
255453
255453
255453
255453
255453
255453
255453
255453
255453
255453
255453
255453
255453
255453
255453
255453
255453
255453
255453
255453
255453
255453
255453
255453
255453
255453
255453
255453
255453
255453
255453
255453
255453
255453
255453
255453
255453
255453
255453
255453
255453
255453
255453
255453
255453
255453
255453
255453
255453
255453
255453
255453
255453
255453
255453
255453
255453
255453
255453
255453
255453
255453
255453
255453
255453
255453
255453
255453
255453
255453
255453
255453
255453
255453
255453
255453
255453
255453
255453
255453
255453
255453
255453
255453
255453
255453
255453
255453
255453
255453
255453
255453
255453
255453
255453
255453
255453
255453
255453
255453
255453
255453
255453
255453
255453
255453
255453
255453
255453
255453
255453
255453
255453
255453
255453
255453
255453
255453
255453
255453
255453
255453
255453
255453
255453
255453
255453
255453
255453
255453
255453
255453
255453
255453
255453
255453
255453
255453
255453
255453
255453
255453
255453
255453
255453
255453
255453
255453
255453
255453
255453
255453
255453
255453
255453
255453
255453
255453
255453
255453
255453
255453
255453
255453
255453
255453
255453
255453
255453
255453
255453
255453
255453
255453
255453
255453
255453
255453
255453
255453
255453
255453
255453
255453
255453
255453
255453
255453
255453
255453
255453
255453
255453
255453
255453
255453
255453
255453
255453
255453
255453
255453
255453
255453
255453
255453
255453
255453
255453
255453
255453
255453
255453
255453
255453
255453
255453
255453
255453
255453
255453
255453
255453
255453
255453
255453
255453
255453
255453
255453
255453
255453
255453
255453
255453
255453
255453
255453
255453
255453
255453
255453
255453
255453
255453
255453
255453
255453
255453
255453
255453
255453
255453
255453
255453
255453
255453
255453
255453
255453
255453
255453
255453
255453
255453
255453
255453
255453
255453
255453
255453
255453
255453
255453
255453
255453
255453
255453
255453
255453
255453
255453
255453
255453
255453
255453
255453
255453
255453
255453
255453
255453
255453
255453
255453
255453
255453
255453
255453
255453
255453
255453
255453
255453
255453
255453
255453
255453
255453
255453
255453
255453
255453
255453
255453
255453
255453
255453
255453
255453
255453
255453
255453
255453
255453
255453
255453
255453
255453
255453
255453
255453
255453
255453
255453
255453
255453
255453
255453
255453
255453
255453
255453
255453
255453
255453
255453
255453
255453
255453
255453
255453
255453
255453
255453
255453
255453
255453
255453
255453
255453
255453
255453
255453
255453
255453
255453
255453
255453
255453
255453
255453
255453
255453
255453
255453
255453
255453
255453
255453
255453
255453
255453
255453
255453
255453
255453
255453
255453
255453
255453
255453
255453
255453
255453
255453
255453
255453
255453
255453
255453
255453
255453
255453
255453
255453
255453
255453
255453
255453
255453
255453
255453
255453
255453
255453
255453
255453
255453
255453
255453
255453
255453
255453
255453
255453
255453
255453
255453
255453
255453
255453
255453
255453
255453
255453
255453
255453
255453
255453
255453
255453
255453
255453
255453
255453
255453
255453
255453
255453
255453
255453
255453
255453
255453
255453
255453
255453
255453
255453
255453
255453
255453
255453
255453
255453
255453
255453
255453
255453
255453
255453
255453
255453
255453
255453
255453
255453
255453
255453
255453
255453
255453
255453
255453
255453
255453
255453
255453
255453
255453
255453
255453
255453
255453
255453
255453
255453
255453
255453
255453
255453
255453
255453
255453
255453
255453
255453
255453
255453
255453
255453
255453
255453
255453
255453
255453
255453
255453
255453
255453
255453
255453
255453
255453
255453
255453
255453
255453
255453
255453
255453
255453
255453
255453
255453
255453
255453
255453
255453
255453
255453
255453
255453
255453
255453
255453
255453
255453
255453
255453
255453
255453
255453
255453
255453
255453
255453
255453
255453
255453
255453
255453
255453
255453
255453
255453
255453
255453
255453
255453
255453