/*--------------------------------*- C++ -*----------------------------------*\
| =========                 |                                                 |
| \\      /  F ield         | OpenFOAM: The Open Source CFD Toolbox           |
|  \\    /   O peration     | Version:  2112                                  |
|   \\  /    A nd           | Website:  www.openfoam.com                      |
|    \\/     M anipulation  |                                                 |
\*---------------------------------------------------------------------------*/
FoamFile
{
    version     2.0;
    format      ascii;
    arch        "LSB;label=32;scalar=64";
    class       volScalarField;
    location    "8e-05";
    object      k;
}
// * * * * * * * * * * * * * * * * * * * * * * * * * * * * * * * * * * * * * //

dimensions      [0 2 -2 0 0 0 0];

internalField   nonuniform List<scalar> 
13875
(
26843.5
161483
227767
274584
303327
320464
329666
334297
336413
337298
337637
337757
337786
337757
337648
337331
336455
334338
329714
320527
303406
274699
227905
161649
27079.3
76758.8
244851
325694
383410
419366
440480
451639
457071
459500
460497
460873
461001
461030
461000
460880
460522
459540
457121
451707
440574
419498
383604
325948
245211
77528.5
116400
310199
400856
461364
499009
520673
532143
537675
540120
541111
541479
541601
541627
541598
541478
541120
540142
537706
532177
520699
499009
461324
400709
309720
115589
129562
330828
418450
474329
508304
527558
537562
542307
544369
545194
545495
545593
545611
545585
545487
545192
544376
542318
537570
527545
508239
474185
418078
329903
128111
109835
291209
373891
425412
455316
471687
479900
483713
485338
485968
486189
486257
486269
486248
486176
485960
485337
483717
479908
471694
455319
425428
373970
291214
109242
81792.7
233185
302279
343433
366146
378059
383816
386375
387423
387816
387950
387989
387994
387980
387935
387800
387408
386366
383816
378076
366222
343586
302519
233587
81497.6
52552.5
166214
218177
247421
262864
270693
274309
275843
276444
276663
276735
276755
276757
276749
276725
276649
276428
275820
274270
270612
262723
247142
217732
165177
52430.2
27495.1
98731.9
131037
148266
156965
161100
162922
163667
163951
164052
164085
164094
164094
164089
164077
164040
163935
163647
162895
161054
156889
148171
130791
98276.5
27206.9
7403.84
27195.8
36384.3
40809.6
43013.4
44029.6
44475.4
44661.4
44734
44760.7
44769.9
44772.8
44772.9
44771.3
44767.4
44756.7
44728.3
44653.8
44465.5
44015.8
42992.7
40806
36314.8
27067.3
7295.24
1027.81
1601.15
1859.01
1962.05
2015.42
2040.45
2051.94
2057
2059.02
2059.72
2059.88
2059.84
2059.72
2059.51
2059.21
2058.68
2057.6
2055.19
2049.75
2037.87
2012.4
1960.17
1854.43
1595.72
1023.87
878.653
979.255
984.996
984.039
983.749
983.735
983.758
983.774
983.782
983.787
983.789
983.791
983.793
983.795
983.796
983.796
983.795
983.789
983.776
983.757
983.779
984.101
985.096
979.198
877.436
867.801
975.513
981.583
979.996
979.359
979.215
979.191
979.188
979.188
979.188
979.188
979.188
979.188
979.188
979.188
979.188
979.188
979.188
979.191
979.214
979.354
979.981
981.551
975.442
867.568
857.871
974.211
981.937
980.196
979.399
979.2
979.164
979.158
979.158
979.158
979.158
979.158
979.158
979.158
979.158
979.158
979.158
979.158
979.163
979.197
979.381
980.132
981.797
974.178
858.288
849.254
972.68
981.963
980.318
979.452
979.213
979.166
979.158
979.157
979.157
979.157
979.157
979.157
979.157
979.157
979.157
979.157
979.158
979.165
979.21
979.434
980.263
981.893
973.023
852.402
843.937
971.229
981.776
980.362
979.487
979.225
979.169
979.159
979.157
979.157
979.157
979.157
979.157
979.157
979.157
979.157
979.157
979.159
979.172
979.24
979.546
980.528
982.026
971.047
841.862
831.368
968.472
981.262
980.392
979.541
979.244
979.173
979.16
979.157
979.157
979.157
979.157
979.157
979.157
979.157
979.157
979.157
979.16
979.175
979.253
979.575
980.489
981.45
968.352
829.043
828.289
966.694
980.006
979.915
979.407
979.215
979.168
979.159
979.157
979.157
979.157
979.157
979.157
979.157
979.157
979.157
979.157
979.159
979.167
979.211
979.396
979.89
980.018
966.84
828.554
825.556
965.131
978.149
979.244
979.213
979.171
979.16
979.157
979.157
979.157
979.157
979.157
979.157
979.157
979.157
979.157
979.157
979.157
979.159
979.169
979.202
979.188
977.926
964.751
825.151
814.091
959.409
975.055
978.157
978.919
979.107
979.147
979.155
979.157
979.157
979.157
979.157
979.157
979.157
979.157
979.157
979.157
979.155
979.149
979.113
978.945
978.253
975.347
960.301
816.634
806.878
954.177
972.803
977.233
978.642
979.042
979.135
979.153
979.156
979.157
979.157
979.157
979.157
979.157
979.157
979.157
979.156
979.153
979.135
979.041
978.638
977.216
972.769
954.05
805.455
819.392
956.097
973.137
977.377
978.705
979.063
979.14
979.154
979.156
979.157
979.157
979.157
979.157
979.157
979.157
979.157
979.156
979.154
979.138
979.051
978.659
977.233
972.798
955.107
816.692
832.251
959.621
974.389
977.899
978.872
979.104
979.148
979.156
979.157
979.157
979.157
979.157
979.157
979.157
979.157
979.157
979.157
979.155
979.147
979.098
978.848
977.819
974.187
959.151
831.675
844.283
962.928
975.566
978.322
978.99
979.129
979.153
979.156
979.157
979.157
979.157
979.157
979.157
979.157
979.157
979.157
979.157
979.156
979.153
979.13
978.996
978.35
975.666
963.3
845.494
854.933
965.995
976.559
978.635
979.066
979.143
979.155
979.157
979.157
979.157
979.157
979.157
979.157
979.157
979.157
979.157
979.157
979.157
979.155
979.143
979.067
978.638
976.566
966
854.674
861.084
967.585
977.046
978.775
979.097
979.149
979.156
979.157
979.157
979.157
979.157
979.157
979.157
979.157
979.157
979.157
979.157
979.157
979.156
979.148
979.096
978.767
977.014
967.462
860.855
867.188
968.853
977.398
978.864
979.115
979.151
979.156
979.157
979.157
979.157
979.157
979.157
979.157
979.157
979.157
979.157
979.157
979.157
979.156
979.152
979.117
978.876
977.447
969.061
867.771
873.291
970.238
977.749
978.944
979.129
979.153
979.156
979.157
979.157
979.157
979.157
979.157
979.157
979.157
979.157
979.157
979.157
979.157
979.156
979.153
979.127
978.934
977.698
970.021
872.485
877.489
971.059
977.949
978.987
979.136
979.154
979.157
979.157
979.157
979.157
979.157
979.157
979.157
979.157
979.157
979.157
979.157
979.157
979.157
979.154
979.135
978.985
977.94
971.017
877.685
881.855
971.772
978.118
979.019
979.141
979.155
979.157
979.157
979.157
979.157
979.157
979.157
979.157
979.157
979.157
979.157
979.157
979.157
979.157
979.155
979.142
979.031
978.182
972.075
882.699
887.012
972.861
978.354
979.06
979.146
979.156
979.157
979.157
979.157
979.157
979.157
979.157
979.157
979.157
979.157
979.157
979.157
979.157
979.157
979.156
979.145
979.053
978.305
972.618
886.054
889.932
973.405
978.465
979.079
979.149
979.156
979.157
979.157
979.157
979.157
979.157
979.157
979.157
979.157
979.157
979.157
979.157
979.157
979.157
979.156
979.149
979.079
978.466
973.404
890.214
892.672
973.761
978.538
979.09
979.15
979.156
979.157
979.157
979.157
979.157
979.157
979.157
979.157
979.157
979.157
979.157
979.157
979.157
979.157
979.156
979.151
979.095
978.57
973.942
893.151
896.158
974.417
978.66
979.107
979.152
979.156
979.157
979.157
979.157
979.157
979.157
979.157
979.157
979.157
979.157
979.157
979.157
979.157
979.157
979.156
979.152
979.104
978.636
974.281
895.658
898.196
974.749
978.717
979.116
979.153
979.156
979.157
979.157
979.157
979.157
979.157
979.157
979.157
979.157
979.157
979.157
979.157
979.157
979.157
979.157
979.153
979.116
978.727
974.788
898.499
900.064
974.943
978.753
979.12
979.154
979.157
979.157
979.157
979.157
979.157
979.157
979.157
979.157
979.157
979.157
979.157
979.157
979.157
979.157
979.157
979.154
979.122
978.771
975.065
900.33
902.533
975.38
978.825
979.129
979.154
979.157
979.157
979.157
979.157
979.157
979.157
979.157
979.157
979.157
979.157
979.157
979.157
979.157
979.157
979.157
979.154
979.126
978.804
975.247
902.091
904.036
975.597
978.859
979.133
979.155
979.157
979.157
979.157
979.157
979.157
979.157
979.157
979.157
979.157
979.157
979.157
979.157
979.157
979.157
979.157
979.155
979.133
978.864
975.619
904.232
905.402
975.719
978.879
979.135
979.155
979.157
979.157
979.157
979.157
979.157
979.157
979.157
979.157
979.157
979.157
979.157
979.157
979.157
979.157
979.157
979.155
979.136
978.892
975.814
905.592
907.186
976.029
978.926
979.14
979.155
979.157
979.157
979.157
979.157
979.157
979.157
979.157
979.157
979.157
979.157
979.157
979.157
979.157
979.157
979.157
979.155
979.138
978.91
975.917
906.849
908.286
976.176
978.948
979.142
979.156
979.157
979.157
979.157
979.157
979.157
979.157
979.157
979.157
979.157
979.157
979.157
979.157
979.157
979.157
979.157
979.156
979.142
978.952
976.193
908.421
909.271
976.251
978.96
979.143
979.156
979.157
979.157
979.157
979.157
979.157
979.157
979.157
979.157
979.157
979.157
979.157
979.157
979.157
979.157
979.157
979.156
979.144
978.97
976.332
909.423
910.548
976.48
978.993
979.146
979.156
979.157
979.157
979.157
979.157
979.157
979.157
979.157
979.157
979.157
979.157
979.157
979.157
979.157
979.157
979.157
979.156
979.145
978.981
976.391
910.314
911.34
976.582
979.007
979.148
979.156
979.157
979.157
979.157
979.157
979.157
979.157
979.157
979.157
979.157
979.157
979.157
979.157
979.157
979.157
979.157
979.156
979.148
979.01
976.592
911.417
912.033
976.626
979.015
979.148
979.156
979.157
979.157
979.157
979.157
979.157
979.157
979.157
979.157
979.157
979.157
979.157
979.157
979.157
979.157
979.157
979.156
979.149
979.023
976.694
912.15
912.913
976.796
979.039
979.15
979.156
979.157
979.157
979.157
979.157
979.157
979.157
979.157
979.157
979.157
979.157
979.157
979.157
979.157
979.157
979.157
979.156
979.15
979.03
976.731
912.77
913.46
976.867
979.048
979.151
979.156
979.157
979.157
979.157
979.157
979.157
979.157
979.157
979.157
979.157
979.157
979.157
979.157
979.157
979.157
979.157
979.156
979.151
979.05
976.87
913.489
913.924
976.892
979.054
979.152
979.156
979.157
979.157
979.157
979.157
979.157
979.157
979.157
979.157
979.157
979.157
979.157
979.157
979.157
979.157
979.157
979.157
979.152
979.06
976.946
914.004
914.49
977.017
979.071
979.153
979.157
979.157
979.157
979.157
979.157
979.157
979.157
979.157
979.157
979.157
979.157
979.157
979.157
979.157
979.157
979.157
979.157
979.152
979.065
976.969
914.392
914.845
977.057
979.078
979.153
979.157
979.157
979.157
979.157
979.157
979.157
979.157
979.157
979.157
979.157
979.157
979.157
979.157
979.157
979.157
979.157
979.157
979.153
979.076
977.042
914.799
915.665
977.021
979.076
979.153
979.157
979.157
979.157
979.157
979.157
979.157
979.157
979.157
979.157
979.157
979.157
979.157
979.157
979.157
979.157
979.157
979.157
979.153
979.078
977.039
915.706
962.93
980.349
980.296
980.242
980.223
980.206
980.189
980.173
980.158
980.142
980.128
980.113
980.099
980.085
980.071
980.058
980.045
980.033
980.021
980.009
979.997
979.985
979.974
979.963
979.952
979.942
979.932
979.92
979.768
962.646
959.357
979.367
979.227
979.185
979.182
979.181
979.18
979.18
979.179
979.178
979.178
979.177
979.176
979.176
979.175
979.175
979.174
979.174
979.173
979.173
979.172
979.172
979.172
979.171
979.171
979.17
979.17
979.169
979.022
960.895
960.796
979.291
979.189
979.158
979.157
979.157
979.157
979.157
979.157
979.157
979.157
979.157
979.157
979.157
979.157
979.157
979.157
979.157
979.157
979.157
979.157
979.157
979.157
979.157
979.157
979.157
979.157
979.156
979.007
960.515
961.028
979.234
979.182
979.158
979.157
979.157
979.157
979.157
979.157
979.157
979.157
979.157
979.157
979.157
979.157
979.157
979.157
979.157
979.157
979.157
979.157
979.157
979.157
979.157
979.157
979.157
979.157
979.156
979.004
960.203
960.706
979.216
979.18
979.158
979.157
979.157
979.157
979.157
979.157
979.157
979.157
979.157
979.157
979.157
979.157
979.157
979.157
979.157
979.157
979.157
979.157
979.157
979.157
979.157
979.157
979.157
979.157
979.156
979
959.916
960.44
979.202
979.179
979.158
979.157
979.157
979.157
979.157
979.157
979.157
979.157
979.157
979.157
979.157
979.157
979.157
979.157
979.157
979.157
979.157
979.157
979.157
979.157
979.157
979.157
979.157
979.157
979.156
978.996
959.638
960.225
979.183
979.177
979.158
979.157
979.157
979.157
979.157
979.157
979.157
979.157
979.157
979.157
979.157
979.157
979.157
979.157
979.157
979.157
979.157
979.157
979.157
979.157
979.157
979.157
979.157
979.157
979.156
978.992
959.372
960.055
979.162
979.175
979.157
979.157
979.157
979.157
979.157
979.157
979.157
979.157
979.157
979.157
979.157
979.157
979.157
979.157
979.157
979.157
979.157
979.157
979.157
979.157
979.157
979.157
979.157
979.157
979.156
978.988
959.122
959.875
979.141
979.173
979.157
979.157
979.157
979.157
979.157
979.157
979.157
979.157
979.157
979.157
979.157
979.157
979.157
979.157
979.157
979.157
979.157
979.157
979.157
979.157
979.157
979.157
979.157
979.157
979.156
978.985
958.892
959.679
979.122
979.171
979.157
979.157
979.157
979.157
979.157
979.157
979.157
979.157
979.157
979.157
979.157
979.157
979.157
979.157
979.157
979.157
979.157
979.157
979.157
979.157
979.157
979.157
979.157
979.157
979.156
978.982
958.682
959.474
979.106
979.169
979.157
979.157
979.157
979.157
979.157
979.157
979.157
979.157
979.157
979.157
979.157
979.157
979.157
979.157
979.157
979.157
979.157
979.157
979.157
979.157
979.157
979.157
979.157
979.157
979.156
978.979
958.49
959.268
979.091
979.168
979.157
979.157
979.157
979.157
979.157
979.157
979.157
979.157
979.157
979.157
979.157
979.157
979.157
979.157
979.157
979.157
979.157
979.157
979.157
979.157
979.157
979.157
979.157
979.157
979.156
978.977
958.313
959.071
979.078
979.167
979.157
979.157
979.157
979.157
979.157
979.157
979.157
979.157
979.157
979.157
979.157
979.157
979.157
979.157
979.157
979.157
979.157
979.157
979.157
979.157
979.157
979.157
979.157
979.157
979.156
978.974
958.151
958.876
979.066
979.166
979.157
979.157
979.157
979.157
979.157
979.157
979.157
979.157
979.157
979.157
979.157
979.157
979.157
979.157
979.157
979.157
979.157
979.157
979.157
979.157
979.157
979.157
979.157
979.157
979.156
978.972
958.001
958.696
979.054
979.164
979.157
979.157
979.157
979.157
979.157
979.157
979.157
979.157
979.157
979.157
979.157
979.157
979.157
979.157
979.157
979.157
979.157
979.157
979.157
979.157
979.157
979.157
979.157
979.157
979.156
978.97
957.866
958.517
979.043
979.163
979.157
979.157
979.157
979.157
979.157
979.157
979.157
979.157
979.157
979.157
979.157
979.157
979.157
979.157
979.157
979.157
979.157
979.157
979.157
979.157
979.157
979.157
979.157
979.157
979.156
978.968
957.744
958.349
979.033
979.163
979.157
979.157
979.157
979.157
979.157
979.157
979.157
979.157
979.157
979.157
979.157
979.157
979.157
979.157
979.157
979.157
979.157
979.157
979.157
979.157
979.157
979.157
979.157
979.157
979.156
978.967
957.634
958.192
979.023
979.162
979.157
979.157
979.157
979.157
979.157
979.157
979.157
979.157
979.157
979.157
979.157
979.157
979.157
979.157
979.157
979.157
979.157
979.157
979.157
979.157
979.157
979.157
979.157
979.157
979.156
978.965
957.537
958.042
979.014
979.161
979.157
979.157
979.157
979.157
979.157
979.157
979.157
979.157
979.157
979.157
979.157
979.157
979.157
979.157
979.157
979.157
979.157
979.157
979.157
979.157
979.157
979.157
979.157
979.157
979.156
978.964
957.452
957.904
979.005
979.16
979.157
979.157
979.157
979.157
979.157
979.157
979.157
979.157
979.157
979.157
979.157
979.157
979.157
979.157
979.157
979.157
979.157
979.157
979.157
979.157
979.157
979.157
979.157
979.157
979.156
978.963
957.378
957.776
978.997
979.159
979.157
979.157
979.157
979.157
979.157
979.157
979.157
979.157
979.157
979.157
979.157
979.157
979.157
979.157
979.157
979.157
979.157
979.157
979.157
979.157
979.157
979.157
979.157
979.157
979.156
978.962
957.315
957.659
978.99
979.159
979.157
979.157
979.157
979.157
979.157
979.157
979.157
979.157
979.157
979.157
979.157
979.157
979.157
979.157
979.157
979.157
979.157
979.157
979.157
979.157
979.157
979.157
979.157
979.157
979.156
978.961
957.263
957.552
978.983
979.158
979.157
979.157
979.157
979.157
979.157
979.157
979.157
979.157
979.157
979.157
979.157
979.157
979.157
979.157
979.157
979.157
979.157
979.157
979.157
979.157
979.157
979.157
979.157
979.157
979.156
978.961
957.221
957.452
978.975
979.157
979.157
979.157
979.157
979.157
979.157
979.157
979.157
979.157
979.157
979.157
979.157
979.157
979.157
979.157
979.157
979.157
979.157
979.157
979.157
979.157
979.157
979.157
979.157
979.157
979.156
978.96
957.188
957.468
978.963
979.156
979.157
979.157
979.157
979.157
979.157
979.157
979.157
979.157
979.157
979.157
979.157
979.157
979.157
979.157
979.157
979.157
979.157
979.157
979.157
979.157
979.157
979.157
979.157
979.157
979.156
978.96
957.164
962.646
979.768
979.92
979.932
979.942
979.953
979.963
979.974
979.985
979.997
980.009
980.021
980.033
980.046
980.059
980.072
980.085
980.099
980.113
980.128
980.143
980.158
980.174
980.19
980.206
980.223
980.243
980.296
980.35
962.925
960.895
979.022
979.169
979.17
979.17
979.171
979.171
979.172
979.172
979.172
979.173
979.173
979.174
979.174
979.175
979.175
979.176
979.176
979.177
979.178
979.178
979.179
979.18
979.18
979.181
979.182
979.185
979.227
979.367
959.363
960.514
979.007
979.156
979.157
979.157
979.157
979.157
979.157
979.157
979.157
979.157
979.157
979.157
979.157
979.157
979.157
979.157
979.157
979.157
979.157
979.157
979.157
979.157
979.157
979.157
979.157
979.158
979.189
979.291
960.789
960.203
979.004
979.156
979.157
979.157
979.157
979.157
979.157
979.157
979.157
979.157
979.157
979.157
979.157
979.157
979.157
979.157
979.157
979.157
979.157
979.157
979.157
979.157
979.157
979.157
979.157
979.158
979.182
979.234
961.036
959.916
979
979.156
979.157
979.157
979.157
979.157
979.157
979.157
979.157
979.157
979.157
979.157
979.157
979.157
979.157
979.157
979.157
979.157
979.157
979.157
979.157
979.157
979.157
979.157
979.157
979.158
979.18
979.216
960.709
959.638
978.996
979.156
979.157
979.157
979.157
979.157
979.157
979.157
979.157
979.157
979.157
979.157
979.157
979.157
979.157
979.157
979.157
979.157
979.157
979.157
979.157
979.157
979.157
979.157
979.157
979.158
979.179
979.202
960.427
959.372
978.992
979.156
979.157
979.157
979.157
979.157
979.157
979.157
979.157
979.157
979.157
979.157
979.157
979.157
979.157
979.157
979.157
979.157
979.157
979.157
979.157
979.157
979.157
979.157
979.157
979.158
979.177
979.183
960.24
959.122
978.988
979.156
979.157
979.157
979.157
979.157
979.157
979.157
979.157
979.157
979.157
979.157
979.157
979.157
979.157
979.157
979.157
979.157
979.157
979.157
979.157
979.157
979.157
979.157
979.157
979.157
979.175
979.162
960.047
958.892
978.985
979.156
979.157
979.157
979.157
979.157
979.157
979.157
979.157
979.157
979.157
979.157
979.157
979.157
979.157
979.157
979.157
979.157
979.157
979.157
979.157
979.157
979.157
979.157
979.157
979.157
979.173
979.141
959.876
958.682
978.982
979.156
979.157
979.157
979.157
979.157
979.157
979.157
979.157
979.157
979.157
979.157
979.157
979.157
979.157
979.157
979.157
979.157
979.157
979.157
979.157
979.157
979.157
979.157
979.157
979.157
979.171
979.122
959.683
958.49
978.979
979.156
979.157
979.157
979.157
979.157
979.157
979.157
979.157
979.157
979.157
979.157
979.157
979.157
979.157
979.157
979.157
979.157
979.157
979.157
979.157
979.157
979.157
979.157
979.157
979.157
979.169
979.106
959.468
958.313
978.977
979.156
979.157
979.157
979.157
979.157
979.157
979.157
979.157
979.157
979.157
979.157
979.157
979.157
979.157
979.157
979.157
979.157
979.157
979.157
979.157
979.157
979.157
979.157
979.157
979.157
979.168
979.091
959.273
958.151
978.974
979.156
979.157
979.157
979.157
979.157
979.157
979.157
979.157
979.157
979.157
979.157
979.157
979.157
979.157
979.157
979.157
979.157
979.157
979.157
979.157
979.157
979.157
979.157
979.157
979.157
979.167
979.078
959.07
958.002
978.972
979.156
979.157
979.157
979.157
979.157
979.157
979.157
979.157
979.157
979.157
979.157
979.157
979.157
979.157
979.157
979.157
979.157
979.157
979.157
979.157
979.157
979.157
979.157
979.157
979.157
979.166
979.066
958.876
957.866
978.97
979.156
979.157
979.157
979.157
979.157
979.157
979.157
979.157
979.157
979.157
979.157
979.157
979.157
979.157
979.157
979.157
979.157
979.157
979.157
979.157
979.157
979.157
979.157
979.157
979.157
979.164
979.054
958.696
957.744
978.968
979.156
979.157
979.157
979.157
979.157
979.157
979.157
979.157
979.157
979.157
979.157
979.157
979.157
979.157
979.157
979.157
979.157
979.157
979.157
979.157
979.157
979.157
979.157
979.157
979.157
979.163
979.043
958.518
957.634
978.967
979.156
979.157
979.157
979.157
979.157
979.157
979.157
979.157
979.157
979.157
979.157
979.157
979.157
979.157
979.157
979.157
979.157
979.157
979.157
979.157
979.157
979.157
979.157
979.157
979.157
979.163
979.033
958.349
957.537
978.965
979.156
979.157
979.157
979.157
979.157
979.157
979.157
979.157
979.157
979.157
979.157
979.157
979.157
979.157
979.157
979.157
979.157
979.157
979.157
979.157
979.157
979.157
979.157
979.157
979.157
979.162
979.023
958.192
957.452
978.964
979.156
979.157
979.157
979.157
979.157
979.157
979.157
979.157
979.157
979.157
979.157
979.157
979.157
979.157
979.157
979.157
979.157
979.157
979.157
979.157
979.157
979.157
979.157
979.157
979.157
979.161
979.014
958.043
957.378
978.963
979.156
979.157
979.157
979.157
979.157
979.157
979.157
979.157
979.157
979.157
979.157
979.157
979.157
979.157
979.157
979.157
979.157
979.157
979.157
979.157
979.157
979.157
979.157
979.157
979.157
979.16
979.005
957.904
957.315
978.962
979.156
979.157
979.157
979.157
979.157
979.157
979.157
979.157
979.157
979.157
979.157
979.157
979.157
979.157
979.157
979.157
979.157
979.157
979.157
979.157
979.157
979.157
979.157
979.157
979.157
979.159
978.997
957.776
957.263
978.961
979.156
979.157
979.157
979.157
979.157
979.157
979.157
979.157
979.157
979.157
979.157
979.157
979.157
979.157
979.157
979.157
979.157
979.157
979.157
979.157
979.157
979.157
979.157
979.157
979.157
979.159
978.99
957.658
957.221
978.961
979.156
979.157
979.157
979.157
979.157
979.157
979.157
979.157
979.157
979.157
979.157
979.157
979.157
979.157
979.157
979.157
979.157
979.157
979.157
979.157
979.157
979.157
979.157
979.157
979.157
979.158
978.983
957.553
957.188
978.96
979.156
979.157
979.157
979.157
979.157
979.157
979.157
979.157
979.157
979.157
979.157
979.157
979.157
979.157
979.157
979.157
979.157
979.157
979.157
979.157
979.157
979.157
979.157
979.157
979.157
979.157
978.975
957.452
957.164
978.96
979.156
979.157
979.157
979.157
979.157
979.157
979.157
979.157
979.157
979.157
979.157
979.157
979.157
979.157
979.157
979.157
979.157
979.157
979.157
979.157
979.157
979.157
979.157
979.157
979.157
979.156
978.963
957.468
948.04
948.128
948.217
948.305
948.394
948.481
948.569
948.656
948.743
948.83
948.916
949.002
949.088
949.173
949.258
949.343
949.428
949.512
949.596
949.68
949.763
949.847
949.93
950.012
950.095
950.177
950.259
950.34
950.422
950.503
950.583
950.664
950.744
950.824
950.904
950.984
951.063
951.142
951.22
951.299
951.377
951.455
951.533
951.61
951.688
951.765
951.841
951.918
951.994
952.07
952.146
952.222
952.297
952.372
952.447
952.521
952.596
952.67
952.744
952.817
952.891
952.964
953.037
953.11
953.182
953.255
953.327
953.399
953.47
953.542
953.613
953.684
953.755
953.825
953.896
953.966
954.036
954.106
954.175
954.244
954.313
954.382
954.451
954.52
954.588
954.656
954.724
954.791
954.859
954.926
954.993
955.06
955.127
955.193
955.259
955.325
955.391
955.457
955.523
955.588
955.653
955.718
955.783
955.847
955.912
955.976
956.04
956.103
956.167
956.231
956.294
956.357
956.42
956.482
956.545
956.607
956.669
956.731
956.793
956.855
956.916
956.978
957.039
957.1
957.16
978.763
978.766
978.769
978.771
978.773
978.775
978.778
978.78
978.782
978.784
978.786
978.789
978.791
978.793
978.795
978.797
978.799
978.801
978.803
978.805
978.807
978.809
978.811
978.813
978.815
978.817
978.819
978.821
978.823
978.825
978.827
978.829
978.831
978.832
978.834
978.836
978.838
978.84
978.841
978.843
978.845
978.847
978.849
978.85
978.852
978.854
978.855
978.857
978.859
978.86
978.862
978.864
978.865
978.867
978.869
978.87
978.872
978.873
978.875
978.876
978.878
978.879
978.881
978.883
978.884
978.886
978.887
978.888
978.89
978.891
978.893
978.894
978.896
978.897
978.899
978.9
978.901
978.903
978.904
978.905
978.907
978.908
978.91
978.911
978.912
978.913
978.915
978.916
978.917
978.919
978.92
978.921
978.922
978.924
978.925
978.926
978.927
978.929
978.93
978.931
978.932
978.933
978.935
978.936
978.937
978.938
978.939
978.94
978.942
978.943
978.944
978.945
978.946
978.947
978.948
978.949
978.95
978.951
978.953
978.954
978.955
978.956
978.957
978.958
978.959
979.153
979.153
979.153
979.153
979.153
979.153
979.153
979.153
979.153
979.153
979.153
979.154
979.154
979.154
979.154
979.154
979.154
979.154
979.154
979.154
979.154
979.154
979.154
979.154
979.154
979.154
979.154
979.154
979.154
979.154
979.154
979.154
979.154
979.154
979.154
979.154
979.154
979.154
979.154
979.154
979.154
979.154
979.154
979.154
979.154
979.154
979.154
979.154
979.154
979.155
979.155
979.155
979.155
979.155
979.155
979.155
979.155
979.155
979.155
979.155
979.155
979.155
979.155
979.155
979.155
979.155
979.155
979.155
979.155
979.155
979.155
979.155
979.155
979.155
979.155
979.155
979.155
979.155
979.155
979.155
979.155
979.155
979.155
979.155
979.155
979.155
979.155
979.155
979.155
979.155
979.155
979.155
979.155
979.155
979.155
979.155
979.155
979.155
979.155
979.155
979.155
979.155
979.155
979.155
979.155
979.155
979.155
979.155
979.155
979.155
979.155
979.155
979.155
979.155
979.156
979.156
979.156
979.156
979.156
979.156
979.156
979.156
979.156
979.156
979.156
979.157
979.157
979.157
979.157
979.157
979.157
979.157
979.157
979.157
979.157
979.157
979.157
979.157
979.157
979.157
979.157
979.157
979.157
979.157
979.157
979.157
979.157
979.157
979.157
979.157
979.157
979.157
979.157
979.157
979.157
979.157
979.157
979.157
979.157
979.157
979.157
979.157
979.157
979.157
979.157
979.157
979.157
979.157
979.157
979.157
979.157
979.157
979.157
979.157
979.157
979.157
979.157
979.157
979.157
979.157
979.157
979.157
979.157
979.157
979.157
979.157
979.157
979.157
979.157
979.157
979.157
979.157
979.157
979.157
979.157
979.157
979.157
979.157
979.157
979.157
979.157
979.157
979.157
979.157
979.157
979.157
979.157
979.157
979.157
979.157
979.157
979.157
979.157
979.157
979.157
979.157
979.157
979.157
979.157
979.157
979.157
979.157
979.157
979.157
979.157
979.157
979.157
979.157
979.157
979.157
979.157
979.157
979.157
979.157
979.157
979.157
979.157
979.157
979.157
979.157
979.157
979.157
979.157
979.157
979.157
979.157
979.157
979.157
979.157
979.157
979.157
979.157
979.157
979.157
979.157
979.157
979.157
979.157
979.157
979.157
979.157
979.157
979.157
979.157
979.157
979.157
979.157
979.157
979.157
979.157
979.157
979.157
979.157
979.157
979.157
979.157
979.157
979.157
979.157
979.157
979.157
979.157
979.157
979.157
979.157
979.157
979.157
979.157
979.157
979.157
979.157
979.157
979.157
979.157
979.157
979.157
979.157
979.157
979.157
979.157
979.157
979.157
979.157
979.157
979.157
979.157
979.157
979.157
979.157
979.157
979.157
979.157
979.157
979.157
979.157
979.157
979.157
979.157
979.157
979.157
979.157
979.157
979.157
979.157
979.157
979.157
979.157
979.157
979.157
979.157
979.157
979.157
979.157
979.157
979.157
979.157
979.157
979.157
979.157
979.157
979.157
979.157
979.157
979.157
979.157
979.157
979.157
979.157
979.157
979.157
979.157
979.157
979.157
979.157
979.157
979.157
979.157
979.157
979.157
979.157
979.157
979.157
979.157
979.157
979.157
979.157
979.157
979.157
979.157
979.157
979.157
979.157
979.157
979.157
979.157
979.157
979.157
979.157
979.157
979.157
979.157
979.157
979.157
979.157
979.157
979.157
979.157
979.157
979.157
979.157
979.157
979.157
979.157
979.157
979.157
979.157
979.157
979.157
979.157
979.157
979.157
979.157
979.157
979.157
979.157
979.157
979.157
979.157
979.157
979.157
979.157
979.157
979.157
979.157
979.157
979.157
979.157
979.157
979.157
979.157
979.157
979.157
979.157
979.157
979.157
979.157
979.157
979.157
979.157
979.157
979.157
979.157
979.157
979.157
979.157
979.157
979.157
979.157
979.157
979.157
979.157
979.157
979.157
979.157
979.157
979.157
979.157
979.157
979.157
979.157
979.157
979.157
979.157
979.157
979.157
979.157
979.157
979.157
979.157
979.157
979.157
979.157
979.157
979.157
979.157
979.157
979.157
979.157
979.157
979.157
979.157
979.157
979.157
979.157
979.157
979.157
979.157
979.157
979.157
979.157
979.157
979.157
979.157
979.157
979.157
979.157
979.157
979.157
979.157
979.157
979.157
979.157
979.157
979.157
979.157
979.157
979.157
979.157
979.157
979.157
979.157
979.157
979.157
979.157
979.157
979.157
979.157
979.157
979.157
979.157
979.157
979.157
979.157
979.157
979.157
979.157
979.157
979.157
979.157
979.157
979.157
979.157
979.157
979.157
979.157
979.157
979.157
979.157
979.157
979.157
979.157
979.157
979.157
979.157
979.157
979.157
979.157
979.157
979.157
979.157
979.157
979.157
979.157
979.157
979.157
979.157
979.157
979.157
979.157
979.157
979.157
979.157
979.157
979.157
979.157
979.157
979.157
979.157
979.157
979.157
979.157
979.157
979.157
979.157
979.157
979.157
979.157
979.157
979.157
979.157
979.157
979.157
979.157
979.157
979.157
979.157
979.157
979.157
979.157
979.157
979.157
979.157
979.157
979.157
979.157
979.157
979.157
979.157
979.157
979.157
979.157
979.157
979.157
979.157
979.157
979.157
979.157
979.157
979.157
979.157
979.157
979.157
979.157
979.157
979.157
979.157
979.157
979.157
979.157
979.157
979.157
979.157
979.157
979.157
979.157
979.157
979.157
979.157
979.157
979.157
979.157
979.157
979.157
979.157
979.157
979.157
979.157
979.157
979.157
979.157
979.157
979.157
979.157
979.157
979.157
979.157
979.157
979.157
979.157
979.157
979.157
979.157
979.157
979.157
979.157
979.157
979.157
979.157
979.157
979.157
979.157
979.157
979.157
979.157
979.157
979.157
979.157
979.157
979.157
979.157
979.157
979.157
979.157
979.157
979.157
979.157
979.157
979.157
979.157
979.157
979.157
979.157
979.157
979.157
979.157
979.157