/*--------------------------------*- C++ -*----------------------------------*\
| =========                 |                                                 |
| \\      /  F ield         | OpenFOAM: The Open Source CFD Toolbox           |
|  \\    /   O peration     | Version:  2112                                  |
|   \\  /    A nd           | Website:  www.openfoam.com                      |
|    \\/     M anipulation  |                                                 |
\*---------------------------------------------------------------------------*/
FoamFile
{
    version     2.0;
    format      ascii;
    arch        "LSB;label=32;scalar=64";
    class       volScalarField;
    location    "8e-05";
    object      nut;
}
// * * * * * * * * * * * * * * * * * * * * * * * * * * * * * * * * * * * * * //

dimensions      [0 2 -1 0 0 0 0];

internalField   nonuniform List<scalar> 
13875
(
0.269784
1.19809
1.6572
1.95895
2.14313
2.25199
2.31033
2.33955
2.35289
2.35848
2.36064
2.36141
2.3616
2.36143
2.36073
2.35869
2.35316
2.33982
2.31065
2.25241
2.14368
1.95973
1.65812
1.19914
0.270496
0.4711
2.27542
2.99725
3.4463
3.72081
3.87961
3.96356
4.0045
4.02282
4.03037
4.03324
4.03423
4.03447
4.03425
4.03331
4.03053
4.02309
4.00488
3.96409
3.88036
3.72187
3.44784
2.99926
2.27781
0.473458
0.595701
3.25116
4.24153
4.78466
5.10858
5.29205
5.38883
5.43562
5.45636
5.46482
5.46801
5.4691
5.46934
5.4691
5.46804
5.4649
5.45652
5.43586
5.3891
5.29225
5.10856
4.78425
4.24011
3.24702
0.59354
0.648105
3.86378
5.07206
5.67056
6.00522
6.18872
6.28308
6.32774
6.34718
6.355
6.3579
6.35886
6.35906
6.35882
6.35786
6.355
6.34722
6.32781
6.2831
6.18852
6.00449
5.66888
5.06816
3.85566
0.644594
0.604757
3.86243
5.23811
5.879
6.21066
6.38308
6.46792
6.5069
6.52346
6.52992
6.53224
6.53297
6.53311
6.53291
6.53215
6.52985
6.52342
6.50689
6.46791
6.38303
6.2105
5.8789
5.23979
3.86897
0.602806
0.536109
3.42064
4.70503
5.28492
5.56667
5.70498
5.76988
5.79835
5.80994
5.81431
5.81582
5.81628
5.81635
5.81621
5.8157
5.81415
5.80977
5.79821
5.76982
5.70508
5.56742
5.28677
4.70965
3.43294
0.535023
0.439764
2.6981
3.69079
4.13356
4.34079
4.43862
4.48236
4.50065
4.50778
4.51038
4.51126
4.51151
4.51155
4.51146
4.51116
4.51024
4.50758
4.50034
4.48179
4.43744
4.33858
4.12892
3.68228
2.67852
0.439151
0.336611
1.68962
2.29879
2.56548
2.68639
2.74011
2.76305
2.7723
2.77581
2.77707
2.7775
2.77762
2.77763
2.77757
2.77741
2.77693
2.77561
2.77202
2.76264
2.73942
2.68517
2.56382
2.2944
1.68186
0.335122
0.200971
0.493651
0.670573
0.740809
0.772274
0.78583
0.791613
0.794019
0.794968
0.795325
0.795454
0.795498
0.795502
0.795481
0.795426
0.795274
0.794889
0.793907
0.79146
0.78561
0.771939
0.740733
0.669345
0.491481
0.199609
0.0568542
0.0704661
0.0712951
0.0704797
0.0699845
0.0697344
0.0696256
0.069583
0.0695676
0.0695623
0.0695603
0.0695593
0.0695586
0.0695577
0.0695568
0.0695567
0.0695596
0.0695726
0.0696128
0.06972
0.0699699
0.0704679
0.0713002
0.0705785
0.0568323
0.0431016
0.245262
0.317378
0.32203
0.321358
0.320923
0.320719
0.320626
0.320583
0.320563
0.320551
0.320543
0.320536
0.32053
0.320526
0.320526
0.320534
0.320565
0.320647
0.320839
0.321267
0.321884
0.31695
0.243286
0.0425206
0.0387769
0.237718
0.327923
0.33729
0.33774
0.337735
0.337731
0.33773
0.33773
0.33773
0.33773
0.33773
0.33773
0.33773
0.33773
0.33773
0.33773
0.33773
0.337731
0.337735
0.33774
0.337299
0.328021
0.238009
0.0386945
0.0355598
0.225946
0.325031
0.3371
0.337788
0.337789
0.337783
0.337782
0.337781
0.337781
0.337781
0.337781
0.337781
0.337781
0.337781
0.337781
0.337781
0.337782
0.337783
0.337788
0.337787
0.337141
0.325528
0.227776
0.0357421
0.0332793
0.216969
0.322465
0.336849
0.33778
0.337791
0.337783
0.337782
0.337781
0.337781
0.337781
0.337781
0.337781
0.337781
0.337781
0.337781
0.337781
0.337782
0.337783
0.33779
0.337782
0.336929
0.323353
0.219961
0.034172
0.0321407
0.209891
0.320245
0.33659
0.337767
0.337792
0.337784
0.337782
0.337782
0.337781
0.337781
0.337781
0.337781
0.337781
0.337781
0.337781
0.337782
0.337782
0.337784
0.337794
0.337763
0.336423
0.318733
0.205873
0.0315603
0.029448
0.197483
0.315513
0.335984
0.337728
0.337793
0.337785
0.337782
0.337782
0.337781
0.337781
0.337781
0.337781
0.337781
0.337781
0.337781
0.337782
0.337782
0.337785
0.337794
0.337723
0.335862
0.314526
0.195154
0.0288711
0.0293085
0.197752
0.315944
0.33597
0.337705
0.337787
0.337784
0.337782
0.337782
0.337781
0.337781
0.337781
0.337781
0.337781
0.337781
0.337781
0.337782
0.337782
0.337783
0.337787
0.33771
0.336038
0.316476
0.199011
0.0293691
0.0294866
0.200305
0.316841
0.335979
0.337675
0.337778
0.337782
0.337782
0.337781
0.337781
0.337781
0.337781
0.337781
0.337781
0.337781
0.337781
0.337781
0.337782
0.337782
0.337778
0.337673
0.335964
0.316741
0.20002
0.0295537
0.0284256
0.187854
0.310788
0.334976
0.337546
0.33776
0.337779
0.337781
0.337781
0.337781
0.337781
0.337781
0.337781
0.337781
0.337781
0.337781
0.337781
0.337781
0.337779
0.337764
0.337577
0.33526
0.312511
0.191288
0.0288935
0.0278103
0.178449
0.304864
0.333854
0.337396
0.33774
0.337776
0.337781
0.337781
0.337781
0.337781
0.337781
0.337781
0.337781
0.337781
0.337781
0.337781
0.337781
0.337776
0.33774
0.337388
0.333781
0.304414
0.177493
0.0274885
0.031007
0.191624
0.311142
0.334882
0.337506
0.337751
0.337777
0.337781
0.337781
0.337781
0.337781
0.337781
0.337781
0.337781
0.337781
0.337781
0.337781
0.337781
0.337777
0.337747
0.337471
0.334584
0.309384
0.188114
0.0304182
0.0343966
0.207325
0.317969
0.335939
0.337625
0.337766
0.337779
0.337781
0.337781
0.337781
0.337781
0.337781
0.337781
0.337781
0.337781
0.337781
0.337781
0.337781
0.337779
0.337764
0.337612
0.335836
0.317349
0.206064
0.034305
0.037832
0.221955
0.323177
0.33663
0.337696
0.337773
0.337781
0.337781
0.337781
0.337781
0.337781
0.337781
0.337781
0.337781
0.337781
0.337781
0.337781
0.337781
0.337781
0.337774
0.3377
0.336687
0.323719
0.223866
0.038209
0.0412638
0.236628
0.327313
0.33709
0.337737
0.337778
0.337781
0.337781
0.337781
0.337781
0.337781
0.337781
0.337781
0.337781
0.337781
0.337781
0.337781
0.337781
0.337781
0.337778
0.337737
0.33709
0.327295
0.23642
0.0411464
0.043481
0.244882
0.329258
0.33728
0.337753
0.337779
0.337781
0.337781
0.337781
0.337781
0.337781
0.337781
0.337781
0.337781
0.337781
0.337781
0.337781
0.337781
0.337781
0.337779
0.337752
0.337268
0.329118
0.244245
0.0434053
0.0459594
0.252536
0.330763
0.337406
0.337762
0.33778
0.337781
0.337781
0.337781
0.337781
0.337781
0.337781
0.337781
0.337781
0.337781
0.337781
0.337781
0.337781
0.337781
0.33778
0.337763
0.337423
0.330987
0.253786
0.0462027
0.0485989
0.26111
0.332225
0.337516
0.337769
0.337781
0.337781
0.337781
0.337781
0.337781
0.337781
0.337781
0.337781
0.337781
0.337781
0.337781
0.337781
0.337781
0.337781
0.337781
0.337768
0.337502
0.332014
0.259733
0.048247
0.0505676
0.266465
0.333039
0.337572
0.337772
0.337781
0.337781
0.337781
0.337781
0.337781
0.337781
0.337781
0.337781
0.337781
0.337781
0.337781
0.337781
0.337781
0.337781
0.337781
0.337772
0.337569
0.333009
0.266346
0.0506779
0.0527394
0.271428
0.333706
0.337613
0.337774
0.337781
0.337781
0.337781
0.337781
0.337781
0.337781
0.337781
0.337781
0.337781
0.337781
0.337781
0.337781
0.337781
0.337781
0.337781
0.337775
0.337628
0.333952
0.273334
0.0531212
0.0553512
0.278719
0.33459
0.337664
0.337777
0.337781
0.337781
0.337781
0.337781
0.337781
0.337781
0.337781
0.337781
0.337781
0.337781
0.337781
0.337781
0.337781
0.337781
0.337781
0.337776
0.337654
0.334399
0.276986
0.0548569
0.0569514
0.282453
0.335001
0.337686
0.337778
0.337781
0.337781
0.337781
0.337781
0.337781
0.337781
0.337781
0.337781
0.337781
0.337781
0.337781
0.337781
0.337781
0.337781
0.337781
0.337778
0.337686
0.335008
0.282582
0.0571378
0.0585667
0.285168
0.335269
0.337699
0.337779
0.337781
0.337781
0.337781
0.337781
0.337781
0.337781
0.337781
0.337781
0.337781
0.337781
0.337781
0.337781
0.337781
0.337781
0.337781
0.337779
0.337705
0.335389
0.286401
0.0588044
0.0606216
0.289991
0.335714
0.33772
0.337779
0.337781
0.337781
0.337781
0.337781
0.337781
0.337781
0.337781
0.337781
0.337781
0.337781
0.337781
0.337781
0.337781
0.337781
0.337781
0.337779
0.337716
0.335625
0.288955
0.060329
0.061897
0.292476
0.335927
0.337729
0.33778
0.337781
0.337781
0.337781
0.337781
0.337781
0.337781
0.337781
0.337781
0.337781
0.337781
0.337781
0.337781
0.337781
0.337781
0.337781
0.33778
0.33773
0.335948
0.292753
0.0620705
0.0631388
0.294045
0.33605
0.337734
0.33778
0.337781
0.337781
0.337781
0.337781
0.337781
0.337781
0.337781
0.337781
0.337781
0.337781
0.337781
0.337781
0.337781
0.337781
0.337781
0.33778
0.337737
0.336122
0.294952
0.0632854
0.0647655
0.297451
0.336307
0.337744
0.33778
0.337781
0.337781
0.337781
0.337781
0.337781
0.337781
0.337781
0.337781
0.337781
0.337781
0.337781
0.337781
0.337781
0.337781
0.337781
0.33778
0.337741
0.336233
0.296433
0.0644941
0.0657871
0.299166
0.33643
0.337749
0.337781
0.337781
0.337781
0.337781
0.337781
0.337781
0.337781
0.337781
0.337781
0.337781
0.337781
0.337781
0.337781
0.337781
0.337781
0.337781
0.337781
0.337749
0.33644
0.299327
0.065918
0.0667645
0.300153
0.336496
0.337751
0.337781
0.337781
0.337781
0.337781
0.337781
0.337781
0.337781
0.337781
0.337781
0.337781
0.337781
0.337781
0.337781
0.337781
0.337781
0.337781
0.337781
0.337753
0.336547
0.300922
0.0668778
0.0680118
0.302635
0.336657
0.337757
0.337781
0.337781
0.337781
0.337781
0.337781
0.337781
0.337781
0.337781
0.337781
0.337781
0.337781
0.337781
0.337781
0.337781
0.337781
0.337781
0.337781
0.337755
0.336601
0.30175
0.0677954
0.0687975
0.303835
0.336731
0.337759
0.337781
0.337781
0.337781
0.337781
0.337781
0.337781
0.337781
0.337781
0.337781
0.337781
0.337781
0.337781
0.337781
0.337781
0.337781
0.337781
0.337781
0.337759
0.336738
0.303942
0.0688946
0.0695314
0.304415
0.336766
0.33776
0.337781
0.337781
0.337781
0.337781
0.337781
0.337781
0.337781
0.337781
0.337781
0.337781
0.337781
0.337781
0.337781
0.337781
0.337781
0.337781
0.337781
0.337761
0.336806
0.305101
0.0696208
0.0704459
0.306257
0.336873
0.337763
0.337781
0.337781
0.337781
0.337781
0.337781
0.337781
0.337781
0.337781
0.337781
0.337781
0.337781
0.337781
0.337781
0.337781
0.337781
0.337781
0.337781
0.337762
0.336832
0.305536
0.0702934
0.0710169
0.3071
0.336919
0.337765
0.337781
0.337781
0.337781
0.337781
0.337781
0.337781
0.337781
0.337781
0.337781
0.337781
0.337781
0.337781
0.337781
0.337781
0.337781
0.337781
0.337781
0.337765
0.336922
0.307142
0.0710768
0.0715347
0.307401
0.336936
0.337765
0.337781
0.337781
0.337781
0.337781
0.337781
0.337781
0.337781
0.337781
0.337781
0.337781
0.337781
0.337781
0.337781
0.337781
0.337781
0.337781
0.337781
0.337766
0.336967
0.307989
0.0715985
0.0721543
0.308761
0.337009
0.337768
0.337781
0.337781
0.337781
0.337781
0.337781
0.337781
0.337781
0.337781
0.337781
0.337781
0.337781
0.337781
0.337781
0.337781
0.337781
0.337781
0.337781
0.337767
0.336981
0.308227
0.072065
0.0725334
0.309344
0.337038
0.337768
0.337781
0.337781
0.337781
0.337781
0.337781
0.337781
0.337781
0.337781
0.337781
0.337781
0.337781
0.337781
0.337781
0.337781
0.337781
0.337781
0.337781
0.337768
0.337037
0.309316
0.0725611
0.0728647
0.309452
0.337045
0.337769
0.337781
0.337781
0.337781
0.337781
0.337781
0.337781
0.337781
0.337781
0.337781
0.337781
0.337781
0.337781
0.337781
0.337781
0.337781
0.337781
0.337781
0.337769
0.337069
0.30994
0.0729036
0.0732324
0.310437
0.337094
0.33777
0.337781
0.337781
0.337781
0.337781
0.337781
0.337781
0.337781
0.337781
0.337781
0.337781
0.337781
0.337781
0.337781
0.337781
0.337781
0.337781
0.337781
0.337769
0.337076
0.310073
0.0731877
0.0734496
0.31083
0.337113
0.33777
0.337781
0.337781
0.337781
0.337781
0.337781
0.337781
0.337781
0.337781
0.337781
0.337781
0.337781
0.337781
0.337781
0.337781
0.337781
0.337781
0.337781
0.33777
0.337106
0.310696
0.0734504
0.0736552
0.311148
0.337123
0.337771
0.337781
0.337781
0.337781
0.337781
0.337781
0.337781
0.337781
0.337781
0.337781
0.337781
0.337781
0.337781
0.337781
0.337781
0.337781
0.337781
0.337781
0.337771
0.337131
0.311323
0.0736657
0.152441
0.332251
0.337874
0.337921
0.337919
0.337916
0.337914
0.337912
0.33791
0.337907
0.337905
0.337903
0.337901
0.337899
0.337897
0.337895
0.337894
0.337892
0.33789
0.337888
0.337887
0.337885
0.337884
0.337882
0.33788
0.337879
0.337878
0.337868
0.335974
0.173042
0.14387
0.334191
0.337766
0.337787
0.337787
0.337786
0.337786
0.337786
0.337786
0.337786
0.337786
0.337785
0.337785
0.337785
0.337785
0.337785
0.337785
0.337785
0.337785
0.337785
0.337784
0.337784
0.337784
0.337784
0.337784
0.337784
0.337784
0.337774
0.335667
0.17114
0.150676
0.335163
0.337767
0.337782
0.337782
0.337782
0.337782
0.337782
0.337782
0.337782
0.337782
0.337782
0.337782
0.337782
0.337782
0.337782
0.337782
0.337782
0.337782
0.337782
0.337782
0.337782
0.337782
0.337782
0.337782
0.337782
0.337781
0.337772
0.335595
0.169485
0.154578
0.335129
0.337767
0.337782
0.337781
0.337781
0.337781
0.337781
0.337781
0.337781
0.337781
0.337781
0.337781
0.337781
0.337781
0.337781
0.337781
0.337781
0.337781
0.337781
0.337781
0.337781
0.337781
0.337781
0.337781
0.337781
0.337781
0.337771
0.335543
0.168084
0.154371
0.334963
0.337766
0.337782
0.337781
0.337781
0.337781
0.337781
0.337781
0.337781
0.337781
0.337781
0.337781
0.337781
0.337781
0.337781
0.337781
0.337781
0.337781
0.337781
0.337781
0.337781
0.337781
0.337781
0.337781
0.337781
0.337781
0.337771
0.335487
0.166809
0.154035
0.334941
0.337766
0.337782
0.337781
0.337781
0.337781
0.337781
0.337781
0.337781
0.337781
0.337781
0.337781
0.337781
0.337781
0.337781
0.337781
0.337781
0.337781
0.337781
0.337781
0.337781
0.337781
0.337781
0.337781
0.337781
0.337781
0.33777
0.33543
0.165592
0.154068
0.334964
0.337766
0.337782
0.337781
0.337781
0.337781
0.337781
0.337781
0.337781
0.337781
0.337781
0.337781
0.337781
0.337781
0.337781
0.337781
0.337781
0.337781
0.337781
0.337781
0.337781
0.337781
0.337781
0.337781
0.337781
0.337781
0.33777
0.335374
0.164439
0.154518
0.334999
0.337767
0.337781
0.337781
0.337781
0.337781
0.337781
0.337781
0.337781
0.337781
0.337781
0.337781
0.337781
0.337781
0.337781
0.337781
0.337781
0.337781
0.337781
0.337781
0.337781
0.337781
0.337781
0.337781
0.337781
0.337781
0.33777
0.335323
0.163372
0.154974
0.335014
0.337767
0.337781
0.337781
0.337781
0.337781
0.337781
0.337781
0.337781
0.337781
0.337781
0.337781
0.337781
0.337781
0.337781
0.337781
0.337781
0.337781
0.337781
0.337781
0.337781
0.337781
0.337781
0.337781
0.337781
0.337781
0.337769
0.335277
0.162403
0.155268
0.335012
0.337767
0.337781
0.337781
0.337781
0.337781
0.337781
0.337781
0.337781
0.337781
0.337781
0.337781
0.337781
0.337781
0.337781
0.337781
0.337781
0.337781
0.337781
0.337781
0.337781
0.337781
0.337781
0.337781
0.337781
0.337781
0.337769
0.335234
0.161527
0.155377
0.335
0.337767
0.337781
0.337781
0.337781
0.337781
0.337781
0.337781
0.337781
0.337781
0.337781
0.337781
0.337781
0.337781
0.337781
0.337781
0.337781
0.337781
0.337781
0.337781
0.337781
0.337781
0.337781
0.337781
0.337781
0.337781
0.337769
0.335194
0.160732
0.155369
0.334988
0.337767
0.337781
0.337781
0.337781
0.337781
0.337781
0.337781
0.337781
0.337781
0.337781
0.337781
0.337781
0.337781
0.337781
0.337781
0.337781
0.337781
0.337781
0.337781
0.337781
0.337781
0.337781
0.337781
0.337781
0.337781
0.337768
0.335157
0.160008
0.155334
0.334977
0.337767
0.337781
0.337781
0.337781
0.337781
0.337781
0.337781
0.337781
0.337781
0.337781
0.337781
0.337781
0.337781
0.337781
0.337781
0.337781
0.337781
0.337781
0.337781
0.337781
0.337781
0.337781
0.337781
0.337781
0.337781
0.337768
0.335123
0.159349
0.155247
0.334969
0.337767
0.337781
0.337781
0.337781
0.337781
0.337781
0.337781
0.337781
0.337781
0.337781
0.337781
0.337781
0.337781
0.337781
0.337781
0.337781
0.337781
0.337781
0.337781
0.337781
0.337781
0.337781
0.337781
0.337781
0.337781
0.337768
0.335091
0.158747
0.155261
0.334965
0.337767
0.337781
0.337781
0.337781
0.337781
0.337781
0.337781
0.337781
0.337781
0.337781
0.337781
0.337781
0.337781
0.337781
0.337781
0.337781
0.337781
0.337781
0.337781
0.337781
0.337781
0.337781
0.337781
0.337781
0.337781
0.337768
0.335063
0.158205
0.155184
0.334953
0.337767
0.337781
0.337781
0.337781
0.337781
0.337781
0.337781
0.337781
0.337781
0.337781
0.337781
0.337781
0.337781
0.337781
0.337781
0.337781
0.337781
0.337781
0.337781
0.337781
0.337781
0.337781
0.337781
0.337781
0.337781
0.337767
0.335037
0.157719
0.155149
0.334949
0.337767
0.337781
0.337781
0.337781
0.337781
0.337781
0.337781
0.337781
0.337781
0.337781
0.337781
0.337781
0.337781
0.337781
0.337781
0.337781
0.337781
0.337781
0.337781
0.337781
0.337781
0.337781
0.337781
0.337781
0.337781
0.337767
0.335013
0.157285
0.155149
0.334944
0.337767
0.337781
0.337781
0.337781
0.337781
0.337781
0.337781
0.337781
0.337781
0.337781
0.337781
0.337781
0.337781
0.337781
0.337781
0.337781
0.337781
0.337781
0.337781
0.337781
0.337781
0.337781
0.337781
0.337781
0.337781
0.337767
0.334993
0.156903
0.15511
0.334937
0.337767
0.337781
0.337781
0.337781
0.337781
0.337781
0.337781
0.337781
0.337781
0.337781
0.337781
0.337781
0.337781
0.337781
0.337781
0.337781
0.337781
0.337781
0.337781
0.337781
0.337781
0.337781
0.337781
0.337781
0.337781
0.337767
0.334975
0.156568
0.155121
0.334936
0.337767
0.337781
0.337781
0.337781
0.337781
0.337781
0.337781
0.337781
0.337781
0.337781
0.337781
0.337781
0.337781
0.337781
0.337781
0.337781
0.337781
0.337781
0.337781
0.337781
0.337781
0.337781
0.337781
0.337781
0.337781
0.337767
0.33496
0.15628
0.15514
0.334932
0.337767
0.337781
0.337781
0.337781
0.337781
0.337781
0.337781
0.337781
0.337781
0.337781
0.337781
0.337781
0.337781
0.337781
0.337781
0.337781
0.337781
0.337781
0.337781
0.337781
0.337781
0.337781
0.337781
0.337781
0.337781
0.337767
0.334947
0.156036
0.155149
0.334931
0.337767
0.337781
0.337781
0.337781
0.337781
0.337781
0.337781
0.337781
0.337781
0.337781
0.337781
0.337781
0.337781
0.337781
0.337781
0.337781
0.337781
0.337781
0.337781
0.337781
0.337781
0.337781
0.337781
0.337781
0.337781
0.337766
0.334937
0.155833
0.15521
0.334932
0.337767
0.337781
0.337781
0.337781
0.337781
0.337781
0.337781
0.337781
0.337781
0.337781
0.337781
0.337781
0.337781
0.337781
0.337781
0.337781
0.337781
0.337781
0.337781
0.337781
0.337781
0.337781
0.337781
0.337781
0.337781
0.337766
0.334929
0.15567
0.155264
0.334933
0.337767
0.337781
0.337781
0.337781
0.337781
0.337781
0.337781
0.337781
0.337781
0.337781
0.337781
0.337781
0.337781
0.337781
0.337781
0.337781
0.337781
0.337781
0.337781
0.337781
0.337781
0.337781
0.337781
0.337781
0.337781
0.337766
0.334923
0.155544
0.155335
0.335188
0.337769
0.337781
0.337781
0.337781
0.337781
0.337781
0.337781
0.337781
0.337781
0.337781
0.337781
0.337781
0.337781
0.337781
0.337781
0.337781
0.337781
0.337781
0.337781
0.337781
0.337781
0.337781
0.337781
0.337781
0.337781
0.337766
0.33492
0.155451
0.173041
0.335974
0.337868
0.337878
0.337879
0.33788
0.337882
0.337884
0.337885
0.337887
0.337888
0.33789
0.337892
0.337894
0.337895
0.337897
0.337899
0.337901
0.337903
0.337905
0.337907
0.33791
0.337912
0.337914
0.337916
0.337919
0.337921
0.337874
0.332246
0.152399
0.17114
0.335667
0.337774
0.337784
0.337784
0.337784
0.337784
0.337784
0.337784
0.337784
0.337785
0.337785
0.337785
0.337785
0.337785
0.337785
0.337785
0.337785
0.337785
0.337786
0.337786
0.337786
0.337786
0.337786
0.337786
0.337787
0.337787
0.337766
0.334192
0.14389
0.169483
0.335595
0.337772
0.337781
0.337782
0.337782
0.337782
0.337782
0.337782
0.337782
0.337782
0.337782
0.337782
0.337782
0.337782
0.337782
0.337782
0.337782
0.337782
0.337782
0.337782
0.337782
0.337782
0.337782
0.337782
0.337782
0.337782
0.337767
0.335163
0.150641
0.168083
0.335543
0.337771
0.337781
0.337781
0.337781
0.337781
0.337781
0.337781
0.337781
0.337781
0.337781
0.337781
0.337781
0.337781
0.337781
0.337781
0.337781
0.337781
0.337781
0.337781
0.337781
0.337781
0.337781
0.337781
0.337781
0.337782
0.337767
0.335134
0.154629
0.16681
0.335487
0.337771
0.337781
0.337781
0.337781
0.337781
0.337781
0.337781
0.337781
0.337781
0.337781
0.337781
0.337781
0.337781
0.337781
0.337781
0.337781
0.337781
0.337781
0.337781
0.337781
0.337781
0.337781
0.337781
0.337781
0.337782
0.337766
0.334959
0.154392
0.165591
0.335429
0.33777
0.337781
0.337781
0.337781
0.337781
0.337781
0.337781
0.337781
0.337781
0.337781
0.337781
0.337781
0.337781
0.337781
0.337781
0.337781
0.337781
0.337781
0.337781
0.337781
0.337781
0.337781
0.337781
0.337781
0.337782
0.337766
0.33494
0.153963
0.164439
0.335374
0.33777
0.337781
0.337781
0.337781
0.337781
0.337781
0.337781
0.337781
0.337781
0.337781
0.337781
0.337781
0.337781
0.337781
0.337781
0.337781
0.337781
0.337781
0.337781
0.337781
0.337781
0.337781
0.337781
0.337781
0.337782
0.337766
0.33497
0.154164
0.163373
0.335323
0.33777
0.337781
0.337781
0.337781
0.337781
0.337781
0.337781
0.337781
0.337781
0.337781
0.337781
0.337781
0.337781
0.337781
0.337781
0.337781
0.337781
0.337781
0.337781
0.337781
0.337781
0.337781
0.337781
0.337781
0.337781
0.337767
0.334994
0.154466
0.162403
0.335276
0.337769
0.337781
0.337781
0.337781
0.337781
0.337781
0.337781
0.337781
0.337781
0.337781
0.337781
0.337781
0.337781
0.337781
0.337781
0.337781
0.337781
0.337781
0.337781
0.337781
0.337781
0.337781
0.337781
0.337781
0.337781
0.337767
0.335017
0.154981
0.161528
0.335234
0.337769
0.337781
0.337781
0.337781
0.337781
0.337781
0.337781
0.337781
0.337781
0.337781
0.337781
0.337781
0.337781
0.337781
0.337781
0.337781
0.337781
0.337781
0.337781
0.337781
0.337781
0.337781
0.337781
0.337781
0.337781
0.337767
0.335011
0.155291
0.160732
0.335194
0.337769
0.337781
0.337781
0.337781
0.337781
0.337781
0.337781
0.337781
0.337781
0.337781
0.337781
0.337781
0.337781
0.337781
0.337781
0.337781
0.337781
0.337781
0.337781
0.337781
0.337781
0.337781
0.337781
0.337781
0.337781
0.337767
0.334998
0.155325
0.160008
0.335157
0.337768
0.337781
0.337781
0.337781
0.337781
0.337781
0.337781
0.337781
0.337781
0.337781
0.337781
0.337781
0.337781
0.337781
0.337781
0.337781
0.337781
0.337781
0.337781
0.337781
0.337781
0.337781
0.337781
0.337781
0.337781
0.337767
0.334992
0.155412
0.159349
0.335123
0.337768
0.337781
0.337781
0.337781
0.337781
0.337781
0.337781
0.337781
0.337781
0.337781
0.337781
0.337781
0.337781
0.337781
0.337781
0.337781
0.337781
0.337781
0.337781
0.337781
0.337781
0.337781
0.337781
0.337781
0.337781
0.337767
0.334975
0.155327
0.158747
0.335091
0.337768
0.337781
0.337781
0.337781
0.337781
0.337781
0.337781
0.337781
0.337781
0.337781
0.337781
0.337781
0.337781
0.337781
0.337781
0.337781
0.337781
0.337781
0.337781
0.337781
0.337781
0.337781
0.337781
0.337781
0.337781
0.337767
0.334969
0.155242
0.158205
0.335062
0.337768
0.337781
0.337781
0.337781
0.337781
0.337781
0.337781
0.337781
0.337781
0.337781
0.337781
0.337781
0.337781
0.337781
0.337781
0.337781
0.337781
0.337781
0.337781
0.337781
0.337781
0.337781
0.337781
0.337781
0.337781
0.337767
0.334965
0.155257
0.15772
0.335037
0.337767
0.337781
0.337781
0.337781
0.337781
0.337781
0.337781
0.337781
0.337781
0.337781
0.337781
0.337781
0.337781
0.337781
0.337781
0.337781
0.337781
0.337781
0.337781
0.337781
0.337781
0.337781
0.337781
0.337781
0.337781
0.337767
0.334953
0.155198
0.157285
0.335013
0.337767
0.337781
0.337781
0.337781
0.337781
0.337781
0.337781
0.337781
0.337781
0.337781
0.337781
0.337781
0.337781
0.337781
0.337781
0.337781
0.337781
0.337781
0.337781
0.337781
0.337781
0.337781
0.337781
0.337781
0.337781
0.337767
0.334948
0.155137
0.156902
0.334993
0.337767
0.337781
0.337781
0.337781
0.337781
0.337781
0.337781
0.337781
0.337781
0.337781
0.337781
0.337781
0.337781
0.337781
0.337781
0.337781
0.337781
0.337781
0.337781
0.337781
0.337781
0.337781
0.337781
0.337781
0.337781
0.337767
0.334945
0.155146
0.156569
0.334975
0.337767
0.337781
0.337781
0.337781
0.337781
0.337781
0.337781
0.337781
0.337781
0.337781
0.337781
0.337781
0.337781
0.337781
0.337781
0.337781
0.337781
0.337781
0.337781
0.337781
0.337781
0.337781
0.337781
0.337781
0.337781
0.337767
0.334938
0.155128
0.15628
0.33496
0.337767
0.337781
0.337781
0.337781
0.337781
0.337781
0.337781
0.337781
0.337781
0.337781
0.337781
0.337781
0.337781
0.337781
0.337781
0.337781
0.337781
0.337781
0.337781
0.337781
0.337781
0.337781
0.337781
0.337781
0.337781
0.337767
0.334934
0.155107
0.156036
0.334947
0.337767
0.337781
0.337781
0.337781
0.337781
0.337781
0.337781
0.337781
0.337781
0.337781
0.337781
0.337781
0.337781
0.337781
0.337781
0.337781
0.337781
0.337781
0.337781
0.337781
0.337781
0.337781
0.337781
0.337781
0.337781
0.337767
0.334934
0.155138
0.155834
0.334937
0.337766
0.337781
0.337781
0.337781
0.337781
0.337781
0.337781
0.337781
0.337781
0.337781
0.337781
0.337781
0.337781
0.337781
0.337781
0.337781
0.337781
0.337781
0.337781
0.337781
0.337781
0.337781
0.337781
0.337781
0.337781
0.337767
0.334931
0.155167
0.15567
0.334929
0.337766
0.337781
0.337781
0.337781
0.337781
0.337781
0.337781
0.337781
0.337781
0.337781
0.337781
0.337781
0.337781
0.337781
0.337781
0.337781
0.337781
0.337781
0.337781
0.337781
0.337781
0.337781
0.337781
0.337781
0.337781
0.337767
0.334931
0.155196
0.155543
0.334923
0.337766
0.337781
0.337781
0.337781
0.337781
0.337781
0.337781
0.337781
0.337781
0.337781
0.337781
0.337781
0.337781
0.337781
0.337781
0.337781
0.337781
0.337781
0.337781
0.337781
0.337781
0.337781
0.337781
0.337781
0.337781
0.337767
0.334935
0.155265
0.155451
0.33492
0.337766
0.337781
0.337781
0.337781
0.337781
0.337781
0.337781
0.337781
0.337781
0.337781
0.337781
0.337781
0.337781
0.337781
0.337781
0.337781
0.337781
0.337781
0.337781
0.337781
0.337781
0.337781
0.337781
0.337781
0.337781
0.337769
0.335188
0.155337
0.126341
0.126575
0.12681
0.127044
0.127279
0.127513
0.127748
0.127983
0.128217
0.128452
0.128686
0.128921
0.129156
0.12939
0.129625
0.129859
0.130094
0.130328
0.130563
0.130798
0.131032
0.131267
0.131501
0.131736
0.131971
0.132205
0.13244
0.132674
0.132909
0.133144
0.133378
0.133613
0.133847
0.134082
0.134317
0.134551
0.134786
0.13502
0.135255
0.13549
0.135724
0.135959
0.136194
0.136428
0.136663
0.136897
0.137132
0.137367
0.137601
0.137836
0.13807
0.138305
0.13854
0.138774
0.139009
0.139244
0.139478
0.139713
0.139947
0.140182
0.140417
0.140651
0.140886
0.141121
0.141355
0.14159
0.141824
0.142059
0.142294
0.142528
0.142763
0.142998
0.143232
0.143467
0.143702
0.143936
0.144171
0.144405
0.14464
0.144875
0.145109
0.145344
0.145579
0.145813
0.146048
0.146283
0.146517
0.146752
0.146986
0.147221
0.147456
0.14769
0.147925
0.14816
0.148394
0.148629
0.148864
0.149098
0.149333
0.149568
0.149802
0.150037
0.150272
0.150506
0.150741
0.150976
0.15121
0.151445
0.151679
0.151914
0.152149
0.152383
0.152618
0.152853
0.153087
0.153322
0.153557
0.153791
0.154026
0.154261
0.154495
0.15473
0.154965
0.155199
0.155434
0.332125
0.33217
0.332203
0.332235
0.332267
0.332298
0.33233
0.332361
0.332392
0.332423
0.332454
0.332484
0.332514
0.332544
0.332574
0.332604
0.332633
0.332662
0.332691
0.33272
0.332749
0.332777
0.332805
0.332833
0.332861
0.332889
0.332916
0.332943
0.332971
0.332997
0.333024
0.333051
0.333077
0.333103
0.333129
0.333155
0.333181
0.333206
0.333232
0.333257
0.333282
0.333307
0.333331
0.333356
0.33338
0.333405
0.333429
0.333452
0.333476
0.3335
0.333523
0.333546
0.33357
0.333593
0.333615
0.333638
0.333661
0.333683
0.333705
0.333727
0.333749
0.333771
0.333793
0.333814
0.333836
0.333857
0.333878
0.333899
0.33392
0.333941
0.333961
0.333982
0.334002
0.334022
0.334042
0.334062
0.334082
0.334102
0.334122
0.334141
0.33416
0.33418
0.334199
0.334218
0.334236
0.334255
0.334274
0.334292
0.334311
0.334329
0.334347
0.334365
0.334383
0.334401
0.334419
0.334436
0.334454
0.334471
0.334489
0.334506
0.334523
0.33454
0.334557
0.334574
0.33459
0.334607
0.334623
0.33464
0.334656
0.334672
0.334688
0.334704
0.33472
0.334736
0.334752
0.334767
0.334783
0.334798
0.334814
0.334829
0.334844
0.334859
0.334874
0.334889
0.334907
0.337735
0.337736
0.337737
0.337737
0.337737
0.337738
0.337738
0.337739
0.337739
0.337739
0.33774
0.33774
0.337741
0.337741
0.337741
0.337742
0.337742
0.337742
0.337743
0.337743
0.337744
0.337744
0.337744
0.337745
0.337745
0.337745
0.337746
0.337746
0.337746
0.337747
0.337747
0.337747
0.337748
0.337748
0.337748
0.337748
0.337749
0.337749
0.337749
0.33775
0.33775
0.33775
0.33775
0.337751
0.337751
0.337751
0.337752
0.337752
0.337752
0.337752
0.337753
0.337753
0.337753
0.337753
0.337754
0.337754
0.337754
0.337754
0.337755
0.337755
0.337755
0.337755
0.337756
0.337756
0.337756
0.337756
0.337756
0.337757
0.337757
0.337757
0.337757
0.337758
0.337758
0.337758
0.337758
0.337758
0.337759
0.337759
0.337759
0.337759
0.337759
0.33776
0.33776
0.33776
0.33776
0.33776
0.33776
0.337761
0.337761
0.337761
0.337761
0.337761
0.337761
0.337762
0.337762
0.337762
0.337762
0.337762
0.337762
0.337763
0.337763
0.337763
0.337763
0.337763
0.337763
0.337764
0.337764
0.337764
0.337764
0.337764
0.337764
0.337764
0.337765
0.337765
0.337765
0.337765
0.337765
0.337765
0.337765
0.337766
0.337766
0.337766
0.337766
0.337766
0.337766
0.337781
0.337781
0.337781
0.337781
0.337781
0.337781
0.337781
0.337781
0.337781
0.337781
0.337781
0.337781
0.337781
0.337781
0.337781
0.337781
0.337781
0.337781
0.337781
0.337781
0.337781
0.337781
0.337781
0.337781
0.337781
0.337781
0.337781
0.337781
0.337781
0.337781
0.337781
0.337781
0.337781
0.337781
0.337781
0.337781
0.337781
0.337781
0.337781
0.337781
0.337781
0.337781
0.337781
0.337781
0.337781
0.337781
0.337781
0.337781
0.337781
0.337781
0.337781
0.337781
0.337781
0.337781
0.337781
0.337781
0.337781
0.337781
0.337781
0.337781
0.337781
0.337781
0.337781
0.337781
0.337781
0.337781
0.337781
0.337781
0.337781
0.337781
0.337781
0.337781
0.337781
0.337781
0.337781
0.337781
0.337781
0.337781
0.337781
0.337781
0.337781
0.337781
0.337781
0.337781
0.337781
0.337781
0.337781
0.337781
0.337781
0.337781
0.337781
0.337781
0.337781
0.337781
0.337781
0.337781
0.337781
0.337781
0.337781
0.337781
0.337781
0.337781
0.337781
0.337781
0.337781
0.337781
0.337781
0.337781
0.337781
0.337781
0.337781
0.337781
0.337781
0.337781
0.337781
0.337781
0.337781
0.337781
0.337781
0.337781
0.337781
0.337781
0.337781
0.337781
0.337781
0.337781
0.337781
0.337781
0.337781
0.337781
0.337781
0.337781
0.337781
0.337781
0.337781
0.337781