/*--------------------------------*- C++ -*----------------------------------*\
| =========                 |                                                 |
| \\      /  F ield         | OpenFOAM: The Open Source CFD Toolbox           |
|  \\    /   O peration     | Version:  2112                                  |
|   \\  /    A nd           | Website:  www.openfoam.com                      |
|    \\/     M anipulation  |                                                 |
\*---------------------------------------------------------------------------*/
FoamFile
{
    version     2.0;
    format      ascii;
    arch        "LSB;label=32;scalar=64";
    class       surfaceScalarField;
    location    "8e-05";
    object      phi;
}
// * * * * * * * * * * * * * * * * * * * * * * * * * * * * * * * * * * * * * //

dimensions      [1 0 -1 0 0 0 0];

oriented        oriented;

internalField   nonuniform List<scalar> 
27436
(
-0.821239
8.66863
-0.329078
7.59252
-0.195198
7.74058
-0.146531
7.86531
-0.0992559
7.92984
-0.0750206
7.97105
-0.0540853
7.99504
-0.0382583
8.00725
-0.0254681
8.01342
-0.014209
8.01623
-0.00361559
8.01739
0.0066861
8.01784
0.0169031
8.01795
0.0272483
8.01784
0.037862
8.01745
0.0489553
8.01647
0.061605
8.01369
0.0774298
8.0074
0.0983405
7.99518
0.122233
7.9713
0.169588
7.93015
0.217545
7.86593
0.350722
7.74083
0.835992
7.5947
8.64046
-0.616916
9.528
-0.471087
7.81411
-0.287221
7.91025
-0.1801
8.05286
-0.117585
8.11255
-0.0795425
8.14784
-0.0550769
8.17054
-0.0382255
8.18224
-0.0252507
8.18822
-0.0140544
8.19101
-0.00357516
8.19217
0.00662801
8.19261
0.0167635
8.19272
0.0270088
8.19261
0.0374937
8.1921
0.0485495
8.19085
0.0613504
8.18806
0.0780714
8.18214
0.102321
8.1705
0.139984
8.14779
0.201837
8.11249
0.307911
8.05294
0.491844
7.90969
0.633109
7.81388
9.56555
-0.655637
10.3064
-0.530866
7.44211
-0.365373
7.23393
-0.249777
7.24329
-0.179751
7.2818
-0.136201
7.32304
-0.108228
7.34823
-0.0885001
7.36303
-0.0728283
7.37025
-0.058953
7.37331
-0.0457798
7.37446
-0.0328559
7.37486
-0.0199859
7.37494
-0.0070267
7.3748
0.00616415
7.37429
0.0199838
7.37306
0.0355669
7.37
0.0552384
7.36281
0.0831873
7.34804
0.126728
7.32266
0.196647
7.28109
0.311197
7.24315
0.473777
7.23674
0.601572
7.44382
10.2874
-0.427448
10.4403
-0.394269
7.70981
-0.321832
7.67751
-0.241873
7.74247
-0.178498
7.8416
-0.134667
7.93632
-0.105171
7.98763
-0.0832617
8.01602
-0.0653074
8.02903
-0.0491143
8.03438
-0.0336788
8.0363
-0.0185188
8.03694
-0.00340437
8.0371
0.011778
8.03689
0.027211
8.03631
0.0433627
8.03466
0.0612465
8.02943
0.0830466
8.01634
0.112407
7.98802
0.155977
7.93694
0.218671
7.8428
0.296867
7.7452
0.36398
7.68573
0.391342
7.7154
10.4104
0.260974
11.4953
0.0856587
10.08
-0.0901672
10.0144
-0.131288
9.89792
-0.120468
9.92631
-0.0980233
9.98136
-0.0755364
10.0193
-0.0556182
10.0395
-0.0376781
10.049
-0.0210119
10.053
-0.00500065
10.0545
0.0107442
10.0551
0.0264317
10.0552
0.0421676
10.055
0.0581599
10.0545
0.074811
10.053
0.0926492
10.0492
0.112281
10.0398
0.134259
10.0199
0.155953
9.98259
0.165617
9.92847
0.122291
9.9012
-0.0586191
10.0216
-0.217839
10.0721
11.5311
0.815552
9.85006
0.486873
9.37824
0.187345
9.49101
0.0301196
9.42724
-0.0255319
9.44782
-0.0372174
9.48651
-0.0326323
9.51249
-0.0237238
9.52558
-0.0139886
9.53142
-0.00430287
9.53399
0.00521204
9.53506
0.0146067
9.53548
0.0239485
9.53555
0.0333215
9.53541
0.0428128
9.53501
0.0524885
9.53401
0.0621645
9.53152
0.0709083
9.52578
0.0752747
9.51294
0.0634993
9.48715
0.00623457
9.44903
-0.14611
9.42518
-0.446454
9.49476
-0.7743
9.35573
9.90234
0.572368
7.03887
0.396383
7.13111
0.189102
7.2851
0.0560661
7.30502
-0.00769639
7.32763
-0.0379007
7.34151
-0.0534355
7.3508
-0.0642264
7.35524
-0.0737422
7.35721
-0.0830338
7.35822
-0.092351
7.35875
-0.101709
7.35904
-0.111097
7.35912
-0.120466
7.35906
-0.129767
7.35884
-0.139019
7.35835
-0.148455
7.35735
-0.159203
7.35541
-0.174629
7.35102
-0.20432
7.34153
-0.26744
7.3265
-0.406504
7.30784
-0.594396
7.27222
-0.774486
7.11334
6.90418
0.203107
2.99571
0.226425
2.99655
0.175453
3.01977
0.127493
3.00513
0.0996099
2.9999
0.0827452
2.99808
0.0709705
2.99832
0.0609903
2.99894
0.051447
2.99941
0.0419236
2.9997
0.0323556
2.99985
0.0227634
2.99992
0.0131655
2.9999
0.00357334
2.99985
-0.00598149
2.99977
-0.0155017
2.99956
-0.0250586
2.99921
-0.0350753
2.99868
-0.0469671
2.99802
-0.0640456
2.99775
-0.0926363
2.99955
-0.13742
3.00583
-0.188731
3.01774
-0.154032
2.9917
2.962
-0.000311694
0.254254
0.00915691
0.282846
0.0107985
0.295672
0.00787896
0.294138
0.00605401
0.294219
0.00547478
0.294521
0.0053994
0.294904
0.00547989
0.295206
0.00557395
0.295388
0.00565099
0.295489
0.00571297
0.295547
0.00576904
0.295587
0.00582282
0.295619
0.00587804
0.295639
0.00594269
0.295644
0.00601998
0.295626
0.00611207
0.295563
0.006185
0.295418
0.00609071
0.295154
0.00546969
0.294811
0.00354256
0.294544
0.00154349
0.294763
0.00292666
0.295884
0.0144651
0.282831
0.250696
-0.0173973
0.0215279
-0.0193523
0.0247561
-0.0194465
0.0270021
-0.0180217
0.0273964
-0.0160809
0.0275493
-0.0140172
0.0275906
-0.0119278
0.0276079
-0.00983031
0.0276156
-0.00773002
0.0276172
-0.00562904
0.027615
-0.00352816
0.0276108
-0.00142749
0.0276059
0.000673093
0.0276012
0.0027732
0.027596
0.00487301
0.0275906
0.00697216
0.0275843
0.00906985
0.0275759
0.0111639
0.0275638
0.0132492
0.0275453
0.015308
0.0275174
0.0172356
0.0274646
0.0186532
0.0273066
0.0185761
0.0268639
0.0166925
0.0245364
0.0211468
-0.00254127
0.012068
-0.00599316
0.0130075
-0.00853316
0.0153818
-0.0086903
0.0161213
-0.00788574
0.0163834
-0.00684041
0.0164353
-0.00575226
0.0164432
-0.0046576
0.0164442
-0.00356202
0.0164443
-0.0024663
0.0164443
-0.00137053
0.0164443
-0.000274748
0.0164443
0.000821053
0.0164444
0.00191686
0.0164444
0.00301266
0.0164446
0.00410844
0.0164447
0.00520407
0.0164448
0.00629877
0.0164449
0.00738677
0.0164439
0.00842862
0.0164362
0.00921376
0.0163855
0.00899044
0.0161301
0.0063056
0.0154116
0.00263804
0.0130131
0.0121662
-0.00140613
0.0115471
-0.00512478
0.0115857
-0.00838019
0.0141184
-0.00894343
0.0148066
-0.00826423
0.0151035
-0.00722836
0.0151746
-0.00612285
0.0151872
-0.00500619
0.0151889
-0.00388799
0.0151891
-0.00276962
0.0151891
-0.00165123
0.0151891
-0.000532829
0.0151891
0.00058557
0.0151891
0.00170397
0.0151892
0.00282237
0.0151892
0.00394075
0.0151892
0.00505896
0.0151891
0.00617571
0.015189
0.0072817
0.0151875
0.00831984
0.0151762
0.00900766
0.0151111
0.00846378
0.0148329
0.00522724
0.0141912
0.00149505
0.0117205
0.0118397
-0.000793653
0.0114117
-0.00450984
0.0107675
-0.00809392
0.0130848
-0.00894161
0.0136776
-0.00838807
0.013969
-0.00738128
0.0140403
-0.0062757
0.0140537
-0.00515296
0.014056
-0.00402769
0.0140563
-0.00290209
0.0140563
-0.00177645
0.0140563
-0.000650807
0.0140563
0.000474837
0.0140563
0.00160048
0.0140563
0.00272612
0.0140563
0.00385173
0.0140563
0.00497704
0.0140563
0.00610005
0.014056
0.00720739
0.014054
0.00822329
0.0140422
0.00881143
0.0139789
0.00805008
0.0137158
0.00460943
0.0131772
0.000945992
0.0109688
0.0116659
-0.000371945
0.0112853
-0.00389216
0.0104055
-0.00749769
0.0122355
-0.00853567
0.0126782
-0.0081456
0.012926
-0.00724467
0.0129906
-0.00622222
0.0130038
-0.00517678
0.013006
-0.00412764
0.0130063
-0.00307798
0.0130064
-0.00202826
0.0130064
-0.000978525
0.0130064
7.1208e-05
0.0130064
0.00112094
0.0130064
0.00217067
0.0130064
0.00322033
0.0130064
0.00426952
0.0130063
0.00531532
0.0130059
0.00633996
0.0130032
0.00725192
0.0129873
0.00768274
0.0129113
0.0067402
0.012627
0.00323513
0.0120937
-1.75992e-05
0.0101267
0.0105877
0.000767715
0.0106138
-0.00240003
0.00997846
-0.00583532
0.0113814
-0.00692813
0.0117348
-0.00665961
0.0119577
-0.00586017
0.0120207
-0.00492472
0.0120348
-0.00396169
0.0120373
-0.00299387
0.0120376
-0.00202532
0.0120377
-0.00105667
0.0120377
-8.80126e-05
0.0120377
0.00088065
0.0120377
0.00184931
0.0120377
0.00281795
0.0120377
0.00378647
0.0120377
0.00475404
0.0120376
0.0057156
0.0120371
0.00664344
0.012034
0.00741082
0.0120171
0.00758168
0.0119428
0.00628976
0.0116869
0.00263909
0.0112918
-0.000606321
0.00979707
0.0102621
5.18396e-05
0.0117769
-0.00266731
0.0104694
-0.00572696
0.0111045
-0.00680564
0.011027
-0.00660696
0.0110557
-0.00584461
0.0110655
-0.00492042
0.0110685
-0.0039601
0.0110691
-0.00299291
0.0110692
-0.00202458
0.0110692
-0.00105607
0.0110692
-8.75459e-05
0.0110692
0.000880985
0.0110692
0.00184951
0.0110692
0.00281801
0.0110692
0.00378632
0.0110692
0.00475333
0.0110692
0.00571264
0.0110691
0.0066319
0.0110688
0.00737437
0.0110672
0.0075117
0.0110632
0.00629709
0.0110507
0.00302796
0.0111584
9.8402e-05
0.0104759
0.0120231
0.000386012
0.0130305
-0.00163402
0.0110399
-0.00377525
0.0108596
-0.00455177
0.0106159
-0.00447236
0.0104979
-0.00400534
0.0104677
-0.00342777
0.0104618
-0.00282511
0.0104607
-0.0022175
0.0104606
-0.00160901
0.0104605
-0.00100038
0.0104605
-0.000391734
0.0104605
0.000216916
0.0104605
0.000825564
0.0104605
0.00143419
0.0104605
0.0020427
0.0104605
0.00265039
0.0104606
0.00325348
0.0104607
0.00383299
0.0104619
0.00430702
0.0104682
0.00440439
0.0105004
0.00366906
0.0106273
0.00156559
0.0108484
-0.000484198
0.0110565
0.0132201
-9.42354e-05
0.013486
-0.000620818
0.0110381
-0.00121035
0.0107939
-0.00145336
0.0104998
-0.00146232
0.0103705
-0.00136859
0.0103382
-0.00124632
0.0103316
-0.00111755
0.0103304
-0.000987455
0.0103302
-0.000857127
0.0103302
-0.000726759
0.0103301
-0.000596386
0.0103301
-0.000466011
0.0103301
-0.000335637
0.0103301
-0.000205269
0.0103301
-7.49329e-05
0.0103302
5.52021e-05
0.0103302
0.000184235
0.0103303
0.000307813
0.010331
0.000408055
0.010335
0.00043409
0.010355
0.000334235
0.0104356
2.53035e-05
0.0107139
-0.000157566
0.0109197
0.0132795
0.000661935
0.0110996
0.00271226
0.00990208
0.00464282
0.0107426
0.0053316
0.0108143
0.00517463
0.0109218
0.00466222
0.010954
0.00405477
0.0109619
0.00342631
0.0109633
0.00279371
0.0109636
0.00216038
0.0109636
0.00152693
0.0109636
0.000893462
0.0109636
0.000259994
0.0109636
-0.000373473
0.0109636
-0.00100693
0.0109636
-0.00164028
0.0109636
-0.00227303
0.0109636
-0.00290227
0.0109634
-0.0035134
0.0109622
-0.00404064
0.0109559
-0.00424939
0.0109303
-0.00371793
0.0108451
-0.00203723
0.0108227
-0.000333922
0.0100177
0.0114839
-0.000206366
0.00930339
0.00275223
0.00915806
0.0062232
0.0108815
0.00767663
0.0115179
0.00757558
0.0118942
0.0067601
0.0120087
0.00573914
0.0120353
0.00467221
0.0120402
0.00359644
0.012041
0.00251918
0.0120411
0.00144168
0.0120411
0.00036416
0.0120411
-0.000713367
0.0120411
-0.00179089
0.0120411
-0.00286838
0.0120411
-0.00394564
0.0120411
-0.00502139
0.012041
-0.00608821
0.0120402
-0.00710863
0.0120351
-0.00792168
0.0120079
-0.00801321
0.0118918
-0.00654102
0.0115122
-0.00303936
0.0108684
-1.14188e-05
0.00906194
0.00924698
-0.000879445
0.0094842
0.00224027
0.00984749
0.00595686
0.0118042
0.00741528
0.0126037
0.00725986
0.0129674
0.00643208
0.0130661
0.00542702
0.0130867
0.00438517
0.0130902
0.00333676
0.0130907
0.00228733
0.0130907
0.00123775
0.0130907
0.000188154
0.0130907
-0.000861445
0.0130907
-0.00191104
0.0130907
-0.00296062
0.0130907
-0.00401002
0.0130907
-0.00505825
0.0130907
-0.006099
0.0130901
-0.0070983
0.0130859
-0.00790087
0.013062
-0.00797364
0.0129496
-0.00633524
0.012544
-0.00240611
0.011635
0.000863361
0.00955502
0.00912036
2.22825e-06
0.0106879
0.00287121
0.01129
0.00629854
0.0130552
0.00734163
0.0137027
0.00700241
0.0139757
0.00617464
0.014041
0.00523493
0.0140532
0.00427422
0.0140551
0.00331011
0.0140554
0.00234551
0.0140554
0.00138086
0.0140554
0.000416188
0.0140554
-0.000548479
0.0140554
-0.00151315
0.0140554
-0.0024778
0.0140554
-0.00344239
0.0140554
-0.00440643
0.0140554
-0.00536669
0.0140551
-0.00630389
0.014053
-0.00711992
0.0140399
-0.0074179
0.0139703
-0.00628113
0.013683
-0.00273861
0.0129941
0.000173836
0.0111863
0.0104835
0.000678511
0.0120331
0.00344897
0.0126836
0.00634645
0.0141784
0.00698823
0.0146789
0.00654163
0.0148633
0.00576654
0.0149019
0.0049257
0.0149083
0.00407371
0.0149092
0.00322007
0.0149093
0.00236621
0.0149093
0.00151233
0.0149093
0.000658451
0.0149093
-0.000195432
0.0149093
-0.00104931
0.0149093
-0.00190319
0.0149093
-0.00275705
0.0149093
-0.0036107
0.0149093
-0.00446276
0.0149092
-0.00530412
0.0149083
-0.00608248
0.0149022
-0.00654593
0.0148656
-0.00596351
0.014691
-0.003179
0.0142219
-0.000549834
0.0127932
0.0122801
0.00111352
0.0136812
0.00354568
0.0139949
0.00583118
0.0151915
0.00611324
0.0155317
0.00559609
0.0156485
0.00487411
0.0156699
0.00411619
0.0156731
0.00335274
0.0156735
0.00258854
0.0156736
0.00182425
0.0156736
0.00105995
0.0156736
0.000295657
0.0156736
-0.00046864
0.0156736
-0.00123294
0.0156736
-0.00199723
0.0156736
-0.00276152
0.0156736
-0.00352572
0.0156736
-0.00428918
0.0156735
-0.00504717
0.0156731
-0.00576951
0.0156699
-0.00628798
0.0156484
-0.00600544
0.015531
-0.00370827
0.0151896
-0.00123067
0.013985
0.013658
0.00177402
0.0144814
0.00414309
0.0149287
0.00612806
0.0160344
0.00621144
0.0163269
0.00562668
0.0164182
0.00489224
0.0164333
0.00413409
0.0164353
0.00337258
0.0164355
0.00261066
0.0164356
0.00184869
0.0164356
0.00108672
0.0164356
0.000324746
0.0164356
-0.000437227
0.0164356
-0.0011992
0.0164356
-0.00196117
0.0164356
-0.00272314
0.0164356
-0.00348506
0.0164356
-0.00424655
0.0164355
-0.00500459
0.0164353
-0.00573826
0.0164332
-0.00631867
0.016418
-0.00621867
0.0163252
-0.00420035
0.0160235
-0.00179698
0.0148995
0.0143757
0.00204339
0.015252
0.00428995
0.0158023
0.00604672
0.0168086
0.00603474
0.0170609
0.00545917
0.0171324
0.00476942
0.0171432
0.00406283
0.0171445
0.003354
0.0171447
0.00264492
0.0171447
0.0019358
0.0171447
0.00122668
0.0171447
0.000517562
0.0171447
-0.000191556
0.0171447
-0.000900675
0.0171447
-0.00160979
0.0171447
-0.00231891
0.0171447
-0.003028
0.0171447
-0.00373685
0.0171447
-0.00444356
0.0171445
-0.00513428
0.0171432
-0.00571572
0.0171329
-0.00575441
0.0170643
-0.00406193
0.0168291
-0.00190339
0.0158593
0.0155189
0.0020986
0.0163779
0.00407963
0.0167088
0.00552179
0.0175653
0.00538758
0.0177597
0.00480608
0.0178125
0.00414278
0.0178198
0.00346826
0.0178207
0.00279232
0.0178208
0.00211623
0.0178208
0.00144013
0.0178208
0.000764023
0.0178208
8.79173e-05
0.0178208
-0.000588189
0.0178208
-0.00126429
0.0178208
-0.0019404
0.0178208
-0.0026165
0.0178208
-0.00329259
0.0178208
-0.00396852
0.0178208
-0.00464295
0.0178207
-0.00530552
0.0178198
-0.00588208
0.0178119
-0.00598898
0.0177552
-0.00446252
0.0175426
-0.00235352
0.0166358
0.0160886
0.00248581
0.0169409
0.00440915
0.0174465
0.00570354
0.0182447
0.00551446
0.0184206
0.0049383
0.0184648
0.00429738
0.0184705
0.00364805
0.0184712
0.00299772
0.0184712
0.00234728
0.0184712
0.00169683
0.0184712
0.00104638
0.0184712
0.00039593
0.0184712
-0.00025452
0.0184712
-0.00090497
0.0184712
-0.00155542
0.0184712
-0.00220587
0.0184712
-0.00285631
0.0184712
-0.00350664
0.0184712
-0.00415594
0.0184712
-0.00479665
0.0184705
-0.00537155
0.0184649
-0.00555705
0.0184215
-0.00426545
0.0182435
-0.00236104
0.0174508
0.0168506
0.00255663
0.0174166
0.00436874
0.0181585
0.00551949
0.018875
0.0053115
0.0190317
0.00477073
0.0190668
0.00417777
0.019071
0.0035783
0.0190715
0.00297807
0.0190715
0.00237778
0.0190715
0.00177747
0.0190715
0.00117717
0.0190715
0.000576864
0.0190715
-2.34399e-05
0.0190715
-0.000623744
0.0190715
-0.00122405
0.0190715
-0.00182435
0.0190715
-0.00242465
0.0190715
-0.00302488
0.0190715
-0.00362444
0.0190715
-0.00421815
0.0190711
-0.0047644
0.0190673
-0.00500428
0.0190354
-0.00395764
0.0189016
-0.00230254
0.018254
0.017869
0.00216588
0.018627
0.00360521
0.018956
0.00446502
0.0194877
0.00420613
0.0195919
0.00370017
0.0196152
0.0031583
0.0196179
0.00261218
0.0196182
0.00206559
0.0196182
0.00151897
0.0196182
0.000972335
0.0196182
0.000425704
0.0196182
-0.000120928
0.0196182
-0.00066756
0.0196182
-0.00121419
0.0196182
-0.00176082
0.0196182
-0.00230745
0.0196182
-0.00285408
0.0196182
-0.00340066
0.0196182
-0.00394673
0.0196181
-0.00448814
0.0196178
-0.00499058
0.0196148
-0.00522449
0.0195884
-0.00426377
0.0194654
-0.00264265
0.0188639
0.0182004
0.0024714
0.0191448
0.00386995
0.0195268
0.00464873
0.0200088
0.00439053
0.0200994
0.00391989
0.0201188
0.00342059
0.0201209
0.00291802
0.0201211
0.00241511
0.0201211
0.00191216
0.0201211
0.00140921
0.0201211
0.000906263
0.0201211
0.000403315
0.0201211
-9.96336e-05
0.0201211
-0.000602582
0.0201211
-0.00110553
0.0201211
-0.00160848
0.0201211
-0.00211142
0.0201211
-0.00261434
0.0201211
-0.0031169
0.0201211
-0.00361618
0.0201209
-0.00408668
0.0201189
-0.00434629
0.0201002
-0.00358405
0.0200108
-0.00223309
0.0195416
0.0191241
0.00254353
0.0193899
0.00386611
0.0200522
0.00455921
0.0205023
0.00429083
0.020588
0.00383325
0.0206044
0.00335117
0.0206061
0.00286637
0.0206062
0.0023813
0.0206062
0.00189619
0.0206062
0.00141109
0.0206062
0.000925981
0.0206062
0.000440876
0.0206062
-4.42295e-05
0.0206062
-0.000529335
0.0206062
-0.00101444
0.0206062
-0.00149955
0.0206062
-0.00198465
0.0206062
-0.00246973
0.0206062
-0.00295456
0.0206062
-0.0034369
0.0206061
-0.00389662
0.0206046
-0.00417995
0.0205897
-0.00354564
0.020516
-0.00232423
0.0201128
0.0197381
0.00202814
0.0203492
0.00308868
0.0206387
0.00362195
0.0209669
0.00335664
0.0210242
0.00294629
0.0210354
0.00251808
0.0210364
0.00208796
0.0210365
0.00165766
0.0210366
0.00122734
0.0210366
0.000797014
0.0210366
0.000366691
0.0210366
-6.36319e-05
0.0210366
-0.000493955
0.0210366
-0.000924278
0.0210366
-0.0013546
0.0210366
-0.00178492
0.0210366
-0.00221524
0.0210366
-0.00264555
0.0210366
-0.00307565
0.0210365
-0.00350369
0.0210364
-0.00391264
0.0210352
-0.00416633
0.0210228
-0.00357711
0.0209553
-0.00239893
0.0205846
0.0200257
0.00223298
0.0207687
0.00326478
0.0210732
0.00375523
0.0213702
0.00350465
0.0214203
0.00312691
0.0214299
0.00273432
0.0214308
0.00234019
0.0214308
0.0019459
0.0214309
0.0015516
0.0214309
0.00115731
0.0214309
0.000763006
0.0214309
0.000368708
0.0214309
-2.55911e-05
0.0214309
-0.00041989
0.0214309
-0.000814189
0.0214309
-0.00120849
0.0214309
-0.00160279
0.0214309
-0.00199707
0.0214309
-0.00239121
0.0214308
-0.00278384
0.0214308
-0.003162
0.0214299
-0.00341721
0.0214211
-0.00295855
0.0213743
-0.00199561
0.0210954
0.0208344
0.00231491
0.0208681
0.00329026
0.0214746
0.00372279
0.0217636
0.00346171
0.0218137
0.00308429
0.0218222
0.00269364
0.0218229
0.00230162
0.021823
0.00190948
0.021823
0.00151732
0.021823
0.00112516
0.021823
0.000733006
0.021823
0.000340849
0.021823
-5.13089e-05
0.021823
-0.000443466
0.021823
-0.000835624
0.021823
-0.00122778
0.021823
-0.00161994
0.021823
-0.00201208
0.021823
-0.00240411
0.021823
-0.00279489
0.0218229
-0.00317335
0.0218222
-0.00344245
0.0218145
-0.00304323
0.021772
-0.00213305
0.0215165
0.0212016
0.00175045
0.0216628
0.00252923
0.0219255
0.00286503
0.0221291
0.00262127
0.0221623
0.00228669
0.0221681
0.00194214
0.0221686
0.00159659
0.0221686
0.00125096
0.0221687
0.000905315
0.0221687
0.000559671
0.0221687
0.000214027
0.0221687
-0.000131617
0.0221687
-0.00047726
0.0221687
-0.000822904
0.0221687
-0.00116855
0.0221687
-0.00151419
0.0221687
-0.00185983
0.0221687
-0.00220547
0.0221687
-0.002551
0.0221686
-0.00289543
0.0221686
-0.00322895
0.022168
-0.0034631
0.0221612
-0.00307617
0.0221193
-0.00218096
0.0218726
0.0213112
0.00190947
0.0219936
0.00267337
0.0222594
0.00299026
0.0224426
0.00277167
0.0224717
0.00247258
0.0224767
0.00216499
0.0224771
0.00185657
0.0224772
0.00154807
0.0224772
0.00123956
0.0224772
0.000931052
0.0224772
0.000622544
0.0224772
0.000314036
0.0224772
5.52865e-06
0.0224772
-0.000302979
0.0224772
-0.000611487
0.0224772
-0.000919994
0.0224772
-0.0012285
0.0224772
-0.001537
0.0224772
-0.00184543
0.0224772
-0.00215304
0.0224771
-0.00245234
0.0224767
-0.00267363
0.0224721
-0.00237749
0.0224447
-0.00166778
0.0222726
0.0220327
0.00196582
0.0220125
0.00268326
0.0225651
0.00295954
0.0227486
0.00273564
0.022779
0.00243745
0.0227835
0.00213153
0.0227839
0.00182485
0.0227839
0.00151811
0.0227839
0.00121137
0.0227839
0.00090462
0.0227839
0.000597874
0.0227839
0.000291127
0.0227839
-1.56196e-05
0.0227839
-0.000322366
0.0227839
-0.000629113
0.0227839
-0.000935859
0.0227839
-0.00124261
0.0227839
-0.00154935
0.0227839
-0.00185603
0.0227839
-0.00216201
0.0227839
-0.00246083
0.0227835
-0.00268997
0.0227795
-0.00243826
0.022755
-0.00177459
0.0226006
0.0223432
0.00140582
0.02268
0.00196245
0.022909
0.00217182
0.0230293
0.00196828
0.0230485
0.00170689
0.0230515
0.00143964
0.0230517
0.00117184
0.0230518
0.000903983
0.0230518
0.000636125
0.0230518
0.000368266
0.0230518
0.000100408
0.0230518
-0.000167451
0.0230518
-0.00043531
0.0230518
-0.000703168
0.0230518
-0.000971027
0.0230518
-0.00123889
0.0230518
-0.00150674
0.0230518
-0.0017746
0.0230518
-0.0020424
0.0230518
-0.00230957
0.0230517
-0.00257021
0.0230514
-0.00276658
0.0230477
-0.00251543
0.0230218
-0.00185467
0.0228637
0.0223233
0.00153147
0.0229298
0.00208377
0.0231565
0.00228907
0.0232637
0.00211479
0.0232804
0.00188892
0.023283
0.00165797
0.0232832
0.00142654
0.0232832
0.00119507
0.0232832
0.000963597
0.0232832
0.000732124
0.0232832
0.00050065
0.0232832
0.000269177
0.0232832
3.77037e-05
0.0232832
-0.00019377
0.0232832
-0.000425243
0.0232832
-0.000656716
0.0232832
-0.000888189
0.0232832
-0.00111966
0.0232832
-0.00135109
0.0232832
-0.00158206
0.0232832
-0.00180809
0.023283
-0.0019844
0.0232807
-0.00179499
0.0232649
-0.00128954
0.0231651
0.0229482
0.00157921
0.0228738
0.00209406
0.0233786
0.00226988
0.0234924
0.00209257
0.023511
0.00186734
0.0235134
0.00163742
0.0235136
0.00140707
0.0235136
0.00117668
0.0235136
0.000946292
0.0235136
0.0007159
0.0235136
0.000485508
0.0235136
0.000255116
0.0235136
2.47237e-05
0.0235136
-0.000205669
0.0235136
-0.000436061
0.0235136
-0.000666453
0.0235136
-0.000896845
0.0235136
-0.00112723
0.0235136
-0.00135759
0.0235136
-0.00158755
0.0235136
-0.00181321
0.0235135
-0.00199447
0.0235114
-0.00183987
0.0234976
-0.00137482
0.0234109
0.0232012
0.00103447
0.0234327
0.00141566
0.0236316
0.00154381
0.0236979
0.00138752
0.0237087
0.00119462
0.0237103
0.000998224
0.0237104
0.000801504
0.0237104
0.000604756
0.0237104
0.000408007
0.0237104
0.000211257
0.0237104
1.45076e-05
0.0237104
-0.000182242
0.0237104
-0.000378992
0.0237104
-0.000575741
0.0237104
-0.000772491
0.0237104
-0.00096924
0.0237104
-0.00116599
0.0237104
-0.00136274
0.0237104
-0.00155945
0.0237104
-0.0017558
0.0237104
-0.00194818
0.0237102
-0.00209922
0.0237082
-0.00193822
0.0236923
-0.00146848
0.0235953
0.0230985
0.00113643
0.0236152
0.00151751
0.0238056
0.00164782
0.0238635
0.00151998
0.0238728
0.00135956
0.023874
0.00119609
0.0238741
0.00103234
0.0238742
0.000868573
0.0238742
0.000704801
0.0238742
0.000541028
0.0238742
0.000377255
0.0238742
0.000213482
0.0238742
4.97095e-05
0.0238742
-0.000114063
0.0238742
-0.000277836
0.0238742
-0.000441609
0.0238742
-0.000605381
0.0238742
-0.000769153
0.0238742
-0.000932901
0.0238742
-0.00109638
0.0238741
-0.00125691
0.0238741
-0.00138618
0.0238729
-0.00126684
0.0238639
-0.000922152
0.0238093
0.0236091
0.00118267
0.0235002
0.00153429
0.0239553
0.00164325
0.0240236
0.0015143
0.0240351
0.00135508
0.0240364
0.00119303
0.0240365
0.00103072
0.0240365
0.000868389
0.0240365
0.000706056
0.0240365
0.000543722
0.0240365
0.000381388
0.0240365
0.000219055
0.0240365
5.6721e-05
0.0240365
-0.000105613
0.0240365
-0.000267946
0.0240365
-0.00043028
0.0240365
-0.000592613
0.0240365
-0.000754946
0.0240365
-0.000917259
0.0240365
-0.00107934
0.0240365
-0.00123887
0.0240364
-0.00137087
0.0240354
-0.00128041
0.0240279
-0.000974378
0.0239833
0.0238093
0.000673086
0.0239578
0.000914961
0.0241289
0.000990273
0.0241619
0.000882413
0.0241679
0.00075245
0.0241686
0.00062045
0.0241687
0.000488268
0.0241687
0.000356072
0.0241687
0.000223875
0.0241687
9.16773e-05
0.0241687
-4.052e-05
0.0241687
-0.000172717
0.0241687
-0.000304915
0.0241687
-0.000437112
0.0241687
-0.00056931
0.0241687
-0.000701507
0.0241687
-0.000833704
0.0241687
-0.0009659
0.0241687
-0.00109808
0.0241687
-0.00123004
0.0241687
-0.00135965
0.0241686
-0.0014638
0.0241676
-0.00136396
0.0241581
-0.00105198
0.0241025
0.0236828
0.000754858
0.0240824
0.000995846
0.0242408
0.00107353
0.0242687
0.000989284
0.0242736
0.000885653
0.0242742
0.000780262
0.0242742
0.000674713
0.0242742
0.000569152
0.0242742
0.000463589
0.0242742
0.000358027
0.0242742
0.000252464
0.0242742
0.000146902
0.0242742
4.13391e-05
0.0242742
-6.42235e-05
0.0242742
-0.000169786
0.0242742
-0.000275349
0.0242742
-0.000380911
0.0242742
-0.000486473
0.0242742
-0.000592022
0.0242742
-0.000697421
0.0242742
-0.000801121
0.0242742
-0.000886206
0.0242736
-0.000814678
0.0242684
-0.000596903
0.02424
0.0240532
0.000800328
0.023926
0.00101917
0.0243277
0.0010822
0.0243684
0.000999316
0.024376
0.000898629
0.0243767
0.000796319
0.0243767
0.000693862
0.0243767
0.000591394
0.0243767
0.000488924
0.0243767
0.000386455
0.0243767
0.000283985
0.0243767
0.000181516
0.0243767
7.90466e-05
0.0243767
-2.34229e-05
0.0243767
-0.000125892
0.0243767
-0.000228362
0.0243767
-0.000330831
0.0243767
-0.0004333
0.0243767
-0.000535758
0.0243767
-0.000638091
0.0243767
-0.000739006
0.0243767
-0.000824216
0.0243763
-0.000776681
0.0243725
-0.000597926
0.0243527
0.0242173
0.000341142
0.0242902
0.000469729
0.0244374
0.000508471
0.0244495
0.000445294
0.0244525
0.000370395
0.0244527
0.000294439
0.0244528
0.000218393
0.0244528
0.000142339
0.0244528
6.62846e-05
0.0244528
-9.76989e-06
0.0244528
-8.58244e-05
0.0244528
-0.000161879
0.0244528
-0.000237933
0.0244528
-0.000313988
0.0244528
-0.000390042
0.0244528
-0.000466097
0.0244528
-0.000542151
0.0244528
-0.000618205
0.0244528
-0.000694249
0.0244528
-0.000770178
0.0244528
-0.000844811
0.0244527
-0.000905104
0.0244523
-0.000845674
0.0244473
-0.000657909
0.0244205
0.0241134
0.000404373
0.0243837
0.000524632
0.0245525
0.000562545
0.0245115
0.000514981
0.0245115
0.0004573
0.0245114
0.000398711
0.0245114
0.000340042
0.0245114
0.000281366
0.0245114
0.00022269
0.0245114
0.000164014
0.0245114
0.000105338
0.0245114
4.66617e-05
0.0245114
-1.20144e-05
0.0245114
-7.06905e-05
0.0245114
-0.000129367
0.0245114
-0.000188043
0.0245114
-0.000246719
0.0245114
-0.000305394
0.0245114
-0.000364063
0.0245114
-0.00042265
0.0245114
-0.000480292
0.0245114
-0.000527385
0.0245114
-0.000484058
0.0245098
-0.000358033
0.0245422
0.0243182
0.00037388
0.0246974
0.000527179
0.0248941
0.000570602
0.0245827
0.000528421
0.0245683
0.000474279
0.0245668
0.000419102
0.0245667
0.000363834
0.0245667
0.000308559
0.0245667
0.000253283
0.0245667
0.000198007
0.0245667
0.00014273
0.0245667
8.74544e-05
0.0245667
3.21783e-05
0.0245667
-2.30978e-05
0.0245667
-7.83739e-05
0.0245667
-0.00013365
0.0245667
-0.000188926
0.0245667
-0.000244202
0.0245667
-0.00029947
0.0245667
-0.000354654
0.0245667
-0.000408866
0.0245668
-0.000451727
0.0245685
-0.0004165
0.0245858
-0.000283672
0.024907
0.0247549
-0.0123754
0.0530347
-0.0140897
0.0547909
-0.0139944
0.0559027
-0.0134994
0.0559622
-0.0129813
0.0559661
-0.0124621
0.0559662
-0.0119428
0.0559662
-0.0114236
0.0559662
-0.0109043
0.0559662
-0.0103851
0.0559662
-0.00986583
0.0559662
-0.00934658
0.0559662
-0.00882732
0.0559662
-0.00830807
0.0559662
-0.00778881
0.0559662
-0.00726956
0.0559662
-0.00675031
0.0559662
-0.00623105
0.0559662
-0.0057118
0.0559662
-0.00519254
0.0559662
-0.00467329
0.0559662
-0.00415403
0.0559662
-0.00363478
0.0559662
-0.00311553
0.0559662
-0.00259627
0.0559662
-0.00207701
0.0559662
-0.00155754
0.0559662
-0.00103137
0.0559655
-0.000382609
0.0559299
0.0559548
-0.0143266
0.0563715
-0.0159574
0.0545231
-0.0158361
0.0553509
-0.0152733
0.0553763
-0.0146869
0.0553787
-0.0140994
0.0553788
-0.013512
0.0553788
-0.0129245
0.0553788
-0.012337
0.0553788
-0.0117495
0.0553788
-0.011162
0.0553788
-0.0105746
0.0553788
-0.0099871
0.0553788
-0.00939962
0.0553788
-0.00881214
0.0553788
-0.00822467
0.0553788
-0.00763719
0.0553788
-0.00704972
0.0553788
-0.00646224
0.0553788
-0.00587476
0.0553788
-0.00528729
0.0553788
-0.00469981
0.0553788
-0.00411233
0.0553788
-0.00352486
0.0553788
-0.00293738
0.0553788
-0.0023499
0.0553788
-0.00176234
0.0553788
-0.00117324
0.0553787
-0.000584713
0.055377
0.0553308
-0.0121651
0.0558042
-0.0134104
0.0541997
-0.0132798
0.0548623
-0.0128025
0.0548844
-0.0123107
0.0548863
-0.0118183
0.0548863
-0.0113258
0.0548863
-0.0108334
0.0548863
-0.010341
0.0548863
-0.00984855
0.0548863
-0.00935613
0.0548863
-0.0088637
0.0548863
-0.00837127
0.0548863
-0.00787884
0.0548863
-0.00738641
0.0548863
-0.00689399
0.0548863
-0.00640156
0.0548863
-0.00590913
0.0548863
-0.0054167
0.0548863
-0.00492428
0.0548863
-0.00443185
0.0548863
-0.00393942
0.0548863
-0.00344699
0.0548863
-0.00295457
0.0548863
-0.00246214
0.0548863
-0.00196971
0.0548863
-0.00147724
0.0548863
-0.000984109
0.0548863
-0.000491001
0.0548861
0.0548363
-0.0103706
0.0545005
-0.0113852
0.0538392
-0.0112582
0.0544458
-0.0108524
0.0544672
-0.0104355
0.0544689
-0.0100181
0.0544689
-0.00960067
0.0544689
-0.00918325
0.0544689
-0.00876583
0.0544689
-0.00834841
0.0544689
-0.00793099
0.0544689
-0.00751357
0.0544689
-0.00709615
0.0544689
-0.00667873
0.0544689
-0.00626131
0.0544689
-0.00584389
0.0544689
-0.00542647
0.0544689
-0.00500905
0.0544689
-0.00459162
0.0544689
-0.0041742
0.0544689
-0.00375678
0.0544689
-0.00333936
0.0544689
-0.00292194
0.0544689
-0.00250452
0.0544689
-0.0020871
0.0544689
-0.00166968
0.0544689
-0.00125222
0.0544689
-0.000834225
0.0544689
-0.000416213
0.0544687
0.0544187
-0.00986205
0.0540054
-0.0108549
0.0535185
-0.0107332
0.0540506
-0.0103465
0.0540695
-0.00994904
0.0540709
-0.0095511
0.0540709
-0.00915313
0.0540709
-0.00875517
0.0540709
-0.00835721
0.0540709
-0.00795925
0.0540709
-0.00756128
0.0540709
-0.00716332
0.0540709
-0.00676536
0.0540709
-0.0063674
0.0540709
-0.00596944
0.0540709
-0.00557147
0.0540709
-0.00517351
0.0540709
-0.00477555
0.0540709
-0.00437759
0.0540709
-0.00397962
0.0540709
-0.00358166
0.0540709
-0.0031837
0.0540709
-0.00278574
0.0540709
-0.00238777
0.0540709
-0.00198981
0.0540709
-0.00159185
0.0540709
-0.00119385
0.0540709
-0.000795336
0.0540709
-0.000396829
0.0540708
0.0540207
-0.0094412
0.0537339
-0.0103869
0.0532091
-0.0102688
0.0536732
-0.00989857
0.0536889
-0.0095183
0.0536902
-0.00913759
0.0536902
-0.00875685
0.0536902
-0.00837612
0.0536902