/*--------------------------------*- C++ -*----------------------------------*\
| =========                 |                                                 |
| \\      /  F ield         | OpenFOAM: The Open Source CFD Toolbox           |
|  \\    /   O peration     | Version:  2112                                  |
|   \\  /    A nd           | Website:  www.openfoam.com                      |
|    \\/     M anipulation  |                                                 |
\*---------------------------------------------------------------------------*/
FoamFile
{
    version     2.0;
    format      ascii;
    arch        "LSB;label=32;scalar=64";
    class       volVectorField;
    location    "8e-05";
    object      U;
}
// * * * * * * * * * * * * * * * * * * * * * * * * * * * * * * * * * * * * * //

dimensions      [0 1 -1 0 0 0 0];

internalField   nonuniform List<vector> 
13875
(
(2249.6 135.599 1.67914e-18)
(2153.83 58.7797 -8.96291e-19)
(2181.64 24.4199 -9.4202e-19)
(2204.62 14.3551 0)
(2215.95 8.17737 0)
(2224.96 4.26302 8.72496e-19)
(2228.62 2.28039 -8.72393e-19)
(2230.56 1.05407 -4.33202e-19)
(2231.47 0.449402 4.32648e-19)
(2231.85 0.183128 0)
(2231.99 0.0709979 -4.13152e-22)
(2232.04 0.0219871 -4.13119e-22)
(2232.06 -0.00381246 0)
(2232.05 -0.033007 -4.31897e-19)
(2232.03 -0.0879853 4.32313e-19)
(2231.96 -0.19533 0)
(2231.58 -0.444771 8.65896e-19)
(2230.63 -1.03739 -8.66643e-19)
(2228.67 -2.25939 4.15232e-22)
(2225 -4.23542 -4.17297e-22)
(2215.99 -8.13265 -8.95431e-19)
(2204.65 -14.2796 8.96345e-19)
(2181.64 -24.2461 -1.8837e-18)
(2153.73 -58.3237 1.89826e-18)
(2247.61 -134.585 1.69235e-18)
(2244.81 134.85 -1.54135e-18)
(2200.13 74.7103 1.83586e-18)
(2215.52 45.8814 8.80457e-19)
(2232.18 24.68 -8.62114e-19)
(2242.34 12.5144 4.25476e-22)
(2248.48 6.06673 4.21686e-22)
(2251.69 2.81538 4.18732e-22)
(2253.3 1.21075 -4.1726e-19)
(2254.03 0.496531 4.16931e-19)
(2254.32 0.200642 2.078e-19)
(2254.43 0.0796303 -1.55729e-19)
(2254.46 0.0244089 -5.07913e-20)
(2254.47 -0.00857918 0)
(2254.47 -0.0458691 -4.16709e-19)
(2254.46 -0.107627 4.15897e-19)
(2254.4 -0.221955 4.16451e-19)
(2254.12 -0.495318 -4.16586e-19)
(2253.38 -1.18566 4.16886e-22)
(2251.76 -2.76707 -4.1851e-22)
(2248.55 -5.98392 4.21642e-22)
(2242.39 -12.3694 -8.53956e-19)
(2232.21 -24.4426 2.58673e-18)
(2215.45 -45.5603 -1.76038e-18)
(2200 -73.8503 4.62197e-22)
(2248.41 -135.959 -1.66595e-18)
(2218.9 133.359 0)
(2185.5 67.9084 0)
(2194.02 49.8325 0)
(2207.69 27.7539 0)
(2216.45 14.0937 -1.79846e-18)
(2221.52 6.74579 1.79105e-18)
(2224.18 3.03377 1.77756e-18)
(2225.47 1.28115 -2.66038e-18)
(2226.05 0.519422 8.85898e-19)
(2226.28 0.209238 4.22006e-22)
(2226.36 0.0835897 -4.42227e-19)
(2226.38 0.0255364 4.42318e-19)
(2226.39 -0.0110861 0)
(2226.39 -0.0514763 0)
(2226.39 -0.114994 4.21906e-22)
(2226.34 -0.235156 0)
(2226.12 -0.526317 9.46046e-22)
(2225.54 -1.26578 4.4354e-19)
(2224.23 -2.99665 -4.44234e-19)
(2221.55 -6.68044 0)
(2216.44 -13.9785 0)
(2207.62 -27.5602 0)
(2193.83 -49.5142 0)
(2185.39 -66.6258 0)
(2218.46 -132.59 0)
(2156.6 82.1896 0)
(2088.67 26.8294 2.18032e-18)
(2074.84 38.4283 -4.38696e-18)
(2079.75 24.5643 4.40573e-18)
(2085.14 13.5135 -2.18999e-18)
(2088.5 6.7358 0)
(2090.25 3.10355 -9.75321e-22)
(2091.08 1.35334 0)
(2091.42 0.562759 0)
(2091.56 0.228564 0)
(2091.6 0.0894837 0)
(2091.61 0.0273817 -9.70495e-22)
(2091.61 -0.0110882 -6.74736e-20)
(2091.61 -0.0520989 6.74746e-20)
(2091.6 -0.11744 0)
(2091.57 -0.253165 0)
(2091.45 -0.575168 1.58948e-21)
(2091.1 -1.3461 -1.08409e-18)
(2090.27 -3.06831 1.08384e-18)
(2088.48 -6.65531 -2.17693e-18)
(2085.08 -13.339 2.19056e-18)
(2079.62 -24.1915 2.20176e-18)
(2074.68 -37.7022 -2.20504e-18)
(2088.62 -24.7474 0)
(2150.07 -79.0274 0)
(1910.93 -18.0485 2.34469e-18)
(1771.24 -58.4719 0)
(1735.87 -7.72499 0)
(1737.33 1.03414 0)
(1743.9 3.31459 0)
(1748.61 2.5847 2.29551e-21)
(1751.06 1.5354 2.28717e-21)
(1752.17 0.802135 5.50487e-19)
(1752.61 0.384728 -5.45264e-19)
(1752.78 0.171891 2.71534e-19)
(1752.83 0.0724982 -2.7605e-19)
(1752.84 0.0251446 0)
(1752.84 -0.00491802 0)
(1752.83 -0.035143 -2.27998e-21)
(1752.81 -0.0822505 0)
(1752.75 -0.180409 -2.28014e-21)
(1752.58 -0.388317 1.09095e-18)
(1752.14 -0.790062 -1.09225e-18)
(1751.03 -1.49135 2.19472e-18)
(1748.58 -2.48673 -2.20257e-18)
(1743.87 -3.11114 2.30961e-21)
(1737.29 -0.710813 0)
(1735.87 7.90946 0)
(1771.1 59.3857 0)
(1911.84 19.3389 0)
(1404.47 -62.0564 0)
(1342.31 -90.3223 1.1453e-18)
(1343.1 -35.4269 -1.12591e-18)
(1356.36 -14.9435 0)
(1366.88 -4.487 1.10821e-18)
(1373.07 -0.873557 -5.55778e-19)
(1376.15 0.0864589 -2.04125e-21)
(1377.51 0.2115 -2.77605e-19)
(1378.05 0.157516 -5.53064e-19)
(1378.26 0.0928082 2.08627e-19)
(1378.33 0.0476013 2.02417e-21)
(1378.35 0.01914 3.42277e-19)
(1378.35 -0.000644979 -2.75476e-19)
(1378.34 -0.0194289 4.09577e-21)
(1378.31 -0.0459377 -5.50935e-19)
(1378.23 -0.0902716 5.5299e-19)
(1378.03 -0.153354 2.02683e-21)
(1377.48 -0.199225 -2.02712e-21)
(1376.13 -0.0588988 -2.02792e-21)
(1373.07 0.918663 -1.10655e-18)
(1366.93 4.53576 1.10619e-18)
(1356.5 14.9497 0)
(1343.44 34.8942 0)
(1342.07 90.4173 -2.38041e-18)
(1404.76 62.6572 -8.32357e-20)
(994.386 -40.6383 -7.56951e-20)
(989.466 -65.1132 7.25521e-20)
(1003.02 -28.0546 0)
(1013.02 -13.782 -2.61083e-23)
(1019.44 -4.80094 -2.59248e-23)
(1023.28 -1.3687 0)
(1025.19 -0.226526 0)
(1026.02 0.0514842 -1.06841e-18)
(1026.35 0.0828422 1.06813e-18)
(1026.48 0.0602352 0)
(1026.53 0.0349909 2.13644e-18)
(1026.54 0.0159412 2.20998e-21)
(1026.55 0.00213625 -2.13659e-18)
(1026.54 -0.0108423 -2.1997e-21)
(1026.52 -0.028685 0)
(1026.47 -0.0541575 4.27309e-18)
(1026.34 -0.0763492 -4.05976e-22)
(1025.99 -0.0376151 -8.54878e-18)
(1025.16 0.262258 4.27666e-18)
(1023.25 1.45089 2.58413e-23)
(1019.41 5.01046 0)
(1012.92 13.9275 4.36548e-18)
(1002.97 27.9506 -4.3463e-18)
(988.803 63.2639 4.62944e-18)
(995.648 39.0667 -4.85613e-18)
(612.944 -5.37868 -4.70453e-20)
(628.914 -22.0133 -7.52169e-18)
(642.456 -11.1994 5.53928e-22)
(646.099 -6.6853 3.72623e-23)
(648.695 -2.35424 -5.04807e-22)
(650.316 -0.673228 0)
(651.192 -0.0828114 -3.55816e-18)
(651.607 0.0557716 3.55798e-18)
(651.792 0.05904 0)
(651.871 0.0387759 -5.40349e-22)
(651.906 0.0220804 -5.40361e-22)
(651.919 0.0109034 0)
(651.921 0.00227249 0)
(651.917 -0.00632825 -1.04378e-21)
(651.904 -0.0185244 -5.40331e-22)
(651.869 -0.0369848 3.69161e-23)
(651.788 -0.0583041 -5.77174e-22)
(651.601 -0.0539284 -3.69126e-23)
(651.185 0.0916213 -1.77974e-18)
(650.309 0.697825 -3.56372e-21)
(648.696 2.46245 1.78279e-18)
(646.249 6.68105 5.82571e-22)
(642.432 10.9575 3.66647e-18)
(628.386 20.5306 -3.72772e-18)
(609.686 3.91507 4.16585e-23)
(212.999 3.36966 3.75088e-19)
(226.704 -0.981221 0)
(232.673 -1.05016 -9.78216e-22)
(232.474 -1.12156 -3.84586e-19)
(232.686 -0.303826 7.69648e-19)
(232.886 -0.0380424 -7.67882e-19)
(233.064 0.0377088 -1.07506e-23)
(233.187 0.0393321 3.83915e-19)
(233.254 0.0253218 0)
(233.286 0.0142076 -3.83063e-19)
(233.3 0.00782491 3.85095e-19)
(233.306 0.00419298 0)
(233.306 0.00156677 0)
(233.302 -0.000910538 2.03753e-21)
(233.293 -0.00490281 9.56638e-22)
(233.272 -0.0120664 3.84098e-19)
(233.233 -0.0237305 -3.83167e-19)
(233.158 -0.0379428 0)
(233.027 -0.0351941 3.83825e-19)
(232.843 0.0429823 -7.67737e-19)
(232.634 0.338431 3.83015e-19)
(232.532 1.12344 -9.65849e-22)
(232.518 0.985351 0)
(226.43 0.625109 0)
(210.818 -3.62711 0)
(24.6112 -1.18575 -1.29879e-17)
(28.3505 -1.7361 1.30555e-17)
(29.9993 -0.455678 0)
(30.0867 -0.146051 -6.50767e-18)
(30.1436 -0.0213017 6.50748e-18)
(30.1706 0.000601742 0)
(30.1951 0.00293543 -6.34125e-21)
(30.2126 0.00208834 -3.25175e-18)
(30.2216 0.00116212 3.24506e-18)
(30.2251 0.000611106 -6.3384e-21)
(30.2256 0.000339693 0)
(30.2249 0.000207793 -8.12495e-19)
(30.2233 0.000110875 1.21234e-18)
(30.221 9.19094e-06 -4.1241e-19)
(30.2179 -0.000153154 -6.1434e-21)
(30.2131 -0.000460334 0)
(30.2051 -0.00103244 0)
(30.1915 -0.00196967 -6.49098e-18)
(30.1693 -0.00277827 6.48363e-18)
(30.1404 -0.00034857 -6.48768e-18)
(30.1084 0.0231458 6.47937e-18)
(30.0654 0.147809 6.49158e-18)
(29.9431 0.458632 -6.47435e-18)
(28.2842 1.70417 -1.29756e-17)
(24.3172 1.15487 -2.12932e-20)
(7.61559 -2.63766 -1.42456e-17)
(8.63549 -3.06529 1.4396e-17)
(10.0292 -0.852438 0)
(10.4262 -0.27265 1.42361e-17)
(10.5556 -0.0543886 -1.42457e-17)
(10.5811 -0.00856145 -7.12344e-18)
(10.5856 -0.00101539 7.1352e-18)
(10.5866 -4.05318e-06 -7.13197e-18)
(10.587 0.000109343 7.13599e-18)
(10.5872 0.000118539 7.18412e-21)
(10.5873 0.000119034 0)
(10.5874 0.000119854 -4.46668e-19)
(10.5874 0.000120259 4.54079e-19)
(10.5875 0.000120619 7.1979e-21)
(10.5875 0.000121031 7.20077e-21)
(10.5874 0.000120797 6.98632e-21)
(10.5873 0.000130039 0)
(10.587 0.000252527 0)
(10.586 0.00134454 -1.43283e-17)
(10.5812 0.00940868 1.43409e-17)
(10.5537 0.057974 -1.43548e-17)
(10.4156 0.285919 2.8744e-17)
(9.99431 0.887617 -1.43659e-17)
(8.5119 3.16215 -7.23395e-21)
(7.45251 2.72469 7.10501e-21)
(7.37841 -3.3081 -1.56951e-17)
(7.61031 -3.78602 1.84858e-19)
(9.30222 -1.09982 3.13493e-17)
(9.78411 -0.398185 -1.56876e-17)
(9.97052 -0.0877862 0)
(10.0105 -0.015412 1.56409e-17)
(10.0172 -0.00224992 -1.56446e-17)
(10.0181 -0.000281344 0)
(10.0182 -2.64951e-05 7.64743e-21)
(10.0182 2.38291e-06 0)
(10.0182 5.37651e-06 0)
(10.0182 5.71475e-06 0)
(10.0182 5.7856e-06 9.78674e-19)
(10.0182 5.90684e-06 -9.78739e-19)
(10.0182 6.31425e-06 -7.64666e-21)
(10.0183 9.13832e-06 -7.6519e-21)
(10.0182 3.65178e-05 0)
(10.0181 0.000280572 0)
(10.0173 0.00218189 0)
(10.011 0.015018 -1.56599e-17)
(9.97277 0.0861711 3.13402e-17)
(9.79299 0.393828 -1.56706e-17)
(9.33227 1.08676 -1.57376e-17)
(7.65241 3.80264 1.57098e-17)
(7.511 3.342 -7.73639e-21)
(7.60984 -3.74047 1.71676e-17)
(7.42198 -4.22534 0)
(9.22306 -1.28557 0)
(9.71396 -0.513957 -1.69206e-17)
(9.93673 -0.123622 1.6937e-17)
(9.98929 -0.0237168 0)
(9.99891 -0.0037496 2.0652e-21)
(10.0003 -0.000517177 8.45847e-18)
(10.0005 -6.32763e-05 -8.45572e-18)
(10.0005 -7.04815e-06 0)
(10.0005 -8.05833e-07 -2.11396e-18)
(10.0005 -1.7377e-07 2.11574e-18)
(10.0005 -1.09034e-07 -1.05666e-18)
(10.0005 -4.95994e-08 1.05848e-18)
(10.0005 5.12294e-07 8.25122e-21)
(10.0005 6.07579e-06 -8.44677e-18)
(10.0005 5.65457e-05 1.68903e-17)
(10.0003 0.000467505 4.77926e-23)
(9.99909 0.00342252 -8.43851e-18)
(9.99045 0.0219165 -1.68747e-17)
(9.94258 0.115872 1.68544e-17)
(9.73625 0.489952 1.0297e-20)
(9.28491 1.22688 2.06357e-21)
(7.54516 4.13786 1.71017e-17)
(7.80246 3.68472 1.52707e-19)
(8.04062 -3.92949 0)
(7.58729 -4.37192 0)
(9.27627 -1.37086 0)
(9.70389 -0.595105 0)
(9.92919 -0.152916 0)
(9.98651 -0.0315581 1.79024e-17)
(9.99791 -0.00538251 -1.789e-17)
(9.99974 -0.000801025 1.74522e-20)
(9.99999 -0.000105477 -2.17957e-21)
(10 -1.25917e-05 4.45966e-18)
(10 -1.38394e-06 -4.47289e-18)
(10 -1.4497e-07 -3.69494e-20)
(10 -8.27815e-09 -1.38969e-19)
(10 1.20842e-07 1.54009e-19)
(10 1.27991e-06 -4.43764e-18)
(10 1.1719e-05 4.4328e-18)
(9.99999 9.76679e-05 1.51344e-20)
(9.99976 0.000740969 0)
(9.99808 0.00498745 0)
(9.98762 0.0293674 0)
(9.93481 0.143359 -1.76482e-17)
(9.72504 0.566613 -4.68028e-20)
(9.31348 1.31882 1.75965e-17)
(7.74867 4.25835 2.1589e-21)
(8.12653 3.79922 2.17369e-21)
(8.57735 -3.86815 0)
(8.06986 -4.30172 4.56328e-21)
(9.40195 -1.40474 0)
(9.73784 -0.645497 -1.86029e-17)
(9.93348 -0.174836 3.72599e-17)
(9.98643 -0.0384558 -1.86373e-17)
(9.99773 -0.00701088 0)
(9.99967 -0.00112019 -1.82234e-20)
(9.99996 -0.00015928 0)
(10 -2.05207e-05 0)
(10 -2.42501e-06 -2.31503e-18)
(10 -2.63465e-07 2.37152e-18)
(10 9.17986e-09 2.34114e-18)
(10 3.50683e-07 -2.3609e-18)
(10 3.17852e-06 0)
(9.99999 2.65678e-05 -9.38143e-18)
(9.99994 0.000203326 9.36843e-18)
(9.99953 0.00140235 9.39667e-18)
(9.99684 0.00856752 -9.39701e-18)
(9.98165 0.0455577 0)
(9.91276 0.200298 0)
(9.66916 0.709998 -1.83981e-20)
(9.23928 1.53732 -1.89345e-17)
(7.74593 4.43892 3.80636e-17)
(8.11908 3.94613 -1.89785e-17)
(9.0778 -3.86166 -2.02217e-17)
(8.35402 -4.19409 2.03758e-17)
(9.50156 -1.44405 0)
(9.7527 -0.714278 -2.01224e-17)
(9.93184 -0.211138 2.09805e-20)
(9.98493 -0.0506893 3.02447e-17)
(9.9973 -0.0100815 -2.01829e-17)
(9.99959 -0.00175439 1.00998e-17)
(9.99994 -0.00027197 0)
(9.99999 -3.82971e-05 0)
(10 -4.96069e-06 -4.94351e-21)
(10 -5.87079e-07 1.4842e-20)
(10 1.04289e-08 0)
(10 6.78127e-07 0)
(10 5.67129e-06 5.07644e-18)
(9.99999 4.34895e-05 -5.07961e-18)
(9.99993 0.000306608 -1.01654e-17)
(9.9995 0.00196096 2.0328e-17)
(9.9968 0.0111593 9.36357e-22)
(9.98244 0.0554936 -1.01729e-17)
(9.92184 0.228693 0)
(9.72057 0.763853 0)
(9.44254 1.53511 -2.05065e-17)
(8.16635 4.40951 2.05431e-17)
(8.92656 4.07817 -5.06836e-21)
(10.9886 -2.99757 2.04107e-17)
(9.65169 -3.11866 -9.93706e-21)
(10.0155 -0.98337 1.00981e-17)
(9.96025 -0.5195 -1.01223e-17)
(9.98842 -0.149828 -4.92387e-21)
(9.99714 -0.036019 9.8468e-21)
(9.99947 -0.00723926 1.00808e-17)
(9.99992 -0.00129853 -1.51189e-17)
(9.99999 -0.000210439 5.04368e-18)
(10 -3.13726e-05 0)
(10 -4.3516e-06 -2.51357e-18)
(10 -5.58634e-07 2.51312e-18)
(10 -6.89659e-09 0)
(10 5.0283e-07 4.91589e-21)
(10 3.94345e-06 -2.51138e-18)
(10 2.85842e-05 2.51564e-18)
(10 0.000193106 0)
(9.99996 0.00120222 -1.00474e-17)
(9.99974 0.00677163 1.00544e-17)
(9.99849 0.0341478 1.00441e-17)
(9.99418 0.143728 -2.0111e-17)
(9.98 0.507963 1.00539e-17)
(10.0768 0.940934 0)
(9.75969 3.10294 2.02981e-17)
(11.3359 3.01613 9.41499e-20)
(13.1262 -0.897648 1.02655e-20)
(10.7111 -0.873081 1.00769e-17)
(10.4004 -0.277124 -5.01949e-18)
(10.1139 -0.144535 -5.00998e-18)
(10.0272 -0.0407874 7.51745e-18)
(10.0054 -0.00967295 -5.00647e-18)
(10.001 -0.00194293 5.00651e-18)
(10.0002 -0.000353413 -5.00485e-18)
(10 -5.84881e-05 -4.88526e-21)
(10 -8.9732e-06 2.50141e-18)
(10 -1.28833e-06 1.24557e-18)
(10 -1.72008e-07 -4.27321e-21)
(10 -4.06688e-09 -1.25037e-18)
(10 1.40114e-07 -4.27167e-21)
(10 1.05879e-06 -5.49097e-21)
(10 7.39084e-06 -1.56154e-19)
(10 4.81383e-05 -6.88011e-26)
(10.0001 0.000290152 4.68261e-19)
(10.0009 0.00158721 -3.12105e-19)
(10.0052 0.00769816 0)
(10.0265 0.0305875 1.25301e-18)
(10.1113 0.0973641 -3.74995e-18)
(10.3857 0.184657 4.99729e-18)
(10.6957 0.491394 -7.52439e-18)
(12.9625 0.489409 7.54165e-18)
(12.1513 3.19901 -1.95446e-20)
(9.936 3.16428 -2.01769e-20)
(10.2094 0.927669 2.0135e-20)
(10.0153 0.501271 -6.30865e-22)
(10.0034 0.139127 -1.95219e-20)
(10.0004 0.0324417 -2.07758e-20)
(10.0001 0.00637887 -6.29238e-22)
(10 0.00113935 0)
(10 0.000185243 0)
(10 2.79518e-05 5.12472e-18)
(10 3.95225e-06 -5.14145e-18)
(10 5.1996e-07 -6.27202e-22)
(10 1.33478e-08 6.26668e-22)
(10 -4.14006e-07 -6.62078e-19)
(10 -3.18717e-06 6.41582e-19)
(10 -2.2742e-05 0)
(10 -0.000152528 0)
(10.0001 -0.000952452 -5.11651e-18)
(10.0005 -0.00543043 5.09279e-18)
(10.0027 -0.0281707 -1.99547e-20)
(10.0134 -0.122453 0)
(10.0509 -0.445894 0)
(10.2741 -0.822386 -2.0481e-20)
(10.1596 -2.83085 -2.0495e-20)
(12.2819 -2.83353 2.04638e-17)
(8.62196 4.40781 -2.09489e-17)
(7.9113 4.75804 -2.09807e-17)
(9.31678 1.78224 2.08892e-17)
(9.65073 0.903697 0)
(9.90091 0.275343 2.04942e-20)
(9.97768 0.0673342 1.05209e-17)
(9.99596 0.0135502 -2.10124e-17)
(9.99937 0.00238532 1.05127e-17)
(9.99992 0.00037454 -1.05291e-17)
(9.99999 5.34673e-05 1.05449e-17)
(10 7.02472e-06 2.62212e-18)
(10 8.47004e-07 -3.28185e-18)
(10 -3.52415e-10 -6.58869e-19)
(10 -8.52416e-07 1.32823e-18)
(10 -7.08295e-06 0)
(9.99999 -5.3961e-05 0)
(9.99991 -0.000378201 1.05544e-17)
(9.99936 -0.0024097 -2.11146e-17)
(9.9959 -0.0136919 1.05807e-17)
(9.97736 -0.0681031 2.06296e-20)
(9.89989 -0.278656 2.11062e-17)
(9.64819 -0.915693 -8.93405e-20)
(9.33793 -1.78592 -6.33022e-17)
(7.8787 -4.8416 6.34357e-17)
(8.79013 -4.53672 -2.13519e-17)
(7.5956 3.95331 9.25095e-21)
(7.55764 4.49726 -1.90015e-17)
(9.07261 1.71144 1.8906e-17)
(9.6043 0.797592 0)
(9.89507 0.228686 0)
(9.97809 0.0522605 0)
(9.99627 0.00981811 0)
(9.99945 0.00160601 0)
(9.99993 0.000233381 -4.76069e-18)
(9.99999 3.06817e-05 9.53808e-18)
(10 3.68674e-06 -7.16594e-18)
(10 4.02988e-07 2.67991e-18)
(10 -8.11544e-09 -2.9908e-19)
(10 -4.77284e-07 -9.26106e-30)
(10 -4.30865e-06 -4.79056e-18)
(9.99999 -3.55594e-05 4.7936e-18)
(9.99991 -0.000268222 0)
(9.99934 -0.00182832 0)
(9.99556 -0.0110562 -1.91969e-17)
(9.97432 -0.0580674 1.92188e-17)
(9.87902 -0.25031 -1.87734e-20)
(9.55275 -0.855504 9.39127e-21)
(8.96372 -1.82078 -9.38459e-21)
(7.3259 -4.66805 -9.40498e-21)
(7.34124 -4.09569 0)
(7.67731 3.42533 -1.73389e-17)
(7.82944 3.91685 1.70828e-17)
(9.21828 1.35994 -1.68048e-20)
(9.70368 0.570639 1.72436e-17)
(9.92945 0.145239 -1.72253e-17)
(9.98666 0.0296914 0)
(9.99792 0.00504157 -8.62542e-18)
(9.99972 0.00075114 8.61844e-18)
(9.99997 9.96394e-05 -4.31416e-18)
(10 1.19774e-05 8.64642e-18)
(10 1.31657e-06 -4.30691e-18)
(10 1.32005e-07 1.68587e-20)
(10 -2.05956e-09 0)
(10 -1.52993e-07 2.16671e-18)
(10 -1.51005e-06 2.15842e-18)
(10 -1.36198e-05 -4.3086e-18)
(9.99996 -0.000112223 -8.64274e-18)
(9.99967 -0.000836831 8.64286e-18)
(9.9976 -0.00554972 -8.64236e-18)
(9.98486 -0.0322119 8.63429e-18)
(9.92107 -0.155049 8.42824e-21)
(9.67377 -0.597875 -8.42014e-21)
(9.13928 -1.41751 0)
(7.68452 -3.9735 8.41134e-21)
(7.42816 -3.44444 0)
(8.02466 2.86678 1.58926e-17)
(8.30301 3.27542 -1.56705e-17)
(9.43784 1.03257 6.73112e-21)
(9.8095 0.391721 0)
(9.95971 0.0881844 0)
(9.99317 0.0160616 -9.63092e-22)
(9.99903 0.00245919 0)
(9.99988 0.000333373 7.6997e-21)
(9.99999 4.04051e-05 0)
(10 4.46075e-06 3.9318e-18)
(10 4.52008e-07 -5.90707e-18)
(10 4.20183e-08 2.93801e-18)
(10 9.18008e-11 -9.82799e-19)
(10 -4.0956e-08 0)
(10 -4.40165e-07 0)
(10 -4.33415e-06 3.92158e-18)
(9.99999 -3.91417e-05 -1.17789e-17)
(9.99988 -0.00032189 7.84593e-18)
(9.99905 -0.00236729 -7.85082e-18)
(9.99338 -0.0154258 7.84551e-18)
(9.9612 -0.0845839 0)
(9.8171 -0.377017 0)
(9.45807 -0.994938 0)
(8.3772 -3.18387 -9.56256e-22)
(8.099 -2.7815 -1.5629e-17)
(8.64509 2.3765 -2.66887e-21)
(8.82459 2.68596 1.45993e-17)
(9.65469 0.742966 -1.45393e-17)
(9.89313 0.258104 0)
(9.98004 0.0508458 0)
(9.99696 0.00825361 8.90408e-22)
(9.99961 0.00114094 7.29908e-18)
(9.99996 0.000141068 -7.293e-18)
(10 1.56579e-05 3.56328e-21)
(10 1.59377e-06 3.56375e-21)
(10 1.49546e-07 3.56419e-21)
(10 1.29309e-08 -8.91151e-22)
(10 1.52878e-11 -8.91249e-22)
(10 -1.27405e-08 1.8219e-18)
(10 -1.47355e-07 -1.8292e-18)
(10 -1.57046e-06 4.45751e-21)
(10 -1.54343e-05 4.45787e-21)
(9.99996 -0.000139191 0)
(9.99961 -0.00112715 -7.30023e-18)
(9.99699 -0.00817264 7.30254e-18)
(9.98026 -0.0505322 0)
(9.89413 -0.257854 -1.45854e-17)
(9.66121 -0.741688 1.46216e-17)
(8.82761 -2.70466 8.90427e-22)
(8.70368 -2.40344 -1.45947e-17)
(8.93451 2.18222 3.38297e-21)
(9.0216 2.43415 0)
(9.74695 0.613121 0)
(9.92628 0.198805 -6.95378e-18)
(9.98772 0.0352238 6.94496e-18)
(9.99831 0.00519705 0)
(9.9998 0.000658968 6.94537e-18)
(9.99998 7.5148e-05 -6.95283e-18)
(10 7.70162e-06 3.47843e-18)
(10 7.27985e-07 -3.47873e-18)
(10 6.36412e-08 1.73441e-18)
(10 5.14435e-09 -1.74472e-18)
(10 -1.45887e-11 0)
(10 -5.32928e-09 -1.73475e-18)
(10 -6.58438e-08 1.74163e-18)
(10 -7.52474e-07 -3.39515e-21)
(10 -7.95294e-06 -3.39528e-21)
(9.99998 -7.74967e-05 6.79077e-21)
(9.99979 -0.000678609 6.95048e-18)
(9.99824 -0.00533961 -6.95067e-18)
(9.98722 -0.036086 -6.79102e-21)
(9.92351 -0.202425 -6.79041e-21)
(9.7361 -0.624698 0)
(8.99082 -2.45339 -6.79161e-21)
(8.8627 -2.19484 3.38814e-21)
(8.98829 1.95026 1.25715e-23)
(9.15788 2.17547 0)
(9.794 0.517319 1.25715e-23)
(9.94469 0.156833 6.42376e-21)
(9.99154 0.0256975 -1.25718e-23)
(9.99892 0.00353099 -6.5902e-18)
(9.99988 0.000419754 6.58901e-18)
(9.99999 4.49518e-05 0)
(10 4.32946e-06 -6.43225e-21)
(10 3.85941e-07 -1.25606e-23)
(10 3.18626e-08 -1.25581e-23)
(10 2.43856e-09 6.44103e-21)
(10 1.15628e-11 0)
(10 -2.28519e-09 0)
(10 -2.99333e-08 -1.25477e-23)
(10 -3.63258e-07 -1.25449e-23)
(10 -4.08302e-06 -3.28783e-18)
(9.99999 -4.24978e-05 9.85474e-18)
(9.99989 -0.000397911 -6.57254e-18)
(9.99901 -0.00336076 0)
(9.99218 -0.0245599 -6.56131e-18)
(9.94857 -0.151226 6.5745e-18)
(9.80848 -0.498858 1.25184e-23)
(9.20925 -2.13 6.40463e-21)
(9.07572 -1.91069 1.25054e-23)
(9.20705 1.69824 -8.51382e-20)
(9.34162 1.88652 -9.5862e-20)
(9.85135 0.412445 1.25071e-17)
(9.96255 0.11807 -6.27394e-18)
(9.99475 0.017716 6.26217e-18)
(9.99938 0.00227125 -6.27133e-18)
(9.99994 0.000253415 6.27317e-18)
(9.99999 2.55712e-05 -3.13751e-18)
(10 2.32227e-06 3.13842e-18)
(10 1.96093e-07 1.19755e-23)
(10 1.53494e-08 1.19789e-23)
(10 1.11506e-09 -1.19822e-23)
(10 -5.27392e-12 7.79342e-19)
(10 -1.19261e-09 7.85689e-19)
(10 -1.63718e-08 -1.57792e-18)
(10 -2.08724e-07 1.19949e-23)
(10 -2.46711e-06 6.29041e-18)
(9.99999 -2.71149e-05 -1.25778e-17)
(9.99993 -0.000268153 6.29352e-18)
(9.99932 -0.00239596 0)
(9.99428 -0.0186492 -1.20094e-23)
(9.95943 -0.123645 1.20104e-23)
(9.84099 -0.43169 -1.20065e-23)
(9.2927 -1.95571 -1.25178e-17)
(9.17151 -1.76455 1.26615e-17)
(9.31072 1.57704 1.17668e-20)
(9.41776 1.74131 0)
(9.87817 0.358647 0)
(9.9706 0.0974024 5.89043e-21)
(9.99617 0.0136033 1.17818e-20)
(9.99957 0.00164484 0)
(9.99996 0.000174114 6.02588e-18)
(10 1.66926e-05 -6.03733e-18)
(10 1.44059e-06 5.88974e-21)
(10 1.16121e-07 -5.88938e-21)
(10 8.68168e-09 -1.50758e-18)
(10 6.03275e-10 1.51337e-18)
(10 -1.04092e-12 3.88619e-19)
(10 -6.23662e-10 -3.76814e-19)
(10 -8.96533e-09 1.51302e-18)
(10 -1.19777e-07 -4.52104e-18)
(10 -1.48403e-06 3.00788e-18)
(10 -1.715e-05 -5.88572e-21)
(9.99996 -0.000178453 5.88517e-21)
(9.99955 -0.00167963 -6.02571e-18)
(9.99601 -0.0138258 -4.94925e-21)
(9.96958 -0.0979806 5.4865e-21)
(9.87081 -0.361716 6.03176e-18)
(9.40202 -1.72688 5.88263e-21)
(9.19968 -1.55672 5.86974e-21)
(9.23943 1.41183 1.16484e-17)
(9.47606 1.56086 -1.15314e-17)
(9.89201 0.311987 0)
(9.976 0.0802656 -5.79703e-18)
(9.99703 0.0106573 -6.37898e-21)
(9.99968 0.00123201 5.79516e-18)
(9.99997 0.000125128 5.79655e-18)
(10 1.1501e-05 -5.78511e-18)
(10 9.52431e-07 -5.65352e-21)
(10 7.38398e-08 -2.88816e-18)
(10 5.30998e-09 1.44792e-18)
(10 3.55155e-10 1.44187e-18)
(10 3.20874e-12 -5.64728e-21)
(10 -3.0908e-10 0)
(10 -4.64533e-09 0)
(10 -6.48803e-08 0)
(10 -8.4048e-07 5.6408e-21)
(10 -1.02081e-05 1.40979e-21)
(9.99998 -0.000111677 -7.04683e-21)
(9.99974 -0.00110914 0)
(9.99752 -0.0096688 5.63398e-21)
(9.97958 -0.0741651 1.40802e-21)
(9.90858 -0.287332 -7.03478e-21)
(9.54508 -1.48358 -1.14679e-17)
(9.38615 -1.34344 1.15777e-17)
(9.43735 1.15262 5.56247e-18)
(9.63401 1.27371 -1.1072e-17)
(9.92889 0.234508 1.10934e-17)
(9.98519 0.0579285 -5.54306e-18)
(9.9983 0.00712799 -5.55903e-18)
(9.99983 0.000782704 5.55413e-18)
(9.99998 7.55668e-05 2.77467e-18)
(10 6.63503e-06 -2.78513e-18)
(10 5.25041e-07 1.3849e-18)
(10 3.90878e-08 -2.77617e-18)
(10 2.6986e-09 2.08555e-18)
(10 1.73452e-10 -8.712e-19)
(10 -1.19416e-12 1.74027e-19)
(10 -1.92995e-10 -5.44014e-21)
(10 -2.99647e-09 2.78628e-18)
(10 -4.32637e-08 -2.79264e-18)
(10 -5.794e-07 5.44552e-21)
(10 -7.30315e-06 5.58211e-18)
(9.99998 -8.29656e-05 6.80476e-21)
(9.9998 -0.000855059 -5.57617e-18)
(9.99803 -0.00776574 0)
(9.98299 -0.0627025 5.58587e-18)
(9.92068 -0.254542 -5.58685e-18)
(9.58619 -1.36227 -1.11124e-17)
(9.41909 -1.23816 5.69923e-20)
(9.60622 1.07761 -5.41471e-18)
(9.69384 1.17872 5.37229e-18)
(9.94607 0.203474 2.63506e-21)
(9.98871 0.0484337 -7.90547e-21)
(9.99878 0.0055829 2.63496e-21)
(9.99988 0.000587258 5.39848e-18)
(9.99999 5.44709e-05 -2.69497e-18)
(10 4.60428e-06 -2.69202e-18)
(10 3.50686e-07 5.26751e-21)
(10 2.52932e-08 -5.26687e-21)
(10 1.69097e-09 2.63311e-21)
(10 1.05321e-10 -2.63278e-21)
(10 -2.88181e-13 0)
(10 -1.06806e-10 -8.57825e-34)
(10 -1.71532e-09 -1.34483e-18)
(10 -2.56434e-08 1.35255e-18)
(10 -3.55374e-07 -2.69947e-18)
(10 -4.65339e-06 -2.63051e-21)
(9.99999 -5.49401e-05 2.69085e-18)
(9.99988 -0.000590719 -7.88995e-21)
(9.99875 -0.00559815 -5.38508e-18)
(9.98856 -0.048056 5.3769e-18)
(9.94287 -0.202338 0)
(9.68918 -1.15464 -5.36275e-18)
(9.50439 -1.04969 5.40429e-18)
(9.53565 0.989083 0)
(9.71334 1.08235 -5.2624e-18)
(9.94976 0.184129 5.24927e-18)
(9.99022 0.0420704 2.56663e-21)
(9.99898 0.00469252 2.56637e-21)
(9.9999 0.000479278 -5.25743e-18)
(9.99999 4.32235e-05 5.25697e-18)
(10 3.54627e-06 2.62713e-18)
(10 2.6242e-07 3.20619e-22)
(10 1.84213e-08 -2.62601e-18)
(10 1.198e-09 -2.56407e-21)
(10 7.23849e-11 2.88413e-21)
(10 4.22016e-13 0)
(10 -6.43842e-11 5.12573e-21)
(10 -1.06982e-09 -2.56245e-21)
(10 -1.65122e-08 1.31176e-18)
(10 -2.36006e-07 -1.31123e-18)
(10 -3.20586e-06 -2.5612e-21)
(9.99999 -3.92382e-05 -2.88087e-21)
(9.99992 -0.000438467 2.56035e-21)
(9.99914 -0.00431801 -5.24242e-18)
(9.99158 -0.0393535 4.8078e-21)
(9.95735 -0.171097 5.24177e-18)
(9.74941 -1.03622 0)
(9.63303 -0.947978 5.23548e-18)
(9.63638 0.817237 -1.02015e-17)
(9.79634 0.894964 5.07308e-18)
(9.96566 0.142248 5.09468e-18)
(9.99369 0.0317209 -5.09318e-18)
(9.99938 0.00334151 0)
(9.99994 0.000329612 -3.11088e-22)
(10 2.86209e-05 0)
(10 2.27329e-06 -3.11205e-22)
(10 1.62742e-07 -3.11263e-22)
(10 1.10991e-08 0)
(10 7.00507e-10 0)
(10 4.09419e-11 -3.11435e-22)
(10 -7.08607e-14 0)
(10 -4.49449e-11 0)
(10 -7.64086e-10 -1.27633e-18)
(10 -1.20747e-08 1.27655e-18)
(10 -1.76627e-07 -3.11714e-22)
(10 -2.462e-06 -2.55401e-18)
(9.99999 -3.0952e-05 2.55477e-18)
(9.99994 -0.000354823 0)
(9.99929 -0.00358818 5.11045e-18)
(9.99285 -0.033859 -1.02213e-17)
(9.96193 -0.152846 1.02209e-17)
(9.77276 -0.946641 -2.44465e-20)
(9.61633 -0.867567 -5.13229e-18)
(9.75795 0.767996 1.21886e-21)
(9.83062 0.834316 -1.21898e-21)
(9.97383 0.126197 0)
(9.99505 0.0273818 0)
(9.99953 0.00274441 0)
(9.99996 0.000263365 1.21833e-21)
(10 2.22267e-05 0)
(10 1.71838e-06 -1.21807e-21)
(10 1.19691e-07 0)
(10 7.99251e-09 -1.21781e-21)
(10 4.92973e-10 0)
(10 2.80862e-11 -3.11693e-19)
(10 2.79595e-13 3.10372e-19)
(10 -2.73615e-11 0)
(10 -4.8146e-10 1.24636e-18)
(10 -7.80344e-09 -2.49243e-18)
(10 -1.16935e-07 1.24486e-18)
(10 -1.67651e-06 0)
(10 -2.16624e-05 2.49158e-18)
(9.99996 -0.00025648 -2.49129e-18)
(9.99954 -0.0026703 4.98061e-18)
(9.99519 -0.0264658 -4.98147e-18)
(9.97327 -0.121931 0)
(9.83352 -0.799778 0)
(9.70105 -0.732686 0)
(9.69435 0.715419 -1.19568e-21)
(9.83432 0.777372 1.19625e-21)
(9.97417 0.117311 0)
(9.99545 0.0246489 0)
(9.99958 0.00242261 0)
(9.99996 0.000228134 -1.19585e-21)
(10 1.88994e-05 0)
(10 1.43071e-06 1.19564e-21)
(10 9.76822e-08 0)
(10 6.399e-09 -1.22293e-18)
(10 3.86981e-10 1.22341e-18)
(10 2.17202e-11 -1.19522e-21)
(10 1.38821e-13 1.19485e-21)
(10 -1.94534e-11 1.195e-21)
(10 -3.48198e-10 0)
(10 -5.77881e-09 0)
(10 -8.84533e-08 1.19466e-21)
(10 -1.30262e-06 -2.44644e-18)
(10 -1.72721e-05 2.4462e-18)
(9.99997 -0.000210203 0)
(9.99965 -0.00224422 1.1942e-21)
(9.99616 -0.0232536 0)
(9.97897 -0.109637 0)
(9.85855 -0.751375 0)
(9.78757 -0.692966 0)
(9.74711 0.594184 -4.79814e-18)
(9.8817 0.646546 4.76882e-18)
(9.98197 0.0916124 0)
(9.99701 0.0190377 -2.33738e-21)
(9.99974 0.0017867 0)
(9.99998 0.000163933 -2.39428e-18)
(10 1.31657e-05 4.78699e-18)
(10 9.72913e-07 -2.39271e-18)
(10 6.47268e-08 -1.20005e-18)
(10 4.1466e-09 1.1979e-18)
(10 2.44833e-10 5.85006e-22)
(10 1.35152e-11 1.55636e-19)
(10 -9.38288e-14 -1.4979e-19)
(10 -1.53727e-11 1.1928e-18)
(10 -2.76391e-10 -1.19884e-18)
(10 -4.66517e-09 0)
(10 -7.25728e-08 -2.34221e-21)
(10 -1.08703e-06 0)
(10 -1.46843e-05 0)
(9.99997 -0.000181545 -2.39952e-18)
(9.99968 -0.00196966 2.40223e-18)
(9.99642 -0.0207757 0)
(9.97902 -0.101255 4.79573e-18)
(9.86217 -0.695754 -2.03341e-20)
(9.7252 -0.641432 -9.61745e-18)
(9.83513 0.557009 4.71229e-18)
(9.90325 0.602233 2.30193e-21)
(9.98632 0.0823708 4.714e-18)
(9.99762 0.0167212 -2.35336e-18)
(9.9998 0.00151121 -2.35639e-18)
(9.99998 0.000136277 0)
(10 1.07221e-05 1.15043e-21)
(10 7.76668e-07 2.35475e-18)
(10 5.06419e-08 -2.35342e-18)
(10 3.19875e-09 0)
(10 1.85676e-10 0)
(10 1.0084e-11 -3.44995e-21)
(10 1.38061e-13 4.59901e-21)
(10 -9.93094e-12 2.2996e-21)
(10 -1.81628e-10 5.898e-19)
(10 -3.12935e-09 -5.88603e-19)
(10 -4.95897e-08 1.14952e-21)
(10 -7.59152e-07 2.35403e-18)
(10 -1.04627e-05 -4.70767e-18)
(9.99998 -0.000132862 2.35364e-18)
(9.9998 -0.00147335 -2.29828e-21)
(9.99764 -0.0161825 0)
(9.98541 -0.079493 2.29757e-21)
(9.90159 -0.577729 4.6954e-18)
(9.7764 -0.531713 -9.43046e-18)
(9.78055 0.519328 -4.65053e-18)
(9.9029 0.561432 -4.65202e-18)
(9.98599 0.077191 4.6456e-18)
(9.99774 0.0152646 2.32415e-18)
(9.99981 0.00136462 -2.32451e-18)
(9.99998 0.000121557 0)
(10 9.4501e-06 5.67306e-22)
(10 6.74389e-07 -1.70181e-21)
(10 4.33815e-08 1.16169e-18)
(10 2.70368e-09 -2.32323e-18)
(10 1.5475e-10 1.16154e-18)
(10 8.04979e-12 2.89798e-19)
(10 1.77942e-13 -2.71591e-19)
(10 -7.16852e-12 2.69912e-19)
(10 -1.39126e-10 -2.91439e-19)
(10 -2.43675e-09 0)
(10 -3.91929e-08 1.70077e-21)
(10 -6.1264e-07 -5.66884e-22)
(10 -8.61171e-06 -2.32179e-18)
(9.99999 -0.000111725 2.32106e-18)
(9.99985 -0.00126033 0)
(9.99816 -0.0143604 0)
(9.98908 -0.0717485 -5.66643e-22)
(9.92035 -0.540672 -4.6304e-18)
(9.85622 -0.500898 1.29966e-20)
(9.81387 0.425276 -2.29295e-18)
(9.93204 0.46075 2.28037e-18)
(9.99025 0.0596528 5.57823e-22)
(9.99853 0.0118031 0)
(9.99988 0.00101539 2.28619e-18)
(9.99999 8.86305e-05 -2.28367e-18)
(10 6.71256e-06 5.58149e-22)
(10 4.70694e-07 5.58215e-22)
(10 2.96629e-08 2.23313e-21)
(10 1.81698e-09 -2.85874e-19)
(10 1.02315e-10 1.42954e-19)
(10 5.12279e-12 2.80915e-19)
(10 -3.43112e-13 -1.43493e-19)
(10 -6.13294e-12 5.74252e-19)
(10 -1.17898e-10 -5.72084e-19)
(10 -2.0915e-09 0)
(10 -3.40133e-08 1.67642e-21)
(10 -5.37451e-07 -2.28634e-18)
(10 -7.6548e-06 2.28716e-18)
(9.99999 -0.000100188 5.59e-22)
(9.99985 -0.00114072 0)
(9.99818 -0.0130957 0)
(9.98836 -0.0674485 5.5914e-22)
(9.91847 -0.503164 -4.57089e-18)
(9.79896 -0.46606 4.59518e-18)
(9.88524 0.397496 2.20733e-21)
(9.9468 0.428183 0)
(9.9929 0.0540746 -1.10324e-21)
(9.99885 0.0104791 -2.25833e-18)
(9.99991 0.000875967 2.26037e-18)
(9.99999 7.57027e-05 -2.26138e-18)
(10 5.65037e-06 2.26015e-18)
(10 3.90363e-07 -1.12946e-18)
(10 2.42436e-08 1.12719e-18)
(10 1.47168e-09 -5.64665e-19)
(10 8.20544e-11 5.64633e-19)
(10 4.21647e-12 -2.77889e-19)
(10 4.38281e-14 3.17431e-19)
(10 -3.97194e-12 -3.74887e-20)
(10 -7.92686e-11 5.65605e-19)
(10 -1.42491e-09 -1.12784e-18)