/*--------------------------------*- C++ -*----------------------------------*\
| =========                 |                                                 |
| \\      /  F ield         | OpenFOAM: The Open Source CFD Toolbox           |
|  \\    /   O peration     | Version:  2112                                  |
|   \\  /    A nd           | Website:  www.openfoam.com                      |
|    \\/     M anipulation  |                                                 |
\*---------------------------------------------------------------------------*/
FoamFile
{
    version     2.0;
    format      ascii;
    arch        "LSB;label=32;scalar=64";
    class       volScalarField;
    location    "0.00541";
    object      T;
}
// * * * * * * * * * * * * * * * * * * * * * * * * * * * * * * * * * * * * * //

dimensions      [0 0 0 1 0 0 0];

internalField   nonuniform List<scalar> 
13875
(
1412.01
1535.6
1482.4
1487.71
1481.86
1483.82
1484.08
1483.7
1484.51
1484.39
1483.89
1484.14
1483.55
1483.96
1483.72
1483.98
1483.29
1484.65
1484.86
1483.16
1481.95
1487.61
1480.58
1532.88
1398
1307.02
1356.17
1318.89
1322.22
1316.5
1318.18
1321.87
1323.02
1323.76
1323.45
1322.92
1323.08
1318.1
1317.73
1318.29
1322.84
1322.85
1323.33
1322.24
1317.78
1316.73
1321.85
1319.61
1356.44
1304.26
1307.24
1340.09
1314.29
1311.95
1305.3
1305.93
1305.68
1306.18
1306.97
1306.05
1304.83
1305.89
1303.83
1304.11
1303.87
1305.92
1303.86
1305.98
1306.22
1305.29
1304.94
1311
1311.41
1336.49
1297.17
1317.38
1344.83
1314.66
1308.87
1306.03
1306.35
1304.59
1304.53
1304.53
1303.7
1302.94
1303.55
1304
1304.17
1304.03
1303.64
1302.45
1303.46
1304.3
1305.33
1305.39
1307.65
1313.96
1343.64
1311.3
1329.53
1342.15
1315.72
1312.62
1305.11
1305.92
1305.3
1304.78
1304.64
1303.74
1302.95
1303.47
1303.76
1304.31
1303.8
1303.46
1302.53
1304
1305.34
1305.59
1304.87
1311.71
1312.03
1338.4
1315.75
1332.22
1351.16
1318.81
1310.07
1308.03
1307.3
1304.78
1304.66
1304.59
1303.61
1303.07
1303.65
1304.29
1304.58
1304.29
1303.61
1302.67
1303.47
1304.33
1306.17
1307.27
1308.4
1318.97
1349.13
1326.5
1338.99
1360.5
1329.08
1317.68
1308.11
1307.49
1306.54
1305.21
1305.09
1304.12
1303.48
1303.76
1304.31
1304.97
1304.2
1303.63
1303.24
1304.57
1306.25
1307.24
1307.93
1317.7
1325.76
1358.25
1321.81
1359.71
1384.68
1344
1321.23
1316.55
1310.87
1306.98
1305.72
1305.29
1304.79
1304.21
1304.51
1305.26
1305.74
1305.28
1304.23
1303.87
1304.97
1306.39
1309.81
1314.94
1320.33
1341.34
1381.02
1350.56
1537.09
1508.46
1387.24
1351.02
1322.2
1316.18
1311.6
1308.27
1307.07
1306.56
1306.04
1305.68
1306.46
1307.21
1306.52
1305.84
1305.91
1307.5
1310.61
1314.84
1321.72
1349.83
1383.11
1506.15
1521.65
1834.59
1574.07
1426.7
1358.3
1338.32
1321.4
1314.34
1311.23
1310.66
1309.82
1309.16
1308.65
1309.33
1310.11
1309.73
1309.07
1309.42
1311.43
1314.73
1320.88
1335.78
1356.27
1423.92
1566.24
1826.36
2506.5
1804.76
1518.84
1410.86
1351.36
1332.55
1326.83
1318.84
1317.74
1316.35
1315.33
1314.51
1314.96
1315.97
1315.99
1315.8
1316.45
1318.75
1326.74
1331.35
1349.78
1413.96
1504.02
1801.16
2431.64
2811.76
2300.95
1735.77
1460.78
1416.6
1364.13
1342.63
1334.31
1332.12
1329.71
1328.41
1327.39
1327.55
1328.51
1328.88
1329.62
1331.15
1334.16
1342.62
1364.37
1405.82
1454.56
1721.42
2300
2837.6
2786.06
2658.98
2349.74
2216.18
1533.85
1421.66
1404.87
1378.77
1371.82
1365.09
1361.22
1359.21
1358.75
1359.84
1361.35
1365.17
1371.44
1379.54
1410.28
1427.51
1572.02
2249.13
2264.38
2682.74
2770.06
2721.81
2661.48
2750.14
2746.76
2054.96
1845.08
1540.08
1502.84
1484.76
1471.58
1464.06
1461.06
1460.37
1461.68
1463.93
1470.85
1483.64
1504.6
1553.62
1864.47
2108.64
2778.3
2787.58
2701.52
2697.18
2584.76
2641.45
2693.13
2707.97
2640.41
2409.68
2110.03
2012.32
1945.22
1854.84
1804.3
1786.59
1780.88
1783.84
1795.3
1836.61
1925.95
2011.98
2053.45
2427.78
2639.37
2732.23
2693.9
2646.98
2629.57
2499.64
2536.89
2652.99
2723.6
2708.83
2754.51
2920.85
3134.06
3320.08
3367.88
3413.01
3441.26
3446.63
3444.2
3417.06
3349.69
3279.1
3210.95
2973.6
2764.73
2687.3
2732.56
2658.8
2562.8
2529.3
2330.18
2426
2480.55
2546.29
2668.85
2802.99
3098.81
3457.94
3629.84
3688.11
3683.47
3668.69
3663.13
3668.47
3685.25
3702.96
3663.35
3522.83
3141.85
2832.97
2692.3
2585.07
2480.05
2408.48
2342.22
2043.09
2168.89
2380.75
2716.66
2843.59
2924.59
3089.46
3453.68
3620.45
3673.38
3664.78
3649.47
3643.73
3650.27
3667.08
3679.83
3627.7
3468.08
3083.09
2897.4
2826.76
2719.43
2314.52
2153.44
2035.99
1852.53
1938.48
2045.2
2431.74
2787.58
2903.55
2951.77
3143.76
3361.19
3473.3
3500.78
3498.49
3497.61
3500.19
3503.24
3484.01
3387.65
3198.45
2972.31
2912.49
2825.94
2422.83
2036.87
1962.47
1858.5
2499.12
2386.31
2108.87
2319.52
2619.43
2694.56
2703.86
2870.27
3109.17
3290.56
3372.9
3389.09
3387.08
3389.42
3377.07
3301.24
3126.04
2895.82
2710.07
2707.67
2618.69
2307.42
2142.73
2442.57
2544.12
3274.61
3294.8
2539.28
2253.66
2423.73
2506.05
2530.61
2684.62
2925.73
3139.03
3251.87
3278.53
3279.05
3275.95
3247.41
3132.85
2922.92
2686.2
2525.16
2512.17
2408.83
2231.8
2585.06
3345.18
3220.27
3591.65
3287.55
2410.31
2080.27
2254.99
2341.86
2404.22
2549.87
2782.08
3000.92
3128.98
3164.71
3162.69
3158.68
3116.26
2983.59
2768.99
2542.67
2395
2337.15
2232.88
2069.16
2421.01
3273.38
3591.3
3522.55
2782.37
2193.55
1937.85
2115.98
2211.24
2305.71
2439.72
2654.99
2867.66
3001.67
3041.56
3043.75
3034.5
2988.15
2852.66
2642.86
2434.88
2296.96
2196.51
2092.92
1925.83
2189.92
2831.28
3545.56
3388.97
2546.36
2007.58
1843.79
2033.25
2122.03
2215.69
2345.64
2549.02
2751.08
2881.89
2926.92
2925.52
2918.41
2868.66
2735.5
2538.81
2340.15
2204.55
2104.25
2003.34
1825.04
1988.78
2508.5
3238.7
3234.34
2396.77
1925.9
1804.73
1975.47
2043.97
2132.7
2257.35
2451.15
2644.23
2769.93
2810.02
2813.33
2802.24
2753.19
2625.79
2434.12
2246.82
2123.21
2031.48
1953.21
1780.2
1917.69
2404.91
3209.01
3181.96
2333.3
1894.73
1808.06
1938.08
1983.49
2057.72
2178.38
2362.28
2542.8
2664.18
2705.63
2704.58
2698.09
2650.55
2527.64
2355.5
2173.79
2049.34
1976.22
1920.51
1782.27
1879.28
2285.65
3137.08
3054.42
2224.36
1890.83
1819.16
1903.64
1922.35
1994.3
2111.35
2286.12
2455.01
2566.33
2599.8
2603.53
2593.1
2551.89
2442.58
2270.89
2102.13
1989.17
1916.1
1895.09
1795.73
1880.87
2247.74
3093.37
3024.03
2205.8
1882.36
1820.39
1882.72
1878.44
1941.56
2057.24
2219.34
2378.69
2474.52
2507.03
2506.39
2502.25
2461.92
2359.8
2210.72
2047.85
1931.36
1879.59
1861.85
1803.1
1871.65
2253.43
3088.15
3044.12
2249.03
1901.48
1838.04
1884.52
1834.13
1893.98
2000.4
2157.64
2301.55
2387.92
2413.2
2417.64
2408.52
2379.57
2293.76
2148.27
1997.55
1891.37
1834.22
1876.14
1825.57
1890.94
2231.6
3054.19
3053.54
2263.17
1921.11
1841.27
1860.87
1804.69
1862.64
1968.35
2105.81
2240.88
2308.74
2333.8
2332.55
2330.18
2298.92
2224.89
2102.01
1961.76
1853.59
1811.78
1840.47
1829.43
1895.33
2232.99
3061.01
3005.19
2262.46
1934.47
1859.6
1858.27
1778.42
1840.43
1923.86
2062.69
2177.11
2235.37
2250.83
2256.06
2248.14
2228.35
2164.19
2046.97
1920.65
1831.1
1787.12
1852.73
1835.08
1907.72
2269.16
3036.01
2977.17
2263.24
1959.34
1881.06
1827.02
1753.93
1814.78
1902.46
2019.84
2121.16
2164.58
2184.73
2183.14
2182.96
2158.84
2111.44
2015.05
1903.37
1805.86
1759.33
1816.2
1860.16
1936.74
2272.06
2977.85
2935.15
2249.11
1955.43
1888.54
1827.6
1738.47
1805.19
1863.83
1979.43
2063.79
2105.6
2114.16
2119.4
2112.66
2100.57
2055.13
1964.8
1865.9
1798.07
1743.4
1818.27
1873.31
1942.65
2254.43
2925.09
2887.63
2221.83
2007.9
1919.82
1805.89
1713.01
1784.74
1846.61
1951.57
2019.63
2043.75
2059.85
2057.69
2059
2040.27
2012.4
1944.12
1841.28
1774.28
1712.93
1802.12
1897.8
1993.35
2240.57
2886.72
2881.06
2229.19
2038.04
1901.59
1807.51
1712.53
1772.52
1808.67
1916.84
1962.72
1995.68
2000.35
2005.02
1999.66
1993.61
1959.42
1910.68
1811.43
1774.38
1711.46
1803.07
1904.81
2036.69
2216.5
2850.24
2847.16
2205.17
2032.88
1949.27
1792.26
1698.39
1751.34
1793.15
1894.29
1930.56
1942.08
1955.21
1952.24
1954.4
1939.6
1926.11
1891.66
1787.96
1746.43
1695.35
1787.49
1937.59
2041.17
2210.7
2845.52
2800.18
2178.27
2031.91
1957.46
1809.13
1711.65
1741.86
1764.37
1866.07
1878.78
1903.1
1903.94
1907.41
1903.02
1901.79
1876.86
1856.75
1766.03
1750.89
1709.94
1808.96
1962.16
2037.53
2181.6
2816.81
2766.98
2160.21
2024.64
2029.97
1808.54
1709.03
1726.97
1753.09
1837.19
1853.6
1853.39
1865.46
1861.03
1864.35
1852.01
1853.24
1839.25
1748.49
1725.65
1713.7
1804.92
2033.68
2033.29
2159.47
2768.93
2721.63
2152.81
2017.22
2028.06
1831.56
1747.26
1730.45
1735.38
1809.4
1801.22
1821
1819.91
1821.67
1819.26
1819.81
1801.67
1801.78
1738.07
1741.19
1759.7
1842.36
2036.4
2023.61
2150.47
2724.73
2669.88
2137.32
2002.86
2033.33
1866.5
1749.17
1732.12
1731.4
1786.69
1783.1
1776.89
1784.45
1779.92
1783.58
1774.44
1784.17
1784.51
1726.85
1717.51
1746.5
1878.5
2034.57
2004.24
2143.99
2681.95
2629.72
2139.14
1977.62
2014.94
1940.02
1801.83
1748.2
1724.9
1753.94
1731.93
1747.45
1744.77
1745.29
1743.66
1744.94
1730.69
1747.8
1731.11
1758.58
1805.9
1950.89
2023.76
1970.38
2126.58
2638.77
2593.11
2125.56
1956.88
2009.13
1953.4
1812.01
1752.23
1724.83
1744.52
1722.33
1710.73
1711.04
1707.39
1710.04
1708.17
1724.14
1736.43
1714.11
1732.78
1818.58
1967.86
2010.83
1949.11
2122.85
2606.85
2562.45
2114.13
1936.4
1970.5
1943.09
1880.96
1779.48
1742.8
1719.66
1671.09
1683.88
1677.95
1677.83
1676.88
1680.48
1667.89
1709.56
1738.9
1789
1874.48
1950.94
1972.57
1928.66
2109.62
2575.08
2535.93
2102.49
1922.71
1947.62
1937.23
1954.02
1801.12
1726.33
1721.13
1679.75
1657.95
1649.06
1645.44
1647.23
1654.47
1679.21
1714.95
1717.34
1789.36
1964.33
1944.61
1949.65
1913.83
2091.07
2545.48
2520.87
2096.44
1914.43
1913.92
1917.23
1940.75
1854.29
1770.21
1721.32
1643.85
1640.78
1624.54
1621.45
1622.85
1636.79
1633.87
1716.29
1771.91
1865.09
1943.73
1917.88
1915.42
1906.61
2083.86
2524.41
2496.86
2072.19
1902.02
1903.13
1879.93
1925.12
1943.73
1768.04
1723.51
1677.79
1632.64
1609.47
1600.77
1606.81
1625.74
1672.86
1716.79
1765.42
1959.85
1928.19
1884.62
1907.09
1897.36
2068.08
2504.15
2488.39
2071.94
1900.06
1874.47
1852.59
1906.25
1921.95
1839.36
1744.99
1648.72
1631.95
1600.21
1588.4
1598.07
1625.75
1636.89
1741.9
1854.16
1939.23
1907.29
1854.15
1881.3
1893.89
2056.68
2491.51
2461.8
2052.04
1887.69
1876.02
1825.46
1859.99
1912.44
1928.13
1765.12
1692.16
1635.82
1608.04
1588.29
1605.65
1630.56
1688.31
1767.16
1949.86
1927.34
1865.65
1832.98
1884.48
1883.34
2042.91
2461.14
2432.24
2045.1
1882
1851.36
1808.58
1826.18
1891.45
1922.19
1852.72
1680.79
1642.57
1602.37
1590.13
1599.8
1637.47
1672.33
1870.44
1939.88
1906.39
1836.04
1815.34
1861.89
1874.83
2033.89
2434.05
2307.76
1996.46
1856.3
1852.35
1797.82
1792.38
1861.66
1908
1943.02
1777.28
1663.11
1619.01
1596.96
1616.56
1658.75
1772.59
1950.28
1931.67
1871.88
1806.83
1809.85
1862.62
1850.03
1985.1
2307.02
368.035
368.284
369.823
369.603
370.353
371.694
372.797
372.414
369.823
368.982
367.912
363.442
348.183
334.526
325.711
320.528
316.904
314.108
312.056
309.815
307.27
304.882
303.51
302.632
301.257
298.912
296.957
295.658
295.828
295.902
373.667
369.779
369.116
369.746
373.182
378.773
380.898
377.121
371.678
369.75
369.722
366.865
355.297
336.568
326.66
321.006
315.867
312.285
309.626
306.979
304.033
301.666
300.459
299.761
298.968
296.894
294.847
293.232
292.781
292.239
370.755
369.798
369.821
374.275
383.543
389.354
386.93
380.809
374.575
370.913
369.98
367.651
360.509
340.995
329.457
322.681
316.805
311.769
308.823
305.946
302.691
300.369
299.142
298.427
297.91
296.034
294.015
292.211
291.524
290.902
372.904
370.718
376.181
388.272
403.04
408.501
403.483
390.076
379.214
372.973
371.014
369.515
364.084
346.419
332.379
324.214
318.091
311.652
307.779
304.431
300.84
298.543
297.215
296.389
295.989
294.276
292.344
290.677
290.04
289.488
371.636
374.692
393.818
417.76
442.063
444.705
433.466
408.069
388.656
377.342
373.066
371.209
366.818
353.365
336.366
326.951
320.007
313.033
307.662
303.506
299.61
297.266
295.75
294.852
294.508
293.024
291.391
290.137
289.848
289.551
375.886
385.026
431.297
474.505
515.072
515.434
491.842
443.513
407.843
386.838
377.831
373.809
369.94
361.65
340.604
330.042
322.719
314.839
307.995
302.865
298.775
296.265
294.574
293.538
293.094
291.85
290.389
289.071
288.623
287.887
381.299
406.95
504.193
583.3
655.719
648.867
602.891
510.053
443.248
404.41
386.107
377.958
373.579
366.001
345.847
333.702
326.203
317.466
308.848
302.845
298.552
296.006
294.17
292.964
292.349
291.019
289.495
287.261
285.849
284.34
392.79
447.624
639.051
791.433
918.935
896.549
810.8
634.425
506.707
434.622
399.629
384.348
377.998
370.007
351.584
338.778
329.993
320.77
310.378
303.2
298.476
295.726
293.655
292.242
291.245
289.059
286.315
283.5
281.841
280.211
410.89
517.585
876.332
1153.46
1232.72
1175.08
1101.96
860.762
616.12
484.682
421.548
393.773
383.522
374.61
358.025
342.82
334.061
324.313
312.556
303.338
297.595
294.15
291.284
289.112
287.14
285.173
283.071
280.867
279.552
278.337
437.018
631.386
1232.49
1379.61
1310.37
1234.13
1193.51
1101.12
789.431
563.325
455.546
407.905
390.789
379.966
365.007
346.871
338.714
328.276
315.053
303.095
296.256
292.236
289.009
286.607
284.867
283.369
281.692
279.79
278.513
277.243
473.983
801.825
1427.5
1404.37
1289.41
1197.95
1174.54
1156.08
993.75
673.053
504.226
428.702
400.312
386.384
372.55
351.173
345.047
333.052
317.995
304.089
295.671
291.048
287.638
285.282
283.641
282.35
280.865
279.156
277.979
276.736
526.311
1026.07
1460.06
1377.32
1199.55
1087.14
1081.25
1121.2
1079.86
807.665
568.477
456.336
412.254
394.398
380.993
356.088
349.541
339.393
322.081
305.931
295.839
290.654
287.042
284.702
283.1
281.911
280.49
278.865
277.709
276.401
601.193
1265.38
1462.61
1313.61
1103.69
971.075
966.357
1039.18
1079.4
929.791
641.249
488.609
427.244
403.789
388.921
362.462
353.419
349.48
327.938
308.497
296.894
290.685
286.922
284.595
282.986
281.804
280.392
278.8
277.63
276.284
698.865
1399.1
1458.4
1268.23
1057.62
912.17
882.162
954.19
1051.45
983.626
714.945
523.167
443.973
414.182
397.033
368.669
356.974
356.134
337.669
312.896
298.667
291.45
287.185
284.852
283.231
282.089
280.681
279.091
277.818
276.353
803.528
1448
1452.09
1250.06
1027.89
879.594
836.153
894.483
1019.99
989.849
763.619
552.229
459.776
424.382
404.825
374.759
360.851
359.957
355.217
320.045
301.558
292.863
287.827
285.444
283.866
282.697
281.249
279.631
278.232
276.675
899.563
1471.65
1450.85
1233.91
988.343
844.83
807.386
856.032
989.167
974.773
772.781
565.794
472.036
433.994
412.536
380.985
365.087
363.339
363.843
332.997
306.481
294.683
288.756
286.243
284.732
283.464
281.932
280.175
278.525
276.819
988.246
1491.83
1451.59
1217.38
953.017
807.47
775.981
818.269
941.193
937.18
755.8
568.896
481.989
444.109
420.203
387.012
369.525
366.211
366.784
359.316
314.868
297.631
290.402
287.053
285.601
284.169
282.399
280.455
278.527
276.625
1070.13
1513.33
1458.33
1212.19
939.372
779.068
740.068
774.369
874.459
880.073
716.63
563.211
490.231
455.376
427.254
392.649
374.642
370.186
368.861
367.905
333.095
303.102
292.44
287.852
286.274
284.653
282.583
280.397
278.141
276.172
1142.57
1534.76
1468.86
1215.76
937.001
766.795
711.872
728.352
795.072
802.695
666.122
552.759
497.376
466.695
432.451
397.96
381.177
374.458
371.592
370.476
363.942
313.805
295.62
289.565
286.566
285.007
282.491
280.091
277.632
275.66
1206.74
1557.49
1480.21
1231.43
953.864
764.259
690.912
681.019
721.777
726.831
622.357
543.357
501.878
472.825
437.237
403.973
389.053
379.497
375.316
372.676
369.839
341.202
302.611
291.859
286.681
285.06
282.356
279.916
277.393
275.398
1275.54
1578.57
1497.13
1266.2
991.111
781.17
683.804
653
664.461
669.785
598.312
535.758
501.287
474.067
440.745
413.185
398.047
385.855
379.748
376.374
372.633
366.966
316.97
296.358
288.226
284.275
281.98
279.745
277.234
275.264
1304.65
1599.74
1527.96
1314.75
1037.43
818.794
690.775
642.067
627.604
626.349
579.604
524.733
496.021
472.487
445.004
424.998
409.459
394.394
385.317
380.697
376.44
371.258
351.258
305.138
290.808
285.117
280.991
279.215
277.029
275.225
1394.55
1624.75
1563.74
1372.05
1106.86
885.03
724.402
644.958
616.551
602.995
568.039
521.363
494.999
472.239
451.465
433.316
420.298
406.053
393.377
385.982
380.905
374.633
367.667
321.072
295.872
286.932
281.599
278.38
276.839
275.225
1404.28
1646.57
1616.24
1449.78
1205.86
969.324
785.564
671.587
618.825
598.788
566.928
526.024
497.131
478.372
459.926
441.638
428.287
414.75
403.591
393.22
386.16
378.587
371.991
355.662
305.103
289.831
283.135
279.052
276.45
275.313
1428.63
1685.16
1674.15
1528.04
1309.84
1068.07
868.676
728.406
642.521
603.611
576.526
541.472
507.559
487.028
469.923
451.541
435.879
423.96
413.7
402.784
393.035
383.875
376.417
366.558
322.956
295.116
285.263
280.502
277.074
275.072
296.527
296.411
296.193
297.396
299.176
301.248
302.467
303.413
304.907
307.311
309.769
311.978
314.141
316.886
320.766
326.276
335.687
350.758
363.535
367.666
368.36
369.568
372.334
372.604
371.36
369.486
368.639
368.913
367.511
367.862
292.902
293.395
293.778
295.255
297.05
298.806
299.489
300.311
301.682
304.183
306.926
309.552
312.362
316.101
321.317
327.334
338.073
358.764
367.153
369.16
369.29
372.143
377.892
381.904
379.648
374.091
369.745
368.418
369.294
373.413
291.565
292.159
292.773
294.41
296.14
297.685
298.136
298.998
300.423
302.913
305.895
308.749
311.812
317.127
323.104
330.41
342.801
361.686
367.825
369.522
370.755
375.037
381.977
388.895
391.652
384.789
375.113
369.647
369.243
370.485
290.09
290.601
291.151
292.666
294.32
295.693
296.082
297.019
298.575
301.116
304.38
307.778
311.955
318.412
324.72
333.595
348.848
364.547
369.413
370.676
373.125
380.344
392.665
407.418
412.79
406.769
390.926
377.454
370.313
372.013
290.104
290.335
290.532
291.634
293.004
294.167
294.551
295.551
297.271
299.947
303.533
307.752
313.434
320.418
327.626
337.709
357.161
367.22
371.001
373.144
378.365
391.405
413.193
440.888
453.22
449.904
423.374
397.322
375.059
371.268
288.394
289.084
289.417
290.551
291.725
292.701
293.213
294.347
296.267
299.057
303.01
308.168
315.294
323.259
330.801
342.333
363.21
370.38
373.669
378.373
389.16
413.051
452.901
505.939
531.525
529.476
484.937
438.337
386.654
375.744
284.84
286.313
287.62
289.621
290.835
291.957
292.607
293.929
295.978
298.739
303.085
309.112
318.061
326.82
334.742
348.02
366.821
373.864
378.176
387.638
408.891
452.71
527.264
629.282
677.6
682.91
603.729
517.718
410.699
381.92
280.68
282.264
283.801
286.462
288.991
290.869
291.81
293.361
295.631
298.547
303.482
310.87
321.475
330.601
339.462
353.969
370.763
378.33
385.098
402.785
442.718
523.807
666.249
857.958
944.234
965.573
828.053
662.743
454.745
394.556
278.858
280.057
281.233
283.239
285.111
286.947
288.953
291.162
294.104
297.621
303.599
313.142
325.08
334.62
343.407
360.435
375.361
384.032
395.505
427.312
498.348
645.249
912.905
1131.89
1198.24
1258.34
1201.49
912.864
530.016
413.98
277.631
278.908
280.084
281.849
283.354
284.766
286.553
288.992
292.259
296.365
303.357
315.698
329.011
339.43
347.449
367.271
380.673
391.73
411.25
465.291
585.457
835.362
1126.46
1196.71
1238.87
1316.68
1391
1268.1
651.278
441.845
277.05
278.257
279.351
280.94
282.273
283.5
285.17
287.589
291.067
295.862
304.534
318.698
333.746
345.45
351.945
374.822
387.348
401.709
434.25
519.182
705.146
1030.77
1159.37
1167.28
1193.78
1289.89
1408.11
1435.84
830.213
480.873
276.619
277.916
278.994
280.51
281.8
282.929
284.557
286.954
290.651
296.081
306.467
322.883
339.925
349.534
357.731
382.375
395.41
414.39
464.324
589.316
848.156
1092.23
1113.77
1068.83
1080.11
1199.72
1378.37
1464.81
1060.24
536.465
276.457
277.803
278.889
280.383
281.678
282.798
284.427
286.817
290.665
297.183
309.188
328.876
349.675
353.253
364.229
389.87
404.91
430.362
499.533
667.778
962.783
1082.75
1023.59
952.076
971.176
1111.29
1318.11
1467.22
1291.3
614.705
276.462
277.922
279.122
280.619
281.923
283.016
284.642
287.058
291.451
298.978
313.76
338.658
355.287
356.631
370.481
397.658
415.255
447.865
536.67
745.986
1002.67
1050.96
939.697
876.444
916.908
1070.23
1279.69
1464.56
1410.06
715.064
276.765
278.317
279.638
281.16
282.511
283.62
285.207
287.689
292.881
301.96
321.067
355.579
358.956
360.37
376.623
405.389
425.515
463.912
566.182
794.091
1003.55
1018.2
885.329
839.109
884.415
1040.24
1263.49
1460.38
1454.91
818.911
276.923
278.621
280.196
281.839
283.267
284.461
285.998
288.665
294.739
307.029
334.314
362.666
362.25
364.502
382.931
413.07
435.018
475.833
577.774
800.098
985.819
986.333
848.604
807.272
847.08
999.641
1247.9
1459.86
1477.6
912.957
276.716
278.633
280.494
282.336
283.989
285.34
286.851
290.331
297.798
315.622
359.33
365.492
365.197
368.841
388.682
420.585
444.906
485.514
579.128
778.891
948.771
936.927
811.689
774.255
810.661
966.693
1232.83
1462.69
1497.81
998.299
276.259
278.246
280.44
282.531
284.477
286.027
287.658
292.351
303.405
334.432
366.563
367.382
369.126
373.878
393.678
428.21
455.903
493.025
570.637
734.154
891.064
872.058
769.162
738.844
783.935
954.41
1228.6
1470.16
1519.6
1078.3
275.734
277.71
280.115
282.436
284.819
286.31
289.402
295.613
314.271
363.197
369.091
370.153
373.393
380.397
398.64
434.396
467.391
499.735
557.809
678.179
809.547
794.504
723.678
712.225
772.4
952.625
1231.34
1481.8
1541.3
1147.26
275.476
277.437
279.912
282.315
284.855
286.564
291.737
302.769
342.057
368.389
371.209
373.904
378.51
388.16
404.587
440.089
473.351
503.383
547.482
630.504
730.701
721.878
679.842
692.731
770.615
967.961
1245.74
1493.65
1564.38
1210.44
275.323
277.295
279.742
281.961
284.174
288.166
296.419
317.312
365.614
371.158
374.933
378.416
385.002
397.224
414.298
443.164
474.573
502.021
538.933
604.756
670.593
662.917
653.32
686.489
788.564
1004.06
1278.9
1510.31
1585.61
1280.68
275.198
277.028
279.019
280.959
285.136
290.912
305.506
351.536
369.508
374.911
379.269
384.136
393.572
409.344
425.19
446.694
473.219
496.378
527.252
583.589
626.834
626.892
642.801
695.749
829.126
1050.96
1326.96
1541.66
1606.2
1308.12
275.062
276.646
278.336
281.643
287.042
296.261
322.253
365.978
372.854
379.334
384.516
392.3
405.107
420.87
433.492
452.24
473.57
496.225
523.679
570.358
603.338
616.531
646.818
731.118
897.21
1121.8
1384.06
1574.66
1630.85
1393.81
274.809
276.119
279.005
283.237
289.932
305.86
355.988
370.318
377.213
384.382
391.646
402.899
415.006
428.552
442.365
459.998
478.861
498.13
527.982
568.894
599.012
619.277
675.138
795.887
981.91
1220.93
1461.21
1621.92
1651.73
1403.96
274.958
277.01
280.518
285.391
295.345
325.248
365.429
374.738
382.215
390.688
401.499
413.232
424.497
435.696
453.007
470.018
486.985
508.584
543.443
577.693
603.843
644.17
734.615
881.18
1081.94
1323.44
1536.33
1679.48
1689.15
1428.51
866.258
869.163
862.354
858.492
850.727
842.737
834.04
824.128
813.521
801.832
790.358
777.24
763.205
749.922
737.291
724.818
713.036
701.87
688.601
679.177
668.88
660.433
653.184
645.453
639.711
633.968
628.936
623.626
619.064
615.64
612.865
610.32
608.248
606.342
605.009
604.657
604.483
605.524
607.695
610.557
613.027
615.604
618.337
621.461
625.58
630.077
634.805
640.093
646.228
655.57
671.469
689.621
704.962
714.513
720.694
727.096
734.009
735.832
728.511
720.863
711.864
703.883
696.128
688.963
682.234
676.056
671.158
667.81
665.184
662.868
660.593
658.626
656.603
654.854
652.843
650.656
648.782
646.476
643.343
639.399
634.826
629.644
624.279
619.053
613.854
608.437
602.743
596.733
590.202
583.047
575.33
567.302
559.232
551.356
543.776
536.431
529.276
522.37
516.088
510.743
506.259
502.4
498.894
495.555
493.12
490.718
488.521
486.126
482.991
477.015
463.404
445.518
426.907
405.12
380.552
351.839
322.444
303.247
293.899
288.838
285.309
282.389
280.004
277.997
276.288
866.91
870.3
864.363
861.643
855.315
848.6
840.931
831.741
822.311
811.302
800.571
789.066
778.47
767.828
756.553
747.39
735.983
727.971
717.024
709.1
701.89
695.322
691.828
688.221
687.076
686.65
687.268
688.202
690.044
693.744
699.188
705.931
714.688
723.301
732.151
739.4
745.391
753.037
761.469
769.701
776.914
782.466
787.122
791.168
795.67
801.19
806.685
811.309
816.673
828.001
838.177
837.617
829.688
819.203
806.751
796.937
786.064
771.267
757.071
746.553
740.562
737.826
735.36
730.515
725.774
719.802
713.168
706.583
700.069
693.78
687.898
682.309
676.84
671.494
666.508
661.532
656.722
652.119
647.564
643.108
638.997
634.846
630.161
624.683
618.463
611.767
604.882
598.002
591.154
584.32
577.529
571.064
565.279
560.331
556.284
553.169
550.349
547.468
544.34
540.798
536.853
532.351
527.057
520.594
512.471
502.109
489.573
475.902
461.784
446.51
430.559
415.53
401.65
388.559
376.761
367.403
358.387
341.048
313.235
298.165
290.301
285.542
282.522
280.29
278.55
887.02
890.237
884.459
881.967
876.94
871.996
865.505
858.245
851.271
841.734
834.46
824.67
817.022
809.982
803.981
799.825
793.737
791.414
786.752
784.977
784.625
784.897
789.677
795.814
806.829
820.487
836.878
853.442
868.881
884.624
903.538
926.273
950.063
977.189
1002.2
1025.11
1047.73
1068.99
1090.21
1109.69
1128.12
1143.54
1155.66
1164.32
1170.25
1176.88
1183.76
1190.78
1202.38
1217.88
1219.56
1206.5
1185.7
1143.43
1095.29
1047.51
992.103
921.155
852.476
803.301
772.47
756.884
749.73
746.202
743.479
739.992
736.546
731.972
727.845
722.888
717.726
713.409
709.481
705.076
701.286
697.307
691.432
684.509
677.658
671.744
666.789
662.329
656.958
650.321
642.814
634.934
627.021
619.381
612.218
605.668
599.775
594.577
590.017
585.804
581.349
576.104
570.369
564.074
556.974
548.952
539.689
529.405
517.917
505.595
492.583
479.396
466.912
454.886
443.119
431.658
420.076
408.308
397.384
387.911
379.447
373.47
368.059
361.799
353.877
339.054
309.898
296.092
288.758
284.622
282.216
914.87
919.767
916.452
915.31
913.13
910.817
907.737
905.524
903.064
901.009
900.251
899.611
903.546
906.375
912.441
920.552
924.804
939.92
946.367
960.883
975.855
989.363
1008.45
1028.09
1053.21
1082.86
1116.71
1151.76
1184.47
1215.77
1241.69
1267.69
1295.43
1324.4
1352.64
1381.46
1407.06
1432.6
1456.1
1478.05
1499.26
1517.58
1534.6
1549.82
1562.83
1574.64
1587.09
1603.28
1629.73
1651.73
1658.41
1655.16
1648.54
1629.35
1593.64
1538.32
1448.54
1289.77
1112.57
970.665
872.869
815.688
782.16
760.902
747.517
739.242
735.633
735.053
734.493
733.718
734.322
736.351
737.146
738.407
738.084
735.442
731.21
726.171
721.171
716.022
710.471
704.399
695.511
685.538
675.178
664.667
654.259
644.252
634.873
626.085
617.818
609.925
602.051
593.796
584.666
574.427
562.928
550.656
538.241
526.088
514.455
503.523
493.316
483.657
474.567
465.529
456.524
447.946
439.263
431.117
422.279
413.59
403.738
394.863
387.936
382.021
377.228
372.598
367.631
361.951
354.054
334.466
306.872
295.253
288.967
959.935
969.883
969.718
976.112
978.705
987.24
992.398
1006.65
1017.31
1031.7
1052.11
1067.53
1095.07
1117.87
1147.01
1179.51
1203.25
1243.91
1266.94
1296.59
1323.7
1347.8
1371.53
1391.89
1412.76
1433.36
1451.62
1470.48
1490.13
1510.52
1526.92
1542.02
1556.81
1571.76
1588.19
1605.61
1621.65
1636.12
1651.35
1664.44
1678.77
1690.89
1704.27
1715.56
1727.6
1739.8
1751.9
1767.72
1788.4
1806.11
1812.24
1811.69
1810.39
1807.59
1805.53
1800.69
1784.25
1729.11
1576.98
1328.52
1114.64
973.36
886.814
829.641
790.769
766.146
752.176
745.922
743.132
743.482
746.047
751.311
758.925
766.018
770.23
770.973
769.092
761.806
752.44
742.941
732.735
721.201
708.878
696.198
683.202
670.177
657.419
645.073
632.944
621.215
609.806
598.495
587.311
576.308
565.135
554.059
542.825
531.43
520.067
509.74
500.183
491.268
482.973
475.246
467.887
460.717
453.284
446.003
439.064
432.029
425.111
417.454
410.57
403.896
397.505
390.975
385.423
381.186
376.875
372.413
367.747
362.017
353.769
328.67
305.434
1034.14
1062.77
1070.97
1098.55
1113.95
1149.99
1175.65
1221.23
1257.48
1307.91
1355.24
1397.84
1449.06
1490.93
1529.63
1567.13
1585.09
1610.46
1622.52
1633.09
1638.63
1644.84
1647.21
1647.02
1647.65
1649.78
1652.15
1655.04
1659.12
1664.81
1670.38
1676.36
1683.54
1691.65
1701.84
1711.74
1721.63
1732.4
1741.87
1751.79
1762.5
1771.77
1781.96
1793.03
1803.21
1814.42
1827.85
1840.69
1858.53
1876.99
1884.73
1886.18
1886.09
1886.66
1887.8
1887.45
1883.4
1866.44
1826.71
1719.99
1484.65
1261.97
1097.62
981.558
901.269
850.218
820.744
806.14
801.374
802.069
805.262
813.397
826.601
839.378
847.038
848.83
846.585
836.371
818.343
798.902
779.61
759.916
740.156
719.619
698.831
678.903
660.689
644.398
629.639
615.813
602.739
590.338
578.495
567.303
556.607
546.14
536.018
526.279
516.819
507.731
499.249
491.146
483.472
476.285
469.42
462.855
456.427
449.801
443.443
437.11
430.646
425.239
419.768
414.054
408.122
401.66
395.417
390.368
385.721
380.993
376.391
372.15
367.848
363.31
355.636
1169.62
1255.11
1285.79
1368.94
1415.14
1512.18
1571.05
1659.14
1704.61
1766.96
1796.88
1821.31
1833.36
1836.17
1831.2
1822.66
1810.6
1799.73
1791.99
1782.54
1771.57
1761.82
1753.37
1745.22
1738.91
1734.85
1732.07
1731.57
1733.08
1736.67
1741.9
1749.15
1756.95
1765.48
1775.19
1784.18
1794.84
1806.89
1818.25
1830.74
1843.99
1856.36
1869.95
1882.89
1895.68
1908.46
1922.72
1934.39
1945.88
1958.79
1962.4
1959.86
1955.05
1951.59
1948.99
1945.81
1941.51
1931.84
1914.05
1875.37
1769.4
1578.42
1384.38
1217.16
1090.53
1003.72
947.992
918.176
909.812
910.578
915.191
928.526
948.24
966.301
977.326
979.529
977.64
969.046
946.457
915.341
883.588
852.772
822.612
791.419
758.807
726.689
697.478
672.187
650.496
631.637
614.789
599.748
586.413
574.161
563.051
552.6
542.721
533.14
524.1
515.235
506.766
498.635
490.712
483.14
475.985
469.274
463.021
456.746
450.215
444.242
438.65
433.338
428.237
423.317
418.441
413.295
407.203
401.459
396.382
391.276
386.49
382.019
377.616
374.126
369.789
1407.57
1609.79
1687.92
1855.49
1920.1
1996.82
2015.66
2027.92
2021.2
2010.72
1993.68
1976.94
1959.57
1941.51
1922.49
1901.53
1884.7
1869.07
1853.49
1838.71
1824.37
1811.47
1801.33
1793.65
1788.11
1784.84
1785.37
1788.3
1794.52
1802.67
1812.96
1824.45
1837.4
1851.83
1867.25
1884.97
1903.29
1921.51
1940.63
1958.46
1976.28
1992.64
2008.72
2024.13
2038.29
2051.4
2062.71
2071.64
2077.47
2079.11
2076.11
2068.06
2055.83
2043.4
2030.47
2017.08
2003.65
1989.26
1973.24
1948.56
1892.22
1771.33
1613.57
1449.24
1312.85
1210.99
1135.93
1090.24
1073.96