/*--------------------------------*- C++ -*----------------------------------*\
| =========                 |                                                 |
| \\      /  F ield         | OpenFOAM: The Open Source CFD Toolbox           |
|  \\    /   O peration     | Version:  2112                                  |
|   \\  /    A nd           | Website:  www.openfoam.com                      |
|    \\/     M anipulation  |                                                 |
\*---------------------------------------------------------------------------*/
FoamFile
{
    version     2.0;
    format      ascii;
    arch        "LSB;label=32;scalar=64";
    class       volScalarField;
    location    "0.00833";
    object      nut;
}
// * * * * * * * * * * * * * * * * * * * * * * * * * * * * * * * * * * * * * //

dimensions      [0 2 -1 0 0 0 0];

internalField   nonuniform List<scalar> 
13875
(
0.0511676
0.0366253
0.0343666
0.0343304
0.0343029
0.0343334
0.0342966
0.0342718
0.0342932
0.034302
0.0342957
0.0342945
0.0343212
0.0343413
0.0343301
0.0342932
0.0342675
0.0342896
0.0343025
0.0343265
0.034304
0.0343342
0.0343829
0.0365716
0.0514246
0.0532619
0.0341199
0.0322231
0.0321078
0.0320666
0.0320872
0.0320418
0.0320165
0.0320312
0.032038
0.0320309
0.0320465
0.0320532
0.0320724
0.0320601
0.0320469
0.0320036
0.0320345
0.032046
0.0320758
0.0320637
0.0321024
0.0322289
0.0340521
0.0536373
0.0564568
0.0335617
0.0318037
0.0315936
0.0315724
0.0315798
0.0314812
0.0314332
0.0314457
0.0314459
0.0314283
0.0314591
0.0315294
0.031556
0.0315345
0.0314645
0.0314079
0.0314453
0.031478
0.0315675
0.0315644
0.0315802
0.0317947
0.0334909
0.0565988
0.0590702
0.0332328
0.0314902
0.0312776
0.0312646
0.0312654
0.031152
0.0310922
0.0311094
0.0311129
0.0310855
0.0311086
0.0312126
0.0312402
0.0312182
0.0311168
0.0310728
0.0311025
0.0311465
0.0312538
0.0312552
0.0312625
0.0314847
0.0331667
0.0591489
0.0611255
0.0330041
0.0312469
0.0310036
0.0309869
0.0309838
0.0308616
0.0308029
0.0308234
0.0308273
0.0307971
0.0308183
0.030924
0.0309548
0.0309298
0.0308272
0.0307864
0.0308147
0.0308594
0.0309686
0.0309766
0.0309899
0.0312298
0.0329187
0.0612649
0.0628184
0.0328481
0.0310898
0.0307716
0.0307541
0.0307351
0.0305998
0.0305423
0.0305628
0.0305664
0.0305344
0.0305533
0.0306616
0.030695
0.0306677
0.0305626
0.030526
0.0305533
0.0305999
0.0307199
0.0307435
0.0307612
0.0310583
0.0328235
0.0629786
0.0648271
0.033073
0.0311041
0.0306324
0.0305698
0.0305263
0.0303707
0.0303101
0.0303293
0.0303297
0.0302978
0.0303142
0.0304255
0.0304589
0.0304287
0.030322
0.0302929
0.0303204
0.0303762
0.030512
0.0305599
0.0306332
0.0311129
0.0330714
0.0648697
0.0670938
0.0339365
0.0314248
0.0306492
0.0304862
0.0303727
0.0301869
0.0301122
0.0301239
0.0301205
0.0300904
0.0301002
0.0302162
0.030252
0.0302192
0.0301081
0.0300891
0.0301205
0.0301898
0.0303572
0.0304671
0.0306297
0.0313922
0.0338959
0.067358
0.0736457
0.0362961
0.0320399
0.0308447
0.0304755
0.0302783
0.030043
0.0299546
0.0299582
0.0299485
0.0299212
0.0299239
0.0300448
0.0300832
0.0300499
0.0299354
0.029923
0.0299579
0.0300441
0.0302597
0.0304501
0.030802
0.0319352
0.0359995
0.0741868
0.0828994
0.0384705
0.0327348
0.0311881
0.0305814
0.0302384
0.0299689
0.0298733
0.0298639
0.0298459
0.0298226
0.0298218
0.0299415
0.0299822
0.029951
0.0298476
0.0298329
0.0298728
0.0299654
0.03022
0.03055
0.0310804
0.0326229
0.0381045
0.0835418
0.0907118
0.044133
0.0346474
0.0319957
0.03082
0.0303571
0.0300399
0.0299092
0.029874
0.0298449
0.0298217
0.029819
0.0299316
0.0299743
0.0299519
0.0298734
0.0298568
0.0299038
0.0300354
0.0303042
0.0307941
0.0318808
0.0343619
0.0432618
0.0893446
0.0950353
0.054525
0.0403712
0.0334511
0.0318751
0.0308376
0.0303339
0.0301401
0.0300612
0.0300172
0.0299906
0.0299894
0.0300846
0.0301308
0.0301221
0.0300737
0.0300654
0.0301379
0.0303218
0.030836
0.0317985
0.0332261
0.0398447
0.0533604
0.0942571
0.0865732
0.0687519
0.0516262
0.0417752
0.0343926
0.0319439
0.0312887
0.0308271
0.0306397
0.030548
0.0305019
0.0304955
0.0305667
0.0306147
0.0306286
0.0306253
0.0306785
0.030872
0.0313319
0.0320057
0.034764
0.0415733
0.0509376
0.0687656
0.0866013
0.079566
0.0659312
0.0581632
0.0657478
0.0416566
0.0372356
0.0336688
0.0324336
0.0320355
0.0319717
0.0319324
0.031927
0.0319885
0.0320335
0.0320635
0.032093
0.0321433
0.0325359
0.0340783
0.038256
0.0431967
0.0657085
0.0578305
0.0661723
0.0816098
0.0752887
0.0642711
0.056585
0.060676
0.0561027
0.0540146
0.0444923
0.0388247
0.0367232
0.0358776
0.0354941
0.0353738
0.0353952
0.0354509
0.0355626
0.0358637
0.0366647
0.038899
0.0451648
0.0551957
0.0557413
0.0612497
0.0565991
0.0641534
0.0746623
0.0671306
0.0618302
0.054311
0.0573111
0.0560289
0.0571972
0.0545124
0.0531239
0.0507874
0.048316
0.0474464
0.0471164
0.0470283
0.0471072
0.0472697
0.0477636
0.0504014
0.0542961
0.0554409
0.0577122
0.0556105
0.0580067
0.0543105
0.0614958
0.0664777
0.0623733
0.0581949
0.0524895
0.0550905
0.0568335
0.0611825
0.0681338
0.0729096
0.0699601
0.070735
0.0729991
0.0744939
0.0752543
0.0749271
0.0733761
0.0725386
0.0699552
0.0728085
0.0686859
0.0612253
0.0563165
0.0553038
0.0519674
0.0575775
0.0624371
0.0569736
0.0546722
0.0530775
0.0568914
0.0599169
0.0629396
0.0710097
0.0791675
0.0742029
0.0703699
0.069227
0.0693682
0.0698926
0.0696105
0.0697468
0.0725871
0.0738288
0.0767246
0.0708928
0.0641754
0.0609475
0.0576469
0.0528128
0.0542579
0.0567858
0.0513255
0.0540931
0.0558167
0.0617895
0.0668089
0.064673
0.0674421
0.0752665
0.0742354
0.0704342
0.0686782
0.06834
0.0684518
0.0689241
0.0697865
0.0716629
0.0728046
0.0731427
0.0677423
0.0666418
0.06967
0.0630562
0.0562263
0.0543707
0.0521352
0.0492885
0.0572184
0.0602967
0.0658185
0.0686421
0.0644051
0.0639459
0.0696088
0.0717966
0.0704027
0.068703
0.0672146
0.0665119
0.0680471
0.0699744
0.0709117
0.069889
0.0678401
0.06454
0.0664839
0.0707399
0.0664932
0.0608321
0.0575497
0.048745
0.0775672
0.0882119
0.0770182
0.0653102
0.0649313
0.0614601
0.0607213
0.0656198
0.0693321
0.0694159
0.0676504
0.0652353
0.0640738
0.0663689
0.069005
0.0694632
0.0672127
0.0641247
0.0614496
0.063412
0.0667518
0.0669068
0.0794907
0.0913305
0.0822554
0.128408
0.158526
0.0890279
0.0619067
0.0607899
0.058461
0.0580613
0.0626303
0.0669245
0.0677738
0.0658963
0.0628466
0.06141
0.0641032
0.0672327
0.067562
0.0647548
0.0614025
0.0587086
0.0601561
0.0622912
0.0637063
0.0922959
0.162963
0.134304
0.151214
0.139144
0.082989
0.0590319
0.0574439
0.0559046
0.055697
0.06018
0.0646315
0.065757
0.0637158
0.0603375
0.0586972
0.0615211
0.0650097
0.0654831
0.0624631
0.0591187
0.0562289
0.0572427
0.0586377
0.060564
0.0830953
0.140451
0.152266
0.159202
0.139886
0.075763
0.0568812
0.0546538
0.0535846
0.0536506
0.0579417
0.0624091
0.0635771
0.0612982
0.0577261
0.0561165
0.0589837
0.0626934
0.0633946
0.0602253
0.0568692
0.0541513
0.0547739
0.0558286
0.0584388
0.0770156
0.147068
0.159416
0.164591
0.141394
0.0719268
0.0553456
0.0526036
0.0516274
0.0519879
0.0559627
0.0602359
0.061318
0.0589459
0.0553081
0.0537271
0.0565663
0.0604088
0.0612226
0.0581453
0.0548634
0.0523621
0.0526754
0.0537871
0.0569025
0.0738615
0.151224
0.1659
0.171711
0.145129
0.0693686
0.0538801
0.0510013
0.0499698
0.0506311
0.0542353
0.0581685
0.0590965
0.0567176
0.053089
0.0515316
0.054268
0.0580833
0.05902
0.0562254
0.0531003
0.0507833
0.0507826
0.0521004
0.055239
0.0711343
0.154398
0.175229
0.1809
0.142232
0.0663567
0.0524962
0.049757
0.0486214
0.0494903
0.0527192
0.0561594
0.0568046
0.0544703
0.0510198
0.0495471
0.0522313
0.055975
0.0569495
0.054475
0.0515587
0.0494215
0.0492697
0.050866
0.0539248
0.0687786
0.153041
0.182467
0.186667
0.142168
0.0646577
0.0514348
0.0488014
0.0475653
0.0484918
0.0513568
0.0543274
0.0547334
0.0524776
0.0491703
0.047739
0.0503061
0.0538986
0.0549508
0.0528719
0.0502214
0.0482743
0.0480767
0.0497743
0.0527382
0.0671224
0.153877
0.189813
0.191757
0.144287
0.0636404
0.0505708
0.0480207
0.0468225
0.0476286
0.0501195
0.0526266
0.0528066
0.0506587
0.0475092
0.0461048
0.048525
0.0519087
0.0530049
0.0513609
0.0490209
0.0472786
0.0471167
0.0487912
0.0516987
0.0653441
0.149442
0.197477
0.198715
0.141637
0.062743
0.0498851
0.0472489
0.0462295
0.046967
0.0490134
0.0509878
0.0509008
0.0488556
0.045937
0.0446204
0.0469849
0.0502271
0.0513187
0.0499902
0.0479506
0.04646
0.0463622
0.0478988
0.0509474
0.0646377
0.14927
0.201405
0.200984
0.137974
0.0622178
0.049487
0.0465827
0.0456674
0.0463448
0.0479937
0.0495193
0.0492397
0.047311
0.0445597
0.0432845
0.0455217
0.048571
0.0496681
0.0487136
0.0470202
0.0457936
0.0456871
0.0470182
0.0503682
0.0637086
0.144175
0.206789
0.203442
0.137759
0.0621907
0.0493754
0.0459673
0.045099
0.0457565
0.0470837
0.0482175
0.047775
0.0459289
0.043312
0.0420752
0.0441812
0.0470799
0.0482128
0.0475567
0.046186
0.0451649
0.0450137
0.0462555
0.0500517
0.0631037
0.140371
0.209501
0.207552
0.133457
0.0618686
0.049455
0.045496
0.0446274
0.0451635
0.046219
0.0469413
0.0463446
0.0445944
0.0421519
0.0409904
0.043028
0.0457923
0.0469042
0.0464939
0.0454214
0.0445336
0.0444369
0.0456797
0.049986
0.0629732
0.13931
0.211169
0.208685
0.131115
0.0616823
0.0497536
0.0452112
0.0441958
0.0445273
0.045417
0.0458242
0.0451164
0.0434472
0.0411186
0.0400009
0.0419186
0.0445606
0.0456981
0.0455086
0.0447205
0.0439167
0.0439182
0.0452733
0.0500768
0.0628675
0.136034
0.21344
0.209769
0.130689
0.0613698
0.0501369
0.0452713
0.043796
0.0439433
0.0446412
0.044798
0.0439912
0.0424035
0.0401844
0.0391149
0.0409276
0.0434378
0.0445793
0.0445831
0.0440199
0.0433435
0.0435058
0.0451754
0.0503753
0.0625366
0.134085
0.214243
0.211935
0.128929
0.060975
0.050535
0.0455302
0.0434915
0.0433903
0.0438581
0.0438318
0.0429485
0.0414075
0.039306
0.0382993
0.0400442
0.0424824
0.0436213
0.0437393
0.0433165
0.0428257
0.0431511
0.0453581
0.0507853
0.0623841
0.134418
0.215164
0.212338
0.129171
0.060791
0.0513651
0.0460171
0.0433203
0.0429194
0.0431268
0.0429259
0.0420192
0.0405413
0.0385324
0.0375663
0.0392095
0.0415452
0.0426811
0.0429199
0.042663
0.0423559
0.0429112
0.0457207
0.0514366
0.0619144
0.13247
0.216663
0.212371
0.131595
0.0606208
0.0521285
0.0466685
0.0433654
0.0424625
0.042441
0.0420998
0.0411848
0.0397596
0.0378221
0.0368929
0.0384431
0.0407067
0.0418363
0.0421399
0.0420553
0.0419102
0.0429061
0.0463131
0.0522276
0.0613667
0.132464
0.216942
0.212793
0.131628
0.060056
0.0522929
0.04756
0.0436436
0.04214
0.0418278
0.0413038
0.0403683
0.0390001
0.0371608
0.0362856
0.0377804
0.0399635
0.04106
0.0414352
0.0415134
0.0415712
0.0430926
0.0471616
0.0526144
0.0609288
0.134935
0.216937
0.211976
0.133602
0.0595606
0.0522862
0.0487298
0.0440968
0.0419716
0.0412985
0.0406165
0.0396644
0.0383392
0.0365596
0.03572
0.03713
0.0392478
0.0403357
0.0407722
0.0410544
0.0414245
0.0434974
0.0480578
0.0524822
0.0604625
0.13689
0.217036
0.211506
0.136062
0.059372
0.0521568
0.0500558
0.044826
0.0420117
0.0409281
0.0400142
0.039015
0.0377243
0.0360051
0.0352051
0.036543
0.0385756
0.0396629
0.0402012
0.0407197
0.0414992
0.0441042
0.0495956
0.0523853
0.0602982
0.140678
0.215471
0.211673
0.137769
0.0590735
0.0517165
0.0505773
0.0457019
0.0421894
0.0407539
0.0395216
0.0384229
0.0371376
0.0354772
0.0347206
0.0360089
0.0380049
0.0390902
0.0397396
0.0405363
0.0416719
0.0450214
0.0506815
0.0522519
0.0612344
0.143626
0.214194
0.210969
0.139907
0.0590347
0.0511651
0.0505445
0.047161
0.0426071
0.0407439
0.0391887
0.0379162
0.0366195
0.0350033
0.0342768
0.0354963
0.0374327
0.0385525
0.0393837
0.0405403
0.0420426
0.0462255
0.0507684
0.0517438
0.0609485
0.145494
0.213603
0.210483
0.142148
0.0599725
0.0506502
0.0501758
0.048746
0.0433607
0.0408312
0.0390389
0.0375381
0.0361721
0.0345645
0.0338584
0.0350204
0.0369292
0.0381152
0.0391824
0.0406608
0.0427897
0.0481721
0.050511
0.051173
0.06112
0.147176
0.212862
0.210282
0.14408
0.0599267
0.0501064
0.0495758
0.0494257
0.0446512
0.0411105
0.0389798
0.0372871
0.0357851
0.0341672
0.0334851
0.0346136
0.0365253
0.0378256
0.0391327
0.040955
0.0442042
0.0493901
0.0500313
0.0507594
0.0620679
0.149454
0.212532
0.209407
0.145877
0.0609903
0.0497959
0.048888
0.0491188
0.0468082
0.0418469
0.0390678
0.0372151
0.0355661
0.0338664
0.0331711
0.0342765
0.0362522
0.0377068
0.0391791
0.0415824
0.0462759
0.0491972
0.0493667
0.0502791
0.0624899
0.151462
0.212342
0.208391
0.147718
0.0624349
0.0497042
0.0483008
0.0486396
0.0480517
0.0435209
0.0393225
0.0371849
0.0354774
0.0337044
0.0329252
0.0340806
0.0361252
0.0376713
0.0393755
0.0431176
0.0478179
0.0487388
0.0487283
0.050064
0.0635817
0.153064
0.211403
0.206434
0.148771
0.0630587
0.0495955
0.0478294
0.0480289
0.0477709
0.0458389
0.0401454
0.0372396
0.03544
0.0336418
0.0328079
0.0340094
0.0360942
0.0377272
0.0401489
0.0454686
0.0478088
0.0481
0.0482493
0.050209
0.0655593
0.153741
0.209226
0.203123
0.148759
0.0639269
0.0496613
0.0474547
0.0473354
0.0473264
0.047342
0.0419746
0.03756
0.0354771
0.0336415
0.0328086
0.0339984
0.0360987
0.0379772
0.0417768
0.0473365
0.0474046
0.0473729
0.0478423
0.0503232
0.0660411
0.153171
0.205964
0.194384
0.145667
0.064663
0.0497452
0.0471703
0.0467633
0.0467742
0.0471036
0.0445715
0.0387138
0.0356906
0.0336786
0.0328378
0.0340122
0.0362568
0.0389263
0.0444107
0.0474471
0.0468823
0.0467481
0.0474876
0.0503916
0.0660985
0.149573
0.197018
0.286582
0.766745
0.966961
0.971001
0.918655
0.869084
0.826104
0.778652
0.735397
0.691817
0.63586
0.577024
0.522276
0.480425
0.456577
0.446452
0.444858
0.446815
0.448871
0.447442
0.441486
0.43057
0.415676
0.397683
0.377179
0.352883
0.323257
0.282319
0.218426
0.123361
0.277129
0.826146
1.02673
1.02484
0.976847
0.93373
0.881348
0.819497
0.760779
0.704789
0.64106
0.576112
0.518401
0.477281
0.45319
0.442204
0.438941
0.438467
0.43793
0.434523
0.427256
0.415781
0.40063
0.383132
0.363698
0.340494
0.312057
0.27262
0.21044
0.120807
0.299671
0.942113
1.11542
1.09555
1.05335
1.01581
0.954936
0.883836
0.814421
0.744242
0.668113
0.592548
0.528015
0.481914
0.454302
0.440303
0.433587
0.429981
0.426525
0.421
0.412493
0.400638
0.386192
0.369909
0.351069
0.328986
0.301828
0.263865
0.203737
0.118709
0.31816
1.04473
1.20181
1.18495
1.15415
1.11992
1.04846
0.963776
0.881493
0.798097
0.708895
0.622022
0.548235
0.493519
0.459035
0.439925
0.429264
0.42228
0.416105
0.408661
0.399195
0.387623
0.374344
0.358706
0.34065
0.319371
0.293099
0.256135
0.197532
0.11686
0.329378
1.12678
1.29738
1.29388
1.27866
1.24595
1.16312
1.06479
0.970138
0.87171
0.767705
0.666307
0.579631
0.513761
0.469769
0.443071
0.426934
0.416009
0.407114
0.398163
0.388412
0.377109
0.364305
0.349253
0.331897
0.31123
0.285599
0.249394
0.192127
0.115278
0.341098
1.21391
1.40964
1.4209
1.42125
1.38988
1.29436
1.18304
1.07524
0.960558
0.840024
0.722492
0.620732
0.540832
0.485123
0.449333
0.426788
0.411754
0.4002
0.389856
0.379756
0.368481
0.355694
0.341198
0.32437
0.304177
0.27898
0.243244
0.187124
0.113693
0.354117
1.3127
1.53746
1.56478
1.57776
1.54434
1.43752
1.31182
1.19027
1.05941
0.922362
0.788882
0.67009
0.574283
0.504935
0.458749
0.42921
0.409869
0.395477
0.383752
0.372876
0.361451
0.348785
0.334529
0.317928
0.298032
0.273073
0.237674
0.182502
0.112233
0.368868
1.4203
1.68076
1.72092
1.74064
1.70154
1.57941
1.43876
1.30374
1.15996
1.00935
0.86108
0.725761
0.613629
0.529451
0.471448
0.434297
0.409933
0.392448
0.379281
0.367518
0.355849
0.343065
0.328873
0.312418
0.292623
0.267751
0.23254
0.178277
0.110872
0.384335
1.53998
1.83575
1.88298
1.90187
1.84755
1.70824
1.55231
1.40557
1.25304
1.0935
0.934162
0.785347
0.657644
0.55836
0.487313
0.441903
0.411816
0.390951
0.376075
0.363394
0.351296
0.338404
0.324173
0.307759
0.287882
0.263036
0.228
0.174425
0.109716
0.399344
1.66507
1.99384
2.043
2.04921
1.97508
1.81679
1.64676
1.49096
1.33361
1.17001
1.0046
0.846
0.704553
0.590846
0.506893
0.451432
0.415463
0.391383
0.374078
0.360207
0.347617
0.334817
0.320807
0.304525
0.284078
0.259167
0.224251
0.17142
0.108791
0.412946
1.79108
2.14464
2.1948
2.18066
2.08374
1.90752
1.72504
1.56243
1.40362
1.23878
1.07075
0.905723
0.753246
0.62616
0.529289
0.463587
0.420627
0.393065
0.373272
0.358192
0.344994
0.332132
0.317931
0.301349
0.281395
0.255987
0.221056
0.168729
0.108042
0.424746
1.90356
2.28734
2.3362
2.29926
2.18129
1.98783
1.79449
1.62723
1.46709
1.30224
1.13375
0.964853
0.804236
0.664779
0.555171
0.478445
0.428128
0.396031
0.373629
0.357059
0.343445
0.330195
0.315515
0.298762
0.278894
0.253384
0.218279
0.166438
0.107451
0.435335
2.01211
2.42836
2.47126
2.41329
2.27363
2.06348
1.8613
1.6908
1.53011
1.36524
1.19631
1.02483
0.858239
0.707983
0.585314
0.49649
0.437491
0.400342
0.375207
0.357088
0.342732
0.329019
0.314153
0.296902
0.276574
0.251269
0.215894
0.164426
0.10704
0.445987
2.11886
2.56779
2.6019
2.52421
2.36698
2.14018
1.93075
1.75819
1.59733
1.4322
1.26213
1.08794
0.916176
0.756489
0.620838
0.518352
0.449504
0.406301
0.378056
0.358225
0.342562
0.328102
0.312666
0.29559
0.274957
0.249494
0.21394
0.162836
0.10682
0.457146
2.22655
2.70061
2.72486
2.63107
2.46141
2.22068
2.00705
1.83329
1.67236
1.50637
1.33461
1.1573
0.98065
0.811919
0.663579
0.54609
0.46601
0.415135
0.382459
0.360268
0.343113
0.327444
0.311369
0.294104
0.273817
0.247874
0.212297
0.161549
0.106863
0.466738
2.32726
2.8201
2.83618
2.73243
2.55893
2.30756
2.09187
1.91855
1.75733
1.59025
1.41634
1.23573
1.05416
0.876852
0.715887
0.582867
0.488305
0.427023
0.388545
0.362833
0.343698
0.326397
0.309885
0.292602
0.272076
0.246113
0.210535
0.160262
0.106627
0.47388
2.41684
2.92461
2.93454
2.82824
2.65777
2.40162
2.18562
2.01407
1.85261
1.68461
1.50851
1.32486
1.13778
0.952514
0.779266
0.630081
0.517903
0.443072
0.396751
0.366421
0.344054
0.32521
0.308201
0.290675
0.270077
0.244163
0.208644
0.158752
0.106462
0.480121
2.4887
3.00981
3.02098
2.91904
2.75392
2.50273
2.28901
2.11983
1.95818
1.78926
1.61089
1.42469
1.23206
1.03943
0.854881
0.689025
0.556535
0.464921
0.407681
0.371031
0.344852
0.324757
0.307021
0.288959
0.268036
0.242583
0.207219
0.157295
0.106393
0.486336
2.54453
3.07148
3.08944
3.00524
2.84894
2.60801
2.40097
2.23476
2.07312
1.90355
1.72313
1.53403
1.33673
1.13811
0.943584
0.761308
0.607738
0.495174
0.422046
0.376938
0.346629
0.325315
0.306323
0.287695
0.266782
0.240842
0.205625
0.156224
0.106464
0.493221
2.57636
3.10681
3.13756
3.08115
2.94149
2.71663
2.52072
2.35903
2.19853
2.02813
1.84576
1.65295
1.45173
1.24851
1.04512
0.847814
0.672565
0.53465
0.441677
0.385157
0.350399
0.326419
0.306553
0.287562
0.265752
0.2396
0.203877
0.15488
0.10662
0.500654
2.57335
3.10641
3.16011
3.1428
3.03019
2.82908
2.64834
2.49285
2.33493
2.164
1.98006
1.78364
1.57822
1.37026
1.15703
0.945433
0.748823
0.585376
0.469104
0.398179
0.35656
0.329016
0.307857
0.287791
0.265487
0.23891
0.202534
0.153868
0.106783
0.503088
2.54193
3.05652
3.15388
3.18852
3.11401
2.94392
2.78401
2.63776
2.48349
2.31286
2.1271
1.9267
1.71593
1.50025
1.27514
1.05145
0.836399
0.64937
0.507783
0.417759
0.365216
0.332783
0.309324
0.287945
0.265183
0.238052
0.201395
0.153167
0.106976
0.50937
2.46352
2.95515
3.11297
3.21225
3.19164
3.06244
2.9276
2.79351
2.64414
2.47514
2.28739
2.08066
1.86143
1.63386
1.39914
1.16558
0.936378
0.72889
0.56054
0.445794
0.3777
0.337742
0.310624
0.287793
0.264331
0.236796
0.200338
0.152574
0.107164
0.508543
2.29705
2.78245
3.03316
3.21491
3.26336
3.18374
3.07805
2.95927
2.81728
2.64848
2.4574
2.24273
2.01265
1.77428
1.53237
1.29004
1.04992
0.824205
0.629071
0.485
0.395692
0.344598
0.312299
0.287474
0.263421
0.235785
0.199484
0.151926
0.10736
0.498033
1.86257
2.45971
2.87439
3.1909
3.32441
3.30339
3.23207
3.13282
2.99974
2.83166
2.63257
2.40757
2.17196
1.92745
1.67713
1.42652
1.17688
0.934243
0.713904
0.538093
0.421909
0.35532
0.31591
0.288288
0.263338
0.235278
0.198972
0.15136
0.107621
0.123069
0.217606
0.281497
0.322681
0.352372
0.376595
0.397424
0.415424
0.430336
0.441108
0.446739
0.447799
0.445551
0.443766
0.446468
0.459121
0.487474
0.535664
0.596315
0.659454
0.719178
0.766267
0.813797
0.86444
0.910379
0.961942
1.01733
1.01265
0.802203
0.292644
0.120426
0.209533
0.271744
0.311426
0.339864
0.362712
0.38319
0.400728
0.415503
0.426839
0.433823
0.436982
0.437431
0.438168
0.442522
0.456296
0.485629
0.533997
0.597748
0.668267
0.736953
0.797967
0.862357
0.927902
0.980672
1.0248
1.07506
1.07545
0.864498
0.28306
0.118326
0.202792
0.26296
0.301274
0.328471
0.350584
0.368991
0.385915
0.400479
0.412231
0.420483
0.425829
0.429375
0.433481
0.441476
0.458885
0.492372
0.545978
0.617744
0.700747
0.782852
0.858301
0.932911
1.00915
1.06924
1.10704
1.14984
1.16808
0.985711
0.305984
0.116493
0.196576
0.255248
0.292585
0.318947
0.340444
0.357931
0.373353
0.386969
0.398911
0.408536
0.415839
0.422319
0.430087
0.442411
0.465522
0.506172
0.569126
0.651481
0.74658
0.842846
0.932563
1.02089
1.11081
1.18087
1.21437
1.24412
1.25898
1.0914
0.325191
0.114928
0.19116
0.248538
0.285118
0.31089
0.331872
0.348855
0.363666
0.376716
0.388044
0.397785
0.40728
0.416679
0.428612
0.446749
0.477873
0.528866
0.603553
0.69991
0.810448
0.922965
1.02853
1.12932
1.23359
1.31441
1.34596
1.35897
1.36008
1.17555
0.336664
0.113351
0.186175
0.242455
0.278568
0.303931
0.324345
0.341177
0.355525
0.368315
0.379603
0.389861
0.400562
0.412905
0.429336
0.454208
0.495115
0.558359
0.647743
0.759727
0.886951
1.01658
1.13908
1.25398
1.37143
1.46452
1.49525
1.49205
1.47835
1.26687
0.348442
0.111893
0.181594
0.236957
0.272738
0.297888
0.317903
0.334714
0.348752
0.361409
0.372908
0.383847
0.39575
0.411141
0.432454
0.464844
0.516421
0.593809
0.699051
0.828312
0.971513
1.11733
1.2558
1.38509
1.51858
1.62289
1.65668
1.64115
1.61187
1.37002
0.362248
0.110537
0.17753
0.231962
0.267532
0.292608
0.312591
0.328963
0.342926
0.355765
0.367613
0.379486
0.393153
0.411503
0.438149
0.479041
0.542333
0.634427
0.755801
0.900637
1.05739
1.21567
1.3665
1.51023
1.66018
1.77907
1.82222
1.8011
1.76048
1.4821
0.377024
0.109396
0.173855
0.22756
0.26296
0.28804
0.308056
0.324408
0.338368
0.35127
0.363532
0.37656
0.392436
0.414152
0.446366
0.496075
0.571909
0.678515
0.814395
0.971015
1.13719
1.30317
1.46195
1.61805
1.78398
1.92177
1.98254
1.96536
1.9189
1.60557
0.393077
0.108502
0.170942
0.22392
0.259223
0.284348
0.30427
0.320687
0.334846
0.348021
0.360654
0.374748
0.392979
0.418448
0.456596
0.515749
0.604162
0.723377
0.872228
1.03747
1.20831
1.37611
1.53875
1.70407
1.8854
2.04357
2.1274
2.12887
2.07843
1.73245
0.408405
0.107779
0.168284
0.220818
0.256198
0.281443
0.301417
0.317755
0.332118
0.345314
0.358588
0.374017
0.394645
0.423791
0.468725
0.537599
0.638298
0.769095
0.927959
1.09769
1.2694
1.43777
1.60186
1.77433
1.96861
2.14593
2.25531
2.27908
2.23058
1.85667
0.421593
0.107244
0.166062
0.218172
0.253762
0.279202
0.299593
0.315968
0.330457
0.343536
0.35746
0.374326
0.397565
0.430966
0.482729
0.561767
0.674555
0.816943
0.981798
1.15371
1.32518
1.49345
1.65901
1.83644
2.0418
2.23716
2.36975
2.41902
2.37441
1.97141
0.433336
0.107022
0.164213
0.215953
0.25179
0.277554
0.298049
0.314693
0.328952
0.342678
0.357472
0.376021
0.401787
0.439793
0.499428
0.589648
0.714452
0.866457
1.03594
1.20949
1.3811
1.54932
1.7157
1.89651
2.11101
2.32443
2.47992
2.55315
2.51647
2.0801
0.443455
0.106832
0.16281
0.214115
0.25021
0.276358
0.296528
0.313691
0.328451
0.342882
0.358734
0.379234
0.408035
0.45127
0.519604
0.622192
0.758651
0.919503
1.0929
1.26879
1.44138
1.60984
1.7764
1.95982
2.18236
2.41302
2.58781
2.68231
2.65626
2.18769
0.454153
0.106531
0.161232
0.212469
0.24865
0.274709
0.295314
0.31282
0.328491
0.343743
0.361171
0.383842
0.416511
0.466945
0.545708
0.661655
0.809691
0.978909
1.15633
1.33512
1.50945
1.6789
1.84573
2.03012
2.25858
2.50401
2.69204
2.80359
2.78834
2.29536
0.46521
0.106348
0.159872
0.21068
0.246767
0.273038
0.294053
0.311729
0.328221
0.345108
0.364377
0.389995
0.428034
0.488183
0.58043
0.710383
0.870402
1.04743
1.22969
1.41177
1.5882
1.75871
1.92614
2.11054
2.34174
2.59875
2.79242
2.91357
2.90615
2.39511
0.474606
0.10623
0.158583
0.2088
0.24482
0.271265
0.292308
0.310253
0.327539
0.346213
0.36795
0.397893
0.443078
0.516067
0.625069
0.770887
0.941566
1.12673
1.31461
1.49979
1.6786
1.85021
2.01808
2.20088
2.43272
2.69707
2.88779
3.01117
3.00766
2.48547
0.481413
0.106174
0.157278
0.20703
0.242883
0.269373
0.290681
0.308997
0.327102
0.347366
0.372566
0.407789
0.463552
0.552278
0.681283
0.8434
1.02528
1.21762
1.41095
1.59895
1.78013
1.95298
2.12143
2.30204
2.53302
2.79679
2.9766
3.09336
3.09254
2.55899
0.487651
0.106194
0.156012
0.205487
0.241345
0.267844
0.289469
0.308554
0.327727
0.349548
0.37882
0.421613
0.491305
0.599129
0.749416
0.928948
1.12139
1.31988
1.51792
1.70893
1.89218
2.06624
2.23535
2.41333
2.63855
2.8931
3.05908
3.16295
3.15681
2.61331
0.493732
0.106345
0.15497
0.204217
0.2404
0.266877
0.288993
0.308755
0.329206
0.353315
0.387035
0.440828
0.529329
0.66071
0.831452
1.02716
1.22965
1.43324
1.63508
1.82993
2.01532
2.19076
2.35916
2.53308
2.74791
2.9875
3.13738
3.21292
3.192
2.64243
0.500531
0.106679
0.154377
0.203307
0.239938
0.266799
0.289297
0.309674
0.331663
0.358753
0.399432
0.466722
0.577754
0.7355
0.927926
1.13787
1.35004
1.55813
1.76387
1.96244
2.15004
2.32653
2.49296
2.66134
2.86166
3.07942
3.20289
3.23756
3.19153
2.63778
0.507677
0.106882
0.154029
0.202732
0.239659
0.266929
0.289872
0.311173
0.335065
0.367038
0.417831
0.503571
0.639076
0.82131
1.03354
1.2566
1.4795
1.69405
1.90499
2.10752
2.29714
2.47445
2.63815
2.79873
2.97911
3.16722
3.25304
3.23341
3.14145
2.60595
0.509978
0.10709
0.153912
0.202281
0.238993
0.266503
0.290147
0.313037
0.340034
0.379206
0.44459
0.554195
0.715945
0.918657
1.14475
1.37564
1.61035
1.83719
2.05679
2.26479
2.4577
2.63416
2.79477
2.94511
3.10097
3.2489
3.28264
3.19518
3.03927
2.52657
0.516
0.107302
0.153664
0.201818
0.238234
0.265912
0.290346
0.315469
0.347477
0.397026
0.482542
0.620732
0.80908
1.03023
1.2666
1.50656
1.74649
1.98581
2.2159
2.43261
2.62949
2.80601
2.96167
3.0986
3.22667
3.32592
3.29079
3.11628
2.86389
2.36006
0.515262
0.107507
0.153149
0.201444
0.237954
0.266045
0.291457
0.319387
0.358392
0.422883
0.534411
0.704027
0.9182
1.15649
1.40271
1.65012
1.89791
2.14314
2.37971
2.6066
2.81086
2.98785
3.13722
3.25695
3.35204
3.39327
3.2721
2.96077
2.52996
1.91587
0.504646
0.330727
0.316403
0.300522
0.287118
0.275664
0.267685
0.262761
0.261868
0.264794
0.271647
0.282214
0.295998
0.312309
0.330387
0.349332
0.368321
0.38674
0.404294
0.420831
0.436346
0.451303
0.465461
0.479071
0.492284
0.504768
0.516663
0.527928
0.53855
0.548532
0.557856
0.566449
0.574283
0.581334
0.587552
0.592884
0.597363
0.600849
0.603152
0.604294
0.604237
0.603063
0.600752
0.597271
0.5924
0.586103
0.578354
0.569153
0.558566
0.546659
0.533509
0.519177
0.504099
0.488686
0.472859
0.456624
0.440056
0.423247
0.406407
0.389615
0.372917
0.356286
0.339678
0.32304
0.306342
0.289617
0.272951
0.256488
0.240366
0.224716
0.209682
0.195409
0.182033
0.169664
0.15839
0.148278
0.139335
0.131531
0.124825
0.119161
0.114449
0.110578
0.107423
0.104873
0.102828
0.101203
0.0999217
0.0989237
0.0981624
0.0976034
0.0972199
0.0969891
0.096894
0.0969217
0.0970534
0.0972701
0.0975482
0.0978698
0.09825
0.0986629
0.0991123
0.0996292
0.100145
0.100639
0.101181
0.101756
0.102343
0.102918
0.103492
0.104128
0.104833
0.105538
0.106079
0.106577
0.107127
0.107745
0.108132
0.108812
0.109076
0.109117
0.109018
0.10879
0.108484
0.108177
0.107964
0.107749
3.17581
3.05352
2.90035
2.77975
2.6846
2.63191
2.61575
2.641
2.7011
2.79691
2.92386
3.077
3.25009
3.4385
3.63647
3.83838
4.04019
4.23932
4.43438
4.62486
4.81053
4.97987
5.13461
5.28009
5.41758
5.54589
5.66438
5.77314
5.87215
5.96122
6.04039
6.10986
6.16972
6.22014
6.26094
6.29175
6.31232
6.32307
6.32365
6.3144
6.29546
6.26646
6.22733
6.17819
6.11936
6.0513
5.9744
5.88903
5.79562
5.6944
5.58503
5.46328
5.32726
5.18015
5.0259
4.86758
4.70819
4.54675
4.38596
4.22523
4.06303
3.89833
3.7302
3.558
3.38152
3.20123
3.01681
2.82806
2.63505
2.43852
2.23977
2.04095
1.84464
1.65393
1.47187
1.3013
1.14435
1.00251
0.876595
0.766538
0.671516
0.590329
0.52153
0.463585
0.415024
0.374466
0.340684
0.312538
0.289107
0.269599
0.253306
0.239639
0.228071
0.218159
0.209522
0.201884
0.195111
0.189154
0.183973
0.179459
0.175549
0.172072
0.169064
0.16661
0.164619
0.162924
0.161271
0.159788
0.158741
0.15777
0.156949
0.155827
0.154851
0.154272
0.154251
0.154427
0.154032
0.15371
0.153419
0.153285
0.153072
0.152604
0.152134
0.152148
0.152532
5.66977
5.51629
5.31687
5.1408
5.0045
4.91745
4.88438
4.9122
4.99652
5.13804
5.33298
5.57418
5.85215
6.15694
6.47752
6.80316
7.12515
7.43729
7.73573
8.01834
8.2838
8.52943
8.7536
8.96023
9.14986
9.32336
9.48098
9.62335
9.75064
9.86311
9.96091
10.0441
10.1123
10.1653
10.2032
10.2259
10.2333
10.2254
10.2021
10.1635
10.11
10.042
9.95968
9.8633
9.75351
9.63097
9.49634
9.35041
9.19409
9.02839
8.8538
8.67061
8.47917
8.28063
8.07651
7.86776
7.65297
7.43329
7.20972
6.98204
6.75007
6.51593
6.27789
6.03433
5.78463
5.52739
5.26479
4.99777
4.72772
4.45645
4.18552
3.91618
3.64992
3.38811
3.13185
2.882
2.63971
2.40678
2.18503
1.97583
1.78006
1.59813
1.43019
1.27628
1.13642
1.01069
0.89911
0.801064
0.715572
0.641435
0.577773
0.523393
0.477107
0.437784
0.404344
0.375864
0.351672
0.331018
0.313374
0.29825
0.285271
0.274001
0.264319
0.256181
0.249355
0.243705
0.238774
0.234152
0.230224
0.22647
0.223038
0.219541
0.216561
0.214469
0.213767
0.213002
0.211571
0.210001
0.208175
0.206387
0.204741
0.203196
0.202099
0.201403
0.201233
7.66167
7.51097
7.3112
7.13447
7.00246
6.92182
6.90307
6.95553
7.07542
7.26266
7.51192
7.81364
8.15658
8.52777
8.91348
9.30069
9.6787
10.0398
10.3792
10.6945
10.9846
11.2494
11.4888
11.7039
11.8978
12.0713
12.2258
12.3622
12.4815
12.5841
12.6702
12.7401
12.7936
12.8309
12.8518
12.8561
12.8439
12.8159
12.7729
12.7151
12.6429
12.5569
12.4576
12.3455
12.2213
12.0857
11.9396
11.7839
11.6185
11.4465
11.2677
11.0824
10.8911
10.6942
10.4923
10.2858
10.0749
9.859
9.63786
9.41083
9.17692
8.9332
8.67981
8.41669
8.14341
7.86306
7.57473
7.2777
6.97239
6.66062
6.34314
6.02208
5.69936
5.37654
5.05543
4.73815
4.42661
4.12295
3.82914
3.54683
3.27729
3.02112
2.77844
2.54907
2.33289
2.12978
1.93947
1.76199
1.59744
1.44565
1.30665
1.18019
1.06583
0.963084
0.87138
0.79021
0.718992
0.656525
0.601727
0.553839
0.511883
0.475132
0.443033
0.415406
0.391515
0.37088
0.352761
0.336486
0.322434
0.309585
0.29801
0.287589