/*--------------------------------*- C++ -*----------------------------------*\
| =========                 |                                                 |
| \\      /  F ield         | OpenFOAM: The Open Source CFD Toolbox           |
|  \\    /   O peration     | Version:  2112                                  |
|   \\  /    A nd           | Website:  www.openfoam.com                      |
|    \\/     M anipulation  |                                                 |
\*---------------------------------------------------------------------------*/
FoamFile
{
    version     2.0;
    format      ascii;
    arch        "LSB;label=32;scalar=64";
    class       volVectorField;
    location    "0.00702";
    object      U;
}
// * * * * * * * * * * * * * * * * * * * * * * * * * * * * * * * * * * * * * //

dimensions      [0 1 -1 0 0 0 0];

internalField   nonuniform List<vector> 
13875
(
(2204.18 109.715 1.81269e-18)
(2142.47 5.69071 -9.38731e-19)
(2170.23 -2.11898 -9.41136e-19)
(2167.75 -0.851337 0)
(2170.52 -0.242526 0)
(2170.17 -1.4107 9.3652e-19)
(2169.75 -0.719927 -9.36832e-19)
(2169.5 0.137583 -4.68612e-19)
(2169.14 0.134197 4.68341e-19)
(2169.19 -0.0285132 0)
(2169.56 0.0766973 -3.88177e-22)
(2169.45 0.876819 -3.88081e-22)
(2169.64 0.931928 0)
(2169.4 -0.0193639 -4.68221e-19)
(2169.44 -0.920677 4.68589e-19)
(2169.61 -1.29079 0)
(2169.87 -0.269161 9.37057e-19)
(2169.22 0.346948 -9.37801e-19)
(2169.14 0.95001 3.87943e-22)
(2169.81 1.18767 -3.85757e-22)
(2170.45 -0.166656 -9.36289e-19)
(2167.85 0.29165 9.37161e-19)
(2171.09 2.49363 -1.87789e-18)
(2143.71 -8.66848 1.91632e-18)
(2210.37 -106.71 1.76349e-18)
(2253.4 91.9122 -1.63235e-18)
(2228.47 -1.25596 1.88341e-18)
(2247.41 0.619071 8.71822e-19)
(2245.41 0.834984 -8.673e-19)
(2248.49 -0.994953 4.1703e-22)
(2247.72 2.11304 5.1987e-22)
(2246.15 1.62535 4.16098e-22)
(2245.34 0.0410265 -4.35969e-19)
(2245.03 -0.0756212 4.36033e-19)
(2245.08 -0.0467349 2.17595e-19)
(2245.42 -0.0794979 -1.63008e-19)
(2245.44 -1.06737 -5.31468e-20)
(2247.74 -1.17527 0)
(2247.85 0.0912245 -4.34964e-19)
(2247.56 1.04545 4.33458e-19)
(2245.6 1.43083 4.36028e-19)
(2245.51 0.505063 -4.35307e-19)
(2245.21 -0.243459 5.18485e-22)
(2245.69 -1.57205 -5.18687e-22)
(2247.84 -1.96654 5.1979e-22)
(2248.4 0.752883 -8.71465e-19)
(2245.58 -0.688223 2.59979e-18)
(2247.26 -1.58966 -1.74254e-18)
(2228.98 3.65402 5.42771e-22)
(2256.46 -97.007 -1.71344e-18)
(2252.4 78.1149 0)
(2236.28 -18.2439 0)
(2249.34 4.41381 0)
(2250.19 -1.77248 0)
(2253.29 -2.25075 -1.63979e-18)
(2252.75 1.43949 1.6423e-18)
(2253.25 2.1727 1.70162e-18)
(2252.79 1.00486 -2.58435e-18)
(2252.49 0.281504 8.62463e-19)
(2252.69 -0.153248 4.30405e-22)
(2253.3 -0.193085 -4.30651e-19)
(2253.09 -2.35664 4.30414e-19)
(2254.11 -2.52714 0)
(2253.99 0.0408711 0)
(2254.04 2.3654 4.08178e-22)
(2253.18 2.00514 0)
(2254.06 0.21889 8.38101e-22)
(2253.13 -0.294236 4.30568e-19)
(2253.09 -2.51059 -4.30669e-19)
(2253.54 -1.75715 0)
(2253.72 2.35255 0)
(2250.91 1.33038 0)
(2250.71 -4.80374 0)
(2237.96 13.8692 0)
(2256.99 -74.6914 0)
(2247.85 51.3819 0)
(2234.97 -28.6357 1.81459e-18)
(2249.11 7.38754 -3.41781e-18)
(2251.14 -4.52605 3.46728e-18)
(2253.05 -2.55205 -1.63299e-18)
(2252.49 1.19279 0)
(2253.38 1.18158 -8.31458e-22)
(2253.57 0.453996 0)
(2253.56 -0.136852 0)
(2253.92 -0.729097 0)
(2254.48 -0.364383 0)
(2254.13 -2.19261 -8.44031e-22)
(2254.08 -2.46065 -5.07056e-20)
(2253.97 0.0182642 5.09696e-20)
(2254 2.27602 0)
(2254.26 1.80393 0)
(2254.74 0.253821 7.99411e-22)
(2254.18 0.394305 -8.57064e-19)
(2253.82 -1.7401 8.56294e-19)
(2253.42 -1.49232 -1.62423e-18)
(2253.56 2.74319 1.62359e-18)
(2251.98 4.32148 1.74096e-18)
(2249.76 -8.86241 -1.72061e-18)
(2235.7 31.3488 0)
(2251.69 -58.3454 0)
(2244.86 39.3301 1.74906e-18)
(2235.37 -47.6694 0)
(2248.54 10.7816 0)
(2249.75 -7.11342 0)
(2253.06 -3.35325 0)
(2252.51 0.613704 1.67903e-21)
(2253.28 0.486182 1.68877e-21)
(2253.45 0.120061 4.33622e-19)
(2253.49 -0.384325 -4.18178e-19)
(2253.94 -1.03571 2.13901e-19)
(2254.5 -0.447623 -2.15997e-19)
(2254.19 -1.78439 0)
(2254.09 -2.29051 0)
(2253.91 -0.00750338 -1.67052e-21)
(2254.05 2.07351 0)
(2254.3 1.3507 -1.68503e-21)
(2254.71 0.261315 8.07201e-19)
(2254.02 0.730563 -8.50301e-19)
(2253.5 -1.21662 1.7159e-18)
(2253.53 -0.845295 -1.6928e-18)
(2253.61 3.75035 1.65328e-21)
(2250.68 6.44595 0)
(2250.04 -11.5289 0)
(2237.27 42.8719 0)
(2250.65 -35.2848 0)
(2241.46 6.83165 0)
(2231.48 -63.3397 9.12634e-19)
(2247.06 12.8459 -8.47718e-19)
(2250.42 -10.5259 0)
(2252.18 -3.83382 8.49259e-19)
(2251.96 -0.0429676 -4.37129e-19)
(2253.51 -0.691204 -3.0644e-21)
(2253.61 -0.352245 -2.18506e-19)
(2253.64 -0.83433 -4.31754e-19)
(2254.04 -1.60358 1.64036e-19)
(2254.43 -0.499369 1.67056e-21)
(2254.12 -1.54894 2.68224e-19)
(2253.95 -2.14727 -2.15164e-19)
(2253.78 -0.0730784 3.37121e-21)
(2253.88 1.88735 -4.2767e-19)
(2254.22 1.15052 4.33301e-19)
(2254.64 0.315215 1.6363e-21)
(2254.12 1.34598 -1.68301e-21)
(2253.74 -0.325107 -1.67981e-21)
(2252.97 -0.376145 -8.60347e-19)
(2252.77 4.11984 8.46073e-19)
(2251.44 10.6649 0)
(2247.38 -15.1782 0)
(2232.46 65.3796 -1.93349e-18)
(2246.18 -18.9114 -1.26516e-19)
(2253.98 2.99277 -4.9533e-20)
(2227.42 -79.0161 6.02481e-20)
(2242.88 12.9654 0)
(2247.97 -14.6494 -2.69405e-23)
(2251.84 -5.41413 -2.60512e-23)
(2251.91 -1.3928 0)
(2253.27 -1.53079 0)
(2253.41 -0.606363 -8.61138e-19)
(2253.53 -1.13242 8.62366e-19)
(2254.05 -1.82945 0)
(2254.31 -0.432983 1.66431e-18)
(2254.11 -1.08891 3.86461e-21)
(2253.85 -1.75046 -1.72039e-18)
(2253.63 -0.0962824 -1.71128e-21)
(2253.86 1.45746 0)
(2254.19 0.685809 3.4462e-18)
(2254.42 0.362817 1.79013e-21)
(2253.76 1.72106 -6.90578e-18)
(2253.09 0.326708 3.45152e-18)
(2252.81 0.933594 2.64383e-23)
(2252.27 6.08185 0)
(2248.52 12.9471 3.52703e-18)
(2244.19 -12.5239 -3.30853e-18)
(2228.9 72.8846 3.81523e-18)
(2247.24 2.83971 -3.18164e-18)
(2218.31 -22.743 -3.16738e-19)
(2214.63 -87.1321 -7.49737e-18)
(2235.52 4.34799 8.70376e-22)
(2245.73 -21.5289 2.61133e-23)
(2248.72 -7.67335 -8.09194e-22)
(2251.04 -3.25064 0)
(2252.91 -2.68889 -3.44519e-18)
(2253.24 -1.25171 3.41712e-18)
(2253.48 -1.75359 0)
(2253.91 -2.27291 -8.34447e-22)
(2254.03 -0.521715 -8.21437e-22)
(2253.81 -0.875079 0)
(2253.51 -1.54032 0)
(2253.32 -0.0946045 -1.65935e-21)
(2253.47 1.27781 -8.36907e-22)
(2253.94 0.530541 2.59956e-23)
(2254.13 0.676006 -8.56034e-22)
(2253.53 2.47198 -2.6289e-23)
(2252.91 1.78496 -1.7327e-18)
(2251.42 2.39406 -1.6229e-20)
(2249.26 8.03243 1.68904e-18)
(2246.4 19.379 8.8542e-22)
(2236.73 -4.7922 3.45888e-18)
(2216.56 81.4743 -3.53741e-18)
(2222.3 18.1379 2.50349e-23)
(2113.29 -37.7743 9.42716e-19)
(2168.57 -98.3562 0)
(2217.06 -19.3153 -8.31255e-22)
(2234.62 -31.4935 -8.66556e-19)
(2245.8 -15.9594 1.71552e-18)
(2248.76 -7.17435 -1.73121e-18)
(2251.49 -4.53569 9.21965e-21)
(2252.24 -1.89866 8.49122e-19)
(2252.82 -2.10623 0)
(2253.34 -2.4111 -8.4145e-19)
(2253.44 -0.302049 8.44799e-19)
(2253.35 -0.204823 0)
(2252.96 -0.9906 0)
(2252.71 -0.23951 2.10413e-21)
(2252.95 0.553214 8.32236e-22)
(2253.31 0.0450284 8.41175e-19)
(2253.32 0.894562 -8.44182e-19)
(2252.53 3.2764 0)
(2251.25 3.40912 8.60866e-19)
(2249.45 6.01525 -1.72882e-18)
(2246.22 15.1111 8.45115e-19)
(2236.18 28.8611 -8.40901e-22)
(2219.03 16.6638 0)
(2171.37 93.917 0)
(2117.08 35.3253 0)
(1873.78 -142.019 -6.57136e-17)
(2125.75 -160.896 8.42483e-17)
(2198.88 -53.7075 0)
(2229.54 -52.9166 -2.99103e-17)
(2240.24 -21.6842 3.1008e-17)
(2247.15 -12.2998 0)
(2249.66 -7.16779 -2.94797e-20)
(2251.01 -3.7081 -1.45621e-17)
(2251.65 -3.47579 1.46511e-17)
(2252.09 -2.95734 -2.91087e-20)
(2252.23 -0.598488 0)
(2252.17 -0.0764612 -3.70061e-18)
(2251.78 -0.612118 5.58929e-18)
(2251.5 -0.257791 -1.90084e-18)
(2251.69 0.446955 -2.91908e-20)
(2252.01 0.399784 0)
(2251.89 1.79 0)
(2250.94 5.04468 -2.9486e-17)
(2249.42 7.57697 2.90908e-17)
(2246.67 10.2938 -3.05991e-17)
(2240.48 20.4625 2.91883e-17)
(2229.43 52.932 3.2205e-17)
(2199.89 52.5115 -2.9227e-17)
(2128.74 161.84 -8.33783e-17)
(1884.73 138.332 -1.25751e-17)
(1653.45 -215.289 -9.0824e-17)
(2012.05 -306.739 1.37514e-16)
(2160.08 -103.808 0)
(2211.63 -64.6868 6.82901e-17)
(2233.19 -30.0252 -7.14115e-17)
(2242.28 -15.3947 -3.38915e-17)
(2245.31 -7.23302 3.36059e-17)
(2247.89 -4.13797 -3.33092e-17)
(2248.97 -3.34442 3.34854e-17)
(2249.58 -2.0854 3.2324e-20)
(2249.86 0.0897746 0)
(2249.86 0.754374 -2.11438e-18)
(2249.49 0.0915398 2.16788e-18)
(2249.13 -0.381572 3.31717e-20)
(2249.23 -0.518435 3.26843e-20)
(2249.35 -0.430267 3.27585e-20)
(2249.11 0.910143 0)
(2247.98 4.58757 0)
(2245.04 7.62535 -6.77017e-17)
(2242.25 15.3357 6.82281e-17)
(2233.68 26.885 -7.13862e-17)
(2211.61 58.9799 1.47081e-16)
(2166.07 99.2752 -6.99627e-17)
(2016.75 298.534 -3.86869e-20)
(1698 205.976 8.75068e-20)
(1282.54 -592.281 -1.08885e-16)
(1743.85 -590.666 1.18937e-16)
(2047.1 -180.61 2.16785e-16)
(2174.46 -107.233 -9.36838e-17)
(2208.63 -36.61 0)
(2230.31 -20.3281 7.39639e-17)
(2238.36 -13.0316 -7.50597e-17)
(2241.7 -8.06253 0)
(2243.24 -5.91881 3.54339e-20)
(2244.24 -3.49819 0)
(2244.72 -0.712534 0)
(2244.78 0.595747 0)
(2244.53 0.563106 4.6718e-18)
(2244.14 -0.0686891 -4.63659e-18)
(2244.1 0.0261897 -3.70751e-20)
(2243.85 0.836397 -3.53937e-20)
(2243.24 2.88437 0)
(2241.63 7.29692 0)
(2237.89 14.0329 0)
(2228.54 19.1312 -7.89073e-17)
(2211.55 37.2021 1.56869e-16)
(2176.54 102.474 -7.22981e-17)
(2053.19 161.924 -1.33609e-16)
(1750.11 592.288 1.00485e-16)
(1286.29 543.587 -5.99287e-20)
(1302.7 -610.543 1.60744e-16)
(1114.64 -1086.35 0)
(1701.53 -454.859 0)
(1928.37 -130.145 -1.08326e-16)
(2151.22 -84.9318 1.09165e-16)
(2201.61 -42.5824 0)
(2215.42 -13.7717 1.12863e-20)
(2224.37 -6.72568 4.04521e-17)
(2228.13 -2.99052 -4.08533e-17)
(2230.73 -0.731713 0)
(2231.92 1.14732 -1.00376e-17)
(2232.27 1.68353 1.01274e-17)
(2232.27 1.37568 -5.08797e-18)
(2231.84 0.167704 5.09101e-18)
(2231.46 -0.755604 3.86152e-20)
(2230.25 -1.28996 -4.06108e-17)
(2227.79 -0.273825 8.05022e-17)
(2223.48 4.34996 1.03567e-18)
(2213.6 13.2155 -4.04169e-17)
(2197.84 44.6373 -9.09011e-17)
(2134.24 71.9777 8.43626e-17)
(1912.06 108.991 8.26548e-20)
(1759.72 453.521 2.607e-20)
(1103.44 1071.52 1.67395e-16)
(1319.75 612.246 7.15457e-18)
(1359.62 -629.916 0)
(1143.47 -1059.22 0)
(1291.42 -753.152 0)
(1198.09 -816.161 0)
(1953.89 -255.454 0)
(2051.38 -62.3392 1.01689e-16)
(2156.42 -48.3601 -1.04161e-16)
(2174.79 -30.9138 1.15755e-19)
(2183.9 -19.9622 -1.03192e-20)
(2190.86 -10.8124 2.26237e-17)
(2193.46 -4.41873 -2.2879e-17)
(2194.43 -0.613231 -2.26576e-19)
(2194.64 1.14633 -7.08257e-19)
(2194.16 1.98334 8.04021e-19)
(2193.34 4.01518 -2.26928e-17)
(2190.75 8.74216 2.24681e-17)
(2183.85 17.8981 9.96629e-20)
(2173.39 31.6219 0)
(2149.51 52.9528 0)
(2019.87 86.7985 0)
(1916.98 323.311 -2.11154e-16)
(1177.7 818.631 -6.08066e-17)
(1296.63 703.396 1.63915e-16)
(1135.3 1023.33 2.05641e-20)
(1369.27 618.864 2.0859e-20)
(1437.67 -621.49 0)
(1273.27 -928.71 3.94242e-20)
(1321.39 -785.383 0)
(1235.63 -858.352 -1.6743e-16)
(1333.32 -807.164 3.17694e-16)
(1647.98 -553.295 -2.04819e-16)
(1936.32 -116.531 0)
(1955.7 -12.0211 -1.02691e-19)
(2001.66 16.3463 0)
(2039.64 10.968 0)
(2052.34 8.00133 -1.41598e-17)
(2056.61 4.08403 1.44764e-17)
(2057.75 2.71618 1.43018e-17)
(2057.09 1.31966 -1.43871e-17)
(2054.57 -0.988034 0)
(2045.22 -5.72871 -5.89764e-17)
(2011.55 -12.1605 5.955e-17)
(1958.03 15.4965 7.12986e-17)
(1936.18 137.392 -5.98814e-17)
(1605.43 582.202 0)
(1307.22 797.1 0)
(1206.01 847.989 -1.69185e-19)
(1330.7 778.646 -1.70832e-16)
(1266.63 919.466 3.66726e-16)
(1425.5 618.882 -1.69398e-16)
(1519.84 -631.057 -1.69229e-16)
(1388.16 -853.057 1.87002e-16)
(1382.51 -757.364 0)
(1279.84 -815.537 -1.90739e-16)
(1304.36 -780.939 -6.56904e-18)
(1300.44 -745.474 2.77851e-16)
(1250.41 -590.835 -2.00464e-16)
(1306.66 -521.091 1.18557e-16)
(1516.4 -284.974 0)
(1548.39 -129.635 0)
(1533.45 -64.6292 -4.1403e-20)
(1529.32 -23.7135 2.78873e-19)
(1526.07 -3.38504 0)
(1527.42 14.5088 0)
(1531.45 46.8187 5.8963e-17)
(1542.56 117.602 -5.60213e-17)
(1553.63 244.824 -1.12242e-16)
(1318.01 522.307 2.26066e-16)
(1239.7 591.642 1.80485e-17)
(1281.47 746.034 -8.99253e-17)
(1299.64 776.872 0)
(1252.45 819.687 0)
(1380.9 758.208 -1.74144e-16)
(1352.37 884.711 2.03247e-16)
(1502.06 640.578 -4.59279e-20)
(1659.26 -609.752 1.57272e-16)
(1560.87 -751.713 -9.70142e-20)
(1526.51 -689.611 9.51586e-17)
(1468.51 -720.02 -8.46145e-17)
(1393.87 -675.624 -4.5177e-20)
(1329.69 -594.299 8.78907e-20)
(1179.94 -442.692 1.16274e-16)
(846.331 -225.399 -1.81376e-16)
(654.797 -118.384 6.41271e-17)
(512.258 -52.6226 0)
(388.19 -16.9573 -3.37367e-17)
(345.154 -4.49096 3.36261e-17)
(326.926 1.3948 0)
(333.389 7.90688 6.25608e-20)
(365.056 14.2602 -3.35707e-17)
(474.268 42.9395 3.38627e-17)
(698.03 115.215 0)
(838.844 234.394 -1.17717e-16)
(1161.42 429.064 1.17632e-16)
(1313.62 588.359 8.92444e-17)
(1387.95 679.141 -1.8788e-16)
(1434.67 743.803 9.90934e-17)
(1518.47 709.595 0)
(1545.45 777.343 1.68911e-16)
(1648.83 624.769 -3.26958e-18)
(1814.16 -550.652 -3.33482e-18)
(1745.74 -593.358 8.03657e-17)
(1688.36 -535.144 -3.65944e-17)
(1533.33 -410.332 -5.7454e-17)
(1427.82 -341.361 7.29741e-17)
(1378.59 -258.783 -5.13009e-17)
(1278.77 -247.187 5.33867e-17)
(918.695 -179.149 -5.89969e-17)
(704.611 -95.2323 -4.06896e-19)
(589.627 -59.418 3.30879e-17)
(494.017 -36.7687 1.65085e-17)
(461.131 -19.2851 -1.63852e-19)
(448.032 -0.0458072 -1.66895e-17)
(454.491 22.9759 -6.12841e-20)
(485.249 37.8748 -7.58686e-20)
(578.137 54.7171 -2.07668e-18)
(764.532 91.951 1.5006e-20)
(932.379 171.047 5.44271e-18)
(1276.56 222.841 -3.5288e-18)
(1376.8 291.333 0)
(1420.46 396.498 1.08428e-17)
(1538.07 456.545 -3.48811e-17)
(1688.31 579.945 4.1643e-17)
(1741.92 626.657 -5.67402e-17)
(1808.9 568.262 5.32745e-17)
(1992.08 -508.969 -8.64197e-20)
(1952.05 -338.811 -1.04653e-19)
(1884.62 -310.642 1.22728e-19)
(1777.18 -198.779 -5.62226e-21)
(1503.69 -38.2674 -1.85309e-19)
(1412.32 -20.1464 -1.98826e-19)
(1372.71 -77.7165 -7.22371e-21)
(1188.66 -93.6461 0)
(953.518 -110.915 0)
(828.676 -120.719 6.5631e-17)
(754.035 -99.7257 -6.68558e-17)
(711.71 -46.9529 -8.89038e-21)
(696.551 2.47685 8.86626e-21)
(701.532 50.6102 -8.61302e-18)
(737.604 114.554 8.35578e-18)
(819.312 148.193 0)
(970.079 133.325 0)
(1161.01 108.12 -5.68246e-17)
(1343.06 77.7459 5.58827e-17)
(1372.07 8.87009 -1.94266e-19)
(1497.8 32.5121 0)
(1784.04 208.932 0)
(1885.99 313.459 -1.25369e-19)
(1948.67 335.432 -1.07917e-19)
(1992.34 523.372 1.23213e-16)
(1537.29 -187.08 -1.86745e-16)
(1745.99 -108.925 -2.41061e-16)
(1862.67 104.365 1.20862e-16)
(1798.68 166.597 0)
(1617.49 214.463 2.02659e-19)
(1516.68 134.902 1.07302e-16)
(1506.6 19.5203 -2.0833e-16)
(1405.59 -22.3838 1.06363e-16)
(1213.64 -62.1228 -1.21334e-16)
(1059.91 -84.3635 1.25243e-16)
(941.483 -70.352 3.29344e-17)
(873.309 -27.6698 -4.0982e-17)
(849.685 6.68545 -8.29737e-18)
(866.505 39.2476 1.67731e-17)
(935.282 88.7134 0)
(1068.35 110.394 0)
(1232.21 82.2594 1.1703e-16)
(1388.61 39.7491 -2.21202e-16)
(1495.28 -24.5211 1.09061e-16)
(1500.12 -150.575 2.28482e-19)
(1634.95 -216.557 1.56543e-16)
(1789.41 -165.67 -9.30617e-17)
(1837.36 -146.137 -4.77397e-16)
(1742.78 120.19 6.29057e-16)
(1528.8 185.425 -2.52374e-16)
(22.9274 -72.4709 1.1457e-19)
(593.259 -77.1333 -2.57886e-16)
(1427.45 348.794 1.68545e-16)
(1688.09 513.194 0)
(1660.41 432.714 0)
(1612.36 263.042 0)
(1602 125.956 0)
(1528.19 63.7754 0)
(1360.61 15.66 -5.18819e-17)
(1202.48 -19.3143 1.08592e-16)
(1080.04 -24.9042 -8.46469e-17)
(1005.18 -5.29559 3.21361e-17)
(984.515 9.3311 -3.61955e-18)
(1005.54 21.2503 1.56234e-20)
(1088.42 44.8013 -5.58206e-17)
(1228.29 40.5487 5.55728e-17)
(1389.8 1.6723 0)
(1527.78 -50.4659 0)
(1607.61 -126.962 -1.72512e-16)
(1603.05 -288.259 1.85469e-16)
(1672.25 -435.699 -1.63362e-19)
(1672.5 -509.319 7.1522e-20)
(1372.16 -340.925 -9.57441e-20)
(518.683 107.552 -1.14662e-19)
(-27.4753 69.282 0)
(-336.006 -48.7546 -2.23934e-16)
(464.315 310.401 2.27023e-16)
(1299.22 695.466 -1.65706e-19)
(1655.36 748.135 1.5978e-16)
(1720.64 582.547 -1.22151e-16)
(1692.17 371.931 0)
(1672.11 225.842 -8.18269e-17)
(1611.35 158.454 7.46648e-17)
(1466.02 91.1775 -4.47401e-17)
(1318.29 37.1984 9.37276e-17)
(1195.49 13.1973 -4.82394e-17)
(1125.6 10.0968 1.82945e-19)
(1104.88 7.31612 0)
(1131.07 2.69625 2.48769e-17)
(1213.14 -0.580377 2.31649e-17)
(1351.08 -27.7352 -4.75257e-17)
(1494.82 -87.7577 -8.17978e-17)
(1611.61 -150.646 8.39877e-17)
(1683.76 -226.83 -7.14982e-17)
(1689.46 -403.675 7.96939e-17)
(1720.59 -604.239 7.98006e-20)
(1624.55 -761.724 -7.51419e-20)
(1233.75 -682.679 0)
(395.449 -297.678 1.10839e-19)
(-331.007 31.79 0)
(350.674 356.733 1.87395e-16)
(927.258 788.693 -1.82112e-16)
(1443.29 895.199 6.07196e-20)
(1698.43 864.604 0)
(1772.71 675.223 0)
(1739.72 495.641 -7.31341e-21)
(1711.66 351.514 0)
(1665.9 248.384 7.4192e-20)
(1542.69 165.951 0)
(1409.54 96.4421 4.17148e-17)
(1300.48 50.3555 -6.40552e-17)
(1231.57 25.3027 3.26236e-17)
(1212.91 6.33713 -1.09932e-17)
(1236.96 -15.118 0)
(1316.64 -39.8437 0)
(1438.03 -89.0438 3.89719e-17)
(1565.8 -160.143 -1.09692e-16)
(1664.77 -247.051 7.31255e-17)
(1732.97 -342.095 -6.03187e-17)
(1741.99 -502.131 7.04598e-17)
(1781.63 -682.59 0)
(1684.43 -881.351 0)
(1425.99 -894.619 0)
(930.411 -796.052 -1.12329e-20)
(355.274 -338.87 -1.97345e-16)
(410.833 180.85 -3.56375e-20)
(1176.77 770.628 1.52181e-16)
(1566.11 953.683 -1.14569e-16)
(1756.92 904.847 0)
(1802.21 737.639 0)
(1762.18 585.205 7.48752e-21)
(1749.62 442.818 6.42452e-17)
(1713.77 325.379 -5.7257e-17)
(1605.17 222.721 3.04815e-20)
(1488.01 138.869 3.31065e-20)
(1387.99 78.8554 3.49076e-20)
(1327.99 37.5947 -1.0331e-20)
(1308.14 4.21454 -1.03754e-20)
(1332.9 -30.6959 1.9269e-17)
(1402.69 -73.5493 -1.93598e-17)
(1514.5 -135.836 4.24024e-20)
(1626.82 -219.791 3.90519e-20)
(1709.64 -327.222 0)
(1765.82 -433.13 -5.37484e-17)
(1774.48 -583.883 6.25071e-17)
(1814.65 -741.065 0)
(1752.39 -914.716 -9.75771e-17)
(1550.08 -953.551 1.18995e-16)
(1160.48 -756.935 8.80661e-21)
(410.146 -161.694 -1.85348e-16)
(610.927 186.931 4.10746e-20)
(1323.34 792.335 0)
(1651.14 956.511 0)
(1795.5 912.177 -4.7226e-17)
(1810.92 777.7 4.62022e-17)
(1777.59 645.796 0)
(1780.49 511.467 5.84038e-17)
(1749.86 384.352 -5.28551e-17)
(1653.4 274.169 3.20162e-17)
(1550.06 179.037 -3.22669e-17)
(1465.21 103.566 1.77143e-17)
(1409.17 48.9032 -1.78122e-17)
(1394.15 2.09172 0)
(1415.62 -46.5979 -1.76416e-17)
(1481.6 -103.422 1.77103e-17)
(1576.52 -182.619 -3.48334e-20)
(1675.79 -272.61 -3.22176e-20)
(1747.84 -394.386 5.17736e-20)
(1792.98 -510.456 4.93321e-17)
(1785.55 -648.939 -5.76977e-17)
(1827.73 -783.323 -4.57602e-20)
(1794.64 -921.81 -4.33689e-20)
(1641.18 -946.392 0)
(1281.65 -770.776 -7.03841e-20)
(580.325 -166.272 4.1678e-20)
(649.126 177.379 1.57379e-22)
(1386.96 727.883 0)
(1714.24 894.993 9.05658e-23)
(1794.99 909.683 3.95833e-20)
(1815.14 810.379 -8.52753e-23)
(1793.39 695.481 -5.15865e-17)
(1809.45 563.167 4.59017e-17)
(1786.44 434.281 0)
(1700.37 314.095 -5.94033e-20)
(1611.82 211.611 -1.08381e-22)
(1533.21 126.025 -1.13888e-22)
(1486.4 57.877 6.87753e-20)
(1469.6 0.708912 0)
(1490.78 -56.9978 0)
(1546.04 -126.579 -1.13205e-22)
(1633.9 -214.886 -1.07321e-22)
(1720.23 -313.463 -2.64366e-17)
(1781.08 -441.208 7.5375e-17)
(1816.35 -560.941 -5.30789e-17)
(1802.01 -695.84 0)
(1830.32 -805.388 -4.39673e-17)
(1796.02 -913.367 4.29669e-17)
(1715.64 -886.433 9.0316e-23)
(1379.49 -706.091 6.02337e-20)
(651.213 -180.107 1.5692e-22)
(763.164 220.098 3.98849e-18)
(1494.74 702.343 1.38215e-17)
(1758.66 863.633 9.6386e-17)
(1801.1 898.038 -4.04944e-17)
(1827.29 809.926 4.18851e-17)
(1810.84 710.38 -4.76959e-17)
(1836.4 591.533 4.27407e-17)
(1811.52 467.39 -2.53012e-17)
(1734.48 347.487 2.48114e-17)
(1658.64 240.169 1.15263e-22)
(1595.29 144.186 1.20803e-22)
(1551.18 67.3181 -1.23252e-22)
(1538.63 0.620462 7.42478e-18)
(1555.58 -67.5071 7.25676e-18)
(1607.44 -146.172 -1.48677e-17)
(1679.21 -245.525 1.14214e-22)
(1755.58 -342.472 4.91366e-17)
(1810.32 -473.331 -9.55155e-17)
(1844.4 -587.834 4.87274e-17)
(1813.86 -714.428 0)
(1841.35 -808.57 -8.33039e-23)
(1803.51 -901.26 7.71796e-23)
(1755.03 -863.315 -8.26269e-23)
(1483.81 -696.311 -1.1948e-16)
(755.044 -218.873 1.46808e-16)
(798.003 229.095 1.38998e-19)
(1538.65 651.356 0)
(1778.36 806.065 0)
(1804.49 872.402 3.89946e-20)
(1831.95 798.565 8.1001e-20)
(1833.59 723.812 0)
(1863.44 610.613 4.49136e-17)
(1840.25 488.11 -4.24427e-17)
(1769.92 363.928 4.45626e-20)
(1706.97 254.496 -4.77539e-20)
(1648.29 154.884 -1.37555e-17)
(1613.16 70.3581 1.3716e-17)
(1599.55 -3.54013 3.5685e-18)
(1617.35 -78.1325 -3.4665e-18)
(1660 -164.414 1.32658e-17)
(1726.68 -269.076 -3.80599e-17)
(1791.2 -372.756 2.47715e-17)
(1835.31 -503.816 -4.64318e-20)
(1864.76 -617.04 3.93689e-20)
(1834.23 -731.785 -4.02216e-17)
(1844.02 -800.114 1.06885e-18)
(1810.03 -873.17 -1.72349e-18)
(1782.36 -798.158 4.07017e-17)
(1514.24 -626.53 5.56717e-20)
(747.096 -223.259 6.80193e-20)
(790.458 212.012 1.3396e-16)
(1569.9 592.086 -1.07524e-16)
(1802.91 762.227 0)
(1819.51 846.512 -3.78776e-17)
(1851.64 786.85 2.98862e-19)
(1853.79 718.048 3.90819e-17)
(1886.7 618.438 4.17256e-17)
(1859.77 506.19 -4.01424e-17)
(1798.44 387.259 -4.72414e-20)
(1745.33 277.279 -2.46204e-17)
(1700.18 171.029 1.19301e-17)
(1665.93 81.5616 1.26286e-17)
(1655.74 0.68237 -5.38137e-20)
(1668.16 -81.2639 0)
(1707.93 -171.815 0)
(1759.99 -282.595 0)
(1818.2 -380.288 4.6757e-20)
(1858.75 -509.331 9.70121e-21)
(1890.88 -612.027 -4.97797e-20)
(1854.54 -718.913 0)
(1861.38 -786.769 3.82578e-20)
(1822.99 -848.433 9.24545e-21)
(1804.78 -767.846 -4.79287e-20)
(1586.75 -595.693 -1.05048e-16)
(837.354 -242.448 1.31635e-16)
(827.177 238.365 6.55231e-17)
(1588.34 528.594 -9.54719e-17)
(1819.31 676.33 8.23045e-17)
(1832.07 790.546 -4.08202e-17)
(1859.5 755.628 -3.77091e-17)
(1873.98 707.766 3.71485e-17)
(1908.37 621.379 1.93186e-17)
(1882.76 513.043 -1.90291e-17)
(1827.51 391.336 1.08578e-17)
(1785.52 281.23 -2.24405e-17)
(1742.12 175.148 1.73917e-17)
(1716.69 82.4133 -7.3783e-18)
(1705.42 -2.2971 1.48825e-18)
(1719.16 -88.0377 -4.36857e-20)
(1750.95 -181.329 2.2881e-17)
(1800.89 -294.439 -2.29323e-17)
(1848.34 -397.104 3.88843e-20)
(1878.93 -523.142 3.7979e-17)
(1910.43 -621.412 -2.00443e-18)
(1868.4 -713.226 -3.83059e-17)
(1868.79 -758.059 0)
(1837.65 -797.383 4.0824e-17)
(1821.04 -693.885 -3.61161e-17)
(1587.23 -532.598 -1.02161e-16)
(830.985 -243.093 -9.29446e-19)
(935.378 266.887 -6.25399e-17)
(1650.07 480.392 4.78636e-17)
(1843.07 629.845 1.90215e-20)
(1844.49 750.445 -5.38438e-20)
(1886.35 738.603 1.82473e-20)
(1895.91 687.137 3.56987e-17)
(1930.27 602.072 -1.72434e-17)
(1896.84 505.594 -1.84178e-17)
(1850.11 394.277 4.17372e-20)
(1815.39 288.918 -4.42287e-20)
(1783.8 179.553 2.02807e-20)
(1758.38 84.917 -2.06004e-20)
(1751.52 -3.47401 0)
(1760.82 -93.9765 5.27157e-21)
(1791.12 -189.147 -1.07165e-17)
(1828.1 -303.98 1.07879e-17)
(1871.87 -398.095 -1.93869e-17)
(1898.47 -520.632 1.02642e-18)
(1933.26 -604.304 1.80906e-17)
(1891.96 -691.961 -5.28914e-20)
(1890.12 -744.278 -3.69547e-17)
(1852.46 -754.481 3.48589e-17)
(1847.82 -634.977 0)
(1637.51 -485.7 -4.82568e-17)
(879.744 -260.008 6.25576e-17)
(950.821 269.499 0)
(1666.17 431.759 -4.20113e-17)
(1847.67 546.063 4.26472e-17)
(1864.34 670.981 1.76918e-20)
(1897.04 698.92 1.71398e-20)
(1914.48 667.313 -3.41742e-17)
(1944.22 598.369 3.42804e-17)
(1916.45 509.372 1.8365e-17)
(1876.28 397.627 8.04713e-19)
(1850.98 291.733 -1.9742e-17)
(1818.91 184.201 -2.14911e-20)
(1800.94 88.8679 2.41663e-20)
(1791.82 -0.853098 0)
(1802 -91.9635 4.34472e-20)
(1824.74 -186.124 -2.14122e-20)
(1862.07 -302.383 9.79079e-18)
(1896.48 -399.779 -9.67523e-18)
(1913.16 -517.467 -1.83477e-20)
(1946.04 -597.428 -1.91511e-20)
(1908.84 -668.498 1.74273e-20)
(1900.09 -706.758 -3.65099e-17)
(1869.99 -689.86 -6.31442e-18)
(1861.67 -564.45 3.34046e-17)
(1679.17 -439.168 0)
(1001.9 -296.496 5.97983e-17)
(1044.3 285.333 -1.14399e-16)
(1701.61 394.113 4.45122e-17)
(1860.95 486.151 3.23567e-17)
(1886.11 625.549 -4.08409e-17)
(1916 672.634 0)
(1937.09 647.119 -2.05252e-21)
(1963.96 574.438 0)
(1928.22 491.689 -2.20664e-21)
(1895.11 391.764 -2.34509e-21)
(1874.04 292.748 0)
(1852.82 184.094 0)
(1833.96 88.8134 -2.56581e-21)
(1829.38 -2.22644 0)
(1835.72 -96.1088 0)
(1858.18 -190.546 -9.63585e-18)
(1883.56 -304.989 9.63513e-18)
(1917.81 -391.715 -2.32287e-21)
(1931.65 -504.783 -1.72045e-17)
(1965.22 -577.689 1.63615e-17)
(1933.91 -649.42 0)
(1917.61 -682.439 3.56792e-17)
(1887.97 -642.427 -7.29183e-17)
(1874.49 -508.23 7.22281e-17)
(1713.7 -392.303 4.5372e-18)
(1041.54 -283.118 -5.67388e-17)
(1102.26 280.742 1.35417e-20)
(1721.17 364.07 -1.03191e-20)
(1865 421.191 0)
(1903.42 536.614 0)
(1925.3 616.741 0)
(1954.65 616.634 7.64412e-21)
(1972.99 561.438 0)
(1943.46 484.238 -7.88979e-21)
(1918.68 385.155 0)
(1906.17 285.04 -8.50741e-21)
(1880.93 179.283 0)
(1869.11 86.2965 -2.35016e-18)
(1861.92 -3.68077 2.34378e-18)
(1870.03 -95.6823 0)
(1886.04 -186.373 9.19371e-18)
(1913.89 -302.201 -1.80909e-17)
(1938.69 -392.171 8.75591e-18)
(1944.51 -496.429 0)
(1975.86 -566.76 1.59325e-17)
(1948.19 -621.831 -1.58346e-17)
(1929.02 -628.404 3.56858e-17)
(1908.08 -563.594 -3.16079e-17)
(1865.86 -438.244 0)
(1723.61 -352.219 0)
(1058.09 -249.281 0)
(1145.3 272.799 -1.31674e-20)
(1745.9 340.805 1.02534e-20)
(1880.31 357.597 0)
(1918.94 465.783 0)
(1944.28 581.085 0)
(1973.02 597.854 -7.5838e-21)
(1993.44 538.449 0)
(1955.73 463.002 8.23755e-21)
(1936.39 375.039 0)
(1924.55 285.971 -8.82163e-18)
(1909.84 181.82 8.81441e-18)
(1895.64 89.163 -8.40394e-21)
(1892.62 -0.351765 9.24832e-21)
(1896.5 -93.5929 8.39803e-21)
(1913.1 -183.508 0)
(1930.38 -294.534 0)
(1958.32 -372.619 8.54587e-21)
(1961.23 -473.026 -1.62948e-17)
(1996.15 -540.969 1.51014e-17)
(1970.41 -601.807 0)
(1942.1 -594.407 7.7929e-21)
(1923.58 -485.212 0)
(1875.02 -378.454 0)
(1740.97 -327.682 0)
(1120.79 -246.561 0)
(1175.28 240.842 -5.03663e-17)
(1758.73 309.81 4.16273e-17)
(1889.04 308.727 0)
(1929.85 379.025 -1.68878e-20)
(1954.9 517.849 0)
(1983.28 552.512 -1.4475e-17)
(2000.61 517.664 3.03864e-17)
(1969.69 452.501 -1.58545e-17)
(1956.39 365.521 -8.14696e-18)
(1953.14 274.543 8.34316e-18)
(1932.42 173.303 4.35057e-21)
(1924.99 84.7738 1.11068e-18)
(1918.88 -2.61654 -1.07266e-18)
(1925.43 -92.8549 8.46794e-18)
(1937.21 -177.69 -8.53327e-18)
(1957.66 -290.578 0)
(1975.74 -370.65 -1.51876e-20)
(1972.29 -463.258 0)
(2003.53 -527.174 0)
(1981.28 -563.628 -1.62219e-17)
(1953.08 -529.326 1.46544e-17)
(1933.6 -396.66 0)
(1884.48 -312.962 3.65503e-17)
(1746.62 -304.164 2.00976e-18)
(1159.45 -246.077 -1.04056e-16)
(1233.9 222.921 5.05455e-17)
(1784.26 287.252 1.91602e-20)
(1901.43 258.725 3.09831e-17)
(1928.59 317.917 -2.33644e-17)
(1967.72 475.611 -1.77766e-17)
(1997.42 523.075 0)
(2018.71 492.802 7.59187e-21)
(1982.2 425.126 1.52144e-17)
(1972.69 346.51 -1.58902e-17)
(1966.89 266.96 0)
(1956.11 170.458 0)
(1945.66 83.3746 -2.59231e-20)
(1944.26 -2.45152 3.21035e-20)
(1946.63 -93.4737 1.69178e-20)
(1959.41 -176.391 4.069e-18)
(1970.97 -280.485 -4.04521e-18)
(1993.83 -350.131 8.43637e-21)
(1990.38 -440.33 1.558e-17)
(2023.27 -498.547 -2.90919e-17)
(1996.81 -531.293 1.39912e-17)
(1967.65 -488.853 -1.48545e-20)
(1935.59 -315.368 0)
(1900.23 -264.09 1.69242e-20)
(1775.7 -291.539 4.01613e-17)
(1221.47 -235.913 -9.97258e-17)
(1236.14 184.215 -4.97003e-17)
(1784.34 257.423 -3.80737e-17)
(1903.46 227.21 3.47217e-17)
(1917.07 236.526 1.45272e-17)
(1976.11 387.938 -1.8528e-17)
(2004.81 461.357 0)
(2024.09 463.354 3.7028e-21)
(1994.83 414.407 -1.10563e-20)
(1991.21 340.249 7.60343e-18)
(1992.77 257.968 -1.55902e-17)
(1974.94 164.159 7.90515e-18)
(1970.66 81.924 1.97263e-18)
(1965.61 -1.01236 -1.858e-18)
(1970.94 -87.4481 1.83304e-18)
(1979.28 -164.782 -1.97881e-18)
(1994.54 -271.243 0)
(2008.65 -342.69 1.12351e-20)
(1998.89 -422.504 -3.57935e-21)
(2027.06 -476.986 -1.49693e-17)
(2004.34 -479.281 1.36655e-17)
(1975.84 -405.212 0)
(1923.71 -250.887 0)
(1906.22 -221.758 -4.09974e-21)
(1793.07 -265.76 -3.96694e-17)
(1266.48 -211.561 -1.75622e-18)
(1276.14 167.734 -2.33945e-17)
(1797.05 241.134 1.94298e-17)
(1915.74 205.713 4.10774e-21)
(1918.55 177.061 0)
(1985.58 314.522 1.3466e-17)
(2017.57 422.279 -1.62357e-17)
(2036.95 436.562 3.43478e-21)
(2007.3 382.693 3.66292e-21)
(2006.49 318.476 1.41036e-20)
(2002.84 248.017 -1.89472e-18)
(1994.19 159.978 9.51506e-19)
(1986.84 79.3989 1.88185e-18)
(1986.49 -1.6587 -9.60461e-19)
(1987.69 -88.6606 3.83904e-18)
(1997.52 -163.13 -3.79948e-18)
(2005.65 -259.487 0)
(2026.77 -322.533 1.02423e-20)
(2016.87 -399.229 -1.51259e-17)
(2041.35 -445.158 1.32995e-17)
(2018.5 -436.135 3.46192e-21)
(1985.81 -339.078 0)
(1919.09 -169.216 0)
(1919.97 -203.067 4.12683e-21)
(1805.95 -247.575 -3.89774e-17)
(1284.72 -185.306 4.59657e-17)
(1308.21 143.158 2.33836e-20)
(1804.73 211.815 0)
(1926.43 181.713 -7.80731e-21)
(1926.46 115.314 -1.45051e-17)
(1980.66 233.088 1.77905e-17)
(2017.8 348.26 -1.31466e-17)
(2036.53 390.766 1.53842e-17)
(2015.71 366.221 -7.02185e-18)
(2022.02 308.812 7.3722e-18)
(2026.12 236.622 -3.63243e-18)
(2009.85 150.305 3.70867e-18)
(2008.17 74.1047 -1.81288e-18)
(2004.11 -3.13495 2.08692e-18)
(2008.4 -84.6599 -2.45322e-19)
(2014.78 -154.679 3.69724e-18)
(2027.11 -253.218 -7.29922e-18)
(2038.66 -314.05 -3.76424e-18)
(2023.54 -376.345 7.03654e-18)
(2042.46 -412.004 1.36025e-20)
(2020.93 -369.157 -7.01502e-21)
(1985.91 -237.295 0)
(1926.05 -124.128 0)
(1932.51 -182.48 0)
(1806.38 -212.055 -1.91315e-17)
(1292.18 -140.302 2.27255e-17)
(1328.42 140.351 -2.78796e-21)
(1812.69 196.277 0)
(1944.33 165.859 9.85105e-21)
(1929.46 81.1627 -7.99822e-21)
(1960.9 152.919 -7.24323e-21)
(2026.93 291.177 0)
(2046.15 352.981 -6.66869e-21)
(2027.82 330.008 6.84124e-18)
(2035.58 286.631 -7.30287e-18)
(2033.33 226.847 0)
(2026.34 148.755 1.69949e-21)
(2021.52 74.2841 0)
(2021.34 -0.411664 0)
(2021.67 -82.364 1.80297e-18)
(2029.26 -148.812 -1.79312e-18)
(2034.92 -236.472 -7.23593e-21)
(2055.53 -290.546 -1.66246e-21)
(2038.57 -348.18 7.00125e-21)
(2049.84 -365.889 -7.53261e-18)
(2031.13 -321.465 6.36748e-18)