/*--------------------------------*- C++ -*----------------------------------*\
| =========                 |                                                 |
| \\      /  F ield         | OpenFOAM: The Open Source CFD Toolbox           |
|  \\    /   O peration     | Version:  2112                                  |
|   \\  /    A nd           | Website:  www.openfoam.com                      |
|    \\/     M anipulation  |                                                 |
\*---------------------------------------------------------------------------*/
FoamFile
{
    version     2.0;
    format      ascii;
    arch        "LSB;label=32;scalar=64";
    class       volVectorField;
    location    "0.01048";
    object      U;
}
// * * * * * * * * * * * * * * * * * * * * * * * * * * * * * * * * * * * * * //

dimensions      [0 1 -1 0 0 0 0];

internalField   nonuniform List<vector> 
13875
(
(2204.17 109.696 1.8127e-18)
(2142.48 5.62905 -9.38739e-19)
(2170.26 -2.16264 -9.41091e-19)
(2167.9 -0.761385 0)
(2170.3 0.0682738 0)
(2169.54 -1.43613 9.3682e-19)
(2169.29 -1.28521 -9.37247e-19)
(2169.74 -0.271092 -4.68633e-19)
(2169.29 -0.0289848 4.68354e-19)
(2169.13 0.280037 0)
(2169.33 0.435778 -3.88403e-22)
(2169.43 1.05058 -3.8812e-22)
(2169.58 0.932987 0)
(2169.4 -0.024422 -4.68223e-19)
(2169.45 -0.92237 4.68589e-19)
(2169.6 -1.28981 0)
(2169.87 -0.266121 9.37055e-19)
(2169.22 0.347446 -9.37803e-19)
(2169.13 0.944982 3.87945e-22)
(2169.81 1.18909 -3.85755e-22)
(2170.45 -0.162399 -9.36292e-19)
(2167.84 0.300174 9.37173e-19)
(2171.09 2.50846 -1.87806e-18)
(2143.62 -8.60254 1.91643e-18)
(2210.02 -106.638 1.76493e-18)
(2253.4 91.9316 -1.63243e-18)
(2228.46 -1.17224 1.88338e-18)
(2247.4 0.648492 8.71802e-19)
(2245.53 0.925697 -8.67133e-19)
(2248.43 -0.662288 4.16927e-22)
(2247.85 1.9939 5.20161e-22)
(2245.86 1.57399 4.15992e-22)
(2245.58 0.426527 -4.35771e-19)
(2245.02 0.550443 4.35971e-19)
(2244.94 -0.25151 2.17701e-19)
(2245.17 -0.758868 -1.63053e-19)
(2245.39 -1.43778 -5.31735e-20)
(2247.7 -1.17908 0)
(2247.86 0.0710353 -4.34991e-19)
(2247.56 1.0428 4.33455e-19)
(2245.59 1.43075 4.36028e-19)
(2245.51 0.499681 -4.35307e-19)
(2245.2 -0.243405 5.18487e-22)
(2245.69 -1.56652 -5.18688e-22)
(2247.84 -1.97108 5.19785e-22)
(2248.4 0.748174 -8.71468e-19)
(2245.58 -0.692793 2.59981e-18)
(2247.28 -1.57099 -1.74252e-18)
(2228.82 3.69995 5.43007e-22)
(2256.32 -97.3149 -1.71457e-18)
(2252.4 78.1205 0)
(2236.33 -18.2449 0)
(2249.48 4.39458 0)
(2250.61 -1.88252 0)
(2253.5 -2.68394 -1.6393e-18)
(2253.37 1.50952 1.64207e-18)
(2253.34 2.16748 1.72148e-18)
(2253.73 0.617725 -2.58014e-18)
(2253.65 0.192005 8.61373e-19)
(2253.52 0.209401 4.31011e-22)
(2253.55 0.100326 -4.31073e-19)
(2253.14 -2.32417 4.29931e-19)
(2254.11 -2.53771 0)
(2253.99 0.0247041 0)
(2254.04 2.36934 4.08174e-22)
(2253.18 2.00676 0)
(2254.06 0.221154 8.38099e-22)
(2253.12 -0.292357 4.30556e-19)
(2253.09 -2.51662 -4.30683e-19)
(2253.54 -1.7575 0)
(2253.72 2.35314 0)
(2250.92 1.30941 0)
(2250.71 -4.77958 0)
(2237.94 13.8305 0)
(2257.23 -74.4663 0)
(2247.86 51.3569 0)
(2235.04 -28.6785 1.81424e-18)
(2249.27 7.18788 -3.41694e-18)
(2251.58 -4.80366 3.46586e-18)
(2253.27 -3.19758 -1.63473e-18)
(2253.29 1.26246 0)
(2253.78 1.47569 -8.41994e-22)
(2254.62 -0.0124708 0)
(2254.16 0.0474361 0)
(2253.97 -0.0506643 0)
(2254.46 0.169868 0)
(2254.22 -2.0467 -8.4411e-22)
(2254.09 -2.45636 -5.09576e-20)
(2253.97 -0.00135059 5.07912e-20)
(2254.01 2.28219 0)
(2254.25 1.80708 0)
(2254.74 0.263031 7.99416e-22)
(2254.17 0.387123 -8.57507e-19)
(2253.82 -1.75291 8.56103e-19)
(2253.42 -1.4921 -1.62391e-18)
(2253.56 2.7458 1.62356e-18)
(2251.98 4.31109 1.74092e-18)
(2249.75 -8.85066 -1.72065e-18)
(2235.81 31.2787 0)
(2251.98 -58.2632 0)
(2244.88 39.2835 1.74899e-18)
(2235.44 -47.8561 0)
(2248.73 10.4642 0)
(2250.3 -7.68516 0)
(2253.47 -4.39024 0)
(2253.19 0.68285 1.68321e-21)
(2253.71 0.784461 1.68724e-21)
(2254.52 -0.307042 4.32598e-19)
(2254.1 0.0210714 -4.08546e-19)
(2253.85 -0.110235 2.02323e-19)
(2254.42 0.178925 -2.00499e-19)
(2254.23 -1.58186 0)
(2254.1 -2.26737 0)
(2253.9 -0.0167711 -1.66123e-21)
(2254.05 2.08209 0)
(2254.3 1.35666 -1.68505e-21)
(2254.71 0.27251 8.07499e-19)
(2254.01 0.723174 -8.51272e-19)
(2253.5 -1.23451 1.71527e-18)
(2253.54 -0.839387 -1.69075e-18)
(2253.61 3.75735 1.65338e-21)
(2250.68 6.44258 0)
(2250.03 -11.5289 0)
(2237.31 42.7579 0)
(2250.54 -35.5181 0)
(2241.5 6.75872 0)
(2231.54 -63.599 9.1243e-19)
(2247.2 12.2939 -8.47594e-19)
(2250.86 -11.2513 0)
(2252.48 -5.11701 8.59179e-19)
(2252.95 -0.100544 -4.37052e-19)
(2253.71 0.068683 -3.08238e-21)
(2254.54 -0.851811 -2.1839e-19)
(2253.97 0.022338 -4.25912e-19)
(2253.76 -0.333196 1.6245e-19)
(2254.38 0.101286 1.59335e-21)
(2254.1 -1.33864 2.68528e-19)
(2253.99 -2.12798 -2.15592e-19)
(2253.78 -0.0888342 3.36475e-21)
(2253.89 1.89226 -4.27413e-19)
(2254.21 1.15653 4.3326e-19)
(2254.64 0.327284 1.63723e-21)
(2254.12 1.33081 -1.6841e-21)
(2253.74 -0.350101 -1.6795e-21)
(2252.96 -0.367718 -8.58704e-19)
(2252.77 4.13038 8.46115e-19)
(2251.44 10.6687 0)
(2247.37 -15.1748 0)
(2232.45 65.2563 -1.93305e-18)
(2245.98 -18.8991 -1.26344e-19)
(2254.02 2.90512 -4.95253e-20)
(2227.49 -79.3212 6.02431e-20)
(2243.04 12.2768 0)
(2248.44 -15.6791 -2.69188e-23)
(2252.14 -7.00793 -2.62331e-23)
(2252.39 -1.2196 0)
(2253.4 -0.896081 0)
(2254.23 -1.15788 -8.63044e-19)
(2253.69 0.205502 8.4221e-19)
(2253.55 -0.397138 0)
(2254.2 0.0589968 1.68143e-18)
(2254.06 -0.912373 4.7058e-21)
(2253.88 -1.77362 -1.72383e-18)
(2253.63 -0.0961574 -1.71161e-21)
(2253.87 1.45614 0)
(2254.19 0.691119 3.44586e-18)
(2254.43 0.372408 1.78883e-21)
(2253.76 1.72007 -6.9057e-18)
(2253.09 0.302761 3.45155e-18)
(2252.83 0.957446 2.63967e-23)
(2252.28 6.10013 0)
(2248.52 12.9568 3.52737e-18)
(2244.19 -12.5106 -3.30784e-18)
(2228.92 72.8933 3.81545e-18)
(2247.09 2.88715 -3.18338e-18)
(2218.36 -22.835 -3.16961e-19)
(2214.7 -87.4556 -7.49644e-18)
(2235.65 3.55792 8.70619e-22)
(2246.05 -22.5048 2.61156e-23)
(2248.81 -9.23281 -8.09791e-22)
(2251.34 -3.08799 0)
(2252.93 -2.0682 -3.44579e-18)
(2253.76 -1.56999 3.45199e-18)
(2253.35 0.0168982 0)
(2253.29 -0.7224 -8.29652e-22)
(2253.93 -0.235665 -8.24825e-22)
(2253.79 -0.71511 0)
(2253.55 -1.58176 0)
(2253.32 -0.0962013 -1.66004e-21)
(2253.47 1.27456 -8.38279e-22)
(2253.93 0.53382 2.60054e-23)
(2254.13 0.678672 -8.56063e-22)
(2253.54 2.45669 -2.62944e-23)
(2252.91 1.75844 -1.73293e-18)
(2251.39 2.39395 -1.62157e-20)
(2249.25 8.05098 1.68866e-18)
(2246.39 19.3924 8.85507e-22)
(2236.71 -4.78289 3.45902e-18)
(2216.55 81.5314 -3.53836e-18)
(2222.24 18.162 2.50411e-23)
(2113.25 -37.8551 9.42667e-19)
(2168.62 -98.6076 0)
(2217.15 -20.1491 -8.31483e-22)
(2234.93 -32.3966 -8.66046e-19)
(2245.82 -17.7401 1.71276e-18)
(2248.77 -7.06076 -1.72872e-18)
(2251.49 -4.09601 9.40818e-21)
(2252.83 -2.43207 8.62301e-19)
(2252.42 0.0956958 0)
(2252.64 -0.729058 -8.4145e-19)
(2253.28 -0.230789 8.49253e-19)
(2253.3 -0.134474 0)
(2253 -1.09236 0)
(2252.72 -0.221772 2.10452e-21)
(2252.96 0.566753 8.34372e-22)
(2253.3 0.0414589 8.42194e-19)
(2253.33 0.881701 -8.44307e-19)
(2252.56 3.27311 0)
(2251.26 3.39732 8.60805e-19)
(2249.48 6.04999 -1.72841e-18)
(2246.23 15.1598 8.44891e-19)
(2236.18 28.8849 -8.4086e-22)
(2219.02 16.6821 0)
(2171.33 93.9753 0)
(2117.09 35.3392 0)
(1873.52 -142.244 -6.57048e-17)
(2125.75 -161.385 8.42526e-17)
(2198.91 -54.7322 0)
(2229.35 -54.1692 -2.99361e-17)
(2239.83 -22.3603 3.07969e-17)
(2246.64 -11.8701 0)
(2249.53 -7.79579 -2.94939e-20)
(2251.16 -3.5034 -1.46671e-17)
(2251.17 -0.936613 1.44088e-17)
(2251.47 -1.47596 -2.90582e-20)
(2252.08 -0.782043 0)
(2252.13 -0.0874431 -3.69831e-18)
(2251.81 -0.747051 5.58812e-18)
(2251.51 -0.25726 -1.90187e-18)
(2251.71 0.430757 -2.9263e-20)
(2252.01 0.366675 0)
(2251.9 1.74496 0)
(2250.96 5.03267 -2.94676e-17)
(2249.44 7.59233 2.9083e-17)
(2246.67 10.2661 -3.05941e-17)
(2240.46 20.4755 2.91739e-17)
(2229.4 53.0025 3.22062e-17)
(2199.85 52.5099 -2.92245e-17)
(2128.68 161.869 -8.33842e-17)
(1884.71 138.343 -1.25712e-17)
(1652.93 -215.568 -9.08411e-17)
(2011.52 -307.618 1.37624e-16)
(2159.74 -104.754 0)
(2210.98 -65.179 6.82894e-17)
(2232.84 -30.2805 -7.10003e-17)
(2241.92 -15.8311 -3.40738e-17)
(2245.33 -7.61048 3.38003e-17)
(2247.75 -2.82318 -3.27953e-17)
(2248.28 -0.783843 3.30898e-17)
(2248.95 -1.11251 3.24738e-20)
(2249.72 -0.347305 0)
(2249.81 0.601978 -2.1144e-18)
(2249.5 -0.121771 2.16755e-18)
(2249.16 -0.380599 3.29746e-20)
(2249.28 -0.435035 3.28615e-20)
(2249.38 -0.41741 3.30699e-20)
(2249.14 0.849884 0)
(2248.03 4.5285 0)
(2245.1 7.63336 -6.77151e-17)
(2242.27 15.4488 6.81827e-17)
(2233.7 26.9628 -7.13463e-17)
(2211.54 59.0288 1.47079e-16)
(2166.08 99.4584 -6.99417e-17)
(2016.75 298.623 -3.86841e-20)
(1697.95 206.018 8.75255e-20)
(1281.35 -592.818 -1.08924e-16)
(1742.8 -591.428 1.18928e-16)
(2046.11 -180.992 2.16794e-16)
(2173.88 -107.636 -9.36334e-17)
(2208.3 -37.1288 0)
(2230.14 -20.8203 7.42203e-17)
(2238.26 -12.4133 -7.49888e-17)
(2241.5 -6.13276 0)
(2242.59 -3.65668 3.53902e-20)
(2243.78 -3.01029 0)
(2244.63 -1.30719 0)
(2244.75 0.374132 0)
(2244.57 0.256995 4.67703e-18)
(2244.2 -0.167178 -4.6402e-18)
(2244.19 -0.010818 -3.71513e-20)
(2243.95 0.789389 -3.548e-20)
(2243.36 2.78725 0)
(2241.74 7.18769 0)
(2238.06 13.9295 0)
(2228.49 19.0961 -7.89377e-17)
(2211.52 37.2951 1.56927e-16)
(2176.41 102.68 -7.23199e-17)
(2052.69 161.811 -1.33644e-16)
(1750.2 592.203 1.00492e-16)
(1286.08 543.628 -5.99369e-20)
(1301.71 -610.68 1.60795e-16)
(1113.85 -1086.11 0)
(1698.67 -457.329 0)
(1927.83 -130.912 -1.0819e-16)
(2150.68 -85.4612 1.09371e-16)
(2201.48 -42.2652 0)
(2215.38 -12.507 1.12504e-20)
(2224.06 -4.74572 4.03507e-17)
(2227.72 -1.44662 -4.08584e-17)
(2230.67 -1.18288 0)
(2232.06 0.337113 -1.00666e-17)
(2232.37 1.22651 1.01262e-17)
(2232.45 0.921156 -5.08912e-18)
(2232.07 -0.00311319 5.09068e-18)
(2231.74 -0.729236 3.86136e-20)
(2230.61 -1.14438 -4.05969e-17)
(2228.19 -0.186007 8.04965e-17)
(2223.7 4.23375 1.04353e-18)
(2214.2 13.4873 -4.04028e-17)
(2197.94 45.1053 -9.0858e-17)
(2134 72.1871 8.43706e-17)
(1912.41 109.674 8.25569e-20)
(1758.54 455.756 2.60554e-20)
(1103.73 1071.1 1.6746e-16)
(1319.43 612.481 7.17951e-18)
(1358.55 -629.915 0)
(1143.03 -1058.67 0)
(1290.37 -753.342 0)
(1195.79 -813.869 0)
(1953.74 -256.422 0)
(2051.67 -61.8067 1.01374e-16)
(2156.81 -46.5396 -1.04056e-16)
(2175.46 -29.0484 1.15151e-19)
(2184.73 -18.9264 -1.03109e-20)
(2191.95 -10.8635 2.2594e-17)
(2194.45 -4.66238 -2.28251e-17)
(2195.26 -0.973171 -2.25498e-19)
(2195.56 0.579702 -7.07413e-19)
(2195.16 1.42966 8.02276e-19)
(2194.38 3.43459 -2.26585e-17)
(2191.96 8.16411 2.24393e-17)
(2185.27 17.3965 9.91302e-20)
(2174.61 31.5806 0)
(2149.49 51.6797 0)
(2016.98 86.321 0)
(1918.55 324.189 -2.11403e-16)
(1168.28 812.925 -6.17858e-17)
(1296.79 702.398 1.64037e-16)
(1135.53 1023.06 2.05598e-20)
(1368.86 619.072 2.08626e-20)
(1436.61 -621.552 0)
(1273.23 -926.285 3.94245e-20)
(1319.69 -785.87 0)
(1235.55 -859.254 -1.68301e-16)
(1334.77 -806.092 3.1735e-16)
(1646.18 -552.525 -2.05166e-16)
(1937.27 -118.032 0)
(1960.33 -13.0857 -1.02376e-19)
(2008.48 14.6091 0)
(2045.51 8.15668 0)
(2056.98 6.03513 -1.40761e-17)
(2060.76 2.73644 1.43984e-17)
(2061.84 1.79283 1.4195e-17)
(2061.32 1.17215 -1.42548e-17)
(2058.95 -0.408505 0)
(2050.23 -4.23479 -5.86203e-17)
(2017.83 -10.0855 5.91485e-17)
(1962.59 17.7415 7.11765e-17)
(1937.54 143.49 -5.96497e-17)
(1595.05 588.109 0)
(1308.64 794.576 0)
(1203.12 850.612 -1.71914e-19)
(1331.22 779.17 -1.70903e-16)
(1266.96 918.115 3.66695e-16)
(1425.21 619.099 -1.69424e-16)
(1519.09 -631.543 -1.69214e-16)
(1386.89 -855.439 1.87045e-16)
(1383.14 -760.273 0)
(1281.55 -818.376 -1.90385e-16)
(1307.74 -785.54 -6.40633e-18)
(1309.09 -744.687 2.77014e-16)
(1256.07 -593.314 -2.00274e-16)
(1322.19 -519.785 1.18219e-16)
(1545.08 -267.748 0)
(1564.47 -120.001 0)
(1549.95 -58.5258 -4.07932e-20)
(1546.4 -21.5352 2.7284e-19)
(1543.44 -3.76965 0)
(1545.15 11.6602 0)
(1548.47 41.6729 5.7947e-17)
(1558.66 108.614 -5.50788e-17)
(1573.82 229.972 -1.10531e-16)
(1333.61 526.031 2.24461e-16)
(1247 597.422 1.81883e-17)
(1286.1 746.389 -9.04308e-17)
(1301.21 779.173 0)
(1252.75 823.348 0)
(1382.32 761.007 -1.73791e-16)
(1351.05 887.918 2.02886e-16)
(1502.22 641.027 -4.59558e-20)
(1659.95 -610.255 1.57257e-16)
(1561.91 -749.012 -9.69944e-20)
(1527.04 -688.098 9.47978e-17)
(1466.88 -726.202 -8.49693e-17)
(1398.83 -682.852 -4.46257e-20)
(1340.85 -598.978 8.74683e-20)
(1189.8 -448.09 1.15712e-16)
(869.07 -240.703 -1.80339e-16)
(697.769 -125.56 6.39663e-17)
(534.749 -56.4703 0)
(410.455 -20.2371 -3.37236e-17)
(370.694 -6.76658 3.36612e-17)
(353.801 1.06833 0)
(361.16 9.38492 6.32598e-20)
(390.992 17.3882 -3.35904e-17)
(499.068 49.8172 3.38174e-17)
(737.956 122.252 0)
(873.323 252.93 -1.16493e-16)
(1177.96 439.11 1.1667e-16)
(1327.42 595.245 8.91959e-17)
(1389.04 685.221 -1.8618e-16)
(1433.98 744.696 9.9616e-17)
(1520.15 708.867 0)
(1547.47 776.218 1.68799e-16)
(1650.25 625.057 -3.29624e-18)
(1814.91 -552.144 -3.30837e-18)
(1745.58 -603.397 8.00789e-17)
(1687.9 -550.562 -3.63431e-17)
(1541 -423.543 -5.72046e-17)
(1420.01 -357.478 7.33372e-17)
(1387.4 -280.012 -5.12393e-17)
(1291.28 -255.508 5.2919e-17)
(946.925 -199.163 -5.85847e-17)
(736.274 -108.451 -4.89547e-19)
(598.34 -58.2767 3.29973e-17)
(502.76 -29.507 1.65048e-17)
(470.902 -14.6013 -1.52807e-19)
(458.065 2.38902 -1.6691e-17)
(465.679 22.2561 -6.04076e-20)
(497.852 31.0491 -7.51037e-20)
(590.862 54.5253 -2.06795e-18)
(793.921 102.771 2.18471e-20)
(971.078 193.629 5.37942e-18)
(1282.94 227.497 -3.5384e-18)
(1365.5 305.211 0)
(1409.11 399.333 1.09187e-17)
(1552.11 478.628 -3.452e-17)
(1689.36 591.085 4.13838e-17)
(1741.71 634.687 -5.64914e-17)
(1810.22 569.775 5.30846e-17)
(1998.48 -510.208 -8.71169e-20)
(1954.33 -329.345 -1.04648e-19)
(1882.08 -319.386 1.21638e-19)
(1790.07 -217.229 -5.48556e-21)
(1532.49 -70.1087 -1.83037e-19)
(1418.95 -27.7558 -2.00557e-19)
(1376.32 -72.924 -7.14906e-21)
(1196.62 -91.9046 0)
(966.421 -104.94 0)
(819.175 -122.376 6.56595e-17)
(734.862 -102.672 -6.71945e-17)
(695.987 -50.9451 -8.84643e-21)
(680.579 1.97317 8.82998e-21)
(686.626 52.0749 -8.64237e-18)
(719.882 114.324 8.37702e-18)
(807.558 146.86 0)
(985.335 127.47 0)
(1175.17 108.604 -5.65082e-17)
(1341.42 72.4785 5.60672e-17)
(1367.56 16.8352 -1.94211e-19)
(1536.77 74.4342 0)
(1801.44 228.567 0)
(1887.23 323.533 -1.24e-19)
(1953.2 331.761 -1.07454e-19)
(2000.69 523.844 1.23033e-16)
(1494.96 -179.522 -1.87938e-16)
(1740 -125.172 -2.39342e-16)
(1847.27 115.118 1.22324e-16)
(1797.49 143.23 0)
(1648 186.076 1.98687e-19)
(1519.09 145.513 1.08053e-16)
(1504.68 34.241 -2.08638e-16)
(1405.61 -20.0602 1.0625e-16)
(1223.41 -56.9803 -1.21023e-16)
(1061.35 -84.21 1.25285e-16)
(935.554 -74.3344 3.30048e-17)
(862.135 -28.8587 -4.11224e-17)
(839.79 6.19563 -8.32391e-18)
(856.376 40.5743 1.68396e-17)
(930.282 91.3112 0)
(1069.35 108.905 0)
(1246.01 77.3994 1.16601e-16)
(1391.83 37.4518 -2.20937e-16)
(1486.17 -38.1219 1.09374e-16)
(1498.12 -155.703 2.27476e-19)
(1662.7 -196.661 1.53227e-16)
(1789.69 -155.274 -9.76463e-17)
(1829.97 -136.805 -4.90558e-16)
(1737.75 134.434 6.22061e-16)
(1483.8 188.726 -2.49429e-16)
(-46.1864 -75.0149 1.12009e-19)
(483.45 -108.034 -2.56044e-16)
(1396.52 299.692 1.74138e-16)
(1671.86 495.415 0)
(1671.95 417.784 0)
(1611.97 277.163 0)
(1603.32 138.257 0)
(1530.5 65.445 0)
(1373.97 18.4069 -5.1651e-17)
(1210.03 -21.1884 1.08449e-16)
(1077.5 -26.0869 -8.47062e-17)
(1001.08 -6.764 3.21799e-17)
(977.771 8.62907 -3.62864e-18)
(1000.57 20.922 1.58262e-20)
(1084.6 44.4965 -5.58563e-17)
(1234.68 40.6407 5.54931e-17)
(1403.52 -1.7709 0)
(1527.28 -53.7054 0)
(1599.32 -139.792 -1.73393e-16)
(1603.33 -294.738 1.85804e-16)
(1677.36 -423.441 -1.61976e-19)
(1651.1 -502.099 7.30671e-20)
(1354.8 -268.789 -9.50865e-20)
(410.075 154.313 -1.1593e-19)
(-125.514 94.7254 0)
(-266.415 -41.8565 -2.24132e-16)
(379.301 263.374 2.29301e-16)
(1251.6 635.291 -1.72204e-19)
(1625.18 740.753 1.6368e-16)
(1724.32 573.65 -1.21637e-16)
(1688.12 389.787 0)
(1675.4 234.13 -8.19141e-17)
(1612.94 157.478 7.46299e-17)
(1476.03 95.1211 -4.45634e-17)
(1326.13 38.3896 9.34249e-17)
(1195.6 10.796 -4.82006e-17)
(1119.21 10.5439 1.83432e-19)
(1099.97 7.19135 0)
(1125.01 2.87178 2.4942e-17)
(1213.95 1.33257 2.31316e-17)
(1359.4 -29.4021 -4.73574e-17)
(1506.25 -90.8181 -8.13949e-17)
(1609.83 -150.475 8.3961e-17)
(1678.02 -238.601 -7.21856e-17)
(1683.52 -414.186 7.9634e-17)
(1727.5 -591.874 7.98104e-20)
(1588.09 -765.819 -7.60361e-20)
(1191.04 -622.573 0)
(316.957 -269.118 1.13005e-19)
(-268.867 20.8038 0)
(236.137 220.041 1.91527e-16)
(838.398 702.333 -1.88981e-16)
(1395.63 862.281 6.19767e-20)
(1670.54 866.33 0)
(1775.82 673.412 0)
(1737.82 508.486 -7.3162e-21)
(1720.44 352.396 0)
(1669.18 249.004 7.39866e-20)
(1554.46 167.76 0)
(1417.78 96.2262 4.16047e-17)
(1300.31 51.4379 -6.39861e-17)
(1229.52 24.2942 3.26322e-17)
(1208.01 5.94976 -1.10178e-17)
(1234.52 -15.4583 0)
(1315.74 -41.8628 0)
(1445.51 -90.692 3.88473e-17)
(1576.52 -161.831 -1.09169e-16)
(1662.81 -247.907 7.30713e-17)
(1731.86 -345.681 -6.11152e-17)
(1737.14 -513.771 6.98198e-17)
(1784.64 -678.872 0)
(1662.49 -885.865 0)
(1387.26 -880.152 0)
(871.314 -731.115 -1.17228e-20)
(242.302 -202.224 -2.01753e-16)
(310.311 76.7718 -3.57545e-20)
(1079.52 721.832 1.56102e-16)
(1529.11 928.391 -1.20255e-16)
(1735.69 907.241 0)
(1806.47 734.421 0)
(1763.09 595.027 7.59122e-21)
(1757.94 441.485 6.45382e-17)
(1714.46 327.361 -5.70134e-17)
(1614.29 226.237 3.03243e-20)
(1495.57 140.383 3.29419e-20)
(1388.67 76.9164 3.48699e-20)
(1322.76 38.203 -1.036e-20)
(1304.68 3.99082 -1.03958e-20)
(1327.88 -30.8044 1.93151e-17)
(1403.95 -71.9083 -1.9341e-17)
(1521.95 -137.617 4.2192e-20)
(1636.33 -222.712 3.88479e-20)
(1707.16 -329.092 0)
(1766.48 -434.369 -5.42221e-17)
(1769.8 -590.816 6.22467e-17)
(1819.05 -739.394 0)
(1735.28 -919.212 -9.92437e-17)
(1524.11 -928.679 1.2237e-16)
(1066.31 -710.955 9.05648e-21)
(320.451 -54.3866 -1.8819e-16)
(477.989 112.441 4.17406e-20)
(1239.07 743.875 0)
(1628.61 925.922 0)
(1780.08 914.756 -4.75899e-17)
(1820.24 776.73 4.59437e-17)
(1781.23 652.747 0)
(1789.39 507.743 5.87769e-17)
(1751.66 388.203 -5.24847e-17)
(1664.54 274.359 3.17832e-17)
(1557.1 179.196 -3.21243e-17)
(1465.27 104.817 1.7691e-17)
(1408.12 47.4091 -1.78007e-17)
(1389.95 1.78908 0)
(1414.18 -46.7054 -1.76287e-17)
(1481.17 -105.46 1.76891e-17)
(1583.27 -184.351 -3.47363e-20)
(1685.67 -274.067 -3.20566e-20)
(1744.85 -397.719 5.16924e-20)
(1794.14 -507.919 4.97593e-17)
(1784.45 -656.396 -5.72797e-17)
(1832.89 -781 -4.56423e-20)
(1777.37 -930.255 -4.46667e-20)
(1622.68 -922.622 0)
(1211.91 -730.009 -7.24128e-20)
(458.615 -97.1108 4.218e-20)
(535.34 145.582 1.59743e-22)
(1322.09 692.918 0)
(1694.44 873.036 9.3151e-23)
(1781.01 909.63 4.04199e-20)
(1824.51 803.745 -8.56789e-23)
(1796.21 699.976 -5.19374e-17)
(1815.45 559.935 4.60516e-17)
(1785.55 438.94 0)
(1709.27 315.142 -5.9027e-20)
(1618.46 213.055 -1.0778e-22)
(1534.07 124.095 -1.13781e-22)
(1481.76 58.9937 6.89731e-20)
(1467.33 0.64616 0)
(1486.25 -57.6405 0)
(1547.09 -125.174 -1.13078e-22)
(1640.28 -216.75 -1.06722e-22)
(1729.98 -315.194 -2.63002e-17)
(1777.77 -445.491 7.52065e-17)
(1817.32 -558.182 -5.32643e-17)
(1799.3 -699.684 0)
(1839.49 -800.283 -4.40055e-17)
(1783.16 -915.283 4.4202e-17)
(1697.89 -868.834 9.28991e-23)
(1314.49 -669.542 6.24644e-20)
(520.126 -132.097 1.60382e-22)
(655.279 201.647 3.22421e-18)
(1447.16 675.729 1.25302e-17)
(1743.14 850.69 9.74026e-17)
(1791.72 896.255 -4.11699e-17)
(1837.92 804.876 4.25429e-17)
(1813.95 716.298 -4.76942e-17)
(1842.09 587.863 4.29169e-17)
(1812.6 472.439 -2.51306e-17)
(1745.85 344.883 2.46274e-17)
(1664.5 240.509 1.1477e-22)
(1595.08 146.076 1.20571e-22)
(1551.11 65.8824 -1.23078e-22)
(1535.69 0.478852 7.44056e-18)
(1555.07 -67.3414 7.24832e-18)
(1606.56 -148.578 -1.4848e-17)
(1684.68 -247.716 1.13872e-22)
(1766.29 -342.162 4.88986e-17)
(1807.41 -478.126 -9.50703e-17)
(1845.03 -584.043 4.89153e-17)
(1812.61 -720.686 0)
(1848.69 -802.337 -8.34043e-23)
(1794.23 -899.626 7.90821e-23)
(1739.53 -849.759 -8.43801e-23)
(1438.14 -670.796 -1.21892e-16)
(652.005 -210.164 1.50497e-16)
(714.753 222.089 1.40775e-19)
(1499.1 634.281 0)
(1762.74 800.953 0)
(1797.73 866.961 3.95899e-20)
(1845.62 792.244 8.05254e-20)
(1832.24 725.81 0)
(1866.75 605.888 4.49234e-17)
(1839.16 493.383 -4.2229e-17)
(1779.43 363.079 4.43125e-20)
(1712.02 257.521 -4.75269e-20)
(1648.55 153.062 -1.3733e-17)
(1609.14 71.2514 1.37646e-17)
(1598.32 -3.31531 3.57087e-18)
(1613.4 -78.4279 -3.47534e-18)
(1660.53 -163.163 1.32417e-17)
(1731.57 -272.002 -3.78241e-17)
(1801.81 -372.592 2.46419e-17)
(1832.65 -508.903 -4.6361e-20)
(1865.32 -612.21 3.94553e-20)
(1830.81 -733.771 -4.06207e-17)
(1852.56 -796.428 8.22365e-19)
(1805.87 -864.565 -2.07525e-18)
(1766.71 -788.477 4.12688e-17)
(1472.94 -602.251 5.69689e-20)
(647.752 -210.1 6.92616e-20)
(716.514 207.993 1.352e-16)
(1537.48 582.587 -1.09452e-16)
(1791.69 760.936 0)
(1816.83 841.63 -3.82145e-17)
(1860.4 782.316 2.99153e-19)
(1852.14 720.424 3.95033e-17)
(1890.64 613.009 4.16625e-17)
(1860.85 511.728 -3.98531e-17)
(1810.28 383.585 -4.67846e-20)
(1749.69 279.145 -2.45611e-17)
(1699.68 173.21 1.19185e-17)
(1666.43 79.8296 1.26107e-17)
(1653.51 0.874152 -5.38915e-20)
(1668.62 -80.4607 0)
(1706.94 -174.367 0)
(1763.79 -286.246 0)
(1829.68 -378.336 4.64183e-20)
(1857.13 -514.958 9.64973e-21)
(1891.07 -607.869 -4.97817e-20)
(1851.1 -721.371 0)
(1865.71 -780.111 3.81899e-20)
(1820.33 -839.166 9.40859e-21)
(1795.57 -759.561 -4.88212e-20)
(1553.03 -580.884 -1.06944e-16)
(766.957 -238.848 1.36491e-16)
(765.396 233.776 6.58172e-17)
(1562.35 521.504 -9.69619e-17)
(1808.89 680.344 8.23757e-17)
(1828.4 786.449 -4.11069e-17)
(1871.44 752.593 -3.73706e-17)
(1869.03 706.92 3.771e-17)
(1911.01 614.456 1.92445e-17)
(1881.84 518.741 -1.89514e-17)
(1837.09 389.823 1.08179e-17)
(1788.83 285.862 -2.23327e-17)
(1742.23 173.366 1.73745e-17)
(1712.59 83.23 -7.4072e-18)
(1704.6 -2.33622 1.48899e-18)
(1715.62 -88.1503 -4.38657e-20)
(1751.41 -179.633 2.28423e-17)
(1803.56 -298.53 -2.28147e-17)
(1859.69 -395.341 3.86936e-20)
(1877.9 -528.035 3.78895e-17)
(1910.34 -614.619 -1.81358e-18)
(1863.26 -711.972 -3.84906e-17)
(1876.17 -756.714 0)
(1835.72 -787.294 4.1124e-17)
(1811.92 -688.413 -3.67556e-17)
(1569.62 -525.145 -1.03572e-16)
(783.273 -255.57 -9.30009e-19)
(899.714 272.174 -6.24284e-17)
(1632.03 481.379 4.84401e-17)
(1835.55 637.335 1.9061e-20)
(1847.46 747.199 -5.38074e-20)
(1891.66 737.391 1.81502e-20)
(1891.73 684.725 3.6082e-17)
(1933.5 594.982 -1.72679e-17)
(1898.52 512.296 -1.83226e-17)
(1862.47 390.371 4.1361e-20)
(1817.7 291.709 -4.41355e-20)
(1782.77 181.582 2.02875e-20)
(1759.25 83.6373 -2.05452e-20)
(1749.71 -3.60895 0)
(1761.86 -93.2716 5.23653e-21)
(1790.18 -191.502 -1.07048e-17)
(1830.24 -308.868 1.07632e-17)
(1883.38 -394.991 -1.92689e-17)
(1898.43 -526.068 9.64006e-19)
(1932.33 -598.492 1.81055e-17)
(1887.95 -689.335 -5.33152e-20)
(1889.76 -741.788 -3.66321e-17)
(1855.31 -744.745 3.48496e-17)
(1840.4 -638.204 0)
(1626.26 -482.268 -4.88318e-17)
(853.743 -274.457 6.2389e-17)
(915.336 269.324 0)
(1649.57 432.219 -4.2783e-17)
(1840.49 554.293 4.24294e-17)
(1866.09 671.822 1.77585e-20)
(1901.95 698.246 1.71447e-20)
(1910.41 662.646 -3.45665e-17)
(1946.61 591.37 3.41107e-17)
(1916.07 515.325 1.82846e-17)
(1885.49 395.315 7.96558e-19)
(1852.18 297.378 -1.96695e-17)
(1818.65 182.126 -2.14715e-20)
(1796.79 89.8928 2.43041e-20)
(1791.42 -1.08401 0)
(1798.07 -92.1315 4.36706e-20)
(1824.96 -183.806 -2.13793e-20)
(1862.41 -307.317 9.7464e-18)
(1907.72 -396.827 -9.6289e-18)
(1913.91 -520.971 -1.827e-20)
(1946.19 -590.178 -1.91321e-20)
(1904.6 -664.29 1.75658e-20)
(1901.45 -705.462 -3.63481e-17)
(1873.2 -683.264 -6.35625e-18)
(1850.78 -572.93 3.38014e-17)
(1667.09 -442.586 0)
(976.546 -292.146 5.99015e-17)
(1008.1 275.234 -1.14423e-16)
(1687.67 395.483 4.51203e-17)
(1856.74 501.509 3.25305e-17)
(1890.46 626.333 -4.05983e-17)
(1919.9 672.299 0)
(1933.06 643.046 -2.07153e-21)
(1966.56 568.326 0)
(1930.67 498.166 -2.19386e-21)
(1907.39 387.037 -2.32548e-21)
(1874.88 296.042 0)
(1851.12 185.836 0)
(1835.3 87.6901 -2.55774e-21)
(1827.86 -2.24269 0)
(1837.01 -95.407 0)
(1856.76 -192.78 -9.63571e-18)
(1883.52 -310.58 9.61816e-18)
(1928.62 -387.798 -2.30609e-21)
(1933.4 -509.365 -1.71251e-17)
(1965.04 -571.742 1.63228e-17)
(1929.91 -644.194 0)
(1916.55 -678.635 3.57802e-17)
(1891.89 -637.375 -7.27546e-17)
(1866.14 -517.668 7.21938e-17)
(1699.01 -394.393 4.21507e-18)
(990.798 -258.38 -5.69846e-17)
(1068.74 270.056 1.35899e-20)
(1705.01 366.253 -1.04887e-20)
(1859.73 436.642 0)
(1908.57 545.761 0)
(1930.03 616.322 0)
(1951.14 611.257 7.69637e-21)
(1976.07 556.374 0)
(1943.72 488.963 -7.87459e-21)
(1927.41 381.897 0)
(1904.66 291.66 -8.49507e-21)
(1880.82 176.629 0)
(1864.65 87.312 -2.36337e-18)
(1861.81 -3.73875 2.3453e-18)
(1865.72 -95.6224 0)
(1886.35 -183.735 9.18629e-18)
(1911.98 -307.671 -1.80204e-17)
(1949.13 -388.65 8.71434e-18)
(1946.2 -498.683 0)
(1977.54 -559.773 1.59234e-17)
(1944.74 -616.254 -1.5936e-17)
(1930.28 -627.191 3.56214e-17)
(1911.54 -559.057 -3.15075e-17)
(1857.17 -454.702 0)
(1700.58 -359.587 0)
(1030.86 -238.987 0)
(1110.87 260.704 -1.32188e-20)
(1726.71 344.414 1.03258e-20)
(1876.45 376.748 0)
(1926.44 468.441 0)
(1946.72 579.576 0)
(1969.14 593.205 -7.6517e-21)
(1996.54 533.525 0)
(1958.55 468.614 8.20128e-21)
(1947.96 369.759 0)
(1924.06 289.527 -8.80358e-18)
(1907.92 182.78 8.84009e-18)
(1897.28 88.2044 -8.37843e-21)
(1891.1 -0.459463 9.26561e-21)
(1898.05 -93.0479 8.36581e-21)
(1911.63 -184.781 0)
(1928.22 -299.864 0)
(1968.35 -367.845 8.47276e-21)
(1963.04 -478.618 -1.62396e-17)
(1995.87 -537.228 1.51007e-17)
(1967.05 -593.758 0)
(1941.16 -587.519 7.85236e-21)
(1928.77 -481.609 0)
(1877.86 -397.598 0)
(1725 -345.016 0)
(1121.73 -251.119 0)
(1144.24 237.006 -5.0813e-17)
(1738.78 312.887 4.20234e-17)
(1887.15 320.07 0)
(1937.33 389.155 -1.67257e-20)
(1957.17 517.438 0)
(1981.62 548.838 -1.45189e-17)
(2004.72 514.468 3.00884e-17)
(1970.85 457.068 -1.58643e-17)
(1964.56 361.014 -8.13783e-18)
(1949.77 281.274 8.34107e-18)
(1932.7 170.404 4.34672e-21)
(1920.13 85.9649 1.11786e-18)
(1918.9 -2.7203 -1.07392e-18)
(1920.83 -92.9036 8.52294e-18)
(1937.64 -174.721 -8.51718e-18)
(1953.86 -295.533 0)
(1984.77 -366.25 -1.5167e-20)
(1975.57 -464.643 0)
(2006.45 -521.186 0)
(1979.35 -559.096 -1.6247e-17)
(1952.04 -526.126 1.4679e-17)
(1936.62 -403.428 0)
(1885.83 -331.544 3.67608e-17)
(1730.53 -320.121 2.03041e-18)
(1156.81 -253.276 -1.04435e-16)
(1207.99 223.142 5.07484e-17)
(1766.7 291.523 1.94116e-20)
(1901.36 274.595 3.08857e-17)
(1942.25 322.87 -2.31935e-17)
(1969.85 476.753 -1.76013e-17)
(1996.25 519.343 0)
(2022.69 488.614 7.52836e-21)
(1984.93 430.442 1.5196e-17)
(1983.72 341.176 -1.57887e-17)
(1964.78 270.925 0)
(1954.41 170.75 0)
(1947.66 82.5088 -2.58338e-20)
(1942.68 -3.07813 3.22079e-20)
(1948.44 -93.0548 1.68005e-20)
(1958.09 -176.694 4.0814e-18)
(1967.12 -285.122 -4.03769e-18)
(2003.39 -345.012 8.38357e-21)
(1993 -445.336 1.55514e-17)
(2023.01 -495.414 -2.89129e-17)
(1994.24 -523.271 1.40458e-17)
(1966.57 -483.885 -1.48811e-20)
(1942.33 -322.868 0)
(1903.02 -280.206 1.69132e-20)
(1760.78 -303.262 4.04988e-17)
(1218.1 -243.272 -9.98928e-17)
(1212.2 187.32 -4.97867e-17)
(1767.61 262.158 -3.83047e-17)
(1906.1 232.607 3.49161e-17)
(1931.47 249.223 1.45467e-17)
(1976.06 393.685 -1.82384e-17)
(2004.45 459.624 0)
(2027.31 461.988 3.66992e-21)
(1996.32 418.192 -1.10859e-20)
(1998.86 335.126 7.58876e-18)
(1987.9 264.867 -1.56169e-17)
(1975.94 160.575 7.89271e-18)
(1965.61 83.2441 1.98703e-18)
(1965.58 -1.47646 -1.86011e-18)
(1965.66 -87.9822 1.84633e-18)
(1979.81 -161.076 -1.97636e-18)
(1989.07 -275.987 0)
(2017.06 -337.325 1.12221e-20)
(2003.25 -423.172 -3.56736e-21)
(2029.23 -474.331 -1.48255e-17)
(2005.01 -474.24 1.36831e-17)
(1973.7 -405.587 0)
(1932.39 -263.334 0)
(1910.81 -238.665 -4.08285e-21)
(1778.91 -272.475 -4.0006e-17)
(1242.86 -205.663 -1.67242e-18)
(1249.7 171.812 -2.34321e-17)
(1783.47 243.389 1.96203e-17)
(1919.41 211.759 4.10912e-21)
(1931.16 182.452 0)
(1988.07 325.642 1.3457e-17)
(2018.76 421.446 -1.60975e-17)
(2040.92 433.633 3.40492e-21)
(2010.5 388.846 3.66606e-21)
(2017.2 312.866 1.39977e-20)
(2000.19 252.022 -1.89022e-18)
(1993.1 159.676 9.56165e-19)
(1989.17 78.7269 1.87693e-18)
(1985.05 -2.19287 -9.63668e-19)
(1989.07 -88.3098 3.82609e-18)
(1996.01 -162.973 -3.81567e-18)
(2000.38 -263.712 0)
(2035.45 -317.017 1.01725e-20)
(2020.79 -402.969 -1.51015e-17)
(2041.26 -442.021 1.32472e-17)
(2016.6 -431.886 3.47535e-21)
(1984.08 -341.052 0)
(1929.92 -185.403 0)
(1928.39 -213.81 4.106e-21)
(1786.31 -247.281 -3.91871e-17)
(1227.6 -178.882 4.64505e-17)
(1282.47 143.369 2.34078e-20)
(1791.74 210.255 0)
(1931.22 181.536 -7.81349e-21)
(1936.41 130.165 -1.43601e-17)
(1986.91 244.732 1.77604e-17)
(2019.55 351.396 -1.31132e-17)
(2040.45 392.57 1.52024e-17)
(2018.32 368.154 -7.03676e-18)
(2028.77 303.024 7.36125e-18)
(2019.86 243.67 -3.6453e-18)
(2011.64 145.804 3.70099e-18)
(2002.91 75.8497 -1.82815e-18)
(2003.69 -3.19443 2.08819e-18)
(2002.68 -85.1944 -2.47352e-19)
(2015.27 -150.956 3.69684e-18)
(2019.92 -257.81 -7.30302e-18)
(2045.92 -307.967 -3.75994e-18)
(2028.84 -376.667 7.0109e-18)
(2045.94 -409.705 1.34658e-20)
(2022.63 -367.194 -6.98616e-21)
(1984.73 -246.915 0)
(1935.66 -143.84 0)
(1934.76 -184.291 0)
(1780.15 -203.65 -1.94871e-17)
(1231.04 -134.729 2.30864e-17)
(1303.95 139.252 -2.78571e-21)
(1799.37 190.164 0)
(1946.89 166.466 9.8527e-21)
(1940.32 85.3454 -7.93617e-21)
(1971.97 167.426 -7.24964e-21)
(2028.31 300.075 0)
(2049.12 351.525 -6.61975e-21)
(2030.89 337.721 6.85757e-18)
(2045.58 281.115 -7.24939e-18)
(2030.49 230.977 0)
(2025.57 147.239 1.70458e-21)
(2023.1 74.3129 0)
(2019.87 -0.819187 0)
(2022.86 -82.1446 1.79772e-18)
(2027.41 -147.722 -1.80054e-18)
(2028.01 -240.455 -7.2377e-21)
(2062.77 -285.089 -1.65161e-21)
(2042.79 -351.45 6.98876e-21)
(2049.2 -363.067 -7.51094e-18)
(2030.42 -321.583 6.39116e-18)
(1975.92 -187.77 -1.73004e-17)