/*--------------------------------*- C++ -*----------------------------------*\
| =========                 |                                                 |
| \\      /  F ield         | OpenFOAM: The Open Source CFD Toolbox           |
|  \\    /   O peration     | Version:  2112                                  |
|   \\  /    A nd           | Website:  www.openfoam.com                      |
|    \\/     M anipulation  |                                                 |
\*---------------------------------------------------------------------------*/
FoamFile
{
    version     2.0;
    format      ascii;
    arch        "LSB;label=32;scalar=64";
    class       surfaceScalarField;
    location    "0.00668";
    object      phi;
}
// * * * * * * * * * * * * * * * * * * * * * * * * * * * * * * * * * * * * * //

dimensions      [1 0 -1 0 0 0 0];

oriented        oriented;

internalField   nonuniform List<scalar> 
27436
(
-0.533462
8.19281
-0.0933029
7.47166
-0.0850824
7.78731
-0.0704104
7.78618
-0.0649514
7.78883
-0.0482056
7.7807
-0.0408993
7.78975
-0.0346505
7.79003
-0.0240283
7.78748
-0.0150982
7.78866
-0.00850867
7.79028
0.00064126
7.78816
0.0142356
7.78331
0.0310649
7.78088
0.0462435
7.78227
0.0549439
7.78821
0.0580534
7.79263
0.0658218
7.78971
0.0753118
7.7883
0.0895608
7.78251
0.0962192
7.78792
0.111722
7.78553
0.124061
7.78241
0.573797
7.46253
8.21596
-0.247209
8.44002
-0.0961713
7.32064
-0.0813258
7.77255
-0.0545972
7.75996
-0.0595715
7.79413
-0.0596616
7.7828
-0.0379435
7.76769
-0.0281234
7.7805
-0.0205894
7.78052
-0.0109327
7.77985
0.000918166
7.77889
0.0152288
7.77344
0.0150632
7.78349
0.0215966
7.77435
0.0210638
7.78282
0.03767
7.77161
0.0465236
7.78378
0.0589917
7.77724
0.0823564
7.76493
0.0776857
7.78719
0.0721632
7.79348
0.102908
7.75477
0.11419
7.77143
0.26764
7.3079
8.47816
-0.227245
8.66725
-0.141174
7.23452
-0.120574
7.75184
-0.106962
7.7463
-0.105198
7.79242
-0.106237
7.78384
-0.0946176
7.75674
-0.0742138
7.75974
-0.0587095
7.76287
-0.0503317
7.76671
-0.0388951
7.76362
-0.0146902
7.74966
-0.0126223
7.78151
-0.0113819
7.7731
-0.00824608
7.77968
0.0127317
7.75064
0.0241357
7.77239
0.0472193
7.75427
0.060931
7.75119
0.0594036
7.7887
0.0638241
7.78903
0.0786486
7.74002
0.10042
7.74977
0.192552
7.21426
8.67267
-0.169546
8.83678
-0.139515
7.20445
-0.134301
7.74653
-0.113476
7.72548
-0.114737
7.79363
-0.110685
7.78026
-0.0908437
7.73651
-0.0724241
7.7401
-0.0573249
7.74534
-0.0434951
7.7513
-0.0287886
7.74767
-0.00704244
7.72762
0.00294517
7.77161
0.00485858
7.77118
0.0149831
7.76956
0.0353189
7.73034
0.0495417
7.75823
0.0696608
7.73422
0.0885433
7.73228
0.094237
7.78298
0.0944681
7.78877
0.118922
7.71565
0.111236
7.75734
0.16166
7.1642
8.83976
-0.0736106
8.91038
-0.0366701
7.16748
-0.0928098
7.80255
-0.0635951
7.69619
-0.0714008
7.80164
-0.0704463
7.77969
-0.0528374
7.71888
-0.0362289
7.72228
-0.0241818
7.73133
-0.0141918
7.73925
-0.00132484
7.7338
0.0167504
7.70938
0.0269084
7.76159
0.0277182
7.77038
0.0370601
7.76022
0.0543762
7.71307
0.0645945
7.74808
0.0820604
7.71683
0.0969795
7.71736
0.101068
7.77888
0.0969002
7.7929
0.124791
7.68778
0.0898269
7.79224
0.0967741
7.15801
8.94025
0.118537
8.79183
0.0436993
7.24227
-0.0504751
7.89658
-0.0141352
7.65976
-0.0340897
7.82155
-0.0377224
7.78397
-0.0254296
7.70683
-0.0128255
7.70785
-0.00515651
7.72182
-0.00152849
7.7335
0.00574514
7.72583
0.0195132
7.6956
0.0256069
7.75567
0.0249274
7.77108
0.0296646
7.75549
0.0421461
7.70062
0.0464473
7.74385
0.0583886
7.70494
0.0684258
7.7073
0.069075
7.77819
0.0524399
7.80948
0.0884318
7.65183
-0.0138579
7.89426
-0.0205506
7.16481
8.91938
0.30461
8.48719
0.136033
7.41076
-0.00710175
8.0396
0.0207539
7.63162
-0.0255984
7.86789
-0.0514512
7.81009
-0.0602139
7.71655
-0.0672556
7.71453
-0.081702
7.73409
-0.0955926
7.74634
-0.11199
7.742
-0.120203
7.70387
-0.130897
7.76647
-0.146383
7.7866
-0.158034
7.76714
-0.166529
7.70916
-0.184904
7.76228
-0.192927
7.71304
-0.207943
7.7223
-0.228672
7.79895
-0.262751
7.84349
-0.284714
7.67382
-0.354247
7.96346
-0.658055
7.4689
8.25947
0.873293
7.61387
0.521931
7.762
0.410079
8.15127
0.330674
7.71074
0.2643
7.93417
0.223221
7.85178
0.194494
7.74587
0.171937
7.73653
0.143192
7.76041
0.113932
7.77548
0.0828332
7.77393
0.060938
7.72582
0.0379743
7.78937
0.00659894
7.81802
-0.0193352
7.79312
-0.0447619
7.73463
-0.0743024
7.79188
-0.100685
7.73947
-0.130674
7.75228
-0.167111
7.83527
-0.228172
7.90445
-0.279077
7.72468
-0.405947
8.09002
-0.693333
7.75642
7.56258
0.592939
7.0209
0.410147
7.94472
0.237508
8.32395
0.187002
7.76072
0.12576
7.99475
0.093294
7.88499
0.086192
7.75311
0.0847038
7.73773
0.0799318
7.7629
0.0756293
7.78033
0.0714419
7.78081
0.0704942
7.72667
0.076903
7.7826
0.0768438
7.81819
0.0768032
7.79324
0.0720653
7.73943
0.0675512
7.79645
0.0631117
7.744
0.0562557
7.75915
0.029458
7.86205
-0.0265822
7.96039
-0.0464625
7.74451
-0.219132
8.26231
-0.371654
7.90872
7.18885
-3.05098
10.0717
-3.39156
8.28549
-2.7645
7.69687
-2.61947
7.6149
-2.3052
7.67873
-1.94491
7.52401
-1.64845
7.45488
-1.36817
7.45629
-1.08353
7.47705
-0.783845
7.48297
-0.494224
7.49514
-0.20907
7.44076
0.0971506
7.47583
0.403297
7.51222
0.69417
7.50249
0.965806
7.46785
1.26652
7.49577
1.54376
7.46685
1.83606
7.46696
2.19688
7.50124
2.50265
7.65457
2.65952
7.5875
3.23382
7.68779
2.95046
8.19166
10.1401
-4.25821
14.3299
-4.36524
8.39408
-4.19374
7.52615
-3.90045
7.31936
-3.32955
7.10495
-2.79532
6.98768
-2.34653
7.00462
-1.91853
7.02695
-1.47209
7.0297
-1.02016
7.03248
-0.561873
7.03953
-0.121888
6.99934
0.339995
7.01343
0.812069
7.04043
1.25784
7.05692
1.67759
7.04818
2.13317
7.04023
2.5735
7.02663
3.02804
7.01251
3.5766
6.95275
4.13303
7.09819
4.4427
7.27778
4.61112
7.51927
4.56336
8.23886
14.7044
-2.75718
17.0875
-4.86204
10.5003
-4.98192
7.6466
-4.14434
6.47774
-3.62553
6.58351
-3.17479
6.5359
-2.69792
6.52788
-2.21487
6.54368
-1.71971
6.53302
-1.22542
6.53645
-0.722945
6.53656
-0.244816
6.5192
0.256971
6.51141
0.76199
6.53584
1.25981
6.5594
1.71826
6.58989
2.20618
6.5524
2.69874
6.53421
3.19476
6.51658
3.66956
6.47805
4.24873
6.51922
5.09942
6.4272
4.7189
7.90036
2.77755
10.1805
17.4825
2.36645
14.7213
0.166522
12.6996
-4.99942
12.813
-3.8956
5.37164
-3.80521
6.49281
-3.30703
6.04088
-2.87904
6.10289
-2.37585
6.04069
-1.85508
6.00954
-1.33337
6.00978
-0.812213
6.01237
-0.308531
6.0134
0.210444
5.99267
0.741972
6.00507
1.26792
6.03397
1.79212
6.06602
2.28465
6.06008
2.76394
6.05515
3.1998
6.08096
3.76403
5.91402
3.98562
6.2979
5.0893
5.32366
-0.16335
13.1525
-2.39743
12.4154
15.085
2.45591
12.2655
3.52545
11.6291
3.49292
12.8472
-0.779817
9.65193
-3.61935
9.33728
-3.20594
5.6318
-2.97643
5.87796
-2.48217
5.54555
-1.95255
5.4767
-1.46418
5.51692
-0.975748
5.52128
-0.474941
5.51193
0.0239552
5.49498
0.53013
5.50013
1.03474
5.53024
1.53359
5.56778
2.04344
5.55063
2.49729
5.60163
2.60327
5.97532
2.96878
5.5485
-0.110593
9.37759
-4.21565
9.43007
-3.90069
12.8384
-2.95557
11.4705
12.1297
1.88334
10.3839
3.87748
9.6358
5.72426
11.0007
4.97433
10.407
4.10763
10.207
-1.19614
10.9586
-2.44119
7.11719
-2.10135
5.21279
-1.64573
5.03041
-1.1538
5.02694
-0.610376
4.97923
-0.068567
4.97225
0.473016
4.95618
1.01266
4.96285
1.56212
4.98241
2.0813
5.04954
2.50473
5.12775
2.89633
5.21137
1.49859
7.37377
-3.67298
10.7231
-4.23746
9.94303
-4.78422
9.97842
-3.04363
11.0974
-1.34136
9.76905
10.7885
1.06415
9.32179
2.13766
8.56523
3.9488
9.18756
4.89257
9.46439
5.08757
10.0055
5.83471
10.1926
2.7425
10.2302
1.25034
6.73017
0.113165
6.15014
-0.288468
5.42986
-0.200249
4.89195
0.0509041
4.72424
0.372509
4.63663
0.652495
4.68534
0.812016
4.82474
0.588419
5.27502
-0.68337
6.39857
-2.30862
6.83528
-5.09723
10.1653
-4.32117
9.94849
-3.90636
9.53025
-3.44358
9.51618
-1.80133
9.45495
-0.707933
8.67591
10.0809
2.01447
7.30933
3.17358
7.40735
4.36215
8.0048
5.91395
7.91001
6.99598
8.91491
6.58877
10.6035
4.53151
12.2667
1.88866
9.39657
0.763516
7.29
0.0536993
6.15778
-0.077268
5.05077
-0.104858
4.76675
0.00222564
4.55075
0.039762
4.66154
-0.0609005
4.93883
-0.714021
5.93896
-2.14073
7.83368
-4.68874
9.38785
-6.73825
12.2261
-7.16686
10.3786
-6.43314
8.80029
-4.9783
8.06344
-3.69997
8.17686
-2.57424
7.55046
7.50679
2.51914
4.7891
4.09345
5.83376
4.53551
7.55888
4.15433
8.27631
4.20966
8.85657
3.70965
11.1234
3.59054
12.3859
2.02032
10.9581
1.1659
8.14521
0.792374
6.53232
0.388368
5.45568
0.0275321
5.13172
-0.393701
4.97624
-0.788661
5.06074
-1.23104
5.38474
-1.72446
6.43347
-2.67542
8.78133
-4.34152
11.0527
-5.34103
13.2325
-6.28278
11.3261
-5.79728
8.32354
-5.78385
8.05476
-4.92942
7.32222
-2.94023
5.56182
4.56682
3.1775
1.61098
6.30112
2.7105
8.4602
5.39745
7.89957
8.81829
6.04662
10.7041
5.59373
11.5983
5.48367
12.5076
5.00787
11.4445
4.10047
9.03861
3.04127
7.58456
1.85597
6.63692
0.773023
6.20909
-0.33202
6.07497
-1.46089
6.18224
-2.71043
6.62634
-3.92733
7.64108
-4.43292
9.27627
-4.80874
11.42
-4.19185
12.6144
-4.43784
11.5755
-6.85894
10.7518
-7.82026
9.02209
-5.82924
5.33212
-2.9663
2.69854
1.60005
1.1983
0.410976
2.8788
1.02639
4.90591
3.36184
6.34435
7.3555
5.57854
11.4747
5.41924
11.7771
5.46726
12.4724
4.9023
12.0233
3.75542
10.1858
2.60163
8.74015
1.45961
7.77977
0.34886
7.31695
-0.761494
7.18183
-1.9033
7.31849
-3.11942
7.83516
-4.36448
8.87893
-5.45446
10.3585
-5.94287
11.9006
-5.74728
12.4161
-5.85507
11.6843
-6.6273
11.5308
-4.9412
7.34714
-2.88959
3.2848
-1.19884
1.00848
0.400969
0.589678
-0.180863
0.82255
0.791679
0.935159
3.2448
1.19332
7.08233
2.32129
10.3552
3.03838
11.0757
3.52888
11.9906
3.36173
12.1966
2.61808
10.9324
1.76235
9.5965
0.919272
8.62185
0.0901171
8.14419
-0.732243
8.00269
-1.59644
8.1788
-2.50544
8.73901
-3.41925
9.78765
-4.11404
11.0472
-4.1647
11.9451
-3.52104
11.7702
-2.81239
10.9759
-1.65342
10.3751
-1.00707
6.70219
-0.821988
3.09804
-0.575415
0.76136
-0.174928
-0.187028
0.0100411
-0.339154
0.946709
-0.903607
3.81174
-0.734248
6.90265
0.444178
9.17247
1.44003
10.0835
2.00112
11.4265
2.07534
12.1247
1.7333
11.2708
1.23981
10.0853
0.692289
9.16627
0.150615
8.68449
-0.40284
8.55566
-0.952288
8.72592
-1.50049
9.28418
-1.96718
10.251
-2.22087
11.2964
-2.06323
11.7833
-1.39579
11.1025
-0.332541
9.91253
0.778516
9.26263
0.89372
6.59054
0.350575
3.6436
0.202511
0.909567
0.0297855
-0.70971
0.722973
-1.59533
1.84159
-1.87114
4.09491
-1.77085
6.79274
-0.81939
8.21532
0.0419293
9.22149
0.52821
10.9389
0.811241
11.8358
0.846408
11.225
0.718391
10.2072
0.491947
9.39043
0.214339
8.96196
-0.0656317
8.83621
-0.332376
8.99205
-0.522093
9.47253
-0.583458
10.3103
-0.479154
11.1889
-0.231904
11.5334
0.313541
10.5581
1.17423
9.05092
2.13141
8.30311
2.03933
6.68355
1.65855
4.0254
0.710501
1.85932
0.742503
-0.505637
1.22875
-1.67491
3.01762
-2.49693
4.9226
-2.50543
6.79672
-1.99355
7.70162
-1.54262
8.77378
-0.978613
10.3665
-0.473248
11.3201
-0.136039
10.8783
0.00194948
10.0663
0.0143418
9.37839
-0.0381149
9.01584
-0.125576
8.92496
-0.178682
9.04516
-0.167273
9.46012
-0.021849
10.1631
0.313275
10.8511
0.80049
11.0442
1.29499
10.0657
1.82635
8.52003
2.40186
7.72338
2.37003
6.71407
1.57154
4.82227
0.466336
2.96499
1.21243
-0.478832
1.70617
-1.53169
4.07376
-2.21917
5.61459
-2.36994
6.94915
-2.12885
7.45889
-1.86538
8.51472
-1.41647
9.9061
-0.88543
10.7839
-0.461434
10.4504
-0.209175
9.81485
-0.0939421
9.26491
-0.0553749
8.97881
-0.0202629
8.89071
0.0293628
8.99501
0.163974
9.32481
0.434351
9.89151
0.847303
10.4367
1.35513
10.5354
1.74973
9.67159
2.03651
8.23483
2.33147
7.42519
2.12849
6.91539
1.41137
5.53904
0.432923
3.9425
1.65091
-0.388659
2.09132
-1.31083
4.99539
-2.0845
6.39212
-2.38792
7.25614
-2.37342
7.44333
-2.15569
8.28466
-1.74911
9.50107
-1.17408
10.2046
-0.680456
9.95777
-0.338018
9.47386
-0.13299
9.06157
0.0262152
8.82043
0.155099
8.76145
0.319177
8.83021
0.543965
9.09932
0.902963
9.53208
1.40583
9.93263
1.94564
9.99422
2.28104
9.3376
2.47889
8.0357
2.51407
7.38564
2.17923
7.24875
1.37386
6.3442
0.458727
4.86355
2.12029
-0.46917
2.55842
-1.43464
5.96168
-2.22661
7.18577
-2.5352
7.56658
-2.56278
7.47053
-2.44982
8.17429
-2.12968
9.17956
-1.61759
9.69311
-1.11972
9.46058
-0.727823
9.08301
-0.43747
8.77201
-0.223092
8.60576
-0.0175271
8.55527
0.196761
8.61544
0.489563
8.80664
0.87503
9.14692
1.33409
9.47341
1.81464
9.51229
2.13792
9.01468
2.26859
7.90743
2.24608
7.40408
1.99613
7.49678
1.2966
7.04095
0.36495
5.80831
2.4792
-0.358245
2.91551
-1.22108
6.82444
-1.96287
7.92767
-2.19007
7.79247
-2.36549
7.64592
-2.27033
8.08663
-1.96241
8.86504
-1.45926
9.19393
-0.987307
8.98664
-0.608489
8.70433
-0.313162
8.47652
-0.0491054
8.34145
0.186735
8.31936
0.452234
8.35052
0.755442
8.50416
1.14939
8.75327
1.6328
8.99015
2.0979
9.04608
2.34885
8.76429
2.40839
7.84637
2.25675
7.55375
1.97214
7.77558
1.20502
7.80479
0.380883
6.6202
2.84764
-0.27881
3.19433
-1.19309
7.73925
-1.90947
8.64365
-2.11002
7.99318
-2.24127
7.77387
-2.15959
7.99762
-1.89136
8.59566
-1.45982
8.76472
-1.01921
8.54327
-0.632189
8.31836
-0.294752
8.13952
-0.0126278
8.05953
0.270817
8.03679
0.552919
8.06935
0.894943
8.16345
1.29168
8.35703
1.71683
8.56494
2.13874
8.62288
2.38543
8.51693
2.43695
7.79501
2.32466
7.66108
2.14756
7.94824
1.43222
8.5162
0.486112
7.56334
3.32477
-0.527806
3.72644
-1.41734
8.63467
-2.05693
9.28426
-2.2101
8.14729
-2.41618
7.97523
-2.44031
8.01313
-2.2227
8.38033
-1.75931
8.30087
-1.3134
8.0973
-0.925259
7.9309
-0.605096
7.82017
-0.291467
7.7469
0.00159747
7.74478
0.319315
7.75305
0.649818
7.83399
1.03235
7.97486
1.46516
8.13261
1.87169
8.21661
2.08896
8.29805
2.08261
7.79983
1.92224
7.82402
1.77756
8.08579
1.16349
9.12868
0.34855
8.38914
3.66814
-0.413865
4.14634
-1.32392
9.55468
-1.89692
9.85616
-2.00086
8.25058
-2.03482
8.00452
-2.02188
7.9972
-1.80239
8.16533
-1.44381
7.94029
-1.06943
7.72598
-0.714937
7.57791
-0.371275
7.478
-0.0698689
7.44661
0.243868
7.43214
0.54681
7.45098
0.889836
7.49228
1.25651
7.60845
1.62049
7.7673
1.99327
7.84164
2.20111
8.08932
2.16038
7.83485
2.11956
7.86197
1.97545
8.22688
1.45876
9.63751
0.501137
9.34008
4.17217
-0.400272
4.55346
-0.794966
9.96019
-1.63439
10.6929
-1.74234
8.36022
-1.8185
8.0793
-1.78921
7.96713
-1.64739
8.02673
-1.31054
7.60367
-0.969781
7.38674
-0.647641
7.25752
-0.36232
7.19349
-0.0600304
7.14528
0.226364
7.14657
0.531522
7.14666
0.827934
7.19621
1.16386
7.27278
1.51668
7.41494
1.80716
7.55036
1.93455
7.96058
1.96163
7.80667
1.91714
7.9055
1.94614
8.19259
1.18248
10.393
0.552592
9.97248
4.7439
-0.629665
5.18682
-1.05851
10.3976
-1.89797
11.526
-1.96904
8.42819
-1.96014
8.06836
-1.89173
7.90129
-1.68686
7.82468
-1.40177
7.32123
-1.11187
7.09704
-0.819762
6.96685
-0.506911
6.88123
-0.226828
6.86572
0.0706635
6.84958
0.354722
6.86276
0.668921
6.88262
0.96505
6.97557
1.23303
7.14426
1.52341
7.25655
1.70456
7.77755
1.76975
7.73587
1.76018
7.91347
1.68404
8.26469
0.853632
11.2237
0.397317
10.445
5.14935
-0.437493
5.63024
-0.70489
10.6724
-1.31035
12.1296
-1.59374
8.71041
-1.65584
8.13013
-1.59473
7.84141
-1.44987
7.67945
-1.18339
7.05589
-0.888976
6.80147
-0.594434
6.67229
-0.339704
6.62655
-0.0550582
6.58118
0.212477
6.58209
0.494931
6.58035
0.749283
6.62744
1.04573
6.67875
1.34043
6.84956
1.59815
6.99748
1.73864
7.63573
1.77232
7.7004
1.74144
7.94114
1.53416
8.46692
0.900932
11.8526
0.449552
10.8875
5.61046
-0.284143
5.91608
-0.388606
10.7798
-0.979072
12.7212
-1.50946
9.23473
-1.58298
8.20194
-1.48613
7.74637
-1.24759
7.43942
-1.03793
6.84634
-0.814606
6.57769
-0.58702
6.44368
-0.314404
6.35353
-0.0763817
6.34281
0.181781
6.32352
0.420398
6.34117
0.687306
6.36012
0.916324
6.44795
1.13907
6.62349
1.36412
6.76845
1.59402
7.40296
1.67062
7.62209
1.64654
7.96543
1.15289
8.9605
0.614661
12.3916
0.28406
11.1955
5.89677
-0.420735
6.33679
-0.607841
10.9693
-0.945904
13.0573
-1.60345
9.89162
-1.55979
8.15821
-1.49132
7.67621
-1.3582
7.30169
-1.12293
6.60936
-0.896617
6.35091
-0.643659
6.18897
-0.432509
6.14181
-0.184359
6.09395
0.0436851
6.09476
0.290988
6.0931
0.510647
6.13898
0.763915
6.19453
0.9847
6.4025
1.18477
6.56727
1.33654
7.24927
1.39768
7.5588
1.39683
7.96497
0.711705
9.65031
0.212624
12.8894
0.168043
11.2354
6.06694
-0.202353
6.5339
-0.256998
11.0255
-0.43776
13.2385
-1.24697
10.697
-1.37955
8.28731
-1.33912
7.63364
-1.10845
7.06558
-0.887549
6.38519
-0.698256
6.16104
-0.511396
6.00004
-0.266775
5.89616
-0.0577283
5.88419
0.17601
5.86016
0.385448
5.88273
0.619434
5.90401
0.813263
5.99946
1.00467
6.20899
1.24346
6.32805
1.45472
7.03589
1.50487
7.50906
1.41416
8.05651
0.643775
10.4361
0.444466
13.0851
0.431825
11.2459
6.53178
-0.0127502
6.53173
0.00897103
10.9982
-0.0235575
13.2734
-0.757891
11.4333
-1.18123
8.70805
-1.10141
7.55006
-1.00915
6.96832
-0.836132
6.20999
-0.649375
5.9724
-0.435388
5.78462
-0.262503
5.72226
-0.0529007
5.67368
0.136798
5.66962
0.348104
5.67053
0.527754
5.72334
0.740757
5.78591
0.920996
6.02827
1.08469
6.16322
1.22809
6.88861
1.33329
7.40251
1.03096
8.35666
0.209431
11.2544
0.0816507
13.2137
0.172817
11.1625
6.75802
-0.214916
6.73383
-0.359718
11.1299
-0.143406
13.0571
-0.714581
12.0108
-1.32319
9.3118
-1.22646
7.44881
-1.05657
6.79337
-0.859656
6.01049
-0.680518
5.79105
-0.530022
5.63313
-0.331312
5.52247
-0.159186
5.50104
0.0383603
5.47138
0.213736
5.49456
0.406847
5.52972
0.565075
5.62771
0.751473
5.84077
0.93588
5.98005
1.0502
6.77272
1.13956
7.3129
0.470066
9.0286
-0.219025
11.9471
-0.063592
13.0638
0.0260468
11.0868
6.81679
-0.0634785
6.79587
-0.0943001
11.1476
0.194309
12.7685
-0.0923991
12.3027
-0.864696
10.072
-0.908865
7.48759
-0.843169
6.7238
-0.721413
5.88725
-0.572977
5.64032
-0.375664
5.43524
-0.220423
5.36679
-0.0367937
5.31666
0.131048
5.30296
0.314397
5.3106
0.475098
5.36809
0.670979
5.43063
0.815648
5.69453
0.946809
5.8489
1.04926
6.66672
1.04119
7.31893
0.331356
9.73649
-0.0163541
12.298
0.227438
12.8341
0.12489
11.1868
6.93962
-0.0133534
6.81876
0.0302828
11.0973
0.347174
12.4462
0.356118
12.3003
-0.504783
10.9069
-0.905866
7.88251
-0.741076
6.55446
-0.619382
5.76322
-0.482493
5.50159
-0.366471
5.31832
-0.194243
5.19349
-0.044414
5.16645
0.121457
5.13654
0.268098
5.16356
0.433603
5.20236
0.560616
5.3042
0.72208
5.53208
0.83827
5.73372
1.05767
6.44503
0.731105
7.64374
-0.0987308
10.5642
-0.252117
12.4545
0.0433915
12.5307
0.0338139
11.2058
6.95403
-0.133288
6.96336
-0.133921
11.0982
0.096992
12.2146
0.277227
12.1267
-0.260299
11.4503
-0.785726
8.39785
-0.766615
6.53117
-0.66494
5.66041
-0.572761
5.40857
-0.406409
5.15241
-0.274889
5.06187
-0.117571
5.00869
0.0249874
4.99346
0.178685
5.00918
0.314436
5.0654
0.47197
5.14575
0.556357
5.44489
0.628993
5.66058
0.705369
6.36506
0.0688511
8.27955
-0.658573
11.2867
-0.394345
12.1914
-0.18706
12.3258
-0.103188
11.0979
6.83379
-0.0466129
7.02134
-0.00342609
11.0578
0.205915
12.002
0.587086
11.7519
0.161261
11.8776
-0.473579
9.01957
-0.638657
6.69199
-0.502608
5.52276
-0.405677
5.31037
-0.314217
5.05909
-0.167665
4.91419
-0.0369135
4.87755
0.108757
4.84721
0.241896
4.87531
0.384306
4.9224
0.48754
5.04305
0.614481
5.31576
0.746797
5.52851
0.640767
6.46832
-0.0155543
8.93202
-0.480675
11.7464
-0.110584
11.8328
0.101637
12.1149
0.163779
11.0152
6.98933
0.102426
6.92888
0.23966
10.9258
0.307959
11.9317
0.594376
11.4698
0.834919
11.6462
0.0219618
9.80862
-0.452697
7.16197
-0.44293
5.51059
-0.374021
5.23955
-0.261559
4.94585
-0.157379
4.80927
-0.0282883
4.74783
0.093036
4.72516
0.224672
4.74262
0.33467
4.81073
0.449985
4.92631
0.524308
5.23769
0.58782
5.46377
0.269346
6.78335
-0.636296
9.83582
-0.574493
11.6816
-0.192648
11.4416
-0.0426525
11.9477
-0.00836888
10.9901
6.9862
-0.102926
7.03825
-0.0124214
10.8414
0.0871009
11.8309
0.340634
11.2201
0.720672
11.2732
0.115887
10.4183
-0.37341
7.64785
-0.469428
5.60513
-0.377712
5.14641
-0.307738
4.87452
-0.202418
4.70297
-0.0956748
4.64026
0.0255224
4.60308
0.134357
4.63266
0.239349
4.70514
0.311237
4.8548
0.40781
5.13661
0.304522
5.56693
-0.198273
7.28014
-0.939343
10.5724
-0.601637
11.3391
-0.335374
11.1716
-0.222852
11.836
-0.0592377
10.8527
6.94554
0.0636719
6.97992
0.252279
10.6598
0.274469
11.8066
0.471266
11.0252
0.91559
10.8347
0.813261
10.5275
0.0212614
8.4384
-0.314804
5.93771
-0.300542
5.12885
-0.208876
4.78132
-0.127338
4.62065
-0.0259988
4.53804
0.0770693
4.49914
0.180081
4.52852
0.271529
4.61248
0.360169
4.76519
0.39515
5.09933
0.0696839
5.89069
-0.695705
8.03866
-0.869454
10.7444
-0.389668
10.8602
-0.153287
10.9291
-0.096844
11.7923
0.0313396
10.7444
6.99747
0.0809918
6.90331
0.33588
10.4118
0.392735
11.748
0.552479
10.8673
0.855993
10.5373
1.05181
10.3387
0.391386
9.09968
-0.0719379
6.40174
-0.206832
5.26243
-0.162384
4.73606
-0.0910216
4.54816
-0.016105
4.46207
0.0746282
4.40757
0.153646
4.44833
0.237012
4.52831
0.303715
4.69843
0.225561
5.17295
-0.210093
6.3257
-0.963861
8.78296
-0.726479
10.5046
-0.41125
10.5416
-0.247853
10.7634
-0.190656
11.7367
0.00488667
10.5619
7.01975
-0.00495417
6.9111
0.171684
10.241
0.270988
11.6529
0.402293
10.7386
0.642154
10.3019
1.05714
9.92977
0.812056
9.34704
0.0729276
7.13822
-0.213429
5.54322
-0.187101
4.70807
-0.126943
4.48677
-0.0553196
4.38958
0.00949503
4.34201
0.0786205
4.37834
0.140809
4.46552
0.166912
4.67158
-0.118885
5.45555
-0.91018
7.11247
-1.28974
9.15399
-0.795793
10.0085
-0.562504
10.3123
-0.444903
10.6458
-0.369699
11.6687
-0.0935889
10.2903
6.93418
-0.0055063
6.91892
0.273567
9.96956
0.428816
11.499
0.509727
10.6597
0.729455
10.0865
1.0206
9.64804
1.07078
9.29785
0.529275
7.68267
0.0261793
6.04478
-0.0978487
4.83128
-0.0608558
4.44974
-0.0123765
4.34015
0.0374677
4.29143
0.0924714
4.32248
0.1399
4.41758
0.0397655
4.77096
-0.386735
5.88138
-0.955311
7.6767
-1.03973
9.23175
-0.710898
9.67978
-0.471568
10.0729
-0.388103
10.5589
-0.238239
11.5146
0.0368212
10.0153
6.9661
0.0329094
6.88947
0.301179
9.70417
0.567334
11.2377
0.635897
10.5942
0.783017
9.94649
0.9645
9.4681
1.36782
8.8958
0.904374
8.14641
0.22209
6.71634
0.00650587
5.0426
-0.0124141
4.4673
0.0107966
4.31594
0.0317252
4.26977
0.0623906
4.291
0.0731156
4.40641
-0.134858
4.97805
-0.903866
6.64473
-1.34298
8.11262
-0.974529
8.85818
-0.737036
9.44222
-0.555249
9.89163
-0.478671
10.4816
-0.242825
11.2685
0.0136764
9.75315
6.9704
-0.0506442
-0.907151
-0.0236487
-0.538669
0.0259577
-0.464404
0.093599
-0.516794
0.158788
-0.622577
0.219656
-0.730802
0.266181
-0.807467
0.291943
-0.75973
0.297365
-0.609823
0.293309
-0.388456
0.327622
-0.288041
0.385304
-0.419422
0.415448
-0.654596
0.419028
-0.838855
0.428822
-0.959911
0.44793
-1.03012
0.467731
-1.09585
0.488349
-1.11292
0.507831
-1.14115
0.51706
-1.1576
0.535003
-1.17657
0.548317
-1.19807
0.56102
-1.21835
0.569388
-1.23034
0.560949
-1.23616
0.509518
-1.21422
0.384495
-1.08747
0.0873897
-0.729233
0.0181463
-0.257375
-0.170614
0.0184295
-0.819718
0.0389399
-0.48598
0.0854469
-0.49675
0.142287
-0.564483
0.210923
-0.684861
0.27817
-0.810167
0.328646
-0.881188
0.34756
-0.810476
0.310397
-0.605458
0.281494
-0.372384
0.267105
-0.250945
0.325554
-0.330097
0.386007
-0.552644
0.421592
-0.746137
0.444235
-0.884068
0.460939
-0.97581
0.48025
-1.06374
0.50042
-1.10817
0.519484
-1.11154
0.534202
-1.13702
0.545549
-1.16449
0.55478
-1.18882
0.572215
-1.2107
0.582285
-1.22338
0.587808
-1.22218
0.578276
-1.1939
0.554009
-1.13083
0.278238
-0.899841
0.0586881
-0.387066
-0.20417
-0.00325757
-0.717528
0.0324105
-0.465142
0.0785672
-0.534958
0.140565
-0.62042
0.213264
-0.770148
0.279307
-0.893759
0.318386
-0.927997
0.32057
-0.812148
0.291484
-0.58037
0.243178
-0.341187
0.224743
-0.210299
0.280231
-0.256611
0.3315
-0.445958
0.373937
-0.664418
0.408372
-0.821305
0.429497
-0.92716
0.454037
-1.00918
0.478577
-1.0681
0.495906
-1.10839
0.516474
-1.11036
0.533051
-1.13699
0.548536
-1.16078
0.571388
-1.18112
0.59386
-1.19853
0.605212
-1.2052
0.619279
-1.18847
0.633277
-1.14713
0.54353
-1.02382
0.126809
-0.648776
-0.377592
-0.00213094
-0.631864
0.0373331
-0.489262
0.0797261
-0.576132
0.135525
-0.682102
0.2016
-0.863039
0.263928
-0.980101
0.293317
-0.957941
0.280799
-0.787802
0.2553
-0.542586
0.203498
-0.288013
0.196146
-0.184866
0.236602
-0.214769
0.288371
-0.369092
0.343971
-0.596609
0.382853
-0.759464
0.407839
-0.896199
0.432079
-0.962933
0.460197
-1.01755
0.484948
-1.06486
0.504912
-1.11392
0.522978
-1.10673
0.543779
-1.13294
0.57272
-1.15304
0.598191
-1.17363
0.622276
-1.19166
0.640228
-1.20137
0.667307
-1.19293
0.661492
-1.16057
0.241311
-1.04339
-1.09211
0.0152356
-0.579358
0.0524018
-0.514603
0.0883979
-0.614688
0.143106
-0.750144
0.215731
-0.958039
0.246991
-1.01906
0.246744
-0.947183
0.225216
-0.744862
0.195022
-0.491921
0.161591
-0.247338
0.158783
-0.166303
0.183725
-0.172925
0.248456
-0.323108
0.307494
-0.5466
0.353926
-0.710251
0.388976
-0.856356
0.415306
-0.919164
0.447492
-0.97521
0.475345
-1.02095
0.501188
-1.06439
0.52317
-1.07879
0.548233
-1.10853
0.577644
-1.13487
0.609119
-1.1587
0.634847
-1.18702
0.652234
-1.21754
0.651044
-1.25678
0.597237
-1.33128
0.329132
-1.6045
-3.00761
0.0312645
-0.551068
0.0645395
-0.533833
0.0969033
-0.646525
0.151263
-0.826403
0.202794
-1.03639
0.215962
-1.03605
0.192531
-0.905406
0.1658
-0.691676
0.136814
-0.438031
0.123355
-0.221602
0.117422
-0.143725
0.152839
-0.1602
0.219145
-0.304466
0.281199
-0.507828
0.331848
-0.670359
0.373652
-0.806937
0.404646
-0.878969
0.437704
-0.937291
0.467944
-0.984458
0.497982
-1.02768
0.525243
-1.05337
0.552805
-1.08829
0.58134
-1.12056
0.61556
-1.15167
0.641741
-1.19124
0.642632
-1.24977
0.600998
-1.34907
0.482027
-1.59584
0.357162
-2.97157
-3.2409
0.032379
-0.536813
0.0604961
-0.551356
0.0898605
-0.676433
0.139017
-0.899263
0.165101
-1.07398
0.164482
-1.02106
0.133181
-0.849184
0.104832
-0.622542
0.0819252
-0.383818
0.0812314
-0.204024
0.0834492
-0.128164
0.119997
-0.157728
0.183865
-0.297143
0.250043
-0.484647
0.307467
-0.641717
0.351339
-0.766252
0.388787
-0.843343
0.42375
-0.903298
0.457335
-0.952415
0.491014
-0.998005
0.523636
-1.03303
0.554104
-1.07234
0.583906
-1.10986
0.619209
-1.14985
0.641374
-1.20767
0.624907
-1.30676
0.540976
-1.49822
0.414692
-2.08925
0.210705
-3.31287
-3.31136
0.0271823
-0.526212
0.0457468
-0.561398
0.0712536
-0.707883
0.104555
-0.951044
0.109689
-1.07846
0.0980156
-0.993081
0.0640618
-0.781107
0.0390663
-0.550731
0.0281469
-0.338098
0.03426
-0.191959
0.0503611
-0.128869
0.0905254
-0.165362
0.15496
-0.308973
0.222924
-0.478664
0.283933
-0.617692
0.330436
-0.733556
0.371786
-0.813374
0.408646
-0.873183
0.445272
-0.924171
0.482075
-0.971783
0.519366
-1.01533
0.552954
-1.0614
0.585113
-1.10559
0.618711
-1.15854
0.62912
-1.24282
0.591283
-1.40341
0.451168
-1.75363
0.381587
-3.27286
0.147076
-3.26464
-3.36234
0.0171625
-0.513331
0.0294886
-0.5675
0.0481987
-0.736671
0.0549656
-0.973612
0.0484047
-1.06686
0.0271199
-0.951512
0.00232172
-0.71482
-0.0217423
-0.493448
-0.0213664
-0.311575
-0.00666204
-0.19095
0.0204723
-0.142657
0.0652794
-0.185501
0.130392
-0.332808
0.197412
-0.483074
0.256655
-0.607159
0.306366
-0.712791
0.350577
-0.789218
0.38988
-0.848307
0.430513
-0.900837
0.471409
-0.949818
0.513279
-0.999803
0.550788
-1.05289
0.585326
-1.10776
0.607358
-1.18144
0.604684
-1.30448
0.535082
-1.55141
0.426767
-2.20429
0.260982
-3.47209
0.144356
-3.24509
-3.35581
0.00953302
-0.495694
0.0132859
-0.568038
0.0140202
-0.749525
0.00132227
-0.974346
-0.0134994
-1.04529
-0.0447643
-0.90217
-0.0668741
-0.660497
-0.0770351
-0.462791
-0.0676565
-0.306314
-0.044824
-0.202272
-0.0044003
-0.175636
0.0441131
-0.217444
0.109494
-0.368715
0.174629
-0.493506
0.233045
-0.608313
0.283451
-0.705888
0.328712
-0.770279
0.370767
-0.828977
0.415919
-0.879919
0.460433
-0.933567
0.505467
-0.989424
0.546217
-1.04909
0.581916
-1.11714
0.596705
-1.2173
0.565586
-1.39756
0.424398
-1.78349
0.334893
-3.18741
0.211919
-3.36079
0.153492
-3.22853
-3.30442
0.00191704
-0.472506
-0.00567358
-0.558098
-0.022198
-0.743646
-0.0512014
-0.957128
-0.0798497
-1.01123
-0.111822
-0.853516
-0.121665
-0.626161
-0.119915
-0.452286
-0.105998
-0.315116
-0.0750332
-0.230392
-0.0299187
-0.223807
0.0262646
-0.271634
0.088652
-0.411923
0.152231
-0.518523
0.20896
-0.624235
0.258422
-0.694784
0.305176
-0.755737
0.351697
-0.812561
0.399874
-0.863811
0.448902
-0.923384
0.496135
-0.985058
0.539548
-1.05241
0.573395
-1.13921
0.573797
-1.27308
0.514472
-1.53796
0.41897
-2.26615
0.238462
-3.31426
0.211825
-3.28395
0.154784
-3.1889
-3.24458
-0.00671852
-0.442885
-0.0246196
-0.538443
-0.0549525
-0.721663
-0.0973168
-0.921927
-0.139223
-0.962299
-0.165379
-0.819858
-0.163616
-0.626268
-0.154033
-0.473581
-0.133225
-0.349627
-0.0968441
-0.281436
-0.0493853
-0.293846
0.0103373
-0.349961
0.0661286
-0.459448
0.127301
-0.544963
0.181987
-0.636011
0.231607
-0.691265
0.280997
-0.748797
0.331539
-0.803535
0.382797
-0.858268
0.435691
-0.920035
0.486277
-0.987331
0.531331
-1.06536
0.554691
-1.17595
0.528235
-1.36054
0.395252
-1.74393
0.301267
-3.11737
0.196044
-3.23752
0.204191
-3.26895
0.146835
-3.15913
-3.18556
-0.0150931
-0.407812
-0.0421249
-0.50859
-0.083166
-0.68571
-0.138412
-0.869241
-0.194124
-0.898498
-0.206953
-0.809248
-0.203676
-0.649937
-0.187828
-0.524016
-0.159447
-0.418197
-0.118633
-0.362973
-0.0708102
-0.393457
-0.0123506
-0.441186
0.0415367
-0.509931
0.0988402
-0.571156
0.152856
-0.645548
0.203603
-0.695023
0.256211
-0.750262
0.308904
-0.803679
0.364405
-0.859603
0.421028
-0.924113
0.474573
-0.996579
0.517384
-1.08662
0.53029
-1.22706
0.492167
-1.48522
0.397456
-2.11087
0.214304
-3.19835
0.177335
-3.17261
0.177409
-3.2497
0.116552
-3.16996
-3.16427
-0.0230892
-0.366656
-0.059385
-0.47111
-0.111502
-0.641179
-0.175345
-0.805628
-0.232195
-0.828175
-0.249686
-0.789452
-0.249546
-0.673593
-0.228755
-0.595235
-0.194705
-0.506114
-0.148626
-0.474867
-0.10026
-0.50376
-0.0450228
-0.52583
0.0135896
-0.563677
0.068472
-0.601803
0.122956
-0.655065
0.175784
-0.706123
0.231585
-0.760511
0.288128
-0.812227
0.347314
-0.868733
0.406567
-0.935047
0.460991
-1.01296
0.49546
-1.12114
0.485981
-1.30345
0.371456
-1.67195
0.279385
-2.90249
0.158118
-3.08911
0.154185
-3.13339
0.15832
-3.20583
0.105139
-3.20493
-3.15763
-0.0297235
-0.318902
-0.0771291
-0.423043
-0.138982
-0.588583
-0.209393
-0.731399
-0.259579
-0.762283
-0.286533
-0.750514
-0.291231
-0.667088
-0.276447
-0.630637
-0.240009
-0.574786
-0.190716
-0.563416
-0.139415
-0.57454
-0.0815429
-0.585721
-0.0204618
-0.606753
0.0377925
-0.629151
0.0927645