/*--------------------------------*- C++ -*----------------------------------*\
| =========                 |                                                 |
| \\      /  F ield         | OpenFOAM: The Open Source CFD Toolbox           |
|  \\    /   O peration     | Version:  2112                                  |
|   \\  /    A nd           | Website:  www.openfoam.com                      |
|    \\/     M anipulation  |                                                 |
\*---------------------------------------------------------------------------*/
FoamFile
{
    version     2.0;
    format      ascii;
    arch        "LSB;label=32;scalar=64";
    class       volScalarField;
    location    "0.00791";
    object      nut;
}
// * * * * * * * * * * * * * * * * * * * * * * * * * * * * * * * * * * * * * //

dimensions      [0 2 -1 0 0 0 0];

internalField   nonuniform List<scalar> 
13875
(
0.0511676
0.0366255
0.0343656
0.0343284
0.0342986
0.0343344
0.0342952
0.0342793
0.0343098
0.0342931
0.0342771
0.0342941
0.0343247
0.0343416
0.0343305
0.0342933
0.0342675
0.0342894
0.0343023
0.0343266
0.0343039
0.0343342
0.0343831
0.0365701
0.0514248
0.0532618
0.0341199
0.0322222
0.0321058
0.0320618
0.0320827
0.0320365
0.032034
0.0320662
0.032046
0.0320232
0.0320461
0.0320559
0.0320722
0.0320603
0.032047
0.0320036
0.0320341
0.0320459
0.0320759
0.0320636
0.0321024
0.032229
0.0340505
0.0536387
0.0564566
0.0335617
0.0318027
0.031592
0.0315679
0.0315766
0.0314727
0.0314514
0.0314811
0.0314602
0.0314343
0.0314621
0.0315324
0.0315554
0.0315346
0.0314645
0.0314078
0.0314447
0.031478
0.0315676
0.0315643
0.0315802
0.0317946
0.0334901
0.0566005
0.05907
0.0332326
0.0314893
0.0312757
0.0312606
0.0312633
0.0311473
0.0311166
0.0311319
0.0311116
0.0310919
0.0311152
0.0312159
0.0312396
0.0312182
0.0311165
0.0310725
0.0311021
0.0311465
0.0312539
0.0312551
0.0312625
0.0314845
0.0331667
0.05915
0.0611252
0.0330037
0.0312461
0.0310016
0.0309839
0.0309799
0.0308616
0.0308311
0.0308407
0.0308224
0.030805
0.0308254
0.0309274
0.0309544
0.0309297
0.0308269
0.030786
0.0308145
0.0308594
0.0309687
0.0309765
0.0309898
0.0312297
0.0329192
0.0612663
0.0628179
0.0328477
0.0310891
0.0307699
0.0307518
0.0307312
0.0306019
0.030571
0.0305757
0.0305591
0.0305438
0.0305616
0.0306649
0.0306948
0.0306676
0.0305622
0.0305256
0.0305532
0.0305999
0.0307197
0.0307435
0.0307612
0.0310581
0.0328239
0.062978
0.0648262
0.0330725
0.0311039
0.0306308
0.0305683
0.0305248
0.030377
0.0303377
0.0303373
0.0303218
0.0303083
0.0303234
0.0304287
0.0304587
0.0304284
0.0303215
0.0302925
0.0303205
0.0303762
0.0305121
0.03056
0.0306331
0.0311128
0.0330715
0.0648679
0.0670925
0.0339357
0.0314247
0.0306488
0.0304854
0.0303735
0.0301939
0.0301358
0.0301287
0.0301131
0.0301007
0.0301103
0.0302192
0.0302518
0.0302187
0.0301073
0.0300886
0.0301206
0.0301898
0.0303573
0.0304672
0.0306295
0.0313921
0.0338958
0.0673554
0.073644
0.0362955
0.0320408
0.0308435
0.0304758
0.0302836
0.0300581
0.029973
0.0299548
0.0299403
0.0299301
0.0299348
0.0300473
0.0300829
0.0300488
0.0299338
0.0299223
0.0299582
0.0300443
0.0302597
0.0304504
0.030802
0.0319351
0.0359993
0.0741849
0.0828985
0.0384699
0.0327349
0.0311877
0.030585
0.0302499
0.0299863
0.0298874
0.0298549
0.0298387
0.0298296
0.0298316
0.0299433
0.0299816
0.0299493
0.0298451
0.0298316
0.0298727
0.0299657
0.0302202
0.0305503
0.0310803
0.0326226
0.0381037
0.0835405
0.0907194
0.044141
0.0346483
0.0319967
0.0308256
0.0303638
0.0300496
0.0299095
0.0298627
0.0298398
0.0298271
0.0298269
0.0299327
0.0299726
0.0299501
0.0298708
0.0298547
0.0299026
0.0300348
0.0303056
0.0307948
0.031881
0.0343615
0.0432599
0.0893423
0.0950623
0.0545323
0.040368
0.033452
0.0318801
0.0308419
0.0303332
0.0301309
0.030049
0.0300134
0.0299942
0.0299947
0.0300852
0.0301267
0.0301195
0.0300714
0.0300626
0.0301357
0.0303191
0.0308347
0.0317966
0.0332238
0.0398411
0.0533562
0.0942564
0.086607
0.0689236
0.0514604
0.0417373
0.0343661
0.0319268
0.0312801
0.0308187
0.0306313
0.030547
0.0305045
0.0304972
0.030566
0.0306082
0.0306231
0.0306213
0.0306752
0.0308682
0.0313289
0.0320095
0.034762
0.041567
0.0509164
0.0687766
0.0866017
0.0796042
0.0660461
0.0580937
0.0655246
0.0416673
0.0371918
0.0336537
0.0324268
0.0320331
0.031973
0.0319349
0.0319262
0.0319874
0.0320294
0.0320568
0.0320864
0.0321402
0.032531
0.0340641
0.0382295
0.0431595
0.0656699
0.0578225
0.0661781
0.081609
0.075329
0.0643339
0.0565391
0.0605403
0.0560461
0.053982
0.0443828
0.038813
0.0367362
0.0358934
0.03551
0.0353844
0.0354047
0.0354603
0.0355689
0.0358644
0.0366616
0.0388892
0.045111
0.0550523
0.0557811
0.0612276
0.0565943
0.0641627
0.0746623
0.067166
0.0618556
0.0542549
0.0572023
0.0559706
0.0572108
0.0545558
0.0530339
0.0508015
0.048364
0.0474813
0.0471387
0.0470546
0.0471346
0.0472987
0.0477898
0.0503661
0.0542719
0.0553802
0.0577061
0.0556246
0.0579875
0.0543028
0.0615016
0.0664779
0.0624132
0.0582104
0.0524546
0.0550219
0.05682
0.0612656
0.068124
0.0730373
0.0701832
0.0707509
0.0730098
0.0745067
0.0752907
0.074977
0.0734682
0.0727039
0.069994
0.0728471
0.0687566
0.0613762
0.0564054
0.0553142
0.051995
0.0576027
0.0624479
0.0570076
0.0546674
0.0530201
0.0568326
0.060043
0.0630864
0.0708363
0.0793263
0.0744527
0.0702495
0.0691701
0.0693339
0.0698915
0.0696136
0.0697398
0.0726021
0.0738172
0.0768742
0.0710272
0.0641771
0.060949
0.0576922
0.0528622
0.0542818
0.0567964
0.0513257
0.0540396
0.0556858
0.0617687
0.0670333
0.0648112
0.0672999
0.0752881
0.0744203
0.0703988
0.0686325
0.0683206
0.0684206
0.068884
0.0697394
0.0715993
0.0727665
0.0733161
0.067797
0.0663688
0.0695999
0.0632908
0.0562966
0.0543757
0.052121
0.0492403
0.0570457
0.0601591
0.0659697
0.0688714
0.0645092
0.0638615
0.0696051
0.071935
0.0704224
0.0686449
0.0671572
0.0664567
0.0679588
0.0698701
0.0708349
0.0699059
0.0679832
0.0645143
0.066209
0.0706254
0.0666788
0.0608901
0.057504
0.0487261
0.0771054
0.0871246
0.0763597
0.0653248
0.0651114
0.0615633
0.0606791
0.0656334
0.0694445
0.0694169
0.0675506
0.0651452
0.0640069
0.0662508
0.0688575
0.0693732
0.0672554
0.0642589
0.0614204
0.0632073
0.0666694
0.0668414
0.0788124
0.0902526
0.0813535
0.128257
0.153593
0.0878121
0.0618536
0.060953
0.0585508
0.0580441
0.0626439
0.0670069
0.0677515
0.0657634
0.0627364
0.0613401
0.0639682
0.0670559
0.0674574
0.064805
0.0615356
0.0587045
0.0599962
0.0622364
0.0635121
0.0910954
0.158515
0.133635
0.149485
0.132376
0.0818463
0.0589787
0.0575811
0.0559822
0.0556727
0.0601971
0.0646936
0.0656956
0.0635544
0.0602187
0.0586306
0.0613816
0.0648147
0.0653663
0.0625084
0.0592548
0.0562556
0.0571332
0.0585839
0.0603271
0.0821328
0.135029
0.150604
0.157198
0.133076
0.07481
0.0568209
0.0547555
0.0536259
0.0536192
0.0579695
0.0624604
0.0634796
0.0611138
0.057609
0.0560551
0.0588434
0.0624832
0.0632639
0.0602792
0.0569994
0.0541834
0.0547195
0.0557869
0.0582225
0.0760513
0.14076
0.157609
0.162248
0.13462
0.0710893
0.0552876
0.0526632
0.0516305
0.0519565
0.0560078
0.0602646
0.0611841
0.0587515
0.0551996
0.0536731
0.0564297
0.0601958
0.0610894
0.0581991
0.0549941
0.0524039
0.052645
0.0537339
0.0567234
0.0729788
0.144562
0.163633
0.168902
0.138967
0.0686997
0.0538175
0.0510214
0.0499463
0.0506147
0.0542968
0.05818
0.0589373
0.0565169
0.052993
0.051483
0.0541406
0.0578739
0.0588805
0.0562751
0.0532245
0.0508338
0.0507821
0.0520535
0.0550954
0.0703362
0.147503
0.172475
0.177715
0.136917
0.0658727
0.0524443
0.0497485
0.0485928
0.0494906
0.0527823
0.0561377
0.0566283
0.05428
0.0509369
0.0495046
0.0521118
0.0557747
0.0568125
0.0545154
0.0516846
0.0494828
0.0492835
0.0508118
0.0538202
0.0681586
0.147321
0.178815
0.183399
0.13752
0.0643161
0.0513887
0.0487737
0.0475468
0.0485082
0.0514185
0.0542848
0.0545485
0.052295
0.049101
0.0477012
0.0501983
0.0537116
0.0548153
0.052901
0.0503375
0.0483445
0.0480942
0.0497303
0.0526435
0.0666364
0.148522
0.186426
0.188496
0.140092
0.0634031
0.0505321
0.0479986
0.0468174
0.0476572
0.0501693
0.0525601
0.0526247
0.0504936
0.047451
0.0460718
0.0484283
0.0517391
0.0528772
0.0513752
0.0491301
0.0473557
0.0471512
0.0487773
0.0516324
0.0650307
0.145292
0.193919
0.195457
0.137884
0.062598
0.0498666
0.0472439
0.0462448
0.0470012
0.0490488
0.050909
0.0507275
0.0487066
0.0458908
0.0445913
0.0468971
0.0500724
0.0512009
0.0499964
0.04805
0.046542
0.0464109
0.0479171
0.0509319
0.0644551
0.145582
0.197866
0.197894
0.134598
0.0621241
0.0494935
0.0466072
0.0456933
0.0463817
0.0480134
0.0494296
0.0490815
0.0471815
0.0445221
0.0432597
0.0454432
0.0484325
0.049563
0.0487097
0.0471085
0.0458801
0.0457432
0.047071
0.0503874
0.0635705
0.140862
0.203555
0.200389
0.134584
0.0621592
0.0494052
0.0460124
0.0451372
0.0457972
0.0470958
0.0481332
0.0476329
0.0458104
0.0432825
0.0420536
0.0441118
0.0469566
0.0481186
0.047547
0.0462623
0.0452581
0.0450837
0.0463324
0.0501022
0.0630694
0.137609
0.206138
0.204516
0.130415
0.061884
0.0495182
0.0455593
0.0446744
0.0452098
0.0462221
0.04686
0.0462205
0.0444933
0.0421277
0.0409719
0.0429643
0.0456804
0.0468212
0.0464829
0.0454896
0.0446345
0.0445202
0.0457773
0.0500834
0.0630251
0.137171
0.207894
0.205703
0.128344
0.0617011
0.0498398
0.0452985
0.0442498
0.0445774
0.0454186
0.0457561
0.045012
0.043351
0.0410979
0.039984
0.041862
0.0444602
0.0456235
0.0454965
0.0447854
0.0440194
0.0440166
0.0453879
0.0501887
0.062901
0.133911
0.210326
0.206826
0.128106
0.061413
0.0502486
0.0453783
0.0438598
0.0439992
0.0446474
0.0447368
0.0439044
0.0423174
0.0401652
0.0390995
0.0408755
0.0433452
0.0445131
0.044571
0.0440722
0.0434443
0.0435914
0.0453224
0.0504982
0.0624849
0.131716
0.211178
0.20902
0.126448
0.0610295
0.0506797
0.0456598
0.0435609
0.0434484
0.0438649
0.0437865
0.0428751
0.0413242
0.0392877
0.0382843
0.0399968
0.0423957
0.0435602
0.0437284
0.0433588
0.0429196
0.0432409
0.0455037
0.0509415
0.0622772
0.131468
0.212218
0.209421
0.126716
0.060846
0.0515796
0.0461745
0.0434044
0.0429818
0.0431374
0.0428849
0.0419484
0.0404628
0.0385134
0.0375512
0.0391648
0.0414622
0.0426279
0.0429029
0.0426925
0.0424587
0.0430115
0.0458767
0.0516062
0.0617663
0.12941
0.213834
0.209475
0.129011
0.0606647
0.0523375
0.0468799
0.0434647
0.0425314
0.042458
0.042069
0.041127
0.0396785
0.0378003
0.0368777
0.0384031
0.0406266
0.0417857
0.042124
0.0420755
0.0420151
0.043012
0.0464763
0.0523581
0.0612888
0.130176
0.214307
0.209969
0.128991
0.0600799
0.0524627
0.0478137
0.0437618
0.0422132
0.0418436
0.0412745
0.0403137
0.0389201
0.0371364
0.03627
0.0377419
0.0398838
0.0410109
0.0414133
0.0415215
0.0416713
0.0431985
0.0473186
0.0527401
0.0609464
0.133922
0.214171
0.209267
0.130845
0.0595421
0.0524408
0.0491068
0.0442529
0.0420524
0.0413184
0.0405938
0.0396119
0.0382516
0.036531
0.0357037
0.0370948
0.0391683
0.0402852
0.0407536
0.0410565
0.0415151
0.0436025
0.0482
0.0526263
0.0605947
0.136553
0.213712
0.208935
0.133206
0.059287
0.0522813
0.05039
0.0450404
0.0420962
0.0409499
0.0399913
0.0389595
0.0376323
0.0359734
0.0351882
0.0365084
0.0384967
0.0396106
0.0401758
0.0407105
0.04158
0.0441999
0.0497565
0.0525444
0.0603809
0.139017
0.212724
0.209231
0.134825
0.0589514
0.0517998
0.0508164
0.0459737
0.042286
0.0407757
0.0395012
0.0383664
0.0370383
0.0354425
0.0347033
0.0359764
0.0379253
0.039036
0.0397165
0.0405355
0.0417591
0.045114
0.0508338
0.0523609
0.0608374
0.140853
0.212067
0.208664
0.136959
0.0588508
0.0512354
0.0507498
0.0475485
0.0427223
0.0407607
0.0391655
0.0378631
0.0365167
0.0349668
0.0342598
0.0354653
0.0373542
0.0384966
0.0393609
0.0405444
0.0421295
0.0462979
0.0508791
0.0517723
0.0604334
0.142233
0.211897
0.208284
0.139214
0.0597303
0.050728
0.0503485
0.0490199
0.0435226
0.0408551
0.0390193
0.0374792
0.0360631
0.0345277
0.0338429
0.0349935
0.0368543
0.0380656
0.0391689
0.0406643
0.0428868
0.0482379
0.0505674
0.05115
0.0606154
0.144743
0.211214
0.208152
0.141175
0.0597004
0.0501857
0.0497003
0.0495069
0.0448379
0.0411474
0.0389544
0.0372203
0.0356753
0.0341315
0.0334718
0.0345913
0.0364589
0.0377837
0.0391112
0.0409629
0.044337
0.049429
0.0500318
0.0507556
0.0619683
0.147238
0.210795
0.20734
0.143013
0.0607244
0.049873
0.0489824
0.0491798
0.0470081
0.0419157
0.0390427
0.0371482
0.035459
0.0338338
0.0331614
0.0342633
0.0361978
0.0376668
0.0391592
0.0416106
0.0464449
0.0492171
0.0493816
0.0503749
0.0628461
0.148991
0.210591
0.206363
0.14492
0.0621028
0.0497854
0.0483964
0.0486824
0.0482388
0.0436481
0.0393191
0.037114
0.0353694
0.0336782
0.0329197
0.0340791
0.0360766
0.0376281
0.0393626
0.043175
0.0479341
0.0487622
0.0487809
0.0502487
0.0639523
0.150132
0.209649
0.204429
0.146006
0.0627274
0.0496771
0.0479222
0.0480908
0.0479218
0.0460314
0.0402043
0.0371695
0.0353337
0.0336215
0.0328027
0.0340156
0.0360491
0.0376917
0.0401795
0.0455674
0.0478542
0.0481364
0.0483355
0.0504709
0.0653713
0.150897
0.207381
0.201154
0.146008
0.0636168
0.0497426
0.0475715
0.0474216
0.0474656
0.0474575
0.0421438
0.0375251
0.0353777
0.0336239
0.0328021
0.0340076
0.0360617
0.0379613
0.0418519
0.047382
0.0474485
0.047414
0.0479096
0.0505206
0.0658337
0.150874
0.204143
0.192522
0.14306
0.064295
0.0498239
0.0473038
0.0468666
0.046878
0.0471326
0.0447243
0.038753
0.0356096
0.0336679
0.0328271
0.0340283
0.0362359
0.0389699
0.0445168
0.0474467
0.04691
0.0467748
0.0475289
0.0504703
0.0660908
0.147927
0.19542
0.240187
0.519285
0.663896
0.691765
0.658911
0.620883
0.60547
0.608281
0.637286
0.689455
0.727609
0.726193
0.661861
0.581336
0.524671
0.495625
0.488219
0.497307
0.512114
0.527711
0.536762
0.533616
0.521709
0.502799
0.478271
0.447287
0.409908
0.358555
0.281186
0.138527
0.239663
0.543943
0.687369
0.697527
0.655051
0.616984
0.605327
0.608336
0.637073
0.685008
0.713038
0.703792
0.632372
0.557553
0.50485
0.482712
0.477439
0.486443
0.499871
0.512476
0.516775
0.511343
0.49826
0.479116
0.455273
0.425885
0.390521
0.341957
0.268031
0.135524
0.258635
0.593788
0.729056
0.716093
0.657559
0.614376
0.602473
0.606061
0.628532
0.660828
0.675242
0.652917
0.586445
0.524111
0.481942
0.464586
0.463763
0.471974
0.483986
0.492885
0.493544
0.486617
0.473341
0.454638
0.431972
0.404446
0.371408
0.32598
0.255437
0.132691
0.274329
0.651503
0.769441
0.734676
0.663747
0.621563
0.609937
0.614159
0.628701
0.644495
0.642475
0.610868
0.551446
0.500279
0.467117
0.453994
0.453817
0.460609
0.469706
0.474988
0.473177
0.464835
0.451197
0.433072
0.411601
0.385883
0.35519
0.312635
0.245142
0.130293
0.284304
0.704044
0.807683
0.757399
0.679677
0.644279
0.634746
0.634048
0.638746
0.638835
0.622625
0.584802
0.532309
0.488695
0.460379
0.448733
0.447718
0.452001
0.457649
0.459314
0.455077
0.445671
0.431954
0.414523
0.394152
0.37009
0.341335
0.301026
0.235881
0.127943
0.293298
0.764292
0.851068
0.788661
0.711497
0.677629
0.665473
0.660505
0.656581
0.645034
0.61761
0.577328
0.528842
0.488566
0.461931
0.448816
0.444897
0.445899
0.447686
0.445732
0.439383
0.429112
0.415455
0.398676
0.379341
0.356595
0.329158
0.290397
0.227249
0.125526
0.303745
0.830284
0.906932
0.836462
0.764554
0.733274
0.718954
0.707135
0.693405
0.672906
0.639351
0.59598
0.546614
0.503911
0.472482
0.453736
0.445047
0.441804
0.439103
0.433811
0.425625
0.414711
0.401167
0.385033
0.366609
0.344848
0.318274
0.280659
0.219073
0.123217
0.31609
0.900452
0.974235
0.903719
0.839004
0.815297
0.804653
0.790327
0.770067
0.740876
0.698465
0.645796
0.587891
0.534434
0.492282
0.46405
0.448322
0.439412
0.431784
0.423537
0.413809
0.402379
0.388978
0.373441
0.355749
0.33469
0.308769
0.272116
0.212224
0.121152
0.329512
0.971444
1.05885
1.00023
0.943368
0.927453
0.921535
0.907727
0.882897
0.843114
0.788493
0.723161
0.650885
0.580398
0.522143
0.480592
0.455088
0.438695
0.426026
0.414956
0.403871
0.391954
0.378651
0.363618
0.346424
0.325864
0.300483
0.264601
0.206047
0.119295
0.343787
1.05221
1.16832
1.12758
1.07955
1.07181
1.07131
1.05872
1.02882
0.979047
0.910907
0.82826
0.735362
0.642054
0.562482
0.503678
0.465362
0.439819
0.422028
0.408131
0.395677
0.383233
0.369954
0.355295
0.338469
0.318306
0.293333
0.257936
0.200409
0.11762
0.359144
1.14635
1.30513
1.29218
1.24974
1.24884
1.25448
1.24345
1.20859
1.14654
1.06037
0.955546
0.836794
0.717613
0.61289
0.532997
0.478805
0.443234
0.419771
0.402877
0.388984
0.375938
0.362594
0.348168
0.331636
0.311731
0.287007
0.251919
0.195155
0.116077
0.375277
1.25609
1.47004
1.48804
1.44702
1.44978
1.45941
1.447
1.40399
1.32744
1.22082
1.09208
0.946748
0.801515
0.670623
0.567341
0.495341
0.448735
0.41907
0.398988
0.383584
0.369881
0.356372
0.342027
0.325671
0.305909
0.281315
0.2465
0.190501
0.114637
0.391929
1.38103
1.6585
1.7044
1.65825
1.65703
1.66375
1.64278
1.58592
1.49172
1.36723
1.21894
1.05343
0.886085
0.731414
0.604946
0.514508
0.456079
0.419796
0.39633
0.379288
0.364916
0.351176
0.336735
0.320346
0.30053
0.275832
0.241196
0.18596
0.113166
0.40835
1.51335
1.85052
1.92105
1.86196
1.84511
1.83968
1.8044
1.73172
1.62228
1.48582
1.32581
1.14862
0.965916
0.792189
0.644764
0.535856
0.465262
0.422013
0.394869
0.376053
0.36103
0.347005
0.332354
0.315698
0.295715
0.271172
0.236623
0.182091
0.112123
0.42412
1.6419
2.03519
2.12594
2.04275
2.00167
1.97963
1.9298
1.84335
1.72338
1.57954
1.41324
1.23021
1.03858
0.851636
0.686512
0.559781
0.476779
0.426063
0.394817
0.374023
0.358272
0.34402
0.328958
0.312105
0.292086
0.267374
0.232636
0.178657
0.111263
0.438314
1.76277
2.20503
2.3094
2.20033
2.1317
2.09386
2.03244
1.93543
1.8081
1.65818
1.4875
1.30158
1.10584
0.910653
0.73179
0.589055
0.491926
0.432735
0.396669
0.373617
0.356773
0.34203
0.326491
0.309195
0.289016
0.26412
0.229172
0.175648
0.110557
0.451877
1.87913
2.35749
2.46631
2.33572
2.24442
2.1931
2.12396
2.02034
1.88749
1.73227
1.5574
1.36967
1.17173
0.971509
0.78195
0.624355
0.512069
0.442252
0.40035
0.374355
0.355746
0.340003
0.324053
0.306542
0.286196
0.261102
0.225982
0.172925
0.109932
0.464913
1.98548
2.48061
2.5916
2.45266
2.34757
2.28838
2.21469
2.10808
1.9709
1.81071
1.63188
1.44136
1.24105
1.03699
0.839381
0.66712
0.537862
0.454832
0.405833
0.375473
0.354915
0.338003
0.321584
0.30397
0.283495
0.258192
0.22296
0.170441
0.109381
0.475192
2.07525
2.57012
2.68025
2.54989
2.44532
2.3855
2.31062
2.20369
2.06373
1.89768
1.71502
1.52106
1.31798
1.11018
0.905728
0.718681
0.569964
0.470685
0.412147
0.376907
0.354052
0.336109
0.319255
0.301598
0.280978
0.255478
0.220215
0.168162
0.108936
0.484947
2.14418
2.61824
2.72835
2.6265
2.53862
2.48607
2.41522
2.30923
2.16807
1.99545
1.80901
1.61141
1.40504
1.19324
0.981866
0.779138
0.608509
0.489686
0.419409
0.379393
0.353982
0.334905
0.317534
0.299697
0.278872
0.253217
0.217925
0.166145
0.108641
0.498168
2.18277
2.61738
2.73105
2.68084
2.62763
2.58984
2.52741
2.42558
2.28425
2.10701
1.91604
1.71401
1.50277
1.28574
1.06476
0.846674
0.655771
0.515537
0.430749
0.384225
0.355341
0.334641
0.316602
0.298487
0.277427
0.251581
0.216021
0.164379
0.108479
0.507457
2.18327
2.56566
2.69106
2.71209
2.71016
2.69582
2.64745
2.55354
2.4138
2.23386
2.03766
1.82946
1.61127
1.38642
1.15395
0.924156
0.714563
0.551533
0.4479
0.391656
0.358226
0.335321
0.316528
0.297855
0.276353
0.250218
0.214237
0.162671
0.108344
0.520182
2.11039
2.44141
2.60929
2.71991
2.78453
2.8033
2.77501
2.69313
2.55483
2.37374
2.17135
1.95471
1.72805
1.49221
1.25126
1.01205
0.786272
0.599331
0.472274
0.401736
0.362286
0.337024
0.317151
0.297708
0.275578
0.248997
0.212483
0.161079
0.108281
0.524599
1.96452
2.24582
2.5007
2.71161
2.85023
2.91031
2.90652
2.83926
2.70529
2.52302
2.31161
2.08373
1.848
1.60356
1.35685
1.10986
0.870499
0.66019
0.506155
0.416083
0.367907
0.33905
0.31769
0.297351
0.274579
0.247469
0.210574
0.159781
0.108252
0.517107
1.62306
1.95522
2.36863
2.68923
2.90358
3.01233
3.03912
2.99098
2.86521
2.68068
2.45882
2.21996
1.97588
1.72486
1.47167
1.2172
0.965987
0.734467
0.551737
0.436535
0.375858
0.341689
0.318073
0.29644
0.272937
0.245534
0.208792
0.158816
0.108296
0.138593
0.281561
0.359343
0.411058
0.448391
0.478899
0.503586
0.522703
0.535156
0.538259
0.529997
0.512538
0.496923
0.488232
0.496975
0.529156
0.589012
0.672524
0.734679
0.738262
0.697794
0.645409
0.618008
0.616079
0.634233
0.676148
0.709041
0.677786
0.526203
0.24583
0.135553
0.268281
0.3426
0.391479
0.426754
0.455678
0.47959
0.498894
0.51243
0.518044
0.514198
0.501542
0.486843
0.477979
0.483678
0.508895
0.564018
0.641668
0.710458
0.721607
0.692105
0.645081
0.618454
0.616559
0.631554
0.672739
0.715475
0.702699
0.553085
0.244345
0.132702
0.255573
0.326448
0.372137
0.405095
0.432341
0.454942
0.473795
0.487422
0.494481
0.494018
0.486021
0.472514
0.46524
0.466706
0.4857
0.531046
0.596804
0.66188
0.683831
0.670135
0.638953
0.618482
0.615815
0.629666
0.675935
0.735621
0.748728
0.609521
0.264032
0.130273
0.245152
0.31296
0.355779
0.38641
0.412041
0.433349
0.451466
0.465388
0.473847
0.476049
0.471554
0.461805
0.45506
0.45696
0.471857
0.508228
0.562784
0.621821
0.653338
0.65654
0.64314
0.631217
0.627488
0.639471
0.684336
0.758124
0.794501
0.672334
0.280357
0.127855
0.23566
0.30111
0.341788
0.3705
0.394474
0.414639
0.431956
0.445875
0.455389
0.46001
0.459262
0.453706
0.449199
0.452261
0.466734
0.497663
0.545221
0.598624
0.63704
0.654275
0.655685
0.652496
0.653546
0.665599
0.703408
0.78504
0.836598
0.727835
0.290535
0.125424
0.226744
0.290262
0.329451
0.356876
0.3795
0.398592
0.415218
0.429046
0.439435
0.446149
0.448941
0.447934
0.447085
0.453237
0.469888
0.499958
0.543895
0.594364
0.636138
0.66447
0.67724
0.682825
0.689339
0.702787
0.73886
0.820912
0.883711
0.790511
0.29989
0.123035
0.218314
0.280309
0.318358
0.344988
0.366726
0.384893
0.400868
0.414489
0.425554
0.434022
0.440057
0.444091
0.448266
0.459768
0.482915
0.518688
0.566058
0.619028
0.665137
0.700432
0.722497
0.737378
0.749963
0.764636
0.797266
0.873329
0.944396
0.859263
0.310775
0.120936
0.211226
0.271563
0.308719
0.334774
0.355882
0.373366
0.388776
0.402154
0.413728
0.423708
0.43277
0.441911
0.452881
0.472404
0.506117
0.554759
0.614107
0.676777
0.732958
0.778116
0.809407
0.83026
0.844094
0.854198
0.878977
0.94712
1.01673
0.932053
0.322819
0.119054
0.204957
0.26394
0.300352
0.325964
0.346613
0.363663
0.378608
0.391833
0.403847
0.415237
0.427205
0.441461
0.461057
0.491751
0.54057
0.607393
0.68521
0.762869
0.832122
0.889664
0.9315
0.956832
0.969645
0.974924
0.992284
1.05253
1.10795
1.00739
0.336421
0.117365
0.199415
0.257289
0.293178
0.318482
0.338772
0.355537
0.370135
0.383342
0.395806
0.408593
0.42349
0.443296
0.472605
0.517759
0.586051
0.676193
0.778422
0.878056
0.96515
1.03678
1.08838
1.11836
1.12957
1.12907
1.1385
1.1904
1.22395
1.0922
0.351275
0.115826
0.194279
0.251341
0.286876
0.311992
0.332098
0.348643
0.363046
0.376358
0.389342
0.403595
0.421629
0.447445
0.487399
0.549764
0.640726
0.757839
0.887279
1.0142
1.12412
1.2141
1.27786
1.31291
1.3227
1.31612
1.31945
1.36639
1.36797
1.19082
0.366934
0.1144
0.189709
0.245967
0.281208
0.306222
0.326295
0.342723
0.357081
0.370592
0.38421
0.400058
0.421463
0.453767
0.505302
0.586034
0.700959
0.84442
1.00095
1.1552
1.28975
1.40058
1.47956
1.52349
1.53539
1.52566
1.52702
1.57269
1.5399
1.30595
0.383667
0.11292
0.185198
0.240614
0.275597
0.300657
0.321031
0.337536
0.352026
0.365813
0.380209
0.3978
0.42278
0.46191
0.525551
0.624662
0.762259
0.928409
1.10614
1.27998
1.43459
1.56369
1.66162
1.72092
1.74315
1.73823
1.74625
1.79738
1.73364
1.43547
0.400425
0.111828
0.181204
0.236046
0.27108
0.295968
0.316215
0.333119
0.347883
0.361971
0.377271
0.396793
0.425577
0.471847
0.547695
0.664132
0.821091
1.00411
1.19506
1.37932
1.54563
1.68751
1.80188
1.87899
1.91788
1.9278
1.95465
2.01981
1.92808
1.57054
0.416922
0.110929
0.177667
0.232063
0.267359
0.292382
0.312676
0.329647
0.344773
0.359181
0.375411
0.397182
0.430188
0.483953
0.572256
0.704539
0.876523
1.07025
1.26803
1.45695
1.62959
1.77988
1.9059
1.99842
2.05402
2.08347
2.13827
2.22803
2.11326
1.70087
0.432723
0.110201
0.174559
0.228572
0.264181
0.289464
0.309886
0.32725
0.342796
0.357862
0.375152
0.399359
0.437114
0.499209
0.600566
0.747885
0.931124
1.13043
1.33055
1.52157
1.69857
1.85585
1.99039
2.09483
2.16399
2.21199
2.29744
2.41314
2.28379
1.82319
0.44678
0.109578
0.171809
0.225369
0.261226
0.286856
0.307584
0.325461
0.341546
0.35753
0.37628
0.403386
0.446777
0.518686
0.634007
0.795408
0.987288
1.18963
1.39059
1.58293
1.76417
1.92766
2.06884
2.18098
2.25946
2.32319
2.43398
2.57038
2.43677
1.94133
0.460145
0.109033
0.169347
0.222379
0.258428
0.2844
0.305365
0.323485
0.340155
0.357251
0.378522
0.40937
0.459591
0.543602
0.674449
0.848993
1.04779
1.25291
1.45547
1.6502
1.83559
2.00451
2.15107
2.26731
2.35173
2.42486
2.55047
2.69451
2.55953
2.04759
0.472968
0.108609
0.167252
0.219702
0.255844
0.282024
0.303121
0.321287
0.338427
0.356778
0.380623
0.416791
0.476149
0.575274
0.723833
0.911709
1.1165
1.32467
1.52961
1.72757
1.91676
2.09192
2.24224
2.35995
2.44664
2.52155
2.64623
2.78085
2.64898
2.13681
0.482895
0.108341
0.165441
0.217471
0.253666
0.279898
0.301194
0.319498
0.337103
0.356514
0.382634
0.423933
0.494837
0.613184
0.782788
0.984677
1.19545
1.4071
1.61503
1.81637
2.00943
2.19134
2.34419
2.46208
2.54572
2.61421
2.72097
2.82656
2.69682
2.20435
0.492363
0.108212
0.163849
0.215703
0.252074
0.278403
0.299999
0.318629
0.336947
0.357739
0.386778
0.433923
0.51807
0.657502
0.847319
1.06355
1.28313
1.49971
1.71227
1.91808
2.11595
2.30311
2.45758
2.57259
2.64903
2.7032
2.77353
2.82715
2.69593
2.24108
0.505868
0.108146
0.162349
0.214215
0.250901
0.277487
0.2995
0.318708
0.337902
0.360808
0.393896
0.44969
0.551192
0.712346
0.919952
1.1474
1.37789
1.60215
1.82192
2.03447
2.23832
2.42926
2.58391
2.69235
2.75562
2.7864
2.80397
2.7857
2.643
2.2374
0.514547
0.108175
0.161104
0.212875
0.24997
0.276961
0.299386
0.319228
0.339711
0.364981
0.403772
0.472775
0.596532
0.780265
1.00288
1.23933
1.47811
1.71319
1.94197
2.16372
2.37469
2.56803
2.7234
2.82132
2.8651
2.86188
2.81152
2.70297
2.51815
2.16398
0.526672
0.108224
0.16013
0.21153
0.248916
0.276423
0.299393
0.319991
0.341739
0.370541
0.417644
0.505063
0.654858
0.860829
1.09658
1.34071
1.58543
1.82943
2.06778
2.30162
2.52289
2.71887
2.86898
2.95562
2.9751
2.92936
2.80357
2.59318
2.32112
2.01591
0.530507
0.108336
0.159463
0.210251
0.247621
0.275523
0.299177
0.320814
0.344695
0.378572
0.437451
0.548161
0.725948
0.952713
1.20011
1.45168
1.70312
1.95456
2.20198
2.44739
2.68039
2.88041
3.02379
3.09205
3.08083
2.98457
2.78154
2.45867
2.02523
1.66815
0.523322
0.294639
0.284507
0.272068
0.261135
0.250311
0.242303
0.236375
0.23374
0.229978
0.229055
0.231927
0.238789
0.25
0.265796
0.285506
0.307275
0.329228
0.350245
0.369747
0.387234
0.402531
0.41566
0.426902
0.436397
0.444289
0.451556
0.457871
0.463026
0.467381
0.471071
0.473965
0.476153
0.477675
0.478524
0.47868
0.478108
0.476788
0.474653
0.471691
0.467859
0.463117
0.457426
0.450734
0.442992
0.434171
0.424245
0.413284
0.401375
0.388606
0.375081
0.360881
0.346111
0.330929
0.315471
0.29988
0.284303
0.26886
0.253649
0.238775
0.224299
0.210283
0.196794
0.184039
0.172891
0.163072
0.154308
0.146455
0.139503
0.133476
0.128374
0.123783
0.119526
0.115674
0.112258
0.109285
0.106743
0.104601
0.102817
0.101344
0.100133
0.0991451
0.098358
0.097757
0.0973232
0.0970336
0.0968608
0.0967844
0.0967966
0.0968931
0.0970581
0.097281
0.097557
0.0978874
0.0982962
0.0987856
0.0993558
0.100006
0.100691
0.101409
0.102154
0.102963
0.103688
0.104591
0.105329
0.106055
0.106756
0.107378
0.107951
0.108492
0.108958
0.109449
0.109646
0.109919
0.1101
0.110146
0.110136
0.110129
0.109989
0.109738
0.109362
0.108906
0.108604
0.108402
0.108431
0.108492
2.9594
2.93639
2.85476
2.7608
2.65306
2.55132
2.46709
2.41452
2.3965
2.40208
2.46432
2.58805
2.76834
2.99452
3.2499
3.51034
3.75551
3.97374
4.16086
4.31706
4.44409
4.54649
4.62888
4.69498
4.74873
4.79427
4.8236
4.83864
4.84741
4.85038
4.84662
4.83879
4.82694
4.81095
4.7904
4.76506
4.73454
4.69842
4.65682
4.60946
4.55601
4.49593
4.429
4.35493
4.27373
4.18499
4.08984
3.98875
3.88208
3.77067
3.65517
3.53664
3.41603
3.29409
3.17039
3.04452
2.91559
2.78313
2.64674
2.5053
2.35835
2.20603
2.04737
1.87822
1.7025
1.52687
1.35733
1.19877
1.05487
0.927196
0.81517
0.718122
0.635156
0.56508
0.506352
0.457349
0.416629
0.382818
0.354639
0.330998
0.310979
0.293833
0.279011
0.26614
0.254909
0.245054
0.236427
0.228664
0.221433
0.214786
0.208769
0.203321
0.198454
0.194187
0.190472
0.187308
0.184739
0.182771
0.181299
0.180168
0.179185
0.178192
0.177321
0.1763
0.17525
0.174196
0.172899
0.171797
0.170427
0.168767
0.167172
0.166164
0.165959
0.164911
0.163493
0.161911
0.161204
0.161007
0.160873
0.160261
0.159327
0.158432
0.158145
0.15846
0.159003
4.92615
4.90017
4.81969
4.72084
4.60973
4.5126
4.44632
4.42727
4.46749
4.54659
4.68034
4.88365
5.14765
5.45806
5.79788
6.14613
6.48357
6.79624
7.0759
7.31872
7.52436
7.69523
7.83477
7.94662
8.03484
8.10342
8.15282
8.18339
8.20104
8.2077
8.20492
8.19388
8.17593
8.15115
8.1194
8.08036
8.03349
7.97821
7.91406
7.8408
7.75772
7.66429
7.56012
7.44493
7.31867
7.18159
7.03465
6.87856
6.71418
6.54269
6.36524
6.18313
5.99766
5.80978
5.62006
5.42894
5.23667
5.04319
4.84779
4.64988
4.44941
4.24582
4.03854
3.827
3.61155
3.3929
3.17117
2.94571
2.71496
2.4786
2.24144
2.00997
1.78932
1.58427
1.39804
1.23224
1.08701
0.961453
0.854093
0.763212
0.686921
0.623164
0.569761
0.52469
0.486393
0.453561
0.424998
0.399985
0.378139
0.358994
0.342186
0.327406
0.314429
0.303014
0.293042
0.284324
0.27677
0.270249
0.264667
0.25984
0.255495
0.251475
0.247579
0.243844
0.240373
0.237015
0.233645
0.230519
0.227284
0.224142
0.221199
0.219141
0.218825
0.218532
0.217364
0.215152
0.213543
0.212593
0.212192
0.211384
0.209966
0.208842
0.208305
0.208689
0.209451
6.79288
6.78656
6.74388
6.68554
6.62411
6.58279
6.57796
6.62262
6.7271
6.88408
7.08508
7.342
7.64647
7.98449
8.33981
8.69457
9.03386
9.34686
9.6271
9.87125
10.0784
10.2497
10.3878
10.4966
10.5805
10.6435
10.6875
10.7154
10.7305
10.7355
10.7318
10.7198
10.701
10.6754
10.6426
10.602
10.553
10.4949
10.4267
10.3492
10.2614
10.1637
10.0552
9.93512
9.80342
9.66047
9.50695
9.34425
9.17383
8.99755
8.81658
8.63207
8.44499
8.25597
8.06535
7.87334
7.67991
7.4847
7.28685
7.0853
6.87893
6.6664
6.44628
6.21723
5.97821
5.72852
5.46774
5.19608
4.91355
4.62514
4.33356
4.04035
3.74793
3.45942
3.17725
2.90415
2.64218
2.39476
2.16391
1.95093
1.7564
1.58003
1.42152
1.28055
1.15604
1.04666
0.950739
0.866374
0.792123
0.726745
0.669101