/*--------------------------------*- C++ -*----------------------------------*\
| =========                 |                                                 |
| \\      /  F ield         | OpenFOAM: The Open Source CFD Toolbox           |
|  \\    /   O peration     | Version:  2112                                  |
|   \\  /    A nd           | Website:  www.openfoam.com                      |
|    \\/     M anipulation  |                                                 |
\*---------------------------------------------------------------------------*/
FoamFile
{
    version     2.0;
    format      ascii;
    arch        "LSB;label=32;scalar=64";
    class       volScalarField;
    location    "0.00508";
    object      p;
}
// * * * * * * * * * * * * * * * * * * * * * * * * * * * * * * * * * * * * * //

dimensions      [1 -1 -2 0 0 0 0];

internalField   nonuniform List<scalar> 
13875
(
951600
984288
973586
975947
973614
974543
974910
974839
975205
975241
975029
975026
974712
974806
974803
974620
974778
974917
974825
974681
973294
975706
972385
982450
945004
733810
659542
672131
677222
669262
669679
676988
678782
678954
679080
678896
678488
670222
669157
670237
677912
679425
679495
678027
673463
670347
677083
672265
657293
730701
736902
635569
664374
653799
649370
648068
647967
648235
647738
646580
648105
648867
645495
645379
645407
649015
649847
649698
647823
648004
649094
652721
662215
632238
733484
743551
636216
665261
653961
649684
648272
647246
645400
644082
643446
643460
644509
645542
645497
645453
645028
644883
645895
646526
648140
649370
652851
662977
632848
739262
757395
639230
667823
654676
650560
648828
647364
645475
644139
643525
643487
644548
645699
645809
645616
645061
644906
645947
646644
648552
650145
653450
665291
635504
750636
759100
647900
673603
656657
652380
649963
647757
645739
644352
643780
643628
644697
646021
646439
645955
645216
645045
646160
647056
649355
651802
655324
670912
643269
752037
765153
668433
685853
661582
656044
652038
648714
646389
644910
644358
644096
645142
646682
647131
646600
645650
645541
646790
648201
651161
655432
660922
682478
666052
756276
791416
718505
711811
674935
663817
656467
651057
648010
646285
645643
645243
646127
647960
648513
647922
646722
646783
648224
650665
654993
662851
673730
707541
715783
782530
909020
828136
766736
704594
679350
665206
656048
651526
649295
648371
647799
648346
650529
651286
650612
649191
649589
651433
655696
663161
677707
701540
760818
824128
911108
1.52496e+06
1.02972e+06
833938
739787
698042
675949
663442
657646
655043
653776
653107
653211
655654
656710
656061
654607
655270
657491
663482
674827
696895
737443
830228
1.02726e+06
1.52174e+06
2.90744e+06
1.39243e+06
957967
797399
727364
693647
677309
669747
666347
664536
663599
663190
665530
667024
666718
665754
666629
669400
676931
692754
724798
790467
941632
1.35312e+06
2.86949e+06
5.60824e+06
2.34046e+06
1.29068e+06
940973
794191
733513
707469
695586
689984
687068
685416
684605
686264
688169
688725
689129
690826
695516
707130
733382
792376
930820
1.25696e+06
2.27648e+06
5.58536e+06
5.39332e+06
4.8173e+06
2.32822e+06
1.41715e+06
993718
843311
782361
757339
745576
739744
736673
735411
735780
737792
739838
742812
747940
758991
784371
849206
1.0027e+06
1.39947e+06
2.21268e+06
4.87782e+06
5.35111e+06
4.8457e+06
4.63661e+06
4.71986e+06
4.06524e+06
1.67552e+06
1.18131e+06
1.00013e+06
931027
899897
884588
877355
874240
873233
875321
879739
888657
906235
940700
1.01907e+06
1.24203e+06
1.85876e+06
4.13812e+06
4.72195e+06
4.71219e+06
4.76784e+06
4.01144e+06
4.1256e+06
4.53137e+06
4.38368e+06
4.11174e+06
2.71504e+06
1.81468e+06
1.54433e+06
1.44204e+06
1.39139e+06
1.37206e+06
1.36519e+06
1.3631e+06
1.36539e+06
1.37288e+06
1.39309e+06
1.44442e+06
1.55567e+06
1.83985e+06
2.8708e+06
4.17372e+06
4.35873e+06
4.564e+06
4.28666e+06
4.26207e+06
3.55431e+06
3.52737e+06
3.99264e+06
4.22773e+06
4.60232e+06
4.71199e+06
4.10595e+06
3.56073e+06
3.45831e+06
3.28019e+06
3.21524e+06
3.17283e+06
3.16094e+06
3.16738e+06
3.19533e+06
3.27806e+06
3.42485e+06
3.58365e+06
4.14629e+06
4.74768e+06
4.52995e+06
4.22575e+06
4.12678e+06
3.65847e+06
3.78608e+06
2.60463e+06
2.75041e+06
3.20849e+06
3.79121e+06
4.70688e+06
5.69152e+06
7.74117e+06
8.95832e+06
9.49586e+06
9.63129e+06
9.80098e+06
9.82833e+06
9.85266e+06
9.82794e+06
9.77719e+06
9.64135e+06
9.44523e+06
8.98151e+06
7.92891e+06
5.80896e+06
4.75977e+06
3.79375e+06
3.26982e+06
2.88935e+06
2.7705e+06
1.59004e+06
1.91972e+06
2.59373e+06
3.72759e+06
4.91367e+06
6.31488e+06
7.59151e+06
7.98793e+06
7.76534e+06
7.67592e+06
7.50627e+06
7.39971e+06
7.37191e+06
7.3947e+06
7.51304e+06
7.71343e+06
7.88265e+06
8.05477e+06
7.64643e+06
6.30076e+06
4.97862e+06
3.72947e+06
2.44776e+06
1.7946e+06
1.48216e+06
697890
1.08948e+06
1.98181e+06
3.69353e+06
4.88126e+06
5.74694e+06
6.0619e+06
5.97081e+06
5.87384e+06
5.89668e+06
5.94438e+06
5.98963e+06
6.00693e+06
5.9895e+06
5.94532e+06
5.91307e+06
5.90248e+06
6.02234e+06
6.14321e+06
5.86156e+06
4.98346e+06
3.71408e+06
2.04291e+06
1.11235e+06
703523
324192
611822
1.38364e+06
3.17375e+06
4.1412e+06
4.4018e+06
4.55038e+06
4.74033e+06
4.92373e+06
5.1069e+06
5.25408e+06
5.33274e+06
5.35618e+06
5.32868e+06
5.24825e+06
5.10276e+06
4.92081e+06
4.7467e+06
4.59889e+06
4.49875e+06
4.17619e+06
3.17473e+06
1.39721e+06
617703
327241
523369
730392
1.22725e+06
2.35345e+06
3.01756e+06
3.33062e+06
3.57835e+06
3.89451e+06
4.22387e+06
4.49048e+06
4.65719e+06
4.74447e+06
4.77099e+06
4.73746e+06
4.64573e+06
4.48098e+06
4.20424e+06
3.85879e+06
3.54575e+06
3.32774e+06
2.99711e+06
2.26324e+06
1.18217e+06
717484
553788
1.23591e+06
998823
1.19711e+06
1.61966e+06
2.23302e+06
2.55915e+06
2.92409e+06
3.30776e+06
3.65278e+06
3.91191e+06
4.06895e+06
4.15318e+06
4.18054e+06
4.1424e+06
4.04888e+06
3.89374e+06
3.6293e+06
3.26523e+06
2.85978e+06
2.50421e+06
2.20123e+06
1.57519e+06
1.17895e+06
992933
1.26573e+06
1.38676e+06
1.17233e+06
1.16158e+06
1.28332e+06
1.72964e+06
2.02429e+06
2.46729e+06
2.84844e+06
3.15954e+06
3.38563e+06
3.52369e+06
3.60239e+06
3.63053e+06
3.59037e+06
3.50074e+06
3.35993e+06
3.13185e+06
2.81158e+06
2.41656e+06
1.96418e+06
1.69373e+06
1.2741e+06
1.17326e+06
1.20768e+06
1.35835e+06
1.46585e+06
1.24327e+06
1.15776e+06
1.15622e+06
1.45362e+06
1.71055e+06
2.10527e+06
2.44753e+06
2.72642e+06
2.91396e+06
3.03564e+06
3.10917e+06
3.13715e+06
3.09845e+06
3.01365e+06
2.8872e+06
2.69211e+06
2.40466e+06
2.06209e+06
1.66043e+06
1.42003e+06
1.14622e+06
1.15252e+06
1.24509e+06
1.43618e+06
1.54264e+06
1.30245e+06
1.15957e+06
1.12788e+06
1.29382e+06
1.49618e+06
1.82082e+06
2.10078e+06
2.3439e+06
2.51437e+06
2.62109e+06
2.6885e+06
2.70897e+06
2.6811e+06
2.60032e+06
2.48871e+06
2.31926e+06
2.06614e+06
1.78909e+06
1.46155e+06
1.26299e+06
1.11801e+06
1.15187e+06
1.31459e+06
1.54018e+06
1.64066e+06
1.40713e+06
1.17125e+06
1.12847e+06
1.19752e+06
1.35182e+06
1.59405e+06
1.82165e+06
2.02676e+06
2.17262e+06
2.26881e+06
2.32237e+06
2.34184e+06
2.31549e+06
2.25171e+06
2.14496e+06
2.0006e+06
1.78988e+06
1.57035e+06
1.32945e+06
1.17957e+06
1.11877e+06
1.15909e+06
1.36201e+06
1.58255e+06
1.67706e+06
1.46685e+06
1.1844e+06
1.12861e+06
1.13529e+06
1.24194e+06
1.41637e+06
1.59532e+06
1.76619e+06
1.88812e+06
1.97394e+06
2.02021e+06
2.03302e+06
2.01206e+06
1.95642e+06
1.86328e+06
1.742e+06
1.56659e+06
1.3926e+06
1.22162e+06
1.11623e+06
1.11682e+06
1.17512e+06
1.42199e+06
1.60194e+06
1.69171e+06
1.53677e+06
1.2111e+06
1.12624e+06
1.10221e+06
1.14841e+06
1.26691e+06
1.4086e+06
1.54544e+06
1.6438e+06
1.72285e+06
1.76023e+06
1.77384e+06
1.75399e+06
1.71044e+06
1.6257e+06
1.52726e+06
1.38846e+06
1.25001e+06
1.13429e+06
1.09136e+06
1.11221e+06
1.19544e+06
1.48573e+06
1.64277e+06
1.72515e+06
1.61239e+06
1.25044e+06
1.11724e+06
1.07581e+06
1.08082e+06
1.15383e+06
1.25869e+06
1.36717e+06
1.44846e+06
1.51249e+06
1.54678e+06
1.55717e+06
1.54152e+06
1.50305e+06
1.43286e+06
1.34972e+06
1.23997e+06
1.13763e+06
1.06619e+06
1.06386e+06
1.09658e+06
1.2154e+06
1.5399e+06
1.67966e+06
1.79256e+06
1.68009e+06
1.28038e+06
1.10396e+06
1.04035e+06
1.03225e+06
1.06382e+06
1.13526e+06
1.21553e+06
1.2789e+06
1.33548e+06
1.36241e+06
1.37382e+06
1.35549e+06
1.32649e+06
1.26575e+06
1.20101e+06
1.11945e+06
1.04967e+06
1.01605e+06
1.02516e+06
1.08434e+06
1.25325e+06
1.65805e+06
1.73066e+06
1.80034e+06
1.70759e+06
1.31537e+06
1.09588e+06
1.00443e+06
982428
988202
1.03408e+06
1.0909e+06
1.142e+06
1.18485e+06
1.20856e+06
1.21673e+06
1.20507e+06
1.17865e+06
1.1328e+06
1.08149e+06
1.02431e+06
978593
970723
991990
1.07828e+06
1.28498e+06
1.70883e+06
1.78942e+06
1.79887e+06
1.71362e+06
1.37932e+06
1.09737e+06
975706
933445
925187
951741
988022
1.02265e+06
1.0572e+06
1.0741e+06
1.08267e+06
1.0724e+06
1.0531e+06
1.01492e+06
978483
942658
915069
922341
962928
1.0799e+06
1.33622e+06
1.72157e+06
1.79598e+06
1.79514e+06
1.70806e+06
1.45002e+06
1.10078e+06
945813
886901
872273
879863
903456
928303
950339
964060
969153
962116
946024
921784
896233
873181
862916
878634
936106
1.08658e+06
1.42082e+06
1.72076e+06
1.79496e+06
1.78884e+06
1.70083e+06
1.55098e+06
1.11525e+06
926645
848357
820783
817106
827837
843918
859574
867581
872528
866407
856916
839774
822591
812515
815258
842924
918748
1.09746e+06
1.51928e+06
1.70727e+06
1.79092e+06
1.77768e+06
1.68621e+06
1.57007e+06
1.14512e+06
925061
816810
775986
766549
766413
775846
784561
790037
792088
788947
782445
772641
762560
762076
769785
809097
918807
1.12315e+06
1.59089e+06
1.68152e+06
1.78304e+06
1.76003e+06
1.65911e+06
1.56618e+06
1.17658e+06
927333
792619
736207
718360
714420
715143
719242
721829
723776
720386
717353
712590
710461
714674
731427
786487
923675
1.17286e+06
1.59037e+06
1.63162e+06
1.76711e+06
1.72613e+06
1.60633e+06
1.56041e+06
1.24295e+06
938689
776472
703382
676950
667851
666033
665547
666227
666510
665287
664436
664818
666609
674912
699531
771617
931452
1.24613e+06
1.57557e+06
1.58977e+06
1.73206e+06
1.6859e+06
1.5625e+06
1.54648e+06
1.37689e+06
965665
776842
680594
641871
626290
619464
617390
616433
616968
615923
616751
618542
624302
639649
677925
772497
953941
1.39532e+06
1.54833e+06
1.54506e+06
1.68127e+06
1.65447e+06
1.52536e+06
1.51057e+06
1.37592e+06
998129
780086
664171
612926
591346
582407
577294
575629
575169
575232
576481
582083
590515
610550
659760
780780
1.0017e+06
1.39589e+06
1.49438e+06
1.51143e+06
1.63119e+06
1.61572e+06
1.49397e+06
1.43946e+06
1.37091e+06
1.06732e+06
794075
664385
590932
560068
545699
540179
537485
537413
537378
539904
545044
558296
588784
656990
792739
1.0769e+06
1.38079e+06
1.40802e+06
1.48284e+06
1.59881e+06
1.56805e+06
1.45842e+06
1.36545e+06
1.3555e+06
1.20685e+06
824009
667853
577793
536303
519304
509602
506353
505076
505947
508870
518712
535028
574924
659921
820064
1.22983e+06
1.35025e+06
1.33739e+06
1.45753e+06
1.55436e+06
1.53207e+06
1.42862e+06
1.30552e+06
1.31724e+06
1.20582e+06
867098
673490
577853
519055
491821
481425
476738
475722
475658
480663
490744
516437
575109
672392
878571
1.22888e+06
1.28987e+06
1.28522e+06
1.42616e+06
1.50454e+06
1.48125e+06
1.40114e+06
1.25933e+06
1.24174e+06
1.1973e+06
958060
692022
580949
511223
476522
458850
452809
450404
451896
457627
476194
508509
577103
692296
981032
1.21118e+06
1.2251e+06
1.2451e+06
1.39229e+06
1.46599e+06
1.4288e+06
1.36802e+06
1.22701e+06
1.17479e+06
1.17385e+06
1.05389e+06
729537
589814
511699
461744
439313
429774
427727
429093
438436
459663
508777
584281
731366
1.05106e+06
1.17247e+06
1.16255e+06
1.2182e+06
1.35991e+06
1.42115e+06
1.39064e+06
1.33125e+06
1.20156e+06
1.12282e+06
1.12138e+06
1.04942e+06
794141
604873
513474
461372
428530
413716
409262
412907
426956
459666
512356
603708
814045
1.04584e+06
1.09561e+06
1.11308e+06
1.19694e+06
1.31727e+06
1.37327e+06
1.35044e+06
1.29539e+06
1.18291e+06
1.07995e+06
1.05498e+06
1.03547e+06
929002
637652
521422
462409
426145
402459
396442
401428
422312
460545
520559
636980
932231
1.02462e+06
1.02791e+06
1.07196e+06
1.17814e+06
1.27924e+06
1.34179e+06
1.30604e+06
1.25036e+06
1.16276e+06
1.05454e+06
1.00358e+06
1.00276e+06
928558
704500
540569
466551
426650
400367
389952
399894
422696
463849
540816
703922
928828
979323
978891
1.04836e+06
1.15761e+06
1.24159e+06
1.30284e+06
1.26487e+06
1.21412e+06
1.14299e+06
1.03493e+06
962666
942106
917631
832002
576617
476101
428113
400694
390364
400331
425487
474835
587293
841313
918031
926536
943552
1.0291e+06
1.1349e+06
1.20425e+06
1.25599e+06
1.18243e+06
1.16065e+06
1.11323e+06
1.02036e+06
935280
891766
892304
831146
652917
498843
434307
402586
392150
402020
432620
497875
678463
839556
891503
887053
922459
1.01493e+06
1.10392e+06
1.15132e+06
1.17332e+06
1.04952e+06
1.08839e+06
1.06967e+06
997286
916511
852270
843653
822789
759364
549020
451314
408266
396958
407431
450415
547988
760079
828433
845613
851673
906733
988348
1.0588e+06
1.08074e+06
1.04325e+06
152235
179941
188370
199920
217074
225224
220863
211684
187626
174284
166605
157535
149934
143635
137071
130313
124972
120970
117490
113861
110961
109242
106195
101592
97352.5
94257.7
92037.1
90446.1
89702.3
89123.5
164190
184605
190233
200600
214003
219337
216178
209713
195982
174839
162145
153584
146209
140185
133925
127076
121645
117671
114370
110878
108025
106500
104430
99894.2
95465.6
92209.4
89951.2
88260.1
87441.4
86872.7
169725
187449
191335
201369
211740
215621
213711
208896
198438
174058
156790
148425
142670
136901
130897
124009
118389
114478
111328
108021
105341
103866
102565
98156.8
93568.2
90160.2
87871.9
86115.5
85311.6
84688.9
171293
188338
191337
201743
208475
211738
212270
208794
199712
174465
155012
143190
137609
132684
127145
120594
114806
111070
108127
105059
102544
101211
100482
96394.3
91679.3
88086
85643.4
83754.2
82773.3
82122.6
171313
188464
191204
201678
207141
210276
210717
208185
200018
175848
154970
141252
132294
128396
123087
117133
111188
107592
104894
102108
99766.3
98715.4
98328.7
94722.6
89949.9
86141.4
83268.9
81110.8
79985.6
78975.4
171317
188510
191098
201756
205971
209084
207799
205910
199691
183048
155093
140948
130176
124878
118529
113396
107436
103767
101267
98771.7
96707.8
95828.7
95466.9
92221.5
87403.5
83409.9
80373.5
77687.6
76101.8
74784.9
171990
188419
191234
202367
204803
206413
205083
202062
197489
185134
156289
141120
129596
122411
115967
109268
103800
99629.2
97055.9
94508.3
92422.8
91403.6
90848.5
88092.9
83521
79736.3
76639.5
74055.4
72683.4
71710.2
174151
188556
192476
202518
203641
203969
202814
199636
194322
185597
160180
142755
129586
120876
114898
107054
100588
95673.1
92784.5
89902.9
87625.7
86439.9
85600.5
83488.8
79578.5
76272.9
73695.9
71769.6
70657.5
69867.7
177471
188696
194510
202524
202432
201922
200090
196287
191454
185250
171564
145960
130055
119918
114547
106321
97676.5
92378.8
88887.6
85772.6
83662.1
82550.8
81785.1
80330.5
76976.6
73990
71659.4
69932.8
68951.7
68201.1
181065
189698
195607
202153
202047
199876
195829
191676
187936
184395
176623
150544
131659
119914
114513
106214
95382.4
89777.7
85482.2
82349.2
80409.6
79390.1
78635.1
77549.1
74693.4
72014.1
69895.1
68324.1
67398.2
66703.3
184624
191307
196091
200990
201864
197391
191255
187344
184287
182491
177718
157790
132584
120102
114608
106305
94750.1
87783.9
82628.2
79532.1
77703.4
76732.4
75943.8
75043.2
72619
70243.8
68318.5
66871
66000.9
65319.1
188131
193059
196458
199627
196965
192233
186150
183704
181046
180092
177565
164182
133518
120601
115379
106889
94741.7
86202.7
80353.4
77212.3
75454
74476.1
73626.4
72780.6
70714.5
68632.8
66875.8
65542.3
64707.4
64053.8
190827
195090
196564
196666
193678
190750
185038
178017
176986
176622
176581
166045
135014
121549
117566
108281
95144
85015.5
78646.4
75297.7
73575.3
72558
71626.7
70759.1
68960.7
67130.2
65512.4
64266.7
63465.6
62819.5
194100
196450
195912
195368
191488
189254
181724
176414
173660
172392
173946
166008
138413
123570
118159
110382
96422.5
84766.5
77367.6
73753.7
71980.3
70900.8
69890
68950
67312.1
65659.6
64114.8
62920.8
62122.1
61468.6
198207
196988
195817
191758
190659
187833
178992
172357
167468
168378
170501
165411
139920
124558
118305
112976
98576.6
84851.7
76522.5
72578.2
70623
69443.4
68350.3
67286.7
65701.4
64119.4
62561
61382.4
60565.9
59904.7
202368
197067
195239
190563
190045
186201
170324
163669
163491
164582
166163
163091
140216
124768
118347
116568
101610
85415.5
76109.3
71611.1
69429.4
68128.3
66937.9
65726.2
64092.1
62481.5
60859.9
59699
58870.6
58230.2
204448
196422
193410
188359
188587
175959
163441
157515
159740
162462
164811
161324
140006
124584
119008
122151
105698
86884.3
76076.4
70875.5
68338.9
66905.6
65610.9
64209.9
62476
60796.2
59137.5
58032.3
57221.7
56624.7
205286
195591
191810
186729
185217
171549
160867
155330
157908
161890
166160
160541
138363
124931
120066
123802
112008
89553.9
76401.7
70247.8
67298.8
65713.8
64295.1
62699.9
60874.5
59151.1
57504.7
56488.2
55707.1
55172.7
204927
194248
189951
184888
182916
168839
160258
155064
157350
165317
167227
157465
137317
125666
121243
124072
126454
94087.2
77449.9
69922
66258.8
64505.8
62929.4
61179.5
59328.6
57607.8
55982.5
55061.8
54301
53793
205284
193386
187511
182527
180876
167566
160232
156886
161406
168048
168199
155659
137062
126566
122688
124130
134635
102690
80032.5
69929.5
65390.6
63246
61512.9
59628.4
57770.9
56064
54494.7
53691.6
52920.5
52464.2
201341
190405
185826
179485
176537
167051
163073
161480
165898
169411
167272
155443
136958
128061
125131
124370
134975
123630
85196.1
70788.2
64735.5
61891.5
60015.8
57985.8
56127.7
54457.4
53070.1
52350.4
51564.2
51191
198267
188665
183816
176068
172388
166596
164795
164564
168495
170060
166930
155320
139002
130957
127113
125658
131355
135869
95434.2
73665.5
64523.1
60315.4
58448.9
56388.3
54598.9
52994.1
51776.2
51117
50376.3
50049.1
190796
182513
178607
171478
168434
166175
165533
166992
169793
170711
166528
157919
142015
132901
128417
126795
127258
136596
119880
79182.2
65573.5
59621.2
56654.1
54943
53276.2
51743.5
50645
50046.3
49352.3
49047.9
187579
177944
171574
167403
166295
165787
165891
168358
171351
172545
168451
161629
146226
135363
130037
127500
126637
133243
131734
89917.2
68399.6
59562.1
55496.1
53394.2
52067.6
50638.2
49633.1
49088.7
48434.6
48157.3
166908
166604
163890
162984
164009
163926
166178
168984
172623
173423
170151
162976
153876
141112
132837
128618
126748
126604
132522
113793
73988.7
60902.6
55078.9
52217
50828.4
49626.3
48724
48220
47595.4
47343.4
89584.8
90191.1
90976.3
92630.4
94868.1
97993.4
102138
106344
109156
111069
114007
117530
120990
125060
130437
137242
143721
149926
157610
166769
175501
192208
214633
221525
224788
215430
200075
189271
182722
156282
87364.2
87960.8
88812.8
90554.7
92820.1
96084.2
100350
104377
106388
108094
110979
114340
117637
121685
127186
134062
140225
146217
153661
161974
176462
199060
211425
216395
218827
212547
199984
189800
184629
164781
85160.6
85813.9
86643.6
88445.3
90757.3
94158.6
98524.3
102355
103738
105347
108089
111257
114407
118400
124103
130977
136875
142642
148221
157906
176331
200501
209631
213718
214229
209609
200287
190294
186311
168873
82590.4
83272.2
84265.4
86153.4
88642.2
92218
96643.7
100168
101040
102502
105097
108036
110977
114806
120681
127168
132594
137411
143792
156616
177099
201209
209141
211841
210183
207161
200425
190120
187081
169934
79449.1
80466.6
81589.9
83811.6
86665.5
90429.1
94874.5
97886.1
98444
99705.3
102141
104816
107502
111209
117191
123054
128316
132462
142230
156669
181575
201293
207920
209755
208933
205575
200397
189997
187086
169860
75262.6
76602
78211.4
80892.7
83902.7
87843.6
92311.7
94948.5
95473.1
96553.8
98753.7
101161
103648
107481
113366
118500
124864
130547
142061
156821
185613
200206
204735
206231
207619
204175
200665
189918
186917
169844
72210.6
73206.4
74578.9
77146.9
80179.9
83891.4
88103.3
90369.1
90996.1
92153.9
94388
96896.6
99482.3
103873
109204
116072
122503
130103
142445
158482
186618
196818
200885
203970
205382
203423
201041
189889
186866
170373
70313.7
71119.7
72242.3
74191.7
76735.8
79942
83497.6
85255.4
86192
87447.6
89793.9
92589.8
95533.5
100663
107365
115028
120871
130146
144469
165720
186149
193367
198658
201812
203117
202026
200950
191312
187004
172618
68596.4
69357.1
70340.2
72072.6
74367.8
77228.1
80227.3
81468.4
82354.5
83533.6
85724.7
88709.6
92277.5
97655.5
106750
114660
120094
131057
148083
174993
185561
190576
194982
198826
200782
201675
200880
193097
187195
175919
67046.4
67749.5
68670.5
70233.9
72311.7
74841.1
77374.9
78354.1
79221.9
80320.8
82332.2
85378.5
89729.1
95628.7
106671
114623
120141
132735
153645
177349
183755
186842
190492
194398
198516
200857
200347
193946
188379
179601
65615.1
66298.9
67159.2
68587.4
70462.9
72681.8
74829
75690.8
76580.6
77638.5
79538
82622.8
87771.8
95133.2
106781
114738
120333
133545
162737
177636
181491
183287
186000
189181
195656
200316
198975
194517
190106
183335
64299.6
64954.3
65780.2
67084.3
68781
70716.5
72567.5
73407.4
74341.7
75410
77227.7
80427.6
86169.4
95164.4
107437
116050
120994
134916
166489
176972
178710
180065
182644
185778
192099
194848
197895
194859
191953
187138
63013
63662.6
64457
65667.3
67221.6
68920.1
70570.7
71442.4
72427.8
73535.3
75304.2
78736.6
85248.3
95666.5
108880
117464
122311
137481
167197
175699
174924
175786
177598
185567
190410
191438
194694
194862
194027
190162
61604.2
62266.1
63065.4
64225.4
65707.7
67246.1
68791.7
69736.1
70778.2
71925.9
73766.5
77518
85125.1
97044.3
110952
117756
124378
141122
166751
172591
171015
172005
175886
182431
188633
189905
193056
194186
195445
193918
59975.5
60651.1
61480.4
62634.3
64139.1
65623
67147.4
68197.6
69313.7
70553.4
72587.2
76708.8
85289.8
99306
113454
117740
124787
142039
165695
168746
167322
166547
171789
179325
187369
189669
190694
194071
195946
198129
58235.3
58892.8
59744.8
60895.4
62479.1
64003.3
65584
66770.9
67981.1
69332.5
71624.7
76355.2
86024.3
102464
117200
117836
124798
142157
163070
165144
162930
162059
161554
169403
185586
189821
189760
193147
195991
201767
56579.3
57194.4
58031.3
59139.3
60780.5
62383.4
64056.6
65435.3
66743.7
68220.6
70896.2
76363.2
87690.5
106632
121292
118618
124796
141921
162182
164274
160721
157836
155656
162435
175306
188580
188178
191353
195554
203333
55099.3
55657.4
56454.5
57481.8
59116.7
60782.7
62545.4
64131.3
65560.1
67186.1
70284.3
76747
90503.4
113171
122326
119697
125013
139756
162301
165706
160345
155741
153656
159597
170507
185198
186463
190009
194807
203974
53716.6
54236.3
55012.9
55958.5
57559.6
59239.1
61032.5
62786.6
64373.8
66184.7
70015.3
77929.2
95225.7
127556
122612
120810
125597
138120
159325
166927
163539
155265
153417
158779
167326
182694
184277
188371
193498
203326
52370.9
52839.5
53628
54475.7
56038.4
57715.4
59522.5
61389.1
63118.5
65358.8
70081.5
80683.3
104160
132944
122713
122258
126357
137605
156929
169159
165952
159397
155208
158690
166044
180083
181848
186439
192466
203263
51053.7
51460.3
52270.7
53016.1
54440.2
56096.3
57914.8
59912.3
61773
64771.6
71088.1
86163.4
125438
132809
123146
124576
127922
137339
156621
167900
167403
164018
159578
161190
165481
175450
178684
185123
189429
198542
49910.8
50258.6
51016.9
51689.6
52937.2
54542.2
56339.5
58382.7
60299.2
64604.3
74168.3
96920.5
134218
128937
124510
126043
130463
139540
156909
167147
168426
166628
162600
163094
165301
171381
175434
183041
187897
196508
48922.8
49238.3
49935.7
50537.8
51649
53182.2
54874.8
56582.1
59671.7
65847.3
80010.1
121409
134283
125615
125577
127271
132180
142342
159382
166865
169764
168589
165489
163935
164719
167354
170726
177954
181351
189062
48059.6
48345.3
48995.8
49533.7
50542.7
51971.9
53284
55504.7
59689.8
68843.2
91263.2
130226
129988
125164
126136
128982
134948
146892
163095
168647
172091
170759
167303
164375
164423
165260
166662
170976
176741
185712
47273.6
47536.7
48155
48646.8
49550.9
50758
52203.6
55150.7
61130.6
74680.6
115346
130534
124278
125206
127413
132165
142320
154891
164286
170395
173007
172092
168158
164735
162179
162553
161856
163105
165879
165399
823702
811451
805495
802389
800858
799564
797207
794659
789877
784586
778421
771513
762438
751571
736742
720318
700779
678546
654466
628726
602990
576431
550123
523440
497124
471452
446790
423161
400861
379920
360346
342048
325138
309441
295086
281848
269683
258906
249302
240129
231431
223261
217813
213732
209065
204447
200603
197572
195167
193384
192266
191976
192637
193268
194671
196354
199435
203481
210442
222481
244282
276305
306246
329071
346973
362924
376781
385980
392233
394068
393406
390391
386014
380079
374493
366726
355944
347794
337817
325219
311982
299108
287118
276236
266738
258920
253292
249417
246045
242247
237730
232518
226618
219905
212218
203867
195402
186555
177080
166666
154429
139782
123011
104703
86103.8
69614.2
58771.9
52765.4
48946.4
46595.8
45154.9
44214.4
43594.7
43167
42879.4
42723
42730.9
42795.5
42965.9
43323.5
43842.7
44400.4
45006.9
45768.3
46521.2
827853
815178
809034
806072
804612
802187
800219
797711
794128
788522
782465
773907
763330
750191
733975
715569
693992
670625
645469
618743
591508
563184
535292
508828
483550
459218
436736
416065
396934
378708
361427
345065
329391
315033
301690
288169
274918
262791
251882
242027
233664
227070
221165
216558
212485
208636
205307
202696
200952
199769
199160
199675
200199
201682
204032
207862
213307
221511
239693
265300
287368
293653
297395
302047
306963
311465
315828
319595
321588
323369
325669
328265
331555
333184
333328
332727
329887
324375
320078
312598
304315
295784
287063
278169
269256
260552
251929
242989
233486
223439
213023
202497
192127
182062
172369
162877
153264
144291
136357
129219
122488
115771
108856
102787
97231.7
91439.8
81353
67963.9
56437.9
50453.8
47246.1
45358.3
44286.9
43598
43179.7
42925.5
42926.8
42987.2
43158.6
43520.4
44047.2
44615.7
45230.3
45998.2
46760.2
833041
819344
812655
809380
807476
805340
804267
802014
799081
793976
787207
777328
764434
748333
729163
707190
682760
657970
631203
604760
577394
550885
524085
497763
472542
448347
425772
405384
386730
369267
353569
339274
325985
313395
301691
290911
280647
271811
261539
251224
242647
235565
229437
224456
220351
216908
214351
212954
212136
212542
212898
214358
216727
220731
229243
241247
257760
278143
291545
296048
296083
294736
294038
294611
295106
296308
296805
296868
296542
296726
296015
296101
295420
294440
292371
285937
280255
275230
269863
264212
258221
251866
244999
237461
229470
221809
214063
206001
197841
189812
181956
174236
166771
159782
153173
146537
140111
133699
127112
121117
115546
110477
105793
101701
98863.9
96024.1
93398.1
90469
85492.7
72927.8
58847.1
51939.6
48262.7
46078.6
44906.5
44123.8
43966.8
43987.4
44072
44271.6
44687
45251.5
45867.5
46613
47364.7
832302
822848
818399
816265
814725
813776
813158
811100
807978
801966
792640
780750
765149
746884
725698
702951
677306
650642
622701
593742
565892
538310
512184
485967
460413
437335
416700
397414
379856
363840
348339
332199
318344
307654
295731
284956
275796
267733
259961
252421
245165
238769
233289
228864
225391
223010
221784
222093
223099
224506
226588
232048
239442
251816
271355
290066
299737
305532
305549
304445
301242
295891
293900
293289
293327
293546
292768
290241
287715
286310
283682
282359
280212
275979
270758
263453
256608
250213
243870
237501
231233
225047
219191
213120
206407
199289
192422
185640
178928
172449
166350
160583
154899
149245
144058
139411
134543
129704
124951
119684
114572
109754
105716
102543
100060
98199.1
96629.7
95108.4
93565.1
90994.6
86326.1
75180.4
60195
52818.1
49035.6
46825.2
45714
45421.6
45402.5
45396.6
45438.2
45690
46351.8
47097.9
47847.1
832436
827365
825089
824123
823699
822620
821784
819641
815012
807328
796089
782110
765085
745094
721985
696382
668715
639607
610621
582971
555544
527968
502668
479616
457566
436228
416430
397978
378277
362471
348936
334897
321476
309377
297747
286697
276793
268435
261060
254065
247590
242016
237330
233687
231434
231276
231426
231768
232920
235547
239141
245486
258881
282153
307140
310346
311039
313325
313307
310990
305507
302599
301154
300350
298566
295759
291938
288867
286313
282533
279511
277328
273996
267829
260673
253694
246714
239818
233012
226337
219870
213767
207892
202115
196469
190197
183805
177511
171291
165321
159695
154504
149739
145155
140529
136239
132477
128435
124479
121073
117629
113931
110165
106589
103440
100806
98730.2
97199.9
96009.8
94959.6
94022.5
92270.7
88526.4
79129.2
62211.2
54119.9
50049.4
48397.9
47584.1
47099
46961.2
46959.7
47157.9
47634.4
48651.1
834618
832158
831081
830570
829708
828811
826612
823639
818000
810275
799276
785785
768063
745775
720698
692683
664347
634474
602620
572651
545042
519199
494030
469910
447141
426990
406933
391112
375517
360018
346224
333391
321035
309798
299217
289168
279841
271577
264371
258144
252815
248294
244743
242434
242384
242446
242702
243284
244689
248523
253942
264689
285761
307103
314529
314998
315722
317509
318406
316422
311013
310227
309912
308777
306287
302017
297257
291410
285854
281752
278713
275803
270421
263849
256415
249412
242724
235778
228675
221862
215434
209259
203022
197129
191616
186216
180340
174480
168557
162778
157287
152217
147595
143417
139468
135403
131537
128312
125535
122917
120421
118013
115173
111903
108526
105294
102377
99881.8
97964.6
96742.1
96079.7
95597.3
95107.4
94159.8
91785
84366
64686.4
56488.1
52758.3
50815.4
49546.1
48972.2
48898.5
49019.4
49547.3
841293
839423
838769
838580
837529
836959
834807
832002
826136
819293
809549
796470
776022
750247
723063
690366
656252
623010
594520
565309
534348
505228
478027
453000
429841
413865
398535
382875
367928
353423
340088
327783
316617
306780
298205
290313
282815
276189
270365
265344
261087
257703
255575
255754
255859
256069
256705
258279
260892
265549
273150
288231
304177
312638
316644
317134
317932
319740
322330
322146
321540
321713
322195
320881
317288
311031
303741
297436
291308
285294
280288
274916
267749
261011
254536
247625
241214
234421
227268
220457
214111
207587
201155
195183
189581
184308
178856
173269
167848
162176
156721
151694
147118
142903
139059
135670
132611
129754
127005
124403
122026
119960
118256
116234
113543
110557
107522
104648
102061
99762.4
98080.6
97302.9
97172.9
97212.6
97215.3
97065.7
95898.2
89330.8
68776.9
59784.4
55370.2
53212.1
51938.1
51668.5
51717.1
849751
848329
848113
847997
848041
848180
848225
847932