/*--------------------------------*- C++ -*----------------------------------*\
| =========                 |                                                 |
| \\      /  F ield         | OpenFOAM: The Open Source CFD Toolbox           |
|  \\    /   O peration     | Version:  2112                                  |
|   \\  /    A nd           | Website:  www.openfoam.com                      |
|    \\/     M anipulation  |                                                 |
\*---------------------------------------------------------------------------*/
FoamFile
{
    version     2.0;
    format      ascii;
    arch        "LSB;label=32;scalar=64";
    class       volScalarField;
    location    "0.00508";
    object      T;
}
// * * * * * * * * * * * * * * * * * * * * * * * * * * * * * * * * * * * * * //

dimensions      [0 0 0 1 0 0 0];

internalField   nonuniform List<scalar> 
13875
(
1412
1535.55
1482.42
1487.75
1481.92
1483.82
1484.03
1483.95
1484.61
1484.58
1484.09
1484.19
1483.57
1483.97
1483.7
1483.59
1484.05
1484.48
1483.96
1484.21
1481.58
1487.93
1480.72
1532.72
1396.83
1307.02
1356.15
1318.96
1322.09
1316.41
1318.02
1321.94
1322.72
1323.42
1323.55
1323.07
1323.12
1318.1
1317.71
1318.17
1322.56
1323.45
1323.6
1322.59
1320.48
1316.99
1322.2
1319.63
1355.98
1303.62
1307.24
1340.06
1314.36
1312.02
1305.16
1305.74
1305.55
1305.08
1305.44
1304.86
1305.36
1305.8
1303.93
1304.14
1303.94
1305.61
1306.42
1306.67
1305.49
1305.84
1305.03
1311.49
1311.64
1336.51
1298.26
1317.39
1344.83
1314.8
1308.61
1305.94
1306
1304.86
1303.59
1303.47
1303.19
1302.82
1303.56
1304.06
1304.2
1304.06
1303.6
1303.64
1304.25
1304.47
1306.26
1305.67
1308.1
1314.09
1343.97
1311.97
1329.56
1342.17
1315.9
1312.69
1304.97
1305.98
1305.22
1303.99
1303.39
1303.25
1302.85
1303.63
1303.87
1304.36
1303.93
1303.38
1303.78
1304.5
1304.9
1305.61
1304.79
1312.12
1312.25
1338.54
1315.95
1332.26
1351.19
1318.96
1309.85
1308.02
1306.83
1305.19
1303.78
1303.44
1303.38
1302.81
1303.72
1304.28
1304.67
1304.37
1303.71
1303.75
1304.17
1304.51
1307.07
1307.47
1308.75
1319.05
1349.03
1325.95
1339.06
1360.53
1329.18
1317.77
1308.01
1307.93
1306.21
1304.54
1303.98
1303.85
1303.28
1303.67
1304.51
1305.08
1304.46
1303.76
1304.25
1304.98
1306.14
1306.88
1307.84
1318.1
1326.16
1358.43
1321.49
1359.85
1384.78
1344.21
1321.04
1316.47
1310.55
1307.12
1305.28
1304.64
1304.51
1303.95
1304.57
1305.38
1305.92
1305.58
1304.61
1304.78
1305.34
1306.52
1310.37
1315.46
1320.63
1341.26
1381.09
1350.6
1537.4
1508.45
1387.17
1351.55
1321.76
1316.27
1310.19
1307.8
1306.73
1306.4
1305.64
1305.69
1306.77
1307.55
1307.05
1306.32
1306.68
1307.66
1311.03
1314.3
1321.79
1349.61
1384.53
1508.18
1524.26
1835.45
1574.61
1426.93
1357.94
1338.58
1321.65
1315.18
1312.22
1310.16
1309.71
1308.84
1308.82
1309.86
1310.77
1310.49
1309.89
1310.57
1311.74
1314.76
1321.46
1336.48
1356.72
1423.09
1565.92
1828.76
2508.87
1802.88
1518.64
1413.09
1351.3
1333.14
1327.99
1320.59
1317.77
1316.78
1315.38
1315.18
1316.03
1317.19
1317.19
1317.06
1317.93
1319.73
1328.24
1332.19
1351.68
1406.07
1509.96
1807.11
2441.98
2812.46
2297.22
1741.11
1465.35
1420.83
1368.49
1344.05
1336.9
1333.02
1331.56
1329.74
1329.41
1329.98
1331.12
1331.45
1332.01
1333.73
1337.05
1344.48
1376.07
1411.47
1455.66
1711.33
2289.38
2835.16
2787.52
2659.17
2371.36
2242.11
1537.03
1424.25
1407.54
1384.76
1374.58
1369.78
1365.82
1364.82
1364.94
1366.09
1367.16
1370.27
1376.45
1387.51
1410.83
1431.38
1575.31
2264.37
2316.2
2678.96
2777.35
2719.07
2651
2759.31
2753.3
2065.53
1904.16
1552.08
1520.95
1500.94
1491.04
1483.99
1482.98
1483.02
1484.27
1485.71
1490.74
1503.7
1524.91
1574.92
1990.55
2115.46
2768.32
2768.99
2693.47
2690.89
2594.4
2657.68
2706.34
2712.38
2647.74
2413.64
2169.62
2054.13
1983.94
1898.98
1866.14
1856.44
1855.06
1857.61
1862.95
1889.56
1979.73
2045.3
2125.53
2479.61
2673.73
2727.67
2717.63
2650.99
2634.96
2489.77
2531.32
2671.98
2733.92
2747.16
2790.95
2921.98
3134.3
3506.62
3534.68
3596.91
3592.99
3594.19
3598.29
3588.96
3535.5
3438.61
3219.48
2961.29
2830.84
2739.37
2734.23
2685.05
2555.94
2520.72
2340.53
2436.51
2468.91
2550.22
2713.74
2858.68
3143.43
3462.48
3625.8
3664.13
3647.78
3628.35
3621.08
3626.96
3646.31
3676.44
3643.97
3491.65
3165.43
2912.8
2742.99
2578.84
2498.07
2429.78
2359.92
2052.83
2173.76
2459.7
2706.62
2854.37
2963.39
3135
3449.23
3600.39
3629.88
3615.55
3600.63
3594.15
3599.5
3615.67
3635.28
3600.51
3444.97
3146.08
2963.95
2811.36
2701.62
2381.79
2161.41
2045.19
1843.71
1925.54
2042.04
2567.61
2851.06
2947.49
2974.45
3135.51
3311.98
3392.87
3427.31
3434.61
3437.73
3433.06
3426.22
3396.41
3321.24
3181.28
3002.35
2967.08
2860.27
2565.26
2037.68
1939.05
1853.45
2099.97
2133.66
2066.77
2388.93
2670.7
2728.93
2722.67
2872.97
3070.51
3210.79
3273.05
3294.6
3299.09
3290.46
3266.55
3211.42
3084.17
2901.7
2738.95
2758.29
2657.5
2367
2064.27
2172.78
2145.96
3857.33
2939.94
2257.25
2264.2
2452.97
2542.45
2557.26
2685.78
2901.36
3059.65
3150.17
3176.63
3182.3
3169.17
3140.54
3059.66
2904.47
2683.89
2555.78
2555.25
2439.74
2228.32
2276.94
3000.38
3822.86
3769.6
2669.16
2107.47
2043.82
2258.72
2370.5
2424.59
2547.8
2762.83
2939.9
3036.75
3068.45
3070.09
3061
3023.64
2936.23
2768.82
2542.24
2423
2371.64
2244.41
2021.45
2074.19
2717.37
3825.52
3440.62
2428.98
1986.96
1905.32
2114.07
2236.72
2326.06
2444.69
2643.53
2820.01
2933.76
2959.86
2963.34
2952.07
2922.06
2824.45
2653.77
2440.35
2322.33
2232.86
2109.65
1881.31
2017.72
2504.69
3532.84
3207.04
2286.92
1934.14
1829.98
2036.79
2141.49
2234.53
2349.33
2548.6
2734.03
2834.13
2861.57
2860.33
2855.24
2821.88
2734.93
2567.15
2349.76
2236
2140.91
2028.32
1811.29
1939.45
2306.33
3230.6
3058.98
2187.36
1928.33
1834.91
1997.86
2067.8
2148.14
2270.91
2469.12
2644.87
2745.52
2760.8
2763.41
2756.21
2731.37
2641.89
2478.75
2267.18
2148.9
2070.81
1998.44
1818.3
1917.78
2245.56
3164.36
3039.06
2206.03
1937.83
1846.92
1958.97
1996.59
2077.61
2201.31
2398.66
2573.93
2652.37
2671.63
2669.52
2667.5
2639.67
2564.39
2415.64
2207.07
2077.94
2008.44
1959.05
1833.11
1913.64
2198.1
3053.84
2987.13
2183.31
1937.01
1869.05
1929.46
1946.76
2015.75
2152.62
2342.8
2490.42
2571.09
2578.3
2582.29
2574.67
2558.14
2478.87
2344.95
2155.55
2013.77
1954.98
1941.06
1867.2
1926.41
2176.99
2986.31
2953.38
2204.97
1961
1883.7
1904.72
1895.81
1977.24
2111.5
2288.13
2426.16
2483.38
2498.07
2497.6
2495.4
2470.48
2407.58
2286.73
2112.8
1968.07
1898.54
1904.55
1873.86
1935.39
2193.98
2968.74
2958.05
2221.41
1962.79
1889.13
1897.81
1871.29
1937.1
2070.39
2233.13
2340.45
2407.3
2412.39
2419
2410.44
2398.99
2328.09
2228.35
2077.5
1937.27
1867.19
1906.01
1887.12
1943.89
2180.68
2929.44
2952.31
2240.4
1979.79
1888.39
1871.76
1846.82
1921.32
2041.6
2181.86
2283.69
2325.67
2340.19
2341.55
2337.52
2315.85
2266.9
2174.65
2043.04
1914.45
1836.41
1875.43
1880.14
1958.68
2237
2939.36
2900
2230.06
1964.6
1895.26
1854.83
1838.71
1897.47
2010.29
2132.71
2205.09
2257.82
2261.18
2268.77
2259.72
2251.38
2190.51
2120.11
2011.6
1897.44
1821.25
1862.97
1892.84
1962.03
2232.41
2927.9
2892.5
2232.64
2001.79
1910.98
1843.46
1816.09
1879.58
1984.07
2080.76
2155.5
2182.79
2195.82
2197.08
2195.52
2177.18
2142.86
2075.48
1988.46
1884.86
1802.11
1842.97
1902.12
1977.4
2226
2899.83
2855.02
2221.18
2018.35
1906.73
1840.69
1806.13
1864.32
1953.54
2036.91
2086.04
2124.87
2125.74
2132.48
2125.03
2120.75
2074.6
2025.01
1956.82
1873.84
1788.21
1851.02
1908.22
2005.77
2223.63
2880.04
2816.53
2208.38
2054.49
1930.8
1837.43
1787.1
1851.52
1932.76
1991.42
2048.55
2061.53
2070.48
2070.05
2070.25
2056.9
2038.29
1986.01
1932.65
1861.92
1778.96
1831.13
1925.93
2042.59
2216.32
2853.9
2813.15
2211.7
2059.53
1927.92
1850.99
1784.67
1835.89
1901.54
1952.44
1985.9
2014.44
2011.13
2016.28
2010.85
2012.32
1979.76
1942.41
1906.35
1853.53
1787.39
1852.35
1929.2
2071.09
2199.82
2814.09
2788
2196.79
2055.18
1957.62
1844.61
1777.05
1823.29
1883.84
1916.03
1958.48
1962.31
1967.43
1964.99
1966.76
1958.54
1951.43
1912.59
1881.5
1834.96
1777.64
1845.1
1965.41
2067.93
2191.03
2807.78
2746.62
2179.24
2053.64
1973.49
1858.76
1796.77
1816.85
1852.71
1886.83
1906.33
1924.44
1917.54
1921.48
1916.96
1922.97
1900.59
1875.94
1855.12
1829.17
1799.65
1861.44
1988.3
2058.74
2175.44
2779.56
2726.66
2166.57
2049.42
2038.77
1868.62
1799.92
1801.14
1836.57
1855.28
1884.01
1881.17
1882.97
1879.33
1882.65
1878.46
1879.35
1853.68
1832.33
1807.87
1809.88
1865.54
2061.76
2053.09
2160.99
2735.48
2703.13
2159.37
2037.72
2022.78
1891.55
1829.55
1809.46
1814.27
1830.46
1836.43
1849.39
1840.59
1843.94
1839.98
1848.44
1831.29
1819.78
1816.13
1821.45
1844.54
1903.91
2043.39
2037.36
2151.71
2712.77
2668.68
2140.84
2010.13
2027.22
1933.18
1837.66
1814.73
1804.94
1806.83
1823.57
1813.07
1812.52
1808.16
1812.36
1809.67
1818.46
1803.17
1794.21
1801.56
1854.18
1948.31
2044.46
2003.39
2145.7
2683.12
2653.71
2138.57
1980.35
2007.63
1998.25
1880.29
1831.98
1800.05
1787.3
1779.58
1785.28
1775.56
1778.12
1774.48
1784.83
1772.6
1778.05
1794.2
1841.26
1882.52
2020.92
2020.91
1972.34
2129.09
2654.8
2623.59
2126.8
1957.37
1998.86
2000.32
1900.33
1838.36
1802.2
1772.99
1776.28
1756.25
1753.14
1747.59
1751.79
1752.09
1771.69
1769.7
1785.52
1836.14
1929.34
2017.51
2000.11
1951.55
2128.37
2628.44
2600.92
2117.17
1937.9
1956.93
1989.29
1965.15
1868.43
1815.64
1771.87
1736.78
1732.6
1720.71
1722.25
1718.96
1732.15
1726.84
1760.59
1805.57
1875.22
1990.48
1999.53
1962.8
1936.52
2121.03
2607.72
2567.7
2111.53
1924.89
1933.49
1975.71
2014.84
1891.59
1822.37
1767.5
1751.2
1713.01
1703.45
1696.66
1702.41
1708.61
1747.58
1766.99
1799.15
1894.44
2030.28
1983.72
1942.24
1924.38
2103.1
2575.04
2550.71
2107.88
1918.2
1897.63
1943.8
2000.01
1950.65
1840.48
1783.68
1721.76
1699.08
1677.83
1677.14
1676.25
1698.28
1708.9
1776.61
1837.52
1968.17
2010.01
1935.55
1905.91
1919.99
2101.07
2556
2516.92
2086.14
1906.42
1885.13
1910.59
1989.06
2038.34
1868.35
1785.8
1755.92
1699.27
1673.06
1661.47
1671.63
1691.81
1754.18
1783.88
1851.64
2039.64
1992.14
1900.27
1894.79
1911.32
2085.41
2527.57
2502.41
2085.54
1906.41
1860.39
1877.53
1960.62
2016.55
1935.26
1816.33
1730.1
1697.42
1660.61
1655.14
1659.66
1692.45
1715.84
1810.88
1933.67
2019.61
1960.72
1868.22
1869.26
1905.37
2075.21
2512.87
2464.07
2064.89
1894.15
1859.18
1853.41
1917.7
2002.09
2028.11
1844.08
1774.3
1704.43
1672.88
1656.27
1672.67
1698.95
1772.45
1860.3
2022.53
2006.71
1917.13
1848.33
1875.07
1894.64
2061.21
2470.42
2428.39
2053.9
1888.42
1840.19
1835.81
1882.45
1981.85
2001.27
1940.64
1764.54
1710.23
1663.79
1659.02
1662.89
1706.73
1747.73
1958.6
2002.39
1988.24
1887.73
1832.42
1848.18
1884.54
2050.79
2439.38
2299.03
2005.12
1863.77
1840.6
1823.69
1843.4
1937.49
1994.49
2004.27
1860.15
1734.91
1685.41
1666.13
1685.08
1731.26
1855.46
2009.54
1991.03
1947.67
1853.46
1825.1
1852.76
1862.01
2001.3
2308.29
353.813
369.341
377.57
383.001
387.985
385.372
380.21
379.485
371.054
365.89
362.57
357.305
352.18
347.321
342.004
336.579
332.706
330.573
329.07
326.692
324.044
322.028
319.064
314.95
311.169
308.467
306.996
306.42
307.722
308.952
363.272
374.699
380.415
381.981
381.645
381.52
382.801
383.213
379.175
368.671
361.679
356.355
350.776
345.593
340.069
334.399
330.526
328.586
327.244
324.611
321.792
320.019
318.086
313.824
309.535
306.399
304.599
303.704
304.313
304.585
368.106
377.907
380.168
378.386
378.892
380.94
384.246
384.02
380.8
369.454
359.723
354.014
349.509
344.401
339.123
333.553
329.62
327.686
326.261
323.475
320.651
318.844
317.441
313.237
308.716
305.435
303.62
302.662
303.042
303.145
376.538
378.6
377.673
375.961
378.098
383.249
386.804
385.508
382.339
370.439
359.871
352.071
347.31
342.85
337.852
332.391
328.228
326.273
324.786
322.067
319.295
317.473
316.445
312.307
307.445
303.877
301.704
300.491
300.247
299.839
379.688
378.325
375.35
376.402
382.422
389.062
390.831
388.505
384.058
372.152
361.052
352.516
345.39
341.377
336.392
331.219
326.881
324.952
323.582
320.849
317.994
316.455
315.542
311.757
306.792
303.016
300.451
298.874
298.6
298.115
379.197
376.734
375.384
381.423
392.145
399.599
397.102
392.715
387.076
378.337
362.688
354.256
346.028
340.801
334.539
329.856
325.525
323.444
322.106
319.392
316.542
315.164
314.209
310.565
305.321
301.158
298.296
295.983
295.064
294.06
377.666
376.117
379.371
394.595
409.72
415.557
410.777
400.741
391.899
382.807
365.878
356.788
348.047
341.095
334.622
328.383
324.344
321.772
320.149
317.014
313.936
312.438
311.206
307.84
302.578
298.504
295.486
293.195
292.409
291.638
377.952
377.968
393.184
421.1
444.633
450.348
440.222
419.19
401.679
389.141
372.232
361.136
351.009
342.449
336.138
328.903
323.814
320.266
318.019
314.14
310.733
308.939
307.276
304.372
299.595
295.906
293.35
291.7
291.079
290.287
380.575
385.786
424.458
471.757
510.073
521.063
499.408
455.007
421.309
400.275
385.737
367.607
355.153
344.943
338.833
331.01
323.694
319.472
316.147
311.566
308.264
306.481
304.699
302.336
298.013
294.63
292.342
290.887
290.337
289.581
386.322
404.967
485.266
572.952
646.753
660.394
614.426
522.092
456.996
419.64
398.558
376.358
361.036
348.976
342.34
334.029
324.291
319.427
314.676
309.736
306.589
304.766
302.858
300.77
296.902
293.838
291.775
290.391
289.696
288.738
396.733
442.329
600.181
774.151
916.394
921.911
835.455
647.485
520.262
451.509
415.121
389.351
367.356
353.937
346.436
337.57
326.729
320.007
313.764
308.639
305.494
303.624
301.522
299.514
296.069
293.355
291.487
290.146
289.382
288.351
413.997
509.303
818.314
1154.09
1278.19
1227.18
1144.9
872.856
628.561
503.195
440.142
405.468
375.124
359.981
351.671
341.897
329.931
321.094
313.593
308.228
304.888
302.937
300.577
298.527
295.471
293.129
291.394
290.075
289.262
288.123
440.097
624.735
1184.27
1456.78
1377.92
1297.18
1241.47
1121.5
793.657
581.428
476.787
423.222
385.045
367.533
358.844
347.273
333.689
322.67
314.067
308.245
304.719
302.597
299.947
297.836
295.092
293.076
291.437
290.119
289.257
288.008
480.372
818.988
1494.7
1494
1358.1
1264.03
1224.1
1184.84
991.835
687.159
525.595
445.125
398.545
377.069
365.252
353.585
338.495
325.354
315.043
308.614
304.862
302.501
299.601
297.434
294.894
293.113
291.474
290.083
289.065
287.586
541.307
1102.13
1564.01
1460.68
1264.12
1156.89
1135.58
1155.19
1088.56
809.088
582.94
471.019
412.387
386.285
371.74
360.554
344.368
328.403
316.558
309.402
305.33
302.621
299.502
297.207
294.791
293.073
291.309
289.825
288.639
287.046
626.571
1368.9
1567.99
1397.83
1180.43
1048.54
1009.97
1074.36
1091.74
915.243
637.508
495.794
426.512
395.317
378.585
368.742
351.307
332.021
318.606
310.408
305.929
302.915
299.65
297.171
294.794
292.918
290.931
289.335
287.931
286.203
733.032
1501.9
1564.17
1375.53
1152.7
980.155
919.739
985.898
1058.48
954.205
679.896
517.802
439.9
404.296
386.365
378.957
359.196
336.74
320.97
311.672
306.516
303.183
299.916
297.062
294.772
292.647
290.456
288.759
287.146
285.283
846.417
1559.62
1564.35
1373.89
1140.71
945.758
872.612
909.68
1005.34
942.993
701.289
533.564
450.555
413.665
394.489
385.481
369.269
342.832
323.719
313.139
307.201
303.559
300.148
297.075
294.685
292.353
290.02
288.281
286.487
284.589
952.407
1590.62
1574.06
1384.75
1137.32
919.285
840.138
844.966
942.545
906.811
701.203
539.165
459.963
423.027
402.101
390.759
387.395
351.059
327.468
315.166
307.999
304.013
300.183
297.274
294.581
292.147
289.625
287.87
285.921
283.967
1048.66
1618.89
1595.91
1416.35
1151.7
909.33
807.017
799.229
869.366
856.762
682.618
540.528
468.758
431.901
408.728
395.359
398.626
363.832
333.311
317.751
309.046
304.598
300.105
297.531
294.368
291.912
289.196
287.463
285.335
283.404
1134.78
1648.04
1628.26
1452.95
1173.56
911.963
789.776
759.387
798.87
800.988
658.839
540.351
474.735
439.292
414.637
399.974
403.754
389.232
342.88
321.752
310.57
305.233
300.222
297.596
294.002
291.498
288.772
287.024
284.787
282.876
1190.47
1678.73
1662.16
1484.47
1203.88
943.415
784.686
729.89
739.377
743.109
640.291
537.678
477.62
443.747
419.664
406.008
405.74
402.937
358.474
328.721
312.918
305.458
300.377
297.464
293.734
291.148
288.406
286.607
284.436
282.55
1354.93
1715.12
1683.45
1524.82
1256.02
990.365
799.303
717.151
693.506
694.675
626.062
532.908
477.493
445.688
425.283
412.034
407.292
407.272
388.569
339.527
317.495
306.811
300.252
297.375
293.682
291.063
288.298
286.358
284.258
282.453
1375.38
1736.71
1716.13
1588.97
1336.3
1060.86
838.12
717.144
670.955
654.339
607.944
531.015
478.603
450.331
432.485
418.029
411.721
408.248
401.784
356.459
324.789
309.193
301.034
297.082
293.752
291.136
288.345
286.303
284.263
282.521
1409.74
1772.12
1750.2
1649.18
1420.02
1140.82
901.517
742.422
666.508
637.843
596.711
531.984
487.997
461.504
441.809
425.017
416.331
406.627
407.312
387.22
336.25
314.149
302.975
297.462
293.773
291.296
288.557
286.419
284.396
282.703
309.503
308.25
306.971
307.58
309.05
311.754
315.435
319.23
322.033
324.188
326.811
329.058
330.612
332.837
336.757
342.229
347.527
352.381
357.566
362.817
366.617
373.424
380.191
380.243
384.703
386.616
382.671
377.922
370.532
356.026
305.178
304.899
304.304
305.215
307.012
310.119
314.224
318.025
319.932
321.891
324.67
327.143
328.558
330.599
334.545
340.242
345.713
350.943
356.574
361.633
369.661
380.419
383.823
382.722
381.325
380.783
381.485
380.069
374.883
364.202
303.715
303.626
303.259
304.222
306.053
309.296
313.582
317.292
318.774
320.747
323.55
326.145
327.621
329.673
333.721
339.299
344.51
349.674
354.017
360.563
370.642
381.604
384.376
384.518
380.552
378.003
377.567
379.397
377.214
368.234
300.421
300.842
301.069
302.265
304.459
307.986
312.558
316.189
317.399
319.345
322.108
324.641
326.134
328.217
332.551
338.007
342.941
347.373
352.708
360.926
371.766
382.97
385.99
387.214
383.15
377.876
375.403
376.752
377.813
376.341
298.675
299.157
299.424
301.054
303.562
307.283
311.932
315.173
316.229
318.027
320.919
323.486
324.819
326.871
331.337
336.504
341.516
345.81
353.389
362.088
375.47
384.893
389.08
391.337
389.487
382.586
376.185
374.816
377.446
378.773
294.633
295.655
296.594
298.886
301.705
305.792
310.679
313.759
314.86
316.522
319.464
322.031
323.304
325.539
329.872
334.675
341.029
346.641
355.211
363.734
379.783
388.036
393.391
398.073
400.967
393.064
382.046
375.16
375.858
378.063
292.284
293.068
293.831
296.082
299.018
303.002
307.869
310.744
312.055
313.773
316.99
320.012
321.603
324.384
328.39
334.844
341.418
348.782
357.886
367.345
384.047
392.992
402.709
413.911
419.218
412.581
396.443
379.868
375.524
376.855
290.892
291.695
292.31
293.965
296.459
300.021
304.407
306.967
308.718
310.606
314.149
317.849
320.102
323.86
329.212
336.395
342.751
351.813
362.538
376.275
390.73
404.093
423.783
447.023
458.138
450.672
425.305
395.401
377.921
377.264
290.163
290.923
291.445
292.884
295.111
298.341
302.239
304.405
306.301
308.166
311.643
316.005
319.355
323.648
331.402
339.104
345.471
356.345
369.399
388.811
403.278
426.334
463.933
512.595
536.214
523.346
480.724
429.603
386.853
380.143
289.264
290.237
290.891
292.244
294.249
297.125
300.595
302.602
304.622
306.54
309.821
314.62
319.347
324.522
334.447
342.641
349.67
362.374
379.13
400.983
424.406
466.266
539.366
639.657
688.733
672.987
591.019
495.472
407.945
386.636
288.822
289.857
290.579
291.88
293.676
296.195
299.29
301.282
303.495
305.496
308.721
313.83
319.966
327.109
338.004
346.798
354.73
368.698
394.051
419.031
459.822
537.249
680.006
880.907
969.181
965.875
808.245
619.796
448.323
397.913
288.524
289.674
290.459
291.732
293.368
295.521
298.3
300.353
302.812
304.94
308.307
313.724
321.029
330.354
342.415
352.547
361.021
376.92
409.223
446.607
517.038
658.131
928.394
1177.69
1253.81
1307.44
1205.72
852.092
520.428
416.602
288.359
289.623
290.458
291.72
293.25
295.09
297.637
299.76
302.471
304.785
308.319
314.214
322.919
334.205
347.858
359.052
369.03
388.082
427.817
487.237
603.497
840.129
1154.24
1250.49
1303.11
1382.2
1468.72
1226.01
643.565
444.515
287.858
289.366
290.369
291.707
293.241
294.865
297.273
299.448
302.372
304.888
308.71
315.272
325.763
339.081
354.158
365.211
378.721
402.304
451.369
540.848
719.178
1036.78
1193.08
1223.69
1260.04
1356.15
1494.7
1507.32
849.824
487.604
287.206
288.85
290.052
291.497
293.173
294.746
297.065
299.365
302.488
305.323
309.549
316.85
328.943
345.022
361.08
371.545
387.544
416.33
478.685
602.878
851.929
1108.98
1152.83
1125.95
1150.96
1263.4
1460.93
1566.68
1138.97
551.92
286.284
288.056
289.5
291.067
292.985
294.707
297.011
299.522
302.753
305.895
310.546
319.006
332.796
352.011
369.534
378.363
396.505
430.763
504.437
661.714
952.815
1100.29
1063.49
1000.5
1049.22
1191.92
1405.53
1569.98
1393.54
640.746
285.311
287.213
288.878
290.545
292.704
294.683
296.922
299.758
303.021
306.464
311.808
321.437
337.785
359.88
378.442
386.146
405.687
444.344
527.764
706.815
980.095
1059.35
973.191
916.861
986.17
1168.02
1389.8
1568.25
1513.43
748.459
284.576
286.531
288.355
290.079
292.376
294.593
296.921
299.977
303.447
307.189
313.269
324.248
344.076
370.089
384.576
394.098
414.814
454.583
543.45
725.104
961.581
1002.79
898.332
873.757
951.413
1156.88
1388.88
1570.49
1567.24
861.338
283.982
285.95
287.933
289.685
292.134
294.495
297.082
300.008
303.962
308.072
315.351
328.165
352.508
388.024
390.002
401.498
423.656
463.193
547.938
719.71
919.525
936.971
837.982
840.091
925.456
1153.99
1401.23
1582.68
1597.36
962.846
283.38
285.311
287.482
289.259
291.917
294.34
297.379
299.947
304.507
309.172
318.011
334.247
365.579
396.733
394.692
408.149
431.957
471.48
548.052
697.762
867.363
862.839
795.263
807.107
916.64
1168.89
1433.99
1607.54
1625.64
1055.26
282.765
284.695
287.003
288.793
291.537
294.017
297.493
300.059
305.121
310.749
322.252
344.171
391.078
401.423
399.371
414.215
439.083
476.556
547.28
671.555
806.683
795.675
756.663
792.523
921.794
1190.02
1468.87
1641.11
1655.22
1140.5
282.441
284.335
286.557
288.406
291.137
293.735
297.407
300.229
305.532
313.148
329.495
360.244
401.576
403.209
405.149
419.095
443.104
478.876
544.345
650.34
745.862
736.849
730.746
789.08
956.33
1220.85
1501.36
1675.6
1686.57
1194.89
282.353
284.188
286.316
288.278
290.991
293.654
297.303
300.044
307.004
318.01
340.756
389.988
405.421
405.601
410.795
424.792
444.972
478.28
538.688
632.957
695.77
693.433
719.799
807.657
1004.44
1273.27
1540.89
1697.49
1720.76
1352.3
282.445
284.206
286.283
288.327
291.026
293.766
296.901
300.946
309.51
325.554
358.191
400.456
405.459
410.227
416.604
431.279
450.226
479.868
536.056
612.324
655.692
673.199
721.462
847.308
1073.71
1351.3
1602.37
1727.56
1741.38
1374.41
282.684
284.394
286.443
288.595
291.18
293.925
297.412
302.975
314.665
337.415
388.659
405.676
404.68
414.608
424.076
440.511
462.165
489.763
536.751
599.686
639.114
669.389
749.629
912.342
1153.92
1435.02
1659.72
1759.27
1774.72
1409.77
848.699
851.178
851.129
851.474
852.771
853.559
854.055
853.017
851.038
848.557
846.421
842.608
839.722
835.697
829.371
823.272
813.453
805.026
795.67
785.496
775.094
763.67
753.49
743.484
733.656
723.917
714.97
706.13
696.6
687.267
678.935
670.982
663.414
656.202
648.758
641.552
634.553
628.122
621.991
615.458
608.329
601.234
595.948
591.471
586.581
581.189
575.903
570.901
566.064
562.107
559.083
556.603
555.528
555.015
555.004
555.161
556.568
558.753
563.356
571.783
586.872
607.729
624.783
636.41
644.61
651.449
656.995
660.193
661.967
661.814
660.778
658.626
655.464
651.712
647.854
643.268
637.052
631.779
625.458
617.554
609.128
600.516
592.042
583.914
576.565
570.299
565.41
561.517
557.834
553.842
549.377
544.39
538.763
532.353
525.024
517.063
508.888
500.395
491.315
481.245
469.536
454.878
436.742
415.069
389.831
363.002
342.302
329.437
320.301
313.84
309.005
305.055
301.62
298.559
295.768
293.356
291.365
289.412
287.591
286.312
285.342
284.473
283.685
283.342
283.033
846.167
850.661
849.73
850.654
852.291
853.278
853.889
853.857
853.574
852.205
850.821
848.86
846.239
842.933
837.863
832.921
826.379
820.354
814.321
807.614
800.997
793.19
786.666
781.226
777.135
774.169
772.678
772.01
771.335
770.051
769.488
770.213
772.438
773.06
772.293
768.8
762.01
754.095
746.006
736.648
725.917
714.744
704.04
693.894
684.121
673.02
660.673
647.417
634.001
620.63
608.226
598.347
590.911
586.058
582.931
581.701
582.608
586.474
598.516
615.062
626.943
628.351
629.491
631.93
634.635
636.916
639.203
641.095
641.571
642.486
643.445
644.34
645.518
645.622
644.413
642.552
639.251
634.676
631.123
626.004
620.204
613.817
607.025
600.026
593.08
586.35
579.607
572.521
564.881
556.688
548.017
539.025
529.803
520.361
510.681
500.612
489.864
479.105
468.756
458.613
448.353
437.573
426.419
416.387
407.066
398.159
382.997
360.278
336.762
322.748
314.204
308.251
303.826
300.209
297.086
294.468
292.441
290.576
288.806
287.528
286.664
285.914
285.261
284.975
284.702
867.621
871.92
869.967
870.201
870.941
871.083
871.249
871.007
871.15
871.155
870.95
869.971
868.258
866.484
863.273
860.962
858.936
858.326
858.586
860.887
864.772
869.709
875.635
882.725
893.173
908.177
929.112
954.229
978.271
997.386
1014.13
1032.38
1052.45
1069.11
1081.09
1087.07
1087.78
1084.76
1075.41
1060.3
1042.48
1020.89
997.314
972.483
948.532
923.933
894.439
863.312
830.308
795.891
758.346
724.173
695.227
673.462
661.143
654.93
654.882
658.973
658.778
655.164
651.06
647.381
644.931
643.678
642.365
641.409
640.102
638.802
637.925
637.628
636.695
636.434
636.015
635.337
633.945
629.569
624.981
620.426
615.615
610.38
604.685
598.52
592.016
585.078
577.784
570.72
563.498
555.828
547.816
539.725
531.615
523.433
515.202
507.072
498.895
490.288
481.595
472.698
463.467
454.62
445.809
437.414
429.067
420.961
414.17
407.274
400.689
394.094
385.275
364.817
337.577
322.007
312.608
306.154
301.55
298.033
295.734
293.725
291.686
290.099
288.903
288.065
287.326
287.002
286.727
880.476
885.861
885.418
888.262
891.347
892.383
895.099
896.08
897.828
898.948
900.912
902.374
903.368
907.483
910.444
919.536
930.222
945.788
967.35
992.651
1025.35
1062.89
1104.98
1146.56
1187.75
1231.63
1281.67
1336.91
1391.45
1434.21
1460.83
1476.09
1490.03
1502.28
1504.84
1503.31
1498.54
1491.26
1479.97
1464.24
1445.98
1425.26
1402.4
1378.01
1352.76
1328.12
1301.54
1274.63
1244.56
1202.86
1153.76
1094.04
1016.41
944.15
890.236
844.671
796.483
755.052
722.296
700.773
686.141
674.466
667.524
663.35
660.849
659.14
657.152
653.935
650.812
649.02
647.33
646.917
646.25
643.909
640.185
634.6
628.879
623.373
617.547
611.099
604.143
596.844
589.611
582.17
574.31
566.283
558.475
550.647
542.732
534.96
527.537
520.363
513.109
505.687
498.554
491.845
484.632
477.235
469.779
461.581
453.372
445.2
437.52
430.555
424.161
418.348
412.771
407.067
401.349
394.672
385.792
367.435
338.707
322.109
312.294
305.873
301.436
298.685
296.46
294.365
292.407
290.904
290.193
289.617
289.069
893.262
906.2
909.248
917.503
921.312
923.419
929.593
932.849
938.621
942.808
950.456
958.352
969.637
989.96
1012.55
1050.83
1096.05
1155.16
1225.51
1303.48
1389.86
1475.63
1555.83
1622.13
1672.07
1703.28
1721.77
1735.03
1742.56
1747.49
1748.35
1743.55
1735.74
1727.7
1717.72
1705.95
1694.03
1683.44
1673.05
1661.78
1650.07
1638.01
1625.61
1613.37
1602
1593.51
1582.73
1569.09
1554.71
1540.55
1518.58
1493.49
1468.33
1449.56
1388.17
1251.65
1090.78
950.858
848.586
784.693
745.447
721.113
704.061
692.173
684.605
679.655
675.55
672.968
671.087
669.113
668.631
669.182
669.053
666
659.897
653.173
646.224
639.418
632.376
624.695
616.491
608.086
599.67
591.293
583.046
574.386
565.63
556.993
548.441
540.062
532.006
524.334
516.865
509.417
501.825
494.631
488.015
481.156
474.458
468.363
462.068
455.237
448.086
440.852
433.867
427.214
421.015
415.206
409.73
404.306
399.135
393.398
385.923
371.219
340.097
322.488
312.528
306.978
302.848
299.646
297.081
294.699
292.833
291.619
291.493
916.962
938.3
944.261
956.79
961.728
967.989
977.114
983.284
994.967
1007.06
1025.05
1053.96
1093.41
1154.13
1229.26
1332.44
1452.83
1587.47
1709.72
1802.67
1863.66
1895.54
1905.58
1904.58
1897.25
1887.57
1874.25
1863.89
1852.16
1839.21
1827.35
1815.48
1803.06
1791.44
1779.99
1768.44
1757.06
1746.85
1737.81
1729.89
1723.16
1717.22
1712.62
1709.15
1710.09
1710.09
1709.79
1708.83
1706.65
1709.97
1713.86
1723.82
1749.34
1761.01
1731.48
1675.6
1554.98
1334.55
1117.87
962.197
868.471
811.116
770.196
743.784
728.352
718.61
713.096
709.053
706.226
706.445
709.123
713.692
713.95
710.976
702.457
692.686
682.448
672.241
661.842
650.904
639.801
628.743
617.732
607.363
597.768
588.627
579.131
569.636
559.904
550.437
541.227
532.491
524.329
516.729
509.455
502.033
494.78
488.459
482.758
477.126
471.535
465.933
459.638
452.568
445.072
437.606
430.513
423.769
417.575
412.108
407.243
402.544
397.749
392.895
387.079
375.836
342.012
324.264
314.378
307.857
303.019
299.806
297.615
295.657
294.19
942.258
973.295
982.841
1004.24
1014.57
1036.1
1053.5
1072.46
1098.7
1135.58
1186.34
1265.07
1368.52
1504.8
1666.31
1825.19
1948.46
2010.43
2028.05
2025.05
2011.24
1993.52
1973.88
1953.62
1933.42
1920.84
1907.9
1893.37
1878.64
1864.01
1850.9
1839.01
1828.12
1818.63
1810.6
1803.18
1795.92
1789.77
1784.49
1780.05
1776.67
1774.86
1775.89
1780.11
1783.76
1786.66
1789.66
1794.35
1799.13
1809.28
1824.65
1852.13
1880.05
1887.1
1876.73
1850.86
1803.34
1698.98
1504.84
1279.86
1105.39
985.767
895.85
838.636
807.182
788.459
779.891
777.252
777.506
780.269
788.241
795.117
796.236
793.352
783.304
768.659
752.671
736.035
719.225
701.625
683.814
665.401
647.882
632.451
619.17
607.757
597.025
586.599
576.478
566.118
556.037
546.458
537.352
528.741
520.597
513.01
505.914
499.373
493.097
486.78
480.716
474.985
469.572
463.814
457.192
450.144
442.711
435.278
428.057
421.142
414.987
410.106
405.757
401.661
397.283
392.904
388.57
379.06
344.82
326.774
316.025
309.241
304.08
300.985
298.853
965.303
1009.98
1026.42
1067.14
1090.2
1135.54
1174.72
1231.64
1297.83
1395.17
1511.29
1675.3
1849.74
2012.02
2099.46
2123.67
2121.66
2105.96
2085.74
2065.71
2043.46
2019.56
1994.69
1973.37
1959.68
1946.37
1934.15
1923.61
1913.72
1903.9
1894.19
1885.23
1877.3
1871.14
1866.41
1863.05
1861.13
1859.66
1858.38
1857.41
1857.55
1859.25
1864.1
1869.67
1875.09
1878.81
1882.38
1886.25
1892.69
1904
1921.09
1935.76
1949.58
1953.59
1949.98
1942.51
1924.77
1887.91
1798.25
1609.14
1413.81
1248.97
1103.85