/*--------------------------------*- C++ -*----------------------------------*\
| =========                 |                                                 |
| \\      /  F ield         | OpenFOAM: The Open Source CFD Toolbox           |
|  \\    /   O peration     | Version:  2112                                  |
|   \\  /    A nd           | Website:  www.openfoam.com                      |
|    \\/     M anipulation  |                                                 |
\*---------------------------------------------------------------------------*/
FoamFile
{
    version     2.0;
    format      ascii;
    arch        "LSB;label=32;scalar=64";
    class       volVectorField;
    location    "0.00193";
    object      U;
}
// * * * * * * * * * * * * * * * * * * * * * * * * * * * * * * * * * * * * * //

dimensions      [0 1 -1 0 0 0 0];

internalField   nonuniform List<vector> 
13875
(
(2204.28 109.721 1.81229e-18)
(2142.74 5.65418 -9.38345e-19)
(2170.11 -2.22339 -9.4112e-19)
(2168.28 -1.22823 0)
(2170.84 0.0728238 0)
(2169.61 -0.0637846 9.36396e-19)
(2169.6 -0.352742 -9.36795e-19)
(2169.82 -1.07287 -4.68378e-19)
(2169.58 -1.24656 4.68059e-19)
(2169.96 -0.0142635 0)
(2169.36 1.20417 -3.88103e-22)
(2169.55 0.967006 -3.86028e-22)
(2169.54 -0.00125073 0)
(2169.49 -0.175442 -4.68026e-19)
(2169.93 -1.33663 4.68272e-19)
(2169.91 -0.727522 0)
(2169.72 1.01815 9.36405e-19)
(2170.17 1.02397 -9.36565e-19)
(2169.67 0.459702 3.85562e-22)
(2169.59 0.0496861 -3.8551e-22)
(2170.97 -0.220832 -9.35748e-19)
(2167.91 0.454267 9.36932e-19)
(2170.99 2.55345 -1.87827e-18)
(2143.56 -8.62011 1.91664e-18)
(2210.09 -106.683 1.76461e-18)
(2253.43 91.885 -1.63212e-18)
(2228.58 -1.13828 1.88353e-18)
(2247.29 0.681571 8.71856e-19)
(2245.6 1.37806 -8.67191e-19)
(2248.5 -0.436842 4.16368e-22)
(2248.16 0.45827 5.20304e-22)
(2248.16 0.388673 4.16164e-22)
(2247.81 1.3139 -4.36424e-19)
(2245.7 1.58847 4.33317e-19)
(2245.75 0.114777 2.17341e-19)
(2245.46 -1.39615 -1.63298e-19)
(2247.74 -1.22001 -5.32567e-20)
(2247.97 -0.0390046 0)
(2247.91 0.0248574 -4.34774e-19)
(2247.96 1.59354 4.33254e-19)
(2246.04 0.940077 4.35359e-19)
(2245.81 -1.50562 -4.35374e-19)
(2247.97 -1.27308 5.19529e-22)
(2248.17 -0.399676 -5.20343e-22)
(2248.12 -0.486373 5.2019e-22)
(2248.66 0.673243 -8.71023e-19)
(2245.55 -0.742675 2.60008e-18)
(2247.2 -1.58922 -1.74274e-18)
(2228.83 3.64594 5.42953e-22)
(2256.4 -97.2258 -1.71391e-18)
(2252.51 78.0795 0)
(2236.5 -18.1862 0)
(2249.31 4.42952 0)
(2250.89 -1.95245 0)
(2254.11 -3.05064 -1.65506e-18)
(2253.9 -0.720818 1.64364e-18)
(2254.16 0.307973 1.64016e-18)
(2254.14 2.30595 -2.45876e-18)
(2253.49 1.89796 8.59773e-19)
(2254.28 0.266644 4.30462e-22)
(2253.13 -2.04296 -4.2953e-19)
(2254.09 -2.4598 4.10899e-19)
(2254.16 -0.321163 0)
(2254.24 0.118161 0)
(2254.31 1.66329 4.07921e-22)
(2254.56 2.08954 0)
(2253.63 -1.53042 8.38542e-22)
(2254.44 -2.29327 4.09498e-19)
(2254.29 -0.324593 -4.0996e-19)
(2253.96 0.557301 0)
(2254.33 2.95795 0)
(2251 1.37804 0)
(2250.61 -4.77239 0)
(2237.91 13.7739 0)
(2257.19 -74.4252 0)
(2247.9 51.3572 0)
(2235.02 -28.4714 1.81473e-18)
(2249.08 7.21053 -3.41755e-18)
(2251.62 -4.74142 3.46526e-18)
(2253.76 -3.84618 -1.65706e-18)
(2253.75 -1.03179 0)
(2254.11 0.287323 -7.8596e-22)
(2254.11 2.2885 0)
(2254.12 1.63212 0)
(2254.85 0.295773 0)
(2254.04 -1.5849 0)
(2254.07 -2.46364 -7.84784e-22)
(2254.15 -0.400976 -5.13138e-20)
(2254.21 0.137902 5.0428e-20)
(2254.31 1.51328 0)
(2254.88 1.74794 0)
(2254.4 -1.22898 8.38833e-22)
(2254.41 -2.24107 -8.08632e-19)
(2254.24 -0.304941 8.02598e-19)
(2253.84 0.831446 -1.6262e-18)
(2254.09 3.58242 1.63242e-18)
(2252.03 4.67236 1.74106e-18)
(2249.69 -8.81462 -1.72053e-18)
(2235.75 31.2068 0)
(2251.87 -58.4838 0)
(2245 39.37 1.74887e-18)
(2235.59 -47.6206 0)
(2248.55 10.4568 0)
(2250.61 -8.19981 0)
(2254.12 -5.4856 0)
(2253.85 -1.8048 1.66127e-21)
(2254.03 0.132361 1.62664e-21)
(2254.07 2.1759 4.15707e-19)
(2254.18 1.03178 -4.30095e-19)
(2254.8 0.298509 1.99635e-19)
(2253.96 -1.33079 -2.16441e-19)
(2253.99 -2.46202 0)
(2254.06 -0.516025 0)
(2254.12 0.204966 -1.63723e-21)
(2254.22 1.36439 0)
(2254.77 1.63298 -1.6268e-21)
(2254.38 -0.768745 8.59849e-19)
(2254.38 -2.06354 -8.33029e-19)
(2254.15 -0.174722 1.65566e-18)
(2253.89 1.54518 -1.68972e-18)
(2254.32 5.01725 1.66533e-21)
(2250.78 6.90492 0)
(2249.93 -11.4309 0)
(2237.22 42.6723 0)
(2250.53 -35.4248 0)
(2241.47 6.89196 0)
(2231.46 -63.1753 9.12811e-19)
(2246.96 12.247 -8.48242e-19)
(2250.88 -11.6219 0)
(2252.95 -6.41463 8.61408e-19)
(2253.15 -2.31205 -4.31534e-19)
(2253.67 0.0305221 -2.1699e-21)
(2253.84 2.07759 -2.10736e-19)
(2254.03 0.73685 -4.30769e-19)
(2254.66 0.382062 1.57366e-19)
(2253.95 -0.773665 1.59293e-21)
(2253.86 -2.35372 2.64002e-19)
(2253.89 -0.661071 -2.16156e-19)
(2253.95 0.160166 3.32371e-21)
(2254.11 1.04488 -4.31509e-19)
(2254.68 1.29925 4.30281e-19)
(2254.25 -0.523681 1.67941e-21)
(2254.13 -1.95086 -1.64165e-21)
(2253.82 -0.148889 -1.62731e-21)
(2253.26 1.88834 -8.5063e-19)
(2253.32 5.62856 8.52505e-19)
(2251.49 11.421 0)
(2247.32 -15.0283 0)
(2232.39 65.1896 -1.93312e-18)
(2246 -19.0864 -1.2634e-19)
(2254.44 3.05753 -4.95397e-20)
(2227.48 -78.9662 6.0235e-20)
(2242.74 12.1888 0)
(2248.67 -16.6214 -2.69251e-23)
(2252.55 -8.77359 -2.62374e-23)
(2252.84 -3.82189 0)
(2253.31 -0.589739 0)
(2253.6 1.55534 -8.38279e-19)
(2253.87 -0.00842186 8.50468e-19)
(2254.34 0.279455 0)
(2253.67 -0.560109 1.72285e-18)
(2253.54 -2.25875 2.99176e-21)
(2253.55 -0.745315 -1.72982e-18)
(2253.6 0.24523 -1.70136e-21)
(2253.79 0.933114 0)
(2254.3 1.15641 3.44642e-18)
(2254.01 -0.0505472 5.02997e-21)
(2253.88 -1.39384 -6.73633e-18)
(2253.46 0.514297 3.35293e-18)
(2252.94 3.3697 2.5919e-23)
(2252.82 8.00657 0)
(2248.62 13.7972 3.53137e-18)
(2244.04 -12.3757 -3.31125e-18)
(2228.81 72.7913 3.8158e-18)
(2247.04 2.80202 -3.18375e-18)
(2217.5 -22.666 -3.16119e-19)
(2214.25 -86.9636 -7.50484e-18)
(2234.98 3.48602 8.73696e-22)
(2245.78 -23.3198 2.6158e-23)
(2248.74 -10.8728 -8.10821e-22)
(2250.46 -4.90133 0)
(2251.8 -0.98938 -3.3458e-18)
(2252.62 1.30724 3.37901e-18)
(2253.11 -0.158962 0)
(2253.62 0.547268 -8.23493e-22)
(2253.19 0.0631815 -8.38678e-22)
(2252.93 -1.92982 0)
(2252.85 -0.788713 0)
(2252.91 0.126035 -1.66265e-21)
(2253.2 0.54071 -8.42818e-22)
(2253.66 0.658079 2.6171e-23)
(2253.31 0.0349373 -8.56655e-22)
(2252.96 -1.16034 -2.57688e-23)
(2252.1 0.833244 -1.68463e-18)
(2250.82 4.30153 -1.37238e-20)
(2249.47 9.87962 1.69017e-18)
(2246.32 20.2753 8.88346e-22)
(2236.62 -4.50882 3.46062e-18)
(2216.35 81.5002 -3.53831e-18)
(2221.91 18.1203 2.50388e-23)
(2109.28 -37.9211 9.41481e-19)
(2167.4 -98.2202 0)
(2215.89 -20.4189 -8.31753e-22)
(2234.61 -33.311 -8.65277e-19)
(2245 -20.0811 1.70859e-18)
(2248.19 -10.0444 -1.70538e-18)
(2249.97 -3.98605 7.74692e-21)
(2251.22 -0.326856 8.51071e-19)
(2251.71 -1.35512 0)
(2252.25 -0.0154196 -8.47437e-19)
(2251.92 0.261209 8.56946e-19)
(2251.58 -1.56379 0)
(2251.41 -0.831642 0)
(2251.46 0.0845031 2.1032e-21)
(2251.86 0.345379 8.3708e-22)
(2252.26 0.556705 8.59049e-19)
(2251.93 0.894537 -8.49852e-19)
(2251.58 0.298846 0)
(2250.39 3.21528 8.50651e-19)
(2248.7 8.60983 -1.70621e-18)
(2246 17.1827 8.46592e-19)
(2236.14 29.6599 -8.40108e-22)
(2218.41 16.8105 0)
(2170.72 93.9556 0)
(2115.77 35.4542 0)
(1860.35 -143.691 -6.6478e-17)
(2120.37 -160.636 8.51501e-17)
(2194.49 -55.6554 0)
(2225.02 -58.0149 -2.97046e-17)
(2236.78 -23.5984 3.095e-17)
(2243.02 -11.7235 0)
(2246.07 -4.22545 -2.96032e-20)
(2247.84 -0.962006 -1.45681e-17)
(2248.63 -1.2277 1.46876e-17)
(2249.31 0.375831 -2.96995e-20)
(2249.09 0.869054 0)
(2248.75 -0.870832 -3.7359e-18)
(2248.45 -0.67679 5.58742e-18)
(2248.5 -0.210425 -1.90026e-18)
(2248.98 -0.234614 -2.96302e-20)
(2249.29 0.0766188 0)
(2248.89 0.906114 0)
(2248.26 0.885859 -2.95366e-17)
(2246.65 3.70301 2.9167e-17)
(2243.72 10.3241 -3.01989e-17)
(2238.81 21.8659 2.95545e-17)
(2227.17 54.5647 3.2184e-17)
(2198.63 53.4903 -2.93117e-17)
(2127.41 162.758 -8.35524e-17)
(1880.84 139.225 -1.26508e-17)
(1640.94 -226.517 -9.15695e-17)
(2006.02 -312.219 1.37995e-16)
(2145.62 -115.378 0)
(2198.88 -65.3486 6.92639e-17)
(2225.76 -32.2046 -7.20683e-17)
(2234.33 -17.3924 -3.34165e-17)
(2238.88 -8.05271 3.40478e-17)
(2240.94 -4.37803 -3.37094e-17)
(2242.19 -2.94876 3.4028e-17)
(2242.97 -0.636357 3.2418e-20)
(2242.82 0.570781 0)
(2242.59 -0.234237 -2.13752e-18)
(2242.17 -0.503454 2.1633e-18)
(2242.22 -0.39614 3.27099e-20)
(2242.69 -0.465349 3.25019e-20)
(2242.88 0.237172 3.42978e-20)
(2242.41 2.00852 0)
(2241.45 3.5866 0)
(2239.67 6.91535 -6.8404e-17)
(2235.45 15.1451 6.71777e-17)
(2228.35 27.6003 -7.21381e-17)
(2206.31 58.8521 1.47504e-16)
(2160.55 99.754 -7.06767e-17)
(2011.88 299.647 -3.89172e-20)
(1690.2 206.692 8.82947e-20)
(1234.99 -572.397 -1.15572e-16)
(1735.52 -573.63 1.18494e-16)
(1952.39 -163.393 2.42346e-16)
(2144.34 -122.739 -9.84482e-17)
(2192.56 -40.2017 0)
(2208.99 -15.2621 7.51372e-17)
(2219.71 -6.86356 -7.69176e-17)
(2223.39 -2.26073 0)
(2226.22 -1.51017 3.55143e-20)
(2227.26 0.867505 0)
(2227.27 1.6179 0)
(2227.49 0.558546 0)
(2226.83 -0.0231495 4.74061e-18)
(2227.04 -0.792418 -4.7471e-18)
(2227.35 -1.02609 -4.00915e-20)
(2227.31 -0.701016 -3.51814e-20)
(2226.55 0.456836 0)
(2224.31 1.26591 0)
(2221.19 5.47069 0)
(2210.95 12.0611 -7.8792e-17)
(2198.52 35.4888 1.59844e-16)
(2161.31 103.812 -7.45918e-17)
(2034.46 162.862 -1.33189e-16)
(1746.52 589.741 1.0173e-16)
(1271.91 551.28 -6.01383e-20)
(1247.05 -643.353 1.7146e-16)
(1151.57 -994.095 0)
(1390.09 -656.985 0)
(1842.66 -189.872 -1.15539e-16)
(2088.93 -83.574 1.23155e-16)
(2143.62 -58.2899 0)
(2159.32 -29.6275 1.43283e-20)
(2169.7 -18.2606 4.3933e-17)
(2176.14 -8.69867 -4.43446e-17)
(2178.45 -4.0138 0)
(2178.17 -1.14693 -1.09235e-17)
(2180.32 0.727941 1.09335e-17)
(2178.08 0.344238 -5.4777e-18)
(2179.71 -0.423069 5.47546e-18)
(2179.55 -0.0205423 3.92033e-20)
(2179.14 2.14965 -4.38e-17)
(2177.34 6.55969 8.81241e-17)
(2172.06 14.4818 9.48643e-19)
(2162.27 25.3972 -4.38371e-17)
(2146.79 53.2034 -9.61411e-17)
(2090.16 60.2467 9.01857e-17)
(1861.59 99.578 8.73951e-20)
(1624.8 502.717 2.77857e-20)
(1104.45 1052.25 1.69646e-16)
(1304.6 616.074 7.56184e-18)
(1309.96 -649.209 0)
(1166.12 -995.575 0)
(1176.97 -759.502 0)
(1058.03 -861.458 0)
(1887.25 -288.046 0)
(1868.67 -22.5221 1.30844e-16)
(1915.61 19.7663 -1.33843e-16)
(1964.45 21.3908 2.01366e-19)
(1983.22 7.86056 -1.176e-20)
(2001.96 7.59509 2.84124e-17)
(1992.09 6.00744 -2.90093e-17)
(2010.49 1.38676 -3.78034e-19)
(1994.71 1.38087 -9.02895e-19)
(2006.46 -2.15758 1.07535e-18)
(2002.56 -1.246 -2.85888e-17)
(2001.84 -4.27099 2.84036e-17)
(1993.32 -7.3855 1.78207e-19)
(1971.69 -15.051 0)
(1919.04 -19.4287 0)
(1874.37 27.1583 0)
(1865.39 331.098 -2.13862e-16)
(1089.03 819.234 -5.5586e-17)
(1240.84 701.744 1.68137e-16)
(1136.03 988.478 2.07188e-20)
(1347.63 622.116 2.0902e-20)
(1388.99 -635.585 0)
(1251.53 -879.904 4.17817e-20)
(1226.42 -738.721 0)
(1093.81 -827.037 -1.80823e-16)
(1188.36 -674.218 3.4967e-16)
(1013.26 -559.713 -2.30089e-16)
(1047.56 -490 0)
(1303.16 -263.656 -1.5799e-19)
(1224.98 -135.729 0)
(1360.04 -48.2772 0)
(1218.4 -48.6791 -2.97519e-17)
(1371.15 -1.99258 3.08928e-17)
(1229.79 0.145593 3.03798e-17)
(1328.59 -6.19335 -3.06665e-17)
(1288.77 13.8875 0)
(1325.53 42.0325 -1.21593e-16)
(1294 102.996 1.2018e-16)
(1326.1 208.24 1.22993e-16)
(1137.91 426.665 -1.12581e-16)
(1056.42 581.967 0)
(1170.98 674.196 0)
(1091.41 808.963 -1.73784e-19)
(1266.2 694.583 -1.73949e-16)
(1256.54 872.256 3.77981e-16)
(1388.49 616.231 -1.73979e-16)
(1461.25 -626.875 -1.76369e-16)
(1350.83 -801.048 1.91949e-16)
(1288.47 -629.955 0)
(1144.33 -628.164 -2.41692e-16)
(1163.29 -530.635 -4.06013e-17)
(937.375 -401.778 3.50093e-16)
(459.556 -107.77 -2.5195e-16)
(437.809 -89.6484 1.35705e-16)
(199.861 -20.3742 0)
(282.485 -27.4631 0)
(64.3442 2.70522 -4.35693e-20)
(231.399 -21.0132 1.59878e-19)
(60.6259 18.1534 0)
(179.548 -22.651 0)
(135.715 9.778 6.64804e-17)
(207.313 5.12401 -6.80772e-17)
(218.711 8.63406 -1.34076e-16)
(403.047 78.0102 2.75534e-16)
(430.625 83.9406 -6.72878e-18)
(794.315 296.458 -1.3424e-16)
(1139.1 498.955 0)
(1135.84 643.005 0)
(1299.62 603.838 -1.89206e-16)
(1307.89 801.614 2.19328e-16)
(1444.4 618.271 -4.5788e-20)
(1567.77 -549.642 1.69799e-16)
(1483.75 -599.063 -9.73916e-20)
(1455.99 -428.433 1.08376e-16)
(1288.66 -329.894 -1.01348e-16)
(1226.88 -248.699 -5.08052e-20)
(966.304 -141.357 1.23166e-19)
(607.199 -55.7849 1.2867e-16)
(572.308 -134.293 -1.99612e-16)
(473.092 -76.0683 6.76114e-17)
(490.936 -96.4465 0)
(455.719 -42.4553 -3.32586e-17)
(481.877 -41.019 3.25381e-17)
(456.9 -8.60984 0)
(465.434 15.9871 5.87208e-20)
(456.609 30.5607 -3.32118e-17)
(463.989 58.4571 3.29416e-17)
(459.57 72.6396 0)
(549.554 108.007 -1.34602e-16)
(564.485 78.884 1.31604e-16)
(838.728 103.274 1.21204e-16)
(1176.1 201.445 -2.2253e-16)
(1243.5 310.285 1.2277e-16)
(1419.65 424.575 0)
(1462.27 635.468 1.7849e-16)
(1553.62 561.434 -1.08156e-17)
(1702.35 -396.266 -6.4914e-18)
(1599.63 -230.035 9.72626e-17)
(1444.06 -166.617 -4.47774e-17)
(1317.49 -46.4759 -5.7132e-17)
(1319.39 -102.701 7.92152e-17)
(1133.86 -159.772 -5.74974e-17)
(899.916 -170.925 6.2587e-17)
(885.23 -161.237 -6.34662e-17)
(828.197 -116.149 -1.56707e-19)
(808.105 -107.691 3.20934e-17)
(748.579 -50.1709 1.60255e-17)
(779.85 -40.3201 -3.92495e-20)
(730.016 -2.33557 -1.60718e-17)
(762.283 28.4033 -6.24882e-20)
(759.127 49.955 -7.7345e-20)
(785.978 86.264 -2.01283e-18)
(831.978 122.2 1.65979e-21)
(892.765 140.251 5.98223e-18)
(904.622 159.534 -3.90156e-18)
(1081.86 156.718 0)
(1265.59 103.811 1.32502e-17)
(1262.45 64.1156 -4.04374e-17)
(1435.11 138.292 4.94873e-17)
(1574.58 242.721 -6.94224e-17)
(1688.48 402.458 6.60126e-17)
(1803.16 -277.939 -1.04729e-19)
(1752.35 44.2808 -1.39756e-19)
(1610.5 102.607 1.64262e-19)
(1460.82 2.21254 -7.13876e-21)
(1459.41 -62.1867 -1.69827e-19)
(1382.1 -117.196 -1.95933e-19)
(1174.2 -146.88 -7.95405e-21)
(1049.41 -140.313 0)
(971.474 -86.7682 0)
(942.477 -83.4887 6.44115e-17)
(885.644 -44.1588 -6.36452e-17)
(893.298 -32.53 -8.21591e-21)
(855.153 -5.94845 8.22637e-21)
(877.375 23.1279 -8.27576e-18)
(879.418 42.1807 8.05058e-18)
(918.47 70.6731 0)
(962.355 90.2096 0)
(1018.48 124.613 -6.25399e-17)
(1112.66 165.57 6.06789e-17)
(1325.59 150.807 -1.8995e-19)
(1417.05 109.302 0)
(1415.33 17.5247 0)
(1585.53 -111.926 -1.69444e-19)
(1721.97 -59.4719 -1.45195e-19)
(1786.98 271.348 1.56225e-16)
(1780.12 176.758 -1.69515e-16)
(1706.99 391.737 -2.22136e-16)
(1680.44 357.698 1.40543e-16)
(1613.06 215.606 0)
(1595.65 60.0993 2.22289e-19)
(1544.79 -21.8786 1.06554e-16)
(1394.93 -51.7487 -2.18469e-16)
(1227.57 -69.4492 1.14766e-16)
(1105 -45.8666 -1.27176e-16)
(1051.73 -49.1431 1.26416e-16)
(995.586 -25.5038 3.208e-17)
(988.29 -19.3644 -3.9837e-17)
(957.088 -0.574387 -8.04481e-18)
(973.67 20.5173 1.62234e-17)
(985.448 31.6735 0)
(1028.16 48.0506 0)
(1090.51 59.6781 1.25014e-16)
(1191.79 73.2925 -2.43005e-16)
(1349.34 83.7697 1.1632e-16)
(1515.28 56.079 2.28703e-19)
(1577.4 -25.6318 1.95844e-16)
(1596.23 -205.875 -1.99659e-17)
(1678.25 -348.818 -4.83628e-16)
(1689.38 -404.171 5.5185e-16)
(1755.46 -248.172 -3.05585e-16)
(1502.98 540.21 1.12233e-19)
(1542.36 834.254 -1.98108e-16)
(1716.32 592.123 1.25816e-16)
(1706.22 376.855 0)
(1684.16 204.329 0)
(1641.1 112.093 0)
(1514.79 73.7284 0)
(1361.06 21.2857 0)
(1230.41 12.3097 -5.48561e-17)
(1162.54 -13.2713 1.11135e-16)
(1095.34 -1.63735 -8.39825e-17)
(1083.96 -4.17818 3.14314e-17)
(1054.68 4.75856 -3.51881e-18)
(1072.61 14.178 1.27988e-20)
(1088.34 15.4361 -5.59566e-17)
(1147.01 22.2979 5.67817e-17)
(1222.97 7.79556 0)
(1335.14 -12.6666 0)
(1489.29 -43.2733 -1.76062e-16)
(1627.32 -89.9543 1.90876e-16)
(1676.79 -180.762 -1.72738e-19)
(1700.43 -374.298 7.0909e-20)
(1712.08 -596.082 -9.33246e-20)
(1568.17 -812.113 -7.13518e-20)
(1469.51 -630.165 0)
(1194.98 849.943 -1.83619e-16)
(1582.41 990.503 1.17022e-16)
(1772.78 746.311 -1.31819e-19)
(1757.76 530.578 1.51866e-16)
(1739.34 342.855 -1.30705e-16)
(1695.36 240.092 0)
(1593.69 186.274 -8.44632e-17)
(1458.3 110.037 8.2779e-17)
(1330.36 72.072 -4.77323e-17)
(1257.76 33.7182 9.6917e-17)
(1195.32 25.5796 -4.82333e-17)
(1176.1 9.89993 1.80875e-19)
(1151.28 6.63273 0)
(1167.53 3.49539 2.45545e-17)
(1192.8 -8.38187 2.37416e-17)
(1251.22 -22.6527 -4.92186e-17)
(1331.67 -52.4163 -9.16084e-17)
(1444.8 -104.612 9.08231e-17)
(1577 -166.11 -7.4445e-17)
(1687.01 -228.367 8.24422e-17)
(1737.9 -329.59 8.03733e-20)
(1757.51 -534.37 -7.91028e-20)
(1754.82 -755.993 0)
(1594.94 -970.304 6.51044e-20)
(1194.44 -857.507 0)
(1157.96 794.047 1.43564e-16)
(1624.84 944.902 -1.30845e-16)
(1796.33 819.752 5.11545e-20)
(1774.54 674.267 0)
(1762.1 493.342 0)
(1723.23 376.89 -7.49333e-21)
(1648.12 290.202 0)
(1538.03 190.359 8.00848e-20)
(1420.48 134.738 0)
(1348.97 74.1084 4.31659e-17)
(1283.34 53.1241 -6.43769e-17)
(1267.52 24.9364 3.21747e-17)
(1242.56 8.07499 -1.07901e-17)
(1260.79 -9.29968 0)
(1282.48 -35.0648 0)
(1345.36 -59.5757 4.1495e-17)
(1424.53 -113.083 -1.20938e-16)
(1524.12 -183.983 7.87914e-17)
(1633.13 -268.961 -6.49312e-17)
(1715.17 -371.199 7.18073e-17)
(1760.28 -479.836 0)
(1780.42 -655.445 0)
(1795.78 -813.008 0)
(1638.61 -909.025 -6.96157e-21)
(1152.81 -766.758 -1.65501e-16)
(1270.04 689.55 -2.76919e-20)
(1706.88 832.14 1.07526e-16)
(1782.8 859.203 -9.86821e-17)
(1781.49 741.841 0)
(1771.59 598.813 0)
(1746.73 477.019 7.72486e-21)
(1689.28 366.511 6.58672e-17)
(1591.13 256.433 -6.40335e-17)
(1487.16 188.666 3.31829e-20)
(1424.34 118.718 3.4718e-20)
(1366.81 78.737 3.52637e-20)
(1347.17 37.5476 -1.01568e-20)
(1326.73 8.24347 -1.01566e-20)
(1341.49 -21.8965 1.91567e-17)
(1368.09 -59.5137 -1.9485e-17)
(1423.28 -104.388 4.48086e-20)
(1493.59 -166.064 4.30536e-20)
(1584.41 -247.698 0)
(1679.21 -344.705 -5.80267e-17)
(1743.38 -470.072 6.4105e-17)
(1772.4 -586.41 0)
(1790.25 -722.554 -1.01376e-16)
(1783.08 -847.12 1.03962e-16)
(1712 -824.719 6.42086e-21)
(1305.98 -695.535 -1.48725e-16)
(1367.76 590.544 3.40144e-20)
(1737.09 774.961 0)
(1768.25 859.874 0)
(1780.97 785.303 -5.44948e-17)
(1778.64 675.286 4.78004e-17)
(1770.25 553.045 0)
(1724.17 430.684 6.05007e-17)
(1639.84 310.096 -5.86996e-17)
(1549.12 231.16 3.41907e-17)
(1494.36 148.375 -3.39852e-17)
(1438.21 102.547 1.78695e-17)
(1425.71 48.4827 -1.76739e-17)
(1403.64 7.35827 0)
(1420.68 -35.8611 -1.75523e-17)
(1440.46 -86.5212 1.79452e-17)
(1495.71 -137.521 -3.66203e-20)
(1560.96 -215.358 -3.5159e-20)
(1636 -309.463 5.67492e-20)
(1716.67 -416.019 5.32963e-17)
(1767.23 -551.98 -5.84052e-17)
(1772.53 -668.526 -4.926e-20)
(1784.92 -769.198 -4.87907e-20)
(1774.98 -845.25 0)
(1737.74 -754.355 -5.11809e-20)
(1366.1 -581.418 3.43241e-20)
(1400.36 520.579 1.25987e-22)
(1749.54 710.138 0)
(1764.27 848.27 8.50562e-23)
(1782.31 805.272 4.48369e-20)
(1785.6 721.554 -8.83986e-23)
(1790.8 603.288 -5.2989e-17)
(1752.35 479.388 4.90943e-17)
(1676.83 359.352 0)
(1599.17 272.549 -6.39952e-20)
(1553.11 183.874 -1.13978e-22)
(1506.62 122.346 -1.15606e-22)
(1491.14 58.9481 6.82318e-20)
(1473.98 7.39503 0)
(1486.61 -46.2775 0)
(1509.51 -106.075 -1.15214e-22)
(1555.04 -174.585 -1.13793e-22)
(1609.8 -255.722 -2.94299e-17)
(1676.54 -354.112 8.35178e-17)
(1745.94 -460.844 -5.54327e-17)
(1790.44 -594.901 0)
(1786.06 -709.38 -4.56934e-17)
(1787.74 -787.946 4.80742e-17)
(1772.22 -835.95 8.37135e-23)
(1756.99 -712.968 4.61855e-20)
(1427.03 -546.686 1.23588e-22)
(1440.91 453.085 6.89432e-18)
(1740.73 687.174 1.05553e-17)
(1760.63 826.623 9.05991e-17)
(1784.9 800.171 -4.34137e-17)
(1798.39 743.384 4.3309e-17)
(1811.5 635.569 -4.85725e-17)
(1775.02 518.105 4.5762e-17)
(1712.46 393.834 -2.73222e-17)
(1647.03 300.631 2.70364e-17)
(1609.15 203.837 1.19555e-22)
(1564.22 139.941 1.21794e-22)
(1557.29 67.4295 -1.21976e-22)
(1537.73 7.67805 7.39844e-18)
(1552.79 -56.5631 7.25967e-18)
(1567.27 -125.37 -1.5123e-17)
(1612.09 -194.91 1.19879e-22)
(1660.49 -286.534 5.43318e-17)
(1712.82 -392.361 -1.04952e-16)
(1770 -500.594 5.13852e-17)
(1811.44 -625.011 0)
(1795.8 -728.866 -8.95759e-23)
(1788.7 -783.547 8.29246e-23)
(1769.98 -814.588 -8.14955e-23)
(1749.94 -679.929 -1.0051e-16)
(1454.82 -468.33 1.12888e-16)
(1432.42 459.438 1.10415e-19)
(1714.47 659.18 0)
(1764.25 775.18 0)
(1792.28 784.696 4.10238e-20)
(1814.78 740.001 8.25441e-20)
(1829.63 645.231 0)
(1796.04 535.189 4.79311e-17)
(1740.56 417.917 -4.71274e-17)
(1686.25 324.082 4.83905e-20)
(1655.61 225.553 -5.00556e-20)
(1620.66 149.699 -1.38938e-17)
(1610.1 70.4912 1.37763e-17)
(1596.05 4.32718 3.55412e-18)
(1606.6 -66.7596 -3.47766e-18)
(1624.51 -142.216 1.35247e-17)
(1659.39 -225.332 -4.02525e-17)
(1699.2 -316.626 2.69711e-17)
(1745.2 -422.032 -5.12477e-20)
(1791.27 -527.091 4.23493e-20)
(1828.7 -641.485 -4.20479e-17)
(1814.3 -731.338 1.06701e-18)
(1798.87 -772.838 -1.40738e-18)
(1774.86 -774.116 4.15368e-17)
(1727.82 -654.395 4.63723e-20)
(1451.13 -469.759 5.36712e-20)
(1404.38 462.386 1.07874e-16)
(1720.4 625.984 -9.2336e-17)
(1786.8 719.843 0)
(1801.34 761.487 -4.02727e-17)
(1826.26 730.964 9.09825e-20)
(1845.15 654.285 4.00791e-17)
(1813.61 559.654 4.46901e-17)
(1770.87 441.646 -4.42047e-17)
(1726.94 344.37 -5.05591e-20)
(1703.23 240.242 -2.55996e-17)
(1667.87 164.641 1.2257e-17)
(1665.48 79.2661 1.26443e-17)
(1647.71 7.07066 -5.35439e-20)
(1661.62 -70.5466 0)
(1669.61 -151.086 0)
(1704.66 -231.966 0)
(1739.06 -329.761 5.07113e-20)
(1773.16 -438.026 1.06805e-20)
(1808.71 -540.784 -5.40151e-20)
(1843.84 -639.581 0)
(1825.2 -713.815 4.01212e-20)
(1806.86 -743.052 9.88786e-21)
(1788.9 -710.214 -5.06757e-20)
(1736.34 -625.691 -9.029e-17)
(1441.18 -474.903 1.04965e-16)
(1395.53 448.8 5.15126e-17)
(1735.83 565.434 -8.57759e-17)
(1803.99 649.967 8.43648e-17)
(1816.38 723.078 -4.15511e-17)
(1844.07 711.096 -3.81248e-17)
(1858.63 641.34 3.85425e-17)
(1829.75 555.089 2.09446e-17)
(1793.49 447.562 -2.10935e-17)
(1758.35 355.544 1.16474e-17)
(1740.62 253.395 -2.3408e-17)
(1714.98 169.764 1.7646e-17)
(1708.44 80.4154 -7.43288e-18)
(1696.2 4.73364 1.48758e-18)
(1704.94 -76.5898 -4.41292e-20)
(1717.86 -160.729 2.32984e-17)
(1743.01 -251.977 -2.40068e-17)
(1771.01 -345.406 4.2657e-20)
(1800.97 -448.201 4.23349e-17)
(1826.5 -543.635 -1.99283e-18)
(1856.76 -632.483 -3.96169e-17)
(1843.9 -700.982 0)
(1819.92 -716.468 4.22916e-17)
(1807.26 -659.754 -3.82055e-17)
(1740.02 -579.055 -9.12362e-17)
(1420.02 -456.718 -3.71973e-18)
(1419.92 418.67 -5.08589e-17)
(1759.12 494.585 4.56423e-17)
(1826.48 601.423 1.94474e-20)
(1830.58 687.772 -5.54908e-20)
(1860.25 689.613 1.8855e-20)
(1870.47 628.333 3.75928e-17)
(1844.29 554.225 -1.86839e-17)
(1818.93 450.463 -2.01305e-17)
(1793.1 358.297 4.43702e-20)
(1780.75 254.034 -4.56114e-20)
(1752.72 173.683 2.07595e-20)
(1754.77 81.299 -2.06428e-20)
(1738.52 2.11052 0)
(1751.33 -82.5807 4.98418e-21)
(1754.38 -169.244 -1.09793e-17)
(1781.13 -255.598 1.12299e-17)
(1804.07 -353.004 -2.11344e-17)
(1823.56 -456.007 8.76226e-19)
(1841.83 -544.6 1.97365e-17)
(1868.83 -618.378 -5.49385e-20)
(1858.14 -674.621 -3.80671e-17)
(1836.95 -667.166 3.65546e-17)
(1830.28 -583.753 0)
(1765.23 -511.373 -4.54919e-17)
(1418.86 -435.269 4.86627e-17)
(1436.14 381.147 0)
(1773.17 423.432 -3.77713e-17)
(1833.23 521.887 4.39521e-17)
(1847.94 633.409 1.80076e-20)
(1874.6 664.542 1.75466e-20)
(1884.64 611.234 -3.59118e-17)
(1860.4 541.299 3.76285e-17)
(1838.56 447.821 2.00899e-17)
(1818.66 364.229 6.50907e-19)
(1811.07 264.92 -2.05979e-17)
(1792.63 179.688 -2.17677e-20)
(1789.68 85.4438 2.43427e-20)
(1778.3 5.17448 0)
(1785.26 -81.2487 4.3724e-20)
(1794.5 -168.851 -2.16759e-20)
(1810.89 -261.278 1.02801e-17)
(1829.22 -350.038 -1.045e-17)
(1847.04 -446.223 -2.02121e-20)
(1858.69 -528.494 -2.10476e-20)
(1881.96 -601.539 1.80033e-20)
(1871.85 -655.233 -3.7325e-17)
(1851.1 -633.894 -5.34908e-18)
(1841.15 -530.747 3.53985e-17)
(1782.3 -432.469 0)
(1456.77 -397.486 5.16281e-17)
(1459.89 355.283 -9.80828e-17)
(1788.52 364.271 4.27171e-17)
(1842.24 462.411 3.39536e-17)
(1863.3 594.294 -4.0218e-17)
(1889.23 628.018 0)
(1897.84 589.613 -2.17294e-21)
(1873.14 532.105 0)
(1861.14 443.553 -2.39011e-21)
(1848.47 358.163 -2.47902e-21)
(1845.16 258.778 0)
(1822.97 179.067 0)
(1828.8 84.415 -2.56037e-21)
(1813.25 3.0368 0)
(1824.72 -85.2828 0)
(1823.87 -172.871 -9.87503e-18)
(1843.7 -259 9.95821e-18)
(1857.95 -350.448 -2.48923e-21)
(1868.03 -446.599 -1.88691e-17)
(1870.98 -522.732 1.81663e-17)
(1896.31 -577.436 0)
(1886.82 -613.338 3.70265e-17)
(1865.86 -573.919 -7.44179e-17)
(1850.61 -455.727 7.64853e-17)
(1799.13 -374.36 6.14678e-18)
(1471.8 -359.281 -4.73569e-17)
(1486.35 319.431 1.18209e-20)
(1799.89 315.109 -9.69161e-21)
(1825.94 404.346 0)
(1877.98 513.402 0)
(1899.29 587.939 0)
(1910.72 567.302 8.08919e-21)
(1888.39 508.708 0)
(1879.6 425.805 -8.61913e-21)
(1869.58 351.462 0)
(1868.39 258.633 -8.84117e-21)
(1856.28 177.596 0)
(1856.5 83.009 -2.37678e-18)
(1846.14 2.38256 2.35193e-18)
(1851.94 -85.9214 0)
(1857.51 -172.642 9.34443e-18)
(1866.68 -260.468 -1.88654e-17)
(1877.86 -341.885 9.40601e-18)
(1889.86 -428.914 0)
(1889.07 -502.655 1.7684e-17)
(1908.89 -561.889 -1.66075e-17)
(1897.74 -582.307 3.64191e-17)
(1880.55 -522.586 -3.25602e-17)
(1844.38 -398.472 0)
(1808.75 -307.854 0)
(1494.67 -326.497 0)
(1491.11 298.498 -1.18142e-20)
(1800.51 288.905 9.57459e-21)
(1829.57 332.698 0)
(1894.17 439.383 0)
(1910.38 536.376 0)
(1923.93 538.194 -8.14835e-21)
(1902.71 495.963 0)
(1899.56 421.023 8.85374e-21)
(1896.41 344.748 0)
(1898.4 251.836 -9.02947e-18)
(1880.4 176.714 9.06382e-18)
(1889.34 84.235 -8.43592e-21)
(1874.76 4.70549 9.29788e-21)
(1884.69 -83.524 8.43471e-21)
(1880.7 -167.69 0)
(1895.61 -250.284 0)
(1902.96 -333.781 9.08529e-21)
(1907.03 -420.794 -1.7806e-17)
(1901.54 -485.09 1.69724e-17)
(1921.8 -526.332 0)
(1905.9 -525.928 8.06051e-21)
(1892.82 -445.434 0)
(1831.9 -334.226 0)
(1817.63 -277.571 0)
(1517.69 -294.05 0)
(1513.69 277.684 -4.47697e-17)
(1809.8 262.304 3.94133e-17)
(1839.42 282.026 0)
(1902.37 345.697 -1.72053e-20)
(1918.22 478.424 0)
(1932.31 506.651 -1.54576e-17)
(1917.43 469.881 3.3472e-17)
(1917.61 398.423 -1.71885e-17)
(1913.45 331.983 -8.63724e-18)
(1915.4 247.795 8.6552e-18)
(1908.67 173.068 4.42079e-21)
(1911.1 80.8983 1.12555e-18)
(1901.51 3.07459 -1.07929e-18)
(1906.76 -83.7126 8.60566e-18)
(1908.94 -167.272 -8.64796e-18)
(1911.96 -247.788 0)
(1919.76 -320.294 -1.63589e-20)
(1929.31 -400.274 0)
(1919.68 -465.357 0)
(1929.76 -500.927 -1.73073e-17)
(1913.55 -478.899 1.52258e-17)
(1900.63 -353.283 0)
(1840.48 -279.388 3.78887e-17)
(1821.63 -249.654 1.91542e-18)
(1534.03 -271.202 -9.0355e-17)
(1534.34 260.188 4.51216e-17)
(1819.31 243.445 1.84663e-20)
(1848.16 224.076 3.25479e-17)
(1897.94 285.219 -2.36994e-17)
(1924.6 424.546 -1.8582e-17)
(1941.04 459.356 0)
(1930.42 446.186 8.4008e-21)
(1935.91 388.739 1.63165e-17)
(1937.48 321.702 -1.66715e-17)
(1942.04 234.551 0)
(1927.45 164.762 0)
(1938.51 77.5561 -2.58931e-20)
(1924.58 2.25994 3.24589e-20)
(1933.88 -82.574 1.68742e-20)
(1927.45 -160.223 4.18838e-18)
(1938.33 -238.601 -4.13573e-18)
(1941.87 -314.645 8.90803e-21)
(1943.47 -390.32 1.69007e-17)
(1932.09 -437.475 -3.29937e-17)
(1941.94 -448.374 1.49548e-17)
(1923.82 -410.517 -1.56924e-20)
(1896.28 -284.033 0)
(1848.66 -227.783 1.78586e-20)
(1829.17 -237.144 3.81589e-17)
(1550.14 -256.454 -8.77931e-17)
(1550.24 238.935 -4.41668e-17)
(1834.31 225.934 -3.64509e-17)
(1854.57 197.773 3.58132e-17)
(1882.85 195.331 1.49016e-17)
(1930.3 338.11 -1.93718e-17)
(1943.69 414.066 0)
(1942.41 415.704 4.04189e-21)
(1952.66 363.553 -1.19211e-20)
(1952.22 307.914 8.02925e-18)
(1955.38 231.914 -1.61593e-17)
(1951.37 163.614 8.07085e-18)
(1955.3 76.7668 2.00439e-18)
(1946.24 4.38162 -1.87395e-18)
(1950.62 -77.7275 1.86863e-18)
(1951.02 -155.744 -2.01096e-18)
(1950.25 -230.184 0)
(1956.53 -294.388 1.20005e-20)
(1964.82 -364.116 -3.8341e-21)
(1945.38 -413.06 -1.71235e-17)
(1940.05 -411.613 1.47126e-17)
(1928.62 -345.675 0)
(1881.82 -200.452 0)
(1856.53 -197.554 -4.32125e-21)
(1842.46 -219.368 -3.74114e-17)
(1574.22 -236.309 -1.39645e-18)
(1560.91 220.78 -2.07255e-17)
(1840.3 215.318 1.86167e-17)
(1863.85 180.683 4.31486e-21)
(1886.29 141.089 0)
(1932.24 256.924 1.44701e-17)
(1949.22 346.643 -1.75619e-17)
(1952.82 377.747 3.8266e-21)
(1967.32 349.126 3.88626e-21)
(1972.92 297.324 1.47761e-20)
(1979.77 218.358 -1.92566e-18)
(1967.01 153.395 9.89967e-19)
(1978.43 72.3866 1.89639e-18)
(1964.75 3.27638 -9.73135e-19)
(1973.51 -76.2576 3.88066e-18)
(1966.79 -147.345 -3.894e-18)
(1974.45 -221.232 0)
(1974.25 -288.901 1.09152e-20)
(1974.07 -348.385 -1.64254e-17)
(1955.83 -368.598 1.50383e-17)
(1948.03 -338.754 3.78696e-21)
(1927.67 -251.548 0)
(1883.55 -140.302 0)
(1864.02 -183.5 4.34351e-21)
(1849.87 -213.373 -3.67662e-17)
(1580.62 -222.847 4.12779e-17)
(1583.96 198.175 2.08164e-20)
(1854.43 194.117 0)
(1881.88 162.949 -8.08691e-21)
(1895.18 72.9518 -1.5038e-17)
(1920.56 174.505 1.84056e-17)
(1947.86 299.351 -1.4279e-17)
(1953.54 333.74 1.70284e-17)
(1979.67 313.907 -7.444e-18)
(1983.91 275.629 7.81883e-18)
(1988.9 209.836 -3.77005e-18)
(1986.71 149.443 3.79511e-18)
(1991.45 69.0039 -1.84752e-18)
(1982.56 2.82339 2.11005e-18)
(1986.74 -73.9253 -2.49959e-19)
(1986.33 -144.921 3.79053e-18)
(1983.16 -212.021 -7.59075e-18)
(1986.77 -266.703 -4.08659e-18)
(1990.4 -319.337 7.42154e-18)
(1958.33 -331.308 1.51915e-20)
(1947.54 -292.517 -7.69977e-21)
(1917.83 -176.351 0)
(1893.67 -75.1248 0)
(1882.6 -166.268 0)
(1859.34 -197.26 -1.80934e-17)
(1596.42 -202.748 2.00434e-17)
(1589.4 180.073 -2.51241e-21)
(1860.43 175.192 0)
(1898.12 155.747 1.03108e-20)
(1899.05 54.8137 -8.13259e-21)
(1893.79 102.114 -7.66153e-21)
(1945.01 194.93 0)
(1959.84 278.86 -7.50157e-21)
(1987.57 290.625 7.20563e-18)
(2000.36 264.046 -7.70666e-18)
(2010.71 198.899 0)
(1999.66 140.569 1.75827e-21)
(2011.28 66.7159 0)
(1997.82 4.74905 0)
(2006.19 -68.7964 1.82617e-18)
(1999.2 -132.41 -1.83982e-18)
(2004.75 -199.244 -7.31938e-21)
(1998.81 -253.886 -1.78229e-21)
(1992.9 -287.623 7.42678e-21)
(1963.74 -270.734 -8.63334e-18)
(1948.97 -203.153 7.13254e-18)
(1888.69 -104.838 -1.74423e-17)
(1896.46 -53.8079 3.27366e-17)
(1899.99 -157.506 -1.64785e-17)