/*--------------------------------*- C++ -*----------------------------------*\
| =========                 |                                                 |
| \\      /  F ield         | OpenFOAM: The Open Source CFD Toolbox           |
|  \\    /   O peration     | Version:  2112                                  |
|   \\  /    A nd           | Website:  www.openfoam.com                      |
|    \\/     M anipulation  |                                                 |
\*---------------------------------------------------------------------------*/
FoamFile
{
    version     2.0;
    format      ascii;
    arch        "LSB;label=32;scalar=64";
    class       surfaceScalarField;
    location    "0.00754";
    object      phi;
}
// * * * * * * * * * * * * * * * * * * * * * * * * * * * * * * * * * * * * * //

dimensions      [1 0 -1 0 0 0 0];

oriented        oriented;

internalField   nonuniform List<scalar> 
27436
(
-0.533461
8.19281
-0.093275
7.47165
-0.0847371
7.78714
-0.0686057
7.78543
-0.0640479
7.78934
-0.04938
7.7827
-0.0424223
7.79024
-0.0346951
7.78958
-0.0235957
7.78766
-0.0152969
7.78932
-0.00887347
7.78996
0.000305056
7.78809
0.0141861
7.78315
0.0310914
7.78081
0.0462369
7.7823
0.0549032
7.78824
0.0580159
7.79262
0.0658457
7.7897
0.0753489
7.78828
0.0895478
7.78253
0.0962078
7.7879
0.111753
7.78559
0.123824
7.7826
0.573806
7.46063
8.21794
-0.247193
8.43998
-0.0961611
7.32063
-0.0817992
7.77287
-0.0571174
7.76112
-0.0646105
7.79635
-0.0542078
7.77178
-0.0359146
7.77097
-0.0281731
7.78148
-0.0212495
7.78088
-0.0112625
7.78005
0.00129437
7.77864
0.0156812
7.7737
0.0151636
7.78376
0.021653
7.7743
0.0210757
7.78287
0.037714
7.77161
0.0466098
7.78372
0.0589603
7.77735
0.0823409
7.76491
0.0776779
7.7872
0.072217
7.79336
0.102981
7.75481
0.114257
7.77102
0.268308
7.30845
8.48914
-0.227279
8.66724
-0.141362
7.23458
-0.121274
7.75249
-0.109043
7.7483
-0.106838
7.79321
-0.104008
7.76846
-0.0938834
7.76121
-0.0731844
7.7592
-0.0584055
7.76295
-0.049771
7.76645
-0.0392307
7.76532
-0.0146993
7.74931
-0.0125691
7.78178
-0.0113609
7.77314
-0.00823496
7.77975
0.0127112
7.75065
0.0240612
7.77236
0.047359
7.75409
0.0609143
7.75136
0.0594177
7.78871
0.0638855
7.78892
0.0786965
7.73992
0.100883
7.74897
0.192219
7.21771
8.67554
-0.169604
8.83684
-0.139808
7.20467
-0.135056
7.74743
-0.115463
7.72818
-0.116153
7.79304
-0.107886
7.7604
-0.0909537
7.74554
-0.0715888
7.73896
-0.0573181
7.74668
-0.0432459
7.75071
-0.0290113
7.74988
-0.00721982
7.72739
0.00301688
7.77173
0.00490057
7.77132
0.0149698
7.76969
0.0353066
7.73033
0.0494308
7.75824
0.0697828
7.73377
0.0885531
7.7326
0.0942459
7.78304
0.0944675
7.78874
0.118982
7.71538
0.11168
7.75657
0.162353
7.1658
8.83301
-0.0736703
8.91047
-0.037019
7.16786
-0.093417
7.80344
-0.0648521
7.69899
-0.0717213
7.79903
-0.0680909
7.75606
-0.053391
7.73187
-0.035868
7.72114
-0.0241444
7.73332
-0.0139822
7.73919
-0.00158851
7.73607
0.0164904
7.70944
0.0268641
7.76153
0.0276522
7.77059
0.0370359
7.76032
0.0543777
7.71301
0.0644513
7.74818
0.0821503
7.71609
0.0969928
7.71776
0.101093
7.77894
0.0968879
7.79298
0.124868
7.68742
0.090263
7.79142
0.0975948
7.15768
8.93009
0.11842
8.79198
0.0434428
7.24263
-0.050951
7.89739
-0.0147009
7.66195
-0.0332917
7.81666
-0.0363277
7.75845
-0.0260435
7.72298
-0.0128154
7.70688
-0.00514034
7.72412
-0.00141662
7.73508
0.00551506
7.7273
0.0192394
7.69562
0.0256829
7.75534
0.0249898
7.77134
0.0296555
7.75567
0.0421675
7.7005
0.0463499
7.744
0.0584668
7.70399
0.0684506
7.70779
0.0691086
7.77829
0.0524226
7.8097
0.0884656
7.65136
-0.0138488
7.89417
-0.0210957
7.1648
8.91197
0.304503
8.48736
0.135786
7.41112
-0.00737689
8.04021
0.0209002
7.63274
-0.0242568
7.86063
-0.0516454
7.78444
-0.0605606
7.73368
-0.0670188
7.71292
-0.0820047
7.73745
-0.0949387
7.74899
-0.112306
7.74332
-0.120435
7.70365
-0.131165
7.76628
-0.146307
7.78655
-0.158085
7.76745
-0.166418
7.70883
-0.185042
7.76264
-0.192986
7.71197
-0.207964
7.72279
-0.228573
7.79891
-0.262741
7.84391
-0.284719
7.67335
-0.354812
7.96463
-0.658477
7.46797
8.25696
0.873199
7.61399
0.521737
7.76235
0.409748
8.15172
0.33106
7.71022
0.266211
7.92488
0.221525
7.82956
0.193898
7.76419
0.1716
7.73645
0.142727
7.76481
0.11474
7.77929
0.0826493
7.77494
0.060856
7.72564
0.0380392
7.78926
0.00673641
7.81793
-0.0192523
7.79346
-0.0445321
7.7341
-0.0743444
7.79246
-0.10071
7.73836
-0.130646
7.75276
-0.167051
7.83531
-0.228151
7.90504
-0.27902
7.72429
-0.406184
8.09208
-0.69369
7.75535
7.56668
0.592884
7.02093
0.409973
7.94526
0.237205
8.32424
0.187667
7.75873
0.127309
7.98366
0.092052
7.8656
0.0853963
7.77359
0.084239
7.739
0.0793566
7.76886
0.0765168
7.78433
0.0714843
7.78104
0.0705395
7.72673
0.0768836
7.783
0.0767655
7.81817
0.0769313
7.79333
0.072211
7.7388
0.0674262
7.79724
0.0629484
7.74289
0.0562859
7.7595
0.029474
7.86216
-0.02663
7.96115
-0.046533
7.74421
-0.219233
8.26499
-0.372354
7.9085
7.19423
-3.05102
10.0723
-3.39123
8.28529
-2.7655
7.69735
-2.61927
7.61135
-2.30342
7.66794
-1.9566
7.51906
-1.64724
7.46557
-1.36689
7.45925
-1.084
7.48632
-0.780652
7.48134
-0.493851
7.49655
-0.20878
7.44168
0.0974187
7.47676
0.403728
7.51203
0.694829
7.50231
0.96616
7.46744
1.26517
7.49824
1.54194
7.46612
1.83574
7.46572
2.19653
7.50136
2.50205
7.65559
2.65984
7.58648
3.23521
7.68957
2.95083
8.19304
10.1431
-4.25791
14.331
-4.36353
8.3917
-4.19147
7.52351
-3.89271
7.31228
-3.31917
7.09437
-2.80066
7.00053
-2.34481
7.01081
-1.91929
7.03453
-1.47132
7.03837
-1.02096
7.02871
-0.561447
7.03897
-0.121477
7.00146
0.339999
7.01518
0.811929
7.04033
1.25924
7.05513
1.67741
7.04926
2.13249
7.04317
2.57085
7.0278
3.02492
7.0117
3.5741
6.95224
4.13077
7.09883
4.44203
7.27519
4.61361
7.5176
4.56495
8.24154
14.7075
-2.75387
17.0881
-4.85601
10.493
-4.97544
7.64032
-4.14032
6.47618
-3.62951
6.58281
-3.17423
6.5456
-2.69758
6.53537
-2.21607
6.55378
-1.71859
6.53981
-1.22575
6.5323
-0.722275
6.53571
-0.244064
6.52268
0.25722
6.51382
0.762187
6.5357
1.25983
6.55772
1.71809
6.59109
2.20585
6.5555
2.69667
6.53713
3.19271
6.5158
3.66715
6.47794
4.24779
6.51818
5.09763
6.42524
4.71824
7.89633
2.78038
10.1788
17.4872
2.36899
14.7224
0.166431
12.6954
-5.00733
12.8109
-3.89687
5.3613
-3.80525
6.49149
-3.30598
6.04802
-2.87771
6.10795
-2.37489
6.05024
-1.85227
6.01531
-1.33069
6.00779
-0.810417
6.01404
-0.307066
6.01866
0.209898
5.99689
0.740541
6.00555
1.26549
6.03316
1.78954
6.06731
2.28085
6.06437
2.75994
6.05825
3.19993
6.07608
3.75129
5.92689
3.97454
6.29514
5.10366
5.2954
-0.174368
13.1733
-2.39771
12.4011
15.0892
2.45738
12.2682
3.52344
11.6303
3.44891
12.8789
-0.814531
9.62864
-3.61838
9.29936
-3.20459
5.63455
-2.97822
5.88122
-2.47742
5.54776
-1.9476
5.48405
-1.46609
5.52499
-0.977653
5.52422
-0.472458
5.51336
0.0259698
5.49874
0.530965
5.5012
1.03427
5.53062
1.53005
5.57205
2.03061
5.56397
2.48734
5.60167
2.61679
5.94709
2.96271
5.58181
-0.0871247
9.34549
-4.16255
9.37298
-3.87623
12.8856
-2.95654
11.4801
12.1317
1.88206
10.3875
3.88339
9.63075
5.76878
10.9893
4.96259
10.434
4.07754
10.1852
-1.22473
10.9433
-2.40185
7.06092
-2.05632
5.19955
-1.63497
5.06259
-1.14103
5.0322
-0.605675
4.98937
-0.0640124
4.97258
0.469912
4.96568
1.00281
4.96948
1.54407
4.99062
2.05965
5.05748
2.45123
5.17241
2.80754
5.24528
1.56653
7.18875
-3.62883
10.7779
-4.24605
9.96389
-4.87269
9.99957
-3.05945
11.0716
-1.33889
9.75904
10.7921
1.08292
9.30587
2.15625
8.55889
3.97268
9.17365
4.92551
9.48108
5.05874
10.0535
5.79929
10.2057
2.73302
10.1278
1.1361
6.79917
-0.0198723
6.22215
-0.36854
5.38302
-0.239818
4.86207
0.0454607
4.68816
0.392169
4.61949
0.708734
4.65333
0.916841
4.78336
0.797545
5.17718
-0.508174
6.47827
-2.29517
7.03161
-5.02208
9.91563
-4.27086
10.028
-3.9628
9.65596
-3.48933
9.52581
-1.84208
9.42425
-0.741367
8.65804
10.0502
2.0138
7.29284
3.1916
7.38284
4.39141
7.97891
5.95354
7.92605
7.02931
8.97895
6.63209
10.6035
4.64755
12.1119
2.10311
9.35094
0.847233
7.48542
0.163531
6.07493
-0.0176136
5.04973
-0.0473154
4.72218
-0.0117082
4.58643
0.00304231
4.64083
-0.131117
4.91858
-0.761622
5.80904
-2.30161
8.01993
-4.81842
9.54951
-6.74264
11.8423
-7.21387
10.5014
-6.47476
8.91613
-5.02208
8.07357
-3.72101
8.12337
-2.57555
7.51247
7.47454
2.52911
4.76343
4.12428
5.78743
4.63835
7.46849
4.27355
8.29457
4.45981
8.79472
4.1226
10.9417
4.06582
12.1702
2.44277
10.9734
1.31141
8.61908
0.620175
6.77108
0.272875
5.40199
-0.0349858
5.03426
-0.351579
4.90627
-0.671351
4.96222
-1.03887
5.2868
-1.86379
6.63343
-3.13796
9.29025
-4.84362
11.2513
-5.89612
12.8969
-6.33694
10.9458
-5.86964
8.45647
-5.87947
8.08496
-4.93842
7.18227
-2.93698
5.51104
4.53754
3.16387
1.5984
6.25521
2.69382
8.45452
5.26711
8.14202
8.61547
6.35817
10.5784
5.85703
11.4428
5.54471
12.4825
4.90113
11.6131
4.1424
9.37371
3.22433
7.68699
1.95058
6.67553
0.793857
6.19106
-0.342281
6.04253
-1.53013
6.14957
-2.86714
6.62264
-3.97742
7.74085
-4.37299
9.68037
-4.73815
11.6123
-4.40805
12.5663
-4.98066
11.5216
-7.23761
10.7149
-7.81896
8.66897
-5.78218
5.14397
-2.95753
2.68548
1.57972
1.19663
0.400325
2.9035
0.985093
4.93924
3.22871
6.46322
7.09427
5.69589
11.3474
5.41423
11.7236
5.41087
12.4866
4.86114
12.1617
3.79612
10.4352
2.63651
8.84396
1.48971
7.82064
0.369717
7.30961
-0.755809
7.16726
-1.90594
7.29928
-3.14011
7.85622
-4.4201
9.01891
-5.43473
10.6914
-5.87304
12.0469
-5.7913
12.4819
-5.99596
11.7246
-6.69607
11.4186
-4.93644
6.91675
-2.95751
3.16749
-1.20886
0.936881
0.370674
0.581161
-0.183145
0.850814
0.713196
0.990252
3.08686
1.27564
6.80525
2.2907
10.3297
2.95396
11.0596
3.44031
12.0015
3.31952
12.2817
2.62587
11.1257
1.77091
9.69621
0.927692
8.66184
0.0913571
8.14434
-0.737
7.99486
-1.6084
8.17034
-2.53218
8.77938
-3.46197
9.94714
-4.09119
11.318
-4.08212
12.0352
-3.4519
11.8489
-2.75707
11.0275
-1.65151
10.316
-1.14076
6.41085
-0.887185
2.91459
-0.594316
0.643747
-0.223999
-0.159516
-0.0240541
-0.308438
0.860463
-0.789022
3.5662
-0.704347
6.71742
0.410662
9.21401
1.35515
10.1146
1.92381
11.4337
2.04049
12.1639
1.74321
11.4209
1.25524
10.1823
0.701821
9.21358
0.146965
8.69811
-0.411974
8.55346
-0.971363
8.7292
-1.52356
9.33062
-1.97491
10.3973
-2.17834
11.5204
-1.98109
11.8366
-1.32083
11.1872
-0.309899
10.0136
0.806681
9.19922
0.791839
6.42854
0.373791
3.33463
0.211264
0.806587
-0.0126716
-0.627456
0.603046
-1.48292
1.71562
-1.83142
3.91222
-1.80382
6.68463
-0.895823
8.30349
-0.0404095
9.25948
0.471558
10.9214
0.769699
11.865
0.843344
11.346
0.72289
10.3018
0.492576
9.44306
0.20968
8.98091
-0.0751686
8.83838
-0.343764
8.99741
-0.539946
9.52602
-0.596362
10.4532
-0.461104
11.3845
-0.194086
11.5691
0.415271
10.577
1.26737
9.15799
2.15649
8.30911
2.04494
6.54202
1.61344
3.76705
0.633579
1.78733
0.621244
-0.441109
1.04395
-1.59796
2.87132
-2.48115
4.79247
-2.56122
6.76102
-2.0593
7.80244
-1.59055
8.78907
-1.02147
10.3513
-0.496901
11.3395
-0.146545
10.9955
-0.00600058
10.1612
0.00926584
9.4287
-0.0455326
9.03649
-0.136529
8.92996
-0.194532
9.05573
-0.175936
9.50746
-0.0117236
10.2892
0.34567
11.0277
0.842192
11.0729
1.34167
10.0775
1.88445
8.61379
2.44972
7.74171
2.37606
6.61599
1.44433
4.69964
0.400519
2.83068
1.022
-0.421132
1.46594
-1.46481
3.91332
-2.24724
5.57287
-2.4243
6.93615
-2.17952
7.55689
-1.89732
8.50479
-1.44578
9.89885
-0.915431
10.8085
-0.479672
10.5609
-0.218757
9.90225
-0.10084
9.31248
-0.0614268
8.99833
-0.0272553
8.89688
0.0245237
9.00498
0.159671
9.37291
0.434328
10.0152
0.865256
10.5972
1.37395
10.5644
1.78603
9.6658
2.08893
8.30859
2.35237
7.47755
2.15461
6.81295
1.34571
5.50986
0.369127
3.80754
1.39409
-0.352804
1.82152
-1.26447
4.82644
-2.08643
6.39343
-2.42881
7.27674
-2.39599
7.52437
-2.16604
8.27409
-1.76953
9.50112
-1.20186
10.2405
-0.699955
10.0613
-0.349445
9.5553
-0.138979
9.10438
0.0211416
8.8397
0.147516
8.77187
0.308341
8.84553
0.539666
9.14272
0.925981
9.62957
1.43452
10.0894
1.96424
10.0351
2.29311
9.33699
2.49388
8.10786
2.52163
7.44816
2.15457
7.1793
1.28198
6.38133
0.365259
4.72654
1.75905
-0.440428
2.26449
-1.4112
5.80067
-2.22651
7.20808
-2.54947
7.59815
-2.58262
7.55717
-2.46639
8.15622
-2.15875
9.19238
-1.65096
9.73372
-1.14487
9.55901
-0.740257
9.15423
-0.444818
8.81113
-0.228825
8.6251
-0.0219721
8.56651
0.195632
8.62925
0.489001
8.85045
0.875395
9.24407
1.3486
9.61653
1.82711
9.55655
2.15752
9.0073
2.28737
7.97632
2.22953
7.50563
1.95684
7.45041
1.20389
7.13342
0.304314
5.62013
2.06777
-0.342954
2.61007
-1.20281
6.66494
-1.96312
7.96851
-2.19078
7.82619
-2.37164
7.73581
-2.28296
8.06622
-1.98507
8.89367
-1.48487
9.23596
-1.00383
9.08157
-0.616692
8.77016
-0.317357
8.5134
-0.0526899
8.36163
0.18146
8.33372
0.44538
8.36677
0.755388
8.54146
1.17485
8.82513
1.65582
9.13603
2.1069
9.1057
2.34874
8.76589
2.41508
7.91046
2.21837
7.70004
1.91872
7.74987
1.15607
7.89438
0.363076
6.41576
2.44006
-0.284362
2.89759
-1.17236
7.55926
-1.90957
8.70517
-2.09364
8.00847
-2.2412
7.88152
-2.17529
7.99766
-1.91766
8.63592
-1.48813
8.80893
-1.03926
8.63604
-0.640102
8.37305
-0.298626
8.17291
-0.0160816
8.08008
0.26774
8.05132
0.555781
8.08001
0.903511
8.19488
1.29824
8.43132
1.73672
8.69791
2.15323
8.68929
2.39597
8.52342
2.44113
7.8652
2.27564
7.86448
2.091
7.93326
1.34809
8.63621
0.424392
7.34832
2.86687
-0.529095
3.43096
-1.42845
8.46624
-2.07264
9.35082
-2.21065
8.14692
-2.41751
8.08553
-2.45348
8.03113
-2.24277
8.42586
-1.78467
8.35358
-1.32903
8.18217
-0.934734
7.97961
-0.610257
7.8491
-0.292945
7.76389
-0.000422542
7.7602
0.313436
7.76747
0.647744
7.86147
1.05412
8.02549
1.48307
8.26934
1.87609
8.29648
2.07667
8.32303
2.05265
7.88874
1.90318
8.01092
1.70531
8.13026
1.09929
9.24212
0.364624
8.07353
3.21171
-0.449379
3.8838
-1.27427
9.30008
-1.94041
10.0187
-2.0064
8.2113
-2.03499
8.11097
-2.03038
8.02543
-1.82268
8.21846
-1.46629
7.99817
-1.08729
7.80367
-0.723124
7.61555
-0.374476
7.5012
-0.0724525
7.46302
0.24252
7.44656
0.55163
7.4595
0.897466
7.51673
1.26039
7.66346
1.6406
7.88959
1.9974
7.93959
2.18264
8.13718
2.14838
7.92346
2.11931
8.03941
1.94784
8.30085
1.383
9.80873
0.580659
8.88942
3.811
-0.404635
4.29085
-0.801842
9.70605
-1.53392
10.7525
-1.7411
8.41752
-1.82575
8.19322
-1.78693
7.98602
-1.65523
8.08734
-1.32487
7.6682
-0.978837
7.45707
-0.652626
7.28897
-0.366751
7.21566
-0.0614531
7.15883
0.225231
7.16102
0.526078
7.15978
0.825532
7.21799
1.18113
7.30825
1.52473
7.54609
1.80557
7.65858
1.91586
8.02623
1.96502
7.87283
1.9003
8.10314
1.848
8.35017
1.11487
10.5396
0.568365
9.46779
4.41937
-0.657978
4.94704
-1.11381
10.1669
-1.79156
11.4316
-1.96918
8.5925
-1.95431
8.17474
-1.88713
7.91855
-1.70499
7.90432
-1.4212
7.38286
-1.12592
7.16029
-0.827693
6.98992
-0.510967
6.89949
-0.230209
6.87896
0.0690353
6.86272
0.357543
6.87208
0.66545
6.9107
0.953321
7.02083
1.24486
7.25443
1.5282
7.37494
1.69036
7.86293
1.74481
7.81734
1.75029
8.09614
1.63756
8.4616
0.779232
11.3933
0.353508
9.90608
4.75154
-0.465247
5.41275
-0.756295
10.4618
-1.34482
12.0216
-1.58747
8.8343
-1.6576
8.24284
-1.60621
7.86764
-1.45631
7.75394
-1.19259
7.1168
-0.897661
6.86361
-0.600528
6.69185
-0.344501
6.64374
-0.0572331
6.5924
0.209503
6.59659
0.489271
6.59286
0.754604
6.64563
1.0641
6.71132
1.34812
6.9701
1.58849
7.13354
1.73855
7.71195
1.78289
7.77153
1.72221
8.15754
1.40391
8.77798
0.966659
11.8427
0.417608
10.4507
5.15332
-0.333366
5.74668
-0.447688
10.574
-0.965208
12.5396
-1.52927
9.39531
-1.56588
8.27631
-1.47825
7.77786
-1.26229
7.53472
-1.05322
6.905
-0.826005
6.63407
-0.592974
6.4578
-0.318236
6.36926
-0.0804977
6.35502
0.180069
6.33631
0.423865
6.34939
0.683218
6.3863
0.915571
6.47875
1.15202
6.73303
1.37503
6.90973
1.56685
7.51894
1.64736
7.68873
1.67837
8.12419
1.2072
9.24707
0.689674
12.3605
0.38985
10.7601
5.54112
-0.427108
6.1722
-0.663626
10.8086
-0.922616
12.8016
-1.57378
10.0473
-1.55927
8.26006
-1.50961
7.72727
-1.37209
7.3953
-1.1297
6.65975
-0.902806
6.40506
-0.64831
6.2025
-0.437116
6.15811
-0.185644
6.10365
0.040927
6.10978
0.283804
6.10648
0.514252
6.15578
0.772632
6.22014
0.9841
6.52084
1.20045
6.69257
1.33352
7.38472
1.37029
7.65005
1.32192
8.17296
0.65931
9.90953
0.373287
12.6512
0.333058
10.7961
5.9111
-0.239104
6.40836
-0.311087
10.874
-0.456728
12.9467
-1.23303
10.8236
-1.37724
8.40228
-1.33289
7.68146
-1.11715
7.17628
-0.900278
6.44029
-0.705362
6.20819
-0.51459
6.011
-0.270094
5.91345
-0.0622956
5.89575
0.174384
5.87293
0.390706
5.89012
0.615529
5.93051
0.807842
6.027
1.02509
6.30228
1.26078
6.45534
1.44005
7.20436
1.47779
7.61075
1.38293
8.26567
0.629767
10.6596
0.576718
12.7095
0.450349
10.8855
6.39426
-0.0321188
6.43939
-0.0463196
10.8818
-0.0602663
12.9605
-0.743738
11.5105
-1.19132
8.8501
-1.11986
7.60789
-1.0258
7.07837
-0.84204
6.25425
-0.651502
6.01576
-0.438311
5.79737
-0.266821
5.7418
-0.0561284
5.68477
0.133316
5.68319
0.341024
5.6821
0.527395
5.74392
0.748622
5.8055
0.92291
6.12749
1.10318
6.27365
1.24767
7.05697
1.33499
7.52036
0.929204
8.67015
0.280785
11.3071
0.26581
12.7276
0.21322
10.9598
6.63461
-0.220335
6.66118
-0.380651
11.0377
-0.211575
12.7867
-0.693128
11.9919
-1.30683
9.46067
-1.21769
7.51806
-1.05173
6.91036
-0.8657
6.06745
-0.686999
5.83578
-0.533758
5.64367
-0.334334
5.54199
-0.1613
5.51135
0.0359869
5.48546
0.212198
5.50554
0.402428
5.55298
0.56377
5.64333
0.761685
5.92831
0.933686
6.10071
1.03693
6.95324
1.10943
7.44643
0.43478
9.34074
-0.111507
11.8541
0.0332277
12.5818
0.0608802
10.9509
6.68752
-0.0342995
6.70019
-0.0734833
11.075
0.138097
12.5739
-0.122352
12.2539
-0.851872
10.1906
-0.946633
7.61098
-0.854629
6.81608
-0.726232
5.9376
-0.57371
5.68202
-0.376797
5.44659
-0.223508
5.38829
-0.0403018
5.32766
0.127479
5.31724
0.307764
5.32486
0.472341
5.38803
0.675127
5.43981
0.814398
5.78821
0.95857
5.95453
1.09616
6.81281
1.00553
7.53429
0.348355
9.99379
0.076161
12.1276
0.195454
12.4647
0.115594
11.0225
6.79066
0.0168465
6.68809
0.0626771
11.0315
0.275735
12.362
0.283439
12.2492
-0.462895
10.9325
-0.896085
8.04284
-0.721487
6.63903
-0.619614
5.83479
-0.486241
5.54814
-0.368669
5.32875
-0.197105
5.21643
-0.0483877
5.17842
0.115766
5.15258
0.266606
5.17352
0.424729
5.22931
0.556823
5.30706
0.72363
5.62031
0.823056
5.85388
1.02274
6.61103
0.723492
7.83174
-0.0410765
10.7582
-0.175652
12.2618
0.0149315
12.2749
0.00987873
11.0387
6.71299
-0.124649
6.81569
-0.107996
11.0173
0.0456406
12.2105
0.194381
12.1022
-0.263019
11.3879
-0.767947
8.54578
-0.79602
6.6669
-0.669818
5.70919
-0.576791
5.45461
-0.406842
5.15854
-0.278292
5.08712
-0.120651
5.02018
0.0230262
5.00836
0.171739
5.02432
0.311949
5.0884
0.471596
5.14663
0.553765
5.53695
0.630582
5.77615
0.682627
6.55826
0.0984824
8.41322
-0.521282
11.3744
-0.335674
12.074
-0.240266
12.1595
-0.099972
10.8451
6.58886
-0.0366537
6.85341
0.0235866
10.9607
0.177493
12.059
0.541367
11.7409
0.177813
11.7508
-0.444508
9.16712
-0.630789
6.85142
-0.499699
5.5764
-0.407235
5.36138
-0.316753
5.0677
-0.17027
4.94046
-0.0401341
4.88945
0.10501
4.86262
0.242041
4.88672
0.376755
4.95317
0.484172
5.03845
0.616344
5.40309
0.736303
5.65384
0.60209
6.68804
0.0132262
9.00002
-0.33667
11.7272
-0.057626
11.7912
0.0699923
12.0157
0.116854
10.7937
6.72869
0.0922117
6.76099
0.256473
10.7992
0.30122
12.0164
0.552451
11.4941
0.740661
11.5645
0.0503281
9.86062
-0.435004
7.32928
-0.454449
5.59588
-0.383256
5.29092
-0.259672
4.94391
-0.159587
4.8394
-0.0310948
4.76035
0.0905114
4.74041
0.218384
4.7582
0.331061
4.83959
0.446876
4.92213
0.534479
5.31452
0.586441
5.60123
0.270243
7.00277
-0.554187
9.82376
-0.449984
11.6211
-0.147484
11.4766
-0.0845977
11.948
-0.0364205
10.7689
6.74986
-0.124521
6.8853
-0.0103962
10.688
0.0870038
11.9202
0.323746
11.2572
0.674975
11.2108
0.128436
10.4057
-0.351876
7.81063
-0.459609
5.70433
-0.372394
5.20292
-0.309893
4.88031
-0.203912
4.73318
-0.0981902
4.654
0.0224794
4.61907
0.132202
4.64782
0.233563
4.73766
0.306263
4.84883
0.386334
5.23293
0.289032
5.69772
-0.195653
7.48669
-0.87171
10.4985
-0.537504
11.2859
-0.301333
11.2427
-0.258584
11.9133
-0.076953
10.6042
6.70543
0.04906
6.83632
0.233197
10.5084
0.278054
11.8761
0.464144
11.0769
0.85463
10.8249
0.78073
10.4793
0.0323672
8.55529
-0.306098
6.04256
-0.300291
5.19712
-0.208003
4.7883
-0.128639
4.65283
-0.0283769
4.55312
0.074836
4.51519
0.177714
4.54426
0.266633
4.64777
0.354276
4.76035
0.377407
5.20813
0.0948104
5.97747
-0.59624
8.17548
-0.774557
10.6776
-0.354942
10.8689
-0.139831
11.0275
-0.106838
11.8836
0.0320349
10.4499
6.74458
0.0645436
6.77173
0.295043
10.2808
0.405456
11.7675
0.571123
10.9096
0.871494
10.5219
1.00048
10.3494
0.402915
9.14777
-0.0615839
6.5098
-0.202161
5.33872
-0.160898
4.74662
-0.0910821
4.58289
-0.0179268
4.47938
0.0721145
4.4245
0.150784
4.46494
0.232265
4.56589
0.298732
4.69365
0.206176
5.29994
-0.192567
6.3757
-0.874057
8.85534
-0.700632
10.5048
-0.411986
10.5896
-0.245609
10.8784
-0.154518
11.773
0.0287391
10.2449
6.77044
-0.0172583
6.78957
0.154151
10.1113
0.275956
11.6472
0.414052
10.7723
0.637144
10.2982
1.02605
9.95838
0.787622
9.3855
0.0747556
7.22677
-0.201738
5.61568
-0.185681
4.72979
-0.126525
4.52242
-0.0561313
4.40845
0.00819582
4.35965
0.0726963
4.39978
0.133486
4.50399
0.160392
4.66547
-0.117185
5.57615
-0.815274
7.07589
-1.22176
9.26385
-0.778488
10.0628
-0.565603
10.382
-0.440719
10.7531
-0.296102
11.6169
-0.0696935
9.98945
6.69021
-0.0144717
6.80311
0.251842
9.84638
0.44024
11.4587
0.535089
10.6811
0.739241
10.0946
1.01468
9.68225
1.01512
9.37768
0.51798
7.72406
0.0276213
6.10779
-0.0933479
4.85137
-0.0595513
4.48863
-0.0128342
4.36123
0.0356614
4.31066
0.089488
4.34536
0.132297
4.46063
0.0479673
4.74969
-0.319395
5.94319
-0.884043
7.64084
-1.02377
9.40091
-0.702811
9.74352
-0.473762
10.1578
-0.371761
10.6479
-0.179981
11.4043
0.0653212
9.73294
6.74271
0.0306361
6.77954
0.29315
9.58091
0.560297
11.1919
0.647183
10.5891
0.789034
9.94772
0.953245
9.51321
1.3279
9.00379
0.889911
8.16456
0.234988
6.77179
0.0135518
5.07278
-0.011418
4.51245
0.012111
4.33727
0.0309726
4.29135
0.0623651
4.31335
0.0639671
4.45783
-0.124488
4.93797
-0.849627
6.66729
-1.25825
8.05424
-0.958545
9.11164
-0.736189
9.51837
-0.551308
9.96902
-0.444782
10.5346
-0.202007
11.1594
0.0336175
9.49985
6.7617
0.0432347
-0.327565
0.0805465
-0.44205
0.102319
-0.529359
0.139473
-0.680127
0.177517
-0.850515
0.184455
-0.871975
0.170638
-0.796395
0.140237
-0.654206
0.107685
-0.50995
0.0763954
-0.348626
0.0578897
-0.186693
0.0616617
-0.0756224
0.0811949
-0.0892179
0.131627
-0.18006
0.192812
-0.372873
0.234565
-0.540844
0.254041
-0.694114
0.241684
-0.882857
0.164358
-1.25129
0.0496235
-2.45974
-0.138944
-2.67733
-0.180992
-2.76239
-0.198875
-2.83341
-0.216438
-2.92233
-0.24934
-3.0899
-0.21977
-3.26855
-0.162981
-3.32821
-0.097602
-3.39028
-0.0370302
-3.36201
-3.41212
0.064182
-0.371309
0.104943
-0.473161
0.135065
-0.562341
0.18125
-0.754621
0.196158
-0.880304
0.176796
-0.848327
0.136767
-0.739392
0.098233
-0.586202
0.0645822
-0.451174
0.0387933
-0.30852
0.0282479
-0.17197
0.0399549
-0.082134
0.0652887
-0.110038
0.117078
-0.21451
0.173968
-0.398465
0.216059
-0.568004
0.222068
-0.760698
0.177667
-1.10162
0.104867
-2.06317
-0.0586696
-2.60057
-0.164097
-2.69501
-0.183923
-2.71
-0.190795
-2.76992
-0.206953
-2.85096
-0.235599
-3.03812
-0.204894
-3.19882
-0.148109
-3.23517
-0.0872538
-3.2974
-0.0252329
-3.29059
-3.34039
0.0509643
-0.404708
0.0777522
-0.494202
0.107943
-0.606725
0.128237
-0.796295
0.134033
-0.893512
0.116336
-0.830392
0.0817606
-0.682864
0.0516763
-0.537303
0.0248777
-0.413266
0.00637493
-0.288872
0.00355483
-0.175577
0.0212346
-0.10887
0.0523388
-0.150094
0.103289
-0.2672
0.151189
-0.452935
0.178369
-0.665303
0.154942
-1.0139
0.10237
-1.91898
-0.0566892
-2.30822
-0.158878
-2.58116
-0.20682
-2.64641
-0.225788
-2.64432
-0.230276
-2.65761
-0.24835
-2.80424
-0.270174
-3.02968
-0.230016
-3.11195
-0.164329
-3.15372
-0.0981375
-3.21588
-0.0327323
-3.22681
-3.27117
0.0291888
-0.423968
0.0510203
-0.518524
0.0716108
-0.65091
0.0859143
-0.835835
0.081752
-0.897551
0.0535129
-0.807928
0.0247506
-0.645616
0.000736929
-0.518125
-0.0177813
-0.403013
-0.0256203
-0.296515
-0.0191772
-0.208066
0.00683472
-0.170872
0.0401677
-0.22704
0.0858478
-0.371919
0.12026
-0.599938
0.1136
-0.944099
0.0799742
-1.79333
-0.0488787
-2.12254
-0.172626
-2.42031
-0.228159
-2.52995
-0.251017
-2.5632
-0.255678
-2.5739
-0.258757
-2.51916
-0.287323
-2.75209
-0.29191
-2.95085
-0.246204
-3.02478
-0.17718
-3.07332
-0.108124
-3.13815
-0.0368982
-3.15625
-3.18299
0.0256979
-0.446184
0.0428168
-0.546851
0.0592127
-0.69491
0.059187
-0.866964
0.0413787
-0.903963
0.0137315
-0.796959
-0.0122681
-0.640691
-0.0352466
-0.520617
-0.0485726
-0.42822
-0.0510285
-0.346294
-0.0366826
-0.291872
-0.00493476
-0.293381
0.031716
-0.386363
0.0701382
-0.615956
0.0752464
-1.16647
0.0623167
-1.66343
-0.0280959
-2.0029
-0.127883
-2.16949
-0.230211
-2.40239
-0.262072
-2.45384
-0.266574
-2.47916
-0.259411
-2.50412
-0.268884
-2.49625
-0.304571
-2.68032
-0.300254
-2.86416
-0.249143
-2.93754
-0.179641
-2.99158
-0.109854
-3.05634
-0.0411757
-3.07663
-3.08144
0.020385
-0.468954
0.0326939
-0.580246
0.0408921
-0.7394
0.0318724
-0.907998
0.0083966
-0.923709
-0.0230505
-0.812421
-0.0488559
-0.667743
-0.0681397
-0.582219
-0.0782739
-0.52586
-0.0706762
-0.475448
-0.0475652
-0.459335
-0.0129843
-0.521651
0.0160909
-0.72775
0.031598
-1.24737
0.0251017
-1.55862
-0.0208711
-1.89192
-0.0936339
-2.05508
-0.189655
-2.17792
-0.261471
-2.34426
-0.279503
-2.3765
-0.273851
-2.39601
-0.261558
-2.42671
-0.274728
-2.44681
-0.316082
-2.63607
-0.302168
-2.78041
-0.245938
-2.85611
-0.175065
-2.91304
-0.104971
-2.97542
-0.0403313
-2.99325
-2.99214
0.0173553
-0.498572
0.0197655
-0.619503
0.0166925
-0.792009
-0.00104957
-0.957349
-0.0245005
-0.969805
-0.0555272
-0.883694
-0.0839281
-0.795401
-0.103126
-0.76072
-0.106671
-0.724168
-0.0918824
-0.719263
-0.0697374
-0.786309
-0.0479864
-0.952035
-0.0234612
-1.16768
-0.0188469
-1.51775
-0.039526
-1.7635
-0.0839017
-1.96402
-0.150249
-2.0563
-0.244877
-2.16718
-0.287178
-2.28067
-0.293452
-2.30067
-0.280367
-2.31451
-0.265136
-2.30169
-0.280725
-2.38759
-0.320042
-2.56541
-0.30449
-2.69707
-0.244616
-2.77219
-0.172635
-2.82791
-0.1015
-2.88714
-0.0432511
-2.90714
-2.9042
0.00946616
-0.535402
-0.000909054
-0.668858
-0.0167105
-0.856646
-0.040366
-1.02907
-0.0683285
-1.07598
-0.104413
-1.09569
-0.131024
-1.09225
-0.142625
-1.07164
-0.143135
-1.006
-0.129588
-1.01491
-0.109097
-1.10418
-0.0886413
-1.25655
-0.0701374
-1.48203
-0.0701742
-1.7003
-0.0985997
-1.85759
-0.144329
-1.96662
-0.201627
-2.03455
-0.281922
-2.16398
-0.316378
-2.20648
-0.318883
-2.21689
-0.282013
-2.2214
-0.27237
-2.1865
-0.286712
-2.32261
-0.330553
-2.49116
-0.306536
-2.60748
-0.24231
-2.66815
-0.171844
-2.71877
-0.106471
-2.77084
-0.0482541
-2.79634
-2.79288
-0.00337633
-0.583495
-0.0267637
-0.735177
-0.0588094
-0.935522
-0.100379
-1.13628
-0.138626
-1.25738
-0.168229
-1.26026
-0.185986
-1.29715
-0.198127
-1.32307
-0.198893
-1.28417
-0.185766
-1.31664
-0.162787
-1.41514
-0.138908
-1.53494
-0.1226
-1.67683
-0.124774
-1.78595
-0.149901
-1.86399
-0.1923
-1.93622
-0.242619
-1.99029
-0.315477
-2.10285
-0.343969
-2.11926
-0.316895
-2.11702
-0.2839
-2.10407
-0.283309
-2.11631
-0.294025
-2.25255
-0.33608
-2.40819
-0.297791
-2.50266
-0.237036
-2.55165
-0.172362
-2.60686
-0.111771
-2.66212
-0.0545709
-2.6958
-2.68843
-0.0177908
-0.648528
-0.0619892
-0.816449
-0.116676
-1.03746
-0.178861
-1.2139
-0.221104
-1.28971
-0.245885
-1.32298
-0.25478
-1.38027
-0.270013
-1.43682
-0.270998
-1.45625
-0.253417
-1.50983
-0.223549
-1.58104
-0.194888
-1.65286
-0.177484
-1.71859
-0.179362
-1.78343
-0.192904
-1.83982
-0.22778
-1.88265
-0.271929
-1.94066
-0.345843
-2.00958
-0.34148
-2.01214
-0.307302
-1.99099
-0.289963
-1.92792
-0.292924
-2.0532
-0.300283
-2.18565
-0.325122
-2.31271
-0.288003
-2.3962
-0.234307
-2.44687
-0.176521
-2.50152
-0.116334
-2.5586
-0.0564407
-2.58673
-2.56621
-0.0360303
-0.732017
-0.105684
-0.905093
-0.186177
-1.10158
-0.254194
-1.22345
-0.299426
-1.28198
-0.328334
-1.33006
-0.332905
-1.38397
-0.339471
-1.43594
-0.336131
-1.48422
-0.316387
-1.5525
-0.286056
-1.63288
-0.254838
-1.68163
-0.231842
-1.70999
-0.22317
-1.75054
-0.227572
-1.78202
-0.252562
-1.80484
-0.304068
-1.87182
-0.346504
-1.90181
-0.326608
-1.87999
-0.299543
-1.80488
-0.300891
-1.85242
-0.304618
-1.9934
-0.309437
-2.11645
-0.316986
-2.21998
-0.28415
-2.28941
-0.230515
-2.34107
-0.175351
-2.39129
-0.117221
-2.44784
-0.0583991
-2.4656
-2.43919
-0.0582761
-0.821097
-0.150598
-0.967861
-0.243046
-1.11483
-0.322881
-1.20004
-0.388407
-1.25715
-0.405208
-1.31302
-0.41626
-1.37233
-0.419051
-1.44047
-0.411566
-1.51185
-0.388113
-1.55926
-0.348233
-1.60264
-0.308926
-1.63272
-0.277677
-1.64709
-0.256991
-1.66949
-0.255519
-1.68922
-0.27155
-1.71322
-0.333723
-1.75885
-0.334626
-1.76044
-0.307849
-1.70868
-0.30287
-1.69788
-0.310492
-1.79485
-0.318148
-1.93357
-0.318084
-2.04343
-0.306231
-2.11906
-0.274001
-2.17979
-0.223844
-2.23679
-0.172143
-2.28407
-0.120226
-2.33284
-0.0633044
-2.34567
-2.31891
-0.0782014
-0.890283
-0.190704
-0.993482
-0.298437
-1.09442
-0.386734
-1.15688
-0.44007
-1.21042
-0.475115
-1.24621
-0.490407
-1.29867
-0.492009
-1.36954
-0.474882
-1.42106
-0.43843
-1.46236
-0.391693
-1.49462
-0.346864
-1.51976
-0.309022
-1.54068
-0.282953
-1.56342
-0.276798
-1.57992
-0.306706
-1.60709
-0.328743
-1.62217
-0.315813
-1.5982
-0.308326
-1.57228
-0.31203
-1.62612
-0.324069
-1.74557
-0.331686
-1.87337
-0.322146
-1.95722
-0.29652
-2.01653
-0.264502
-2.0754
-0.219316
-2.13508
-0.173011
-2.17846
-0.125655
-2.21955
-0.0669066
-2.23697
-2.20808
-0.0976742
-0.926419
-0.23169
-0.98467
-0.350417
-1.04185
-0.43716
-1.08082
-0.497616
-1.13105
-0.530579
-1.155
-0.539316
-1.18667
-0.531415
-1.23795
-0.506067
-1.279
-0.467151
-1.3196
-0.421557
-1.35541
-0.378276
-1.39073
-0.339653
-1.42426
-0.311575
-1.45327
-0.300528
-1.47197
-0.325674
-1.49021
-0.315703
-1.49254
-0.317453
-1.4749
-0.318364
-1.49525
-0.328285
-1.58752
-0.342711
-1.70123
-0.345661
-1.80232
-0.324232
-1.86557
-0.292751
-1.92326
-0.258648
-1.98123
-0.218738
-2.0385
-0.174691
-2.07935
-0.125506
-2.11618
-0.0667251
-2.13468
-2.10304
-0.119092
-0.922792
-0.268742
-0.946017
-0.395279
-0.963695
-0.488941
-0.970416
-0.545247
-1.00762
-0.566736
-1.03076
-0.570357
-1.05625
-0.560693
-1.09648
-0.535907
-1.14065