/*--------------------------------*- C++ -*----------------------------------*\
| =========                 |                                                 |
| \\      /  F ield         | OpenFOAM: The Open Source CFD Toolbox           |
|  \\    /   O peration     | Version:  2112                                  |
|   \\  /    A nd           | Website:  www.openfoam.com                      |
|    \\/     M anipulation  |                                                 |
\*---------------------------------------------------------------------------*/
FoamFile
{
    version     2.0;
    format      ascii;
    arch        "LSB;label=32;scalar=64";
    class       volScalarField;
    location    "0.00551";
    object      T;
}
// * * * * * * * * * * * * * * * * * * * * * * * * * * * * * * * * * * * * * //

dimensions      [0 0 0 1 0 0 0];

internalField   nonuniform List<scalar> 
13875
(
1412.01
1535.58
1482.44
1487.68
1482.09
1483.58
1484.18
1482.96
1484.37
1484.88
1484.18
1484.11
1483.44
1483.93
1483.79
1483.91
1483.22
1484.76
1484.88
1483.14
1481.88
1487.59
1480.59
1533
1396.92
1307.02
1356.16
1318.89
1322.14
1316.59
1317.95
1321.87
1322.57
1323.97
1324.27
1323.37
1323.09
1317.91
1317.68
1318.31
1322.8
1322.75
1323.5
1322.36
1317.79
1316.67
1321.84
1319.58
1356
1302.2
1307.23
1340.07
1314.29
1311.76
1305.24
1305.44
1305.21
1303.85
1305.57
1307.02
1306.39
1306.02
1303.78
1304.08
1303.85
1305.74
1303.67
1306.12
1306.04
1305.17
1304.89
1311.02
1311.44
1335.98
1297.87
1317.37
1344.81
1314.65
1308.72
1305.99
1305.86
1304.15
1303.34
1304.3
1304.35
1303.25
1303.83
1303.89
1304.13
1303.99
1303.51
1302.42
1303.67
1304.34
1305.54
1305.35
1307.69
1313.94
1343.89
1312.59
1329.52
1342.11
1315.7
1312.38
1304.91
1305.41
1304.81
1303.5
1304.45
1304.5
1303.33
1303.59
1303.79
1304.27
1303.79
1303.38
1302.56
1304.15
1305.25
1305.02
1304.83
1311.72
1312.03
1338.55
1316.53
1332.2
1351.13
1318.8
1309.85
1307.9
1306.71
1304.35
1303.67
1304.37
1304.46
1303.32
1303.92
1304.17
1304.54
1304.25
1303.67
1302.64
1303.74
1304.41
1306.49
1307.28
1308.42
1318.98
1348.98
1326
1338.98
1360.46
1329.03
1317.42
1307.98
1307.21
1305.73
1304.4
1304.96
1305.07
1303.68
1303.91
1304.37
1304.93
1304.26
1303.71
1303.26
1304.8
1306.33
1306.84
1307.91
1317.61
1325.76
1358.19
1321.19
1359.72
1384.68
1344.01
1321.12
1316.34
1310.28
1306.7
1305.08
1305.28
1305.21
1304.28
1304.69
1305.25
1305.72
1305.24
1304.4
1303.88
1305.16
1306.36
1309.81
1315.16
1320.38
1341.48
1380.92
1349.97
1537.18
1508.57
1387.27
1350.85
1322.24
1315.97
1310.8
1307.89
1307.43
1306.57
1305.76
1305.93
1306.57
1307.17
1306.59
1306.02
1305.88
1307.58
1310.78
1314.76
1321.66
1349.37
1382.96
1505.89
1521.95
1834.89
1574.44
1427.11
1358.52
1338.18
1320.8
1314.4
1310.88
1310.01
1309.69
1308.9
1308.91
1309.49
1310.08
1309.76
1309.33
1309.46
1311.47
1314.36
1320.7
1336.48
1356.88
1424.44
1566.38
1827.36
2507.28
1805.94
1519.01
1410.19
1351.33
1332.28
1325.9
1319.01
1317.08
1316.2
1314.84
1314.69
1315.21
1315.94
1315.94
1316.08
1316.46
1318.71
1326.66
1330.98
1349.63
1417.27
1503.36
1799.54
2431.26
2813.04
2303
1737.38
1462.49
1419.57
1363.61
1340.57
1334.46
1331.45
1329.74
1327.81
1327.5
1327.76
1328.46
1328.77
1329.87
1331.01
1333.97
1342.57
1365.72
1405.14
1455.48
1726.09
2303.52
2837.32
2787.34
2661.37
2352.76
2207.22
1532.15
1418.73
1401.96
1379.07
1370.12
1364.39
1360.26
1358.92
1358.61
1359.44
1360.88
1364.87
1370.87
1378.98
1409.39
1426.98
1571.02
2245.02
2256.43
2685.49
2769.71
2723.56
2664.19
2750.18
2765.47
2047
1848.14
1538.87
1502.92
1481.03
1469.03
1461.61
1459.26
1458.78
1459.64
1461.95
1469.1
1481.64
1501.49
1550.81
1872.79
2109.44
2781.16
2788.85
2703.9
2698.02
2585.98
2645.05
2695.2
2706.44
2637.24
2404.39
2123.35
1995.3
1932.15
1840.45
1794.46
1777.33
1772.92
1775.49
1787
1827.29
1915.72
2008.11
2042.09
2417.36
2639.59
2733.54
2688.3
2644.36
2628.99
2504.3
2537.26
2648.97
2718.89
2703.29
2751.52
2895.42
3106.27
3329.95
3317.47
3391.19
3409.83
3419.33
3414.83
3390.58
3318.8
3242.67
3182.06
2958.32
2760.05
2690.41
2733.48
2652.83
2568.12
2530.87
2329.52
2431.56
2470.85
2535.35
2657.5
2803.54
3097.71
3430.84
3624.35
3686.73
3683.21
3670.17
3665.21
3670.71
3686.51
3703.4
3660.57
3515.43
3134.06
2830.78
2690.4
2578.38
2470.13
2404.14
2339.98
2044.95
2168
2397.02
2675.01
2812.76
2897.71
3070.57
3430.77
3610.04
3670.07
3666.11
3654.13
3648.58
3654.78
3669.8
3680.91
3622.88
3459.51
3078.98
2898.42
2812.11
2688.83
2311.24
2158.11
2037.49
1837.99
1906.69
2027.37
2416.83
2788.38
2890.6
2946.99
3138.89
3354.74
3476.06
3505.85
3508.24
3508.64
3509.66
3510.2
3487.99
3386.02
3195.73
2967.63
2903.33
2818.48
2419.89
2025.79
1938.77
1844.28
2486.27
2358.86
2072.1
2280.09
2614.11
2699.35
2705.87
2870.72
3098.93
3287.05
3378.22
3399.52
3398.42
3399.27
3382.58
3301.18
3123.92
2891.02
2704
2701.79
2623.88
2279.75
2100.28
2423.77
2535.35
3219.91
3283.67
2535.64
2243.65
2414.96
2513.37
2537.82
2683.16
2917.6
3135.35
3254.73
3285.75
3288.04
3283.4
3250.61
3130.49
2913.81
2678.26
2521.25
2504.74
2412.3
2225.25
2605.16
3364.11
3176.27
3540.65
3319.18
2431.13
2087.71
2243.57
2345.81
2409.47
2550.06
2773.16
2997.95
3131.24
3169.05
3169.33
3163.93
3118.26
2979.27
2762.18
2534.32
2389.19
2331.87
2230.44
2076.44
2456.29
3319.96
3518.13
3505.48
2851.92
2232.32
1945.56
2102
2210.63
2310.44
2436.78
2650.98
2865.67
3001.65
3043.88
3048.76
3038.76
2989.29
2848.22
2633.58
2423.94
2294.04
2190.32
2091.28
1928.09
2215.55
2873.06
3543.61
3306.75
2560.84
2028.21
1848.04
2017.57
2124.44
2222.26
2347.75
2543.93
2749.93
2882.14
2928.09
2930.09
2923.13
2871.91
2733.84
2532.1
2332.13
2202.13
2101.48
1999.33
1831.38
2003.04
2524.15
3237.75
3208.21
2415.17
1930.56
1800.64
1968
2050.1
2137.9
2254.77
2450.71
2643.14
2769.34
2811.18
2817.3
2806.73
2757.75
2626.27
2431.67
2238
2120.45
2033.95
1951.04
1784.72
1924.95
2413.83
3202.3
3188.06
2358.54
1901.32
1801.83
1936.99
1994
2064.79
2180.96
2359.51
2542.96
2664.15
2706.76
2708.7
2703.06
2656.35
2533.17
2354.84
2169.49
2050.03
1978.74
1919.84
1784.94
1887.4
2312.47
3121.79
3121.98
2260.96
1882
1813.34
1911.97
1930.59
1997.02
2107.57
2288.61
2455.84
2565.93
2601.84
2607.95
2597.88
2557.77
2447.87
2278.72
2100.83
1985.23
1926.15
1900.31
1793.17
1876.37
2253
3075.68
3090.94
2254.67
1894.3
1836.37
1873.71
1887.54
1943.31
2057.32
2220.29
2378.35
2474.2
2509.3
2510.9
2506.23
2466.99
2366.55
2215.38
2050.2
1933.23
1880.93
1866.33
1806.83
1875.06
2262.06
3069.48
3095.02
2249.38
1888.15
1835.51
1881.53
1839.39
1892.33
1998.9
2160.69
2300.67
2387.78
2416.97
2422.96
2413.09
2383.45
2298.59
2157.57
2002.74
1887.86
1844.39
1878.95
1827.74
1881.74
2212.65
3037.13
3094.82
2263.05
1913.88
1843.2
1845.03
1813.73
1859.51
1965.31
2106.33
2236.27
2308.97
2336.93
2337.88
2332.91
2301.44
2227.07
2104.28
1965.55
1857.81
1809.92
1836.07
1827.73
1891.55
2246.53
3048.04
3030.95
2259.47
1914.91
1846.22
1845.91
1780.95
1829.88
1924.66
2059.27
2173.05
2236.46
2256.28
2261.72
2252.72
2230.09
2164.77
2051.78
1924.14
1823.38
1796.83
1852.16
1835.76
1916.02
2274.02
3038.21
3008.5
2281.21
1939.77
1859.23
1805.1
1752.18
1809.02
1896.29
2015.99
2114.59
2166.15
2187.22
2188.12
2184.64
2160.33
2108.22
2012.93
1903.14
1808.62
1751.43
1805.94
1852.69
1926.99
2276.8
3017.06
2970.31
2268.75
1945.91
1871.51
1809.9
1734.35
1787.91
1864.31
1970.72
2061.98
2107.22
2119.39
2123.74
2116.55
2101.07
2053.97
1964.49
1863.32
1787.51
1751.87
1809.16
1866.04
1947.25
2266.92
2998.59
2928.09
2240.67
1986.46
1889.58
1784.45
1700.58
1776.57
1832.51
1951.76
2016.52
2046.37
2060.15
2060.82
2058.62
2040.56
2008
1937.06
1841.88
1767.68
1705.06
1791
1875.2
1971.42
2259.18
2976.17
2915.76
2253.17
2034.99
1905.18
1793.68
1700.39
1758.71
1806.16
1915.22
1963.74
1997.29
2004.03
2006.92
2001.88
1993.33
1959.46
1897.73
1814.46
1763.91
1711.2
1798.58
1892.75
2017.93
2234.59
2925.4
2880.61
2229.79
2038.89
1924.89
1770.58
1683.1
1744.16
1777.75
1900.81
1930.06
1945.12
1953.81
1953.86
1952.62
1939.15
1922.95
1878.74
1792.27
1735.1
1689.96
1778.49
1916.99
2029.22
2227.5
2906.35
2825.04
2201.3
2037.42
1947.45
1800.96
1701.67
1738.87
1767.46
1868.52
1879.97
1905.86
1906.04
1908.25
1904.88
1901.38
1876.86
1846.32
1770.53
1743.84
1699.76
1798.95
1941.01
2023.94
2193.47
2842.5
2798.82
2175.85
2036.12
2018.36
1790.88
1694.08
1727.37
1740.17
1849.34
1856.29
1859.03
1865.54
1864.74
1864.71
1853.7
1852.45
1830.43
1748.98
1716.43
1703.39
1787.16
1993.6
2024.12
2168.19
2784.69
2762.43
2166.41
2026.51
2028.18
1830.96
1734
1727.36
1734.3
1820.83
1807.99
1828.46
1824.57
1826.28
1823.62
1824.52
1804.58
1801.15
1739.04
1724.49
1735.85
1833.14
2033.95
2014.27
2160.12
2740.22
2716.52
2142.48
2008.98
2038.05
1858.91
1744.13
1731.26
1720.37
1794.21
1792.09
1787.22
1793.27
1790.94
1793.04
1782.47
1788.99
1779.42
1718.32
1709.94
1742.05
1853.03
2032.2
2004.8
2154.24
2710.67
2692.45
2141.54
1976.46
2019.89
1942.13
1790
1740.09
1718.38
1782.09
1745.73
1763.77
1756.91
1759.15
1756.09
1761.48
1740.83
1767.72
1723.88
1742.95
1777.97
1918.49
2022.87
1971.88
2137.89
2678.9
2655.63
2127.25
1951.75
2014.04
1969.38
1801.84
1751.92
1720.71
1751
1736.44
1728.14
1734.23
1729.03
1733.59
1724.44
1735.22
1740.46
1712.19
1741.76
1814.85
1975.75
2016.12
1949.27
2131.19
2663.58
2629.34
2115.57
1926.75
1979.06
1959.06
1872.37
1770.98
1739.31
1765.16
1701.76
1712.15
1700.72
1703.8
1699.69
1710.09
1695.16
1751.13
1741.33
1773.55
1862.56
1967.1
1985.44
1923.97
2126.3
2643.72
2592.37
2104.44
1908.52
1950.21
1946.88
1960.29
1799.16
1744.93
1735.62
1695.61
1683.87
1685.61
1677.45
1684.73
1681.23
1692.11
1730.63
1739.43
1792.96
1959.71
1956.47
1955.97
1904.67
2107.89
2609.4
2571.6
2102.26
1895.87
1914.82
1926.28
1946.86
1853.71
1776.09
1765.79
1676.53
1676.49
1657.75
1657.11
1656.84
1673.61
1669.2
1756.47
1781.75
1856.93
1952.72
1931.94
1914.14
1894.57
2108.36
2585.69
2525.96
2077.76
1883.99
1898.44
1885.61
1932.82
1933.67
1797.18
1741.74
1680.12
1661.22
1650.16
1639.58
1649.17
1657.16
1680.26
1739.4
1790.5
1949.88
1945.59
1889.72
1897.15
1886.46
2092.34
2540.45
2501.94
2079.98
1884.74
1868.76
1852.19
1911.41
1952.16
1858.18
1788.12
1687.99
1662.3
1630.35
1626.83
1628.97
1659.54
1680.51
1774.28
1867.14
1968.42
1920.79
1854.84
1868.13
1883.7
2081.47
2516.73
2452.39
2055.35
1874.62
1867.07
1823.52
1873.86
1935.07
1946.7
1778.22
1683.03
1664.99
1639.52
1625.04
1639.34
1661.05
1686.61
1782.28
1965.86
1943.43
1884.74
1827.19
1865.14
1877.89
2061.39
2459.42
2412.85
2042.7
1870.9
1848.36
1800.49
1841
1918.59
1959.53
1881.39
1713.56
1662.69
1624.16
1622.45
1623.22
1660.6
1712.22
1877.49
1963.11
1926.78
1847.47
1804.49
1847.96
1872.19
2045.98
2422.84
2275.37
1991.36
1846.09
1847.37
1789.46
1805.03
1882.51
1943.42
1960.46
1752.87
1688.08
1643.93
1624.72
1642.36
1682.2
1749.67
1955.78
1947.16
1888.89
1812.98
1794.41
1850.55
1848.24
1992.28
2282.53
371.895
368.095
368.086
367.289
368.131
370.195
370.586
368.953
366.082
364.469
363.569
361.443
356.239
343.674
328.561
320.352
314.765
310.238
307.955
305.346
302.706
300.344
298.83
297.823
297.232
295.838
294.32
293.069
293.074
292.987
372.698
368.178
369.345
372.194
379.235
385.174
384.592
376.766
369.427
366.225
365.339
363.995
360.609
351.349
331.238
321.447
315.734
310.12
305.957
302.771
299.739
297.15
295.557
294.765
294.515
293.618
292.223
290.723
290.121
289.482
367.36
367.986
375.285
385.486
400.443
404.873
398.683
385.546
374.863
369.276
367.022
364.99
362.085
354.729
335.817
324.517
317.882
311.357
305.32
301.936
298.66
295.835
294.218
293.501
293.316
292.686
291.383
289.781
288.953
288.207
370.238
372.086
392.76
414.74
437.985
440.445
430.508
405.703
386.085
374.625
370.013
366.97
364.335
357.854
341.567
327.62
319.896
312.677
305.334
300.727
297.022
294.028
292.322
291.569
291.354
290.938
289.726
288.22
287.612
286.995
372.04
382.085
429.608
469.528
508.982
506.745
485.053
438.941
404.513
383.855
374.609
369.587
366.755
360.709
347.961
331.61
323.147
314.865
306.647
300.339
295.993
292.801
290.93
290.114
289.799
289.569
288.651
287.437
287.182
286.895
380.271
403.373
501.031
574.337
642.739
633.696
589.68
503.016
438.849
400.448
382.395
373.802
369.688
363.831
354.451
336.492
326.702
317.974
308.242
300.46
295.289
291.918
289.826
288.777
288.279
288.081
287.632
286.733
286.468
285.994
390.233
442.289
632.726
773.671
892.77
866.463
785.544
623.262
500.225
429.179
395.149
380.006
373.416
367.402
359.176
341.394
330.852
321.928
310.661
301.296
295.197
291.736
289.459
288.237
287.657
287.449
287.137
286.37
285.592
284.249
408.451
508.994
861.621
1119.25
1204.01
1146.57
1073.93
842.841
606.208
476.917
415.648
389.111
378.51
371.57
363.252
346.461
336.688
326.209
314.181
302.755
295.909
292.208
289.567
288.109
287.375
286.922
285.474
282.959
281.362
279.631
433.386
616.806
1200.42
1347.71
1290.48
1214.19
1173.55
1085.49
777.302
553.242
447.931
402.638
385.254
376.274
367.806
352.04
341.885
330.881
318.362
304.858
296.598
292.08
288.967
286.983
285.295
283.525
281.626
279.298
277.78
276.281
468.644
777.267
1390.98
1376.13
1278.64
1187.2
1161
1143.17
984.327
662.671
495.656
422.528
394.144
382.001
372.845
358.346
345.623
337.109
322.753
307.673
296.634
290.845
286.891
284.002
282.041
280.7
279.355
277.595
276.323
274.973
518.231
986.481
1428.05
1357.63
1197.23
1085.77
1079.29
1113.37
1073.34
799.959
559.985
449.848
406.289
389.166
378.599
365.251
349.075
343.808
328.36
310.902
297.345
289.839
285.411
282.514
280.735
279.644
278.436
276.818
275.645
274.37
586.358
1214.28
1433.88
1300.9
1095.82
963.229
960.687
1029.6
1073.24
925.925
635.406
483.906
421.867
398.107
385.215
372.29
352.831
347.662
338.889
315.367
298.896
289.806
284.755
281.942
280.229
279.191
277.994
276.448
275.298
273.975
676.298
1363.6
1431.4
1246.3
1037.51
894.435
868.21
939.16
1044.14
983.537
716.123
521.914
439.679
408.327
392.506
379.216
357.316
350.942
348.719
323.523
301.643
290.648
284.518
281.826
280.124
279.074
277.858
276.334
275.172
273.829
777.078
1417.29
1424.17
1221.72
1004.95
860.891
825.215
881.644
1012.52
994.835
781.351
557.789
457.757
419.217
400.61
386.477
362.269
354.15
352.556
340.113
307.092
292.404
285.348
282.122
280.402
279.356
278.116
276.591
275.326
273.887
872.041
1441.48
1416.4
1199
960.253
827.36
799.36
852.571
987.151
985.081
802.028
577.82
472.559
430.038
409.55
393.725
367.472
357.825
355.626
354.276
317.288
295.863
286.871
282.67
281.089
279.978
278.696
277.149
275.776
274.29
955.874
1458.68
1411.66
1172.13
914.262
793.354
773.708
827.994
957.38
961.613
790.681
581.736
483.442
440.449
418.708
400.54
372.368
361.539
358.37
357.277
341.287
302.488
289.058
283.972
282.027
280.801
279.463
277.831
276.253
274.597
1035.77
1477.13
1409.66
1154.9
893.524
763.528
741.214
792.761
903.934
914.596
754.373
575.949
490.032
449.984
427.76
407.505
377.605
365.691
361.718
359.898
357.915
315.613
293.224
285.871
282.873
281.671
280.165
278.358
276.531
274.741
1110.85
1496.35
1410.84
1149.32
886.994
742.862
709.291
747.268
828.88
841.864
698.255
560.328
493.621
460.018
437.456
415.219
384.026
370.479
365.396
363.325
361.084
347.785
301.69
288.56
284.051
282.317
280.653
278.649
276.549
274.623
1177.78
1514.11
1413.49
1150.21
890.21
733.991
682.943
696.818
748.488
754.593
641.087
542.79
495.974
468.283
445.254
422.052
391.974
376.643
369.789
367.008
364.194
360.461
322.212
294.115
285.9
282.307
280.764
278.598
276.231
274.255
1237.27
1533.79
1422.81
1168.26
908.756
733.605
666.144
652.569
679.199
679.627
595.558
531.469
497.323
472.741
449.856
426.033
402.25
384.85
375.429
371.306
367.891
364.181
355.262
305.973
289.098
283.579
279.968
278.316
276.053
274.106
1305.39
1552.27
1441.98
1205.38
948.279
754.983
661.06
629.575
627.052
626.885
571.271
521.567
495.767
473.711
453.188
429.544
411.962
395.936
383.194
376.701
372.247
368.031
362.586
335.457
296.473
285.706
280.453
277.302
275.889
274.068
1330.64
1572.19
1474.79
1258.59
999.861
799.494
675.006
622.048
602.794
594.287
557.208
514.165
492.647
474.826
455.704
433.566
419.711
406.023
393.014
383.826
377.442
372.387
366.846
358.743
310.632
290.01
282.026
277.728
274.901
273.482
1405.44
1595.78
1513.32
1325.27
1077.11
868.817
714.335
631.168
598.528
584.609
553.538
514.487
494.134
479.33
460.064
440.033
426.458
413.576
403.092
392.627
384.172
377.812
371.194
364.426
343.14
297.862
284.414
279.044
275.188
272.962
1412.35
1619.74
1570.54
1406.01
1174.36
951.514
785.438
666.69
608.802
585.758
558.36
524.693
501.657
485.984
468.008
448.83
433.628
421.169
411.701
402
392.225
384.399
375.756
368.793
358.863
313.149
288.895
280.638
276.417
273.913
1433.07
1660.4
1638.61
1485.51
1276.24
1053.06
874.988
736.64
643.329
599.454
575.603
545.949
515.748
494.847
478.298
460.207
441.89
430.112
420.041
410.379
400.049
390.874
381.889
372.873
364.047
345.311
297.405
283.236
278.089
275.47
293.581
293.612
293.524
294.616
295.903
297.078
297.69
298.748
300.381
302.761
305.294
307.918
310.361
315.079
320.963
329.715
346.478
356.407
361.269
363.148
364.118
365.979
369.433
371.491
371.234
368.738
366.653
367.122
367.331
371.15
290.092
290.673
291.162
292.443
293.554
294.234
294.594
295.479
297.221
299.864
302.73
305.981
310.444
316.075
322.14
333.008
353.338
360.739
363.658
364.833
365.981
369.966
378.506
386.987
387.439
380.797
373.144
369.437
367.454
371.778
288.832
289.525
290.222
291.573
292.568
293.008
293.338
294.152
295.911
298.845
301.914
305.377
311.759
318.328
325.373
337.848
355.681
362.316
364.657
366.835
369.367
376.03
388.023
402.411
408.865
403.353
387.904
376.557
367.511
366.723
287.553
288.099
288.58
289.867
290.762
291.014
291.388
292.248
294.072
297.234
300.77
305.655
313.132
320.456
328.677
343.812
358.34
364.496
366.786
370.06
375.465
388.468
410.345
437.519
448.216
445.245
420.118
396.085
372.498
370.05
287.377
287.596
287.732
288.739
289.352
289.455
289.912
290.904
292.867
296.235
300.472
307.08
315.471
323.814
332.843
350.496
361.119
366.733
369.623
375.16
385.926
409.365
447.5
498.04
521.835
522.317
479.585
436.797
383.814
372.297
286.46
286.83
286.941
287.594
287.815
287.923
288.546
289.777
292.012
295.505
300.718
308.719
318.73
327.411
337.902
356.163
364.316
369.72
374.19
383.813
404.64
448.029
519.74
614.831
660.871
667.55
593.258
514.368
407.19
381.494
284.675
285.96
286.556
286.999
287.157
287.28
287.982
289.375
291.83
295.411
301.66
311.301
322.7
331.655
342.959
359.949
367.876
373.584
380.852
398.032
436.917
516.871
654.021
831.575
911.682
936.56
808.046
656.273
449.514
392.568
280.018
281.687
283.123
285.46
286.592
286.947
287.806
289.436
292.217
296.103
303.211
315.008
326.966
337.765
348.283
363.992
371.966
378.897
390.749
421.062
490.351
635.374
894.781
1106.68
1170.61
1229.03
1164.7
897.247
521.177
411.822
276.694
278.123
279.462
281.585
283.346
285.047
286.613
288.736
292.038
296.8
305.45
319.207
331.65
342.407
353.992
368.398
376.814
386.036
405.624
457.092
574.879
822.881
1110.92
1178.25
1218.84
1297.03
1359.97
1236.42
636.339
438.307
275.299
276.642
277.801
279.413
280.609
281.923
283.959
286.905
290.883
296.884
308.322
323.56
338.057
346.004
360.241
373.232
382.532
395.441
427.682
509.991
694.59
1020.95
1146.32
1154.94
1184.39
1279.87
1380.97
1401.86
804.737
475.566
274.627
275.857
276.932
278.431
279.524
280.613
282.458
285.401
289.916
297.739
311.638
329.137
343.825
349.417
366.931
378.887
389.833
408.351
457.523
580.423
840.454
1085.12
1104.58
1065.29
1079.37
1197.58
1360.89
1434.7
1018.41
527.339
274.139
275.444
276.506
277.949
279.045
280.069
281.828
284.698
289.903
299.371
316.191
339.542
347.47
353.324
373.543
385.398
399.012
424.99
494.534
661.376
958.035
1075.3
1011.79
946.93
963.247
1102.73
1306.46
1440.45
1241.58
598.329
273.961
275.291
276.361
277.791
278.915
279.944
281.688
284.472
290.787
302.248
324.561
348.011
350.662
358.262
379.98
392.683
409.563
444.127
535.77
747.404
1001.55
1042.64
924.011
863.773
897.982
1049.75
1258.44
1438.99
1375.02
690.166
273.961
275.381
276.566
278.003
279.161
280.194
281.947
285.313
292.59
307.79
340.972
351.619
353.675
363.481
387.039
400.751
420.635
462.797
573.594
813.049
1006.14
1008.68
872.457
824.973
864.804
1016.98
1236.69
1433.11
1423.97
791.176
274.365
275.829
277.115
278.567
279.774
280.858
282.478
286.848
296.152
318.233
353.328
354.647
357.243
368.434
393.827
409.357
431.446
477.451
592.373
831.592
995.073
983.496
845.936
799.561
829.207
969.357
1213.36
1426.94
1447.02
883.898
274.715
276.346
277.823
279.336
280.596
281.784
283.814
289.082
302.895
341.875
356.086
357.371
360.926
373.254
400.874
418.32
441.706
487.754
595.083
817.345
971.523
953.435
820.851
771.694
794.846
925.522
1186.89
1423.57
1464.45
965.846
274.877
276.649
278.372
280.063
281.475
282.656
285.747
293.307
316.175
356.8
358.58
360.623
365.03
378.389
408.25
427.366
450.994
493.367
585.94
777.148
923.86
900.145
785.903
739.364
766.807
906.655
1171.29
1422.83
1483.22
1043.13
274.747
276.659
278.655
280.543
282.086
283.873
288.457
301.83
347.457
359.781
361.963
364.22
369.825
384.546
416.914
436.667
460.555
496.09
567.033
714.289
849.759
827.914
741.859
708.707
747.16
901.075
1166.19
1424.27
1502.77
1116.74
274.322
276.269
278.564
280.636
282.112
285.734
294.111
322.545
359.04
362.845
365.595
368.568
376.108
392.468
424.068
445.235
467.915
497.46
547.368
650.803
760.305
749.287
693.859
684.29
739.233
904.031
1166.6
1427.05
1520.53
1181.34
274.12
276.026
278.217
279.834
283.455
289.042
306.047
354.032
362.743
366.502
369.907
374.351
384.783
403.566
428.199
450.419
472.716
497.927
534.312
602.633
683.225
679.223
652.379
668.066
739.524
922.339
1183.72
1435.33
1540.08
1240.4
274.046
275.835
277.246
280.459
285.668
296.56
335.451
360.945
366.601
370.835
375.405
382.509
397.844
412.537
431.167
453.908
473.714
495.813
523.855
575.553
627.259
625.557
629.795
663.71
762.552
962.439
1219.65
1453.28
1558.53
1310.32
273.202
274.788
277.745
282.141
290.148
311.032
357.426
365.248
370.994
375.981
382.715
393.468
406.026
419.959
434.686
457.167
474.83
492.545
516.047
559.585
594.439
602.952
622.805
679.428
810.133
1014.87
1272.72
1485.6
1577.82
1334.39
272.947
275.198
279.113
284.628
298.262
343.474
363.042
369.718
376.306
382.746
392.179
402.746
413.123
426.577
441.14
460.851
479.285
494.016
516.305
555.113
584.563
599.08
633.134
721.321
879.348
1091.83
1339.34
1523.83
1601.36
1405.83
273.892
276.407
280.693
289.21
314.14
357.779
367.373
374.321
382.834
391.169
401.606
411.34
420.707
433.56
450.296
468.215
485.828
501.996
526.196
559.39
585.559
610.116
670.139
794.551
963.798
1188.63
1419.23
1579.72
1624.37
1412.01
275.462
278.076
283.355
297.984
345.814
363.077
371.408
380.422
389.158
399.039
410.048
419.598
429.872
442.075
461.712
478.607
494.501
516.122
546.793
575.831
599.428
645.9
742.134
885.402
1070.46
1293.62
1497.31
1645
1663.14
1431.46
858.801
857.741
844.753
838.889
827.387
818.065
806.581
794.376
782.08
768.805
756.2
742.123
728.868
716.433
704.631
693.146
682.605
672.091
660.89
653.772
645.001
638.709
632.666
626.38
622.087
617.466
613.493
609.215
606.06
604.104
602.788
601.84
602.172
604.233
607.125
611.203
616.336
622.905
630.251
638.294
645.892
653.079
660.661
668.336
676.239
684.655
693.604
704.329
719.825
738.144
752
756.052
753.878
750.689
748.31
746.108
736.884
725.93
714.706
706.713
700.289
694.95
690.314
687.363
684.667
681.855
679.233
676.586
673.75
670.925
668.157
665.821
663.159
660.208
656.865
653.362
650.019
646.798
643.668
640.389
636.944
633.233
628.981
623.988
618.477
612.83
607.324
602.04
596.777
591.355
585.617
579.467
572.874
565.907
558.644
551.186
543.71
536.16
528.669
521.288
514.009
506.94
500.392
494.905
490.569
486.915
483.789
481.085
478.455
475.653
472.734
471.109
467.432
461.368
450.011
421.372
397.973
373.238
343.568
314.469
297.375
288.353
283.007
279.564
277.222
862.366
862.532
849.94
844.384
833.795
824.657
813.608
801.857
790.962
778.902
767.625
754.887
743.982
733.263
722.858
714.181
704.08
697.022
687.047
681.675
675.692
671.288
669.296
667.762
668.165
669.104
671.103
673.51
677.713
684.073
692.364
703.851
717.487
731.301
746.509
761.826
778.069
795.122
813.405
832.003
849.76
864.5
877.384
888.693
899.186
910.195
921.811
936.003
951.127
959.181
955.31
946.123
933.137
916.641
899.932
880.658
852.706
820.161
789.78
769.6
755.882
745.449
735.752
726.101
716.379
707.786
699.826
692.451
685.419
679.095
673.732
669.127
665.184
661.701
658.508
655.319
652.265
649.262
646.13
642.691
638.981
635.112
631.137
626.85
621.985
616.468
610.397
603.939
597.237
590.371
583.345
576.178
568.988
562.013
555.488
549.342
543.671
538.715
534.715
531.37
528.633
526.327
524.227
522.245
520.169
517.214
512.334
506.62
498.781
487.511
472.983
457.151
441.241
425.214
409.254
394.157
380.761
369.527
360.526
351.202
331.071
303.831
290.969
284.09
280.298
883.844
884.134
871.685
866.402
857.263
849.006
838.778
828.729
818.461
806.99
799.106
788.795
782.183
774.795
769.144
764.858
760.242
758.574
755.394
755.416
756.148
758.505
765.918
774.353
788.806
806.162
825.067
843.872
862.387
884.508
909.873
938.329
973.685
1008.91
1044.36
1079.42
1113.93
1148.44
1183.09
1216.26
1247.6
1275.64
1299.59
1319.89
1336.18
1351.55
1370.3
1392.26
1409.24
1409.2
1404.06
1392.32
1375.73
1341.83
1294.54
1235.53
1153.76
1057.57
960.605
884.519
832.925
801.767
782.445
767.387
757.136
747.852
739.508
730.344
721.751
713.732
706.704
700.461
694.768
690.067
686.035
682.437
678.749
673.921
668.01
661.869
656.007
650.443
645.288
640.448
635.377
629.762
623.546
616.827
609.714
602.369
595.098
588.305
582.182
576.905
572.557
569.008
565.858
562.634
558.865
555.018
551.323
547.417
542.667
536.751
529.068
519.057
506.814
492.667
477.406
462.705
448.684
435.666
423.33
411.713
399.954
389.084
379.92
372.215
366.986
361.372
354.75
346.017
325.176
299.558
288.804
916.848
919.924
910.515
906.609
900.562
895.133
888.943
883.93
879.02
875.106
872.195
869.24
868.869
868.479
872.263
876.786
881.222
894.369
900.388
916.139
930.928
946.435
967.971
990.122
1018.72
1050.8
1087.2
1126.61
1168.3
1204.95
1241.23
1278.92
1318.71
1359.93
1398.93
1438.56
1475.04
1508.85
1539.72
1566.87
1591.35
1613.86
1634.47
1653.58
1671.37
1688.08
1707.72
1728.26
1747.55
1752.2
1751.94
1751.37
1750.06
1746.38
1737.57
1717.4
1667.37
1548.46
1352.9
1151.54
998.361
902.572
847.577
814.94
793.864
780.804
773.473
768.719
764.434
761.238
757.37
752.799
748.797
746.203
743.213
739.328
733.743
725.919
717.413
709.299
702.124
695.512
689.683
683.575
676.202
667.886
659.164
650.323
641.537
633.049
624.971
617.409
610.587
604.587
599.106
593.813
588.2
581.798
574.088
564.867
554.031
541.913
529.374
516.357
503.58
491.497
479.975
469.217
458.871
448.806
439.252
430.076
421.469
412.684
404.371
394.767
386.18
380.168
375.342
370.636
365.936
360.998
354.966
346.313
318.194
975.458
985.514
985.533
989.495
990.963
997.847
1001.23
1010.61
1014.47
1027.05
1041.29
1053.12
1074.41
1086.85
1106.91
1123.95
1139.48
1170.95
1186.44
1212.9
1237.26
1260.32
1285.22
1309.62
1335.86
1361.36
1389.46
1418.49
1449.5
1479.95
1509.77
1539.02
1566.19
1592
1615
1636.66
1656.89
1676.25
1694.37
1711.19
1726.75
1741.46
1755.8
1769.63
1783.59
1799.12
1817.16
1835.02
1852.1
1859.31
1860.3
1860.1
1860.38
1861.27
1863.35
1864.69
1860.64
1841.87
1784.79
1616.21
1350.95
1139.3
1001.42
914.695
857.769
821.791
800.788
791.592
790.527
791.549
793.69
797.276
802.811
809.64
814.133
813.874
811.131
803.559
791.785
779.925
768.868
758.048
746.813
734.58
721.445
707.917
694.546
681.781
669.532
657.626
646.022
634.764
623.763
612.964
602.135
591.121
579.807
567.763
555.279
542.686
530.116
517.819
506.321
495.592
485.683
476.602
468.117
459.916
451.787
443.892
436.307
429.26
422.118
415.359
408.155
401.963
395.477
389.564
384.687
379.998
375.352
370.712
366.101
361.572
356.035
1087.54
1128.43
1140.99
1170.01
1183.42
1217.09
1235.39
1271.21
1290.39
1325.02
1351.22
1381.27
1419.63
1446.36
1473.72
1496.49
1507
1525.2
1531.42
1539.15
1547.65
1553.56
1560.31
1567.81
1578.43
1588.77
1599.77
1612.44
1626.71
1641.84
1657.85
1672.58
1687.47
1701.84
1714.96
1727.75
1740.83
1753.62
1766.11
1779.72
1793.93
1806.98
1819.39
1834.02
1848.52
1862.31
1880.13
1898.76
1912.47
1919.61
1921.58
1921.32
1920.62
1920.62
1921.11
1921.24
1919.8
1914.23
1898.48
1854.42
1727.96
1496.42
1285.8
1126.28
1012.12
934.956
886.427
859.264
849.893
850.143
853.214
860.667
875.466
893.112
907.638
915.277
916.033
913.041
902.023
881.534
859.828
837.311
814.441
790.907
766.327
741.486
717.797
696.431
677.501
660.605
644.851
629.866
615.068
601.001
587.685
575.052
563.11
551.279
539.671
528.753
518.597
508.93
499.413
490.444
482.042
474.049
466.535
459.583
453.099
446.838
440.427
434.359
427.747
421.147
416.003
411.046
405.811
400.272
394.999
389.94
384.87
379.969
375.254
371.022
367.23
1324.82
1440.61
1480.87
1563.81
1597.27
1656.25
1679.21
1716.93
1730.11
1750.24
1752.11
1754.38
1752.78
1747.8
1742.79
1738.57
1735.57
1731.89
1723.52
1714.51
1709.06
1704.56
1701.44
1699.64
1700.52
1702.94
1707.46
1714.61
1723.47
1733.2
1743.23
1753.79
1765.2
1777.87
1791.88
1806.71
1821.78
1837.78
1855.33
1873.78
1892.81
1911.49
1928
1944.41
1960.32
1975.48
1990.29
2005.53
2016.93
2019.78
2016.51
2010.1
2001.74
1993.45
1985.5
1977.78
1970.54
1961.73
1950.64
1930.95
1884.64
1766.94
1586.58
1401.09
1248.15
1134.53
1052.7
999.939
975.367
970.273
972.337
980.018
998.506
1022.38
1043.26
1054.72
1056.83
1054.9
1046.6
1023.58
989.475
953.083
916.852
881.347
844.627
806.51
768.828
734.029
703.433
677.848
656.128
636.637
618.789
602.586
588.109
574.917
562.805
551.48
540.826
530.964
521.707
512.873
504.018
495.473
487.208
479.522
472.374
465.904
459.75
453.634
447.218
440.732
434.941
429.647
424.787
420.109
415.335
410.972
406.569
401.758
396.634
391.315
385.94
380.565
375.728
1750.53
1934.11
1966.52
2009.2
2014.1
2012.12
1999.05
1985.08
1967
1948.89
1928.64
1908.29
1887.57
1866.15
1849.78
1834.66
1820.02
1807.67
1796.28
1787.17
1780.03
1774.7
1771.07
1770.09
1772.32
1776.98
1784.71
1793.94
1804.86
1817.18
1831.38
1847.86
1866.36
1886.73
1908.84
1931.85
1954.79
1976.76
1997.96
2019.36
2039.04
2056.11
2070.71
2083.08
2093.5
2101.8
2108.53
2113.45
2116.29
2114.97
2109.42
2099.87
2088.23
2075.19
2061
2046.17
2031.06
2015.38
1999.05
1979.43
1944.02
1870.47
1752.17
1604.88
1462.85