/*--------------------------------*- C++ -*----------------------------------*\
| =========                 |                                                 |
| \\      /  F ield         | OpenFOAM: The Open Source CFD Toolbox           |
|  \\    /   O peration     | Version:  2112                                  |
|   \\  /    A nd           | Website:  www.openfoam.com                      |
|    \\/     M anipulation  |                                                 |
\*---------------------------------------------------------------------------*/
FoamFile
{
    version     2.0;
    format      ascii;
    arch        "LSB;label=32;scalar=64";
    class       volScalarField;
    location    "0.00932";
    object      k;
}
// * * * * * * * * * * * * * * * * * * * * * * * * * * * * * * * * * * * * * //

dimensions      [0 2 -2 0 0 0 0];

internalField   nonuniform List<scalar> 
13875
(
812.095
3462.65
3540.33
3539.03
3541.22
3540
3541.82
3542.7
3540.55
3539.88
3541.18
3541.42
3540.6
3540.14
3540.45
3541.18
3541.89
3541.16
3540.75
3540.23
3541.15
3539.03
3539.98
3461.91
820.454
881.792
2936.63
3013.02
3000.51
3000.92
2998.4
2997.12
2996.98
2996.45
2997.8
2997.33
2998.43
2996.43
2996.32
2996.17
2998.5
2996.22
2997.07
2996.98
2998.6
3000.44
2999.29
3011.6
2935.01
894.348
993.356
2710.85
2777.46
2755.32
2758.57
2755.06
2745.44
2742.95
2742.29
2743.52
2742.09
2744.55
2751.37
2752.09
2750.86
2744.62
2741.17
2742.66
2745.32
2755.09
2757.67
2753.16
2774.52
2707.34
998.138
1091.06
2533.67
2580.99
2561.56
2566.48
2562.9
2551.82
2549.49
2548.31
2547.72
2547.35
2548.7
2559.25
2559.97
2558.82
2548.63
2547.27
2547.53
2551.15
2562.91
2565.49
2559.39
2579.17
2529.79
1093.71
1172.09
2380.45
2413.17
2392.97
2397.78
2394.05
2382.74
2381.03
2380.03
2379
2379.27
2379.74
2390.3
2391.38
2389.87
2379.72
2379.14
2379.03
2382.34
2393.91
2396.78
2391.16
2410.51
2375.48
1177.23
1240.98
2237.1
2270.92
2245.02
2250.87
2245.62
2233.39
2231.97
2230.95
2229.73
2230.58
2230.22
2240.89
2242.3
2240.49
2230.18
2230.43
2229.92
2233.08
2245.68
2249.95
2243.73
2267.93
2247.11
1247.22
1320.95
2121.78
2158.31
2120.39
2122.78
2115.58
2101.62
2099.96
2098.34
2097.13
2098.46
2097.35
2108.2
2109.71
2107.54
2097.21
2098.5
2097.7
2101.53
2115.48
2121.68
2119.76
2154.1
2095.51
1323.44
1409.74
2000.68
2073.52
2019.69
2015.88
2002.62
1985.95
1982.71
1980.34
1979.23
1981.13
1979.04
1990.11
1991.91
1989.42
1978.79
1981.37
1980.56
1985.41
2002.15
2013.95
2017.99
2068.34
1992.77
1420.43
1691.43
2029.45
2021.93
1944.37
1924.59
1905.04
1885.13
1879.67
1875.85
1874.85
1877.65
1874.69
1885.87
1888
1885.38
1874.62
1878.03
1877.21
1883.3
1903.81
1922.37
1942.19
2017.84
2033.6
1716.74
2509.22
2285.48
2018.13
1901.05
1858.79
1827.19
1804.41
1796.86
1792.04
1791.35
1794.13
1790.82
1801.59
1803.99
1801.48
1791.94
1794.88
1795.08
1801.29
1824.64
1855.57
1891.52
2011.44
2266.34
2529.81
3877.74
3027.9
2153.63
1915.65
1815.02
1773.92
1747.51
1734.88
1729.08
1728.54
1730.54
1727.24
1737.09
1739.77
1738.04
1731.01
1733.18
1735.13
1744.95
1768.15
1813.21
1907.15
2129.55
2936.76
3858.96
5188.03
6461.31
2854
1994.88
1854.78
1758.68
1714.5
1696.07
1687.85
1686.51
1687.02
1684.26
1692.34
1695.35
1694.86
1690.69
1692.89
1697.94
1712.27
1757.72
1846.95
1974.01
2789.85
6314.91
5120.35
5059.75
7640.73
7050.97
3330.9
2043.04
1798.83
1742.51
1700.38
1683.74
1677.85
1675.22
1672.29
1678.09
1681.37
1682.8
1682.89
1689.85
1706.52
1746.49
1804.15
2089.14
3233.04
6764.21
7643.89
5009.79
4830.29
6374.27
7186.52
8721.84
5148.79
2323.56
1897.74
1782.25
1747.24
1744.09
1741.47
1738.88
1743.65
1746.91
1749.56
1752.27
1757.59
1792.13
1940.98
2483.08
5619.9
8152.44
6954.33
6328.61
4832.91
4607.44
5524.95
6050.15
6985.49
6826.8
6682.89
3413.01
2378.53
2129.47
2036.57
1997
1982.31
1982.48
1987.25
1998.6
2030.17
2120.14
2387.26
3629.06
6897.46
6818.99
6703.35
5963.85
5485.65
4681.56
4296.86
4807.64
5118.55
5873.03
6057.84
6559.43
5568.82
5168.86
4844.93
4188.28
4270.43
4321.65
4364.02
4351.71
4290.39
4190.52
4750.71
5433.15
5660.61
6634.94
5997.85
5705.48
5069.74
4777.46
4365.41
3730.57
4044.53
4337.96
5058.42
5575.25
6484.78
7299.43
7555.8
6705.88
6250.42
6509.79
6743.17
6876.63
6825.29
6585.03
6565.11
6719.41
7557.81
7340.76
6454.57
5431
4898.35
4223.3
3959.82
3719.45
3065.56
3409.71
3947.83
4853
5498.91
6094.21
7053.76
7772
6540.01
5479.16
5212.25
5234.35
5304.41
5270.03
5273.67
5796.26
6528.46
7426.67
7017.65
6205.75
5533.87
4803.86
3857.93
3345.25
3026.95
2642.67
3171.03
3851.57
5049.41
5972.81
5780.34
6051.75
6760.96
6145.74
5181.84
4690.53
4547.13
4535.11
4591.01
4789.28
5327.99
5969.36
6449.34
6055.87
5961.6
6246.62
5080.36
3836.22
3152.67
2643.81
2526.44
3406.32
4080.96
5183.84
5770.71
5314.67
5231.71
5711.92
5582.05
4964.23
4419.92
4088.76
3977.01
4163.02
4555.78
5038.4
5363.27
5466.82
5258.3
5488.89
5952.52
5168.84
4090.88
3425.54
2519.4
5085.5
7662.5
6220.03
4829.73
5008
4658.81
4561.55
4960.12
5045.88
4637.34
4089.53
3655.93
3502.53
3766.38
4251.43
4681.91
4828.37
4767.46
4600.63
4810.32
5145.99
4955.32
6664.08
8161.23
5938.22
11534
23025.4
7836.28
4241.39
4310.67
4094.93
4036.42
4388.4
4549.58
4256.89
3732.86
3261.82
3091.47
3380.76
3889.42
4276.65
4340.9
4237.09
4067.92
4214.65
4409.64
4373.7
8375.63
23279.7
12705.8
13684.5
19351.1
6898.51
3781.34
3771.34
3639.16
3598.09
3920.95
4096.79
3865.07
3372.75
2910.1
2735.61
3012.09
3506.93
3870.79
3899.01
3793.77
3620.72
3719.43
3837.62
3887.72
6945.04
18987.8
13561.8
13006.7
19507.7
5828.23
3434.19
3335.47
3244.92
3225.75
3511.38
3685.43
3485.25
3022.11
2589.8
2434.05
2692.54
3158.53
3499.77
3506.2
3397.82
3250.18
3314.62
3400.23
3540.08
5970.41
20102.4
12970
12667.7
19185.2
5182.34
3163.16
3004.49
2920.34
2921.23
3163.95
3321.03
3141.48
2716.82
2320.37
2180.51
2415.87
2848.64
3163.18
3163.42
3058.99
2937.35
2981.03
3072.23
3267.08
5384.9
20249.3
12761
12460
19100.5
4716.05
2918.33
2740.21
2648.68
2668.35
2868.16
2999.8
2837.4
2454.61
2092.36
1965.38
2176.19
2570.13
2857.27
2861.31
2766.85
2666.85
2691.63
2802.31
3002.7
4884.75
20016.5
12707
12499.1
17727.1
4236.61
2696.9
2526.25
2423.3
2452.18
2611.9
2710.35
2555.28
2215.92
1895.88
1783.5
1976.24
2333.32
2591.25
2603.45
2521.65
2439.95
2458.16
2590.7
2784.1
4456.7
18846.7
12681.2
12340.1
16858.1
3917.02
2516.49
2351.22
2240.56
2268.32
2393.76
2463.87
2318.07
2016.65
1729.88
1627.97
1800.92
2121.01
2354.33
2376.82
2310.64
2246.54
2265.84
2405.32
2590.75
4131.48
18117
12548.5
12019.7
16452.5
3688.78
2361.91
2201.9
2094.74
2110.11
2204.2
2249.02
2110.09
1844.67
1588.47
1494.11
1648.72
1931.79
2140.08
2176
2127.16
2079.62
2103.97
2241.14
2422.8
3822.26
16678.2
12473.3
11778.1
15377.3
3491.23
2230.56
2063.67
1968.34
1975.55
2036.7
2054.53
1921.22
1687.49
1462.3
1378.62
1520.95
1777
1963.58
2005.02
1970.89
1940.61
1969.98
2095.64
2286.02
3638.18
16037.3
12186.5
11410.7
14124.2
3334.26
2127.35
1942.17
1856.06
1857.74
1892.58
1890.11
1762.38
1556.71
1355.49
1278.11
1406.9
1634.51
1800.86
1852.01
1834.57
1821.06
1850.84
1961.83
2170.14
3446.12
14696.5
11889.8
11089.6
13346.3
3217.86
2051.1
1834.7
1753.36
1752.36
1767.9
1749.26
1627.97
1444.23
1262.16
1190.86
1306.35
1511.79
1663.21
1719.4
1716.04
1714.56
1742.44
1844.6
2081.45
3288.25
13569.9
11535.9
10811.8
12157.4
3089.04
1991.57
1742.59
1663
1653.61
1654.96
1620.32
1504.21
1341.27
1179.09
1114.34
1221.45
1407.51
1543.75
1603.72
1612.76
1617.42
1647.85
1747.28
2013.85
3185.86
12785.1
11178.6
10500.7
11255.8
2972.95
1949.87
1668.26
1582.49
1561.66
1555.76
1510.81
1400.93
1254.6
1106.68
1046.98
1143.28
1312.96
1437.8
1499.86
1519.86
1527.76
1563.07
1666.59
1961.99
3091.38
11782.3
10842.4
10208.3
10620
2850.18
1914
1618.72
1509.86
1479.67
1465.28
1414.48
1309.33
1177.72
1042.9
987.508
1075.38
1228.96
1343.32
1407.73
1434.49
1447.93
1491.74
1609.73
1927.67
2962.84
10942.6
10542.3
9923.76
9922.21
2726.9
1881.98
1584.19
1446.7
1404.78
1381.28
1326.82
1227.47
1107.61
984.64
934.452
1015.3
1158.19
1263.49
1326.53
1356.39
1376.88
1427.7
1574.08
1903.02
2845.95
10412.6
10253.8
9659.81
9416.86
2623.13
1875.99
1563.28
1394.62
1339.51
1306.14
1249.04
1155.9
1046.65
933.727
887.133
961.218
1091.47
1188.7
1251.05
1285.26
1312.2
1373.87
1550.43
1896.54
2717.39
9773.25
9966.35
9391.89
9144.94
2526.69
1867.86
1553.2
1358.08
1279.92
1238.48
1179.63
1093
992.955
887.627
844.491
912.033
1033.39
1123.27
1182.74
1221.5
1253.82
1336.36
1542.88
1888.44
2593.87
9372.18
9686.33
9105.02
8724.2
2409.73
1827.03
1557.07
1333.68
1229.38
1177.92
1115.7
1033.95
942.094
845.68
806.346
869.404
981.835
1064.77
1122.51
1164.97
1204.36
1310.36
1550.11
1854.81
2477.49
9133.66
9407.23
8838.18
8482.92
2302.35
1777.31
1574.78
1320.18
1190.03
1125.38
1060.11
983.018
898.337
808.053
771.48
828.918
934.448
1011.37
1067.14
1115.32
1166.68
1296.89
1562.49
1796.82
2364.62
8826.14
9117.81
8619.65
8296.43
2238.27
1726.72
1610.63
1318.98
1161.9
1082.29
1011.42
936.892
857.981
773.868
739.948
792.738
890.55
963.078
1019.03
1073.88
1141.17
1294.33
1611.39
1743.25
2269.78
8606.09
8847.95
8419.09
8083.27
2153.3
1660.24
1605.57
1328.43
1140.79
1050.16
969.186
895.077
820.81
741.93
710.85
760.081
853.062
921.355
978.315
1042.55
1121.79
1309.42
1628.19
1691.93
2284.26
8409.66
8629.61
8234.24
7907.39
2097.34
1592.17
1564.72
1363.92
1130.88
1026.2
935.488
858.713
787.527
713.253
684.284
729.788
816.935
882.806
943.518
1019.6
1111.51
1338.43
1588.75
1619.92
2206.2
8205.37
8438.9
8082.63
7728.56
2143.82
1531.87
1508.68
1418.22
1137.12
1006.62
910.651
828.729
758.328
686.823
659.721
701.98
784.759
849.793
917.005
1002.57
1120.21
1406.36
1533.75
1552.91
2181.3
8016.9
8270.86
7936.57
7572.85
2079.59
1470
1444.18
1428.78
1170.39
995.548
890.281
804.633
732.19
662.986
637.616
677.628
758.182
824.056
896.856
993.297
1162.9
1432.52
1469.82
1503.14
2221.54
7842.72
8134.02
7791.95
7403.99
2113.99
1426.22
1379.57
1382.54
1247.05
1003.42
876.064
787.51
712.469
643.22
618.199
656.663
736.263
805.099
881.134
999.7
1236.84
1390.02
1403.43
1449.04
2195.26
7677.08
8001.49
7648.62
7249.53
2168.1
1398.65
1322.37
1330.13
1277.47
1053.65
868.368
772.33
697.845
628.298
600.953
640.33
719.912
789.649
871.503
1046.91
1278.06
1337.75
1342.95
1409.08
2190.24
7514.14
7852.92
7433.2
7066.68
2152.79
1367.02
1272.32
1273.63
1240.11
1132.34
883.149
760.387
685.391
616.928
588.258
628.467
707.045
778.07
886.087
1132.65
1247.66
1279.68
1291.3
1388.88
2233.02
7305.18
7626.99
7150.79
6821.24
2153.09
1348.3
1229.03
1216.31
1197.14
1175.82
938.915
757.528
675.952
607.522
579.527
618.537
696.505
773.466
937.304
1186.89
1205.61
1220.76
1244.72
1365.39
2203.61
7047.68
7338.6
6513.47
6366.93
2138.02
1332.8
1192.41
1166.96
1152.19
1147.08
1029.86
785.618
671.95
599.825
571.746
610.202
690.026
795.923
1029.97
1164.18
1160.31
1170.35
1204.64
1342.86
2160.69
6579.12
6691.53
6032.4
9242
8931.52
7523.85
6076.35
5059.03
4340.13
3766.99
3220.99
2658.41
2102.28
1628.99
1274.52
1025.69
865.235
764.956
700.868
657.745
625.751
600.594
577.573
556.08
534.821
510.665
481.693
448.08
411.655
371.886
335.402
380.344
6206.43
9805.61
9331.91
7753.24
6189.19
5126.92
4390.17
3819.54
3293.37
2758.99
2222.07
1741.36
1362.34
1092.97
910.245
793.723
718.964
668.172
630.862
602.078
576.599
553.829
531.281
506.035
475.352
441.062
405.043
366.15
331.765
377.271
6487.3
10425.6
9700.51
7964.29
6321.46
5224.03
4470.97
3893.96
3376.34
2855.54
2330.12
1848.85
1450.87
1157.76
953.609
820.615
734.461
675.22
632.301
599.644
572.545
548.665
524.768
496.882
465.76
432.261
397.237
360.182
327.961
374.734
6832.5
11047.5
10222.9
8305.7
6552.63
5390.06
4605.38
4017.53
3503.09
2999.34
2479.39
1994.72
1571.71
1245.87
1014.78
860.107
758.794
688.977
639.214
602.068
572.951
548.411
520.761
490.153
458.603
426.261
391.696
355.666
325.37
373.356
7116.5
11689.2
10835.5
8740.11
6859.04
5619.18
4795.39
4191.65
3674.7
3175.98
2658.33
2161.06
1713.73
1352.52
1090.27
909.963
790.029
707.791
649.659
607.787
575.491
545.181
516.17
484.977
452.995
420.471
387.395
352.35
323.713
373.033
7410.77
12400
11495.3
9231.79
7216.12
5898.22
5029.37
4405.23
3883.11
3382.07
2862.12
2350.03
1882.37
1484.76
1185.16
974.797
832.994
734.814
666.435
617.637
578.094
542.922
511.902
480.336
448.85
416.779
383.882
349.406
322.465
372.424
7741.02
13124.1
12192.9
9779.21
7628.42
6224.75
5305.94
4658.53
4128.43
3622.18
3094.67
2570.04
2080.31
1646.19
1304.73
1058.17
887.817
769.749
687.068
624.448
579.012
540.748
507.743
475.88
444.833
413.508
380.304
346.087
321.133
371.909
8068.24
13874
12940.1
10399
8098.92
6600.23
5630.33
4957.66
4414.52
3901.64
3366.61
2830.69
2318.22
1848.45
1462.86
1170.94
963.281
816.181
711.732
636.555
582.703
539.923
504.878
473.11
441.691
409.728
376.713
343.155
319.948
371.662
8397.41
14630
13751.1
11098.2
8650.14
7039.78
6014.36
5309.33
4748.85
4227.91
3686.66
3142.59
2602.66
2096.38
1659.43
1314.72
1059.61
875.975
745.251
653.735
588.774
540.454
503.819
469.911
437.941
405.827
373.029
340.033
318.727
371.434
8691.71
15411.5
14619.9
11886.2
9298.61
7562.62
6467.74
5722.02
5138.09
4605.11
4057.08
3498.34
2936.42
2393.34
1904.81
1500.59
1188.08
957.128
792.564
679.542
600.148
545.039
503.398
467.589
434.464
401.664
368.984
336.847
317.658
371.686
8988.03
16187.9
15546.1
12768.5
10053.9
8182.98
7001.42
6204.38
5589.59
5037.77
4474.91
3900.07
3320.97
2745.55
2205.14
1734.48
1354.34
1064.66
857.408
716.552
619.21
553.558
504.923
465.666
431.593
398.546
366.141
334.753
316.187
372.175
9282.11
16991.6
16537.3
13735.9
10917
8911.42
7627.11
6765.04
6110.1
5519.63
4928.33
4342.77
3750.95
3148.81
2560.26
2021.24
1565.55
1207.22
947.512
769.516
648.587
566.594
508.643
466.294
429.666
395.425
363.059
332.435
316.253
373.043
9624.32
17838.9
17577.7
14781.6
11875.2
9744.45
8354.51
7408.59
6690.56
6043.69
5431.31
4832.04
4224.63
3595.07
2966.77
2363.17
1828.97
1393.25
1070.33
843.988
690.959
587.196
516.86
468.336
427.76
392.526
360.019
330.28
316.278
373.894
9941.57
18736.2
18648.4
15897.3
12924
10681
9189.35
8148.68
7335.02
6625.28
5990.05
5368.87
4739.44
4081.16
3417.17
2760.44
2151.97
1634.33
1233.58
946.197
750.538
617.286
530.72
471.848
427.472
390.471
357.521
328.595
316.395
374.865
10228.5
19633.2
19720.6
17067.1
14065
11725.6
10137
8983.57
8050.61
7283.29
6606.85
5951.06
5289.06
4602.2
3904.38
3205.05
2533.33
1933.03
1444.52
1080.64
829.253
657.56
549.296
478.175
428.922
389.381
355.786
327.468
316.628
375.795
10466.9
20476
20785.6
18273.7
15302.4
12887.6
11203.2
9905.25
8859.29
8020.26
7282.73
6576.09
5872.2
5154.1
4422.05
3682.53
2960.75
2284.75
1703.48
1250.14
928.731
713.01
575.208
488.871
432.163
389.283
354.674
326.767
316.759
376.115
10706.1
21223.8
21834.4
19487.9
16615.1
14173.6
12396
10940.2
9766.87
8834.03
8016.1
7246.1
6491.57
5735.94
4969.25
4191.19
3426.24
2682.91
2011.49
1463.15
1060.22
786.506
612.168
504.904
436.916
390.102
353.863
325.882
316.305
376.905
10943
21874.1
22858.9
20689.8
17980.6
15594.5
13723.9
12105.4
10801.6
9741.46
8821.53
7972.49
7154.71
6353.9
5553.77
4745.23
3939.79
3133.71
2378.36
1731.32
1233.7
886.738
664.489
528.543
445.983
392.401
353.363
324.739
315.811
380.041
11101.2
22367.6
23728.1
21854.3
19387.6
17147.5
15187.4
13423.3
11978
10771.6
9723.5
8766.46
7871.99
7016.25
6176.79
5332.92
4486.09
3628.17
2801.58
2059.39
1456.59
1020.96
737.179
562.994
460.183
396.97
354.036
324.228
316.136
383.1
11195.3
22794.8
24385.8
22934.7
20810.5
18806.3
16811.6
14918.8
13323
11952.9
10744.5
9645.95
8657.22
7731.37
6839.45
5953.92
5065.05
4158.84
3268.65
2440.88
1733.22
1195
834.491
610.835
480.686
404.468
356.165
324.671
317.061
386.107
11323.6
22945.7
24745.2
23854.1
22229.5
20575
18613.4
16616.4
14863.2
13308.6
11913
10651.8
9537.38
8520.68
7557.28
6615.32
5675.45
4724.19
3773.95
2874.01
2066.34
1415.55
961.862
675.107
509.301
415.47
359.959
325.998
317.908
388.249
11361.5
23018.9
24774
24556.1
23666.6
22452.8
20617.9
18549
16629.7
14871.9
13266.3
11828.8
10555.7
9414.96
8351.3
7331.08
6323.55
5321.79
4315.85
3353.59
2455.18
1686.59
1124.46
759.233
546.772
430.492
365.545
327.992
318.949
391.042
11456.3
22669.5
24416.2
24963.9
25060.9
24452.9
22853.6
20744.9
18664.8
16687.3
14856.4
13205.6
11743.6
10438.7
9236.22
8109.79
7014.24
5949.7
4895.28
3864.85
2883.53
2004.81
1325.32
865.633
595.048
447.783
370.741
328.773
318.987
393.59
11280.1
22237
23887.3
25300.6
26534.5
26648.7
25336.3
23241.1
21006.8
18795.2
16720.6
14816.8
13117.3
11598.3
10215.2
8955.57
7755.63
6615.88
5507.17
4396.53
3338.57
2365.3
1569.08
1000.54
656.471
470.078
376.837
329.613
317.964
395.978
10718
22395.9
23801.5
25884.9
28208.2
29071.8
28100.4
26065.2
23698.2
21257.4
18870.6
16658.3
14673.1
12902.7
11307.7
9883.39
8564.89
7328.25
6138.95
4958.81
3834.94
2779.28
1865.13
1177.09
740.238
502.841
387.316
332.494
317.907
398.735
377.73
333.742
370.263
409.9
446.04
479.177
507.54
531.649
553.052
574.373
596.599
620.895
652.506
696.847
763.329
867.854
1035.01
1290.53
1661.35
2152.48
2719.36
3285.81
3829.29
4407.83
5154.47
6220.57
7733.13
9184.62
9461.34
6149.98
374.776
330.034
364.669
403.621
439.51
473.173
502.656
527.919
550.584
573.39
597.913
626.007
662.584
714.045
790.387
909.87
1096.12
1372.57
1762.42
2254.22
2795.3
3334.85
3861.27
4440.36
5206.9
6319.5
7946.79
9580.23
10025.6
6325.67
372.285
326.357
358.69
396.327
431.387
464.994
495.494
521.603
545.726
570.144
596.702
628.532
670.432
729.273
815.436
948.712
1153.23
1450.62
1856.77
2345.64
2874.09
3398.73
3918.57
4506.4
5289.53
6438.75
8149.17
9946.17
10653.3
6609.83
370.863
323.839
354.32
391.582
426.446
459.908
491.843
519.196
543.985
570.16
599.579
635.804
684.964
753.525
853.198
1004.47
1233.13
1560.21
1986.19
2474.47
2994.05
3505.56
4023.47
4624.07
5437.02
6655.74
8483.15
10465.8
11275
6958.35
371.07
322.715
351.316
386.997
421.217
455.511
488.187
518.935
545.809
572.02
604.611
646.349
703.658
784.203
900.786
1075.3
1332.79
1690.91
2138.3
2634.13
3153.28
3656.57
4179.84
4800.22
5650.89
6948.86
8913.31
11077.3
11915.9
7240.53
370.737
321.794
349.004
384.499
418.466
451.582
484.307
516.007
546.842
578.533
613.27
662.167
729.658
825.221
963.369
1167.03
1459.38
1849.3
2314.5
2821.82
3342.6
3846.11
4377.12
5021.05
5914.67
7296.35
9400.67
11736.5
12621.6
7531.71
370.349
320.766
346.432
380.884
415.037
447.585
479.642
511.659
545.217
582.597
625.909
683.533
764.156
879.016
1045.14
1286.36
1619.72
2041.44
2521.81
3037.05
3564.4
4073.33
4612.64
5276.84
6229.38
7697.59
9945.19
12434.4
13339
7862.55
370.27
319.99
344.223
378.32
412.307
444.659
476.439
508.877
544.751
587.845
640.454
711.406
811.335
952.687
1153.82
1433.89
1810.02
2271.05
2773.88
3295.07
3828.1
4347.51
4900.76
5591.09
6594.29
8166.4
10564.9
13184.9
14082.7
8181.3
370.205
319.137
341.825
375.445
408.972
442.139
474.211
507.774
545.98
594.316
657.983
744.675
868.769
1045.38
1290.93
1620.3
2046.12
2541.41
3069.69
3602.27
4139.38
4668.4
5240
5962.87
7022.41
8711.09
11269.4
13996.3
14835.7
8508.26
370.616
318.463
339.569
372.471
405.568
438.878
471.741
506.885
549.252
604.984
683.256
791.469
946.705
1167.02
1468.01
1855.77
2332.37
2864.25
3415.19
3963.64
4496.69
5046.04
5642.3
6406.85
7534.78
9353.89
12066
14876.2
15611
8798.33
371.203
318.048
337.381
369.488
402.182
435.532
470.29
508.143
555.258
621.47
717.751
853.342
1049.57
1324.98
1690.76
2145.82
2674.04
3239.62
3809.33
4382.68
4915.73
5482.49
6114.71
6931.62
8145.55
10104.8
12957.1
15813.4
16388.5
9090.73
372.137
317.838
335.336
366.612
399.43
433.242
469.77
512.695
568.059
647.28
766.182
937.493
1185.66
1527.18
1966.03
2489.15
3068.04
3662.04
4244.16
4836.62
5416.68
5977.83
6660.98
7545.08
8866.16
10964.8
13927.8
16809.7
17191.9
9389.96
372.926
317.489
333.233
363.748
396.693
431.952
471.013
519.972
587.611
687.055
835.543
1053.09
1364.54
1782.33
2298.62
2886.32
3510.15
4135.49
4734.12
5340.34
5956.44
6577.68
7284.67
8249.8
9698.57
11929.4
14979.3
17855.5
18040.6
9728.35
373.478
316.747
330.796
360.524
394.787
431.915
475.693
532.622
616.645
743.591
931.913
1210.38
1597.35
2098.76
2690.17
3335.65
3996.49
4654
5278.04
5902.97
6544.52
7237.26
8019.91
9056.18
10630
12985.6
16102.2
18933
18935.7
10044
372.49
315.706
328.807
358.715
393.778
433.641
482.936
551.52
657.212
819.843
1061.97
1416.53
1891.52
2479.58
3138.51
3830.82
4526.04
5213.32
5872.03
6526.22
7203.56
7954.42
8854.69
9997.74
11662.9
14133.5
17284.7
20014.7
19830.1
10330.5
373.737
316.302
328.344
358.082
393.822
437.045
493.494
577.988
710.911
919.971
1231.47
1673.53
2244.03
2914.61
3631.51
4364.08
5091.89
5810.12
6510.7
7210.21
7940.62
8761.03
9783.89
11075.3
12811.2
15378.7
18508.8
21085.2
20677.4
10568.2
375.567
316.709
327.983
357.667
394.564
442.405
508.876
613.832
781.948
1049.42
1443.87
1979.46
2643.4
3384.07
4151.16
4925.73
5688.4
6441.76
7190.41
7954.62
8758.94
9668.82
10821.6
12265.4
14096.3
16700.8
19740.2
22134.1
21449.1
10808.6
378.063
317.493
327.778
357.35
396.607
450.649
530.823
663.252
877.256
1215.99
1706.43
2343.4
3094.04
3893.21
4707.13
5517.78
6314.67
7109.27
7916.91
8762.96
9668.01
10699.3
11985.7
13590
15524.1
18069.7
20956.8
23167.6
22120.1
11054.5
380.725
318.778
327.937
357.604
400.391
462.424
561.694
729.762
1002.84
1429.21
2023.73
2761.59
3590.85
4447.06
5300.92
6143.49
6978.11
7823.62
8705.66
9654.5
10690.7
11873.5
13301.1
15056.3
17081.4
19481
22132.7
24063.9
22631.3
11216.2
384.234
319.799
328.589
358.975
406.615
479.395
603.285
817.698
1166.31
1695.33
2393.99
3223.63
4117.49
5030.06
5922.84
6805.09
7690.19
8602.89
9575.36
10660.6
11858.6
13215.3
14792.6
16682.3
18747.6
20915.1
23221.9
24749.6
23077.6
11315.4
386.17
319.868
329.089
362.638
415.497
502.729
659.324
932.776
1372.9
2012.81
2815.88
3721.74
4675.15
5637.56
6578.64
7513.65
8468.93
9470.6
10566.7
11811.2
13199.4
14745.2
16486.2
18486.4
20522.9
22337.5
24143.5
25135.4
23253
11449
388.189
318.93
329.036
366.908
427.562
534.797
733.394
1080
1623.93
2378.33
3277.01
4247.8
5258.95
6272.96
7278.08
8288.25
9344.61
10472.4
11723.7
13144.4
14741
16503.9
18417.9
20489.7
22406.7
23777
24856
25190.2
23351.9
11496.8
390.158
318.534
329.56
371.468
442.328
575.808
826.858
1260.7
1914.11
2776.91
3759.48
4794.77
5861.28
6939.16
8031.01
9149.01
10347.3
11645.7
13086.8
14703
16524.2
18525.1
20619.7
22723.8
24416.5
25196.2
25281.4
24845.3
23028
11605.7
392.511
318.942
331.879
377.822
462.437
628.773
944.585
1478.71
2244.7
3202.36
4259.75
5364.79
6486.34
7640.22
8842.81
10109.6
11489.5
13007.6
14686.3
16548.4
18593.1
20833
23100.3
25218.1
26633.9
26694.4
25631.9
24313.1
22602.8
11441.1
395.259
320.055
335.548
387.885
490.642
699.683
1096.26
1742.45
2622.74
3664.36
4784.93
5961.72
7156.3
8405.94
9743.59
11182.6
12777.7
14558.4
16537.9
18700.4
21020.6
23479.7
25910.4
28011.9
29093.3
28398.2
26241.6
24223.4
22715.6
10880.3
10086.3
10361.9
10821.6
11437.3
12197
13054.2
13983.7
14957.9
15956.2
16968
17983.3
18996.9
19994.8
20968.4
21914.8
22829.4
23704.4
24532.9
25313.7
26054.7
26763.8
27446.3
28095.4
28712.5
29298.6
29850
30367.9
30865.7
31352.8
31821.5
32266.8
32684.6
33070.8
33421.2
33729
34008.7
34278.5
34507.1
34694.6
34832
34918.3
34948.7
34915.5
34811.8
34643.7
34417.9
34118.8
33740.6
33277.2
32732
32116.5
31425.6
30657.4
29813.3
28899.4
27927.8
26904.9
25835.9
24726.3
23582.8
22415
21234.6
20067.5
18935.3
17822
16733.3
15673.6
14644.3
13648.3
12687.2
11763.6
10879.5
10036.3
9235.3
8477.31
7762.96
7093.25
6468.37
5886.71
5344.74
4841.17
4375.76
3946.63
3551.11
3185.9
2848.07
2536.19
2249.49
1986.87
1748.08
1532.36
1339.57
1169.4
1021.26
894.596
788.119
700.039
628.844
572.562
528.767
495.216
470.194
451.912
438.72
429.386
423.065
418.937
416.382
415.075
415.204
415.645
416.349
417.299
418.217
418.985
419.074
417.668
415.68
413.289
410.882
407.652
405.682
404.034
401.148
398.076
28367.9
29279
30544.2
32216.6
34098.3
36205.3
38434.2
40739.7
43075.1
45423.3
47770.7
50105.1
52409
54669.5
56876
59015.3
61073.3
63039.6
64918.3
66734
68489.7
70199.1
71853
73447.4
74985.1
76459.4
77883.7
79264.1
80584.6
81841.3
83025.8
84128.9
85142.3
86058.6
86875.1
87593.6
88199
88684.7
89058
89314.7
89449.3
89455.2
89326.7
89067.3
88620.3
88029.8
87272.4
86337.1
85215.6
83907.7
82431.9
80782.1
78958.1
76965.5
74818.5
72542.9
70150.9
67651.4
65054.8
62373.9
59624.5
56814.3
53940.5
51001
48050.4
45147.1
42326.2
39583.7
36932.5
34377.5
31922.3
29577
27347.6
25239
23257.2
21406.2
19687
18096.5
16629.6
15281.3
14043.7
12906.5
11857.6
10885.1
9976.82
9123.8
8318.86
7556.65
6833.05
6145.99
5494.99
4881.03
4305.87
3771.67
3280.01
2832.07
2429.07
2070.43
1756.62
1486.18
1256.32
1063.75
905.007
775.86
672.499
590.941
527.246
478.379
441.228
413.746
393.127
377.389
366.079
359.724
357.106
356.655
354.359
349.513
343.676
337.922
332.481
328.442
325.858
323.439
321.55
43678.3
45025.4
46903
49250.2
51885.1
54731.3
57701.9
60740
63800.9
66859.4
69899.6
72908.1
75870.1
78771
81598.7
84342.3
86994.3
89556.7
92046.4
94486.6
96865.5
99186.6
101451
103658
105810
107893
109921
111887
113781
115590
117301
118904
120388
121745
122971
124061
125007
125805
126457
126958
127304
127486
127497
127326
126947
126356
125543
124495
123199
121642
119823
117776
115489
112966
110230
107306
104219
100978
97593.3
94082.4
90471.8
86773.4
82992.4
79137.1
75214.9
71241.3
67222.8
63216.8
59307.9
55510.7
51838.7
48309.4
44925.9
41697.9
38633.3
35738.5
33016.4
30467.7
28088.7
25875.7
23823.8
21924.1
20165.7
18537.3
17027.7
15627.3
14328.2
13120.5
11997.4
10953
9981.51
9077.49
8236.67
7455.25
6728.93
6053.93
5425.91
4840.97
4298.11
3794.09
3328.96
2901.93
2514.45
2166.57
1857.63
1586.68
1352.61
1155.6
990.75
857.248
748.563
659.49
589.348
536.795
499.635
473.486
451.428
429.138
408.027
389.256
374.136
362.872
354.678
346.962
340.715
60510.3
62268.9
64686.5
67613
70846.9
74275.5
77813.2
81401
84997.1
88576.7
92124.1
95626.3
99071.5
102450
105756
108985
112137
115227
118274
121295
124276
127205
130078
132909
135701
138423
141075
143658
146157
148554
150832
152978
154982
156835
158531
160065
161435
162639
163679
164551
165248
165760
166075
166173
166031
165631
164957
163992
162725
161139
159228
157009
154486
151662
148548
145153
141574
137798
133827
129683
125393
120970
116407
111703
106872
101952
96955.6
91887.4
86749.9
81588.8
76490.6
71588.1
66854.2
62298.4
57950.6
53815.7
49899.3
46206.1
42736.9
39488.9
36456
33630.2
31002.7
28563
26300.8
24206.2
22269.2
20477.1
18819.6
17287.6
15869.2
14557.9
13344.8
12222.3
11182.3
10217.6
9321.97
8488
7711.58
6985.85
6306.76
5670.23
5075.12
4520.69
4005.15
3528.53
3089.66
2692.48
2333.82
2016.75
1737.06
1489.59
1278.96
1107.48
972.229
863.397
768.506
683.639
610.413
550.428
503.653
468.82
441.755
419.025
401.65
79110.2
81291.1
84206
87655.7
91409.4
95333.9
99344.1
103383
107414
111417
115378
119289
123144
126943
130688
134383
138039
141673
145306
148945
152572
156148
159679
163183
166656
170063
173375
176608
179741
182753
185624
188338
190885
193256
195449
197462
199299
200963
202460
203788
204938
205894
206637
207138
207368
207302
206912
206178
205080
203605
201750
199520
196923
193974
190685
187084
183225
179129
174799
170235
165401
160409
155200
149744
144054
138206
132204
126060
119802
113478
107123
100712
94350.8
88160.9
82260.2
76618.6
71250.1
66166.2
61359.3
56836.8
52598.4
48639.2
44951.9
41522.9
38340
35388.6
32653.8
30121.4
27778
25609.5
23601.7
21744.4
20025.5
18433.6
16957.5
15587.5
14314.1
13129.9
12028.4
11000.6
10041.3
9145.06
8308.27
7528.07
6798.46
6117.85
5482.24
4892.07
4347.07
3849.01
3390.53
2964.37
2576.17
2244.26
1964
1721.88
1501.05
1296.1
1110.36
951.105
822.524
720.621
640.944
578.585
528.543
98799.7
101391
104743
108643
112835
117177
121582
125999
130394
134754
139071
143345
147582
151788
155976
160157
164347
168563
172817
177101
181383
185639
189843
194016
198157
202242
206201
210034
213751
217320
220720
223936
226955
229772
232386
234806
237047
239126
241053
242829
244440
245862
247062
248004
248652
248975
248939
248515
247684
246433
244758
242661
240152
237247
233971
230366
226479
222338
217950
213282
208305
203031
197430
191458
185064
178364
171463
164313
156950
149449
141869
134224
126557
118933
111365
103968
96865
90141
83770.4
77771.1
72146.1
66887.2
61980.9
57417.8
53182.1
49253.1
45609.8
42229.2
39092.2
36179.8
33472.8
30954.6
28610.6
26427.6
24392.8
22496.1
20727.3
19077.4
17539
16102.2
14761.5
13513.6
12348.2
11263.2
10251.9
9311.63
8436.32
7620.21
6861.92
6161.85
5513.17
4908.89
4343.62
3849.29
3425.9
3052.96
2698.46
2361.71
2039.01
1738.87
1475.88
1253.58
1068.48
917.152
794.081
118703
121668
125369
129625
134162
138829
143543
148256
152944
157598
162222
166826
171425
176035
180671
185346
190074
194863
199708
204583
209459
214297
219087
223831
228531
233165
237650
241948
246072
250012
253741
257243
260504
263525
266317
268906
271332
273627
275812
277881
279812
281568
283105
284378
285354
285999
286272
286141
285589
284615
283221
281411
279190
276575
273596
270299
266730
262910
258817
254396
249594
244371
238701
232565
225929
218853
211418
203615
195431
186889
178251
169451
160561
151713
142950
134282
125719
117331
109245
101609
94462.6
87786
81581.2
75823.5
70487.6
65543.8
60955.7
56693.1
52724.2
49020
45553.8
42304.3
39254.5
36391
33703.9
31182.3
28814.7
26591.9
24510.2
22559.7
20729
19014.4
17413.3
15923.6
14538
13249.3
12052.2
10938.3
9904.03
8946.41
8059.47
7240.01
6478.87
5803.66
5228.57
4719.87
4228.74
3761.44
3313.91
2880.72
2478.93
2121.75
1805.03
1527.9
1291.46
137932
141208
145156
149664
154436
159318
164233
169142
174028
178897
183763
188645
193563
198533
203563
208659
213825
219051
224313
229575
234818
240018
245143
250194
255175
260071
264785
269261
273464
277391
281026
284363
287400
290151
292648
294953
297133
299247
301317
303321
305226
306980
308528
309828
310858
311587
311962
311959
311590
310885
309854
308497
306805
304780
302450
299858
297042
294007
290693
287005
282847
278160
272921
267107
260718
253812
246449
238652
230399
221717
212690
203316
193607
183771
174051
164366
154737
145329
136140
127197
118597
110471
102992
96077.7
89687.9
83780.5
78298.9
73194.6
68423.3
63942.3
59717.4
55722.1
51939.3
48354.9
44957.9
41739.6
38691.9
35810.1
33089.9
30523.5
28104.3
25828.7
23695.8
21700.5
19837.6
18100.6
16487.6
14987.3
13593.5
12304
11112.6
10018.5
9016.14
8118.67
7350.47
6666.13
6008.33