/*--------------------------------*- C++ -*----------------------------------*\
| =========                 |                                                 |
| \\      /  F ield         | OpenFOAM: The Open Source CFD Toolbox           |
|  \\    /   O peration     | Version:  2112                                  |
|   \\  /    A nd           | Website:  www.openfoam.com                      |
|    \\/     M anipulation  |                                                 |
\*---------------------------------------------------------------------------*/
FoamFile
{
    version     2.0;
    format      ascii;
    arch        "LSB;label=32;scalar=64";
    class       volScalarField;
    location    "0.00932";
    object      nut;
}
// * * * * * * * * * * * * * * * * * * * * * * * * * * * * * * * * * * * * * //

dimensions      [0 2 -1 0 0 0 0];

internalField   nonuniform List<scalar> 
13875
(
0.0511675
0.0366255
0.0343658
0.0343278
0.0342988
0.0343345
0.0342941
0.0342759
0.0343132
0.0343075
0.0342807
0.0342899
0.0343216
0.0343418
0.0343306
0.0342932
0.0342676
0.0342894
0.0343023
0.0343266
0.0343037
0.0343344
0.0343817
0.0365685
0.0514307
0.0532618
0.0341199
0.0322224
0.0321055
0.0320616
0.0320828
0.0320337
0.0320136
0.0320562
0.0320628
0.0320271
0.0320425
0.032053
0.0320724
0.0320605
0.032047
0.0320036
0.032034
0.032046
0.0320759
0.0320635
0.0321025
0.0322283
0.0340557
0.0536399
0.0564568
0.0335617
0.0318029
0.0315923
0.0315669
0.0315751
0.0314662
0.031429
0.031467
0.0314733
0.0314319
0.0314602
0.03153
0.0315555
0.0315346
0.0314644
0.0314078
0.0314445
0.031478
0.0315676
0.0315644
0.0315803
0.0317947
0.0334956
0.0565956
0.0590704
0.0332328
0.0314896
0.0312766
0.0312592
0.0312614
0.03114
0.0311021
0.0311314
0.0311231
0.0310897
0.0311139
0.0312137
0.0312396
0.0312182
0.0311164
0.0310725
0.0311019
0.0311463
0.0312539
0.0312552
0.0312625
0.0314852
0.0331695
0.0591436
0.0611257
0.0330041
0.0312465
0.0310033
0.0309819
0.0309776
0.0308519
0.0308173
0.0308441
0.0308315
0.0308028
0.0308244
0.0309258
0.0309543
0.0309297
0.0308269
0.030786
0.0308143
0.0308592
0.0309687
0.0309766
0.0309899
0.0312305
0.0329191
0.061256
0.0628183
0.0328483
0.0310896
0.0307722
0.0307489
0.0307274
0.0305916
0.030558
0.0305815
0.0305658
0.030542
0.0305604
0.0306639
0.0306947
0.0306676
0.0305622
0.0305256
0.0305531
0.0305997
0.0307199
0.0307436
0.0307613
0.0310592
0.0328222
0.0629729
0.0648267
0.0330733
0.0311043
0.0306335
0.0305654
0.0305204
0.0303647
0.0303282
0.0303431
0.0303254
0.0303069
0.0303222
0.0304284
0.0304586
0.0304284
0.0303216
0.0302925
0.0303204
0.030376
0.0305121
0.03056
0.0306333
0.0311136
0.0330702
0.0648683
0.0670933
0.0339365
0.0314252
0.0306515
0.0304818
0.0303685
0.0301822
0.0301286
0.0301327
0.030114
0.0301009
0.0301096
0.0302197
0.0302517
0.0302186
0.0301075
0.0300886
0.0301206
0.0301896
0.0303572
0.0304673
0.0306299
0.0313927
0.033896
0.0673628
0.0736454
0.0362966
0.0320411
0.0308465
0.0304724
0.0302779
0.0300493
0.0299713
0.029957
0.0299366
0.0299326
0.0299351
0.0300487
0.0300827
0.0300489
0.0299346
0.0299225
0.0299581
0.030044
0.0302597
0.0304503
0.0308024
0.0319356
0.0359999
0.074195
0.0829001
0.0384712
0.0327363
0.0311892
0.0305801
0.0302459
0.0299832
0.029887
0.0298543
0.0298333
0.029834
0.0298337
0.0299459
0.0299813
0.0299497
0.0298465
0.0298322
0.0298727
0.0299653
0.03022
0.0305503
0.0310811
0.0326237
0.0381056
0.0835483
0.0907237
0.0441435
0.0346481
0.0319938
0.0308191
0.030366
0.0300546
0.0299086
0.029857
0.0298353
0.0298324
0.0298309
0.0299369
0.0299736
0.0299505
0.029872
0.0298556
0.0299031
0.0300352
0.0303038
0.0307943
0.0318815
0.0343629
0.0432648
0.0893487
0.0950691
0.0545315
0.0403718
0.0334517
0.0318772
0.0308481
0.0303408
0.0301305
0.0300435
0.0300115
0.0299986
0.0300004
0.0300911
0.030131
0.0301207
0.0300714
0.0300635
0.0301363
0.0303211
0.0308359
0.0317991
0.0332291
0.0398487
0.0533654
0.094259
0.0866134
0.0688986
0.051478
0.0417546
0.0343717
0.0319403
0.0312855
0.0308186
0.0306306
0.0305484
0.0305076
0.0305042
0.0305736
0.0306164
0.0306272
0.0306218
0.030675
0.0308695
0.0313308
0.0320047
0.0347659
0.0415815
0.0509507
0.0687659
0.0866026
0.079613
0.066051
0.058118
0.0654828
0.0416894
0.0371612
0.0336383
0.0324286
0.032032
0.0319741
0.0319364
0.0319322
0.0319936
0.0320377
0.0320628
0.0320878
0.0321373
0.0325328
0.034078
0.0382581
0.0432072
0.0657074
0.0578308
0.0661747
0.0816123
0.0753384
0.0643529
0.0565537
0.0605221
0.0561279
0.0538354
0.0442902
0.0388208
0.036723
0.0358832
0.0355052
0.0353826
0.0354013
0.0354595
0.0355684
0.0358657
0.0366676
0.0389002
0.0451633
0.0552211
0.0557445
0.0612436
0.0565964
0.0641547
0.0746651
0.0671777
0.0618814
0.0542715
0.0571823
0.0560129
0.0571818
0.0544915
0.0530761
0.0507965
0.0483184
0.0474752
0.0471322
0.0470388
0.0471229
0.0472857
0.0477885
0.0504338
0.0542573
0.0554455
0.0577203
0.0556151
0.0580061
0.0543087
0.0614983
0.066481
0.0624143
0.0582106
0.0524252
0.0549619
0.0567709
0.0612014
0.068071
0.0729031
0.0701337
0.0707324
0.0730438
0.0745231
0.0752994
0.0749858
0.0734783
0.0726912
0.0700841
0.0728616
0.0686761
0.061192
0.0562962
0.0552978
0.0519628
0.0575779
0.0624384
0.05701
0.0546855
0.0530418
0.0568347
0.0599464
0.0630244
0.0707842
0.0791648
0.074507
0.070374
0.0692599
0.069367
0.0699022
0.0696243
0.0697882
0.0727123
0.073983
0.0767401
0.0708321
0.0641696
0.0609386
0.0576538
0.0528217
0.0542672
0.0567908
0.0513837
0.0541544
0.0558269
0.0617496
0.0669412
0.0648642
0.0672916
0.0751791
0.0744547
0.0705119
0.0687242
0.0683439
0.0684299
0.0689191
0.0698739
0.0717896
0.0728952
0.0731181
0.0677244
0.0667253
0.0696533
0.0629994
0.0562457
0.0544093
0.0521573
0.0493749
0.0573279
0.0603101
0.0656634
0.0686931
0.064598
0.0638843
0.0695083
0.0719575
0.0705223
0.0687457
0.0672123
0.0664929
0.0680727
0.0700586
0.0709992
0.0699336
0.0678132
0.0645473
0.066539
0.0707359
0.0664472
0.0608752
0.0576386
0.0487797
0.0774853
0.0886996
0.0774011
0.0652549
0.0650163
0.0616215
0.060677
0.065516
0.0694558
0.0695557
0.0676985
0.0652193
0.0640558
0.0663714
0.0690601
0.0695346
0.0672269
0.0640897
0.0614597
0.0634631
0.0667571
0.0669096
0.0798885
0.0917632
0.0822851
0.128419
0.160894
0.090064
0.0620196
0.0608915
0.0586023
0.0580234
0.0625362
0.0670144
0.0678868
0.0659331
0.0628258
0.0613926
0.0641118
0.067276
0.0675966
0.0647437
0.0613685
0.0587234
0.0602106
0.0623116
0.0637887
0.0931421
0.165465
0.134486
0.152732
0.145633
0.0842105
0.0591782
0.0575452
0.0560251
0.0556497
0.0600965
0.0646935
0.0658436
0.0637246
0.0602936
0.0586793
0.0615138
0.0650132
0.0654931
0.0624397
0.0590815
0.0562397
0.0572883
0.0586664
0.0606901
0.0838947
0.144422
0.153457
0.161374
0.146132
0.0767453
0.0570094
0.0547419
0.0536694
0.0536061
0.0578709
0.0624468
0.0636345
0.0612895
0.0576738
0.056099
0.0589782
0.0626882
0.0633834
0.0601895
0.0568315
0.0541674
0.0548179
0.0558567
0.0585564
0.0776915
0.150464
0.160714
0.167196
0.147287
0.0726871
0.0554282
0.0526638
0.0516773
0.0519469
0.0559105
0.0602522
0.0613352
0.0589044
0.0552487
0.0537121
0.0565603
0.0603822
0.0611936
0.0581014
0.0548235
0.0523739
0.0527186
0.0538206
0.0570056
0.0744
0.154257
0.167539
0.174634
0.15078
0.0699081
0.0539402
0.0510397
0.0499914
0.0505945
0.0541989
0.0581637
0.0590893
0.0566722
0.0530273
0.0515171
0.0542601
0.0580651
0.0589938
0.0561805
0.05306
0.0507893
0.0508246
0.052145
0.0553255
0.0714565
0.156949
0.17723
0.184292
0.146988
0.0666989
0.0525213
0.0497823
0.048623
0.0494631
0.0526949
0.0561356
0.0567633
0.054411
0.0509633
0.0495349
0.0522271
0.05595
0.0569157
0.0544314
0.0515183
0.0494185
0.0493088
0.0509149
0.0539902
0.0689415
0.155279
0.184367
0.190062
0.146391
0.0648271
0.0514382
0.0488106
0.0475662
0.0484739
0.0513369
0.0542892
0.0546854
0.052421
0.0491187
0.0477352
0.0503045
0.0538856
0.0549311
0.052837
0.0501855
0.0482649
0.0481082
0.049814
0.0527743
0.0671297
0.155655
0.192055
0.195135
0.148423
0.0637146
0.0505554
0.0480156
0.0468163
0.0476157
0.050101
0.052578
0.0527393
0.0506046
0.0474734
0.046103
0.0485338
0.0519002
0.0529856
0.0513332
0.0489895
0.0472605
0.0471279
0.0488173
0.0517153
0.0652547
0.150996
0.200128
0.202119
0.145604
0.0627584
0.0498424
0.0472337
0.0462231
0.0469576
0.048993
0.0509347
0.0508446
0.048815
0.0459111
0.0446299
0.0469998
0.0502363
0.0513202
0.0499758
0.047927
0.0464364
0.0463575
0.0479051
0.0509442
0.0645788
0.15177
0.203876
0.204344
0.14182
0.0622236
0.0494254
0.0465459
0.0456604
0.0463379
0.0479751
0.0494695
0.0491811
0.0472827
0.0445486
0.043293
0.0455511
0.0485896
0.0496789
0.0487121
0.0470056
0.0457689
0.0456734
0.0470252
0.050331
0.0636843
0.146919
0.209236
0.206835
0.141605
0.062141
0.0493102
0.0459288
0.0450952
0.0457516
0.0470681
0.0481731
0.0477325
0.0459207
0.0433108
0.0420922
0.0442132
0.0471168
0.0482454
0.047571
0.0461811
0.0451431
0.045
0.0462462
0.050011
0.0631004
0.143659
0.211753
0.210975
0.13716
0.0618337
0.0493784
0.0454573
0.044627
0.0451552
0.0462082
0.0469088
0.0463148
0.0446019
0.0421661
0.0410062
0.0430715
0.0458355
0.0469452
0.0465154
0.0454258
0.044517
0.0444189
0.0456604
0.0499531
0.0631451
0.143175
0.213547
0.212046
0.134801
0.0616909
0.049681
0.0451603
0.0441935
0.0445184
0.045413
0.0458034
0.0451076
0.0434749
0.0411419
0.0400237
0.0419587
0.0446174
0.0457536
0.0455393
0.0447368
0.0439068
0.0438974
0.0452435
0.0500821
0.0632827
0.139893
0.216023
0.213039
0.134467
0.061416
0.0500549
0.0452043
0.0437992
0.0439301
0.0446316
0.0447938
0.0439953
0.0424428
0.0402189
0.0391357
0.0409753
0.0434933
0.0446367
0.044625
0.0440407
0.043343
0.0435065
0.0451447
0.0504361
0.062982
0.13777
0.21695
0.215155
0.132592
0.0610253
0.0504363
0.0454548
0.0434927
0.0433834
0.0438628
0.0438395
0.0429736
0.0414645
0.039343
0.0383252
0.0400856
0.042545
0.0436859
0.0437895
0.0433497
0.0428266
0.0431518
0.045358
0.0509345
0.0627822
0.138208
0.21783
0.215437
0.132564
0.0608587
0.0512254
0.045918
0.0433119
0.0429079
0.0431367
0.0429492
0.0420527
0.0406004
0.0385707
0.0375899
0.0392641
0.0416017
0.0427451
0.0429685
0.0427047
0.042358
0.0429256
0.0457533
0.0516877
0.0623317
0.136739
0.219234
0.215426
0.134837
0.060734
0.0520026
0.0465447
0.0433511
0.0424568
0.0424609
0.0421316
0.0412304
0.0398303
0.0378537
0.0369138
0.0384937
0.0407722
0.0419079
0.0421927
0.0421052
0.0419195
0.0429354
0.0464018
0.0524495
0.06186
0.137607
0.219109
0.215848
0.13473
0.0602024
0.0522143
0.047392
0.0436047
0.0421281
0.0418546
0.0413478
0.0404196
0.0390643
0.0371874
0.0363038
0.0378324
0.0400239
0.0411324
0.0414868
0.0415654
0.0415855
0.0431332
0.0472965
0.0527765
0.0613914
0.140176
0.218737
0.214988
0.136767
0.0597064
0.0522171
0.0484705
0.044036
0.0419557
0.0413323
0.0406617
0.0397188
0.0384098
0.0365829
0.0357355
0.0371716
0.0393175
0.0404121
0.0408275
0.0411095
0.0414434
0.0435555
0.0482531
0.0526538
0.0608467
0.141283
0.218642
0.214458
0.139344
0.0595198
0.0521216
0.0498923
0.0447057
0.041983
0.0409556
0.0400614
0.039068
0.0377885
0.0360266
0.0352174
0.036579
0.0386392
0.0397406
0.0402566
0.0407732
0.04152
0.0441841
0.0498657
0.0525364
0.060493
0.143534
0.217529
0.21458
0.14115
0.0592274
0.0517161
0.0505963
0.0455545
0.0421423
0.0407823
0.0395642
0.038476
0.0372053
0.0354913
0.0347305
0.0360393
0.038074
0.039171
0.0397981
0.0406059
0.0417047
0.0451382
0.0509897
0.0523547
0.0610335
0.146244
0.21679
0.213832
0.143428
0.0592124
0.0511832
0.0505966
0.0469054
0.04253
0.0407654
0.0392191
0.0379658
0.0366805
0.0350121
0.034283
0.0355287
0.0375012
0.0386325
0.0394419
0.0406139
0.0420883
0.0463572
0.0510298
0.0517951
0.0609011
0.14814
0.216636
0.213312
0.145809
0.0602491
0.0506776
0.0502295
0.0486407
0.0432507
0.0408338
0.0390585
0.0375848
0.0362313
0.0345635
0.0338637
0.0350528
0.0369949
0.0381965
0.0392529
0.0407396
0.0428675
0.048334
0.0507063
0.0512258
0.061305
0.150298
0.215955
0.213099
0.14792
0.0602394
0.0501382
0.0496319
0.0495461
0.04454
0.0410952
0.0389969
0.0373326
0.0358381
0.0341645
0.0334915
0.0346505
0.0366076
0.0379111
0.0391997
0.0410404
0.0443545
0.049557
0.050142
0.050867
0.0625294
0.152551
0.215485
0.21219
0.149936
0.0614183
0.0498377
0.0489542
0.0492344
0.0467167
0.0418005
0.039076
0.0372518
0.0356058
0.0338635
0.033179
0.0343228
0.0363317
0.0377963
0.0392476
0.0417071
0.0464905
0.0493373
0.0494549
0.0504281
0.0630598
0.154551
0.21511
0.211135
0.151988
0.06304
0.0497674
0.048364
0.048734
0.0479763
0.0434424
0.0393181
0.0372126
0.0355078
0.0336977
0.0329161
0.0341214
0.0361977
0.0377605
0.0394499
0.043298
0.0479853
0.0488508
0.0488235
0.0501944
0.0638973
0.156416
0.214047
0.209126
0.153286
0.0637562
0.0496532
0.0478716
0.048087
0.0477083
0.0457234
0.0401174
0.0372613
0.0354697
0.0336331
0.0327846
0.0340478
0.0361619
0.0378285
0.0402428
0.0457221
0.0478751
0.0481761
0.0483155
0.0502543
0.0655076
0.157756
0.21172
0.205681
0.153467
0.0647404
0.0497307
0.0474712
0.04736
0.0472591
0.047256
0.0418933
0.0375639
0.0355153
0.0336284
0.0327768
0.0340322
0.0361855
0.0380906
0.0419222
0.0474964
0.0474517
0.047424
0.047862
0.0502688
0.0660496
0.157891
0.208376
0.196766
0.150326
0.065536
0.049834
0.0471712
0.046757
0.046714
0.0470749
0.0445
0.0386809
0.0357311
0.0336743
0.0327965
0.0340618
0.0363371
0.0390819
0.044566
0.0474728
0.0469016
0.0468039
0.0475036
0.0502711
0.0663558
0.154614
0.199458
0.381895
1.56035
2.06431
2.04593
1.84877
1.64344
1.4628
1.29846
1.13522
0.968312
0.805987
0.66711
0.562367
0.489559
0.443162
0.414165
0.395035
0.381043
0.369325
0.358634
0.347651
0.336195
0.323798
0.309277
0.29164
0.270186
0.243681
0.20807
0.158021
0.108806
0.366317
1.64246
2.12837
2.07686
1.86204
1.65206
1.47123
1.30988
1.15233
0.992472
0.835328
0.695426
0.58489
0.506562
0.453896
0.420181
0.39789
0.381589
0.368232
0.356405
0.344661
0.332837
0.320073
0.305235
0.287029
0.265247
0.238648
0.203051
0.153828
0.107281
0.391928
1.80615
2.1962
2.10813
1.88062
1.6673
1.48655
1.32695
1.17345
1.01808
0.86414
0.723928
0.608314
0.523232
0.464241
0.425616
0.399943
0.381146
0.366111
0.353111
0.340877
0.328715
0.315524
0.299814
0.281427
0.259772
0.23328
0.19807
0.149995
0.105914
0.412586
1.89099
2.26517
2.15593
1.91616
1.69641
1.51396
1.35564
1.20531
1.05499
0.902995
0.761923
0.639828
0.545841
0.479143
0.434335
0.404408
0.382713
0.365822
0.351583
0.338786
0.326438
0.312018
0.29539
0.276783
0.255358
0.228808
0.193792
0.146877
0.104869
0.420589
1.96327
2.34248
2.21654
1.96428
1.73748
1.55291
1.39557
1.24768
1.10026
0.949451
0.805534
0.676967
0.573343
0.497764
0.445717
0.410663
0.385718
0.366709
0.351301
0.337638
0.323461
0.308599
0.291735
0.272884
0.251252
0.224964
0.190125
0.144244
0.104053
0.428325
2.04323
2.4257
2.28429
2.01957
1.78666
1.59976
1.44322
1.29772
1.15216
1.00196
0.854939
0.720969
0.607592
0.521591
0.461065
0.420001
0.390928
0.369431
0.352334
0.336623
0.320972
0.305439
0.288388
0.269592
0.247932
0.221448
0.186627
0.141739
0.103208
0.437906
2.1261
2.51281
2.3584
2.08231
1.84339
1.65421
1.49873
1.35568
1.21183
1.06169
0.912362
0.772923
0.649865
0.552293
0.481523
0.432505
0.398182
0.373107
0.352356
0.335139
0.318645
0.302475
0.285257
0.26648
0.244859
0.218019
0.183136
0.139286
0.102432
0.448405
2.21037
2.60422
2.4407
2.1526
1.90766
1.71718
1.56333
1.42254
1.28065
1.13112
0.980231
0.835596
0.703253
0.593652
0.510199
0.450738
0.408515
0.377727
0.353882
0.334524
0.316832
0.300058
0.28281
0.263766
0.241722
0.214681
0.179858
0.136979
0.101748
0.458845
2.29286
2.70078
2.53193
2.23322
1.98134
1.79027
1.63796
1.49959
1.36019
1.21222
1.06108
0.910681
0.769217
0.645996
0.548022
0.475185
0.422685
0.38478
0.35676
0.334591
0.315512
0.298355
0.280372
0.261002
0.238683
0.211448
0.176662
0.134778
0.101127
0.467749
2.37504
2.80213
2.63273
2.32585
2.06655
1.87416
1.72331
1.58752
1.45093
1.30519
1.15308
0.998532
0.84838
0.712098
0.598163
0.509282
0.443272
0.395838
0.362035
0.33618
0.315483
0.296951
0.278365
0.258473
0.235688
0.208224
0.173575
0.132759
0.100627
0.47604
2.45502
2.90795
2.74308
2.4308
2.1641
1.96928
1.81968
1.68667
1.55296
1.40893
1.25638
1.09929
0.942162
0.793392
0.662277
0.554856
0.472039
0.412216
0.370553
0.339976
0.316642
0.296252
0.276627
0.2563
0.233184
0.205518
0.170923
0.130767
0.100209
0.483791
2.53545
3.01844
2.86115
2.54696
2.27393
2.07576
1.92694
1.79684
1.66427
1.52042
1.36923
1.21155
1.04949
0.889656
0.741465
0.613891
0.511662
0.436384
0.383879
0.346778
0.319134
0.2963
0.275843
0.254582
0.230833
0.20288
0.168345
0.12925
0.0998826
0.492564
2.61836
3.13187
2.98511
2.67134
2.3939
2.1932
2.04399
1.91502
1.78223
1.6412
1.49216
1.33433
1.16806
0.999609
0.835949
0.688077
0.564455
0.470736
0.403905
0.357519
0.323927
0.297808
0.275625
0.253034
0.22874
0.200444
0.165992
0.127826
0.0995909
0.50039
2.70493
3.24594
3.11294
2.80184
2.52208
2.32037
2.17073
2.04001
1.90762
1.77109
1.62434
1.46632
1.2964
1.12102
0.945198
0.778845
0.633408
0.517613
0.432743
0.373685
0.331681
0.301129
0.275998
0.252201
0.227137
0.198415
0.164021
0.12659
0.0993493
0.507657
2.789
3.35757
3.24221
2.9369
2.65705
2.45577
2.30476
2.17072
2.04172
1.90904
1.76413
1.60538
1.43279
1.25172
1.0667
0.885331
0.718809
0.579028
0.471947
0.396145
0.342756
0.306012
0.277434
0.252151
0.22609
0.196885
0.162475
0.125567
0.0991357
0.513334
2.86706
3.46497
3.37012
3.07541
2.79789
2.59769
2.44264
2.30811
2.18293
2.05334
1.9097
1.75031
1.57579
1.38988
1.19695
1.00407
0.81905
0.654867
0.522449
0.425712
0.358799
0.313345
0.280452
0.252928
0.225627
0.195802
0.161288
0.12469
0.0988496
0.519117
2.93585
3.56655
3.49271
3.21381
2.94326
2.74477
2.58531
2.45035
2.32832
2.20142
2.05956
1.90021
1.72434
1.53471
1.33509
1.13274
0.931929
0.74493
0.586364
0.465609
0.380844
0.324327
0.285358
0.254453
0.225734
0.195029
0.160218
0.123804
0.098737
0.524886
2.99349
3.65993
3.6067
3.34833
3.09195
2.89551
2.73247
2.59847
2.47747
2.35292
2.2134
2.05472
1.87834
1.68674
1.48304
1.27269
1.0579
0.850629
0.666242
0.518523
0.411584
0.340354
0.292862
0.257615
0.226559
0.194541
0.159155
0.122907
0.0989169
0.528598
3.0375
3.73539
3.7083
3.47601
3.24086
3.04749
2.88422
2.75155
2.63143
2.5086
2.3705
2.21345
2.03756
1.84484
1.63752
1.42022
1.19438
0.970675
0.762536
0.586228
0.453164
0.363074
0.303997
0.262655
0.228365
0.19463
0.158386
0.122219
0.0991055
0.53093
3.06632
3.78473
3.79161
3.59194
3.3849
3.20048
3.04051
2.90991
2.79092
2.6686
2.53085
2.37622
2.20147
2.00791
1.79763
1.57441
1.3392
1.10159
0.872952
0.669258
0.507107
0.393877
0.319641
0.269993
0.231433
0.195459
0.158124
0.121803
0.0993123
0.534077
3.0709
3.80018
3.84701
3.69078
3.52125
3.35308
3.20062
3.07339
2.95579
2.83404
2.69742
2.54455
2.37128
2.17689
1.96346
1.73431
1.49154
1.24145
0.996095
0.767494
0.574883
0.434376
0.340828
0.280263
0.23603
0.197205
0.158445
0.121532
0.0994258
0.535046
3.05365
3.77103
3.86273
3.76804
3.64562
3.50371
3.36395
3.24176
3.12696
3.00692
2.87344
2.72193
2.54931
2.35324
2.13588
1.90006
1.6501
1.38916
1.13006
0.879963
0.65697
0.485913
0.368658
0.293758
0.242403
0.199971
0.159274
0.121426
0.0996705
0.537519
2.98356
3.67234
3.81663
3.81076
3.75283
3.64969
3.52854
3.41554
3.30591
3.18989
3.05955
2.90988
2.73661
2.53708
2.31458
2.07129
1.81368
1.54425
1.27116
1.00209
0.751903
0.549023
0.403876
0.311084
0.249992
0.203112
0.160235
0.121382
0.0998971
0.533581
2.80446
3.44225
3.68559
3.80982
3.83824
3.78528
3.69232
3.59377
3.49225
3.38287
3.25629
3.10749
2.93144
2.72663
2.49847
2.24794
1.9828
1.70532
1.41681
1.1306
0.857986
0.624471
0.448134
0.33299
0.259645
0.207018
0.161705
0.121461
0.100123
0.520358
2.22531
2.89672
3.39435
3.73583
3.88782
3.90345
3.85015
3.77393
3.68637
3.58267
3.45955
3.31114
3.13235
2.92235
2.68794
2.43107
2.15757
1.86953
1.56864
1.26839
0.976905
0.713941
0.504745
0.362222
0.273117
0.212775
0.163962
0.121867
0.100431
0.108433
0.157371
0.207525
0.243236
0.269794
0.29118
0.30865
0.323149
0.335573
0.34693
0.357599
0.367959
0.379529
0.393917
0.413906
0.444488
0.493408
0.569068
0.679198
0.823711
0.98967
1.15828
1.32155
1.48675
1.67155
1.88332
2.08676
2.10317
1.58307
0.385476
0.106926
0.153339
0.202574
0.238311
0.265019
0.286685
0.304529
0.31936
0.332144
0.343947
0.355354
0.366939
0.380091
0.39669
0.419685
0.454686
0.509002
0.590121
0.704422
0.848177
1.00759
1.16935
1.32745
1.49018
1.67548
1.89229
2.11365
2.16565
1.66573
0.369852
0.105566
0.149627
0.197599
0.233096
0.259759
0.281543
0.299773
0.314886
0.328129
0.340439
0.3525
0.365258
0.380052
0.398897
0.424894
0.464101
0.523862
0.610861
0.729383
0.872392
1.02803
1.18496
1.33934
1.50074
1.68606
1.90661
2.1417
2.23274
1.83093
0.395503
0.10452
0.146509
0.193356
0.228862
0.255673
0.277573
0.296367
0.311931
0.3254
0.338263
0.351189
0.36522
0.382071
0.403639
0.433476
0.477872
0.544515
0.63947
0.763084
0.905869
1.05865
1.21123
1.36263
1.52312
1.70995
1.93768
2.18625
2.29981
1.91538
0.416483
0.103778
0.143957
0.18978
0.22492
0.25173
0.274068
0.293203
0.309948
0.32413
0.336976
0.3508
0.366323
0.385314
0.410079
0.44458
0.495531
0.570283
0.67365
0.802872
0.947251
1.09909
1.248
1.39744
1.55769
1.7465
1.98155
2.24405
2.37517
1.98646
0.424271
0.102974
0.141517
0.186495
0.221737
0.248718
0.270846
0.290111
0.307246
0.32275
0.337325
0.351626
0.368987
0.390534
0.419201
0.459565
0.518606
0.602962
0.714859
0.848723
0.995408
1.14641
1.29301
1.44049
1.60046
1.79129
2.0333
2.30912
2.45658
2.06504
0.431582
0.102217
0.139193
0.183265
0.218332
0.24562
0.267754
0.286927
0.304251
0.320657
0.336949
0.353662
0.373158
0.397965
0.431679
0.479694
0.549087
0.644577
0.764911
0.902666
1.05064
1.20134
1.34628
1.49132
1.64975
1.84416
2.09235
2.38086
2.54206
2.14656
0.441575
0.101558
0.137059
0.180277
0.215379
0.242876
0.265151
0.284381
0.30192
0.319044
0.336956
0.35613
0.379
0.408778
0.449592
0.507314
0.587624
0.694827
0.82521
0.968099
1.11645
1.26621
1.40985
1.55275
1.70961
1.90506
2.16051
2.46123
2.63199
2.22893
0.451361
0.10096
0.13504
0.177393
0.212481
0.240086
0.262846
0.282329
0.300286
0.318058
0.337303
0.359319
0.386206
0.422465
0.473083
0.543294
0.637292
0.757732
0.89683
1.04497
1.19432
1.34219
1.48362
1.62422
1.77948
1.97559
2.23858
2.55129
2.72712
2.31043
0.461862
0.100483
0.133237
0.174716
0.209707
0.237427
0.260468
0.280357
0.298837
0.317752
0.338857
0.364643
0.397268
0.442207
0.505284
0.591037
0.700845
0.834244
0.982059
1.13454
1.28524
1.42895
1.56899
1.70714
1.86099
2.05813
2.329
2.65143
2.82813
2.39096
0.470653
0.100078
0.131629
0.172209
0.207098
0.23495
0.258247
0.278886
0.29819
0.318302
0.342075
0.372596
0.412871
0.469626
0.548532
0.652229
0.779663
0.925605
1.08078
1.23626
1.38921
1.52868
1.66538
1.80152
1.95415
2.15349
2.43218
2.76127
2.9337
2.47023
0.478574
0.0997619
0.130188
0.169876
0.204675
0.232851
0.256543
0.277859
0.298665
0.32093
0.34802
0.384737
0.435382
0.507356
0.605089
0.728535
0.873231
1.03093
1.19151
1.34759
1.50093
1.64342
1.77164
1.90646
2.05854
2.26169
2.547
2.87856
3.0436
2.55022
0.486703
0.0994618
0.128792
0.167691
0.202434
0.230954
0.255347
0.277544
0.300049
0.325598
0.358185
0.403375
0.467697
0.558166
0.677109
0.820813
0.981226
1.14877
1.3145
1.47095
1.62223
1.76438
1.89358
2.02097
2.17277
2.38127
2.6715
3.00227
3.15653
2.63217
0.495173
0.099155
0.127425
0.165613
0.20029
0.229533
0.25474
0.278469
0.303179
0.333206
0.373594
0.430601
0.512889
0.624905
0.76627
0.928881
1.10259
1.27753
1.44766
1.60508
1.75347
1.89176
2.0217
2.14798
2.29643
2.50885
2.80249
3.13028
3.27056
2.71755
0.502918
0.0986779
0.126164
0.163878
0.198823
0.22862
0.25491
0.28036
0.308348
0.3445
0.395388
0.468562
0.572958
0.709129
0.872631
1.05141
1.23526
1.41617
1.58929
1.74797
1.89353
2.02718
2.15382
2.2831
2.43213
2.6428
2.93821
3.26043
3.38268
2.80111
0.510138
0.0985803
0.125423
0.162775
0.19793
0.228257
0.255842
0.283484
0.316016
0.360132
0.425039
0.518944
0.648271
0.809578
0.993188
1.18512
1.37701
1.56259
1.73771
1.8972
2.04056
2.16978
2.2924
2.42338
2.57703
2.78293
3.07766
3.38973
3.4905
2.87912
0.515828
0.0985528
0.124706
0.161863
0.197309
0.228362
0.257638
0.288313
0.326789
0.381522
0.464226
0.582615
0.737927
0.922961
1.1231
1.32586
1.52531
1.71484
1.89107
2.05028
2.19206
2.31754
2.4364
2.56816
2.72541
2.92959
3.21754
3.51393
3.5924
2.94989
0.521522
0.0986455
0.124061
0.161091
0.19692
0.229121
0.26057
0.295385
0.342036
0.410858
0.515159
0.661032
0.843037
1.04929
1.26283
1.47488
1.67967
1.87155
2.04785
2.20596
2.34589
2.46884
2.58588
2.71712
2.8777
3.08059
3.35331
3.62962
3.68706
3.00973
0.527512
0.0987946
0.123549
0.160537
0.196914
0.230656
0.264849
0.305487
0.362978
0.44996
0.580197
0.754681
0.962003
1.18641
1.41213
1.63119
1.83929
2.03227
2.2077
2.36408
2.50198
2.62371
2.7406
2.87063
3.03214
3.23187
3.48261
3.73298
3.76521
3.05563
0.531362
0.099079
0.123024
0.160279
0.19747
0.233255
0.27107
0.319263
0.391039
0.500921
0.660444
0.862222
1.09168
1.3306
1.56725
1.79206
2.00303
2.19679
2.37095
2.52459
2.66167
2.78322
2.90048
3.02858
3.18768
3.37869
3.60099
3.81817
3.81787
3.0865
0.533696
0.0991631
0.122389
0.160179
0.198984
0.237039
0.279664
0.337975
0.427915
0.564809
0.75476
0.982579
1.22968
1.4812
1.72659
1.95726
2.17108
2.36576
2.53846
2.69041
2.82631
2.94799
3.06469
3.19041
3.343
3.51792
3.70203
3.87568
3.83672
3.09389
0.536993
0.0993032
0.121804
0.160108
0.200992
0.242218
0.29141
0.362771
0.474955
0.641516
0.861481
1.11218
1.37377
1.63669
1.88982
2.12697
2.34457
2.54142
2.71416
2.8648
2.99809
3.11835
3.23418
3.35586
3.49615
3.64526
3.7817
3.89408
3.81083
3.07909
0.538257
0.0994557
0.121626
0.16072
0.2036
0.248734
0.30643
0.394093
0.532323
0.729171
0.976391
1.24674
1.52208
1.79497
2.05632
2.30112
2.52454
2.72577
2.9005
3.05005
3.17885
3.29573
3.4086
3.52336
3.64473
3.75574
3.82854
3.8511
3.71451
3.01155
0.540938
0.0996766
0.12188
0.162372
0.207366
0.257522
0.325694
0.433234
0.600575
0.827436
1.09761
1.38519
1.67452
1.95591
2.22541
2.47885
2.71083
2.91806
3.09687
3.24637
3.37157
3.48061
3.58624
3.68841
3.78429
3.8456
3.83134
3.72175
3.48506
2.83388
0.537362
0.0999684
0.122429
0.164711
0.212775
0.269418
0.35096
0.482644
0.681291
0.937231
1.22705
1.52854
1.83093
2.12208
2.40037
2.66308
2.90319
3.11669
3.3003
3.45179
3.57357
3.67434
3.7658
3.84827
3.908
3.90072
3.76115
3.43274
2.94042
2.25209
0.524286
0.413262
0.41971
0.429651
0.442464
0.457714
0.474316
0.491718
0.509404
0.527007
0.54437
0.561361
0.577934
0.593923
0.609244
0.623906
0.63788
0.651101
0.663514
0.675147
0.686137
0.696613
0.706657
0.716202
0.725278
0.733909
0.74207
0.749778
0.757235
0.764528
0.771568
0.778302
0.784686
0.790676
0.796232
0.801271
0.805962
0.810549
0.814643
0.818263
0.821294
0.823725
0.825499
0.826524
0.826712
0.826115
0.824823
0.82263
0.81945
0.815186
0.809849
0.803555
0.796209
0.787744
0.778133
0.767402
0.755659
0.742936
0.729248
0.714611
0.699059
0.682668
0.665554
0.648055
0.630549
0.61274
0.594709
0.576519
0.558189
0.539762
0.52127
0.502769
0.484306
0.465931
0.44769
0.429633
0.411812
0.3943
0.377154
0.360392
0.343972
0.327912
0.312273
0.297065
0.282265
0.267814
0.253654
0.239778
0.226211
0.212965
0.200102
0.187666
0.175756
0.164477
0.153941
0.144285
0.135609
0.127968
0.12143
0.116
0.1116
0.108124
0.105481
0.103535
0.102143
0.101183
0.100571
0.100219
0.100054
0.100042
0.100207
0.100409
0.100644
0.100906
0.10117
0.101402
0.101577
0.10156
0.101468
0.101316
0.10119
0.100921
0.100815
0.10076
0.100569
0.100316
4.76859
4.79176
4.83216
4.90694
4.99755
5.10246
5.21284
5.32601
5.43743
5.54748
5.65729
5.7672
5.87679
5.98518
6.09194
6.19618
6.29651
6.39085
6.47871
6.56273
6.64548
6.72877
6.81126
6.89166
6.96975
7.04569
7.12012
7.19246
7.26003
7.32289
7.38076
7.43333
7.48046
7.52211
7.55828
7.58907
7.6147
7.63507
7.65079
7.66192
7.66833
7.66982
7.66626
7.65766
7.64164
7.61855
7.5884
7.55067
7.50468
7.44971
7.38708
7.31641
7.23732
7.14968
7.05362
6.95003
6.83909
6.72064
6.59444
6.46022
6.31759
6.16472
5.99693
5.80982
5.6121
5.4106
5.20858
5.00519
4.80182
4.59889
4.39661
4.19584
3.99753
3.80286
3.6137
3.43187
3.25866
3.09442
2.93936
2.79423
2.65894
2.53234
2.41271
2.29863
2.18853
2.08094
1.97439
1.86752
1.75921
1.64883
1.53615
1.42169
1.30633
1.19127
1.078
0.967989
0.862819
0.763674
0.672118
0.588958
0.514556
0.448992
0.39213
0.343403
0.302201
0.267753
0.239137
0.216086
0.197362
0.182595
0.170893
0.161385
0.153873
0.148097
0.144052
0.141267
0.138618
0.13573
0.132839
0.130276
0.128037
0.126393
0.125196
0.1241
0.123222
8.10359
8.1655
8.27499
8.42927
8.6113
8.81061
9.0163
9.22245
9.42424
9.61975
9.8086
9.99069
10.1657
10.3332
10.4928
10.6441
10.7865
10.9199
11.0454
11.1652
11.2805
11.3923
11.5002
11.604
11.7036
11.7979
11.8868
11.9688
12.0434
12.1106
12.1699
12.2213
12.2647
12.3001
12.3278
12.3481
12.3612
12.367
12.3659
12.3579
12.3428
12.3205
12.2905
12.2525
12.2055
12.1487
12.0822
12.0052
11.9172
11.8181
11.7069
11.5851
11.452
11.3074
11.1517
10.9853
10.8089
10.6224
10.4257
10.219
10.0025
9.77601
9.5389
9.29121
9.03326
8.76448
8.48447
8.19688
7.90573
7.6123
7.31825
7.02518
6.73373
6.44514
6.1607
5.88177
5.60952
5.34497
5.08876
4.8416
4.60403
4.37582
4.15627
3.94455
3.73977
3.54126
3.34841
3.16042
2.97692
2.79774
2.62284
2.45238
2.28668
2.12613
1.97094
1.82129
1.67713
1.53834
1.4053
1.27775
1.15614
1.04073
0.932372
0.831603
0.738793
0.654293
0.578393
0.511933
0.453849
0.40453
0.362449
0.326298
0.296204
0.271663
0.25245
0.237429
0.224623
0.212711
0.201965
0.192741
0.185258
0.179489
0.175062
0.171085
0.167704
10.4876
10.5781
10.7324
10.9391
11.1776
11.433
11.694
11.9531
12.205
12.447
12.6777
12.8962
13.1022
13.2955
13.4765
13.6454
13.8028
13.9497
14.0878
14.2188
14.3434
14.4613
14.5721
14.6765
14.7749
14.865
14.9456
15.0166
15.0779
15.1297
15.1722
15.2055
15.23
15.2459
15.2535
15.253
15.2447
15.2289
15.206
15.1758
15.1386
15.0939
15.0416
14.9811
14.9117
14.833
14.7444
14.6457
14.5364
14.416
14.2841
14.1411
13.9867
13.8208
13.6436
13.4546
13.2564
13.0485
12.8305
12.6028
12.3656
12.1191
11.863
11.597
11.3211
11.0355
10.74
10.4346
10.1187
9.79361
9.46239
9.12977
8.79609
8.46232
8.13074
7.80241
7.47842
7.15993
6.84791
6.54312
6.24612
5.95719
5.67651
5.40401
5.13969
4.88348
4.6353
4.39469
4.16151
3.93569
3.71684
3.50523
3.30074
3.10331
2.91272
2.72872
2.55116
2.37965
2.21418
2.05418
1.89958
1.75019
1.60637
1.46847
1.33656
1.21113
1.09238
0.981775
0.87894
0.785233
0.699986
0.62248
0.554453
0.496758
0.448851
0.40839
0.372147
0.339162
0.310111
0.285732
0.266093
0.250811
0.238515
0.228068
0.219716
12.5127
12.6199
12.7968
13.0269
13.288
13.5634
13.8415
14.1146