/*--------------------------------*- C++ -*----------------------------------*\
| =========                 |                                                 |
| \\      /  F ield         | OpenFOAM: The Open Source CFD Toolbox           |
|  \\    /   O peration     | Version:  2112                                  |
|   \\  /    A nd           | Website:  www.openfoam.com                      |
|    \\/     M anipulation  |                                                 |
\*---------------------------------------------------------------------------*/
FoamFile
{
    version     2.0;
    format      ascii;
    arch        "LSB;label=32;scalar=64";
    class       volScalarField;
    location    "0.01061";
    object      nut;
}
// * * * * * * * * * * * * * * * * * * * * * * * * * * * * * * * * * * * * * //

dimensions      [0 2 -1 0 0 0 0];

internalField   nonuniform List<scalar> 
13875
(
0.0511679
0.0366259
0.0343664
0.0343364
0.0342946
0.0343321
0.0342851
0.0342881
0.0343045
0.0342911
0.0342795
0.0342942
0.0343245
0.0343415
0.0343303
0.0342932
0.0342674
0.0342897
0.0343024
0.0343265
0.0343038
0.0343342
0.0343831
0.0365624
0.0514271
0.0532618
0.0341204
0.0322229
0.0321127
0.0320593
0.032083
0.0320342
0.0320458
0.0320605
0.0320423
0.0320249
0.0320462
0.0320562
0.0320725
0.0320603
0.0320469
0.0320035
0.0320344
0.032046
0.0320757
0.0320636
0.0321024
0.0322287
0.0340451
0.053644
0.0564568
0.0335622
0.0318034
0.0315975
0.0315665
0.0315784
0.0314774
0.0314718
0.0314781
0.0314559
0.0314383
0.0314619
0.0315327
0.0315559
0.0315346
0.0314645
0.0314078
0.0314449
0.031478
0.0315674
0.0315642
0.0315803
0.0317941
0.0334885
0.0566045
0.0590707
0.033233
0.0314896
0.0312796
0.0312589
0.0312634
0.031153
0.0311321
0.031131
0.0311088
0.0310929
0.031115
0.0312161
0.0312401
0.0312182
0.0311166
0.0310726
0.0311023
0.0311465
0.0312537
0.0312551
0.0312626
0.031484
0.0331678
0.059152
0.0611264
0.0330042
0.0312464
0.0310043
0.0309818
0.0309787
0.0308673
0.0308408
0.0308409
0.0308208
0.0308047
0.0308257
0.0309276
0.0309546
0.0309297
0.030827
0.0307861
0.0308146
0.0308594
0.0309685
0.0309765
0.0309899
0.0312293
0.0329209
0.0612664
0.0628193
0.0328484
0.0310894
0.030772
0.0307505
0.0307294
0.0306079
0.0305755
0.0305767
0.0305585
0.0305418
0.0305616
0.030665
0.0306948
0.0306676
0.0305623
0.0305257
0.0305533
0.0305998
0.0307198
0.0307436
0.0307613
0.031058
0.0328249
0.062972
0.0648279
0.0330734
0.0311043
0.0306331
0.0305668
0.030522
0.0303809
0.0303374
0.030339
0.0303225
0.0303048
0.0303229
0.0304287
0.0304587
0.0304283
0.0303216
0.0302927
0.0303205
0.0303761
0.0305121
0.0305601
0.0306332
0.0311129
0.0330717
0.0648595
0.0670947
0.0339366
0.0314254
0.0306512
0.0304855
0.0303701
0.0301957
0.0301327
0.0301312
0.0301159
0.0300963
0.0301094
0.0302192
0.0302517
0.0302186
0.0301074
0.0300887
0.0301205
0.0301897
0.0303573
0.0304674
0.0306299
0.0313924
0.0338956
0.0673479
0.0736463
0.0362962
0.032042
0.0308465
0.030476
0.0302779
0.0300545
0.0299668
0.0299578
0.0299457
0.0299262
0.0299333
0.030047
0.0300826
0.0300486
0.029934
0.0299224
0.029958
0.0300444
0.03026
0.0304506
0.0308024
0.0319356
0.0360003
0.0741838
0.0829005
0.0384703
0.0327369
0.0311905
0.0305815
0.0302414
0.0299783
0.0298812
0.0298584
0.0298444
0.0298267
0.0298293
0.0299427
0.0299813
0.029949
0.0298452
0.0298317
0.0298726
0.0299657
0.0302207
0.0305509
0.0310813
0.0326238
0.0381052
0.0835428
0.0907188
0.0441368
0.0346493
0.0319966
0.030818
0.030352
0.0300393
0.0299061
0.0298672
0.0298443
0.0298245
0.0298242
0.0299314
0.029972
0.0299497
0.0298707
0.0298547
0.0299025
0.0300353
0.0303045
0.0307953
0.0318822
0.0343634
0.0432624
0.0893463
0.0950629
0.0545268
0.0403621
0.0334476
0.0318679
0.0308266
0.0303224
0.0301291
0.0300538
0.0300158
0.029991
0.0299917
0.0300827
0.0301254
0.0301187
0.030071
0.0300626
0.0301352
0.0303207
0.0308364
0.0318004
0.0332294
0.0398467
0.053362
0.0942622
0.0866048
0.0688932
0.0514758
0.0417306
0.0343568
0.0319122
0.0312714
0.030818
0.0306346
0.0305465
0.0305005
0.0304939
0.030562
0.0306054
0.0306217
0.0306206
0.0306752
0.0308693
0.0313304
0.0320044
0.0347652
0.0415774
0.0509379
0.068772
0.0866056
0.0795992
0.0660226
0.0580961
0.065574
0.0416584
0.037191
0.0336487
0.0324277
0.0320341
0.0319689
0.0319298
0.0319209
0.0319804
0.0320231
0.0320526
0.0320836
0.0321392
0.0325344
0.0340784
0.0382568
0.0432069
0.0657012
0.0578271
0.066177
0.0816142
0.07532
0.0643218
0.0565513
0.060583
0.0560517
0.0540119
0.0443935
0.0388137
0.03674
0.0358887
0.0355024
0.0353757
0.0353956
0.0354514
0.0355621
0.0358625
0.0366662
0.0389005
0.0451616
0.0552195
0.0557435
0.0612431
0.0565969
0.0641559
0.0746662
0.0671602
0.0618603
0.0542925
0.0572567
0.0559997
0.0572153
0.0545449
0.0530089
0.0508072
0.0483645
0.0474749
0.0471384
0.0470577
0.0471401
0.0473072
0.0478033
0.0504001
0.0542666
0.0554535
0.0577239
0.0556157
0.0580075
0.05431
0.0614979
0.0664826
0.0624
0.0582084
0.0524598
0.055036
0.0567888
0.061189
0.068039
0.0729355
0.0701042
0.0707363
0.0730264
0.0745217
0.0753117
0.0749766
0.0734522
0.0726712
0.0700341
0.0728269
0.0686727
0.0612169
0.0562992
0.0552972
0.0519657
0.0575785
0.0624395
0.0570028
0.0546979
0.0531053
0.0568946
0.059954
0.0630036
0.0707383
0.0792079
0.0744975
0.0703618
0.06923
0.0693802
0.0699059
0.0696184
0.0697483
0.0726652
0.0739454
0.0767372
0.0708535
0.0641789
0.0609184
0.0576475
0.0528371
0.0542725
0.0567931
0.0513839
0.0541903
0.0559073
0.0618598
0.0669698
0.0648213
0.0672664
0.0751987
0.0744192
0.0705053
0.0687067
0.0683144
0.0684264
0.0688823
0.0698246
0.0717287
0.0728603
0.0731414
0.0677473
0.0667072
0.0696522
0.063041
0.0562785
0.0544317
0.0521656
0.0493968
0.0573858
0.0603823
0.0657319
0.0686965
0.064544
0.0638674
0.069539
0.0719045
0.0704736
0.0687446
0.0672046
0.0664741
0.0680355
0.0699958
0.0709242
0.0699112
0.0678404
0.0645641
0.0665373
0.0707261
0.0664494
0.0608971
0.0576805
0.0487984
0.0775324
0.0886934
0.0774185
0.0652445
0.0650176
0.0615698
0.0606716
0.065558
0.0693905
0.0694768
0.0676559
0.0651913
0.0640326
0.0663262
0.0689818
0.0694691
0.0672231
0.0641191
0.0614785
0.0634722
0.0667647
0.0669187
0.0799701
0.0919528
0.0823755
0.12869
0.160962
0.0900658
0.062006
0.0608967
0.058549
0.0580251
0.0625797
0.066942
0.0677942
0.0658937
0.0628026
0.0613692
0.0640744
0.0672112
0.0675473
0.0647513
0.0613985
0.0587409
0.0602246
0.0623254
0.0638083
0.0932629
0.165697
0.13458
0.153038
0.146021
0.0841742
0.0591644
0.0575402
0.055967
0.0556523
0.0601391
0.0646246
0.065747
0.0636814
0.0602803
0.0586616
0.0614871
0.0649633
0.0654553
0.0624598
0.0591123
0.0562575
0.0573116
0.0586866
0.0607086
0.0839916
0.144828
0.153564
0.161531
0.146356
0.0767326
0.0569851
0.0547237
0.0536148
0.0536091
0.0579144
0.0623813
0.0635437
0.0612637
0.0576743
0.0560903
0.0589646
0.0626592
0.0633635
0.0602209
0.0568614
0.0541819
0.0548443
0.055887
0.0585844
0.0778098
0.151092
0.160793
0.167352
0.147307
0.0726744
0.0553981
0.0526373
0.05163
0.0519549
0.0559526
0.0601957
0.0612566
0.0588971
0.0552694
0.0537069
0.0565579
0.0603754
0.0611878
0.0581406
0.0548556
0.0523876
0.0527408
0.0538549
0.0570406
0.0745107
0.154907
0.167697
0.174805
0.150798
0.0698958
0.0539122
0.0510091
0.0499561
0.0506103
0.0542367
0.0581179
0.0590309
0.0566822
0.0530619
0.0515157
0.0542667
0.0580754
0.0590043
0.0562252
0.0530937
0.0508014
0.0508424
0.0521829
0.055367
0.0715958
0.157853
0.177416
0.18439
0.146934
0.0666782
0.0524938
0.0497546
0.0486063
0.0494834
0.0527241
0.0561019
0.0567305
0.0544415
0.0510055
0.049533
0.0522391
0.0559749
0.0569373
0.0544796
0.0515572
0.0494327
0.0493212
0.0509471
0.0540371
0.0691278
0.156492
0.184629
0.190061
0.146439
0.0647958
0.0514171
0.0487923
0.0475634
0.048496
0.051361
0.0542684
0.0546771
0.0524651
0.0491661
0.0477346
0.0503193
0.0539163
0.0549618
0.0528856
0.0502231
0.0482801
0.0481164
0.0498413
0.0528277
0.0673312
0.156935
0.192183
0.195087
0.14868
0.0637222
0.0505379
0.0480045
0.0468255
0.0476391
0.0501201
0.0525722
0.0527547
0.05066
0.0475224
0.0461015
0.0485485
0.051934
0.0530189
0.0513818
0.0490314
0.0472812
0.0471437
0.0488398
0.0517617
0.0654649
0.152454
0.19987
0.201995
0.145726
0.0627774
0.0498372
0.0472342
0.0462391
0.0469789
0.0490098
0.050945
0.05088
0.048876
0.0459567
0.0446274
0.0470142
0.05027
0.0513564
0.0500195
0.0479637
0.046459
0.0463757
0.0479262
0.0509794
0.0646546
0.151367
0.20405
0.204097
0.142011
0.0622442
0.0494291
0.0465544
0.0456809
0.0463602
0.0479937
0.0494944
0.0492304
0.0473465
0.0445912
0.0432879
0.0455628
0.0486195
0.0497105
0.0487523
0.0470472
0.0457981
0.0456906
0.047036
0.0503584
0.0636674
0.146356
0.209194
0.20661
0.141723
0.0621852
0.0493168
0.0459406
0.0451133
0.0457693
0.0470904
0.0482108
0.0477924
0.0459826
0.0433447
0.0420863
0.0442215
0.0471429
0.0482755
0.0476017
0.0462176
0.0451678
0.0450161
0.046256
0.0500201
0.063088
0.143606
0.211622
0.210897
0.137049
0.061892
0.0493889
0.0454728
0.0446459
0.0451773
0.0462376
0.046956
0.0463741
0.0446586
0.0421943
0.0409972
0.0430757
0.0458542
0.0469692
0.046548
0.0454593
0.0445396
0.0444351
0.0456685
0.0499453
0.0630511
0.14257
0.213439
0.211972
0.134505
0.061719
0.0496969
0.0451722
0.0442094
0.0445392
0.0454443
0.0458564
0.0451662
0.0435218
0.041159
0.0400154
0.0419602
0.0446317
0.0457739
0.0455656
0.0447573
0.0439261
0.0439064
0.0452345
0.0500416
0.0629676
0.137863
0.216183
0.212967
0.133917
0.0614145
0.0500602
0.0452146
0.0438129
0.0439537
0.044666
0.0448433
0.0440461
0.0424815
0.0402326
0.0391244
0.040973
0.0434997
0.0446518
0.0446438
0.0440589
0.043355
0.0435121
0.0451194
0.0503176
0.0624944
0.135046
0.217035
0.215073
0.132202
0.0610318
0.0504399
0.0454653
0.0435012
0.0434034
0.0438947
0.0438847
0.043017
0.041491
0.0393456
0.0383162
0.0400823
0.0425488
0.0436966
0.0437983
0.0433612
0.0428323
0.0431495
0.0453076
0.0507199
0.0622325
0.135074
0.217834
0.215481
0.132583
0.0608973
0.0512477
0.0459311
0.0433217
0.0429212
0.0431688
0.042985
0.0420842
0.0406176
0.0385728
0.0375778
0.0392571
0.0415992
0.0427475
0.0429767
0.0427091
0.0423606
0.0429076
0.0456688
0.0513356
0.0618151
0.13456
0.219241
0.215488
0.135297
0.0608018
0.0520325
0.0465497
0.0433595
0.0424656
0.0424907
0.0421579
0.0412539
0.0398372
0.0378469
0.0369058
0.038488
0.0407679
0.0419041
0.042189
0.0420972
0.0419116
0.0428916
0.0462736
0.052127
0.061448
0.136462
0.218949
0.215919
0.135254
0.0602735
0.0522669
0.0474246
0.0436135
0.0421276
0.0418753
0.0413645
0.040431
0.0390636
0.0371794
0.0362945
0.0378244
0.0400148
0.041123
0.0414846
0.0415549
0.0415671
0.0430733
0.0471376
0.0525554
0.0611296
0.139209
0.218932
0.21508
0.137143
0.0597603
0.0522708
0.0485371
0.0440562
0.041951
0.0413465
0.0406677
0.0397201
0.0383999
0.0365702
0.0357309
0.0371667
0.0393061
0.0403965
0.0408155
0.0410926
0.0414151
0.0434755
0.0480541
0.0524455
0.0606163
0.139493
0.218824
0.214632
0.139679
0.0595187
0.0521608
0.0499281
0.0447139
0.0419794
0.0409608
0.040058
0.0390597
0.0377739
0.0360147
0.0352116
0.0365728
0.0386259
0.0397233
0.0402432
0.0407511
0.0414849
0.0440776
0.0496319
0.0523431
0.0602096
0.141045
0.217698
0.214819
0.141547
0.0591971
0.0517288
0.0506098
0.0455564
0.0421462
0.0407773
0.039552
0.0384586
0.037185
0.0354774
0.0347291
0.0360361
0.0380591
0.0391452
0.0397699
0.0405649
0.0416472
0.0450115
0.0507374
0.0521623
0.0606812
0.143816
0.2172
0.214087
0.143957
0.0591874
0.0511786
0.0506198
0.0468848
0.0425259
0.0407548
0.0391996
0.0379415
0.0366591
0.0350018
0.0342842
0.0355277
0.0374864
0.0386081
0.0394138
0.0405622
0.042012
0.0461989
0.0508005
0.0516418
0.0606938
0.146564
0.21693
0.213542
0.14649
0.060255
0.0506674
0.0502433
0.0486244
0.0432301
0.0408225
0.0390349
0.0375545
0.0362088
0.0345555
0.0338696
0.0350559
0.0369804
0.0381682
0.039209
0.0406736
0.0427342
0.0481506
0.0505465
0.0511511
0.0615457
0.149531
0.21612
0.213299
0.148671
0.0602835
0.0501295
0.0496253
0.0495436
0.0445315
0.0410806
0.0389677
0.0372994
0.0358191
0.0341563
0.0334821
0.0346485
0.0365932
0.0378814
0.0391578
0.0409687
0.0441217
0.0493747
0.0500896
0.0509043
0.0634863
0.151708
0.215227
0.212357
0.15059
0.061532
0.0498436
0.0489473
0.049232
0.0467146
0.0417642
0.0390436
0.0372171
0.0355859
0.0338588
0.0331512
0.0343166
0.036308
0.0377544
0.0391962
0.0415652
0.0461211
0.0492387
0.0494613
0.0505927
0.0642406
0.153304
0.214771
0.211259
0.152567
0.0631466
0.0497699
0.048365
0.0487393
0.0479817
0.0434224
0.0392888
0.0371806
0.0354927
0.0337007
0.0329339
0.0341143
0.0361699
0.0377223
0.0393854
0.0430365
0.0477742
0.0488087
0.0488369
0.0504024
0.064936
0.154984
0.213816
0.209227
0.153747
0.063893
0.0496809
0.0478809
0.0480712
0.0477116
0.0457243
0.0400895
0.0372333
0.0354619
0.0336383
0.0328544
0.0340402
0.0361363
0.0377828
0.0401204
0.0453699
0.0479066
0.0482079
0.0483304
0.0504234
0.0663443
0.156661
0.211567
0.205801
0.153901
0.0648322
0.0497612
0.0474813
0.0473607
0.0472739
0.0472694
0.0418663
0.0375412
0.0355157
0.0336357
0.0328438
0.034022
0.0361553
0.0380168
0.0417259
0.0473205
0.0475116
0.0474843
0.0478823
0.0503732
0.0668531
0.157297
0.208248
0.196877
0.150767
0.0656884
0.0498665
0.0471875
0.0467511
0.0467068
0.0470989
0.0444961
0.0386645
0.0357386
0.0336823
0.0328558
0.034051
0.0363039
0.0389513
0.0443948
0.0475504
0.0469893
0.0468479
0.0474985
0.0503479
0.0670725
0.154298
0.199316
0.383237
1.61216
2.24785
2.31754
2.16247
1.97077
1.80522
1.66738
1.5439
1.4228
1.30009
1.17262
1.04356
0.915659
0.793448
0.681217
0.582582
0.499036
0.430525
0.377122
0.33563
0.303301
0.277003
0.253599
0.230525
0.206384
0.179275
0.14907
0.117885
0.10212
0.367998
1.71296
2.334
2.3753
2.21279
2.02489
1.86618
1.73557
1.61833
1.503
1.38514
1.26108
1.13307
1.00313
0.874962
0.753206
0.642563
0.545794
0.464536
0.400326
0.350402
0.311965
0.281558
0.255426
0.230566
0.205384
0.17759
0.147109
0.116851
0.101641
0.395002
1.86323
2.4225
2.44551
2.27978
2.09522
1.94238
1.81828
1.7071
1.59795
1.48516
1.36427
1.23705
1.10476
0.970627
0.839152
0.715674
0.604602
0.508347
0.431244
0.370781
0.324141
0.288159
0.258326
0.231165
0.204275
0.175939
0.145226
0.115679
0.101158
0.413881
1.95133
2.51293
2.53759
2.37227
2.18848
2.03886
1.91893
1.81242
1.70938
1.6013
1.48326
1.35728
1.22279
1.08325
0.942435
0.805853
0.679135
0.565937
0.473843
0.399964
0.342566
0.29886
0.263916
0.233533
0.20456
0.175007
0.143947
0.114865
0.100994
0.419773
2.02443
2.61133
2.64499
2.48098
2.29595
2.14765
2.03089
1.92868
1.83123
1.7279
1.61327
1.48911
1.3534
1.2097
1.06073
0.912146
0.769761
0.639313
0.530395
0.439502
0.368483
0.314441
0.272618
0.237793
0.206003
0.174664
0.142976
0.114077
0.100685
0.425154
2.10399
2.71673
2.76041
2.59827
2.41247
2.26462
2.15026
2.05202
1.96024
1.862
1.75113
1.62932
1.49341
1.34664
1.19099
1.03201
0.875076
0.728515
0.600691
0.490813
0.403256
0.336081
0.285055
0.244281
0.208767
0.175083
0.14239
0.113443
0.100535
0.43186
2.18845
2.8273
2.88168
2.72235
2.53637
2.38859
2.27582
2.18147
2.09505
2.00142
1.89406
1.7743
1.63817
1.48915
1.32863
1.1617
0.993409
0.832547
0.685106
0.555192
0.448483
0.365289
0.302221
0.253635
0.213255
0.176456
0.14226
0.112923
0.100436
0.439607
2.27496
2.94239
3.00841
2.85317
2.66737
2.51908
2.40707
2.31655
2.23451
2.14436
2.03977
1.92127
1.7851
1.63483
1.47171
1.29946
1.12339
0.94986
0.784156
0.633841
0.506087
0.403941
0.325788
0.266853
0.220026
0.179091
0.142659
0.112555
0.100404
0.447836
2.36043
3.05999
3.14034
2.99073
2.80527
2.6558
2.54424
2.45672
2.37783
2.28977
2.18736
2.06954
1.93408
1.78392
1.62032
1.44537
1.26348
1.07868
0.897194
0.727179
0.577325
0.453559
0.357199
0.284944
0.229616
0.183238
0.14363
0.112344
0.100448
0.455806
2.44337
3.17848
3.2763
3.13391
2.9491
2.79811
2.68691
2.60111
2.52482
2.43808
2.33713
2.21997
2.08639
1.93803
1.77521
1.59912
1.41295
1.21889
1.0237
0.835443
0.663233
0.515826
0.398151
0.309219
0.2428
0.189425
0.145512
0.112426
0.100664
0.462802
2.52321
3.29656
3.41424
3.2808
3.09736
2.94475
2.83394
2.74987
2.676
2.58994
2.48917
2.37394
2.24397
2.09874
1.93724
1.76054
1.57053
1.3693
1.16255
0.957329
0.763673
0.591975
0.450161
0.340961
0.260353
0.198125
0.148623
0.11294
0.100953
0.468322
2.60148
3.41252
3.55193
3.42909
3.2481
3.09452
2.98485
2.90307
2.83092
2.74379
2.64371
2.53297
2.40772
2.26576
2.10504
1.92766
1.73461
1.52804
1.3119
1.09253
0.879044
0.682847
0.514799
0.382237
0.283746
0.210004
0.15338
0.113838
0.101202
0.473251
2.67786
3.52459
3.68685
3.57638
3.39937
3.24629
3.13856
3.06056
2.98799
2.8985
2.80283
2.69785
2.5772
2.43757
2.27726
2.09941
1.90374
1.69254
1.46881
1.23841
1.00804
0.78873
0.59367
0.43454
0.314452
0.226192
0.159921
0.115167
0.101546
0.477976
2.74855
3.6311
3.81734
3.72039
3.5494
3.39899
3.29448
3.22034
3.1457
3.05693
2.96744
2.86771
2.75089
2.61307
2.45354
2.27523
2.07693
1.86121
1.63094
1.39048
1.14641
0.907209
0.68636
0.499006
0.353721
0.247201
0.16869
0.117085
0.101921
0.482315
2.81161
3.72971
3.94057
3.85959
3.69625
3.55112
3.45132
3.38062
3.30445
3.22028
3.13665
3.04199
2.92844
2.79217
2.63395
2.45494
2.25405
2.03389
1.7971
1.54754
1.29068
1.03475
0.790869
0.575396
0.402105
0.273715
0.180213
0.119782
0.102297
0.486768
2.86476
3.81866
4.05368
3.99076
3.83762
3.7009
3.60766
3.53998
3.46554
3.38739
3.30983
3.2204
3.11033
2.97569
2.81906
2.63929
2.43591
2.21138
1.96817
1.70985
1.44159
1.17021
0.905711
0.663233
0.460355
0.306674
0.195165
0.123413
0.102683
0.489791
2.90984
3.89333
4.15323
4.10938
3.97058
3.84559
3.7614
3.6976
3.62731
3.55713
3.48702
3.40324
3.29651
3.16417
3.00916
2.82875
2.62292
2.39402
2.1444
1.87754
1.59821
1.31268
1.02973
0.762434
0.5294
0.347434
0.21445
0.128288
0.103077
0.491804
2.94041
3.94988
4.23411
4.2106
4.09129
3.98225
3.91016
3.8526
3.78927
3.72906
3.6676
3.59031
3.48784
3.35833
3.20496
3.02423
2.81599
2.58261
2.32635
2.05067
1.76034
1.4615
1.16169
0.871933
0.609669
0.397674
0.239289
0.134914
0.103516
0.493742
2.95786
3.98457
4.2902
4.2905
4.1952
4.10776
4.0511
4.00354
3.95064
3.90251
3.85124
3.78208
3.68435
3.55873
3.40704
3.22634
3.01574
2.77779
2.51464
2.22977
1.928
1.61549
1.299
0.98938
0.701276
0.458302
0.270813
0.144039
0.104031
0.494024
2.9629
3.99498
4.31385
4.34163
4.27693
4.21831
4.18095
4.14808
4.11001
4.07644
4.03707
3.97721
3.886
3.76516
3.61596
3.43531
3.22249
2.97993
2.70969
2.41523
2.1014
1.77461
1.44228
1.11509
0.804072
0.530057
0.310321
0.156494
0.104601
0.494781
2.95011
3.97271
4.29989
4.35789
4.33147
4.30919
4.29686
4.2838
4.26502
4.24892
4.22349
4.17479
4.09236
3.97746
3.83163
3.65119
3.43606
3.18875
2.91126
2.60712
2.28159
1.94152
1.59504
1.251
0.918276
0.613756
0.359075
0.17332
0.105373
0.494527
2.91992
3.90362
4.23329
4.32714
4.3515
4.37435
4.39528
4.4074
4.41259
4.41738
4.409
4.37372
4.30257
4.19503
4.0534
3.87356
3.65586
3.40353
3.11894
2.80585
2.47005
2.11837
1.75839
1.3973
1.04295
0.708917
0.417778
0.195628
0.10647
0.496532
2.8452
3.7489
4.08309
4.22832
4.32574
4.40667
4.46972
4.51438
4.5493
4.57931
4.59119
4.57248
4.51525
4.41706
4.28066
4.10183
3.88136
3.6237
3.33234
3.01132
2.66649
2.30391
1.92995
1.55092
1.17463
0.812797
0.486176
0.224578
0.107865
0.493052
2.64593
3.39671
3.78192
4.03119
4.23873
4.39642
4.51268
4.59892
4.67062
4.73118
4.76773
4.76939
4.72877
4.64239
4.51233
4.33531
4.11221
3.84924
3.5513
3.22283
2.86913
2.49526
2.10661
1.70921
1.3106
0.923198
0.564108
0.26104
0.109645
0.482394
2.01976
2.59234
3.19457
3.66811
4.0497
4.32587
4.51305
4.65334
4.77103
4.86899
4.93577
4.96241
4.94165
4.86952
4.74675
4.57194
4.3466
4.07933
3.77549
3.43986
3.07682
2.69085
2.2868
1.8711
1.45182
1.04055
0.651527
0.305974
0.111956
0.101204
0.11758
0.149475
0.180345
0.207271
0.231443
0.254441
0.277769
0.304278
0.33651
0.37752
0.430602
0.49814
0.580913
0.677995
0.788207
0.908774
1.03576
1.16476
1.29276
1.4164
1.53921
1.66588
1.80614
1.97388
2.16595
2.31876
2.24553
1.60262
0.383591
0.100852
0.116806
0.148034
0.17887
0.206306
0.23151
0.256152
0.281967
0.312315
0.350245
0.39914
0.463347
0.544103
0.640231
0.749876
0.870409
0.997549
1.12678
1.25476
1.37932
1.49809
1.61447
1.73427
1.86714
2.02767
2.2157
2.37538
2.33139
1.70064
0.368568
0.100827
0.116185
0.146568
0.177568
0.205984
0.232387
0.258924
0.288171
0.323415
0.369028
0.427986
0.505033
0.601684
0.712605
0.83603
0.966974
1.10073
1.23274
1.35995
1.48115
1.59492
1.70455
1.81698
1.94317
2.09772
2.282
2.44469
2.41952
1.85744
0.3952
0.100606
0.115611
0.145469
0.176727
0.206487
0.235204
0.264097
0.29794
0.340478
0.396079
0.468287
0.559474
0.674038
0.801513
0.939103
1.08054
1.22055
1.35508
1.48116
1.59918
1.70813
1.81118
1.9183
2.03979
2.19027
2.373
2.53515
2.5089
1.94615
0.41438
0.100433
0.115076
0.144745
0.176574
0.207656
0.23882
0.271891
0.312007
0.364421
0.433475
0.521826
0.629493
0.760847
0.905738
1.05627
1.20682
1.35188
1.48838
1.61298
1.72755
1.83136
1.92852
2.03069
2.14903
2.29755
2.48078
2.64108
2.60609
2.0194
0.420249
0.100314
0.114566
0.144357
0.177113
0.210103
0.244559
0.283035
0.331437
0.396325
0.481853
0.588663
0.715441
0.861521
1.02041
1.18225
1.34054
1.48958
1.62706
1.74982
1.86096
1.95983
2.0519
2.14921
2.2657
2.41355
2.59714
2.75537
2.71081
2.09968
0.42546
0.100195
0.114055
0.144153
0.17828
0.213942
0.25274
0.298294
0.357484
0.437242
0.541936
0.669302
0.815321
0.975975
1.14457
1.31376
1.47666
1.62818
1.76641
1.88809
1.99661
2.09185
2.17975
2.27248
2.38833
2.53656
2.72022
2.87565
2.82054
2.18468
0.432782
0.100157
0.113602
0.144209
0.180319
0.219609
0.264142
0.318893
0.39212
0.489527
0.61471
0.763058
0.927318
1.1014
1.2778
1.45109
1.61579
1.76797
1.90607
2.02714
2.13374
2.22665
2.31156
2.40122
2.51705
2.66643
2.85024
3.00181
2.93466
2.2704
0.439933
0.100199
0.113247
0.14474
0.183615
0.227479
0.279497
0.346141
0.436402
0.554556
0.700984
0.869405
1.0501
1.2351
1.41791
1.59427
1.75945
1.91112
2.04807
2.16838
2.27305
2.36456
2.44741
2.53499
2.65121
2.80251
2.98663
3.13288
3.05204
2.35616
0.448154
0.100382
0.113125
0.146043
0.188345
0.23831
0.299957
0.38165
0.491944
0.632938
0.801153
0.987644
1.1821
1.37649
1.56429
1.74248
1.90755
2.05801
2.19342
2.31304
2.41614
2.50681
2.58782
2.67377
2.79061
2.94421
3.12874
3.26802
3.17009
2.43941
0.456058
0.100754
0.113468
0.148394
0.19525
0.253033
0.327044
0.426974
0.56004
0.724804
0.913957
1.11648
1.32257
1.52464
1.71658
1.89602
2.0606
2.20885
2.34178
2.46016
2.56339
2.6536
2.73268
2.81707
2.93413
3.0899
3.27425
3.40512
3.28783
2.51942
0.462866
0.101105
0.114278
0.15223
0.205205
0.272597
0.362023
0.483904
0.641987
0.830411
1.0386
1.25539
1.47104
1.67893
1.87405
2.05439
2.2188
2.36468
2.49403
2.60907
2.713
2.8043
2.8818
2.96492
3.08083
3.23784
3.42076
3.54166
3.40352
2.59772
0.468886
0.101466
0.115574
0.157717
0.218608
0.298322
0.406691
0.553608
0.737888
0.949317
1.17491
1.40364
1.62707
1.83929
2.03691
2.21779
2.38215
2.52641
2.65192
2.76223
2.8631
2.95738
3.03494
3.11702
3.22992
3.38668
3.56625
3.67537
3.51529
2.67336
0.473433
0.101849
0.117244
0.165011
0.236152
0.331534
0.462561
0.636746
0.847205
1.07978
1.32036
1.55865
1.78867
2.00487
2.20498
2.38637
2.55006
2.69321
2.81529
2.92093
3.01648
3.11142
3.19213
3.2708
3.38013
3.53457
3.70834
3.80465
3.62186
2.74522
0.478059
0.102218
0.119236
0.174211
0.258252
0.373076
0.530245
0.732429
0.967227
1.21805
1.47137
1.7188
1.95521
2.17587
2.37859
2.56073
2.72319
2.86506
2.98432
3.0855
3.17546
3.26642
3.35007
3.42597
3.53036
3.67973
3.84539
3.92767
3.72089
2.8095
0.482613
0.102565
0.121824
0.186044
0.285946
0.423905
0.609794
0.839276
1.09557
1.36213
1.62764
1.88451
2.1277
2.35318
2.55865
2.7416
2.90229
3.04274
3.1593
3.25527
3.33946
3.4247
3.50744
3.58109
3.67883
3.81976
3.97536
4.0412
3.81057
2.86301
0.487551
0.102878
0.125515
0.201665
0.32072
0.485109
0.700855
0.956086
1.23172
1.51341
1.79086
2.05703
2.30719
2.53756
2.74572
2.9293
3.08816
3.22591
3.33984
3.43037
3.50733
3.58474
3.66368
3.73409
3.8227
3.95159
4.09391
4.14147
3.88718
2.90931
0.490717
0.10324
0.130733
0.222191
0.364067
0.557976
0.803202
1.08241
1.37641
1.67254
1.96178
2.23742
2.49469
2.72992
2.94058
3.12439
3.28112
3.41559
3.5258
3.60994
3.67823
3.74569
3.81791
3.88253
3.95898
4.07191
4.19613
4.22375
3.94517
2.94146
0.492942
0.10363
0.137891
0.248542
0.417228
0.642792
0.916399
1.21745
1.52898
1.83954
2.14091
2.42628
2.69074
2.93069
3.14361
3.32714
3.48165
3.61178
3.7176
3.7938
3.85192
3.90706
3.96833
4.02313
4.08446
4.17637
4.27725
4.2822
3.98321
2.96057
0.495086
0.104095
0.147685
0.282036
0.481521
0.739491
1.03961
1.36055
1.68941
2.01479
2.3286
2.62386
2.89544
3.13987
3.35474
3.53762
3.68942
3.81428
3.91387
3.98107
4.02717
4.06743
4.11301
4.15262
4.19517
4.25947
4.33038
4.30856
3.99637
2.96764
0.495571
0.104751
0.161178
0.32418
0.558148
0.84835
1.17345
1.51352
1.85868
2.19844
2.52443
2.82944
3.10804
3.3568
3.57346
3.75564
3.90364
4.02236
4.11318
4.16982
4.20131
4.22386
4.2494
4.26876
4.28636
4.31555
4.34878
4.29687
3.97661
2.95702
0.49675
0.105584
0.179454
0.376099
0.647112
0.968999
1.31825
1.67758
2.03794
2.39075
2.72783
3.04196
3.32732
3.58056
3.79917
3.98036
4.12365
4.23496
4.31478
4.35792
4.37208
4.37336
4.37418
4.36793
4.35197
4.33728
4.32128
4.23218
3.90952
2.9283
0.496953
0.106693
0.203542
0.437871
0.746035
1.0982
1.4711
1.8506
2.22647
2.5914
2.93822
3.26041
3.55216
3.81018
4.03095
4.2107
4.34845
4.45048
4.51649
4.54312
4.53667
4.5126
4.48299
4.44336
4.38555
4.31361
4.22325
4.08379
3.75672
2.85504
0.499344
0.108116
0.234461
0.50948
0.8522
1.23219
1.62937
2.02924
2.42112
2.79823
3.1543
3.48393
3.78188
4.04469
4.26758
4.44517
4.57633
4.6674
4.7164
4.72292
4.69166
4.63705
4.57008
4.48814
4.37769
4.2304
4.02963
3.78571
3.40725
2.65632
0.496242
0.109953
0.273585
0.59138
0.966783
1.37324
1.79292
2.21163
2.61953
3.00921
3.37497
3.71184
4.0156
4.28197
4.50649
4.68167
4.80591
4.8835
4.91295
4.89472
4.83334
4.74137
4.62807
4.49183
4.31205
4.05124
3.67436
3.20777
2.60926
2.02697
0.485754
0.658737
0.672287
0.683365
0.695868
0.707717
0.719848
0.731394
0.743035
0.754289
0.765481
0.776439
0.787308
0.798105
0.808912
0.819797
0.830639
0.841372
0.85191
0.862038
0.871927
0.882294
0.893006
0.903439
0.913341
0.922858
0.93227
0.941584
0.950795
0.959845
0.968701
0.977326
0.985693
0.993788
1.0016
1.00911
1.0163
1.02316
1.02967
1.0358
1.04152
1.04679
1.05157
1.05582
1.05949
1.06256
1.06497
1.06662
1.06767
1.06897
1.06953
1.06988
1.06945
1.0682
1.06604
1.06279
1.05917
1.05479
1.04941
1.04287
1.03545
1.02714
1.01776
1.00718
0.995434
0.982643
0.968809
0.953919
0.938006
0.921187
0.903557
0.885198
0.8662
0.846633
0.82659
0.806247
0.785684
0.765515
0.745676
0.72608
0.706718
0.687595
0.668651
0.649913
0.631404
0.613043
0.594783
0.576725
0.558756
0.540788
0.523065
0.505639
0.488411
0.471279
0.454176
0.437137
0.420265
0.403672
0.387467
0.371724
0.356541
0.341982
0.32814
0.315015
0.30262
0.290891
0.27972
0.269001
0.258597
0.248356
0.238182
0.227976
0.217654
0.207205
0.196671
0.186107
0.175679
0.165506
0.155743
0.146615
0.138331
0.13099
0.124754
0.119626
0.115493
0.112389
5.68825
5.75437
5.84387
5.95002
6.05674
6.16486
6.27076
6.37563
6.47819
6.57837
6.67552
6.76911
6.85898
6.94511
7.02783
7.11141
7.19524
7.27927
7.36409
7.44883
7.53159
7.61242
7.69261
7.77317
7.85413
7.93465
8.01438
8.09298
8.17016
8.24568
8.31934
8.391
8.46056
8.52789
8.59287
8.6554
8.71538
8.77272
8.82733
8.87909
8.9278
8.97318
9.01489
9.0525
9.08551
9.11331
9.13529
9.15066
9.15847
9.15906
9.15299
9.14134
9.12423
9.10162
9.07468
9.03645
8.99078
8.93682
8.8735
8.80046
8.71935
8.62852
8.52713
8.41467
8.2925
8.1601
8.01732
7.86461
7.70327
7.5341
7.35783
7.17527
6.98738
6.79464
6.59663
6.39105
6.16705
5.93377
5.70289
5.47634
5.2545
5.03723
4.82527
4.61793
4.41426
4.21531
4.02102
3.82908
3.64168
3.46441
3.29723
3.13425
2.97057
2.80533
2.64389
2.4892
2.34358
2.20814
2.0834
1.9702
1.86897
1.78046
1.70362
1.63797
1.58132
1.53171
1.48745
1.44601
1.40506
1.36282
1.31807
1.2688
1.21424
1.15446
1.08931
1.01827
0.941369
0.86021
0.776412
0.69058
0.605215
0.523699
0.448357
0.380723
0.322201
9.8827
9.98567
10.1137
10.2576
10.405
10.5527
10.6981
10.8408
10.9803
11.1161
11.2479
11.3755
11.4989
11.6182
11.7338
11.8459
11.958
12.0697
12.1815
12.2926
12.4009
12.5063
12.6099
12.7126
12.8146
12.9149
13.0135
13.1099
13.2041
13.2957
13.3845
13.4703
13.5529
13.6321
13.7076
13.7795
13.8477
13.9124
13.9734
14.0306
14.0837
14.1323
14.1759
14.2139
14.2459
14.2711
14.2889
14.2989
14.3008
14.2943
14.2799
14.2578
14.2278
14.1898
14.143
14.085
14.0164
13.9371
13.8467
13.7411
13.6236
13.4926
13.3467
13.1855
13.0107
12.8214
12.6176
12.3999
12.1699
11.9286
11.6766
11.4149
11.1447
10.8668
10.5815
10.2886
9.9874
9.67758
9.35921
9.04004
8.72422
8.41235
8.10532
7.80301
7.50511
7.21163
6.92237
6.63697
6.3563
6.0821
5.81419
5.55058
5.28987
5.03184
4.77884
4.53353
4.29827
4.0745
3.86369
3.66659
3.48427
3.3175
3.16579
3.02808
2.90269
2.78806
2.68234
2.58275
2.48642
2.39108
2.29492
2.19631
2.09394
1.98741
1.8769
1.76187
1.64214
1.51885
1.39442
1.26963
1.14495
1.02201
0.903039
0.789806
0.684905
12.798
12.9084
13.0434
13.1921
13.3455
13.4989
13.65
13.7982
13.9429
14.0841
14.2215
14.3551
14.4849
14.6108
14.7327
14.8506
14.9651
15.0787
15.1916
15.3026
15.4094
15.5121
15.6119
15.7099
15.8065
15.9009
15.9928
16.0823
16.1692
16.2532
16.3343
16.412
16.4862
16.5564
16.6228
16.6855
16.7445
16.8001
16.8522
16.9006
16.945
16.9849
17.0199
17.0495
17.0731
17.0898
17.0991
17.1006
17.094
17.0793
17.0569
17.0267
16.9884
16.9416
16.8853
16.8186
16.7412
16.6528
16.5524
16.4381
16.31
16.1678
16.0099
15.8354
15.6439
15.4375
15.2154
14.979
14.729
14.4661
14.1911
13.9049
13.6086
13.3028
12.9885
12.6664
12.3377
12.0032
11.6636
11.319
10.9715
10.626
10.2841
9.94596
9.61148
9.28028
8.95208
8.62672
8.30446
7.9857
7.6703
7.35798
7.04874
6.74333
6.44339
6.1508
5.86727
5.59422
5.33309
5.08476
4.85011
4.62959
4.42301
4.23036
4.05014
3.88124
3.72219
3.5705
3.4242
3.2814
3.14037
2.99966
2.85812
2.715
2.57034
2.42363
2.27402
2.12229
1.97066
1.82013
1.67021
1.52036
1.3719
1.22807
1.09183
14.8677
14.9715
15.0963
15.2336
15.3764
15.5193
15.6603
15.7984
15.9332
16.0648
16.1929
16.3176
16.4388
16.5564
16.6703
16.7804
16.8869
16.9898
17.09
17.1865
17.2778
17.3641
17.4466
17.5267
17.6049
17.6808
17.754
17.8248
17.8931
17.9587
18.0212
18.0803
18.1358
18.1876
18.2358
18.2808
18.323
18.3628
18.4
18.4344
18.4657
18.4936
18.5178
18.5378
18.5528
18.5616
18.5637
18.5586
18.5465
18.5279
18.5029
18.4713
18.433
18.3875
18.3338
18.2711
18.199
18.1166
18.0229
17.9167