/*--------------------------------*- C++ -*----------------------------------*\
| =========                 |                                                 |
| \\      /  F ield         | OpenFOAM: The Open Source CFD Toolbox           |
|  \\    /   O peration     | Version:  2112                                  |
|   \\  /    A nd           | Website:  www.openfoam.com                      |
|    \\/     M anipulation  |                                                 |
\*---------------------------------------------------------------------------*/
FoamFile
{
    version     2.0;
    format      ascii;
    arch        "LSB;label=32;scalar=64";
    class       volScalarField;
    location    "0.00658";
    object      k;
}
// * * * * * * * * * * * * * * * * * * * * * * * * * * * * * * * * * * * * * //

dimensions      [0 2 -2 0 0 0 0];

internalField   nonuniform List<scalar> 
13875
(
812.101
3462.64
3540.36
3539.29
3541.12
3540.37
3540.41
3541.93
3542.29
3540.87
3540.67
3541.07
3540.66
3540.17
3540.44
3541.23
3541.94
3541.02
3540.69
3540.26
3541.16
3539
3540.09
3460.32
820.482
881.793
2936.63
3013
3000.7
3000.83
2998.44
2996.48
2997.55
2997.1
2996.38
2996.61
2998.3
2996.51
2996.39
2996.17
2998.53
2996.25
2997.07
2996.96
2998.64
3000.45
2999.3
3011.59
2933.49
894.585
993.363
2710.85
2777.41
2755.39
2758.5
2755.07
2745.9
2744.45
2742.33
2741.03
2740.87
2744.37
2751.37
2752.18
2750.86
2744.67
2741.21
2742.75
2745.34
2755.15
2757.67
2753.18
2774.4
2706.48
998.515
1091.07
2533.67
2580.9
2561.48
2566.46
2562.83
2552.54
2550.45
2548.28
2546.52
2546.3
2548.4
2559.22
2560.03
2558.83
2548.7
2547.33
2547.58
2551.18
2562.96
2565.47
2559.41
2579
2529.68
1094.04
1172.12
2380.44
2413.07
2392.78
2397.74
2394.08
2383.45
2381.8
2379.8
2378.19
2378.43
2379.45
2390.19
2391.39
2389.88
2379.78
2379.19
2379.06
2382.38
2393.96
2396.77
2391.17
2410.35
2375.84
1177.52
1241.02
2237.12
2270.81
2244.75
2250.91
2245.79
2234
2232.77
2230.64
2228.97
2229.81
2229.95
2240.8
2242.27
2240.5
2230.24
2230.49
2229.96
2233.11
2245.72
2249.94
2243.73
2267.76
2247.53
1247.11
1321
2121.84
2158.22
2120.16
2122.86
2115.78
2101.95
2100.66
2098.28
2096.21
2097.66
2097.14
2108.15
2109.66
2107.55
2097.28
2098.56
2097.75
2101.58
2115.52
2121.69
2119.76
2154
2095.78
1323.07
1409.8
2000.76
2073.48
2019.34
2015.89
2002.85
1986.06
1983.74
1980.65
1978.12
1980.28
1978.83
1990.16
1991.92
1989.46
1978.87
1981.46
1980.67
1985.47
2002.22
2013.97
2018.01
2068.26
1992.74
1419.9
1691.52
2029.56
2021.96
1944.29
1924.53
1905.22
1884.45
1880.94
1877.15
1873.77
1876.76
1874.56
1886.12
1888.15
1885.47
1874.76
1878.2
1877.4
1883.38
1903.92
1922.49
1942.24
2017.91
2033.51
1716.47
2509.49
2285.73
2018.29
1900.86
1858.59
1827.14
1803.64
1798.41
1793.82
1790.28
1793.51
1790.89
1802.11
1804.4
1801.76
1792.24
1795.2
1795.44
1801.51
1824.84
1855.73
1891.97
2011.42
2265.95
2529.44
3878.09
3027.55
2153.98
1915.77
1815.13
1773.97
1747.64
1737.27
1731.28
1727.77
1730.51
1727.7
1738.05
1740.65
1738.79
1731.68
1733.81
1735.8
1745.47
1768.65
1813.66
1907.7
2130.22
2937.04
3858.84
5187.38
6453.23
2857.49
1996
1855.13
1759.31
1715.91
1699.53
1690.56
1686.7
1688.04
1685.51
1694.08
1697.09
1696.48
1692.12
1694.21
1699.33
1713.37
1758.7
1847.78
1972.81
2786.6
6319.66
5120.97
5059.09
7602.94
7071.31
3354.79
2048.71
1803.35
1746.18
1704.16
1687
1679.55
1677.86
1675.02
1681.24
1684.63
1686.02
1685.88
1692.59
1709.04
1749.16
1805.26
2089.98
3228.25
6753.56
7651.46
5010.68
4829.67
6351.72
7187.16
8774.26
5198.22
2337.31
1904.83
1798.1
1757.6
1750.78
1748.89
1746.8
1751.86
1755.05
1757.6
1759.49
1764.03
1799.07
1945.51
2492.8
5627.83
8151.77
6962.04
6335.28
4832.98
4608.58
5516.03
6051.32
7008.52
6836.46
6718.45
3472.25
2415.86
2162.54
2057.56
2021.36
2006.11
2007.56
2012.26
2023.5
2056.26
2149.49
2408.28
3625.48
6954.82
6816.96
6711.16
5974.87
5494.03
4683.6
4301.39
4808.35
5130.52
5904.09
6076.28
6587.16
5601.59
5073.82
4938.34
4381.28
4427.16
4470.2
4532.15
4505.71
4446
4345.96
4968.55
5351.6
5703.18
6679.06
6004.14
5730.55
5090.7
4789.51
4371.05
3743.34
4060.03
4362.97
5088.5
5632.22
6553.41
7326.17
8065.37
7107.72
6330.2
6564.03
6815.61
6973.16
6925.58
6695.18
6587.69
7020.45
8037.38
7657.36
6624.74
5531.4
4948.73
4260.05
3984.08
3735.98
3077.71
3422.11
3978.3
4847.35
5543.57
6255.04
7398.2
8447.92
6445.82
5340.21
5237.43
5296.91
5394.44
5360.61
5317.08
5634.71
6502.96
7919.34
7436.41
6372.52
5618.67
4857.87
3931.96
3366.11
3043.74
2639.04
3171.28
3886.08
5218.71
6109.53
5833.66
6260.87
7060.37
6085.38
5075.06
4714.85
4589.85
4603.51
4663.67
4792.24
5176.25
5941.99
6767.83
6267.06
5896.87
6373.02
5399.53
3948.44
3176.71
2640.57
2513.18
3350.86
4120.14
5445.15
5882.31
5315.97
5331.35
5914.96
5641.91
4930.49
4419.16
4092.08
4019.55
4189
4516.07
4948.56
5440.84
5694.24
5335.92
5392.63
6010.67
5454.31
4219.64
3404.4
2514.39
4673.72
6796.18
5573.54
4883.33
5073.04
4665.63
4633.29
5135.08
5161.2
4639.5
4074.78
3647.37
3536.56
3775.04
4198.76
4635.72
4957.32
4958.51
4646.51
4749.3
5173.83
4860.08
5693.8
6612.78
4633.58
10798.2
19948.1
6713.4
4234.99
4363.45
4106
4103.29
4547.88
4682.33
4271.76
3710
3249.88
3119.61
3378.38
3831.37
4252.7
4487.18
4409.67
4114.97
4178.13
4437.54
4253.29
7129.27
19956.3
10727.3
11910.5
14648.3
5957.63
3770.71
3818.44
3661.85
3665.21
4066.93
4227.43
3876.19
3348.51
2900.3
2758.94
3007.56
3448.91
3845.94
4043.87
3952.8
3669.52
3714.55
3863.42
3790.93
6111.87
14550.9
11861
11378.7
14266.6
5096.8
3427.89
3385.08
3279.13
3288.55
3643.23
3807.41
3488.69
2996.96
2581.98
2453.3
2684.51
3098.49
3469.88
3646.06
3544.45
3295.28
3331.02
3431.61
3463.08
5225.94
14477.6
11380.8
10977.3
13668.1
4569.95
3172.5
3053.52
2958.27
2980.36
3281.92
3429.56
3140.83
2693.51
2313.86
2196.34
2407.31
2789.99
3130.27
3288.78
3193.62
2981.21
3005.3
3105.93
3211.01
4724.12
14199.8
11070.1
10673.9
13675.5
4193.17
2936.65
2786.5
2686.83
2725.94
2973.82
3095.11
2833.13
2430.85
2086.43
1978.93
2167.62
2511.73
2820.21
2966.76
2890.01
2714.6
2717.11
2831.05
2972.02
4279.38
13825
10879.2
10523.3
12923.6
3813.05
2718.7
2561.92
2457.64
2508.97
2706.03
2788.8
2548.54
2194.2
1890.63
1794.79
1967.57
2278.01
2553.24
2689.94
2633.98
2490.1
2483.62
2613.18
2766.33
3915.38
13129.6
10712.3
10417.7
12495.6
3560.71
2538.36
2381.84
2273.08
2323.41
2477.9
2528.95
2308.25
1995.07
1724.98
1637.39
1792.84
2068.26
2314.37
2443.83
2410.9
2299.32
2288.55
2422.77
2582.94
3635.55
12602.5
10556.8
10286.3
12305.1
3380.6
2383.06
2228.04
2125.11
2163.11
2279.09
2301.11
2099.51
1824.47
1583.3
1502.3
1640.87
1883.79
2101.48
2224.7
2214.5
2133.26
2127.41
2255.26
2417.92
3396.15
11838.4
10387.2
10088.9
11770.9
3231.58
2248.75
2087.12
2000.14
2026.27
2101.82
2094.63
1908.73
1667.96
1457.7
1385.32
1513.43
1730.63
1924.81
2040.47
2046.61
1992.07
1995.82
2109.25
2279.62
3246.41
11478.2
10200.9
9784.92
10964.6
3109.83
2142.28
1969.79
1889.51
1906.02
1949.31
1920.42
1749.9
1538.08
1350.67
1284.05
1399.41
1591.78
1764.07
1874.35
1898.14
1870.26
1879.85
1981.44
2162.09
3109.59
10855.9
9906.89
9509.87
10507.3
3014.5
2065.39
1862.83
1786.86
1798.89
1816.89
1772.61
1614.61
1425.39
1257.35
1195.67
1299.69
1470.94
1626.45
1732.14
1768.55
1761.79
1773.28
1869.75
2073.57
3002.77
10219
9597.51
9255.01
9749.31
2934.87
2007.38
1770.82
1696.63
1698.87
1696.09
1636.36
1490.68
1323.47
1174.14
1118.47
1214.67
1369.21
1508.54
1609.14
1655.68
1663.89
1679.66
1772.68
2009.1
2944.31
9689.39
9318.13
9015.88
9125.96
2861.53
1970.28
1698.02
1617.28
1605.18
1590.67
1522.07
1387.39
1236.5
1101.71
1050.15
1137.64
1276.43
1403.82
1498.8
1553.91
1572.01
1596.12
1692.16
1963.58
2881.94
9000.38
9048.99
8794.03
8685.71
2754.67
1945.21
1651.15
1542.48
1519.92
1495.66
1421.38
1296.08
1160.33
1037.73
990.059
1069.93
1195.14
1311.19
1401.65
1461.82
1486.7
1520.31
1637.04
1936.05
2783.14
8425.32
8826.64
8554.07
8166.54
2642.19
1925.44
1619.24
1477.98
1441.8
1406.74
1331.23
1214.19
1090.16
979.756
936.234
1010.79
1125.04
1232.55
1318.38
1379.3
1410.95
1454.43
1600.85
1919.08
2682.45
8112.91
8618.99
8317.55
7795.4
2544.31
1933.35
1603.43
1424.65
1373.82
1328.1
1251.24
1143.11
1030.14
928.944
888.388
956.62
1060.59
1159.85
1240.36
1303.12
1342.87
1397.61
1578.94
1915.3
2575.61
7707.89
8371.83
8108.28
7560.31
2459.64
1941.67
1598.2
1385.74
1312.14
1257.15
1180.69
1080.75
976.569
883.265
845.25
907.895
1003.41
1095.96
1170.91
1234.35
1281.59
1356.72
1571.85
1947.44
2481.73
7489.58
8151.3
7905.95
7194.39
2345.75
1908.52
1611.09
1361.09
1259.07
1193.04
1115.21
1022.31
926.997
841.641
806.527
865.335
953.246
1038.96
1109.11
1173.65
1229.61
1330.11
1592
1954.1
2406.11
7254.39
7956.09
7729.18
6954.6
2229.42
1858.14
1636.72
1348.06
1216.78
1138.37
1059.44
972.087
883.172
804.046
771.133
825.6
906.233
986.907
1053.25
1119.95
1188.5
1317.56
1616.91
1896.4
2287.36
6958.22
7760.73
7585.29
6789.86
2131.81
1798.47
1695.27
1349.9
1187.3
1092.8
1010.06
926.458
843.567
769.934
739.12
789.706
863.719
939.599
1003.67
1075.26
1160.22
1319.1
1687.57
1837.2
2176.4
6745.93
7594.7
7438.97
6606.61
2039.22
1722.67
1703.39
1366.4
1166.24
1058.44
967.227
884.987
806.457
738.291
709.674
757.374
826.278
898.697
962.426
1040.79
1139.45
1341.42
1716.28
1771.14
2119.6
6606.15
7466.83
7302.02
6467.25
1963.17
1645.77
1658.77
1415.33
1156.2
1033.62
933.497
849.098
773.847
709.921
682.789
727.169
791.24
861.219
927.67
1015.12
1127.86
1384.52
1679.56
1687.61
2036.27
6435.73
7327.45
7191.1
6328.08
1976.37
1577.1
1593.78
1480.89
1164.99
1014.7
909.471
819.868
744.805
683.878
657.935
699.501
759.999
829.357
901.817
997.594
1138.89
1474.95
1620.27
1610.46
1976.07
6293.96
7209.08
7071.04
6193.62
1917.21
1511.18
1518.62
1492.19
1207.27
1004.72
889.073
796.863
719.491
660.303
635.507
675.323
733.846
804.722
881.828
990.102
1197.1
1513.9
1552.43
1552.48
1987.22
6161.78
7107.58
6956.83
6042.88
1941.92
1460.17
1445.05
1441.15
1299.23
1018.72
876.1
780.796
700.74
640.74
615.954
654.479
713.445
786.47
866.929
1004.1
1294.61
1463.74
1480.55
1495.97
1955.73
6033.69
7002.19
6843.79
5902.27
1986.19
1423.89
1382.75
1383.92
1335.99
1083.12
871.483
766.302
686.849
626.326
599.636
638.936
698.222
771.183
860.061
1071.48
1341.68
1404.07
1414.7
1450.82
1951.51
5907.91
6882.35
6665.3
5734.29
1971.09
1388.53
1328.55
1323.93
1294.08
1179.95
895.846
755.203
674.806
615.216
587.598
627.52
685.936
760.257
886.194
1182.46
1300.89
1340.18
1358.08
1420.96
2000.56
5746.73
6688.73
6428.92
5520.95
1968.77
1363
1282.06
1266.09
1247.53
1221.09
974.649
757.021
665.617
606.245
579.062
617.982
675.38
758.874
960.532
1234.94
1255.03
1278.01
1308.21
1391.97
1991.04
5538.71
6445.36
5870.65
5150.81
1943.97
1339.16
1241.51
1214.82
1196.68
1183.32
1071.74
795.766
663.556
598.378
571.79
609.606
672.02
790.074
1072.12
1199.6
1205.31
1224.92
1263.65
1364.23
1950.81
5160.05
5894.37
928.478
1696.85
3139.62
3917.08
4124.81
3752.49
3424.38
3280.48
3122.02
2708.49
2040.62
1490.3
1174.19
1030.66
977.985
968.822
979.544
996.467
1018.77
1046.2
1080.46
1119.2
1157.48
1190.92
1197.38
1086.75
739.196
545.213
427.319
310.914
982.832
2101.99
3759.58
4363.87
4218.11
3722.33
3363.46
3240.92
3183.09
3033.4
2432.86
1696.91
1263.84
1060.61
977.946
955.258
959.745
975.243
997.207
1025.01
1059.59
1102.22
1151.63
1202.53
1242.61
1231.63
975.105
582.671
422.864
304.68
1070.87
2547.23
4181.14
4489.57
4055.15
3529.2
3183.39
3094.54
3069.17
2936.12
2414.26
1732.68
1297.68
1070.85
969.98
937.418
936.105
950.787
973.157
1000.04
1034.2
1076.36
1128.19
1182.21
1230
1246.34
1140.91
699.715
426.665
301.813
1197.83
3090.88
4545.67
4565.21
3915.95
3371.13
3011.72
2930.77
2962.89
2876.69
2501.86
1825.95
1354.34
1089.97
964.964
919.037
911.925
925.068
946.497
973.541
1007.55
1047.72
1097.65
1151.14
1203.54
1236.02
1205
926.64
467.605
300.851
1348.04
3584.86
4865.2
4543.57
3769.35
3194.35
2809.26
2738.39
2786.59
2730.26
2447.47
1844.97
1376.18
1094.56
955.303
899.846
887.603
898.241
918.434
944.984
977.488
1016.92
1063.25
1113.78
1164.55
1203.9
1206.06
1075.89
607.247
313.497
1548.51
4064.47
5099.92
4441.69
3581.18
2978.88
2622.29
2582.59
2660.84
2594.16
2358.3
1811.66
1372.51
1090.45
940.846
879.691
864.79
871.592
891.405
917.784
948.807
985.59
1027.92
1073.77
1118.74
1156.34
1170.72
1124.73
814.791
388.576
1778.52
4576.68
5315.62
4341.89
3374.79
2743.55
2430.86
2428.02
2539.17
2463.77
2245.8
1750.11
1348.91
1070.65
920.251
858.095
841.77
847.852
866.028
891.995
921.658
955.128
992.678
1033.1
1071.09
1104.07
1120.99
1111.86
987.361
607.037
2039.38
5119.19
5477.67
4212.32
3167.95
2559.26
2288.56
2300.69
2423.6
2346.07
2128.2
1690.09
1307.69
1039.59
897.291
836.821
818.526
825.684
844.795
869.499
897.59
927.754
960.246
995.149
1028.29
1059.77
1084.24
1119.81
1184.63
700.473
2318.79
5641.03
5564.35
4065.97
2984.34
2423.9
2193.93
2214.15
2334.79
2254.91
2023.67
1630.95
1255.5
1003.44
873.623
817.551
798.778
805.391
825.261
851.473
878.155
905.715
933.998
964.127
994.95
1028.88
1074.43
1200.82
1371.61
745.069
2616.64
6118.11
5588.46
3915.6
2843.81
2330.88
2134.89
2154.91
2274.43
2198.93
1957.22
1559.37
1191.91
964.585
849.157
798.217
783.226
790.209
810.797
836.717
863.503
889.317
914.785
941.12
971.494
1014.04
1106.37
1350.98
1390.35
772.265
2947.46
6543.51
5555.69
3778.35
2762.35
2280.93
2091.34
2094
2209.94
2147.35
1916.15
1467.24
1123.41
922.48
828.228
784.387
773.605
782.158
803.442
828.097
854.017
878.26
901.001
925.363
958.19
1019.34
1187.88
1461.37
1373.89
789.652
3327.08
6876.24
5496.13
3702.95
2733.2
2256.82
2047.72
2017.72
2118.05
2059.41
1805.68
1353.57
1050.3
888.101
812.767
777.94
770.7
781.58
802.266
825.879
849.687
871.646
892.501
916.343
955.337
1052.94
1320.84
1477.95
1344.72
794.385
3735.78
7142.96
5472.45
3675.32
2726.72
2246.97
2009.27
1934.56
1975.7
1897.23
1609.59
1239.53
988.305
866.815
808.311
780.304
776.625
787.921
807.001
828.667
849.681
868.822
887.293
912.758
967.126
1127.24
1425.24
1454.17
1280.68
781.45
4117.36
7421.14
5501.38
3695.8
2759.58
2265.54
1992.31
1848.03
1815.3
1692.27
1410.58
1148.97
953.547
862.167
817.134
792.864
790.595
800.883
815.731
833.358
850.621
866.029
882.626
912.276
999.944
1243.64
1427.64
1385.08
1190.73
763.805
4474.35
7700.17
5587.38
3772.82
2838.44
2317.16
2004.71
1797.34
1682.53
1520.6
1283.86
1103.26
955.976
875.789
837.281
813.841
810.959
816.543
825.46
837.642
850.029
861.281
877.25
919.403
1065.29
1318.66
1375.41
1291.9
1107.22
748.381
4816.94
8013.03
5749.73
3916.21
2969.67
2426.1
2072.53
1797.81
1611.45
1428.05
1242.59
1108.86
986.682
905.381
865.732
841.208
835.52
833.751
835.108
840.511
847.129
854.931
873.88
943.667
1150.74
1303.65
1306.5
1207.38
1043.65
736.781
5180.48
8387.12
5993.27
4135.34
3163.11
2606.2
2233.53
1910.28
1666.68
1466.49
1299.35
1167.73
1041.52
953.619
903.301
876.815
863.009
852.016
844.529
842.413
843.182
849.766
879.353
999.601
1234.2
1260.16
1236.33
1140.24
998.1
727.909
5546.71
8813.46
6336.32
4439.91
3432.91
2866.57
2499.34
2153.47
1868.46
1637.14
1448.35
1286.6
1136.65
1031.17
956.006
922.764
894.188
872.16
855.053
845.432
841.468
850.871
903.615
1079.38
1228.38
1214.68
1175.24
1091.42
965.514
721.535
5876.34
9321.33
6797.35
4843.68
3795.61
3219.11
2865.66
2517.84
2201.58
1927.55
1693.52
1483.28
1292.78
1150.53
1036.95
981.234
931.161
895.626
869.336
852.612
846.547
864.047
960.563
1173.5
1198.8
1170.36
1126.19
1055.79
938.588
721.32
6227.45
9935.08
7379.51
5361.01
4264.11
3679.41
3333.14
3001.01
2669.39
2357.8
2069.29
1798.49
1540.52
1333.15
1154.85
1056.41
978.373
927.222
891.384
867.76
862.446
899.146
1048.25
1187.55
1170.97
1132.37
1089.99
1027.88
915.86
722.376
6821.3
10481.4
8054
6001.03
4848.1
4244.39
3886.87
3584.25
3263.61
2939.65
2600.06
2258.64
1909.9
1603.64
1324.17
1161.15
1047.41
976.327
926.425
895.291
894.851
970.766
1157.27
1176.62
1146.94
1097.7
1063.92
1004.55
894.659
722.33
7259.14
11257.8
8857.31
6794.54
5576.52
4920.31
4514.04
4225.89
3941.56
3638.4
3270.87
2867.46
2426.36
1998.63
1578.81
1322.76
1156.71
1051.75
980.027
940.389
954.632
1083.38
1191.76
1163.27
1120.95
1075.5
1044.57
984.352
873.151
719.556
7680.87
11780.6
9628.38
7769.2
6494.2
5735.5
5229.59
4886.6
4636.9
4380.88
4026.58
3589.32
3111.44
2553.95
1974.88
1571.68
1321.99
1162.64
1058.92
1011.99
1058.55
1201.55
1199.26
1149.61
1095.9
1059.67
1028.76
965.248
850.372
716.226
7972.93
12402.2
10776.9
9184.59
7766.53
6808.15
6114.35
5636.44
5341.42
5111.08
4804.58
4418.71
3928.66
3280.32
2565.11
1941.54
1564.89
1326.17
1177.41
1129.57
1217.21
1250.4
1198.07
1128.48
1077.69
1047.67
1013.92
946.416
826.351
712.885
7940.02
13516.8
13037.3
11482.3
9626.48
8285.48
7279.57
6600.73
6169.29
5857
5590.9
5275.53
4818.45
4150.7
3353.99
2494.46
1928.3
1576.01
1371.22
1326.39
1341.11
1273.33
1188.74
1101.03
1063.23
1037.15
998.38
926.412
806.471
708.143
310.33
427.373
546.183
739.232
1071.64
1183.7
1179.23
1148.6
1112.91
1074.73
1040.57
1012.39
990.62
974.937
967.132
979.934
1040.87
1202.38
1552.57
2138.93
2819.69
3200.14
3334.08
3480.26
3836.55
4222.97
4037.85
3250.36
1751.51
947.689
304.067
422.904
582.419
964.046
1215.28
1227.32
1189.29
1143.12
1095.73
1054.1
1019.33
991.505
970.13
956.261
954.453
982.14
1075.68
1301.59
1774.21
2548.89
3106.42
3238.58
3287.95
3412.1
3801.45
4313.77
4480.52
3874.69
2174.62
1005.26
301.145
426.487
695.362
1130.13
1235.85
1220.81
1175.34
1122.47
1071.73
1029.15
994.034
967.703
947.94
935.589
937.459
976.258
1088.28
1336.64
1803.02
2524.4
3007.12
3123.41
3139.06
3244.52
3615.49
4159.49
4618.92
4317.35
2638.01
1095.7
300.027
465.57
918.473
1197.89
1230.63
1198.99
1147.48
1094.58
1045.92
1005.21
971.063
944.79
923.198
912.916
921.907
973.77
1110.92
1398.75
1898.55
2593.61
2938.6
3001.56
2969.93
3071.07
3450.01
4020.83
4696.29
4685.94
3187.73
1226.47
311.058
601.422
1072.53
1204.47
1201.96
1162
1111.18
1061.03
1015.49
977.259
944.066
917.745
897.005
889.272
904.682
966.005
1117.99
1422.57
1916.93
2524.94
2782.52
2823.33
2775.29
2862.65
3264.98
3868.27
4672.49
5001.74
3677.7
1381.02
377.812
809.372
1125.91
1172.37
1155.42
1116.32
1071.6
1025.94
984.385
948.377
917.512
891.208
871.698
866.208
885.946
953.922
1116.26
1418.8
1880.26
2425.17
2643.86
2697.66
2612.65
2667.28
3040.98
3670.69
4571.01
5248.38
4164.84
1586.81
587.231
977.885
1114.18
1122.28
1103.45
1069.4
1031.45
991.143
954.099
921.072
891.399
865.782
847.305
843.697
865.181
934.456
1097.11
1394.24
1811.79
2305.22
2512.35
2576.81
2454.25
2467.74
2799.05
3458.38
4472.63
5480.83
4695.92
1821.22
696.023
1172.15
1118.29
1084.16
1058.96
1026.75
993.391
958.637
926.423
896.285
867.669
842.555
824.949
820.826
843.672
911.093
1066.02
1352.45
1748.58
2184.93
2396.53
2465.11
2328.09
2325.23
2614.01
3247.7
4339.53
5651.04
5252.66
2085.69
747.091
1375.98
1193.07
1071.27
1026.36
991.974
960.992
931.158
903.079
875.354
847.999
823.221
805.606
800.962
822.889
885.904
1029.26
1300.8
1686.93
2082.08
2309.28
2380.39
2244.35
2230.61
2475.49
3059.43
4188.88
5742.57
5793.76
2368.34
776.28
1395.41
1340.49
1098.8
1009.17
966.68
936.492
910.5
885.556
859.967
833.802
808.828
790.498
785.495
804.569
861.697
986.764
1236.42
1616.21
2018.97
2254.27
2316.24
2186.99
2171.62
2379.29
2916.39
4036.71
5766.84
6284.92
2669.75
794.069
1377.25
1456.29
1177.31
1011.98
952.039
919.989
895.927
873.431
849.909
824.945
800.558
781.872
775.589
790.679
840.594
942.087
1162.58
1525.33
1977.22
2199.13
2244.3
2125.46
2128.96
2331.29
2835.02
3897.07
5737.74
6724.06
3007.42
799.705
1347.31
1472.8
1303.74
1043.35
948.927
910.354
886.289
865.724
844.457
821.814
799.656
780.892
772.694
782.906
823.077
904.777
1082.13
1412.02
1861.6
2104.22
2142.41
2046.6
2086.8
2309.9
2804.27
3819.34
5677.45
7070.33
3397.22
787.909
1285.49
1449.9
1417.89
1116.98
959.49
905.855
879.951
861.476
843.062
823.259
803.817
787.086
777.879
784.252
815.856
878.961
1011.22
1288.09
1660.16
1932.88
1996.5
1962.04
2049.96
2301.63
2798.41
3793.81
5656.9
7348.14
3813.96
769.455
1198.05
1384.62
1421.09
1229.26
990.461
905.534
875.488
858.283
843.273
827.298
811.769
798.735
791.23
795.781
822.524
869.978
969.638
1180.8
1448.63
1719.11
1835.99
1876.8
2034.81
2321.36
2832.41
3814.76
5689.95
7634.34
4204.44
753.056
1115.87
1290.64
1369.14
1314.51
1054.07
912.097
871.134
854.563
842.957
831.549
821.161
814.066
811.194
815.978
841.419
881.07
967.174
1123.45
1309.35
1542.92
1702.51
1827.62
2048.27
2374.98
2915.57
3893.41
5783.81
7926.5
4567.6
741.714
1051.99
1207.89
1299.12
1299.78
1136.18
933.793
868.26
849.402
841.171
834.851
830.817
831.214
835.596
843.384
868.133
910
994.922
1121.53
1260.61
1448.19
1633.48
1831.93
2119.6
2487.37
3050.14
4041.17
5956
8255.11
4914.89
733.166
1004.21
1141.16
1233.81
1255.28
1227.09
985.206
872.571
844.985
838.626
837.763
840.99
849.943
863.439
880.773
906.32
959.276
1049.48
1177.93
1314.86
1485.36
1692.1
1949.59
2285.58
2672.65
3248.83
4266.35
6212.32
8649.65
5283.9
726.498
967.495
1092.12
1175.01
1210.46
1226.17
1060.83
893.912
845.819
837.656
842.164
853.092
871.762
896.009
929.073
962.572
1039.02
1147.69
1300.68
1468
1660.51
1899.04
2197.74
2555.04
2937.33
3523.02
4578.07
6571.33
9099.03
5658.57
724.611
940.352
1057.14
1126.23
1170
1198.78
1161.22
946.263
857.829
842.96
851.329
869.934
898.648
937.2
992.302
1049.21
1164.19
1310.99
1506.16
1723.97
1962.89
2241.64
2568.51
2926.47
3295.32
3894.65
4992.77
7046.82
9627.47
5993.24
724.528
920.352
1030.04
1091.7
1134.99
1171.57
1185.87
1031.08
890.687
859.451
868.792
895.483
934.651
990.907
1076.17
1177.25
1357.75
1571.63
1835.22
2117.07
2412.44
2726.13
3064.11
3404.65
3764.74
4373.01
5520.59
7650.08
10275.5
6345.45
725.915
900.208
1007.77
1065.69
1101.21
1145.5
1179.56
1146.7
958.247
891.753
898.096
934.324
988.741
1068.2
1193.03
1364.78
1649.42
1964.43
2316.6
2670.41
3019.02
3343.57
3666.4
3976.11
4346.39
4972.21
6162.25
8342.6
10851.2
6953.04
724.338
879.536
987.922
1046.84
1080.07
1126.86
1167.93
1193.55
1067.42
950.24
944.707
992.416
1071.81
1188.81
1372.31
1648.98
2077.98
2519
2943.78
3366.69
3744.03
4050.2
4330.3
4622.4
5039.96
5719.4
6969.03
9155.96
11656
7403.39
722.818
858.399
969.655
1031.97
1064.83
1107.58
1157.25
1207.45
1202.98
1052.84
1019.27
1078.71
1195.52
1372.82
1650.16
2089.7
2678.33
3245.71
3718.17
4153.18
4514.1
4779.59
5016.23
5358.83
5877.44
6664.14
7969.48
9929.14
12179.2
7857.08
718.711
835.822
951.835
1018.57
1053.76
1086.31
1139.73
1210.14
1261.62
1215.77
1141.42
1208.67
1378.66
1645.98
2066.54
2738.06
3457.95
4111.16
4598.63
4973.04
5274.13
5517.86
5795.64
6268.75
6977.48
7967.83
9413.48
11090.2
12825
8142.92
714.332
816.019
933.775
1004.79
1044.56
1072.99
1113.82
1205.23
1292.52
1363.15
1345.85
1418.24
1657.37
2054.81
2687.73
3589.38
4388.74
5047.87
5495.78
5798.09
6051.99
6375.27
6796.45
7463.65
8488.68
9874.63
11755.2
13368.4
13926.6
8107.11
1245.58
1234.23
1192.93
1177.63
1153.26
1133.32
1112.24
1090.63
1066.78
1054.69
1063.99
1089.91
1126.55
1176.63
1228.38
1286.87
1361.04
1456.58
1578.55
1728.72
1907.48
2115.05
2329.89
2544.44
2745.12
2919
3056.83
3149.75
3202.33
3213.82
3188.62
3126.86
3031.63
2921.81
2806.87
2691.3
2577.34
2464.06
2347.72
2226.41
2102.12
1977.89
1858.24
1745.22
1641.61
1553.38
1477.62
1405.11
1333.53
1261.25
1189.79
1120.11
1052.98
988.698
928.256
871.945
819.621
770.807
725.105
683.199
646.603
615.483
589.365
567.757
549.361
533.912
521.401
511.34
503.172
496.303
490.358
485.2
480.758
476.917
473.518
470.541
468.071
466.235
465.076
464.575
464.662
465.282
466.416
468.105
470.227
472.527
474.744
476.711
478.391
479.82
481.046
482.106
483.068
484.074
485.216
486.427
487.701
488.964
490.572
492.535
494.735
497.889
501.452
505.406
509.911
514.993
521.227
527.959
536.094
545.86
556.704
568.15
580.434
593.593
606.518
617.816
630.428
644.594
661.865
678.16
688.121
693.508
699.152
704.4
709.598
4021.78
3927.88
3725.68
3667.18
3616.98
3570.75
3526.97
3464.56
3390.24
3327.99
3350.86
3424.34
3512.55
3634.54
3813.98
4018.66
4305.98
4705.98
5258.84
5994.04
6873.92
7895.29
8963.57
10058.2
11079.7
11958.8
12642.1
13118.6
13392.6
13476.4
13414.4
13215.4
12904.5
12519.5
12088.7
11623.9
11132.5
10619.9
10084.4
9522.34
8945.12
8367.79
7809.27
7278.25
6782.05
6322.22
5885.98
5466.99
5054.82
4652.36
4259.03
3878.78
3512.39
3158.77
2825.8
2518
2240.43
1991.85
1773.89
1585.97
1425.59
1291.77
1179.22
1084.35
1005.84
941.96
891.073
850.201
816.379
787.143
760.91
737.086
715.559
696.279
678.98
663.435
649.499
637.122
626.302
616.801
608.5
601.286
594.947
589.345
584.32
579.606
574.931
570.119
565.116
559.976
554.775
549.592
544.513
539.726
535.349
531.37
527.737
524.285
521.305
518.909
516.846
515.904
515.757
516.627
518.763
521.573
525.707
530.31
536.686
544.998
554.969
566.595
579.98
593.304
608.422
626.362
646.758
668.401
689.765
709.099
727.223
744.969
761.807
778.085
796.319
13764.6
13600.8
13138.9
13049.1
13100.5
13108.4
13113.6
13004.3
12793.8
12491.2
12191
11955.9
11713.5
11485.4
11387
11341.2
11462.7
11804.1
12422.7
13423.8
14760.3
16421.7
18179.8
19898.3
21459.8
22749.1
23717.3
24376.3
24742.3
24838.4
24722
24419.9
23964.4
23388.8
22722.1
21995
21215.5
20386.6
19506.5
18571.6
17591.2
16582.3
15566
14559
13574.9
12623.4
11701.7
10797.6
9921.97
9076.32
8276.41
7524.04
6821.5
6164.66
5553.25
4978.8
4436.11
3927.23
3455.43
3027
2648.53
2325.06
2055.46
1832.86
1651.39
1505.37
1389.46
1295.02
1215.02
1145.51
1084.36
1030.47
983.578
943.489
909.311
880.195
855.419
834.199
815.584
798.929
783.939
770.38
758.095
746.71
735.88
725.263
714.535
703.503
692.186
680.761
669.432
658.387
647.825
637.975
629.04
620.934
613.523
606.53
600.506
595.394
591.342
589.17
588.392
588.856
590.801
594.581
600.304
607.975
617.538
629.411
643.861
659.762
676.255
693.371
712.392
732.685
753.603
772.873
789.771
807.004
825.133
847.761
870.972
892.651
914.355
38208.5
38185.6
37568.5
37555.3
37740.7
37817.8
37708.5
37317.1
36523.9
35169.7
33351.5
31592.8
29889.6
28237.6
26778.6
25583.6
24869.9
24731.1
25246.7
26487.3
28381.2
30746.9
33268.2
35691.1
37808.7
39492.5
40701.3
41459.2
41837.4
41895.4
41707.3
41319.9
40774.6
40106.5
39343.4
38499.8
37562.6
36526.7
35379.8
34108.4
32719.7
31231.8
29667.2
28043
26368.5
24644.5
22871.5
21059.1
19232.7
17421.8
15658.1
13977.7
12408.8
10972.9
9684.31
8539.34
7524.77
6626.57
5839.15
5153.51
4550.82
4007.56
3517.25
3091.4
2731.35
2431.33
2188.78
1997.18
1842.32
1712.52
1600.39
1503.01
1419.8
1349.25
1289.71
1240.22
1199.95
1166.73
1138.3
1113.13
1089.67
1066.94
1044.5
1022.01
998.997
975.088
950.098
924.09
897.384
870.591
844.405
819.399
796.026
774.538
755.075
737.672
722.087
708.101
695.971
685.675
677.595
671.507
667.78
665.851
665.844
668.136
673.229
681.566
692.458
705.929
720.896
735.486
750.439
766.293
783.862
803.648
825.268
847.045
866.926
885.976
909.442
932.534
954.537
973.88
990.339
75186.6
75730.4
75572
75798
75941.9
75761
75110.6
73883.5
72053
69725.5
66981.6
63698.5
60165.4
56667
53704.5
51449.1
50086.2
49684
50306.6
51822.7
54002.1
56520.2
58993
61202.6
62993.8
64311.3
65170.7
65634.5
65788.7
65706.1
65453.9
65077
64601.8
64043.6
63403.3
62659.7
61794.1
60759
59515.3
58050.3
56372.8
54505.2
52469.8
50277.4
47925.3
45405.3
42714.1
39866.1
36895.6
33847.3
30773.4
27732
24779.7
21967.3
19337.1
16921.7
14730.5
12770.2
11049.9
9564.87
8291.49
7196.12
6244.62
5414.13
4696.96
4104.29
3634.12
3270.66
2993.62
2784.93
2617.57
2481.46
2371.4
2281.92
2208.18
2146.38
2091.44
2041.37
1995.7
1952.67
1910.12
1865.71
1817.55
1764.14
1704.43
1638.15
1565.52
1487.79
1407.19
1326.07
1247
1172.18
1103.29
1041.38
986.846
939.483
898.547
863.163
833.019
807.905
787.302
771.772
760.043
751.638
746.603
744.952
747.461
753.322
762.648
773.305
784.548
797.21
812.114
829.525
849.189
870.509
892.52
914.239
936.714
960.751
983.029
1001.09
1014.72
1025.96
1035.8
110933
112207
112730
113162
113093
112345
110826
108546
105674
102326
98646.1
94845.8
91202
87963.8
85187.3
83229.2
81987.4
81603.4
82268
83753
85719.3
87777.1
89602.3
91062.3
92132.9
92857
93301.6
93544
93656.4
93692
93678.7
93630
93535.5
93374.2
93103.5
92670.1
92016.3
91088.6
89851.2
88298.1
86447.2
84330.7
81975.5
79391.1
76570
73504.4
70194.4
66657.6
62938.3
59071.1
55105.3
51096.3
47103.9
43204.8
39459.3
35897
32522
29344.6
26379.9
23628.1
21067.9
18668.4
16400
14263
12309.4
10581.3
9115.24
7923.47
6984.37
6246.55
5695.01
5296.52
5016.17
4819.34
4673.6
4553.43
4443.33
4334.79
4224.23
4110.11
3990.75
3864.95
3731.94
3591.01
3439.95
3276.45
3100.7
2912.1
2713.13
2508.36
2302.32
2101.14
1910.15
1734
1575.29
1435.01
1313.39
1209.95
1123.29
1051.85
994.014
948.79
913.414
886.468
867.035
854.227
847.594
845.911
848.714
853.015
860.178
870.374
883.982
900.974
921.003
942.442
964.056
985.765
1007.78
1027.24
1040.14
1046.5
1050.3
1055.51
1063.23
139622
141118
141675
141803
141159
139566
136930
133738
129905
125601
121112
116828
113221
110659
109269
109126
109178
109957
111403
113252
115202
116906
118235
119231
119980
120575
121101
121611
122139
122696
123269
123822
124300
124634
124743
124539
124011
123110
121833
120189
118219
115974
113500
110827
107952
104917
101684
98242.2
94607.8
90839.3
86991.3
83113.7
79237.2
75473.7
71850.2
68338
64917.9
61568.6
58270.8
55006.9
51749.7
48440
45026.5
41484.3
37819.8
34127
30523.4
27110.2
23971.9
21206.9
18923.9
17006.6
15405.4
14070.3
12948.2
11994.1
11171.1
10448.4
9801.91
9213.43
8670.33
8164.55
7688.71
7235.8
6801.95
6381.52
5968.84
5559.87
5154.2
4755.52
4363.09
3977.63
3603.76
3246.57
2912.06
2602.25
2317.6
2061.25
1836.69
1644.63
1483.76
1353.56
1249.13
1165.93
1102.78
1056.61
1023.47
1000.9
984.675
974.697
970.19
971.667
978.629
990.161
1005.09
1022.47
1040.55
1055.44
1064.22
1065.2
1063.13
1063.05
1067.98
1081.42
1096.37
159955
161326
161446
160925
159520
157101
153618
149457
144697
139708
134884
130725
127733
126159
126094
127454
129158
131547
134371
137149
139395
141152
142512
143666
144763
145884
147065
148313
149616
150936
152209
153353
154281
154913
155190
155061
154510
153581
152259
150598
148681
146589
144384
142154
139800
137247
134528
131692
128794
125891
123032
120248
117558
114960
112423
109909
107370
104756
102009
99038.7
95901.7
92491.6
88758.6
84680.5
80268
75592.7
70690.1
65624.8
60480.3
55374.6
50329.9
45494.6
41044.5
37140.9
33687.7
30582.9
27770.6
25230
22936.2
20866
18991.6
17297.8
15768.1
14382.5
13126.5
11982.3
10937.3