/*--------------------------------*- C++ -*----------------------------------*\
| =========                 |                                                 |
| \\      /  F ield         | OpenFOAM: The Open Source CFD Toolbox           |
|  \\    /   O peration     | Version:  2112                                  |
|   \\  /    A nd           | Website:  www.openfoam.com                      |
|    \\/     M anipulation  |                                                 |
\*---------------------------------------------------------------------------*/
FoamFile
{
    version     2.0;
    format      ascii;
    arch        "LSB;label=32;scalar=64";
    class       volScalarField;
    location    "0.001";
    object      alphat;
}
// * * * * * * * * * * * * * * * * * * * * * * * * * * * * * * * * * * * * * //

dimensions      [1 -1 -1 0 0 0 0];

internalField   nonuniform List<scalar> 
13875
(
0.119866
0.0816062
0.0784705
0.0782744
0.0782715
0.078351
0.0783355
0.078374
0.0783399
0.0783065
0.0783218
0.0783282
0.0782882
0.0783293
0.078275
0.0782867
0.0783505
0.0783566
0.078334
0.0783364
0.0782643
0.0782743
0.0785105
0.081439
0.120911
0.103922
0.0576453
0.0570873
0.0571355
0.0566777
0.0565818
0.0565713
0.0567337
0.0569577
0.0570904
0.0571617
0.0571112
0.0570937
0.0571505
0.0570971
0.0570527
0.0566763
0.056588
0.0565327
0.0565598
0.0566667
0.0571709
0.0570998
0.0573591
0.104491
0.110622
0.0553573
0.0559094
0.0547496
0.054478
0.0543358
0.0542226
0.0541641
0.0541095
0.0541063
0.0543347
0.0542734
0.0541934
0.0541337
0.0540661
0.0542743
0.0542384
0.054203
0.0541965
0.0543097
0.0544585
0.0546006
0.0558276
0.0551171
0.111176
0.115893
0.0546562
0.0554166
0.0543209
0.0539247
0.0537925
0.0536818
0.0536198
0.0535679
0.0534241
0.0536318
0.0536276
0.053522
0.0534512
0.0533745
0.0535068
0.0536924
0.0536698
0.053657
0.0537711
0.0539156
0.0542095
0.0552446
0.0543467
0.115725
0.121047
0.0546761
0.0551659
0.0537716
0.0535933
0.053392
0.0532469
0.0531586
0.0530984
0.0529525
0.0531562
0.0531492
0.0530426
0.052964
0.0528968
0.0530195
0.053212
0.053203
0.0532075
0.0533668
0.0535581
0.0536257
0.0550643
0.0543861
0.121251
0.124474
0.054776
0.0552471
0.0536142
0.0532051
0.0529862
0.052838
0.0527441
0.0526907
0.0525511
0.0527413
0.0527475
0.0526136
0.0525435
0.0524933
0.0525867
0.0527912
0.0528003
0.052814
0.0529635
0.0531787
0.0535467
0.0549486
0.0544962
0.124111
0.128916
0.0565742
0.0558875
0.0535111
0.0532284
0.0528562
0.0526072
0.0524635
0.0523947
0.0522521
0.0523999
0.0524049
0.0522848
0.0522234
0.0521801
0.0522466
0.0524788
0.052523
0.0525915
0.0528348
0.0531897
0.053437
0.0557452
0.0565038
0.129199
0.1361
0.0614114
0.058029
0.0545217
0.0534356
0.0528628
0.0525153
0.0523267
0.0522397
0.0521017
0.0521949
0.0521862
0.0521049
0.0520614
0.0520243
0.0520512
0.0522996
0.0523889
0.0525149
0.0528428
0.053409
0.054443
0.0577355
0.0613219
0.136142
0.153063
0.0699098
0.0620072
0.0562531
0.054669
0.0535592
0.0529013
0.0525577
0.0524063
0.0522605
0.0522606
0.0522319
0.0521965
0.0521748
0.0521389
0.0521455
0.0524301
0.0526158
0.0529015
0.0535165
0.0545802
0.0560447
0.0614904
0.0690483
0.155704
0.241902
0.0886633
0.0673751
0.0596649
0.0561801
0.0546234
0.0537609
0.0532828
0.053087
0.0529407
0.0528527
0.0527954
0.0527979
0.0528102
0.0527874
0.0527854
0.0530444
0.0533346
0.0538011
0.054606
0.056269
0.05946
0.0670303
0.0883368
0.245243
0.37719
0.123466
0.0783568
0.0646666
0.0597554
0.0570414
0.0557714
0.0550695
0.0547921
0.0546091
0.0544395
0.0543363
0.0543625
0.054421
0.0544327
0.0544562
0.0546732
0.0550616
0.0558006
0.0569702
0.059621
0.0639607
0.0770791
0.118004
0.375651
0.667383
0.20309
0.100764
0.0816871
0.0676794
0.0621164
0.0602477
0.0591377
0.0587298
0.0584531
0.0582068
0.0580547
0.0580755
0.058175
0.0582576
0.0583507
0.0585965
0.0590454
0.0602283
0.0619844
0.0675949
0.0807107
0.0981666
0.194551
0.664112
0.59853
0.384038
0.286744
0.115219
0.0908336
0.0765377
0.0713829
0.0692745
0.0684279
0.0678615
0.06753
0.0673662
0.0673363
0.0674657
0.0676569
0.0679249
0.0684335
0.069254
0.0714631
0.0767704
0.0901492
0.112414
0.274577
0.381823
0.596781
0.512044
0.376069
0.374236
0.457681
0.159491
0.113677
0.108027
0.102304
0.101016
0.100118
0.10009
0.0999645
0.100572
0.100254
0.100813
0.101113
0.102172
0.103541
0.10885
0.120361
0.174778
0.424919
0.380268
0.378571
0.519706
0.412987
0.354389
0.361411
0.438474
0.378471
0.248923
0.228841
0.203367
0.178517
0.171115
0.170932
0.16914
0.171534
0.169746
0.173372
0.174093
0.180809
0.205678
0.235535
0.255322
0.371658
0.421451
0.366746
0.36676
0.428272
0.355108
0.333585
0.366073
0.442882
0.532544
0.682095
0.793366
0.622622
0.628849
0.627053
0.63602
0.635105
0.632196
0.629347
0.633245
0.627514
0.630686
0.627239
0.76181
0.718894
0.555505
0.444512
0.369487
0.337556
0.370355
0.286077
0.337326
0.433305
0.484648
0.553021
0.703388
0.638163
0.471445
0.454796
0.437726
0.438568
0.432071
0.427079
0.427265
0.434507
0.439593
0.455731
0.477753
0.613875
0.734727
0.581816
0.487196
0.433274
0.334696
0.298066
0.250025
0.346012
0.428938
0.441211
0.463584
0.540217
0.478231
0.384011
0.363388
0.351721
0.355809
0.35032
0.349529
0.347243
0.354691
0.359782
0.373061
0.396994
0.482956
0.549274
0.481541
0.442801
0.444319
0.331448
0.22637
0.127173
0.283472
0.385039
0.37146
0.365212
0.404865
0.40301
0.36141
0.33815
0.323285
0.320709
0.314574
0.313472
0.310615
0.317854
0.327343
0.344529
0.369736
0.414767
0.41633
0.368998
0.363513
0.383066
0.296259
0.124834
0.0599318
0.19356
0.286218
0.291743
0.288128
0.321204
0.353169
0.343077
0.321395
0.301768
0.29273
0.284766
0.283176
0.281935
0.291474
0.307267
0.330901
0.355698
0.366426
0.331908
0.289809
0.287374
0.281402
0.192786
0.0564443
0.0593209
0.132255
0.197545
0.215922
0.227485
0.264471
0.307387
0.313059
0.295617
0.275403
0.263728
0.255031
0.253725
0.253938
0.264943
0.28356
0.308715
0.328416
0.31996
0.271933
0.227205
0.209069
0.191324
0.124558
0.0536231
0.0928657
0.126347
0.146427
0.169723
0.186897
0.225675
0.267036
0.277313
0.265156
0.246971
0.234661
0.226196
0.22568
0.226279
0.237325
0.256415
0.279913
0.293775
0.279012
0.231766
0.185388
0.163286
0.140321
0.120796
0.0881293
0.153081
0.13702
0.127063
0.139989
0.158008
0.195554
0.232476
0.243754
0.23472
0.219002
0.207187
0.199565
0.199959
0.200326
0.209768
0.227409
0.248441
0.259241
0.244451
0.200907
0.15627
0.133833
0.122402
0.131393
0.145575
0.1822
0.143238
0.124755
0.124361
0.139021
0.169367
0.200745
0.213426
0.205709
0.192046
0.181617
0.175471
0.177229
0.177289
0.184863
0.20018
0.218787
0.228438
0.2122
0.174701
0.138994
0.121515
0.120652
0.139062
0.170998
0.19877
0.150824
0.121034
0.115343
0.125231
0.148963
0.174163
0.18511
0.180103
0.167687
0.159003
0.154341
0.157269
0.156591
0.162384
0.175219
0.192356
0.200164
0.186296
0.153242
0.126231
0.113027
0.117481
0.146169
0.185125
0.214135
0.159151
0.120315
0.110387
0.116077
0.131704
0.152727
0.162735
0.157443
0.147232
0.139487
0.136308
0.140088
0.138969
0.142512
0.152896
0.166825
0.174433
0.164014
0.138633
0.11829
0.109614
0.116526
0.153741
0.204812
0.230333
0.172426
0.12173
0.108577
0.108878
0.120058
0.134704
0.141854
0.137183
0.128683
0.122875
0.121189
0.12572
0.124016
0.125832
0.133683
0.144842
0.152482
0.145352
0.126372
0.112428
0.109098
0.118622
0.167301
0.217773
0.247767
0.196796
0.124431
0.10725
0.105416
0.110126
0.120735
0.124197
0.120671
0.113435
0.109066
0.108432
0.113711
0.111395
0.111867
0.117403
0.126419
0.132767
0.130715
0.118247
0.109349
0.109119
0.122155
0.191874
0.240662
0.273678
0.212459
0.126908
0.106159
0.101484
0.103479
0.108422
0.11102
0.105678
0.10053
0.0972427
0.0979291
0.103776
0.101186
0.100001
0.103702
0.110032
0.116543
0.116318
0.111174
0.107411
0.108187
0.124525
0.205107
0.274238
0.316028
0.221477
0.130385
0.104536
0.0992123
0.0980063
0.0994121
0.0977163
0.0941681
0.0896453
0.0880305
0.0894135
0.0956246
0.0922699
0.0907213
0.0926174
0.0977394
0.103119
0.105831
0.105324
0.105006
0.108319
0.132301
0.217215
0.29646
0.344286
0.229108
0.133566
0.103948
0.0954821
0.0932173
0.0910851
0.0884933
0.0843019
0.0810115
0.0798221
0.0824991
0.0889725
0.0855356
0.0825264
0.0838324
0.0879207
0.0930816
0.0975364
0.0999721
0.102077
0.109476
0.136877
0.223251
0.322459
0.353644
0.239899
0.141407
0.10519
0.0928592
0.0878919
0.0849331
0.0814496
0.0765479
0.0738954
0.0737546
0.0766668
0.0837886
0.079864
0.0766098
0.0765682
0.0795783
0.0852913
0.0891886
0.0945296
0.0990307
0.111108
0.145857
0.23482
0.334254
0.367079
0.243144
0.151282
0.108303
0.091467
0.0846238
0.0799848
0.0743462
0.0709175
0.068127
0.0687203
0.0726394
0.0797701
0.0754874
0.0714748
0.0708542
0.073875
0.0780918
0.0849608
0.0901617
0.0979467
0.115801
0.15735
0.244093
0.3415
0.373938
0.254054
0.16378
0.111035
0.0902637
0.0803573
0.0747688
0.069896
0.0654168
0.0642013
0.0647926
0.0692025
0.0769007
0.0723722
0.0677216
0.0669269
0.0685915
0.0737233
0.0787586
0.0862847
0.0966078
0.11744
0.168124
0.251547
0.348471
0.371059
0.267724
0.167944
0.120568
0.0926376
0.0793202
0.0712825
0.0652378
0.0622711
0.0605304
0.0625169
0.0673066
0.0752431
0.070361
0.0655761
0.0634017
0.0650105
0.0691052
0.0755021
0.0836508
0.0973424
0.12733
0.176363
0.262869
0.351143
0.3727
0.273558
0.169094
0.12909
0.0935439
0.0779905
0.0687034
0.0620358
0.0591973
0.0586847
0.0605797
0.0664464
0.0745338
0.0694134
0.0635035
0.0614717
0.0620269
0.0656546
0.0718413
0.0824021
0.0993322
0.13541
0.177369
0.268795
0.348149
0.367762
0.281931
0.169806
0.143712
0.0986476
0.0779543
0.0668141
0.0602479
0.0571888
0.0573086
0.0603595
0.06625
0.0750748
0.0692941
0.063484
0.0603163
0.0598431
0.0640725
0.0701788
0.0820576
0.103145
0.147343
0.175071
0.276576
0.355558
0.362745
0.288477
0.168209
0.144044
0.107088
0.0801245
0.0670113
0.0591897
0.0573333
0.0568406
0.0607219
0.0679588
0.0768749
0.0711628
0.063946
0.059797
0.0598927
0.0622492
0.0701115
0.0836281
0.110279
0.148247
0.170273
0.286622
0.361227
0.372664
0.296698
0.163667
0.142866
0.119239
0.0838808
0.0686015
0.060919
0.0569487
0.0585145
0.0624031
0.0698947
0.0795309
0.0729258
0.0656166
0.0613965
0.0594283
0.0641397
0.0719078
0.087134
0.122504
0.148048
0.16487
0.297128
0.359081
0.381461
0.313448
0.157878
0.139225
0.124319
0.0921833
0.0712377
0.0624945
0.0600655
0.060106
0.065833
0.0741407
0.0841358
0.0774268
0.0691679
0.0635111
0.0623585
0.0654971
0.0736809
0.0950733
0.129605
0.143884
0.158181
0.312488
0.370994
0.380424
0.333662
0.159915
0.13353
0.124518
0.104573
0.0773894
0.0667865
0.0633229
0.0645076
0.0694205
0.0789207
0.0898271
0.0824147
0.0731609
0.0680369
0.0661458
0.0689178
0.078651
0.10533
0.128945
0.138612
0.156461
0.333319
0.379304
0.388609
0.354102
0.163928
0.128962
0.122552
0.114546
0.0876445
0.0719711
0.0684101
0.0711076
0.0779132
0.087356
0.0975424
0.090748
0.0816041
0.0748995
0.0709366
0.0745329
0.0876802
0.119244
0.127882
0.133409
0.164127
0.355027
0.385609
0.391587
0.374209
0.17472
0.128181
0.121538
0.117145
0.102673
0.0818795
0.0762716
0.0780379
0.0864044
0.0976629
0.109292
0.101295
0.0903585
0.0817604
0.0795205
0.0835477
0.0997376
0.122512
0.127295
0.131064
0.171569
0.377393
0.395789
0.397426
0.39463
0.1898
0.13423
0.121307
0.1199
0.118312
0.0972972
0.0851759
0.0898919
0.0973893
0.110061
0.122889
0.113906
0.101645
0.0938647
0.0878578
0.0981077
0.120266
0.124957
0.125523
0.135244
0.182126
0.40476
0.4061
0.409878
0.416115
0.203706
0.143162
0.127693
0.12469
0.125672
0.121262
0.104436
0.101472
0.11292
0.125958
0.139064
0.129598
0.116873
0.105478
0.1056
0.121241
0.130777
0.129321
0.129661
0.142244
0.199149
0.423051
0.414699
0.425223
0.44655
0.225722
0.1584
0.138555
0.133222
0.13613
0.144329
0.12889
0.123202
0.128525
0.143257
0.158429
0.147226
0.13267
0.126665
0.131765
0.146913
0.140371
0.137786
0.138559
0.153806
0.218211
0.452977
0.429845
0.43667
0.480988
0.253383
0.178864
0.154929
0.14849
0.152217
0.163711
0.174163
0.161088
0.160982
0.169301
0.184544
0.173425
0.164846
0.165172
0.177095
0.168694
0.156427
0.151338
0.152434
0.1722
0.245484
0.496255
0.442643
0.442473
0.527425
0.289872
0.209125
0.182264
0.17204
0.174436
0.187614
0.208268
0.21927
0.207265
0.207865
0.225496
0.212374
0.212413
0.221537
0.213841
0.193031
0.178303
0.173275
0.178162
0.20287
0.287236
0.542885
0.448495
0.430837
0.569339
0.339726
0.250535
0.220277
0.209859
0.210212
0.224265
0.248845
0.278731
0.292322
0.27879
0.302017
0.283978
0.298417
0.287645
0.256121
0.228678
0.213111
0.208541
0.21465
0.244132
0.339607
0.589678
0.435052
0.404972
0.594847
0.397914
0.308119
0.275333
0.263382
0.261318
0.274268
0.297245
0.333695
0.383661
0.403948
0.468352
0.41301
0.39571
0.343891
0.304313
0.277261
0.262673
0.259921
0.267519
0.30185
0.399306
0.619549
0.40884
0.122704
0.276028
0.303336
0.305767
0.306166
0.305419
0.30466
0.303984
0.30356
0.303324
0.303191
0.30311
0.303051
0.303002
0.302956
0.302911
0.302866
0.302822
0.302777
0.302733
0.302688
0.302644
0.302598
0.302553
0.302508
0.302466
0.302382
0.301812
0.28939
0.137297
0.105187
0.271593
0.299898
0.302265
0.30281
0.302172
0.301488
0.300794
0.300337
0.300076
0.299927
0.299836
0.299773
0.299722
0.299675
0.29963
0.299586
0.299544
0.299502
0.299461
0.299421
0.299382
0.299342
0.299303
0.299266
0.299232
0.299137
0.298089
0.279606
0.127013
0.108856
0.273752
0.298237
0.300367
0.301062
0.300426
0.299763
0.299045
0.298583
0.298334
0.298207
0.298141
0.298105
0.29808
0.29806
0.298042
0.298024
0.298008
0.297992
0.297976
0.297961
0.297946
0.29793
0.297915
0.297902
0.29789
0.297817
0.296639
0.276891
0.124372
0.111945
0.273249
0.297461
0.299834
0.300652
0.299957
0.299288
0.298533
0.298061
0.297815
0.297699
0.297648
0.297628
0.297618
0.297612
0.297608
0.297604
0.2976
0.297596
0.297593
0.297589
0.297586
0.297581
0.297577
0.297574
0.297571
0.297511
0.296284
0.276166
0.123041
0.11188
0.271991
0.297164
0.299904
0.300683
0.299918
0.299235
0.298443
0.29796
0.297713
0.2976
0.297554
0.297537
0.297532
0.29753
0.297529
0.297528
0.297528
0.297527
0.297527
0.297526
0.297525
0.297523
0.297521
0.29752
0.29752
0.297463
0.296192
0.275753
0.12194
0.111631
0.271562
0.297122
0.300097
0.300771
0.299904
0.299223
0.298422
0.297941
0.297695
0.297584
0.29754
0.297524
0.29752
0.297519
0.297518
0.297518
0.297518
0.297518
0.297518
0.297518
0.297517
0.297516
0.297514
0.297514
0.297513
0.297457
0.29614
0.275353
0.120901
0.11167
0.271605
0.297175
0.300284
0.300798
0.299873
0.299206
0.298406
0.297932
0.297689
0.29758
0.297536
0.297522
0.297518
0.297517
0.297517
0.297517
0.297517
0.297517
0.297517
0.297517
0.297516
0.297515
0.297514
0.297513
0.297513
0.297455
0.296095
0.274959
0.11992
0.112067
0.271833
0.297346
0.30041
0.300791
0.299811
0.299173
0.298381
0.29792
0.297682
0.297574
0.297533
0.297521
0.297518
0.297517
0.297517
0.297517
0.297517
0.297517
0.297517
0.297517
0.297516
0.297516
0.297514
0.297514
0.297513
0.297453
0.296052
0.27459
0.119014
0.112485
0.272211
0.297447
0.300477
0.300763
0.299701
0.299114
0.298341
0.297899
0.297667
0.297567
0.297531
0.29752
0.297518
0.297517
0.297517
0.297517
0.297517
0.297517
0.297517
0.297517
0.297517
0.297516
0.297515
0.297514
0.297513
0.297451
0.296014
0.274251
0.118191
0.11276
0.272463
0.297496
0.300497
0.300693
0.299566
0.299027
0.298278
0.297865
0.297652
0.297562
0.29753
0.29752
0.297517
0.297517
0.297517
0.297517
0.297517
0.297517
0.297517
0.297517
0.297517
0.297516
0.297516
0.297515
0.297513
0.297449
0.29598
0.273941
0.117446
0.11287
0.272646
0.297542
0.300492
0.300545
0.2994
0.298916
0.298211
0.297835
0.297641
0.297558
0.297528
0.29752
0.297517
0.297517
0.297517
0.297517
0.297517
0.297517
0.297517
0.297517
0.297517
0.297517
0.297516
0.297516
0.297513
0.297446
0.295948
0.273652
0.11677
0.112827
0.272808
0.297573
0.300277
0.300357
0.299221
0.298803
0.298153
0.297811
0.297631
0.297555
0.297527
0.297519
0.297517
0.297517
0.297517
0.297517
0.297517
0.297517
0.297517
0.297517
0.297517
0.297517
0.297517
0.297516
0.297514
0.297443
0.295917
0.273384
0.116156
0.112819
0.272933
0.297597
0.299959
0.300137
0.29906
0.298696
0.298102
0.297788
0.297622
0.297551
0.297526
0.297519
0.297517
0.297517
0.297517
0.297517
0.297517
0.297517
0.297517
0.297517
0.297517
0.297517
0.297517
0.297517
0.297514
0.297442
0.295889
0.273138
0.115596
0.112762
0.273024
0.297618
0.299677
0.299896
0.298917
0.298592
0.298052
0.297765
0.297613
0.297548
0.297525
0.297519
0.297517
0.297517
0.297517
0.297517
0.297517
0.297517
0.297517
0.297517
0.297517
0.297517
0.297517
0.297517
0.297514
0.297442
0.295865
0.27291
0.115086
0.112745
0.272774
0.29743
0.299426
0.299654
0.298783
0.29849
0.298002
0.297742
0.297604
0.297545
0.297524
0.297518
0.297517
0.297517
0.297517
0.297517
0.297517
0.297517
0.297517
0.297517
0.297517
0.297517
0.297517
0.297517
0.297514
0.297441
0.295843
0.272707
0.114626
0.112707
0.272732
0.297287
0.299217
0.299415
0.298646
0.298387
0.297952
0.29772
0.297595
0.297542
0.297523
0.297518
0.297517
0.297517
0.297517
0.297517
0.297517
0.297517
0.297517
0.297517
0.297517
0.297517
0.297517
0.297517
0.297514
0.297439
0.295822
0.272522
0.114214
0.112832
0.273402
0.297795
0.299277
0.299223
0.298512
0.298284
0.297901
0.297697
0.297586
0.297539
0.297523
0.297518
0.297517
0.297517
0.297517
0.297517
0.297517
0.297517
0.297517
0.297517
0.297517
0.297517
0.297517
0.297517
0.297514
0.297438
0.295803
0.272356
0.113846
0.113206
0.275941
0.300251
0.300496
0.299457
0.29845
0.298188
0.29785
0.297673
0.297577
0.297536
0.297522
0.297518
0.297517
0.297517
0.297517
0.297517
0.297517
0.297517
0.297517
0.297517
0.297517
0.297517
0.297517
0.297517
0.297514
0.297437
0.295787
0.272213
0.113522
0.114436
0.286689
0.313452
0.30795
0.301462
0.298851
0.298177
0.297805
0.297649
0.297567
0.297533
0.297521
0.297518
0.297517
0.297517
0.297517
0.297517
0.297517
0.297517
0.297517
0.297517
0.297517
0.297517
0.297517
0.297517
0.297514
0.297436
0.295773
0.272087
0.113239
0.118963
0.316084
0.343681
0.334191
0.314935
0.301319
0.29859
0.297826
0.297631
0.297558
0.29753
0.29752
0.297517
0.297517
0.297517
0.297517
0.297517
0.297517
0.297517
0.297517
0.297517
0.297517
0.297517
0.297517
0.297517
0.297514
0.297436
0.295761
0.27198
0.112994
0.131167
0.294195
0.303708
0.33758
0.335793
0.316753
0.300844
0.298152
0.29766
0.297552
0.297526
0.297519
0.297517
0.297517
0.297517
0.297517
0.297517
0.297517
0.297517
0.297517
0.297517
0.297517
0.297517
0.297517
0.297517
0.297514
0.297435
0.295751
0.271891
0.112787
0.146111
0.190962
0.20337
0.269649
0.350498
0.330306
0.313308
0.299757
0.297865
0.29757
0.297525
0.297518
0.297517
0.297517
0.297517
0.297517
0.297517
0.297517
0.297517
0.297517
0.297517
0.297517
0.297517
0.297517
0.297517
0.297514
0.297435
0.295743
0.271817
0.112615
0.143832
0.121352
0.140122
0.208288
0.282266
0.350101
0.315961
0.306987
0.298732
0.297671
0.297533
0.297518
0.297517
0.297517
0.297517
0.297517
0.297517
0.297517
0.297517
0.297517
0.297517
0.297517
0.297517
0.297517
0.297517
0.297514
0.297434
0.295737
0.271761
0.112476
0.233344
0.124192
0.103402
0.140555
0.216908
0.298768
0.310419
0.309403
0.302073
0.298025
0.297571
0.297521
0.297517
0.297517
0.297517
0.297517
0.297517
0.297517
0.297517
0.297517
0.297517
0.297517
0.297517
0.297517
0.297517
0.297514
0.297434
0.295732
0.27172
0.112369
0.0866715
0.0774039
0.0613484
0.0941171
0.172546
0.242731
0.288884
0.25388
0.306486
0.299098
0.297683
0.29753
0.297517
0.297517
0.297517
0.297517
0.297517
0.297517
0.297517
0.297517
0.297517
0.297517
0.297517
0.297517
0.297517
0.297514
0.297434
0.295731
0.271693
0.11229
0.137296
0.28939
0.301812
0.302382
0.302466
0.302508
0.302553
0.302599
0.302644
0.302689
0.302733
0.302778
0.302822
0.302867
0.302912
0.302957
0.303003
0.303052
0.303111
0.303192
0.303325
0.303561
0.303985
0.304661
0.305419
0.306167
0.305768
0.303336
0.276017
0.122675
0.127012
0.279605
0.298089
0.299137
0.299232
0.299266
0.299303
0.299342
0.299382
0.299421
0.299461
0.299502
0.299544
0.299586
0.29963
0.299675
0.299722
0.299773
0.299837
0.299927
0.300076
0.300336
0.300794
0.301487
0.302171
0.30281
0.302264
0.299898
0.271595
0.105203
0.12437
0.27689
0.296639
0.297817
0.29789
0.297902
0.297915
0.29793
0.297946
0.297961
0.297976
0.297992
0.298008
0.298025
0.298042
0.29806
0.298081
0.298105
0.298141
0.298207
0.298334
0.298583
0.299045
0.299763
0.300425
0.301063
0.300367
0.298237
0.273756
0.108829
0.12304
0.276166
0.296284
0.297511
0.297571
0.297574
0.297577
0.297581
0.297586
0.297589
0.297593
0.297596
0.2976
0.297604
0.297608
0.297612
0.297618
0.297628
0.297648
0.297699
0.297815
0.298061
0.298532
0.299288
0.299957
0.300653
0.299834
0.297461
0.273263
0.111986
0.12194
0.275754
0.296192
0.297463
0.29752
0.29752
0.297521
0.297523
0.297525
0.297526
0.297527
0.297527
0.297528
0.297528
0.297529
0.29753
0.297532
0.297537
0.297554
0.2976
0.297713
0.29796
0.298443
0.299235
0.299918
0.300683
0.299903
0.297162
0.271975
0.111897
0.1209
0.275352
0.29614
0.297457
0.297513
0.297514
0.297514
0.297516
0.297517
0.297518
0.297518
0.297518
0.297518
0.297518
0.297518
0.297519
0.29752
0.297524
0.297539
0.297584
0.297695
0.297941
0.298422
0.299224
0.299904
0.300771
0.300096
0.297123
0.271566
0.111574
0.119921
0.27496
0.296095
0.297455
0.297513
0.297513
0.297514
0.297515
0.297516
0.297517
0.297517
0.297517
0.297517
0.297517
0.297517
0.297517
0.297518
0.297522
0.297536
0.29758
0.297689
0.297932
0.298406
0.299206
0.299873
0.300798
0.300283
0.297176
0.271616
0.111745
0.119015
0.27459
0.296052
0.297453
0.297513
0.297514
0.297514
0.297516
0.297516
0.297517
0.297517
0.297517
0.297517
0.297517
0.297517
0.297517
0.297518
0.297521
0.297533
0.297574
0.297682
0.29792
0.29838
0.299173
0.299811
0.300792
0.300409
0.297345
0.271818
0.112026
0.118191
0.274251
0.296014
0.297451
0.297513
0.297514
0.297515
0.297516
0.297517
0.297517
0.297517
0.297517
0.297517
0.297517
0.297517
0.297517
0.297518
0.29752
0.297531
0.297567
0.297668
0.2979
0.298341
0.299113
0.299701
0.300764
0.300476
0.297447
0.272222
0.11249
0.117447
0.273942
0.29598
0.297449
0.297513
0.297515
0.297516
0.297516
0.297517
0.297517
0.297517
0.297517
0.297517
0.297517
0.297517
0.297517
0.297517
0.29752
0.29753
0.297562
0.297652
0.297865
0.298278
0.299027
0.299567
0.300692
0.300496
0.297495
0.272454
0.112777
0.11677
0.273651
0.295948
0.297446
0.297513
0.297516
0.297516
0.297517
0.297517
0.297517
0.297517
0.297517
0.297517
0.297517
0.297517
0.297517
0.297517
0.29752
0.297528
0.297558
0.297641
0.297835
0.298211
0.298916
0.2994
0.300544
0.300492
0.297544
0.272652
0.112829
0.116155
0.273384
0.295917
0.297443
0.297514
0.297516
0.297517
0.297517
0.297517
0.297517
0.297517
0.297517
0.297517
0.297517
0.297517
0.297517
0.297517
0.297519
0.297527
0.297555
0.297631
0.297811
0.298153
0.298803
0.299221
0.300357
0.300278
0.297574
0.272814
0.11286
0.115596
0.273138
0.295889
0.297442
0.297514
0.297517
0.297517
0.297517
0.297517
0.297517
0.297517
0.297517
0.297517
0.297517
0.297517
0.297517
0.297517
0.297519
0.297526
0.297551
0.297622
0.297788
0.298102
0.298696
0.29906
0.300136
0.299959
0.297597
0.272924
0.112815
0.115086
0.27291
0.295865
0.297442
0.297514
0.297517
0.297517
0.297517
0.297517
0.297517
0.297517
0.297517
0.297517
0.297517
0.297517
0.297517
0.297517
0.297519
0.297525
0.297548
0.297613
0.297765
0.298052
0.298592
0.298917
0.299896
0.299677
0.297619
0.273024
0.112757
0.114626
0.272706
0.295843
0.297441
0.297514
0.297517
0.297517
0.297517
0.297517
0.297517
0.297517
0.297517
0.297517
0.297517
0.297517
0.297517
0.297517
0.297518
0.297524
0.297545
0.297604
0.297742
0.298002
0.29849
0.298783
0.299654
0.299426
0.297429
0.272779
0.112742
0.114215
0.272522
0.295822
0.297439
0.297514
0.297517
0.297517
0.297517
0.297517
0.297517
0.297517
0.297517
0.297517
0.297517
0.297517
0.297517
0.297517
0.297518
0.297523
0.297542
0.297595
0.29772
0.297952
0.298387
0.298646
0.299416
0.299217
0.297286
0.272727
0.112719
0.113846
0.272356
0.295803
0.297438
0.297514
0.297517
0.297517
0.297517
0.297517
0.297517
0.297517
0.297517
0.297517
0.297517
0.297517
0.297517
0.297517
0.297518
0.297523
0.297539
0.297586
0.297697
0.297901
0.298284
0.298512
0.299223
0.299278
0.297797
0.273401
0.112822
0.113521
0.272212
0.295787
0.297437
0.297514
0.297517
0.297517
0.297517
0.297517
0.297517
0.297517
0.297517
0.297517
0.297517
0.297517
0.297517
0.297517
0.297518
0.297522
0.297536
0.297577
0.297673
0.29785
0.298188
0.29845
0.299459
0.300501
0.300258
0.275955
0.113204
0.113239
0.272088
0.295773
0.297436
0.297514
0.297517
0.297517
0.297517
0.297517
0.297517
0.297517
0.297517
0.297517
0.297517
0.297517
0.297517
0.297517
0.297518
0.297521
0.297533
0.297567
0.297649
0.297805
0.298178
0.298854
0.30147
0.307976
0.313479
0.286691
0.114451
0.112994
0.271979
0.295761
0.297436
0.297514
0.297517
0.297517
0.297517
0.297517
0.297517
0.297517
0.297517
0.297517
0.297517
0.297517
0.297517
0.297517
0.297517
0.29752
0.29753
0.297558
0.297631
0.297827
0.298592
0.301331
0.31499
0.334272
0.343756
0.316103
0.118953
0.112787
0.27189
0.295751
0.297435
0.297514
0.297517
0.297517
0.297517
0.297517
0.297517
0.297517
0.297517
0.297517
0.297517
0.297517
0.297517
0.297517
0.297517
0.297519
0.297526
0.297552
0.29766
0.298154
0.300854
0.316816
0.335986
0.337776
0.303713
0.294273
0.131145
0.112616
0.271819
0.295743
0.297435
0.297514
0.297517
0.297517
0.297517
0.297517
0.297517
0.297517
0.297517
0.297517
0.297517
0.297517
0.297517
0.297517
0.297517
0.297518
0.297525
0.29757
0.297866
0.299765
0.313364
0.33054
0.350576
0.269586
0.203335
0.191096
0.146081
0.112477
0.271761
0.295737
0.297434
0.297514
0.297517
0.297517
0.297517
0.297517
0.297517
0.297517
0.297517
0.297517
0.297517
0.297517
0.297517
0.297517
0.297517
0.297518
0.297533
0.297672
0.298737
0.307023
0.316172
0.350373
0.282116
0.208174
0.140043
0.121382
0.143481
0.112369
0.27172
0.295732
0.297434
0.297514
0.297517
0.297517
0.297517
0.297517
0.297517
0.297517
0.297517
0.297517
0.297517
0.297517
0.297517
0.297517
0.297517
0.297521
0.297571
0.298027
0.302089
0.309513
0.310824
0.298608
0.216651
0.140495
0.103441
0.124155
0.232407
0.11229
0.271693
0.295731
0.297434
0.297514
0.297517
0.297517
0.297517
0.297517
0.297517
0.297517
0.297517
0.297517
0.297517
0.297517
0.297517
0.297517
0.297517
0.29753
0.297684
0.299105
0.306529
0.254302
0.288896
0.242369
0.172219
0.0939575
0.0612213
0.0774311
0.087286
0.0879785
0.0881712
0.0883647
0.0885584
0.0887521
0.0889458
0.0891396
0.0893334
0.0895273
0.0897212
0.0899151
0.0901091
0.0903032
0.0904973
0.0906914
0.0908856
0.0910798
0.0912741
0.0914684
0.0916627
0.0918571
0.0920515
0.092246
0.0924405
0.0926351
0.0928297
0.0930243
0.093219
0.0934138
0.0936085
0.0938033
0.0939982
0.0941931
0.094388
0.094583
0.094778
0.094973
0.0951681
0.0953633
0.0955584
0.0957536
0.0959489
0.0961442
0.0963395
0.0965349
0.0967303
0.0969257
0.0971212
0.0973167
0.0975123
0.0977079
0.0979035
0.0980992
0.0982949
0.0984907
0.0986865
0.0988823
0.0990782
0.0992741
0.09947
0.099666
0.099862
0.100058
0.100254
0.10045
0.100646
0.100843
0.101039
0.101235
0.101431
0.101628
0.101824
0.102021
0.102217
0.102413
0.10261
0.102807
0.103003
0.1032
0.103396
0.103593
0.10379
0.103987
0.104183
0.10438
0.104577
0.104774
0.104971
0.105168
0.105365
0.105562
0.105759
0.105956
0.106153
0.10635
0.106547
0.106745
0.106942
0.107139
0.107337
0.107534
0.107731
0.107929
0.108126
0.108324
0.108521
0.108719
0.108916
0.109114
0.109311
0.109509
0.109707
0.109905
0.110102
0.1103
0.110498
0.110696
0.110894
0.111092
0.11129
0.111488
0.111686
0.111884
0.112081
0.112275
0.254717
0.254937
0.255115
0.255288
0.255459
0.25563
0.2558
0.255969
0.256137
0.256305
0.256472
0.256639
0.256804
0.25697
0.257134
0.257297
0.25746
0.257623
0.257784
0.257945
0.258105
0.258265
0.258424
0.258582
0.25874
0.258897
0.259053
0.259209
0.259364
0.259518
0.259671
0.259824
0.259977
0.260129
0.26028
0.26043
0.26058
0.260729
0.260878
0.261026
0.261173
0.26132
0.261466
0.261611
0.261756
0.2619
0.262044
0.262187
0.26233
0.262471
0.262613
0.262753
0.262893
0.263033
0.263172
0.26331
0.263448
0.263585
0.263722
0.263858
0.263993
0.264128
0.264262
0.264396
0.264529
0.264662
0.264794
0.264926
0.265057
0.265187
0.265317
0.265446
0.265575
0.265703
0.265831
0.265958
0.266085
0.266211
0.266336
0.266461
0.266586
0.26671
0.266834
0.266957
0.267079
0.267201
0.267322
0.267443
0.267564
0.267684
0.267803
0.267922
0.268041
0.268158
0.268276
0.268393
0.268509
0.268625
0.268741
0.268856
0.26897
0.269084
0.269198
0.269311
0.269424
0.269536
0.269648
0.269759
0.26987
0.26998
0.27009
0.270199
0.270308
0.270417
0.270525
0.270632
0.27074
0.270846
0.270952
0.271058
0.271163
0.271268
0.271373
0.271481
0.271603
0.293002
0.293048
0.293084
0.293118
0.293152
0.293185
0.293219
0.293252
0.293284
0.293317
0.293349
0.29338
0.293412
0.293443
0.293474
0.293505
0.293536
0.293566
0.293596
0.293626
0.293655
0.293684
0.293713
0.293742
0.293771
0.293799
0.293827
0.293855
0.293882
0.29391
0.293937
0.293964
0.29399
0.294017
0.294043
0.294069
0.294095
0.294121
0.294146
0.294171
0.294196
0.294221
0.294246
0.29427
0.294294
0.294318
0.294342
0.294365
0.294389
0.294412
0.294435
0.294458
0.29448
0.294503
0.294525
0.294547
0.294569
0.294591
0.294612
0.294634
0.294655
0.294676
0.294697
0.294718
0.294738
0.294759
0.294779
0.294799
0.294819
0.294838
0.294858
0.294877
0.294897
0.294916
0.294935
0.294953
0.294972
0.294991
0.295009
0.295027
0.295045
0.295063
0.295081
0.295098
0.295116
0.295133
0.29515
0.295168
0.295184
0.295201
0.295218
0.295234
0.295251
0.295267
0.295283
0.295299
0.295315
0.295331
0.295347
0.295362
0.295378
0.295393
0.295408
0.295423
0.295438
0.295453
0.295467
0.295482
0.295496
0.295511
0.295525
0.295539
0.295553
0.295567
0.295581
0.295595
0.295608
0.295622
0.295635
0.295649
0.295662
0.295675
0.295688
0.295702
0.295718
0.297196
0.297202
0.297205
0.297209
0.297212
0.297216
0.297219
0.297223
0.297226
0.297229
0.297232
0.297236
0.297239
0.297242
0.297245
0.297248
0.297251
0.297254
0.297257
0.29726
0.297263
0.297265
0.297268
0.297271
0.297274
0.297276
0.297279
0.297282
0.297284
0.297287
0.297289
0.297292
0.297294
0.297297
0.297299
0.297302
0.297304
0.297306
0.297308
0.297311
0.297313
0.297315
0.297317
0.29732
0.297322
0.297324
0.297326
0.297328
0.29733
0.297332
0.297334
0.297336
0.297338
0.29734
0.297342
0.297344
0.297345
0.297347
0.297349
0.297351
0.297353
0.297354
0.297356
0.297358
0.29736
0.297361
0.297363
0.297365
0.297366
0.297368
0.297369
0.297371
0.297372
0.297374
0.297375
0.297377