/*--------------------------------*- C++ -*----------------------------------*\
| =========                 |                                                 |
| \\      /  F ield         | OpenFOAM: The Open Source CFD Toolbox           |
|  \\    /   O peration     | Version:  2112                                  |
|   \\  /    A nd           | Website:  www.openfoam.com                      |
|    \\/     M anipulation  |                                                 |
\*---------------------------------------------------------------------------*/
FoamFile
{
    version     2.0;
    format      ascii;
    arch        "LSB;label=32;scalar=64";
    class       volScalarField;
    location    "0.01042";
    object      epsilon;
}
// * * * * * * * * * * * * * * * * * * * * * * * * * * * * * * * * * * * * * //

dimensions      [0 2 -3 0 0 0 0];

internalField   nonuniform List<scalar> 
13875
(
1.16001e+06
2.94629e+07
3.28245e+07
3.28358e+07
3.29049e+07
3.28434e+07
3.29225e+07
3.29716e+07
3.28887e+07
3.28699e+07
3.29158e+07
3.29159e+07
3.28726e+07
3.28445e+07
3.28611e+07
3.29101e+07
3.29481e+07
3.29134e+07
3.28933e+07
3.28607e+07
3.28997e+07
3.28306e+07
3.28057e+07
2.9496e+07
1.17759e+06
1.31389e+06
2.27475e+07
2.53562e+07
2.52368e+07
2.52789e+07
2.52157e+07
2.52383e+07
2.52587e+07
2.52098e+07
2.52222e+07
2.5241e+07
2.5252e+07
2.52115e+07
2.51938e+07
2.52006e+07
2.525e+07
2.5246e+07
2.52362e+07
2.52253e+07
2.5229e+07
2.52699e+07
2.52197e+07
2.5329e+07
2.27595e+07
1.34183e+06
1.57303e+06
1.97065e+07
2.18308e+07
2.16266e+07
2.16958e+07
2.16325e+07
2.15611e+07
2.15505e+07
2.15063e+07
2.15204e+07
2.1529e+07
2.15493e+07
2.16091e+07
2.16023e+07
2.15971e+07
2.1547e+07
2.15316e+07
2.15299e+07
2.15486e+07
2.16408e+07
2.16834e+07
2.16018e+07
2.17906e+07
1.96877e+07
1.58448e+06
1.81372e+06
1.73851e+07
1.90391e+07
1.88804e+07
1.89645e+07
1.8909e+07
1.88225e+07
1.88133e+07
1.87711e+07
1.87655e+07
1.87804e+07
1.87901e+07
1.88862e+07
1.88804e+07
1.88764e+07
1.87874e+07
1.87938e+07
1.87799e+07
1.88065e+07
1.8915e+07
1.89521e+07
1.8858e+07
1.90149e+07
1.73603e+07
1.82064e+06
2.02277e+06
1.54524e+07
1.67731e+07
1.66223e+07
1.67015e+07
1.66518e+07
1.65634e+07
1.65599e+07
1.65264e+07
1.65173e+07
1.65356e+07
1.65351e+07
1.66282e+07
1.66274e+07
1.66195e+07
1.65335e+07
1.65473e+07
1.65307e+07
1.65525e+07
1.66546e+07
1.66902e+07
1.66052e+07
1.67444e+07
1.54261e+07
2.03679e+06
2.20643e+06
1.37121e+07
1.4929e+07
1.47404e+07
1.48293e+07
1.47709e+07
1.46753e+07
1.4675e+07
1.46452e+07
1.46349e+07
1.46569e+07
1.46479e+07
1.47392e+07
1.47425e+07
1.47317e+07
1.46465e+07
1.46675e+07
1.46477e+07
1.46667e+07
1.47747e+07
1.48193e+07
1.47293e+07
1.49036e+07
1.38474e+07
2.22352e+06
2.42251e+06
1.2251e+07
1.34787e+07
1.32092e+07
1.32686e+07
1.31987e+07
1.30911e+07
1.30891e+07
1.306e+07
1.30476e+07
1.30717e+07
1.30563e+07
1.31464e+07
1.31517e+07
1.31377e+07
1.3055e+07
1.30835e+07
1.30616e+07
1.30853e+07
1.32005e+07
1.32569e+07
1.32015e+07
1.34214e+07
1.19525e+07
2.43005e+06
2.66592e+06
1.06154e+07
1.23134e+07
1.19772e+07
1.19984e+07
1.18859e+07
1.17602e+07
1.17463e+07
1.17154e+07
1.17023e+07
1.17295e+07
1.17069e+07
1.17962e+07
1.18043e+07
1.17877e+07
1.17049e+07
1.17428e+07
1.17209e+07
1.17513e+07
1.18842e+07
1.19812e+07
1.19656e+07
1.22641e+07
1.05454e+07
2.69506e+06
3.49632e+06
1.02126e+07
1.14834e+07
1.10308e+07
1.09394e+07
1.07872e+07
1.0642e+07
1.06137e+07
1.05769e+07
1.05617e+07
1.05939e+07
1.0566e+07
1.06535e+07
1.06645e+07
1.06468e+07
1.05657e+07
1.06085e+07
1.05867e+07
1.06248e+07
1.07801e+07
1.09225e+07
1.10213e+07
1.14743e+07
1.03385e+07
3.574e+06
6.83555e+06
1.22201e+07
1.11976e+07
1.04286e+07
1.01671e+07
9.93286e+06
9.77143e+06
9.72762e+06
9.68728e+06
9.67398e+06
9.70353e+06
9.67503e+06
9.75647e+06
9.7696e+06
9.75263e+06
9.68287e+06
9.71929e+06
9.70834e+06
9.74516e+06
9.91504e+06
1.01432e+07
1.036e+07
1.11613e+07
1.21304e+07
6.89302e+06
1.49169e+07
1.8693e+07
1.20493e+07
1.03231e+07
9.61688e+06
9.32388e+06
9.14363e+06
9.06338e+06
9.01754e+06
9.00656e+06
9.02892e+06
9.00187e+06
9.07364e+06
9.08903e+06
9.07782e+06
9.02802e+06
9.05556e+06
9.06148e+06
9.12386e+06
9.28496e+06
9.60866e+06
1.02675e+07
1.18776e+07
1.79391e+07
1.49994e+07
2.54773e+07
6.88945e+07
1.81694e+07
1.07082e+07
9.70737e+06
9.01747e+06
8.7182e+06
8.59844e+06
8.53791e+06
8.52499e+06
8.53533e+06
8.51218e+06
8.56854e+06
8.58617e+06
8.5838e+06
8.55549e+06
8.57987e+06
8.61018e+06
8.70245e+06
9.01721e+06
9.65452e+06
1.05538e+07
1.75784e+07
6.7251e+07
2.5034e+07
2.65993e+07
7.61832e+07
8.69829e+07
2.39358e+07
1.09251e+07
9.11443e+06
8.73229e+06
8.44653e+06
8.33092e+06
8.29115e+06
8.27933e+06
8.25414e+06
8.29226e+06
8.31171e+06
8.32269e+06
8.32483e+06
8.37912e+06
8.49095e+06
8.76186e+06
9.15292e+06
1.12982e+07
2.26234e+07
8.08173e+07
7.64735e+07
2.60837e+07
2.63738e+07
5.5329e+07
8.00324e+07
1.04576e+08
5.7242e+07
1.30538e+07
9.62987e+06
8.81646e+06
8.57658e+06
8.56108e+06
8.54968e+06
8.52584e+06
8.55562e+06
8.57449e+06
8.59405e+06
8.61403e+06
8.65253e+06
8.8855e+06
9.94906e+06
1.45039e+07
6.57894e+07
9.10383e+07
7.5268e+07
5.44728e+07
2.57584e+07
2.53591e+07
4.26786e+07
5.82818e+07
7.26051e+07
7.4835e+07
7.44089e+07
2.35141e+07
1.31083e+07
1.11083e+07
1.04003e+07
1.01112e+07
9.9975e+06
9.99385e+06
1.00243e+07
1.01085e+07
1.03447e+07
1.10353e+07
1.31878e+07
2.62416e+07
7.75393e+07
7.50739e+07
6.60386e+07
5.65619e+07
4.22171e+07
2.64188e+07
2.47361e+07
3.36139e+07
4.34624e+07
5.43187e+07
5.90542e+07
6.76884e+07
5.11352e+07
4.52989e+07
4.15785e+07
3.2654e+07
3.45722e+07
3.56733e+07
3.64575e+07
3.61815e+07
3.50399e+07
3.30766e+07
4.03034e+07
4.89876e+07
5.2011e+07
6.86411e+07
5.82196e+07
5.05095e+07
4.25955e+07
3.34028e+07
2.57986e+07
2.00685e+07
2.52902e+07
3.23142e+07
4.19229e+07
4.93446e+07
6.18794e+07
7.05214e+07
7.04953e+07
5.76762e+07
4.96807e+07
5.22294e+07
5.49605e+07
5.6568e+07
5.59488e+07
5.31356e+07
5.33588e+07
5.8001e+07
7.06017e+07
7.0653e+07
6.12883e+07
4.71626e+07
3.90541e+07
3.08932e+07
2.4509e+07
1.99405e+07
1.48357e+07
1.91327e+07
2.64437e+07
3.731e+07
4.54319e+07
5.30656e+07
6.33911e+07
6.87107e+07
5.16101e+07
3.83521e+07
3.53042e+07
3.559e+07
3.62595e+07
3.59331e+07
3.58826e+07
4.15742e+07
5.18377e+07
6.47123e+07
6.26152e+07
5.40306e+07
4.52398e+07
3.60351e+07
2.53644e+07
1.85588e+07
1.45198e+07
1.22316e+07
1.67078e+07
2.39076e+07
3.71633e+07
4.79645e+07
4.63729e+07
4.90664e+07
5.4769e+07
4.56311e+07
3.42546e+07
2.88172e+07
2.72265e+07
2.70637e+07
2.75294e+07
2.95575e+07
3.55873e+07
4.39837e+07
5.12108e+07
4.8752e+07
4.79241e+07
5.04345e+07
3.69219e+07
2.35683e+07
1.64447e+07
1.20616e+07
1.16328e+07
1.82134e+07
2.48509e+07
3.68564e+07
4.3639e+07
3.93595e+07
3.86082e+07
4.22786e+07
3.89574e+07
3.14312e+07
2.5604e+07
2.24071e+07
2.14127e+07
2.29231e+07
2.66805e+07
3.21766e+07
3.70202e+07
3.96763e+07
3.85542e+07
4.07314e+07
4.50666e+07
3.6204e+07
2.47622e+07
1.83339e+07
1.1715e+07
2.99089e+07
5.94755e+07
4.49566e+07
3.21971e+07
3.47199e+07
3.17033e+07
3.08925e+07
3.38219e+07
3.29912e+07
2.78134e+07
2.22404e+07
1.84554e+07
1.72392e+07
1.92401e+07
2.3564e+07
2.83779e+07
3.12233e+07
3.19301e+07
3.09946e+07
3.27977e+07
3.56851e+07
3.3046e+07
5.01093e+07
6.54936e+07
3.86685e+07
9.29309e+07
2.96504e+08
6.13197e+07
2.61208e+07
2.74669e+07
2.57568e+07
2.52922e+07
2.7733e+07
2.77981e+07
2.4018e+07
1.90379e+07
1.52548e+07
1.40122e+07
1.60501e+07
2.02486e+07
2.4361e+07
2.62097e+07
2.63422e+07
2.53606e+07
2.65395e+07
2.80758e+07
2.70028e+07
6.78476e+07
2.95568e+08
1.08108e+08
1.10387e+08
2.31417e+08
5.08543e+07
2.17559e+07
2.22473e+07
2.12792e+07
2.09539e+07
2.30361e+07
2.335e+07
2.04141e+07
1.60781e+07
1.26533e+07
1.1479e+07
1.32763e+07
1.7033e+07
2.05971e+07
2.19285e+07
2.19379e+07
2.09799e+07
2.17261e+07
2.25885e+07
2.24207e+07
5.17972e+07
2.25254e+08
1.0785e+08
9.44482e+07
2.34167e+08
3.98323e+07
1.8626e+07
1.82965e+07
1.7664e+07
1.74813e+07
1.91824e+07
1.95755e+07
1.71772e+07
1.34257e+07
1.04761e+07
9.50635e+06
1.10652e+07
1.43282e+07
1.73978e+07
1.83969e+07
1.82961e+07
1.75522e+07
1.80342e+07
1.86273e+07
1.92708e+07
4.13456e+07
2.42628e+08
9.41128e+07
8.65055e+07
2.24223e+08
3.32356e+07
1.62523e+07
1.54323e+07
1.48593e+07
1.47922e+07
1.61179e+07
1.64744e+07
1.44803e+07
1.12897e+07
8.77911e+06
7.96669e+06
9.28794e+06
1.20991e+07
1.47197e+07
1.55134e+07
1.5373e+07
1.48287e+07
1.51676e+07
1.57832e+07
1.68593e+07
3.51308e+07
2.40515e+08
8.74911e+07
7.99728e+07
2.16434e+08
2.85806e+07
1.42152e+07
1.32459e+07
1.26356e+07
1.26695e+07
1.36609e+07
1.39234e+07
1.22632e+07
9.57729e+06
7.43673e+06
6.7479e+06
7.85619e+06
1.02412e+07
1.2457e+07
1.31252e+07
1.2995e+07
1.26057e+07
1.28286e+07
1.35568e+07
1.46719e+07
3.01417e+07
2.31791e+08
8.20087e+07
7.6e+07
1.9237e+08
2.42033e+07
1.24681e+07
1.15413e+07
1.08733e+07
1.09421e+07
1.16503e+07
1.17761e+07
1.03537e+07
8.12944e+06
6.35202e+06
5.77826e+06
6.73055e+06
8.75953e+06
1.06192e+07
1.12147e+07
1.11175e+07
1.0846e+07
1.1029e+07
1.18677e+07
1.29279e+07
2.60558e+07
2.08432e+08
7.86851e+07
7.20959e+07
1.74712e+08
2.12957e+07
1.10839e+07
1.01959e+07
9.49953e+06
9.55217e+06
1.00433e+07
1.00621e+07
8.84468e+06
6.98726e+06
5.48624e+06
4.99599e+06
5.80331e+06
7.51478e+06
9.08169e+06
9.62831e+06
9.58147e+06
9.4154e+06
9.60683e+06
1.04576e+07
1.14573e+07
2.30308e+07
1.92265e+08
7.38173e+07
6.67756e+07
1.64041e+08
1.92114e+07
9.93111e+06
9.08897e+06
8.43511e+06
8.41372e+06
8.72476e+06
8.65635e+06
7.59943e+06
6.05566e+06
4.78583e+06
4.35702e+06
5.04096e+06
6.47189e+06
7.77919e+06
8.30608e+06
8.31889e+06
8.24055e+06
8.45903e+06
9.26582e+06
1.02261e+07
2.02915e+07
1.6775e+08
6.961e+07
6.18957e+07
1.45619e+08
1.74602e+07
8.98307e+06
8.11501e+06
7.54179e+06
7.47711e+06
7.61746e+06
7.45693e+06
6.53461e+06
5.25262e+06
4.19321e+06
3.83193e+06
4.43015e+06
5.65763e+06
6.76094e+06
7.24262e+06
7.29887e+06
7.30385e+06
7.53903e+06
8.25589e+06
9.24104e+06
1.85026e+07
1.50939e+08
6.55819e+07
5.75259e+07
1.25853e+08
1.60429e+07
8.23679e+06
7.29333e+06
6.78782e+06
6.70041e+06
6.71719e+06
6.49795e+06
5.68458e+06
4.61466e+06
3.71334e+06
3.39521e+06
3.91092e+06
4.94854e+06
5.87431e+06
6.33953e+06
6.44862e+06
6.5263e+06
6.75572e+06
7.36916e+06
8.4291e+06
1.67683e+07
1.30546e+08
6.06619e+07
5.36132e+07
1.13256e+08
1.4969e+07
7.67259e+06
6.59468e+06
6.13245e+06
6.03774e+06
5.97431e+06
5.71536e+06
4.99801e+06
4.08921e+06
3.311e+06
3.03166e+06
3.4742e+06
4.36594e+06
5.15935e+06
5.59419e+06
5.74267e+06
5.86514e+06
6.07729e+06
6.62554e+06
7.79961e+06
1.5393e+07
1.14557e+08
5.6366e+07
4.98711e+07
9.71898e+07
1.38844e+07
7.2248e+06
6.01015e+06
5.5745e+06
5.44796e+06
5.33315e+06
5.03602e+06
4.39683e+06
3.63121e+06
2.96832e+06
2.72474e+06
3.11745e+06
3.88985e+06
4.5677e+06
4.97772e+06
5.15663e+06
5.29208e+06
5.50637e+06
6.02058e+06
7.30532e+06
1.43902e+07
1.01902e+08
5.25545e+07
4.68288e+07
8.46334e+07
1.28898e+07
6.88378e+06
5.54303e+06
5.0968e+06
4.92823e+06
4.79545e+06
4.48426e+06
3.91598e+06
3.25904e+06
2.67957e+06
2.46453e+06
2.80402e+06
3.47739e+06
4.06547e+06
4.44693e+06
4.64897e+06
4.78682e+06
5.01147e+06
5.52398e+06
6.9069e+06
1.34115e+07
8.70271e+07
4.90863e+07
4.40692e+07
7.52629e+07
1.18954e+07
6.58157e+06
5.2132e+06
4.68233e+06
4.48432e+06
4.32866e+06
4.01872e+06
3.50657e+06
2.94186e+06
2.43489e+06
2.24205e+06
2.54e+06
3.12523e+06
3.63739e+06
3.99718e+06
4.20697e+06
4.35446e+06
4.60431e+06
5.1609e+06
6.59611e+06
1.23079e+07
7.58035e+07
4.61587e+07
4.12752e+07
6.65436e+07
1.09596e+07
6.31685e+06
4.96714e+06
4.32906e+06
4.09273e+06
3.91373e+06
3.61334e+06
3.15538e+06
2.66331e+06
2.21835e+06
2.05026e+06
2.31467e+06
2.83769e+06
3.28807e+06
3.61618e+06
3.82069e+06
3.98472e+06
4.25099e+06
4.90677e+06
6.33858e+06
1.13779e+07
6.83418e+07
4.34602e+07
3.91022e+07
6.0097e+07
1.01781e+07
6.18232e+06
4.78897e+06
4.04023e+06
3.7632e+06
3.55896e+06
3.26832e+06
2.85901e+06
2.42904e+06
2.03544e+06
1.88376e+06
2.11766e+06
2.57714e+06
2.9742e+06
3.2782e+06
3.48182e+06
3.65825e+06
3.95407e+06
4.71159e+06
6.16305e+06
1.04684e+07
6.19834e+07
4.07007e+07
3.6954e+07
5.59189e+07
9.47163e+06
6.04049e+06
4.66192e+06
3.8276e+06
3.47274e+06
3.25106e+06
2.97204e+06
2.60772e+06
2.22854e+06
1.87389e+06
1.73852e+06
1.94487e+06
2.35725e+06
2.70891e+06
2.98324e+06
3.18886e+06
3.3743e+06
3.73609e+06
4.59125e+06
6.0374e+06
9.66392e+06
5.76382e+07
3.84563e+07
3.46146e+07
5.10301e+07
8.69444e+06
5.76122e+06
4.60624e+06
3.6709e+06
3.22841e+06
2.98321e+06
2.70912e+06
2.38024e+06
2.04554e+06
1.73153e+06
1.6115e+06
1.79797e+06
2.16742e+06
2.4798e+06
2.7331e+06
2.93791e+06
3.13695e+06
3.57366e+06
4.54031e+06
5.81888e+06
8.94387e+06
5.40039e+07
3.64585e+07
3.27231e+07
4.75563e+07
8.00407e+06
5.45228e+06
4.61185e+06
3.56283e+06
3.03723e+06
2.75765e+06
2.48731e+06
2.18962e+06
1.89155e+06
1.60684e+06
1.4988e+06
1.66365e+06
1.99842e+06
2.27706e+06
2.50962e+06
2.72229e+06
2.95317e+06
3.46379e+06
4.51398e+06
5.4776e+06
8.23571e+06
4.95986e+07
3.42817e+07
3.12074e+07
4.46424e+07
7.59075e+06
5.15553e+06
4.68493e+06
3.50253e+06
2.89428e+06
2.57404e+06
2.29795e+06
2.02202e+06
1.75385e+06
1.49656e+06
1.39893e+06
1.54611e+06
1.84677e+06
2.09952e+06
2.32068e+06
2.54395e+06
2.81948e+06
3.39644e+06
4.64017e+06
5.17222e+06
7.62158e+06
4.61808e+07
3.24695e+07
2.97772e+07
4.18412e+07
7.05157e+06
4.80183e+06
4.58984e+06
3.48914e+06
2.78027e+06
2.43347e+06
2.13663e+06
1.87405e+06
1.63028e+06
1.3962e+06
1.30936e+06
1.44267e+06
1.71956e+06
1.94919e+06
2.16279e+06
2.40575e+06
2.71011e+06
3.39995e+06
4.63267e+06
4.89184e+06
7.66763e+06
4.32504e+07
3.09937e+07
2.86001e+07
3.94309e+07
6.66598e+06
4.45942e+06
4.35927e+06
3.57378e+06
2.7062e+06
2.32515e+06
2.00836e+06
1.74812e+06
1.52226e+06
1.308e+06
1.22914e+06
1.34899e+06
1.60086e+06
1.81434e+06
2.02938e+06
2.29947e+06
2.63408e+06
3.45431e+06
4.41324e+06
4.54438e+06
7.22373e+06
4.09191e+07
2.95878e+07
2.76304e+07
3.71024e+07
6.82506e+06
4.16571e+06
4.08107e+06
3.72549e+06
2.69011e+06
2.23444e+06
1.91111e+06
1.6444e+06
1.42895e+06
1.22867e+06
1.15685e+06
1.26523e+06
1.49738e+06
1.70006e+06
1.92508e+06
2.21541e+06
2.61958e+06
3.65553e+06
4.15272e+06
4.24178e+06
7.21782e+06
3.84884e+07
2.84424e+07
2.66696e+07
3.51362e+07
6.42621e+06
3.87414e+06
3.78093e+06
3.7112e+06
2.76947e+06
2.17136e+06
1.82918e+06
1.56087e+06
1.3469e+06
1.15831e+06
1.09264e+06
1.1926e+06
1.41232e+06
1.61037e+06
1.844e+06
2.15783e+06
2.71642e+06
3.7022e+06
3.87555e+06
4.03504e+06
7.50899e+06
3.61088e+07
2.74932e+07
2.58138e+07
3.31059e+07
6.53419e+06
3.6677e+06
3.49809e+06
3.49677e+06
2.99727e+06
2.16648e+06
1.76775e+06
1.49853e+06
1.28341e+06
1.10032e+06
1.03696e+06
1.13061e+06
1.34161e+06
1.541e+06
1.77699e+06
2.14434e+06
2.91654e+06
3.51252e+06
3.59202e+06
3.80933e+06
7.2811e+06
3.3928e+07
2.66703e+07
2.49993e+07
3.12785e+07
6.71218e+06
3.53191e+06
3.25315e+06
3.26998e+06
3.06336e+06
2.30234e+06
1.72649e+06
1.44285e+06
1.23468e+06
1.05454e+06
987701
1.0812e+06
1.28709e+06
1.4839e+06
1.72845e+06
2.25295e+06
3.04146e+06
3.29338e+06
3.33261e+06
3.62834e+06
7.04642e+06
3.21318e+07
2.58701e+07
2.38442e+07
2.94195e+07
6.56326e+06
3.38899e+06
3.04302e+06
3.03672e+06
2.90178e+06
2.52732e+06
1.75032e+06
1.39671e+06
1.1923e+06
1.01854e+06
950191
1.04351e+06
1.24275e+06
1.43751e+06
1.74581e+06
2.49193e+06
2.93317e+06
3.06573e+06
3.11366e+06
3.51271e+06
7.04679e+06
3.02842e+07
2.47006e+07
2.24471e+07
2.73566e+07
6.45311e+06
3.29512e+06
2.86531e+06
2.81356e+06
2.7314e+06
2.63403e+06
1.89474e+06
1.37537e+06
1.15839e+06
987829
922388
1.01121e+06
1.20481e+06
1.40912e+06
1.86955e+06
2.65578e+06
2.76596e+06
2.83799e+06
2.92145e+06
3.38136e+06
6.77548e+06
2.83143e+07
2.32246e+07
1.94831e+07
2.43357e+07
6.30444e+06
3.21309e+06
2.71532e+06
2.6227e+06
2.55632e+06
2.51554e+06
2.14626e+06
1.43683e+06
1.13785e+06
961630
897224
983205
1.1774e+06
1.44975e+06
2.12986e+06
2.58052e+06
2.5936e+06
2.63987e+06
2.75439e+06
3.26311e+06
6.45086e+06
2.52571e+07
2.01593e+07
8.96562e+06
4.93428e+06
3.424e+06
2.40877e+06
1.72026e+06
1.31892e+06
1.09415e+06
946713
838200
739449
641249
543548
448485
360848
284158
220816
170998
133087
104561
83981.9
69747.6
59559.8
52683.6
47781.8
44072.2
41327.4
39704.5
40057.9
46799.3
94956.7
9.94686e+06
5.18177e+06
3.58583e+06
2.53446e+06
1.82204e+06
1.40487e+06
1.17108e+06
1.01886e+06
910792
812091
713007
613941
514978
419986
333503
259483
199656
153112
117817
92379.9
74578.7
62251
54012.8
48362.1
44306
41524
40051.8
40708.3
48083.7
96954
1.02207e+07
5.28896e+06
3.75414e+06
2.66698e+06
1.92855e+06
1.49722e+06
1.25404e+06
1.09885e+06
991246
892151
792814
692287
589626
487682
391569
306175
235053
178558
134909
103359
81152
66029.2
55957.2
49240
44674.6
41788.4
40442.7
41433.6
49518.8
99403.4
1.06258e+07
5.60034e+06
4.02136e+06
2.876e+06
2.08789e+06
1.62515e+06
1.36287e+06
1.20162e+06
1.09014e+06
988673
888719
786630
680226
571168
464858
366745
282023
213041
158574
118777
90762.4
71708.9
59033.8
50792.9
45448
42300
40992.9
42306.4
51058.5
101965
1.11654e+07
5.97926e+06
4.35123e+06
3.13914e+06
2.28971e+06
1.78323e+06
1.49468e+06
1.32322e+06
1.20529e+06
1.10057e+06
999095
895261
785256
669459
553113
441687
341900
257781
189463
140029
104277
79841.2
63551.7
53120.3
46602.3
42979.3
41618.7
43238.7
52589
104838
1.17334e+07
6.39559e+06
4.71758e+06
3.43418e+06
2.52383e+06
1.96652e+06
1.64888e+06
1.4633e+06
1.33584e+06
1.22573e+06
1.12244e+06
1.01608e+06
902415
780115
654171
529729
414317
312895
230489
168886
122996
91278.8
70083.7
56574.8
48339
43972.9
42375.6
44211.5
54093.7
107802
1.23244e+07
6.82938e+06
5.1037e+06
3.7613e+06
2.78956e+06
2.17793e+06
1.82654e+06
1.62372e+06
1.48356e+06
1.36437e+06
1.25706e+06
1.14589e+06
1.02774e+06
899080
764427
628228
498332
380999
283783
206927
148424
107185
79367.6
61512.8
50843.5
45360.4
43250.2
45155.6
55589.4
110901
1.28729e+07
7.27417e+06
5.51734e+06
4.12768e+06
3.09095e+06
2.42127e+06
2.03344e+06
1.80714e+06
1.65057e+06
1.51692e+06
1.40165e+06
1.28298e+06
1.15922e+06
1.02456e+06
883132
738158
596522
465228
351146
256458
182701
129048
92286.4
68454.7
54364.6
46943.3
44249.4
46161.7
57158.1
114732
1.34208e+07
7.73162e+06
5.97408e+06
4.5341e+06
3.43238e+06
2.702e+06
2.27369e+06
2.0188e+06
1.83967e+06
1.68659e+06
1.55959e+06
1.43112e+06
1.30093e+06
1.16069e+06
1.01381e+06
861750
710391
565425
433293
319042
226669
157944
109720
78032.5
59128.4
49095.2
45394.3
47195.2
58686.4
117894
1.40091e+07
8.22395e+06
6.47888e+06
4.98255e+06
3.81763e+06
3.02528e+06
2.55208e+06
2.26353e+06
2.0558e+06
1.878e+06
1.73509e+06
1.59426e+06
1.45555e+06
1.30931e+06
1.15698e+06
998805
838604
680302
530211
395746
283165
195871
132952
91136.2
65592.8
52087.6
46817.6
48155.8
60018.8
121066
1.46896e+07
8.74863e+06
7.01193e+06
5.47011e+06
4.2488e+06
3.39595e+06
2.87432e+06
2.54668e+06
2.3057e+06
2.0974e+06
1.9317e+06
1.7745e+06
1.62427e+06
1.47115e+06
1.31287e+06
1.1492e+06
980040
809407
642550
487844
353383
244370
163650
108686
74492
56148.6
48520.9
49110.6
61351.7
124233
1.53465e+07
9.28419e+06
7.55892e+06
5.99354e+06
4.72564e+06
3.81754e+06
3.24528e+06
2.87506e+06
2.59674e+06
2.34979e+06
2.15164e+06
1.97312e+06
1.80886e+06
1.64723e+06
1.48199e+06
1.31189e+06
1.13368e+06
951485
770164
596145
438549
306013
203921
132362
86856.9
61689.1
50739.1
50120.1
62682.6
127688
1.59521e+07
9.81405e+06
8.10845e+06
6.5457e+06
5.24766e+06
4.29099e+06
3.67344e+06
3.25685e+06
2.93491e+06
2.63804e+06
2.3989e+06
2.19591e+06
2.01567e+06
1.84175e+06
1.66588e+06
1.48605e+06
1.2984e+06
1.10618e+06
911745
719952
540185
382336
255846
163920
103720
69316.9
53784.7
51391.5
64039.2
131408
1.64381e+07
1.03255e+07
8.66996e+06
7.12052e+06
5.81435e+06
4.82065e+06
4.16235e+06
3.7028e+06
3.32589e+06
2.96605e+06
2.68196e+06
2.45247e+06
2.25112e+06
2.05833e+06
1.86652e+06
1.67372e+06
1.47484e+06
1.2718e+06
1.0647e+06
857163
657811
475015
321649
205259
126315
79751.9
58059.9
53124.7
65179.7
134542
1.69287e+07
1.08219e+07
9.23578e+06
7.71538e+06
6.42093e+06
5.41016e+06
4.72086e+06
4.2198e+06
3.77536e+06
3.34678e+06
3.01517e+06
2.75172e+06
2.52033e+06
2.30124e+06
2.08854e+06
1.87795e+06
1.66429e+06
1.44792e+06
1.22727e+06
1.0048e+06
786915
581357
400988
257496
156019
94071.1
63842.5
55258.4
66420.9
137509
1.74094e+07
1.12748e+07
9.79093e+06
8.33201e+06
7.0669e+06
6.06356e+06
5.35762e+06
4.81636e+06
4.29427e+06
3.79368e+06
3.41072e+06
3.10287e+06
2.83198e+06
2.57838e+06
2.33807e+06
2.1037e+06
1.8703e+06
1.63709e+06
1.40069e+06
1.1624e+06
925353
698738
492646
321194
194118
112992
71505.4
57941.5
67812.7
140488
1.78708e+07
1.16422e+07
1.03027e+07
8.94707e+06
7.74831e+06
6.77832e+06
6.07651e+06
5.49726e+06
4.89374e+06
4.32225e+06
3.8801e+06
3.51828e+06
3.19717e+06
2.8976e+06
2.62179e+06
2.35613e+06
2.09687e+06
1.84195e+06
1.58646e+06
1.33006e+06
1.07458e+06
826932
596325
396736
241480
137425
81495.2
61247.1
69240.1
143918
1.81406e+07
1.19888e+07
1.07478e+07
9.54439e+06
8.4535e+06
7.5518e+06
6.88293e+06
6.27344e+06
5.59259e+06
4.94779e+06
4.43727e+06
4.01113e+06
3.62684e+06
3.27038e+06
2.94825e+06
2.64277e+06
2.35011e+06
2.0672e+06
1.78764e+06
1.50969e+06
1.2341e+06
965564
711470
484390
299352
168756
94731.2
65538.9
70693.7
146786
1.84149e+07
1.22295e+07
1.11109e+07
1.00837e+07
9.16075e+06
8.38412e+06
7.78052e+06
7.1588e+06
6.40973e+06
5.68972e+06
5.1004e+06
4.59609e+06
4.1356e+06
3.70949e+06
3.32799e+06
2.97251e+06
2.6375e+06
2.31882e+06
2.00872e+06
1.70425e+06
1.40505e+06
1.1142e+06
836635
582280
368391
208409
112393
71327.2
72393.8
149405
1.84907e+07
1.24504e+07
1.13685e+07
1.0529e+07
9.85523e+06
9.27051e+06
8.77635e+06
8.1697e+06
7.36629e+06
6.56809e+06
5.88806e+06
5.29002e+06
4.73751e+06
4.22855e+06
3.77438e+06
3.35599e+06
2.9681e+06
2.6045e+06
2.25594e+06
1.91819e+06
1.58997e+06
1.27272e+06
969274
688753
447305
257063
135503
79155.8
74465.8
152115
1.86176e+07
1.25199e+07
1.15046e+07
1.08702e+07
1.05083e+07
1.02101e+07
9.8844e+06
9.32732e+06
8.48755e+06
7.60752e+06
6.82334e+06
6.1146e+06
5.45215e+06
4.84451e+06
4.30159e+06
3.80543e+06
3.35149e+06
2.93178e+06
2.53509e+06
2.15553e+06
1.79105e+06
1.44177e+06
1.10947e+06
804573
535463
315186
165110
89673.3
77087.4
154743
1.86185e+07
1.26414e+07
1.15425e+07
1.11086e+07
1.11437e+07
1.12217e+07
1.11257e+07
1.06567e+07
9.80126e+06
8.83683e+06
7.93429e+06
7.09427e+06
6.30035e+06
5.57467e+06
4.92506e+06
4.33318e+06
3.79693e+06
3.30718e+06
2.85075e+06
2.4198e+06
2.01215e+06
1.62688e+06
1.2653e+06
933921
635036
384092
202694
104149
80932.8
157685
1.88246e+07
1.27086e+07
1.15492e+07
1.13412e+07
1.1825e+07
1.23453e+07
1.2534e+07
1.21898e+07
1.13441e+07
1.02922e+07
9.25413e+06
8.2577e+06
7.30668e+06
6.43676e+06
5.66014e+06
4.95247e+06
4.314e+06
3.7372e+06
3.2078e+06
2.71603e+06
2.25966e+06
1.83579e+06
1.44298e+06
1.08067e+06
750302
466154
250375
123729
86623.1
161122
1.84158e+07
1.34354e+07
1.20929e+07
1.19449e+07
1.28019e+07
1.36931e+07
1.41767e+07
1.39804e+07
1.31573e+07
1.20162e+07
1.08245e+07
9.64282e+06
8.50039e+06
7.45708e+06
6.52616e+06
5.67829e+06
4.91526e+06
4.23104e+06
3.61445e+06
3.05213e+06
2.54e+06
2.07169e+06
1.64103e+06
1.24367e+06
881246
562216
309021
149323
94527.4
165373
1.71241e+07
1.90367e+07
1.5736e+07
1.40538e+07
1.4597e+07
1.55023e+07
1.61792e+07
1.6114e+07
1.5305e+07
1.40625e+07
1.26892e+07
1.12898e+07
9.91853e+06
8.6613e+06
7.5404e+06
6.52421e+06
5.61017e+06
4.79746e+06
4.07857e+06
3.4347e+06
2.85652e+06
2.33381e+06
1.85642e+06
1.41762e+06
1.01912e+06
666031
376022
180977
104267
170631
94467.1
46181.9
39750.6
39554.4
41230.8
43984.8
47751.3
52674.7
59705.7
69694
83662.6
103938
131564
169348
217749
278463
352174
437709
531092
627410
724979
825281
936445
1.0888e+06
1.32359e+06
1.73771e+06
2.44242e+06
3.47392e+06
4.99163e+06
9.01776e+06
96120.9
47313.1
40330.4
39850.5
41367.9
44132.7
48184
53821
61998.2
74122.2
91633.8
116670
151119
197339
256015
327649
411401
504168
601319
698907
796994
896907
1.00744e+06
1.16406e+06
1.40769e+06
1.83635e+06
2.56429e+06
3.63133e+06
5.2389e+06
1.00111e+07
97894.1
48585.3
40990.2
40219.7
41599.7
44388.2
48796.1
55450.1
65222.3
80079.2
101706
133048
176239
232379
302705
386149
480143
580015
680868
779642
877418
977332
1.08716e+06
1.24595e+06
1.49829e+06
1.94037e+06
2.69346e+06
3.79776e+06
5.33965e+06
1.02853e+07
99986.8
49928
41757.2
40721.6
42062.5
45085.2
50094
58060.8
70180.7
88716.5
115924
155478
210201
278918
363163
460115
565258
672558
777272
877255
974797
1.07638e+06
1.19019e+06
1.35318e+06
1.62394e+06
2.09856e+06
2.89815e+06
4.06089e+06
5.64787e+06
1.07037e+07
102631
51314
42536.9
41252.7
42659.3
46180
52170.2
61952.5
77444.2
101007
135615
183996
251638
336323
436319
547686
663915
778564
887342
989121
1.08747e+06
1.1915e+06
1.31134e+06
1.48323e+06
1.77957e+06
2.29791e+06
3.16064e+06
4.38659e+06
6.02322e+06
1.1265e+07
105547
52823.4
43444.1
41940.8
43463
47680.4
55179.5
67744
88041.5
118488
162571
222581
302775
403785
519028
644065
770821
892782
1.00618e+06
1.111e+06
1.21159e+06
1.32111e+06
1.44939e+06
1.63506e+06
1.95976e+06
2.52918e+06
3.45478e+06
4.74763e+06
6.43466e+06
1.18656e+07
109063
54535.5
44563.6
42897
44606.6
49758.8
59340.4
75753.4
102233
142220
198174
273220
368506
484062
613096
749187
884535
1.01318e+06
1.13208e+06
1.24223e+06
1.34776e+06
1.4665e+06
1.6076e+06
1.81244e+06
2.16539e+06
2.79422e+06
3.78077e+06
5.13373e+06
6.86533e+06
1.24804e+07
112956
56566.3
46006.7
44237.4
46252.5
52760.9
65242.7
86829
121181
173039
244082
336779
449910
579727
720704
865561
1.00761e+06
1.14213e+06
1.2669e+06
1.38464e+06
1.49837e+06
1.63118e+06
1.78883e+06
2.01704e+06
2.40542e+06
3.09515e+06
4.14811e+06
5.54975e+06
7.31132e+06
1.30637e+07
116852
58224.3
47082.3
45370.9
48407.6
56908.8
73373
101881
146634
212914
302032
414168
545672
689911
841823
994688
1.14277e+06
1.283e+06
1.41402e+06
1.54154e+06
1.66674e+06
1.81844e+06
1.99743e+06
2.25324e+06
2.68235e+06
3.43477e+06
4.55675e+06
6.0037e+06
7.76788e+06
1.36246e+07
120238
59693
48089.9
46723.2
51168.2
62624.8
84680.2
122295
180424
263827
373330
505487
654630
812731
974271
1.1344e+06
1.28882e+06
1.43587e+06
1.57517e+06
1.7156e+06
1.85672e+06
2.03319e+06
2.23947e+06
2.52721e+06
2.99922e+06
3.81653e+06
5.00578e+06
6.50736e+06
8.25951e+06
1.42089e+07
123171
61060.6
49087.6
48292.6
54721.2
70542.8
100066
149563
224151
327515
458297
610311
775795
946569
1.11708e+06
1.28354e+06
1.44442e+06
1.59969e+06
1.7511e+06
1.90841e+06
2.07251e+06
2.28018e+06
2.5195e+06
2.84391e+06
3.36112e+06
4.24238e+06
5.49241e+06
7.04231e+06
8.78693e+06
1.48996e+07
126356
62547.9
50168.1
50203.1
59363.6
80783.4
120579
185168
279457
405054
557003
727652
907958
1.09032e+06
1.26998e+06
1.44266e+06
1.61125e+06
1.77622e+06
1.94289e+06
2.1219e+06
2.31859e+06
2.56601e+06
2.84403e+06
3.20867e+06
3.77164e+06
4.71204e+06
6.01283e+06
7.59204e+06
9.32409e+06
1.55862e+07
129914
63969.6
51424.7
52700
65366.3
94316.6
147391
230685
347892
496795
669904
857694
1.05159e+06
1.24404e+06
1.43322e+06
1.61498e+06
1.79456e+06
1.97263e+06
2.15658e+06
2.36128e+06
2.59993e+06
2.89786e+06
3.2219e+06
3.62896e+06
4.23698e+06
5.22744e+06
6.56339e+06
8.14425e+06
9.85832e+06
1.62164e+07
133454
65346.3
52890.1
56102.4
73660
112663
182382
288014
430554
603640
796578
999538
1.20543e+06
1.40836e+06
1.6087e+06
1.80358e+06
1.99922e+06
2.19683e+06
2.40276e+06
2.63532e+06
2.91958e+06
3.28041e+06
3.66106e+06
4.11074e+06
4.76139e+06
5.78623e+06
7.13475e+06
8.69957e+06
1.03825e+07
1.67304e+07
137291
66497.1
54598.2
60658.6
85049.2
137247
227294
358692
527916
724317
934827
1.15234e+06
1.37022e+06
1.58552e+06
1.80023e+06
2.0133e+06
2.22953e+06
2.45435e+06
2.69101e+06
2.95845e+06
3.29111e+06
3.71907e+06
4.17208e+06
4.66435e+06
5.34736e+06
6.38563e+06
7.72248e+06
9.26227e+06
1.0888e+07
1.72555e+07
140522
67420.4
56604.8
66654.6
100282
169241
283204
442362
637673
855427
1.08305e+06
1.31568e+06
1.54799e+06
1.77943e+06
2.01324e+06
2.25058e+06
2.49377e+06
2.75347e+06
3.03017e+06
3.34239e+06
3.72668e+06
4.22741e+06
4.76574e+06
5.29855e+06
5.99785e+06
7.02468e+06
8.33286e+06
9.81973e+06
1.1356e+07
1.77342e+07
143257
68310.4
59028.2
74487.5
120242
209743
350240
537171
756819
995049
1.24194e+06
1.49153e+06
1.74212e+06
1.99476e+06
2.2537e+06
2.52263e+06
2.80063e+06
3.10598e+06
3.4335e+06
3.80051e+06
4.24337e+06
4.81475e+06
5.44471e+06
6.01935e+06
6.71135e+06
7.70167e+06
8.94739e+06
1.03445e+07
1.17512e+07
1.82578e+07
145968
69435.7
62241.5
84928.7
146107
259720
428523
642534
885614
1.14523e+06
1.41314e+06
1.68394e+06
1.95784e+06
2.23789e+06
2.52945e+06
2.83819e+06
3.16134e+06
3.52305e+06
3.91423e+06
4.34583e+06
4.85621e+06
5.49973e+06
6.21784e+06
6.82892e+06
7.48686e+06
8.40652e+06
9.55165e+06
1.08043e+07
1.21162e+07
1.85441e+07
148487
70795.9
66695.8
99051.5
179443
320367
518207
758539
1.02574e+06
1.30852e+06
1.60038e+06
1.89755e+06
2.20108e+06
2.51602e+06
2.84921e+06
3.20735e+06
3.58937e+06
4.01807e+06
4.48613e+06
4.99646e+06
5.58482e+06
6.304e+06
7.09987e+06
7.73182e+06
8.32476e+06
9.1185e+06
1.01021e+07
1.11839e+07
1.2371e+07
1.88307e+07
150951
72389.8
72749.7
117829
221636
392590
619422
886103
1.179e+06
1.48798e+06
1.80856e+06
2.13837e+06
2.47911e+06
2.83768e+06
3.22292e+06
3.6424e+06
4.09699e+06
4.60589e+06
5.16539e+06
5.7698e+06
6.44968e+06
7.25268e+06
8.10553e+06
8.73463e+06
9.21995e+06
9.82836e+06
1.05646e+07
1.14568e+07
1.26195e+07
1.89358e+07
153445
74320.9
80872.5
142256
273436
476148
731916
1.02495e+06
1.34665e+06
1.68665e+06
2.04209e+06
2.4121e+06
2.79897e+06
3.21177e+06
3.66161e+06
4.15727e+06
4.69993e+06
5.30547e+06
5.97416e+06
6.68974e+06
7.47464e+06
8.36429e+06
9.26193e+06
9.85013e+06
1.01681e+07
1.04985e+07
1.09279e+07
1.1618e+07
1.27105e+07
1.9086e+07
156097
77287.7
92274.3
174313
336442
571257
857840
1.17926e+06
1.53186e+06
1.90734e+06
2.30418e+06
2.72301e+06
3.16675e+06
3.64704e+06
4.17717e+06
4.7666e+06
5.41445e+06
6.13604e+06
6.9359e+06
7.78464e+06
8.69063e+06
9.67173e+06
1.05959e+07
1.11003e+07
1.11932e+07
1.11575e+07
1.11919e+07
1.16821e+07
1.28563e+07
1.90974e+07
159012
81794.5
108158
216193
412993
682350
1.00156e+06
1.3552e+06
1.74044e+06
2.15464e+06
2.59862e+06
3.07529e+06
3.5885e+06
4.15248e+06
4.78213e+06
5.4859e+06
6.25964e+06
7.12182e+06
8.07935e+06
9.08776e+06
1.01337e+07
1.12106e+07
1.21412e+07
1.25206e+07
1.23387e+07
1.18717e+07
1.14541e+07
1.17128e+07
1.2942e+07
1.93293e+07
162650
88054.8
129329
268497
503679
809527
1.16324e+06
1.55277e+06
1.97567e+06
2.43356e+06