/*--------------------------------*- C++ -*----------------------------------*\
| =========                 |                                                 |
| \\      /  F ield         | OpenFOAM: The Open Source CFD Toolbox           |
|  \\    /   O peration     | Version:  2112                                  |
|   \\  /    A nd           | Website:  www.openfoam.com                      |
|    \\/     M anipulation  |                                                 |
\*---------------------------------------------------------------------------*/
FoamFile
{
    version     2.0;
    format      ascii;
    arch        "LSB;label=32;scalar=64";
    class       volScalarField;
    location    "0.01042";
    object      T;
}
// * * * * * * * * * * * * * * * * * * * * * * * * * * * * * * * * * * * * * //

dimensions      [0 0 0 1 0 0 0];

internalField   nonuniform List<scalar> 
13875
(
1412
1535.57
1482.44
1487.63
1482.05
1483.86
1484.29
1482.97
1484.66
1484.92
1484.12
1484.09
1483.51
1483.91
1483.84
1483.87
1483.44
1484.72
1484.87
1483.11
1481.88
1487.68
1480.53
1532.49
1397.2
1307.02
1356.16
1318.9
1322.16
1316.61
1318.11
1321.98
1322.61
1324.18
1324.29
1323.33
1323.08
1318.03
1317.66
1318.36
1322.77
1322.96
1323.46
1322.31
1317.82
1316.7
1321.91
1319.6
1356.13
1304.3
1307.24
1340.06
1314.29
1311.74
1305.21
1305.42
1305.19
1303.89
1305.69
1307.05
1305.5
1305.91
1303.79
1304.03
1303.9
1305.78
1303.9
1305.92
1306.04
1305.09
1304.86
1311.06
1311.36
1336.46
1298.04
1317.37
1344.81
1314.66
1308.71
1305.99
1305.84
1304.12
1303.26
1304.25
1304.26
1303.06
1303.72
1303.88
1304.08
1304.04
1303.44
1302.42
1303.47
1304.19
1305.49
1305.36
1307.69
1313.96
1343.81
1311.51
1329.52
1342.1
1315.69
1312.38
1304.84
1305.28
1304.78
1303.4
1304.37
1304.39
1303.11
1303.48
1303.79
1304.23
1303.82
1303.28
1302.5
1303.97
1305.2
1304.88
1304.75
1311.76
1312
1338.27
1315.61
1332.2
1351.13
1318.8
1309.84
1307.9
1306.67
1304.31
1303.57
1304.26
1304.24
1303.19
1303.8
1304.08
1304.51
1304.3
1303.54
1302.63
1303.52
1304.25
1306.56
1307.27
1308.43
1319.03
1348.97
1326.03
1338.98
1360.46
1329
1317.37
1307.89
1307.14
1305.71
1304.25
1304.87
1304.76
1303.62
1303.88
1304.32
1304.83
1304.23
1303.57
1303.16
1304.56
1306.18
1306.51
1307.79
1317.61
1325.7
1358.12
1321.55
1359.72
1384.69
1344.01
1321.04
1316.35
1310.1
1306.63
1304.88
1305.12
1304.86
1304.25
1304.54
1305.04
1305.51
1305.21
1304.18
1303.75
1304.93
1306.15
1309.98
1315.3
1320.38
1341.51
1380.93
1350.61
1537.24
1508.46
1387.14
1350.46
1322.03
1315.94
1310.7
1307.63
1307.14
1306.11
1305.59
1305.69
1306.33
1306.84
1306.34
1305.66
1305.62
1307.24
1310.52
1314.2
1321.3
1349.22
1382.71
1505.69
1521.87
1835
1574.46
1427.12
1358.37
1338.2
1320.24
1314.01
1310.33
1309.43
1309.07
1308.29
1308.38
1309.01
1309.53
1309.18
1308.61
1308.85
1310.94
1314.1
1320.57
1337.04
1357.14
1424.85
1566.59
1826.85
2507.46
1804.99
1517.68
1407.61
1350.35
1331.54
1324.82
1318.02
1315.87
1314.86
1313.62
1313.7
1314.29
1314.88
1314.73
1314.65
1315.2
1317.72
1326.11
1330.02
1348.66
1419.37
1502.12
1797.84
2429.11
2812.91
2302.28
1736.74
1464.04
1426.95
1359.83
1338.49
1332.17
1329.02
1326.86
1325.38
1325.36
1325.75
1326.32
1326.4
1326.99
1328.25
1331.77
1339.71
1371.42
1405.42
1457.25
1731.42
2306.21
2837.36
2787.1
2656.91
2354.66
2199.77
1521.36
1412.8
1395.65
1373.55
1363.99
1357.2
1354.38
1353.57
1353.54
1354.09
1354.89
1357.69
1363.68
1374.9
1399.56
1421.71
1567.42
2234.37
2245.91
2687.24
2766.64
2723.55
2662.77
2744.61
2784.22
2044.8
1815.43
1520.42
1477.98
1459.01
1446.74
1443.24
1441.77
1441.7
1442.26
1443.53
1448.02
1459.13
1479.06
1541.64
1922.42
2101.15
2804.38
2792.51
2703.08
2701.7
2583.4
2640.67
2686.37
2686.57
2583.81
2353.93
2030.99
1963.93
1864.98
1765.03
1731.55
1720.29
1716.88
1718.33
1725.07
1749.43
1841.69
1962.65
1984.28
2421.54
2637.29
2736.06
2678.18
2652.39
2625.99
2501.04
2537.76
2626.94
2682.9
2655.19
2685.1
2878.92
2942.63
2931.68
3033.41
3116.46
3138.81
3149.15
3143.03
3125.26
3058.82
2906.07
2941.31
2900.78
2717.14
2660.97
2706.5
2624.36
2558.01
2533.33
2314.58
2399.24
2476.43
2531.66
2603.19
2728.71
3035.28
3411.71
3593.2
3684.01
3698.56
3691.58
3688.99
3692.45
3701.35
3702.71
3600.16
3419.27
3053.23
2738.74
2616.01
2565.2
2469.32
2404.39
2328.99
2024.33
2147.65
2300.47
2612.39
2794.11
2831.55
2960.5
3310.45
3531.58
3643.32
3673.79
3673.24
3672.7
3675.17
3676.26
3648.29
3503.34
3291.08
2965.3
2843.3
2808.98
2561.86
2269.52
2139.86
2023.87
1812.61
1878.42
2010.98
2237.39
2710.51
2842.34
2880.63
3106.27
3357.22
3500.3
3544.91
3556.97
3561.25
3560.64
3550.46
3510.85
3360.29
3120.68
2919.99
2922.59
2676.23
2203.21
2007.22
1884.17
1814.32
2457.79
2344.24
2105.91
2195.75
2505.07
2690.63
2701.6
2839.57
3079.07
3278.1
3387.9
3432.49
3441.29
3435.09
3391.8
3277.55
3067.11
2851.33
2729.49
2713.76
2483.25
2221.94
2140.2
2344.59
2451.08
3246.3
3420.34
2748.44
2302.4
2374.74
2533.94
2552.85
2658.31
2881.58
3109.06
3250.73
3305.05
3316.04
3304.41
3245.2
3090.44
2854.57
2656.25
2558.7
2540.81
2359.08
2326.14
2810.69
3480.72
3259.72
3626.88
3570
2816.49
2212.56
2212.83
2370.76
2420.43
2523.07
2732.97
2961.27
3117.71
3181.16
3190
3176.07
3101.7
2930.15
2699.72
2520.06
2417.07
2368.89
2189.91
2248.37
2898.85
3621.34
3675.89
3495.1
3112.74
2487.95
2060.49
2060.03
2238.18
2312.2
2415.6
2604.73
2830.52
2987.84
3052.21
3065.61
3046.66
2973.01
2804.3
2581.1
2415.06
2298.5
2234.74
2036.58
2055.83
2475.95
3127.32
3530.45
3511.41
2958.06
2249.98
1905.38
1974.37
2141.06
2209.88
2316.71
2501.03
2713.74
2867.68
2934.39
2944.94
2928.44
2852.1
2687.49
2475.64
2317.53
2201.24
2129.79
1942.74
1893
2254.51
2980.9
3544.29
3448.51
2787.88
2098.42
1822.83
1929.59
2069.19
2120.57
2230.58
2406.5
2613.87
2756.64
2816.47
2830.57
2809.2
2738.3
2584.18
2380.75
2226.85
2117.82
2063.83
1897.56
1809.42
2112.04
2833.19
3480.71
3417.25
2743.39
2040.16
1827.81
1905.55
2002.55
2042.76
2149.09
2322.15
2512.18
2650.65
2711.42
2720.83
2705.62
2635.98
2488.26
2297.02
2148.25
2044.1
2000.04
1877.69
1817.48
2038.69
2761.65
3455
3345.04
2600.19
1964.79
1829.91
1882.66
1956.49
1976.65
2085.29
2248.63
2430.91
2552.63
2604.57
2619
2598.9
2537.94
2406.96
2225.57
2079.55
1977.87
1961.47
1860.38
1824.25
1971.84
2618.45
3372.7
3312.44
2562.4
1972.02
1864.6
1874.05
1908.38
1916.65
2025.02
2186.45
2349.21
2462.14
2513.63
2521.69
2508.28
2447.86
2322.82
2155.9
2018.26
1918.15
1912.73
1854.47
1851.25
1975.61
2609.68
3363.31
3310.38
2539.98
1941.55
1854.23
1843.3
1876.97
1868.52
1977.04
2122.19
2277.35
2374.61
2418.5
2432.79
2414.7
2365.5
2261.67
2105.3
1970.96
1871.8
1883.74
1832.23
1853.61
1936.22
2516.4
3285.7
3271.62
2542.15
1976.42
1890.29
1843.28
1850.27
1827.08
1931.25
2074.55
2208.86
2298.37
2341.54
2347.61
2337.14
2286.44
2188.56
2047.91
1926.1
1827.37
1868.07
1829.96
1874.34
1959.98
2523.02
3264.24
3181.37
2453.16
1944.68
1886.4
1804.02
1826.55
1794.72
1905.1
2027.02
2152.79
2225.14
2258.21
2270.55
2254.32
2215.52
2135.55
2005.78
1890.39
1794.01
1836.22
1805
1875.36
1937.92
2455.49
3201.03
3162.53
2454.98
1994.22
1912.46
1809.56
1802.67
1770.45
1867.39
1984.17
2090.6
2158.26
2193.33
2197.01
2191.25
2150.29
2076.7
1963.42
1865.78
1768.66
1820.87
1806.25
1892
1970.31
2423.26
3156.45
3093.05
2401.36
1995.71
1896.55
1783.09
1773.25
1744.95
1850.52
1945.97
2045.71
2097.93
2121.05
2131.7
2118.37
2090.46
2033.88
1928.2
1837.64
1743
1783.82
1790.9
1887.8
1969.61
2398.21
3122.14
3053.31
2375.08
2025.81
1914.38
1803.37
1757.74
1732.45
1826.05
1911.5
1993.29
2040.43
2068.34
2069.27
2066.87
2033.6
1980.58
1890.84
1819.75
1724.3
1772.64
1797.17
1900.6
2023.7
2376.57
3061
3016.61
2342.09
2015.27
1904.87
1784.11
1727.66
1702.76
1811.86
1876.45
1953.46
1989.14
2005.27
2014.63
2003.62
1984.98
1948.14
1862.94
1803.19
1697.84
1738.41
1796.51
1900.19
2005.46
2328.38
3000.47
2990.4
2330.07
2022.14
1927.59
1804.09
1733.76
1699.52
1788.77
1848.65
1908.23
1940.02
1962.82
1961.85
1961.96
1933.6
1897.9
1831.83
1790.81
1685.25
1733.64
1808.07
1922.65
2024.48
2330.17
2978.25
2945.48
2289.38
2008.39
1937.79
1790.56
1714.39
1670.48
1777.11
1819.48
1877.57
1898.36
1908.31
1916.06
1906.11
1894.33
1873.19
1802.8
1770.2
1662.4
1719.79
1794.15
1935.95
1994.86
2293.68
2982.53
2936.91
2301.09
2014.95
1975.1
1813.57
1730.49
1674.38
1759.93
1792.12
1835.1
1854.87
1874.05
1871.44
1874.16
1849.93
1827.19
1779.59
1763.98
1660.91
1723.86
1815.39
1971.32
2010.35
2306.26
2962.44
2903.63
2280.4
1993.06
1994.15
1819.35
1717.7
1656.55
1747.77
1763.25
1810.34
1821.66
1826.68
1833.03
1825.84
1818.67
1808.12
1746.42
1742.13
1650.85
1715.97
1810.05
1994.57
1979.01
2290.44
2940.16
2856.54
2269.67
1976.36
1989.53
1841.61
1743.94
1672.25
1738.44
1743.65
1772.07
1783.4
1799.86
1795.88
1800.32
1778.96
1764.75
1727.94
1736.27
1657.19
1734.54
1844.19
1991.46
1967.65
2273.52
2889.7
2830.82
2259.55
1947
1983.03
1883.96
1734.39
1665.5
1728.54
1716.36
1752.59
1756.33
1758.63
1763.27
1758.13
1755.03
1753.78
1697.38
1721.12
1668.01
1724.6
1869.63
1984.9
1933.11
2231.33
2837.54
2795
2251.73
1937.3
1978.74
1931.08
1772.42
1702.76
1730.35
1704.12
1718.17
1722.83
1737.42
1731.93
1737.63
1718.59
1715.88
1687.76
1724.99
1690.9
1764.73
1941.49
1980.05
1930.39
2238.59
2787.41
2766.11
2229.59
1915.75
1956.37
1923.79
1782.07
1699.68
1728.7
1683.43
1707.68
1702.52
1701.24
1704.08
1700.53
1700.69
1709.56
1659.74
1713.95
1700.14
1773.92
1935.2
1965.74
1912.96
2223.74
2762.51
2732.65
2228.21
1914.27
1930.06
1917.87
1842.21
1747.78
1750.33
1688.36
1679.57
1673.41
1684.75
1677.66
1684.82
1667.72
1681.85
1671.41
1734.79
1727.94
1826.41
1929.89
1945.63
1918.79
2233.93
2720.18
2711.4
2215.62
1903.13
1904.05
1906.43
1902.28
1757.25
1742.18
1674.88
1679.69
1660.43
1652.92
1654.19
1653.09
1658.52
1682.45
1652.79
1728.67
1755.38
1900.62
1918.73
1920.69
1919.71
2232.35
2704.37
2671.09
2195.07
1898.26
1877.8
1876.86
1885.65
1818.5
1771.55
1703.17
1667.26
1640.09
1643.49
1633.6
1643.27
1629.61
1665.85
1681.24
1755.53
1808.5
1897.06
1900.5
1901.98
1923.89
2214.58
2682.1
2653.14
2193.22
1894.82
1866.93
1852.66
1879.61
1907.61
1795.53
1689.51
1679.53
1643.72
1620.77
1617.66
1620.53
1642.57
1682.63
1664.18
1774.22
1884.25
1878.15
1871.45
1880.95
1902.66
2190.45
2664.67
2603.78
2174.17
1890.81
1852.41
1824.06
1857.82
1888.92
1847.54
1727
1672.04
1632.93
1629.19
1603.71
1627.21
1619.05
1672.35
1712.02
1827.02
1898.62
1870.21
1848.33
1865.01
1892.75
2178.69
2621.85
2562.43
2156.93
1874.9
1840.99
1805.51
1826.37
1876.92
1942.28
1736.68
1698.74
1648.55
1614.76
1604.36
1613.33
1646.33
1698.75
1712.22
1917.57
1878.81
1830.4
1822.44
1848.06
1873.67
2161.66
2583.94
2392.74
2103.65
1857.67
1836.91
1792.39
1797.38
1858.13
1920.7
1820.32
1708.32
1641.03
1631.91
1606.91
1629.96
1623.47
1706.32
1797.9
1927.65
1863.94
1805.4
1801.48
1835.92
1854.29
2107.8
2411.6
1092.25
1029.95
959.367
875.336
791.977
715.596
654.139
603.263
564.651
536.858
516.438
502.956
492.881
485.73
478.98
472.359
465.049
458.125
451.486
444.675
438.983
432.718
427.765
423.346
419.065
414.597
410.072
405.059
399.617
395.068
1092.73
1029.85
959.181
878.963
801.207
729.791
671.49
619.304
579.132
548.599
524.762
508.627
496.772
488.648
481.369
474.687
467.697
460.846
453.82
447.291
441.265
435.245
430.224
425.927
421.917
417.79
413.677
408.997
404.271
400.822
1092.79
1032.89
965.155
887.897
812.546
742.617
683.059
630.9
591.093
558.5
532.338
513.824
499.955
490.217
482.315
475.395
468.526
461.644
454.364
448.066
441.962
436.23
431.201
426.918
423.019
419.078
415.128
410.648
406.293
403.355
1102.13
1041.83
977.239
903.419
831.771
763.844
704.351
652.558
610.909
575.287
546.098
524.311
507.388
495.183
485.674
477.9
470.992
463.907
456.441
449.888
443.857
438.538
433.444
429.254
425.557
421.853
418.195
414.22
410.372
407.81
1110.1
1053.21
992.448
922.74
854.714
788.089
728.173
676.642
633.796
595.444
562.9
537.503
517.099
501.674
489.689
480.232
472.783
465.363
457.498
450.966
445.03
439.942
434.911
430.651
426.941
423.4
419.981
416.521
413.059
410.75
1119.58
1064.53
1008.07
942.913
877.863
813.759
754.735
703.79
659.747
618.975
583.614
554.708
530.551
511.305
496.031
484.207
475.156
466.869
459.556
453.325
447.533
442.252
437.424
433.102
429.34
426.099
422.832
419.93
416.912
415.128
1127.42
1076.9
1024.68
964.351
902.167
841.172
783.708
733.431
688.314
645.258
607.227
574.755
546.814
523.566
504.556
489.639
478.034
468.975
462.056
455.87
449.834
444.187
439.639
435.244
431.38
428.701
425.245
422.599
419.747
417.984
1137.56
1090.09
1042.21
986.467
927.899
870.025
815.127
765.393
719.486
674.014
633.654
597.753
566.088
538.923
516.178
497.894
483.821
473.252
465.675
459.256
453.292
447.733
442.898
438.39
434.459
431.261
428.574
426.378
423.791
422.535
1146.15
1104.06
1060.48
1009.32
955.548
900.636
848.265
799.284
753.07
705.154
662.956
624.175
589.232
558.418
531.964
509.933
492.397
479.224
469.659
462.487
456.116
450.662
445.741
441.172
437.056
433.263
431.059
429.213
426.776
424.653
1155.73
1118.3
1079.02
1033.1
984.489
932.803
882.694
834.763
788.561
739.207
694.744
653.769
615.9
581.669
551.561
525.56
504.082
487.277
474.786
465.882
459.448
453.884
448.666
444.273
439.877
436.069
434.186
432.131
429.848
428.309
1162.65
1132.21
1097.63
1057.59
1014.06
966.062
918.159
871.406
825.729
775.695
729.141
685.991
645.766
608.452
574.723
544.674
518.928
497.954
481.759
470.058
462.495
456.408
451.162
446.457
441.988
438.309
436.332
434.344
432.161
430.913
1171.02
1145.95
1116.59
1082.32
1043.76
999.767
954.152
908.801
864.159
813.905
765.74
720.319
678.108
638.031
600.958
567.289
537.42
512.088
491.851
476.524
466.379
459.576
454.2
449.121
444.757
440.989
438.697
436.813
435.255
434.577
1179
1159.28
1135.36
1106.81
1073.18
1033.15
990.661
947.006
903.723
853.187
803.835
756.478
712.68
670.35
630.277
593.158
559.291
529.679
505.167
485.661
471.606
462.619
456.834
451.952
447.461
443.479
440.783
438.628
437.533
436.906
1185.25
1171.62
1153.96
1130.76
1102.07
1066.07
1026.98
985.733
943.155
892.416
842.525
794.558
749.356
705.218
662.393
622.17
584.585
550.916
521.949
498.053
479.836
467.475
459.95
454.807
450.083
445.993
443.282
440.861
439.242
438.673
1191.37
1183.3
1171.84
1154.03
1130.23
1098.45
1062.96
1024.33
981.799
931.15
882.287
834.631
787.791
741.853
696.966
653.989
612.851
575.261
541.928
513.324
490.712
474.014
463.714
457.274
452.241
448.152
444.881
442.081
440.267
439.509
1195.63
1194.56
1188.56
1176.44
1157.61
1130.12
1098.27
1062.41
1019.88
970.178
922.236
875.385
828.012
779.995
733.771
688.409
644.071
602.913
565.404
532.132
504.265
482.85
468.548
460.034
454.565
450.384
446.535
443.72
441.959
441.183
1200.6
1204.49
1204.27
1197.54
1184.03
1160.64
1132.36
1099.19
1057.1
1009.45
962.501
916.156
869.094
819.782
771.984
724.752
677.652
633.246
591.802
553.984
521.075
494.508
475.149
463.153
456.579
452.261
447.913
444.774
443.076
442.893
1203.7
1214.27
1218.56
1217.35
1209
1189.72
1164.99
1134.42
1093.55
1048.15
1002.75
956.848
910.309
860.872
811.405
762.682
713.363
666.073
620.965
578.874
541.202
509.43
484.93
468.275
459.112
454.382
449.764
446.337
444.557
444.307
1205.91
1222.91
1232.51
1235.72
1232.21
1217.35
1195.9
1167.97
1129.13
1086.2
1042.43
997.712
950.922
902.273
852.174
801.683
750.792
700.984
652.519
606.358
563.973
527.058
497.144
475.224
462.469
456.259
451.378
447.413
445.5
445.11
1207.68
1230.41
1245.25
1252.52
1253.68
1243.2
1224.88
1199.67
1163.55
1123.27
1081.26
1037.6
991.565
943.221
894.012
841.678
789.702
737.834
686.433
636.422
589.415
547.304
511.757
484.395
467.147
458.416
453.063
448.695
446.524
446.117
1208.14
1236.96
1256.96
1269.11
1273.39
1267.15
1251.89
1229.47
1196.61
1159.11
1119.01
1076.72
1031.5
983.492
935.866
882.903
829.707
776.224
722.361
668.793
617.305
569.878
528.41
495.729
473.165
460.839
454.44
449.65
447.297
447.2
1207.24
1242.81
1267.71
1284.39
1291.54
1289.16
1276.89
1257.26
1228.02
1193.46
1155.48
1114.62
1070.42
1023.99
976.192
925.014
870.418
815.573
759.788
703.12
647.538
595.148
548.251
509.999
481.272
464.305
455.826
451.075
448.659
448.253
1207.68
1248.41
1278.27
1298.79
1308.2
1309.28
1299.89
1282.95
1257.73
1226.22
1190.41
1151.04
1108.1
1062.93
1016.52
966.264
911.794
855.152
797.925
738.854
680.022
623.723
572.334
527.998
492.358
469.272
457.449
451.972
449.24
448.659
1188.64
1256.42
1290.4
1312.89
1324.65
1327.64
1320.97
1306.81
1285.44
1257.11
1223.65
1186.06
1144.48
1100.73
1055.64
1005.79
952.524
894.975
836.257
775.768
714.635
655.181
599.464
549.735
507.703
477.119
460.553
453.011
449.717
449.008
1212.96
1288.33
1313.43
1328.26
1340.19
1344.58
1340.23
1329.17
1311.2
1285.89
1254.78
1219.41
1179.45
1136.84
1092.92
1044.47
991.555
934.578
874.399
813.248
750.428
688.185
628.452
573.502
525.74
488.366
465.672
454.941
450.657
449.576
394.045
398.129
403.021
407.744
412.362
416.973
421.504
425.928
431.189
437.025
442.714
449.591
456.245
463.163
470.103
476.285
482.792
489.781
499.34
512.364
532.259
560.428
599.107
650.906
713.754
791.325
875.94
960.681
1032.26
1096.02
398.875
402.565
407.138
411.499
415.545
419.617
424.046
428.645
433.904
439.675
445.597
452.165
459.48
466.213
472.911
479.148
485.793
493.69
505.134
520.824
544.029
575.004
615.635
667.575
727.054
799.751
878.771
960.043
1031.83
1096
400.728
404.37
408.817
413.098
416.897
420.627
424.861
429.677
434.822
440.544
446.26
452.937
460.578
467.276
473.842
480.4
487.808
497.194
510.65
528.681
554.122
586.991
627.073
679.823
740.296
810.689
887.156
965.427
1034.13
1095.89
405.003
408.282
412.415
416.409
419.957
423.396
427.201
431.776
436.942
442.476
448.556
455.405
462.861
470.056
476.624
484.257
493.28
505.099
521.6
542.832
571.123
606.976
648.971
701.046
761.76
829.765
902.376
977.381
1042.87
1105.33
407.873
410.696
414.515
418.322
421.632
425.124
428.866
432.99
438.102
443.522
449.816
456.414
463.886
471.577
478.941
488.379
500.016
515.118
535.24
560.207
591.818
630.164
673.336
724.581
785.971
852.928
921.569
992.362
1053.88
1113.46
412.291
414.613
417.838
421.152
424.18
427.637
431.484
435.827
440.857
446.037
452.144
458.487
465.01
473.133
482.21
494.123
509.219
528.25
552.252
580.806
615.505
656.31
700.433
751.045
811.38
876.221
941.711
1007.63
1064.93
1123.07
415.477
417.588
420.498
423.55
426.194
429.498
433.467
438.189
443.159
448.731
454.785
460.821
467.543
476.35
487.783
502.548
521.279
544.189
571.975
604.025
641.585
684.654
729.885
780.264
837.996
900.792
963.208
1024.22
1077.04
1131.25
420.322
422.575
425.298
428.084
429.499
432.503
436.541
441.273
446.092
451.957
458.086
464.526
471.979
482.376
496.241
514.316
536.75
563.469
594.882
630.207
670.159
715.453
761.632
811.47
866.475
926.334
985.445
1041.86
1089.98
1141.54
423.736
425.518
427.91
430.375
432.348
435.193
439.18
443.934
448.938
454.739
461.069
468.52
477.843
490.812
508.143
529.95
556.081
586.321
620.919
659.067
700.832
748.459
794.909
844.119
896.764
953.479
1008.39
1060.13
1103.75
1150.59
427.653
428.782
431.035
433.343
435.622
438.528
442.372
447.006
452.284
457.937
464.447
473.302
485.459
501.911
523.056
548.689
578.487
612.153
649.658
690.136
734.071
783.495
830.065
878.157
928.252
981.954
1031.95
1078.65
1118.03
1160.72
430.031
430.939
433.346
435.839
438.464
442.049
445.253
449.744
454.866
460.719
468.403
479.396
495.1
515.495
540.714
570.337
603.584
640.428
680.461
723.133
769.368
819.884
866.004
912.972
960.623
1011.04
1056.12
1097.02
1131.96
1167.93
433.485
434.068
436.24
438.505
441.483
444.903
448.385
452.903
457.877
464.411
473.854
488.104
507.483
532.087
561.222
594.479
631.059
670.78
712.852
758.018
806.114
857.255
902.744
948.245
993.359
1040.23
1080.51
1115.68
1145.52
1176.22
435.764
436.445
438.319
440.314
443.266
446.818
451.137
455.894
461.166
468.803
481.216
499.523
522.986
551.657
584.703
621.295
661.042
703.203
747
794.374
844.176
895.848
940.212
983.758
1026.3
1069.3
1104.78
1134.27
1158.88
1184.25
437.855
438.416
440.212
442.343
445.37
449.166
454.084
458.88
465.03
475.356
491.692
514.049
541.73
574.358
611.155
650.874
693.632
737.815
783.145
831.634
882.27
934.432
977.915
1019.19
1059.32
1097.94
1128.52
1152.53
1171.58
1190.66
439.486
439.599
441.311
443.793
447.277
451.381
456.211
461.529
469.892
484.157
505.024
531.686
563.562
600.021
640.499
683.123
728.213
774.436
821.719
870.304
920.327
972.143
1015.82
1054.8
1091.92
1125.91
1151.53
1170.36
1183.35
1196.59
441.193
441.41
442.881
445.445
449.323
453.645
458.483
465.453
477.322
496.169
521.529
552.749
588.814
628.927
672.796
718.1
764.592
813.079
861.446
909.422
958.458
1009.55
1053.78
1090.21
1123.76
1153.05
1173.76
1187
1194.73
1201.3
442.301
442.686
444.092
446.835
451.107
455.518
460.906
470.651
487.108
510.96
541.266
577.029
617.186
660.781
707.635
755.204
803.042
853.364
901.669
949.148
997.404
1046.32
1090.82
1124.75
1154.37
1179.28
1194.71
1202.64
1205.06
1206.01
443.647
443.985
445.525
448.591
453.106
457.654
464.695
478.514
500.032
528.989
564.482
604.718
648.736
695.501
744.83
794.102
843.585
894.366
942.11
989.324
1036.02
1082.57
1126.34
1157.81
1183.59
1204.16
1214.49
1217.03
1214.77
1209.19
444.321
444.673
446.536
450.046
454.735
460.063
470.054
488.85
515.706
550.229
590.827
635.474
683.099
732.689
783.904
834.7
885.434
935.187
983.192
1029.19
1074.23
1118.31
1160.2
1189.18
1211.37
1227.44
1232.87
1231.01
1223.58
1211.54
445.198
445.521
447.591
451.531
456.553
463.645
477.774
501.912
534.671
574.798
620.463
669.332
720.128
772.014
824.423
877.044
927.479
976.182
1023.56
1068.39
1111.68
1153.37
1192.08
1218.64
1237.42
1249.17
1249.72
1243.99
1231.31
1213.21
446.441
446.368
448.584
452.709
458.397
468.629
488.068
517.834
556.871
602.685
653.185
705.909
759.33
812.95
866.336
920.124
968.629
1016.91
1063.28
1106.68
1148.03
1187.04
1222.42
1246.14
1261.57
1269.23
1266.52
1256.05
1237.99
1213.5
447.419
447.696
450.029
454.549
461.634
475.792
501.482
537.416
582.548
633.717
688.564
744.599
800.006
854.864
909.525
962.266
1010.15
1056.68
1101.88
1143.82
1183.12
1219.34
1251.03
1271.63
1283.87
1287.71
1282.05
1267.04
1243.98
1212.34
447.726
448.184
450.973
456.141
465.843
485.558
518.506
561.236
611.76
667.443
725.828
784.446
841.191
897.385
952.59
1003.59
1050.27
1095.27
1139.13
1179.54
1216.72
1250.02
1277.79
1295.11
1304.4
1304.84
1296.87
1277.89
1249.82
1212.5
448.262
448.817
452.001
458.692
472.787
500
540.28
589.073
644.34
703.579
764.521
824.77
882.397
939.991
993.859
1044.15
1089.06
1132.39
1174.97
1213.75
1248.63
1278.82
1302.63
1316.68
1323.3
1321.92
1311.63
1290.49
1258.03
1193.46
448.961
449.916
453.9
463.338
483.462
518.323
564.722
619.261
678.896
741.144
803.927
864.881
923.592
980.932
1034
1082.6
1126.07
1168.06
1209.19
1246.26
1278.72
1305.67
1325.57
1336.61
1340.93
1338.25
1327.68
1313.84
1289.69
1216.5
1366.75
1423.26
1444.99
1483.99
1506.53
1538.74
1561.22
1587.09
1608.77
1630.29
1650.05
1668.77
1686.44
1703.13
1718.98
1734
1748.22
1761.65
1774.37
1786.57
1798.06
1808.82
1819.15
1828.72
1837.83
1846.43
1854.47
1862.06
1869.19
1875.85
1882.04
1887.79
1893.09
1897.96
1902.39
1906.38
1909.91
1912.99
1915.58
1917.66
1919.25
1920.31
1920.8
1920.7
1919.92
1918.48
1916.95
1913.44
1909.84
1905.36
1900.03
1893.89
1886.85
1878.84
1870.02
1860.3
1849.71
1838.17
1825.72
1812.33
1797.95
1782.59
1766.29
1749.05
1730.89
1711.86
1691.94
1671.19
1649.63
1627.29
1604.26
1580.46
1555.99
1530.95
1505.13
1478.85
1451.99
1424.22
1396.47
1368.18
1338.71
1309.56
1280.1
1248.59
1217.92
1187.12
1153.22
1118.81
1086.05
1051.42
1014.94
978.227
940.358
901.762
862.78
823.783
785.751
748.739
713.528
680.816
650.573
623.048
598.101
576.16
556.43
539.376
524.643
511.528
500.232
490.877
482.707
475.637
469.904
465.174
461.643
458.847
456.533
454.809
453.568
452.546
451.546
450.572
450.13
450.02
449.759
1477.97
1516.23
1543.44
1571.96
1597.35
1622.53
1645.43
1667.46
1687.95
1707.41
1725.76
1743.16
1759.7
1775.42
1790.41
1804.7
1818.32
1831.3
1843.67
1855.31
1866.29
1876.97
1887.22
1896.87
1905.85
1914.31
1922.34
1929.95
1937.14
1943.9
1950.24
1956.16
1961.66
1966.74
1971.39
1975.61
1979.38
1982.7
1985.55
1987.91
1989.77
1991.1
1991.81
1991.98
1991.49
1990.34
1988.54
1985.8
1982.32
1978.01
1972.86
1966.88
1960.34
1952.36
1943.67
1934.03
1923.37
1911.71
1899.08
1885.53
1871.06
1855.72
1839.43
1822.2
1804.04
1785
1765.1
1744.38
1722.84
1700.55
1677.55
1653.87
1629.61
1604.79
1579.32
1553.32
1526.81
1499.85
1472.52
1444.76
1416.53
1387.96
1358.89
1329.24
1299.31
1268.65
1236.92
1204.87
1172.63
1139.21
1105.05
1070.38
1034.67
998.447
961.951
925.543
889.701
854.664
821.086
789.2
759.212
731.121
704.611
680.103
656.881
635.315
614.994
595.603
577.29
560.172
543.927
528.62
514.546
502.099
491.524
482.629
475.064
468.68
463.587
459.72
456.658
454.057
452.478
451.812
451.139
1557.27
1587.59
1614.66
1640.24
1664.38
1687.43
1709.09
1729.6
1749.01
1767.48
1785.02
1801.76
1817.75
1833.08
1847.76
1861.82
1875.29
1888.17
1900.46
1911.98
1923.15
1933.98
1944.33
1954.07
1963.15
1971.82
1980.1
1987.97
1995.43
2002.5
2009.16
2015.42
2021.27
2026.69
2031.69
2036.25
2040.36
2044.02
2047.2
2049.9
2052.08
2053.71
2054.7
2055.09
2054.85
2053.9
2052.21
2049.67
2046.31
2042.08
2036.99
2031.02
2024.2
2016.37
2007.59
1997.84
1987.13
1975.54
1962.68
1948.92
1934.18
1918.39
1901.53
1883.8
1865.22
1845.82
1825.59
1804.54
1782.66
1760.05
1736.78
1712.9
1688.45
1663.5
1638.13
1612.39
1586.3
1559.78
1532.98
1505.88
1478.57
1451.03
1423.19
1395.03
1366.54
1337.58
1308.14
1278.45
1248.45
1217.82
1186.48
1154.45
1121.77
1088.63
1055.4
1022.29
989.739
958.274
927.199
896.926
867.771
839.744
812.606
786.609
761.448
737.225
713.737
690.841
668.589
647.062
626.227
606.057
586.605
568.175
550.839
534.358
519.368
505.735
493.209
482.76
474.328
467.084
461.793
458.643
456.338
1628.83
1655.6
1681.73
1705.79
1728.71
1750.54
1771.25
1790.95
1809.73
1827.66
1844.84
1861.32
1877.13
1892.43
1907.13
1921.27
1934.84
1947.87
1960.31
1972.18
1983.76
1994.95
2005.59
2015.62
2025.12
2034.26
2043.03
2051.4
2059.39
2066.99
2074.19
2080.98
2087.36
2093.31
2098.83
2103.9
2108.52
2112.68
2116.36
2119.53
2122.15
2124.18
2125.57
2126.23
2126.29
2125.58
2124.04
2121.63
2118.35
2114.18
2109.11
2103.12
2096.2
2088.28
2079.34
2069.35
2058.31
2046.2
2032.96
2018.67
2003.38
1987.28
1969.67
1951.36
1932.09
1911.81
1890.47
1868.37
1845.61
1822.25
1798.33
1773.87
1748.87
1723.47
1697.74
1671.75
1645.54
1619.22
1592.7
1565.97
1539.14
1512.24
1485.3
1458.25
1431.06
1403.63
1375.94
1348.01
1319.8
1291.2
1262.17
1232.75
1203.03
1173.09
1142.97
1112.74
1082.74
1053.16
1024.08
995.573
967.723
940.571
914.04
887.935
862.214
837.019
812.248
787.815
763.735
739.994
716.612
693.472
670.614
648.312
626.76
605.386
585.018
565.979
547.05
528.906
512.473
497.365
484.87
475.878
469.096
1699.15
1724.44
1749.84
1772.9
1794.96
1816.05
1836.17
1855.44
1873.92
1891.69
1908.83
1925.38
1941.38
1956.87
1971.85
1986.34
2000.23
2013.56
2026.47
2039.02
2051.22
2062.92
2074.04
2084.6
2094.8
2104.63
2114.12
2123.22
2131.92
2140.24
2148.15
2155.64
2162.7
2169.33
2175.52
2181.26
2186.53
2191.33
2195.63
2199.39
2202.54
2205.06
2206.92
2207.94
2208.25
2207.78
2206.38
2204.06
2200.84
2196.71
2191.66
2185.66
2178.67
2170.64
2161.49
2151.19
2139.68
2126.95
2113
2097.86
2081.56
2064.16
2045.59
2026.01
2005.49
1984.13
1961.78
1938.54
1914.62
1889.97
1864.49
1838.58
1812.45
1786.16
1759.75
1733.19
1706.5
1679.83
1653.25
1626.83
1600.46
1574.07
1547.78
1521.55
1495.37
1469.17
1442.93
1416.6
1390.14
1363.48
1336.6
1309.49
1282.18
1254.72
1227.19
1199.73
1172.43
1145.26
1118.11
1091.09
1064.34
1037.93
1011.93
986.172
960.589
935.771
910.904
885.946
861.079
836.253
811.471
786.629
761.682
736.751
712.244
687.579
662.849
639.118
615.322
591.482
569.084
547.246
526.976
509.708
495.719
1769.89
1795.15
1820.08
1842.53
1864.12
1884.82
1904.7
1923.85
1942.35
1960.26
1977.64
1994.51
2010.89
2026.78
2042.19
2057.11
2071.53
2085.5
2099.2
2112.56
2125.42
2137.69
2149.44
2160.8
2171.85
2182.45
2192.82
2202.73
2212.24
2221.34
2230.02
2238.27
2246.06
2253.46
2260.38
2266.81
2272.76
2278.23
2283.22
2287.6
2291.33
2294.4
2296.74
2298.11
2298.59
2298.32
2297
2294.74
2291.58
2287.55
2282.6
2276.68
2269.76
2261.72
2252.45
2241.84
2229.82
2216.39
2201.57
2185.38
2167.8
2148.88
2128.71
2107.39
2085.06
2061.79
2037.61
2012.59
1986.88
1960.61
1933.83
1906.57
1879.1
1851.42
1823.35
1795.44
1767.78
1740.5
1713.52
1686.86
1660.55
1634.7
1609.12
1583.66
1558.4
1533.33
1508.37
1483.47
1458.58
1433.62
1408.56
1383.4
1358.16
1332.85
1307.53
1282.24
1257.01
1231.83
1206.72
1181.69
1156.73
1131.83
1106.8
1081.61
1056.42
1031.47
1006.28
981.414
956.737
931.583
906.219
880.575
854.54
828.121
801.663
774.762
747.194
719.846
692.427
664.49
637.478
610.294
583.297
558.521
537.724
1841.5
1867.69
1892.42
1914.6
1936.07
1956.7
1976.61
1995.9
2014.66
2032.92
2050.7
2068.01
2084.84
2101.19
2117.07
2132.48
2147.48
2162.19
2176.75
2190.83
2204.24
2217.01
2229.37
2241.53
2253.37
2264.78
2275.78
2286.34
2296.46
2306.16
2315.45
2324.32
2332.54
2340.51
2347.91
2354.74
2361.06
2366.91
2372.47
2377.38
2381.63
2385.23
2387.93
2389.37
2389.88
2389.67
2388.35
2386.17
2383.21
2379.45
2374.84
2369.32
2362.88
2355.35
2346.46
2335.9
2323.66
2309.78
2294.37
2277.35
2258.61
2238.17
2216.28
2193.08
2168.75
2143.37
2117.03
2089.77
2061.73
2033.09
2004.06
1974.82
1945.59
1916.56
1887
1858.03
1829.19
1800.6
1772.42
1744.98
1718.34
1692.51
1667.31
1642.68
1618.46
1594.5
1570.65
1547.02
1523.56
1500.16
1476.78
1453.38
1429.92
1406.42
1382.88
1359.33
1335.77
1312.23
1288.71
1265.19
1241.67
1218.08
1194.41
1170.62
1146.76
1122.77
1098.27
1073.45
1048.31
1022.46
997.061
971.289
944.843
917.837
890.253
861.976
832.774
803.04
772.883
742.171
711.561
680.526
648.82
618.133
590.7
1913.69
1941.59
1966.28
1988.47
2010.07
2030.8
2050.91
2070.49
2089.6
2108.23
2126.38
2144.02
2161.16
2177.78
2193.93
2209.66
2225.09
2240.34
2255.28
2269.55
2283.04
2295.93
2308.47
2320.92
2332.99
2344.53
2355.55
2366.04
2376.03
2385.59
2394.73
2403.4
2411.5
2418.91
2425.45
2431.18
2436.38
2441.04
2446.41
2451.07
2455.11
2458.44
2460.39
2460.77
2460.85
2460.41
2458.98
2457.07
2454.68
2451.8
2448.39
2444.47
2439.99
2434.53
2427.61
2418.54
2407.75
2395.01
2380.44
2363.87
2345.25
2324.26
2301.5
2277.17
2251.53
2224.63
2196.61
2167.4