/*--------------------------------*- C++ -*----------------------------------*\
| =========                 |                                                 |
| \\      /  F ield         | OpenFOAM: The Open Source CFD Toolbox           |
|  \\    /   O peration     | Version:  2112                                  |
|   \\  /    A nd           | Website:  www.openfoam.com                      |
|    \\/     M anipulation  |                                                 |
\*---------------------------------------------------------------------------*/
FoamFile
{
    version     2.0;
    format      ascii;
    arch        "LSB;label=32;scalar=64";
    class       volScalarField;
    location    "0.00104";
    object      alphat;
}
// * * * * * * * * * * * * * * * * * * * * * * * * * * * * * * * * * * * * * //

dimensions      [1 -1 -1 0 0 0 0];

internalField   nonuniform List<scalar> 
13875
(
0.119866
0.0815987
0.0784689
0.0782676
0.0782675
0.0783509
0.0783516
0.0783828
0.078338
0.0782795
0.078289
0.0783403
0.078298
0.0783022
0.0783027
0.0783056
0.0783641
0.078366
0.0783247
0.0783352
0.0782659
0.0782786
0.0785025
0.0814646
0.120932
0.103918
0.0576504
0.0570928
0.0571423
0.0566641
0.0565671
0.0565865
0.0567447
0.0570276
0.0570724
0.057143
0.0571682
0.0571455
0.0571347
0.0571134
0.0570813
0.0567196
0.0565822
0.0565476
0.0565618
0.0566598
0.0571615
0.0570906
0.0573737
0.104499
0.110611
0.0553629
0.0559168
0.0547421
0.054485
0.0543433
0.0542495
0.0542077
0.0541376
0.0542359
0.0543965
0.0543082
0.054359
0.0543034
0.0540731
0.0543117
0.054219
0.0541991
0.0542119
0.0543096
0.054441
0.0546082
0.0558172
0.0551025
0.111144
0.115885
0.0546551
0.0554183
0.0543076
0.0539335
0.0538058
0.0537087
0.053658
0.0535228
0.0535367
0.0536397
0.0535711
0.0536351
0.0535929
0.0533933
0.0535391
0.0536761
0.0536653
0.0536727
0.0537699
0.0538987
0.0542129
0.0552344
0.0543273
0.115815
0.121046
0.054675
0.0551638
0.0537684
0.0535972
0.0534071
0.0532704
0.0531953
0.0530529
0.0530694
0.053159
0.0530876
0.053135
0.053107
0.0529108
0.0530405
0.0531918
0.0531961
0.0532208
0.0533615
0.0535418
0.0536151
0.0550516
0.0543505
0.121406
0.124476
0.054777
0.0552441
0.0536174
0.0532143
0.0530097
0.0528658
0.0527787
0.0526491
0.0526401
0.0527391
0.0526725
0.0527043
0.052681
0.0525037
0.0526104
0.0527705
0.0527907
0.0528237
0.0529577
0.0531645
0.0535131
0.0549294
0.0544448
0.124232
0.128918
0.0565744
0.0558851
0.0535142
0.053239
0.052884
0.052641
0.0524878
0.0523519
0.0523145
0.0523967
0.0523434
0.0523616
0.0523294
0.0521963
0.0522699
0.052459
0.0525081
0.0525964
0.0528306
0.0531727
0.0534084
0.0557197
0.0564597
0.129264
0.136097
0.0614109
0.0580259
0.0545288
0.0534561
0.0528942
0.0525457
0.052334
0.0521972
0.0521307
0.0521855
0.0521527
0.0521575
0.0521319
0.0520451
0.0520731
0.0522911
0.052373
0.0525112
0.0528392
0.0533879
0.0543985
0.05769
0.0612641
0.136138
0.153045
0.0699056
0.0620091
0.0562697
0.0546966
0.0535976
0.052933
0.0525528
0.052369
0.052257
0.0522353
0.0522278
0.052215
0.0522135
0.0521752
0.0521646
0.0524239
0.0525983
0.0528898
0.0535095
0.0545469
0.0559855
0.0614154
0.0689334
0.15559
0.241895
0.0886614
0.0673784
0.0596982
0.056225
0.0546636
0.0537856
0.0532797
0.0530564
0.052896
0.0528127
0.0528044
0.0527834
0.0528161
0.0528317
0.0528094
0.0530422
0.0533213
0.0537775
0.0546044
0.0561764
0.0593479
0.0668862
0.0881429
0.245042
0.377313
0.123415
0.0783972
0.064705
0.0597985
0.0570578
0.0557888
0.0550863
0.0547621
0.0545171
0.0543893
0.0543343
0.0543277
0.0543956
0.0544581
0.0544748
0.0546704
0.055052
0.0557438
0.0569224
0.0595404
0.0636125
0.0768422
0.11727
0.374972
0.66797
0.203393
0.100944
0.0817036
0.0677061
0.0621088
0.0602442
0.0591349
0.0586694
0.058331
0.0581415
0.0580089
0.0580447
0.058143
0.0582515
0.0583459
0.0585897
0.0590606
0.0601699
0.0618888
0.0673857
0.0800192
0.0988816
0.193927
0.66268
0.59893
0.385296
0.28457
0.115213
0.0908873
0.0765212
0.0712814
0.0691616
0.0683394
0.0677867
0.067457
0.0672492
0.0672955
0.0674469
0.067621
0.0678853
0.068393
0.0692771
0.0714394
0.0765946
0.0896377
0.110369
0.256053
0.386696
0.595301
0.512954
0.377073
0.374593
0.458362
0.159824
0.11359
0.107839
0.102386
0.101138
0.100106
0.0999993
0.0997139
0.100608
0.100119
0.100511
0.100818
0.102021
0.103795
0.109419
0.122075
0.175468
0.42434
0.37795
0.382429
0.518414
0.414317
0.355591
0.361632
0.439164
0.379433
0.24939
0.228934
0.202928
0.179046
0.170588
0.169909
0.167392
0.171072
0.168203
0.171297
0.172174
0.178393
0.203802
0.23494
0.254729
0.375359
0.426075
0.365292
0.36931
0.431043
0.356412
0.334213
0.365563
0.442777
0.532768
0.682211
0.798351
0.622179
0.626852
0.625226
0.635747
0.634581
0.632758
0.628726
0.634359
0.626913
0.626917
0.619403
0.758421
0.715397
0.556274
0.448747
0.367689
0.338845
0.371747
0.288142
0.338329
0.43071
0.482469
0.553158
0.708023
0.640843
0.471508
0.453185
0.43707
0.438386
0.432903
0.428457
0.428801
0.436704
0.439622
0.452687
0.470844
0.606154
0.73466
0.577243
0.493228
0.434786
0.336862
0.301225
0.250781
0.344751
0.424396
0.439362
0.465101
0.545507
0.481443
0.384808
0.362679
0.351205
0.355543
0.35064
0.350509
0.348978
0.357464
0.360595
0.370631
0.39457
0.480745
0.553844
0.476914
0.449197
0.441328
0.331412
0.228257
0.127722
0.279468
0.38021
0.370192
0.366031
0.408941
0.405864
0.362059
0.337179
0.321757
0.319287
0.313549
0.312397
0.310886
0.319731
0.328113
0.342542
0.367373
0.412118
0.417797
0.368484
0.367086
0.381804
0.291731
0.126367
0.0596537
0.190195
0.283944
0.290479
0.288531
0.323163
0.355794
0.344098
0.319869
0.299295
0.290518
0.282479
0.280192
0.280445
0.291666
0.305963
0.327056
0.352199
0.364231
0.33195
0.290672
0.289197
0.281718
0.193193
0.0567226
0.0588485
0.130394
0.196724
0.214889
0.226671
0.264835
0.309384
0.313452
0.293667
0.272955
0.261468
0.252102
0.249103
0.250843
0.263405
0.280591
0.302925
0.323191
0.317809
0.27118
0.227772
0.211025
0.191554
0.12264
0.0538346
0.0908356
0.124166
0.145685
0.167983
0.186283
0.225296
0.268132
0.278038
0.263256
0.244856
0.232724
0.223063
0.22
0.22194
0.234539
0.252272
0.273225
0.287878
0.275914
0.231736
0.186038
0.164038
0.140082
0.11862
0.0864124
0.148888
0.135006
0.126256
0.138927
0.15765
0.195724
0.233169
0.243216
0.233111
0.216743
0.204985
0.196128
0.193623
0.194776
0.205821
0.222681
0.241757
0.252083
0.23979
0.200543
0.157011
0.135971
0.123255
0.130119
0.143424
0.177922
0.142366
0.123981
0.123667
0.138861
0.169305
0.202063
0.211991
0.203684
0.189722
0.179534
0.171916
0.170485
0.171399
0.180725
0.195477
0.212262
0.220295
0.207629
0.173368
0.13951
0.122027
0.120258
0.138507
0.167398
0.191757
0.148829
0.120516
0.115251
0.124998
0.148827
0.174036
0.184262
0.177108
0.165743
0.157095
0.150968
0.150469
0.151107
0.158682
0.171911
0.186878
0.193856
0.180789
0.151573
0.126217
0.114142
0.117759
0.143955
0.180752
0.209956
0.156338
0.120013
0.1104
0.116078
0.132053
0.152566
0.159852
0.155707
0.145513
0.137997
0.132672
0.133097
0.133275
0.139614
0.150712
0.163684
0.168932
0.15923
0.136077
0.117426
0.109904
0.117464
0.152964
0.202442
0.226851
0.168014
0.121004
0.108351
0.109028
0.119742
0.133661
0.140152
0.135258
0.127414
0.120908
0.117229
0.118315
0.118442
0.122902
0.132537
0.143791
0.149181
0.141704
0.123682
0.110916
0.108379
0.11885
0.165522
0.21755
0.245379
0.189815
0.122947
0.106686
0.104685
0.109381
0.119247
0.122531
0.118785
0.112156
0.10697
0.10403
0.105981
0.105434
0.109012
0.116612
0.125899
0.131881
0.127412
0.115641
0.107349
0.108276
0.121009
0.186537
0.242326
0.273867
0.205642
0.125578
0.105613
0.101057
0.102947
0.107547
0.108752
0.10531
0.0991514
0.0948798
0.0931162
0.0955753
0.0948451
0.0968941
0.102654
0.110405
0.115921
0.115633
0.109014
0.105281
0.107764
0.124892
0.203431
0.279608
0.320799
0.214906
0.127405
0.10281
0.0981229
0.0971124
0.0981331
0.0975066
0.0925803
0.0881853
0.0848509
0.0839481
0.0868209
0.0857885
0.0869102
0.0914083
0.0975106
0.103831
0.105288
0.103849
0.103211
0.106491
0.129875
0.217993
0.305938
0.341541
0.223665
0.132651
0.104009
0.095227
0.092336
0.0903151
0.0872283
0.0831004
0.0788329
0.0767142
0.0764436
0.0796277
0.078255
0.0787725
0.0816785
0.0868823
0.0927208
0.0967178
0.0987505
0.100807
0.10866
0.137356
0.227384
0.327564
0.349463
0.231494
0.139515
0.103026
0.09133
0.0871126
0.0838119
0.0798381
0.0752438
0.0716616
0.0695151
0.0700495
0.0736654
0.0722038
0.0716512
0.0740815
0.0784231
0.0836031
0.0888547
0.0936849
0.0977544
0.108827
0.145003
0.231688
0.336613
0.361401
0.235558
0.148783
0.106207
0.0900191
0.0830113
0.0780437
0.0733717
0.0685797
0.0654517
0.0643031
0.0650333
0.0689283
0.0669632
0.0664326
0.0678145
0.0714283
0.0769619
0.0830155
0.0886622
0.0958948
0.112987
0.156158
0.238869
0.341549
0.373396
0.241461
0.160405
0.109557
0.0886013
0.0789844
0.0733026
0.0675303
0.063719
0.0604914
0.0595482
0.06111
0.0651179
0.0632283
0.0617213
0.0626866
0.0664067
0.070583
0.0767772
0.0850803
0.0948352
0.117319
0.167577
0.241379
0.348191
0.377823
0.249321
0.165037
0.115175
0.0889389
0.0767473
0.0693434
0.0635062
0.0589162
0.0570411
0.0560141
0.0575719
0.0622442
0.0597603
0.0582682
0.0592162
0.0614689
0.0668786
0.0728398
0.0813239
0.0940954
0.121706
0.173774
0.249677
0.352307
0.378795
0.257021
0.165451
0.124301
0.091114
0.0751823
0.0656179
0.0592142
0.0562263
0.0535367
0.0537057
0.055834
0.0603682
0.0578948
0.0558242
0.0557033
0.0586964
0.0621343
0.0684679
0.0800327
0.0972202
0.132016
0.176192
0.257975
0.350316
0.374047
0.264746
0.167839
0.138826
0.0941472
0.0749307
0.0642809
0.0569113
0.0529469
0.0514152
0.0513794
0.0540014
0.0591213
0.0562047
0.0536774
0.0535825
0.0554295
0.0600691
0.0674653
0.0789581
0.0982737
0.143189
0.175195
0.26158
0.35398
0.360929
0.268022
0.169142
0.142477
0.101553
0.0763268
0.0633361
0.0549443
0.0515861
0.0498698
0.0506419
0.053593
0.0589096
0.0558185
0.0530286
0.0522496
0.053569
0.0578618
0.0660571
0.079943
0.105231
0.152495
0.173007
0.267833
0.354164
0.365571
0.269057
0.164064
0.141994
0.110764
0.0782363
0.0634177
0.0548335
0.0508298
0.0487556
0.0500305
0.0536504
0.05951
0.0557443
0.0523045
0.0509854
0.053086
0.0574534
0.0662559
0.0816946
0.114041
0.150963
0.167824
0.271616
0.35113
0.370094
0.278682
0.15926
0.139851
0.123111
0.0843478
0.0654204
0.0556354
0.0504661
0.0496487
0.0507172
0.0549171
0.0609917
0.0571984
0.0532394
0.0521693
0.0526628
0.0583579
0.0679089
0.0867957
0.12729
0.14803
0.160414
0.278362
0.358188
0.365867
0.291037
0.1546
0.136744
0.123591
0.0940656
0.0685552
0.0580185
0.0531258
0.0502334
0.0527065
0.0569546
0.063613
0.0594546
0.0553527
0.0529583
0.055253
0.0602485
0.0700487
0.09615
0.129164
0.142442
0.155697
0.294965
0.363005
0.373664
0.309977
0.151976
0.130461
0.121951
0.108365
0.0765611
0.0606781
0.0547417
0.0540873
0.0551185
0.0602401
0.0671602
0.0627524
0.0576634
0.0566115
0.0572983
0.0632289
0.0770732
0.10989
0.1278
0.135895
0.156575
0.315736
0.362493
0.374558
0.331509
0.157557
0.124865
0.119199
0.109478
0.0871285
0.067234
0.0601626
0.0579967
0.0611129
0.0661324
0.0734802
0.0689185
0.0638563
0.0608255
0.0618792
0.0681837
0.0868736
0.114119
0.124516
0.130178
0.157486
0.330371
0.370693
0.373732
0.343916
0.169087
0.12476
0.115047
0.109903
0.102333
0.0780627
0.0649385
0.0635218
0.0667749
0.0732978
0.0819079
0.0761748
0.0698078
0.0663031
0.0668115
0.0791498
0.101705
0.114768
0.120865
0.127079
0.16617
0.347079
0.374488
0.380084
0.357126
0.17658
0.125277
0.111337
0.110026
0.106052
0.093613
0.077679
0.072491
0.0757477
0.0824309
0.0918178
0.085302
0.0787061
0.0753121
0.077526
0.0927482
0.110515
0.115319
0.116252
0.127929
0.176301
0.362758
0.377023
0.384304
0.377751
0.187608
0.130261
0.113514
0.108491
0.108992
0.110066
0.0935916
0.082818
0.08585
0.0936235
0.103896
0.0967166
0.0890843
0.0848558
0.0933481
0.112752
0.11363
0.11464
0.116135
0.130908
0.184737
0.381471
0.387627
0.385179
0.391462
0.200174
0.138261
0.11927
0.112318
0.113708
0.119303
0.121522
0.105014
0.100153
0.107348
0.119417
0.110714
0.102996
0.104901
0.117822
0.123435
0.118432
0.116607
0.120826
0.135659
0.194058
0.403623
0.393254
0.394435
0.422665
0.216182
0.148162
0.126807
0.119597
0.120167
0.128725
0.140765
0.134511
0.129553
0.128608
0.141431
0.13183
0.131029
0.133075
0.143412
0.132407
0.124703
0.121774
0.126547
0.145524
0.213358
0.435158
0.400695
0.383501
0.441091
0.239836
0.164924
0.14072
0.131942
0.13269
0.141856
0.159073
0.177628
0.166972
0.161557
0.177124
0.165211
0.167726
0.183447
0.163938
0.145878
0.13523
0.133763
0.138695
0.160877
0.2367
0.458961
0.38399
0.357216
0.447269
0.264349
0.186153
0.159439
0.151297
0.151442
0.163027
0.18046
0.206271
0.230423
0.22737
0.246107
0.232278
0.235307
0.213583
0.185339
0.16627
0.153152
0.150201
0.155497
0.181129
0.261366
0.466564
0.362639
0.122503
0.275704
0.303077
0.305654
0.306176
0.305526
0.304824
0.304116
0.303635
0.303361
0.303207
0.303114
0.303051
0.302999
0.302952
0.302906
0.302861
0.302816
0.30277
0.302725
0.30268
0.302635
0.302589
0.302542
0.302497
0.302455
0.302366
0.301767
0.289116
0.136933
0.104534
0.270836
0.299573
0.302083
0.30274
0.302223
0.301623
0.30091
0.300394
0.300091
0.299917
0.299812
0.299741
0.299684
0.299634
0.299587
0.299541
0.299496
0.299452
0.299409
0.299367
0.299325
0.299283
0.299242
0.299203
0.299166
0.299063
0.297943
0.278932
0.12619
0.108012
0.2728
0.297808
0.300063
0.300849
0.300375
0.299813
0.299076
0.298553
0.298257
0.298102
0.298021
0.297977
0.297948
0.297925
0.297905
0.297885
0.297867
0.297849
0.297831
0.297815
0.297798
0.297781
0.297764
0.29775
0.297737
0.297655
0.29639
0.276027
0.123441
0.111067
0.272259
0.296933
0.29942
0.300359
0.299857
0.299296
0.298516
0.297981
0.297685
0.297541
0.297475
0.297447
0.297435
0.297428
0.297422
0.297418
0.297413
0.297409
0.297405
0.297401
0.297396
0.297391
0.297386
0.297384
0.297381
0.297313
0.295994
0.275248
0.122097
0.11101
0.270962
0.296596
0.299418
0.30037
0.299818
0.299239
0.298418
0.297868
0.297569
0.297427
0.297366
0.297343
0.297335
0.297332
0.297331
0.29733
0.297329
0.297328
0.297328
0.297327
0.297325
0.297323
0.297321
0.297322
0.297321
0.297257
0.295892
0.274821
0.120997
0.110774
0.270483
0.296551
0.299618
0.300463
0.299817
0.299236
0.298395
0.297847
0.297548
0.297408
0.297349
0.297327
0.29732
0.297318
0.297318
0.297317
0.297317
0.297317
0.297317
0.297317
0.297316
0.297314
0.297313
0.297314
0.297313
0.297249
0.295836
0.274413
0.119962
0.110806
0.270499
0.296576
0.299838
0.300514
0.299794
0.299221
0.298377
0.297837
0.297542
0.297403
0.297345
0.297324
0.297318
0.297316
0.297316
0.297316
0.297316
0.297316
0.297316
0.297316
0.297315
0.297314
0.297312
0.297313
0.297312
0.297247
0.295787
0.27401
0.118984
0.111194
0.270638
0.296689
0.300011
0.300519
0.299746
0.299191
0.298348
0.297824
0.297533
0.297398
0.297341
0.297323
0.297317
0.297316
0.297316
0.297316
0.297316
0.297316
0.297316
0.297316
0.297315
0.297314
0.297313
0.297313
0.297312
0.297245
0.295743
0.273632
0.118081
0.111605
0.270866
0.296848
0.30012
0.300503
0.299664
0.299136
0.298301
0.297802
0.297521
0.297389
0.297338
0.297322
0.297317
0.297316
0.297316
0.297316
0.297316
0.297316
0.297316
0.297316
0.297315
0.297315
0.297314
0.297313
0.297312
0.297242
0.295702
0.273286
0.11726
0.111883
0.27116
0.296919
0.300166
0.300455
0.299536
0.29905
0.298235
0.297765
0.2975
0.297382
0.297336
0.297321
0.297317
0.297316
0.297316
0.297316
0.297316
0.297316
0.297316
0.297316
0.297316
0.297315
0.297315
0.297314
0.297312
0.29724
0.295666
0.272969
0.116519
0.112005
0.27136
0.296973
0.300177
0.300341
0.299378
0.298935
0.298155
0.297726
0.297485
0.297376
0.297334
0.29732
0.297317
0.297316
0.297316
0.297316
0.297316
0.297316
0.297316
0.297316
0.297316
0.297315
0.297315
0.297315
0.297311
0.297238
0.295631
0.272674
0.115846
0.111984
0.271543
0.297015
0.300135
0.300171
0.299189
0.298808
0.298083
0.297694
0.297471
0.297371
0.297332
0.29732
0.297317
0.297316
0.297316
0.297316
0.297316
0.297316
0.297316
0.297316
0.297316
0.297316
0.297316
0.297315
0.297312
0.297234
0.295599
0.272399
0.115232
0.111929
0.271695
0.297042
0.299821
0.299966
0.299005
0.298683
0.298019
0.297664
0.297459
0.297366
0.297331
0.29732
0.297317
0.297316
0.297316
0.297316
0.297316
0.297316
0.297316
0.297316
0.297316
0.297316
0.297316
0.297316
0.297313
0.297232
0.295569
0.272146
0.114674
0.111874
0.271833
0.297073
0.299512
0.299733
0.298841
0.298562
0.297959
0.297635
0.297447
0.297362
0.297329
0.297319
0.297317
0.297316
0.297316
0.297316
0.297316
0.297316
0.297316
0.297316
0.297316
0.297316
0.297316
0.297316
0.297313
0.297232
0.295541
0.271914
0.114166
0.111893
0.271871
0.297103
0.299247
0.299486
0.29869
0.298442
0.297898
0.297606
0.297435
0.297357
0.297328
0.297319
0.297316
0.297316
0.297316
0.297316
0.297316
0.297316
0.297316
0.297316
0.297316
0.297316
0.297316
0.297316
0.297313
0.29723
0.295518
0.271705
0.113708
0.111897
0.272146
0.297312
0.29918
0.299268
0.298544
0.298321
0.297838
0.297577
0.297423
0.297353
0.297326
0.297318
0.297316
0.297316
0.297316
0.297316
0.297316
0.297316
0.297316
0.297316
0.297316
0.297316
0.297316
0.297316
0.297313
0.297229
0.295496
0.271516
0.113298
0.112108
0.273469
0.298704
0.299955
0.299359
0.298447
0.298206
0.297776
0.297547
0.29741
0.297349
0.297325
0.297318
0.297316
0.297316
0.297316
0.297316
0.297316
0.297316
0.297316
0.297316
0.297316
0.297316
0.297316
0.297316
0.297313
0.297228
0.295476
0.271347
0.112931
0.112882
0.278971
0.305748
0.304175
0.300743
0.298739
0.29816
0.297721
0.297516
0.297398
0.297344
0.297324
0.297318
0.297316
0.297316
0.297316
0.297316
0.297316
0.297316
0.297316
0.297316
0.297316
0.297316
0.297316
0.297316
0.297313
0.297227
0.295459
0.271201
0.112608
0.115233
0.296899
0.331727
0.326298
0.309712
0.300588
0.298497
0.297726
0.297491
0.297385
0.29734
0.297322
0.297317
0.297316
0.297316
0.297316
0.297316
0.297316
0.297316
0.297316
0.297316
0.297316
0.297316
0.297316
0.297316
0.297313
0.297226
0.295444
0.271071
0.112326
0.12251
0.331407
0.364883
0.36627
0.342593
0.312735
0.300385
0.298025
0.297515
0.297376
0.297335
0.297321
0.297317
0.297316
0.297316
0.297316
0.297316
0.297316
0.297316
0.297316
0.297316
0.297316
0.297316
0.297316
0.297316
0.297313
0.297225
0.295431
0.270962
0.112082
0.139509
0.278891
0.275342
0.326886
0.386136
0.34641
0.311771
0.299534
0.297729
0.297395
0.297333
0.29732
0.297317
0.297316
0.297316
0.297316
0.297316
0.297316
0.297316
0.297316
0.297316
0.297316
0.297316
0.297316
0.297316
0.297313
0.297224
0.29542
0.270871
0.111876
0.149796
0.178799
0.178535
0.236409
0.322493
0.394886
0.337193
0.307177
0.298675
0.297515
0.297343
0.297319
0.297316
0.297316
0.297316
0.297316
0.297316
0.297316
0.297316
0.297316
0.297316
0.297316
0.297316
0.297316
0.297316
0.297313
0.297224
0.295412
0.270796
0.111704
0.135413
0.111316
0.119681
0.172987
0.246482
0.339685
0.36313
0.323163
0.302676
0.297971
0.297396
0.297323
0.297316
0.297316
0.297316
0.297316
0.297316
0.297316
0.297316
0.297316
0.297316
0.297316
0.297316
0.297316
0.297316
0.297313
0.297224
0.295405
0.270739
0.111566
0.203
0.120303
0.0958168
0.114042
0.182202
0.263087
0.341445
0.308038
0.311894
0.299566
0.297572
0.29734
0.297317
0.297316
0.297316
0.297316
0.297316
0.297316
0.297316
0.297316
0.297316
0.297316
0.297316
0.297316
0.297316
0.297313
0.297223
0.295401
0.270697
0.111459
0.114054
0.0803711
0.0700565
0.0763452
0.142313
0.206321
0.27578
0.307348
0.290781
0.30388
0.298052
0.297392
0.297321
0.297316
0.297316
0.297316
0.297316
0.297316
0.297316
0.297316
0.297316
0.297316
0.297316
0.297316
0.297316
0.297313
0.297223
0.295399
0.270668
0.111381
0.136932
0.289116
0.301767
0.302366
0.302455
0.302497
0.302542
0.302589
0.302635
0.302681
0.302726
0.302771
0.302816
0.302862
0.302907
0.302953
0.303
0.303052
0.303116
0.303208
0.303362
0.303636
0.304117
0.304825
0.305526
0.306177
0.305655
0.303077
0.275694
0.122474
0.126189
0.278932
0.297943
0.299063
0.299167
0.299203
0.299242
0.299283
0.299325
0.299367
0.299409
0.299452
0.299496
0.299541
0.299587
0.299634
0.299685
0.299741
0.299812
0.299917
0.300091
0.300394
0.30091
0.301622
0.302223
0.30274
0.302083
0.299573
0.270839
0.104549
0.123439
0.276026
0.29639
0.297655
0.297737
0.29775
0.297764
0.297781
0.297798
0.297815
0.297831
0.297849
0.297867
0.297885
0.297905
0.297925
0.297948
0.297977
0.298022
0.298102
0.298257
0.298553
0.299076
0.299813
0.300375
0.30085
0.300063
0.297808
0.272804
0.107985
0.122096
0.275248
0.295994
0.297313
0.297381
0.297384
0.297386
0.297391
0.297396
0.297401
0.297405
0.297409
0.297413
0.297418
0.297422
0.297428
0.297435
0.297447
0.297475
0.29754
0.297685
0.29798
0.298515
0.299296
0.299856
0.30036
0.29942
0.296934
0.272274
0.111108
0.120998
0.274821
0.295892
0.297257
0.297321
0.297322
0.297321
0.297323
0.297325
0.297327
0.297328
0.297328
0.297329
0.29733
0.297331
0.297332
0.297335
0.297343
0.297366
0.297427
0.297569
0.297868
0.298418
0.29924
0.299818
0.30037
0.299417
0.296594
0.270945
0.111027
0.119961
0.274411
0.295836
0.297249
0.297313
0.297313
0.297313
0.297314
0.297316
0.297317
0.297317
0.297317
0.297317
0.297317
0.297318
0.297318
0.29732
0.297327
0.297349
0.297408
0.297548
0.297847
0.298395
0.299236
0.299817
0.300463
0.299617
0.296551
0.270487
0.110718
0.118984
0.274011
0.295788
0.297247
0.297312
0.297313
0.297312
0.297314
0.297315
0.297316
0.297316
0.297316
0.297316
0.297316
0.297316
0.297316
0.297318
0.297324
0.297345
0.297403
0.297542
0.297837
0.298377
0.299221
0.299794
0.300514
0.299838
0.296577
0.27051
0.11088
0.118081
0.273632
0.295743
0.297245
0.297312
0.297313
0.297313
0.297314
0.297315
0.297316
0.297316
0.297316
0.297316
0.297316
0.297316
0.297316
0.297317
0.297323
0.297341
0.297398
0.297533
0.297824
0.298347
0.299191
0.299745
0.300519
0.30001
0.296687
0.270623
0.111153
0.11726
0.273286
0.295702
0.297242
0.297312
0.297313
0.297314
0.297315
0.297315
0.297316
0.297316
0.297316
0.297316
0.297316
0.297316
0.297316
0.297317
0.297322
0.297338
0.297389
0.297521
0.297802
0.298301
0.299136
0.299663
0.300503
0.30012
0.296848
0.270876
0.11161
0.11652
0.27297
0.295666
0.29724
0.297312
0.297314
0.297315
0.297315
0.297316
0.297316
0.297316
0.297316
0.297316
0.297316
0.297316
0.297316
0.297317
0.297321
0.297336
0.297382
0.2975
0.297765
0.298235
0.29905
0.299536
0.300457
0.300165
0.296917
0.27115
0.1119
0.115845
0.272673
0.295631
0.297238
0.297311
0.297315
0.297315
0.297315
0.297316
0.297316
0.297316
0.297316
0.297316
0.297316
0.297316
0.297316
0.297317
0.29732
0.297334
0.297376
0.297485
0.297726
0.298155
0.298935
0.299378
0.300341
0.300176
0.296976
0.271365
0.111965
0.115232
0.272399
0.295599
0.297234
0.297312
0.297315
0.297316
0.297316
0.297316
0.297316
0.297316
0.297316
0.297316
0.297316
0.297316
0.297316
0.297317
0.29732
0.297332
0.297371
0.297471
0.297694
0.298083
0.298808
0.299189
0.30017
0.300135
0.297015
0.27155
0.112017
0.114675
0.272147
0.295569
0.297232
0.297313
0.297316
0.297316
0.297316
0.297316
0.297316
0.297316
0.297316
0.297316
0.297316
0.297316
0.297316
0.297317
0.29732
0.297331
0.297366
0.297459
0.297664
0.298019
0.298683
0.299005
0.299966
0.299821
0.297043
0.271687
0.111925
0.114166
0.271914
0.295541
0.297232
0.297313
0.297316
0.297316
0.297316
0.297316
0.297316
0.297316
0.297316
0.297316
0.297316
0.297316
0.297316
0.297317
0.297319
0.297329
0.297362
0.297447
0.297635
0.297959
0.298562
0.298841
0.299733
0.299512
0.297074
0.271833
0.11187
0.113708
0.271705
0.295518
0.29723
0.297313
0.297316
0.297316
0.297316
0.297316
0.297316
0.297316
0.297316
0.297316
0.297316
0.297316
0.297316
0.297316
0.297319
0.297328
0.297357
0.297435
0.297606
0.297898
0.298442
0.29869
0.299486
0.299247
0.297103
0.271876
0.11189
0.113298
0.271517
0.295496
0.297229
0.297313
0.297316
0.297316
0.297316
0.297316
0.297316
0.297316
0.297316
0.297316
0.297316
0.297316
0.297316
0.297316
0.297318
0.297326
0.297353
0.297423
0.297577
0.297838
0.298321
0.298544
0.299268
0.29918
0.297312
0.272143
0.111907
0.112931
0.271347
0.295476
0.297228
0.297313
0.297316
0.297316
0.297316
0.297316
0.297316
0.297316
0.297316
0.297316
0.297316
0.297316
0.297316
0.297316
0.297318
0.297325
0.297349
0.29741
0.297547
0.297776
0.298206
0.298448
0.29936
0.299958
0.298708
0.273469
0.112099
0.112607
0.2712
0.295459
0.297227
0.297313
0.297316
0.297316
0.297316
0.297316
0.297316
0.297316
0.297316
0.297316
0.297316
0.297316
0.297316
0.297316
0.297318
0.297324
0.297344
0.297398
0.297516
0.297721
0.298161
0.29874
0.300748
0.304189
0.305763
0.278987
0.112881
0.112326
0.271072
0.295444
0.297226
0.297313
0.297316
0.297316
0.297316
0.297316
0.297316
0.297316
0.297316
0.297316
0.297316
0.297316
0.297316
0.297316
0.297317
0.297322
0.29734
0.297385
0.297491
0.297726
0.298499
0.300596
0.309743
0.326349
0.331765
0.296899
0.115248
0.112082
0.270962
0.295431
0.297225
0.297313
0.297316
0.297316
0.297316
0.297316
0.297316
0.297316
0.297316
0.297316
0.297316
0.297316
0.297316
0.297316
0.297317
0.297321
0.297335
0.297376
0.297516
0.298027
0.300393
0.312781
0.342735
0.366487
0.364934
0.331394
0.122492
0.111875
0.270871
0.29542
0.297224
0.297313
0.297316
0.297316
0.297316
0.297316
0.297316
0.297316
0.297316
0.297316
0.297316
0.297316
0.297316
0.297316
0.297317
0.29732
0.297333
0.297395
0.29773
0.29954
0.311813
0.346624
0.386453
0.32694
0.275365
0.279008
0.139432
0.111705
0.270797
0.295412
0.297224
0.297313
0.297316
0.297316
0.297316
0.297316
0.297316
0.297316
0.297316
0.297316
0.297316
0.297316
0.297316
0.297316
0.297316
0.297319
0.297343
0.297516
0.298679
0.307207
0.337402
0.395233
0.322479
0.236398
0.178515
0.178949
0.149758
0.111566
0.270738
0.295405
0.297224
0.297313
0.297316
0.297316
0.297316
0.297316
0.297316
0.297316
0.297316
0.297316
0.297316
0.297316
0.297316
0.297316
0.297316
0.297323
0.297397
0.297973
0.302694
0.323304
0.363665
0.339671
0.246371
0.172978
0.119638
0.111379
0.135109
0.111459
0.270696
0.295401
0.297223
0.297313
0.297316
0.297316
0.297316
0.297316
0.297316
0.297316
0.297316
0.297316
0.297316
0.297316
0.297316
0.297316
0.297317
0.297341
0.297573
0.299573
0.311955
0.308541
0.341545
0.262867
0.181971
0.114093
0.0959063
0.120457
0.201669
0.11138
0.270668
0.295399
0.297223
0.297313
0.297316
0.297316
0.297316
0.297316
0.297316
0.297316
0.297316
0.297316
0.297316
0.297316
0.297316
0.297316
0.297321
0.297392
0.298055
0.303903
0.291045
0.307794
0.275701
0.20596
0.142074
0.0761568
0.0698775
0.0801693
0.113679
0.0871736
0.0873653
0.0875579
0.0877506
0.0879434
0.0881361
0.088329
0.0885219
0.0887148
0.0889078
0.0891008
0.0892939
0.089487
0.0896801
0.0898733
0.0900666
0.0902599
0.0904532
0.0906466
0.09084
0.0910335
0.091227
0.0914206
0.0916142
0.0918079
0.0920016
0.0921953
0.0923891
0.0925829
0.0927768
0.0929707
0.0931646
0.0933586
0.0935527
0.0937468
0.0939409
0.094135
0.0943293
0.0945235
0.0947178
0.0949121
0.0951065
0.0953009
0.0954954
0.0956899
0.0958844
0.096079
0.0962736
0.0964683
0.096663
0.0968577
0.0970525
0.0972473
0.0974422
0.097637
0.097832
0.098027
0.098222
0.098417
0.0986121
0.0988073
0.0990024
0.0991976
0.0993929
0.0995882
0.0997835
0.0999788
0.100174
0.10037
0.100565
0.100761
0.100956
0.101152
0.101347
0.101543
0.101739
0.101935
0.10213
0.102326
0.102522
0.102718
0.102914
0.10311
0.103306
0.103502
0.103698
0.103894
0.10409
0.104286
0.104482
0.104679
0.104875
0.105071
0.105267
0.105464
0.10566
0.105857
0.106053
0.10625
0.106446
0.106643
0.106839
0.107036
0.107233
0.107429
0.107626
0.107823
0.10802
0.108216
0.108413
0.10861
0.108807
0.109004
0.109201
0.109398
0.109595
0.109792
0.10999
0.110187
0.110384
0.110581
0.110778
0.110976
0.111172
0.111365
0.253377
0.2536
0.25378
0.253956
0.25413
0.254303
0.254475
0.254647
0.254818
0.254989
0.255158
0.255327
0.255496
0.255663
0.25583
0.255997
0.256162
0.256327
0.256491
0.256655
0.256818
0.25698
0.257141
0.257302
0.257462
0.257622
0.257781
0.257939
0.258096
0.258253
0.25841
0.258565
0.25872
0.258874
0.259028
0.259181
0.259334
0.259485
0.259637
0.259787
0.259937
0.260086
0.260235
0.260383
0.260531
0.260677
0.260824
0.260969
0.261114
0.261259
0.261403
0.261546
0.261689
0.261831
0.261972
0.262113
0.262253
0.262393
0.262532
0.262671
0.262809
0.262946
0.263083
0.263219
0.263355
0.26349
0.263625
0.263759
0.263892
0.264025
0.264158
0.26429
0.264421
0.264552
0.264682
0.264812
0.264941
0.26507
0.265198
0.265325
0.265452
0.265579
0.265705
0.26583
0.265955
0.26608
0.266204
0.266327
0.26645
0.266572
0.266694
0.266816
0.266937
0.267057
0.267177
0.267296
0.267415
0.267534
0.267652
0.267769
0.267886
0.268003
0.268119
0.268234
0.268349
0.268464
0.268578
0.268692
0.268805
0.268917
0.26903
0.269141
0.269253
0.269364
0.269474
0.269584
0.269694
0.269803
0.269911
0.27002
0.270127
0.270234
0.270341
0.270452
0.270577
0.292501
0.292551
0.292588
0.292624
0.29266
0.292696
0.292731
0.292765
0.2928
0.292834
0.292868
0.292902
0.292935
0.292968
0.293001
0.293034
0.293066
0.293098
0.29313
0.293161
0.293193
0.293224
0.293254
0.293285
0.293315
0.293345
0.293375
0.293404
0.293433
0.293462
0.293491
0.29352
0.293548
0.293576
0.293604
0.293632
0.293659
0.293686
0.293713
0.29374
0.293766
0.293793
0.293819
0.293845
0.29387
0.293896
0.293921
0.293946
0.293971
0.293995
0.29402
0.294044
0.294068
0.294092
0.294116
0.294139
0.294162
0.294185
0.294208
0.294231
0.294254
0.294276
0.294298
0.29432
0.294342
0.294364
0.294385
0.294406
0.294427
0.294448
0.294469
0.29449
0.29451
0.294531
0.294551
0.294571
0.294591
0.29461
0.29463
0.294649
0.294668
0.294687
0.294706
0.294725
0.294744
0.294762
0.29478
0.294799
0.294817
0.294835
0.294852
0.29487
0.294887
0.294905
0.294922
0.294939
0.294956
0.294973
0.294989
0.295006
0.295022
0.295039
0.295055
0.295071
0.295087
0.295102
0.295118
0.295134
0.295149
0.295164
0.29518
0.295195
0.29521
0.295224
0.295239
0.295254
0.295268
0.295283
0.295297
0.295311
0.295325
0.295339
0.295353
0.295368
0.295385
0.29696
0.296966
0.29697
0.296974
0.296978
0.296981
0.296985
0.296989
0.296993
0.296996
0.297
0.297003
0.297007
0.29701
0.297014
0.297017
0.29702
0.297024
0.297027
0.29703
0.297033
0.297036
0.297039
0.297042
0.297045
0.297048
0.297051
0.297054
0.297057
0.29706
0.297063
0.297065
0.297068
0.297071
0.297074
0.297076
0.297079
0.297081
0.297084
0.297086
0.297089
0.297091
0.297094
0.297096
0.297099
0.297101
0.297103
0.297105
0.297108
0.29711
0.297112
0.297114
0.297117
0.297119
0.297121
0.297123
0.297125
0.297127
0.297129
0.297131
0.297133
0.297135
0.297137
0.297139
0.29714
0.297142
0.297144
0.297146
0.297148
0.29715
0.297151