/*--------------------------------*- C++ -*----------------------------------*\
| =========                 |                                                 |
| \\      /  F ield         | OpenFOAM: The Open Source CFD Toolbox           |
|  \\    /   O peration     | Version:  2112                                  |
|   \\  /    A nd           | Website:  www.openfoam.com                      |
|    \\/     M anipulation  |                                                 |
\*---------------------------------------------------------------------------*/
FoamFile
{
    version     2.0;
    format      ascii;
    arch        "LSB;label=32;scalar=64";
    class       volScalarField;
    location    "0.00568";
    object      k;
}
// * * * * * * * * * * * * * * * * * * * * * * * * * * * * * * * * * * * * * //

dimensions      [0 2 -2 0 0 0 0];

internalField   nonuniform List<scalar> 
13875
(
812.099
3462.62
3540.37
3539.39
3541.49
3540.03
3540.94
3542.18
3539.72
3540.13
3541.99
3541.34
3540.78
3540.17
3540.42
3541.36
3542.04
3540.77
3540.63
3540.21
3541.22
3539.04
3540.1
3460.47
820.45
881.796
2936.6
3013.02
3000.68
3001.22
2998.52
2997.64
2999.4
2997.36
2996.98
2997.4
2998.44
2996.45
2996.36
2996.16
2998.63
2996.31
2997.17
2997.02
2998.7
3000.54
2999.34
3011.6
2933.51
894.556
993.36
2710.82
2777.45
2755.34
2758.96
2755.45
2746.8
2746.4
2743.92
2743.12
2742.89
2744.3
2751.16
2752.12
2750.85
2744.85
2741.36
2743.04
2745.52
2755.37
2757.8
2753.22
2774.41
2706.42
998.494
1091.06
2533.65
2580.97
2561.46
2566.79
2563.16
2553.04
2551.2
2548.63
2548.13
2548.05
2548.38
2558.99
2559.98
2558.82
2548.94
2547.57
2547.73
2551.37
2563.04
2565.57
2559.46
2579.01
2529.59
1094.04
1172.09
2380.43
2413.14
2392.78
2398.1
2394.31
2384.06
2381.91
2380.11
2380
2379.72
2379.44
2389.92
2391.38
2389.87
2379.99
2379.4
2379.14
2382.54
2394.16
2396.87
2391.22
2410.36
2375.77
1177.56
1240.98
2237.07
2270.88
2244.8
2251.27
2246.16
2234.4
2232.13
2231.04
2231.24
2230.64
2229.89
2240.51
2242.28
2240.52
2230.43
2230.67
2230
2233.25
2245.77
2250.04
2243.76
2267.76
2247.51
1247.16
1320.95
2121.76
2158.31
2120.23
2123.21
2116.11
2102.39
2099.25
2098.7
2099.12
2098.2
2097.01
2107.82
2109.7
2107.61
2097.47
2098.74
2097.79
2101.73
2115.59
2121.87
2119.8
2154
2095.79
1323.12
1409.74
2000.62
2073.5
2019.57
2016.37
2003.62
1986.26
1981.64
1981.24
1981.8
1980.6
1978.65
1989.77
1991.99
1989.57
1979.07
1981.68
1980.74
1985.63
2002.19
2014.08
2017.96
2068.23
1992.72
1419.89
1691.42
2029.41
2022.08
1944.47
1925.29
1906.25
1884.5
1877.84
1877.5
1878.36
1877.05
1874.31
1885.7
1888.32
1885.65
1875
1878.5
1877.55
1883.56
1903.84
1922.78
1942.31
2017.92
2033.48
1716.39
2508.98
2285.16
2017.99
1901.19
1860.05
1827.9
1803.06
1795.73
1794.68
1795.21
1793.86
1790.72
1801.65
1804.76
1802.11
1792.62
1795.67
1795.82
1801.92
1824.91
1855.85
1892.25
2011.26
2265.52
2528.85
3877.49
3028.06
2154.76
1917.85
1817.87
1773.98
1746.04
1735.61
1733.34
1732.77
1731.23
1727.94
1737.78
1741.25
1739.61
1732.57
1734.69
1736.65
1745.93
1770.3
1814.5
1908.18
2130.31
2936.88
3858.15
5186.72
6463.12
2853.86
1995.52
1858.42
1760.57
1714.9
1699.57
1694
1691.66
1689.74
1686.8
1694.66
1698.29
1698.28
1694.14
1696.03
1701.38
1714.29
1759.42
1847.33
1972.06
2786.06
6321.69
5119.67
5058.65
7641.36
7049.02
3336.19
2047.8
1801.46
1748.42
1707.67
1692.96
1685.42
1681.76
1678.54
1684.07
1687.65
1689.81
1690.14
1696.75
1712.08
1751.92
1813.66
2093.92
3228.97
6753.77
7648.15
5010.03
4826.98
6367.86
7184.4
8796.42
5182.16
2359.38
1916.01
1812.64
1770.36
1761.5
1758.58
1756.52
1761.26
1764.43
1767.18
1768.42
1775.26
1811.64
1947.61
2473.26
5674.44
8138.09
6961.35
6333.82
4831.02
4607.78
5533.05
6064
7054.87
6795.18
6850.74
3585.32
2485.53
2245.38
2108.28
2068.67
2049.77
2052.13
2057.44
2069.08
2101.7
2203.99
2459.23
3522.98
6883.93
6934.96
6713.6
5970.47
5495.04
4683.27
4308.33
4823.45
5173.44
5987.73
6105.31
6655.54
5718.14
4988.32
5241.64
4786.33
4676.04
4725.72
4792.24
4765.74
4695.63
4627.02
5306.79
5282.15
5699.41
6757.09
6133.29
5771.32
5094.84
4784.24
4371.37
3765.47
4096.62
4429.25
5221.47
5726.78
6658.76
7609.97
9012.28
7808.29
6570.04
6593.15
6819.94
6927.76
6917.32
6733.73
6523.71
7456.75
8996.55
8126.18
6785.73
5748.74
5113.66
4307.74
3991.3
3744
3105.4
3469.06
4126.64
5099.21
5726.85
6399.53
7631.5
9259.77
6809.35
5391.43
5226.63
5307.55
5397.42
5374.83
5299.76
5437.38
6540.3
8594.01
7971.73
6570.38
5882.22
5181.65
4086.29
3390.26
3058.69
2661.38
3259.54
4171.16
5604.81
6230.09
5840.29
6337.2
7498.65
6410.3
5148.91
4681.78
4568.14
4586.42
4620.66
4712.73
5043.85
6030.16
7150.13
6563.6
5927.19
6487.55
5878.1
4228.19
3265.99
2654.28
2550.04
3414.82
4484.71
5749.67
5853.38
5245.43
5348.02
6197.68
5949.09
5014.77
4355.31
4042.82
3985.97
4101.13
4387.69
4891.25
5632.58
5996.32
5477.88
5337.26
6003.71
5886.13
4620.15
3531.83
2553.21
3616.99
6646.47
5355.29
4941.08
5038.23
4604.01
4639.77
5343.31
5433.13
4734.42
4012.16
3591.97
3499.09
3675.32
4073.41
4631.13
5176.37
5215.49
4743.55
4707.53
5152.07
5050.33
5654.45
6623.29
3123.45
9180.65
17926.8
6333.41
4262.14
4367.44
4065.44
4112.83
4723.07
4930.73
4360.19
3648.29
3194.77
3081.64
3281.53
3710.17
4259.57
4707.34
4642.36
4211.2
4160.69
4445.17
4361.43
7009.71
18347.1
8715.12
11322.7
14375.5
5745.8
3790.09
3831.88
3634.41
3684.05
4221.29
4452.47
3960.1
3292.05
2846.51
2722.71
2917.01
3334.81
3853.63
4251.87
4163.08
3770.88
3716.38
3874.41
3858.81
6179.11
17306.9
12106
10898.3
12561
4930.47
3433.95
3398.25
3268.44
3317.82
3788.4
4015.09
3555.43
2939.57
2531.37
2419.05
2602.22
2990.57
3468.48
3842.25
3737.63
3390.82
3354.64
3447.12
3486.98
5195.62
13245.5
11900.5
10566.6
11292.4
4352.81
3163.44
3059.98
2959.54
3020.66
3417.27
3614.49
3197.9
2638.02
2267.15
2164.43
2331
2688.81
3127.05
3467.94
3370.72
3073.65
3041.46
3113.36
3212.17
4517.3
11782
11411.5
10164.1
10371.7
3898.58
2933.95
2790.99
2699.15
2771.33
3102.65
3257.39
2879.41
2379.88
2044.55
1948.77
2098.49
2419.39
2809.76
3121.53
3053.28
2805.63
2765.88
2837.5
2974.53
3976.39
10370
10840.4
9753.47
9450.55
3517.47
2724.37
2570.48
2481.28
2563.06
2827.55
2927.43
2587.68
2147.58
1852.4
1766.15
1902.95
2192.34
2540.96
2822.89
2783.88
2580.38
2535.82
2618.69
2773.46
3608.29
9554.2
10459
9514.39
8960.33
3254.13
2541.97
2390.33
2304.15
2381.02
2592
2648.15
2340.19
1952.95
1690.39
1610.21
1733.46
1990.11
2297.04
2552.42
2546.55
2388.03
2344.02
2432.95
2584.33
3326.68
8997.01
10141.7
9397.46
8696.13
3068.11
2383.3
2234.91
2159.92
2225.28
2385.17
2403.03
2127.93
1785.83
1551.18
1476.29
1585.67
1811.69
2081.65
2310.98
2335.07
2221.35
2185.68
2270.75
2418.7
3106.39
8490.77
9886.95
9137.38
8289.48
2914.21
2241.58
2097.63
2039.7
2089.29
2198.84
2179.61
1929.77
1632.32
1428.14
1360.58
1461.81
1663.7
1902.59
2109.17
2153.96
2077.89
2056.29
2130.26
2280.44
2970.95
8324.19
9769.25
8860.35
7857.92
2815.6
2129.07
1977.76
1929.74
1968.58
2037.07
1991.55
1767.61
1504.67
1322.45
1259.98
1351.25
1529.88
1741.43
1927.01
1991.49
1951.59
1940.36
2003.86
2164.24
2871.22
8091.99
9490.7
8634.07
7478.33
2740.38
2044.69
1878.21
1830.19
1859.2
1895.82
1832.34
1626.96
1393.17
1230.53
1172.78
1255.14
1413.35
1602.24
1771.35
1848.85
1837.74
1834.38
1898.42
2075.78
2794.82
7680.06
9127.41
8343.76
7020.54
2671.1
1983.52
1788.8
1739.37
1758.42
1766.93
1685.21
1499.77
1292.75
1148.19
1095.87
1172.32
1315.19
1486.04
1639.32
1724.5
1735.71
1738.99
1804.04
2010.44
2748.02
7320.43
8818.75
8142.94
6699.79
2661.45
1948.3
1717.5
1659.87
1663.65
1654.07
1561.78
1391.96
1206.36
1076.55
1028.73
1097.99
1225.78
1379.74
1519.76
1612.71
1638.37
1653.82
1725.1
1968.35
2721.61
6946.53
8519.11
7980.02
6450.26
2630.14
1932.88
1671.72
1584.72
1576.86
1552.81
1453.3
1298.81
1131.08
1012.92
968.712
1032.38
1147.84
1288.31
1416.18
1511.59
1549.16
1574.42
1671.77
1948.77
2684.88
6609.3
8300.48
7744.24
6123.55
2538.26
1936.53
1642.05
1519.69
1495.24
1457.62
1354.99
1212.81
1061.45
955.444
916.069
975.316
1080.49
1209.05
1327.67
1423.32
1468.23
1506.16
1636.66
1949.68
2615.15
6390.81
8114.46
7549.68
5880.84
2451.01
1963.25
1631
1466.82
1423.56
1372.42
1269.57
1140.48
1002.17
904.888
868.22
923.276
1018.96
1137.31
1245.79
1339.49
1395.5
1449.32
1617.64
1963.11
2518.36
6074.38
7844.4
7389.09
5666.39
2398.15
2010.33
1640.66
1427.76
1359.73
1296.27
1195.82
1075.65
948.582
859.797
826.128
876.905
964.04
1073.22
1174.02
1265.04
1330.84
1405.34
1617.85
2024.9
2450.82
5835.07
7623.56
7183.17
5433.38
2287.32
1996.44
1666.84
1404.12
1307.22
1228.3
1128.12
1016.01
899.692
818.581
787.462
835.808
916.292
1017.46
1111.87
1200.58
1278.57
1376.56
1646.29
2048.63
2386.91
5639.4
7448.91
7006.66
5242.79
2182.03
1949.12
1723.28
1393.81
1265.74
1171.07
1071.07
964.125
856.439
781.787
752.841
797.597
871.286
965.293
1054.92
1142.67
1235.34
1362.38
1685.23
1991.78
2263.25
5427.53
7275.99
6871.52
5084.94
2096.61
1883.16
1793.5
1406.1
1237.38
1125.26
1021.85
918.129
817.738
748.137
720.799
762.784
830.915
918.934
1005.94
1096.9
1206.06
1370.81
1774.27
1922.89
2143.82
5261.09
7128.39
6737.84
4919.94
1994.78
1802.18
1803.49
1442.21
1219.51
1090.65
979.326
876.255
781.436
717.053
691.85
731.616
795.159
879.209
965.644
1063.53
1186.46
1406.51
1812.54
1843.75
2066.75
5140.24
7022.43
6636.28
4780.24
1921.59
1718.36
1746.98
1526.99
1220.49
1066.26
946.262
841.19
749.817
688.979
664.887
702.496
762.084
843.264
932.277
1037.49
1176.96
1480.65
1763.06
1750.95
1972.87
5014.47
6887.7
6558.92
4657.94
1896.02
1642.09
1674.53
1578.54
1255.5
1049.47
922.982
813.184
722.492
663.948
640.932
676.55
733.192
814.033
909.091
1020.04
1198.59
1554.2
1690.91
1664.48
1895.15
4912.42
6782.36
6468.13
4527.54
1827.53
1570.58
1591.86
1552.59
1328.31
1047.02
904.684
792.322
698.799
641.439
619.478
653.891
709.671
793.261
890.52
1017.38
1265.46
1553.51
1606.93
1594.83
1878.73
4817.86
6691.32
6392.21
4399.07
1811.78
1510.58
1509.49
1495.4
1405.47
1088.73
895.494
776.685
682.151
623.298
599.946
634.959
692.181
776.629
877.736
1043.29
1375.29
1497.94
1523.73
1528.96
1842.6
4702.79
6590.15
6316.02
4286.72
1813.94
1462.65
1440.68
1432.93
1402.16
1185.93
906.302
764.384
670.06
610.332
585.56
621.5
679.347
763.129
880.267
1135.71
1418.84
1436.86
1453.97
1475.76
1827.32
4578.16
6482.12
6186.17
4141
1781
1418.39
1381.18
1368.91
1354.92
1272.59
964.952
757.4
659.175
600.852
575.722
611.842
668.392
755.964
935.226
1241.02
1367.03
1373.77
1395.27
1437.52
1841.68
4436.35
6319.25
5985.92
3969.33
1757.15
1381.12
1331.1
1310.2
1305.57
1274.75
1087.22
779.274
652.07
591.593
566.751
602.053
659.72
770.307
1051.86
1261.83
1311.88
1315.14
1342.94
1398.57
1813.16
4246.17
6094.19
5494.93
3702.03
1720.27
1344.34
1288.44
1261.15
1253.67
1233.6
1168.32
862.205
657.351
585.782
559.728
595.589
659.951
841.729
1145.28
1221.82
1255.26
1264.85
1298.7
1360.83
1764.32
3945.28
5596.41
695.289
945.073
1162.51
1254.61
1323.03
1312.66
1270.42
1227.31
1214.27
1235.4
1278.66
1325.05
1366.07
1398.13
1387.54
1270.1
1137.87
1063.02
1002.19
967.182
951.914
937.44
924.623
910.325
888.783
854.419
796.46
704.116
573.45
417.986
749.233
998.078
1231.66
1325.71
1409.6
1398.32
1338.09
1271.97
1235.09
1236.61
1270.42
1316.06
1360.63
1398.1
1397.45
1309.83
1171.24
1083.41
1015.11
966.063
944.664
926.764
911.108
894.647
872.102
837.377
779.589
688.128
560.076
413.168
798.965
1063.72
1343.49
1442.26
1545.42
1524.28
1442.12
1341.73
1265.33
1237.65
1253.88
1295.25
1338.15
1372.59
1373.25
1316.24
1186.71
1094.98
1020.19
963.328
932.835
911.617
894.2
876.1
851.962
816.12
758.784
668.4
544.697
408.462
854.172
1136.48
1511.39
1640.71
1782.3
1749.82
1639.05
1471.82
1332.53
1257.16
1243.59
1273.59
1314.68
1349.36
1353.95
1319.07
1208.58
1113.71
1028.19
962.274
919.504
895.49
876.383
856.668
830.958
793.781
736.458
647.31
528.137
401.106
900.084
1222.83
1778.77
1979.15
2210.83
2161.09
1981.76
1702.7
1459.1
1304.07
1240.12
1248.08
1284.24
1317.1
1326.08
1300.22
1222.89
1131.79
1039.03
960.775
908.394
878.074
857.115
835.803
808.489
769.618
711.981
625.194
511.456
394.221
947.575
1351
2204.28
2569.62
2960.79
2877.05
2589.8
2113.09
1689.72
1401.74
1258.64
1227.87
1250.22
1281.05
1296.23
1277.77
1223.78
1148.7
1056.2
962.935
899.428
860.257
836.929
813.71
784.61
744.089
686.437
603.36
496.49
389.267
997.798
1552.55
2877.91
3570.39
4049.11
3902.2
3549.29
2798.01
2067.02
1566
1305.85
1216.52
1216.14
1240.48
1259.54
1250.29
1212.02
1159.88
1077.27
972.393
891.078
844.398
816.479
791.335
760.712
719.128
662.654
582.663
481.976
385.642
1061.48
1880.54
3878.38
4579.66
4765.62
4510.42
4234.73
3654.92
2613.44
1822.13
1395.52
1222.38
1187.53
1199.11
1218.25
1217.39
1194.99
1147.48
1102.87
992.054
887.932
829.703
797.838
771.169
739.317
696.385
640.248
562.551
466.094
376.823
1148.19
2410.81
4851.84
5199.8
4993.17
4582.01
4405.65
4079.66
3176.98
2140.87
1529.1
1247.67
1165.78
1161.21
1174.88
1180.21
1172.44
1125.65
1113.52
1024.34
894.381
815.788
779.724
751.865
719.272
675.228
613.901
532.255
440.271
360.66
1269.37
3193.31
5713.04
5599.16
4989.83
4406.62
4261.48
4163.95
3492.11
2433.7
1677.42
1289.68
1153.12
1127.75
1132.09
1139.67
1141.36
1101.93
1096.16
1075.89
916.94
806.369
756.998
727.027
689.252
639.295
576.479
499.285
416.073
346.693
1441
4217.43
6538.97
5932.24
4981.12
4256.92
4051.02
4121.86
3532.24
2611.11
1792.87
1335.6
1145.76
1097.37
1091.06
1098.99
1107.18
1078
1069.07
1081.69
965.624
802.754
730.915
690.329
651.416
602.565
544.285
474.566
399.294
337.524
1682.84
5389.23
7306.21
6243.64
4974.74
4094.36
3796.03
4009.36
3490.52
2679.11
1847.8
1358.77
1135.7
1068.15
1053.7
1061.94
1075.95
1055.9
1043.14
1065.34
1043.36
819.925
709.622
659.747
619.61
574.048
519.686
454.968
385.711
329.727
2012.24
6538.62
8028.23
6524.55
4958.69
3951.69
3568.22
3806.23
3397.22
2637.12
1840.04
1343.79
1115.77
1039.54
1021.33
1029.92
1050.06
1038.47
1023.26
1045.43
1063.77
891.195
702.374
636.34
592.652
549.353
497.874
437.488
373.484
322.68
2410.67
7685.6
8745.63
6751.88
4940.71
3864.46
3423.72
3615.63
3285.56
2528.43
1784.16
1306.74
1086.86
1009.64
991.976
1003.87
1031.81
1028.45
1010.02
1030.57
1053.85
1014.12
733.916
619.549
571.105
526.512
478.176
421.713
362.567
316.259
2863.36
8876.05
9429.33
6894.04
4945.46
3835.84
3350.84
3439.85
3188.19
2393.81
1694.87
1255.56
1053.02
981.183
969.058
985.883
1022.13
1027.63
1003.58
1021.94
1041.17
1051.38
849.202
622.206
553.002
506.582
460.35
407.516
352.888
310.423
3384.32
10136.7
10084.5
7055.68
4992.33
3836
3308.54
3253.09
3038.3
2290.21
1594.46
1201.33
1022.36
962.351
955.029
976.022
1021.55
1039.93
1004.4
1016.53
1032.07
1047.14
1002.57
681.656
542.772
490.552
443.933
394.897
344.435
305.19
3997.26
11481.1
10733.1
7273.38
5100.01
3869.85
3298.44
3090.19
2776.47
2176.51
1511.13
1157.25
1008.03
952.286
950.223
973.981
1024.16
1055.66
1013.35
1016.02
1025.64
1034.79
1036.21
854.065
562.875
478.022
430.266
383.354
336.894
300.5
4739.81
12903.8
11410.1
7576.72
5265.95
3970.14
3345.85
2980.98
2575.18
2029.49
1489.85
1152.56
1014.78
954.702
954.676
980.365
1031.53
1061.29
1030.11
1021.84
1022.16
1023.09
1025.76
983.256
666.808
478.976
419.752
372.311
329.694
295.872
5556.34
14373.8
12162.4
7996.18
5484.8
4136.72
3464.28
2974.96
2476.04
1925.19
1474.86
1190.38
1037.07
980.144
979.087
1004.79
1045.42
1062.53
1047.27
1032.53
1020.63
1010.98
1005.19
994.045
864.397
526.26
414.921
364.446
321.393
289.782
6432.53
15951.4
13027.2
8543.89
5809.64
4402.02
3665.05
3071.96
2477.47
1887.44
1480.42
1242.75
1090.56
1029.95
1019.66
1035.64
1058.72
1051.36
1044.34
1036.53
1020.9
998.15
984.211
970.646
926.054
671.664
429.626
358.857
316.062
283.475
7792.13
17407.3
13967.5
9264.72
6317.33
4802.34
3984.74
3314.46
2625.69
1965.06
1550.97
1314.72
1174.59
1089.61
1063.08
1065.52
1061.91
1036.28
1031.49
1023.45
1008.47
984.602
962.885
944.294
914.912
814.13
495.525
360.149
312.726
280.24
8828.11
19169.2
15209.8
10283.5
7084.95
5362.3
4435.81
3723.98
2970.2
2204.13
1704.92
1425.11
1272.68
1154.97
1106.93
1085.61
1053.55
1023.02
1014.58
1005.84
987.943
967.161
942.212
919.274
888.356
836.868
642.488
383.309
311.242
278.284
9903.74
20131
16493.2
11681.6
8173.34
6137.1
4993.69
4249.56
3496.5
2626.17
1965.07
1588.17
1371.82
1231.61
1146.65
1089.33
1044.62
1015.74
999.152
985.112
965.309
944.976
922.039
896.933
863.918
822.846
733.561
457.212
316.506
276.969
10633.5
21632.7
18341.7
13790.4
9786.62
7220.85
5713.42
4857.92
4124.08
3216.69
2376.03
1821.69
1491.85
1317.61
1186.07
1103.35
1045.05
1015.17
988.822
968.02
947.852
926.725
903.071
877.025
843.799
804.093
748.672
590.384
345.356
277.888
10709.5
21678.3
21601.9
17225.4
12146.3
8701.37
6678.31
5594
4811.55
3952.1
2984.05
2183.83
1672.06
1402.72
1227.66
1122.1
1052.9
1018.11
984.934
958.833
937.781
914.963
888.818
860.645
827.465
788.264
740.453
658.534
423.621
285.913
419.668
575.79
706.292
797.521
854.305
888.379
909.774
924.373
937.326
951.055
966.352
1004.54
1067.2
1147.5
1287.71
1383.52
1389.72
1355.83
1313.89
1265.98
1224.04
1207.94
1225.77
1269.28
1311.87
1320.09
1248.59
1161.03
942.979
700.691
414.668
562.218
689.991
780.416
837.078
871.861
894.4
911.19
927.106
943.902
966.953
1018.5
1089.2
1182.86
1324.52
1393.25
1388.29
1349.72
1304.48
1257.78
1228.11
1233.27
1278.92
1348.14
1405.7
1414.06
1327.11
1234.81
997.018
754.135
409.829
546.598
670.051
759.43
815.846
851.915
875.997
894.436
912.366
932.27
964.99
1024.63
1101.94
1198.28
1326.6
1367.75
1362.66
1327.6
1283.63
1243.26
1233.09
1269.86
1356.21
1464.54
1546.13
1562.94
1453.62
1356.49
1064.07
803.168
402.387
529.906
648.926
736.988
793.627
831.095
856.712
876.691
896.496
919.621
964.579
1033.96
1122.08
1220.26
1318.74
1347.72
1339.21
1304.79
1262.82
1236.14
1259.53
1347.9
1501.56
1683.15
1796.85
1820.26
1668.17
1535.42
1140.43
858.443
395.208
512.984
626.692
712.481
769.684
808.767
835.972
857.522
879.228
909.949
964.248
1046.21
1140.68
1232.88
1298.78
1319.92
1307.45
1274.41
1239.21
1238.75
1317.71
1492.71
1760.61
2069.81
2251.22
2283.94
2030.32
1814.69
1232.38
904.819
390.031
497.687
604.56
686.953
744.373
784.985
813.978
837.46
861.549
901.755
967.919
1064.67
1158.61
1231.14
1275.97
1289.78
1272.23
1241.85
1223.42
1266.28
1431.57
1754.45
2224.3
2748.01
3025.49
3090.24
2663.55
2260.69
1370.06
953.267
386.22
482.913
583.711
663.046
719.407
760.995
791.469
817.004
845.842
894.188
979.006
1085.48
1164.06
1217.76
1246.74
1252.85
1232.59
1210.19
1218.04
1326.35
1622.03
2178.61
2987.75
3738.59
4055.13
4193.28
3716.65
2965.52
1584.9
1005.46
377.287
467.038
563.628
640.405
696.613
739.13
770.896
798.023
831.293
892.382
999.522
1109.74
1150.37
1199.03
1213.3
1212.33
1193.39
1184.68
1231.94
1433.46
1910.85
2781.21
3844.8
4359.15
4594.45
4871.18
4695.14
3983.83
1933.52
1072.25
360.995
441.207
533.235
614.496
674.95
718.455
751.091
779.6
817.661
899.932
1030.84
1114.49
1129.14
1172.29
1175.83
1170.37
1158.27
1168.24
1267.52
1586.8
2259.9
3355.53
4203.58
4459.52
4629.84
5083.96
5309.13
4956.11
2490.88
1163.79
347.062
417.181
500.464
577.455
639.764
689.219
726.279
756.927
808.968
922.82
1077
1095.02
1105.7
1138.84
1135.74
1129.32
1127.52
1160.84
1320.51
1751.77
2563.48
3618.59
4231.28
4280.74
4476.82
5087.76
5727.39
5834.98
3301.83
1292.61
337.845
400.434
475.953
545.766
603.795
652.397
691.044
732.084
806.751
970.67
1077.92
1066.72
1080.74
1104.05
1095.72
1090.16
1099.92
1158.72
1375.36
1872.23
2741.51
3640.8
4177.04
4087.34
4338.73
5093.42
6089.97
6678.91
4345.53
1476.75
329.907
386.665
456.154
521.101
575.46
621.039
661.177
711.922
825.086
1041.99
1059.6
1039.78
1058.15
1071.91
1059.24
1054.29
1073.47
1152.52
1403.47
1930.4
2791.9
3593.81
4059.05
3835.39
4175.16
5096.63
6427.65
7468.95
5520.99
1736.14
322.754
374.274
438.49
499.122
550.69
594.127
638.071
705.68
894.76
1055.62
1038.15
1019.31
1039.33
1045.64
1027.7
1022.98
1046.24
1134.73
1390.17
1926.38
2739.13
3506.15
3849.11
3605.59
4030.09
5080.76
6726.29
8231.41
6664.37
2080.25
316.265
363.234
422.583
479.283
527.802
572.584
621.552
737.036
1008.8
1043.35
1021.73
1004.58
1028.14
1026.59
1001.4
993.771
1016.48
1105.33
1351.77
1866.81
2627.06
3399.63
3645.8
3469.11
3948.33
5065.48
6959.74
8977.48
7820.02
2485
310.377
353.433
408.229
461.297
507.791
554.483
624.271
847.963
1039.82
1029.72
1012.08
997.139
1026.45
1016.3
982.851
969.822
987.085
1069.21
1294
1771.2
2493.01
3299.19
3468.42
3406.99
3925.25
5071.65
7106.01
9691.79
9033.85
2944.36
305.103
344.857
395.428
444.701
491.637
544.196
681.813
992.697
1033.98
1019.88
1005.66
996.961
1040.2
1014.51
972.429
954.913
967.068
1037.17
1231.67
1654.57
2390.37
3127.67
3300.13
3372.79
3935.27
5126.44
7279.6
10383.3
10322.2
3468.56
300.359
337.124
383.745
430.885
478.991
563.577
846.791
1023.59
1021.32
1012.85
1004.67
1006.27
1051.82
1015.26
969.109
948.942
954.643
1020.47
1182.37
1563.17
2263.24
2857.87
3156.5
3369.68
3974.78
5243.77
7519.33
11068.5
11694.6
4080.97
295.628
329.571
372.605
420.286
479.693
663.548
971.898
1012.88
1009.77
1009.51
1011.3
1022.75
1056.78
1021.34
973.367
951.156
955.986
1021.93
1173.8
1529.8
2089.59
2642.67
3053.66
3422.3
4076.79
5421.28
7837.76
11776.6
13145.4
4824.31
289.291
320.948
364.678
415.415
525.811
855.539
982.56
992.41
998.219
1009.03
1025.73
1040.22
1058.02
1036.29
997.795
973.428
980.205
1041.09
1208.83
1504.94
1971.1
2542.16
3053.48
3546.78
4245.07
5649.24
8274.88
12567.4
14645.6
5638.79
283.083
315.598
359.127
430.094
668.184
917.288
959.394
971.781
986.63
1009.97
1027.58
1037.12
1047.63
1050.48
1028.24
1014.15
1026.83
1093.33
1254.95
1507.56
1934.4
2549.17
3154.76
3749.64
4513.7
5982.46
8845.15
13471.9
16272.9
6502.12
279.89
312.524
360.755
495.97
808.823
906.404
933.568
951.459
974.568
999.707
1015.47
1024.78
1034.19
1057.7
1058.67
1060.17
1088
1179.24
1320.84
1572.92
2014
2697.94
3395.64
4070.77
4923.7
6510.45
9585.91
14438.1
17763.2
7914.38
277.994
311.655
384.795
641.491
830.598
880.47
909.838
932.479
958.761
981.284
996.833
1009.06
1021.34
1051.69
1085.33
1105.85
1157.45
1280.14
1437.68
1732.64
2262.91
3048.63
3810.15
4533.44
5503.9
7302.6
10633.8
15697.4
19551.8
8942.09
276.766
317.313
459.486
730.235
816.352
856.767
887.497
914.539
939.534
961.576
978.555
994.769
1013.18
1046.24
1097.6
1149.94
1235.48
1380.14
1610.79
2010.45
2703.22
3590.1
4355.27
5117.66
6309.87
8430.97
12074.7
16966.4
20525.4
10012.4
277.68
346.931
591.988
744.232
797.801
837.799
869.818
897.255
922.804
945.415
965.122
985.553
1013.33
1047.1
1107.46
1191.37
1321.66
1503.56
1855.84
2445.25
3317.42
4233.55
4984.19
5860.1
7423.12
10083.2
14225.5
18788.5
21972.3
10733.5
286.018
427.564
656.891
735.41
782.184
821.54
854.676
883.598
911.276
934.831
958.641
983.552
1016.45
1055.47
1127.62
1236.58
1412.56
1698.51
2237.58
3075.41
4068.59
4929.68
5735.88
6859.83
8947.08
12489.4
17683.6
21982.9
21995.5
10794
1274.54
1248.67
1209.81
1171.95
1135.76
1099.42
1064.36
1029.49
996.313
963.977
933.419
904.193
876.558
850.252
825.655
802.354
781.187
761.419
743.217
726.704
711.262
697.605
685.253
674.303
664.849
655.62
650.362
652.11
660.229
676.675
703.76
744.522
803.809
880.761
974.054
1078.27
1188.61
1302.16
1417.1
1525.24
1624.38
1705.53
1772.22
1823.18
1865.24
1908.76
1936.11
1903.42
1814.01
1702.05
1600.68
1512.45
1437.94
1369.14
1289.45
1205.29
1123.09
1047.87
979.765
925.558
886.342
861.058
841.413
824.294
810.866
800.283
790.763
780.917
771.489
761
751.165
742.647
735.636
730.508
727.021
724.372
721.941
719.599
717.274
714.898
712.557
710.408
708.469
706.718
705.119
703.346
700.849
697.322
692.849
687.755
682.387
677.033
671.989
667.551
663.786
660.525
657.501
654.389
650.944
647.072
642.873
638.734
634.974
631.284
627.013
622.549
618.199
613.521
609.185
606.522
606.412
609.227
613.848
619.054
625.036
632.632
642.377
653.433
655.958
652.65
632.523
557.024
463.175
376.145
313.196
1038.07
1027.83
1001
981.233
960.131
940.584
921.685
902.74
885.145
870.102
856.849
845.611
835.96
828.087
821.723
817.285
814.65
814.687
816.013
822.551
832.654
846.794
868.866
894.794
928.419
972.721
1039.09
1127.49
1243.5
1396.03
1595.28
1844.72
2138.07
2462.72
2808.58
3158.21
3514.68
3849.37
4163.7
4450.67
4711.9
4942.78
5136.43
5282.29
5375.1
5438.66
5476.64
5458.08
5267.34
4953.71
4592.63
4232.85
3873.64
3522.86
3180.09
2861.16
2577.94
2330.51
2104.84
1908.65
1737.29
1588.49
1469.91
1377.19
1306.53
1256.47
1217.69
1186.75
1161.84
1142.21
1126.9
1113.97
1102.5
1093.62
1087.01
1080.97
1073.87
1064.96
1053.87
1040.77
1026.49
1011.93
997.517
983.348
969.449
955.643
941.692
927.669
913.762
899.995
886.286
872.608
859.026
845.527
832.085
818.648
805.42
792.748
780.572
768.904
758.038
748.886
742.28
738.157
737.235
739.584
744.435
750.981
758.049
765.98
776.499
790.576
812.458
833.614
855.924
866.991
845.8
792.636
747.934
704.082
664.165
633.906
617.574
600.987
550.603
1107.55
1110.2
1091.38
1080.74
1067.75
1057.07
1046.84
1036.63
1026.37
1019.78
1015.58
1013.75
1017.8
1025.34
1037.78
1057.23
1080.34
1115.7
1152.12
1205.24
1270.17
1348.69
1453.92
1577.08
1733.91
1929.84
2168.66
2455.13
2798.91
3182.66
3587.91
4022.78
4434.33
4835.04
5226.95
5606.82
5977.86
6340.58
6685.08
7009.18
7313.02
7604.57
7881.03
8130.39
8335.84
8473.8
8534.48
8552.34
8530.28
8354.67
8035.71
7622.66
7107.96
6482.6
5800.1
5138.65
4546.95
4027.9
3552.14
3139.45
2791.86
2498.18
2256.74
2064.47
1904.03
1762.66
1645.21
1554.93
1488.08
1439.85
1404.96
1379.3
1360.18
1346.47
1335.96
1325.67
1313.47
1298.49
1280.71
1260.8
1239.32
1216.75
1193.4
1169.26
1144.39
1119.58
1095.88
1073.78
1053.3
1034.22
1016.26
999.009
982.027
965.147
948.561
932.737
918.227
905.675
896.087
889.847
886.895
886.292
886.799
888.149
890.78
895.339
901.9
910.994
923.282
941.498
958.459
970.578
965.985
914.788
857.685
801.62
752.675
715.684
691.568
672.926
661.213
654.524
656.969
665.512
671.141
1266.9
1284.49
1276.28
1277.86
1274.9
1277.24
1281.52
1291.39
1304.76
1328.04
1357.52
1390.18
1438.17
1491.34
1560.38
1643.26
1735.78
1859.88
1982.2
2142.26
2324.02
2521.25
2736.68
2970.54
3285.2
3655.19
4052.41
4426.85
4774.82
5090.07
5353.65
5583.91
5798.21
6007.54
6236.49
6502.88
6814.98
7174.82
7566.62
7981.73
8416.82
8852.65
9263.1
9672.44
10049.8
10326.1
10431.5
10340.6
10127.5
9850.5
9542.22
9200.9
8891.97
8516.74
7959.68
7341.98
6726.64
6112.51
5431.65
4771.51
4210.1
3726.73
3320.07
2989.93
2718.7
2485.01
2285.02
2121.99
2000.59
1915.03
1855.58
1815.72
1792.16
1780.79
1773.13
1760.85
1739.52
1708.57
1669.36
1624.31
1575.6
1525.29
1475.46
1426.89
1379.59
1334.42
1292.03
1251.99
1213.92
1178.05
1144.86
1114.61
1087.36
1062.96
1041.28
1022.4
1006.65
994.307
985.6
980.61
978.987
980.088
983.814
990.088
998.748
1008.61
1016.21
1007.98
985.443
952.509
909.499
859.839
811.343
770.067
740.07
718.72
706.136
701.228
698.168
696.586
691.714
692.374
700.001
711.125
723.088
1667.79
1722.79
1737.25
1776
1792.06
1838.21
1883.05
1934.81
1993.12
2072.83
2170.53
2278.1
2414.97
2547.15
2705.34
2873.88
3056.58
3268.52
3455.44
3658.88
3870.99
4078.31
4307
4543.39
4747.28
4926.99
5077.09
5203.9
5298.19
5392.78
5510.39
5676.03
5917.42
6264.24
6742.43
7368.03
8141.05
9051.19
10070.7
11122
12176.1
13160.7
14062.3
14798.8
15360.9
15686.1
15687.8
15323
14643.4
13727.3
12709.2
11709.1
10754.3
9866
9103.31
8409.35
7826.36
7360.53
6898.21
6329.15
5653.01
5031.24
4521.05
4117.66
3790.81
3515.12
3286.16
3106.74
2991.73
2941.23
2939
2962.53
3003.18
3047.84
3074.74
3068.46
3021.15
2932.86
2814.27
2675.94
2525.9
2371.35
2219.44
2076.11
1944.71
1825.43
1718.11
1621.86
1535.14
1457.29
1388.17
1327.68
1275.39
1230.65
1192.78
1161.55
1137.15
1119.69
1109.04
1104.31
1103.5
1102.48
1097.27
1084.75
1060.13
1023.36
977.593
925.523
874.896
830.158
793.407
766.267
746.789
733.873
726.388
722.966
721.438
723.406
724.908
724.471
728.011
734.299
743.69
755.542
768.531
2948.54
3095
3120.85
3230.29
3288.78
3368.84
3459.82
3586.16
3697.09
3795.8
3882.75
3982
4102.69
4207.73
4324.38
4414.5
4504.55
4605.73
4682.81
4739.42
4790.55
4847.36
4895.76
4934.73
4961.59
4978.84
5006.71
5079.64
5222.96
5491.67
5930.01
6599.33
7551.29
8818.57
10409.3
12300.8
14430.7
16719.3
19076.5
21407.7
23542.6
25412.9
26966
28155.7
28813
28961.5
28508.7
27453.9
25879.5
23892.7
21673
19389.2
17178.2
15119
13174.1
11441.5
10064.1
9009.8
8217.28
7594.04
6984.8
6288.23
5652.85
5136.73
4748.92
4499.59
4374.27
4381.08
4527.03
4799.19
5148.83
5532.38
5893.03
6181.41
6321.71
6334
6216.17
5978.07
5653.18
5268.69
4857.27
4442.82
4038.02
3657.07
3307.04
2988.6
2705.07
2456.46
2238.67
2048.68
1885.65
1747.97
1632.45
1535.59
1454.48
1386.04
1328
1277.96
1233.31
1189.71
1143.47
1094.18
1042.32
988.606
937.498
891.992
853.432
822.787
798.594
780.313
767.656
759.388
754.011
750.5
748.267
748.667
749.705
750.604
753.91
758.965
764.33
771.536
781.592
794.664
807.692
6772.9
7096.44
6909.34
6946.96
6831.99
6789.56
6711.53
6608.99
6481.25
6347.84
6187.31
6034.71
5871.14
5714.7
5595.33
5470.59
5355.5
5261.94
5178.44
5101.61
5039.87
4991.24
4973.25
4980.36
5037.89
5171.13
5442.78
5924.14
6719.3
7931.22
9653.26
11947.3
14823.6
18247.7
22127.4
26327.5
30662.4
34936.9
38992.9
42708.3
45958.9
48548.5
50392.1
51523.3
51879.6
51378
49985.8
47752.7
44851.6
41441.9
37746.4
33938.8
30126.2
26441.4
23035.2
20004.1
17289.9
14932.7
12984.5
11417.3
10138.2
9085.71
8218.64
7527.38
7051.07
6911.63
7094.2
7544.09
8226.06
9072.43
10001.2
10917.6
11715.4
12284.9
12531.4
12491.8
12194.9
11681.7
10982.5
10151.3
9245.65
8331.22
7464.25
6662.28
5929.45
5271.01
4680.13
4146.49
3664.08
3233.67
2860.06
2541.39
2272.11
2047.01
1857.94
1695.17
1553.05
1428.04
1316.31
1216.92
1129.97
1056.12
994.648
944.881
905.21
873.049
847.427
827.213
811.683
799.844
791.637
786.058
782.478
780.196
777.866
776.039
778.999
784.259
790.088
795.321
800.478
809.484
820.274
831.147
842.305
12967.9
13101.3
12228.2
11834
11202.5
10724.8
10137.8
9672.4
9162.33
8681.87
8149.6
7671.47
7250.28
6872.01
6552.68
6274.85
6038.29
5847.78
5701.36
5599.51
5550.04
5572.12
5688.67
5945.83
6440.1
7305.35
8708.8
10817.4
13764.1
17651.5
22477.4
28094.3
34323.9
40966.8
47757.8
54362.5
60545.1
66052.8
70698.3
74408.5
77168.8
78976.5
79885.1
79850.6
78896.2
77033.6
74256.2
70711.2
66610.1
62175.8
57618.3
53039.2
48465.2
43960.3
39606.2
35504.5
31749.8
28388
25478.1
23055.4
21118.8
19619.9
18465.6
17614.9
17166.4
17320.2
17906