/*--------------------------------*- C++ -*----------------------------------*\
| =========                 |                                                 |
| \\      /  F ield         | OpenFOAM: The Open Source CFD Toolbox           |
|  \\    /   O peration     | Version:  2112                                  |
|   \\  /    A nd           | Website:  www.openfoam.com                      |
|    \\/     M anipulation  |                                                 |
\*---------------------------------------------------------------------------*/
FoamFile
{
    version     2.0;
    format      ascii;
    arch        "LSB;label=32;scalar=64";
    class       volScalarField;
    location    "0.00187";
    object      p;
}
// * * * * * * * * * * * * * * * * * * * * * * * * * * * * * * * * * * * * * //

dimensions      [1 -1 -2 0 0 0 0];

internalField   nonuniform List<scalar> 
13875
(
951470
984037
973650
975543
973399
974428
974608
974362
974836
974781
975115
974783
974786
974683
974225
974485
974673
973855
974342
974246
973023
975571
972409
982509
945193
733671
659215
672128
677007
670320
668544
668569
670305
677658
678809
678423
670052
669244
669246
669999
677334
677553
670548
668601
668397
669912
677050
672340
657284
730758
736760
635671
664634
653738
648427
646069
645164
645702
647893
645845
648348
645334
645078
644530
645296
645243
647565
645395
644786
645602
647601
652042
662055
632233
733516
743408
636336
665536
653899
648720
646274
645317
645756
645076
643456
645193
645402
645195
644623
645385
643664
644393
645439
644927
645788
647871
652162
662805
632841
739236
757246
639404
668151
654626
649623
646883
645760
645989
645145
643597
645276
645654
645517
644931
645660
643814
644470
645651
645347
646332
648663
652748
665100
635493
750499
759180
648220
674082
656673
651567
648184
646693
646556
645430
644068
645585
646220
646170
645598
646230
644299
644777
646179
646232
647510
650402
654625
670705
643257
751964
765710
669134
686708
661840
655602
650856
648586
647820
646265
645195
646441
647410
647476
646961
647374
645415
645732
647427
648073
650100
654311
660339
682320
666061
756251
793008
720267
713638
676001
664436
656586
652538
650645
648519
647649
648428
649845
650135
649710
649788
647885
648071
650142
651785
655356
662419
673463
707596
715884
782622
914946
832993
771254
708010
682636
668185
660581
656665
653770
652876
652990
654910
655582
655284
654854
653185
653410
655935
659301
665927
678922
702306
761596
824552
911827
1.54915e+06
1.04345e+06
845460
749920
707480
685435
674119
667981
664704
663642
663187
665492
666595
666420
665462
664308
664636
667189
672458
682457
702473
741903
833292
1.02897e+06
1.52516e+06
2.98591e+06
1.43566e+06
997442
824983
751345
716894
700068
691548
687624
685921
685128
687257
688877
688765
687561
687193
687829
690391
697174
711384
740918
804136
953515
1.36079e+06
2.884e+06
5.84598e+06
2.40839e+06
1.44047e+06
1.02487e+06
854210
788632
759694
746119
739901
737086
735970
736761
739045
738828
738041
738599
740313
744617
755248
779226
834233
972061
1.3026e+06
2.30183e+06
5.63349e+06
5.65013e+06
4.85352e+06
3.22293e+06
1.76534e+06
1.15241e+06
991533
926524
896280
882001
875503
873219
870427
874572
872976
873701
875900
881164
893140
919322
975364
1.11141e+06
1.53753e+06
2.39563e+06
4.91452e+06
5.40765e+06
5.12308e+06
4.72579e+06
4.97554e+06
4.92044e+06
2.09706e+06
1.66678e+06
1.50249e+06
1.41627e+06
1.37935e+06
1.36008e+06
1.36084e+06
1.34032e+06
1.36035e+06
1.34454e+06
1.35036e+06
1.35708e+06
1.37413e+06
1.41114e+06
1.49419e+06
1.66346e+06
2.12985e+06
4.64372e+06
5.07704e+06
4.80898e+06
4.84995e+06
4.22453e+06
4.37542e+06
4.88178e+06
5.20615e+06
5.15912e+06
4.03924e+06
3.7277e+06
3.40283e+06
3.37544e+06
3.17182e+06
3.24892e+06
3.08902e+06
3.19974e+06
3.12135e+06
3.15084e+06
3.17622e+06
3.25188e+06
3.41477e+06
3.67207e+06
3.85143e+06
4.81328e+06
4.98455e+06
5.00454e+06
4.54776e+06
4.47506e+06
3.84293e+06
3.9296e+06
4.67437e+06
5.4087e+06
6.7682e+06
8.00834e+06
9.37716e+06
9.2142e+06
9.82378e+06
9.46953e+06
9.86227e+06
9.57571e+06
9.81525e+06
9.61983e+06
9.76807e+06
9.62717e+06
9.69052e+06
9.42285e+06
9.4018e+06
8.48252e+06
7.13337e+06
5.516e+06
4.95767e+06
4.15473e+06
4.16231e+06
3.06335e+06
3.5986e+06
4.78557e+06
5.54097e+06
6.76624e+06
7.68469e+06
7.82267e+06
7.70418e+06
7.5054e+06
7.45516e+06
7.16672e+06
7.34403e+06
7.08748e+06
7.28258e+06
7.25999e+06
7.38553e+06
7.51664e+06
7.71061e+06
7.75064e+06
7.87033e+06
7.20624e+06
5.91154e+06
5.08209e+06
3.87503e+06
3.43713e+06
2.52844e+06
3.3749e+06
4.68999e+06
5.29661e+06
5.85974e+06
6.10636e+06
5.87619e+06
5.88044e+06
5.88232e+06
5.91115e+06
5.9228e+06
5.94275e+06
5.94019e+06
5.94319e+06
5.9431e+06
5.93895e+06
5.92636e+06
5.9277e+06
5.94404e+06
6.12189e+06
6.22762e+06
5.74683e+06
5.07847e+06
3.43165e+06
2.49511e+06
1.36361e+06
2.36931e+06
3.87467e+06
4.29181e+06
4.50932e+06
4.70083e+06
4.83055e+06
5.01534e+06
5.16706e+06
5.26623e+06
5.3306e+06
5.36642e+06
5.38848e+06
5.38682e+06
5.36628e+06
5.32523e+06
5.24849e+06
5.12404e+06
4.97737e+06
4.85502e+06
4.7302e+06
4.58724e+06
4.13999e+06
2.70625e+06
1.51937e+06
686648
1.61779e+06
2.73381e+06
3.19304e+06
3.41413e+06
3.70469e+06
4.07885e+06
4.40269e+06
4.60528e+06
4.72801e+06
4.81448e+06
4.86425e+06
4.89317e+06
4.89086e+06
4.85891e+06
4.79843e+06
4.69728e+06
4.51852e+06
4.20628e+06
3.80506e+06
3.51349e+06
3.31183e+06
2.85283e+06
1.81199e+06
740297
722423
1.2082e+06
1.83358e+06
2.27004e+06
2.60708e+06
3.0154e+06
3.48662e+06
3.84359e+06
4.05975e+06
4.20156e+06
4.30351e+06
4.3625e+06
4.39108e+06
4.38234e+06
4.33768e+06
4.25497e+06
4.12797e+06
3.92716e+06
3.55782e+06
3.05131e+06
2.62857e+06
2.31175e+06
1.90391e+06
1.2293e+06
764914
924162
1.03988e+06
1.27087e+06
1.71437e+06
2.07619e+06
2.55092e+06
2.99125e+06
3.32076e+06
3.54022e+06
3.69311e+06
3.79958e+06
3.86018e+06
3.8878e+06
3.87212e+06
3.81927e+06
3.72423e+06
3.57926e+06
3.36964e+06
3.03122e+06
2.56653e+06
2.07282e+06
1.72133e+06
1.31738e+06
1.06096e+06
968619
1.3491e+06
1.04983e+06
1.08222e+06
1.39157e+06
1.73203e+06
2.20677e+06
2.5821e+06
2.86536e+06
3.07815e+06
3.22962e+06
3.33268e+06
3.39078e+06
3.41504e+06
3.39579e+06
3.33828e+06
3.23964e+06
3.09038e+06
2.88196e+06
2.59893e+06
2.21993e+06
1.72486e+06
1.3934e+06
1.11724e+06
1.07737e+06
1.41345e+06
1.43722e+06
1.07522e+06
1.08433e+06
1.23836e+06
1.51486e+06
1.907e+06
2.22139e+06
2.47863e+06
2.67102e+06
2.80833e+06
2.91273e+06
2.96626e+06
2.98929e+06
2.9675e+06
2.90976e+06
2.8103e+06
2.66654e+06
2.47503e+06
2.21842e+06
1.90382e+06
1.52158e+06
1.24833e+06
1.10182e+06
1.09972e+06
1.43151e+06
1.43717e+06
1.11692e+06
1.09559e+06
1.16724e+06
1.36848e+06
1.6606e+06
1.91986e+06
2.15145e+06
2.32427e+06
2.44902e+06
2.54199e+06
2.59251e+06
2.61214e+06
2.59306e+06
2.5373e+06
2.44679e+06
2.3119e+06
2.13904e+06
1.90841e+06
1.6501e+06
1.37436e+06
1.17737e+06
1.11086e+06
1.13712e+06
1.43132e+06
1.44154e+06
1.17931e+06
1.12155e+06
1.13015e+06
1.25936e+06
1.46225e+06
1.67574e+06
1.87547e+06
2.02645e+06
2.13773e+06
2.22294e+06
2.26442e+06
2.28602e+06
2.26467e+06
2.21566e+06
2.13019e+06
2.00987e+06
1.85798e+06
1.66178e+06
1.45201e+06
1.26993e+06
1.14433e+06
1.13305e+06
1.18456e+06
1.43002e+06
1.45372e+06
1.28187e+06
1.16774e+06
1.1302e+06
1.18233e+06
1.3146e+06
1.48356e+06
1.64824e+06
1.77834e+06
1.87575e+06
1.94771e+06
1.9852e+06
1.99934e+06
1.98397e+06
1.93684e+06
1.86436e+06
1.75969e+06
1.62896e+06
1.4669e+06
1.30092e+06
1.18325e+06
1.13323e+06
1.16972e+06
1.27524e+06
1.43971e+06
1.49607e+06
1.47059e+06
1.21101e+06
1.1281e+06
1.12592e+06
1.1964e+06
1.32138e+06
1.4529e+06
1.56191e+06
1.64706e+06
1.71216e+06
1.74291e+06
1.75733e+06
1.73998e+06
1.70345e+06
1.63809e+06
1.5487e+06
1.44056e+06
1.3128e+06
1.18941e+06
1.12865e+06
1.1303e+06
1.20429e+06
1.44117e+06
1.47121e+06
1.59167e+06
1.55444e+06
1.23609e+06
1.11916e+06
1.09031e+06
1.11417e+06
1.19901e+06
1.2986e+06
1.38705e+06
1.45749e+06
1.50961e+06
1.53827e+06
1.54872e+06
1.5351e+06
1.5017e+06
1.44847e+06
1.37345e+06
1.28466e+06
1.18866e+06
1.10817e+06
1.09086e+06
1.11828e+06
1.22755e+06
1.50696e+06
1.54502e+06
1.79289e+06
1.5983e+06
1.25033e+06
1.10652e+06
1.05728e+06
1.05369e+06
1.09734e+06
1.1661e+06
1.23456e+06
1.2926e+06
1.33947e+06
1.36117e+06
1.37102e+06
1.35709e+06
1.33207e+06
1.2847e+06
1.22396e+06
1.1562e+06
1.08933e+06
1.04786e+06
1.05341e+06
1.10213e+06
1.25012e+06
1.57234e+06
1.69495e+06
1.84806e+06
1.63834e+06
1.27653e+06
1.09253e+06
1.01788e+06
999496
1.0175e+06
1.06234e+06
1.1117e+06
1.15653e+06
1.19191e+06
1.2123e+06
1.21929e+06
1.20955e+06
1.18576e+06
1.15056e+06
1.1048e+06
1.05705e+06
1.01311e+06
997310
1.01589e+06
1.08786e+06
1.26639e+06
1.60488e+06
1.84864e+06
1.84716e+06
1.65646e+06
1.32286e+06
1.0926e+06
985439
951455
948408
974368
1.0063e+06
1.03786e+06
1.06861e+06
1.08201e+06
1.09058e+06
1.0808e+06
1.06437e+06
1.03414e+06
1.00144e+06
969857
945610
948348
980699
1.08167e+06
1.29314e+06
1.62594e+06
1.8479e+06
1.83775e+06
1.66158e+06
1.38459e+06
1.09485e+06
954689
904894
893371
902162
922607
942622
962564
975063
980151
973591
957890
939101
917708
897391
889692
901763
950121
1.0843e+06
1.34317e+06
1.6298e+06
1.84324e+06
1.81959e+06
1.66112e+06
1.51276e+06
1.10801e+06
934873
862995
839696
836751
846110
857614
873480
879676
885732
879494
871213
855419
844089
835675
839954
862054
929843
1.09086e+06
1.42241e+06
1.62749e+06
1.8254e+06
1.78468e+06
1.65739e+06
1.56741e+06
1.13679e+06
930301
830255
793321
784723
784652
789296
797225
802626
805361
802095
794817
787515
782653
781461
791343
828650
927812
1.11218e+06
1.55496e+06
1.62255e+06
1.78908e+06
1.75582e+06
1.63808e+06
1.56505e+06
1.16697e+06
932530
803500
751097
733303
728850
728830
732426
733246
736588
732644
731278
727683
727836
732515
751483
802336
931688
1.15389e+06
1.55937e+06
1.60891e+06
1.7177e+06
1.70901e+06
1.59826e+06
1.55991e+06
1.22926e+06
943914
789169
718220
691327
681585
678489
677252
676970
678046
676750
676634
677801
680754
689264
717496
788055
939031
1.21213e+06
1.55169e+06
1.57325e+06
1.67488e+06
1.66259e+06
1.5506e+06
1.54599e+06
1.35356e+06
969826
789766
692372
652941
637119
631087
629166
625906
627530
626339
628903
631640
637986
653437
692296
788773
958430
1.32952e+06
1.53453e+06
1.52471e+06
1.62952e+06
1.63275e+06
1.50535e+06
1.50889e+06
1.35312e+06
1.00104e+06
793785
678601
624704
602377
592725
587034
584689
584668
585105
586974
593596
602903
623728
678477
796771
999635
1.33579e+06
1.49757e+06
1.48138e+06
1.58917e+06
1.5973e+06
1.46454e+06
1.43482e+06
1.34903e+06
1.06691e+06
808573
679175
602409
569982
556140
550896
545930
546669
546665
551228
557476
571662
603286
678808
806722
1.06388e+06
1.32984e+06
1.41836e+06
1.44297e+06
1.56283e+06
1.55276e+06
1.42665e+06
1.35792e+06
1.33522e+06
1.19836e+06
839853
684019
593040
548025
529247
518927
515143
514386
515440
519235
530587
549464
593198
682576
828993
1.194e+06
1.31417e+06
1.33971e+06
1.40891e+06
1.52991e+06
1.51997e+06
1.39615e+06
1.29689e+06
1.29952e+06
1.19654e+06
887088
690714
593521
531718
503197
491867
485855
485368
485191
492298
504267
533220
593769
696073
877082
1.19366e+06
1.28051e+06
1.28071e+06
1.37846e+06
1.49008e+06
1.47277e+06
1.36863e+06
1.25027e+06
1.22824e+06
1.18692e+06
986326
709510
598341
527692
489023
468859
462456
460578
462496
469146
490735
528246
596299
718106
959756
1.17815e+06
1.21035e+06
1.23247e+06
1.34777e+06
1.45827e+06
1.42288e+06
1.34046e+06
1.2177e+06
1.168e+06
1.1614e+06
1.0442e+06
746471
611082
528588
475195
451141
439940
438473
440192
451759
476650
528922
603748
762419
1.03878e+06
1.14478e+06
1.15156e+06
1.20048e+06
1.32115e+06
1.41975e+06
1.38539e+06
1.30598e+06
1.19061e+06
1.11211e+06
1.10529e+06
1.03919e+06
810472
633998
530987
475218
440922
425474
420798
425698
441669
476745
533737
623083
855840
1.03384e+06
1.0791e+06
1.09954e+06
1.17796e+06
1.28886e+06
1.37101e+06
1.34506e+06
1.27482e+06
1.17069e+06
1.07305e+06
1.04069e+06
1.02476e+06
942670
683692
541175
477105
440042
415413
409051
415590
439773
477748
543829
655664
921471
1.01462e+06
1.02275e+06
1.06202e+06
1.1584e+06
1.25842e+06
1.3384e+06
1.30025e+06
1.23283e+06
1.15156e+06
1.04682e+06
992130
992217
941363
785538
564874
482621
440721
415262
403727
415458
440294
481351
566484
720981
918601
973564
978315
1.03549e+06
1.13953e+06
1.22538e+06
1.29656e+06
1.25938e+06
1.19834e+06
1.12907e+06
1.02783e+06
956157
940912
928799
848029
609781
493650
442598
415706
404209
416077
443425
492588
617035
841677
909694
924338
946579
1.01664e+06
1.11716e+06
1.19043e+06
1.24799e+06
1.1774e+06
1.14443e+06
1.10082e+06
1.01132e+06
931145
898632
900596
845708
704427
517860
449752
417992
406280
418104
451051
515402
716656
840443
887670
885410
924425
1.00088e+06
1.09243e+06
1.13775e+06
1.1623e+06
1.04773e+06
1.0735e+06
1.05655e+06
992691
915836
861124
852120
833984
769852
569020
468488
424541
411878
424082
469372
564125
767108
830030
843842
851077
909120
983228
1.04866e+06
1.06769e+06
1.03711e+06
70998.9
70906.1
70993.6
70965.8
70980
70925.5
70910.2
70904.8
70946.8
70964.8
70950.7
70895.8
70819.8
70749.3
70697.8
70666.7
70650.3
70642.2
70638.6
70637.2
70636.6
70636.4
70636.2
70636
70634
70638.1
70625.2
70646.7
70600.3
70670.1
70981.2
70900.7
70967.4
70967.9
70992.7
70929
70891.7
70872.6
70928.8
70961.2
70966.3
70922.5
70847.9
70770.9
70711.6
70674.1
70653.8
70643.8
70639.3
70637.5
70636.8
70636.5
70636.2
70636
70634.1
70638
70626.6
70645.7
70616.7
70655.4
70978.3
70909.9
70977.7
70990.5
71027.6
70957.9
70896.6
70864.6
70926.2
70964.4
70987.5
70949.2
70872
70787.9
70721.7
70679.5
70656.3
70644.8
70639.8
70637.7
70636.9
70636.5
70636.3
70636
70634.5
70637.7
70629.8
70643.2
70626.9
70646.5
70997.9
70937.8
71016
71072.4
71126.1
71040.7
70948.7
70897.7
70946
70982.7
71014.5
70975.8
70893.8
70802.5
70730.3
70684
70658.4
70645.7
70640.1
70637.8
70637
70636.6
70636.4
70636.1
70635.1
70637.4
70632
70641.2
70630.8
70642.6
71060.6
71034.1
71145.8
71278.4
71375.8
71270.2
71133.6
71031.2
71026.5
71038.8
71050.8
71001.5
70911.6
70813.7
70736.9
70687.4
70659.9
70646.3
70640.3
70638
70637.1
70636.7
70636.5
70636.2
70635.5
70637.1
70633.5
70639.9
70633.3
70640.3
71211.1
71300
71502.7
71794.3
72008.3
71921.3
71722
71483.7
71304.3
71197.8
71129.2
71034.4
70927.2
70821.6
70741
70689.4
70660.7
70646.6
70640.4
70638
70637.2
70636.8
70636.6
70636.3
70635.9
70636.8
70634.7
70638.9
70634.9
70638.9
71615.9
71996.5
72451.3
73156.7
73748.4
73891.8
73633.5
73010.9
72253.8
71676.3
71342.6
71116.1
70953.1
70829.5
70743.8
70690.4
70661
70646.6
70640.4
70638
70637.2
70636.9
70636.7
70636.4
70636.2
70636.7
70635.5
70638.3
70635.8
70638.2
72735.9
73883.8
74876.7
76306.3
77718.7
78564.1
78569.1
77511.1
75413.7
73333.4
72008.7
71352.5
71030.8
70851
70748.4
70691.2
70661.2
70646.6
70640.3
70638
70637.3
70637
70636.8
70636.6
70636.4
70636.6
70636
70637.8
70636.3
70637.7
75582.9
77929.8
80120.7
83607.9
87312.5
90265.9
91882.6
91038.2
85252.7
78750.4
74482
72159.5
71277
70919.4
70765.1
70694.7
70661.7
70646.6
70640.3
70638
70637.3
70637.1
70636.9
70636.7
70636.6
70636.6
70636.4
70637.5
70636.7
70637.6
82283
87217.2
89143
90551.6
92051
94736.8
98415.7
102460
104956
98438.8
82669.5
75350.9
72153.7
71153.9
70823.7
70707.4
70664.1
70646.9
70640.2
70637.9
70637.2
70637.1
70637
70636.9
70636.7
70636.6
70636.6
70637.3
70636.9
70637.5
88937.4
91064.4
90791.3
91124.5
92075.5
94610.6
98476
103270
108684
113046
110308
87010.7
75726.9
71995.3
71028
70753.3
70673.1
70648.3
70640.2
70637.8
70637.2
70637.2
70637.1
70637
70636.8
70636.7
70636.7
70637.1
70637
70637.5
89136.8
90786.2
90355.1
90633.2
90699.2
92508.3
96838.2
102520
108599
114494
119752
118066
89322.7
75423.7
71742.6
70913.3
70705.6
70653.9
70640.9
70637.7
70637.1
70637.2
70637.2
70637.1
70636.9
70636.7
70636.8
70637
70637.1
70637.5
87886.6
88893.5
88462.6
88339.7
87844.8
88451.2
92452.6
98902.1
106871
114246
120567
126242
123026
88154.8
74558.1
71455.9
70818.3
70674.7
70644.1
70638.1
70637.1
70637.2
70637.2
70637.2
70637
70636.8
70636.8
70637
70637.1
70637.5
85526.3
85921.4
85641.9
85157.6
84559.5
84398.2
87301.3
93538.6
102067
111734
120350
127131
132588
124480
84448.7
73461.7
71186.6
70746.6
70656.2
70639.7
70637.2
70637.1
70637.2
70637.2
70637.2
70637
70636.9
70637
70637.1
70637.5
81997.1
82127.9
82256.7
81651
81047.8
80653.1
82319.1
87991.6
96422.6
106479
117733
127009
134329
138133
118553
80248.2
72446.3
70972.9
70697.9
70646
70637.9
70637.1
70637.3
70637.3
70637.3
70637.1
70636.9
70637
70637.1
70637.4
79719.3
79200.6
79271.7
78505.1
77717.1
77379
78002.7
82436.5
91100.7
100753
112671
124849
134320
141893
141912
105883
76728.1
71702
70824.8
70667.6
70640.8
70637.3
70637.3
70637.3
70637.4
70637.3
70637.1
70636.9
70637
70637.7
76123.4
75831.1
76046.6
75589.4
74809
74454.9
74327.4
77508.8
85798.4
95528.1
107072
120406
132952
142206
149409
140744
91264.7
74088
71209.3
70733
70650.7
70638.4
70637.2
70637.3
70637.3
70637.4
70637.3
70637
70636.8
70636.7
75361.2
75186
74898.2
73296.5
72511.4
71864.7
71610.3
73434.5
80440.3
90662.4
101924
114930
129318
141556
151212
153819
129065
80986.7
72388.7
70918
70681.7
70642.4
70637.5
70637.2
70637.2
70637.2
70637.3
70637.2
70637.3
70637
76141.6
75427.4
73883.4
71923.2
70796.9
69948.3
69579.3
69685.8
75358
85669.1
97166.6
109657
124318
139314
151204
160491
153522
104811
75866.2
71457.6
70763.5
70655.2
70638.9
70637.3
70637.3
70637.3
70637
70637.4
70637.6
70638.1
76172.8
75223.7
74298.4
71352.1
68938.4
67933.5
67556.4
67399.3
71182.2
80632.1
92312.7
104764
119018
135293
150148
162175
163727
145947
85167.4
72987.4
70987.1
70689.2
70643.5
70637.7
70637.2
70637.5
70637.4
70637
70636.7
70636.5
75944
74965.2
75741.5
70206.7
67860.4
67031.5
65737.9
65119.8
67075
75352.4
87590.6
100164
114396
130300
147153
162088
168943
163540
114598
77001.7
71592.3
70774.1
70656.3
70639.2
70637.4
70637.1
70637.7
70637.2
70637
70637
75410.8
74590
76635
72100.7
67044.7
64669.2
63361.5
63059.5
65353.4
71808.1
84273
95880.8
110006
125651
142973
160777
172673
172814
154006
87023.9
73162.4
70989.3
70686
70643.1
70637.8
70637.2
70637.3
70638
70638
70638.1
74052.9
74275.1
78289.2
70858
65241.2
63312.8
62681.3
63599.8
65315.6
69557.9
80695.3
91699.2
105243
120944
138873
157794
175806
178593
173159
117691
76926
71525.5
70757.1
70652.7
70638.6
70637.4
70637.2
70637.4
70637.4
70637.2
76088.9
73011.7
75365.7
67185.5
64008.6
63415.5
64151.6
64431.3
63260.4
66810
78251.4
89602.6
102921
118638
136731
156390
176300
184194
183443
156718
84991.5
72801.8
70920.3
70674.1
70641.3
70637.2
70636.9
70636.8
70636.7
70636.7
57577.1
69936.2
72874.3
67620.8
65881.4
64280
62985.3
61447.2
60985.4
65501.8
77181.1
88880.8
102082
117693
135810
155783
176358
189991
191095
181020
109979
75562.7
71282.4
70721.3
70647.5
70637.8
70636.8
70636.7
70636.7
70637
70670.1
70600.3
70646.7
70625.2
70638.1
70634
70636
70636.2
70636.4
70636.6
70637.2
70638.6
70642.2
70650.3
70666.7
70697.8
70749.2
70819.8
70895.7
70950.6
70964.6
70946.6
70904.7
70910.1
70925.5
70980
70965.8
70993.8
70906.3
70999.1
70655.4
70616.7
70645.7
70626.6
70638
70634.1
70636
70636.2
70636.5
70636.8
70637.5
70639.3
70643.8
70653.8
70674.1
70711.5
70770.9
70847.8
70922.4
70966.1
70961.1
70928.7
70872.5
70891.6
70929
70992.6
70967.8
70967.5
70900.8
70981.3
70646.5
70626.9
70643.2
70629.8
70637.7
70634.5
70636
70636.3
70636.5
70636.9
70637.7
70639.8
70644.8
70656.3
70679.5
70721.7
70787.8
70871.9
70949
70987.3
70964.3
70926.1
70864.5
70896.4
70957.8
71027.6
70990.5
70977.8
70909.9
70978.4
70642.6
70630.8
70641.2
70632
70637.4
70635.1
70636.1
70636.4
70636.6
70637
70637.8
70640.1
70645.7
70658.4
70684
70730.3
70802.5
70893.7
70975.7
71014.3
70982.5
70945.8
70897.4
70948.4
71040.5
71126
71072.3
71016
70937.8
70998
70640.3
70633.3
70639.9
70633.5
70637.1
70635.5
70636.2
70636.5
70636.7
70637.1
70638
70640.3
70646.3
70659.9
70687.4
70736.9
70813.7
70911.5
71001.4
71050.7
71038.5
71026
71030.5
71132.8
71269.6
71375.4
71278.1
71145.6
71033.9
71060.6
70638.9
70634.9
70638.9
70634.7
70636.8
70635.9
70636.3
70636.6
70636.8
70637.2
70638
70640.4
70646.6
70660.7
70689.4
70741
70821.6
70927.1
71034.3
71128.8
71196.9
71302.6
71481.3
71719.3
71918.9
72006.7
71793.5
71502.1
71299.3
71211
70638.2
70635.8
70638.3
70635.5
70636.7
70636.2
70636.4
70636.7
70636.9
70637.2
70638
70640.4
70646.6
70661
70690.4
70743.8
70829.5
70953
71115.6
71341.2
71672.9
72246.8
73001.6
73624.1
73883.9
73743
73153.5
72448.6
71994.6
71614.8
70637.7
70636.3
70637.8
70636
70636.6
70636.4
70636.6
70636.8
70637
70637.3
70638
70640.3
70646.6
70661.2
70691.2
70748.4
70850.8
71030.1
71350.5
72002.8
73319.1
75390
77482.2
78543.1
78541.7
77703.7
76296.6
74868.8
73877.8
72731.9
70637.6
70636.7
70637.5
70636.4
70636.6
70636.6
70636.7
70636.9
70637.1
70637.3
70638
70640.3
70646.6
70661.7
70694.6
70765
70918.7
71274.5
72150.4
74455
78697.6
85143.9
90938.3
91803.1
90206.1
87268.5
83575.7
80095.3
77914.6
75571.9
70637.5
70636.9
70637.3
70636.6
70636.6
70636.7
70636.9
70637
70637.1
70637.2
70637.9
70640.2
70646.8
70664.1
70707.3
70823.2
71151.4
72142.8
75310.8
82565.4
98238.1
104847
102387
98360.8
94690.4
92010.5
90508.7
89101.9
87176.3
82248.5
70637.5
70637
70637.1
70636.7
70636.7
70636.8
70637
70637.1
70637.2
70637.2
70637.8
70640.2
70648.3
70673
70752.8
71025.6
71984
75678
86804.7
110086
112940
108606
103205
98423.2
94564.4
92034.8
91081.5
90753.4
91029.8
88907.4
70637.5
70637.1
70637
70636.8
70636.7
70636.9
70637.1
70637.2
70637.2
70637.1
70637.7
70640.9
70653.9
70705.2
70911.4
71732.9
75372.2
89058.1
117835
119635
114409
108526
102462
96793.9
92464.8
90655.3
90587.3
90316.1
90752.6
89116.4
70637.6
70637.1
70637
70636.8
70636.8
70637
70637.2
70637.2
70637.2
70637.1
70638.1
70644.1
70674.5
70816.9
71448.6
74515.9
87925.1
122773
126112
120470
114163
106811
98854.4
92418.3
88410.4
87799.5
88292.6
88420.5
88858.6
87861.6
70637.5
70637.1
70637
70636.9
70637
70637.2
70637.2
70637.2
70637.1
70637.2
70639.7
70656.1
70745.8
71181.6
73430.7
84264.1
124131
132430
127023
120259
111673
102030
93501.6
87277.5
84356.4
84511.7
85106.7
85592.9
85881.8
85499.1
70637.4
70637.1
70637
70636.9
70637.1
70637.3
70637.3
70637.3
70637.1
70637.9
70645.9
70697.4
70969.9
72426.6
80142.2
118109
137937
134204
126907
117668
106441
96396.8
87962
82297.9
80608.1
80997.1
81589
82195.2
82075.1
81954.6
70637.7
70637
70636.9
70637.1
70637.3
70637.4
70637.3
70637.3
70637.3
70640.7
70667.4
70823.2
71691.4
76660.9
105449
141673
141739
134198
124767
112622
100712
91070.9
82400.1
77972.6
77326.8
77658.9
78428.1
79190.1
79135.6
79669.4
70636.7
70636.8
70637
70637.3
70637.4
70637.3
70637.3
70637.2
70638.4
70650.6
70732.2
71203.8
74050.2
90989.2
140449
149206
142061
132845
120335
107019
95477.6
85762
77458.3
74274.4
74390.4
74733.9
75497
75930.3
75717.9
76047.1
70637
70637.3
70637.2
70637.3
70637.2
70637.2
70637.2
70637.5
70642.4
70681.3
70915.4
72370.1
80871.5
128532
153520
151029
141418
129227
114858
101862
90597.4
80402.2
73378.1
71533
71787.9
72423.1
73184.5
74769.9
75061.2
75261.2
70638.1
70637.6
70637.4
70637
70637.3
70637.3
70637.3
70638.9
70655.1
70762.4
71449.3
75808
104390
153205
160252
151030
139187
124225
109562
97082.2
85582.2
75316.8
69634
69499.7
69874.5
70717.1
71841.5
73822.6
75308.1
76019.3
70636.5
70636.7
70637
70637.4
70637.5
70637.2
70637.7
70643.5
70688.7
70983.7
72961.9
84969.2
145420
163424
161948
149977
135172
118908
104667
92233
80541.8
71147.3
67399.7
67601.9
67992.1
68996.3
71379.6
74269.6
75132
76070
70637
70637
70637.2
70637.7
70637.1
70637.4
70639.1
70656.2
70772.8
71581.8
76928.9
114085
163185
168661
161872
146999
130167
114255
100040
87513.9
75313.1
67131.2
65188.6
65857.5
67133.1
67975.2
70268.2
75722.1
74924.6
75864.2
70638.1
70638
70638
70637.3
70637.2
70637.8
70643
70685.6
70985.8
73133.4
86759.2
153422
172492
172353
160560
142793
125399
109798
95669
84129.3
71736.1
65450.1
63215.9
63455
64731.2
67187.9
72422.4
76693
74663.3
75403.1
70637.2
70637.4
70637.4
70637.2
70637.4
70638.6
70652.6
70756
71515.3
76852.1
117112
172745
178265
175506
157598
138626
120800
105142
91595.8
80670
69630.4
65396.4
63786.4
62753.1
63346.1
65178.3
70637.4
78446.7
74415.6
74123
70636.7
70636.7
70636.8
70636.9
70637.2
70641.2
70673.7
70917.4
72775.8
84791.2
155991
183053
183839
176065
156219
136583
118557
102876
89589.9
78335.2
67103.3
63401.3
64586.1
64343
63700.5
64305.1
67400.3
75567.5
73298.1
76368
70637
70636.7
70636.7
70636.8
70637.8
70647.4
70720.4
71275
75501.6
109395
180517
190719
189644
176142
155627
135724
117644
102070
88944.5
77375.7
65830.2
61103.6
61665.7
63533.7
64901.2
65826.5
67690.7
72934.4
70137.3
57837
70637
70637
70637
70637
70637
70637
70637
70637
70637
70637
70637
70637
70637
70637
70637
70637
70637
70637
70637
70637
70637
70637
70637
70637
70637
70637
70637
70637
70637
70637
70637
70637
70637
70637
70637
70637
70637
70637
70637
70637
70637
70637
70637
70637
70637
70637
70637
70637
70637
70637
70637
70637
70637
70637
70637
70637
70637
70637
70637
70637
70637
70637
70637
70637
70637
70637
70637
70637
70637
70637
70637
70637
70637
70637
70637
70637
70637
70637
70637
70637
70637
70637
70637
70637
70637
70637
70637
70637
70637
70637
70637
70637
70637
70637
70637
70637
70637
70637
70637
70637
70637
70637
70637
70637
70637
70637
70637.1
70637.1
70637.1
70637.1
70637.1
70637.1
70637.1
70637.1
70637.1
70637.1
70637.1
70637.1
70637.1
70637.1
70637.1
70637.1
70637.1
70637.2
70637.2
70637
70637
70637
70637
70637
70637
70637
70637
70637
70637
70637
70637
70637
70637
70637
70637
70637
70637
70637
70637
70637
70637
70637
70637
70637
70637
70637
70637
70637
70637
70637
70637
70637
70637
70637
70637
70637
70637
70637
70637
70637
70637
70637
70637
70637
70637
70637
70637
70637
70637
70637
70637
70637
70637
70637
70637
70637
70637
70637
70637
70637
70637
70637
70637
70637
70637
70637
70637
70637
70637
70637
70637
70637
70637
70637
70637
70637
70637
70637
70637
70637
70637
70637
70637
70637
70637
70637
70637
70637
70637
70637
70637
70637
70637
70637
70637
70637
70637
70637
70637
70637
70637
70637
70637.1
70637.2
70637.3
70637.4
70637.6
70637.6
70637.6
70637.6
70637.5
70637.4
70637.3
70637.2
70637.2
70637.1
70637.1
70637.1
70637.1
70637.1
70637.1
70637.1
70637.1
70637
70637
70637
70637
70637
70637
70637
70637
70637
70637
70637
70637
70637
70637
70637
70637
70637
70637
70637
70637
70637
70637
70637
70637
70637
70637
70637
70637
70637
70637
70637
70637
70637
70637
70637
70637
70637
70637
70637
70637
70637
70637
70637
70637
70637
70637
70637
70637
70637
70637
70637
70637
70637
70637
70637
70637
70637
70637
70637
70637
70637
70637
70637
70637
70637
70637
70637
70637
70637
70637
70637
70637
70637
70637
70637
70637
70637
70637
70637
70637
70637
70637
70637
70637
70637
70637
70637
70637
70637
70637
70637
70637
70637
70637
70637
70637
70637
70637
70637
70637
70637.1
70637.4
70637.9
70638.9
70640.5
70642.3
70644.3
70646.2
70647.6
70648.2
70648.1
70647.2
70645.9
70644.3
70642.6
70641.2
70639.9
70638.9
70638.2
70637.8
70637.5
70637.3
70637.2
70637.1
70637.1
70637
70637
70637
70637
70637
70637
70637
70637
70637
70637
70637
70637
70637
70637
70637
70637
70637
70637
70637
70637
70637
70637
70637
70637
70637
70637
70637
70637
70637
70637
70637
70637
70637
70637
70637
70637
70637
70637
70637
70637
70637
70637
70637
70637
70637
70637
70637
70637
70637
70637
70637
70637
70637
70637
70637
70637
70637
70637
70637
70637
70637
70637
70637
70637
70637
70637
70637
70637
70637
70637
70637
70637
70637
70637
70637
70637
70637
70637
70637
70637
70637
70637
70637
70637
70637
70637
70637
70637
70637
70637
70637
70637
70637
70637
70637
70637
70637
70637.1
70637.5
70638.7
70641.8
70647.5
70657.1
70671.7
70691.6
70715.6
70740.4
70762.5
70777
70780.6
70775.7
70762.1
70742.4
70721.4
70701
70683.6
70669.6
70659.2
70651.6
70646.4
70642.8
70640.4
70638.9
70638
70637.5
70637.1
70637
70637
70637
70637
70637
70637
70637
70637
70637
70637
70637
70637
70637
70637
70637
70637
70637
70637
70637
70637
70637
70637
70637
70637
70637
70637
70637
70637
70637
70637
70637
70637
70637
70637
70637
70637
70637
70637
70637
70637
70637
70637
70637
70637
70637
70637
70637
70637
70637
70637
70637
70637
70637
70637
70637
70637
70637
70637
70637
70637
70637
70637
70637
70637
70637
70637
70637
70637
70637
70637
70637
70637
70637
70637
70637
70637
70637
70637
70637
70637
70637
70637
70637
70637
70637
70637
70637
70637
70637
70637
70637
70637
70637
70637
70637.2
70638.3
70642.2
70652.1
70674.3
70720.4
70808.4
70959.7
71190.2
71494.2
71836.9
72164.3
72428.1
72564.3
72566.4
72447
72218.6
71925.9
71630.3
71357.2
71138
70974
70860.1
70779.7
70726.1
70691.7
70669.9
70656.1
70647.6
70642.3
70639.4
70637
70637
70637
70637
70637
70637
70637
70637
70637
70637
70637
70637
70637
70637
70637
70637
70637
70637
70637
70637
70637
70637
70637
70637
70637
70637
70637
70637
70637
70637
70637
70637
70637
70637
70637
70637
70637
70637
70637
70637
70637
70637
70637
70637
70637
70637
70637
70637
70637
70637
70637
70637
70637
70637
70637
70637
70637
70637
70637
70637
70637
70637
70637
70637
70637
70637
70637
70637
70637
70637
70637
70637
70637
70637
70637
70637
70637
70637
70637
70637
70637
70637
70637
70637
70637
70637
70637
70637
70637
70637
70637
70637
70637.3
70639.1
70646.8
70670.1
70737
70919.6
71344.1
72177.9
73612.8
75833.8
78928.6
82603
86321.2
89597.3
91847.2
92632.6
92020.3
90181.3
87449.1
84277.1
81234.3
78429.6
76089.1
74254.3
72970.1
72072.8
71481.5
71127.6
70922.2
70799.1
70725.8
70683.2
70660.2
70637
70637
70637
70637
70637
70637
70637
70637
70637
70637
70637
70637
70637
70637
70637
70637
70637
70637
70637
70637
70637
70637
70637
70637
70637
70637
70637
70637
70637
70637
70637
70637
70637
70637
70637
70637
70637
70637
70637
70637
70637
70637
70637
70637
70637
70637
70637
70637
70637
70637
70637
70637
70637
70637
70637
70637
70637
70637
70637
70637
70637
70637
70637
70637
70637
70637
70637
70637
70637
70637
70637
70637
70637
70637
70637
70637
70637
70637
70637
70637
70637
70637
70637
70637
70637
70637
70637
70637
70637
70637
70637.2
70639.1
70649.6
70689.5
70842.3
71342
72676.7
75771.4
82332.6
95457.5
119852
157292
198179
232703
257899
273135
279253
277591
269496
255552
236544
213507
188079
160493
133239
107960
90775
83283.4
78343.5
75156.3
73196.4
72036.4
71368.2
71004.8
70816.6
70637
70637
70637
70637
70637
70637
70637
70637
70637
70637
70637
70637
70637
70637