/*--------------------------------*- C++ -*----------------------------------*\
| =========                 |                                                 |
| \\      /  F ield         | OpenFOAM: The Open Source CFD Toolbox           |
|  \\    /   O peration     | Version:  2112                                  |
|   \\  /    A nd           | Website:  www.openfoam.com                      |
|    \\/     M anipulation  |                                                 |
\*---------------------------------------------------------------------------*/
FoamFile
{
    version     2.0;
    format      ascii;
    arch        "LSB;label=32;scalar=64";
    class       volScalarField;
    location    "0.00631";
    object      alphat;
}
// * * * * * * * * * * * * * * * * * * * * * * * * * * * * * * * * * * * * * //

dimensions      [1 -1 -1 0 0 0 0];

internalField   nonuniform List<scalar> 
13875
(
0.119861
0.0816021
0.0784521
0.0782825
0.0783255
0.0783812
0.0782628
0.0782489
0.0783364
0.0783308
0.0782849
0.0783009
0.0783765
0.0784121
0.0783945
0.0782989
0.0782566
0.0782902
0.0782998
0.0783544
0.0783213
0.0782654
0.0784879
0.0814797
0.1209
0.103938
0.0576787
0.0570812
0.0571651
0.056654
0.0566638
0.0570177
0.0570876
0.0571837
0.0572241
0.0571499
0.0571086
0.0566534
0.0566138
0.0566677
0.057098
0.0571183
0.0571483
0.0570739
0.0566804
0.0566739
0.0571389
0.0570697
0.0573419
0.104511
0.110619
0.0553249
0.0558751
0.0547235
0.0545686
0.0544509
0.0542424
0.0542003
0.0541973
0.0542644
0.0542234
0.0543543
0.0542485
0.0542774
0.0542403
0.0543501
0.0541067
0.0542512
0.0542837
0.0544558
0.054531
0.0546028
0.0557835
0.0550676
0.111296
0.115885
0.0546447
0.0553814
0.0543178
0.0540289
0.0539027
0.0536516
0.0535032
0.0534541
0.0534502
0.0533764
0.0534878
0.053703
0.0537404
0.0536925
0.0534825
0.0533615
0.0534649
0.0536412
0.0539109
0.0540002
0.0542022
0.0551935
0.0542974
0.115914
0.121033
0.054634
0.0551202
0.0537431
0.0536671
0.053477
0.0531439
0.053005
0.0529616
0.0529628
0.0528874
0.0530013
0.0532232
0.0532654
0.0532155
0.0529939
0.0528744
0.0529561
0.0531148
0.05348
0.0536076
0.0536118
0.0550176
0.0543291
0.121433
0.124409
0.0547451
0.0551863
0.0536062
0.0532862
0.0530811
0.0527333
0.0525723
0.0525241
0.0525453
0.0524593
0.0525456
0.0527782
0.0528499
0.0527664
0.0525385
0.0524451
0.0525488
0.052741
0.0530612
0.0532399
0.0535042
0.0548817
0.0543941
0.12405
0.128748
0.0564753
0.0557818
0.0534474
0.0532671
0.0528496
0.0523822
0.0521976
0.0521393
0.0521518
0.052083
0.0521641
0.0524172
0.0524763
0.0523983
0.0521488
0.0520751
0.0521652
0.0523652
0.0528658
0.0531965
0.0533621
0.0556409
0.0563591
0.128921
0.135709
0.0611986
0.0578346
0.0544095
0.05341
0.052845
0.0522043
0.0519527
0.0518589
0.0518605
0.0517895
0.0518371
0.052117
0.0521862
0.0520841
0.051823
0.0518072
0.0519306
0.0522275
0.052795
0.0533298
0.0542771
0.0575158
0.0610316
0.13551
0.151317
0.069249
0.061546
0.055905
0.0544088
0.0531288
0.0522151
0.0518464
0.0516881
0.0516693
0.0516289
0.0516486
0.0519665
0.0520357
0.0519256
0.0516275
0.0516611
0.051815
0.0521748
0.0531023
0.0542302
0.0556184
0.0610241
0.0684067
0.154175
0.239358
0.0874468
0.0664679
0.0590182
0.0554179
0.0537461
0.0524855
0.0520187
0.0518125
0.0517181
0.0517168
0.0517085
0.0520555
0.0521329
0.0520136
0.0517295
0.051784
0.0519721
0.0524562
0.0536215
0.0552769
0.0586747
0.0660267
0.0866952
0.241215
0.365476
0.118436
0.0760026
0.0628907
0.0576209
0.0548361
0.0531861
0.052608
0.0523297
0.0521965
0.0522235
0.0521917
0.0525423
0.0526284
0.0525365
0.052309
0.0523596
0.0526022
0.0530793
0.0546532
0.0573463
0.0617352
0.0747964
0.112954
0.365622
0.658437
0.193114
0.104094
0.0745449
0.0616092
0.0574733
0.0553115
0.0542448
0.0537564
0.0535485
0.053529
0.0534953
0.0537991
0.0539154
0.0538888
0.0537815
0.0538664
0.0542726
0.0552145
0.0569326
0.0619392
0.0734564
0.100405
0.182993
0.643675
0.582293
0.435204
0.176816
0.0927135
0.077073
0.0653278
0.0599595
0.0580139
0.0571235
0.0567717
0.0566624
0.0566305
0.056833
0.0569837
0.0570601
0.0571119
0.0573666
0.0581832
0.06004
0.0654944
0.0764386
0.0892652
0.170996
0.434154
0.581339
0.49199
0.400585
0.348051
0.330126
0.117367
0.0812766
0.0740703
0.0681793
0.0657192
0.0648603
0.0645026
0.0643667
0.0644411
0.0646306
0.0648998
0.0653333
0.0662261
0.0689161
0.0755359
0.0835952
0.132139
0.332085
0.337925
0.401238
0.500239
0.408804
0.350164
0.330916
0.33696
0.302884
0.201102
0.127555
0.0989716
0.0894628
0.087798
0.0873511
0.0870993
0.0871844
0.0873733
0.0877698
0.0884912
0.0893494
0.0973551
0.134788
0.216237
0.305125
0.333868
0.331409
0.360913
0.421559
0.331091
0.295118
0.284345
0.305219
0.318724
0.326824
0.256065
0.195064
0.171016
0.150247
0.137969
0.134155
0.132166
0.133323
0.136309
0.146403
0.173622
0.195646
0.25359
0.328422
0.312865
0.306822
0.292693
0.299667
0.342949
0.241189
0.22992
0.230531
0.274243
0.32811
0.409047
0.538931
0.623401
0.610291
0.569097
0.597353
0.60873
0.619555
0.614472
0.601939
0.582326
0.587549
0.622432
0.572278
0.413926
0.325562
0.276035
0.23392
0.237197
0.253858
0.143584
0.15612
0.191012
0.232395
0.330306
0.460184
0.601207
0.67002
0.563528
0.499922
0.494967
0.49462
0.500149
0.498911
0.499689
0.518652
0.567969
0.650101
0.613655
0.468134
0.340811
0.242155
0.184938
0.147127
0.134416
0.0692413
0.104426
0.168263
0.261143
0.374994
0.425961
0.49672
0.544801
0.480902
0.428447
0.419221
0.41756
0.420918
0.423577
0.425954
0.435116
0.475424
0.535009
0.501183
0.435251
0.395257
0.286065
0.175813
0.106144
0.0708635
0.0263947
0.0525878
0.119501
0.252265
0.36529
0.367355
0.388531
0.429099
0.421879
0.394835
0.383009
0.374688
0.373402
0.380036
0.385365
0.390374
0.406194
0.41561
0.387087
0.372692
0.38051
0.268349
0.126285
0.053179
0.0255656
0.0690567
0.0811665
0.112507
0.195921
0.283858
0.288508
0.309029
0.354299
0.372959
0.359985
0.344729
0.330914
0.327647
0.336445
0.346216
0.352389
0.355953
0.341424
0.305528
0.290452
0.28787
0.195165
0.112675
0.0799617
0.066676
0.11822
0.125379
0.126119
0.159638
0.210561
0.223858
0.2544
0.302986
0.328571
0.32053
0.303917
0.288349
0.283895
0.293732
0.305663
0.313097
0.313403
0.2912
0.248343
0.22331
0.213758
0.15615
0.131185
0.131403
0.120103
0.157754
0.134676
0.129064
0.136255
0.163963
0.180431
0.214892
0.261349
0.287319
0.281249
0.264638
0.248936
0.244197
0.253055
0.265511
0.273626
0.272662
0.25172
0.209955
0.178518
0.166194
0.136385
0.13143
0.13736
0.160499
0.199864
0.156052
0.129266
0.123617
0.137411
0.154969
0.184429
0.225439
0.24882
0.243563
0.228235
0.214298
0.209733
0.218064
0.229429
0.236875
0.236268
0.2164
0.18004
0.153391
0.138286
0.123145
0.129446
0.149552
0.196235
0.221423
0.182048
0.132152
0.118682
0.12155
0.136713
0.160109
0.193415
0.213486
0.209787
0.196777
0.184158
0.180492
0.187431
0.198304
0.205376
0.203769
0.186197
0.157371
0.134587
0.122089
0.118418
0.131497
0.177541
0.219366
0.243316
0.206857
0.13186
0.115171
0.111508
0.123033
0.141923
0.168378
0.184447
0.181051
0.170215
0.159402
0.155778
0.162095
0.170981
0.176682
0.176054
0.16176
0.139078
0.121439
0.111424
0.114827
0.130159
0.196457
0.243653
0.267892
0.220649
0.132741
0.112321
0.105437
0.111679
0.126784
0.146758
0.159023
0.155895
0.146966
0.137719
0.135098
0.140209
0.148158
0.153122
0.152141
0.141164
0.124227
0.109663
0.104808
0.112088
0.131705
0.214274
0.263136
0.29138
0.235971
0.131706
0.108119
0.0995451
0.102845
0.114951
0.129682
0.13796
0.134745
0.127531
0.120234
0.117672
0.122566
0.128951
0.133067
0.133449
0.125284
0.112334
0.101314
0.0995197
0.108075
0.130139
0.22696
0.29003
0.322835
0.257687
0.135393
0.105747
0.0970631
0.0964001
0.104432
0.114782
0.120776
0.117738
0.111617
0.105022
0.103102
0.106866
0.112476
0.115901
0.115928
0.110775
0.102413
0.0941785
0.0957208
0.105777
0.131663
0.240132
0.316119
0.351671
0.276523
0.136375
0.101571
0.0920789
0.091438
0.096763
0.103228
0.106093
0.10284
0.0978461
0.0927991
0.0907898
0.0945436
0.098954
0.101948
0.103099
0.0994145
0.0939771
0.0889135
0.0912064
0.100995
0.133373
0.260415
0.344308
0.364634
0.287601
0.140476
0.0993896
0.0895924
0.0876082
0.0898771
0.0920659
0.093612
0.0906579
0.0866001
0.0819507
0.080479
0.0834122
0.0876202
0.0901847
0.0910273
0.0896569
0.0875408
0.0851404
0.0876231
0.0994238
0.136699
0.278811
0.371796
0.373302
0.289701
0.143338
0.0976667
0.0855813
0.0825846
0.0839302
0.0846493
0.0843407
0.0810642
0.0771632
0.0734739
0.0717511
0.0746699
0.0778423
0.080333
0.0820903
0.0815558
0.0817163
0.080702
0.0836511
0.0957824
0.139208
0.285297
0.384307
0.387145
0.288396
0.150265
0.0981404
0.0835005
0.0791714
0.0793181
0.0768293
0.0755772
0.072534
0.0693237
0.0656719
0.0644387
0.0667297
0.0700166
0.0721112
0.073754
0.0747631
0.0769612
0.0770237
0.0818685
0.0960619
0.146563
0.291164
0.396834
0.394771
0.288233
0.159541
0.0988981
0.079966
0.0751238
0.073592
0.0710853
0.0688791
0.0656782
0.0624913
0.0596644
0.058196
0.0605923
0.0631351
0.0654586
0.0676907
0.0687822
0.0721753
0.0730881
0.0778996
0.0961072
0.155381
0.289746
0.402773
0.400522
0.288501
0.163762
0.101443
0.0798649
0.0730745
0.0698164
0.0656907
0.0628283
0.0596273
0.0570105
0.0540011
0.0529358
0.0547901
0.0574693
0.0592764
0.0613194
0.0637727
0.0677603
0.0708924
0.0774766
0.097946
0.164248
0.292362
0.411095
0.407717
0.282949
0.162335
0.104101
0.0800301
0.0691699
0.064775
0.0611531
0.0581491
0.0548522
0.051944
0.0496674
0.0484143
0.0504018
0.0524511
0.0547297
0.0571557
0.0589633
0.0632155
0.0672024
0.0769878
0.102069
0.166919
0.29161
0.411187
0.413369
0.280112
0.162435
0.108797
0.0816959
0.0679717
0.0621375
0.0566846
0.0535392
0.0502072
0.0479554
0.0454615
0.044535
0.0460872
0.0483402
0.0500304
0.0525972
0.0553493
0.0602002
0.0658298
0.0790105
0.107001
0.166703
0.284985
0.413618
0.410655
0.276022
0.161778
0.117523
0.083765
0.0655299
0.0581908
0.0532294
0.0499617
0.0470157
0.0442451
0.0423191
0.0411842
0.0428298
0.0446024
0.0468713
0.0491594
0.0511564
0.0564862
0.0633078
0.0802312
0.116977
0.165509
0.277543
0.406356
0.40667
0.273536
0.158799
0.129104
0.0868869
0.0664096
0.0569726
0.0500919
0.0463705
0.0432651
0.0413072
0.0391273
0.0382827
0.0395684
0.0416064
0.0431147
0.0456964
0.0487453
0.0550205
0.0638732
0.0852744
0.132631
0.164605
0.274066
0.397294
0.396285
0.273389
0.153235
0.129636
0.0923202
0.0661443
0.0540127
0.0470509
0.0435621
0.0409949
0.0384494
0.0367841
0.0357455
0.0372026
0.0387662
0.040901
0.0430066
0.0454009
0.0524392
0.0637543
0.0898753
0.133068
0.159071
0.269812
0.392212
0.38458
0.272236
0.146595
0.129107
0.101145
0.0690142
0.0546003
0.0455258
0.0411976
0.0380293
0.0361887
0.0342719
0.033529
0.034662
0.0364066
0.037857
0.0406327
0.0442376
0.0525361
0.0660083
0.0997909
0.132229
0.151375
0.269607
0.38736
0.379818
0.26991
0.139687
0.126742
0.114474
0.0708306
0.0534766
0.0437137
0.0391862
0.0364914
0.0339845
0.032493
0.0315767
0.0328925
0.0342593
0.0363697
0.038583
0.0422108
0.0519464
0.0688972
0.114572
0.129851
0.143671
0.267195
0.381184
0.372749
0.269643
0.135418
0.1216
0.11402
0.076996
0.0551901
0.0440776
0.0379124
0.0341446
0.0322343
0.0305179
0.0298661
0.0308643
0.0324649
0.0340677
0.0375159
0.0426225
0.0530912
0.0747389
0.114895
0.124274
0.13711
0.266364
0.378457
0.36585
0.266426
0.133086
0.115868
0.113474
0.0862413
0.0562865
0.0434918
0.0371024
0.0334234
0.0306415
0.0292134
0.0283423
0.0295127
0.0308307
0.0332363
0.0364342
0.0418694
0.0544758
0.0842344
0.113832
0.116121
0.132302
0.26767
0.374155
0.360452
0.263186
0.130257
0.109736
0.109377
0.0974084
0.061367
0.0447514
0.0371974
0.0320403
0.0294424
0.0276621
0.0270233
0.0279352
0.029601
0.0317842
0.0367335
0.0435163
0.0600363
0.0991178
0.110804
0.110497
0.130619
0.267078
0.367624
0.354703
0.261837
0.129969
0.106
0.104037
0.0971951
0.069059
0.0459686
0.0369381
0.0324745
0.0286273
0.0268423
0.0259216
0.0270892
0.0287538
0.0319754
0.036297
0.0446415
0.0682679
0.0989951
0.105696
0.10598
0.130156
0.264605
0.363584
0.343804
0.255788
0.130804
0.102222
0.0980889
0.0953103
0.0820162
0.051235
0.0381964
0.0319561
0.0283548
0.0259967
0.0251465
0.0262069
0.0284745
0.0315169
0.0374681
0.0498358
0.0809999
0.0962935
0.0994907
0.102783
0.131023
0.261024
0.353783
0.335379
0.251945
0.129783
0.100554
0.0944178
0.0916584
0.082115
0.057922
0.0396861
0.03267
0.0283062
0.0260469
0.0246667
0.0262428
0.0284289
0.0322184
0.0390534
0.0574268
0.0816644
0.0922379
0.0955316
0.101542
0.132948
0.254803
0.341697
0.311265
0.241571
0.129149
0.0985958
0.0903514
0.0870948
0.0811106
0.0695617
0.0449384
0.0329214
0.028438
0.0257978
0.0246662
0.0259955
0.0285292
0.0325938
0.0444644
0.0695004
0.0803478
0.0868481
0.0913122
0.0999941
0.132177
0.243181
0.314616
0.28261
0.226438
0.125154
0.0975128
0.0886332
0.0828297
0.0786788
0.0698536
0.0518311
0.0361137
0.0289914
0.0262134
0.0247748
0.0263845
0.0290113
0.0355268
0.051287
0.0699479
0.078096
0.0825689
0.0893271
0.0989492
0.128029
0.227951
0.286044
0.142091
0.273885
0.250001
0.257474
0.269576
0.277279
0.274123
0.264006
0.274283
0.314059
0.364909
0.421329
0.479347
0.533531
0.580236
0.615201
0.638007
0.652272
0.664936
0.676757
0.684805
0.673544
0.59414
0.435189
0.355778
0.3131
0.279069
0.23363
0.170688
0.0785548
0.123981
0.2319
0.215212
0.250143
0.274798
0.284474
0.286083
0.270792
0.245296
0.257571
0.317095
0.382171
0.444573
0.502094
0.552079
0.591358
0.617898
0.635431
0.649879
0.664155
0.674339
0.675827
0.642137
0.491445
0.365943
0.307772
0.26763
0.222884
0.162348
0.0757373
0.12673
0.22497
0.228347
0.272922
0.291829
0.30648
0.311221
0.293079
0.263845
0.254405
0.301889
0.358433
0.416392
0.473136
0.523773
0.566352
0.597443
0.619158
0.637279
0.65323
0.667556
0.673036
0.656084
0.555894
0.381402
0.301893
0.25512
0.21053
0.152903
0.0727577
0.12295
0.217799
0.248429
0.287548
0.303194
0.322223
0.329116
0.313889
0.283067
0.24688
0.268246
0.32761
0.3853
0.441478
0.493751
0.538425
0.574149
0.599521
0.620017
0.639338
0.655305
0.663929
0.657793
0.607845
0.422238
0.302257
0.246259
0.199117
0.144713
0.0704584
0.117086
0.219524
0.269735
0.302702
0.32277
0.346147
0.354238
0.340115
0.300487
0.2571
0.249964
0.304661
0.357617
0.411218
0.463719
0.509967
0.548108
0.579013
0.603361
0.623181
0.641542
0.653344
0.651222
0.620342
0.494409
0.318211
0.240127
0.189862
0.137771
0.0687301
0.110485
0.226524
0.291453
0.315359
0.340549
0.35905
0.358921
0.350753
0.313506
0.260439
0.238116
0.283058
0.332426
0.383121
0.435397
0.482567
0.522326
0.554513
0.581888
0.605709
0.624661
0.636808
0.638178
0.62028
0.561931
0.36968
0.243413
0.182827
0.130537
0.0663787
0.106103
0.246809
0.312617
0.331009
0.358929
0.366725
0.354184
0.337966
0.310132
0.258614
0.234583
0.264191
0.310083
0.357968
0.409162
0.456486
0.497256
0.530974
0.559374
0.584553
0.605587
0.620125
0.62435
0.608137
0.574481
0.475771
0.273134
0.179503
0.123694
0.0633367
0.103639
0.270353
0.335024
0.351697
0.373365
0.367422
0.345319
0.322639
0.297433
0.252529
0.231376
0.245943
0.289445
0.33685
0.387227
0.43346
0.473535
0.50751
0.536613
0.562147
0.582989
0.59852
0.60629
0.596305
0.565213
0.507431
0.36826
0.191622
0.119839
0.0615647
0.102564
0.294368
0.356942
0.377264
0.391453
0.371228
0.332191
0.307236
0.28185
0.24488
0.225386
0.232789
0.272084
0.319748
0.365105
0.409475
0.451442
0.486136
0.515109
0.539897
0.559046
0.57276
0.580451
0.575399
0.546541
0.500182
0.423017
0.252236
0.124153
0.0607556
0.103367
0.318038
0.376573
0.397578
0.403005
0.36781
0.318856
0.286911
0.264498
0.236151
0.217359
0.224576
0.259376
0.303173
0.346442
0.38878
0.42954
0.464803
0.494108
0.517626
0.534846
0.546397
0.553044
0.551325
0.53266
0.481929
0.428417
0.329211
0.152046
0.0627764
0.106107
0.342228
0.39469
0.413071
0.407174
0.363929
0.308135
0.265454
0.249248
0.228979
0.211186
0.220777
0.253667
0.292492
0.33158
0.37142
0.411012
0.446003
0.47425
0.496171
0.511924
0.522325
0.528823
0.527554
0.510189
0.463297
0.417426
0.353517
0.222276
0.0734959
0.109487
0.363996
0.410282
0.425167
0.412012
0.362053
0.301176
0.254177
0.240697
0.2259
0.211057
0.223269
0.251681
0.287305
0.322326
0.359166
0.396257
0.430048
0.456908
0.477345
0.491841
0.501116
0.505631
0.5028
0.485914
0.442187
0.402194
0.360879
0.287477
0.108688
0.114031
0.38206
0.4227
0.435354
0.419644
0.364573
0.300873
0.248765
0.237793
0.227321
0.21911
0.23123
0.256073
0.287378
0.318744
0.352053
0.385991
0.41719
0.44149
0.459968
0.472861
0.480544
0.483601
0.47898
0.461553
0.42009
0.387298
0.358675
0.325758
0.196859
0.118501
0.397098
0.432031
0.441424
0.429018
0.374132
0.31333
0.256979
0.245859
0.235991
0.235566
0.247124
0.267602
0.293008
0.319949
0.348834
0.379085
0.406442
0.427961
0.443858
0.45479
0.460942
0.46221
0.456041
0.438396
0.398922
0.375902
0.357121
0.362242
0.229236
0.123394
0.411843
0.438988
0.443448
0.436865
0.389591
0.338005
0.28469
0.267016
0.256301
0.262448
0.271196
0.282999
0.30236
0.324587
0.348533
0.374378
0.397397
0.415594
0.429104
0.437998
0.442012
0.440943
0.433836
0.417479
0.384351
0.366961
0.36603
0.417334
0.234621
0.128053
0.42387
0.442929
0.44576
0.442855
0.406678
0.368741
0.323801
0.299458
0.290404
0.29769
0.297379
0.300081
0.31344
0.331228
0.350398
0.371282
0.389295
0.404236
0.414834
0.421127
0.42261
0.420017
0.412423
0.398517
0.376548
0.364772
0.392875
0.496695
0.231214
0.13281
0.434218
0.44713
0.445631
0.446609
0.420981
0.391821
0.357406
0.331953
0.322495
0.322679
0.318834
0.317187
0.324517
0.338226
0.352911
0.368439
0.381778
0.392978
0.400306
0.403846
0.403395
0.400197
0.393512
0.382723
0.371721
0.37308
0.443772
0.501298
0.226342
0.137492
0.443627
0.450339
0.443361
0.44573
0.435014
0.415359
0.381824
0.35411
0.338741
0.335479
0.332339
0.330472
0.333594
0.34416
0.354288
0.364933
0.374294
0.38134
0.385371
0.386755
0.385593
0.383206
0.379846
0.375158
0.368635
0.394794
0.52698
0.480297
0.222792
0.14072
0.45128
0.451024
0.437526
0.437871
0.443499
0.440054
0.410258
0.37764
0.357449
0.34917
0.34288
0.341169
0.341846
0.347933
0.353673
0.36028
0.366042
0.36955
0.370913
0.370733
0.369694
0.369078
0.370035
0.369319
0.375198
0.430401
0.539988
0.459314
0.222306
0.144269
0.457492
0.448793
0.424401
0.426963
0.443626
0.456674
0.444258
0.413543
0.387982
0.370545
0.358042
0.353417
0.349804
0.349442
0.350229
0.353424
0.356757
0.357915
0.357294
0.356476
0.356486
0.358323
0.362834
0.366596
0.392549
0.497577
0.527799
0.445079
0.223448
0.148423
0.454636
0.438037
0.40592
0.412555
0.435359
0.459173
0.469071
0.45047
0.425369
0.398682
0.378116
0.366559
0.355989
0.347591
0.343833
0.344614
0.346351
0.345928
0.344755
0.34464
0.346102
0.349926
0.356583
0.372679
0.424725
0.530625
0.511161
0.433564
0.223811
0.152753
0.448637
0.422279
0.385177
0.394302
0.421943
0.450347
0.476127
0.479407
0.463888
0.434198
0.406757
0.384951
0.363074
0.346739
0.338472
0.337315
0.336742
0.33561
0.334223
0.334884
0.337468
0.342302
0.353707
0.386559
0.484672
0.529369
0.491804
0.424295
0.22225
0.150148
0.42813
0.396531
0.36219
0.375331
0.407154
0.438151
0.469748
0.495475
0.497599
0.475735
0.446633
0.413854
0.377527
0.350122
0.337164
0.331959
0.328966
0.327472
0.326055
0.327618
0.331307
0.339039
0.357965
0.412322
0.527744
0.51645
0.471568
0.414028
0.219525
0.150192
0.405479
0.366627
0.342975
0.35812
0.39144
0.423792
0.457649
0.493424
0.514307
0.510942
0.491944
0.454303
0.405805
0.362137
0.342792
0.330337
0.324102
0.321543
0.321116
0.323425
0.327136
0.338838
0.368786
0.454142
0.532971
0.502974
0.458821
0.402803
0.215968
0.131785
0.318738
0.329701
0.328261
0.346159
0.377071
0.409531
0.443792
0.479098
0.508615
0.526693
0.528336
0.499904
0.448818
0.386369
0.356208
0.334464
0.322834
0.318219
0.317397
0.318513
0.32424
0.341926
0.391112
0.509682
0.524151
0.48347
0.449319
0.392645
0.211369
0.0780158
0.170094
0.23355
0.279491
0.313984
0.358622
0.442153
0.602976
0.670232
0.678682
0.670127
0.658316
0.646219
0.63166
0.607362
0.571519
0.523964
0.468801
0.411115
0.355156
0.305348
0.270133
0.267435
0.277888
0.279112
0.270772
0.255746
0.245481
0.268527
0.139918
0.0751774
0.161664
0.222821
0.268136
0.308985
0.369696
0.500282
0.640922
0.671079
0.668702
0.657903
0.643565
0.629597
0.611401
0.583706
0.543291
0.49193
0.434726
0.371941
0.307525
0.251453
0.251152
0.277062
0.292753
0.288623
0.278035
0.253253
0.21594
0.226613
0.121678
0.0721639
0.152202
0.210506
0.255528
0.303417
0.385661
0.560666
0.652627
0.667687
0.661639
0.647172
0.631213
0.613212
0.590658
0.558643
0.515273
0.463603
0.407146
0.350261
0.29463
0.252217
0.270874
0.300212
0.319345
0.311137
0.294946
0.275776
0.229884
0.221329
0.124525
0.0698087
0.14395
0.199099
0.246657
0.303894
0.426451
0.605677
0.652375
0.658666
0.649919
0.633646
0.614502
0.59354
0.567231
0.531153
0.485458
0.432641
0.376797
0.320514
0.262763
0.251637
0.290294
0.320988
0.334515
0.325244
0.306488
0.290662
0.250982
0.215528
0.120546
0.0680676
0.13703
0.189668
0.240434
0.318858
0.49491
0.617548
0.646051
0.648173
0.63652
0.618109
0.597788
0.573067
0.541587
0.502704
0.455501
0.4033
0.350384
0.298933
0.247732
0.262545
0.309618
0.347286
0.356631
0.34762
0.326083
0.306174
0.272955
0.219517
0.114815
0.0658407
0.12998
0.182506
0.242791
0.365453
0.557255
0.619611
0.636134
0.633168
0.620417
0.600828
0.57639
0.548785
0.516053
0.475502
0.427871
0.376281
0.326297
0.277485
0.239585
0.266184
0.320928
0.352722
0.359773
0.360096
0.34323
0.319136
0.294964
0.228752
0.108459
0.0628367
0.123039
0.178673
0.269175
0.468122
0.575031
0.609156
0.622569
0.617253
0.601669
0.580146
0.554398
0.525648
0.491343
0.449897
0.402565
0.352107
0.305158
0.259681
0.23731
0.26346
0.31639
0.340965
0.356165
0.369119
0.360571
0.334351
0.316709
0.249995
0.104604
0.0610588
0.119
0.188522
0.356563
0.507753
0.56802
0.597763
0.604185
0.595305
0.579321
0.5574
0.5321
0.502958
0.467742
0.426426
0.380653
0.331824
0.285135
0.242327
0.234168
0.256653
0.302826
0.325815
0.348813
0.371964
0.37597
0.354653
0.339565
0.274272
0.102715
0.0602045
0.122228
0.24187
0.421894
0.504679
0.553556
0.577212
0.579955
0.570402
0.555937
0.535923
0.511166
0.481506
0.446247
0.404837
0.359791
0.315037
0.268476
0.229822
0.227982
0.248412
0.286537
0.310083
0.336102
0.376556
0.394939
0.37994
0.361337
0.298716
0.102059
0.0619021
0.146389
0.324342
0.430456
0.48753
0.534842
0.552568
0.553852
0.546625
0.53456
0.516891
0.493075
0.4638
0.427201
0.385258
0.341563
0.29929
0.256007
0.22199
0.21955
0.239375
0.268464
0.289578
0.322991
0.372801
0.406181
0.400105
0.380813
0.323013
0.10327
0.0714096
0.21201
0.350654
0.419242
0.469633
0.51328
0.529221
0.529353
0.522569
0.511883
0.495742
0.47358
0.445285
0.409289
0.369077
0.327978
0.289515
0.250912
0.218173
0.212677
0.231671
0.25206
0.268379
0.31276
0.368938
0.410176
0.414958
0.398492
0.347388
0.106239
0.10219
0.280351
0.359198
0.403442
0.449514
0.489516
0.504714
0.506426
0.501376
0.491496
0.476627
0.455919
0.428794
0.394537
0.357468
0.3199
0.284779
0.248878
0.220514
0.212133
0.227769
0.242365
0.257711
0.306083
0.367566
0.416734
0.426706
0.413847
0.369064
0.109956
0.189035
0.320822
0.357972
0.387777
0.428164
0.465836
0.480795
0.483449
0.480052
0.472282
0.459087
0.440157
0.415211
0.384163
0.35075
0.317208
0.285209
0.254445
0.228499
0.21985
0.228198
0.238591
0.252177
0.306199
0.37052
0.424918
0.43743
0.425794
0.387053
0.114426
0.22478
0.358186
0.356723
0.377217
0.407299
0.442725
0.457541
0.461572
0.459742
0.453421
0.442199
0.426347
0.404023
0.377299
0.347893
0.319191
0.291488
0.266394
0.245511
0.234348
0.236236
0.246073
0.260134
0.318911
0.379565
0.43418
0.444122
0.436388
0.401917
0.1188
0.231459
0.412363
0.36642
0.371552
0.390576
0.420976
0.435093
0.440503
0.440221
0.435742
0.426655
0.413217
0.394747
0.372547
0.347808
0.324336
0.301487
0.282048
0.270619
0.260016
0.255364
0.266827
0.287144
0.342922
0.395197
0.441933
0.446461
0.444108
0.416553
0.123556
0.228766
0.494053
0.394092
0.369194
0.382547
0.4035
0.41407
0.419717
0.421005
0.418838
0.412242
0.401449
0.386591
0.369356
0.349721
0.331288
0.312912
0.299609
0.297052
0.296215
0.288907
0.299945
0.32642
0.372871
0.41186
0.448079
0.448716
0.448469
0.429023
0.128171
0.224015
0.499717
0.442916
0.377483
0.377757
0.389017
0.395064
0.399894
0.40203
0.401862
0.397874
0.390493
0.379075
0.366328
0.352059
0.338208
0.324557
0.317382
0.318456
0.32258
0.322337
0.333028
0.360251
0.395831
0.425716
0.451635
0.448168
0.453017
0.439762
0.132747
0.220615
0.479082
0.527501
0.398979
0.375016
0.379277
0.380438
0.382401
0.384168
0.384939
0.383194
0.379092
0.371797
0.362776
0.353006
0.344226
0.333968
0.331295
0.332429
0.335828
0.339852
0.35563
0.385188
0.419288
0.439303
0.450458
0.446193
0.456539
0.4494
0.137377
0.220798
0.458711
0.540794
0.433914
0.381606
0.372452
0.370203
0.368583
0.368906
0.369606
0.369197
0.367494
0.364135
0.358226
0.352571
0.347951
0.342203
0.342222
0.343197
0.349985
0.359865
0.380168
0.413834
0.443634
0.447085
0.441486
0.441511
0.458032
0.457782
0.140477
0.223285
0.444222
0.529044
0.498592
0.396569
0.369772
0.364205
0.358499
0.356542
0.356007
0.356158
0.356339
0.355465
0.352313
0.349907
0.34931
0.350407
0.354281
0.359323
0.372279
0.392181
0.418132
0.449371
0.461293
0.447718
0.430861
0.427984
0.455556
0.464357
0.143854
0.223512
0.433962
0.51267
0.533275
0.427186
0.374553
0.357569
0.350756
0.346228
0.344258
0.344422
0.345654
0.345965
0.345042
0.344843
0.348392
0.357373
0.368485
0.380963
0.401587
0.430704
0.457197
0.475118
0.463965
0.439495
0.416355
0.409548
0.443782
0.460903
0.148594
0.221984
0.426125
0.495354
0.532582
0.483427
0.387436
0.355005
0.343373
0.337241
0.335033
0.334918
0.336225
0.337155
0.338137
0.34009
0.348727
0.365342
0.388763
0.411622
0.43817
0.469389
0.487277
0.482739
0.455559
0.426077
0.397905
0.389027
0.427177
0.454318
0.152859
0.219237
0.416235
0.473909
0.519956
0.531517
0.413561
0.358156
0.339128
0.331386
0.328336
0.327449
0.328718
0.330356
0.33381
0.339887
0.353491
0.382901
0.420028
0.453913
0.480164
0.501593
0.50279
0.47617
0.443129
0.411436
0.378989
0.366418
0.400624
0.432282
0.150263
0.215661
0.404257
0.46185
0.506723
0.538577
0.450703
0.368593
0.33923
0.327789
0.324186
0.322262
0.323456
0.326233
0.333693
0.347637
0.368198
0.414854
0.462463
0.50049
0.515815
0.516571
0.49952
0.464519
0.428701
0.395921
0.362204
0.347788
0.370408
0.408401
0.150307
0.211741
0.3941
0.451984
0.487435
0.530272
0.51254
0.39026
0.341976
0.325187
0.319897
0.318843
0.320608
0.32622
0.339409
0.363317
0.396626
0.461931
0.510079
0.537294
0.532949
0.510853
0.483942
0.452206
0.414352
0.381445
0.35022
0.333113
0.333492
0.319527
0.131977
0.242401
0.243816
0.24817
0.252276
0.257754
0.263273
0.270069
0.277243
0.288285
0.298948
0.310621
0.322092
0.332775
0.343612
0.355367
0.369449
0.383166
0.39201
0.400583
0.410648
0.421943
0.435009
0.449954
0.463772
0.477167
0.487314
0.492877
0.493739
0.489606
0.481241
0.468639
0.453611
0.437622
0.421507
0.405029
0.389287
0.373827
0.358329
0.343135
0.328593
0.315125
0.304203
0.294762
0.285204
0.275693
0.267194
0.259397
0.252358
0.246351
0.241669
0.238056
0.234833
0.231874
0.228587
0.225412
0.222521
0.219502
0.216358
0.212892
0.208876
0.204695
0.200639
0.196604
0.192046
0.187401
0.182848
0.178249
0.173804
0.169863
0.166377
0.163252
0.160515
0.157992
0.155762
0.153694
0.151822
0.150268
0.149192
0.148559
0.148126
0.147594
0.146762
0.145688
0.144459
0.14313
0.141728
0.140263
0.138772
0.137326
0.136026
0.134926
0.134066
0.133453
0.133076
0.132937
0.133125
0.133635
0.134409
0.135285
0.136277
0.137347
0.138595
0.140208
0.142292
0.145071
0.147486
0.149727
0.151727
0.153762
0.155769
0.157719
0.159447
0.160828
0.162981
0.163176
0.16432
0.166332
0.169158
0.172916
0.178038
0.183002
0.186851
0.190926
0.19581
0.204017
0.518503
0.526009
0.53415
0.543896
0.553314
0.56273
0.576615
0.594905
0.61704
0.640406
0.666433
0.697214
0.729654
0.764295
0.806506
0.858847
0.921972
0.997618
1.08075
1.16633
1.2574
1.33375
1.41853
1.51086
1.60662
1.70582
1.78917
1.85287
1.89956
1.93069
1.94444
1.93574
1.904
1.85221
1.79077
1.72027
1.64645
1.56915
1.49167
1.41704
1.34728
1.28325
1.22402
1.16624
1.10936
1.05357
1.00027
0.951179
0.907862
0.871028
0.83884
0.80859
0.778924
0.747361
0.716081
0.686017
0.65862
0.632965
0.609313
0.585854
0.561187
0.535031
0.507706
0.481415
0.457836
0.437513
0.420058
0.404732
0.391656
0.380431
0.370488
0.361101
0.352089
0.343216
0.334459
0.326445
0.319504
0.313874
0.309356
0.30537
0.30127
0.296656
0.29142
0.28572
0.27977
0.273718
0.267669
0.261757
0.256129
0.250941
0.246286
0.242216
0.238718
0.235786
0.233385
0.231665
0.230664
0.230618
0.230858
0.231639
0.232978
0.235031
0.237337
0.240801
0.244589
0.247882
0.250986
0.254181
0.257139
0.259991
0.262671
0.262404
0.264393
0.267593
0.272179
0.278737
0.287391
0.30012
0.314033
0.326597
0.337221
0.349585
0.36301
0.373783
0.383841
0.677831
0.691249
0.704173
0.721175
0.744214
0.766676
0.792643
0.820919
0.853368
0.887892
0.918231
0.952352
0.99117
1.02609
1.06453
1.11023
1.16344
1.23295
1.32024
1.42544
1.55306
1.6818
1.81386
1.94496
2.0682
2.19168
2.30708
2.41378
2.50474
2.57914
2.6357
2.66991
2.6747
2.64677
2.58814
2.50019
2.39627
2.28328
2.16693
2.05296
1.9442
1.8412
1.74133
1.64146
1.54216
1.44547
1.35319
1.26729
1.19064
1.12499
1.06868
1.01795
0.970565
0.924953
0.882402
0.845245
0.815016
0.791604
0.772659
0.753302
0.733373
0.712055
0.686448
0.656365
0.624233
0.593345
0.565881
0.542441
0.522907
0.506449
0.492137
0.479073
0.466546
0.454871
0.444327
0.434803
0.426301
0.418642
0.411495
0.404364
0.39678
0.38862
0.380049
0.37129
0.362518
0.35387
0.345477
0.337425
0.329789
0.322657
0.316117
0.310226
0.305027
0.300485
0.296621
0.293571
0.291516
0.290486
0.29041
0.290713
0.291533
0.292794
0.295071
0.297619
0.299693
0.302181
0.304751
0.308826
0.31281
0.316541
0.320176
0.324369
0.330733
0.33968
0.348377
0.356253
0.367452
0.377975
0.388728
0.398783
0.408113
0.416352
0.424655
0.433032
0.442475
1.10795
1.11808
1.14135
1.1735
1.21693
1.26056
1.29603
1.33177
1.36359
1.39284
1.41043
1.42266
1.43206
1.43736
1.43758
1.44014
1.44605
1.46304
1.51169
1.58657
1.70919
1.88011
2.10161
2.36202
2.64137
2.90752
3.1459
3.35253
3.51273
3.62782
3.70355
3.74509
3.7512
3.72021
3.65209
3.54923
3.41541
3.2674
3.11195
2.95409
2.79943
2.64968
2.50342
2.35767
2.2111
2.06442
1.92021
1.78102
1.65064
1.52974
1.41746
1.31282
1.21629
1.12765
1.04645
0.973006
0.911098
0.858954
0.814023
0.78037
0.767211
0.772366
0.777651
0.771809
0.752845
0.724716
0.693668
0.66468
0.639091
0.616963
0.597668
0.581054
0.566204
0.551764
0.537356
0.523113
0.510702
0.499889
0.489799
0.479702