/*--------------------------------*- C++ -*----------------------------------*\
| =========                 |                                                 |
| \\      /  F ield         | OpenFOAM: The Open Source CFD Toolbox           |
|  \\    /   O peration     | Version:  2112                                  |
|   \\  /    A nd           | Website:  www.openfoam.com                      |
|    \\/     M anipulation  |                                                 |
\*---------------------------------------------------------------------------*/
FoamFile
{
    version     2.0;
    format      ascii;
    arch        "LSB;label=32;scalar=64";
    class       volVectorField;
    location    "0.00196";
    object      U;
}
// * * * * * * * * * * * * * * * * * * * * * * * * * * * * * * * * * * * * * //

dimensions      [0 1 -1 0 0 0 0];

internalField   nonuniform List<vector> 
13875
(
(2204.28 109.72 1.8123e-18)
(2142.73 5.65346 -9.38352e-19)
(2170.11 -2.22319 -9.41121e-19)
(2168.27 -1.22992 0)
(2170.85 0.0729596 0)
(2169.61 -0.0631752 9.36399e-19)
(2169.59 -0.355947 -9.36798e-19)
(2169.83 -1.07307 -4.68374e-19)
(2169.59 -1.24405 4.68051e-19)
(2169.96 -0.0128559 0)
(2169.34 1.20416 -3.8812e-22)
(2169.54 0.961508 -3.8603e-22)
(2169.53 -0.00516343 0)
(2169.47 -0.186045 -4.68027e-19)
(2169.94 -1.38984 4.6827e-19)
(2170.08 -0.708055 0)
(2169.75 1.04869 9.36423e-19)
(2170.16 1.02558 -9.3657e-19)
(2169.67 0.465156 3.8556e-22)
(2169.59 0.0545395 -3.85508e-22)
(2170.97 -0.221903 -9.35752e-19)
(2167.91 0.443958 9.36939e-19)
(2171.01 2.52331 -1.87816e-18)
(2143.49 -8.70459 1.91686e-18)
(2210.43 -106.914 1.7636e-18)
(2253.43 91.8858 -1.63213e-18)
(2228.58 -1.13799 1.88353e-18)
(2247.29 0.679637 8.71856e-19)
(2245.6 1.37778 -8.67193e-19)
(2248.5 -0.437725 4.16366e-22)
(2248.15 0.456678 5.20307e-22)
(2248.16 0.387572 4.16163e-22)
(2247.81 1.31849 -4.36416e-19)
(2245.68 1.59246 4.33331e-19)
(2245.74 0.116824 2.17347e-19)
(2245.45 -1.4008 -1.63297e-19)
(2247.74 -1.21762 -5.32574e-20)
(2247.96 -0.0289868 0)
(2247.88 0.030469 -4.34795e-19)
(2247.97 1.55078 4.33233e-19)
(2246.1 0.897572 4.35286e-19)
(2245.86 -1.41865 -4.35292e-19)
(2247.93 -1.25173 5.19558e-22)
(2248.16 -0.403883 -5.20347e-22)
(2248.12 -0.496201 5.20192e-22)
(2248.67 0.674125 -8.71019e-19)
(2245.55 -0.755015 2.59995e-18)
(2247.19 -1.59867 -1.74276e-18)
(2228.98 3.50182 5.42745e-22)
(2256.78 -96.8582 -1.7117e-18)
(2252.51 78.08 0)
(2236.5 -18.1868 0)
(2249.31 4.42736 0)
(2250.89 -1.95462 0)
(2254.11 -3.05037 -1.65494e-18)
(2253.9 -0.721264 1.64364e-18)
(2254.16 0.309299 1.64015e-18)
(2254.14 2.31205 -2.45863e-18)
(2253.47 1.89961 8.59746e-19)
(2254.28 0.26526 4.30461e-22)
(2253.15 -2.04185 -4.29515e-19)
(2254.09 -2.46446 4.10901e-19)
(2254.17 -0.305682 0)
(2254.23 0.117209 0)
(2254.32 1.6891 4.07943e-22)
(2254.44 2.06627 0)
(2253.59 -1.53622 8.3854e-22)
(2254.42 -2.28977 4.09507e-19)
(2254.28 -0.338676 -4.09965e-19)
(2253.96 0.548944 0)
(2254.33 2.96006 0)
(2251 1.40454 0)
(2250.58 -4.7995 0)
(2238.06 13.6946 0)
(2257.17 -74.4808 0)
(2247.89 51.3564 0)
(2235.02 -28.4742 1.81473e-18)
(2249.08 7.20899 -3.41754e-18)
(2251.63 -4.73905 3.46526e-18)
(2253.76 -3.84514 -1.65692e-18)
(2253.75 -1.0317 0)
(2254.11 0.288862 -7.85768e-22)
(2254.11 2.29259 0)
(2254.13 1.63174 0)
(2254.85 0.298343 0)
(2254.05 -1.57785 0)
(2254.07 -2.46628 -7.84842e-22)
(2254.15 -0.382405 -5.13133e-20)
(2254.21 0.136681 5.03227e-20)
(2254.32 1.55159 0)
(2254.85 1.78653 0)
(2254.41 -1.31181 8.38873e-22)
(2254.4 -2.24115 -8.05845e-19)
(2254.23 -0.320021 8.0186e-19)
(2253.84 0.824157 -1.62612e-18)
(2254.08 3.58422 1.63254e-18)
(2252.02 4.70065 1.74112e-18)
(2249.69 -8.84282 -1.72047e-18)
(2235.69 31.2145 0)
(2251.34 -58.7967 0)
(2245 39.3664 1.74887e-18)
(2235.58 -47.6259 0)
(2248.55 10.4541 0)
(2250.61 -8.19923 0)
(2254.12 -5.48297 0)
(2253.85 -1.80406 1.66112e-21)
(2254.03 0.133517 1.62611e-21)
(2254.07 2.17572 4.16042e-19)
(2254.19 1.03556 -4.30094e-19)
(2254.8 0.303667 1.99599e-19)
(2253.95 -1.33242 -2.15555e-19)
(2253.99 -2.46471 0)
(2254.07 -0.500162 0)
(2254.12 0.194776 -1.63083e-21)
(2254.21 1.39617 0)
(2254.77 1.65412 -1.63587e-21)
(2254.43 -0.803001 8.59794e-19)
(2254.39 -2.06298 -8.29695e-19)
(2254.15 -0.188432 1.65348e-18)
(2253.89 1.54063 -1.68965e-18)
(2254.32 5.01825 1.66538e-21)
(2250.78 6.92968 0)
(2249.94 -11.4492 0)
(2237.15 42.7669 0)
(2250.32 -35.1878 0)
(2241.47 6.88752 0)
(2231.46 -63.182 9.12803e-19)
(2246.96 12.2452 -8.48234e-19)
(2250.88 -11.6173 0)
(2252.95 -6.41214 8.61389e-19)
(2253.16 -2.31006 -4.31492e-19)
(2253.67 0.0301779 -2.16797e-21)
(2253.84 2.07568 -2.10865e-19)
(2254.04 0.744691 -4.30759e-19)
(2254.67 0.392978 1.57332e-19)
(2253.94 -0.781788 1.59141e-21)
(2253.86 -2.36249 2.64301e-19)
(2253.9 -0.645247 -2.16155e-19)
(2253.96 0.150475 3.31523e-21)
(2254.1 1.01945 -4.2997e-19)
(2254.72 1.29339 4.29588e-19)
(2254.32 -0.514017 1.67868e-21)
(2254.16 -1.93282 -1.64037e-21)
(2253.82 -0.156502 -1.62641e-21)
(2253.26 1.88669 -8.50684e-19)
(2253.31 5.62766 8.5249e-19)
(2251.49 11.4339 0)
(2247.33 -15.0414 0)
(2232.38 65.438 -1.93345e-18)
(2246.16 -18.9214 -1.26388e-19)
(2254.43 3.05196 -4.95391e-20)
(2227.48 -78.9715 6.0235e-20)
(2242.75 12.1876 0)
(2248.68 -16.6225 -2.69246e-23)
(2252.55 -8.77019 -2.62367e-23)
(2252.84 -3.8178 0)
(2253.32 -0.592927 0)
(2253.6 1.55186 -8.38496e-19)
(2253.87 0.0052355 8.50406e-19)
(2254.34 0.295124 0)
(2253.66 -0.572144 1.72326e-18)
(2253.54 -2.2672 2.98087e-21)
(2253.55 -0.728586 -1.7296e-18)
(2253.61 0.230882 -1.69979e-21)
(2253.79 0.851414 0)
(2254.36 1.13021 3.43968e-18)
(2254.06 0.0263613 4.98606e-21)
(2253.92 -1.35254 -6.73337e-18)
(2253.46 0.518463 3.35214e-18)
(2252.94 3.37207 2.59214e-23)
(2252.81 8.00266 0)
(2248.62 13.804 3.53145e-18)
(2244.05 -12.3909 -3.31169e-18)
(2228.77 72.92 3.81575e-18)
(2247.21 2.82279 -3.1801e-18)
(2217.53 -22.6695 -3.16116e-19)
(2214.26 -86.9688 -7.50459e-18)
(2234.99 3.48892 8.73643e-22)
(2245.79 -23.3151 2.61584e-23)
(2248.75 -10.8697 -8.1079e-22)
(2250.47 -4.89681 0)
(2251.81 -0.994598 -3.34584e-18)
(2252.62 1.30504 3.37908e-18)
(2253.11 -0.14149 0)
(2253.62 0.567327 -8.2366e-22)
(2253.18 0.0430385 -8.38849e-22)
(2252.93 -1.94978 0)
(2252.86 -0.753332 0)
(2252.91 0.115091 -1.66244e-21)
(2253.2 0.403548 -8.44181e-22)
(2253.71 0.605288 2.61133e-23)
(2253.32 0.0999715 -8.58573e-22)
(2253 -1.11781 -2.57685e-23)
(2252.1 0.850564 -1.68441e-18)
(2250.83 4.30992 -1.37605e-20)
(2249.47 9.87862 1.69022e-18)
(2246.32 20.278 8.88327e-22)
(2236.61 -4.53132 3.46064e-18)
(2216.33 81.4888 -3.53775e-18)
(2222.07 18.104 2.50178e-23)
(2109.38 -37.9175 9.41405e-19)
(2167.44 -98.2194 0)
(2215.92 -20.411 -8.31739e-22)
(2234.63 -33.3031 -8.65265e-19)
(2245.01 -20.0758 1.70849e-18)
(2248.19 -10.033 -1.70551e-18)
(2249.98 -3.99581 7.7413e-21)
(2251.23 -0.328661 8.50979e-19)
(2251.71 -1.33829 0)
(2252.26 0.0138891 -8.47522e-19)
(2251.92 0.249314 8.56878e-19)
(2251.58 -1.58086 0)
(2251.42 -0.800556 0)
(2251.47 0.0748463 2.10336e-21)
(2251.85 0.203569 8.38032e-22)
(2252.28 0.539076 8.58739e-19)
(2251.9 0.952821 -8.50889e-19)
(2251.61 0.339404 0)
(2250.4 3.26508 8.50746e-19)
(2248.72 8.60909 -1.70658e-18)
(2246 17.1822 8.4655e-19)
(2236.14 29.6552 -8.4012e-22)
(2218.42 16.7891 0)
(2170.75 93.9291 0)
(2115.84 35.4621 0)
(1860.6 -143.654 -6.64572e-17)
(2120.5 -160.614 8.51261e-17)
(2194.55 -55.614 0)
(2225.05 -57.9968 -2.97022e-17)
(2236.8 -23.5863 3.09459e-17)
(2243.05 -11.7219 0)
(2246.08 -4.22733 -2.96053e-20)
(2247.85 -0.949946 -1.45761e-17)
(2248.64 -1.20256 1.46908e-17)
(2249.33 0.406011 -2.96895e-20)
(2249.1 0.864312 0)
(2248.75 -0.904755 -3.73619e-18)
(2248.46 -0.644716 5.58893e-18)
(2248.51 -0.234327 -1.90025e-18)
(2248.97 -0.337952 -2.96154e-20)
(2249.28 0.0403126 0)
(2248.84 0.885489 0)
(2248.31 0.900486 -2.95335e-17)
(2246.68 3.76695 2.91788e-17)
(2243.76 10.3749 -3.02066e-17)
(2238.82 21.8821 2.9552e-17)
(2227.19 54.5432 3.21881e-17)
(2198.64 53.474 -2.93122e-17)
(2127.44 162.698 -8.35526e-17)
(1880.82 139.229 -1.26584e-17)
(1641.15 -226.429 -9.15412e-17)
(2006.14 -312.164 1.38034e-16)
(2145.93 -115.248 0)
(2198.95 -65.2903 6.92666e-17)
(2225.82 -32.1938 -7.20499e-17)
(2234.36 -17.3757 -3.34195e-17)
(2238.9 -8.04131 3.40499e-17)
(2240.96 -4.36016 -3.37075e-17)
(2242.22 -2.92462 3.40173e-17)
(2243 -0.611612 3.24143e-20)
(2242.85 0.577417 0)
(2242.61 -0.248733 -2.13678e-18)
(2242.19 -0.490712 2.16338e-18)
(2242.25 -0.408585 3.27135e-20)
(2242.71 -0.49041 3.24734e-20)
(2242.87 0.236035 3.42966e-20)
(2242.37 1.9475 0)
(2241.5 3.55108 0)
(2239.73 6.92426 -6.83739e-17)
(2235.51 15.2364 6.71796e-17)
(2228.4 27.6688 -7.21308e-17)
(2206.34 58.8633 1.47489e-16)
(2160.55 99.7037 -7.06724e-17)
(2011.95 299.531 -3.89157e-20)
(1690.18 206.688 8.83028e-20)
(1234.77 -572.887 -1.15578e-16)
(1735.83 -573.834 1.18449e-16)
(1954.42 -163.598 2.4148e-16)
(2144.74 -122.481 -9.83443e-17)
(2192.68 -40.0927 0)
(2209.08 -15.2483 7.51374e-17)
(2219.79 -6.85283 -7.69167e-17)
(2223.46 -2.23854 0)
(2226.31 -1.47409 3.55096e-20)
(2227.34 0.893233 0)
(2227.36 1.63314 0)
(2227.56 0.525027 0)
(2226.91 -0.0392458 4.74088e-18)
(2227.11 -0.860693 -4.74648e-18)
(2227.44 -1.03298 -4.00766e-20)
(2227.37 -0.681167 -3.52127e-20)
(2226.56 0.37889 0)
(2224.39 1.18672 0)
(2221.3 5.41061 0)
(2211.06 12.1167 -7.87752e-17)
(2198.61 35.6198 1.59852e-16)
(2161.4 103.923 -7.45629e-17)
(2034.61 162.884 -1.33184e-16)
(1746.65 589.412 1.01708e-16)
(1272.07 551.127 -6.01376e-20)
(1247.54 -642.723 1.71468e-16)
(1151.02 -995.996 0)
(1395.67 -653.103 0)
(1843.69 -187.888 -1.155e-16)
(2089.55 -83.3643 1.22924e-16)
(2143.92 -58.1432 0)
(2159.57 -29.575 1.4316e-20)
(2169.97 -18.2487 4.39123e-17)
(2176.44 -8.71974 -4.43399e-17)
(2178.73 -3.99624 0)
(2178.5 -1.09107 -1.09189e-17)
(2180.56 0.758915 1.09278e-17)
(2178.39 0.287237 -5.47531e-18)
(2179.95 -0.444648 5.47323e-18)
(2179.82 -0.0149503 3.92053e-20)
(2179.42 2.17029 -4.37945e-17)
(2177.57 6.51622 8.81058e-17)
(2172.32 14.4197 9.53724e-19)
(2162.55 25.2969 -4.38115e-17)
(2147.06 53.17 -9.60902e-17)
(2090.3 60.4222 9.01835e-17)
(1861.65 99.8189 8.73763e-20)
(1625.66 502.062 2.77791e-20)
(1104.59 1052.11 1.69648e-16)
(1304.76 615.971 7.54724e-18)
(1310.59 -648.009 0)
(1165.85 -996.967 0)
(1178.2 -758.863 0)
(1059.34 -860.682 0)
(1887.84 -286.907 0)
(1870.01 -22.6162 1.30678e-16)
(1916.35 19.6211 -1.3376e-16)
(1965.26 21.2672 2.01227e-19)
(1984.53 7.89368 -1.17476e-20)
(2002.86 7.69875 2.83771e-17)
(1993.58 6.04902 -2.89588e-17)
(2011.31 1.29028 -3.77432e-19)
(1996.04 1.37969 -9.01536e-19)
(2007.32 -2.2767 1.07386e-18)
(2003.6 -1.31556 -2.85498e-17)
(2002.9 -4.33355 2.83661e-17)
(1994.33 -7.50423 1.77829e-19)
(1972.38 -15.3032 0)
(1919.52 -19.3516 0)
(1874.88 27.3588 0)
(1865.5 331.422 -2.13829e-16)
(1089.25 819.382 -5.56378e-17)
(1241.29 701.508 1.68052e-16)
(1136.13 988.575 2.0719e-20)
(1347.8 622.022 2.09007e-20)
(1389.3 -634.446 0)
(1251.63 -880.245 4.17606e-20)
(1227.46 -738.482 0)
(1094.51 -826.869 -1.80743e-16)
(1189.02 -674.4 3.49516e-16)
(1014.13 -558.679 -2.30058e-16)
(1050.03 -488.973 0)
(1306.36 -264.633 -1.57901e-19)
(1231.55 -135.448 0)
(1363.17 -48.7301 0)
(1226.13 -47.8802 -2.97504e-17)
(1374.1 -1.41843 3.08328e-17)
(1236.18 -0.0674613 3.03687e-17)
(1332.24 -5.45187 -3.06178e-17)
(1293.14 13.6597 0)
(1330.35 41.6093 -1.21407e-16)
(1299.13 102.745 1.19986e-16)
(1330.18 209.258 1.22868e-16)
(1138.72 427.492 -1.12481e-16)
(1057.06 582.398 0)
(1171.36 674.921 0)
(1091.77 809.179 -1.7371e-19)
(1266.69 694.372 -1.73948e-16)
(1256.62 872.055 3.78122e-16)
(1388.7 616.164 -1.73979e-16)
(1461.52 -626.001 -1.76369e-16)
(1351.16 -801.576 1.91817e-16)
(1289.47 -630.344 0)
(1144.76 -628.704 -2.41673e-16)
(1163.52 -530.826 -4.0606e-17)
(937.177 -401.373 3.50078e-16)
(459.626 -108.235 -2.52068e-16)
(438.808 -89.8347 1.35687e-16)
(202.382 -20.7878 0)
(282.933 -27.553 0)
(68.4951 2.36527 -4.35455e-20)
(231.83 -20.6221 1.59934e-19)
(63.3294 18.038 0)
(180.331 -22.2023 0)
(136.83 9.59532 6.64541e-17)
(209.585 5.53189 -6.80787e-17)
(221.354 9.0887 -1.34066e-16)
(405.149 79.1119 2.75544e-16)
(431.627 84.5339 -6.73223e-18)
(796.651 298.399 -1.34196e-16)
(1139.45 499.988 0)
(1135.87 643.484 0)
(1300.23 603.992 -1.89237e-16)
(1308.36 801.827 2.19081e-16)
(1444.74 618.218 -4.57841e-20)
(1568.21 -549.323 1.69789e-16)
(1483.89 -600.104 -9.73668e-20)
(1456.46 -429.424 1.08371e-16)
(1289.69 -330.754 -1.01303e-16)
(1227.75 -249.682 -5.07931e-20)
(966.797 -142.22 1.23117e-19)
(606.861 -56.1571 1.28701e-16)
(572.859 -133.749 -1.9962e-16)
(473.011 -76.2345 6.76096e-17)
(490.461 -95.74 0)
(455.186 -42.63 -3.32445e-17)
(481.409 -41.0835 3.25576e-17)
(456.202 -8.60997 0)
(464.833 15.868 5.87387e-20)
(455.942 31.0271 -3.32047e-17)
(463.976 58.8333 3.29458e-17)
(460.008 72.4184 0)
(550.619 107.922 -1.34564e-16)
(564.651 78.1379 1.31626e-16)
(840.218 103.884 1.21128e-16)
(1177.12 203.388 -2.22444e-16)
(1244.4 311.809 1.2272e-16)
(1420.02 425.264 0)
(1462.19 636.184 1.78667e-16)
(1554.12 561.638 -1.07829e-17)
(1702.97 -396.335 -6.48342e-18)
(1600.56 -231.353 9.71898e-17)
(1445.29 -167.613 -4.474e-17)
(1318 -46.6917 -5.7136e-17)
(1319.82 -103.237 7.92008e-17)
(1133.74 -159.824 -5.74958e-17)
(899.623 -170.832 6.25886e-17)
(885.151 -160.677 -6.3476e-17)
(828.253 -116.16 -1.54847e-19)
(807.964 -107.012 3.21028e-17)
(749.038 -49.8932 1.60275e-17)
(779.413 -40.2918 -3.77481e-20)
(730.213 -1.95939 -1.60724e-17)
(762.176 28.3075 -6.24912e-20)
(758.859 50.2192 -7.73578e-20)
(786.006 86.6061 -2.01336e-18)
(831.709 121.958 1.4994e-21)
(892.561 140.285 5.98493e-18)
(905.023 159.818 -3.90209e-18)
(1082.24 156.564 0)
(1266.63 103.739 1.32418e-17)
(1264.05 64.0211 -4.0427e-17)
(1436.1 139.462 4.94513e-17)
(1575.85 243.583 -6.93521e-17)
(1689.09 403.057 6.59776e-17)
(1803.93 -278.568 -1.04639e-19)
(1753.29 43.6259 -1.39633e-19)
(1611.31 102.405 1.64152e-19)
(1461.77 2.00296 -7.1366e-21)
(1460.01 -62.5754 -1.69805e-19)
(1382.25 -117.354 -1.95964e-19)
(1173.68 -146.835 -7.95354e-21)
(1049.29 -139.942 0)
(971.601 -86.712 0)
(942.588 -83.1167 6.44201e-17)
(885.165 -44.0597 -6.3691e-17)
(892.589 -32.2505 -8.22113e-21)
(855.004 -5.50437 8.22706e-21)
(877.119 23.0183 -8.27681e-18)
(879.206 42.2568 8.05178e-18)
(918.226 70.7522 0)
(961.964 90.0377 0)
(1018.73 124.814 -6.25424e-17)
(1113.45 165.112 6.06677e-17)
(1326.51 149.767 -1.89924e-19)
(1417.87 108.534 0)
(1416.18 17.1796 0)
(1586.23 -112.041 -1.6953e-19)
(1723.64 -58.9078 -1.44985e-19)
(1788.16 273.631 1.56077e-16)
(1780.81 175.698 -1.69401e-16)
(1707.7 391.742 -2.22381e-16)
(1680.81 358.066 1.40361e-16)
(1613.89 215.734 0)
(1596.29 59.9559 2.2222e-19)
(1545.21 -22.0284 1.06549e-16)
(1394.92 -51.9715 -2.18438e-16)
(1227.52 -69.4981 1.14743e-16)
(1105.09 -46.2216 -1.27157e-16)
(1051.58 -49.253 1.26392e-16)
(995.151 -25.6707 3.20707e-17)
(987.654 -19.3812 -3.98257e-17)
(956.488 -0.413353 -8.04294e-18)
(973.118 20.6095 1.62221e-17)
(985.602 31.9214 0)
(1028.29 48.1596 0)
(1091.07 59.8165 1.24972e-16)
(1192.64 73.2879 -2.42891e-16)
(1349.87 83.3522 1.16255e-16)
(1515.82 55.3551 2.2861e-19)
(1577.89 -25.8596 1.95766e-16)
(1596.69 -205.794 -2.00009e-17)
(1678.4 -348.254 -4.8334e-16)
(1689.62 -403.111 5.52564e-16)
(1755.13 -250.517 -3.05384e-16)
(1503.6 538.985 1.12345e-19)
(1540.68 836.072 -1.98198e-16)
(1716.66 592.545 1.25815e-16)
(1706.85 377.163 0)
(1684.89 204.558 0)
(1641.75 112.219 0)
(1514.99 73.6446 0)
(1361.27 21.468 0)
(1230.55 12.2417 -5.48538e-17)
(1162.82 -13.006 1.11137e-16)
(1095.65 -1.71127 -8.3983e-17)
(1084.01 -4.28587 3.14351e-17)
(1054.67 4.61364 -3.5187e-18)
(1072.81 14.0791 1.28061e-20)
(1088.59 15.1909 -5.59559e-17)
(1147.42 22.1034 5.67838e-17)
(1223.43 7.46073 0)
(1335.67 -12.9422 0)
(1489.86 -43.8701 -1.76014e-16)
(1627.96 -90.5641 1.90776e-16)
(1677.12 -181.004 -1.72664e-19)
(1700.83 -374.417 7.08792e-20)
(1711.99 -596.566 -9.33019e-20)
(1568.49 -813.275 -7.11157e-20)
(1470 -628.64 0)
(1193.19 849.75 -1.83944e-16)
(1581.63 991.471 1.17077e-16)
(1773.4 746.482 -1.31784e-19)
(1758.05 531.035 1.51785e-16)
(1739.59 342.965 -1.30639e-16)
(1695.74 240.266 0)
(1593.96 186.202 -8.44527e-17)
(1458.48 109.904 8.2763e-17)
(1330.42 71.7595 -4.7721e-17)
(1257.46 33.4897 9.69052e-17)
(1194.59 25.5033 -4.82307e-17)
(1175.3 10.0037 1.80849e-19)
(1150.9 6.79385 0)
(1167.38 3.35368 2.45498e-17)
(1192.74 -8.42698 2.37363e-17)
(1251.51 -22.6081 -4.92129e-17)
(1332.09 -52.433 -9.15828e-17)
(1445.23 -104.645 9.08029e-17)
(1577.51 -166.51 -7.44349e-17)
(1687.27 -228.74 8.24088e-17)
(1738.46 -329.845 8.03306e-20)
(1757.84 -535.201 -7.90471e-20)
(1755.45 -756.806 0)
(1594.28 -972.394 6.51128e-20)
(1193.71 -858.119 0)
(1159.25 792.295 1.43565e-16)
(1624.4 945.554 -1.30852e-16)
(1796.52 820.145 5.11259e-20)
(1774.87 674.941 0)
(1762.63 493.735 0)
(1723.66 376.977 -7.48827e-21)
(1648.26 290.11 0)
(1538.26 190.374 8.00686e-20)
(1420.65 134.646 0)
(1349.3 74.0962 4.31555e-17)
(1283.6 52.999 -6.43567e-17)
(1267.56 24.5251 3.21647e-17)
(1242.1 7.86836 -1.07855e-17)
(1260.9 -9.43474 0)
(1282.9 -35.2258 0)
(1346.15 -59.8345 4.14906e-17)
(1424.8 -113.414 -1.20916e-16)
(1524.32 -184.214 7.87812e-17)
(1633.46 -269.081 -6.49245e-17)
(1715.58 -371.663 7.17719e-17)
(1760.59 -480.519 0)
(1780.29 -656.526 0)
(1795.92 -813.833 0)
(1637.89 -911.186 -6.96383e-21)
(1151.77 -768.29 -1.6543e-16)
(1264.13 685.817 -2.76984e-20)
(1707.05 831.074 1.07579e-16)
(1782.96 859.702 -9.86605e-17)
(1781.68 742.147 0)
(1771.79 599.065 0)
(1746.97 477.545 7.72472e-21)
(1689.66 366.666 6.58541e-17)
(1591.56 256.298 -6.40242e-17)
(1487.44 188.4 3.31746e-20)
(1424.44 118.531 3.47154e-20)
(1366.68 78.4689 3.52544e-20)
(1346.5 37.6106 -1.01557e-20)
(1326.53 8.22008 -1.01525e-20)
(1341.34 -21.9712 1.91506e-17)
(1368.15 -59.6334 -1.94782e-17)
(1423.46 -104.193 4.48004e-20)
(1494.18 -165.938 4.30453e-20)
(1584.82 -247.756 0)
(1679.91 -345.005 -5.80138e-17)
(1743.5 -470.591 6.41073e-17)
(1772.59 -586.585 0)
(1790.46 -723.431 -1.01292e-16)
(1782.6 -847.999 1.03902e-16)
(1711.66 -825.706 6.41766e-21)
(1305.59 -698.163 -1.48643e-16)
(1365.83 587.658 3.40818e-20)
(1736.71 774.722 0)
(1768.42 860.367 0)
(1781.32 785.67 -5.44866e-17)
(1778.71 675.667 4.77583e-17)
(1770.38 553.095 0)
(1724.15 430.59 6.05062e-17)
(1639.61 310.309 -5.86882e-17)
(1549.05 231.117 3.41763e-17)
(1494.47 148.235 -3.39773e-17)
(1438.2 102.344 1.78631e-17)
(1425.41 48.0182 -1.76626e-17)
(1403.07 7.33181 0)
(1420.82 -35.8851 -1.75428e-17)
(1440.77 -86.4971 1.79367e-17)
(1496.32 -137.585 -3.66044e-20)
(1561 -215.561 -3.51461e-20)
(1635.69 -309.656 5.67425e-20)
(1716.59 -415.958 5.32841e-17)
(1767.29 -552.166 -5.83868e-17)
(1772.54 -668.842 -4.92441e-20)
(1784.91 -769.729 -4.87743e-20)
(1774.64 -846.011 0)
(1737.42 -753.854 -5.11819e-20)
(1361.32 -575.719 3.43428e-20)
(1405.81 525.252 1.2582e-22)
(1750.34 711.563 0)
(1764.57 848.952 8.49313e-23)
(1782.66 805.826 4.48063e-20)
(1786 722.079 -8.83454e-23)
(1791.04 603.727 -5.29809e-17)
(1752.67 479.679 4.90845e-17)
(1677.02 359.252 0)
(1599.43 272.337 -6.39721e-20)
(1553.38 183.708 -1.13972e-22)
(1506.86 122.194 -1.15592e-22)
(1491.23 58.8131 6.82213e-20)
(1473.87 7.30791 0)
(1486.66 -46.3944 0)
(1510.04 -105.922 -1.15175e-22)
(1555.65 -174.41 -1.13761e-22)
(1610.65 -255.482 -2.94229e-17)
(1676.72 -354.089 8.34818e-17)
(1746.54 -461.102 -5.54116e-17)
(1790.65 -595.43 0)
(1785.86 -709.722 -4.56739e-17)
(1787.63 -788.369 4.80677e-17)
(1771.84 -836.634 8.37089e-23)
(1756.02 -713.763 4.6185e-20)
(1426.02 -543.76 1.23961e-22)
(1443.05 456.045 6.96976e-18)
(1741.21 689.063 1.05743e-17)
(1761.06 827.652 9.04673e-17)
(1785.24 800.799 -4.34083e-17)
(1798.21 743.704 4.33456e-17)
(1811.61 635.949 -4.85748e-17)
(1775.18 518.221 4.57562e-17)
(1712.19 394.038 -2.73164e-17)
(1647.28 300.725 2.70291e-17)
(1609.49 203.705 1.19542e-22)
(1564.16 139.883 1.21765e-22)
(1557.01 67.1692 -1.21945e-22)
(1537.58 7.69608 7.39688e-18)
(1553.02 -56.4917 7.25717e-18)
(1567.67 -125.527 -1.51179e-17)
(1612.49 -195.044 1.19848e-22)
(1660.6 -286.733 5.43206e-17)
(1712.43 -392.439 -1.04944e-16)
(1769.86 -500.604 5.13923e-17)
(1811.65 -625.079 0)
(1796.25 -729.024 -8.95212e-23)
(1788.67 -784.015 8.2954e-23)
(1770.05 -815.298 -8.14045e-23)
(1749.43 -681.289 -1.00448e-16)
(1455.75 -470.097 1.12928e-16)
(1432.05 461.137 1.10307e-19)
(1713.82 661.312 0)
(1763.89 776.449 0)
(1792.25 785.794 4.10662e-20)
(1814.89 740.834 8.25802e-20)
(1829.8 645.596 0)
(1796.03 535.32 4.79318e-17)
(1740.26 417.949 -4.71156e-17)
(1686.48 324.084 4.83821e-20)
(1656.08 225.475 -5.00528e-20)
(1620.94 149.732 -1.3892e-17)
(1610.38 70.2398 1.37751e-17)
(1596.31 4.28453 3.55423e-18)
(1606.86 -66.8589 -3.47737e-18)
(1625.07 -142.037 1.35215e-17)
(1660.04 -225.27 -4.02425e-17)
(1699.8 -316.611 2.69641e-17)
(1744.67 -422.091 -5.12359e-20)
(1791.18 -526.983 4.23208e-20)
(1828.55 -642.239 -4.20123e-17)
(1814.2 -731.632 1.07892e-18)
(1798.4 -773.267 -1.40888e-18)
(1774.35 -774.279 4.15655e-17)
(1728.01 -655.783 4.62749e-20)
(1451.52 -471.857 5.3636e-20)
(1401.88 462.833 1.07763e-16)
(1719.24 627.32 -9.22788e-17)
(1787.38 720.828 0)
(1802.02 762.644 -4.01507e-17)
(1826.66 731.259 7.09168e-20)
(1845.17 654.718 4.00893e-17)
(1813.66 559.931 4.46846e-17)
(1770.62 441.758 -4.41975e-17)
(1727.37 344.416 -5.05529e-20)
(1703.68 240.204 -2.5599e-17)
(1668.13 164.6 1.22577e-17)
(1665.81 79.3186 1.26476e-17)
(1648.29 7.11265 -5.35573e-20)
(1662.17 -70.5352 0)
(1670.18 -151.311 0)
(1705.11 -232.297 0)
(1739.7 -329.877 5.07091e-20)
(1773.28 -438.28 1.06815e-20)
(1808.68 -540.842 -5.40456e-20)
(1844.08 -639.528 0)
(1825.78 -714.04 4.00593e-20)
(1807.89 -743.65 9.87492e-21)
(1789.36 -712.127 -5.06381e-20)
(1737.12 -626.592 -9.02623e-17)
(1440.68 -475.125 1.04571e-16)
(1391.93 448.341 5.15815e-17)
(1734.04 564.769 -8.58284e-17)
(1803.46 649.155 8.43732e-17)
(1814.94 723.591 -4.15905e-17)
(1843.82 711.898 -3.81258e-17)
(1858.56 642.091 3.8529e-17)
(1829.63 555.066 2.09429e-17)
(1793.11 447.668 -2.10934e-17)
(1758.62 355.821 1.16468e-17)
(1741.09 253.369 -2.3406e-17)
(1715.14 169.814 1.76475e-17)
(1708.62 80.3943 -7.43503e-18)
(1696.6 4.63544 1.48816e-18)
(1705.34 -76.7033 -4.4141e-20)
(1718.31 -160.864 2.32959e-17)
(1743.45 -252.203 -2.40058e-17)
(1771.07 -345.71 4.26609e-20)
(1800.39 -448.377 4.23455e-17)
(1826.21 -543.792 -1.99611e-18)
(1856.81 -633.425 -3.96167e-17)
(1843.39 -702.039 0)
(1819.44 -717.37 4.22653e-17)
(1806.96 -659.854 -3.82047e-17)
(1739.06 -578.303 -9.13903e-17)
(1419.79 -455.919 -3.81921e-18)
(1420.27 418.512 -5.08883e-17)
(1758.26 493.95 4.56599e-17)
(1825.07 600.608 1.94705e-20)
(1830.06 687.701 -5.54942e-20)
(1860.72 689.526 1.88072e-20)
(1870.41 628.183 3.75964e-17)
(1844.18 554.289 -1.86845e-17)
(1818.71 450.762 -2.01322e-17)
(1793.66 358.338 4.43701e-20)
(1781.13 254.074 -4.56107e-20)
(1753.31 173.697 2.07607e-20)
(1755.3 81.221 -2.06504e-20)
(1739.13 2.12172 0)
(1751.86 -82.7601 4.98496e-21)
(1755.03 -169.089 -1.09815e-17)
(1781.85 -255.958 1.12287e-17)
(1805.01 -353.204 -2.11275e-17)
(1823.72 -456.596 8.77311e-19)
(1841.33 -544.818 1.97538e-17)
(1868.66 -618.18 -5.49227e-20)
(1858.36 -674.688 -3.80558e-17)
(1836.58 -667.125 3.65582e-17)
(1829.11 -582.443 0)
(1764.43 -508.335 -4.55381e-17)
(1418.5 -433.721 4.86176e-17)
(1433.63 379.349 0)
(1773.64 423.079 -3.77544e-17)
(1833.31 521.159 4.39046e-17)
(1847.86 632.693 1.80196e-20)
(1874.17 664.189 1.75578e-20)
(1884.41 611.547 -3.59216e-17)
(1860.26 541.313 3.76342e-17)
(1838.36 448.023 2.00957e-17)
(1818.69 364.498 6.51337e-19)
(1811.36 265.051 -2.05996e-17)
(1792.91 179.828 -2.17768e-20)
(1790.06 85.5648 2.43548e-20)
(1778.74 5.03302 0)
(1785.91 -81.4511 4.37433e-20)
(1794.64 -169.676 -2.16828e-20)
(1811.08 -261.632 1.02811e-17)
(1828.95 -350.453 -1.04536e-17)
(1846.95 -445.995 -2.02202e-20)
(1858.61 -529.139 -2.10627e-20)
(1881.88 -602.511 1.80145e-20)
(1871.31 -655.289 -3.73447e-17)
(1851.06 -633.562 -5.3613e-18)
(1841.14 -530.702 3.53538e-17)
(1782.16 -430.034 0)
(1457.19 -396.663 5.17165e-17)
(1458.84 353.629 -9.83259e-17)
(1788.04 363.866 4.27819e-17)
(1841.34 461.95 3.39952e-17)
(1863.71 593.924 -4.01865e-17)
(1889.54 628.284 0)
(1898.12 589.465 -2.17261e-21)
(1873.2 532.084 0)
(1860.93 443.84 -2.39066e-21)
(1848.88 358.197 -2.47919e-21)
(1845.27 258.927 0)
(1823.27 179.053 0)
(1828.91 84.5251 -2.56142e-21)
(1813.55 2.99564 0)
(1824.78 -85.437 0)
(1824.61 -172.357 -9.87785e-18)
(1844.64 -259.369 9.95831e-18)
(1858.83 -350.997 -2.48769e-21)
(1867.62 -447.353 -1.88608e-17)
(1870.53 -521.78 1.81812e-17)
(1896.16 -577.467 0)
(1887.55 -613.844 3.69985e-17)
(1865.93 -574.579 -7.44331e-17)
(1849.56 -456.312 7.64536e-17)
(1798.87 -373.387 6.14019e-18)
(1471.25 -358.664 -4.74384e-17)
(1487.87 321.736 1.18164e-20)
(1801 317.493 -9.68341e-21)
(1828.23 404.586 0)
(1878.91 511.945 0)
(1899.34 587.002 0)
(1910.75 567.277 8.09195e-21)
(1887.97 509.078 0)
(1879.71 426.011 -8.62344e-21)
(1869.31 351.677 0)
(1868.61 258.936 -8.84339e-21)
(1856.62 177.642 0)
(1856.83 83.092 -2.37759e-18)
(1846.2 2.13659 2.35314e-18)
(1852.47 -86.1074 0)
(1857.35 -173.734 9.34811e-18)
(1866.78 -260.829 -1.88723e-17)
(1877.87 -342.213 9.41224e-18)
(1890.26 -428.848 0)
(1888.59 -504.403 1.76952e-17)
(1908.56 -561.98 -1.66174e-17)
(1897.2 -581.331 3.64931e-17)
(1881.1 -519.798 -3.25872e-17)
(1845.23 -397.669 0)
(1809.89 -308.989 0)
(1493.02 -324.414 0)
(1489.74 298.508 -1.17928e-20)
(1801.83 290.026 9.56962e-21)
(1830.19 333.297 0)
(1893.44 441.945 0)
(1910.64 537.047 0)
(1924.28 538.488 -8.14709e-21)
(1903.12 495.993 0)
(1899.41 421.236 8.85619e-21)
(1896.53 344.716 0)
(1898.29 251.992 -9.03312e-18)
(1880.59 176.591 9.06536e-18)
(1889.35 84.3347 -8.43842e-21)
(1874.87 4.64117 9.30098e-21)
(1884.66 -83.3998 8.43872e-21)
(1881.25 -167.313 0)
(1896.04 -250.645 0)
(1903.38 -334.511 9.08116e-21)
(1906.55 -421.158 -1.78047e-17)
(1901.7 -483.835 1.69792e-17)
(1921.81 -526.579 0)
(1906.11 -526.95 8.05678e-21)
(1892.36 -447.424 0)
(1831.14 -333.918 0)
(1817.02 -278.468 0)
(1515.58 -292.753 0)
(1513.21 275.371 -4.47405e-17)
(1811.31 262.55 3.94143e-17)
(1840.31 283.277 0)
(1904.43 344.248 -1.71821e-20)
(1919.3 477.666 0)
(1932.68 506.982 -1.54526e-17)
(1916.92 470.048 3.35053e-17)
(1917.5 398.626 -1.7191e-17)
(1912.86 332.08 -8.64057e-18)
(1915.27 248.058 8.65573e-18)
(1908.47 172.97 4.42218e-21)
(1911.17 80.9887 1.12577e-18)
(1901.51 2.9507 -1.07961e-18)
(1906.91 -83.7918 8.60758e-18)
(1908.59 -167.816 -8.65225e-18)
(1912.16 -248.169 0)
(1919.88 -320.542 -1.63681e-20)
(1929.79 -400.889 0)
(1918.76 -466.737 0)
(1929.91 -501.151 -1.72883e-17)
(1914.39 -477.12 1.52183e-17)
(1902.36 -350.699 0)
(1841.64 -278.383 3.78415e-17)
(1821.74 -251.586 1.89996e-18)
(1534.42 -271.764 -9.03224e-17)
(1533.73 259.58 4.51773e-17)
(1818.7 243.612 1.84553e-20)
(1848.86 225.135 3.25242e-17)
(1897.65 285.44 -2.37396e-17)
(1923.96 425.842 -1.86067e-17)
(1940.86 460.037 0)
(1930.58 446.557 8.39537e-21)
(1935.62 388.846 1.63199e-17)
(1937.44 321.687 -1.66681e-17)
(1941.78 234.709 0)
(1927.65 164.289 0)
(1938.55 77.4649 -2.5897e-20)
(1924.63 2.14083 3.24652e-20)
(1933.85 -82.3638 1.68818e-20)
(1927.63 -160.06 4.18893e-18)
(1938.31 -238.605 -4.13688e-18)
(1941.66 -315.046 8.90517e-21)
(1943.22 -390.313 1.69163e-17)
(1932.36 -437.116 -3.30105e-17)
(1941.16 -448.267 1.49778e-17)
(1922.38 -412.219 -1.57102e-20)
(1895.49 -283.908 0)
(1849.61 -226.91 1.78736e-20)
(1829.67 -237.296 3.82107e-17)
(1550.81 -256.342 -8.76877e-17)
(1548.72 240.323 -4.42243e-17)
(1832.7 225.179 -3.65008e-17)
(1854.44 197.878 3.58133e-17)
(1882.18 194.519 1.49114e-17)
(1930.68 337.755 -1.93584e-17)
(1943.77 414.259 0)
(1941.87 415.376 4.04451e-21)
(1951.99 363.588 -1.19193e-20)
(1951.37 307.818 8.03266e-18)
(1954.88 231.822 -1.61588e-17)
(1950.87 163.633 8.0736e-18)
(1955.47 76.7676 2.00444e-18)
(1946.42 4.35861 -1.87429e-18)
(1950.8 -77.7479 1.86864e-18)
(1950.65 -155.935 -2.01201e-18)
(1950.22 -230.268 0)
(1956.31 -294.332 1.20034e-20)
(1964.04 -365.029 -3.83706e-21)
(1944.57 -413.029 -1.71219e-17)
(1939.81 -411.35 1.47084e-17)
(1928.9 -343.164 0)
(1881.54 -199.525 0)
(1856.64 -197.327 -4.32496e-21)
(1842.59 -219.338 -3.7405e-17)
(1574.17 -236.049 -1.40305e-18)
(1560.08 221.206 -2.07352e-17)
(1840.07 215.36 1.86226e-17)
(1863.37 180.086 4.31938e-21)
(1887.66 140.37 0)
(1932.17 257.929 1.44771e-17)
(1948.66 346.947 -1.75722e-17)
(1952.6 378.228 3.82243e-21)
(1966.81 349.098 3.8858e-21)
(1972.8 297.174 1.47638e-20)
(1979.24 218.407 -1.92527e-18)
(1967.01 152.866 9.90121e-19)
(1978.4 72.2593 1.89662e-18)
(1964.84 3.18623 -9.73163e-19)
(1973.39 -76.3017 3.88147e-18)
(1966.7 -147.115 -3.89424e-18)
(1974.39 -221.13 0)
(1974.02 -288.867 1.09133e-20)
(1974.59 -347.514 -1.64226e-17)
(1955.96 -368.306 1.50312e-17)
(1947.93 -339.534 3.78649e-21)
(1927.58 -253.589 0)
(1885.78 -140.621 0)
(1865.61 -183.027 4.34362e-21)
(1849.86 -213.736 -3.67423e-17)
(1580.31 -221.567 4.1305e-17)
(1583.57 197.134 2.08234e-20)
(1854.06 193.651 0)
(1879.97 162.092 -8.1052e-21)
(1893.51 73.1845 -1.50586e-17)
(1920.44 174.419 1.8411e-17)
(1947.95 299.448 -1.42685e-17)
(1953.08 333.001 1.7022e-17)
(1978.75 313.716 -7.44212e-18)
(1983.21 275.506 7.82051e-18)
(1988.2 209.486 -3.77e-18)
(1986.23 149.702 3.79589e-18)
(1991.53 68.9589 -1.84729e-18)
(1982.64 2.82625 2.11007e-18)
(1986.81 -74.053 -2.49967e-19)
(1986.1 -145.117 3.7916e-18)
(1983.09 -211.863 -7.59093e-18)
(1986.23 -266.463 -4.0906e-18)
(1989.32 -319.104 7.42641e-18)
(1957.61 -330.494 1.52034e-20)
(1947.45 -290.173 -7.70737e-21)
(1917.95 -175.906 0)
(1891.88 -76.8631 0)
(1882.01 -165.585 0)
(1859.36 -196.11 -1.80975e-17)
(1595 -201.995 2.00859e-17)
(1588.73 179.346 -2.51177e-21)
(1859.47 175.898 0)
(1899.34 154.952 1.02989e-20)
(1899.42 54.8963 -8.12402e-21)
(1892.88 101.989 -7.66919e-21)
(1944.22 195.911 0)
(1959.36 279.174 -7.49883e-21)
(1986.99 290.42 7.20541e-18)
(2000.1 263.846 -7.70156e-18)
(2010.18 198.893 0)
(1999.61 140.243 1.7572e-21)
(2011.17 66.5963 0)
(1997.74 4.62238 0)
(2006.18 -68.9275 1.82594e-18)
(1998.96 -132.5 -1.83989e-18)
(2004.73 -199.051 -7.31836e-21)
(1998.81 -253.587 -1.78169e-21)
(1993.37 -287.129 7.41829e-21)
(1963.75 -270.147 -8.62671e-18)
(1948.26 -204.657 7.13087e-18)
(1887.82 -104.64 -1.74549e-17)