/*--------------------------------*- C++ -*----------------------------------*\
| =========                 |                                                 |
| \\      /  F ield         | OpenFOAM: The Open Source CFD Toolbox           |
|  \\    /   O peration     | Version:  2112                                  |
|   \\  /    A nd           | Website:  www.openfoam.com                      |
|    \\/     M anipulation  |                                                 |
\*---------------------------------------------------------------------------*/
FoamFile
{
    version     2.0;
    format      ascii;
    arch        "LSB;label=32;scalar=64";
    class       volScalarField;
    location    "0.01097";
    object      epsilon;
}
// * * * * * * * * * * * * * * * * * * * * * * * * * * * * * * * * * * * * * //

dimensions      [0 2 -3 0 0 0 0];

internalField   nonuniform List<scalar> 
13875
(
1.16001e+06
2.94628e+07
3.28237e+07
3.28362e+07
3.29039e+07
3.28426e+07
3.29188e+07
3.29792e+07
3.29008e+07
3.28704e+07
3.29126e+07
3.29143e+07
3.28721e+07
3.28447e+07
3.2861e+07
3.29101e+07
3.29482e+07
3.29133e+07
3.28933e+07
3.28608e+07
3.28997e+07
3.28304e+07
3.2806e+07
2.94859e+07
1.17761e+06
1.31389e+06
2.27475e+07
2.53556e+07
2.52366e+07
2.52782e+07
2.52144e+07
2.52381e+07
2.52653e+07
2.52137e+07
2.5219e+07
2.52401e+07
2.52514e+07
2.52108e+07
2.51939e+07
2.52005e+07
2.52499e+07
2.5246e+07
2.52363e+07
2.52252e+07
2.52291e+07
2.52698e+07
2.52197e+07
2.53288e+07
2.27518e+07
1.3421e+06
1.57303e+06
1.97065e+07
2.18303e+07
2.16259e+07
2.16955e+07
2.16318e+07
2.15644e+07
2.15594e+07
2.15068e+07
2.15048e+07
2.1523e+07
2.15488e+07
2.16085e+07
2.16025e+07
2.15971e+07
2.1547e+07
2.15316e+07
2.153e+07
2.15486e+07
2.16408e+07
2.16833e+07
2.16018e+07
2.179e+07
1.96839e+07
1.58478e+06
1.81372e+06
1.73852e+07
1.90388e+07
1.88794e+07
1.89646e+07
1.89084e+07
1.88255e+07
1.88193e+07
1.87701e+07
1.87569e+07
1.87776e+07
1.879e+07
1.88855e+07
1.88805e+07
1.88764e+07
1.87873e+07
1.87938e+07
1.878e+07
1.88065e+07
1.8915e+07
1.8952e+07
1.8858e+07
1.90142e+07
1.73601e+07
1.82085e+06
2.02278e+06
1.54524e+07
1.67729e+07
1.66212e+07
1.67016e+07
1.66518e+07
1.65655e+07
1.65628e+07
1.65244e+07
1.65148e+07
1.65344e+07
1.65353e+07
1.66277e+07
1.66275e+07
1.66195e+07
1.65335e+07
1.65473e+07
1.65308e+07
1.65525e+07
1.66546e+07
1.66901e+07
1.66052e+07
1.67437e+07
1.5428e+07
2.03704e+06
2.20645e+06
1.37123e+07
1.49288e+07
1.47395e+07
1.48297e+07
1.47713e+07
1.46763e+07
1.46766e+07
1.46439e+07
1.46369e+07
1.46563e+07
1.46483e+07
1.47388e+07
1.47426e+07
1.47317e+07
1.46465e+07
1.46675e+07
1.46478e+07
1.46667e+07
1.47747e+07
1.48193e+07
1.47293e+07
1.49029e+07
1.38493e+07
2.22328e+06
2.42253e+06
1.22512e+07
1.34786e+07
1.32085e+07
1.32689e+07
1.31988e+07
1.30909e+07
1.30909e+07
1.30599e+07
1.30502e+07
1.30716e+07
1.30569e+07
1.31462e+07
1.31517e+07
1.31377e+07
1.3055e+07
1.30835e+07
1.30616e+07
1.30853e+07
1.32004e+07
1.32569e+07
1.32014e+07
1.34209e+07
1.19537e+07
2.42948e+06
2.66593e+06
1.06156e+07
1.23134e+07
1.19764e+07
1.19984e+07
1.18858e+07
1.17594e+07
1.17496e+07
1.17163e+07
1.17036e+07
1.17299e+07
1.17073e+07
1.1796e+07
1.18043e+07
1.17878e+07
1.17049e+07
1.17428e+07
1.17209e+07
1.17513e+07
1.18842e+07
1.19812e+07
1.19655e+07
1.22639e+07
1.05454e+07
2.69426e+06
3.49635e+06
1.02128e+07
1.14833e+07
1.10304e+07
1.09389e+07
1.07875e+07
1.06399e+07
1.06181e+07
1.05786e+07
1.05607e+07
1.05953e+07
1.05665e+07
1.06534e+07
1.06645e+07
1.06469e+07
1.05657e+07
1.06085e+07
1.05867e+07
1.06248e+07
1.07801e+07
1.09225e+07
1.10213e+07
1.14743e+07
1.03377e+07
3.57348e+06
6.8359e+06
1.22205e+07
1.1197e+07
1.04281e+07
1.01667e+07
9.93403e+06
9.77028e+06
9.73183e+06
9.68851e+06
9.67058e+06
9.7058e+06
9.67499e+06
9.75644e+06
9.76971e+06
9.75271e+06
9.68292e+06
9.71936e+06
9.70843e+06
9.74519e+06
9.91506e+06
1.01432e+07
1.036e+07
1.11614e+07
1.21299e+07
6.89272e+06
1.49176e+07
1.8691e+07
1.20466e+07
1.03217e+07
9.61701e+06
9.32604e+06
9.14368e+06
9.06662e+06
9.01742e+06
9.00197e+06
9.03096e+06
9.00115e+06
9.07371e+06
9.08933e+06
9.07795e+06
9.0281e+06
9.05568e+06
9.06166e+06
9.12397e+06
9.28505e+06
9.6087e+06
1.02675e+07
1.18779e+07
1.79382e+07
1.49992e+07
2.54784e+07
6.88547e+07
1.81728e+07
1.07094e+07
9.70917e+06
9.01976e+06
8.71876e+06
8.59985e+06
8.53619e+06
8.52033e+06
8.53578e+06
8.51059e+06
8.56875e+06
8.58674e+06
8.58404e+06
8.55561e+06
8.58002e+06
8.61044e+06
8.70271e+06
9.01739e+06
9.65457e+06
1.05535e+07
1.75776e+07
6.72523e+07
2.50351e+07
2.65998e+07
7.60521e+07
8.70013e+07
2.39999e+07
1.09367e+07
9.1213e+06
8.73328e+06
8.44626e+06
8.32822e+06
8.28688e+06
8.27759e+06
8.25199e+06
8.29274e+06
8.31263e+06
8.32311e+06
8.32497e+06
8.37923e+06
8.49119e+06
8.76219e+06
9.15319e+06
1.12984e+07
2.2624e+07
8.08162e+07
7.64752e+07
2.60842e+07
2.63744e+07
5.52687e+07
7.99766e+07
1.04647e+08
5.74523e+07
1.30473e+07
9.62822e+06
8.81656e+06
8.5742e+06
8.5576e+06
8.54688e+06
8.52467e+06
8.55671e+06
8.57605e+06
8.59482e+06
8.61427e+06
8.65263e+06
8.8859e+06
9.94971e+06
1.45054e+07
6.57946e+07
9.10437e+07
7.52702e+07
5.44735e+07
2.57582e+07
2.53596e+07
4.26569e+07
5.82423e+07
7.25906e+07
7.5038e+07
7.44055e+07
2.33915e+07
1.31061e+07
1.11038e+07
1.03958e+07
1.0109e+07
9.99762e+06
9.99553e+06
1.00262e+07
1.01096e+07
1.03449e+07
1.1035e+07
1.31872e+07
2.6241e+07
7.75514e+07
7.50714e+07
6.60413e+07
5.6564e+07
4.22171e+07
2.64179e+07
2.47377e+07
3.36066e+07
4.34488e+07
5.43121e+07
5.91236e+07
6.77103e+07
5.10918e+07
4.53076e+07
4.15583e+07
3.26269e+07
3.45747e+07
3.56701e+07
3.64538e+07
3.61765e+07
3.50343e+07
3.30738e+07
4.03315e+07
4.89835e+07
5.20148e+07
6.86477e+07
5.82164e+07
5.05103e+07
4.25972e+07
3.34022e+07
2.57977e+07
2.00709e+07
2.52888e+07
3.2319e+07
4.19376e+07
4.93831e+07
6.18905e+07
7.05499e+07
7.04445e+07
5.76364e+07
4.96784e+07
5.22443e+07
5.49652e+07
5.65627e+07
5.5949e+07
5.31267e+07
5.3325e+07
5.80097e+07
7.064e+07
7.06971e+07
6.12895e+07
4.71608e+07
3.90547e+07
3.08938e+07
2.45081e+07
1.99395e+07
1.48368e+07
1.91325e+07
2.64475e+07
3.7331e+07
4.54552e+07
5.30647e+07
6.34802e+07
6.86679e+07
5.15463e+07
3.83515e+07
3.53118e+07
3.55974e+07
3.62643e+07
3.59401e+07
3.58829e+07
4.1539e+07
5.1802e+07
6.47427e+07
6.26724e+07
5.40663e+07
4.52486e+07
3.60362e+07
2.53683e+07
1.85593e+07
1.45193e+07
1.223e+07
1.67036e+07
2.39034e+07
3.71828e+07
4.79626e+07
4.63686e+07
4.91273e+07
5.47646e+07
4.5585e+07
3.4239e+07
2.88205e+07
2.72353e+07
2.70679e+07
2.75333e+07
2.95557e+07
3.55705e+07
4.39751e+07
5.12356e+07
4.87864e+07
4.79359e+07
5.04416e+07
3.69317e+07
2.35777e+07
1.64495e+07
1.20634e+07
1.16283e+07
1.82063e+07
2.48489e+07
3.69145e+07
4.36639e+07
3.93612e+07
3.86459e+07
4.22896e+07
3.89363e+07
3.14142e+07
2.55976e+07
2.24112e+07
2.14179e+07
2.29304e+07
2.66853e+07
3.21671e+07
3.70199e+07
3.96952e+07
3.85685e+07
4.07265e+07
4.50782e+07
3.62158e+07
2.4776e+07
1.83486e+07
1.17194e+07
2.98961e+07
5.94654e+07
4.49239e+07
3.22463e+07
3.47389e+07
3.17095e+07
3.09198e+07
3.38355e+07
3.29834e+07
2.78035e+07
2.22379e+07
1.84602e+07
1.72445e+07
1.92458e+07
2.35643e+07
2.83748e+07
3.12339e+07
3.19459e+07
3.10012e+07
3.27927e+07
3.56908e+07
3.30429e+07
5.02132e+07
6.55317e+07
3.85977e+07
9.2874e+07
2.96953e+08
6.12232e+07
2.61501e+07
2.74818e+07
2.57633e+07
2.53124e+07
2.77457e+07
2.77995e+07
2.40136e+07
1.90355e+07
1.52594e+07
1.40162e+07
1.60542e+07
2.02538e+07
2.43659e+07
2.62198e+07
2.63534e+07
2.5363e+07
2.65354e+07
2.80796e+07
2.70132e+07
6.81325e+07
2.94896e+08
1.08088e+08
1.10087e+08
2.30857e+08
5.07853e+07
2.17788e+07
2.22579e+07
2.12852e+07
2.09687e+07
2.30462e+07
2.3357e+07
2.04157e+07
1.60795e+07
1.2658e+07
1.14825e+07
1.32807e+07
1.70377e+07
2.06008e+07
2.19403e+07
2.1949e+07
2.09814e+07
2.17254e+07
2.25921e+07
2.24303e+07
5.20168e+07
2.26038e+08
1.08251e+08
9.43452e+07
2.33308e+08
3.97661e+07
1.86422e+07
1.83058e+07
1.76696e+07
1.74911e+07
1.91907e+07
1.95849e+07
1.71803e+07
1.34278e+07
1.04811e+07
9.50872e+06
1.10684e+07
1.43345e+07
1.74042e+07
1.84066e+07
1.83043e+07
1.7552e+07
1.80325e+07
1.86347e+07
1.9284e+07
4.15545e+07
2.43766e+08
9.45051e+07
8.62926e+07
2.23366e+08
3.31868e+07
1.62657e+07
1.54405e+07
1.48642e+07
1.47992e+07
1.6125e+07
1.64847e+07
1.44853e+07
1.1293e+07
8.78322e+06
7.96888e+06
9.29135e+06
1.21052e+07
1.47236e+07
1.55216e+07
1.53819e+07
1.48301e+07
1.51658e+07
1.57868e+07
1.68693e+07
3.52887e+07
2.41109e+08
8.79429e+07
7.95704e+07
2.17284e+08
2.85881e+07
1.42248e+07
1.32536e+07
1.26402e+07
1.26746e+07
1.36666e+07
1.39327e+07
1.22683e+07
9.58078e+06
7.44027e+06
6.74996e+06
7.85825e+06
1.02459e+07
1.24623e+07
1.31312e+07
1.30006e+07
1.26066e+07
1.28277e+07
1.35598e+07
1.46813e+07
3.02433e+07
2.32068e+08
8.23938e+07
7.55255e+07
1.93073e+08
2.42452e+07
1.24737e+07
1.15469e+07
1.08765e+07
1.09455e+07
1.1655e+07
1.17843e+07
1.03592e+07
8.13249e+06
6.35456e+06
5.77994e+06
6.73253e+06
8.76377e+06
1.0622e+07
1.12197e+07
1.11238e+07
1.08471e+07
1.10279e+07
1.18682e+07
1.29315e+07
2.61119e+07
2.08439e+08
7.90667e+07
7.20447e+07
1.74082e+08
2.13212e+07
1.10893e+07
1.01998e+07
9.50161e+06
9.55449e+06
1.00467e+07
1.00685e+07
8.84887e+06
6.9898e+06
5.48825e+06
4.99753e+06
5.8044e+06
7.51751e+06
9.08528e+06
9.63145e+06
9.58476e+06
9.41557e+06
9.60422e+06
1.04565e+07
1.14583e+07
2.30573e+07
1.92492e+08
7.40651e+07
6.69848e+07
1.62502e+08
1.91901e+07
9.93563e+06
9.0923e+06
8.43647e+06
8.41484e+06
8.7272e+06
8.66159e+06
7.60319e+06
6.0573e+06
4.78701e+06
4.35827e+06
5.04222e+06
6.47414e+06
7.78062e+06
8.3091e+06
8.3228e+06
8.24179e+06
8.45956e+06
9.26499e+06
1.02244e+07
2.03082e+07
1.67835e+08
6.98782e+07
6.2058e+07
1.44869e+08
1.74319e+07
8.98394e+06
8.11673e+06
7.54207e+06
7.47742e+06
7.61881e+06
7.46065e+06
6.53703e+06
5.25364e+06
4.19404e+06
3.83299e+06
4.43085e+06
5.659e+06
6.763e+06
7.24397e+06
7.30055e+06
7.30472e+06
7.54039e+06
8.25627e+06
9.23513e+06
1.84965e+07
1.50989e+08
6.57299e+07
5.76272e+07
1.25238e+08
1.601e+07
8.23493e+06
7.29362e+06
6.78704e+06
6.69996e+06
6.71808e+06
6.50083e+06
5.68633e+06
4.6149e+06
3.71351e+06
3.39593e+06
3.91188e+06
4.94957e+06
5.87475e+06
6.34063e+06
6.45207e+06
6.52784e+06
6.7563e+06
7.36836e+06
8.42132e+06
1.67806e+07
1.31249e+08
6.08657e+07
5.35514e+07
1.12343e+08
1.49258e+07
7.66957e+06
6.594e+06
6.13086e+06
6.0371e+06
5.97483e+06
5.71709e+06
4.99889e+06
4.08894e+06
3.31106e+06
3.03235e+06
3.4746e+06
4.36642e+06
5.16012e+06
5.59369e+06
5.74447e+06
5.86596e+06
6.07701e+06
6.62309e+06
7.79371e+06
1.53992e+07
1.14774e+08
5.66102e+07
4.97893e+07
9.68048e+07
1.38545e+07
7.22044e+06
6.00862e+06
5.57246e+06
5.44686e+06
5.33312e+06
5.03709e+06
4.39731e+06
3.63049e+06
2.96798e+06
2.72516e+06
3.11812e+06
3.8901e+06
4.56791e+06
4.97904e+06
5.1586e+06
5.29273e+06
5.50605e+06
6.01802e+06
7.29691e+06
1.43623e+07
1.00931e+08
5.291e+07
4.67278e+07
8.46309e+07
1.28693e+07
6.88053e+06
5.541e+06
5.09474e+06
4.92715e+06
4.79516e+06
4.4846e+06
3.91579e+06
3.25807e+06
2.67925e+06
2.46502e+06
2.80433e+06
3.47759e+06
4.06593e+06
4.44743e+06
4.64888e+06
4.78801e+06
5.01084e+06
5.51973e+06
6.89542e+06
1.33759e+07
8.68051e+07
4.9326e+07
4.39636e+07
7.54965e+07
1.18842e+07
6.5779e+06
5.21027e+06
4.67979e+06
4.48325e+06
4.32846e+06
4.01863e+06
3.50613e+06
2.94077e+06
2.43443e+06
2.24239e+06
2.54052e+06
3.12534e+06
3.63789e+06
3.99797e+06
4.20764e+06
4.35497e+06
4.60353e+06
5.15571e+06
6.58252e+06
1.23029e+07
7.61937e+07
4.63378e+07
4.11552e+07
6.67139e+07
1.09533e+07
6.31217e+06
4.96347e+06
4.32673e+06
4.09173e+06
3.91334e+06
3.61289e+06
3.15459e+06
2.6622e+06
2.21803e+06
2.05071e+06
2.3151e+06
2.838e+06
3.28861e+06
3.6164e+06
3.82166e+06
3.98517e+06
4.25e+06
4.90077e+06
6.32653e+06
1.13826e+07
6.92053e+07
4.35159e+07
3.89482e+07
6.0141e+07
1.0171e+07
6.17589e+06
4.78521e+06
4.03757e+06
3.76206e+06
3.55814e+06
3.26775e+06
2.85814e+06
2.42795e+06
2.0352e+06
1.8841e+06
2.11816e+06
2.5774e+06
2.97439e+06
3.27872e+06
3.48244e+06
3.65822e+06
3.95237e+06
4.70574e+06
6.15436e+06
1.04953e+07
6.26891e+07
4.0664e+07
3.68496e+07
5.57904e+07
9.46368e+06
6.0368e+06
4.65605e+06
3.82449e+06
3.47177e+06
3.25035e+06
2.97136e+06
2.60674e+06
2.22755e+06
1.87377e+06
1.73893e+06
1.94535e+06
2.35757e+06
2.7088e+06
2.98268e+06
3.18901e+06
3.37379e+06
3.73418e+06
4.58579e+06
6.02938e+06
9.68691e+06
5.74516e+07
3.84218e+07
3.458e+07
5.08316e+07
8.68484e+06
5.76303e+06
4.59859e+06
3.66732e+06
3.22748e+06
2.98243e+06
2.70836e+06
2.37932e+06
2.04473e+06
1.7315e+06
1.61183e+06
1.7984e+06
2.16769e+06
2.47974e+06
2.73303e+06
2.93827e+06
3.13607e+06
3.57155e+06
4.53588e+06
5.81545e+06
8.93702e+06
5.32791e+07
3.64633e+07
3.27048e+07
4.73776e+07
7.99863e+06
5.45405e+06
4.59925e+06
3.55914e+06
3.03619e+06
2.75668e+06
2.48655e+06
2.18873e+06
1.89086e+06
1.60683e+06
1.49919e+06
1.66407e+06
1.99867e+06
2.27685e+06
2.50863e+06
2.72256e+06
2.95198e+06
3.46164e+06
4.51001e+06
5.47193e+06
8.21648e+06
4.87205e+07
3.44679e+07
3.11713e+07
4.44967e+07
7.59174e+06
5.15835e+06
4.67667e+06
3.49686e+06
2.89297e+06
2.5732e+06
2.29726e+06
2.02126e+06
1.75331e+06
1.4966e+06
1.39924e+06
1.54644e+06
1.84698e+06
2.09983e+06
2.32053e+06
2.54366e+06
2.81797e+06
3.39431e+06
4.635e+06
5.16391e+06
7.60718e+06
4.5573e+07
3.27108e+07
2.97272e+07
4.17205e+07
7.06395e+06
4.80713e+06
4.59444e+06
3.48295e+06
2.77939e+06
2.43274e+06
2.13593e+06
1.87329e+06
1.62983e+06
1.39622e+06
1.30968e+06
1.44301e+06
1.71968e+06
1.94894e+06
2.16154e+06
2.40436e+06
2.70741e+06
3.39643e+06
4.62622e+06
4.8827e+06
7.66424e+06
4.28579e+07
3.11658e+07
2.85492e+07
3.92754e+07
6.7099e+06
4.46654e+06
4.3671e+06
3.56578e+06
2.70488e+06
2.32405e+06
2.0076e+06
1.74743e+06
1.52189e+06
1.30809e+06
1.22942e+06
1.3493e+06
1.60098e+06
1.81446e+06
2.02855e+06
2.29716e+06
2.63018e+06
3.44747e+06
4.40595e+06
4.5365e+06
7.21703e+06
4.0688e+07
2.96575e+07
2.75903e+07
3.69456e+07
6.873e+06
4.17511e+06
4.08936e+06
3.72218e+06
2.68721e+06
2.2333e+06
1.91037e+06
1.64391e+06
1.4286e+06
1.22863e+06
1.157e+06
1.26541e+06
1.49725e+06
1.69975e+06
1.9235e+06
2.21252e+06
2.61326e+06
3.64482e+06
4.14589e+06
4.23686e+06
7.22727e+06
3.83514e+07
2.84483e+07
2.66429e+07
3.50056e+07
6.46224e+06
3.88513e+06
3.79049e+06
3.71735e+06
2.7672e+06
2.17055e+06
1.82852e+06
1.56045e+06
1.34651e+06
1.15808e+06
1.09199e+06
1.19241e+06
1.41195e+06
1.60981e+06
1.84257e+06
2.15452e+06
2.70298e+06
3.68822e+06
3.86985e+06
4.03066e+06
7.52121e+06
3.59284e+07
2.75148e+07
2.57924e+07
3.30288e+07
6.54664e+06
3.67741e+06
3.50474e+06
3.50331e+06
2.9969e+06
2.16544e+06
1.7669e+06
1.49805e+06
1.28327e+06
1.09975e+06
1.035e+06
1.13017e+06
1.34047e+06
1.53961e+06
1.77506e+06
2.13702e+06
2.88885e+06
3.50299e+06
3.58384e+06
3.80309e+06
7.24443e+06
3.37953e+07
2.6684e+07
2.49817e+07
3.12644e+07
6.70755e+06
3.53684e+06
3.25888e+06
3.27718e+06
3.06476e+06
2.29952e+06
1.72568e+06
1.44239e+06
1.23463e+06
1.05483e+06
988724
1.0804e+06
1.28568e+06
1.48266e+06
1.72556e+06
2.23756e+06
3.01971e+06
3.2844e+06
3.32328e+06
3.61088e+06
7.01042e+06
3.20775e+07
2.59051e+07
2.38259e+07
2.94433e+07
6.54924e+06
3.38988e+06
3.04747e+06
3.04084e+06
2.90387e+06
2.52664e+06
1.74975e+06
1.39626e+06
1.19237e+06
1.01897e+06
954831
1.04262e+06
1.24134e+06
1.43576e+06
1.73898e+06
2.46636e+06
2.92315e+06
3.05741e+06
3.1024e+06
3.48789e+06
7.02674e+06
3.02623e+07
2.47528e+07
2.24262e+07
2.74195e+07
6.44421e+06
3.29377e+06
2.86728e+06
2.81693e+06
2.73295e+06
2.63518e+06
1.89413e+06
1.37469e+06
1.15841e+06
988223
926540
1.01009e+06
1.20337e+06
1.4058e+06
1.85478e+06
2.63618e+06
2.75685e+06
2.83009e+06
2.91136e+06
3.35929e+06
6.77361e+06
2.83072e+07
2.32784e+07
1.94455e+07
2.43897e+07
6.29482e+06
3.21242e+06
2.71828e+06
2.62581e+06
2.55818e+06
2.51754e+06
2.1476e+06
1.43621e+06
1.13814e+06
961967
900578
982136
1.17542e+06
1.44272e+06
2.10989e+06
2.57226e+06
2.58804e+06
2.63458e+06
2.74687e+06
3.25193e+06
6.45903e+06
2.5197e+07
2.01943e+07
8.10577e+06
4.47691e+06
3.26121e+06
2.42093e+06
1.81943e+06
1.45029e+06
1.24017e+06
1.12079e+06
1.0467e+06
988644
930881
865899
790326
703572
609938
512390
417380
329114
252080
189301
139309
102095
75799.4
58345.3
47399.9
41325.5
38641.7
39772
48840.8
102656
8.98133e+06
4.69781e+06
3.43566e+06
2.56791e+06
1.94879e+06
1.56664e+06
1.34795e+06
1.22502e+06
1.14995e+06
1.09303e+06
1.03696e+06
972903
897137
808527
710460
605465
499884
398653
307508
231143
168931
121585
87790.5
65062.6
50795.7
42973
39668.1
40774
50620.7
105601
9.31459e+06
4.8463e+06
3.6119e+06
2.72475e+06
2.09022e+06
1.69248e+06
1.46274e+06
1.33537e+06
1.25836e+06
1.20109e+06
1.14712e+06
1.0845e+06
1.00891e+06
919555
817761
706411
591256
477697
372337
280964
204709
145670
102878
73604.1
55079.9
44939.7
40684.3
41617.9
52018.4
108277
9.6446e+06
5.13343e+06
3.87432e+06
2.94992e+06
2.28536e+06
1.86014e+06
1.61231e+06
1.4756e+06
1.39406e+06
1.33496e+06
1.27994e+06
1.21637e+06
1.13934e+06
1.0477e+06
941028
822863
698102
572047
451594
343015
250610
177584
123312
85444.4
61297.6
47909.1
42049.4
42504.2
53577.6
111376
1.00686e+07
5.46738e+06
4.18409e+06
3.21958e+06
2.51793e+06
2.05911e+06
1.78985e+06
1.63854e+06
1.54815e+06
1.48349e+06
1.42489e+06
1.35902e+06
1.28048e+06
1.18636e+06
1.07512e+06
950876
817510
679665
543714
417379
307776
218420
150105
101477
69923
52017.5
43840.7
43602.5
55028.4
114657
1.0536e+07
5.82207e+06
4.51277e+06
3.51315e+06
2.7775e+06
2.28662e+06
1.9919e+06
1.82445e+06
1.72368e+06
1.65166e+06
1.58822e+06
1.51868e+06
1.43664e+06
1.33772e+06
1.22057e+06
1.08941e+06
946891
796792
646433
503826
376462
269060
184426
122691
81639.1
57723
46355.2
44920.2
56441
117876
1.10672e+07
6.17854e+06
4.85616e+06
3.8305e+06
3.06501e+06
2.54238e+06
2.22144e+06
2.03585e+06
1.92264e+06
1.84108e+06
1.77052e+06
1.69376e+06
1.60478e+06
1.49822e+06
1.37336e+06
1.23401e+06
1.08145e+06
920518
758838
601581
456298
330207
227400
150119
97256.2
65502.5
49781.7
46465.5
57793.2
121227
1.15976e+07
6.53944e+06
5.21976e+06
4.17485e+06
3.38395e+06
2.83166e+06
2.48358e+06
2.27746e+06
2.14951e+06
2.05604e+06
1.97501e+06
1.887e+06
1.7862e+06
1.66808e+06
1.53341e+06
1.38419e+06
1.22224e+06
1.05372e+06
881678
710641
548552
403268
280649
185217
117922
76098.2
54512.2
48418.3
59264.1
124777
1.20979e+07
6.90758e+06
5.60891e+06
4.5494e+06
3.7383e+06
3.16021e+06
2.78332e+06
2.55442e+06
2.40838e+06
2.29999e+06
2.20295e+06
2.09732e+06
1.97773e+06
1.84332e+06
1.698e+06
1.53946e+06
1.37124e+06
1.19618e+06
1.01372e+06
830244
653087
488821
345356
229483
144880
90314.7
60951.5
51032.6
60736.7
128332
1.25262e+07
7.2914e+06
6.01938e+06
4.95305e+06
4.12836e+06
3.52785e+06
3.1279e+06
2.87114e+06
2.70483e+06
2.57684e+06
2.45492e+06
2.323e+06
2.18002e+06
2.03066e+06
1.87559e+06
1.70827e+06
1.53261e+06
1.34758e+06
1.15511e+06
959774
768522
586919
422703
284769
179958
109560
69954.9
54771.5
62568.9
131729
1.29303e+07
7.67997e+06
6.43759e+06
5.38053e+06
4.55238e+06
3.93662e+06
3.51598e+06
3.23626e+06
3.04382e+06
2.88871e+06
2.7309e+06
2.56712e+06
2.40468e+06
2.24305e+06
2.07411e+06
1.89338e+06
1.70552e+06
1.50837e+06
1.3043e+06
1.09757e+06
892151
694569
511292
351227
224254
134962
82221.8
59892.4
65113.6
135253
1.33196e+07
8.05889e+06
6.86044e+06
5.82635e+06
5.00711e+06
4.38714e+06
3.95114e+06
3.65025e+06
3.43198e+06
3.23658e+06
3.03448e+06
2.84566e+06
2.66854e+06
2.48711e+06
2.29533e+06
2.09704e+06
1.89337e+06
1.68137e+06
1.46343e+06
1.24341e+06
1.02349e+06
809430
607983
427306
277861
167212
98334.8
66657.2
68320.6
139202
1.37277e+07
8.41965e+06
7.2814e+06
6.28903e+06
5.4907e+06
4.87884e+06
4.43733e+06
4.11891e+06
3.86864e+06
3.62542e+06
3.38689e+06
3.1766e+06
2.97435e+06
2.76276e+06
2.5433e+06
2.32346e+06
2.09938e+06
1.86862e+06
1.6338e+06
1.39771e+06
1.16244e+06
932649
713127
512104
340071
206698
118953
75382
72077.4
143353
1.40561e+07
8.7678e+06
7.69517e+06
6.7635e+06
6.00333e+06
5.41084e+06
4.97572e+06
4.64533e+06
4.35933e+06
4.06893e+06
3.79931e+06
3.56123e+06
3.32506e+06
3.07705e+06
2.82462e+06
2.57687e+06
2.32766e+06
2.07438e+06
1.81949e+06
1.56493e+06
1.31227e+06
1.06503e+06
828193
607744
413154
255332
145290
86915.4
76430.2
147419
1.449e+07
9.06172e+06
8.09531e+06
7.23739e+06
6.53785e+06
5.981e+06
5.56517e+06
5.23179e+06
4.91124e+06
4.57701e+06
4.27671e+06
4.00504e+06
3.72755e+06
3.43627e+06
3.14457e+06
2.86262e+06
2.58335e+06
2.30339e+06
2.025e+06
1.7491e+06
1.47652e+06
1.21028e+06
954113
713403
496304
313238
179245
102394
81968.8
152088
1.46979e+07
9.33219e+06
8.45694e+06
7.70377e+06
7.08234e+06
6.5853e+06
6.20612e+06
5.88171e+06
5.53287e+06
5.1589e+06
4.82675e+06
4.51535e+06
4.18914e+06
3.84782e+06
3.51042e+06
3.18756e+06
2.8724e+06
2.56103e+06
2.25511e+06
1.95438e+06
1.65885e+06
1.37066e+06
1.09303e+06
830010
589754
381567
221830
123172
89758.2
157934
1.49113e+07
9.54292e+06
8.76668e+06
8.13703e+06
7.61683e+06
7.21331e+06
6.89758e+06
6.59849e+06
6.23249e+06
5.8251e+06
5.45847e+06
5.10004e+06
4.7189e+06
4.31939e+06
3.92903e+06
3.55825e+06
3.20041e+06
2.85166e+06
2.51317e+06
2.18326e+06
1.86109e+06
1.54776e+06
1.24544e+06
957625
693008
460077
274209
150438
100728
164710
1.50019e+07
9.73031e+06
9.01124e+06
8.51528e+06
8.13648e+06
7.85496e+06
7.6389e+06
7.38864e+06
7.0188e+06
6.58517e+06
6.1814e+06
5.76985e+06
5.32531e+06
4.86111e+06
4.40922e+06
3.98255e+06
3.57417e+06
3.18049e+06
2.8029e+06
2.43823e+06
2.08468e+06
1.74236e+06
1.41222e+06
1.09754e+06
807772
550417
337251
185580
116015
173508
1.50933e+07
9.81544e+06
9.18667e+06
8.82576e+06
8.61238e+06
8.49835e+06
8.42735e+06
8.25738e+06
7.90135e+06
7.45071e+06
7.00846e+06
6.53723e+06
6.01949e+06
5.48295e+06
4.96093e+06
4.46919e+06
4.00067e+06
3.55305e+06
3.12774e+06
2.7209e+06
2.32964e+06
1.95371e+06
1.59302e+06
1.25079e+06
935248
652894
411020
229476
136687
185228
1.50426e+07
9.88662e+06
9.2773e+06
9.04512e+06
9.03623e+06
9.14099e+06
9.2616e+06
9.21104e+06
8.89107e+06
8.43354e+06
7.952e+06
7.41491e+06
6.81511e+06
6.19784e+06
5.59474e+06
5.02738e+06
4.488e+06
3.9756e+06
3.49201e+06
3.03397e+06
2.59755e+06
2.18293e+06
1.78914e+06
1.41839e+06
1.07562e+06
765594
494300
282600
163500
201328
1.50325e+07
9.86814e+06
9.26658e+06
9.17328e+06
9.39668e+06
9.77793e+06
1.01441e+07
1.02576e+07
1.00014e+07
9.54973e+06
9.02939e+06
8.41939e+06
7.72845e+06
7.01864e+06
6.32437e+06
5.6688e+06
5.04605e+06
4.45595e+06
3.90208e+06
3.38226e+06
2.89259e+06
2.43357e+06
2.00303e+06
1.60053e+06
1.2274e+06
886871
586072
345232
197279
222956
1.49511e+07
9.89058e+06
9.19362e+06
9.2326e+06
9.72493e+06
1.04221e+07
1.10877e+07
1.14092e+07
1.12479e+07
1.08169e+07
1.02602e+07
9.57029e+06
8.77735e+06
7.96177e+06
7.16274e+06
6.40555e+06
5.68537e+06
5.00322e+06
4.36498e+06
3.77103e+06
3.2187e+06
2.7079e+06
2.23505e+06
1.79619e+06
1.38975e+06
1.01765e+06
688330
419656
240713
251965
1.50872e+07
9.94716e+06
9.18044e+06
9.32892e+06
1.00837e+07
1.11253e+07
1.21247e+07
1.26874e+07
1.26514e+07
1.22574e+07
1.16677e+07
1.08906e+07
9.98357e+06
9.04651e+06
8.12763e+06
7.25163e+06
6.41761e+06
5.62635e+06
4.88771e+06
4.20552e+06
3.57919e+06
3.00732e+06
2.48524e+06
2.00527e+06
1.56379e+06
1.16118e+06
804750
507215
296937
290594
1.47112e+07
1.0814e+07
9.83029e+06
9.85231e+06
1.07152e+07
1.20207e+07
1.33164e+07
1.41302e+07
1.42436e+07
1.39022e+07
1.32828e+07
1.24093e+07
1.13736e+07
1.0296e+07
9.23732e+06
8.22159e+06
7.25282e+06
6.33121e+06
5.47373e+06
4.68753e+06
3.97424e+06
3.33235e+06
2.75381e+06
2.22828e+06
1.75051e+06
1.31786e+06
934716
607322
366868
341407
1.39303e+07
1.77861e+07
1.40519e+07
1.20791e+07
1.21783e+07
1.33785e+07
1.4786e+07
1.58079e+07
1.60734e+07
1.57943e+07
1.51445e+07
1.41612e+07
1.29777e+07
1.17356e+07
1.05087e+07
9.32538e+06
8.19395e+06
7.11635e+06
6.12023e+06
5.21752e+06
4.40555e+06
3.683e+06
3.03899e+06
2.46348e+06
1.94718e+06
1.48378e+06
1.07263e+06
716895
448613
405861
102435
48097.4
39611.9
38869.3
41384.6
47085.9
56982
73200.3
98307
133764
181811
243603
321110
409482
505483
604161
699287
787080
863888
930121
988538
1.04765e+06
1.12269e+06
1.24231e+06
1.45479e+06
1.83116e+06
2.44006e+06
3.281e+06
4.48687e+06
8.11951e+06
105259
49871.6
40586.8
39785.7
42852.2
50028.6
62826.4
83810.3
115880
161244
221202
296209
388177
489740
597107
704159
804460
894626
971958
1.0374e+06
1.09419e+06
1.15229e+06
1.22749e+06
1.34951e+06
1.5696e+06
1.95863e+06
2.58497e+06
3.45309e+06
4.70413e+06
8.99537e+06
107951
51346.4
41370.9
40580.5
44390.1
53585.2
70061.6
96908.2
137358
194160
267923
357608
463772
578116
695407
809418
914009
1.00553e+06
1.0831e+06
1.14756e+06
1.20265e+06
1.26091e+06
1.3383e+06
1.46455e+06
1.69391e+06
2.09826e+06
2.74027e+06
3.62708e+06
4.85017e+06
9.32703e+06
111018
52862.1
42316.2
41707.2
46755
58687.5
80099.7
114703
165814
236133
326105
432954
553658
681486
808562
929596
1.03951e+06
1.13376e+06
1.21284e+06
1.27877e+06
1.33509e+06
1.39587e+06
1.4782e+06
1.61392e+06
1.86043e+06
2.29116e+06
2.96235e+06
3.88563e+06
5.13548e+06
9.66309e+06
114162
54278
43274.3
43203.3
50056.6
65744.4
93672.2
137997
202105
287977
395451
519997
655479
795964
932219
1.05965e+06
1.17462e+06
1.27198e+06
1.35275e+06
1.42143e+06
1.48177e+06
1.54858e+06
1.63971e+06
1.78935e+06
2.05939e+06
2.52235e+06
3.2285e+06
4.19094e+06
5.4671e+06
1.00885e+07
117345
55741.8
44396.8
45261.1
54689.5
75371.2
111616
167919
247168
350132
475203
615975
765291
917391
1.06373e+06
1.19878e+06
1.32038e+06
1.42366e+06
1.50844e+06
1.5816e+06
1.64744e+06
1.72234e+06
1.82415e+06
1.98988e+06
2.28497e+06
2.78044e+06
3.51814e+06
4.51552e+06
5.81832e+06
1.05523e+07
120471
57162.3
45656.4
47986
60964.1
88205.1
134864
205473
301665
422814
564949
720322
880467
1.04105e+06
1.19701e+06
1.34073e+06
1.47108e+06
1.58397e+06
1.6771e+06
1.75872e+06
1.83287e+06
1.91831e+06
2.03316e+06
2.21731e+06
2.53891e+06
3.06595e+06
3.8313e+06
4.85497e+06
6.17659e+06
1.10737e+07
123659
58577
47264.1
51715.1
69519.5
105333
164900
252330
367187
506536
664612
833225
1.00357e+06
1.1704e+06
1.33321e+06
1.48584e+06
1.62641e+06
1.75271e+06
1.86064e+06
1.95531e+06
2.04216e+06
2.14087e+06
2.27158e+06
2.4772e+06
2.82766e+06
3.38389e+06
4.17286e+06
5.21399e+06
6.53999e+06
1.16176e+07
127055
60150.5
49466.4
56863.4
81164.3
127997
203255
309645
444166
601343
773814
954145
1.1349e+06
1.30921e+06
1.47728e+06
1.63747e+06
1.78709e+06
1.92867e+06
2.05843e+06
2.1727e+06
2.27848e+06
2.39374e+06
2.54345e+06
2.7731e+06
3.15564e+06
3.73679e+06
4.54375e+06
5.59377e+06
6.90619e+06
1.21403e+07
130605
61977.5
52521.4
64152.1
97138.8
157934
251965
379210
533856
708055
893991
1.08526e+06
1.27621e+06
1.46089e+06
1.63744e+06
1.80717e+06
1.96599e+06
2.11987e+06
2.27239e+06
2.41467e+06
2.54615e+06
2.68218e+06
2.8554e+06
3.11425e+06
3.52394e+06
4.12706e+06
4.9457e+06
5.99759e+06
7.28677e+06
1.25949e+07
134250
64169.4
56627.2
74161.7
118480
196311
311549
460673
634805
825154
1.02451e+06
1.22725e+06
1.42921e+06
1.626e+06
1.81505e+06
1.99947e+06
2.1738e+06
2.34113e+06
2.50978e+06
2.68434e+06
2.85057e+06
3.0144e+06
3.21325e+06
3.50014e+06
3.93317e+06
4.55281e+06
5.37377e+06
6.41403e+06
7.67549e+06
1.30086e+07
138032
66673.5
61936.3
87380
145960
243686
381339
551755
744116
950510
1.1647e+06
1.38076e+06
1.59624e+06
1.80786e+06
2.0125e+06
2.21458e+06
2.4118e+06
2.60207e+06
2.78864e+06
2.98679e+06
3.19572e+06
3.39713e+06
3.62248e+06
3.93189e+06
4.38399e+06
5.01015e+06
5.82034e+06
6.83393e+06
8.0594e+06
1.34107e+07
141884
69321.4
68714.9
104322
180160
300027
460037
650751
861624
1.08499e+06
1.31489e+06
1.54705e+06
1.77914e+06
2.00917e+06
2.23413e+06
2.45755e+06
2.68254e+06
2.90386e+06
3.11818e+06
3.34105e+06
3.58744e+06
3.83185e+06
4.08788e+06
4.41614e+06
4.87719e+06
5.49647e+06
6.28229e+06
7.26048e+06
8.42421e+06
1.38154e+07
145744
72585.9
77832.3
126409
222488
366353
549169
760513
990320
1.23082e+06
1.47866e+06
1.72937e+06
1.98122e+06
2.2332e+06
2.4829e+06
2.73311e+06
2.99159e+06
3.25035e+06
3.50051e+06
3.75354e+06
4.03346e+06
4.32433e+06
4.61236e+06
4.95405e+06
5.4106e+06
6.00866e+06
6.75492e+06
7.68431e+06
8.78517e+06
1.41728e+07
149786
77052.9
90374.9
155224
274084
443330
649432
881451
1.13078e+06
1.39149e+06
1.65961e+06
1.93169e+06
2.20661e+06
2.48446e+06
2.76352e+06
3.04659e+06
3.34465e+06
3.64732e+06
3.94149e+06
4.23032e+06
4.54365e+06
4.87937e+06
5.2003e+06
5.54649e+06
5.98301e+06
6.54509e+06
7.23295e+06
8.09234e+06
9.0936e+06
1.46561e+07
154361
83159.8
107308
192087
336036
530519
760547
1.01547e+06
1.2872e+06
1.57035e+06
1.86147e+06
2.15805e+06
2.45981e+06
2.76801e+06
3.08175e+06
3.40451e+06
3.74805e+06
4.10146e+06
4.44886e+06
4.77987e+06
5.12716e+06
5.50359e+06
5.85505e+06
6.19421e+06
6.59269e+06
7.09507e+06
7.70607e+06
8.47271e+06
9.38063e+06
1.48857e+07
159932
91666.3
129724
238147
408637
628470
883497
1.16391e+06
1.46037e+06
1.76896e+06
2.08649e+06
2.4115e+06
2.74471e+06
3.08877e+06
3.44392e+06
3.81362e+06
4.209e+06
4.62204e+06
5.02909e+06
5.41049e+06
5.79485e+06
6.20667e+06
6.57795e+06
6.89555e+06
7.23157e+06
7.64007e+06
8.15117e+06
8.78803e+06
9.6073e+06
1.51368e+07
167042
103733
159135
294562
493340
739113
1.01988e+06
1.32695e+06
1.65117e+06
1.98842e+06
2.33652e+06
2.69503e+06
3.06569e+06
3.45287e+06
3.85723e+06
4.28204e+06
4.73812e+06
5.21835e+06
5.69158e+06
6.13023e+06
6.55546e+06
6.99777e+06
7.37621e+06
7.65015e+06
7.88905e+06
8.17353e+06
8.55217e+06
9.0586e+06
9.81603e+06
1.5255e+07
176360
120268
196646
361552
590178
862984
1.17079e+06
1.50571e+06
1.8599e+06
2.22946e+06
2.61333e+06
3.01191e+06
3.42791e+06
3.86731e+06
4.33027e+06
4.81958e+06
5.34604e+06
5.90175e+06
6.44934e+06
6.95188e+06
7.42091e+06
7.88615e+06
8.25538e+06
8.45776e+06
8.55311e+06
8.6669e+06
8.87744e+06
9.24838e+06
9.9214e+06
1.53711e+07
189007
141922
243015
438502
697907
1.00034e+06
1.33669e+06
1.70086e+06
2.08739e+06
2.49348e+06
2.9195e+06
3.36628e+06
3.83762e+06
4.3398e+06
4.87247e+06
5.43695e+06
6.04432e+06
6.68739e+06
7.31452e+06
7.88962e+06
8.40537e+06
8.8827e+06
9.22196e+06
9.31778e+06
9.2208e+06
9.11328e+06
9.1202e+06
9.36727e+06
1.00167e+07
1.53525e+07
206018
169539
298503
524968
815769
1.14973e+06
1.51705e+06
1.91294e+06
2.33492e+06
2.78275e+06
3.25868e+06
3.76357e+06
4.30229e+06
4.87979e+06
5.49493e+06
6.14687e+06
6.84699e+06
7.58477e+06
8.30601e+06
8.96124e+06
9.5233e+06
1.00005e+07
1.02861e+07
1.02337e+07
9.89052e+06
9.50001e+06
9.26895e+06
9.3814e+06
1.00215e+07
1.53648e+07
229058
205793
365808
622172
943088
1.30974e+06
1.71028e+06
2.14159e+06
2.60396e+06
3.10062e+06