/*--------------------------------*- C++ -*----------------------------------*\
| =========                 |                                                 |
| \\      /  F ield         | OpenFOAM: The Open Source CFD Toolbox           |
|  \\    /   O peration     | Version:  2112                                  |
|   \\  /    A nd           | Website:  www.openfoam.com                      |
|    \\/     M anipulation  |                                                 |
\*---------------------------------------------------------------------------*/
FoamFile
{
    version     2.0;
    format      ascii;
    arch        "LSB;label=32;scalar=64";
    class       volScalarField;
    location    "0.00039";
    object      T;
}
// * * * * * * * * * * * * * * * * * * * * * * * * * * * * * * * * * * * * * //

dimensions      [0 0 0 1 0 0 0];

internalField   nonuniform List<scalar> 
13875
(
1388.07
1539.8
1486.34
1490.99
1480.48
1482.35
1484.27
1484.94
1485
1484.79
1484.61
1484.59
1484.49
1484.48
1484.15
1484.1
1484.1
1483.94
1483.1
1480.4
1480.56
1491.55
1490.34
1540.89
1411.86
1303.29
1358.19
1320.93
1323.2
1317.18
1313.88
1315.88
1315.36
1315.41
1315.47
1315.31
1315.61
1315.2
1315.16
1315.23
1315.27
1315.24
1315.15
1316.36
1314.91
1318.68
1323.28
1325.11
1357.06
1302.05
1293.95
1350.37
1320.54
1323.17
1310.74
1306.45
1305.42
1304.95
1304.23
1304.15
1304.18
1304.68
1304.41
1304.37
1304.47
1304.47
1304.56
1305.34
1305.68
1307.74
1313.02
1324.04
1326.02
1349.74
1305.81
1310.98
1354.08
1321.41
1323.3
1314.25
1308
1306.16
1305.47
1304.86
1304.86
1305.06
1305.64
1305.36
1305.17
1305.29
1305.11
1305.37
1306.02
1306.32
1309.67
1317.09
1321.12
1326.24
1347.18
1317.17
1316.04
1353.04
1324.7
1322.1
1316.26
1309.18
1308.74
1307.24
1306.41
1306.02
1306.37
1306.8
1306.65
1306.58
1306.51
1306.51
1307.07
1308.04
1309.36
1311.22
1318.02
1325.54
1330.03
1355.93
1322.98
1343.09
1360.19
1330.78
1328.42
1322.16
1314.72
1311.08
1310.04
1308.35
1308.38
1308.64
1308.81
1308.8
1308.67
1308.8
1309.2
1309.14
1310.36
1311.82
1317.51
1323.88
1326.03
1336.31
1361.18
1335.15
1300.6
1382.62
1355.52
1332.1
1326.65
1319.07
1317.15
1314.46
1312.49
1311.12
1311.13
1311.33
1311.59
1311.33
1311.23
1311.88
1313.44
1315.63
1318.45
1321.36
1327.62
1335.75
1359.93
1390.05
1349.68
1454.54
1438.02
1383.73
1360.11
1348.07
1335.15
1323.74
1319.76
1316.68
1315.72
1315.65
1314.88
1315.03
1315.12
1315.46
1315.38
1317.54
1320.91
1324.54
1336.6
1348.48
1360.67
1390.66
1447.26
1457.22
1715.4
1657.35
1498.63
1401.17
1369.79
1350.8
1342.77
1336.3
1327.71
1323.31
1321.69
1320.73
1320.27
1320.58
1321.37
1324.32
1329.16
1337.49
1343.81
1351.29
1370.67
1408.59
1513.57
1680.7
1770.13
2690.3
1914.6
1631.16
1497.2
1435.87
1389.28
1365.12
1350.81
1340.05
1334.36
1334.71
1332.51
1330.66
1331.99
1334.03
1334.91
1341.41
1353.3
1365.42
1388.86
1435.92
1505.34
1657.62
1967.72
2874.81
3037.53
2409.98
2315.9
1693.56
1551.04
1468.19
1431.4
1412.97
1373.59
1360.89
1356.65
1354.2
1352.16
1353.55
1355.59
1362.78
1376.35
1416.41
1431.29
1464.24
1544.35
1689.73
2341.04
2456.4
3198.83
3154.89
2945.28
2786.12
2410.99
2245.66
1728.03
1587.09
1492.95
1444.15
1425.13
1420.31
1410.17
1406.17
1409.4
1417.45
1422.45
1445.22
1495.22
1581.45
1718.07
2238.2
2385.46
2809.91
2938.21
3195.29
3147.07
3013.08
2998.62
2935.53
2884.64
2384.87
2407.38
2113.77
1711.8
1611.67
1576.8
1576.16
1569.12
1575.37
1576.96
1629.66
1735.03
2132.17
2403.99
2366.01
2861.16
2887.94
2963.33
2957.45
3161.62
3102.64
3004.15
2989.57
2930.19
2993.22
2912.31
2880.36
2694.72
2435.55
2464.75
2373.7
2179.43
2194.82
2187.38
2404.13
2462.28
2471.27
2706.94
2876.81
2908.36
2979.17
2912.95
2978.07
2988.25
3112.78
3040.9
3006.71
2985.3
2920.87
2947.44
2915.63
2937.85
2983.16
2961.3
2979.2
3139.86
3498.59
3668.59
3497.41
3141.84
2985.15
2964.73
2986.01
2936.63
2914.19
2938.77
2906.34
2967.89
2984.82
3068.56
2909.22
2873.3
2879.85
2875.64
2912.04
2930.92
2954.27
3028.5
3172.57
3426.92
3580.65
3694.24
3755.25
3703.57
3591.73
3426.53
3178.09
3034.03
2950.85
2927.47
2908.89
2873.33
2892.36
2903.33
2963.71
2747.69
2764.54
2767.37
2773.47
2816.59
2886.5
2988.59
3145.64
3297.64
3419.57
3517.73
3574.8
3598.39
3579.53
3528.68
3420.57
3290.95
3134.9
2984.57
2887.63
2827.41
2782.44
2764.94
2756.6
2769.39
2394.91
2483.37
2596.44
2669.54
2776.14
2921.72
3061.18
3179.59
3251.43
3302.39
3337.65
3346.59
3349.81
3350.32
3348.49
3315.72
3266.89
3173.22
3046.99
2905.59
2754.71
2657
2590.03
2491.14
2417.59
2120.44
2158.31
2288.47
2456.04
2653.79
2838.03
2963.61
3034.43
3057
3077.14
3082.23
3086.25
3087.88
3086.39
3084.36
3085.71
3072.79
3049.38
2970.9
2837.64
2662.92
2475.72
2308.93
2182.98
2149.34
2086.85
2060.86
2131.08
2290.24
2497.06
2669.81
2770.57
2824.04
2850.12
2869.99
2879.88
2885.98
2887.59
2883.96
2876.99
2869.2
2855.13
2833.36
2774.34
2671.88
2498.77
2286.04
2113.37
2039.87
2111.99
2241.88
2057.5
2030.96
2145.24
2345.1
2494.45
2587.48
2642.14
2677.5
2701.51
2714.96
2722.13
2723.93
2720.36
2711.94
2699.12
2677.86
2644.98
2589.01
2491.64
2336.02
2133.85
2019.3
2050.45
2274.79
2533.15
1946.79
1879.84
2038.33
2227.7
2359.34
2440.48
2491.86
2526.47
2550.15
2564.51
2572.3
2574.85
2571.76
2563.16
2548.19
2525.22
2491.65
2439.77
2355.75
2220.11
2030.15
1879.66
1957.9
2585.86
2544.24
1944.89
1861.75
1973.2
2126.41
2240.74
2308.29
2353.76
2386.34
2409.24
2423.05
2430.49
2433.05
2430.41
2422.1
2406.89
2383.31
2350.44
2304.58
2235.56
2119.5
1963.87
1850.96
1942.19
2548.81
2542.98
1950.24
1848.71
1912.76
2023.25
2118.84
2182.04
2225.04
2256.98
2279.87
2293.95
2300.48
2302.36
2299.93
2292.27
2277.22
2254.16
2222.15
2178.69
2113.94
2018.5
1903.92
1841.28
1951.37
2567.11
2584.62
2062.33
1874.07
1867.3
1944.42
2013.56
2070.33
2111.39
2141.61
2163.42
2176.89
2183.12
2185.04
2183.41
2176.99
2163.41
2141.11
2110.01
2067.96
2011.06
1939.15
1865.7
1869.44
2061.46
2567.31
2272.12
2220.2
1935.1
1876.41
1891.54
1944.14
1984.84
2019.59
2044.44
2060.23
2070.52
2075.28
2076.44
2075
2069.55
2058.62
2042.28
2016.7
1981.17
1940.9
1882.81
1874.33
1930.68
2233.13
2260.7
1695.84
2247.7
2069.34
1922.55
1893.09
1908.42
1934.14
1950.08
1964.18
1972.58
1976.69
1978.35
1978.21
1977.98
1976.06
1971.81
1963.27
1949.27
1933.27
1907.18
1887.21
1922.95
2082.11
2246.28
1673.96
1442.59
2187.17
2167.34
2017.1
1926.86
1909.51
1912.37
1913.94
1910.94
1909.97
1909.31
1907.01
1905.79
1907.07
1909.43
1910.3
1910.77
1913.03
1910
1911.43
1927.2
2025.53
2167.44
2172.38
1451.53
1362.7
1965.17
2135.89
2041.27
1987.32
1938.36
1921.69
1906.15
1888.02
1869.47
1860.08
1853.22
1849.91
1852.57
1859.56
1869.25
1888.01
1903.01
1915.75
1935.85
1987.15
2041.39
2137.76
1980.59
1377.95
1342.22
1724.25
1990.3
1998.92
1984.65
1976.87
1947.38
1924.41
1897.85
1865.14
1840.05
1827.13
1822.06
1826.67
1839.84
1865.59
1898.11
1924
1947.58
1977.8
1986.95
1999.45
1981.33
1707.3
1337.31
1308.14
1457.45
1661.01
1775.63
1870.72
1928.07
1952.28
1945.09
1916.44
1883.05
1849.62
1830.51
1823.93
1831.04
1851
1884.62
1916.75
1944.66
1952.53
1927.94
1871.29
1772.23
1656.25
1449.67
1306.79
1179.64
1281.38
1426.41
1530.83
1637.77
1743.6
1838.12
1890.11
1909.53
1903.77
1882.78
1863.44
1856.58
1865.24
1885.23
1906.07
1911.17
1891.72
1839.76
1742.73
1636.52
1527.35
1421.46
1277.01
1170.38
606.746
845.615
1129.03
1324.99
1473.97
1592.65
1688.99
1755.78
1805.93
1862.92
1890.93
1894.67
1892.91
1895.16
1891.76
1862.91
1807.12
1756.46
1687.04
1587.87
1467.48
1316.44
1117.92
829.599
595.563
287.161
333.22
528.387
821.939
1161.38
1426.62
1592.06
1690.86
1737.78
1772.54
1827.18
1873.79
1882.47
1873.76
1827.46
1772.57
1737.56
1689.88
1588.88
1422.03
1153.56
812.132
519.382
328.6
286.02
273.621
274.24
281.199
328.989
521.778
841.368
1233.19
1537.22
1700.54
1762.05
1787.23
1803.41
1811.95
1802.53
1786.05
1760.94
1699.25
1534.85
1229.24
836.983
516.291
325.889
280.665
274.174
273.609
273.495
273.375
273.451
274.155
280.352
324.651
499.225
799.686
1135.52
1415.99
1556.95
1613.69
1632.44
1611.01
1551.47
1408.2
1126.98
793.57
496.043
323.231
280.033
274.09
273.445
273.381
273.495
273.545
273.41
273.379
273.322
273.505
274.337
278.657
303.452
395.151
534.791
668.201
748.497
772.773
746.14
664.428
531.237
392.86
302.709
278.569
274.316
273.503
273.324
273.38
273.41
273.547
273.591
273.455
273.426
273.372
273.464
273.655
273.856
274.268
275.598
279.075
284.967
291.121
293.471
290.887
284.741
278.971
275.568
274.263
273.857
273.656
273.469
273.377
273.426
273.453
273.593
273.632
273.49
273.467
273.438
273.528
273.692
273.825
273.923
273.987
274.047
274.117
274.18
274.203
274.177
274.114
274.046
273.986
273.923
273.824
273.694
273.524
273.435
273.472
273.496
273.633
273.669
273.533
273.514
273.494
273.581
273.734
273.85
273.933
273.975
273.993
274
274.002
274.002
274.002
274
273.993
273.975
273.932
273.85
273.733
273.581
273.495
273.512
273.532
273.67
273.705
273.575
273.559
273.546
273.628
273.769
273.872
273.943
273.979
273.994
273.999
274
274
274
273.999
273.994
273.979
273.944
273.872
273.769
273.631
273.549
273.557
273.574
273.704
273.736
273.612
273.598
273.6
273.676
273.8
273.891
273.953
273.983
273.995
273.999
274
274
274
273.999
273.995
273.983
273.953
273.891
273.801
273.673
273.598
273.602
273.615
273.737
273.765
273.653
273.643
273.647
273.717
273.829
273.908
273.961
273.986
273.996
273.999
274
274
274
273.999
273.996
273.986
273.961
273.907
273.828
273.717
273.648
273.64
273.651
273.765
273.792
273.689
273.683
273.69
273.753
273.853
273.922
273.967
273.989
273.997
273.999
274
274
274
273.999
273.997
273.989
273.967
273.922
273.853
273.755
273.691
273.681
273.688
273.789
273.801
273.714
273.712
273.729
273.789
273.874
273.934
273.973
273.991
273.997
273.999
274
274
274
273.999
273.997
273.991
273.973
273.934
273.875
273.786
273.728
273.714
273.714
273.802
273.794
273.725
273.733
273.754
273.814
273.892
273.945
273.977
273.992
273.998
274
274
274
274
274
273.998
273.992
273.977
273.944
273.891
273.814
273.753
273.73
273.723
273.795
273.806
273.732
273.737
273.763
273.828
273.902
273.951
273.98
273.994
273.998
274
274
274
274
274
273.998
273.993
273.98
273.951
273.902
273.829
273.763
273.738
273.732
273.806
273.825
273.745
273.746
273.771
273.836
273.905
273.954
273.982
273.994
273.998
274
274
274
274
274
273.998
273.994
273.982
273.953
273.905
273.834
273.771
273.749
273.749
273.823
273.861
273.779
273.767
273.779
273.84
273.905
273.954
273.982
273.994
273.998
274
274
274
274
274
273.998
273.994
273.981
273.954
273.904
273.839
273.778
273.768
273.781
273.861
273.909
273.829
273.805
273.792
273.847
273.905
273.954
273.981
273.994
273.998
274
274
274
274
274
273.998
273.994
273.981
273.954
273.905
273.847
273.793
273.8
273.823
273.909
274.752
274.621
274.458
274.181
274.063
274.018
274.004
274.001
274
274
274
274
274
274
274
274
274
274
274
274
274
274
274
274
274
274
273.999
273.999
273.986
274.017
275.097
274.795
274.562
274.209
274.071
274.019
274.004
274.001
274
274
274
274
274
274
274
274
274
274
274
274
274
274
274
274
274
274
273.999
273.999
273.989
274.015
275.163
274.831
274.602
274.206
274.069
274.018
274.003
274
274
274
274
274
274
274
274
274
274
274
274
274
274
274
274
274
274
274
273.999
273.999
273.994
274.009
275.316
274.838
274.627
274.201
274.067
274.017
274.003
274
274
274
274
274
274
274
274
274
274
274
274
274
274
274
274
274
274
274
273.999
273.999
273.997
274.005
275.442
274.817
274.624
274.192
274.063
274.014
274.002
274
274
274
274
274
274
274
274
274
274
274
274
274
274
274
274
274
274
274
274
273.999
273.999
274.002
275.465
274.75
274.611
274.175
274.057
274.013
274.002
274
274
274
274
274
274
274
274
274
274
274
274
274
274
274
274
274
274
274
274
274
274
274.001
275.461
274.66
274.566
274.156
274.052
274.011
274.002
274
274
274
274
274
274
274
274
274
274
274
274
274
274
274
274
274
274
274
274
274
274
274.001
275.351
274.597
274.51
274.143
274.048
274.01
274.002
274
274
274
274
274
274
274
274
274
274
274
274
274
274
274
274
274
274
274
274
274
274
274.001
275.207
274.555
274.47
274.133
274.044
274.009
274.001
274
274
274
274
274
274
274
274
274
274
274
274
274
274
274
274
274
274
274
274
274
274
274.001
275.112
274.518
274.431
274.123
274.04
274.008
274.001
274
274
274
274
274
274
274
274
274
274
274
274
274
274
274
274
274
274
274
274
274
274
274.001
275.021
274.476
274.394
274.111
274.036
274.007
274.001
274
274
274
274
274
274
274
274
274
274
274
274
274
274
274
274
274
274
274
274
274
274
274.001
274.929
274.435
274.36
274.102
274.033
274.007
274.001
274
274
274
274
274
274
274
274
274
274
274
274
274
274
274
274
274
274
274
274
274
274
274.001
274.841
274.397
274.327
274.093
274.03
274.006
274.001
274
274
274
274
274
274
274
274
274
274
274
274
274
274
274
274
274
274
274
274
274
274
274.001
274.759
274.361
274.297
274.084
274.027
274.005
274.001
274
274
274
274
274
274
274
274
274
274
274
274
274
274
274
274
274
274
274
274
274
274
274.001
274.682
274.326
274.268
274.076
274.025
274.005
274.001
274
274
274
274
274
274
274
274
274
274
274
274
274
274
274
274
274
274
274
274
274
274
274.001
274.612
274.293
274.241
274.068
274.022
274.004
274.001
274
274
274
274
274
274
274
274
274
274
274
274
274
274
274
274
274
274
274
274
274
274
274.001
274.545
274.261
274.215
274.06
274.02
274.004
274
274
274
274
274
274
274
274
274
274
274
274
274
274
274
274
274
274
274
274
274
274
274
274.001
274.48
274.23
274.19
274.053
274.017
274.003
274
274
274
274
274
274
274
274
274
274
274
274
274
274
274
274
274
274
274
274
274
274
274
274.001
274.419
274.199
274.165
274.046
274.015
274.003
274
274
274
274
274
274
274
274
274
274
274
274
274
274
274
274
274
274
274
274
274
274
274
274.001
274.359
274.169
274.141
274.039
274.013
274.002
274
274
274
274
274
274
274
274
274
274
274
274
274
274
274
274
274
274
274
274
274
274
274
274.001
274.297
274.135
274.117
274.032
274.011
274.002
274
274
274
274
274
274
274
274
274
274
274
274
274
274
274
274
274
274
274
274
274
274
274
274.001
274.228
274.09
274.089
274.023
274.008
274.001
274
274
274
274
274
274
274
274
274
274
274
274
274
274
274
274
274
274
274
274
274
274
274
274.001
274.164
274.036
274.056
274.011
274.005
274.001
274
274
274
274
274
274
274
274
274
274
274
274
274
274
274
274
274
274
274
274
274
274
274
274.001
274.139
273.984
274.026
273.997
274
274
274
274
274
274
274
274
274
274
274
274
274
274
274
274
274
274
274
274
274
274
274
274
274
274.001
274.111
273.935
274.005
273.985
273.996
273.999
274
274
274
274
274
274
274
274
274
274
274
274
274
274
274
274
274
274
274
274
274
274
274
274.001
274.017
273.986
273.999
273.999
274
274
274
274
274
274
274
274
274
274
274
274
274
274
274
274
274
274
274.001
274.004
274.018
274.063
274.181
274.457
274.621
274.752
274.015
273.989
273.999
273.999
274
274
274
274
274
274
274
274
274
274
274
274
274
274
274
274
274
274
274.001
274.004
274.019
274.071
274.209
274.562
274.795
275.097
274.009
273.994
273.999
273.999
274
274
274
274
274
274
274
274
274
274
274
274
274
274
274
274
274
274
274
274.003
274.018
274.069
274.206
274.602
274.831
275.163
274.005
273.997
273.999
273.999
274
274
274
274
274
274
274
274
274
274
274
274
274
274
274
274
274
274
274
274.003
274.017
274.067
274.201
274.627
274.837
275.316
274.002
273.999
273.999
274
274
274
274
274
274
274
274
274
274
274
274
274
274
274
274
274
274
274
274
274.002
274.014
274.063
274.192
274.624
274.817
275.443
274.001
274
274
274
274
274
274
274
274
274
274
274
274
274
274
274
274
274
274
274
274
274
274
274.002
274.013
274.056
274.175
274.611
274.749
275.466
274.001
274
274
274
274
274
274
274
274
274
274
274
274
274
274
274
274
274
274
274
274
274
274
274.002
274.011
274.052
274.156
274.566
274.66
275.461
274.001
274
274
274
274
274
274
274
274
274
274
274
274
274
274
274
274
274
274
274
274
274
274
274.002
274.01
274.048
274.144
274.511
274.597
275.351
274.001
274
274
274
274
274
274
274
274
274
274
274
274
274
274
274
274
274
274
274
274
274
274
274.001
274.009
274.044
274.133
274.47
274.555
275.206
274.001
274
274
274
274
274
274
274
274
274
274
274
274
274
274
274
274
274
274
274
274
274
274
274.001
274.008
274.04
274.123
274.431
274.518
275.111
274.001
274
274
274
274
274
274
274
274
274
274
274
274
274
274
274
274
274
274
274
274
274
274
274.001
274.007
274.036
274.111
274.394
274.476
275.022
274.001
274
274
274
274
274
274
274
274
274
274
274
274
274
274
274
274
274
274
274
274
274
274
274.001
274.007
274.033
274.102
274.36
274.435
274.929
274.001
274
274
274
274
274
274
274
274
274
274
274
274
274
274
274
274
274
274
274
274
274
274
274.001
274.006
274.03
274.093
274.327
274.397
274.841
274.001
274
274
274
274
274
274
274
274
274
274
274
274
274
274
274
274
274
274
274
274
274
274
274.001
274.005
274.027
274.084
274.297
274.361
274.76
274.001
274
274
274
274
274
274
274
274
274
274
274
274
274
274
274
274
274
274
274
274
274
274
274.001
274.005
274.025
274.076
274.268
274.326
274.682
274.001
274
274
274
274
274
274
274
274
274
274
274
274
274
274
274
274
274
274
274
274
274
274
274.001
274.004
274.022
274.068
274.241
274.293
274.611
274.001
274
274
274
274
274
274
274
274
274
274
274
274
274
274
274
274
274
274
274
274
274
274
274
274.004
274.02
274.06
274.215
274.261
274.545
274.001
274
274
274
274
274
274
274
274
274
274
274
274
274
274
274
274
274
274
274
274
274
274
274
274.003
274.017
274.053
274.19
274.23
274.48
274.001
274
274
274
274
274
274
274
274
274
274
274
274
274
274
274
274
274
274
274
274
274
274
274
274.003
274.015
274.046
274.165
274.199
274.419
274.001
274
274
274
274
274
274
274
274
274
274
274
274
274
274
274
274
274
274
274
274
274
274
274
274.002
274.013
274.039
274.141
274.169
274.36
274.001
274
274
274
274
274
274
274
274
274
274
274
274
274
274
274
274
274
274
274
274
274
274
274
274.002
274.011
274.032
274.117
274.135
274.297
274.001
274
274
274
274
274
274
274
274
274
274
274
274
274
274
274
274
274
274
274
274
274
274
274
274.001
274.008
274.023
274.089
274.09
274.228
274.001
274
274
274
274
274
274
274
274
274
274
274
274
274
274
274
274
274
274
274
274
274
274
274
274.001
274.005
274.011
274.056
274.036
274.165
274.001
274
274
274
274
274
274
274
274
274
274
274
274
274
274
274
274
274
274
274
274
274
274
274
274
274
273.997
274.026
273.984
274.139
274.001
274
274
274
274
274
274
274
274
274
274
274
274
274
274
274
274
274
274
274
274
274
274
274
273.999
273.996
273.985
274.005
273.935
274.111
274.001
274.001
274.001
274.001
274.001
274.001
274.001
274.001
274.001
274.001
274.001
274.001
274.001
274.001
274.001
274.001
274.001
274.001
274.001
274.001
274.001
274.001
274.001
274.001
274.001
274.001
274.001
274.001
274.001
274.001
274.001
274.001
274.001
274.001
274.001
274.001
274.001
274.001
274.001
274.001
274.001
274.001
274.001
274.001
274.001
274.001
274.001
274.001
274.001
274.001
274.001
274.001
274.001
274.001
274.001
274.001
274.001
274.001
274.001
274.001
274.001
274.001
274.001
274.001
274.001
274.001
274.001
274.001
274.001
274.001
274.001
274.001
274.001
274.001
274.001
274.001
274.001
274.001
274.001
274.001
274.001
274.001
274.001
274.001
274.001
274.001
274.001
274.001
274.001
274.001
274.001
274.001
274.001
274.001
274.001
274.001
274.001
274.001
274.001
274.001
274.001
274.001
274.001
274.001
274.001
274.001
274.001
274.001
274.001
274.001
274.001
274.001
274.001
274.001
274.001
274.001
274.001
274.001
274.001
274.001
274.001
274.001
274.001
274.001
274.001
274
274
274
274
274
274
274
274
274
274
274
274
274
274
274
274
274
274
274
274
274
274
274
274
274
274
274
274
274
274
274
274
274
274
274
274
274
274
274
274
274
274
274
274
274
274
274
274
274
274
274
274
274
274
274
274
274
274
274
274
274
274
274
274
274
274
274
274
274
274
274
274
274
274
274
274
274
274
274
274
274
274
274
274
274
274
274
274
274
274
274
274
274
274
274
274
274
274
274
274
274
274
274
274
274
274
274
274
274
274
274
274
274
274
274
274
274
274
274
274
274
274
274
274
274
274
274
274
274
274
274
274
274
274
274
274
274
274
274
274
274
274
274
274
274
274
274
274
274
274
274
274
274
274
274
274
274
274
274
274
274
274
274
274
274
274
274
274
274
274
274
274
274
274
274
274
274
274
274
274
274
274
274
274
274
274
274
274
274
274
274
274
274
274
274
274
274
274
274
274
274
274
274
274
274
274
274
274
274
274
274
274
274
274
274
274
274
274
274
274
274
274
274
274
274
274
274
274
274
274
274
274
274
274
274
274
274
274
274
274
274
274
274
274
274
274
274
274
274
274
274
274
274
274
274
274
274
274
274
274
274
274
274
274
274
274
274
274
274
274
274
274
274
274
274
274
274
274
274
274
274
274
274
274
274
274
274
274
274
274
274
274
274
274
274
274
274
274
274
274
274
274
274
274
274
274
274
274
274
274
274
274
274
274
274
274
274
274
274
274
274
274
274
274
274
274
274
274
274
274
274
274
274
274
274
274
274
274
274
274
274
274
274
274
274
274
274
274
274
274
274
274
274
274
274
274
274
274
274
274
274
274
274
274
274
274
274
274
274
274
274
274
274
274
274
274
274
274
274
274
274
274
274
274
274
274
274
274
274
274
274
274
274
274
274
274
274
274
274
274
274
274
274
274
274
274
274
274
274
274
274
274
274
274
274
274
274
274
274
274
274
274
274
274
274
274
274
274
274
274
274
274
274
274
274
274
274
274
274
274
274
274
274
274
274
274
274
274
274
274
274
274
274
274
274
274
274
274
274
274
274
274
274
274
274
274
274
274
274
274
274
274
274
274
274
274
274
274
274
274
274
274
274
274
274
274
274
274
274
274
274
274
274
274
274
274
274
274
274
274
274
274
274
274
274
274
274
274
274
274
274
274
274
274
274
274
274
274
274
274
274
274
274
274
274
274
274
274
274
274
274
274
274
274
274
274
274
274
274
274
274
274
274
274
274
274
274
274
274
274
274
274
274
274
274
274
274
274
274
274
274
274
274
274
274
274
274
274
274
274
274
274
274
274
274
274
274
274
274
274
274
274
274
274
274
274
274
274
274
274
274
274
274
274
274
274
274
274
274
274
274
274
274
274
274
274
274
274
274
274
274
274
274
274
274
274
274
274
274
274
274
274
274
274
274
274
274
274
274
274
274
274
274
274
274
274
274
274
274
274
274
274
274
274
274
274
274
274
274
274
274
274
274
274
274
274
274
274
274
274
274
274
274
274
274
274
274
274
274
274
274
274
274
274
274
274
274
274
274
274
274
274
274
274
274
274
274
274
274
274
274
274
274
274
274
274
274
274
274
274
274
274
274
274
274
274
274
274
274
274
274
274
274
274
274
274
274
274
274
274
274
274
274
274
274
274
274
274
274
274
274
274
274
274
274
274
274
274
274
274
274
274
274
274
274
274
274
274
274
274
274
274
274
274
274
274
274
274
274
274
274
274
274
274
274
274
274
274
274
274
274
274
274
274
274
274
274
274
274
274
274
274
274
274
274
274
274
274
274
274
274
274
274
274
274
274
274
274
274
274
274
274
274
274
274
274
274
274
274
274
274
274
274
274
274
274
274
274
274
274
274
274
274
274
274
274
274
274
274
274
274
274
274
274
274
274
274
274
274
274
274
274
274
274
274
274
274
274
274
274
274
274
274
274
274
274
274
274
274
274
274
274
274
274
274
274
274
274
274
274
274
274
274
274
274
274
274
274
274
274
274
274
274
274
274
274
274
274
274
274
274
274
274
274
274
274
274
274
274
274
274
274
274
274
274
274
274
274
274
274
274
274
274
274
274
274
274
274
274
274
274
274
274
274
274
274
274
274
274
274
274
274
274
274
274
274
274
274
274
274
274
274
274
274
274
274
274
274
274
274
274
274
274
274
274
274
274
274
274
274
274
274
274
274
274
274
274
274
274
274
274
274
274
274
274
274
274
274
274
274
274
274
274
274
274
274
274
274
274
274
274
274
274
274
274
274
274
274
274
274
274
274
274
274
274
274
274
274
274
274
274
274
274
274
274
274
274
274
274
274
274
274
274
274
274
274
274
274
274
274
274
274
274
274
274
274
274
274
274
274
274
274
274
274
274
274
274
274
274
274
274
274
274
274
274
274
274
274
274
274
274
274
274
274
274
274
274
274
274
274
274
274
274
274
274
274
274
274
274
274
274
274
274
274
274
274
274
274
274
274
274
274
274
274
274
274
274
274
274
274
274
274
274
274
274
274
274
274
274
274
274
274
274
274
274
274
274
274
274
274
274
274
274
274
274
274
274
274
274
274
274
274
274
274
274
274
274
274
274
274
274
274
274
274
274
274
274
274
274
274
274
274
274
274
274
274
274
274
274
274
274
274
274
274
274
274
274
274
274
274
274
274
274
274
274
274
274
274
274
274
274
274
274
274
274
274
274
274
274
274
274
274
274
274
274
274
274
274
274
274
274
274
274
274
274
274
274
274
274
274
274
274
274
274
274
274
274
274
274
274
274
274
274
274
274
274
274
274
274
274
274
274
274
274
274
274
274
274
274
274
274
274
274
274
274
274
274
274
274
274
274
274
274
274
274
274
274
274
274
274
274
274
274
274
274
274
274
274
274
274
274
274
274
274
274
274
274
274
274
274
274
274
274
274
274
274
274
274
274
274
274
274
274
274
274
274
274
274
274
274
274
274
274
274
274
274
274
274
274
274
274
274
274
274
274
274
274
274
274
274
274
274
274
274
274
274
274
274
274
274
274
274
274
274
274
274
274
274
274
274
274
274
274
274
274
274
274
274
274
274
274
274
274
274
274
274
274
274
274
274
274
274
274
274
274
274
274
274
274
274
274
274
274
274
274
274
274
274
274
274
274
274
274
274
274
274
274
274
274
274
274
274
274
274
274
274
274
274
274
274
274
274
274
274
274
274
274
274
274
274
274
274
274
274
274
274
274
274
274
274
274
274
274
274
274
274
274
274
274
274
274
274
274
274
274
274
274
274
274
274
274
274
274
274
274
274
274
274
274
274
274
274
274
274
274
274
274
274
274
274
274
274
274
274
274
274
274
274
274
274
274
274
274
274
274
274
274
274
274
274
274
274
274
274
274
274
274
274
274
274
274
274
274
274
274
274
274
274
274
274
274
274
274
274
274
274
274
274
274
274
274
274
274
274
274
274
274
274
274
274
274
274
274
274
274
274
274
274
274
274
274
274
274
274
274
274
274
274
274
274
274
274
274
274
274
274
274
274
274
274
274
274
274
274
274
274
274
274
274
274
274
274
274
274
274
274
274
274
274
274
274
274
274
274
274
274
274
274
274
274
274
274
274
274
274
274
274
274
274
274
274
274
274
274
274
274
274
274
274
274
274
274
274
274
274
274
274
274
274
274
274
274
274
274
274
274
274
274
274
274
274
274
274
274
274
274
274
274
274
274
274
274
274
274
274
274
274
274
274
274
274
274
274
274
274
274
274
274
274
274
274
274
274
274
274
274
274
274
274
274
274
274
274
274
274
274
274
274
274
274
274
274
274
274
274
274
274
274
274
274
274
274
274
274
274
274
274
274
274
274
274
274
274
274
274
274
274
274
274
274
274
274
274
274
274
274
274
274
274
274
274
274
274
274
274
274
274
274
274
274
274
274
274
274
274
274
274
274
274
274
274
274
274
274
274
274
274
274
274
274
274
274
274
274
274
274
274
274
274
274
274
274
274
274
274
274
274
274
274
274
274
274
274
274
274
274
274
274
274
274
274
274
274
274
274
274
274
274
274
274
274
274
274
274
274
274
274
274
274
274
274
274
274
274
274
274
274
274
274
274
274
274
274
274
274
274
274
274
274
274
274
274
274
274
274
274
274
274
274
274
274
274
274
274
274
274
274
274
274
274
274
274
274
274
274
274
274
274
274
274
274
274
274
274
274
274
274
274
274
274
274
274
274
274
274
274
274
274
274
274
274
274
274
274
274
274
274
274
274
274
274
274
274
274
274
274
274
274
274
274
274
274
274
274
274
274
274
274
274
274
274
274
274
274
274
274
274
274
274
274
274
274
274
274
274
274
274
274
274
274
274
274
274
274
274
274
274
274
274
274
274
274
274
274
274
274
274
274
274
274
274
274
274
274
274
274
274
274
274
274
274
274
274
274
274
274
274
274
274
274
274
274
274
274
274
274
274
274
274
274
274
274
274
274
274
274
274
274
274
274
274
274
274
274
274
274
274
274
274
274
274
274
274
274
274
274
274
274
274
274
274
274
274
274
274
274
274
274
274
274
274
274
274
274
274
274
274
274
274
274
274
274
274
274
274
274
274
274
274
274
274
274
274
274
274
274
274
274
274
274
274
274
274
274
274
274
274
274
274
274
274
274
274
274
274
274
274
274
274
274
274
274
274
274
274
274
274
274
274
274
274
274
274
274
274
274
274
274
274
274
274
274
274
274
274
274
274
274
274
274
274
274
274
274
274
274
274
274
274
274
274
274
274
274
274
274
274
274
274
274
274
274
274
274
274
274
274
274
274
274
274
274
274
274
274
274
274
274
274
274
274
274
274
274
274
274
274
274
274
274
274
274
274
274
274
274
274
274
274
274
274
274
274
274
274
274
274
274
274
274
274
274
274
274
274
274
274
274
274
274
274
274
274
274
274
274
274
274
274
274
274
274
274
274
274
274
274
274
274
274
274
274
274
274
274
274
274
274
274
274
274
274
274
274
274
274
274
274
274
274
274
274
274
274
274
274
274
274
274
274
274
274
274
274
274
274
274
274
274
274
274
274
274
274
274
274
274
274
274
274
274
274
274
274
274
274
274
274
274
274
274
274
274
274
274
274
274
274
274
274
274
274
274
274
274
274
274
274
274
274
274
274
274
274
274
274
274
274
274
274
274
274
274
274
274
274
274
274
274
274
274
274
274
274
274
274
274
274
274
274
274
274
274
274
274
274
274
274
274
274
274
274
274
274
274
274
274
274
274
274
274
274
274
274
274
274
274
274
274
274
274
274
274
274
274
274
274
274
274
274
274
274
274
274
274
274
274
274
274
274
274
274
274
274
274
274
274
274
274
274
274
274
274
274
274
274
274
274
274
274
274
274
274
274
274
274
274
274
274
274
274
274
274
274
274
274
274
274
274
274
274
274
274
274
274
274
274
274
274
274
274
274
274
274
274
274
274
274
274
274
274
274
274
274
274
274
274
274
274
274
274
274
274
274
274
274
274
274
274
274
274
274
274
274
274
274
274
274
274
274
274
274
274
274
274
274
274
274
274
274
274
274
274
274
274
274
274
274
274
274
274
274
274
274
274
274
274
274
274
274
274
274
274
274
274
274
274
274
274
274
274
274
274
274
274
274
274
274
274
274
274
274
274
274
274
274
274
274
274
274
274
274
274
274
274
274
274
274
274
274
274
274
274
274
274
274
274
274
274
274
274
274
274
274
274
274
274
274
274
274
274
274
274
274
274
274
274
274
274
274
274
274
274
274
274
274
274
274
274
274
274
274
274
274
274
274
274
274
274
274
274
274
274
274
274
274
274
274
274
274
274
274
274
274
274
274
274
274
274
274
274
274
274
274
274
274
274
274
274
274
274
274
274
274
274
274
274
274
274
274
274
274
274
274
274
274
274
274
274
274
274
274
274
274
274
274
274
274
274
274
274
274
274
274
274
274
274
274
274
274
274
274
274
274
274
274
274
274
274
274
274
274
274
274
274
274
274
274
274
274
274
274
274
274
274
274
274
274
274
274
274
274
274
274
274
274
274
274
274
274
274
274
274
274
274
274
274
274
274
274
274
274
274
274
274
274
274
274
274
274
274
274
274
274
274
274
274
274
274
274
274
274
274
274
274