/*--------------------------------*- C++ -*----------------------------------*\
| =========                 |                                                 |
| \\      /  F ield         | OpenFOAM: The Open Source CFD Toolbox           |
|  \\    /   O peration     | Version:  2112                                  |
|   \\  /    A nd           | Website:  www.openfoam.com                      |
|    \\/     M anipulation  |                                                 |
\*---------------------------------------------------------------------------*/
FoamFile
{
    version     2.0;
    format      ascii;
    arch        "LSB;label=32;scalar=64";
    class       volScalarField;
    location    "0.00553";
    object      nut;
}
// * * * * * * * * * * * * * * * * * * * * * * * * * * * * * * * * * * * * * //

dimensions      [0 2 -1 0 0 0 0];

internalField   nonuniform List<scalar> 
13875
(
0.0511676
0.0366255
0.0343659
0.0343301
0.0342988
0.0343371
0.0342872
0.0342662
0.0343115
0.0343152
0.0342851
0.0342894
0.0343209
0.0343427
0.0343295
0.0342938
0.0342626
0.0342931
0.0343045
0.034327
0.0343037
0.0343328
0.0343828
0.0365592
0.0514334
0.053262
0.03412
0.0322224
0.0321069
0.0320621
0.0320853
0.0320287
0.0320059
0.0320493
0.0320637
0.0320447
0.0320444
0.0320528
0.0320736
0.0320594
0.0320472
0.0319999
0.0320387
0.0320483
0.0320773
0.0320638
0.0321014
0.0322285
0.0340464
0.0536487
0.0564571
0.0335618
0.0318031
0.031593
0.0315683
0.0315786
0.0314668
0.0314285
0.0314568
0.0314669
0.0314467
0.0314627
0.0315305
0.0315573
0.0315336
0.0314655
0.0314068
0.0314483
0.0314809
0.0315701
0.0315651
0.0315795
0.0317941
0.0334915
0.0566074
0.0590708
0.0332329
0.0314897
0.0312765
0.0312611
0.0312642
0.0311421
0.0310999
0.0311226
0.0311226
0.0310931
0.0311149
0.031214
0.0312414
0.0312171
0.031118
0.0310734
0.0311057
0.0311496
0.0312566
0.031256
0.0312617
0.0314842
0.0331706
0.0591525
0.0611263
0.0330041
0.0312467
0.031003
0.030984
0.0309808
0.0308537
0.0308126
0.0308348
0.0308339
0.0308057
0.0308247
0.0309259
0.0309561
0.0309286
0.0308285
0.0307876
0.0308178
0.0308622
0.0309725
0.0309778
0.030989
0.0312298
0.0329226
0.0612624
0.062819
0.0328484
0.0310897
0.0307718
0.0307512
0.0307309
0.0305933
0.0305525
0.0305721
0.0305692
0.030544
0.0305606
0.0306647
0.0306966
0.0306663
0.0305643
0.0305277
0.030556
0.0306023
0.0307227
0.0307449
0.0307603
0.0310586
0.0328254
0.0629694
0.0648274
0.0330735
0.0311047
0.0306338
0.030568
0.0305237
0.0303656
0.0303225
0.0303367
0.0303292
0.0303072
0.0303229
0.0304305
0.0304608
0.0304277
0.0303247
0.0302954
0.030323
0.0303787
0.0305153
0.0305626
0.0306324
0.0311138
0.0330724
0.0648593
0.067094
0.0339364
0.0314257
0.0306508
0.0304842
0.0303729
0.0301839
0.0301253
0.0301296
0.030121
0.0300991
0.0301108
0.0302239
0.0302551
0.0302191
0.030113
0.0300932
0.0301234
0.030193
0.0303602
0.0304693
0.0306286
0.0313925
0.0338968
0.0673509
0.0736464
0.036297
0.0320432
0.0308491
0.030477
0.0302842
0.0300487
0.0299716
0.0299639
0.0299464
0.0299292
0.0299387
0.0300572
0.0300896
0.030052
0.0299443
0.0299299
0.029963
0.0300508
0.0302632
0.0304557
0.0308024
0.0319373
0.0360038
0.0741915
0.0828997
0.0384693
0.0327348
0.0311878
0.0305867
0.0302558
0.0299846
0.029895
0.0298722
0.0298443
0.0298341
0.0298431
0.0299612
0.0299954
0.0299597
0.029863
0.0298459
0.0298844
0.0299781
0.030229
0.0305554
0.0310878
0.0326215
0.038102
0.0835333
0.090727
0.0441498
0.034658
0.0320142
0.0308512
0.0303783
0.0300704
0.0299352
0.0298895
0.0298529
0.0298444
0.0298526
0.0299646
0.0300015
0.0299756
0.0299012
0.0298827
0.0299277
0.0300535
0.0303367
0.0308119
0.0318927
0.0343721
0.0432733
0.0893464
0.0950625
0.0545479
0.0403987
0.0334715
0.031917
0.0308927
0.0303829
0.03019
0.0301012
0.0300527
0.0300391
0.0300483
0.0301449
0.0301871
0.0301747
0.030126
0.0301161
0.0301903
0.0303558
0.0308673
0.0318087
0.0332123
0.0398282
0.0533387
0.094251
0.0866169
0.068859
0.051574
0.0418433
0.0344616
0.0320268
0.0313866
0.0309184
0.0307367
0.0306416
0.0306065
0.0306066
0.0306807
0.0307286
0.0307384
0.0307307
0.0307812
0.0309568
0.0314087
0.0321308
0.0348285
0.041585
0.0507961
0.0686875
0.0866066
0.0796032
0.066043
0.058171
0.0658568
0.0420948
0.0374339
0.0338696
0.0327958
0.0323314
0.0322142
0.0321859
0.0321912
0.0322555
0.0323031
0.0323224
0.0323216
0.0323971
0.0328095
0.0341928
0.038243
0.043233
0.0656628
0.057822
0.0661193
0.0815932
0.0753699
0.0645193
0.0567451
0.0609206
0.0562078
0.0546569
0.0451047
0.039889
0.0379589
0.0367208
0.0363726
0.0362317
0.0362711
0.0363411
0.0364527
0.0367431
0.0376699
0.0397372
0.0452516
0.0545759
0.0563326
0.0613467
0.0565928
0.06417
0.0746792
0.0673015
0.0620613
0.0547247
0.0580349
0.0566297
0.0579546
0.0556961
0.0532406
0.0536246
0.0500812
0.0486814
0.0480154
0.0479284
0.0480462
0.0483913
0.0493164
0.052961
0.0543139
0.0555202
0.0582732
0.0565225
0.0585844
0.0543875
0.0614454
0.0665334
0.0627772
0.0588045
0.0532772
0.0564982
0.0584043
0.0629454
0.0714577
0.0833527
0.0795212
0.0720495
0.0723488
0.0734708
0.073992
0.0739831
0.0731668
0.0713745
0.0764804
0.0846327
0.0739105
0.0636767
0.0589914
0.0573172
0.0527016
0.0578825
0.062679
0.057454
0.0554034
0.0547443
0.0593779
0.0627469
0.0663328
0.0768564
0.0909716
0.0783841
0.0685777
0.0677226
0.0684574
0.0693949
0.0691268
0.0682998
0.0685153
0.0757871
0.0878733
0.0779414
0.0675417
0.0646514
0.0614075
0.0551082
0.0548523
0.0571519
0.0515935
0.0551906
0.0587302
0.0665654
0.0702459
0.0663915
0.0707492
0.0816222
0.0780997
0.0703902
0.0674206
0.0667101
0.0671055
0.0673142
0.067527
0.069213
0.0754099
0.0802494
0.0716706
0.0668971
0.0725351
0.0694356
0.0599328
0.0558407
0.0522991
0.0495945
0.0575209
0.0639409
0.0706282
0.070527
0.0649721
0.0657945
0.0742412
0.0763539
0.0716194
0.0673776
0.0649985
0.0646384
0.0655862
0.0673534
0.0702275
0.0740886
0.0732782
0.0662704
0.0656122
0.0720366
0.072294
0.0656122
0.0588394
0.0491461
0.0607372
0.0776167
0.0709037
0.066061
0.0662081
0.062043
0.062248
0.0696687
0.0742072
0.0713409
0.0664099
0.0628955
0.0620919
0.063685
0.0665308
0.0699183
0.0720709
0.0688162
0.0626475
0.0628838
0.0675449
0.0675581
0.0734798
0.0779847
0.0561726
0.112442
0.119512
0.0786078
0.0619887
0.0623525
0.0592267
0.0596652
0.0665522
0.0719739
0.0699058
0.0646251
0.0605044
0.0593875
0.0613655
0.0647753
0.0684019
0.069888
0.0658589
0.0600739
0.0600077
0.0634
0.0633316
0.0821695
0.123779
0.108738
0.135291
0.111838
0.0756982
0.0592549
0.0590138
0.0568815
0.0574913
0.0641297
0.0697699
0.0678899
0.0624101
0.0580142
0.0566701
0.0587795
0.062464
0.0662855
0.0677212
0.0635021
0.0578441
0.0575351
0.0597313
0.0602881
0.0778836
0.125728
0.140471
0.145114
0.102452
0.0702874
0.0571718
0.0562404
0.0548698
0.0556257
0.0619776
0.0675888
0.0654802
0.0598049
0.0554032
0.0540832
0.056261
0.0600284
0.0639605
0.0655686
0.0612326
0.055843
0.055554
0.056977
0.0581024
0.0719544
0.107765
0.151323
0.150136
0.0976411
0.0665704
0.0557597
0.0541027
0.053105
0.054148
0.060061
0.0653146
0.063031
0.0573565
0.0529973
0.0516991
0.0538631
0.0576639
0.0616316
0.0633359
0.0592091
0.0542
0.0537554
0.0548679
0.0566318
0.0679369
0.102859
0.156003
0.155321
0.0970044
0.0639374
0.054532
0.0524531
0.0516135
0.0529385
0.0583948
0.0630435
0.0606065
0.0550805
0.0508118
0.0495163
0.0516119
0.0553035
0.0591464
0.0609597
0.0574259
0.0528627
0.0521214
0.0531296
0.0553087
0.064683
0.0985884
0.161217
0.160369
0.0944418
0.0615832
0.0533555
0.0511746
0.0503921
0.0520483
0.05693
0.0606758
0.0580726
0.052821
0.0487833
0.0475397
0.0496024
0.0531921
0.0568975
0.0587773
0.055842
0.0517252
0.0507664
0.0518354
0.0542204
0.0626711
0.0969298
0.164914
0.164535
0.0939371
0.0602019
0.0522744
0.0501601
0.0494663
0.0512169
0.0555573
0.0585007
0.0557965
0.0508353
0.0469822
0.0457552
0.0477389
0.0511508
0.0546465
0.0565706
0.0543627
0.0507811
0.0496905
0.050745
0.0530939
0.0612077
0.0963965
0.169975
0.17045
0.0941096
0.0591572
0.0513998
0.0493436
0.0488031
0.0505479
0.0542906
0.056468
0.0537257
0.0490445
0.0453567
0.0441393
0.046016
0.0492208
0.0525115
0.0544648
0.0529604
0.049987
0.0488682
0.0498457
0.0521293
0.0600102
0.0955718
0.175146
0.175859
0.093562
0.0584365
0.0505682
0.0486394
0.0484114
0.0500389
0.0530422
0.0543647
0.0515829
0.0472606
0.0438392
0.0426816
0.0445349
0.0475898
0.0506813
0.0526046
0.0516537
0.0492535
0.0482593
0.0490293
0.0513372
0.0596486
0.0970901
0.179066
0.177662
0.0936873
0.0583596
0.0500514
0.0480344
0.0479958
0.0495187
0.0518923
0.0525714
0.0498001
0.0457327
0.0424894
0.0413572
0.0431319
0.046002
0.0489233
0.0508512
0.050443
0.0486269
0.0477364
0.0483066
0.0507492
0.0595644
0.0979234
0.183276
0.179893
0.0936522
0.058667
0.0498658
0.0476163
0.0475894
0.048996
0.0508034
0.0509375
0.0481883
0.0443655
0.0412769
0.0401685
0.0418687
0.0445743
0.0473374
0.0492513
0.0492863
0.0479936
0.0471968
0.0477807
0.050477
0.0598339
0.0976271
0.184893
0.182518
0.0923501
0.0590397
0.0500069
0.0473047
0.0472199
0.0484711
0.0497271
0.0493596
0.0466404
0.0430366
0.0401415
0.0390878
0.0407555
0.0433445
0.0460088
0.0479052
0.0482383
0.047373
0.0466794
0.0473259
0.0505127
0.0603322
0.0977771
0.186324
0.18392
0.0921154
0.0600926
0.0505915
0.0471984
0.0468747
0.0478935
0.0487411
0.0479288
0.0452857
0.0418956
0.0391429
0.0381193
0.0397201
0.042179
0.0447034
0.0465761
0.0472423
0.0467503
0.0462655
0.0470385
0.0508631
0.061248
0.0975451
0.188201
0.185567
0.0924426
0.0608914
0.0515306
0.0474028
0.0465135
0.0472953
0.0477994
0.0466614
0.0441036
0.0408586
0.0382302
0.0372385
0.0387806
0.0411291
0.043571
0.0454302
0.0463116
0.0460952
0.0458148
0.0470933
0.051616
0.0620697
0.09738
0.189038
0.187247
0.0916421
0.0607971
0.0527301
0.0478906
0.0462734
0.0467085
0.0468162
0.0454185
0.0429186
0.0398619
0.0373939
0.0364497
0.0379703
0.0402268
0.0425632
0.0443989
0.0454501
0.0454782
0.0454872
0.0474365
0.0527031
0.0621894
0.0981615
0.19013
0.187755
0.0916484
0.060705
0.0544014
0.0486546
0.046166
0.0461503
0.0458721
0.0443476
0.0419567
0.0390075
0.036652
0.0357296
0.0371984
0.0393578
0.0416395
0.0434219
0.0445982
0.0449199
0.045301
0.0480543
0.0540245
0.0618842
0.0973584
0.190701
0.188547
0.0917876
0.0605645
0.0560097
0.0498755
0.0462475
0.0456697
0.0450106
0.0433838
0.0410462
0.0382357
0.0359888
0.0350877
0.0365134
0.0385779
0.0407666
0.0425268
0.0438104
0.0444782
0.0453442
0.0491102
0.0557112
0.0616183
0.0971998
0.190411
0.18945
0.0915769
0.0599346
0.0565049
0.0511977
0.046565
0.0453124
0.0442104
0.0424767
0.0401966
0.0374982
0.0353674
0.0345039
0.0359101
0.0379079
0.0400458
0.0417677
0.0431395
0.0441473
0.0456211
0.0504337
0.0566975
0.0612607
0.0976059
0.19072
0.189461
0.0918814
0.0591453
0.0565555
0.0532289
0.04715
0.045165
0.0435695
0.0417153
0.0394406
0.0368634
0.0348263
0.0339773
0.0353426
0.0372553
0.0393133
0.0410587
0.0425451
0.0440207
0.0461561
0.0522235
0.0567642
0.060396
0.097137
0.191381
0.189803
0.0928485
0.0584636
0.0561851
0.0549709
0.0481837
0.0452067
0.0431312
0.0410878
0.0387915
0.0362984
0.0343275
0.0334985
0.0348188
0.0366697
0.0386843
0.0404833
0.0421593
0.0441024
0.0471829
0.0542665
0.0565198
0.0595089
0.0971041
0.191461
0.190364
0.0932831
0.0577469
0.0554685
0.0555839
0.0496318
0.0454384
0.0428909
0.040582
0.0381921
0.0357631
0.0338742
0.0330691
0.0343742
0.0361688
0.0381671
0.0400734
0.0420111
0.044426
0.0487873
0.0555628
0.056045
0.0590502
0.0976617
0.192056
0.190481
0.0941541
0.0572585
0.0546394
0.0552355
0.0520012
0.0461676
0.0428276
0.0403059
0.0377636
0.0353417
0.0334752
0.032678
0.0339508
0.0357141
0.037734
0.0398446
0.0420017
0.0451379
0.0511367
0.0554127
0.0552444
0.0584258
0.0977132
0.192423
0.190745
0.0956572
0.057332
0.0538793
0.0545663
0.0534904
0.0476212
0.0429993
0.0402152
0.037468
0.0350083
0.0331431
0.0323387
0.033594
0.0353412
0.0374397
0.0397892
0.0422272
0.046646
0.0529906
0.0548121
0.0544295
0.0579668
0.0981767
0.1925
0.19082
0.0965716
0.0570556
0.0531627
0.053652
0.0533249
0.0499044
0.0435892
0.0402087
0.0373367
0.0347872
0.0328838
0.0320732
0.0333331
0.0351244
0.0373634
0.0398613
0.0429446
0.0493226
0.0531727
0.0539066
0.0538089
0.0581414
0.0992656
0.192538
0.190483
0.0978277
0.0574128
0.0526233
0.0526775
0.0527487
0.0517684
0.045276
0.0404729
0.0373267
0.0347328
0.0327704
0.0318943
0.0331964
0.0350487
0.0373173
0.04009
0.0446842
0.0514282
0.052709
0.0529277
0.0532084
0.0581704
0.0997557
0.192427
0.189944
0.0994676
0.0581296
0.0522667
0.0518982
0.0519856
0.0518174
0.0480575
0.0413062
0.0374051
0.0347827
0.0327877
0.0318424
0.0331878
0.035051
0.037391
0.0408824
0.0477504
0.0517087
0.0520462
0.0521619
0.0527981
0.058526
0.100315
0.191696
0.188666
0.100068
0.0583919
0.0519691
0.0512312
0.0511541
0.0512958
0.0502358
0.0432901
0.0376854
0.0348252
0.0328419
0.0318864
0.0332386
0.0351105
0.0377305
0.0431281
0.0499903
0.0512237
0.0512597
0.0515349
0.0526147
0.0593174
0.101154
0.189983
0.185762
0.100208
0.0587377
0.0517887
0.0507049
0.0504044
0.0506718
0.0503788
0.0464472
0.038817
0.0350284
0.0329159
0.0319412
0.033286
0.0352968
0.0388158
0.0463454
0.0501018
0.0505996
0.0505404
0.0510263
0.0524124
0.0595313
0.100705
0.187062
0.178377
0.098789
0.0590188
0.0515705
0.0502835
0.0497957
0.0499199
0.0498964
0.048606
0.0414672
0.035674
0.0331076
0.0320777
0.0334538
0.0358782
0.0414493
0.0485463
0.0496696
0.0498655
0.0499632
0.0506424
0.0521595
0.0594382
0.098593
0.179735
0.1226
0.278346
0.375648
0.420414
0.438231
0.441118
0.446155
0.462055
0.492945
0.529713
0.563074
0.590433
0.612045
0.615234
0.583874
0.566325
0.556156
0.545595
0.539665
0.535705
0.531846
0.526845
0.52004
0.509465
0.492093
0.462741
0.417141
0.34973
0.252179
0.11693
0.121608
0.283078
0.367961
0.403441
0.415396
0.416263
0.420492
0.435918
0.467177
0.507483
0.545858
0.5783
0.604645
0.616129
0.58806
0.565892
0.555364
0.544109
0.534752
0.529882
0.525418
0.519378
0.511709
0.500439
0.482389
0.452689
0.406708
0.339441
0.243802
0.115096
0.131863
0.296535
0.362742
0.387018
0.394829
0.39509
0.398239
0.411746
0.440101
0.481178
0.523179
0.558773
0.588376
0.604964
0.585975
0.562421
0.551081
0.539183
0.527153
0.521606
0.516543
0.509678
0.501279
0.489068
0.470005
0.439862
0.393715
0.327257
0.234831
0.113356
0.140323
0.303605
0.354633
0.372888
0.379442
0.379538
0.381625
0.391073
0.413237
0.452046
0.49575
0.535258
0.569127
0.59099
0.583388
0.559007
0.546523
0.533852
0.520485
0.512534
0.506519
0.498921
0.48977
0.476614
0.456568
0.425988
0.379956
0.314704
0.225941
0.11155
0.144687
0.304317
0.350486
0.368639
0.378985
0.379713
0.376548
0.376193
0.38905
0.421084
0.46357
0.506233
0.544216
0.571391
0.576253
0.553459
0.541055
0.527918
0.513024
0.502357
0.495189
0.486963
0.477093
0.462984
0.441945
0.410918
0.365392
0.301966
0.217226
0.11004
0.149172
0.305523
0.358631
0.384741
0.403892
0.403976
0.391486
0.375856
0.373928
0.393901
0.43126
0.475156
0.516588
0.548531
0.561667
0.5461
0.534639
0.522312
0.50517
0.492191
0.483121
0.474222
0.463636
0.448559
0.426618
0.395202
0.350584
0.289403
0.2089
0.108598
0.153821
0.310247
0.387426
0.433659
0.468858
0.463276
0.4377
0.398236
0.373213
0.374533
0.401391
0.443329
0.486919
0.522557
0.54226
0.5346
0.526845
0.516233
0.497876
0.481827
0.470574
0.460933
0.449726
0.433943
0.411312
0.379563
0.335533
0.276631
0.200442
0.106903
0.159081
0.322882
0.448864
0.532557
0.591142
0.577018
0.53262
0.453227
0.393291
0.367245
0.377288
0.413012
0.45676
0.494709
0.519864
0.519747
0.517905
0.509117
0.491355
0.47143
0.457937
0.447495
0.435564
0.419095
0.395896
0.363898
0.319915
0.261813
0.189927
0.104136
0.16529
0.35072
0.554968
0.672966
0.711181
0.688871
0.642476
0.54889
0.438891
0.37564
0.361508
0.385813
0.427171
0.466357
0.495154
0.502252
0.503162
0.500815
0.484532
0.46161
0.444758
0.432985
0.420351
0.403151
0.378969
0.345412
0.301685
0.246514
0.179891
0.101508
0.172718
0.403712
0.689039
0.771384
0.771904
0.741619
0.707253
0.634105
0.502135
0.39933
0.355917
0.363727
0.399496
0.438739
0.469336
0.483169
0.485475
0.492477
0.477453
0.451828
0.430208
0.41627
0.402157
0.383503
0.358608
0.326062
0.284877
0.233646
0.172146
0.0996137
0.18217
0.489434
0.798433
0.829653
0.789976
0.743926
0.725086
0.67833
0.560271
0.42992
0.359703
0.348009
0.375595
0.413007
0.443832
0.46322
0.466526
0.477832
0.472334
0.442639
0.416095
0.398657
0.383581
0.364685
0.340547
0.309555
0.270645
0.222606
0.165432
0.0979814
0.194443
0.606185
0.886502
0.866475
0.789653
0.726009
0.708791
0.690906
0.590217
0.457169
0.367668
0.338559
0.35578
0.389648
0.42008
0.443102
0.448346
0.460402
0.469937
0.436978
0.402904
0.38237
0.365983
0.34742
0.324029
0.294348
0.257512
0.212501
0.159393
0.0964706
0.210149
0.737834
0.958356
0.892636
0.785648
0.707073
0.684487
0.688892
0.599353
0.474743
0.37287
0.332096
0.339719
0.36916
0.398926
0.42412
0.431783
0.443092
0.4571
0.438694
0.393181
0.367506
0.349722
0.331209
0.308507
0.280104
0.245291
0.203194
0.153769
0.0950785
0.228975
0.854918
1.01924
0.913548
0.782152
0.693091
0.660541
0.674745
0.597521
0.478428
0.373091
0.325727
0.3272
0.3522
0.380856
0.407479
0.416719
0.427616
0.441179
0.446172
0.390566
0.354579
0.334827
0.315874
0.293895
0.266766
0.23394
0.194609
0.148631
0.0938063
0.249952
0.958948
1.07445
0.927183
0.780009
0.684891
0.642718
0.655044
0.589157
0.468567
0.36742
0.319724
0.318053
0.339278
0.366592
0.393344
0.403494
0.414262
0.426244
0.437633
0.400536
0.346277
0.321048
0.301514
0.280156
0.254294
0.223401
0.186694
0.143992
0.092651
0.272384
1.05556
1.12562
0.937359
0.778056
0.680864
0.629806
0.629878
0.578177
0.455011
0.35903
0.316014
0.312945
0.330595
0.356131
0.381851
0.392045
0.402739
0.413602
0.423339
0.418718
0.347999
0.309524
0.288527
0.267236
0.242663
0.213648
0.179421
0.139803
0.0915759
0.296955
1.15016
1.17356
0.947902
0.780741
0.676589
0.618964
0.602268
0.554683
0.445246
0.354678
0.315669
0.310846
0.325611
0.349227
0.373334
0.382703
0.392805
0.402308
0.409694
0.413298
0.368416
0.30389
0.276608
0.255096
0.2318
0.204588
0.172675
0.135852
0.0905175
0.325183
1.24339
1.21748
0.961746
0.786362
0.676554
0.61524
0.581172
0.523538
0.43778
0.358303
0.31861
0.312527
0.324587
0.346019
0.368144
0.37553
0.384346
0.392269
0.397781
0.399914
0.389395
0.312253
0.267461
0.244324
0.221457
0.196105
0.166333
0.132095
0.089447
0.354218
1.33153
1.25831
0.981263
0.798527
0.68528
0.620039
0.570571
0.504565
0.428385
0.365124
0.32575
0.319064
0.327645
0.346692
0.364205
0.370538
0.377871
0.383363
0.38655
0.386641
0.382521
0.342414
0.266559
0.234836
0.211945
0.187962
0.160288
0.12856
0.0883491
0.38412
1.41969
1.29847
1.007
0.816978
0.703857
0.63425
0.572004
0.498959
0.422102
0.370091
0.341078
0.332152
0.336847
0.350487
0.362169
0.368338
0.373763
0.375731
0.376066
0.374167
0.368966
0.354963
0.282542
0.229404
0.203929
0.180251
0.154448
0.125334
0.0873241
0.428782
1.49187
1.33534
1.0421
0.8481
0.73332
0.659594
0.588369
0.507973
0.426955
0.380916
0.359312
0.348265
0.347024
0.354744
0.359454
0.364217
0.370681
0.369292
0.366341
0.362108
0.355356
0.345223
0.312724
0.233871
0.197844
0.174072
0.149092
0.122251
0.0863536
0.461277
1.56251
1.37917
1.09181
0.894365
0.77639
0.698954
0.623816
0.535079
0.445742
0.395688
0.372994
0.363077
0.356503
0.357827
0.357274
0.35952
0.362844
0.362866
0.357539
0.35088
0.342689
0.332045
0.315183
0.254504
0.19607
0.169037
0.144975
0.119166
0.0852136
0.494825
1.58879
1.41486
1.15746
0.959893
0.834142
0.751457
0.674771
0.582726
0.480411
0.414197
0.386595
0.375783
0.366867
0.359655
0.35621
0.354801
0.354994
0.354185
0.349242
0.341199
0.331667
0.32018
0.306369
0.276762
0.203473
0.165681
0.141645
0.116961
0.0844573
0.51638
1.60072
1.45237
1.24358
1.05135
0.911072
0.815272
0.73654
0.64769
0.536567
0.445338
0.403606
0.386684
0.3752
0.362554
0.356204
0.351215
0.348604
0.345864
0.340757
0.332917
0.322674
0.310563
0.296623
0.277403
0.225811
0.166765
0.139036
0.115374
0.0839733
0.521065
1.44256
1.4967
1.36554
1.17407
1.01196
0.895909
0.808258
0.723155
0.613685
0.498902
0.428477
0.396638
0.381892
0.366901
0.35703
0.349294
0.344325
0.339256
0.333553
0.325767
0.315448
0.302921
0.288586
0.272176
0.24378
0.177176
0.138331
0.11422
0.083629
0.117192
0.253632
0.351397
0.418523
0.463516
0.49228
0.509496
0.519978
0.526778
0.531614
0.535203
0.539238
0.54548
0.55622
0.5672
0.587083
0.617799
0.60867
0.585446
0.556584
0.521709
0.484307
0.454314
0.439056
0.434364
0.431783
0.414375
0.370623
0.275848
0.123068
0.115347
0.245226
0.341087
0.408036
0.453389
0.482542
0.500536
0.511771
0.51945
0.525254
0.529445
0.534438
0.544276
0.55552
0.567238
0.592086
0.614938
0.600232
0.572602
0.53877
0.498954
0.458616
0.428688
0.4139
0.410094
0.409245
0.397541
0.363229
0.280569
0.121988
0.113602
0.236197
0.328863
0.395015
0.440545
0.470222
0.489254
0.501405
0.509798
0.516502
0.521262
0.527216
0.539531
0.551404
0.564022
0.58927
0.602459
0.583528
0.55258
0.515337
0.472431
0.432027
0.405556
0.392811
0.390109
0.389986
0.382115
0.358566
0.293866
0.132209
0.111778
0.227232
0.316264
0.381247
0.426689
0.456873
0.476877
0.489971
0.499122
0.506598
0.512341
0.520808
0.534385
0.547147
0.560909
0.586185
0.587739
0.56382
0.528645
0.487617
0.443595
0.406213
0.386495
0.37854
0.377534
0.377751
0.369945
0.351702
0.300963
0.140774
0.110234
0.218407
0.303435
0.366639
0.411658
0.442346
0.463292
0.477372
0.487252
0.4954
0.502303
0.513518
0.528756
0.541879
0.555492
0.576812
0.567542
0.538393
0.499352
0.455482
0.413539
0.383892
0.37431
0.377202
0.381415
0.379889
0.368454
0.3497
0.302113
0.145176
0.10877
0.209996
0.290788
0.351746
0.395987
0.427109
0.448918
0.463976
0.474617
0.48348
0.4925
0.505962
0.523379
0.535559
0.548067
0.5604
0.544245
0.510591
0.468121
0.423636
0.388279
0.371833
0.377868
0.396932
0.410426
0.409703
0.388783
0.360794
0.304291
0.149657
0.107056
0.201483
0.277964
0.336665
0.38039
0.411825
0.434304
0.45007
0.461399
0.471017
0.482402
0.499078
0.517343
0.528045
0.5362
0.540217
0.517891
0.480853
0.436481
0.395154
0.371763
0.375392
0.406011
0.450689
0.477618
0.482284
0.443631
0.393676
0.310613
0.154528
0.104261
0.19089
0.263122
0.321164
0.364708
0.3964
0.419433
0.435885
0.447915
0.458507
0.472331
0.492842
0.510163
0.518358
0.520997
0.517308
0.490073
0.450769
0.406737
0.373158
0.368344
0.401605
0.470373
0.556921
0.599619
0.612328
0.550455
0.460034
0.325514
0.159731
0.101625
0.18081
0.247761
0.302918
0.346407
0.379614
0.403387
0.420534
0.433331
0.445461
0.462932
0.48611
0.501756
0.503202
0.503082
0.49244
0.462013
0.421586
0.380723
0.360378
0.381593
0.454692
0.574474
0.663725
0.706878
0.728933
0.691361
0.571502
0.356772
0.166204
0.0997212
0.173015
0.234877
0.28619
0.327222
0.359583
0.384225
0.402699
0.416803
0.431106
0.453438
0.478936
0.492671
0.485337
0.48353
0.466486
0.434589
0.394557
0.360453
0.358514
0.410311
0.523518
0.655802
0.723049
0.753372
0.786699
0.787512
0.704832
0.414328
0.173931
0.0980577
0.166181
0.223702
0.271883
0.310726
0.341613
0.365634
0.384347
0.399436
0.417344
0.444532
0.473622
0.477237
0.466566
0.462777
0.441216
0.409302
0.371634
0.346912
0.365897
0.44496
0.58149
0.694878
0.734281
0.752887
0.803891
0.846587
0.814035
0.504873
0.183582
0.0965213
0.160049
0.21347
0.258646
0.295465
0.325074
0.348376
0.36681
0.383337
0.404481
0.439127
0.469654
0.459636
0.448819
0.442087
0.417739
0.386476
0.352941
0.33966
0.376242
0.474403
0.608214
0.703828
0.71657
0.736153
0.804496
0.885374
0.903341
0.625184
0.196282
0.0951102
0.154355
0.204063
0.246336
0.281173
0.309536
0.332178
0.350653
0.368665
0.395187
0.440616
0.455737
0.442144
0.432209
0.422977
0.39684
0.366565
0.338028
0.334903
0.382772
0.492258
0.617005
0.700787
0.691646
0.718581
0.801474
0.914079
0.978194
0.756345
0.212267
0.0938237
0.149159
0.195406
0.234913
0.267793
0.294914
0.31685
0.335834
0.355951
0.392781
0.445897
0.439641
0.42651
0.417024
0.406228
0.379162
0.350188
0.326396
0.32958
0.383911
0.494939
0.615638
0.68438
0.668044
0.705207
0.798637
0.937034
1.04238
0.872259
0.231232
0.0926611
0.144467
0.187417
0.224306
0.25528
0.281164
0.302529
0.322145
0.347928
0.402471
0.435857
0.424663
0.412943
0.403469
0.391804
0.364966
0.33773
0.317904
0.323914
0.377956
0.484689
0.607284
0.662559
0.651542
0.697493
0.796793
0.951494
1.10063
0.976573
0.252289
0.0915879
0.140239
0.180068
0.214478
0.243601
0.268224
0.289563
0.310752
0.349771
0.418163
0.421339
0.411852
0.401225
0.391845
0.380379
0.35459
0.329366
0.313054
0.320282
0.368649
0.470372
0.594895
0.637002
0.640069
0.693752
0.795276
0.962543
1.15465
1.07476
0.274621
0.090528
0.136229
0.173252
0.205345
0.232676
0.256071
0.277675
0.305311
0.369582
0.411401
0.407689
0.400401
0.391066
0.382346
0.371956
0.347715
0.324698
0.310956
0.318682
0.363255
0.459755
0.56771
0.611586
0.62983
0.690933
0.798695
0.974523
1.20561
1.17146
0.298915
0.0894414
0.13234
0.16683
0.196782
0.222259
0.245263
0.268618
0.313671
0.388239
0.397835
0.395669
0.390219
0.382488
0.375111
0.367007
0.34419
0.323542
0.312722
0.320833
0.365209
0.449095
0.535111
0.592524
0.626845
0.691362
0.805975
0.990447
1.2524
1.26702
0.32687
0.088318
0.128669
0.160731
0.188547
0.212725
0.235767
0.267862
0.342829
0.380631
0.384575
0.384427
0.381245
0.37616
0.370442
0.363489
0.344919
0.326278
0.319005
0.327847
0.370493
0.437646
0.516227
0.582738
0.632307
0.699897
0.818759
1.01133
1.29551
1.35765
0.355755
0.0872714
0.125375
0.154844
0.180851
0.204648
0.230427
0.283744
0.353628
0.367075
0.372186
0.373989
0.373774
0.373337
0.367757
0.361859
0.349033
0.335614
0.331639
0.342136
0.374197
0.430224
0.510445
0.584642
0.646949
0.718509
0.837132
1.03795
1.33819
1.44857
0.385139
0.0862881
0.122329
0.14952
0.174676
0.198595
0.235123
0.312706
0.343574
0.353604
0.360242
0.364494
0.367954
0.369234
0.363367
0.359485
0.353818
0.346454
0.348304
0.359935
0.383587
0.433888
0.518496
0.600523
0.672455
0.748177
0.868499
1.07373
1.37651
1.52291
0.431242
0.0851225
0.11936
0.145397
0.169639
0.197058
0.256036
0.314146
0.330566
0.341139
0.34926
0.356197
0.36184
0.361749
0.358523
0.357244
0.357869
0.356797
0.364091
0.37433
0.398871
0.453652
0.54623
0.635736
0.712024
0.791785
0.915529
1.12445
1.42241
1.5946
0.462951
0.0843978
0.117139
0.142018
0.166288
0.204832
0.276683
0.305047
0.318869
0.330331
0.34002
0.348735
0.35309
0.353813
0.35366
0.356099
0.359709
0.367183
0.376852
0.388996
0.419129
0.49029
0.595367
0.687509
0.765273
0.850701
0.982166
1.1907
1.45917
1.62335
0.495561
0.0839031
0.115443
0.139344
0.167562
0.227389
0.276568
0.295375
0.309381
0.321332
0.332384
0.340179
0.344931
0.347494
0.350152
0.35598
0.362774
0.375118
0.387492
0.406814
0.452824
0.548876
0.661546
0.750708
0.829923
0.929792
1.07562
1.27753
1.49514
1.63459
0.516568
0.0835441
0.114205
0.138726
0.17859
0.243975
0.271159
0.2876
0.301829
0.314411
0.325071
0.332729
0.338511
0.343529
0.348631
0.356982
0.367439
0.382379
0.397997
0.433496
0.509567
0.628208
0.738009
0.823677
0.911799
1.03388
1.20256
1.40196
1.53628
1.47189
0.520562
0.156871
0.156073
0.154327
0.15266
0.150925
0.149102
0.147182
0.145176
0.143114
0.14102
0.138952
0.136879
0.134833
0.132821
0.130872
0.128991
0.127211
0.125511
0.123903
0.122405
0.120994
0.119685
0.118463
0.117326
0.116299
0.115363
0.114513
0.113752
0.113116
0.112631
0.11232
0.112325
0.113035
0.114616
0.117046
0.120263
0.1241
0.128632
0.13376
0.139296
0.144964
0.150032
0.154856
0.159384
0.163756
0.168025
0.172125
0.176711
0.181954
0.186212
0.187352
0.185076
0.181149
0.177131
0.172891
0.167801
0.161409
0.154475
0.147954
0.142797
0.138765
0.135605
0.133477
0.132267
0.131469
0.130912
0.130466
0.130084
0.129784
0.129614
0.129557
0.129575
0.129653
0.129779
0.129899
0.129986
0.130038
0.130077
0.130145
0.130237
0.130313
0.130333
0.130256
0.13003
0.129664
0.129233
0.12881
0.128428
0.128077
0.127739
0.127396
0.127019
0.126579
0.126054
0.125446
0.124774
0.124075
0.123386
0.122731
0.122116
0.121537
0.120981
0.120514
0.12027
0.120213
0.120384
0.120775
0.121376
0.122054
0.122773
0.12355
0.124319
0.125356
0.125874
0.125838
0.124461
0.118868
0.113398
0.106449
0.0974341
0.0891871
0.0851868
0.0836549
0.0832465
0.0833257
0.255001
0.25567
0.253686
0.252645
0.250975
0.24907
0.246717
0.244069
0.240802
0.237251
0.233988
0.230974
0.228296
0.226604
0.224721
0.224122
0.222342
0.222738
0.221632
0.222126
0.223819
0.225668
0.229853
0.234219
0.240275
0.247179
0.25519
0.264327
0.274854
0.287026
0.301536
0.320106
0.342074
0.365329
0.390283
0.415489
0.441961
0.468008
0.493717
0.518227
0.540919
0.56074
0.577644
0.592194
0.604729
0.614928
0.622374
0.627879
0.630864
0.630203
0.626661
0.61799
0.603432
0.583809
0.559018
0.528599
0.49446
0.458723
0.422535
0.393141
0.368579
0.350224
0.335623
0.323235
0.313403
0.305969
0.300254
0.295615
0.291851
0.289142
0.287336
0.286192
0.285758
0.286035
0.286419
0.286486
0.286216
0.285647
0.284686
0.283233
0.281295
0.278978
0.276444
0.273748
0.270884
0.267817
0.264535
0.261095
0.257574
0.254037
0.250509
0.246993
0.243484
0.240024
0.236753
0.23376
0.231067
0.228736
0.226897
0.225642
0.224679
0.223883
0.223278
0.222956
0.222973
0.223381
0.224494
0.225672
0.226237
0.226061
0.223905
0.219222
0.212674
0.20536
0.197364
0.189798
0.183462
0.178404
0.174259
0.169097
0.159673
0.138924
0.122595
0.115518
0.113767
0.295305
0.298225
0.297817
0.298744
0.299073
0.299415
0.299378
0.299228
0.298434
0.297676
0.297198
0.296532
0.296414
0.296938
0.29777
0.299923
0.301913
0.306102
0.309791
0.315527
0.322891
0.331336
0.342998
0.356308
0.37331
0.393217
0.415948
0.440012
0.465774
0.497075
0.532103
0.569121
0.608332
0.644383
0.678297
0.709876
0.739428
0.767386
0.793041
0.81617
0.837327
0.85642
0.87301
0.887217
0.898934
0.908175
0.917341
0.923181
0.920398
0.911697
0.900793
0.884862
0.864174
0.841141
0.819161
0.788716
0.742701
0.689869
0.633851
0.582374
0.537423
0.498689
0.466725
0.441803
0.422381
0.406878
0.394262
0.384045
0.37626
0.370271
0.365398
0.361225
0.357905
0.35556
0.35361
0.351627
0.349561
0.347241
0.344451
0.341281
0.337891
0.334346
0.330738
0.327164
0.323494
0.319579
0.315414
0.311071
0.306648
0.302269
0.298068
0.294205
0.290796
0.287888
0.285427
0.283397
0.281728
0.280256
0.278805
0.277367
0.276344
0.275954
0.275995
0.275899
0.275244
0.273263
0.269349
0.263325
0.255226
0.246033
0.236809
0.228095
0.220468
0.21409
0.209014
0.204519
0.201035
0.198413
0.196688
0.195662
0.194317
0.190923
0.181416
0.158252
0.143552
0.312845
0.317623
0.318339
0.320737
0.32263
0.325045
0.327259
0.330127
0.332983
0.336036
0.33977
0.343709
0.34935
0.355945
0.363883
0.374007
0.384775