/*--------------------------------*- C++ -*----------------------------------*\
| =========                 |                                                 |
| \\      /  F ield         | OpenFOAM: The Open Source CFD Toolbox           |
|  \\    /   O peration     | Version:  2112                                  |
|   \\  /    A nd           | Website:  www.openfoam.com                      |
|    \\/     M anipulation  |                                                 |
\*---------------------------------------------------------------------------*/
FoamFile
{
    version     2.0;
    format      ascii;
    arch        "LSB;label=32;scalar=64";
    class       volVectorField;
    location    "0.00706";
    object      U;
}
// * * * * * * * * * * * * * * * * * * * * * * * * * * * * * * * * * * * * * //

dimensions      [0 1 -1 0 0 0 0];

internalField   nonuniform List<vector> 
13875
(
(2204.19 109.708 1.81266e-18)
(2142.46 5.67322 -9.38736e-19)
(2170.24 -2.15974 -9.41077e-19)
(2167.79 -0.677985 0)
(2170.35 0.342142 0)
(2169.32 -1.26713 9.36417e-19)
(2169.72 -1.26336 -9.36605e-19)
(2169.56 -0.113612 -4.68584e-19)
(2169.17 0.18828 4.68277e-19)
(2169.14 0.166806 0)
(2169.53 0.0969653 -3.88188e-22)
(2169.48 0.839467 -3.88071e-22)
(2169.65 0.921457 0)
(2169.4 -0.0297231 -4.68218e-19)
(2169.45 -0.923576 4.68586e-19)
(2169.6 -1.29045 0)
(2169.87 -0.268117 9.37056e-19)
(2169.22 0.347389 -9.37803e-19)
(2169.13 0.948593 3.87944e-22)
(2169.81 1.18783 -3.85755e-22)
(2170.45 -0.167983 -9.36289e-19)
(2167.85 0.300457 9.37169e-19)
(2171.1 2.49246 -1.87819e-18)
(2143.4 -8.6323 1.9169e-18)
(2210.02 -106.84 1.76531e-18)
(2253.41 91.9355 -1.63241e-18)
(2228.47 -1.19798 1.8834e-18)
(2247.46 0.713872 8.71837e-19)
(2245.58 0.794514 -8.66915e-19)
(2248.53 -0.942092 4.17111e-22)
(2247.86 1.71075 5.20509e-22)
(2246.47 1.72479 4.16123e-22)
(2245.67 0.320512 -4.35932e-19)
(2245.06 -0.191073 4.35982e-19)
(2244.99 -0.411186 2.17551e-19)
(2245.22 -0.165727 -1.63066e-19)
(2245.42 -1.02214 -5.31502e-20)
(2247.76 -1.15115 0)
(2247.85 0.0979435 -4.34964e-19)
(2247.56 1.04672 4.33453e-19)
(2245.6 1.43048 4.36027e-19)
(2245.51 0.503535 -4.35307e-19)
(2245.2 -0.244011 5.18486e-22)
(2245.69 -1.57094 -5.18687e-22)
(2247.84 -1.97 5.19789e-22)
(2248.39 0.74783 -8.71463e-19)
(2245.59 -0.715587 2.59972e-18)
(2247.28 -1.55583 -1.74252e-18)
(2228.8 3.57522 5.43033e-22)
(2256.65 -97.2513 -1.71358e-18)
(2252.41 78.1236 0)
(2236.32 -18.2538 0)
(2249.46 4.3811 0)
(2250.56 -1.80681 0)
(2253.43 -2.6802 -1.64035e-18)
(2253.15 1.26141 1.64278e-18)
(2253.46 2.24414 1.72299e-18)
(2253.11 1.27119 -2.58425e-18)
(2252.86 0.591772 8.62222e-19)
(2252.65 0.197748 4.30645e-22)
(2253.08 -0.295706 -4.30716e-19)
(2253.09 -2.59915 4.30731e-19)
(2254.13 -2.55044 0)
(2253.98 0.0420593 0)
(2254.04 2.36842 4.08176e-22)
(2253.18 2.00623 0)
(2254.06 0.219935 8.38099e-22)
(2253.12 -0.291913 4.30566e-19)
(2253.09 -2.51235 -4.30675e-19)
(2253.53 -1.75796 0)
(2253.71 2.34807 0)
(2250.92 1.30683 0)
(2250.68 -4.78463 0)
(2238.12 13.6857 0)
(2257.52 -74.2557 0)
(2247.86 51.3587 0)
(2235.03 -28.7069 1.81424e-18)
(2249.29 7.20606 -3.41673e-18)
(2251.56 -4.76127 3.46621e-18)
(2253.28 -3.06878 -1.6362e-18)
(2253.08 1.13861 0)
(2253.51 1.81626 -8.41589e-22)
(2253.66 0.694277 0)
(2253.59 0.143978 0)
(2253.75 -0.357031 0)
(2254.43 -0.46686 0)
(2254.13 -2.40094 -8.44089e-22)
(2254.1 -2.49042 -5.06493e-20)
(2253.96 0.0153919 5.08834e-20)
(2254 2.27889 0)
(2254.26 1.80673 0)
(2254.74 0.259373 7.99414e-22)
(2254.18 0.394335 -8.57226e-19)
(2253.82 -1.74235 8.56234e-19)
(2253.42 -1.49246 -1.62425e-18)
(2253.55 2.73902 1.62359e-18)
(2251.98 4.32385 1.74091e-18)
(2249.74 -8.87667 -1.72063e-18)
(2235.86 31.1918 0)
(2251.71 -58.5602 0)
(2244.9 39.3074 1.74901e-18)
(2235.4 -47.8841 0)
(2248.63 10.4277 0)
(2250.13 -7.48405 0)
(2253.23 -4.0638 0)
(2252.83 0.879997 1.67861e-21)
(2253.28 1.41653 1.68768e-21)
(2253.47 0.364343 4.32617e-19)
(2253.47 -0.056471 -4.10752e-19)
(2253.74 -0.676146 2.13855e-19)
(2254.44 -0.557966 -2.15793e-19)
(2254.2 -1.99292 0)
(2254.12 -2.33762 0)
(2253.9 -0.00577454 -1.66584e-21)
(2254.05 2.07574 0)
(2254.31 1.35533 -1.68504e-21)
(2254.71 0.268168 8.07372e-19)
(2254.02 0.731677 -8.50563e-19)
(2253.49 -1.21871 1.71569e-18)
(2253.53 -0.843841 -1.69273e-18)
(2253.6 3.74692 1.6533e-21)
(2250.68 6.45444 0)
(2250.03 -11.5527 0)
(2237.25 42.7032 0)
(2250.18 -35.5529 0)
(2241.47 6.79625 0)
(2231.48 -63.5553 9.12509e-19)
(2247.1 12.3334 -8.48176e-19)
(2250.54 -10.9825 0)
(2252.39 -4.36612 8.60326e-19)
(2252.41 0.28179 -4.36337e-19)
(2253.17 0.681733 -3.20201e-21)
(2253.52 -0.280148 -2.18116e-19)
(2253.48 -0.461611 -4.33795e-19)
(2253.74 -1.31893 1.63903e-19)
(2254.44 -0.778524 1.70598e-21)
(2254.08 -1.76227 2.68138e-19)
(2253.98 -2.21272 -2.15159e-19)
(2253.78 -0.0830198 3.36774e-21)
(2253.89 1.88606 -4.27785e-19)
(2254.22 1.15566 4.33273e-19)
(2254.64 0.323006 1.63686e-21)
(2254.12 1.34675 -1.68323e-21)
(2253.73 -0.327079 -1.67964e-21)
(2252.97 -0.374215 -8.60279e-19)
(2252.77 4.11571 8.46089e-19)
(2251.44 10.6816 0)
(2247.37 -15.1922 0)
(2232.42 65.3828 -1.93281e-18)
(2245.96 -18.6939 -1.2615e-19)
(2254.01 2.94893 -4.95278e-20)
(2227.41 -79.2452 6.02473e-20)
(2242.89 12.447 0)
(2248.06 -15.2273 -2.69291e-23)
(2251.73 -5.58918 -2.62442e-23)
(2251.53 -0.449491 0)
(2252.77 -0.670635 0)
(2253.16 -0.690878 -8.64905e-19)
(2253.21 -0.693988 8.61421e-19)
(2253.64 -1.66584 0)
(2254.29 -0.846693 1.7132e-18)
(2254.05 -1.29401 3.58627e-21)
(2253.87 -1.85079 -1.72088e-18)
(2253.63 -0.101448 -1.71051e-21)
(2253.86 1.45042 0)
(2254.19 0.691338 3.44602e-18)
(2254.42 0.369417 1.78751e-21)
(2253.76 1.72633 -6.90579e-18)
(2253.08 0.327073 3.45141e-18)
(2252.81 0.935314 2.64376e-23)
(2252.27 6.07626 0)
(2248.52 12.9642 3.52717e-18)
(2244.19 -12.5261 -3.30773e-18)
(2228.9 73.0492 3.81565e-18)
(2247.13 2.95625 -3.18086e-18)
(2218.24 -22.7733 -3.17075e-19)
(2214.57 -87.2785 -7.49806e-18)
(2235.37 3.90184 8.70924e-22)
(2245.46 -21.7391 2.61221e-23)
(2248.5 -7.52406 -8.07733e-22)
(2250.61 -2.23961 0)
(2252.27 -2.13785 -3.45383e-18)
(2252.99 -1.52756 3.46403e-18)
(2253.1 -1.27599 0)
(2253.59 -2.30007 -8.43193e-22)
(2254 -1.10714 -8.29569e-22)
(2253.77 -1.06767 0)
(2253.53 -1.67029 0)
(2253.33 -0.10804 -1.65805e-21)
(2253.47 1.27275 -8.37125e-22)
(2253.93 0.537345 2.59973e-23)
(2254.13 0.680134 -8.56034e-22)
(2253.53 2.47477 -2.62919e-23)
(2252.91 1.78747 -1.73289e-18)
(2251.41 2.39317 -1.62346e-20)
(2249.26 8.02696 1.68894e-18)
(2246.39 19.3952 8.85467e-22)
(2236.72 -4.80094 3.45898e-18)
(2216.52 81.5913 -3.53872e-18)
(2222.4 18.1678 2.5021e-23)
(2113.08 -37.8013 9.42839e-19)
(2168.47 -98.4469 0)
(2216.94 -19.7647 -8.31344e-22)
(2234.36 -31.6927 -8.66928e-19)
(2245.36 -15.5351 1.70876e-18)
(2248.01 -5.87517 -1.72767e-18)
(2251.15 -4.31804 9.52495e-21)
(2252.04 -2.44564 8.62975e-19)
(2252.38 -1.6267 0)
(2253.04 -2.64872 -8.51441e-19)
(2253.39 -1.03369 8.50638e-19)
(2253.28 -0.42259 0)
(2252.96 -1.16686 0)
(2252.72 -0.264933 2.10281e-21)
(2252.94 0.552189 8.32605e-22)
(2253.3 0.0488927 8.41513e-19)
(2253.32 0.888599 -8.44167e-19)
(2252.54 3.2841 0)
(2251.25 3.41805 8.60929e-19)
(2249.46 6.01892 -1.72878e-18)
(2246.22 15.1109 8.45075e-19)
(2236.18 28.8812 -8.40913e-22)
(2219.02 16.6556 0)
(2171.34 94.0151 0)
(2117.26 35.3629 0)
(1873.36 -142.113 -6.57129e-17)
(2125.41 -161.136 8.43066e-17)
(2198.51 -53.9553 0)
(2228.96 -52.566 -2.99422e-17)
(2239.45 -20.2711 3.06189e-17)
(2246 -10.7851 0)
(2249.53 -8.2146 -2.94681e-20)
(2250.67 -4.22641 -1.45919e-17)
(2251.23 -3.07922 1.44224e-17)
(2251.82 -3.45585 -2.9092e-20)
(2252.13 -1.33919 0)
(2252.09 -0.350735 -3.70068e-18)
(2251.75 -0.844488 5.58942e-18)
(2251.51 -0.298587 -1.90142e-18)
(2251.68 0.452549 -2.92041e-20)
(2251.99 0.399302 0)
(2251.88 1.77143 0)
(2250.94 5.04449 -2.94739e-17)
(2249.42 7.59685 2.90878e-17)
(2246.67 10.294 -3.0598e-17)
(2240.49 20.4637 2.91844e-17)
(2229.42 52.9547 3.22074e-17)
(2199.9 52.5003 -2.92234e-17)
(2128.74 161.883 -8.33814e-17)
(1884.86 138.345 -1.25742e-17)
(1652.83 -215.391 -9.08343e-17)
(2011.27 -307.308 1.37685e-16)
(2159.5 -103.281 0)
(2211.24 -63.4643 6.80579e-17)
(2232.67 -28.7683 -7.08426e-17)
(2241.78 -15.4744 -3.4075e-17)
(2245.51 -8.4003 3.38087e-17)
(2247.47 -4.34389 -3.32086e-17)
(2248.55 -3.03109 3.34122e-17)
(2249.37 -2.87749 3.24298e-20)
(2249.73 -0.584102 0)
(2249.74 0.418804 -2.11431e-18)
(2249.41 -0.200463 2.16836e-18)
(2249.13 -0.477421 3.29641e-20)
(2249.23 -0.453974 3.28224e-20)
(2249.33 -0.415863 3.3057e-20)
(2249.09 0.868276 0)
(2247.99 4.54993 0)
(2245.06 7.62934 -6.76996e-17)
(2242.25 15.3567 6.82407e-17)
(2233.69 26.8949 -7.13793e-17)
(2211.61 58.9971 1.47081e-16)
(2166.1 99.2859 -6.99574e-17)
(2016.81 298.531 -3.8684e-20)
(1698.08 205.988 8.75266e-20)
(1281.88 -592.513 -1.08885e-16)
(1742.14 -590.842 1.19061e-16)
(2047.43 -179.959 2.16622e-16)
(2174.51 -105.721 -9.33352e-17)
(2208.46 -36.2682 0)
(2230.37 -21.0481 7.41861e-17)
(2238.55 -13.5881 -7.51548e-17)
(2241.22 -7.96148 0)
(2242.97 -5.78165 3.54427e-20)
(2244.07 -4.39421 0)
(2244.54 -1.32551 0)
(2244.65 0.165909 0)
(2244.42 0.171505 4.67465e-18)
(2244.12 -0.234708 -4.63856e-18)
(2244.09 0.0240766 -3.72244e-20)
(2243.84 0.867988 -3.55451e-20)
(2243.23 2.86516 0)
(2241.65 7.22316 0)
(2237.9 14.0011 0)
(2228.57 19.1439 -7.89084e-17)
(2211.57 37.2221 1.56873e-16)
(2176.56 102.492 -7.22943e-17)
(2053.2 161.918 -1.33612e-16)
(1750.25 592.224 1.00479e-16)
(1286.27 543.608 -5.99361e-20)
(1302.47 -610.265 1.60772e-16)
(1114.14 -1087.26 0)
(1704.72 -451.736 0)
(1929.05 -129.217 -1.08457e-16)
(2151.4 -84.9654 1.09188e-16)
(2201.92 -42.9948 0)
(2215.68 -13.9809 1.12915e-20)
(2223.94 -6.50789 4.05108e-17)
(2228.14 -3.23638 -4.08502e-17)
(2230.69 -1.53798 0)
(2231.72 0.603056 -1.00423e-17)
(2232.12 1.183 1.01287e-17)
(2232.12 0.871408 -5.09074e-18)
(2231.79 -0.152274 5.09357e-18)
(2231.44 -0.845043 3.85822e-20)
(2230.28 -1.24607 -4.05769e-17)
(2227.82 -0.257098 8.05162e-17)
(2223.53 4.31608 1.03354e-18)
(2213.63 13.1559 -4.04072e-17)
(2197.88 44.5764 -9.08974e-17)
(2134.27 71.9891 8.43647e-17)
(1912.11 109.047 8.26557e-20)
(1759.67 453.714 2.60667e-20)
(1103.53 1071.45 1.67405e-16)
(1319.73 612.257 7.16454e-18)
(1359.58 -629.666 0)
(1143.48 -1060.17 0)
(1292.81 -752.544 0)
(1198.66 -816.979 0)
(1954.49 -255.288 0)
(2051.72 -62.3917 1.01775e-16)
(2156.59 -47.9984 -1.04239e-16)
(2174.61 -30.5987 1.15801e-19)
(2184.27 -20.2655 -1.0314e-20)
(2191.01 -11.1477 2.26147e-17)
(2193.33 -4.89439 -2.28807e-17)
(2194.33 -1.17922 -2.26629e-19)
(2194.53 0.533785 -7.08682e-19)
(2194.13 1.459 8.04071e-19)
(2193.35 3.68435 -2.26979e-17)
(2190.81 8.60897 2.2485e-17)
(2183.92 17.8755 9.96584e-20)
(2173.5 31.5792 0)
(2149.62 52.9426 0)
(2020.15 86.787 0)
(1917 323.281 -2.11153e-16)
(1177.19 818.374 -6.08532e-17)
(1296.64 703.37 1.63917e-16)
(1135.35 1023.31 2.05624e-20)
(1369.28 618.852 2.08588e-20)
(1437.82 -621.374 0)
(1273.62 -929.712 3.94149e-20)
(1322.34 -785.49 0)
(1235.86 -859.172 -1.67725e-16)
(1333.42 -807.001 3.17825e-16)
(1647.3 -553.914 -2.04648e-16)
(1936.44 -116.633 0)
(1955.81 -11.9886 -1.02746e-19)
(2002.73 15.9198 0)
(2040.32 10.6664 0)
(2052.65 7.55079 -1.41568e-17)
(2056.88 3.53963 1.44713e-17)
(2057.97 2.16173 1.42973e-17)
(2057.38 0.835779 -1.43781e-17)
(2054.9 -1.32614 0)
(2045.61 -5.88415 -5.89309e-17)
(2011.97 -12.2199 5.95395e-17)
(1958.29 15.475 7.12959e-17)
(1936.2 137.421 -5.98768e-17)
(1605.86 582.042 0)
(1307.28 797.334 0)
(1205.83 848.136 -1.6934e-19)
(1330.72 778.771 -1.70816e-16)
(1266.6 919.391 3.66737e-16)
(1425.51 618.869 -1.69387e-16)
(1520.22 -631.138 -1.69218e-16)
(1388.47 -853.864 1.87024e-16)
(1383 -757.996 0)
(1279.56 -816.202 -1.90615e-16)
(1304.25 -781.288 -6.61346e-18)
(1300.89 -745.788 2.77757e-16)
(1250.65 -591.164 -2.00441e-16)
(1305.74 -520.979 1.18671e-16)
(1519.21 -284.331 0)
(1550.23 -128.646 0)
(1534.75 -64.5963 -4.13808e-20)
(1530.8 -23.8912 2.78475e-19)
(1527.52 -3.93325 0)
(1529.09 13.5548 0)
(1533.18 45.6413 5.8878e-17)
(1543.89 116.122 -5.5966e-17)
(1556.08 242.898 -1.12119e-16)
(1319.6 522.287 2.25896e-16)
(1239.4 591.665 1.8077e-17)
(1282.1 745.803 -8.99662e-17)
(1299.9 777.444 0)
(1252.5 819.971 0)
(1380.97 758.492 -1.74123e-16)
(1352.33 884.816 2.03202e-16)
(1502.1 640.582 -4.59263e-20)
(1659.91 -609.971 1.5729e-16)
(1561.69 -752.249 -9.69908e-20)
(1526.99 -690.284 9.52171e-17)
(1468.4 -720.805 -8.47006e-17)
(1393.81 -676.022 -4.51805e-20)
(1330.38 -594.654 8.78705e-20)
(1180.48 -443.341 1.16259e-16)
(846.668 -226.267 -1.81391e-16)
(659.043 -119.111 6.41274e-17)
(514.45 -52.5903 0)
(389.391 -17.244 -3.37405e-17)
(346.905 -4.74467 3.36346e-17)
(328.805 1.20439 0)
(335.539 7.95602 6.26064e-20)
(367.271 14.3608 -3.35705e-17)
(475.786 43.2725 3.38589e-17)
(700.454 115.395 0)
(840.399 235.083 -1.17675e-16)
(1161.24 429.097 1.17652e-16)
(1314.72 588.533 8.91764e-17)
(1388.18 679.666 -1.87806e-16)
(1434.48 744.293 9.9098e-17)
(1518.54 709.955 0)
(1545.53 777.549 1.68915e-16)
(1648.91 624.825 -3.26065e-18)
(1814.87 -551.09 -3.333e-18)
(1746.46 -594.387 8.03664e-17)
(1689.1 -536.454 -3.65609e-17)
(1534.11 -410.938 -5.74914e-17)
(1427.24 -341.368 7.30122e-17)
(1379.01 -259.117 -5.13361e-17)
(1278.9 -246.751 5.33963e-17)
(919.578 -180.16 -5.90031e-17)
(707.958 -96.2537 -4.13093e-19)
(590.508 -59.4123 3.30883e-17)
(494.32 -36.4543 1.65119e-17)
(461.721 -19.084 -1.65145e-19)
(448.678 0.162117 -1.66932e-17)
(455.238 23.28 -6.12305e-20)
(486.186 37.6325 -7.58174e-20)
(578.774 54.8015 -2.07635e-18)
(766.151 92.6252 1.50884e-20)
(934.29 172.276 5.43939e-18)
(1276.95 223.702 -3.52857e-18)
(1377.06 292.581 0)
(1419.68 396.89 1.08437e-17)
(1538.98 457.491 -3.48657e-17)
(1688.45 580.644 4.16178e-17)
(1742 627.073 -5.67209e-17)
(1809 568.353 5.32657e-17)
(1993.04 -509.534 -8.634e-20)
(1952.72 -339.102 -1.04573e-19)
(1885.1 -311.394 1.22605e-19)
(1778.66 -199.551 -5.61467e-21)
(1505.67 -39.8938 -1.85362e-19)
(1413.19 -20.6119 -1.98959e-19)
(1372.79 -75.7601 -7.22532e-21)
(1187.58 -92.4685 0)
(954.27 -109.634 0)
(828.061 -120.763 6.56609e-17)
(753.002 -99.8338 -6.68951e-17)
(710.762 -46.8124 -8.89077e-21)
(695.697 2.7874 8.86619e-21)
(700.41 50.983 -8.61586e-18)
(736.332 114.939 8.35846e-18)
(818.217 148.361 0)
(970.737 133.095 0)
(1161.39 108.19 -5.67957e-17)
(1343.65 78.0016 5.5905e-17)
(1373.56 9.70415 -1.94275e-19)
(1499.36 34.664 0)
(1784.86 209.648 0)
(1885.79 314.271 -1.25352e-19)
(1948.94 335.257 -1.07954e-19)
(1992.91 523.598 1.23189e-16)
(1535.77 -187.142 -1.86665e-16)
(1746.86 -111.939 -2.4088e-16)
(1861.94 104.741 1.20967e-16)
(1799.22 165.105 0)
(1619.85 213.686 2.0237e-19)
(1517.52 135.567 1.07332e-16)
(1506.98 21.1533 -2.0831e-16)
(1405.11 -21.5295 1.06418e-16)
(1214.25 -60.9898 -1.21392e-16)
(1059.94 -84.0485 1.25291e-16)
(941.188 -70.0548 3.29446e-17)
(872.734 -27.4387 -4.09896e-17)
(848.872 6.87253 -8.29966e-18)
(865.443 39.3814 1.67786e-17)
(934.391 88.9974 0)
(1068.18 110.565 0)
(1232.88 82.0611 1.16997e-16)
(1388.65 39.673 -2.21119e-16)
(1495.62 -24.5641 1.09092e-16)
(1500.93 -150.415 2.28475e-19)
(1635.29 -215.477 1.56487e-16)
(1789.24 -165.424 -9.31262e-17)
(1837.18 -145.747 -4.78188e-16)
(1742.66 120.955 6.28429e-16)
(1526.05 185.366 -2.5211e-16)
(19.7112 -73.8917 1.14399e-19)
(584.526 -81.6972 -2.5802e-16)
(1425.17 343.157 1.68918e-16)
(1686.47 512.794 0)
(1661.33 432.256 0)
(1613.19 263.543 0)
(1602.92 127.222 0)
(1528.31 64.1056 0)
(1361.3 16.3795 -5.18932e-17)
(1202.56 -18.9081 1.0862e-16)
(1079.58 -24.3959 -8.46456e-17)
(1004.47 -4.96602 3.2136e-17)
(983.539 9.53455 -3.61991e-18)
(1004.51 21.3397 1.56357e-20)
(1087.74 44.9792 -5.58261e-17)
(1228.46 40.7905 5.55641e-17)
(1390.44 1.54788 0)
(1527.72 -50.5435 0)
(1607.96 -127.306 -1.72518e-16)
(1603.72 -288.235 1.85534e-16)
(1672.42 -434.803 -1.63322e-19)
(1672.32 -508.19 7.15377e-20)
(1371.96 -337.544 -9.57247e-20)
(513.938 110.846 -1.14687e-19)
(-33.7695 70.0473 0)
(-338.704 -49.7117 -2.23906e-16)
(458.716 308.532 2.27347e-16)
(1295.01 692.136 -1.66186e-19)
(1652.87 748.273 1.60135e-16)
(1721.03 582.769 -1.22084e-16)
(1692.59 372.735 0)
(1672.92 226.242 -8.17616e-17)
(1612.07 158.261 7.46824e-17)
(1466.94 91.3931 -4.47397e-17)
(1318.38 37.4502 9.3699e-17)
(1195.03 13.4038 -4.82183e-17)
(1124.66 10.237 1.8294e-19)
(1103.77 7.46623 0)
(1130.09 2.7692 2.48794e-17)
(1212.71 -0.424091 2.31622e-17)
(1351.4 -27.7246 -4.7514e-17)
(1495.45 -87.9195 -8.17717e-17)
(1611.48 -150.861 8.3986e-17)
(1684.01 -227.307 -7.15075e-17)
(1689.52 -403.912 7.97201e-17)
(1720.68 -603.397 7.97684e-20)
(1624.14 -760.81 -7.51489e-20)
(1232.03 -680.125 0)
(392.35 -296.361 1.11013e-19)
(-328.848 28.5496 0)
(349.72 357.621 1.87159e-16)
(925.366 789.131 -1.82644e-16)
(1440.04 894.448 6.08231e-20)
(1696.15 865.807 0)
(1772.8 675.384 0)
(1740.36 496.286 -7.30538e-21)
(1713.16 351.31 0)
(1667.09 247.865 7.42049e-20)
(1543.8 165.934 0)
(1409.8 96.3056 4.16809e-17)
(1299.95 50.2778 -6.40127e-17)
(1230.65 25.1962 3.26175e-17)
(1211.89 6.34504 -1.09925e-17)
(1236.07 -15.1682 0)
(1316.13 -39.8447 0)
(1438.26 -89.1222 3.89589e-17)
(1566.21 -160.318 -1.09665e-16)
(1664.57 -247.133 7.31256e-17)
(1733.36 -342.282 -6.03323e-17)
(1742.31 -502.443 7.04361e-17)
(1781.55 -682.383 0)
(1683.98 -880.753 0)
(1424.96 -893.462 0)
(928.787 -794.481 -1.12518e-20)
(352.147 -334.738 -1.97601e-16)
(408.913 178.57 -3.56245e-20)
(1174.31 770.319 1.52356e-16)
(1563.53 954.542 -1.14625e-16)
(1755.97 905.488 0)
(1802.57 738.271 0)
(1762.86 585.56 7.48868e-21)
(1750.78 442.89 6.4259e-17)
(1714.86 325.151 -5.72098e-17)
(1606.06 222.196 3.04414e-20)
(1488.24 138.455 3.30636e-20)
(1387.7 78.4709 3.48867e-20)
(1327.32 37.2046 -1.03284e-20)
(1307.41 4.02406 -1.03743e-20)
(1332.23 -30.717 1.92682e-17)
(1402.4 -73.511 -1.93564e-17)
(1514.75 -135.906 4.23857e-20)
(1627.34 -219.992 3.90342e-20)
(1709.36 -327.632 0)
(1766.19 -433.524 -5.37516e-17)
(1774.47 -584.228 6.25182e-17)
(1814.71 -740.68 0)
(1751.77 -914.443 -9.76571e-17)
(1549.08 -952.317 1.19131e-16)
(1157.03 -755.123 8.81868e-21)
(407.423 -157.526 -1.85496e-16)
(608.399 183.664 4.10626e-20)
(1319.83 791.431 0)
(1649.16 956.995 0)
(1794.45 913.003 -4.72106e-17)
(1810.79 778.402 4.61731e-17)
(1778.08 646.385 0)
(1781.39 511.341 5.83997e-17)
(1750.82 383.927 -5.27809e-17)
(1654.32 273.538 3.19607e-17)
(1550.53 178.377 -3.22216e-17)
(1465.32 102.993 1.77068e-17)
(1408.88 48.413 -1.78088e-17)
(1393.82 1.77308 0)
(1415.24 -46.789 -1.76397e-17)
(1481.37 -103.474 1.77084e-17)
(1576.63 -182.859 -3.48215e-20)
(1676.15 -272.762 -3.22091e-20)
(1747.4 -394.619 5.17784e-20)
(1793.3 -510.452 4.93332e-17)
(1785.94 -649.335 -5.76701e-17)
(1827.7 -783.253 -4.57463e-20)
(1794.02 -921.671 -4.34221e-20)
(1640.38 -945.373 0)
(1279.02 -768.824 -7.04927e-20)
(576.139 -163.478 4.17073e-20)
(645.415 174.639 1.57372e-22)
(1383.91 726.088 0)
(1712.96 894.737 9.0582e-23)
(1793.88 910.499 3.95494e-20)
(1815.24 811.118 -8.51184e-23)
(1793.31 695.787 -5.15887e-17)
(1809.83 563.083 4.58817e-17)
(1786.94 434.02 0)
(1701.31 313.448 -5.92981e-20)
(1612.53 211.068 -1.08281e-22)
(1533.62 125.513 -1.13857e-22)
(1486.58 57.4507 6.87685e-20)
(1469.67 0.357954 0)
(1490.67 -57.1484 0)
(1545.97 -126.583 -1.13183e-22)
(1634.11 -214.976 -1.07277e-22)
(1720.67 -313.462 -2.64252e-17)
(1780.64 -441.71 7.53698e-17)
(1816.59 -561.114 -5.30896e-17)
(1802.36 -696.203 0)
(1830.63 -805.054 -4.39571e-17)
(1795.47 -913.117 4.30226e-17)
(1714.59 -885.582 9.04456e-23)
(1376.11 -704.009 6.03616e-20)
(646.935 -177.752 1.571e-22)
(759.72 218.832 3.89544e-18)
(1492.49 701.135 1.38043e-17)
(1757.11 863.64 9.64682e-17)
(1799.79 898.835 -4.04567e-17)
(1827.04 810.44 4.17745e-17)
(1810.4 710.701 -4.76842e-17)
(1836.48 591.144 4.27192e-17)
(1811.87 467.186 -2.52666e-17)
(1735.61 347.042 2.47825e-17)
(1659.56 239.889 1.15191e-22)
(1596.01 143.734 1.20782e-22)
(1551.6 66.9368 -1.23254e-22)
(1538.95 0.348388 7.4247e-18)
(1555.74 -67.6723 7.2553e-18)
(1607.52 -146.27 -1.48672e-17)
(1679.32 -245.773 1.14191e-22)
(1756.05 -342.443 4.9123e-17)
(1809.83 -473.572 -9.55143e-17)
(1844.35 -587.86 4.87315e-17)
(1814.34 -714.833 0)
(1841.57 -808.429 -8.34023e-23)
(1803.12 -901.015 7.72499e-23)
(1754.74 -862.565 -8.26203e-23)
(1482.8 -696.312 -1.1928e-16)
(751.289 -218.096 1.46794e-16)
(794.898 228.219 1.39048e-19)
(1536.95 650.311 0)
(1777.15 806.179 0)
(1803.36 873.02 3.89654e-20)
(1831.44 799.066 8.09228e-20)
(1832.81 723.835 0)
(1863.09 610.456 4.49134e-17)
(1840.33 488.408 -4.23964e-17)
(1771.1 363.828 4.45377e-20)
(1708.04 254.524 -4.77472e-20)
(1649.06 154.695 -1.37559e-17)
(1613.74 70.1706 1.37165e-17)
(1600.04 -3.70394 3.56846e-18)
(1617.58 -78.22 -3.46666e-18)
(1660.16 -164.403 1.32646e-17)
(1726.82 -269.286 -3.80497e-17)
(1791.59 -372.604 2.47641e-17)
(1834.89 -504.137 -4.64264e-20)
(1864.81 -616.991 3.93802e-20)
(1834.77 -732.026 -4.02289e-17)
(1844.47 -800.096 1.05352e-18)
(1809.73 -872.889 -1.74268e-18)
(1781.7 -796.372 4.07049e-17)
(1509.57 -623.645 5.56824e-20)
(739.651 -219.815 6.812e-20)
(787.762 211.89 1.34143e-16)
(1568.21 591.268 -1.07545e-16)
(1801.95 762.084 0)
(1818.53 846.87 -3.78606e-17)
(1850.65 787.504 2.99066e-19)
(1852.23 718.34 3.91572e-17)
(1886.31 618.276 4.1721e-17)
(1859.7 506.675 -4.01168e-17)
(1799.7 387.428 -4.72355e-20)
(1746.29 277.413 -2.46245e-17)
(1700.9 171.018 1.19311e-17)
(1666.41 81.476 1.26297e-17)
(1656.2 0.664732 -5.38214e-20)
(1668.44 -81.273 0)
(1708.12 -171.815 0)
(1760.09 -282.813 0)
(1818.78 -380.226 4.67433e-20)
(1858.32 -509.651 9.70085e-21)
(1890.69 -612.158 -4.9787e-20)
(1854.82 -719.139 0)
(1861.78 -786.315 3.8279e-20)
(1822.65 -848.035 9.25535e-21)
(1804.78 -766.294 -4.79707e-20)
(1585.27 -595.744 -1.05429e-16)
(832.016 -242.923 1.34548e-16)
(824.9 238.262 6.55616e-17)
(1587.63 527.31 -9.55228e-17)
(1818.42 675.99 8.22991e-17)
(1830.86 790.487 -4.08539e-17)
(1858.09 756.237 -3.77451e-17)
(1872.3 707.633 3.72539e-17)
(1907.93 621.398 1.93001e-17)
(1882.66 513.852 -1.90305e-17)
(1828.65 391.767 1.08612e-17)
(1786.45 281.544 -2.2444e-17)
(1742.59 175.241 1.73932e-17)
(1717.03 82.5237 -7.37882e-18)
(1705.84 -2.26147 1.48838e-18)
(1719.36 -87.9641 -4.3683e-20)
(1751.11 -181.264 2.28802e-17)
(1800.88 -294.796 -2.2929e-17)
(1848.8 -396.861 3.88835e-20)
(1878.62 -523.315 3.79777e-17)
(1910.21 -621.317 -1.99544e-18)
(1868.88 -713.603 -3.82735e-17)
(1869.13 -757.734 0)
(1837.41 -797.06 4.08177e-17)
(1820.65 -693.234 -3.61828e-17)
(1589.58 -532.116 -1.02414e-16)
(836.478 -249.642 -1.36945e-18)
(935.079 267.801 -6.25168e-17)
(1649.6 480.325 4.78886e-17)
(1842.36 629.783 1.90249e-20)
(1843.72 750.21 -5.38454e-20)
(1884.95 738.969 1.8272e-20)
(1894.53 687.012 3.57662e-17)
(1929.92 602.334 -1.72264e-17)
(1896.97 506.433 -1.84256e-17)
(1851.21 394.631 4.17479e-20)
(1815.69 289.177 -4.42473e-20)
(1784.22 179.74 2.02802e-20)
(1758.52 85.0821 -2.06023e-20)
(1751.86 -3.35626 0)
(1760.94 -93.8395 5.27496e-21)
(1791.24 -189.095 -1.07165e-17)
(1828.16 -304.198 1.07881e-17)
(1872.43 -398.141 -1.93808e-17)
(1898.13 -520.762 1.02302e-18)
(1932.87 -604.114 1.80963e-17)
(1892.03 -691.855 -5.28935e-20)
(1890.52 -743.815 -3.6958e-17)
(1852.03 -754.518 3.48666e-17)
(1847.11 -636.975 0)
(1638.32 -479.677 -4.83703e-17)
(868.02 -247.69 6.273e-17)
(949.913 270.137 0)
(1665.45 430.476 -4.20897e-17)
(1846.75 545.471 4.26342e-17)
(1863.64 670.091 1.7705e-20)
(1895.96 698.853 1.71559e-20)
(1913.28 667.285 -3.42022e-17)
(1943.61 598.555 3.42606e-17)
(1916.58 510.089 1.83748e-17)
(1876.83 398.037 8.05582e-19)
(1851.33 292.133 -1.97425e-17)
(1818.9 184.371 -2.14938e-20)
(1801.02 89.1177 2.41686e-20)
(1792.05 -0.780934 0)
(1802.07 -91.7918 4.3451e-20)
(1824.85 -186.031 -2.141e-20)
(1861.9 -302.725 9.79107e-18)
(1896.95 -399.527 -9.67497e-18)
(1912.95 -517.538 -1.83405e-20)
(1945.55 -597.013 -1.91617e-20)
(1909.08 -668.804 1.74138e-20)
(1900.44 -706.156 -3.65233e-17)
(1869.8 -688.82 -6.42773e-18)
(1859.01 -566.321 3.34119e-17)
(1674.21 -435.181 0)
(973.609 -270.394 6.01734e-17)
(1041.98 284.167 -1.1449e-16)
(1701.27 393.951 4.45514e-17)
(1860.27 485.234 3.2362e-17)
(1885.7 624.832 -4.08857e-17)
(1915.26 672.44 0)
(1936.11 647.441 -2.05325e-21)
(1963.36 574.863 0)
(1928.6 492.153 -2.20714e-21)
(1895.89 391.966 -2.34529e-21)
(1873.81 292.858 0)
(1853 184.234 0)
(1833.95 89.0211 -2.56657e-21)
(1829.67 -2.18864 0)
(1835.74 -95.9242 0)
(1858.16 -190.515 -9.63715e-18)
(1883.44 -305.178 9.63422e-18)
(1918.24 -391.713 -2.32253e-21)
(1931.45 -504.669 -1.72052e-17)
(1964.85 -577.211 1.63632e-17)
(1933.79 -649.201 0)
(1917.59 -681.708 3.57007e-17)
(1888.73 -639.882 -7.30077e-17)
(1872.02 -505.505 7.24551e-17)
(1705.72 -390.655 4.30838e-18)
(1053.93 -294.8 -5.69223e-17)
(1098.65 278.754 1.35531e-20)
(1720.04 363.682 -1.03273e-20)
(1864.91 421.304 0)
(1903.57 535.272 0)
(1925.03 616.396 0)
(1953.92 616.931 7.64471e-21)
(1972.55 561.347 0)
(1943.66 484.494 -7.89018e-21)
(1918.73 385.459 0)
(1906.13 285.428 -8.50611e-21)
(1880.93 179.332 0)
(1869.14 86.6049 -2.3506e-18)
(1862.1 -3.68419 2.3443e-18)
(1870 -95.4079 0)
(1886.25 -186.261 9.193e-18)
(1913.59 -302.444 -1.80907e-17)
(1939.15 -392.114 8.75421e-18)
(1944.24 -496.247 0)
(1975.34 -566.151 1.59448e-17)
(1948.41 -621.368 -1.5824e-17)
(1929.39 -627.586 3.568e-17)
(1907.84 -562.368 -3.16376e-17)
(1867.41 -439.168 0)
(1724.36 -354.846 0)
(1096.6 -278.282 0)
(1143.78 271.933 -1.31718e-20)
(1744.78 340.606 1.02554e-20)
(1880.61 356.958 0)
(1918.83 465.426 0)
(1944.2 580.849 0)
(1972.39 598.153 -7.58789e-21)
(1992.85 538.28 0)
(1955.68 463.085 8.23639e-21)
(1936.81 375.168 0)
(1924.33 285.861 -8.82127e-18)
(1910.06 181.704 8.81499e-18)
(1895.65 89.434 -8.40658e-21)
(1892.84 -0.464909 9.25043e-21)
(1896.44 -93.4389 8.40051e-21)
(1912.92 -183.505 0)
(1930.23 -294.607 0)
(1958.74 -372.519 8.5445e-21)
(1961.03 -472.971 -1.62924e-17)
(1995.82 -540.408 1.51029e-17)
(1970.23 -601.469 0)
(1942.48 -593.873 7.78955e-21)
(1924.41 -486.808 0)
(1877.46 -380.505 0)
(1748.53 -336.314 0)
(1132.17 -250.147 0)
(1174.17 240.826 -5.03855e-17)
(1758.04 309.823 4.16216e-17)
(1888.73 308.371 0)
(1929.86 378.061 -1.68876e-20)
(1954.97 517.684 0)
(1983.1 552.669 -1.44768e-17)
(2000.49 517.379 3.03885e-17)
(1969.84 452.518 -1.58491e-17)
(1956.4 365.51 -8.15058e-18)
(1952.95 274.742 8.34444e-18)
(1932.72 173.198 4.35203e-21)
(1925.03 85.2 1.11094e-18)
(1918.98 -2.67556 -1.07287e-18)
(1925.3 -92.5185 8.47166e-18)
(1937.38 -177.671 -8.53146e-18)
(1957.29 -290.721 0)
(1976.25 -370.682 -1.51876e-20)
(1972.25 -462.959 0)
(2003.09 -526.511 0)
(1981.22 -562.921 -1.62247e-17)
(1953.82 -528.759 1.46411e-17)
(1933.52 -397.572 0)
(1884.89 -316.886 3.65712e-17)
(1744.23 -307.17 2.09828e-18)
(1127.43 -226.752 -1.04112e-16)
(1234.18 224.014 5.05778e-17)
(1783.19 287.299 1.91818e-20)
(1900.82 258 3.10181e-17)
(1928.67 318.067 -2.33093e-17)
(1968.09 475.365 -1.77697e-17)
(1997.38 523.09 0)
(2018.39 492.084 7.59554e-21)
(1981.94 425.095 1.5212e-17)
(1972.87 346.684 -1.58881e-17)
(1966.68 266.769 0)
(1956.47 170.339 0)
(1945.73 83.6797 -2.59287e-20)
(1944.28 -2.63229 3.21109e-20)
(1946.58 -93.3253 1.69241e-20)
(1959.18 -176.532 4.07112e-18)
(1970.79 -280.481 -4.04503e-18)
(1994.51 -350.024 8.43721e-21)
(1990.32 -440.448 1.55793e-17)
(2022.94 -498.183 -2.90934e-17)
(1996.74 -531.018 1.39886e-17)
(1967.79 -488.316 -1.48522e-20)
(1936.72 -315.397 0)
(1898.93 -263.137 1.69304e-20)
(1766.56 -284.621 4.03217e-17)
(1194.93 -223.362 -1.00491e-16)
(1238.38 185.082 -4.96499e-17)
(1784 258.019 -3.80788e-17)
(1903.46 227.231 3.46962e-17)
(1917.1 236.68 1.45058e-17)
(1976.42 387.417 -1.85289e-17)
(2004.47 461.301 0)
(2023.59 462.887 3.70336e-21)
(1994.75 414.413 -1.10484e-20)
(1991.15 340.151 7.60689e-18)
(1992.63 257.898 -1.55964e-17)
(1975.48 163.964 7.90608e-18)
(1970.58 82.2785 1.9731e-18)
(1965.59 -1.0853 -1.85828e-18)
(1970.71 -87.1614 1.83387e-18)
(1979.28 -164.794 -1.97839e-18)
(1994.04 -271.56 0)
(2009.15 -342.656 1.12373e-20)
(1998.94 -422.315 -3.57918e-21)
(2026.91 -476.173 -1.49673e-17)
(2004.11 -478.543 1.36647e-17)
(1976.23 -404.778 0)
(1924.02 -250.092 0)
(1904.1 -218.633 -4.11092e-21)
(1785.54 -257.411 -3.96956e-17)
(1248.15 -201.451 -1.60899e-18)
(1276.86 168.069 -2.33486e-17)
(1797.09 242.248 1.94361e-17)
(1915.21 206.385 4.10649e-21)
(1918.58 177.409 0)
(1985.38 313.906 1.34682e-17)
(2017.09 421.736 -1.6248e-17)
(2036.56 435.648 3.43722e-21)
(2007.34 382.799 3.66266e-21)
(2006.68 318.372 1.41089e-20)
(2002.85 247.753 -1.89513e-18)
(1994.37 160.024 9.51743e-19)
(1986.7 79.7143 1.88212e-18)
(1986.4 -1.86328 -9.60591e-19)
(1987.57 -88.5206 3.8396e-18)
(1997.38 -163.249 -3.80061e-18)
(2005.2 -259.444 0)
(2027.58 -322.472 1.02377e-20)
(2016.99 -399.583 -1.51272e-17)
(2041.13 -444.55 1.32929e-17)
(2018.18 -435.472 3.46221e-21)
(1985.11 -338.375 0)
(1919.54 -166.272 0)
(1920.19 -202.756 4.11638e-21)
(1803.37 -249.587 -3.88687e-17)
(1288.7 -194.319 4.64601e-17)
(1307.98 142.094 2.33541e-20)
(1804.55 212.406 0)
(1926.4 182.773 -7.81079e-21)
(1926.7 115.362 -1.45106e-17)
(1980.48 233.148 1.77782e-17)
(2017.63 347.583 -1.31542e-17)
(2036.12 390.13 1.539e-17)
(2015.35 366.251 -7.02428e-18)
(2021.94 308.667 7.38072e-18)
(2026.13 236.572 -3.63353e-18)
(2010.29 150.027 3.70746e-18)
(2007.85 74.3584 -1.81334e-18)
(2003.97 -3.35223 2.08715e-18)
(2008.03 -84.4116 -2.45391e-19)
(2014.57 -154.721 3.69693e-18)
(2026.48 -253.514 -7.29825e-18)
(2039.1 -313.746 -3.76523e-18)
(2023.44 -376.546 7.03815e-18)
(2042.35 -410.966 1.35959e-20)
(2020.88 -367.72 -7.01382e-21)
(1985.98 -235.988 0)
(1926.74 -122.734 0)
(1934.71 -181.527 0)
(1812.46 -219.788 -1.91292e-17)
(1306.63 -158.202 2.25443e-17)
(1328.38 139.708 -2.78768e-21)
(1811.95 196.304 0)
(1945.25 166.149 9.85037e-21)
(1929.92 82.3624 -7.99591e-21)
(1959.77 152.035 -7.24791e-21)
(2025.81 290.178 0)
(2045.33 352.138 -6.67565e-21)
(2027.94 330.375 6.83909e-18)
(2035.45 286.163 -7.30863e-18)
(2033.37 226.934 0)
(2026.42 148.471 1.69994e-21)
(2021 74.8155 0)
(2021.15 -0.74081 0)
(2021.38 -82.1356 1.80295e-18)
(2029.11 -148.754 -1.79314e-18)
(2034.14 -236.608 -7.23685e-21)
(2056.26 -290.298 -1.66067e-21)
(2038.99 -348.529 6.99523e-21)
(2049.53 -365.428 -7.53175e-18)
(2030.39 -320.18 6.37183e-18)
(1974.45 -176.874 -1.74549e-17)