/*--------------------------------*- C++ -*----------------------------------*\
| =========                 |                                                 |
| \\      /  F ield         | OpenFOAM: The Open Source CFD Toolbox           |
|  \\    /   O peration     | Version:  2112                                  |
|   \\  /    A nd           | Website:  www.openfoam.com                      |
|    \\/     M anipulation  |                                                 |
\*---------------------------------------------------------------------------*/
FoamFile
{
    version     2.0;
    format      ascii;
    arch        "LSB;label=32;scalar=64";
    class       volScalarField;
    location    "0.00939";
    object      epsilon;
}
// * * * * * * * * * * * * * * * * * * * * * * * * * * * * * * * * * * * * * //

dimensions      [0 2 -3 0 0 0 0];

internalField   nonuniform List<scalar> 
13875
(
1.16002e+06
2.94631e+07
3.28256e+07
3.28392e+07
3.28997e+07
3.28549e+07
3.29001e+07
3.29335e+07
3.29107e+07
3.28987e+07
3.29108e+07
3.29062e+07
3.28708e+07
3.28447e+07
3.28613e+07
3.29105e+07
3.29484e+07
3.29129e+07
3.28932e+07
3.28609e+07
3.28994e+07
3.28308e+07
3.28032e+07
2.94959e+07
1.17797e+06
1.31389e+06
2.27476e+07
2.53564e+07
2.52386e+07
2.52743e+07
2.52259e+07
2.52321e+07
2.52597e+07
2.5224e+07
2.52083e+07
2.52263e+07
2.5247e+07
2.52109e+07
2.51943e+07
2.52008e+07
2.52502e+07
2.52461e+07
2.52362e+07
2.52251e+07
2.52291e+07
2.52697e+07
2.52198e+07
2.53279e+07
2.27653e+07
1.34206e+06
1.57304e+06
1.97064e+07
2.18302e+07
2.16266e+07
2.16924e+07
2.16429e+07
2.15681e+07
2.15672e+07
2.15212e+07
2.14947e+07
2.15114e+07
2.15445e+07
2.16084e+07
2.16031e+07
2.15973e+07
2.15472e+07
2.15318e+07
2.15302e+07
2.15485e+07
2.16409e+07
2.16834e+07
2.16018e+07
2.17902e+07
1.96946e+07
1.58432e+06
1.81373e+06
1.73849e+07
1.90381e+07
1.88792e+07
1.89618e+07
1.89143e+07
1.88298e+07
1.8823e+07
1.8787e+07
1.87582e+07
1.8767e+07
1.87849e+07
1.88851e+07
1.8881e+07
1.88766e+07
1.87875e+07
1.87941e+07
1.87801e+07
1.88064e+07
1.89151e+07
1.89522e+07
1.88578e+07
1.9015e+07
1.73652e+07
1.82029e+06
2.02281e+06
1.54521e+07
1.67719e+07
1.66202e+07
1.66993e+07
1.6656e+07
1.65697e+07
1.65701e+07
1.65409e+07
1.65149e+07
1.65241e+07
1.65308e+07
1.66269e+07
1.66277e+07
1.66197e+07
1.65335e+07
1.65475e+07
1.65307e+07
1.65525e+07
1.66547e+07
1.66902e+07
1.6605e+07
1.67448e+07
1.54277e+07
2.03616e+06
2.2065e+06
1.3712e+07
1.49278e+07
1.47378e+07
1.48283e+07
1.47743e+07
1.46797e+07
1.46848e+07
1.4659e+07
1.46347e+07
1.46469e+07
1.4644e+07
1.47376e+07
1.47426e+07
1.47319e+07
1.46466e+07
1.46677e+07
1.46476e+07
1.46667e+07
1.47748e+07
1.48194e+07
1.47292e+07
1.49043e+07
1.3846e+07
2.22314e+06
2.42261e+06
1.22512e+07
1.34776e+07
1.32068e+07
1.32681e+07
1.32005e+07
1.30921e+07
1.30965e+07
1.30725e+07
1.30486e+07
1.30629e+07
1.30526e+07
1.31448e+07
1.31518e+07
1.31378e+07
1.3055e+07
1.30836e+07
1.30614e+07
1.30853e+07
1.32005e+07
1.3257e+07
1.32015e+07
1.34222e+07
1.19504e+07
2.43005e+06
2.66604e+06
1.06158e+07
1.23128e+07
1.19744e+07
1.19978e+07
1.18864e+07
1.1759e+07
1.17544e+07
1.17282e+07
1.17031e+07
1.17213e+07
1.17031e+07
1.17947e+07
1.18045e+07
1.17879e+07
1.17049e+07
1.17428e+07
1.17206e+07
1.17513e+07
1.18843e+07
1.19812e+07
1.19656e+07
1.22648e+07
1.0544e+07
2.69563e+06
3.49651e+06
1.02131e+07
1.14825e+07
1.10289e+07
1.09377e+07
1.0787e+07
1.06326e+07
1.06206e+07
1.05921e+07
1.05634e+07
1.05864e+07
1.05622e+07
1.06523e+07
1.06648e+07
1.06472e+07
1.05657e+07
1.06086e+07
1.05864e+07
1.06248e+07
1.07802e+07
1.09224e+07
1.10215e+07
1.14747e+07
1.03388e+07
3.57506e+06
6.83629e+06
1.22211e+07
1.11971e+07
1.04277e+07
1.0165e+07
9.92963e+06
9.7599e+06
9.73424e+06
9.70287e+06
9.67393e+06
9.69692e+06
9.67097e+06
9.75578e+06
9.77019e+06
9.75306e+06
9.68301e+06
9.71945e+06
9.70816e+06
9.74511e+06
9.91505e+06
1.01432e+07
1.036e+07
1.11614e+07
1.2131e+07
6.8941e+06
1.49166e+07
1.86822e+07
1.20457e+07
1.03212e+07
9.61662e+06
9.32093e+06
9.13501e+06
9.07365e+06
9.03347e+06
9.00464e+06
9.02219e+06
8.99788e+06
9.07345e+06
9.08992e+06
9.07842e+06
9.02836e+06
9.05585e+06
9.06153e+06
9.12381e+06
9.28485e+06
9.60849e+06
1.02674e+07
1.18774e+07
1.79408e+07
1.49999e+07
2.54702e+07
6.8719e+07
1.81687e+07
1.07076e+07
9.70787e+06
9.01361e+06
8.71488e+06
8.61155e+06
8.55115e+06
8.5209e+06
8.52892e+06
8.50858e+06
8.56864e+06
8.58728e+06
8.58468e+06
8.55617e+06
8.5804e+06
8.61043e+06
8.70264e+06
9.01721e+06
9.65438e+06
1.05528e+07
1.75775e+07
6.72542e+07
2.50325e+07
2.65871e+07
7.57437e+07
8.69457e+07
2.41448e+07
1.09527e+07
9.12631e+06
8.73647e+06
8.45717e+06
8.33758e+06
8.28479e+06
8.27411e+06
8.25147e+06
8.29238e+06
8.31263e+06
8.32367e+06
8.32589e+06
8.38014e+06
8.49168e+06
8.76197e+06
9.15209e+06
1.12975e+07
2.26238e+07
8.08262e+07
7.64613e+07
2.6081e+07
2.63568e+07
5.50467e+07
7.97738e+07
1.04873e+08
5.80797e+07
1.30935e+07
9.64046e+06
8.82589e+06
8.57795e+06
8.55452e+06
8.54593e+06
8.52486e+06
8.55586e+06
8.57485e+06
8.59465e+06
8.6154e+06
8.65411e+06
8.88681e+06
9.95098e+06
1.45122e+07
6.57638e+07
9.10637e+07
7.52781e+07
5.44617e+07
2.57551e+07
2.53393e+07
4.25093e+07
5.80863e+07
7.26283e+07
7.5504e+07
7.49992e+07
2.34478e+07
1.31077e+07
1.10976e+07
1.03893e+07
1.01053e+07
9.99589e+06
9.99352e+06
1.0023e+07
1.01072e+07
1.03443e+07
1.10353e+07
1.31882e+07
2.62867e+07
7.758e+07
7.50179e+07
6.60535e+07
5.65668e+07
4.22074e+07
2.64153e+07
2.47157e+07
3.35132e+07
4.33565e+07
5.43579e+07
5.93888e+07
6.79727e+07
5.11626e+07
4.54127e+07
4.14487e+07
3.25398e+07
3.45174e+07
3.56088e+07
3.63946e+07
3.61061e+07
3.49701e+07
3.30192e+07
4.0344e+07
4.90166e+07
5.2032e+07
6.86264e+07
5.81875e+07
5.05169e+07
4.26001e+07
3.33967e+07
2.57959e+07
2.00491e+07
2.52371e+07
3.22692e+07
4.1983e+07
4.95412e+07
6.19584e+07
7.06119e+07
7.03164e+07
5.73979e+07
4.96069e+07
5.22218e+07
5.48995e+07
5.64849e+07
5.58723e+07
5.30241e+07
5.32015e+07
5.79628e+07
7.0599e+07
7.07005e+07
6.12943e+07
4.71437e+07
3.90574e+07
3.08937e+07
2.45044e+07
1.99386e+07
1.4822e+07
1.91075e+07
2.64491e+07
3.73701e+07
4.54196e+07
5.30108e+07
6.36883e+07
6.8559e+07
5.13699e+07
3.83579e+07
3.53046e+07
3.55555e+07
3.62221e+07
3.59084e+07
3.58539e+07
4.14942e+07
5.1782e+07
6.47264e+07
6.26665e+07
5.40679e+07
4.52606e+07
3.60318e+07
2.53624e+07
1.85551e+07
1.45179e+07
1.22188e+07
1.66935e+07
2.39355e+07
3.7186e+07
4.77856e+07
4.6278e+07
4.92837e+07
5.47388e+07
4.54325e+07
3.41973e+07
2.88053e+07
2.72289e+07
2.7054e+07
2.75215e+07
2.95259e+07
3.55302e+07
4.39646e+07
5.12285e+07
4.87672e+07
4.79655e+07
5.05314e+07
3.69389e+07
2.35684e+07
1.64406e+07
1.20599e+07
1.16233e+07
1.82107e+07
2.4875e+07
3.68435e+07
4.35144e+07
3.92966e+07
3.87391e+07
4.22873e+07
3.88151e+07
3.13532e+07
2.55763e+07
2.24128e+07
2.14177e+07
2.29198e+07
2.66547e+07
3.2144e+07
3.70185e+07
3.96899e+07
3.85666e+07
4.07783e+07
4.51506e+07
3.62272e+07
2.47581e+07
1.83291e+07
1.17124e+07
2.99422e+07
5.96935e+07
4.50245e+07
3.22103e+07
3.46316e+07
3.16656e+07
3.09842e+07
3.38384e+07
3.28874e+07
2.77509e+07
2.22229e+07
1.8461e+07
1.72446e+07
1.92388e+07
2.35468e+07
2.83616e+07
3.12288e+07
3.19408e+07
3.1005e+07
3.28375e+07
3.57453e+07
3.30571e+07
5.00873e+07
6.54294e+07
3.86173e+07
9.29297e+07
2.99239e+08
6.1371e+07
2.61315e+07
2.7415e+07
2.57385e+07
2.53605e+07
2.7749e+07
2.77322e+07
2.39782e+07
1.9029e+07
1.52627e+07
1.40163e+07
1.60506e+07
2.0245e+07
2.436e+07
2.62192e+07
2.63493e+07
2.53689e+07
2.6567e+07
2.81147e+07
2.70144e+07
6.78794e+07
2.95149e+08
1.07985e+08
1.10352e+08
2.32187e+08
5.08933e+07
2.17752e+07
2.22212e+07
2.12726e+07
2.1012e+07
2.30486e+07
2.33127e+07
2.03977e+07
1.6078e+07
1.26625e+07
1.14831e+07
1.32792e+07
1.70368e+07
2.06049e+07
2.19401e+07
2.19429e+07
2.09833e+07
2.17462e+07
2.26151e+07
2.24336e+07
5.18421e+07
2.24982e+08
1.07867e+08
9.43607e+07
2.34876e+08
3.99062e+07
1.8652e+07
1.82906e+07
1.76705e+07
1.75268e+07
1.9193e+07
1.95597e+07
1.7178e+07
1.34334e+07
1.04871e+07
9.50931e+06
1.10686e+07
1.43387e+07
1.74118e+07
1.84086e+07
1.82998e+07
1.75551e+07
1.80468e+07
1.86478e+07
1.92813e+07
4.13734e+07
2.42037e+08
9.41434e+07
8.64167e+07
2.24822e+08
3.33241e+07
1.62813e+07
1.54388e+07
1.48731e+07
1.48267e+07
1.61261e+07
1.64742e+07
1.44932e+07
1.13028e+07
8.79042e+06
7.96944e+06
9.29265e+06
1.21127e+07
1.47363e+07
1.55243e+07
1.53756e+07
1.48295e+07
1.5177e+07
1.57998e+07
1.68693e+07
3.51577e+07
2.39756e+08
8.73556e+07
7.99613e+07
2.18312e+08
2.87171e+07
1.42399e+07
1.32583e+07
1.26519e+07
1.26948e+07
1.36682e+07
1.39329e+07
1.22817e+07
9.59261e+06
7.44749e+06
6.75043e+06
7.8598e+06
1.02545e+07
1.24741e+07
1.31348e+07
1.29983e+07
1.26069e+07
1.28331e+07
1.35657e+07
1.4682e+07
3.01278e+07
2.30138e+08
8.18373e+07
7.63433e+07
1.92415e+08
2.4277e+07
1.24862e+07
1.15545e+07
1.08885e+07
1.09592e+07
1.1657e+07
1.17925e+07
1.03767e+07
8.14524e+06
6.36056e+06
5.78036e+06
6.73407e+06
8.77216e+06
1.06355e+07
1.12228e+07
1.11197e+07
1.08465e+07
1.10321e+07
1.18737e+07
1.29336e+07
2.59716e+07
2.05849e+08
7.84466e+07
7.21249e+07
1.74489e+08
2.13285e+07
1.11004e+07
1.0209e+07
9.51056e+06
9.56314e+06
1.00498e+07
1.008e+07
8.86656e+06
7.0022e+06
5.49402e+06
4.99735e+06
5.80521e+06
7.52496e+06
9.09631e+06
9.63506e+06
9.5844e+06
9.41592e+06
9.60656e+06
1.04587e+07
1.14551e+07
2.29072e+07
1.89742e+08
7.36947e+07
6.66304e+07
1.63909e+08
1.92411e+07
9.94776e+06
9.10106e+06
8.44252e+06
8.42039e+06
8.73101e+06
8.67553e+06
7.62136e+06
6.06817e+06
4.7909e+06
4.35836e+06
5.043e+06
6.48023e+06
7.79135e+06
8.3111e+06
8.32013e+06
8.24008e+06
8.45599e+06
9.26333e+06
1.02204e+07
2.01592e+07
1.65706e+08
6.9886e+07
6.17017e+07
1.45955e+08
1.74947e+07
8.99662e+06
8.12222e+06
7.54591e+06
7.48104e+06
7.62311e+06
7.47424e+06
6.55263e+06
5.26296e+06
4.1973e+06
3.83241e+06
4.431e+06
5.66358e+06
6.77076e+06
7.24638e+06
7.29958e+06
7.30213e+06
7.5368e+06
8.25326e+06
9.2371e+06
1.84486e+07
1.52317e+08
6.54036e+07
5.71992e+07
1.26452e+08
1.60792e+07
8.24983e+06
7.29808e+06
6.78971e+06
6.70245e+06
6.72255e+06
6.51416e+06
5.70033e+06
4.62164e+06
3.71489e+06
3.39574e+06
3.91214e+06
4.95325e+06
5.88206e+06
6.34169e+06
6.44731e+06
6.52361e+06
6.75215e+06
7.36876e+06
8.42694e+06
1.67882e+07
1.3226e+08
6.0484e+07
5.33639e+07
1.13052e+08
1.49926e+07
7.68171e+06
6.59675e+06
6.13191e+06
6.03871e+06
5.97929e+06
5.72878e+06
5.00967e+06
4.09416e+06
3.31171e+06
3.03166e+06
3.4744e+06
4.36881e+06
5.16501e+06
5.59618e+06
5.7405e+06
5.86237e+06
6.07381e+06
6.62357e+06
7.80022e+06
1.54423e+07
1.15694e+08
5.63066e+07
4.97695e+07
9.67722e+07
1.38841e+07
7.23059e+06
6.01018e+06
5.57213e+06
5.44763e+06
5.33726e+06
5.04684e+06
4.40594e+06
3.63332e+06
2.96722e+06
2.72498e+06
3.11808e+06
3.89213e+06
4.57208e+06
4.97808e+06
5.15373e+06
5.28974e+06
5.50336e+06
6.01925e+06
7.30888e+06
1.44649e+07
1.02611e+08
5.25999e+07
4.6748e+07
8.43166e+07
1.28821e+07
6.88895e+06
5.54342e+06
5.09431e+06
4.92744e+06
4.79856e+06
4.49213e+06
3.9217e+06
3.25969e+06
2.67805e+06
2.46442e+06
2.80399e+06
3.47867e+06
4.06851e+06
4.44688e+06
4.64696e+06
4.78435e+06
5.00993e+06
5.52582e+06
6.91775e+06
1.35762e+07
8.90802e+07
4.89862e+07
4.4011e+07
7.51498e+07
1.18831e+07
6.58488e+06
5.21262e+06
4.67733e+06
4.48276e+06
4.33116e+06
4.0245e+06
3.50994e+06
2.94071e+06
2.43237e+06
2.24228e+06
2.54044e+06
3.12621e+06
3.63966e+06
3.99745e+06
4.20481e+06
4.35302e+06
4.60413e+06
5.16662e+06
6.62893e+06
1.25319e+07
7.82721e+07
4.60386e+07
4.11825e+07
6.65485e+07
1.09489e+07
6.3174e+06
4.96431e+06
4.32446e+06
4.09098e+06
3.91552e+06
3.61649e+06
3.15632e+06
2.66108e+06
2.2159e+06
2.05053e+06
2.31507e+06
2.83832e+06
3.28971e+06
3.61709e+06
3.81887e+06
3.98354e+06
4.25158e+06
4.91672e+06
6.39702e+06
1.16098e+07
7.09198e+07
4.33579e+07
3.90463e+07
6.01937e+07
1.01638e+07
6.18143e+06
4.78617e+06
4.03509e+06
3.76052e+06
3.55921e+06
3.2697e+06
2.85827e+06
2.42586e+06
2.03273e+06
1.88436e+06
2.1184e+06
2.57785e+06
2.97553e+06
3.27848e+06
3.48061e+06
3.65795e+06
3.95738e+06
4.72903e+06
6.26148e+06
1.06679e+07
6.31622e+07
4.06634e+07
3.6946e+07
5.60142e+07
9.45543e+06
6.03793e+06
4.65933e+06
3.82268e+06
3.47011e+06
3.25045e+06
2.97179e+06
2.60562e+06
2.22507e+06
1.87156e+06
1.73909e+06
1.94559e+06
2.35783e+06
2.71001e+06
2.98403e+06
3.1886e+06
3.37452e+06
3.74368e+06
4.61874e+06
6.12096e+06
9.7932e+06
5.75794e+07
3.84625e+07
3.46393e+07
5.10324e+07
8.67563e+06
5.75644e+06
4.59851e+06
3.66522e+06
3.226e+06
2.98195e+06
2.70787e+06
2.37749e+06
2.04203e+06
1.72941e+06
1.61231e+06
1.79885e+06
2.16818e+06
2.48082e+06
2.73347e+06
2.93806e+06
3.13851e+06
3.58289e+06
4.57707e+06
5.87097e+06
9.00023e+06
5.35505e+07
3.63792e+07
3.2776e+07
4.74784e+07
7.98505e+06
5.44788e+06
4.59709e+06
3.55684e+06
3.03512e+06
2.75544e+06
2.48536e+06
2.18646e+06
1.88831e+06
1.60511e+06
1.49962e+06
1.66452e+06
1.99914e+06
2.27787e+06
2.51024e+06
2.72282e+06
2.95539e+06
3.47623e+06
4.55829e+06
5.52214e+06
8.27104e+06
4.95494e+07
3.42576e+07
3.12616e+07
4.45627e+07
7.56922e+06
5.15025e+06
4.67295e+06
3.49458e+06
2.89179e+06
2.57197e+06
2.29599e+06
2.01892e+06
1.75086e+06
1.49509e+06
1.39998e+06
1.54706e+06
1.84748e+06
2.10037e+06
2.32146e+06
2.54527e+06
2.82236e+06
3.41399e+06
4.69267e+06
5.21001e+06
7.66424e+06
4.63771e+07
3.24573e+07
2.98044e+07
4.17905e+07
7.03947e+06
4.79677e+06
4.5827e+06
3.47728e+06
2.77809e+06
2.43179e+06
2.13452e+06
1.87083e+06
1.62773e+06
1.3951e+06
1.31034e+06
1.44356e+06
1.72022e+06
1.94993e+06
2.16396e+06
2.40841e+06
2.7152e+06
3.42044e+06
4.68367e+06
4.92588e+06
7.6887e+06
4.3505e+07
3.09679e+07
2.8596e+07
3.9372e+07
6.68914e+06
4.45501e+06
4.3535e+06
3.55651e+06
2.70407e+06
2.32314e+06
2.00613e+06
1.74505e+06
1.52007e+06
1.30715e+06
1.23016e+06
1.34982e+06
1.60153e+06
1.81512e+06
2.03065e+06
2.30317e+06
2.64194e+06
3.48025e+06
4.45559e+06
4.56318e+06
7.184e+06
4.09329e+07
2.96119e+07
2.76037e+07
3.70004e+07
6.87479e+06
4.16372e+06
4.07787e+06
3.71043e+06
2.68778e+06
2.23158e+06
1.90893e+06
1.64191e+06
1.42714e+06
1.22801e+06
1.15764e+06
1.26587e+06
1.49795e+06
1.70099e+06
1.92726e+06
2.21966e+06
2.63459e+06
3.68652e+06
4.17679e+06
4.23895e+06
6.97604e+06
3.85379e+07
2.85206e+07
2.66281e+07
3.50083e+07
6.46875e+06
3.87597e+06
3.78193e+06
3.70433e+06
2.76504e+06
2.16915e+06
1.82741e+06
1.55831e+06
1.34532e+06
1.15779e+06
1.09333e+06
1.19303e+06
1.4128e+06
1.61129e+06
1.84588e+06
2.16295e+06
2.74395e+06
3.72943e+06
3.87872e+06
3.99849e+06
7.09637e+06
3.63436e+07
2.76416e+07
2.57701e+07
3.29803e+07
6.56199e+06
3.67129e+06
3.49886e+06
3.49224e+06
2.99198e+06
2.16594e+06
1.76595e+06
1.49602e+06
1.28247e+06
1.09958e+06
1.03733e+06
1.13086e+06
1.34222e+06
1.5424e+06
1.77934e+06
2.15607e+06
2.96169e+06
3.5252e+06
3.58462e+06
3.74801e+06
6.86405e+06
3.43809e+07
2.67991e+07
2.49482e+07
3.11576e+07
6.71776e+06
3.53454e+06
3.25495e+06
3.26654e+06
3.05731e+06
2.29621e+06
1.72469e+06
1.44099e+06
1.23391e+06
1.05437e+06
987912
1.08157e+06
1.28775e+06
1.48502e+06
1.73161e+06
2.27568e+06
3.06304e+06
3.2961e+06
3.3237e+06
3.55932e+06
6.72267e+06
3.25629e+07
2.59458e+07
2.37872e+07
2.93056e+07
6.54033e+06
3.38687e+06
3.04455e+06
3.03528e+06
2.89845e+06
2.52074e+06
1.74869e+06
1.39529e+06
1.19165e+06
1.01844e+06
950221
1.04389e+06
1.24327e+06
1.43913e+06
1.75433e+06
2.52063e+06
2.92504e+06
3.05853e+06
3.10566e+06
3.45298e+06
6.82484e+06
3.05089e+07
2.47489e+07
2.23915e+07
2.72538e+07
6.43451e+06
3.28854e+06
2.86497e+06
2.81214e+06
2.7288e+06
2.63161e+06
1.89244e+06
1.37384e+06
1.15776e+06
987729
922236
1.01145e+06
1.20523e+06
1.41206e+06
1.88309e+06
2.66661e+06
2.75531e+06
2.82683e+06
2.9126e+06
3.33669e+06
6.59952e+06
2.8356e+07
2.32839e+07
1.94207e+07
2.42167e+07
6.27157e+06
3.20555e+06
2.71351e+06
2.62145e+06
2.55747e+06
2.51691e+06
2.14575e+06
1.43496e+06
1.13716e+06
961427
896860
983435
1.17843e+06
1.45676e+06
2.13804e+06
2.56897e+06
2.58293e+06
2.63355e+06
2.74875e+06
3.22651e+06
6.32012e+06
2.52119e+07
2.02234e+07
8.70633e+06
5.00909e+06
3.51969e+06
2.4873e+06
1.77128e+06
1.36817e+06
1.12667e+06
956825
804898
647898
491625
359102
260708
195790
154282
128335
112347
102069
94965.6
89853.7
85622
82062
78770.1
74419.4
69672.5
64888.6
60617.8
58040.5
62597.7
117094
9.62902e+06
5.34961e+06
3.71649e+06
2.59461e+06
1.82515e+06
1.40088e+06
1.14944e+06
976997
829641
681124
530870
396034
289563
216181
168326
137156
118140
105779
97305.8
91276.3
86725.3
82821.9
78605.8
73902.1
68960.5
64147.2
60177.8
58027.9
63043.2
117153
9.83832e+06
5.49842e+06
3.88488e+06
2.69611e+06
1.88689e+06
1.44449e+06
1.18403e+06
1.00673e+06
858972
714918
566075
429381
317554
236139
180893
145221
123137
108823
99091.1
92211.5
86921
81815.6
76986.6
72208.6
67443.5
62910.3
59238.4
57592
63596.6
117577
1.03675e+07
5.88924e+06
4.17616e+06
2.8661e+06
1.992e+06
1.51487e+06
1.23842e+06
1.05398e+06
904592
763619
614197
474864
355538
263427
199170
157496
131297
114139
102209
93872.8
86903.1
81307.8
76254.1
71167.2
66281.4
61976.5
58579.5
57298.4
63860.7
118247
1.10345e+07
6.34417e+06
4.53087e+06
3.0875e+06
2.13149e+06
1.61041e+06
1.31403e+06
1.11957e+06
965649
821818
671663
529150
399894
296332
222325
173680
141819
119790
104910
94520.2
86513.8
80718
75397.6
70117.1
65359.4
61223.8
57986.8
56908.9
63928.8
118361
1.17491e+07
6.85084e+06
4.92058e+06
3.34436e+06
2.2995e+06
1.72781e+06
1.40945e+06
1.20142e+06
1.04108e+06
891632
740322
592115
454605
339935
254235
194538
154653
127457
108956
95998.8
86976.7
80723
74722.3
69480.6
64787.2
60743.4
57678.5
56856.7
64297.9
118602
1.25297e+07
7.36755e+06
5.34219e+06
3.63733e+06
2.49566e+06
1.8697e+06
1.52226e+06
1.30033e+06
1.13333e+06
978753
822629
667438
521747
392935
292497
220185
170820
136923
113952
98292.5
88065.4
80384.8
74183.7
68976.4
64417.4
60493.2
57559.2
56937.4
64781
119012
1.32801e+07
7.91311e+06
5.80429e+06
3.98272e+06
2.72538e+06
2.03603e+06
1.65757e+06
1.41864e+06
1.24157e+06
1.08027e+06
919081
756968
600210
458193
341778
254532
193168
150470
121408
102324
89968
80543.2
73948.5
68808.6
64121.4
60171.8
57358.2
57023.6
65631.2
119670
1.40396e+07
8.48149e+06
6.32304e+06
4.37626e+06
3.00182e+06
2.23634e+06
1.82074e+06
1.55933e+06
1.3687e+06
1.19921e+06
1.03282e+06
863042
695398
539294
405169
300233
223322
169056
132084
108224
92374.5
81281.1
74203
68487.3
63755.6
59827.6
57182
57144.8
66267
120331
1.47433e+07
9.08928e+06
6.89406e+06
4.83171e+06
3.33688e+06
2.4814e+06
2.01812e+06
1.72762e+06
1.51839e+06
1.33751e+06
1.16356e+06
985339
808452
638257
485514
359659
263599
194386
147226
116606
96113.5
83082.6
74682.1
68377.2
63507.2
59536.9
57029.1
57285.5
66971.5
121157
1.54818e+07
9.7093e+06
7.51545e+06
5.35354e+06
3.73867e+06
2.78158e+06
2.25753e+06
1.92962e+06
1.695e+06
1.49774e+06
1.30996e+06
1.12383e+06
938569
755272
583392
434563
315854
228071
167615
127957
101947
85945.3
75487.9
68557.6
63199.8
59181.4
56817
57413.9
67755.6
121996
1.62394e+07
1.03669e+07
8.19559e+06
5.94122e+06
4.21087e+06
3.14578e+06
2.54897e+06
2.17272e+06
1.90288e+06
1.67966e+06
1.47227e+06
1.27643e+06
1.08293e+06
887339
698002
525947
382264
272542
195235
143828
110718
90226.7
77173.5
68954.4
62941.7
58848
56591.5
57539.8
68510.5
122751
1.71433e+07
1.10649e+07
8.92324e+06
6.59494e+06
4.75131e+06
3.57865e+06
2.90369e+06
2.46468e+06
2.14203e+06
1.88129e+06
1.65486e+06
1.44562e+06
1.24025e+06
1.03136e+06
826387
633367
465062
330481
233057
166487
123555
96492.6
79912.1
69643.7
62913.7
58580.7
56352
57618.3
69146.1
122719
1.80001e+07
1.18106e+07
9.6834e+06
7.30957e+06
5.36482e+06
4.09207e+06
3.32779e+06
2.80555e+06
2.41318e+06
2.10838e+06
1.85937e+06
1.63201e+06
1.41133e+06
1.1883e+06
967380
756702
566022
405521
283309
197423
140995
105270
83739.3
70986.1
63305.6
58420.6
56160.3
57729.1
69651.1
123899
1.87871e+07
1.25744e+07
1.04593e+07
8.08049e+06
6.06432e+06
4.69805e+06
3.83064e+06
3.20221e+06
2.72527e+06
2.37265e+06
2.08928e+06
1.83635e+06
1.59527e+06
1.35724e+06
1.12155e+06
894653
684084
497583
347278
237388
163773
117145
89116.1
73122.8
64086.4
58448.1
56083.2
57875.7
70046.3
125097
1.94679e+07
1.33029e+07
1.12502e+07
8.90392e+06
6.86106e+06
5.40468e+06
4.42017e+06
3.6653e+06
3.09362e+06
2.6812e+06
2.35046e+06
2.06324e+06
1.79672e+06
1.54134e+06
1.29118e+06
1.04894e+06
818096
605648
425461
287969
193987
133073
96775.6
76436.4
65100.5
58713.5
56111.4
58015.4
70571.4
126453
2.01939e+07
1.39495e+07
1.20439e+07
9.76144e+06
7.75306e+06
6.22346e+06
5.10503e+06
4.20801e+06
3.53476e+06
3.04288e+06
2.65127e+06
2.31898e+06
2.02022e+06
1.74297e+06
1.47788e+06
1.22044e+06
969838
731556
521310
353197
234196
154865
107716
81123.9
66748.8
59208.7
56217
58181.4
71249.7
128102
2.09107e+07
1.45303e+07
1.28406e+07
1.06512e+07
8.73224e+06
7.16229e+06
5.90326e+06
4.85597e+06
4.06333e+06
3.47411e+06
3.00359e+06
2.61051e+06
2.26975e+06
1.96453e+06
1.67979e+06
1.40593e+06
1.13768e+06
874777
637121
437343
287195
184816
122985
87916.5
69370.6
60101.6
56477.4
58403.8
71848.1
129559
2.14338e+07
1.49561e+07
1.35428e+07
1.15649e+07
9.78457e+06
8.23218e+06
6.83964e+06
5.63677e+06
4.70896e+06
3.9983e+06
3.42153e+06
2.94696e+06
2.55217e+06
2.21045e+06
1.89872e+06
1.60466e+06
1.31908e+06
1.03448e+06
772671
541534
356389
225388
144238
97722.1
73293.2
61522.4
56921.5
58696.8
72805.2
131494
2.17482e+07
1.5379e+07
1.41077e+07
1.2464e+07
1.08986e+07
9.44657e+06
7.94491e+06
6.58644e+06
5.50148e+06
4.63948e+06
3.92833e+06
3.34745e+06
2.88141e+06
2.48955e+06
2.14259e+06
1.82156e+06
1.51385e+06
1.21166e+06
924514
664530
443570
278834
173043
111427
78825.8
63602.4
57645.7
59277.6
73725.3
133742
2.21432e+07
1.55553e+07
1.44567e+07
1.32834e+07
1.20909e+07
1.08245e+07
9.25864e+06
7.74423e+06
6.47913e+06
5.42729e+06
4.55115e+06
3.8409e+06
3.27657e+06
2.81511e+06
2.41943e+06
2.06077e+06
1.72588e+06
1.40455e+06
1.09035e+06
804695
549956
347688
211018
129740
86476.9
66515.7
58663.7
59966.8
74603.2
136040
2.2275e+07
1.57462e+07
1.46047e+07
1.40021e+07
1.33861e+07
1.24026e+07
1.08305e+07
9.17116e+06
7.68555e+06
6.40369e+06
5.32677e+06
4.45534e+06
3.76183e+06
3.20485e+06
2.73956e+06
2.33017e+06
1.9588e+06
1.61123e+06
1.27244e+06
959811
674076
432881
260074
153624
96489.5
69938.7
59833.7
60353.3
75007.1
137936
2.25563e+07
1.56442e+07
1.45844e+07
1.46225e+07
1.48e+07
1.42435e+07
1.27468e+07
1.09166e+07
9.17192e+06
7.61898e+06
6.30259e+06
5.22379e+06
4.36068e+06
3.67701e+06
3.11478e+06
2.63699e+06
2.21578e+06
1.83486e+06
1.4698e+06
1.1248e+06
808829
531325
321167
184558
109399
73900.7
60669.8
60241.3
74645.8
139331
2.20321e+07
1.60517e+07
1.49377e+07
1.55448e+07
1.65545e+07
1.64819e+07
1.50883e+07
1.30656e+07
1.10209e+07
9.14216e+06
7.52487e+06
6.17932e+06
5.09786e+06
4.24607e+06
3.55927e+06
2.98682e+06
2.50012e+06
2.07688e+06
1.6786e+06
1.30099e+06
954680
645146
396518
225435
126912
79692.3
62017.8
60318.1
74115.5
140924
2.04217e+07
2.06038e+07
1.77419e+07
1.76984e+07
1.90453e+07
1.9321e+07
1.79782e+07
1.57268e+07
1.33315e+07
1.10503e+07
9.04718e+06
7.35735e+06
5.99693e+06
4.92638e+06
4.08305e+06
3.3879e+06
2.81814e+06
2.33463e+06
1.8998e+06
1.49363e+06
1.1191e+06
779307
490108
279600
151647
88501.2
64584.7
60696.7
73922.2
142173
115959
62209.2
57703.3
60305.3
64499.2
69479.9
74010.1
77753.4
81172.4
84849
88982.4
93984.5
100945
111250
127324
153601
196001
262979
364252
500632
658479
815269
966487
1.1387e+06
1.39183e+06
1.81781e+06
2.56829e+06
3.64113e+06
5.15439e+06
8.93192e+06
115970
62576.3
57493.2
59830.9
63830.9
68872.1
73806.9
78172.2
81636
85601.1
90291
96238.8
104510
116720
135517
166051
214309
288317
395923
532422
683981
833388
980712
1.15621e+06
1.42005e+06
1.86802e+06
2.67238e+06
3.8371e+06
5.49195e+06
9.87103e+06
116443
62926.2
57197.2
59054.7
62751
67387.5
72310
77053.9
81662.2
85807
90871.4
97676.2
107391
121759
143537
178164
232335
314309
425960
562810
714549
859827
1.00685e+06
1.18713e+06
1.45985e+06
1.92671e+06
2.77193e+06
4.00419e+06
5.63988e+06
1.00803e+07
117160
63435.4
57074
58497
62071.3
66695.3
71537
76491.3
81605
86971.6
92478.9
100335
111978
129239
155323
195723
257903
350335
468839
606125
753333
901353
1.05418e+06
1.23878e+06
1.52635e+06
2.02934e+06
2.94132e+06
4.29601e+06
6.02948e+06
1.06062e+07
117274
63767.1
56936.1
58042.2
61472.1
65809.9
70805.8
75879.4
81236.7
87242.6
94856.4
104062
118167
138949
170497
218907
290986
391845
517940
657936
804475
950848
1.11261e+06
1.31712e+06
1.61851e+06
2.16611e+06
3.16508e+06
4.65553e+06
6.48612e+06
1.12719e+07
117817
64399.8
57060.3
57960.1
61084.6
65275
70152.5
75409
81007.5
87914.7
96981.8
109193
126742
152593
190986
248733
332188
444090
576788
721744
869045
1.01658e+06
1.18279e+06
1.40178e+06
1.73553e+06
2.33042e+06
3.42346e+06
5.05051e+06
6.99186e+06
1.19897e+07
118343
65040.4
57241.3
57897.4
60948.7
64940.4
69590.3
74974.8
80999.1
88705.8
99323
114496
136116
168222
215609
284469
381733
506514
648038
799407
953075
1.10102e+06
1.27054e+06
1.50351e+06
1.87268e+06
2.52763e+06
3.71938e+06
5.47609e+06
7.50715e+06
1.27657e+07
119091
65776.6
57487.2
57888.1
60816.6
64834.8
69294.9
74683.6
81527
90300
103024
121794
149075
189459
248234
330916
443101
582075
735840
891664
1.04905e+06
1.21023e+06
1.38605e+06
1.62864e+06
2.02785e+06
2.75776e+06
4.06981e+06
5.94849e+06
8.05551e+06
1.35166e+07
119822
66447.1
57624.5
57727.8
60511.4
64475.5
69127.9
74587
82122.7
92693.8
107986
131718
166535
217981
291427
391427
520794
672957
836833
1.0034e+06
1.16531e+06
1.33364e+06
1.52866e+06
1.79257e+06
2.21963e+06
3.03141e+06
4.47332e+06
6.47451e+06
8.62605e+06
1.42745e+07
120695
67106.1
57740.6
57424.3
60175.9
64187.7
69086.3
75015
83458.3
96319.4
115503
145461
190265
255993
347835
468630
616707
782639
955391
1.13214e+06
1.30454e+06
1.48427e+06
1.69321e+06
1.98753e+06
2.45972e+06
3.36294e+06
4.93899e+06
7.06317e+06
9.23752e+06
1.49764e+07
121510
67605
57567.1
57238.2
59753.6
63883.7
69080.2
75987.1
85904.6
101770
126271
164318
222005
305581
419171
563061
730707
910260
1.09131e+06
1.27815e+06
1.46439e+06
1.66137e+06
1.8947e+06
2.22329e+06
2.75408e+06
3.76016e+06
5.46763e+06
7.69899e+06
9.86287e+06
1.57196e+07
121683
67908.3
57606.5
57045
59354
63625.3
69423.8
77633.7
90052.3
110034
141661
190390
264112
369204
507259
674326
860580
1.05369e+06
1.24448e+06
1.44057e+06
1.64526e+06
1.86902e+06
2.13546e+06
2.51082e+06
3.11426e+06
4.22512e+06
6.05826e+06
8.38699e+06
1.05276e+07
1.64848e+07
122227
68629.5
57726.6
56825.8
59093.3
63579
70249.8
80176.5
96090.1
122123
162944
226429
320046
449701
612974
801619
1.00445e+06
1.21262e+06
1.41592e+06
1.62431e+06
1.84805e+06
2.10856e+06
2.42423e+06
2.86139e+06
3.54676e+06
4.76224e+06
6.71847e+06
9.12779e+06
1.12393e+07
1.73853e+07
123027
69170.6
57831.4
56628.2
59006.6
63906.9
71702.3
83994.2
104561
138737
192556
274972
392989
549333
736601
944060
1.16208e+06
1.3859e+06
1.60542e+06
1.83261e+06
2.08113e+06
2.38273e+06
2.76271e+06
3.28004e+06
4.05598e+06
5.37747e+06
7.44124e+06
9.90586e+06
1.19956e+07
1.82436e+07
123586
69650.6
57874.1
56343.1
59018.7
64599.2
73777.3
89231.2
115988
160934
231425
337707
484116
667799
875943
1.10121e+06
1.33435e+06
1.57252e+06
1.81238e+06
2.06535e+06
2.34798e+06
2.69886e+06
3.15703e+06
3.77583e+06
4.6548e+06
6.08265e+06
8.22201e+06
1.06909e+07
1.27653e+07
1.90408e+07
125100
70421.1
58121.9
56521.9
59207.3
65664.5
76718.5
96524
131238
190086
281597
415613
592791
802890
1.03139e+06
1.27311e+06
1.52196e+06
1.77625e+06
2.04058e+06
2.32649e+06
2.65372e+06
3.0612e+06
3.61424e+06
4.36193e+06
5.36433e+06
6.88512e+06
9.05522e+06
1.14872e+07
1.35115e+07
1.97264e+07
126898
71289.1
58522.9
56776.5
59631.7
67199
80950.3
106601
151766
228131
345801
511191
719660
955474
1.20419e+06
1.46179e+06
1.7262e+06
2.00051e+06
2.29555e+06
2.62528e+06
3.01143e+06
3.49584e+06
4.15293e+06
5.04626e+06
6.18572e+06
7.78289e+06
9.92251e+06
1.22895e+07
1.41794e+07
2.04668e+07
129032
72242.4
58960.3
57088.6
60493.7
69459.4
86999.1
120541
179870
278532
427339
625845
864309
1.12512e+06
1.39287e+06
1.66583e+06
1.94856e+06
2.24895e+06
2.58386e+06
2.97274e+06
3.43725e+06
4.01954e+06
4.79578e+06
5.84107e+06
7.12476e+06
8.76819e+06
1.082e+07
1.30943e+07
1.47863e+07
2.12112e+07
131174
73301
59461.9
57572.8
61721.7
72749.2
95508.1
139464
217131
343714
526450
758239
1.02355e+06
1.30674e+06
1.59379e+06
1.88527e+06
2.19218e+06
2.52804e+06
2.91459e+06
3.38098e+06
3.95149e+06
4.65551e+06
5.56911e+06
6.77275e+06
8.19688e+06
9.82811e+06
1.17409e+07
1.38172e+07
1.52304e+07
2.17498e+07
132635
74109.1
59891.1
58217.5
63476
77351.5
107199
164985
266117
425929
643760
905539
1.19616e+06
1.49994e+06
1.8093e+06
2.12659e+06
2.46602e+06
2.85074e+06
3.30643e+06
3.87533e+06
4.57857e+06
5.43476e+06
6.50794e+06
7.87303e+06
9.41355e+06
1.09534e+07
1.26491e+07
1.44044e+07
1.56706e+07
2.21e+07
134329
74384.9
60146.7
59013.5
65754.2
83669.4
123200
198848
328871
525617
778272
1.06577e+06
1.37965e+06
1.70559e+06
2.04136e+06
2.39746e+06
2.78453e+06
3.23648e+06
3.78766e+06
4.48169e+06
5.34618e+06
6.39382e+06
7.65035e+06
9.17837e+06
1.07942e+07
1.21512e+07
1.34768e+07
1.47706e+07
1.58649e+07
2.25259e+07
135776
74261.6
60109.2
59742.5
68520.7
92004.1
143979
242259
405804
640131
924985
1.23822e+06
1.57573e+06
1.92793e+06
2.29935e+06
2.70706e+06
3.16587e+06
3.71048e+06
4.39183e+06
5.23958e+06
6.29696e+06
7.57349e+06
9.05827e+06
1.07373e+07
1.23768e+07
1.34594e+07
1.42051e+07
1.49334e+07
1.60792e+07
2.26914e+07
137576
74433.4
60381.7
60630.8
72012.2
102777
170351
296139
494759
764587
1.07858e+06
1.42143e+06
1.78434e+06
2.17027e+06
2.59061e+06
3.06694e+06
3.62848e+06
4.29981e+06
5.1449e+06
6.19824e+06
7.48414e+06
9.02835e+06
1.07792e+07
1.26327e+07
1.42279e+07
1.4897e+07
1.48589e+07
1.49227e+07
1.59964e+07
2.30299e+07
139184
74686.2
60793.8
62266.8
77042.3
117317
205133
362627
598144
899245
1.23869e+06
1.6132e+06
2.00742e+06
2.43695e+06
2.92348e+06
3.49276e+06
4.18529e+06
5.02546e+06
6.08715e+06
7.39952e+06
8.9744e+06
1.08398e+07
1.28982e+07
1.49521e+07
1.6467e+07
1.66806e+07
1.58138e+07
1.52744e+07
1.642e+07
2.25504e+07
140523
74738.6
61355.8
64566.6
84264
137436
250863
444693
718709
1.04941e+06
1.41496e+06
1.81782e+06
2.252e+06
2.73953e+06
3.31164e+06
4.00265e+06
4.85638e+06
5.91256e+06
7.25136e+06
8.89835e+06
1.08463e+07
1.31079e+07
1.55277e+07
1.78209e+07
1.93001e+07
1.92203e+07
1.80139e+07
1.80905e+07
2.10134e+07
2.09614e+07
2.50375e+07
2.61032e+07
2.77483e+07
3.00622e+07
3.28045e+07
3.59501e+07
3.9467e+07
4.32804e+07