/*--------------------------------*- C++ -*----------------------------------*\
| =========                 |                                                 |
| \\      /  F ield         | OpenFOAM: The Open Source CFD Toolbox           |
|  \\    /   O peration     | Version:  2112                                  |
|   \\  /    A nd           | Website:  www.openfoam.com                      |
|    \\/     M anipulation  |                                                 |
\*---------------------------------------------------------------------------*/
FoamFile
{
    version     2.0;
    format      ascii;
    arch        "LSB;label=32;scalar=64";
    class       volScalarField;
    location    "0.00948";
    object      k;
}
// * * * * * * * * * * * * * * * * * * * * * * * * * * * * * * * * * * * * * //

dimensions      [0 2 -2 0 0 0 0];

internalField   nonuniform List<scalar> 
13875
(
812.095
3462.61
3540.37
3538.64
3541.66
3540.37
3541.85
3541.12
3540.03
3540.72
3542.14
3541.39
3540.55
3540.13
3540.44
3541.2
3541.91
3541.15
3540.76
3540.23
3541.14
3539
3539.93
3460.18
820.639
881.793
2936.61
3013.04
3000.17
3001.45
2998.07
2998.5
2998.41
2997.35
2996.19
2996.76
2998.41
2996.35
2996.34
2996.19
2998.51
2996.24
2997.1
2996.97
2998.59
3000.43
2999.29
3011.52
2933.96
894.658
993.36
2710.84
2777.5
2755.09
2759.23
2754.62
2747.62
2745.28
2743.75
2742.62
2742
2743.96
2751.21
2752.13
2750.89
2744.66
2741.21
2742.7
2745.31
2755.08
2757.65
2753.16
2774.38
2707.1
998.437
1091.06
2533.67
2581.04
2561.38
2567.17
2562.34
2553.6
2550
2548.46
2548.17
2547.09
2547.79
2559.06
2559.99
2558.85
2548.68
2547.32
2547.55
2551.16
2562.91
2565.48
2559.39
2579.02
2530.14
1093.88
1172.1
2380.45
2413.22
2392.87
2398.47
2393.75
2384.22
2380.74
2380.12
2380.05
2378.79
2378.84
2390.07
2391.39
2389.9
2379.76
2379.18
2379.03
2382.35
2393.9
2396.77
2391.15
2410.39
2375.98
1177.2
1240.99
2237.11
2270.98
2245
2251.67
2245.56
2234.32
2231.16
2231.13
2231.29
2229.82
2229.31
2240.61
2242.3
2240.52
2230.2
2230.47
2229.9
2233.09
2245.69
2249.95
2243.72
2267.85
2247.38
1246.91
1320.95
2121.79
2158.36
2120.46
2123.48
2115.56
2102
2098.44
2098.82
2099.09
2097.52
2096.43
2107.84
2109.7
2107.57
2097.23
2098.53
2097.66
2101.55
2115.5
2121.68
2119.74
2154.07
2095.56
1323
1409.73
2000.69
2073.57
2019.76
2016.53
2002.66
1985.58
1981.05
1981.39
1981.59
1980.04
1978.05
1989.66
1991.9
1989.46
1978.8
1981.39
1980.5
1985.44
2002.18
2013.96
2017.98
2068.36
1992.66
1420.05
1691.38
2029.36
2021.94
1944.42
1925.05
1904.94
1883.44
1877.4
1877.81
1877.88
1876.48
1873.56
1885.3
1887.99
1885.39
1874.58
1878.04
1877.14
1883.35
1903.87
1922.4
1942.2
2017.9
2033.51
1716.72
2509.04
2285.37
2018.08
1901.14
1858.87
1826.22
1801.79
1795.25
1794.8
1794.22
1793.01
1789.57
1800.83
1803.97
1801.46
1791.85
1794.86
1795.02
1801.33
1824.72
1855.62
1891.54
2011.5
2266.28
2529.91
3876.79
3026.33
2153.58
1915.75
1814.8
1772.07
1744.42
1734.99
1732.6
1730.81
1729.6
1725.9
1736.11
1739.59
1738.02
1730.96
1733.13
1735.04
1744.96
1768.22
1813.29
1907.2
2129.62
2936.62
3858.92
5185.76
6453.66
2852.7
1994.23
1853.86
1756.21
1712.2
1697.31
1691.29
1688.01
1686.34
1682.91
1691.13
1694.8
1694.75
1690.75
1692.84
1697.83
1712.25
1757.78
1847.09
1973.99
2789.53
6314.93
5120.52
5056.73
7623.66
7048.57
3337.21
2042.42
1796.02
1741.82
1702.25
1686.17
1678.41
1674.64
1670.98
1676.72
1680.34
1682.4
1682.92
1689.92
1706.51
1746.43
1804.07
2089.03
3232.27
6763.16
7644.76
5009.77
4826.31
6358.03
7173.4
8740.93
5169.39
2332.34
1901.01
1783.94
1748.82
1743.89
1740.75
1737.62
1742.3
1745.54
1748.72
1752.09
1757.83
1792.25
1941.06
2483.31
5618.01
8153.43
6954.95
6328.78
4832.69
4602.98
5511.63
6040.5
6993.04
6827.47
6732.68
3441.76
2379.88
2132.25
2036.92
1996.33
1981.39
1981.78
1986.19
1997.63
2029.48
2119.4
2386.89
3631.2
6897.12
6816.54
6704.75
5964.69
5485.59
4681.2
4292.91
4798.16
5114.9
5882.7
6060.98
6569.22
5576.69
5161.26
4848.02
4194.58
4268.74
4320.56
4363.06
4349.06
4286.42
4184.44
4745.12
5442.23
5662.08
6633.73
5996.54
5706.57
5070.59
4777.3
4365.19
3727.8
4039.84
4337.99
5067.25
5579.14
6482.39
7297.56
7557.65
6694.01
6252.65
6505.89
6737.52
6870.55
6817.04
6570.32
6545.75
6706.54
7549.84
7338.2
6456.71
5430.29
4899.18
4224.15
3959.71
3719.3
3064.19
3408.04
3952.27
4858.8
5495.7
6087.93
7063.37
7772.58
6526.85
5482.5
5209.07
5233.31
5302.11
5267.58
5266.77
5785.31
6519.58
7423.52
7020.93
6206.21
5530.69
4802.9
3859.93
3345.36
3026.88
2642.26
3172.82
3860.94
5064.34
5966.35
5767.39
6061.01
6765.53
6130.94
5179.49
4687.16
4541.81
4533.3
4586.85
4783.21
5320.08
5964.99
6450.12
6057.14
5958.68
6250.21
5087.54
3840.9
3154
2644.14
2528.82
3413.86
4090.8
5196.26
5761.8
5299.03
5236.93
5719.4
5567.69
4952.81
4416.19
4086.07
3974.75
4160.04
4550.04
5030.4
5361.03
5468.68
5259.63
5490.68
5955.35
5172.07
4094.47
3428.73
2520.75
5100.99
7709.18
6243.67
4834.55
5000.41
4645.32
4566.05
4967.95
5032.27
4622.97
4082.65
3653.48
3500.9
3763.24
4244.71
4675.62
4828.39
4769.89
4602.33
4813.56
5149.93
4957.39
6673.3
8182.36
5950.91
11565.7
23233.7
7867.28
4243.07
4304.24
4083.14
4040.59
4395.64
4537.71
4242.54
3726.62
3260.51
3090.25
3378.4
3884.51
4272.5
4342.23
4239.71
4069.57
4217.83
4413.39
4375.12
8379.21
23287.9
12720.7
13729.5
19515.8
6916.27
3780.72
3764.15
3628.39
3602.77
3927.73
4087.18
3852.8
3367.97
2910.18
2734.93
3010.49
3503.52
3868.25
3901.46
3796.34
3621.91
3722.61
3841.33
3889.76
6948.71
18997.4
13573
13029.1
19606.4
5842.71
3431.5
3328.5
3237.23
3230.79
3517.72
3677.34
3475.09
3019.65
2591.32
2433.81
2691.59
3156.94
3498.89
3509.34
3400.21
3251.08
3317.38
3403.89
3542.58
5977.32
20127.9
12978.2
12684
19221.9
5192.9
3160.62
2998.81
2915.83
2926.66
3169.34
3314.84
3134.31
2716.58
2322.94
2180.45
2415.53
2848.62
3163.54
3166.92
3061.23
2937.9
2983.01
3075.86
3270.36
5391.95
20265.8
12768.4
12445.9
19227.4
4729.6
2916.54
2736.35
2647.16
2673.93
2872.37
2995.12
2832.88
2456.03
2095.64
1965.49
2176.06
2570.95
2858.5
2864.83
2769.24
2667.4
2692.83
2805.25
3006.13
4892.65
20043.3
12712.7
12512.3
17790
4248.42
2695.56
2524.32
2424.16
2457.18
2614.7
2707.42
2553.69
2218.69
1899.15
1783.58
1976.38
2334.75
2593.11
2606.88
2524.08
2440.57
2458.9
2592.99
2787.44
4463.24
18870
12681.6
12345.8
16892.1
3924.11
2516.47
2351.21
2242.57
2272.47
2395.62
2462.37
2318.52
2020.33
1733.24
1628.01
1801.03
2122.56
2356.43
2380
2313.11
2247.39
2266.2
2406.81
2593.35
4136.81
18145.3
12541.6
12015.6
16498.4
3696.98
2362.94
2202.94
2097.26
2113.41
2205.44
2249.04
2112.39
1848.72
1591.5
1494.16
1648.86
1933.35
2142.23
2178.83
2129.51
2080.6
2104.35
2242.27
2424.88
3827.08
16705
12460.4
11771.2
15420.9
3500.03
2232.55
2065.38
1970.85
1978.05
2037.66
2055.75
1924.57
1691.65
1464.95
1378.51
1521.04
1778.41
1965.65
2007.48
1973.01
1941.65
1970.49
2096.52
2287.87
3643.06
16047.6
12172.6
11397.7
14141.2
3340.48
2129.83
1944.04
1858.27
1859.74
1893.64
1892.32
1766.37
1560.61
1357.67
1277.96
1406.96
1635.74
1802.71
1854.03
1836.44
1822.23
1851.39
1962.58
2171.45
3447.11
14677.8
11877.1
11073.6
13366.1
3223.09
2053.1
1836.44
1755.02
1753.88
1769.21
1752.1
1632.21
1447.79
1263.79
1190.64
1306.36
1512.79
1664.83
1721.06
1717.58
1715.62
1743.04
1845.15
2082.16
3288.65
13580.7
11528.1
10800.2
12165
3094.74
1993.45
1744.05
1664.2
1654.9
1656.59
1623.47
1508.16
1344.21
1180.25
1114.11
1221.42
1408.28
1545.1
1605.05
1613.95
1618.39
1648.51
1747.81
2014.55
3187.81
12813.5
11162.3
10493.5
11255.9
2977.45
1951.76
1669.62
1583.33
1562.84
1557.51
1514.06
1404.53
1256.88
1107.32
1046.78
1143.28
1313.53
1438.92
1500.88
1520.67
1528.53
1563.69
1667.01
1962.68
3092.84
11786.2
10843.2
10206.2
10598.8
2852.15
1915.49
1619.7
1510.06
1480.7
1467.09
1417.36
1312.31
1179.39
1043.28
987.306
1075.34
1229.34
1344.19
1408.58
1435.12
1448.52
1492.36
1610.18
1928.09
2961.96
10920.1
10535.1
9928.69
9874.42
2726.7
1883.06
1584.86
1446.65
1405.69
1382.96
1329.32
1229.87
1108.64
984.607
934.33
1015.36
1158.48
1264.19
1327.16
1356.68
1377.3
1428.22
1574.39
1903.05
2843.55
10379.6
10246.4
9674.74
9375.82
2621.79
1877.47
1563.82
1394.47
1339.77
1307.74
1250.94
1157.54
1047.15
933.623
886.99
961.202
1091.65
1189.19
1251.57
1285.38
1312.56
1374.28
1550.62
1896.14
2713.94
9737.26
9962.01
9407.21
9123.79
2524.78
1868.47
1553.64
1358
1280.04
1239.98
1181.02
1094.11
992.997
887.245
844.446
912.13
1033.53
1123.62
1183.11
1221.38
1253.98
1336.76
1542.88
1888.15
2590.05
9347
9692.15
9116.58
8722.31
2407.72
1827.06
1557.75
1333.52
1229.21
1179.04
1116.54
1034.43
941.794
845.22
806.344
869.475
981.918
1064.98
1122.77
1164.84
1204.42
1310.6
1550.37
1854.11
2475.45
9147.16
9411.89
8846.8
8494.07
2299.92
1777.16
1575.59
1320.29
1189.82
1126.1
1060.51
983.001
897.75
807.476
771.559
829.11
934.515
1011.39
1067.3
1115.15
1166.71
1297.12
1562.43
1796.36
2364.62
8853.66
9119.69
8628.77
8313.33
2239.17
1726.25
1610.54
1318.37
1161.69
1082.67
1011.38
936.417
857.23
773.307
740.062
792.927
890.56
963.037
1019.1
1073.68
1141.06
1294.82
1611.66
1743.01
2269.94
8632.14
8846.1
8430.35
8106.8
2153.93
1659.23
1604.04
1326.73
1140.79
1050.21
968.81
894.235
819.953
741.35
711.031
760.354
853.066
921.137
978.281
1042.4
1121.7
1310.02
1628.33
1692.03
2283.16
8429.96
8630.04
8246.75
7936.94
2099.36
1590.89
1563.4
1360.27
1130.5
1025.95
934.844
857.701
786.659
712.737
684.532
730.064
816.882
882.604
943.408
1019.55
1111.66
1339.36
1589
1619.92
2204.46
8225.52
8440.02
8094.69
7764.98
2147.08
1530.57
1507.57
1414.72
1136.44
1006.1
909.863
827.481
757.485
686.386
660.044
702.287
784.703
849.727
916.904
1002.5
1120.65
1407.89
1533.65
1552.67
2180.33
8037.7
8271.3
7947.4
7614.07
2083.6
1469.02
1442.91
1426.75
1169.65
994.961
889.339
803.14
731.442
662.64
637.978
677.956
758.118
823.931
896.731
993.477
1164.05
1433.86
1469.73
1502.86
2222.7
7861.86
8132.98
7801.08
7441.86
2121.85
1425.84
1378.39
1380.74
1246.05
1002.54
874.997
785.974
711.75
643.04
618.602
656.963
736.269
804.877
880.959
1000.34
1239.01
1390.59
1403.37
1449.07
2199.37
7695.14
8000.12
7655.5
7280.72
2175.24
1398.37
1321.73
1328.57
1276.41
1052.34
867.249
770.933
697.222
628.065
601.394
640.746
719.876
789.417
871.432
1048.1
1278.96
1337.73
1342.79
1409.4
2196.21
7531.06
7852.68
7439.95
7087.47
2157.45
1367.88
1272.01
1272.19
1239.04
1131.18
881.977
759.147
684.911
616.716
588.728
628.862
707.018
777.902
886.476
1133.62
1247
1279.52
1291.33
1389.63
2240.45
7322.08
7627.34
7158.13
6835.68
2152.92
1349.08
1229.13
1215.51
1196.68
1175.52
937.365
756.333
675.656
607.39
579.983
618.901
696.297
773.327
937.889
1187.29
1205.06
1220.35
1244.67
1366.46
2210.44
7065.13
7339.34
6518.95
6372.66
2138.05
1333.04
1192.6
1166.13
1151.7
1147.58
1028.9
784.493
671.705
599.755
572.145
610.566
690.012
796.121
1030.17
1163.9
1159.95
1170.22
1204.62
1343.73
2166.8
6594.35
6691.7
6154.85
9460.32
9107.2
7550.19
5995.09
4929.33
4210.79
3661.15
3159.7
2648.14
2129.38
1672.92
1312.48
1060.25
892.042
784.332
715.652
668.941
630.901
599.678
574.885
549.525
521.132
490.814
458.167
423.99
388.449
351.287
319.472
371.05
6351.4
10017.6
9483.07
7753.7
6104.54
5006.3
4276.47
3727.02
3238.89
2750.68
2250.8
1793.46
1415.34
1141.36
953.957
828.446
744.99
684.497
639.223
604.889
575.897
545.786
517.018
485.085
451.775
417.51
382.691
346.812
316.964
368.386
6642.51
10647.9
9835.09
7955.34
6238.63
5116.66
4377.64
3823.41
3338.05
2857.77
2366.84
1910.3
1518.43
1221.26
1008.38
862.068
762.083
690.086
637.753
600.014
565.787
535.805
505.892
474.038
441.362
408.334
374.936
340.382
313.043
365.358
6995.3
11263.4
10341.9
8292.17
6476.94
5303.31
4535.04
3968.83
3484.32
3013.72
2528.72
2068.18
1657.85
1326.53
1081.35
908.825
789.339
704.265
644.467
598.927
560.035
528.668
497.7
466.016
434.129
402.104
369.471
335.598
309.686
363.375
7285.5
11905.5
10945.4
8728.28
6794.17
5550.89
4751.29
4174.73
3687.42
3218.98
2733.78
2259
1821.84
1453.25
1170.21
966.827
824.22
725.154
652.906
598.929
556.712
522.926
490.501
459.727
428.156
396.829
364.418
331.273
307.26
361.696
7585.5
12613.5
11603.1
9228.08
7168.4
5850.7
5023.8
4428
3934.7
3459.73
2969.29
2480.62
2016.47
1610.03
1285.72
1045.73
875.694
755.218
668.518
603.827
557.246
518.961
486.195
454.526
423.388
392.461
360.492
327.995
305.792
360.685
7917.47
13340.1
12302.5
9792.99
7598.54
6205.69
5341.11
4728.15
4221.48
3740.18
3242.47
2738.14
2245.64
1799.67
1431.32
1149.91
944.72
797.114
691.652
615.082
560.793
517.188
482.49
449.757
419.359
388.314
356.709
325.058
304.687
359.948
8245.17
14096.8
13060
10433.8
8096.47
6614.72
5711.15
5075.86
4552.03
4062.19
3556.86
3035.73
2517.01
2034.86
1619.97
1289.21
1039.36
856.86
726.236
633.577
568.022
518.458
480.087
446.916
416.006
384.687
353.548
322.645
303.996
359.246
8572.3
14875.8
13893.8
11155.7
8683.79
7098.24
6142.63
5475.12
4929.51
4428.39
3914.85
3380.47
2840.68
2322.91
1857.7
1469.46
1164.23
937.409
773.973
659.719
580.036
522.946
479.798
445.088
412.998
381.267
350.398
320.272
303.399
358.894
8867.96
15685.8
14787.2
11968.2
9375.03
7673.44
6646.08
5934.92
5358.02
4839.8
4311.92
3766.98
3211.96
2661.05
2145.57
1694.72
1325.85
1044.38
840.355
698.009
600.221
531.295
482.478
445.468
410.064
378.152
347.213
317.972
302.933
359.71
9161.81
16496.5
15743.3
12877.4
10173.5
8349.83
7232.64
6462.98
5840.94
5294.62
4744.07
4187.3
3617.42
3037.46
2477.06
1965.41
1529.05
1183.34
930.069
752.276
630.342
545.38
488.274
445.396
407.789
374.822
343.968
315.561
302.421
360.285
9458.06
17333.8
16764.7
13873.8
11075.8
9134.63
7912.19
7060.95
6380.96
5792.14
5215.43
4643.61
4052.77
3444.66
2847.1
2281.64
1779.2
1364.19
1051.4
828.118
673.543
567.914
497.737
447.161
406.611
372.246
341.017
312.435
301.027
360.135
9804.73
18197.5
17825.7
14950
12079.2
10027.9
8686.68
7725.04
6977.15
6330.92
5731.08
5137.87
4525.33
3889.92
3258.3
2645.08
2080.48
1594.04
1211.18
930.25
733.823
599.823
511.984
451.865
406.955
370.798
338.499
311.213
301.279
360.441
10123.6
19104.7
18903.5
16090.2
13181.5
11025.4
9550.6
8461.49
7628.98
6925.28
6294
5672.09
5032.67
4373.31
3708.99
3054.93
2432.51
1876.03
1413.42
1064.39
813.854
642.857
532.36
460.818
409.889
370.518
336.959
310.824
302.018
362.424
10419
20003.8
19978.2
17285.2
14381.2
12125.1
10500.4
9276.93
8346.08
7582.97
6907.43
6249.03
5577.94
4894.4
4202.51
3511.12
2833.51
2208.69
1665.31
1233.68
917.719
700.86
561.73
473.496
414.285
371.203
336.751
311.03
303.016
364.868
10666.6
20850.9
21048.8
18523.1
15676.4
13320.2
11544.4
10186.2
9154.06
8316.56
7579.81
6874.62
6169.44
5460.51
4740.18
4010.67
3286.01
2596.21
1971.19
1448.79
1054.8
780.14
604.095
492.19
421.705
373.341
337.28
311.506
304.118
367.959
10937.8
21592.7
22095.7
19766.3
17038.1
14604
12697
11208.4
10068.4
9137.83
8321.59
7555.42
6808.5
6072.3
5318.65
4554.44
3783.89
3031.73
2333.07
1720
1236.09
888.318
662.473
520.496
433.553
377.715
338.91
312.592
305.464
371.086
11188.9
22255.1
23109.1
20997.1
18431.1
15980.3
13967.4
12366.1
11105
10063.6
9145.83
8303.9
7504.09
6727.18
5938.67
5140.16
4328.05
3519.72
2752.76
2052.57
1468.59
1032.58
743.157
560.569
451.065
384.482
342.063
314.149
307.783
375.041
11377.9
22740.3
23978.7
22184.8
19823.6
17453.2
15372.5
13682.9
12292.4
11117.5
10072.7
9132.87
8267.38
7433.69
6601.18
5765.81
4917.23
4060.76
3225.74
2444.74
1756.78
1219.61
850.473
615.107
475.673
394.763
345.98
315.615
309.741
378.95
11485.1
23177.8
24636.2
23271.8
21193.7
19024.3
16951.8
15168.9
13637
12312.3
11128.5
10068.1
9113.1
8204.15
7312.1
6431.59
5543.21
4641.74
3741.43
2885.36
2102.31
1455.74
990.177
688.279
509.416
409.447
351.905
318.252
311.544
382.731
11620.4
23339.9
24993
24162.3
22540.7
20697.6
18716
16851.1
15170.3
13681.8
12343.2
11141.7
10064.6
9056.97
8087.89
7145.85
6204.48
5253.6
4291.38
3366.8
2499.83
1742.96
1167.17
783.425
553.938
428.065
359.193
321.343
313.227
386.806
11672.4
23431.5
25030.7
24795.6
23868.4
22479.1
20687.7
18752.1
16923.2
15263.3
13753
12387.6
11151.6
10017.9
8946.62
7917.69
6905.08
5893.55
4871.13
3881.69
2933.67
2074.71
1382.19
903.846
611.039
450.143
366.364
322.943
313.522
390.125
11779
23108.7
24685.6
25102.5
25144.3
24392.3
22864.4
20895.8
18936.1
17099
15393.5
13827.2
12405.5
11110.3
9902.75
8754.93
7649.48
6566.72
5483.28
4426.66
3397.67
2448.39
1645.62
1057.69
685.376
478.575
375.163
324.647
312.614
392.99
11606.2
22717
24186.1
25355.1
26487.6
26484.1
25278.1
23326.9
21252.6
19222.3
17287.6
15492.7
13852.9
12352.2
10969.2
9667.37
8447.56
7280.51
6127.68
4999.95
3897.81
2872.56
1963.05
1255.66
786.735
520.275
389.653
328.881
312.376
395.807
11034.9
22892.7
24164.3
25889.9
28022
28790
27947.6
26072.9
23903.5
21666.1
19472.6
17408.8
15513.3
13762.9
12158.4
10669.6
9306.63
8029.15
6798.33
5605.34
4443.4
3347.09
2334.44
1503.58
920.395
577.599
409.722
335.607
313.962
398.604
367.364
317.652
350.249
388.14
423.908
459.185
492.41
522.942
548.563
571.714
597.213
624.129
658.772
707.455
779.496
889.089
1058.31
1316.64
1685.7
2154.27
2679.48
3194.84
3700.37
4263.65
5020.16
6119.02
7717.59
9307.08
9614.9
6234.1
365.674
315.238
346.132
382.9
418.349
453.157
487.036
517.643
546.918
575.16
604.159
638.948
679.283
735.864
818.112
945.234
1133.3
1409.37
1790.77
2252
2746.21
3244.01
3743.22
4305.31
5071.1
6240.65
7915.08
9677.82
10164.7
6430.84
363.464
312.407
340.541
375.572
409.721
443.262
476.503
506.777
535.949
567.891
599.736
639.786
690.435
759.178
855.926
998.17
1208.52
1506.64
1895.01
2347.8
2834.84
3318.79
3812.54
4375.18
5147.49
6348.47
8118.15
10025.8
10797.5
6720.25
362.087
309.717
335.646
369.893
403.267
436.489
469.037
499.168
528.979
562.876
599.574
646.134
706.953
789.148
904.582
1071.83
1310.39
1636.53
2040.21
2494.06
2973.31
3447.99
3940.14
4512.63
5303.95
6556.23
8446.74
10531.5
11407.5
7072.49
360.391
307.127
330.885
364.865
397.865
430.632
461.985
492.736
523.547
559.281
600.941
653.807
725.216
822.585
959.537
1157.15
1432.4
1792.94
2223.61
2686.82
3162.3
3636.83
4131.98
4722.85
5541.29
6841.43
8870.45
11134.2
12047.7
7359.63
359.401
305.563
327.637
361.169
393.597
425.634
457.091
488.433
521.2
559.726
607.384
668.952
754.111
871.134
1034.85
1265.59
1582.04
1979.56
2435.62
2915.38
3399.97
3878.67
4370.15
4976.67
5834.14
7199.47
9357.04
11784.9
12753.4
7657.97
358.796
304.093
325.679
357.82
390.392
421.891
452.965
486.014
520.474
562.687
617.388
691.344
794.014
936.151
1133.26
1403.17
1762.16
2199.1
2682.54
3179.56
3671.95
4157.4
4668.74
5290.57
6177.31
7616.1
9896.32
12472
13479.8
7995.65
358.758
303.985
323.747
355.162
387.429
419.254
450.868
484.506
522.342
569.952
634.497
724.299
850.399
1025.81
1265.54
1583.32
1986.96
2459.96
2971.27
3486.36
3987.93
4479.82
5006.73
5655.11
6591.52
8121.29
10521.8
13220.3
14237.4
8321.89
358.477
303.577
321.504
351.895
384.088
416.618
449.043
484.077
526.751
582.203
659.462
769.511
926.351
1144.57
1437.34
1812.64
2266.74
2775.57
3307.21
3839.1
4352.29
4853.05
5401.61
6081.65
7072.25
8714.25
11239
14055.2
15018.7
8655.19
357.622
303.133
319.484
349.045
380.271
413.743
447.829
486.175
534.631
600.84
695.45
831.573
1027.43
1298.43
1653.61
2092.53
2599.56
3144.14
3692.61
4236.88
4764.76
5282.38
5860.73
6581.16
7641.93
9408.09
12053.1
14952.5
15834.8
8956.78
357.447
301.908
316.843
346.415
377.273
410.904
448.071
491.021
547.972
628.755
747.049
916.953
1160.59
1493.41
1916.13
2418.27
2974.6
3552.4
4116.73
4669.55
5217.11
5763.89
6388.13
7162.55
8313.79
10204.2
12954.9
15905.5
16651.6
9257.69
358.054
301.63
314.904
343.616
375.339
409.781
450.199
499.821
569.496
669.875
819.754
1033.35
1335.04
1736.9
2227.74
2785.7
3381.85
3988.49
4573.71
5141.58
5708.84
6291.85
6982.24
7834.7
9091.74
11101.6
13942.1
16916.4
17495
9568.21
359.112
301.878
313.69
341.781
373.952
410.414
454.846
513.933
600.235
728.452
918.131
1188.55
1559.39
2034.34
2590.28
3197.95
3829.32
4462.61
5072.98
5664
6254.96
6885.4
7642.02
8603.83
9977.28
12102.5
15020.4
17985.4
18365.9
9916.85
360.712
302.642
313.244
340.823
373.674
413.098
462.746
534.061
642.019
806.429
1048.49
1388.96
1839.07
2387.02
3002.65
3654.4
4316.89
4976.56
5614.85
6236.34
6862.38
7546.71
8380.57
9467.67
10976
13207
16172
19080.4
19280
10243.5
362.49
303.447
313.159
340.568
374.813
417.647
475.904
562.323
698.02
908.034
1215.03
1637.44
2173.6
2793.54
3464.63
4153.74
4844.32
5527.98
6198.5
6857.71
7530.72
8279.02
9202.55
10423.3
12078.8
14405.5
17369.8
20161.6
20197.1
10547.9
365.147
304.875
314.025
341.141
377.102
424.517
493.442
601.892
772.926
1039.54
1424.3
1938.87
2561.96
3253.98
3976.22
4701.5
5419.57
6125.26
6827.67
7532.91
8266.01
9089.78
10114.6
11474.9
13283.5
15700.5
18615.3
21229.7
21065.2
10807.4
369.409
307.531
315.988
342.703
381.162
435.441
518.041
654.913
872.808
1209.93
1685.09
2294.89
2999.23
3760.24
4529.9
5291.06
6039.53
6770.38
7510.07
8271.27
9080.33
9992.61
11123.2
12625.8
14580.7
17073.7
19873.9
22282.7
21828.3
11090.5
373.289
309.72
317.298
346.151
387.602
450.392
553.5
727.221
1006.19
1427.98
2004.08
2705.89
3483.34
4303.14
5115.88
5914.09
6697.44
7467.52
8253.14
9084.09
9994.59
11018.9
12265.3
13888.8
15965.6
18486
21124.8
23305.7
22510.8
11356.6
377
311.755
319.266
349.769
396.82
471.237
601.539
823.164
1177.81
1699.03
2380.62
3166.81
4012.54
4877.33
5730.85
6569.14
7398.26
8223.67
9072.54
9994.89
11029.5
12193
13573.4
15285.8
17443.2
19901.6
22338
24200.3
23014.6
11552.5
380.891
313.164
321.245
353.816
408.429
499.94
665.246
947.919
1393.72
2024.25
2802.85
3661.72
4572.67
5479.16
6376.8
7262.73
8154.02
9054.1
9994.78
11034.6
12204.5
13521
15045.6
16851.9
19016.7
21295.8
23455.1
24892.9
23467.1
11674.8
384.261
312.935
322.001
359.028
422.866
537.81
748.073
1106.08
1656.13
2397.36
3262.26
4187.32
5153.07
6109.45
7062.81
8012.04
8981.87
9984.51
11046.8
12226.2
13547.5
15031.2
16714.3
18612.7
20682.2
22662
24375.2
25279.4
23651.7
11822.5
386.796
312.512
323.039
364.995
440.803
585.925
852.967
1299.75
1959.93
2802.85
3746.29
4739.36
5759.18
6776.86
7803.22
8838.65
9911.92
11048.4
12264.9
13612.8
15105.8
16758.4
18593.8
20565.4
22469.1
24009.8
25045.5
25346.4
23765.3
11885.8
389.474
313.14
326.083
373.559
465.754
648.142
985.914
1532.44
2299.91
3230.72
4248.79
5309.03
6392.09
7485.88
8606.04
9759.92
10971.2
12276.9
13682.5
15223.2
16914.9
18746.4
20721
22732.1
24388.2
25323.2
25410.2
25028.3
23460.6
12011.7
392.179
314.246
330.492
386.231
500.762
731.928
1155.74
1814.06
2686.32
3692.78
4778.44
5902.56
7058.63
8242.88
9477.64
10787
12181
13694.3
15333.9
17092
19007
21033.5
23131.4
25138.2
26491
26706.2
25703.1
24540
23076.4
11853.6
395.116
315.767
336.134
403.025
546.324
840.86
1367.57
2143.61
3118.22
4195.85
5343.47
6534.27
7778.79
9069.87
10442.6
11939
13559.1
15327
17253.9
19263.2
21422.4
23656.3
25858.2
27809.5
28826.2
28295.6
26280.6
24542.2
23249.4
11292.8
11901.5
12312.2
12853.2
13521.9
14286.9
15122.9
16024.5
16969.7
17940.3
18922.6
19903.7
20874.6
21828.2
22759.2
23663
24535.1
25371.2
26169.8
26935.3
27676
28396
29095.5
29772.2
30437.7
31103.7
31758.8
32388.3
32997.2
33581.4
34137.2
34661.6
35151.7
35603.7
36015.5
36386.4
36715
37002.1
37265.5
37519.2
37733
37905
38025.6
38088.6
38086.9
38012.6
37856.5
37636.2
37336.4
36946.8
36461.6
35880.4
35219.7
34478
33653.7
32749.8
31773.1
30737.9
29651.7
28518.9
27343.3
26129.5
24884.7
23615.6
22332.4
21057.4
19825
18624.1
17456.3
16325
15231.9
14179.6
13169.7
12204.5
11285.2
10412.8
9587.45
8810.04
8080.55
7395.74
6754.83
6159.69
5610.79
5107.48
4645.85
4218.59
3821.76
3453.27
3112.07
2796.39
2504.16
2234.19
1984.93
1755.6
1546.58
1357.93
1189.56
1041.61
913.94
805.98
716.306
643.443
585.583
540.747
506.564
481.075
462.264
448.46
439.217
433.138
429.002
426.693
425.458
424.896
424.859
424.97
425.005
424.401
422.93
420.504
417.379
414.033
410.508
405.766
401.408
398.117
32289.1
33350.7
34726.4
36409.4
38275.6
40310.3
42463.3
44702.2
46987
49289
51582.6
53851.1
56083.8
58272.6
60410.6
62492
64511.7
66469.3
68373.1
70235.8
72064.4
73862
75618.7
77342.6
79019
80648.6
82234.1
83768.3
85240.8
86644.7
87974.3
89224.1
90389
91465.9
92452.6
93346.3
94147.5
94855.5
95453.1
95929.8
96291
96526.2
96623.2
96569.3
96352.8
95963
95353.2
94557.2
93553.4
92333.6
90902.6
89277.5
87467.2
85474.2
83308.9
80989.5
78543.4
75985.4
73322.6
70561.7
67712.9
64790.3
61802.3
58752.4
55639.9
52458.4
49269.2
46144
43122.3
40201.8
37394.2
34701
32131.8
29693.2
27389.2
25223.4
23200.7
21323.5
19585
17983.4
16519.5
15189.8
13982.6
12882.7
11874
10941.5
10075.4
9267.01
8508.44
7791
7108.9
6457.45
5833.81
5238.42
4672.64
4138.28
3638.47
3174.66
2748.67
2362.42
2017.57
1714.25
1451.43
1227.15
1038.16
882.278
754.666
653.443
574.089
511.992
464.938
429.78
403.066
383.589
370.358
362.818
359.649
356.703
351.426
344.42
337.5
331.316
325.549
320.571
317.61
48409.3
49909.8
51846.8
54144.6
56698.7
59442.9
62318.2
65277.9
68277.1
71280.1
74260.7
77203.7
80100.3
82944.1
85730.1
88455.2
91119.1
93727.3
96290.2
98817.2
101312
103777
106194
108563
110882
113154
115374
117524
119592
121570
123448
125223
126889
128444
129887
131216
132428
133517
134468
135271
135920
136401
136697
136791
136667
136296
135657
134752
133571
132109
130372
128323
126047
123535
120795
117853
114737
111468
108045
104468
100747
96904.4
92951.1
88894
84743.6
80519.6
76242.4
71926.4
67587.1
63295.3
59155.9
55157.2
51323.6
47665.4
44188.4
40896.5
37796.2
34890.3
32176.6
29653.2
27318.2
25167.9
23191.3
21375.6
19703.7
18161.4
16738.2
15422.3
14202.3
13068.3
12012.1
11026
10103
9239.35
8431.4
7674.85
6967.18
6303.95
5683.07
5101.73
4558.43
4051.56
3579.65
3143.14
2740.74
2374.74
2041.96
1747.82
1490.39
1267.08
1079.89
924.793
797.157
694.292
613.947
554.369
512.192
480.152
450.945
423.149
399.047
379.923
365.635
352.324
343.157
65343.7
67233.6
69629
72438.9
75545.2
78853.1
82294.2
85814.4
89367.2
92917.2
96441.6
99927.7
103369
106761
110104
113397
116646
119860
123049
126218
129368
132495
135560
138572
141535
144450
147305
150071
152736
155290
157729
160047
162242
164312
166255
168070
169751
171291
172677
173898
174939
175777
176393
176761
176857
176653
176131
175283
174103
172591
170743
168561
166079
163318
160289
157016
153458
149735
145802
141643
137267
132695
127947
123021
117925
112684
107347
101932
96455
90941.8
85388.2
79897.7
74586
69507.6
64649.7
60037.2
55675.5
51568.2
47716.4
44117.5
40767.6
37659.2
34780.3
32117.4
29655.9
27381.4
25280.7
23339.9
21545
19883.6
18344.3
16914.7
15586.8
14353.2
13207.6
12142.7
11152.7
10230
9369.44
8565.51
7814.05
7109.97
6447.43
5824.25
5236.97
4686.63
4168.61
3688.13
3241.89
2828.37
2454.26
2118.56
1817.6
1551.98
1328.3
1145.82
997.86
874.334
766.722
672.705
594.945
534.614
487.809
451.768
424.408
83677.2
85946.2
88756.3
92022.2
95614.6
99413.3
103343
107347
111380
115410
119420
123399
127343
131253
135133
138988
142829
146662
150497
154335
158172
161984
165732
169403
173023
176589
180080
183462
186722
189853
192852
195719
198453
201051
203508
205824
207995
210017
211877
213561
215047
216306
217310
218031
218439
218506
218213
217550
216512
215098
213310
211162
208677
205879
202789
199408
195739
191805
187595
183083
178257
173060
167649
161971
156013
149801
143434
136919
130271
123529
116755
109970
103195
96471.7
89933.6
83744.6
77870.6
72324.1
67106.6
62209.5
57634.8
53373.4
49413
45740.5
42338.7
39189.2
36272.7
33570
31063.5
28738.6
26580.9
24576.5
22714.9
20986.3
19381.7
17888.8
16501
15208.4
14006.1
12886.2
11840.7
10863.7
9948.69
9091.97
8287.98
7534.16
6825.64
6163.32
5538.18
4949.57
4403.25
3900.83
3428.48
2989.06
2599.84
2263.15
1971.68
1709.4
1470.67
1251.91
1060.25
903.664
779.692
681.583
605.19
102946
105583
108772
112449
116472
120704
125064
129495
133954
138416
142866
147298
151714
156120
160523
164934
169364
173819
178302
182810
187330
191816
196230
200528
204744
208893
212941
216859
220632
224258
227737
231066
234243
237267
240138
242857
245426
247846
250108
252193
254069
255708
257074
258135
258859
259218
259198
258788
257984
256790
255212
253261
250957
248318
245357
242081
238491
234584
230338
225728
220722
215309
209527
203373
196827
189819
182560
175116
167428
159542
151566
143545
135512
127509
119607
111786
104185
96958.1
90161.9
83777.5
77812.4
72250.7
67076.6
62267.4
57804.1
53664.4
49824
46257.1
42940.4
39852.4
36975.1
34291.8
31787.5
29449.7
27266.5
25227.6
23323.7
21546.6
19888.4
18339.4
16893.3
15544.5
14286.5
13110.8
12010.9
10983.7
10024.9
9131.52
8291.27
7500.63
6759.66
6075.47
5430.42
4824.82
4276.48
3797.35
3369.38
2970.31
2595.77
2241.41
1908.09
1611.93
1360.51
1150.42
978.003
122370
125355
128884
132923
137318
141917
146638
151425
156242
161068
165894
170721
175556
180409
185290
190209
195177
200192
205251
210340
215440
220477
225429
230238
234886
239425
243830
248069
252134
256023
259737
263273
266628
269805
272809
275653
278355
280925
283354
285619
287680
289506
291063
292310
293215
293760
293936
293742
293184
292271
291009
289399
287450
285172
282574
279665
276439
272875
268929
264554
259722
254423
248660
242431
235745
228581
221015
213111
204834
196137
187187
178181
169068
159903
150856
141919
133105
124458
116060
108052
100603
93654.2
87191
81195.6
75637
70482.4
65695.7
61240.2
57080.9
53191.9
49547.9
46127.5
42912.6
39887.2
37039.3
34360.4
31842.3
29476.7
27255.9
25175
23227.9
21404.1
19693.2
18094.6
16601.3
15208.8
13910.6
12702.6
11574.6
10518.6
9529.33
8612.68
7757.98
6962.64
6244.02
5617.07
5044.41
4501.1
3996.12
3520.75
3062.09
2634.55
2254.55
1917.19
1620.45
141109
144403
148210
152537
157215
162083
167061
172098
177165
182249
187347
192467
197618
202810
208051
213342
218686
224077
229499
234928
240334
245653
250826
255809
260598
265205
269611
273791
277719
281408
284868
288105
291122
293931
296555
299029
301385
303643
305797
307816
309654
311278
312649
313722
314471
314905
315040
314893
314494
313861
312983
311846
310448
308790
306876
304709
302270
299516
296372
292767
288670
284058
278918
273245
267045
260323
253126
245479
237379
228788
219783
210490
200917
190943
181083
171291
161548
151960
142640
133616
124877
116596
108888
101785
95212.5
89124.7
83467.1
78181.2
73222.2
68556.7
64153.1
59984.5
56030.8
52278.3
48719.2
45344.5
42146.2
39117.9
36252.7
33548.3
30999.1
28597.2
26336.7
24217
22230.6
20373.8
18639.7
17026.3
15522.3
14120.1
12811.9
11597.6
10476
9443.02
8516.18
7702.48
6940.88
6227.5
5573.65
4972.96
4400.42
3862.16