/*--------------------------------*- C++ -*----------------------------------*\
| =========                 |                                                 |
| \\      /  F ield         | OpenFOAM: The Open Source CFD Toolbox           |
|  \\    /   O peration     | Version:  2112                                  |
|   \\  /    A nd           | Website:  www.openfoam.com                      |
|    \\/     M anipulation  |                                                 |
\*---------------------------------------------------------------------------*/
FoamFile
{
    version     2.0;
    format      ascii;
    arch        "LSB;label=32;scalar=64";
    class       surfaceScalarField;
    location    "0.00948";
    object      phi;
}
// * * * * * * * * * * * * * * * * * * * * * * * * * * * * * * * * * * * * * //

dimensions      [1 0 -1 0 0 0 0];

oriented        oriented;

internalField   nonuniform List<scalar> 
27436
(
-0.533464
8.19282
-0.0933047
7.47168
-0.0850367
7.78729
-0.0699986
7.78589
-0.0646881
7.78886
-0.0485671
7.78076
-0.0413278
7.78962
-0.0348514
7.78992
-0.0237714
7.7871
-0.0147416
7.78853
-0.0085408
7.79024
0.000507147
7.78834
0.0142382
7.78319
0.0310941
7.78085
0.0462329
7.78231
0.0549158
7.78824
0.0580276
7.79262
0.065844
7.78971
0.0753443
7.78829
0.0895455
7.78253
0.0962027
7.78791
0.111761
7.78559
0.123889
7.78254
0.574081
7.46089
8.21868
-0.247207
8.44002
-0.0961645
7.32066
-0.0813941
7.77264
-0.0550263
7.76006
-0.0607288
7.79489
-0.0589333
7.78338
-0.0373476
7.76814
-0.028071
7.78084
-0.020743
7.78037
-0.0112004
7.78006
0.000924658
7.77874
0.0154016
7.77362
0.0151394
7.7836
0.021643
7.77434
0.021066
7.78288
0.0377118
7.7716
0.0465977
7.78373
0.0589653
7.77734
0.0823431
7.76491
0.0776873
7.7872
0.0722249
7.79338
0.102996
7.75479
0.114293
7.77099
0.268236
7.30887
8.48808
-0.227252
8.66724
-0.141214
7.23453
-0.120719
7.75198
-0.107345
7.74668
-0.105579
7.79305
-0.105407
7.78327
-0.0949124
7.75821
-0.0744822
7.7599
-0.0589778
7.76313
-0.0495325
7.76604
-0.0388822
7.76396
-0.0147308
7.74947
-0.0125937
7.78162
-0.0113688
7.77316
-0.00824612
7.77976
0.0127083
7.75062
0.0240818
7.77235
0.0473287
7.75414
0.060928
7.75131
0.0593932
7.78874
0.0638747
7.78893
0.0786975
7.73989
0.100903
7.74902
0.192291
7.21757
8.67368
-0.169558
8.83677
-0.139589
7.20448
-0.13449
7.74676
-0.11388
7.72608
-0.115078
7.79413
-0.109583
7.77825
-0.0913652
7.74008
-0.0724262
7.74
-0.0570682
7.74552
-0.0431732
7.75041
-0.0287509
7.74818
-0.00714723
7.72766
0.00299968
7.77165
0.00489434
7.77131
0.0149737
7.76969
0.0353138
7.7303
0.0494658
7.75821
0.0697623
7.73388
0.0885522
7.73252
0.0942247
7.78307
0.0944586
7.78873
0.118978
7.71537
0.111658
7.75667
0.162391
7.16536
8.83226
-0.0736291
8.91038
-0.0367879
7.16759
-0.0929826
7.8028
-0.0639483
7.69701
-0.0716538
7.80191
-0.0694946
7.77581
-0.0536178
7.72424
-0.0364014
7.72194
-0.0237738
7.73069
-0.0138866
7.7386
-0.00138996
7.73444
0.0165557
7.70947
0.0268591
7.76148
0.0276363
7.77058
0.0370512
7.76028
0.0543922
7.71297
0.0644954
7.74813
0.0821378
7.71627
0.0969958
7.71766
0.101045
7.77902
0.0968731
7.79293
0.124857
7.68742
0.0902057
7.79161
0.0974235
7.15747
8.93077
0.118496
8.79185
0.0435967
7.24242
-0.0506615
7.89687
-0.0144127
7.66067
-0.0338641
7.82117
-0.0369109
7.77836
-0.0262133
7.7136
-0.0131198
7.70711
-0.00458673
7.72028
-0.00115084
7.73222
0.00567113
7.72663
0.0193094
7.69557
0.0256629
7.75527
0.0250064
7.7713
0.0296745
7.75563
0.0421916
7.70045
0.0463948
7.74394
0.0584627
7.70423
0.0684577
7.70768
0.0690388
7.77844
0.0523872
7.80961
0.0884511
7.65136
-0.0139131
7.89443
-0.0212062
7.16464
8.91328
0.304579
8.48724
0.135939
7.41094
-0.00724449
8.03991
0.0206453
7.63248
-0.0253507
7.86695
-0.0513277
7.803
-0.0610626
7.7241
-0.067504
7.7133
-0.0810623
7.73161
-0.0951095
7.74452
-0.112035
7.74304
-0.120344
7.70375
-0.131122
7.7661
-0.146254
7.78649
-0.158024
7.76738
-0.166382
7.70882
-0.184993
7.76256
-0.192967
7.71226
-0.207932
7.72267
-0.22875
7.79927
-0.262795
7.84368
-0.284754
7.67335
-0.354781
7.96478
-0.658574
7.46793
8.25839
0.87327
7.61392
0.521848
7.76221
0.409853
8.1516
0.330626
7.71121
0.264738
7.93271
0.222657
7.84555
0.193803
7.7548
0.171762
7.73552
0.143826
7.75708
0.114318
7.77282
0.0827865
7.77504
0.0608339
7.72593
0.037994
7.78895
0.00677359
7.81776
-0.0192105
7.79336
-0.0445035
7.7341
-0.0743004
7.79237
-0.10069
7.73867
-0.130629
7.75264
-0.167152
7.83577
-0.228208
7.90475
-0.279086
7.72431
-0.406129
8.09205
-0.693758
7.75546
7.56744
0.592934
7.02091
0.410094
7.94492
0.23731
8.3242
0.186984
7.76093
0.125946
7.99288
0.0927421
7.88126
0.085485
7.76376
0.0846907
7.73669
0.0806719
7.75956
0.0760138
7.77639
0.0713855
7.78096
0.070533
7.72664
0.0767519
7.78267
0.0768302
7.81775
0.0769672
7.79321
0.072235
7.73882
0.0674632
7.79713
0.0629758
7.74321
0.0562124
7.75945
0.0292907
7.86271
-0.0267269
7.96077
-0.0465553
7.74415
-0.219221
8.26482
-0.37236
7.90852
7.19397
-3.05089
10.0717
-3.39168
8.28551
-2.7653
7.69751
-2.6199
7.61498
-2.305
7.67703
-1.94843
7.52793
-1.64789
7.4632
-1.36783
7.45583
-1.08276
7.47437
-0.782476
7.47661
-0.494454
7.49443
-0.209222
7.44096
0.0972916
7.47592
0.40372
7.5114
0.694829
7.50212
0.966101
7.46751
1.26519
7.49802
1.54202
7.46636
1.8359
7.4656
2.19638
7.5022
2.50187
7.65525
2.66006
7.58602
3.23537
7.68937
2.95063
8.19327
10.1423
-4.25826
14.3298
-4.36659
8.39421
-4.19461
7.52626
-3.89992
7.31896
-3.3293
7.10483
-2.79614
6.99486
-2.34462
7.01051
-1.91746
7.02799
-1.47096
7.02881
-1.02004
7.02858
-0.562062
7.03707
-0.121775
7.00003
0.339927
7.01386
0.811799
7.03965
1.25917
7.0548
1.67719
7.04947
2.13228
7.04291
2.57076
7.02788
3.02565
7.0107
3.57747
6.95038
4.13413
7.09853
4.4443
7.27589
4.61501
7.51833
4.56481
8.24308
14.707
-2.75861
17.088
-4.86575
10.5017
-4.98182
7.64374
-4.14442
6.47869
-3.6257
6.58246
-3.17131
6.53815
-2.69418
6.53147
-2.21328
6.54711
-1.71871
6.53626
-1.22407
6.53815
-0.72327
6.5354
-0.244708
6.52059
0.257149
6.51161
0.762051
6.53491
1.25971
6.5573
1.71826
6.59098
2.20563
6.55558
2.69689
6.53667
3.19228
6.5153
3.6681
6.47454
4.24934
6.51727
5.09989
6.42534
4.72221
7.89561
2.77984
10.1848
17.4862
2.36468
14.7228
0.162706
12.7013
-5.00999
12.8172
-3.89369
5.35994
-3.80231
6.48864
-3.3022
6.03617
-2.87346
6.10191
-2.37398
6.04753
-1.85341
6.01692
-1.32858
6.01546
-0.810757
6.01609
-0.307582
6.01641
0.210003
5.99373
0.740176
6.005
1.26498
6.03285
1.78905
6.06715
2.28004
6.06474
2.75915
6.05762
3.19987
6.07461
3.76057
5.91389
3.97403
6.30399
5.11
5.28932
-0.179317
13.1844
-2.39811
12.4028
15.0876
2.45377
12.2683
3.52047
11.6326
3.44468
12.891
-0.811867
9.62186
-3.62712
9.3057
-3.20036
5.61064
-2.97549
5.87703
-2.47799
5.5489
-1.95161
5.48885
-1.46756
5.53015
-0.977923
5.52522
-0.473119
5.511
0.0254567
5.49508
0.530805
5.49995
1.03434
5.53004
1.53065
5.57144
2.03018
5.56543
2.48366
5.60406
2.6115
5.94667
2.98485
5.54066
-0.0897369
9.37881
-4.15517
9.3559
-3.87726
12.906
-2.95565
11.4802
12.1309
1.87818
10.3889
3.87522
9.6352
5.77389
10.9907
4.95686
10.4435
4.09558
10.1736
-1.196
10.9084
-2.38715
7.07185
-2.04989
5.2083
-1.63101
5.06719
-1.13809
5.03586
-0.603251
4.99042
-0.0633619
4.97151
0.468799
4.96328
1.00071
4.96861
1.54125
4.99057
2.05362
5.06017
2.44687
5.17224
2.79773
5.25295
1.50595
7.23847
-3.66541
10.7125
-4.23655
9.95072
-4.89036
10.0103
-3.05186
11.0673
-1.33343
9.76121
10.7969
1.09214
9.29579
2.16993
8.55658
3.985
9.17403
4.94075
9.49043
5.05543
10.064
5.79637
10.1691
2.77345
10.0921
1.12965
6.85481
-0.0525997
6.25187
-0.389002
5.37166
-0.252435
4.85455
0.0403159
4.6798
0.392438
4.61208
0.714084
4.64782
0.927879
4.77806
0.812588
5.17654
-0.511106
6.49638
-2.33882
7.07914
-5.03096
9.93009
-4.27973
9.96123
-3.9713
9.64327
-3.50729
9.547
-1.86024
9.41976
-0.760334
8.66129
10.0362
2.00498
7.29031
3.1705
7.39116
4.36637
7.98021
5.95068
7.91005
7.0532
8.96708
6.64151
10.5829
4.7088
12.0196
2.16044
9.40721
0.865786
7.54966
0.182094
6.05863
-0.00292912
5.04086
-0.0379194
4.71482
-0.0135883
4.58615
-0.0111838
4.64379
-0.156921
4.92101
-0.813895
5.83139
-2.37591
8.05728
-4.94233
9.64322
-6.74423
11.7324
-7.24798
10.4642
-6.42542
8.82158
-4.99976
8.12151
-3.70614
8.12597
-2.56072
7.51577
7.47539
2.53189
4.75725
4.15405
5.76791
4.68416
7.45051
4.33041
8.26611
4.54852
8.74952
4.273
10.8608
4.15129
12.1412
2.55648
10.9994
1.36274
8.74557
0.601968
6.82297
0.223316
5.42342
-0.0745835
5.01767
-0.371267
4.88708
-0.675325
4.94969
-1.01887
5.26519
-1.90201
6.71351
-3.24575
9.39736
-4.93676
11.3303
-5.86616
12.6613
-6.25055
10.8508
-5.96674
8.53988
-5.93912
8.09474
-4.96515
7.15149
-2.94051
5.49097
4.53472
3.16304
1.59308
6.23562
2.69319
8.48212
5.20127
8.24987
8.50289
6.4697
10.5285
5.92228
11.4073
5.58283
12.4814
4.88977
11.6921
4.15532
9.47973
3.23792
7.74169
1.98469
6.67859
0.823786
6.18023
-0.325247
6.03738
-1.51966
6.14412
-2.89144
6.63652
-3.9744
7.79493
-4.38027
9.80013
-4.77039
11.7167
-4.64017
12.5317
-5.26801
11.4812
-7.52575
10.7998
-7.85788
8.42909
-5.77195
5.06498
-2.95937
2.67813
1.5752
1.20072
0.391577
2.92785
0.964814
4.94881
3.17997
6.46027
6.9939
5.75394
11.2331
5.43306
11.7267
5.4026
12.5129
4.859
12.2363
3.80151
10.5361
2.64439
8.89902
1.49859
7.825
0.373331
7.30588
-0.753838
7.16478
-1.91777
7.30815
-3.16299
7.88129
-4.45336
9.08414
-5.46426
10.8092
-5.8804
12.1301
-5.80827
12.4584
-6.0885
11.7623
-6.679
11.3931
-4.98775
6.73919
-2.98147
3.05882
-1.21197
0.908524
0.363079
0.581295
-0.190239
0.866164
0.679078
1.00149
3.04405
1.3336
6.66323
2.25698
10.3072
2.90959
11.0726
3.4058
12.0181
3.32124
12.3204
2.65386
11.2017
1.78879
9.76317
0.931384
8.68191
0.0957251
8.14146
-0.738804
7.99903
-1.60775
8.17709
-2.54315
8.8165
-3.48354
10.0241
-4.08584
11.4104
-4.02639
12.0689
-3.41427
11.8455
-2.7284
11.0764
-1.66841
10.3352
-1.14442
6.21612
-0.916331
2.83077
-0.59751
0.589651
-0.234584
-0.156192
-0.0342215
-0.302978
0.825077
-0.690076
3.43014
-0.642456
6.61537
0.396386
9.26521
1.30607
10.1628
1.89705
11.4271
2.02729
12.1895
1.73499
11.4935
1.26198
10.236
0.710713
9.23243
0.145115
8.70605
-0.412903
8.55697
-0.986155
8.75045
-1.54053
9.37133
-1.97879
10.4629
-2.16431
11.5956
-1.95205
11.8556
-1.27369
11.1663
-0.29623
10.0985
0.802665
9.23654
0.690278
6.32955
0.363089
3.15863
0.201673
0.751398
-0.0327975
-0.522224
0.487893
-1.35803
1.66064
-1.776
3.84694
-1.79167
6.62736
-0.91507
8.38595
-0.0582161
9.30704
0.462865
10.906
0.768937
11.8832
0.856163
11.4065
0.724201
10.3681
0.487216
9.46921
0.20939
8.98405
-0.081332
8.84814
-0.336342
9.00631
-0.529013
9.56521
-0.594872
10.5299
-0.459712
11.4605
-0.181623
11.5765
0.449605
10.5348
1.30566
9.24179
2.17044
8.37143
2.03341
6.46678
1.50105
3.69144
0.54512
1.70697
0.512119
-0.397523
0.884866
-1.50206
2.76443
-2.42081
4.76365
-2.54121
6.74456
-2.06315
7.9094
-1.59584
8.84041
-1.02745
10.3367
-0.513646
11.3692
-0.165023
11.0583
-0.00417815
10.2072
0.0161264
9.44876
-0.0478447
9.04854
-0.132164
8.93316
-0.204541
9.07977
-0.187117
9.54901
-0.00671808
10.3504
0.352418
11.1016
0.838491
11.0899
1.34535
10.0272
1.9277
8.6588
2.46173
7.83713
2.33519
6.59311
1.36775
4.65909
0.35588
2.7182
0.867669
-0.383651
1.26707
-1.39285
3.77312
-2.17987
5.54894
-2.42286
6.98659
-2.19044
7.67809
-1.88481
8.53537
-1.44933
9.90022
-0.920946
10.8401
-0.474014
10.6127
-0.224617
9.95889
-0.110381
9.33513
-0.0609566
8.99972
-0.0378758
8.91139
0.0293763
9.01377
0.170954
9.40842
0.439822
10.0822
0.876802
10.6646
1.38365
10.5823
1.7714
9.63931
2.10574
8.32416
2.38191
7.56054
2.11679
6.85804
1.30787
5.46812
0.351728
3.67482
1.21973
-0.348834
1.61545
-1.22917
4.65229
-2.05002
6.3686
-2.40989
7.34555
-2.38057
7.64864
-2.15683
8.31016
-1.77281
9.51428
-1.21578
10.2819
-0.723822
10.1218
-0.348265
9.5841
-0.129502
9.11761
0.015599
8.85666
0.153087
8.77532
0.297284
8.87085
0.530281
9.17628
0.934699
9.67848
1.4462
10.1531
1.96308
10.0656
2.28703
9.31546
2.50533
8.10602
2.5141
7.55169
2.14224
7.22952
1.25283
6.35707
0.361121
4.56573
1.58082
-0.475059
2.0909
-1.38369
5.56121
-2.20251
7.18652
-2.53195
7.67402
-2.59121
7.70816
-2.45857
8.17593
-2.16335
9.21645
-1.65526
9.77334
-1.13535
9.60426
-0.748612
9.19904
-0.460907
8.83108
-0.228124
8.62448
-0.0295066
8.57805
0.207949
8.6344
0.503726
8.88135
0.881323
9.30149
1.35856
9.67697
1.83546
9.58867
2.1416
9.00928
2.2949
7.95248
2.24043
7.60607
1.9617
7.50775
1.21868
7.09954
0.371264
5.412
1.95216
-0.363415
2.45609
-1.22769
6.42731
-1.97671
7.93366
-2.16622
7.86183
-2.35505
7.89572
-2.26958
8.08896
-1.98555
8.93144
-1.49253
9.28104
-1.02359
9.13733
-0.613647
8.79069
-0.308199
8.52744
-0.0593404
8.37787
0.185352
8.33458
0.431346
8.38957
0.744081
8.56963
1.18201
8.86466
1.66461
9.19476
2.10882
9.14524
2.34408
8.77459
2.4142
7.8828
2.20312
7.81739
1.95222
7.75785
1.18672
7.86345
0.369793
6.22648
2.32227
-0.29702
2.75391
-1.19606
7.32901
-1.9149
8.65371
-2.08763
8.03524
-2.23268
8.03958
-2.16452
8.01856
-1.91955
8.6847
-1.49078
8.85283
-1.02863
8.6782
-0.649433
8.41302
-0.314529
8.19366
-0.0153629
8.07928
0.25813
8.0623
0.568218
8.08069
0.917934
8.2209
1.3054
8.47835
1.74519
8.75612
2.16103
8.73
2.37642
8.55943
2.443
7.81623
2.28852
7.9719
2.10212
7.94266
1.41827
8.54685
0.463513
7.17922
2.78361
-0.537757
3.29087
-1.44599
8.23969
-2.05487
9.26108
-2.22906
8.20966
-2.40204
8.21132
-2.43756
8.05289
-2.23971
8.48644
-1.78822
8.40356
-1.35031
8.24309
-0.934544
7.99904
-0.596914
7.85772
-0.299785
7.78373
0.00102775
7.76259
0.296345
7.78659
0.637338
7.88119
1.05864
8.05814
1.48897
8.32718
1.87898
8.34075
2.08096
8.35785
2.0458
7.85183
1.93379
8.08474
1.72558
8.15112
1.13964
9.13048
0.359769
7.95598
3.14174
-0.44374
3.73495
-1.27381
9.07745
-1.88831
9.87765
-2.03401
8.35305
-2.03768
8.21291
-2.01379
8.02756
-1.82511
8.29851
-1.47057
8.05157
-1.07365
7.84854
-0.727126
7.65369
-0.391047
7.52256
-0.0678604
7.4614
0.236002
7.45967
0.566066
7.45759
0.908115
7.54024
1.26513
7.70222
1.64882
7.94448
2.00807
7.98258
2.15395
8.21227
2.1636
7.84229
2.1475
8.10034
1.94663
8.352
1.44186
9.63603
0.561154
8.83667
3.70513
-0.42405
4.15611
-0.823288
9.4803
-1.58643
10.6433
-1.75955
8.53099
-1.81869
8.27413
-1.77771
7.98551
-1.64996
8.17197
-1.32396
7.72696
-0.998436
7.52479
-0.654071
7.31036
-0.35103
7.22062
-0.0669833
7.17831
0.231943
7.16158
0.508981
7.18153
0.818339
7.23163
1.18604
7.33552
1.52511
7.60602
1.80743
7.70131
1.93079
8.08925
1.95281
7.82155
1.93887
8.11528
1.89539
8.3959
1.13027
10.404
0.531032
9.441
4.22953
-0.659168
4.81487
-1.12202
9.94368
-1.85682
11.3737
-1.98941
8.65991
-1.95507
8.23975
-1.88838
7.92006
-1.71391
7.99988
-1.42643
7.44147
-1.11031
7.2098
-0.821424
7.02167
-0.527225
6.92696
-0.222981
6.87447
0.0621594
6.87697
0.373836
6.87036
0.671947
6.93426
0.955457
7.0526
1.25332
7.30929
1.54004
7.41491
1.6814
7.94787
1.7582
7.74596
1.75561
8.11967
1.70651
8.44688
0.743482
11.3679
0.37526
9.80669
4.59522
-0.466043
5.27527
-0.782995
10.2535
-1.39065
11.9811
-1.60019
8.86702
-1.65554
8.29162
-1.60571
7.86864
-1.45347
7.84798
-1.18967
7.1787
-0.910144
6.92983
-0.606129
6.71785
-0.325533
6.64675
-0.0648585
6.61434
0.216645
6.59568
0.471613
6.61576
0.753212
6.65289
1.0697
6.73638
1.35143
7.02808
1.59956
7.16782
1.74999
7.79677
1.7647
7.73029
1.7569
8.12731
1.41127
8.79199
0.940031
11.8392
0.528413
10.2224
5.11753
-0.326517
5.60305
-0.498374
10.4228
-1.01345
12.503
-1.52361
9.38278
-1.5641
8.33752
-1.48294
7.79253
-1.26811
7.63702
-1.056
6.96495
-0.816399
6.68951
-0.580458
6.48178
-0.33329
6.39956
-0.0696647
6.3505
0.172213
6.35385
0.442096
6.34606
0.686654
6.40844
0.920863
6.50247
1.16245
6.78601
1.38913
6.9426
1.56882
7.61814
1.62343
7.67756
1.67855
8.07356
1.21148
9.26085
0.680444
12.3704
0.431396
10.4758
5.55179
-0.459921
6.06558
-0.700234
10.6706
-0.99944
12.8074
-1.60595
9.98707
-1.56744
8.29661
-1.52037
7.74109
-1.37543
7.48806
-1.12545
6.71377
-0.910111
6.47303
-0.656382
6.22761
-0.416376
6.15939
-0.195707
6.12986
0.0494257
6.10861
0.265797
6.1296
0.514548
6.15977
0.776364
6.24074
0.986063
6.57683
1.20769
6.72017
1.35695
7.46892
1.38625
7.6495
1.34314
8.1192
0.702306
9.90417
0.371394
12.702
0.256638
10.5815
5.80676
-0.250911
6.31682
-0.375344
10.8018
-0.501066
12.9356
-1.24459
10.7248
-1.36807
8.41938
-1.33915
7.71233
-1.12661
7.27596
-0.910533
6.49803
-0.698598
6.25996
-0.503164
6.0323
-0.288971
5.94488
-0.0513848
5.89189
0.164053
5.89301
0.409712
5.884
0.618645
5.95083
0.814545
6.04457
1.03578
6.35535
1.26817
6.48757
1.45873
7.27633
1.48311
7.62375
1.40153
8.19995
0.664198
10.6427
0.59094
12.7734
0.393516
10.7815
6.20429
-0.056493
6.37624
-0.0798801
10.8249
-0.104418
12.9551
-0.78327
11.4125
-1.17974
8.82279
-1.14029
7.67741
-1.02911
7.16533
-0.83352
6.2991
-0.654668
6.07913
-0.444561
5.82135
-0.241321
5.74131
-0.0604991
5.71093
0.147233
5.6851
0.322261
5.70879
0.527904
5.74503
0.753274
5.81977
0.928992
6.18026
1.11574
6.30175
1.27109
7.12352
1.35102
7.54465
0.941559
8.61058
0.300512
11.2817
0.274206
12.7998
0.19223
10.8698
6.39227
-0.230096
6.60375
-0.388795
10.9729
-0.231312
12.785
-0.74914
11.9292
-1.32701
9.39047
-1.23087
7.57533
-1.06259
6.99027
-0.883094
6.1176
-0.690733
5.88685
-0.525577
5.6565
-0.353822
5.56915
-0.14996
5.50651
0.0325169
5.50244
0.236299
5.50501
0.406674
5.57472
0.570839
5.65434
0.76951
5.98056
0.938883
6.13085
1.04849
7.01292
1.11436
7.47968
0.437262
9.29158
-0.1116
11.8316
0.0401809
12.6444
0.0525178
10.8544
6.44074
-0.0341375
6.63302
-0.0627152
10.9911
0.116629
12.5994
-0.179085
12.222
-0.863329
10.0766
-0.938204
7.64913
-0.863445
6.9157
-0.718605
5.97335
-0.57482
5.74225
-0.385353
5.46668
-0.201755
5.38511
-0.0431096
5.34766
0.136203
5.32299
0.293466
5.34749
0.47762
5.39017
0.680209
5.45265
0.822701
5.83837
0.969385
5.98456
1.09747
6.88372
1.0238
7.55155
0.360045
9.95494
0.0645004
12.1272
0.230976
12.4734
0.153276
10.925
6.58448
0.0192038
6.61029
0.0787473
10.927
0.2912
12.3862
0.23262
12.2865
-0.536149
10.8527
-0.906417
8.02656
-0.733929
6.74454
-0.635972
5.87254
-0.487045
5.59192
-0.352707
5.33122
-0.209902
5.2417
-0.0424581
5.17973
0.113209
5.16715
0.286861
5.17373
0.423283
5.25367
0.563458
5.31163
0.730414
5.67103
0.828744
5.88622
1.04447
6.66981
0.740285
7.85624
-0.0417902
10.7359
-0.17346
12.2588
0.0387684
12.2569
0.0646221
10.8809
6.64621
-0.12402
6.73532
-0.0923976
10.8962
0.0680868
12.2259
0.140419
12.213
-0.32285
11.3071
-0.818063
8.51331
-0.774783
6.69352
-0.662267
5.7572
-0.569688
5.49981
-0.417009
5.17967
-0.26191
5.08632
-0.123914
5.04162
0.0276001
5.01546
0.160716
5.04024
0.322335
5.0917
0.47709
5.15667
0.560382
5.58653
0.637367
5.80719
0.712113
6.59382
0.138834
8.4327
-0.488356
11.3661
-0.325334
12.096
-0.211247
12.1382
-0.0915424
10.751
6.55974
-0.0309098
6.76999
0.0414604
10.8259
0.193259
12.0729
0.53643
11.8688
0.109832
11.7383
-0.489199
9.10844
-0.644544
6.85677
-0.508604
5.62298
-0.411385
5.40259
-0.304322
5.07157
-0.182995
4.96413
-0.0351097
4.89339
0.10439
4.87569
0.25756
4.88691
0.373443
4.97563
0.492952
5.03766
0.622906
5.45788
0.749483
5.68108
0.621792
6.71962
0.0286422
9.02167
-0.324221
11.717
-0.0572322
11.8296
0.0718448
12.0078
0.130963
10.6893
6.69805
0.0928988
6.68076
0.262711
10.6583
0.313167
12.0195
0.5709
11.6145
0.733784
11.5771
-0.0456072
9.89545
-0.46939
7.28317
-0.44547
5.59557
-0.372611
5.32848
-0.270962
4.96941
-0.145978
4.83889
-0.0320378
4.7792
0.0959766
4.74742
0.208665
4.77383
0.34347
4.84041
0.454254
4.92548
0.547142
5.36417
0.596369
5.63214
0.301236
7.01796
-0.509445
9.83266
-0.430907
11.6407
-0.155212
11.5536
-0.0960376
11.9467
-0.0236839
10.6162
6.68088
-0.119547
6.80255
-0.00977878
10.549
0.0955991
11.9134
0.354913
11.3471
0.622523
11.3023
0.0618882
10.4488
-0.407868
7.73745
-0.46676
5.65462
-0.383063
5.24534
-0.304364
4.89056
-0.216851
4.75139
-0.0939252
4.65594
0.0232278
4.62988
0.145606
4.65109
0.229996
4.75567
0.312247
4.84425
0.394531
5.2803
0.305532
5.7181
-0.180001
7.50197
-0.862069
10.5192
-0.54948
11.334
-0.311179
11.317
-0.243732
11.884
-0.0601687
10.4322
6.62734
0.0489904
6.7543
0.235201
10.359
0.289104
11.8569
0.469891
11.1735
0.859585
10.9154
0.697334
10.6221
0.00128766
8.43439
-0.301702
5.96335
-0.317888
5.26189
-0.216267
4.78756
-0.120175
4.65465
-0.0296681
4.56525
0.0791533
4.52079
0.170881
4.55905
0.278802
4.64718
0.355178
4.76756
0.385094
5.25204
0.114377
5.9912
-0.554872
8.16812
-0.774092
10.7339
-0.345368
10.9037
-0.134205
11.1069
-0.0939184
11.8423
0.0324849
10.306
6.66502
0.0623701
6.6935
0.293119
10.1302
0.403575
11.7518
0.576611
11.0072
0.841116
10.6506
0.964468
10.5006
0.306504
9.09405
-0.0802921
6.34471
-0.212346
5.39091
-0.159631
4.73426
-0.0980083
4.59332
-0.0165573
4.48304
0.0720074
4.43173
0.16096
4.46965
0.227251
4.58056
0.306716
4.68567
0.224476
5.3315
-0.167139
6.38436
-0.864876
8.86776
-0.706025
10.5761
-0.411746
10.61
-0.225672
10.9216
-0.1492
11.7651
0.0180096
10.1418
6.68766
-0.0265776
6.72094
0.142597
9.96649
0.262131
11.6366
0.39645
10.8602
0.616048
10.4262
1.02041
10.085
0.712538
9.3999
0.0660202
6.9871
-0.226219
5.68495
-0.187758
4.69716
-0.127407
4.53314
-0.0578518
4.41414
0.0111312
4.36246
0.0747928
4.40607
0.137482
4.51757
0.171857
4.65104
-0.101816
5.60358
-0.775267
7.05326
-1.221
9.31384
-0.763205
10.1189
-0.536381
10.3818
-0.411053
10.7964
-0.295263
11.6454
-0.0777552
9.92738
6.61407
-0.0259372
6.74598
0.224728
9.71673
0.41895
11.4473
0.526346
10.7608
0.739336
10.224
1.02153
9.80998
0.976099
9.45242
0.355936
7.61192
0.003074
6.039
-0.0993456
4.79849
-0.0621568
4.49564
-0.0118941
4.36274
0.034849
4.31546
0.0926013
4.34758
0.13327
4.47657
0.0661477
4.7188
-0.284114
5.95669
-0.88641
7.65433
-1.02233
9.45097
-0.698129
9.78843
-0.461962
10.1423
-0.35594
10.6891
-0.163825
11.4533
0.0715606
9.69468
6.68773
0.0185449
6.72763
0.27578
9.46514
0.538056
11.1894
0.616106
10.6835
0.782916
10.057
1.00093
9.59728
1.31784
9.13543
0.887906
8.03748
0.172957
6.75014
-0.0075886
4.97856
-0.0169693
4.50537
0.00638699
4.34026
0.032424
4.28921
0.0670776
4.31305
0.0664415
4.47676
-0.111176
4.89421
-0.82239
6.66547
-1.24808
8.07753
-0.952368
9.14895
-0.710917
9.54862
-0.518518
9.9493
-0.434023
10.6031
-0.189103
11.2074
0.0527995
9.45565
6.74114
-0.0294685
-0.838286
-0.0427694
-0.89036
-0.0625301
-0.931912
-0.0826655
-1.02075
-0.106303
-1.1146
-0.131018
-1.19878
-0.15511
-1.25235
-0.176036
-1.26147
-0.194023
-1.23693
-0.202545
-1.19644
-0.203499
-1.15748
-0.199796
-1.14215
-0.194299
-1.1403
-0.191901
-1.15806
-0.193194
-1.22031
-0.187523
-1.24382
-0.195509
-1.29824
-0.195646
-1.31713
-0.170085
-1.28689
-0.163295
-1.32384
-0.155788
-1.40072
-0.137215
-1.37118
-0.114178
-1.42366
-0.0993748
-1.47649
-0.0807303
-1.51492
-0.063129
-1.5547
-0.0462843
-1.58552
-0.0275802
-1.60477
-0.0100411
-1.59635
-1.59636
0.0339845
-0.868038
0.00944898
-0.863954
-0.00933365
-0.91642
-0.039307
-0.998012
-0.0645309
-1.09777
-0.0931523
-1.1808
-0.122033
-1.23761
-0.14769
-1.25236
-0.167167
-1.23418
-0.175647
-1.19828
-0.178491
-1.15783
-0.175279
-1.13699
-0.174606
-1.13256
-0.175535
-1.16746
-0.172878
-1.21232
-0.172767
-1.25684
-0.177534
-1.28784
-0.170344
-1.30265
-0.158732
-1.31534
-0.157363
-1.35442
-0.146479
-1.4064
-0.134259
-1.38777
-0.117103
-1.42909
-0.099574
-1.45929
-0.0828574
-1.49021
-0.0657519
-1.50772
-0.048854
-1.53457
-0.0309096
-1.56207
-0.0135637
-1.59106
-1.58719
-0.0083467
-0.855247
-0.0424617
-0.828841
-0.0725651
-0.890176
-0.104758
-0.972379
-0.137262
-1.07337
-0.172649
-1.15872
-0.200817
-1.22075
-0.22468
-1.24299
-0.239582
-1.2329
-0.242251
-1.20108
-0.236803
-1.16242
-0.229761
-1.14537
-0.22969
-1.13918
-0.227479
-1.17009
-0.221898
-1.2077
-0.219873
-1.25275
-0.217142
-1.2803
-0.195494
-1.28861
-0.190746
-1.33602
-0.185369
-1.39385
-0.166674
-1.3617
-0.155889
-1.40025
-0.136965
-1.43994
-0.116417
-1.4328
-0.0969777
-1.46509
-0.0778557
-1.48165
-0.056981
-1.51042
-0.0373862
-1.54288
-0.018006
-1.5667
-1.54986
-0.0386161
-0.812037
-0.0749903
-0.792251
-0.116112
-0.85338
-0.154671
-0.940434
-0.193999
-1.04159
-0.234535
-1.13195
-0.264245
-1.1948
-0.291135
-1.22802
-0.304025
-1.22936
-0.303727
-1.21252
-0.295461
-1.18377
-0.281884
-1.18134
-0.273885
-1.1697
-0.267194
-1.18842
-0.264622
-1.214
-0.260281
-1.24777
-0.247242
-1.26344
-0.230999
-1.30445
-0.227239
-1.36769
-0.207782
-1.38075
-0.193684
-1.36629
-0.1787
-1.41452
-0.159995
-1.41564
-0.138196
-1.44086
-0.115528
-1.46497
-0.0931732
-1.48432
-0.0691585
-1.51045
-0.0451958
-1.53303
-0.0229347
-1.5489
-1.52039
-0.0426389
-0.764845
-0.082946
-0.752385
-0.127602
-0.813287
-0.172301
-0.902475
-0.213313
-1.00541
-0.253597
-1.0953
-0.286991
-1.16876
-0.317935
-1.2128
-0.333172
-1.22729
-0.336616
-1.22658
-0.323476
-1.20904
-0.312883
-1.198
-0.300683
-1.18618
-0.294655
-1.19592
-0.289256
-1.21732
-0.277667
-1.24167
-0.257992
-1.26355
-0.245926
-1.31697
-0.236504
-1.34663
-0.213028
-1.3509
-0.200853
-1.36972
-0.181536
-1.40367
-0.165635
-1.40774
-0.14472
-1.44486
-0.121759
-1.45436
-0.0978688
-1.47971
-0.0741455
-1.50221
-0.0498519
-1.52357
-0.0257226
-1.5371
-1.49202
-0.0409513
-0.719473
-0.0891389
-0.705221
-0.139053
-0.767856
-0.188962
-0.859297
-0.233365
-0.961923
-0.280643
-1.05426
-0.321667
-1.13925
-0.350164
-1.19698
-0.361087
-1.22613
-0.361731
-1.23522
-0.353296
-1.22747
-0.341569
-1.21689
-0.32843
-1.20317
-0.31768
-1.20842
-0.307676
-1.2199
-0.290252
-1.24512
-0.274738
-1.26898
-0.259823
-1.30815
-0.245727
-1.33826
-0.226154
-1.32653
-0.211518
-1.37811
-0.190929
-1.39014
-0.173222
-1.41411
-0.150791
-1.42145
-0.12867
-1.44518
-0.103445
-1.47114
-0.0785646
-1.49059
-0.0537196
-1.50916
-0.0283059
-1.51206
-1.46285
-0.0479643
-0.667328
-0.0988875
-0.655741
-0.154023
-0.716737
-0.205682
-0.812796
-0.254189
-0.913758
-0.303999
-1.00534
-0.350738
-1.09808
-0.379997
-1.17013
-0.39368
-1.2114
-0.395876
-1.23435
-0.388383
-1.23877
-0.374527
-1.23346
-0.358025
-1.2221
-0.34322
-1.21855
-0.3285
-1.22732
-0.309843
-1.24872
-0.288621
-1.2754
-0.272941
-1.30306
-0.249082
-1.331
-0.236696
-1.34157
-0.219739
-1.3765
-0.199222
-1.38434
-0.177406
-1.41113
-0.157258
-1.4038
-0.133784
-1.43637
-0.108785
-1.45589
-0.0830241
-1.47747
-0.0571052
-1.49318
-0.0309934
-1.49339
-1.43587
-0.0532154
-0.610217
-0.109059
-0.601797
-0.169144
-0.660001
-0.223128
-0.761803
-0.275339
-0.861101
-0.328049
-0.952896
-0.377795
-1.05011
-0.409705
-1.13271
-0.426974
-1.18599
-0.432581
-1.22277
-0.426857
-1.24087
-0.413318
-1.24459
-0.393122
-1.23918
-0.371198
-1.23511
-0.350286
-1.23816
-0.330725
-1.25296
-0.306577
-1.27947
-0.289283
-1.30118
-0.265342
-1.32383
-0.2491
-1.331
-0.229616
-1.35992
-0.208529
-1.38578
-0.181871
-1.38411
-0.165022
-1.39931
-0.140184
-1.43473
-0.115519
-1.44058
-0.0886333
-1.46462
-0.061692
-1.47892
-0.0330564
-1.47465
-1.36914
-0.0614816
-0.544784
-0.11911
-0.546928
-0.177186
-0.605073
-0.237138
-0.703449
-0.293124
-0.803814
-0.349363
-0.899231
-0.399504
-0.997852
-0.434682
-1.08637
-0.45652
-1.15098
-0.46652
-1.20033
-0.463149
-1.23393
-0.449572
-1.25092
-0.426996
-1.25417
-0.400646
-1.25248
-0.375198
-1.25223
-0.351198
-1.26164
-0.327382
-1.28206
-0.30479
-1.3029
-0.2796
-1.31743
-0.260624
-1.3246
-0.238648
-1.35478
-0.214993
-1.37937
-0.187365
-1.37842
-0.171834
-1.41466
-0.142912
-1.42532
-0.122244
-1.4352
-0.0940907
-1.45387
-0.0656771
-1.46598
-0.0335508
-1.45652
-1.36903
-0.0632404
-0.477575
-0.124853
-0.487403
-0.185595
-0.546894
-0.247698
-0.64194
-0.306432
-0.742845
-0.364116
-0.843115
-0.415038
-0.941692
-0.453003
-1.03449
-0.4802
-1.10669
-0.494462
-1.16844
-0.494259
-1.21411
-0.481452
-1.24623
-0.458184
-1.26328
-0.429226
-1.26742
-0.399235
-1.26686
-0.370761
-1.27148
-0.344693
-1.28349
-0.319956
-1.30276
-0.29441
-1.31529
-0.271454
-1.32382
-0.245997
-1.35956
-0.212742
-1.3546
-0.196566
-1.37444
-0.175469
-1.42742
-0.149594
-1.40756
-0.128363
-1.42536
-0.100039
-1.44215
-0.0692988
-1.4513
-0.0342687
-1.4369
-1.35989
-0.065431
-0.408217
-0.128349
-0.426151
-0.191644
-0.485776
-0.25493
-0.578522
-0.314683
-0.680055
-0.372937
-0.783063
-0.424521
-0.882524
-0.467282
-0.976434
-0.495548
-1.053
-0.513312
-1.12415
-0.517734
-1.18048
-0.50864
-1.22525
-0.486837
-1.25554
-0.456993
-1.26883
-0.423408
-1.27388
-0.390792
-1.2779
-0.360952
-1.28592
-0.335145
-1.29833
-0.307266
-1.31334
-0.279217
-1.32485
-0.249545
-1.34917
-0.221126
-1.35341
-0.205169
-1.37298
-0.17524
-1.3966
-0.15641
-1.39872
-0.132922
-1.40456
-0.104848
-1.428
-0.072445
-1.42328
-0.0348302
-1.40101
-1.34304
-0.0646918
-0.338564
-0.130373
-0.361842
-0.196016
-0.422009
-0.259245
-0.514628
-0.318765
-0.616589
-0.377241
-0.721363
-0.428956
-0.821143
-0.471601
-0.912672
-0.501807
-0.992484
-0.523884
-1.0701
-0.533255
-1.13536
-0.528644
-1.19206
-0.510507
-1.23248
-0.481729
-1.25467
-0.445946
-1.27019
-0.409859
-1.27974
-0.376778
-1.28843
-0.347314
-1.296
-0.316883
-1.31207
-0.287011
-1.31844
-0.254509
-1.34264
-0.231929
-1.35912
-0.213641
-1.37155
-0.184231
-1.38943
-0.162631
-1.39081
-0.139396
-1.39597
-0.107865
-1.41194
-0.0720752
-1.34965
-0.0375973
-1.3444
-1.27026
-0.0685691
-0.26516
-0.132917
-0.29869
-0.198939
-0.357603
-0.261404
-0.451053
-0.320004
-0.555088
-0.377224
-0.659512
-0.428248
-0.757263
-0.47
-0.844417
-0.501283
-0.929287
-0.527602
-1.01046
-0.541064
-1.08293
-0.541726
-1.14812
-0.528325
-1.1994
-0.500765
-1.23469
-0.466312
-1.26183
-0.431263
-1.27772
-0.393126
-1.29247
-0.359109
-1.29796
-0.326472
-1.30608
-0.297123
-1.31791
-0.268577
-1.34479
-0.242643
-1.36033
-0.222037
-1.37098
-0.192081
-1.39233
-0.168272
-1.38832
-0.14226
-1.39269
-0.106898
-1.37436
-0.0731668
-1.3643
-0.0386158
-1.34285
-1.27956
-0.0695039
-0.190985
-0.13695
-0.232378
-0.198932
-0.297059
-0.260189
-0.389119
-0.318193
-0.494974
-0.373394
-0.598112
-0.421308
-0.694177
-0.461466
-0.776858
-0.494342
-0.866547
-0.523178
-0.948666
-0.540573
-1.02576
-0.546499
-1.09708
-0.538753
-1.15836
-0.517561
-1.20867
-0.488395
-1.24679
-0.454132
-1.27209
-0.413521
-1.29364
-0.369577
-1.30299
-0.334
-1.30112
-0.30629
-1.32274
-0.278001
-1.34015
-0.250739
-1.36158
-0.230359
-1.36976
-0.20063
-1.42697
-0.173027
-1.40955
-0.142237
-1.38968
-0.109179
-1.36936
-0.0742914
-1.36768
-0.0388541
-1.34812
-1.28061
-0.0704935
-0.115862
-0.137969
-0.165481
-0.197073
-0.23897
-0.257956
-0.328994
-0.314434
-0.436477
-0.36728
-0.537853
-0.411367
-0.632339
-0.448741
-0.713831
-0.48437
-0.801661
-0.514179
-0.886843