/*--------------------------------*- C++ -*----------------------------------*\
| =========                 |                                                 |
| \\      /  F ield         | OpenFOAM: The Open Source CFD Toolbox           |
|  \\    /   O peration     | Version:  2112                                  |
|   \\  /    A nd           | Website:  www.openfoam.com                      |
|    \\/     M anipulation  |                                                 |
\*---------------------------------------------------------------------------*/
FoamFile
{
    version     2.0;
    format      ascii;
    arch        "LSB;label=32;scalar=64";
    class       volScalarField;
    location    "0.00282";
    object      epsilon;
}
// * * * * * * * * * * * * * * * * * * * * * * * * * * * * * * * * * * * * * //

dimensions      [0 2 -3 0 0 0 0];

internalField   nonuniform List<scalar> 
13875
(
1.15995e+06
2.94658e+07
3.28088e+07
3.2855e+07
3.29671e+07
3.2866e+07
3.28666e+07
3.28936e+07
3.29203e+07
3.29209e+07
3.2878e+07
3.29183e+07
3.28942e+07
3.28588e+07
3.28945e+07
3.2945e+07
3.28923e+07
3.29048e+07
3.28632e+07
3.2854e+07
3.29519e+07
3.28334e+07
3.27961e+07
2.94678e+07
1.17814e+06
1.31382e+06
2.27507e+07
2.53465e+07
2.52524e+07
2.53119e+07
2.52195e+07
2.52084e+07
2.52245e+07
2.52458e+07
2.52574e+07
2.52257e+07
2.52503e+07
2.52197e+07
2.52194e+07
2.52342e+07
2.52753e+07
2.52355e+07
2.52431e+07
2.52067e+07
2.52088e+07
2.52979e+07
2.52208e+07
2.5322e+07
2.27464e+07
1.34276e+06
1.57302e+06
1.97097e+07
2.18239e+07
2.16382e+07
2.17022e+07
2.16305e+07
2.16143e+07
2.16175e+07
2.15555e+07
2.15729e+07
2.15488e+07
2.15709e+07
2.15952e+07
2.16279e+07
2.15637e+07
2.15756e+07
2.15481e+07
2.16316e+07
2.16136e+07
2.16216e+07
2.16925e+07
2.16009e+07
2.17843e+07
1.96865e+07
1.58521e+06
1.81381e+06
1.73879e+07
1.90338e+07
1.88901e+07
1.8967e+07
1.89078e+07
1.88896e+07
1.8891e+07
1.88123e+07
1.8825e+07
1.88077e+07
1.88238e+07
1.88617e+07
1.88977e+07
1.88231e+07
1.88171e+07
1.87974e+07
1.89032e+07
1.88907e+07
1.89002e+07
1.89593e+07
1.88576e+07
1.90093e+07
1.73659e+07
1.82108e+06
2.02305e+06
1.54547e+07
1.67689e+07
1.66291e+07
1.66993e+07
1.66505e+07
1.66342e+07
1.66312e+07
1.65599e+07
1.65672e+07
1.65537e+07
1.65594e+07
1.65953e+07
1.66363e+07
1.65628e+07
1.65536e+07
1.65434e+07
1.66414e+07
1.66373e+07
1.66445e+07
1.66935e+07
1.66044e+07
1.67402e+07
1.54328e+07
2.03673e+06
2.20707e+06
1.37161e+07
1.49266e+07
1.47459e+07
1.48237e+07
1.47759e+07
1.47566e+07
1.47457e+07
1.46781e+07
1.46797e+07
1.46701e+07
1.46689e+07
1.4698e+07
1.47458e+07
1.46735e+07
1.46604e+07
1.46609e+07
1.47546e+07
1.47615e+07
1.47716e+07
1.48189e+07
1.47294e+07
1.48998e+07
1.38518e+07
2.22296e+06
2.42362e+06
1.22564e+07
1.34768e+07
1.32145e+07
1.32622e+07
1.32068e+07
1.31799e+07
1.31594e+07
1.30947e+07
1.30881e+07
1.30833e+07
1.30794e+07
1.31022e+07
1.31542e+07
1.30839e+07
1.30674e+07
1.30798e+07
1.3169e+07
1.3187e+07
1.32035e+07
1.32556e+07
1.32016e+07
1.34204e+07
1.19557e+07
2.42983e+06
2.67002e+06
1.06263e+07
1.23183e+07
1.19865e+07
1.19978e+07
1.19153e+07
1.18676e+07
1.18321e+07
1.17675e+07
1.17506e+07
1.17458e+07
1.17409e+07
1.17584e+07
1.18139e+07
1.17447e+07
1.17246e+07
1.17518e+07
1.18396e+07
1.1874e+07
1.19093e+07
1.19859e+07
1.19756e+07
1.22638e+07
1.05445e+07
2.69627e+06
3.50399e+06
1.02214e+07
1.14925e+07
1.10496e+07
1.09554e+07
1.08487e+07
1.07797e+07
1.07287e+07
1.06653e+07
1.06393e+07
1.06275e+07
1.06237e+07
1.06376e+07
1.06933e+07
1.06265e+07
1.06055e+07
1.0646e+07
1.07328e+07
1.07869e+07
1.08415e+07
1.09505e+07
1.10341e+07
1.14829e+07
1.03468e+07
3.5811e+06
6.88422e+06
1.22783e+07
1.12353e+07
1.0435e+07
1.02461e+07
1.00627e+07
9.96538e+06
9.89575e+06
9.83472e+06
9.80177e+06
9.78199e+06
9.77703e+06
9.7892e+06
9.84059e+06
9.78208e+06
9.76453e+06
9.80749e+06
9.88919e+06
9.96638e+06
1.00536e+07
1.02266e+07
1.04138e+07
1.11891e+07
1.21553e+07
6.90211e+06
1.4959e+07
1.87648e+07
1.20905e+07
1.0474e+07
9.83169e+06
9.56449e+06
9.42776e+06
9.3337e+06
9.27233e+06
9.23297e+06
9.20753e+06
9.19921e+06
9.21092e+06
9.25104e+06
9.20869e+06
9.20087e+06
9.24152e+06
9.31801e+06
9.42128e+06
9.54922e+06
9.81888e+06
1.04206e+07
1.20061e+07
1.80938e+07
1.5085e+07
2.51613e+07
6.70352e+07
1.96451e+07
1.11672e+07
1.01475e+07
9.50599e+06
9.21659e+06
9.08035e+06
8.99712e+06
8.94561e+06
8.91789e+06
8.90418e+06
8.91175e+06
8.93978e+06
8.91568e+06
8.92574e+06
8.97322e+06
9.06309e+06
9.20512e+06
9.49211e+06
1.00818e+07
1.09245e+07
1.83971e+07
6.70543e+07
2.50923e+07
2.6435e+07
6.72905e+07
9.33967e+07
3.28644e+07
1.20583e+07
1.00806e+07
9.66412e+06
9.44552e+06
9.37018e+06
9.3123e+06
9.28797e+06
9.27715e+06
9.27556e+06
9.29435e+06
9.28667e+06
9.31128e+06
9.36981e+06
9.45879e+06
9.66682e+06
1.01805e+07
1.23997e+07
2.73752e+07
8.63978e+07
6.97395e+07
2.61691e+07
2.61821e+07
5.00596e+07
8.07768e+07
1.22833e+08
6.0465e+07
1.6737e+07
1.40659e+07
1.21975e+07
1.16545e+07
1.14312e+07
1.13975e+07
1.1333e+07
1.14026e+07
1.13771e+07
1.14343e+07
1.15075e+07
1.18036e+07
1.24024e+07
1.43906e+07
1.79876e+07
6.78061e+07
1.01575e+08
7.76352e+07
5.12914e+07
2.60471e+07
2.55092e+07
4.00604e+07
5.95605e+07
8.39372e+07
7.4734e+07
5.70098e+07
6.18443e+07
5.14942e+07
4.70697e+07
4.86159e+07
5.16256e+07
5.02332e+07
5.33834e+07
5.13439e+07
5.18049e+07
4.98714e+07
4.88153e+07
5.21295e+07
6.5093e+07
5.62578e+07
7.4869e+07
7.43585e+07
5.90046e+07
4.11532e+07
2.739e+07
2.58719e+07
3.36565e+07
5.04656e+07
6.90382e+07
7.28047e+07
9.319e+07
7.61692e+07
5.69021e+07
5.40352e+07
5.82897e+07
5.94087e+07
6.00235e+07
6.10176e+07
6.07068e+07
5.96396e+07
5.94478e+07
5.47254e+07
5.54422e+07
7.24161e+07
9.35434e+07
7.40237e+07
6.35755e+07
4.96922e+07
3.44527e+07
2.79081e+07
2.36439e+07
3.02683e+07
4.54331e+07
6.25955e+07
6.7211e+07
8.78349e+07
5.7274e+07
3.98988e+07
3.70466e+07
3.7874e+07
3.83862e+07
3.87941e+07
3.91843e+07
3.91637e+07
3.85897e+07
3.85085e+07
3.72471e+07
3.88738e+07
5.28115e+07
8.92041e+07
6.83272e+07
5.8034e+07
4.55838e+07
3.03558e+07
2.39953e+07
1.93102e+07
2.99523e+07
4.38896e+07
4.93748e+07
5.2012e+07
6.64642e+07
4.66962e+07
3.23827e+07
2.87818e+07
2.82868e+07
2.79506e+07
2.79539e+07
2.81141e+07
2.81355e+07
2.81413e+07
2.87111e+07
2.90431e+07
3.20232e+07
4.47715e+07
6.51526e+07
5.15788e+07
4.6026e+07
4.3667e+07
3.0632e+07
1.93354e+07
1.56541e+07
3.04161e+07
3.82145e+07
3.85067e+07
3.87083e+07
4.71449e+07
4.16954e+07
3.17682e+07
2.58166e+07
2.31509e+07
2.1814e+07
2.13325e+07
2.13138e+07
2.13963e+07
2.17589e+07
2.29947e+07
2.51101e+07
3.02866e+07
4.00683e+07
4.64936e+07
3.79088e+07
3.67597e+07
3.7656e+07
3.10154e+07
1.5695e+07
1.43361e+07
2.93693e+07
3.0818e+07
3.08285e+07
3.07094e+07
3.59257e+07
3.6135e+07
3.06384e+07
2.44236e+07
2.03422e+07
1.8093e+07
1.71587e+07
1.6984e+07
1.7203e+07
1.80266e+07
2.01219e+07
2.37764e+07
2.95425e+07
3.50912e+07
3.52521e+07
3.00315e+07
2.98529e+07
3.0545e+07
2.82918e+07
1.45802e+07
1.54388e+07
2.34416e+07
2.50509e+07
2.52196e+07
2.51872e+07
2.90861e+07
3.07729e+07
2.74526e+07
2.20614e+07
1.78268e+07
1.52195e+07
1.40258e+07
1.37656e+07
1.41052e+07
1.52578e+07
1.7764e+07
2.16962e+07
2.67533e+07
3.00755e+07
2.85763e+07
2.47415e+07
2.46564e+07
2.45104e+07
2.24546e+07
1.56945e+07
2.11494e+07
2.36316e+07
2.14103e+07
2.13855e+07
2.13036e+07
2.43676e+07
2.60845e+07
2.38358e+07
1.93737e+07
1.54451e+07
1.28406e+07
1.15799e+07
1.12705e+07
1.16516e+07
1.28801e+07
1.53751e+07
1.90266e+07
2.32139e+07
2.55299e+07
2.40585e+07
2.10046e+07
2.09669e+07
2.07282e+07
2.26835e+07
2.10132e+07
2.4449e+07
2.66924e+07
1.88829e+07
1.81952e+07
1.82456e+07
2.06347e+07
2.20277e+07
2.03452e+07
1.66825e+07
1.3248e+07
1.08451e+07
9.63654e+06
9.31209e+06
9.66382e+06
1.08109e+07
1.3072e+07
1.62321e+07
1.96874e+07
2.15085e+07
2.03866e+07
1.79703e+07
1.78265e+07
1.81257e+07
2.58747e+07
2.40195e+07
2.35983e+07
2.62251e+07
1.65013e+07
1.56833e+07
1.57158e+07
1.73888e+07
1.85431e+07
1.72343e+07
1.4107e+07
1.11754e+07
9.10665e+06
8.0553e+06
7.76632e+06
8.09092e+06
9.1091e+06
1.10659e+07
1.37481e+07
1.66852e+07
1.8146e+07
1.71854e+07
1.5548e+07
1.54693e+07
1.59586e+07
2.53053e+07
2.32095e+07
2.29524e+07
2.49778e+07
1.45608e+07
1.37277e+07
1.36496e+07
1.47674e+07
1.56841e+07
1.46081e+07
1.19789e+07
9.4895e+06
7.7041e+06
6.80138e+06
6.55098e+06
6.8353e+06
7.71804e+06
9.41309e+06
1.16891e+07
1.41456e+07
1.53548e+07
1.45917e+07
1.35194e+07
1.35859e+07
1.41947e+07
2.45503e+07
2.25458e+07
2.2231e+07
2.39035e+07
1.31913e+07
1.22188e+07
1.19702e+07
1.26853e+07
1.33314e+07
1.23818e+07
1.01839e+07
8.09335e+06
6.574e+06
5.8005e+06
5.57743e+06
5.82455e+06
6.57501e+06
8.00746e+06
9.89892e+06
1.19367e+07
1.30033e+07
1.25175e+07
1.18337e+07
1.20848e+07
1.28862e+07
2.35755e+07
2.16623e+07
2.15222e+07
2.30214e+07
1.20728e+07
1.09899e+07
1.06048e+07
1.09886e+07
1.13441e+07
1.04645e+07
8.64081e+06
6.9052e+06
5.63029e+06
4.98652e+06
4.79658e+06
5.01331e+06
5.65891e+06
6.88064e+06
8.46749e+06
1.01586e+07
1.1113e+07
1.08738e+07
1.04996e+07
1.09156e+07
1.18896e+07
2.3122e+07
2.13383e+07
2.13311e+07
2.22726e+07
1.12311e+07
9.94151e+06
9.52027e+06
9.6506e+06
9.75523e+06
8.91835e+06
7.3905e+06
5.94465e+06
4.87408e+06
4.32979e+06
4.16225e+06
4.35249e+06
4.90058e+06
5.92352e+06
7.23872e+06
8.64841e+06
9.53311e+06
9.5449e+06
9.42872e+06
9.88465e+06
1.10468e+07
2.21287e+07
2.09654e+07
2.15692e+07
2.11811e+07
1.04575e+07
9.02066e+06
8.59704e+06
8.55965e+06
8.4521e+06
7.65674e+06
6.36847e+06
5.15558e+06
4.25148e+06
3.78995e+06
3.64142e+06
3.80624e+06
4.26565e+06
5.12148e+06
6.21864e+06
7.39589e+06
8.2178e+06
8.4448e+06
8.50795e+06
8.96932e+06
1.02962e+07
2.06343e+07
2.06386e+07
2.10116e+07
2.00307e+07
9.805e+06
8.21383e+06
7.76426e+06
7.62052e+06
7.34158e+06
6.56909e+06
5.47583e+06
4.47078e+06
3.72246e+06
3.33894e+06
3.21053e+06
3.35986e+06
3.75631e+06
4.47973e+06
5.40207e+06
6.41131e+06
7.18449e+06
7.54313e+06
7.7005e+06
8.18314e+06
9.68388e+06
1.9745e+07
2.10127e+07
2.03048e+07
1.90331e+07
9.32486e+06
7.57419e+06
7.03163e+06
6.81562e+06
6.44575e+06
5.71919e+06
4.77765e+06
3.92401e+06
3.29026e+06
2.96415e+06
2.85097e+06
2.98289e+06
3.31689e+06
3.92723e+06
4.71031e+06
5.57716e+06
6.29741e+06
6.7354e+06
6.96117e+06
7.53863e+06
9.15868e+06
1.8743e+07
2.01501e+07
1.96589e+07
1.81871e+07
8.92598e+06
7.10136e+06
6.39208e+06
6.12154e+06
5.7118e+06
5.02215e+06
4.20193e+06
3.47021e+06
2.93219e+06
2.65143e+06
2.54909e+06
2.66692e+06
2.95156e+06
3.46704e+06
4.13622e+06
4.89006e+06
5.56713e+06
6.03462e+06
6.32277e+06
7.03943e+06
8.74638e+06
1.77603e+07
1.92166e+07
1.86589e+07
1.70533e+07
8.70678e+06
6.71809e+06
5.85165e+06
5.499e+06
5.06686e+06
4.4272e+06
3.71163e+06
3.08155e+06
2.62193e+06
2.3829e+06
2.2931e+06
2.40003e+06
2.646e+06
3.09182e+06
3.67527e+06
4.33301e+06
4.95483e+06
5.42715e+06
5.78869e+06
6.63822e+06
8.4682e+06
1.69298e+07
1.86294e+07
1.818e+07
1.5971e+07
8.49265e+06
6.45868e+06
5.41612e+06
4.98231e+06
4.53376e+06
3.94434e+06
3.30873e+06
2.76153e+06
2.36663e+06
2.15777e+06
2.07517e+06
2.1715e+06
2.38389e+06
2.76499e+06
3.27235e+06
3.85543e+06
4.4218e+06
4.90609e+06
5.35118e+06
6.34461e+06
8.37488e+06
1.58993e+07
1.78847e+07
1.77527e+07
1.50755e+07
8.07966e+06
6.26282e+06
5.08865e+06
4.54122e+06
4.07572e+06
3.53754e+06
2.97559e+06
2.49573e+06
2.14735e+06
1.96396e+06
1.88875e+06
1.97483e+06
2.15902e+06
2.49396e+06
2.93913e+06
3.45221e+06
3.96447e+06
4.46353e+06
5.02212e+06
6.16922e+06
8.12925e+06
1.48588e+07
1.73427e+07
1.69968e+07
1.39841e+07
7.56102e+06
6.09863e+06
4.8411e+06
4.17647e+06
3.68543e+06
3.17917e+06
2.67883e+06
2.25931e+06
1.9581e+06
1.79702e+06
1.72823e+06
1.80795e+06
1.97185e+06
2.26428e+06
2.65657e+06
3.11571e+06
3.58767e+06
4.10551e+06
4.76993e+06
6.05123e+06
7.6638e+06
1.39394e+07
1.68356e+07
1.65373e+07
1.30466e+07
7.08828e+06
6.09007e+06
4.66385e+06
3.89471e+06
3.36084e+06
2.88036e+06
2.43319e+06
2.06354e+06
1.79562e+06
1.6521e+06
1.58886e+06
1.66124e+06
1.80413e+06
2.06382e+06
2.40928e+06
2.8193e+06
3.26295e+06
3.82024e+06
4.58097e+06
6.04596e+06
7.13826e+06
1.29014e+07
1.62097e+07
1.62282e+07
1.21702e+07
6.63783e+06
5.96255e+06
4.57489e+06
3.68056e+06
3.10184e+06
2.62988e+06
2.22055e+06
1.89068e+06
1.65509e+06
1.52685e+06
1.46778e+06
1.53432e+06
1.66013e+06
1.88693e+06
2.19556e+06
2.5752e+06
3.01203e+06
3.60559e+06
4.50255e+06
5.92729e+06
6.62496e+06
1.19802e+07
1.58774e+07
1.57305e+07
1.13131e+07
6.09435e+06
5.63258e+06
4.52418e+06
3.5081e+06
2.89838e+06
2.41632e+06
2.03421e+06
1.73912e+06
1.52922e+06
1.41461e+06
1.36109e+06
1.4226e+06
1.53453e+06
1.73844e+06
2.01742e+06
2.37471e+06
2.82277e+06
3.43875e+06
4.48063e+06
5.6273e+06
6.10593e+06
1.12117e+07
1.56508e+07
1.5457e+07
1.06362e+07
5.58669e+06
5.29145e+06
4.63226e+06
3.41054e+06
2.74294e+06
2.25172e+06
1.87888e+06
1.60882e+06
1.42063e+06
1.31739e+06
1.26689e+06
1.32353e+06
1.42321e+06
1.60468e+06
1.86111e+06
2.21419e+06
2.67315e+06
3.33378e+06
4.59107e+06
5.27851e+06
5.5632e+06
1.0513e+07
1.52336e+07
1.52503e+07
1.01165e+07
5.17924e+06
4.92899e+06
4.60138e+06
3.38557e+06
2.62297e+06
2.12523e+06
1.75334e+06
1.49736e+06
1.3243e+06
1.23011e+06
1.18307e+06
1.23449e+06
1.32475e+06
1.4907e+06
1.7348e+06
2.09149e+06
2.56203e+06
3.33443e+06
4.5722e+06
4.91376e+06
5.10802e+06
9.97609e+06
1.49565e+07
1.48782e+07
9.63286e+06
4.7813e+06
4.54317e+06
4.36322e+06
3.45519e+06
2.53973e+06
2.02135e+06
1.65245e+06
1.40156e+06
1.23876e+06
1.15234e+06
1.10836e+06
1.15709e+06
1.2398e+06
1.39678e+06
1.63788e+06
1.99451e+06
2.51186e+06
3.46691e+06
4.31446e+06
4.53682e+06
4.79714e+06
9.54576e+06
1.47626e+07
1.46226e+07
9.23104e+06
4.4855e+06
4.17971e+06
4.07968e+06
3.55662e+06
2.53973e+06
1.94478e+06
1.57804e+06
1.32108e+06
1.16494e+06
1.08262e+06
1.04133e+06
1.08709e+06
1.16476e+06
1.31717e+06
1.56206e+06
1.91662e+06
2.53628e+06
3.54674e+06
4.01769e+06
4.17039e+06
4.46215e+06
9.11795e+06
1.44364e+07
1.44207e+07
8.8894e+06
4.30038e+06
3.87e+06
3.78052e+06
3.47091e+06
2.64553e+06
1.90555e+06
1.51306e+06
1.25923e+06
1.10443e+06
1.02278e+06
982214
1.02676e+06
1.10432e+06
1.25685e+06
1.4979e+06
1.88168e+06
2.69828e+06
3.44268e+06
3.70407e+06
3.85455e+06
4.22135e+06
8.72435e+06
1.42123e+07
1.42092e+07
8.50416e+06
4.07199e+06
3.59774e+06
3.48501e+06
3.27512e+06
2.85355e+06
1.92969e+06
1.46392e+06
1.2115e+06
1.05849e+06
972830
932188
977191
1.05878e+06
1.2107e+06
1.45387e+06
1.94617e+06
2.84887e+06
3.23994e+06
3.40676e+06
3.58778e+06
4.07003e+06
8.38871e+06
1.40402e+07
1.40301e+07
8.16079e+06
3.93819e+06
3.37178e+06
3.22489e+06
3.0774e+06
2.89771e+06
2.13108e+06
1.44604e+06
1.17154e+06
1.02308e+06
936245
892372
940374
1.02273e+06
1.1702e+06
1.43867e+06
2.11535e+06
2.79831e+06
3.02757e+06
3.15385e+06
3.35342e+06
3.89447e+06
8.01486e+06
1.3877e+07
1.3869e+07
7.86878e+06
3.84146e+06
3.19175e+06
3.01044e+06
2.87663e+06
2.74418e+06
2.32292e+06
1.53008e+06
1.1426e+06
989543
906072
860736
909884
990233
1.14126e+06
1.51651e+06
2.28865e+06
2.65576e+06
2.81684e+06
2.94412e+06
3.16459e+06
3.75356e+06
7.67626e+06
1.36964e+07
1.35364e+07
7.49502e+06
3.68918e+06
3.02991e+06
2.82531e+06
2.68642e+06
2.58179e+06
2.3253e+06
1.72046e+06
1.15141e+06
961258
878271
834375
882227
964470
1.16347e+06
1.72401e+06
2.28839e+06
2.50682e+06
2.63046e+06
2.76709e+06
3.00998e+06
3.65498e+06
7.34991e+06
1.33503e+07
1.30064e+07
7.08303e+06
3.54672e+06
2.88378e+06
2.66723e+06
2.52076e+06
2.41236e+06
2.22202e+06
1.89365e+06
1.24768e+06
949828
853645
811114
857388
955746
1.26034e+06
1.86105e+06
2.18644e+06
2.35037e+06
2.46795e+06
2.61563e+06
2.86273e+06
3.50232e+06
6.91989e+06
1.2808e+07
1.15374e+07
6.48145e+06
3.38701e+06
2.73615e+06
2.52526e+06
2.37605e+06
2.25513e+06
2.1055e+06
1.90142e+06
1.44563e+06
992060
840873
795602
843659
1.00018e+06
1.43922e+06
1.84058e+06
2.07022e+06
2.20309e+06
2.32906e+06
2.47803e+06
2.71228e+06
3.32724e+06
6.30288e+06
1.13906e+07
241495
156785
142794
138999
137187
136142
136126
137194
139353
142828
147905
154514
162620
172257
183559
196577
210557
218830
198235
179099
174093
172367
171559
170965
170433
169904
169373
169087
172436
288910
162419
123773
118442
117585
117345
117805
119053
121271
124371
128475
133778
140188
147678
156252
166021
177102
189352
202855
207019
161296
126766
119210
117617
116939
116457
116039
115576
115443
117358
158500
131469
109639
107148
107569
107921
109230
111335
114428
118278
122938
128522
135003
142470
150811
159787
169281
179255
189219
198292
192622
135621
104378
98627.9
97576.1
97182.3
96954.1
96728.3
96782.4
98534.5
123291
123834
104973
102945
103792
104341
106321
109104
113052
117786
123249
129469
136433
144149
152567
161838
171686
181452
190837
199506
206350
192321
123789
96167.6
91974.9
91271.1
91074.4
90976
91138.8
93058.9
114671
123200
104032
101992
103060
103820
106411
109850
114659
120319
126618
133417
140926
149109
157716
166703
176157
186330
196258
205020
213245
218899
192488
115459
92937
90034.9
89573.1
89467.9
89664.8
91678.6
112814
123676
103723
101847
102892
104080
107294
111599
117367
124001
131144
138451
146274
154889
163635
172670
181943
191606
201790
211673
220407
229037
232348
185762
107905
91340.1
89465.8
89168.5
89338.3
91375.9
112457
124145
103786
102227
103386
105227
109179
114390
121206
128886
136833
144632
152620
161359
170345
179370
188499
197867
207847
218423
228431
237449
246746
245007
170583
101258
90423.4
89267.4
89307.3
91326.8
112388
124780
104106
102958
104492
107245
112258
118664
126581
135154
143741
151934
159933
168756
177930
187063
196147
205425
215074
225588
236560
246688
256599
266387
253953
149359
96216.6
89879.1
89403.4
91343.7
112365
125735
104637
104085
106328
110294
116763
124682
133978
143680
153028
161571
169191
177612
186453
196003
204995
214222
223692
233797
244906
256308
266945
278350
287352
253183
128080
92976.1
89771.7
91411.4
112360
126724
105382
105649
109074
114782
123114
132963
143757
154493
164471
173289
180780
188118
196385
206012
215035
224173
233524
243308
254037
265927
278056
290017
303186
308079
232246
111698
91349.1
91629
112405
128131
106496
107785
113022
121378
132218
144375
156577
167944
178178
186769
193975
200382
207826
216821
226084
235034
244260
253850
264149
275951
289118
302512
316617
331679
324996
194474
100980
92430.4
112616
129743
107935
110771
118695
130499
144531
159303
172713
184121
193507
201546
208177
213743
220232
228121
237367
246147
255225
264742
274836
286407
299853
314796
330195
347368
363109
329583
153166
96680.8
113362
132438
110245
115209
126294
141713
158729
175625
190013
201325
209877
216830
222424
227219
232426
239007
247659
256480
265385
274939
285172
296718
310059
325763
343054
361374
382259
393374
298395
121919
116124
135224
113628
121686
136735
155998
175713
194035
208671
219294
226364
231489
235825
239523
243145
248482
256254
265300
273987
283639
294205
305941
319296
335326
354028
374377
396505
420290
414003
230545
128380
140468
119227
131140
150741
173582
195153
213754
227941
237089
242404
245695
248336
250273
251714
256137
263142
272061
280749
290485
301387
313341
327019
343254
362636
385168
409312
435971
461933
405464
185202
146131
127558
144216
168888
194403
216689
234605
246898
253688
256387
257752
258375
258563
259381
261722
268023
276488
285424
295216
306433
318614
332847
349307
368883
392563
419469
448018
482358
502057
400354
156894
139793
162442
191004
218112
239428
255045
263923
267538
267297
266486
265401
264488
264577
265355
270530
278573
287904
297633
309112
321633
336427
353131
372967
397152
425778
455948
495864
555986
708882
166150
156199
185419
217288
244069
262257
274049
279078
279046
275318
271791
269175
267479
267009
266749
270794
278606
288158
297601
309323
322398
337562
354747
375015
399580
428871
460613
510272
618615
1.06896e+06
181398
178045
213509
246373
271824
286037
294775
296022
289954
281035
275396
271885
269120
267735
266771
268406
276064
285701
295089
307045
320695
336052
353958
375161
400173
429097
466004
535839
725257
1.44944e+06
191909
207273
248310
281639
307046
322196
328424
321290
306915
292197
283261
277108
271212
264980
261659
261818
269261
279765
290960
303004
317060
332832
351085
373018
398985
425685
470989
568366
881225
1.78307e+06
211611
243984
292458
332300
377609
396240
394574
374817
348300
319306
300453
285194
272067
263534
258230
257007
263972
274366
285631
297877
312058
328423
347074
369162
395648
423296
476191
619489
1.05371e+06
1.89055e+06
233034
305815
370228
456510
533192
549610
536736
493178
436120
372412
331864
303552
284387
271583
263100
258529
263159
271824
281361
292588
306578
322808
342089
364162
390090
422160
486404
696681
1.21994e+06
1.9004e+06
283678
402807
558500
715477
820283
817481
795622
715490
589162
466538
392885
346086
314021
291728
276431
266327
266628
271760
278374
287713
301051
316893
336144
358412
383791
420670
500945
812790
1.40054e+06
1.85196e+06
354007
785931
892019
1.06066e+06
1.16153e+06
1.20199e+06
1.2107e+06
1.06263e+06
838084
631657
497342
417901
363456
325516
298250
280552
269621
269414
274133
283473
295534
311138
329972
352136
377617
419969
522214
970765
1.57476e+06
1.76542e+06
563437
2.15485e+06
1.70767e+06
1.48676e+06
1.55494e+06
1.61935e+06
1.69679e+06
1.55095e+06
1.2367e+06
900842
662032
524127
437677
374930
326718
295960
273331
271212
273007
280846
291780
306527
324506
346255
371661
420495
553436
1.16387e+06
1.63149e+06
1.68075e+06
288912
172437
169088
169376
169907
170436
170969
171562
172365
174061
178947
197620
218475
210451
196500
183491
172195
162569
154474
147868
142814
139350
137200
136140
136162
137213
139026
142812
156840
241666
158500
117358
115443
115576
116039
116456
116938
117610
119173
126515
160201
206319
202550
189105
176882
165827
156082
147531
140063
133673
128390
124304
121219
119013
117772
117318
117560
118418
123752
162416
123291
98534.8
96782.6
96728.5
96954.1
97181.6
97571.6
98601.9
104169
134557
191663
197798
188831
178916
168983
159522
150582
142272
134831
128374
122813
118174
114344
111268
109173
107870
107520
107102
109597
131469
114671
93058.9
91138.8
90975.9
91073.6
91267.5
91955.2
96002
122769
190990
205688
198984
190384
181056
171338
161532
152294
143908
136222
129287
123094
117658
112950
109023
106253
104281
103736
102891
104917
123754
112814
91678.5
89664.7
89467.3
89570.5
90020.6
92817.5
114565
190669
218073
212615
204450
195754
185886
175761
166345
157395
148826
140678
133204
126434
120168
114539
109755
106334
103753
102998
101933
103977
123115
112457
91376
89337.9
89166.6
89455.8
91260.8
107184
183484
231302
228286
219717
211053
201237
191106
181489
172259
163262
154556
145974
138187
130916
123813
117218
111481
107202
104008
102825
101783
103657
123637
112387
91326.4
89306
89260.8
90375.8
100734
168002
243622
245880
236648
227690
217758
207240
197306
187982
178897
169911
160972
152253
144283
136540
128644
121020
114257
109084
105152
103319
102159
103715
124009
112365
91342.9
89399.2
89850.9
95892.9
147079
252104
265417
255719
245836
235788
224883
214421
204817
195582
186542
177447
168322
159460
151571
143462
134930
126406
118526
112155
107169
104427
102892
104044
124742
112359
91408.9
89755.3
92799.1
126301
250274
286180
277391
265992
255419
244100
233053
222999
213575
204390
195445
185928
177136
168777
161228
152733
143439
133788
124530
116657
110225
106275
104039
104596
125688
112402
91619.6
91262.1
110645
228410
306686
302228
289036
277085
265041
253220
242554
232830
223529
214426
205460
195856
187662
180398
172958
164162
154233
143570
132828
123031
114743
109056
105646
105382
126671
112606
92389.9
100403
190639
323152
330784
315662
301494
288163
275083
263357
253130
243609
234440
225515
216319
207332
199906
193545
186416
177896
167644
156373
144287
132185
121393
113066
107844
106552
128181
113328
96425.6
150311
326749
362194
346518
329197
313796
298941
285579
274087
264082
254640
245630
236873
227678
219789
213175
207630
201085
193158
183838
172558
159481
144739
130711
118880
110912
108060
129845
115985
120565
293884
392314
381572
360484
342066
324830
309205
295947
284489
274337
264845
256018
247235
238585
231977
226348
221467
216086
209567
201295
190066
175939
159076
142053
126605
115453
110450
132669
127740
226304
412347
419836
395831
373479
353133
334481
318509
305226
293575
283086
273469
264844
255853
248038
242345
239285
235613
231383
226318
219614
209146
194427
176146
156438
137137
122054
113929
135584
181976
402050
461560
435608
408636
384375
361839
342474
326287
312671
300779
289947
280252
271599
262735
255525
251655
249998
248448
245778
242736
237830
228756
214391
195765
174198
151293
131628
119634
141003
393843
501347
482319
447675
418880
391874
368152
348576
332153
317976
305846
294704
284969
276049
267671
261286
259536
258769
258755
258150
257040
254501
247677
235379
217206
195077
169616
144830
128015
146802
702617
555851
496003
455788
425344
396550
372313
352472
335808
321074
308602
297202
287542
278220
270372
265341
264998
264755
265878
267027
268175
268439
264648
255825
240006
218795
191814
163031
140486
157693
1.06525e+06
618332
510422
460542
428549
399048
374445
354196
337058
321945
308930
297294
287899
278344
270951
267024
267569
268159
269893
272614
276213
279938
279473
274803
262839
244730
218169
186389
157183
167027
1.45046e+06
725220
535937
465967
428852
399735
374662
353536
335672
320354
306750
294845
285471
275900
268670
267102
268325
269785
273126
276744
282412
290988
296285
295537
286902
272955
247513
214818
179149
182175
1.78766e+06
882316
568431
470992
425545
398708
372625
350748
332521
316790
302740
290659
279630
269272
262002
262271
265622
271423
277983
284398
293749
308546
322560
330078
324208
309876
283502
250226
208751
192774
1.89653e+06
1.05671e+06
619787
476235
423147
395522
368928
346808
328166
311780
297564
285267
274250
264033
257472
259295
264604
273170
286329
300986
321415
350873
377483
399387
401688
382794
335376
295421
246050
212423
1.90681e+06
1.22515e+06
697513
486644
422089
389816
363979
341814
322472
306133
292110
280876
271607
263204
259015
264340
272855
285904
305794
333041
376225
440896
499097
544394
558676
546452
464234
374704
309225
234071
1.85826e+06
1.40826e+06
814543
501338
420749
383733
358161
335786
316390
300428
287034
277799
271357
266648
266574
277613
293019
315668
349313
394777
472807
600152
728429
811385
826469
828783
730969
571580
408802
285943
1.77119e+06
1.58561e+06
974319
522849
420051
377508
351805
329455
310523
294985
282881
274037
268707
269520
280453
298869
326963
365371
422305
499433
638797
856987
1.08827e+06
1.23148e+06
1.21474e+06
1.17042e+06
1.0778e+06
913501
804926
357784
1.68677e+06
1.63998e+06
1.17017e+06
554478
420463
371266
345740
323839
305878
291359
280736
273018
271177
273772
296405
327890
377329
440173
531296
663988
911518
1.26434e+06
1.5872e+06
1.70812e+06
1.63031e+06
1.57275e+06
1.50998e+06
1.75235e+06
2.18754e+06
574164
111765
111762
111767
111771
111775
111780
111784
111788
111792
111796
111800
111805
111809
111813
111817
111821
111825
111829
111833
111837
111841
111845
111849
111853
111857
111861
111865
111869
111873
111877
111881
111884
111888
111892
111896
111900
111903
111907
111911
111915
111918
111922
111926
111929
111933
111936
111940
111943
111947
111950
111954
111957
111961
111964
111973
112079
114170
163594
858649
3.15273e+06
5.65802e+06
7.72061e+06
9.62812e+06
1.06252e+07
1.04338e+07
1.00367e+07
9.6105e+06
9.14424e+06
8.50335e+06
7.75439e+06
7.02553e+06
6.39602e+06
5.85708e+06
5.38686e+06
4.97422e+06
4.61247e+06
4.29478e+06
4.01276e+06
3.76343e+06
3.54055e+06
3.33499e+06
3.14198e+06
2.96197e+06
2.79296e+06
2.63689e+06
2.49457e+06
2.36352e+06
2.24124e+06
2.12731e+06
2.02201e+06
1.92543e+06
1.83669e+06
1.75472e+06
1.67819e+06
1.60658e+06
1.53986e+06
1.47735e+06
1.42413e+06
1.37986e+06
1.34298e+06
1.31177e+06
1.28478e+06
1.26226e+06
1.24448e+06
1.23073e+06
1.22017e+06
1.21232e+06
1.20671e+06
1.20332e+06
1.20179e+06
1.20296e+06
1.20755e+06
1.21504e+06
1.22576e+06
1.24062e+06
1.25954e+06
1.28282e+06
1.31106e+06
1.34425e+06
1.3804e+06
1.41791e+06
1.45773e+06
1.50165e+06
1.55672e+06
1.61096e+06
91836.8
91830.4
91827.2
91824.2
91821.3
91818.4
91815.4
91812.5
91809.5
91806.5
91803.5
91800.4
91797.4
91794.3
91791.3
91788.2
91785.1
91781.9
91778.8
91775.6
91772.5
91769.3
91766.1
91762.9
91759.7
91756.4
91753.2
91749.9
91746.6
91743.3
91740
91736.7
91733.4
91730
91726.7
91723.3
91719.9
91716.5
91713.1
91709.7
91706.3
91702.8
91699.4
91695.9
91692.4
91689
91685.5
91682
91678.4
91674.9
91671.4
91667.8
91664.4
91665
91766.1
101432
527688
3.53448e+06
6.49677e+06
7.22396e+06
6.90116e+06
6.67084e+06
6.5775e+06
6.73097e+06
7.0506e+06
7.47583e+06
8.01687e+06
8.70247e+06
9.70431e+06
1.03503e+07
1.02874e+07
9.95156e+06
9.40352e+06
8.66857e+06
7.90625e+06
7.17946e+06
6.50563e+06
5.9009e+06
5.37686e+06
4.94822e+06
4.58568e+06
4.27138e+06
3.99028e+06
3.73631e+06
3.50926e+06
3.30511e+06
3.11901e+06
2.94993e+06
2.79797e+06
2.66044e+06
2.5342e+06
2.41654e+06
2.30853e+06
2.21026e+06
2.11892e+06
2.03319e+06
1.95501e+06
1.88477e+06
1.82552e+06
1.77446e+06
1.72716e+06
1.68196e+06
1.64059e+06
1.60344e+06
1.57186e+06
1.54498e+06
1.52141e+06
1.49987e+06
1.47953e+06
1.45984e+06
1.44163e+06
1.42528e+06
1.41163e+06
1.40176e+06
1.39627e+06
1.39582e+06
1.39959e+06
1.407e+06
1.41801e+06
1.43794e+06
1.46492e+06
1.49288e+06
1.52234e+06
1.5576e+06
1.60329e+06
89488
89484.9
89482.6
89480.5
89478.4
89476.3
89474.2
89472.1
89470
89467.9
89465.9
89463.8
89461.7
89459.7
89457.7
89455.6
89453.6
89451.6
89449.6
89447.6
89445.6
89443.6
89441.6
89439.6
89437.6
89435.7
89433.7
89431.8
89429.8
89427.9
89425.9
89424
89422.1
89420.2
89418.3
89416.4
89414.5
89412.6
89410.7
89408.9
89407
89405.1
89403.3
89401.4
89399.6
89397.8
89395.9
89394.1
89392.3
89390.5
89388.7
89387.1
89390
89556.9
109941
964465
4.9074e+06
7.12249e+06
6.86545e+06
6.0403e+06
5.29789e+06
4.73995e+06
4.31291e+06
4.05693e+06
3.9634e+06
4.01407e+06
4.22141e+06
4.64096e+06
5.31905e+06
6.29103e+06
7.50771e+06
8.97857e+06
1.06102e+07
1.21684e+07
1.34543e+07
1.37143e+07
1.33132e+07
1.2567e+07
1.14845e+07
1.00535e+07
8.77471e+06
7.75679e+06
6.94274e+06
6.25977e+06
5.68005e+06
5.18911e+06
4.76646e+06
4.40639e+06
4.10586e+06
3.8519e+06
3.62891e+06
3.42945e+06
3.24855e+06
3.08573e+06
2.93742e+06
2.80165e+06
2.67885e+06
2.56837e+06
2.4699e+06
2.38341e+06
2.30594e+06
2.23295e+06
2.16468e+06
2.10796e+06
2.0615e+06
2.02155e+06
1.9858e+06
1.95326e+06