/*--------------------------------*- C++ -*----------------------------------*\
| =========                 |                                                 |
| \\      /  F ield         | OpenFOAM: The Open Source CFD Toolbox           |
|  \\    /   O peration     | Version:  2112                                  |
|   \\  /    A nd           | Website:  www.openfoam.com                      |
|    \\/     M anipulation  |                                                 |
\*---------------------------------------------------------------------------*/
FoamFile
{
    version     2.0;
    format      ascii;
    arch        "LSB;label=32;scalar=64";
    class       volVectorField;
    location    "0.00922";
    object      U;
}
// * * * * * * * * * * * * * * * * * * * * * * * * * * * * * * * * * * * * * //

dimensions      [0 1 -1 0 0 0 0];

internalField   nonuniform List<vector> 
13875
(
(2204.17 109.694 1.81272e-18)
(2142.46 5.62539 -9.38749e-19)
(2170.25 -2.16764 -9.41104e-19)
(2167.84 -0.757189 0)
(2170.43 0.0565791 0)
(2169.57 -1.28145 9.36742e-19)
(2169.4 -1.079 -9.37122e-19)
(2169.74 -0.091864 -4.68524e-19)
(2169.23 -0.127076 4.68317e-19)
(2169.48 -0.0846664 0)
(2169.63 0.361258 -3.88145e-22)
(2169.44 1.05487 -3.88109e-22)
(2169.59 0.939164 0)
(2169.4 -0.0160173 -4.6822e-19)
(2169.45 -0.922567 4.6859e-19)
(2169.61 -1.29186 0)
(2169.87 -0.264337 9.37053e-19)
(2169.22 0.349245 -9.378e-19)
(2169.14 0.943813 3.87943e-22)
(2169.81 1.18846 -3.85758e-22)
(2170.45 -0.163138 -9.36288e-19)
(2167.84 0.302661 9.37173e-19)
(2171.1 2.50126 -1.87815e-18)
(2143.5 -8.61008 1.91668e-18)
(2209.97 -106.732 1.76527e-18)
(2253.39 91.9346 -1.63245e-18)
(2228.45 -1.16577 1.88337e-18)
(2247.4 0.66291 8.71811e-19)
(2245.44 0.906319 -8.67207e-19)
(2248.48 -0.663456 4.1693e-22)
(2247.53 1.94756 5.20295e-22)
(2245.91 1.34079 4.16118e-22)
(2245.48 0.0735861 -4.35769e-19)
(2245.11 0.182069 4.36018e-19)
(2245.19 0.116729 2.17542e-19)
(2245.43 -0.308382 -1.62944e-19)
(2245.43 -1.23837 -5.31429e-20)
(2247.66 -1.15611 0)
(2247.84 0.0658118 -4.34987e-19)
(2247.56 1.03064 4.33457e-19)
(2245.59 1.43106 4.36028e-19)
(2245.51 0.501886 -4.35305e-19)
(2245.2 -0.242531 5.18488e-22)
(2245.69 -1.56562 -5.18693e-22)
(2247.84 -1.97329 5.1979e-22)
(2248.4 0.743135 -8.71463e-19)
(2245.58 -0.705206 2.59977e-18)
(2247.29 -1.56447 -1.74252e-18)
(2228.79 3.64326 5.4305e-22)
(2256.47 -97.3406 -1.71427e-18)
(2252.4 78.1238 0)
(2236.33 -18.2389 0)
(2249.49 4.44257 0)
(2250.53 -1.83072 0)
(2253.49 -2.42654 -1.63937e-18)
(2253.03 1.57379 1.64244e-18)
(2253.23 2.10711 1.72333e-18)
(2253.1 0.649573 -2.58238e-18)
(2252.88 0.160167 8.61926e-19)
(2253.41 -0.19747 4.30324e-22)
(2253.59 -0.0120267 -4.30781e-19)
(2253.1 -2.16843 4.30044e-19)
(2254.07 -2.50866 0)
(2253.98 0.0135655 0)
(2254.04 2.35708 4.08175e-22)
(2253.19 2.00052 0)
(2254.07 0.222098 8.38103e-22)
(2253.12 -0.291641 4.30553e-19)
(2253.1 -2.51415 -4.3068e-19)
(2253.54 -1.75608 0)
(2253.72 2.35241 0)
(2250.92 1.30468 0)
(2250.7 -4.77791 0)
(2238.02 13.7517 0)
(2257.43 -74.3116 0)
(2247.86 51.3621 0)
(2235.04 -28.6697 1.81427e-18)
(2249.28 7.23344 -3.417e-18)
(2251.52 -4.67345 3.46635e-18)
(2253.28 -2.87534 -1.63283e-18)
(2252.95 1.34958 0)
(2253.63 1.53394 -8.37412e-22)
(2253.84 0.318816 0)
(2254 -0.519475 0)
(2254.44 -0.549843 0)
(2254.52 0.156752 0)
(2254.24 -1.93918 -8.4411e-22)
(2254.05 -2.41393 -5.08754e-20)
(2253.96 -0.0156863 5.08048e-20)
(2254 2.27085 0)
(2254.26 1.79931 0)
(2254.74 0.265807 7.99425e-22)
(2254.17 0.389036 -8.57047e-19)
(2253.82 -1.75525 8.56236e-19)
(2253.43 -1.49055 -1.62395e-18)
(2253.56 2.74628 1.62356e-18)
(2251.98 4.31609 1.7409e-18)
(2249.75 -8.86072 -1.72065e-18)
(2235.85 31.2217 0)
(2251.9 -58.4009 0)
(2244.88 39.2859 1.74899e-18)
(2235.44 -47.8528 0)
(2248.75 10.5272 0)
(2250.29 -7.57832 0)
(2253.44 -3.96345 0)
(2253.05 0.873031 1.67964e-21)
(2253.34 1.14289 1.67116e-21)
(2253.87 -0.22377 4.33013e-19)
(2253.98 -0.856563 -4.30358e-19)
(2254.41 -0.729951 2.12666e-19)
(2254.5 0.307681 -2.16422e-19)
(2254.26 -1.47226 0)
(2254.07 -2.18777 0)
(2253.89 -0.0313203 -1.66163e-21)
(2254.05 2.07294 0)
(2254.3 1.34932 -1.68504e-21)
(2254.71 0.27578 8.07459e-19)
(2254 0.720781 -8.50549e-19)
(2253.5 -1.24254 1.71569e-18)
(2253.54 -0.837739 -1.6909e-18)
(2253.61 3.7604 1.65344e-21)
(2250.68 6.44862 0)
(2250.03 -11.5416 0)
(2237.29 42.7057 0)
(2250.34 -35.5865 0)
(2241.5 6.7599 0)
(2231.54 -63.5924 9.1245e-19)
(2247.21 12.3491 -8.47599e-19)
(2250.84 -11.0724 0)
(2252.49 -4.62631 8.57034e-19)
(2252.66 0.32543 -4.37153e-19)
(2253.48 0.444825 -2.78239e-21)
(2253.89 -0.701595 -2.18466e-19)
(2254.09 -1.46623 -4.33971e-19)
(2254.38 -1.14084 1.62979e-19)
(2254.45 0.390208 1.65586e-21)
(2254.2 -1.15041 2.68538e-19)
(2253.95 -1.99846 -2.15354e-19)
(2253.76 -0.106428 3.36448e-21)
(2253.88 1.8824 -4.27184e-19)
(2254.21 1.1497 4.33286e-19)
(2254.64 0.334374 1.63739e-21)
(2254.11 1.32644 -1.68356e-21)
(2253.73 -0.365678 -1.67954e-21)
(2252.96 -0.366942 -8.58871e-19)
(2252.77 4.1343 8.4616e-19)
(2251.44 10.6766 0)
(2247.37 -15.1853 0)
(2232.43 65.2896 -1.93284e-18)
(2245.94 -18.8014 -1.26201e-19)
(2254.03 2.90657 -4.95256e-20)
(2227.5 -79.3291 6.02415e-20)
(2243.07 12.3227 0)
(2248.48 -15.4974 -2.69194e-23)
(2252.13 -6.4338 -2.61885e-23)
(2252.46 -0.716718 0)
(2252.9 -0.120683 0)
(2253.76 -1.46866 -8.63725e-19)
(2254.02 -1.75045 8.63524e-19)
(2254.17 -1.18899 0)
(2254.28 0.578102 1.68574e-18)
(2254.1 -0.571162 4.71566e-21)
(2253.87 -1.54565 -1.72183e-18)
(2253.61 -0.105519 -1.71272e-21)
(2253.87 1.44695 0)
(2254.18 0.686157 3.44598e-18)
(2254.42 0.382466 1.77295e-21)
(2253.75 1.70302 -6.90577e-18)
(2253.09 0.279286 3.4506e-18)
(2252.83 0.954951 2.64054e-23)
(2252.28 6.10559 0)
(2248.52 12.9631 3.52735e-18)
(2244.19 -12.5186 -3.30763e-18)
(2228.91 72.9662 3.81558e-18)
(2247.09 2.91868 -3.18229e-18)
(2218.38 -22.8373 -3.16856e-19)
(2214.72 -87.4622 -7.4962e-18)
(2235.68 3.5897 8.70607e-22)
(2246.08 -22.2826 2.61171e-23)
(2248.79 -8.63948 -8.08434e-22)
(2251.1 -2.23367 0)
(2252.66 -1.43713 -3.43057e-18)
(2253.45 -2.30163 3.46184e-18)
(2253.81 -2.34117 0)
(2253.86 -1.53135 -8.31609e-22)
(2253.97 0.496819 -8.25301e-22)
(2253.84 -0.269319 0)
(2253.56 -1.29383 0)
(2253.31 -0.107421 -1.66122e-21)
(2253.48 1.26095 -8.38517e-22)
(2253.93 0.530562 2.60053e-23)
(2254.13 0.693433 -8.56412e-22)
(2253.52 2.44534 -2.62898e-23)
(2252.91 1.72815 -1.73214e-18)
(2251.4 2.39709 -1.62384e-20)
(2249.25 8.05666 1.68873e-18)
(2246.39 19.3967 8.85519e-22)
(2236.71 -4.79361 3.459e-18)
(2216.53 81.5679 -3.53871e-18)
(2222.32 18.1615 2.50308e-23)
(2113.31 -37.8571 9.42597e-19)
(2168.65 -98.608 0)
(2217.14 -20.1214 -8.31489e-22)
(2235 -32.2143 -8.65608e-19)
(2245.82 -17.3424 1.70992e-18)
(2248.94 -6.21707 -1.72563e-18)
(2250.97 -3.15444 9.09774e-21)
(2252.68 -3.28235 8.6048e-19)
(2253.06 -2.60165 0)
(2253.13 -1.51165 -8.46633e-19)
(2253.26 0.654181 8.46787e-19)
(2253.36 0.452464 0)
(2253.04 -0.692112 0)
(2252.71 -0.201846 2.10447e-21)
(2252.97 0.549736 8.34075e-22)
(2253.31 0.0452189 8.42066e-19)
(2253.33 0.908252 -8.44609e-19)
(2252.54 3.25083 0)
(2251.25 3.35565 8.60636e-19)
(2249.47 6.04616 -1.72865e-18)
(2246.23 15.1624 8.44943e-19)
(2236.18 28.8862 -8.40852e-22)
(2219.02 16.6709 0)
(2171.33 94.0042 0)
(2117.18 35.3509 0)
(1873.64 -142.212 -6.57026e-17)
(2125.78 -161.344 8.42431e-17)
(2198.96 -54.7383 0)
(2229.34 -54.0845 -2.99406e-17)
(2239.77 -21.5378 3.06956e-17)
(2246.47 -10.5146 0)
(2249.66 -7.13385 -2.95833e-20)
(2251.28 -5.38496 -1.47579e-17)
(2251.61 -3.4153 1.46982e-17)
(2251.78 -2.00445 -2.93364e-20)
(2252.04 0.121712 0)
(2252.21 0.560778 -3.71061e-18)
(2251.91 -0.276945 5.58984e-18)
(2251.52 -0.187985 -1.89667e-18)
(2251.72 0.405565 -2.92463e-20)
(2252.04 0.375193 0)
(2251.92 1.7789 0)
(2250.96 5.02284 -2.94836e-17)
(2249.44 7.52602 2.90891e-17)
(2246.68 10.2711 -3.06023e-17)
(2240.46 20.4903 2.9183e-17)
(2229.39 53.0055 3.22077e-17)
(2199.86 52.4993 -2.92241e-17)
(2128.69 161.872 -8.33846e-17)
(1884.78 138.345 -1.25723e-17)
(1653.18 -215.584 -9.0836e-17)
(2011.62 -307.624 1.37593e-16)
(2159.72 -104.398 0)
(2211.04 -64.6401 6.82313e-17)
(2232.88 -29.0993 -7.07092e-17)
(2241.95 -15.0609 -3.39665e-17)
(2245.5 -8.00625 3.40955e-17)
(2248.24 -5.35111 -3.34938e-17)
(2248.74 -2.56848 3.35043e-17)
(2249.12 -1.21465 3.25345e-20)
(2249.62 0.549752 0)
(2249.9 1.20575 -2.11568e-18)
(2249.68 0.467366 2.16612e-18)
(2249.2 -0.200058 3.31699e-20)
(2249.3 -0.494847 3.27414e-20)
(2249.42 -0.412148 3.27832e-20)
(2249.17 0.915949 0)
(2248.03 4.57666 0)
(2245.08 7.60188 -6.77164e-17)
(2242.27 15.3902 6.81643e-17)
(2233.69 26.953 -7.1363e-17)
(2211.52 59.0307 1.47098e-16)
(2166.08 99.4398 -6.99454e-17)
(2016.78 298.599 -3.86832e-20)
(1698.01 206.015 8.7531e-20)
(1281.75 -592.671 -1.08919e-16)
(1742.37 -590.88 1.18897e-16)
(2046.97 -180.602 2.16758e-16)
(2174.26 -106.397 -9.34872e-17)
(2208.62 -36.434 0)
(2230.01 -20.6484 7.42559e-17)
(2238.49 -14.143 -7.55498e-17)
(2242 -8.22794 0)
(2242.97 -4.69041 3.55047e-20)
(2243.82 -2.82082 0)
(2244.57 -0.562267 0)
(2244.89 0.910123 0)
(2244.82 0.973113 4.65683e-18)
(2244.31 0.163149 -4.65812e-18)
(2244.26 -0.0106839 -3.7213e-20)
(2244.02 0.754082 -3.53219e-20)
(2243.41 2.81509 0)
(2241.75 7.29029 0)
(2238.05 13.9623 0)
(2228.47 19.0614 -7.89304e-17)
(2211.51 37.2499 1.5691e-16)
(2176.41 102.632 -7.23248e-17)
(2052.72 161.772 -1.33646e-16)
(1750.22 592.11 1.00499e-16)
(1286.18 543.593 -5.99379e-20)
(1302.14 -610.424 1.60754e-16)
(1113.72 -1086.52 0)
(1703.1 -453.148 0)
(1928.71 -130.104 -1.08195e-16)
(2150.66 -85.0953 1.09343e-16)
(2201.46 -43.8244 0)
(2216.12 -14.4637 1.1289e-20)
(2224.5 -6.07513 4.03371e-17)
(2227.93 -1.94546 -4.08663e-17)
(2230.57 -0.780036 0)
(2232.04 0.781687 -1.00941e-17)
(2232.56 1.58649 1.01252e-17)
(2232.75 1.66107 -5.06831e-18)
(2232.26 0.581347 5.08228e-18)
(2231.87 -0.557821 3.86294e-20)
(2230.71 -1.11689 -4.06025e-17)
(2228.28 -0.139161 8.0463e-17)
(2223.73 4.33617 1.05014e-18)
(2214.19 13.5763 -4.0413e-17)
(2197.93 45.1476 -9.08644e-17)
(2134.04 72.1611 8.43626e-17)
(1912.56 109.647 8.25344e-20)
(1758.86 455.386 2.60554e-20)
(1103.72 1071.09 1.67462e-16)
(1319.53 612.395 7.17522e-18)
(1359.08 -629.434 0)
(1143.19 -1059.5 0)
(1292.63 -752.127 0)
(1195.7 -814.212 0)
(1954.98 -257.069 0)
(2048.76 -61.9358 1.02296e-16)
(2157.11 -46.1808 -1.0421e-16)
(2176.04 -30.19 1.1503e-19)
(2184.68 -18.9812 -1.03128e-20)
(2191.74 -10.5184 2.25943e-17)
(2194.45 -4.41148 -2.28498e-17)
(2195.49 -0.509239 -2.25398e-19)
(2195.87 1.35078 -7.06298e-19)
(2195.38 2.13675 8.02383e-19)
(2194.59 3.83626 -2.26492e-17)
(2192.16 8.29698 2.24044e-17)
(2185.53 17.3806 9.90232e-20)
(2174.75 31.6794 0)
(2149.5 51.7992 0)
(2017.11 86.3903 0)
(1918.68 324.019 -2.11368e-16)
(1168.03 812.438 -6.18631e-17)
(1297.03 702.064 1.64024e-16)
(1135.52 1023.04 2.05606e-20)
(1368.94 618.986 2.08616e-20)
(1437.13 -621.07 0)
(1273.44 -927.527 3.94239e-20)
(1321.62 -784.92 0)
(1234.74 -859.583 -1.68148e-16)
(1334.4 -802.357 3.19062e-16)
(1638.74 -558.514 -2.04067e-16)
(1940.51 -122.076 0)
(1960.03 -13.9043 -1.02438e-19)
(2007.39 14.9412 0)
(2044.66 8.58589 0)
(2056.73 5.83507 -1.4082e-17)
(2060.82 2.94716 1.43984e-17)
(2062.04 2.27628 1.41778e-17)
(2061.41 1.73263 -1.42477e-17)
(2059.07 0.140551 0)
(2050.51 -3.69781 -5.86081e-17)
(2018.65 -9.35623 5.907e-17)
(1963.17 18.2065 7.11489e-17)
(1937.5 143.547 -5.96318e-17)
(1595.61 587.801 0)
(1308.79 794.591 0)
(1203.3 850.684 -1.72011e-19)
(1331.36 778.969 -1.70915e-16)
(1266.98 918.107 3.66706e-16)
(1425.28 619.029 -1.69426e-16)
(1519.55 -630.978 -1.69197e-16)
(1387.67 -856.169 1.86932e-16)
(1384.47 -759.673 0)
(1280.46 -819.159 -1.9011e-16)
(1307.35 -782.928 -6.26818e-18)
(1305.04 -746.263 2.77246e-16)
(1261.86 -594.252 -1.99025e-16)
(1323.19 -523.464 1.18202e-16)
(1536.97 -271.346 0)
(1563.57 -121.888 0)
(1548.97 -58.4987 -4.07972e-20)
(1545.65 -20.7892 2.72978e-19)
(1542.83 -2.74362 0)
(1544.7 12.4828 0)
(1547.72 42.1153 5.79385e-17)
(1558.13 109.034 -5.50672e-17)
(1574.37 228.56 -1.10473e-16)
(1336.16 526.682 2.24173e-16)
(1246.91 597.864 1.82289e-17)
(1286.23 746.179 -9.04398e-17)
(1301.3 779.16 0)
(1252.86 823.342 0)
(1382.43 760.802 -1.73773e-16)
(1351.08 887.888 2.029e-16)
(1502.27 640.974 -4.59557e-20)
(1660.29 -609.629 1.57242e-16)
(1562.15 -748.914 -9.69847e-20)
(1527.35 -687.175 9.49314e-17)
(1465.76 -727.132 -8.49724e-17)
(1398.54 -682.412 -4.46207e-20)
(1337.9 -600.096 8.77266e-20)
(1194.46 -448.791 1.15416e-16)
(873.403 -243.401 -1.80073e-16)
(695.432 -125.757 6.39138e-17)
(534.559 -57.3269 0)
(409.974 -22.6136 -3.37305e-17)
(369.74 -8.34807 3.36795e-17)
(353.24 -0.298109 0)
(360.88 8.39102 6.3302e-20)
(389.924 17.0958 -3.35962e-17)
(498.468 49.5311 3.38314e-17)
(740.462 122.495 0)
(875.727 254.479 -1.16359e-16)
(1177.87 439.735 1.16699e-16)
(1327.31 595.755 8.91905e-17)
(1389.45 685.183 -1.86187e-16)
(1434.07 744.433 9.96024e-17)
(1520.14 708.695 0)
(1547.49 776.151 1.688e-16)
(1650.27 625.001 -3.30116e-18)
(1815.16 -551.38 -3.31705e-18)
(1746.35 -602.449 8.00321e-17)
(1688.3 -549.887 -3.63709e-17)
(1539.5 -424.345 -5.72322e-17)
(1421.19 -359.849 7.32558e-17)
(1382.76 -278.203 -5.12898e-17)
(1293.03 -254.727 5.28758e-17)
(952.255 -201.48 -5.85301e-17)
(734.985 -108.658 -5.13069e-19)
(598.007 -59.4888 3.29921e-17)
(503.014 -30.9368 1.65061e-17)
(470.752 -15.6824 -1.51752e-19)
(458.073 0.998837 -1.6694e-17)
(465.737 20.6483 -6.03896e-20)
(497.585 29.6955 -7.50895e-20)
(590.558 54.2621 -2.06767e-18)
(796.082 103.568 2.25809e-20)
(973.243 195.602 5.37488e-18)
(1283.66 228.745 -3.53837e-18)
(1366.45 306.475 0)
(1409.84 399.196 1.09206e-17)
(1551.67 479.101 -3.45234e-17)
(1689.43 590.782 4.13706e-17)
(1741.65 634.514 -5.6488e-17)
(1810.22 569.682 5.30908e-17)
(1999.04 -509.648 -8.73447e-20)
(1953.96 -328.126 -1.04876e-19)
(1882.53 -318.352 1.21742e-19)
(1789.55 -216.96 -5.48816e-21)
(1531.62 -70.5453 -1.83261e-19)
(1415.26 -26.9511 -2.00674e-19)
(1375.39 -71.6165 -7.14582e-21)
(1199.39 -91.4938 0)
(968.348 -105.288 0)
(819.835 -121.275 6.56321e-17)
(736.429 -103.497 -6.71269e-17)
(695.54 -51.5145 -8.84819e-21)
(680.381 1.57391 8.82884e-21)
(685.348 52.3913 -8.64451e-18)
(720.261 115.162 8.37173e-18)
(807.415 146.82 0)
(986.758 127.498 0)
(1175.58 107.782 -5.64476e-17)
(1341.92 72.4726 5.61499e-17)
(1369.44 17.4493 -1.9442e-19)
(1537.13 76.6424 0)
(1801.46 229.517 0)
(1887.29 323.684 -1.23962e-19)
(1953.06 331.237 -1.07465e-19)
(2000.66 523.709 1.23061e-16)
(1492.17 -176.989 -1.88106e-16)
(1737.99 -122.359 -2.39553e-16)
(1846.28 117.267 1.21968e-16)
(1796.74 144.964 0)
(1646.53 186.767 1.98893e-19)
(1516.47 145.014 1.08094e-16)
(1503.57 34.3881 -2.08731e-16)
(1406 -18.1559 1.06183e-16)
(1223.94 -55.6505 -1.21019e-16)
(1060.39 -83.0652 1.2535e-16)
(934.398 -71.734 3.30018e-17)
(863.953 -28.4351 -4.10821e-17)
(840.289 6.82444 -8.32099e-18)
(858.067 41.0345 1.68223e-17)
(930.203 90.7144 0)
(1069.78 108.862 0)
(1246.92 76.296 1.16566e-16)
(1391.18 36.1891 -2.2087e-16)
(1485.73 -38.4611 1.0941e-16)
(1498.43 -155.769 2.27183e-19)
(1662.97 -195.444 1.53236e-16)
(1789.88 -154.593 -9.74905e-17)
(1830.33 -136.961 -4.9033e-16)
(1737.73 134.238 6.21999e-16)
(1484.29 188.614 -2.49395e-16)
(-49.2385 -75.1146 1.1196e-19)
(482.029 -110.151 -2.5604e-16)
(1394.89 301.627 1.74475e-16)
(1673.39 495.165 0)
(1671.23 417.869 0)
(1610.07 276.767 0)
(1601.83 138.273 0)
(1529.1 68.2607 0)
(1373.79 19.8282 -5.16515e-17)
(1210.05 -20.4392 1.08413e-16)
(1077.34 -26.2008 -8.46965e-17)
(1000.02 -5.8144 3.21855e-17)
(978.531 9.36246 -3.62718e-18)
(1000.52 21.5106 1.58664e-20)
(1085.67 45.63 -5.58374e-17)
(1235.36 40.6363 5.54572e-17)
(1403.68 -2.34491 0)
(1526.31 -54.3932 0)
(1598.63 -139.967 -1.73447e-16)
(1602.71 -295.013 1.85881e-16)
(1677.09 -422.637 -1.61945e-19)
(1651.11 -501.329 7.30802e-20)
(1355.27 -268.755 -9.50735e-20)
(410.46 154.283 -1.15944e-19)
(-125.123 94.4658 0)
(-265.474 -39.1999 -2.24809e-16)
(380.764 265.877 2.29109e-16)
(1253.29 635.094 -1.71979e-19)
(1627.47 739.138 1.63551e-16)
(1722.92 573.814 -1.21655e-16)
(1686.8 389.332 0)
(1674.21 234.516 -8.19149e-17)
(1611.09 160.065 7.46329e-17)
(1475.03 96.4187 -4.45968e-17)
(1324.98 39.5713 9.34922e-17)
(1194.72 13.4409 -4.82024e-17)
(1120.88 11.2032 1.83216e-19)
(1100.41 7.97448 0)
(1126.86 3.73182 2.49141e-17)
(1214.64 0.909995 2.3126e-17)
(1359.73 -29.5097 -4.73486e-17)
(1506.36 -91.4282 -8.13992e-17)
(1608.9 -151.28 8.39527e-17)
(1677.24 -238.844 -7.22223e-17)
(1682.87 -414.792 7.96424e-17)
(1727 -592.195 7.97766e-20)
(1588 -765.789 -7.60275e-20)
(1191.93 -623.34 0)
(318.07 -270.008 1.12992e-19)
(-268.578 19.8957 0)
(237.682 219.788 1.91797e-16)
(843.948 702.839 -1.89134e-16)
(1398.36 861.647 6.19655e-20)
(1671.95 864.567 0)
(1774.4 673.068 0)
(1736.84 508.031 -7.32081e-21)
(1719.35 353.04 0)
(1667.34 251.173 7.39873e-20)
(1553.41 168.447 0)
(1417.24 96.3312 4.16026e-17)
(1299.5 51.1389 -6.40056e-17)
(1228.12 25.7987 3.26569e-17)
(1208.97 7.07006 -1.10144e-17)
(1234.63 -15.1337 0)
(1316.36 -40.7808 0)
(1445.78 -90.3856 3.88429e-17)
(1576.23 -162.042 -1.09184e-16)
(1661.82 -248.267 7.30653e-17)
(1731.12 -345.646 -6.1135e-17)
(1736.26 -514.256 6.98453e-17)
(1783.95 -678.944 0)
(1662.29 -886.003 0)
(1387.27 -880.984 0)
(872.661 -731.768 -1.17215e-20)
(243.65 -205.079 -2.01827e-16)
(309.863 75.563 -3.58002e-20)
(1080.63 719.495 1.56383e-16)
(1530.03 927.08 -1.20147e-16)
(1735.48 905.66 0)
(1804.75 733.886 0)
(1762.06 595.518 7.5879e-21)
(1758.02 442.182 6.44533e-17)
(1712.91 328.589 -5.7019e-17)
(1613 226.929 3.0359e-20)
(1494.54 141.609 3.29729e-20)
(1388.15 79.2733 3.48637e-20)
(1324.33 38.3225 -1.03474e-20)
(1304.69 4.36165 -1.03939e-20)
(1329.11 -29.8111 1.92975e-17)
(1404.38 -72.2935 -1.93331e-17)
(1521.93 -137.774 4.21966e-20)
(1636.17 -222.942 3.88421e-20)
(1706.44 -329.707 0)
(1765.59 -434.715 -5.42486e-17)
(1769.14 -591.157 6.22558e-17)
(1818.38 -740.284 0)
(1735.35 -919.503 -9.91931e-17)
(1524.62 -929.802 1.22271e-16)
(1067.8 -713.923 9.04553e-21)
(323.618 -56.3536 -1.88294e-16)
(478.245 111.359 4.17438e-20)
(1240.46 744.201 0)
(1629.23 925.215 0)
(1779.82 913.781 -4.76551e-17)
(1819.03 776.285 4.59722e-17)
(1780.87 652.911 0)
(1789.84 507.887 5.87073e-17)
(1749.95 388.884 -5.24774e-17)
(1663.45 274.424 3.18146e-17)
(1556.48 179.045 -3.21321e-17)
(1464.64 104.477 1.77003e-17)
(1406.67 49.1146 -1.78238e-17)
(1390.86 2.9958 0)
(1414.17 -46.8281 -1.76445e-17)
(1481.21 -104.685 1.76901e-17)
(1583.17 -184.104 -3.47435e-20)
(1685.36 -274.24 -3.20723e-20)
(1744.24 -397.914 5.17145e-20)
(1793.4 -507.863 4.97752e-17)
(1783.53 -656.604 -5.73141e-17)
(1832.38 -781.25 -4.56677e-20)
(1777.12 -931.016 -4.46985e-20)
(1623.19 -923.623 0)
(1214.74 -732.81 -7.23182e-20)
(462.962 -99.2188 4.21973e-20)
(530.435 142.34 1.59826e-22)
(1321.24 691.66 0)
(1694.57 872.13 9.31559e-23)
(1780.84 908.636 4.04796e-20)
(1823.68 803.223 -8.57033e-23)
(1796.75 700.787 -5.18995e-17)
(1817.01 560.128 4.5968e-17)
(1784.11 439.323 0)
(1708.21 315.504 -5.9115e-20)
(1617.82 214.025 -1.07905e-22)
(1533.85 125.999 -1.13749e-22)
(1483.38 58.5357 6.88732e-20)
(1466.99 0.378244 0)
(1486.86 -56.5942 0)
(1547.06 -125.587 -1.1305e-22)
(1639.86 -217.259 -1.06758e-22)
(1729.58 -315.445 -2.63107e-17)
(1777.33 -445.979 7.52267e-17)
(1816.56 -558.485 -5.32783e-17)
(1798.53 -700.051 0)
(1839.02 -801.078 -4.39894e-17)
(1783.17 -916.026 4.42276e-17)
(1698.4 -869.779 9.28075e-23)
(1315.07 -670.513 6.24335e-20)
(523.49 -135.075 1.60356e-22)
(654.949 204.339 3.15111e-18)
(1447 674.927 1.24773e-17)
(1743.7 849.234 9.7433e-17)
(1792.04 895.418 -4.11718e-17)
(1837.93 804.931 4.25879e-17)
(1815.41 716.707 -4.76258e-17)
(1843.55 587.619 4.28669e-17)
(1811.1 472.651 -2.51383e-17)
(1745.23 344.661 2.46635e-17)
(1664.12 240.13 1.14791e-22)
(1594.63 145.452 1.20686e-22)
(1549.61 67.433 -1.2331e-22)
(1536.21 1.6451 7.44079e-18)
(1554.71 -67.6565 7.25804e-18)
(1606.29 -147.939 -1.48546e-17)
(1684.51 -247.608 1.1394e-22)
(1765.97 -342.46 4.8936e-17)
(1807.21 -478.373 -9.51264e-17)
(1844.53 -583.986 4.89321e-17)
(1811.62 -720.723 0)
(1848.36 -802.802 -8.34397e-23)
(1794.1 -900.53 7.9064e-23)
(1739.83 -851.336 -8.43639e-23)
(1442.03 -673.693 -1.21617e-16)
(658.97 -213.868 1.50237e-16)
(712.676 220.855 1.4093e-19)
(1499.79 633.634 0)
(1763.12 800.154 0)
(1798.26 866.214 3.96072e-20)
(1846.48 792.14 8.05458e-20)
(1834.3 726.693 0)
(1868.55 606.018 4.48813e-17)
(1837.84 493.923 -4.22487e-17)
(1779.06 363.425 4.43663e-20)
(1711.61 258.104 -4.75585e-20)
(1648.65 154.482 -1.37324e-17)
(1610.4 70.3577 1.37439e-17)
(1597.55 -4.12357 3.57324e-18)
(1613.46 -77.7793 -3.47411e-18)
(1660.17 -163.762 1.32435e-17)
(1730.99 -272.703 -3.7848e-17)
(1801.24 -372.869 2.46551e-17)
(1832.46 -509.37 -4.63814e-20)
(1864.89 -612.644 3.94537e-20)
(1830.19 -734.134 -4.05801e-17)
(1852.29 -796.91 8.52679e-19)
(1806.26 -865.789 -2.04052e-18)
(1767.43 -790.784 4.12401e-17)
(1475.34 -606.578 5.67815e-20)
(652.319 -212.316 6.91888e-20)
(712.856 205.566 1.35437e-16)
(1536.84 579.603 -1.09637e-16)
(1792.13 760.491 0)
(1817.39 841.183 -3.82369e-17)
(1861.57 782.108 3.14393e-19)
(1854.18 721.204 3.9456e-17)
(1892.17 612.958 4.16469e-17)
(1859.81 511.951 -3.9885e-17)
(1810.17 383.218 -4.68356e-20)
(1749.61 278.591 -2.45576e-17)
(1699.25 172.469 1.19299e-17)
(1664.98 81.2778 1.26345e-17)
(1653.56 1.71378 -5.39076e-20)
(1667.88 -80.9337 0)
(1706.37 -173.937 0)
(1763.52 -286.141 0)
(1829.35 -378.722 4.64525e-20)
(1857.18 -515.19 9.65832e-21)
(1890.84 -607.909 -4.98149e-20)
(1850.32 -721.396 0)
(1865.87 -780.834 3.81741e-20)
(1820.46 -840.686 9.39496e-21)
(1796.26 -763.242 -4.87306e-20)
(1561.15 -585.013 -1.07043e-16)
(773.822 -243.016 1.33445e-16)
(762.795 233.741 6.59217e-17)
(1562.44 521.691 -9.69176e-17)
(1810.08 680.865 8.23321e-17)
(1829.99 786.37 -4.10663e-17)
(1873.28 752.871 -3.73169e-17)
(1871.23 707.808 3.76775e-17)
(1912.31 614.37 1.92412e-17)
(1881.05 519.268 -1.89615e-17)
(1837.24 390.164 1.08194e-17)
(1788.62 286.426 -2.23355e-17)
(1742.27 174.22 1.7365e-17)
(1713.37 82.0147 -7.3963e-18)
(1703.58 -3.31556 1.49003e-18)
(1715.27 -87.9364 -4.38411e-20)
(1750.75 -180.43 2.28481e-17)
(1803.02 -299.25 -2.28289e-17)
(1859.01 -395.581 3.87184e-20)
(1877.97 -528.562 3.79026e-17)
(1910.6 -615.366 -1.83157e-18)
(1862.93 -712.941 -3.8488e-17)
(1876.03 -757.546 0)
(1837.12 -789.751 4.09649e-17)
(1813.77 -692.642 -3.66368e-17)
(1567.02 -527.028 -1.03884e-16)
(766.822 -240.913 -1.39511e-18)
(893.767 266.525 -6.25998e-17)
(1630.57 478.969 4.84607e-17)
(1836.19 635.854 1.90899e-20)
(1848.33 746.684 -5.38116e-20)
(1892.91 737.679 1.81351e-20)
(1893.46 685.399 3.60554e-17)
(1934.62 594.941 -1.72709e-17)
(1898.06 512.357 -1.83292e-17)
(1862.51 389.981 4.13655e-20)
(1817.75 291.307 -4.41194e-20)
(1782.56 180.803 2.03024e-20)
(1758.19 84.6792 -2.05881e-20)
(1749.48 -3.05045 0)
(1760.96 -93.7844 5.24886e-21)
(1789.35 -191.316 -1.07116e-17)
(1829.87 -308.881 1.07689e-17)
(1883.13 -395.464 -1.92721e-17)
(1898.55 -526.168 9.7164e-19)
(1932.44 -598.958 1.81138e-17)
(1887.8 -689.563 -5.33271e-20)
(1890.55 -742.874 -3.66362e-17)
(1854.31 -748.367 3.48417e-17)
(1841.19 -639.283 0)
(1624.91 -478.309 -4.88538e-17)
(855.501 -266.655 6.26376e-17)
(907.528 268.844 0)
(1646.83 432.392 -4.28668e-17)
(1841.32 555.594 4.24143e-17)
(1867.36 672.487 1.77446e-20)
(1903.25 698.744 1.71386e-20)
(1911.98 663.27 -3.45571e-17)
(1947.61 591.251 3.41258e-17)
(1916.06 515.449 1.82732e-17)
(1885.68 395.572 8.01024e-19)
(1852 297.775 -1.96563e-17)
(1818.53 182.298 -2.14511e-20)
(1796.88 88.584 2.42604e-20)
(1790.43 -1.91141 0)
(1797.61 -92.0478 4.36404e-20)
(1824.19 -184.657 -2.13831e-20)
(1861.98 -307.903 9.74916e-18)
(1907.08 -397.152 -9.63417e-18)
(1914.17 -521.639 -1.82708e-20)
(1946.78 -591.173 -1.91244e-20)
(1904.09 -665.92 1.75744e-20)
(1902.29 -706.254 -3.63215e-17)
(1872.76 -684.318 -6.42649e-18)
(1851.16 -570.091 3.37898e-17)
(1658.16 -433.309 0)
(931.381 -264.915 6.0529e-17)
(1014.24 283.649 -1.14299e-16)
(1687.34 397.791 4.5075e-17)
(1857.5 500.879 3.25263e-17)
(1892.4 626.1 -4.0568e-17)
(1921.6 672.615 0)
(1934.47 643.368 -2.07115e-21)
(1967.5 568.458 0)
(1930.83 497.859 -2.1915e-21)
(1907.36 386.931 -2.32323e-21)
(1875.1 296.034 0)
(1851.22 185.106 0)
(1834.92 88.1833 -2.56111e-21)
(1827.7 -2.19315 0)
(1836.31 -95.8942 0)
(1856 -192.773 -9.6394e-18)
(1883.25 -310.748 9.62054e-18)
(1928.53 -388.352 -2.30605e-21)
(1933.56 -509.307 -1.7137e-17)
(1965.67 -571.967 1.63192e-17)
(1930.36 -644.62 0)
(1916.85 -679.945 3.57868e-17)
(1891.81 -638.71 -7.27704e-17)
(1865.74 -510.807 7.26554e-17)
(1691.05 -389.343 4.06122e-18)
(1005.24 -275.334 -5.74574e-17)
(1072.86 274.601 1.35821e-20)
(1706.04 367.981 -1.04773e-20)
(1860.32 436.479 0)
(1908.25 545.649 0)
(1930.15 616.574 0)
(1951.51 611.384 7.70453e-21)
(1977.11 556.059 0)
(1944.06 488.997 -7.86565e-21)
(1927.27 382.18 0)
(1904.65 291.967 -8.49105e-21)
(1880.63 176.231 0)
(1864.21 86.1592 -2.36126e-18)
(1861.15 -4.36065 2.34596e-18)
(1865.32 -95.4469 0)
(1885.69 -184.336 9.18664e-18)
(1911.71 -308.114 -1.80217e-17)
(1948.85 -389.077 8.71911e-18)
(1946.37 -499.577 0)
(1977.74 -560.938 1.59234e-17)
(1944.34 -617.529 -1.59479e-17)
(1931.04 -627.211 3.56131e-17)
(1911.19 -556.918 -3.15508e-17)
(1859.48 -446.04 0)
(1701.77 -356.392 0)
(1047.89 -264.579 0)
(1117.78 264.913 -1.319e-20)
(1727.83 346.04 1.03092e-20)
(1877.56 377.473 0)
(1927.7 469.558 0)
(1947.5 579.746 0)
(1969.87 593.151 -7.65303e-21)
(1997.72 533.544 0)
(1959.14 468.479 8.18633e-21)
(1947.81 369.686 0)
(1924.56 289.627 -8.80185e-18)
(1908.15 182.114 8.84054e-18)
(1897.5 88.0651 -8.37929e-21)
(1891.07 -0.87403 9.26617e-21)
(1897.75 -93.4264 8.36798e-21)
(1911.17 -184.943 0)
(1928.13 -300.164 0)
(1968.25 -368.554 8.47609e-21)
(1963.39 -478.089 -1.62384e-17)
(1996.74 -537.279 1.50919e-17)
(1967.67 -594.475 0)
(1940.74 -588.929 7.85219e-21)
(1928.4 -484.722 0)
(1876.13 -387.202 0)
(1731.69 -341.514 0)
(1127.02 -257.769 0)
(1146.5 238.665 -5.07346e-17)
(1739.12 314.081 4.20003e-17)
(1887.72 322.52 0)
(1937.37 391.044 -1.67247e-20)
(1957.13 517.452 0)
(1981.95 548.921 -1.45378e-17)
(2006.32 514.216 3.00328e-17)
(1971.33 456.92 -1.58458e-17)
(1964.2 361.333 -8.12555e-18)
(1950 281.569 8.34026e-18)
(1932.69 169.613 4.34506e-21)
(1919.84 85.0574 1.1175e-18)
(1918.86 -3.18532 -1.07379e-18)
(1920.74 -92.5407 8.52093e-18)
(1937.23 -174.976 -8.51597e-18)
(1953.85 -295.84 0)
(1985.09 -366.513 -1.51595e-20)
(1975.85 -465.811 0)
(2006.52 -522.149 0)
(1979.47 -559.418 -1.62702e-17)
(1953.1 -524.894 1.46607e-17)
(1936.22 -398.256 0)
(1883.35 -328.05 3.65207e-17)
(1734.67 -314.696 2.03907e-18)
(1127.51 -239.718 -1.02852e-16)
(1206 222.536 5.06518e-17)
(1766.63 292.754 1.93583e-20)
(1901.5 275.633 3.08865e-17)
(1940.75 323.342 -2.31924e-17)
(1968.7 476.267 -1.76344e-17)
(1995.74 517.884 0)
(2023.2 488.594 7.51522e-21)
(1985.72 430.29 1.5167e-17)
(1983.39 341.318 -1.5769e-17)
(1965.47 270.894 0)
(1954.43 169.92 0)
(1947.87 81.933 -2.58239e-20)
(1942.54 -3.59561 3.2199e-20)
(1948.36 -93.104 1.67942e-20)
(1957.99 -176.807 4.07998e-18)
(1967.1 -285.489 -4.03689e-18)
(2003.49 -345.652 8.38062e-21)
(1993.27 -444.364 1.55535e-17)
(2023.74 -495.46 -2.88942e-17)
(1994.84 -523.532 1.40325e-17)
(1966.01 -483.902 -1.48883e-20)
(1941.35 -318.843 0)
(1901.22 -279.16 1.69419e-20)
(1757.37 -296.562 4.07827e-17)
(1182.96 -228.164 -1.00584e-16)
(1207.86 186.264 -4.98518e-17)
(1766.56 260.4 -3.82536e-17)
(1904.85 233.729 3.49569e-17)
(1929.46 248.985 1.45571e-17)
(1975.73 392.594 -1.82649e-17)
(2005.25 459.216 0)
(2029.1 462.794 3.66017e-21)
(1997.72 417.894 -1.10673e-20)
(1998.5 335.382 7.5826e-18)
(1988.56 264.861 -1.5617e-17)
(1976.19 159.926 7.88934e-18)
(1966.01 82.6458 1.98654e-18)
(1965.84 -1.77285 -1.85966e-18)
(1965.86 -87.7088 1.8454e-18)
(1979.79 -161.201 -1.97615e-18)
(1989.3 -276.12 0)
(2017.68 -337.636 1.12106e-20)
(2003.8 -424.679 -3.56316e-21)
(2028.97 -474.811 -1.48473e-17)
(2004.24 -474.133 1.36866e-17)
(1974.46 -402.324 0)
(1929.25 -256.406 0)
(1906.47 -234.296 -4.10245e-21)
(1770.97 -265.841 -4.02148e-17)
(1215.33 -197.341 -1.71352e-18)
(1249.69 170.495 -2.34805e-17)
(1782.59 241.929 1.96338e-17)
(1917.77 211.618 4.1095e-21)
(1930.28 183.297 0)
(1987.48 324.596 1.34768e-17)
(2018.86 420.612 -1.61232e-17)
(2041.56 433.695 3.40518e-21)
(2010.98 388.74 3.66418e-21)
(2016.64 313.236 1.39888e-20)
(2000.7 252.087 -1.89019e-18)
(1992.88 158.888 9.5576e-19)
(1988.93 78.502 1.87677e-18)
(1985.07 -2.35069 -9.6331e-19)
(1989.15 -88.1393 3.82434e-18)
(1996.19 -162.96 -3.81439e-18)
(2000.46 -264.077 0)
(2035.73 -317.283 1.01713e-20)
(2021.23 -401.466 -1.51106e-17)
(2042.21 -441.426 1.322e-17)
(2017.16 -431.228 3.47092e-21)
(1983.71 -336.199 0)
(1928.83 -175.996 0)
(1924.64 -212.194 4.12432e-21)
(1783.1 -245.115 -3.9448e-17)
(1243.29 -176.294 4.71677e-17)
(1284.5 142.743 2.34872e-20)
(1791.82 209.274 0)
(1929.94 181.344 -7.81764e-21)
(1934.1 129.045 -1.44183e-17)
(1983.37 241.886 1.78009e-17)
(2018.91 350.362 -1.31369e-17)
(2041.03 392.571 1.52058e-17)
(2019.54 368.016 -7.02164e-18)
(2028.36 303.371 7.35843e-18)
(2020.58 243.524 -3.64473e-18)
(2011.74 145.452 3.69945e-18)
(2003.9 75.129 -1.82698e-18)
(2003.93 -3.48409 2.08785e-18)
(2003.08 -85.0339 -2.47291e-19)
(2015.56 -151.011 3.69508e-18)
(2020.27 -257.905 -7.29922e-18)
(2046.84 -308.403 -3.75755e-18)
(2029.3 -378.273 7.00271e-18)
(2045.05 -409.572 1.3484e-20)
(2021.37 -365.644 -7.00153e-21)
(1983.86 -242.256 0)
(1934.21 -133.925 0)
(1934.59 -183.583 0)
(1788.3 -210.183 -1.93227e-17)
(1267.52 -148.614 2.30394e-17)
(1306.44 139.375 -2.7919e-21)
(1800.84 190.371 0)
(1947.06 166.147 9.85401e-21)
(1940.54 85.9573 -7.92714e-21)
(1969.89 165.014 -7.2329e-21)
(2029.48 298.286 0)
(2050.43 351.464 -6.61029e-21)
(2031.88 337.57 6.85019e-18)
(2045.19 281.506 -7.25035e-18)
(2030.77 231.034 0)
(2025.27 146.632 1.70501e-21)
(2022.54 74.713 0)
(2020.17 -0.517825 0)
(2023.22 -81.9163 1.79701e-18)
(2027.86 -147.691 -1.80002e-18)
(2028.26 -240.794 -7.23547e-21)
(2062.94 -284.932 -1.65315e-21)
(2043.75 -349.408 6.9847e-21)
(2050.26 -361.748 -7.5058e-18)
(2030.67 -319.071 6.37549e-18)
(1973.75 -181.804 -1.73037e-17)
(1938.74 -79.5219 3.0966e-17)