/*--------------------------------*- C++ -*----------------------------------*\
| =========                 |                                                 |
| \\      /  F ield         | OpenFOAM: The Open Source CFD Toolbox           |
|  \\    /   O peration     | Version:  2112                                  |
|   \\  /    A nd           | Website:  www.openfoam.com                      |
|    \\/     M anipulation  |                                                 |
\*---------------------------------------------------------------------------*/
FoamFile
{
    version     2.0;
    format      ascii;
    arch        "LSB;label=32;scalar=64";
    class       volScalarField;
    location    "0.00143";
    object      p;
}
// * * * * * * * * * * * * * * * * * * * * * * * * * * * * * * * * * * * * * //

dimensions      [1 -1 -2 0 0 0 0];

internalField   nonuniform List<scalar> 
13875
(
951457
984013
973660
975513
973399
974435
974568
974458
974955
974880
974941
974768
975001
974835
974412
974858
974989
974592
974105
973911
973211
975485
972377
982682
945619
733657
659177
672109
676963
670312
668613
668690
670303
677494
678744
678131
669963
669148
669455
671319
678204
678951
676941
670055
668315
669607
676888
672268
657296
730813
736746
635689
664662
653771
648452
646101
645223
645245
645236
648377
648942
647405
646675
646582
647120
649295
649622
647641
645975
646321
647831
652102
662028
632269
733498
743393
636357
665567
653934
648748
646308
645371
645336
644516
645773
647231
647571
646835
646745
647258
647426
646921
645525
646079
646533
648118
652229
662780
632877
739073
757232
639433
668192
654667
649658
646923
645810
645655
644735
645855
647333
648024
647258
647172
647638
647523
647005
645638
646441
647124
648948
652837
665082
635533
750050
759203
648271
674144
656729
651621
648239
646748
646362
645377
646137
647678
648690
648143
648026
648280
647855
647306
646118
647260
648370
650755
654761
670713
643306
751803
765813
669241
686822
661932
655696
650948
648681
647840
646784
646978
648582
649923
649873
649628
649380
648685
648093
647405
649077
651038
654758
660547
682387
666135
756191
793297
720526
713872
676179
664627
656777
652761
650995
649725
649105
650564
652390
652762
652473
651649
650662
650139
650293
652828
656415
663024
673800
707789
716036
782801
915865
833685
771795
708407
683054
668627
661134
657597
655785
654144
655038
657492
658577
658227
656526
655203
655002
656442
660489
667189
679811
702895
762054
824938
912508
1.55198e+06
1.04523e+06
846712
750832
708445
686497
675470
670066
667439
665156
665217
668212
670168
669748
667229
665398
665718
668280
673825
684137
704028
743186
834385
1.02994e+06
1.52718e+06
2.99366e+06
1.44182e+06
1.00194e+06
827508
753675
719489
703066
695037
690992
688301
687511
690417
693353
693033
690373
687839
688671
691987
699070
713686
743632
807076
956411
1.36358e+06
2.88882e+06
5.8631e+06
2.41256e+06
1.46258e+06
1.03541e+06
860589
794523
765485
751672
744916
741544
740162
741678
745542
745289
743252
740886
742448
747336
758491
783075
839022
977908
1.30977e+06
2.3092e+06
5.64269e+06
5.67727e+06
4.83423e+06
3.41724e+06
1.82375e+06
1.16953e+06
1.00468e+06
938569
907946
893458
886799
884463
882091
888012
885993
886018
886339
890141
901117
926873
983237
1.12074e+06
1.55235e+06
2.41502e+06
4.92803e+06
5.41836e+06
5.1587e+06
4.71732e+06
4.94949e+06
5.03572e+06
2.13878e+06
1.70143e+06
1.53497e+06
1.45435e+06
1.42136e+06
1.40253e+06
1.40392e+06
1.3841e+06
1.40713e+06
1.38964e+06
1.39523e+06
1.40111e+06
1.415e+06
1.44662e+06
1.52249e+06
1.68626e+06
2.15233e+06
4.68178e+06
5.11169e+06
4.82654e+06
4.8649e+06
4.23016e+06
4.39462e+06
4.88366e+06
5.27725e+06
5.26032e+06
4.15581e+06
3.82635e+06
3.53287e+06
3.533e+06
3.32332e+06
3.41346e+06
3.24486e+06
3.3749e+06
3.28458e+06
3.31563e+06
3.33647e+06
3.39974e+06
3.54263e+06
3.75652e+06
3.9383e+06
4.87099e+06
5.02537e+06
5.04003e+06
4.57832e+06
4.50354e+06
3.85078e+06
3.96766e+06
4.74412e+06
5.48496e+06
6.84943e+06
8.1282e+06
9.54955e+06
9.40538e+06
9.97828e+06
9.66913e+06
1.0013e+07
9.76022e+06
9.9515e+06
9.79396e+06
9.90426e+06
9.80071e+06
9.82418e+06
9.6106e+06
9.53841e+06
8.67227e+06
7.27461e+06
5.57946e+06
5.03431e+06
4.19733e+06
4.20103e+06
3.11422e+06
3.69834e+06
4.89791e+06
5.61506e+06
6.84427e+06
7.756e+06
7.83413e+06
7.69121e+06
7.46798e+06
7.4047e+06
7.11145e+06
7.26969e+06
6.98793e+06
7.18602e+06
7.15088e+06
7.28455e+06
7.42432e+06
7.64993e+06
7.76723e+06
7.91986e+06
7.30088e+06
5.99271e+06
5.1822e+06
3.94333e+06
3.49336e+06
2.61506e+06
3.49659e+06
4.77877e+06
5.33162e+06
5.89454e+06
6.10046e+06
5.84815e+06
5.84545e+06
5.84668e+06
5.87281e+06
5.88321e+06
5.89739e+06
5.89982e+06
5.8995e+06
5.8948e+06
5.88981e+06
5.86837e+06
5.86218e+06
5.88143e+06
6.04211e+06
6.22093e+06
5.81005e+06
5.13651e+06
3.52364e+06
2.55478e+06
1.42677e+06
2.48346e+06
3.90132e+06
4.31268e+06
4.51236e+06
4.68031e+06
4.79733e+06
4.97902e+06
5.13373e+06
5.23462e+06
5.29911e+06
5.33218e+06
5.3544e+06
5.35285e+06
5.33286e+06
5.29665e+06
5.22206e+06
5.09603e+06
4.94847e+06
4.834e+06
4.72047e+06
4.61118e+06
4.17275e+06
2.77144e+06
1.55545e+06
715565
1.68578e+06
2.7477e+06
3.20691e+06
3.41609e+06
3.68675e+06
4.04681e+06
4.37182e+06
4.58209e+06
4.70757e+06
4.79251e+06
4.84199e+06
4.87152e+06
4.87117e+06
4.84131e+06
4.78553e+06
4.68802e+06
4.51001e+06
4.1903e+06
3.78488e+06
3.50316e+06
3.31147e+06
2.86972e+06
1.83763e+06
751337
747284
1.23042e+06
1.86229e+06
2.28154e+06
2.60104e+06
2.99467e+06
3.46122e+06
3.82074e+06
4.03927e+06
4.18099e+06
4.28238e+06
4.34186e+06
4.37363e+06
4.36789e+06
4.32683e+06
4.24982e+06
4.12917e+06
3.92876e+06
3.5476e+06
3.03061e+06
2.61478e+06
2.31056e+06
1.91462e+06
1.2423e+06
770681
933125
1.05314e+06
1.29632e+06
1.71681e+06
2.07471e+06
2.53649e+06
2.9733e+06
3.30508e+06
3.52534e+06
3.67835e+06
3.78509e+06
3.84745e+06
3.87721e+06
3.86593e+06
3.81692e+06
3.72519e+06
3.58164e+06
3.3699e+06
3.02099e+06
2.55121e+06
2.05934e+06
1.70948e+06
1.32852e+06
1.0608e+06
965601
1.32877e+06
1.05952e+06
1.08866e+06
1.38684e+06
1.7348e+06
2.18968e+06
2.56834e+06
2.85228e+06
3.06346e+06
3.21555e+06
3.32058e+06
3.38037e+06
3.40865e+06
3.38983e+06
3.33522e+06
3.23923e+06
3.09e+06
2.87879e+06
2.58931e+06
2.20066e+06
1.72224e+06
1.38537e+06
1.11646e+06
1.07409e+06
1.39404e+06
1.41718e+06
1.08194e+06
1.08899e+06
1.23791e+06
1.51385e+06
1.89954e+06
2.21703e+06
2.47341e+06
2.66343e+06
2.80314e+06
2.90402e+06
2.95992e+06
2.98321e+06
2.96431e+06
2.90911e+06
2.81268e+06
2.67031e+06
2.47651e+06
2.21271e+06
1.89568e+06
1.51566e+06
1.23667e+06
1.0924e+06
1.09396e+06
1.40539e+06
1.41701e+06
1.11876e+06
1.09827e+06
1.16766e+06
1.36394e+06
1.65529e+06
1.91591e+06
2.14242e+06
2.31493e+06
2.44139e+06
2.53764e+06
2.5876e+06
2.61073e+06
2.58966e+06
2.53837e+06
2.4434e+06
2.31201e+06
2.1368e+06
1.90349e+06
1.64065e+06
1.36856e+06
1.17091e+06
1.10073e+06
1.12743e+06
1.40355e+06
1.42318e+06
1.17297e+06
1.12037e+06
1.13093e+06
1.2574e+06
1.46196e+06
1.67364e+06
1.87232e+06
2.02379e+06
2.13593e+06
2.21818e+06
2.26187e+06
2.28136e+06
2.26251e+06
2.21404e+06
2.13073e+06
2.01192e+06
1.85741e+06
1.65892e+06
1.45057e+06
1.26227e+06
1.13492e+06
1.12069e+06
1.16975e+06
1.40454e+06
1.4371e+06
1.26012e+06
1.16091e+06
1.12858e+06
1.18052e+06
1.31225e+06
1.48012e+06
1.64236e+06
1.77268e+06
1.87216e+06
1.94657e+06
1.98355e+06
1.99921e+06
1.98164e+06
1.93841e+06
1.8628e+06
1.75809e+06
1.62559e+06
1.462e+06
1.2949e+06
1.17739e+06
1.1272e+06
1.15917e+06
1.25037e+06
1.41937e+06
1.47876e+06
1.43632e+06
1.205e+06
1.12635e+06
1.12467e+06
1.1963e+06
1.3195e+06
1.45246e+06
1.56172e+06
1.64648e+06
1.709e+06
1.74229e+06
1.75501e+06
1.73959e+06
1.70132e+06
1.63906e+06
1.55015e+06
1.43999e+06
1.31024e+06
1.18631e+06
1.12153e+06
1.12322e+06
1.19376e+06
1.40203e+06
1.45542e+06
1.56901e+06
1.52876e+06
1.22969e+06
1.1174e+06
1.09029e+06
1.11316e+06
1.19683e+06
1.29524e+06
1.38322e+06
1.4558e+06
1.51052e+06
1.53698e+06
1.54964e+06
1.53435e+06
1.5029e+06
1.44675e+06
1.3717e+06
1.28147e+06
1.18388e+06
1.10352e+06
1.08452e+06
1.10947e+06
1.21521e+06
1.48512e+06
1.5332e+06
1.75594e+06
1.58263e+06
1.24479e+06
1.10321e+06
1.05635e+06
1.05308e+06
1.09567e+06
1.16746e+06
1.23593e+06
1.29354e+06
1.33767e+06
1.36118e+06
1.36999e+06
1.35857e+06
1.32913e+06
1.28548e+06
1.22463e+06
1.15501e+06
1.08518e+06
1.04293e+06
1.04735e+06
1.09404e+06
1.23851e+06
1.56121e+06
1.67319e+06
1.82576e+06
1.62153e+06
1.26921e+06
1.08968e+06
1.01728e+06
998727
1.01593e+06
1.06245e+06
1.11e+06
1.15588e+06
1.1939e+06
1.21192e+06
1.22012e+06
1.20909e+06
1.18727e+06
1.14845e+06
1.10296e+06
1.054e+06
1.00827e+06
992179
1.01079e+06
1.08024e+06
1.25523e+06
1.59697e+06
1.8381e+06
1.82578e+06
1.63867e+06
1.31161e+06
1.08678e+06
983331
950667
947405
975962
1.00844e+06
1.04054e+06
1.06693e+06
1.08369e+06
1.09033e+06
1.08202e+06
1.06233e+06
1.03491e+06
1.00122e+06
966783
940111
942542
973462
1.0736e+06
1.28232e+06
1.62186e+06
1.84683e+06
1.81905e+06
1.64044e+06
1.36507e+06
1.08847e+06
953132
904509
893767
902123
922145
942539
964933
975896
981123
971967
959955
936603
915989
894334
886492
897579
945551
1.07633e+06
1.33182e+06
1.63112e+06
1.84245e+06
1.80624e+06
1.64014e+06
1.47445e+06
1.09982e+06
932360
862557
839204
836952
847981
860594
872855
882336
886285
880998
869724
856108
842694
831408
834945
857136
923595
1.08304e+06
1.40836e+06
1.62982e+06
1.82465e+06
1.78134e+06
1.63777e+06
1.5511e+06
1.12724e+06
927787
830556
794788
785177
784754
790035
799281
803249
806054
801154
795514
785794
780864
779507
788345
824001
920320
1.10541e+06
1.56486e+06
1.62668e+06
1.78827e+06
1.74562e+06
1.62124e+06
1.54893e+06
1.15632e+06
930223
804316
751419
733903
730274
730772
734261
736105
737474
735070
731310
726962
725809
728847
746494
798247
924552
1.14898e+06
1.56847e+06
1.61644e+06
1.71743e+06
1.69851e+06
1.58701e+06
1.54451e+06
1.21743e+06
941356
789771
719909
692976
682787
679410
678778
678081
678706
676465
676009
676495
679812
688925
715519
783402
931503
1.21035e+06
1.55986e+06
1.58728e+06
1.67429e+06
1.65585e+06
1.53508e+06
1.53185e+06
1.33995e+06
966574
790560
694716
654773
638977
633105
630669
629337
629133
628151
629322
631435
636169
649725
688157
784137
951741
1.3342e+06
1.54151e+06
1.53766e+06
1.63307e+06
1.6279e+06
1.49576e+06
1.49727e+06
1.34133e+06
997118
794843
682406
629111
605104
593340
587904
585503
585381
583917
586097
591224
603083
625202
677914
791999
994702
1.35018e+06
1.5034e+06
1.49714e+06
1.60091e+06
1.59548e+06
1.46792e+06
1.42814e+06
1.33781e+06
1.06157e+06
809623
683163
606929
572012
558608
553084
549575
548229
548638
551481
557008
569803
603527
678266
802678
1.06155e+06
1.34622e+06
1.42382e+06
1.4628e+06
1.58135e+06
1.55249e+06
1.42968e+06
1.35779e+06
1.32636e+06
1.19014e+06
840893
688082
597800
552951
530708
519142
514944
514420
514982
518335
528529
551731
595762
682031
826671
1.19667e+06
1.33423e+06
1.36039e+06
1.42999e+06
1.55278e+06
1.52389e+06
1.40057e+06
1.301e+06
1.29508e+06
1.18898e+06
888220
694986
598395
534898
506874
494678
488422
486536
488184
494069
505023
532604
596874
696313
877371
1.20156e+06
1.3062e+06
1.31062e+06
1.4001e+06
1.51562e+06
1.48388e+06
1.37513e+06
1.25789e+06
1.23308e+06
1.18142e+06
987710
713949
603646
534225
493429
471334
462791
460965
462457
470101
491507
530053
600101
720314
964829
1.19453e+06
1.24595e+06
1.26283e+06
1.3698e+06
1.48729e+06
1.44132e+06
1.35585e+06
1.2291e+06
1.17461e+06
1.16081e+06
1.04454e+06
751270
617674
535559
483843
459225
445069
440642
444572
458093
485040
531301
610981
769159
1.07233e+06
1.17431e+06
1.18388e+06
1.22781e+06
1.34999e+06
1.44994e+06
1.40428e+06
1.32732e+06
1.20665e+06
1.12891e+06
1.1144e+06
1.04082e+06
816362
643373
538564
483944
447970
431511
426919
431019
448275
485409
537684
638729
872451
1.0691e+06
1.1315e+06
1.13765e+06
1.20335e+06
1.32106e+06
1.40097e+06
1.36482e+06
1.29241e+06
1.1892e+06
1.0918e+06
1.05231e+06
1.02964e+06
951420
699032
550683
486292
448094
426337
415529
425265
448425
487057
551395
690403
954005
1.05101e+06
1.06865e+06
1.09705e+06
1.18496e+06
1.28918e+06
1.36296e+06
1.32082e+06
1.2517e+06
1.16869e+06
1.0663e+06
1.00573e+06
1.00339e+06
951479
813610
578442
493254
449332
426587
415690
425484
449562
493175
580344
796178
951637
1.01143e+06
1.0177e+06
1.06866e+06
1.16679e+06
1.25421e+06
1.31803e+06
1.27863e+06
1.21619e+06
1.14937e+06
1.0481e+06
973725
954809
941755
868046
632323
507260
452657
427516
416970
427078
454760
510711
644136
871599
941052
956097
981698
1.05037e+06
1.14978e+06
1.21823e+06
1.26858e+06
1.19388e+06
1.16459e+06
1.11931e+06
1.03017e+06
950368
917051
918804
866786
745806
537686
462934
431335
420955
431495
467396
546770
771141
870942
914671
912410
954519
1.03465e+06
1.12294e+06
1.16371e+06
1.17902e+06
1.06155e+06
1.09158e+06
1.07667e+06
1.01311e+06
938368
888026
878348
858188
803186
601644
487672
441790
430984
442797
496811
622283
813161
860832
870247
881263
939160
1.01508e+06
1.07563e+06
1.08962e+06
1.05054e+06
71116.3
71039
71058.8
70977.2
71000.7
71008.4
71080.4
71052.1
70974.9
70866.4
70769.6
70704
70668.1
70650.4
70642.3
70638.9
70637.5
70637.1
70636.9
70636.7
70636.4
70636.1
70636.1
70636
70635.5
70637.7
70628.3
70644.7
70604
70669.1
71061.7
71037.9
71053.4
70965.8
70951.6
70974.3
71077.2
71067.1
71006.1
70898.1
70792.6
70717.3
70674.7
70653.5
70643.6
70639.3
70637.7
70637.1
70636.8
70636.6
70636.3
70636.1
70636.1
70636.1
70635.6
70637.7
70629.4
70644
70618.8
70655.3
71017.8
71040.7
71049.5
70938.1
70906.6
70955.1
71080.7
71091.1
71038.4
70924.1
70809
70726.2
70678.9
70655.2
70644.2
70639.5
70637.7
70637.1
70636.8
70636.5
70636.2
70636.2
70636.2
70636.2
70635.9
70637.6
70631.7
70642
70628
70647.1
70983.3
71048.2
71047.8
70900.3
70867.6
70952
71099.9
71120
71069.5
70946.3
70822.5
70733.4
70682.2
70656.4
70644.6
70639.6
70637.7
70637.1
70636.8
70636.5
70636.2
70636.2
70636.3
70636.4
70636.3
70637.5
70633.5
70640.2
70631.6
70643.5
70957.4
71051.9
71027.8
70867
70838.5
70954
71128.5
71146.7
71095
70962
70831.6
70738.1
70684.2
70657
70644.7
70639.6
70637.7
70637.1
70636.8
70636.5
70636.2
70636.2
70636.4
70636.6
70636.6
70637.3
70634.8
70638.9
70633.7
70641.2
70931.4
71050.8
71006.8
70838
70823.6
70956.7
71157
71168.1
71111.7
70969.9
70835.6
70739.6
70684.5
70657.1
70644.6
70639.6
70637.7
70637
70636.8
70636.5
70636.2
70636.2
70636.5
70636.7
70636.9
70637.2
70635.7
70638.1
70635.1
70639.9
70900.9
71048.7
70985.7
70813.2
70820.3
70992.4
71183.4
71179
71117.9
70969.8
70835.3
70739.3
70684.3
70656.9
70644.5
70639.5
70637.7
70637
70636.8
70636.5
70636.2
70636.3
70636.5
70636.9
70637.1
70637.2
70636.3
70637.6
70635.9
70639
70884.5
71021.1
70976.4
70799.8
70822.3
71035.8
71204.9
71180.3
71117.3
70966.7
70833.4
70738.2
70683.8
70656.6
70644.3
70639.4
70637.6
70637
70636.8
70636.5
70636.3
70636.3
70636.5
70636.9
70637.1
70637.2
70636.8
70637.4
70636.5
70638.4
70889.1
71019.4
70993.1
70813
70842.5
71073.3
71216.9
71180.5
71114.5
70960.3
70829.9
70736.4
70682.9
70656
70643.9
70639.1
70637.5
70637
70636.8
70636.6
70636.3
70636.3
70636.5
70636.9
70637.1
70637.2
70637.1
70637.3
70636.8
70637.9
70907.8
71056.6
71063.6
70878.5
70948
71138.3
71235.4
71180.4
71107.3
70949
70824
70733.2
70681.2
70655
70643.2
70638.8
70637.4
70637
70636.8
70636.7
70636.5
70636.3
70636.5
70636.8
70637.2
70637.3
70637.3
70637.3
70637
70637.5
70994.3
71185
71278
71133.5
71209.2
71309.2
71302.6
71188.8
71093.7
70933.2
70814.2
70727.9
70678.1
70653.2
70642.6
70638.6
70637.4
70637
70636.9
70636.7
70636.6
70636.4
70636.4
70636.8
70637.1
70637.3
70637.5
70637.4
70637.1
70637.2
71240.5
71573.1
71893.4
71971.1
71953.5
71819.7
71542.8
71269.9
71101.7
70918.9
70802.8
70720.6
70674.5
70651.8
70642.1
70638.5
70637.3
70637
70636.9
70636.8
70636.7
70636.5
70636.4
70636.7
70637
70637.2
70637.5
70637.5
70637.2
70637.2
71890.3
72684.8
73652.2
74472.2
74489.6
73719.4
72456.2
71597.4
71196.9
70931.9
70795
70714.2
70671.4
70650.6
70641.7
70638.3
70637.3
70637
70636.9
70636.8
70636.8
70636.7
70636.5
70636.6
70637
70637.2
70637.4
70637.5
70637.3
70637.6
73834.5
75616.4
77741.9
81008.1
81810.6
80018.9
76277.3
73058.1
71601.5
71029.7
70814.9
70713.2
70669.1
70649.5
70641.2
70638.2
70637.2
70637
70636.9
70636.9
70636.8
70636.8
70636.7
70636.6
70636.9
70637.2
70637.6
70637.5
70637.2
70636.6
78598.7
82711.6
87498.4
93945.5
99896.4
101457
91675.6
79137.1
73485.1
71459.5
70909
70731.2
70670.8
70648.8
70640.8
70638.1
70637.2
70637
70636.9
70636.9
70636.9
70636.9
70636.8
70636.7
70636.8
70637.1
70637.1
70637.7
70637.5
70637.6
89580.1
90866.7
91545.1
95868.8
103593
112172
118142
106415
81271.2
73402.6
71299.4
70808.9
70683.8
70650.4
70640.7
70637.9
70637.2
70637
70636.9
70636.9
70636.9
70636.9
70636.9
70636.8
70636.6
70637.1
70637
70637.5
70637.9
70638.1
92725.4
91465.3
91304.5
93698.8
102438
112277
122254
129197
115672
81320.7
72929.2
71107.5
70739
70658.5
70641.7
70638
70637.1
70637
70636.9
70636.9
70636.9
70636.9
70637
70636.9
70636.7
70636.7
70637.2
70636.9
70637.1
70637.1
91354.4
89379.8
88196.7
87837.9
95481.6
108697
121625
132316
138836
115133
79382.3
72239
70934.9
70691.6
70646.1
70638.4
70637.2
70637
70636.9
70636.9
70636.9
70637
70637
70637
70636.9
70636.6
70636.7
70636.8
70636.7
70636.9
85573.1
83890.7
82621.8
81579.7
85949.8
99678.3
117046
131792
143337
146142
106528
76520.9
71618.8
70802.8
70663.1
70640.4
70637.3
70637
70636.9
70636.9
70636.9
70637
70637
70637
70637
70636.9
70636.7
70636.7
70636.8
70637.1
82614.6
79662
77500.2
76099.6
77535.3
89680.8
108412
127940
143241
154949
146046
92133.9
73995.2
71157.9
70718.4
70647.9
70638.1
70637
70636.9
70636.9
70636.9
70637
70637
70637
70637
70637
70637
70637
70637
70637.1
69532.5
71266.8
70863
70474.1
71064.2
78978.1
99345.4
119741
141017
156178
159715
133909
81118.6
72285.6
70877.4
70671.9
70640.9
70637.3
70637
70636.9
70636.9
70637
70637
70637
70637
70637
70637
70637
70637.1
70637.1
69573.8
71129.6
69210.8
65932.3
64635.2
68525.9
89901.8
111385
134949
155096
168473
162146
107119
75587.1
71341.6
70734.5
70649.4
70638.1
70637
70636.9
70637
70637
70637
70637
70637
70637
70637.1
70637.1
70637.1
70637.1
68343.4
72039.7
65457
61736.9
61371.4
64956.6
81738.3
102061
126022
149892
172002
174377
150385
83917.4
72624.7
70897.4
70671.5
70640.7
70637.2
70637
70637
70637
70637
70637
70637
70637.1
70637.1
70637.1
70637.1
70637.1
67953.2
71090
59570.6
57182.4
60792.1
63014.4
70444.7
93652.4
118800
146935
172644
182718
176574
112444
75734.3
71304.4
70721.9
70647.4
70637.8
70637
70637
70637
70637
70637
70637
70637.1
70637.1
70637.1
70637.1
70637.1
51264.7
67728.4
59318
55516.6
55437.8
54120.6
66106.7
90382.9
115355
145085
172753
189968
189589
152541
82070.1
72264.2
70836.1
70661.1
70639.3
70637.1
70637
70637
70637
70637
70637
70637.1
70637.1
70637.1
70637.1
70637.2
70669.1
70604
70644.7
70628.3
70637.7
70635.5
70636
70636.1
70636.1
70636.4
70636.7
70636.9
70637.1
70637.5
70638.9
70642.3
70650.4
70668.1
70704
70769.5
70866.4
70974.9
71052
71080.3
71008.3
71000.6
70977.2
71058.8
71039
71116.5
70655.3
70618.8
70644
70629.4
70637.7
70635.6
70636.1
70636.1
70636.1
70636.3
70636.6
70636.8
70637.1
70637.7
70639.3
70643.6
70653.5
70674.7
70717.3
70792.6
70898.1
71006.1
71067.1
71077.1
70974.1
70951.5
70965.8
71053.4
71037.8
71061.5
70647.1
70628
70642
70631.7
70637.6
70635.9
70636.2
70636.2
70636.2
70636.2
70636.5
70636.8
70637.1
70637.7
70639.5
70644.2
70655.2
70678.9
70726.2
70809
70924.1
71038.4
71091.1
71080.6
70954.9
70906.5
70938.1
71049.4
71040.7
71017.9
70643.5
70631.6
70640.2
70633.5
70637.5
70636.3
70636.4
70636.3
70636.2
70636.2
70636.5
70636.8
70637.1
70637.7
70639.6
70644.6
70656.4
70682.2
70733.4
70822.5
70946.3
71069.5
71119.9
71099.7
70951.8
70867.5
70900.2
71047.8
71048.3
70983.4
70641.2
70633.7
70638.9
70634.8
70637.3
70636.6
70636.6
70636.4
70636.2
70636.2
70636.5
70636.8
70637.1
70637.7
70639.6
70644.7
70657.1
70684.2
70738.1
70831.7
70962
71095
71146.6
71128.4
70953.8
70838.3
70866.9
71027.9
71051.9
70957.5
70639.9
70635.1
70638.1
70635.7
70637.2
70636.9
70636.7
70636.5
70636.2
70636.2
70636.5
70636.8
70637
70637.7
70639.6
70644.6
70657.1
70684.5
70739.6
70835.6
70969.8
71111.5
71167.9
71157
70956.7
70823.5
70838
71006.8
71050.7
70931.5
70639
70635.9
70637.6
70636.3
70637.2
70637.1
70636.9
70636.5
70636.3
70636.2
70636.5
70636.8
70637
70637.7
70639.5
70644.5
70656.9
70684.3
70739.3
70835.3
70969.7
71117.7
71178.8
71183.4
70992.4
70820.1
70813.1
70985.7
71048.6
70900.8
70638.4
70636.5
70637.4
70636.8
70637.2
70637.1
70636.9
70636.5
70636.3
70636.3
70636.5
70636.8
70637
70637.6
70639.4
70644.3
70656.6
70683.8
70738.2
70833.4
70966.6
71117.3
71180.2
71204.9
71035.8
70822.1
70799.6
70976.4
71021.2
70884.3
70637.9
70636.8
70637.3
70637.1
70637.2
70637.1
70636.9
70636.5
70636.3
70636.3
70636.6
70636.8
70637
70637.5
70639.1
70643.9
70656
70682.9
70736.4
70829.9
70960.4
71114.5
71180.4
71216.8
71073.3
70842.4
70812.9
70993.1
71019.3
70889.1
70637.5
70637
70637.3
70637.3
70637.3
70637.2
70636.8
70636.5
70636.3
70636.5
70636.7
70636.8
70637
70637.4
70638.8
70643.2
70655
70681.2
70733.2
70824
70949.1
71107.4
71180.6
71235.3
71138.4
70948
70878.4
71063.7
71056.5
70908
70637.2
70637.1
70637.4
70637.5
70637.3
70637.1
70636.8
70636.4
70636.4
70636.6
70636.7
70636.9
70637
70637.4
70638.6
70642.6
70653.2
70678.1
70727.9
70814.2
70933.2
71093.9
71189
71302.8
71309.4
71209.3
71133.7
71278
71184.9
70994.6
70637.2
70637.2
70637.5
70637.5
70637.2
70637
70636.7
70636.4
70636.5
70636.7
70636.8
70636.9
70637
70637.3
70638.5
70642.1
70651.8
70674.5
70720.6
70802.7
70918.8
71101.6
71269.9
71542.5
71819.4
71953.4
71971.3
71893.4
71572.8
71240.1
70637.6
70637.3
70637.5
70637.4
70637.2
70637
70636.6
70636.5
70636.7
70636.8
70636.8
70636.9
70637
70637.3
70638.3
70641.7
70650.6
70671.4
70714.2
70795
70931.9
71196.7
71596.7
72454.5
73716.5
74487
74470.7
73651.9
72683.5
71889.2
70636.6
70637.2
70637.5
70637.6
70637.2
70636.9
70636.6
70636.7
70636.8
70636.8
70636.9
70636.9
70637
70637.2
70638.2
70641.2
70649.5
70669.1
70713.2
70814.9
71029.5
71600.6
73053.8
76266.1
80003.4
81793.4
80999.4
77738
75611.3
73830.3
70637.6
70637.5
70637.7
70637.1
70637.1
70636.8
70636.7
70636.8
70636.9
70636.9
70636.9
70636.9
70637
70637.2
70638.1
70640.8
70648.8
70670.8
70731.1
70908.8
71458.3
73477.8
79113.2
91605.8
101385
99845.4
93919.2
87477.6
82692
78583.2
70638.1
70637.9
70637.5
70637
70637.1
70636.6
70636.8
70636.9
70636.9
70636.9
70636.9
70636.9
70637
70637.2
70637.9
70640.7
70650.4
70683.8
70808.8
71298.2
73394
81233.1
106279
118035
112095
103541
95839.4
91511.2
90836.4
89538.6
70637.1
70637.1
70636.9
70637.2
70636.7
70636.7
70636.9
70637
70636.9
70636.9
70636.9
70636.9
70637
70637.1
70638
70641.7
70658.5
70738.8
71106.5
72921.5
81276.2
115486
129052
122146
112199
102390
93665.9
91268.1
91434.2
92686.4
70636.9
70636.7
70636.8
70636.7
70636.6
70636.9
70637
70637
70637
70636.9
70636.9
70636.9
70637
70637.2
70638.4
70646.1
70691.5
70934.2
72233.2
79342
114893
138640
132168
121518
108623
95463.7
87807
88161.3
89347.7
91318.2
70637.1
70636.8
70636.7
70636.7
70636.9
70637
70637
70637
70637
70636.9
70636.9
70636.9
70637
70637.3
70640.4
70663.1
70802.5
71615.8
76494.1
106296
145906
143147
131643
116949
99609
85947.1
81547
82589
83861
85519.9
70637.1
70637
70637
70637
70637
70637
70637
70637
70637
70636.9
70636.9
70636.9
70637
70638.1
70647.9
70718.3
71156.6
73982.3
92010.3
145813
154728
143054
127807
108348
89621.9
77527
76056.2
77458.9
79624.1
82543.9
70637.1
70637.1
70637
70637
70637
70637
70637
70637
70637
70636.9
70636.9
70637
70637.3
70640.9
70671.9
70877
72279.8
81070.7
133598
159461
155971
140871
119673
99329.6
78932.7
71024.5
70430.3
70817.6
71214.7
69552.6
70637.1
70637.1
70637.1
70637.1
70637
70637
70637
70637
70637
70637
70636.9
70637
70638.1
70649.4
70734.4
71340.2
75570
106921
161879
168227
154914
134864
111325
89873.9
68497.9
64528.4
65794.8
69043.6
70945.2
69403.9
70637.1
70637.1
70637.1
70637.1
70637.1
70637
70637
70637
70637
70637
70637
70637.2
70640.7
70671.6
70897.2
72621.1
83879
150125
174103
171743
149718
125992
101991
81736.9
64985.4
61273.7
61537.2
65208.6
71810.1
68200.1
70637.1
70637.1
70637.1
70637.1
70637.1
70637
70637
70637
70637
70637
70637
70637.8
70647.4
70721.9
71304.2
75725
112289
176274
182415
172377
146769
118611
93445.3
70385.3
62978.2
60763.5
57005.7
59379.5
70773.2
67806.9
70637.2
70637.1
70637.1
70637.1
70637.1
70637
70637
70637
70637
70637
70637.1
70639.3
70661.2
70836.3
72264.2
82054.7
152328
189267
189640
172465
144801
115067
90052
66058.8
54173.9
55354
55498.2
59249.1
67578.6
51080.2
70637
70637
70637
70637
70637
70637
70637
70637
70637
70637
70637
70637
70637
70637
70637
70637
70637
70637
70637
70637
70637
70637
70637
70637
70637
70637
70637
70637
70637
70637
70637
70637
70637
70637
70637
70637
70637
70637
70637
70637
70637
70637
70637
70637
70637
70637
70637
70637
70637
70637
70637
70637
70637
70637
70637
70637
70637
70637
70637
70637
70637
70637
70637
70637
70637
70637
70637
70637
70637
70637
70637
70637
70637
70637
70637
70637
70637
70637
70637
70637
70637
70637
70637
70637
70637
70637
70637
70637
70637
70637
70637
70637
70637
70637
70637
70637
70637
70637
70637
70637
70637
70637
70637
70637
70637
70637
70637
70637
70637
70637
70637
70637.1
70637.1
70637.1
70637.1
70637.1
70637.1
70637.1
70637.1
70637.1
70637.1
70637.1
70637.1
70637.2
70637.2
70637
70637
70637
70637
70637
70637
70637
70637
70637
70637
70637
70637
70637
70637
70637
70637
70637
70637
70637
70637
70637
70637
70637
70637
70637
70637
70637
70637
70637
70637
70637
70637
70637
70637
70637
70637
70637
70637
70637
70637
70637
70637
70637
70637
70637
70637
70637
70637
70637
70637
70637
70637
70637
70637
70637
70637
70637
70637
70637
70637
70637
70637
70637
70637
70637
70637
70637
70637
70637
70637
70637
70637
70637
70637
70637
70637
70637
70637
70637
70637
70637
70637
70637
70637
70637
70637
70637
70637
70637
70637
70637
70637
70637
70637
70637
70637
70637
70637
70637
70637
70637
70637
70637
70637
70637
70637
70637
70637
70637
70637
70637
70637
70637
70637
70637
70637
70637
70637
70637
70637
70637
70637.1
70637.1
70637.1
70637.1
70637
70637
70637
70637
70637
70637
70637
70637
70637
70637
70637
70637
70637
70637
70637
70637
70637
70637
70637
70637
70637
70637
70637
70637
70637
70637
70637
70637
70637
70637
70637
70637
70637
70637
70637
70637
70637
70637
70637
70637
70637
70637
70637
70637
70637
70637
70637
70637
70637
70637
70637
70637
70637
70637
70637
70637
70637
70637
70637
70637
70637
70637
70637
70637
70637
70637
70637
70637
70637
70637
70637
70637
70637
70637
70637
70637
70637
70637
70637
70637
70637
70637
70637
70637
70637
70637
70637
70637
70637
70637
70637
70637
70637
70637
70637
70637
70637
70637
70637
70637
70637
70637
70637
70637
70637
70637
70637
70637
70637
70637
70637
70637
70637
70637
70637
70637
70637
70637
70637
70637
70637
70637.1
70637.1
70637.1
70637.1
70637
70637
70637
70637
70637
70637
70637
70637
70637
70637
70637
70637
70637
70637
70637
70637
70637
70637
70637
70637
70637
70637
70637
70637
70637
70637
70637
70637
70637
70637
70637
70637
70637
70637
70637
70637
70637
70637
70637
70637
70637
70637
70637
70637
70637
70637
70637
70637
70637
70637
70637
70637
70637
70637
70637
70637
70637
70637
70637
70637
70637
70637
70637
70637
70637
70637
70637
70637
70637
70637
70637
70637
70637
70637
70637
70637
70637
70637
70637
70637
70637
70637
70637
70637
70637
70637
70637
70637
70637
70637
70637
70637
70637
70637
70637
70637
70637
70637
70637
70637
70637
70637
70637
70637
70637
70637
70637
70637
70637
70637
70637
70637
70637
70637
70637
70637
70637
70637
70637
70637
70637
70637.1
70637.1
70637.1
70637.1
70637
70637
70637
70637
70637
70637
70637
70637
70637
70637
70637
70637
70637
70637
70637
70637
70637
70637
70637
70637
70637
70637
70637
70637
70637
70637
70637
70637
70637
70637
70637
70637
70637
70637
70637
70637
70637
70637
70637
70637
70637
70637
70637
70637
70637
70637
70637
70637
70637
70637
70637
70637
70637
70637
70637
70637
70637
70637
70637
70637
70637
70637
70637
70637
70637
70637
70637
70637
70637
70637
70637
70637
70637
70637
70637
70637
70637
70637
70637
70637
70637
70637
70637
70637
70637
70637
70637
70637
70637
70637
70637
70637
70637
70637
70637
70637
70637
70637
70637
70637
70637
70637
70637
70637
70637
70637
70637
70637
70637
70637
70637
70637
70637
70637
70637
70637
70637
70637
70637
70637
70637
70637
70637
70637.1
70637.1
70637
70637
70637
70637
70637
70637
70637
70637
70637
70637
70637
70637
70637
70637
70637
70637
70637
70637
70637
70637
70637
70637
70637
70637
70637
70637
70637
70637
70637
70637
70637
70637
70637
70637
70637
70637
70637
70637
70637
70637
70637
70637
70637
70637
70637
70637
70637
70637
70637
70637
70637
70637
70637
70637
70637
70637
70637
70637
70637
70637
70637
70637
70637
70637
70637
70637
70637
70637
70637
70637
70637
70637
70637
70637
70637
70637
70637
70637
70637
70637
70637
70637
70637
70637
70637
70637
70637
70637
70637
70637
70637
70637
70637
70637
70637
70637
70637
70637
70637
70637
70637
70637
70637
70637
70637
70637
70637
70637
70637
70637
70637
70637
70637
70637
70637
70637
70637
70637
70637
70637
70637
70637
70637
70637
70637
70637
70637
70637
70637
70637
70637
70637
70637
70637
70637
70637
70637
70637
70637
70637
70637
70637
70637
70637
70637
70637
70637
70637
70637
70637
70637
70637
70637
70637
70637
70637
70637
70637
70637
70637
70637
70637
70637
70637
70637
70637
70637
70637
70637
70637
70637
70637
70637
70637
70637
70637
70637
70637
70637
70637
70637
70637
70637
70637
70637
70637
70637
70637
70637
70637
70637
70637
70637
70637
70637
70637
70637
70637
70637
70637
70637
70637
70637
70637
70637
70637
70637
70637
70637
70637
70637
70637
70637
70637
70637
70637
70637
70637
70637
70637
70637
70637
70637
70637
70637
70637
70637
70637
70637
70637
70637
70637
70637
70637
70637
70637
70637
70637
70637
70637
70637
70637
70637
70637
70637
70637
70637
70637
70637
70637
70637
70637
70637
70637
70637
70637
70637
70637
70637
70637
70637
70637
70637
70637
70637
70637
70637
70637
70637
70637
70637
70637
70637
70637
70637
70637
70637
70637
70637
70637
70637
70637
70637
70637
70637
70637
70637
70637
70637
70637
70637
70637
70637
70637
70637
70637
70637
70637
70637
70637
70637
70637
70637
70637
70637
70637
70637
70637
70637
70637
70637
70637
70637
70637