/*--------------------------------*- C++ -*----------------------------------*\
| =========                 |                                                 |
| \\      /  F ield         | OpenFOAM: The Open Source CFD Toolbox           |
|  \\    /   O peration     | Version:  2112                                  |
|   \\  /    A nd           | Website:  www.openfoam.com                      |
|    \\/     M anipulation  |                                                 |
\*---------------------------------------------------------------------------*/
FoamFile
{
    version     2.0;
    format      ascii;
    arch        "LSB;label=32;scalar=64";
    class       volScalarField;
    location    "0.00429";
    object      alphat;
}
// * * * * * * * * * * * * * * * * * * * * * * * * * * * * * * * * * * * * * //

dimensions      [1 -1 -1 0 0 0 0];

internalField   nonuniform List<scalar> 
13875
(
0.119859
0.0816048
0.0784635
0.0782776
0.0782659
0.0783448
0.0783582
0.0783547
0.0783227
0.0782847
0.07829
0.078322
0.0783794
0.0784146
0.0783992
0.0782879
0.0782276
0.0782844
0.0783362
0.0783696
0.0782871
0.0782586
0.0784889
0.0814627
0.120879
0.10394
0.0576809
0.0570954
0.0571661
0.0566624
0.0565719
0.0565747
0.0565691
0.0566154
0.0570468
0.0571335
0.0571159
0.0566582
0.05662
0.0566732
0.0570732
0.0570533
0.0570353
0.0566716
0.0565801
0.0566332
0.0571368
0.0570774
0.0573364
0.104558
0.110622
0.0553292
0.0558872
0.0547027
0.0544469
0.0543039
0.0542203
0.0541972
0.054197
0.0541346
0.054292
0.0543671
0.0542888
0.0543113
0.0542592
0.0543392
0.0540311
0.0542787
0.054324
0.0543776
0.054446
0.0545665
0.0557715
0.0550755
0.111354
0.115891
0.0546487
0.055391
0.0542913
0.0538916
0.0537614
0.053676
0.053657
0.0536541
0.0534649
0.053476
0.0535825
0.0537497
0.0537761
0.0537161
0.0535567
0.0533741
0.0535987
0.05378
0.0538438
0.0539119
0.0541683
0.0551865
0.0543101
0.115905
0.12104
0.0546379
0.0551293
0.0537204
0.053551
0.0533498
0.0532154
0.0531836
0.053171
0.0529865
0.0529795
0.0530939
0.0532732
0.0533025
0.0532411
0.0530725
0.0528941
0.0530962
0.0533149
0.0534062
0.0535347
0.0535749
0.0550041
0.0543315
0.121371
0.124418
0.0547473
0.055191
0.0535748
0.0531577
0.052939
0.0528093
0.0527737
0.0527559
0.0525923
0.0525374
0.0526476
0.0528623
0.0528963
0.0528209
0.0526244
0.052485
0.0526776
0.0529071
0.0530247
0.0531646
0.0534705
0.0548757
0.0543978
0.12399
0.12876
0.0564759
0.055785
0.0534213
0.0531531
0.0527849
0.0525506
0.0524665
0.0524169
0.0522588
0.0521778
0.0522917
0.052536
0.0525757
0.0524942
0.052266
0.0521603
0.0523289
0.052642
0.052857
0.0531432
0.0533393
0.0556277
0.0563621
0.128887
0.135724
0.0611974
0.0578383
0.0543853
0.0533108
0.0527503
0.0524211
0.052296
0.0522245
0.0520575
0.0519418
0.0520256
0.0523341
0.0523897
0.0522873
0.0520127
0.0519788
0.052151
0.0525181
0.0528226
0.0533135
0.0542712
0.057526
0.061038
0.135534
0.151378
0.0692634
0.0615676
0.0559315
0.0544081
0.0533317
0.0527045
0.0524134
0.0522423
0.0520552
0.0519248
0.0519776
0.0523535
0.0524407
0.0523224
0.0519892
0.0520199
0.0521947
0.0526971
0.0533387
0.0543304
0.055717
0.0610199
0.0683845
0.154269
0.239294
0.087404
0.0665078
0.0590388
0.05566
0.0541948
0.0533855
0.0529529
0.0526844
0.0524566
0.0523294
0.0523437
0.0527971
0.0529226
0.0527902
0.0524363
0.052498
0.0526888
0.0532622
0.0541592
0.055711
0.058815
0.0661497
0.0868257
0.241414
0.36528
0.118545
0.076287
0.0627911
0.0585895
0.0561094
0.0549364
0.0542906
0.0538891
0.0536279
0.0534967
0.0534749
0.0539827
0.0541599
0.0540504
0.0537326
0.053782
0.0539832
0.0546197
0.0558911
0.058348
0.0625178
0.075036
0.112849
0.365278
0.658036
0.19415
0.104753
0.0762516
0.0646566
0.0601387
0.058343
0.0573305
0.0567702
0.0564602
0.0563127
0.056275
0.0567784
0.0570233
0.0569806
0.0567849
0.0568334
0.0571112
0.0579465
0.0596228
0.0644225
0.0753528
0.102864
0.185499
0.645058
0.582677
0.423033
0.186101
0.0968831
0.082182
0.0713095
0.0666577
0.0648307
0.0638622
0.0634164
0.063255
0.0632223
0.0636225
0.063933
0.0640241
0.064057
0.0642919
0.0649551
0.066515
0.0709963
0.080979
0.0932693
0.175848
0.422267
0.580999
0.498734
0.400004
0.361283
0.375362
0.140357
0.0995114
0.0883403
0.085863
0.0840704
0.0832912
0.0830659
0.0830786
0.083346
0.0837079
0.0839881
0.0843948
0.0852424
0.0871407
0.0901043
0.100538
0.157942
0.372625
0.353701
0.400934
0.50539
0.40983
0.354066
0.347156
0.383442
0.320737
0.21579
0.18689
0.148922
0.135494
0.132811
0.13152
0.131473
0.131389
0.131808
0.132508
0.134084
0.136981
0.14874
0.191929
0.225907
0.315809
0.378223
0.341425
0.36643
0.429308
0.351718
0.322778
0.322055
0.384312
0.463814
0.518021
0.489257
0.462077
0.487268
0.500678
0.50268
0.500785
0.502133
0.504985
0.505163
0.503859
0.487191
0.460183
0.487813
0.525987
0.467569
0.390093
0.327588
0.329296
0.364163
0.272362
0.279369
0.334159
0.416386
0.485486
0.544433
0.536016
0.495026
0.461933
0.458575
0.459243
0.458576
0.459705
0.461554
0.462618
0.462525
0.4659
0.49366
0.519696
0.53893
0.493577
0.422458
0.332965
0.285308
0.287786
0.204564
0.2613
0.345333
0.391026
0.429596
0.479975
0.475479
0.450178
0.425715
0.411594
0.40868
0.4077
0.409173
0.41078
0.41247
0.415835
0.429404
0.450437
0.462323
0.472638
0.436184
0.40892
0.351316
0.247457
0.187523
0.096896
0.186202
0.32682
0.352406
0.365853
0.393758
0.392778
0.385434
0.375985
0.364057
0.35657
0.353247
0.353786
0.355047
0.357513
0.363181
0.373979
0.379857
0.380985
0.386786
0.364901
0.354822
0.331308
0.189385
0.0966657
0.0408045
0.131393
0.251987
0.285381
0.293547
0.320188
0.33971
0.345338
0.34275
0.330634
0.318937
0.312194
0.311923
0.314116
0.320144
0.329508
0.339744
0.340092
0.332806
0.318134
0.297122
0.292097
0.256385
0.131407
0.0398831
0.0411824
0.102517
0.173469
0.210837
0.231442
0.263061
0.291153
0.305949
0.309148
0.297919
0.283955
0.276194
0.275095
0.278579
0.285948
0.2977
0.306648
0.301762
0.286728
0.261211
0.233041
0.212092
0.169205
0.0966755
0.0382155
0.0901519
0.119237
0.129166
0.165472
0.18616
0.222367
0.250732
0.268196
0.273812
0.264178
0.250797
0.242032
0.240737
0.244141
0.252674
0.264213
0.271683
0.264627
0.246995
0.22096
0.187055
0.166244
0.12577
0.116224
0.087353
0.141691
0.132964
0.118974
0.133783
0.154427
0.190789
0.216511
0.234466
0.241475
0.232758
0.219555
0.211582
0.209642
0.212984
0.220459
0.231936
0.238549
0.230098
0.212473
0.188631
0.154895
0.133466
0.117253
0.129837
0.139825
0.169468
0.14264
0.115645
0.117762
0.134889
0.163184
0.186018
0.203948
0.210679
0.202491
0.190946
0.183433
0.182192
0.184708
0.191916
0.201811
0.207551
0.199475
0.181325
0.161546
0.135838
0.118477
0.114667
0.141559
0.162612
0.187739
0.155337
0.114045
0.109828
0.121454
0.141348
0.16124
0.177421
0.183683
0.176347
0.165739
0.159953
0.158371
0.161116
0.166754
0.176138
0.181648
0.173619
0.157279
0.139163
0.121222
0.109634
0.113248
0.155049
0.177217
0.20127
0.171473
0.114663
0.106538
0.111353
0.124984
0.141233
0.154589
0.159438
0.153424
0.144812
0.138911
0.137992
0.13979
0.145335
0.152739
0.156854
0.150621
0.137255
0.123152
0.111271
0.10655
0.113322
0.166188
0.199118
0.221663
0.188161
0.115901
0.105465
0.104596
0.112613
0.125157
0.135234
0.138982
0.133746
0.12609
0.121808
0.120588
0.122647
0.126616
0.133543
0.137292
0.131914
0.12172
0.109829
0.102942
0.104664
0.114131
0.181977
0.221181
0.243259
0.198903
0.117296
0.103581
0.0996811
0.103115
0.111359
0.118394
0.120762
0.11659
0.110799
0.106552
0.105964
0.107194
0.111351
0.116568
0.119578
0.116102
0.108659
0.101388
0.09812
0.102914
0.11586
0.192887
0.255521
0.277548
0.206838
0.119568
0.101581
0.0963119
0.0962384
0.10092
0.105383
0.106772
0.102898
0.0973542
0.0944537
0.0934626
0.0949175
0.0976108
0.102425
0.105263
0.102755
0.098079
0.0934881
0.0942248
0.100192
0.116913
0.201574
0.28994
0.322137
0.214683
0.120822
0.0992742
0.0924253
0.0910102
0.0918855
0.0936121
0.0936049
0.0902699
0.0863983
0.083373
0.0829455
0.083765
0.0867802
0.0902632
0.0927121
0.0917253
0.0892996
0.0886746
0.090231
0.0981547
0.12098
0.217566
0.313843
0.338003
0.225176
0.125226
0.0967953
0.0887896
0.0854971
0.0844143
0.0844761
0.0836728
0.080616
0.0766478
0.0747005
0.0739107
0.0750956
0.0769159
0.0804866
0.0830785
0.0830756
0.0825558
0.0835047
0.0869242
0.0958725
0.124368
0.231943
0.334952
0.345985
0.232788
0.129363
0.0962814
0.085495
0.0812913
0.0783623
0.0768516
0.0749871
0.0717814
0.0689619
0.0666444
0.0663131
0.0669998
0.0691463
0.0715769
0.0740668
0.0753456
0.0762638
0.0794505
0.083727
0.0953766
0.130255
0.239208
0.344879
0.35689
0.233608
0.13641
0.0971209
0.082279
0.0763432
0.0728295
0.0703954
0.0681626
0.0651915
0.0619302
0.0604367
0.0597499
0.0607676
0.0620789
0.0650385
0.0676507
0.0693097
0.0711849
0.0746989
0.0805689
0.0960859
0.138974
0.242467
0.353525
0.36153
0.236402
0.148253
0.0980054
0.0799562
0.0726983
0.0680478
0.0646265
0.0619188
0.0587486
0.0564396
0.0545421
0.054207
0.0548177
0.0565786
0.0586124
0.0613598
0.0637277
0.0666936
0.0715067
0.0786081
0.0970737
0.147833
0.241542
0.36288
0.360307
0.237674
0.155665
0.102358
0.0787616
0.0690629
0.0633586
0.0600699
0.0572002
0.0543274
0.0514192
0.0501156
0.0494341
0.0503199
0.0514637
0.0541339
0.0567307
0.0590902
0.0620891
0.0678876
0.0776069
0.100775
0.15925
0.240148
0.369969
0.36505
0.235935
0.155445
0.105027
0.0789469
0.0665739
0.059747
0.0556936
0.0526426
0.0495277
0.0474047
0.0457763
0.0453918
0.0459414
0.0475333
0.0494471
0.0521893
0.0550305
0.0585584
0.0656004
0.0784317
0.10555
0.159977
0.235887
0.371537
0.367094
0.232628
0.155151
0.112771
0.0799333
0.0643034
0.0560479
0.0519672
0.0490036
0.0464085
0.0437659
0.0425625
0.0418857
0.042716
0.0438299
0.0463442
0.048801
0.0514445
0.0552552
0.0637421
0.0792707
0.114148
0.158584
0.230501
0.3736
0.366064
0.227616
0.153972
0.123232
0.0828014
0.0640731
0.0540652
0.0488501
0.0456357
0.0427115
0.0407748
0.0392749
0.038892
0.0394518
0.0408979
0.0426615
0.0452485
0.048382
0.053193
0.0631048
0.0824505
0.126492
0.15604
0.2257
0.369283
0.367086
0.221664
0.149477
0.124658
0.0866536
0.0636393
0.0520942
0.0463101
0.0429016
0.0404259
0.0380109
0.0369118
0.0362948
0.0371037
0.0381021
0.0404139
0.04284
0.0458484
0.0512569
0.0635553
0.087558
0.127915
0.151099
0.222654
0.362763
0.366307
0.219301
0.142098
0.12397
0.093609
0.065063
0.0519431
0.0443752
0.0404775
0.0374519
0.0357233
0.034377
0.0340304
0.0345695
0.0358645
0.0374786
0.0401851
0.0441779
0.0513848
0.0646488
0.0957892
0.126642
0.142135
0.219446
0.362024
0.360572
0.217025
0.135309
0.123181
0.10546
0.0673161
0.051616
0.0432778
0.0386674
0.0359901
0.033659
0.0326576
0.0320534
0.032796
0.0337248
0.0359841
0.0386974
0.0430313
0.0508599
0.0680956
0.10861
0.124032
0.134564
0.219809
0.357286
0.358827
0.215725
0.129419
0.118969
0.105224
0.0719605
0.0523357
0.043099
0.0374426
0.0337191
0.0319286
0.0306684
0.0303271
0.0307988
0.032054
0.03372
0.0371515
0.0430733
0.0524025
0.0743298
0.108515
0.118868
0.130387
0.220471
0.352586
0.350749
0.215664
0.125582
0.113347
0.104898
0.0797834
0.0537542
0.0429599
0.0367708
0.0331465
0.0304513
0.0294072
0.0288009
0.0295244
0.0305059
0.033187
0.0368365
0.0428513
0.054446
0.0840891
0.106976
0.112688
0.125856
0.218334
0.349177
0.3438
0.215882
0.124285
0.107578
0.102271
0.0881726
0.058112
0.0437377
0.036863
0.0316187
0.0293257
0.0278661
0.0274874
0.0279923
0.0294133
0.0315497
0.0366396
0.0437245
0.0596515
0.0883101
0.102806
0.107083
0.124165
0.217722
0.34531
0.338127
0.212634
0.121962
0.10359
0.0984368
0.0880988
0.0644616
0.0451398
0.0366783
0.0321811
0.0287037
0.0271442
0.0264142
0.0272405
0.0287255
0.0322283
0.0369219
0.0457915
0.0680608
0.0880761
0.0970208
0.103433
0.123589
0.214967
0.338188
0.333179
0.211991
0.122507
0.0997363
0.0928489
0.0865718
0.074606
0.0490348
0.0376099
0.0315825
0.0286158
0.026381
0.0257231
0.0264911
0.0285822
0.0315089
0.0377728
0.0500562
0.0743779
0.0860642
0.0914669
0.0997677
0.123242
0.212268
0.335207
0.324173
0.208197
0.122659
0.0985092
0.0892848
0.0840626
0.0749597
0.0554815
0.0395105
0.0325699
0.0286502
0.0265221
0.0253825
0.0266369
0.0285721
0.0326092
0.0401237
0.0566731
0.0742671
0.082377
0.0879389
0.0984222
0.122557
0.209151
0.327254
0.318099
0.20522
0.122482
0.0967598
0.0858154
0.0797813
0.073954
0.0647127
0.0441302
0.0328082
0.0287291
0.0262913
0.0253903
0.0264214
0.0287937
0.0329309
0.045398
0.0650411
0.0734756
0.0787538
0.0850002
0.0970139
0.123314
0.20658
0.318855
0.298082
0.197539
0.120803
0.0964885
0.0840037
0.07629
0.0717347
0.0651573
0.050853
0.0361626
0.0292658
0.026677
0.0254963
0.0267853
0.0293683
0.0366248
0.0532106
0.0652225
0.0712737
0.0758689
0.0836216
0.096608
0.121372
0.198117
0.297585
0.271122
0.187319
0.118727
0.0946056
0.082253
0.0736789
0.0685936
0.0641706
0.0573478
0.0403031
0.0308874
0.0268167
0.0258339
0.026902
0.031137
0.0406323
0.0572033
0.0642273
0.0682889
0.0734866
0.0820303
0.0945448
0.118765
0.187514
0.270889
0.0783989
0.2162
0.290366
0.318121
0.3275
0.332597
0.337763
0.342876
0.348158
0.354537
0.361381
0.368768
0.375913
0.381679
0.387774
0.394436
0.410922
0.490043
0.784917
0.914816
0.923382
0.915414
0.900923
0.888201
0.876236
0.857692
0.820744
0.742107
0.57169
0.199892
0.0724141
0.22488
0.298362
0.324432
0.333204
0.338663
0.343243
0.348179
0.353745
0.360608
0.367112
0.37336
0.379362
0.386488
0.393825
0.407933
0.464167
0.722002
0.917115
0.942799
0.938646
0.921236
0.901403
0.885589
0.870988
0.84902
0.807808
0.724253
0.554231
0.19705
0.0757827
0.239029
0.306536
0.329679
0.337746
0.34308
0.347787
0.353077
0.359446
0.366021
0.372152
0.378253
0.384441
0.392158
0.403411
0.438379
0.606819
0.913377
0.971324
0.953547
0.935209
0.904474
0.886798
0.873037
0.857634
0.833446
0.78822
0.699193
0.527009
0.192981
0.078379
0.248009
0.311711
0.333492
0.341244
0.346894
0.352561
0.358793
0.365251
0.371482
0.377752
0.38381
0.390582
0.399883
0.422347
0.52243
0.875683
1.00357
0.994358
0.954813
0.91562
0.884132
0.866158
0.851525
0.834967
0.809201
0.761942
0.670589
0.499828
0.190454
0.0791605
0.252338
0.315802
0.337138
0.34519
0.351856
0.357907
0.36442
0.371034
0.377396
0.383869
0.390472
0.398295
0.413373
0.473416
0.763463
1.01276
1.03661
0.998124
0.948328
0.903366
0.868876
0.847429
0.830605
0.811624
0.783436
0.733757
0.640287
0.473576
0.187268
0.08014
0.25725
0.320482
0.341787
0.350258
0.356428
0.363101
0.370282
0.377292
0.38382
0.390864
0.397423
0.407986
0.446672
0.646272
0.996247
1.06642
1.03966
0.9926
0.939528
0.890986
0.854523
0.830824
0.812213
0.791317
0.760553
0.708663
0.613676
0.451055
0.184939
0.0814936
0.263169
0.32628
0.34769
0.354998
0.361546
0.368805
0.376618
0.383637
0.390495
0.396908
0.40499
0.431648
0.564595
0.963133
1.07713
1.06985
1.02876
0.980288
0.926751
0.875718
0.840182
0.814222
0.793542
0.771363
0.738728
0.684492
0.588243
0.429449
0.182016
0.0831781
0.270243
0.332939
0.352621
0.360021
0.366855
0.374528
0.38254
0.389364
0.396261
0.403848
0.424383
0.522092
0.908449
1.0675
1.07927
1.0496
1.00754
0.960121
0.909363
0.855896
0.821377
0.79442
0.77279
0.749613
0.714799
0.658446
0.561886
0.408031
0.17874
0.0849361
0.277383
0.338548
0.357329
0.364834
0.371794
0.379635
0.38788
0.396087
0.405789
0.424596
0.505012
0.847995
1.03486
1.06142
1.04647
1.01635
0.975406
0.932071
0.885808
0.830998
0.796286
0.769677
0.747974
0.723981
0.687466
0.629437
0.533464
0.385945
0.174777
0.0864686
0.283558
0.343765
0.361436
0.368802
0.376651
0.386404
0.399573
0.417374
0.443501
0.514967
0.806793
0.97984
1.01317
1.01209
0.995942
0.966935
0.930933
0.892773
0.853543
0.80148
0.764873
0.739092
0.717981
0.693461
0.655673
0.596538
0.502478
0.362856
0.169979
0.0876487
0.289173
0.34833
0.364848
0.373931
0.388156
0.412083
0.447169
0.510039
0.603161
0.785833
0.897284
0.933704
0.943396
0.942105
0.927956
0.899395
0.869825
0.839206
0.811779
0.765177
0.727541
0.703473
0.682789
0.657946
0.618911
0.559809
0.469078
0.338738
0.164261
0.0886873
0.294582
0.352568
0.371493
0.393808
0.435569
0.531153
0.628941
0.679355
0.718805
0.792261
0.824085
0.842345
0.855361
0.856993
0.837544
0.816075
0.797545
0.777291
0.762774
0.723341
0.685331
0.663542
0.643403
0.618327
0.578693
0.521335
0.435433
0.315048
0.158345
0.0898041
0.300643
0.360786
0.400402
0.488211
0.619533
0.646872
0.636037
0.62699
0.642324
0.688124
0.719002
0.741233
0.756037
0.751554
0.73613
0.730077
0.723163
0.712445
0.706461
0.677407
0.640065
0.620336
0.601203
0.576296
0.537966
0.483535
0.403223
0.29284
0.152392
0.0913593
0.310547
0.395933
0.535165
0.631886
0.607864
0.561357
0.52844
0.513493
0.528417
0.572178
0.606853
0.633115
0.645259
0.644148
0.638757
0.644596
0.646326
0.643925
0.645331
0.627015
0.593351
0.575334
0.557855
0.533853
0.497989
0.447066
0.372731
0.272238
0.146473
0.0947853
0.345936
0.539148
0.61831
0.557491
0.496929
0.446092
0.419696
0.410741
0.426231
0.460029
0.498795
0.531374
0.543404
0.544762
0.547361
0.562141
0.570274
0.575649
0.583126
0.574466
0.546109
0.530323
0.514882
0.492293
0.459337
0.412201
0.344057
0.253203
0.140672
0.109973
0.466994
0.614221
0.530644
0.45161
0.397755
0.358037
0.33788
0.332123
0.34388
0.370835
0.408455
0.441852
0.452292
0.45668
0.467401
0.486217
0.499743
0.511366
0.522654
0.522378
0.499937
0.486824
0.473473
0.452582
0.422562
0.379278
0.317318
0.235588
0.134923
0.181562
0.617346
0.539596
0.438484
0.374494
0.333795
0.307359
0.288918
0.279643
0.285276
0.303498
0.337743
0.36881
0.375902
0.383619
0.401654
0.421283
0.438689
0.453338
0.466976
0.472444
0.456215
0.445687
0.434129
0.415269
0.388129
0.348653
0.292698
0.219408
0.129318
0.375699
0.599963
0.461197
0.377343
0.327013
0.298111
0.276882
0.256976
0.241589
0.242196
0.258545
0.286374
0.314182
0.318158
0.329909
0.347501
0.367691
0.386928
0.403109
0.417643
0.42624
0.415503
0.407218
0.397104
0.380706
0.35634
0.320549
0.270222
0.204757
0.123974
0.4714
0.556949
0.40984
0.334258
0.295671
0.275694
0.252095
0.230703
0.213854
0.212935
0.228905
0.251766
0.277073
0.278804
0.288126
0.30673
0.326204
0.344415
0.36042
0.374915
0.384293
0.377805
0.371685
0.36302
0.349068
0.327331
0.295021
0.249831
0.19155
0.118941
0.512908
0.520762
0.358586
0.300802
0.277414
0.260007
0.240928
0.221428
0.200298
0.194257
0.208809
0.230734
0.254195
0.252908
0.259746
0.275114
0.293566
0.309527
0.324771
0.338709
0.346924
0.343647
0.33954
0.332304
0.320475
0.301078
0.271965
0.231513
0.179611
0.114182
0.517069
0.448266
0.313141
0.283892
0.278314
0.274195
0.264128
0.241418
0.215346
0.194104
0.19455
0.217319
0.237167
0.236517
0.240344
0.252723
0.268885
0.282194
0.296366
0.308276
0.314945
0.313625
0.310744
0.304994
0.294703
0.277331
0.25119
0.21502
0.168739
0.109608
0.472808
0.375541
0.314093
0.285488
0.287749
0.287517
0.277391
0.254439
0.228995
0.205369
0.193846
0.208031
0.224007
0.226558
0.228622
0.237672
0.250071
0.260554
0.272802
0.282549
0.289136
0.287195
0.285073
0.280631
0.271691
0.256028
0.232447
0.200072
0.158837
0.105226
0.386745
0.349041
0.312701
0.286644
0.295005
0.293243
0.288294
0.266884
0.242822
0.217171
0.20191
0.20322
0.220431
0.221611
0.222107
0.226433
0.235123
0.243286
0.25398
0.262565
0.265535
0.262609
0.262807
0.259229
0.251197
0.23704
0.215838
0.186685
0.149882
0.101126
0.383518
0.321485
0.311049
0.294116
0.298716
0.292095
0.284221
0.267105
0.250217
0.229734
0.215342
0.209008
0.220322
0.224285
0.2181
0.218907
0.224953
0.23164
0.239987
0.244396
0.244535
0.243791
0.244698
0.241056
0.233517
0.220364
0.201063
0.174719
0.141742
0.0973263
0.31372
0.258575
0.303374
0.301553
0.302305
0.294804
0.286294
0.268935
0.257171
0.248299
0.233341
0.222416
0.228478
0.240462
0.219304
0.214666
0.216784
0.220964
0.226025
0.227586
0.22883
0.229397
0.229292
0.225174
0.217914
0.205698
0.188063
0.164247
0.134464
0.0938701
0.199652
0.57174
0.741992
0.820565
0.857625
0.87638
0.888703
0.901859
0.917286
0.929243
0.922332
0.792906
0.492587
0.413157
0.39672
0.389799
0.383333
0.377468
0.370175
0.363227
0.356505
0.349937
0.34471
0.339549
0.334596
0.328764
0.319095
0.290938
0.216441
0.0785296
0.196841
0.554381
0.724352
0.807934
0.84924
0.871477
0.886662
0.903133
0.923934
0.941678
0.949767
0.926025
0.732687
0.467457
0.410192
0.395725
0.38796
0.380869
0.374832
0.368604
0.362283
0.355317
0.34971
0.344577
0.339887
0.334724
0.325601
0.299028
0.225101
0.0725935
0.192889
0.527411
0.699655
0.78865
0.834134
0.858845
0.874921
0.889317
0.908033
0.939812
0.959735
0.97903
0.92334
0.615472
0.441272
0.405177
0.393605
0.385837
0.379783
0.373679
0.367309
0.360942
0.354327
0.348894
0.343921
0.338962
0.33101
0.307473
0.239496
0.0759599
0.19046
0.500571
0.671346
0.762725
0.810326
0.836749
0.854034
0.86938
0.889057
0.921366
0.960393
0.999809
1.01155
0.887558
0.52903
0.424693
0.401328
0.392008
0.385288
0.379112
0.372688
0.36616
0.359445
0.353251
0.347602
0.342048
0.334699
0.312956
0.248823
0.0786051
0.187334
0.474416
0.641243
0.734841
0.785005
0.814126
0.834044
0.851694
0.874612
0.909969
0.95422
1.00227
1.04162
1.02064
0.776097
0.477799
0.415285
0.399701
0.391931
0.385264
0.37855
0.371908
0.365305
0.358394
0.352166
0.345864
0.33815
0.316994
0.25326
0.079402
0.185078
0.452033
0.614899
0.710051
0.762432
0.794178
0.815962
0.835709
0.860506
0.898027
0.945887
0.99644
1.04302
1.0708
1.0038
0.658283
0.450135
0.409524
0.39887
0.392219
0.385159
0.378313
0.371172
0.363922
0.357239
0.350673
0.342426
0.321569
0.258223
0.080379
0.182229
0.430559
0.589731
0.686246
0.741076
0.774793
0.797632
0.819452
0.845985
0.882761
0.933009
0.98396
1.03152
1.07221
1.08121
0.971812
0.575497
0.434589
0.406549
0.398244
0.391709
0.384638
0.377631
0.369789
0.362379
0.356033
0.348262
0.327043
0.264031
0.0818271
0.179044
0.409286
0.563687
0.66062
0.717716
0.753413
0.777241
0.799919
0.827383
0.862544
0.914949
0.963585
1.0099
1.05081
1.08068
1.07056
0.923128
0.531934
0.427658
0.405631
0.39767
0.390646
0.383601
0.375739
0.368076
0.361198
0.353759
0.333594
0.270659
0.0833548
0.175173
0.387316
0.535452
0.631937
0.690906
0.727969
0.752617
0.775295
0.802341
0.837077
0.889839
0.934644
0.977153
1.01674
1.04619
1.06083
1.03694
0.868513
0.516196
0.42959
0.409009
0.398302
0.389495
0.381095
0.373206
0.366195
0.35879
0.339341
0.277807
0.0851004
0.170445
0.364335
0.504646
0.599241
0.659389
0.697619
0.722661
0.744555
0.770712
0.807207
0.855495
0.893638
0.931562
0.966473
0.994714
1.00947
1.00964
0.979556
0.827454
0.535838
0.454536
0.425332
0.404776
0.389492
0.378589
0.370275
0.362906
0.344753
0.284017
0.0866318
0.164757
0.340272
0.471342
0.562631
0.622807
0.66209
0.687328
0.708661
0.733054
0.7706
0.812213
0.838615
0.868877
0.89768
0.925552
0.938415
0.93766
0.926861
0.892967
0.794699
0.635004
0.542334
0.465778
0.42253
0.39376
0.376469
0.366497
0.349527
0.289787
0.0878026
0.158855
0.316599
0.437664
0.52408
0.582426
0.622382
0.647789
0.668345
0.69034
0.72741
0.762847
0.776711
0.796168
0.813255
0.833635
0.851927
0.848774
0.833977
0.814769
0.782376
0.71228
0.683154
0.654697
0.568476
0.457927
0.402561
0.374967
0.353975
0.295456
0.0890048
0.15293
0.294378
0.405373
0.486095
0.541225
0.580468
0.605353
0.624612
0.644301
0.680346
0.705434
0.711158
0.721479
0.726824
0.73169
0.745427
0.747935
0.732709
0.708971
0.674989
0.62688
0.615204
0.627069
0.643816
0.640697
0.525752
0.411959
0.364783
0.302021
0.0901815
0.147014
0.273695
0.374768
0.449516
0.501001
0.537856
0.561643
0.579003
0.596747
0.629001
0.643602
0.641761
0.644072
0.64092
0.634014
0.638408
0.637152
0.624356
0.595056
0.559278
0.514226
0.500762
0.513551
0.545596
0.596556
0.630024
0.572445
0.408794
0.314541
0.0919205
0.141194
0.254555
0.345952
0.41453
0.46212
0.495911
0.518242
0.53338
0.548933
0.575309
0.581178
0.573139
0.567658
0.558365
0.542723
0.539329
0.535841
0.524198
0.487648
0.44859
0.414824
0.400898
0.40759
0.432735
0.482719
0.542737
0.609605
0.573372
0.358591
0.0963177
0.135422
0.236814
0.319051
0.381404
0.425013
0.455628
0.4764
0.489382
0.502241
0.522321
0.52056
0.508956
0.497098
0.482584
0.463143
0.452021
0.44558
0.43626
0.398224
0.361628
0.335698
0.324539
0.332611
0.351414
0.387923
0.439679
0.517388
0.608126
0.499106
0.116864
0.129768
0.220479
0.29424
0.35052
0.390201
0.417702
0.436801
0.447886
0.457918
0.471703
0.464787
0.45103
0.43626
0.418217
0.397898
0.379354
0.370789
0.364357
0.329768
0.296803
0.279656
0.275861
0.285844
0.303716
0.328226
0.366455
0.429463
0.529019
0.628304
0.216506
0.124376
0.205708
0.271521
0.322134
0.358073
0.382663
0.399574
0.409141
0.416474
0.424923
0.415685
0.400984
0.384711
0.365348
0.344281
0.326329
0.314361
0.311545
0.280353
0.253473
0.239044
0.23946
0.254242
0.274891
0.295479
0.321888
0.372247
0.454874
0.59832
0.402523
0.119309
0.192399
0.250929
0.296359
0.328773
0.350653
0.365012
0.373301
0.378413
0.382818
0.373253
0.35857
0.342491
0.32419
0.304105
0.285858
0.275726
0.275178
0.247888
0.225285
0.210381
0.211819
0.228099
0.25062
0.273735
0.292791
0.330548
0.407302
0.56086
0.480755
0.114522
0.180353
0.232459
0.273159
0.302279
0.321679
0.333624
0.340787
0.343995
0.345832
0.337399
0.323185
0.307875
0.291888
0.272883
0.258474
0.250605
0.252185
0.228867
0.205436
0.191893
0.202814
0.224814
0.244199
0.260519
0.276832
0.299128
0.357055
0.524384
0.512368
0.109908
0.16935
0.215841
0.252238
0.278419
0.295756
0.305946
0.311588
0.313788
0.314194
0.307187
0.295107
0.281157
0.267778
0.251205
0.240019
0.234892
0.233404
0.215727
0.192878
0.195374
0.218032
0.245473
0.267876
0.277424
0.280123
0.286577
0.31815
0.449061
0.510402
0.10547
0.159285
0.200765
0.23334
0.256987
0.272573
0.2814
0.285585
0.287516
0.288786
0.281482
0.271425
0.25966
0.249321
0.236471
0.228833
0.225769
0.221842
0.206382
0.194341
0.206662
0.230448
0.257528
0.280929
0.291001
0.290756
0.289127
0.321922
0.38414
0.461591
0.101296
0.150178
0.187229
0.216505
0.237819
0.251958
0.259888
0.263229
0.262876
0.265583
0.261728
0.252852
0.242411
0.234277
0.224985
0.221703
0.22248
0.219576
0.203863
0.202634
0.219512
0.244502
0.267913
0.28964
0.295033
0.298246
0.290427
0.321366
0.358604
0.374546
0.097404
0.141921
0.175044
0.201427
0.220879
0.234052
0.241554
0.245055
0.244305
0.244888
0.24398
0.239216
0.230786
0.224048
0.217899
0.217963
0.228724
0.219403
0.210967
0.21735
0.233289
0.253317
0.269065
0.283972
0.293267
0.300968
0.298134
0.318786
0.331542
0.372469
0.0938458
0.134521
0.16436
0.188194
0.205893
0.218159
0.225534
0.229699
0.229715
0.229269
0.22796
0.225953
0.22075
0.21658
0.214665
0.219802
0.248505
0.225961
0.223466
0.236342
0.251853
0.259816
0.271198
0.290863
0.298002
0.305185
0.305284
0.309098
0.26279
0.310578
0.877595
0.807144
0.815314
0.830843
0.88599
0.906033
0.931168
0.986077
1.05277
1.10862
1.13723
1.13296
1.11689
1.0843
1.02712
0.981182
0.951497
0.919015
0.883559
0.849856
0.819779
0.79336
0.771133
0.754177
0.739846
0.724392
0.710832
0.698924
0.687307
0.676306
0.666674
0.65799
0.649284
0.640953
0.631528
0.620082
0.606961
0.592925
0.578195
0.561965
0.543037
0.521765
0.498424
0.474333
0.448383
0.421278
0.395362
0.369955
0.345444
0.321929
0.299056
0.27906
0.26315
0.249301
0.236844
0.225451
0.215261
0.205985
0.197709
0.190216
0.182854
0.17542
0.168193
0.161395
0.154699
0.148239
0.142129
0.136595
0.13168
0.127285
0.123324
0.11964
0.116077
0.112481
0.108816
0.105158
0.101652
0.0983322
0.095259
0.0924241
0.0897782
0.0872863
0.0849111
0.0826681
0.0805896
0.0786608
0.0767974
0.0749776
0.073226
0.0716062
0.0701621
0.0689027
0.0678227
0.0669036
0.0661223
0.0654616
0.0649174
0.0644852
0.0641591
0.0639278
0.0637742
0.0636811
0.0636433
0.0636671
0.0637618
0.0639644
0.0642819
0.0646988
0.0652289
0.065859
0.0665838
0.0673912
0.0682434
0.0691521
0.070118
0.0712022
0.0725316
0.0742244
0.0761948
0.0779975
0.0799843
0.0822962
0.0848232
0.0875829
0.0906334
0.95502
0.893302
0.909895
0.971017
1.08701
1.18809
1.29278
1.42575
1.5366
1.58596
1.56798
1.52512
1.47615
1.41567
1.3419
1.2762
1.22599
1.18442
1.1436
1.10032
1.05957
1.02945
1.0031
0.980555
0.96321
0.946649
0.934332
0.927732
0.925034
0.925693
0.930905
0.939408
0.951799
0.970098
0.989753
1.00978
1.02877
1.03781
1.03459
1.01852
0.995672
0.971358
0.943872
0.910113
0.87225
0.832286
0.78996
0.742419
0.685484
0.626678
0.565477
0.507954
0.45884
0.419047
0.385497
0.357759
0.334717
0.314913
0.297731
0.282533
0.268298
0.254528
0.242064
0.230899
0.220586
0.211263
0.202672
0.194668
0.18737
0.18085
0.175054
0.169782
0.164638
0.159299
0.153784
0.148367
0.143206
0.138357
0.13386
0.129633
0.125711
0.12197
0.118387
0.115033
0.111927
0.109011
0.106149
0.103327
0.100614
0.0980915
0.0957899
0.0937409
0.0919773
0.0905005
0.0892676
0.0882228
0.0873525
0.0866455
0.0860917
0.0856845
0.0853897
0.0851709
0.0850084
0.0849211
0.0849275
0.0850911
0.0854303
0.0859275
0.0865904
0.0873607
0.088245
0.0892642
0.0903397
0.091551
0.0928502
0.0944593
0.0965687
0.0992191
0.102093
0.10499
0.108387
0.112437
0.11694
0.122021
0.127914
0.918713
0.83379
0.838047
0.897659
0.990812
1.06331
1.13584
1.22911
1.29613
1.31533
1.3143
1.30397
1.28782
1.27012
1.24991
1.22153
1.18989
1.16065
1.13634
1.11471
1.10155
1.09571
1.08831
1.08179
1.07725
1.07278
1.06951
1.06992
1.0729
1.08089
1.09504
1.11376
1.1332
1.14949
1.15693
1.1523
1.13741
1.1085
1.06885
1.02762
0.983899
0.948752
0.934976
0.920023
0.90555
0.89446
0.867732
0.852502
0.837537
0.793695
0.745127
0.68571
0.620696
0.561626
0.509362
0.465879
0.429729
0.397831
0.369864
0.346112
0.326399
0.309062
0.293301
0.278837
0.265237
0.253084
0.242198
0.233376
0.226297
0.219966
0.213551
0.207018
0.20043
0.193722
0.186986
0.180261
0.17378
0.167594
0.161702
0.156088
0.150718
0.145631
0.140843
0.136334
0.132067
0.128038
0.124178
0.120469
0.116977
0.113771
0.110914
0.1084
0.10618
0.104229
0.102534
0.101084
0.0998987
0.0989594
0.0982361
0.0977159
0.0974109
0.0972841
0.0972715
0.0973463
0.0974985
0.0977784
0.0982047
0.0987703
0.0995075
0.100403
0.101468
0.102663
0.103952
0.10542
0.107092
0.10916
0.112025
0.115458
0.119179
0.123117
0.127747
0.133178
0.139486
0.146703
0.15499
0.874624
0.780593
0.758861
0.805615
0.867563
0.931494
1.00625
1.09713
1.16311
1.19004
1.20598
1.20965
1.19953
1.18563
1.18676
1.19394
1.18613
1.16832
1.1555
1.14854
1.14151
1.13485
1.12949
1.12634
1.12465
1.12495
1.12869
1.13548
1.14661
1.16047
1.1744
1.18663
1.19174
1.18149
1.1539
1.10838
1.04041
0.972629
0.929979
0.904661
0.892913
0.893523
0.887135
0.873702
0.851227
0.835788
0.824094
0.792889
0.760763
0.74946
0.757215
0.775287
0.756014
0.70489
0.63913
0.573875
0.519796
0.474863
0.437395
0.406617
0.380455
0.358683
0.339302
0.321452
0.30571
0.292461
0.281342
0.271749
0.263376
0.256464
0.251234
0.247215
0.242915