/*--------------------------------*- C++ -*----------------------------------*\
| =========                 |                                                 |
| \\      /  F ield         | OpenFOAM: The Open Source CFD Toolbox           |
|  \\    /   O peration     | Version:  2112                                  |
|   \\  /    A nd           | Website:  www.openfoam.com                      |
|    \\/     M anipulation  |                                                 |
\*---------------------------------------------------------------------------*/
FoamFile
{
    version     2.0;
    format      ascii;
    arch        "LSB;label=32;scalar=64";
    class       volScalarField;
    location    "0.00795";
    object      epsilon;
}
// * * * * * * * * * * * * * * * * * * * * * * * * * * * * * * * * * * * * * //

dimensions      [0 2 -3 0 0 0 0];

internalField   nonuniform List<scalar> 
13875
(
1.16001e+06
2.9463e+07
3.2824e+07
3.28389e+07
3.29058e+07
3.28496e+07
3.29277e+07
3.29584e+07
3.28808e+07
3.28685e+07
3.29155e+07
3.29173e+07
3.28762e+07
3.28445e+07
3.28609e+07
3.29102e+07
3.29482e+07
3.29132e+07
3.28932e+07
3.28605e+07
3.28993e+07
3.28306e+07
3.28019e+07
2.94783e+07
1.17839e+06
1.31388e+06
2.27475e+07
2.53558e+07
2.52391e+07
2.52789e+07
2.52204e+07
2.52446e+07
2.52542e+07
2.52118e+07
2.52245e+07
2.52421e+07
2.52522e+07
2.5214e+07
2.51939e+07
2.52004e+07
2.525e+07
2.5246e+07
2.52362e+07
2.52252e+07
2.5229e+07
2.52696e+07
2.52199e+07
2.53268e+07
2.27569e+07
1.34269e+06
1.57302e+06
1.97064e+07
2.18303e+07
2.1628e+07
2.16957e+07
2.16353e+07
2.15644e+07
2.15456e+07
2.15066e+07
2.15214e+07
2.15267e+07
2.15487e+07
2.16107e+07
2.16025e+07
2.15969e+07
2.15471e+07
2.15317e+07
2.15299e+07
2.15487e+07
2.16409e+07
2.16833e+07
2.16019e+07
2.17888e+07
1.96939e+07
1.58487e+06
1.81369e+06
1.73851e+07
1.90388e+07
1.8881e+07
1.89645e+07
1.89111e+07
1.8824e+07
1.8808e+07
1.87695e+07
1.87677e+07
1.87827e+07
1.87895e+07
1.8887e+07
1.88805e+07
1.88762e+07
1.87873e+07
1.87939e+07
1.87799e+07
1.88065e+07
1.89151e+07
1.89521e+07
1.88579e+07
1.90137e+07
1.73691e+07
1.82054e+06
2.02273e+06
1.54523e+07
1.67729e+07
1.66222e+07
1.67015e+07
1.66527e+07
1.65649e+07
1.65561e+07
1.65241e+07
1.65206e+07
1.65392e+07
1.65344e+07
1.66283e+07
1.66275e+07
1.66193e+07
1.65334e+07
1.65473e+07
1.65307e+07
1.65526e+07
1.66548e+07
1.66903e+07
1.6605e+07
1.67438e+07
1.54323e+07
2.03592e+06
2.20639e+06
1.3712e+07
1.49287e+07
1.47399e+07
1.48294e+07
1.47721e+07
1.46767e+07
1.46714e+07
1.4643e+07
1.46401e+07
1.46612e+07
1.46474e+07
1.47387e+07
1.47425e+07
1.47315e+07
1.46465e+07
1.46675e+07
1.46477e+07
1.46668e+07
1.47747e+07
1.48195e+07
1.47291e+07
1.49036e+07
1.38479e+07
2.22233e+06
2.42244e+06
1.22508e+07
1.34786e+07
1.32085e+07
1.32688e+07
1.32001e+07
1.30925e+07
1.3086e+07
1.30559e+07
1.30544e+07
1.30763e+07
1.30559e+07
1.31454e+07
1.31516e+07
1.31375e+07
1.30549e+07
1.30835e+07
1.30616e+07
1.30854e+07
1.32006e+07
1.32572e+07
1.32014e+07
1.3422e+07
1.19503e+07
2.42899e+06
2.6658e+06
1.06152e+07
1.23133e+07
1.19766e+07
1.19987e+07
1.18872e+07
1.17611e+07
1.17437e+07
1.17108e+07
1.17106e+07
1.1734e+07
1.17065e+07
1.17948e+07
1.18041e+07
1.17874e+07
1.17048e+07
1.17427e+07
1.17208e+07
1.17513e+07
1.18843e+07
1.19814e+07
1.19654e+07
1.2265e+07
1.05427e+07
2.69479e+06
3.49605e+06
1.02124e+07
1.14834e+07
1.10298e+07
1.09393e+07
1.07888e+07
1.06434e+07
1.06119e+07
1.05723e+07
1.05712e+07
1.05985e+07
1.05657e+07
1.06518e+07
1.06641e+07
1.06465e+07
1.05656e+07
1.06084e+07
1.05867e+07
1.06249e+07
1.07801e+07
1.09227e+07
1.10216e+07
1.14752e+07
1.03375e+07
3.57508e+06
6.83518e+06
1.22201e+07
1.11973e+07
1.04273e+07
1.0167e+07
9.93498e+06
9.77349e+06
9.72669e+06
9.68573e+06
9.68377e+06
9.7081e+06
9.67397e+06
9.75456e+06
9.76886e+06
9.75218e+06
9.6827e+06
9.7192e+06
9.70826e+06
9.74529e+06
9.91498e+06
1.01433e+07
1.036e+07
1.11617e+07
1.21302e+07
6.89452e+06
1.49162e+07
1.86898e+07
1.20469e+07
1.03202e+07
9.6172e+06
9.32613e+06
9.14612e+06
9.06328e+06
9.018e+06
9.01579e+06
9.03265e+06
8.99999e+06
9.07162e+06
9.08771e+06
9.07727e+06
9.02796e+06
9.05527e+06
9.06115e+06
9.12354e+06
9.28588e+06
9.60892e+06
1.02674e+07
1.18773e+07
1.79379e+07
1.49989e+07
2.54823e+07
6.88792e+07
1.81545e+07
1.07039e+07
9.70822e+06
9.02236e+06
8.72211e+06
8.59993e+06
8.53909e+06
8.53168e+06
8.53697e+06
8.50952e+06
8.56638e+06
8.58408e+06
8.583e+06
8.55541e+06
8.5794e+06
8.60995e+06
8.7014e+06
9.01625e+06
9.6525e+06
1.05505e+07
1.75715e+07
6.72466e+07
2.50324e+07
2.66049e+07
7.62589e+07
8.68936e+07
2.39189e+07
1.09277e+07
9.11841e+06
8.73848e+06
8.44935e+06
8.33287e+06
8.29556e+06
8.2785e+06
8.25089e+06
8.28975e+06
8.30883e+06
8.32089e+06
8.32398e+06
8.37849e+06
8.49007e+06
8.76135e+06
9.15663e+06
1.12959e+07
2.25999e+07
8.08086e+07
7.64943e+07
2.60807e+07
2.63793e+07
5.53741e+07
7.9967e+07
1.04468e+08
5.72964e+07
1.30758e+07
9.64081e+06
8.81978e+06
8.58109e+06
8.56528e+06
8.54783e+06
8.5234e+06
8.55348e+06
8.57196e+06
8.59172e+06
8.61278e+06
8.65229e+06
8.88354e+06
9.93939e+06
1.44608e+07
6.58894e+07
9.09784e+07
7.52976e+07
5.44806e+07
2.57526e+07
2.53638e+07
4.2699e+07
5.82448e+07
7.25013e+07
7.4725e+07
7.46114e+07
2.36004e+07
1.31118e+07
1.11197e+07
1.04101e+07
1.01139e+07
9.99984e+06
9.99572e+06
1.00257e+07
1.01092e+07
1.0343e+07
1.1028e+07
1.31739e+07
2.59406e+07
7.73115e+07
7.53107e+07
6.60191e+07
5.65732e+07
4.22237e+07
2.64125e+07
2.47375e+07
3.36209e+07
4.34414e+07
5.42424e+07
5.89351e+07
6.77181e+07
5.1214e+07
4.5263e+07
4.15911e+07
3.27715e+07
3.46496e+07
3.57571e+07
3.65436e+07
3.62768e+07
3.51387e+07
3.31619e+07
4.02035e+07
4.91788e+07
5.19722e+07
6.87876e+07
5.83467e+07
5.04887e+07
4.26056e+07
3.34121e+07
2.57918e+07
2.00767e+07
2.52997e+07
3.23246e+07
4.19263e+07
4.93601e+07
6.19719e+07
7.05905e+07
7.06472e+07
5.776e+07
4.9746e+07
5.22383e+07
5.49595e+07
5.65646e+07
5.59727e+07
5.31812e+07
5.34332e+07
5.79081e+07
7.06626e+07
7.09167e+07
6.1686e+07
4.73949e+07
3.90723e+07
3.09293e+07
2.45282e+07
1.99472e+07
1.48372e+07
1.91197e+07
2.63898e+07
3.7227e+07
4.55319e+07
5.31324e+07
6.34034e+07
6.88442e+07
5.156e+07
3.82798e+07
3.5277e+07
3.55533e+07
3.62447e+07
3.59309e+07
3.58764e+07
4.15168e+07
5.16883e+07
6.49464e+07
6.30125e+07
5.40562e+07
4.52964e+07
3.60551e+07
2.53922e+07
1.85657e+07
1.45224e+07
1.21911e+07
1.66215e+07
2.37304e+07
3.71586e+07
4.81536e+07
4.6368e+07
4.90495e+07
5.48278e+07
4.56263e+07
3.42001e+07
2.87858e+07
2.72505e+07
2.70768e+07
2.7552e+07
2.95018e+07
3.54721e+07
4.39013e+07
5.14813e+07
4.89741e+07
4.74837e+07
5.02519e+07
3.72971e+07
2.36017e+07
1.64153e+07
1.20344e+07
1.15321e+07
1.7958e+07
2.47039e+07
3.73436e+07
4.39858e+07
3.93648e+07
3.85965e+07
4.23294e+07
3.89615e+07
3.14145e+07
2.55609e+07
2.23961e+07
2.14223e+07
2.28907e+07
2.65862e+07
3.20958e+07
3.70232e+07
3.98824e+07
3.86195e+07
4.03635e+07
4.48596e+07
3.66004e+07
2.47928e+07
1.81902e+07
1.16678e+07
2.95516e+07
5.53557e+07
4.24261e+07
3.22641e+07
3.49542e+07
3.17417e+07
3.09107e+07
3.38896e+07
3.29961e+07
2.7765e+07
2.21942e+07
1.84473e+07
1.72454e+07
1.92146e+07
2.34751e+07
2.82871e+07
3.12556e+07
3.21099e+07
3.1031e+07
3.25409e+07
3.55414e+07
3.29153e+07
4.74621e+07
6.20769e+07
3.73027e+07
9.27653e+07
3.01934e+08
5.6877e+07
2.60348e+07
2.76333e+07
2.57947e+07
2.53206e+07
2.77832e+07
2.78018e+07
2.39781e+07
1.89761e+07
1.52349e+07
1.40166e+07
1.60093e+07
2.01472e+07
2.42839e+07
2.62508e+07
2.64902e+07
2.54012e+07
2.63603e+07
2.79578e+07
2.67475e+07
6.35495e+07
2.92577e+08
1.0599e+08
1.03697e+08
2.08537e+08
4.6857e+07
2.16789e+07
2.23737e+07
2.13186e+07
2.09764e+07
2.30735e+07
2.33515e+07
2.03684e+07
1.60253e+07
1.26386e+07
1.14827e+07
1.32461e+07
1.69542e+07
2.0529e+07
2.19563e+07
2.20631e+07
2.10335e+07
2.16148e+07
2.24891e+07
2.2134e+07
4.85524e+07
2.07622e+08
1.02241e+08
8.74931e+07
2.07046e+08
3.68163e+07
1.85786e+07
1.83827e+07
1.76855e+07
1.74913e+07
1.92142e+07
1.95825e+07
1.7131e+07
1.3369e+07
1.04617e+07
9.50853e+06
1.10327e+07
1.42495e+07
1.73365e+07
1.84261e+07
1.8396e+07
1.75932e+07
1.79709e+07
1.85497e+07
1.9028e+07
3.86477e+07
2.21108e+08
8.91379e+07
7.92191e+07
1.98439e+08
3.09052e+07
1.62392e+07
1.54925e+07
1.48665e+07
1.4797e+07
1.61475e+07
1.64785e+07
1.44395e+07
1.12447e+07
8.76765e+06
7.96994e+06
9.2595e+06
1.20337e+07
1.46701e+07
1.55389e+07
1.54584e+07
1.48664e+07
1.51273e+07
1.57096e+07
1.66652e+07
3.29747e+07
2.19379e+08
8.17531e+07
7.27056e+07
1.94013e+08
2.68635e+07
1.42058e+07
1.32812e+07
1.26326e+07
1.26761e+07
1.36905e+07
1.39308e+07
1.22217e+07
9.53305e+06
7.42868e+06
6.75067e+06
7.83174e+06
1.01789e+07
1.24067e+07
1.31455e+07
1.30643e+07
1.26409e+07
1.28089e+07
1.34869e+07
1.45261e+07
2.84326e+07
2.1065e+08
7.58313e+07
6.87529e+07
1.74009e+08
2.29589e+07
1.24744e+07
1.15572e+07
1.08702e+07
1.09508e+07
1.16772e+07
1.17785e+07
1.03197e+07
8.09432e+06
6.34691e+06
5.78178e+06
6.70952e+06
8.70815e+06
1.05778e+07
1.12285e+07
1.11772e+07
1.08804e+07
1.10187e+07
1.1803e+07
1.28213e+07
2.47776e+07
1.91916e+08
7.17797e+07
6.51207e+07
1.59683e+08
2.04008e+07
1.10944e+07
1.02016e+07
9.49622e+06
9.5618e+06
1.00676e+07
1.00636e+07
8.80984e+06
6.95575e+06
5.48352e+06
4.99764e+06
5.78508e+06
7.46813e+06
9.0399e+06
9.63487e+06
9.62872e+06
9.44863e+06
9.602e+06
1.04106e+07
1.13753e+07
2.20737e+07
1.78035e+08
6.78032e+07
6.03719e+07
1.5067e+08
1.85321e+07
9.94817e+06
9.09575e+06
8.43777e+06
8.42633e+06
8.74658e+06
8.65373e+06
7.57235e+06
6.03047e+06
4.78369e+06
4.35922e+06
5.02506e+06
6.43348e+06
7.7451e+06
8.30674e+06
8.35667e+06
8.27306e+06
8.46607e+06
9.23763e+06
1.01682e+07
1.95722e+07
1.55954e+08
6.42737e+07
5.61526e+07
1.34541e+08
1.69456e+07
9.01164e+06
8.12621e+06
7.54992e+06
7.48987e+06
7.63464e+06
7.45259e+06
6.50768e+06
5.23048e+06
4.19264e+06
3.83253e+06
4.4154e+06
5.62159e+06
6.72703e+06
7.23864e+06
7.3282e+06
7.33494e+06
7.55505e+06
8.2501e+06
9.21456e+06
1.79664e+07
1.42069e+08
6.02784e+07
5.23379e+07
1.16777e+08
1.56294e+07
8.27624e+06
7.31826e+06
6.79868e+06
6.71315e+06
6.73025e+06
6.49014e+06
5.66386e+06
4.59688e+06
3.71303e+06
3.39691e+06
3.89724e+06
4.91804e+06
5.84586e+06
6.33146e+06
6.46966e+06
6.55383e+06
6.77343e+06
7.37627e+06
8.43136e+06
1.63744e+07
1.23474e+08
5.59732e+07
4.88967e+07
1.04791e+08
1.46383e+07
7.71375e+06
6.62313e+06
6.14567e+06
6.05072e+06
5.98339e+06
5.70771e+06
4.97849e+06
4.07221e+06
3.31154e+06
3.03231e+06
3.46217e+06
4.33707e+06
5.13124e+06
5.58358e+06
5.75686e+06
5.89077e+06
6.09721e+06
6.64401e+06
7.81242e+06
1.50778e+07
1.06888e+08
5.2443e+07
4.56369e+07
8.97355e+07
1.35738e+07
7.27311e+06
6.04051e+06
5.58777e+06
5.46215e+06
5.33837e+06
5.02673e+06
4.38101e+06
3.61702e+06
2.968e+06
2.72632e+06
3.1063e+06
3.86515e+06
4.54365e+06
4.96651e+06
5.16624e+06
5.31611e+06
5.52911e+06
6.04538e+06
7.33115e+06
1.40391e+07
9.44752e+07
4.8864e+07
4.29222e+07
7.8351e+07
1.25848e+07
6.93111e+06
5.58133e+06
5.11198e+06
4.9422e+06
4.79756e+06
4.47522e+06
3.90145e+06
3.24448e+06
2.67926e+06
2.4651e+06
2.79461e+06
3.45405e+06
4.04264e+06
4.43556e+06
4.65598e+06
4.80855e+06
5.03798e+06
5.55815e+06
6.93266e+06
1.30623e+07
8.26301e+07
4.54783e+07
4.0464e+07
7.00142e+07
1.1618e+07
6.63474e+06
5.25716e+06
4.69502e+06
4.4981e+06
4.33265e+06
4.0093e+06
3.49506e+06
2.9289e+06
2.43335e+06
2.24342e+06
2.53161e+06
3.1058e+06
3.61827e+06
3.98583e+06
4.21045e+06
4.37265e+06
4.62168e+06
5.20476e+06
6.63385e+06
1.20539e+07
7.3574e+07
4.27095e+07
3.79264e+07
6.20838e+07
1.07112e+07
6.37787e+06
5.01319e+06
4.34271e+06
4.10447e+06
3.91444e+06
3.60467e+06
3.14385e+06
2.64984e+06
2.21727e+06
2.05082e+06
2.30776e+06
2.81935e+06
3.27045e+06
3.60578e+06
3.8212e+06
4.00096e+06
4.26937e+06
4.94746e+06
6.38023e+06
1.12016e+07
6.68118e+07
4.029e+07
3.59583e+07
5.61689e+07
9.93583e+06
6.26423e+06
4.84183e+06
4.0563e+06
3.77455e+06
3.55857e+06
3.25933e+06
2.84903e+06
2.41724e+06
2.03398e+06
1.88504e+06
2.11067e+06
2.56212e+06
2.95975e+06
3.26839e+06
3.47923e+06
3.67616e+06
3.97381e+06
4.75419e+06
6.22552e+06
1.03013e+07
5.90983e+07
3.79186e+07
3.40461e+07
5.21832e+07
9.22566e+06
6.10777e+06
4.73144e+06
3.8465e+06
3.48296e+06
3.24933e+06
2.9639e+06
2.59831e+06
2.2159e+06
1.87335e+06
1.73976e+06
1.93897e+06
2.34244e+06
2.69515e+06
2.97473e+06
3.18511e+06
3.39149e+06
3.75742e+06
4.63189e+06
6.08345e+06
9.44713e+06
5.32913e+07
3.60896e+07
3.19649e+07
4.75624e+07
8.45697e+06
5.79951e+06
4.68774e+06
3.69495e+06
3.2405e+06
2.98136e+06
2.70091e+06
2.37207e+06
2.03483e+06
1.73139e+06
1.61316e+06
1.79305e+06
2.15498e+06
2.46781e+06
2.72496e+06
2.9332e+06
3.15335e+06
3.59439e+06
4.57464e+06
5.83652e+06
8.68979e+06
4.9507e+07
3.43511e+07
3.02886e+07
4.42779e+07
7.77968e+06
5.48114e+06
4.73086e+06
3.59448e+06
3.05089e+06
2.75536e+06
2.48052e+06
2.18218e+06
1.88007e+06
1.60667e+06
1.50033e+06
1.66006e+06
1.98595e+06
2.26578e+06
2.50306e+06
2.71789e+06
2.96823e+06
3.48336e+06
4.5381e+06
5.48735e+06
8.00238e+06
4.6295e+07
3.23926e+07
2.89401e+07
4.15628e+07
7.35542e+06
5.16479e+06
4.76587e+06
3.55507e+06
2.90893e+06
2.574e+06
2.29219e+06
2.01539e+06
1.7434e+06
1.49643e+06
1.40076e+06
1.54379e+06
1.83631e+06
2.08932e+06
2.3145e+06
2.53956e+06
2.83325e+06
3.41537e+06
4.65354e+06
5.17717e+06
7.47384e+06
4.41729e+07
3.04854e+07
2.76515e+07
3.89457e+07
6.83547e+06
4.79655e+06
4.61201e+06
3.55337e+06
2.7977e+06
2.43423e+06
2.13225e+06
1.8677e+06
1.61934e+06
1.39637e+06
1.31101e+06
1.44094e+06
1.70932e+06
1.93981e+06
2.15818e+06
2.40254e+06
2.72546e+06
3.41357e+06
4.63525e+06
4.90498e+06
7.72285e+06
4.14696e+07
2.89359e+07
2.65988e+07
3.6694e+07
6.45238e+06
4.44846e+06
4.36765e+06
3.67593e+06
2.73247e+06
2.3256e+06
2.00584e+06
1.74293e+06
1.51226e+06
1.30864e+06
1.23102e+06
1.34768e+06
1.5918e+06
1.80586e+06
2.02583e+06
2.29791e+06
2.65015e+06
3.46781e+06
4.41507e+06
4.55798e+06
7.19464e+06
3.91365e+07
2.75685e+07
2.57361e+07
3.44979e+07
6.58963e+06
4.15275e+06
4.08417e+06
3.77175e+06
2.73003e+06
2.23694e+06
1.91016e+06
1.63952e+06
1.41899e+06
1.22972e+06
1.1585e+06
1.26398e+06
1.48952e+06
1.6933e+06
1.92297e+06
2.21498e+06
2.64086e+06
3.66501e+06
4.14565e+06
4.23431e+06
6.94488e+06
3.67483e+07
2.65963e+07
2.48636e+07
3.26576e+07
6.20112e+06
3.86165e+06
3.77994e+06
3.68402e+06
2.8128e+06
2.17834e+06
1.82862e+06
1.55579e+06
1.33775e+06
1.15957e+06
1.09423e+06
1.19171e+06
1.40429e+06
1.60461e+06
1.84168e+06
2.15779e+06
2.74404e+06
3.70388e+06
3.85811e+06
3.98157e+06
6.97503e+06
3.47276e+07
2.5872e+07
2.40925e+07
3.07831e+07
6.26938e+06
3.64991e+06
3.49076e+06
3.46933e+06
3.03921e+06
2.18629e+06
1.76835e+06
1.49426e+06
1.27619e+06
1.10116e+06
1.03835e+06
1.12948e+06
1.33555e+06
1.53621e+06
1.77589e+06
2.1493e+06
2.95644e+06
3.50209e+06
3.56707e+06
3.71928e+06
6.71402e+06
3.29391e+07
2.51434e+07
2.33484e+07
2.91031e+07
6.39511e+06
3.50591e+06
3.24552e+06
3.24535e+06
3.09953e+06
2.33078e+06
1.7302e+06
1.43938e+06
1.22829e+06
1.05674e+06
990456
1.08176e+06
1.28255e+06
1.47899e+06
1.72855e+06
2.26702e+06
3.05397e+06
3.2783e+06
3.30862e+06
3.53402e+06
6.67024e+06
3.11431e+07
2.43855e+07
2.2275e+07
2.73764e+07
6.23263e+06
3.35593e+06
3.03866e+06
3.02357e+06
2.92956e+06
2.57005e+06
1.76381e+06
1.39385e+06
1.18609e+06
1.02103e+06
953705
1.04468e+06
1.23918e+06
1.43291e+06
1.75356e+06
2.50608e+06
2.91953e+06
3.04606e+06
3.0981e+06
3.44711e+06
6.83696e+06
2.89719e+07
2.32821e+07
2.09932e+07
2.54378e+07
6.14148e+06
3.25569e+06
2.86479e+06
2.80739e+06
2.75354e+06
2.66317e+06
1.92935e+06
1.37731e+06
1.15171e+06
990912
926243
1.01317e+06
1.20048e+06
1.4068e+06
1.88042e+06
2.65644e+06
2.75096e+06
2.8187e+06
2.91248e+06
3.3505e+06
6.56695e+06
2.67332e+07
2.19201e+07
1.82328e+07
2.26454e+07
5.98384e+06
3.1681e+06
2.71527e+06
2.62303e+06
2.57475e+06
2.52622e+06
2.17657e+06
1.45028e+06
1.13259e+06
964174
901282
984233
1.17525e+06
1.45252e+06
2.13701e+06
2.5667e+06
2.58082e+06
2.62525e+06
2.75061e+06
3.24908e+06
6.22493e+06
2.37062e+07
1.90167e+07
2.30058e+06
1.79785e+06
1.28937e+06
920018
673915
542865
516351
536307
603778
726476
835208
877590
734877
559329
420199
327885
269817
241168
229449
227273
223665
217993
211201
204077
197379
189722
182507
172563
169476
239000
2.78381e+06
1.81241e+06
1.25084e+06
867676
643971
542301
532594
553237
617483
729887
814786
829071
661354
491408
367157
294177
250915
230003
223278
219484
214991
208963
202082
194914
188218
180717
173460
163952
162262
232973
2.94614e+06
1.82771e+06
1.23697e+06
849985
630810
548516
550138
571255
620744
696297
739149
709003
556172
416488
318193
263529
231312
216709
212206
207894
203259
197718
191452
184609
178159
170935
163885
155173
154986
227307
3.1863e+06
1.90285e+06
1.26599e+06
869057
652463
590313
595471
613857
640952
675121
675728
617031
483195
368110
289444
245085
220103
208536
203782
199316
194297
188494
182121
175601
169237
162245
155635
147689
148596
222420
3.54882e+06
2.02324e+06
1.32196e+06
925479
711089
660630
655547
660437
670417
670508
639126
559079
443690
345968
278476
238391
215615
204344
198065
192387
186549
180374
173943
167567
161247
154493
148265
140856
142249
217260
3.93818e+06
2.15752e+06
1.40507e+06
1.01729e+06
809240
759461
743220
728736
715806
686882
630248
543901
440836
351423
284920
242000
216674
203284
194325
186976
180137
173500
166940
160583
154377
147849
141577
134478
136466
211076
4.33068e+06
2.32718e+06
1.54931e+06
1.16384e+06
966305
916256
895014
864549
829094
774587
694364
593878
484127
385741
307570
254295
222687
204475
191840
182472
174557
167407
160718
154387
148279
141776
135327
128515
131253
205475
4.78952e+06
2.51689e+06
1.75846e+06
1.38783e+06
1.18597e+06
1.13839e+06
1.11867e+06
1.08243e+06
1.02701e+06
942521
829886
703122
568810
444112
344588
275075
233090
207308
190572
178904
169799
162106
155270
148961
142886
136298
129678
123167
126608
200395
5.34646e+06
2.80541e+06
2.07283e+06
1.72041e+06
1.49271e+06
1.43693e+06
1.41281e+06
1.36888e+06
1.29135e+06
1.17491e+06
1.02705e+06
862982
688855
525624
395829
304308
247269
212010
190406
176184
165786
157470
150444
144132
138006
131289
124591
118445
122607
195937
6.04683e+06
3.172e+06
2.48945e+06
2.16813e+06
1.89491e+06
1.82647e+06
1.80069e+06
1.74683e+06
1.64504e+06
1.48967e+06
1.29354e+06
1.07523e+06
843929
631348
461655
341610
264838
218711
191425
174329
162503
153482
146205
139842
133638
126847
120150
114367
119200
191908
6.88201e+06
3.6376e+06
3.03937e+06
2.76433e+06
2.41346e+06
2.31213e+06
2.27879e+06
2.21075e+06
2.07725e+06
1.87234e+06
1.61688e+06
1.32904e+06
1.02985e+06
759447
541098
385905
286088
227296
193558
173235
159822
150017
142408
135938
129651
122799
116101
110656
116018
187818
7.84249e+06
4.21556e+06
3.73933e+06
3.50712e+06
3.02216e+06
2.85917e+06
2.80595e+06
2.7113e+06
2.53484e+06
2.27169e+06
1.95104e+06
1.59369e+06
1.23017e+06
901491
631767
436495
310955
237743
196620
172772
157681
147065
139053
132403
126013
118823
112052
106980
112649
183697
8.91607e+06
4.91137e+06
4.58356e+06
4.35014e+06
3.67235e+06
3.40034e+06
3.29844e+06
3.15239e+06
2.91682e+06
2.5955e+06
2.22748e+06
1.82608e+06
1.42097e+06
1.04666e+06
729495
492649
338678
249798
200624
172933
156045
144700
136291
129447
122797
115875
109354
104541
110462
181358
1.00652e+07
5.70019e+06
5.48155e+06
5.231e+06
4.29232e+06
3.85812e+06
3.67664e+06
3.46506e+06
3.17309e+06
2.81326e+06
2.42358e+06
2.00722e+06
1.58649e+06
1.18447e+06
831397
554786
371134
264320
206102
174016
155161
143179
134568
127286
120635
113742
107285
102607
108831
179642
1.11894e+07
6.51981e+06
6.41608e+06
6.14134e+06
4.87279e+06
4.23789e+06
3.96562e+06
3.69235e+06
3.35264e+06
2.9678e+06
2.56601e+06
2.14605e+06
1.72442e+06
1.31263e+06
936133
627406
412505
284369
214609
176881
155629
142706
133676
126038
119108
112134
105613
101004
107518
178208
1.23003e+07
7.38734e+06
7.4284e+06
7.08824e+06
5.47118e+06
4.61691e+06
4.25009e+06
3.91755e+06
3.53054e+06
3.11635e+06
2.69366e+06
2.26564e+06
1.84898e+06
1.43797e+06
1.04924e+06
712730
465032
311375
226665
181511
157195
142887
133242
125148
117862
110716
104156
99595.6
106361
177091
1.34306e+07
8.39994e+06
8.53844e+06
8.07334e+06
6.13949e+06
5.06521e+06
4.5945e+06
4.1995e+06
3.76016e+06
3.30194e+06
2.84083e+06
2.39978e+06
1.98131e+06
1.57024e+06
1.17386e+06
814653
533115
348250
243624
188629
159874
143231
132656
124086
116536
109294
102697
98233.7
105225
176088
1.45428e+07
9.51585e+06
9.6827e+06
9.08263e+06
6.90664e+06
5.63519e+06
5.05605e+06
4.58014e+06
4.0741e+06
3.55094e+06
3.03607e+06
2.56801e+06
2.13582e+06
1.71886e+06
1.31407e+06
935770
619551
397511
266864
198698
163233
143851
131714
122648
115063
107797
101191
96866.2
104035
175332
1.54524e+07
1.07182e+07
1.08512e+07
1.00926e+07
7.79401e+06
6.37377e+06
5.67666e+06
5.09098e+06
4.48819e+06
3.87437e+06
3.2912e+06
2.77859e+06
2.32154e+06
1.89101e+06
1.47489e+06
1.07879e+06
726617
461125
297153
210400
166873
144351
130820
121287
113717
106418
99859.8
95732.9
103092
175003
1.6393e+07
1.20022e+07
1.20089e+07
1.11251e+07
8.84494e+06
7.31334e+06
6.47899e+06
5.7641e+06
5.03033e+06
4.29004e+06
3.61393e+06
3.0384e+06
2.54217e+06
2.08901e+06
1.65917e+06
1.24332e+06
852928
538939
334934
225274
172616
145987
130786
120581
112829
105463
98996.3
95059.5
102622
175208
1.78385e+07
1.32605e+07
1.31592e+07
1.22135e+07
1.01059e+07
8.50966e+06
7.51694e+06
6.63694e+06
5.73389e+06
4.82723e+06
4.02253e+06
3.35784e+06
2.80351e+06
2.31441e+06
1.86488e+06
1.42102e+06
995670
634665
386331
247851
182155
149567
131976
120740
112535
104924
98535.8
94667.4
102431
175711
1.87285e+07
1.49121e+07
1.44205e+07
1.34904e+07
1.16896e+07
1.00494e+07
8.86634e+06
7.77263e+06
6.6453e+06
5.52536e+06
4.54639e+06
3.75612e+06
3.11722e+06
2.57002e+06
2.08277e+06
1.60595e+06
1.15374e+06
752178
456857
281306
195942
154928
134172
121824
112723
104725
98257
94346.8
102468
176241
2.01187e+07
1.59446e+07
1.56266e+07
1.50982e+07
1.3756e+07
1.20649e+07
1.06343e+07
9.23498e+06
7.80532e+06
6.42609e+06
5.21744e+06
4.24609e+06
3.4827e+06
2.84911e+06
2.3019e+06
1.79974e+06
1.32816e+06
894543
550062
328101
215450
162542
137182
123186
113195
104602
97935.2
93845.7
102350
176810
2.0546e+07
1.7872e+07
1.74099e+07
1.75338e+07
1.66313e+07
1.47487e+07
1.29486e+07
1.11329e+07
9.31523e+06
7.56904e+06
6.05124e+06
4.826e+06
3.87828e+06
3.14744e+06
2.5313e+06
2.00607e+06
1.51887e+06
1.06001e+06
667761
392373
242763
173314
141267
124666
113461
104104
97032.2
92756.8
101609
177478
1.96587e+07
2.15008e+07
2.10977e+07
2.16195e+07
2.06735e+07
1.83505e+07
1.60398e+07
1.36229e+07
1.12634e+07
9.0086e+06
7.06548e+06
5.51329e+06
4.33866e+06
3.48367e+06
2.79372e+06
2.23135e+06
1.72521e+06
1.24442e+06
809496
477645
280953
188432
146666
126159
113176
102981
95696.2
91525.6
100423
178441
239235
169468
172293
182240
189274
196349
203219
210669
218498
224832
229211
232342
242669
273256
333021
425824
568391
751563
885245
853651
740561
618198
553141
532921
563884
704779
959879
1.33996e+06
1.86016e+06
2.45508e+06
232934
162017
163549
173101
180186
187146
193876
201256
208997
215686
220779
225501
232803
254324
300598
378514
505519
681749
837046
830027
743510
633066
573612
552287
565644
675415
907356
1.30904e+06
1.89132e+06
2.95577e+06
227132
154645
154664
163437
170366
177256
183595
190511
197458
203652
208875
214218
220028
234114
270202
330170
433789
580524
725997
756326
716828
643861
601860
576365
577252
664876
896427
1.30307e+06
1.9216e+06
3.14764e+06
222121
148281
147238
155245
161743
168597
174769
181271
188046
194442
200163
205783
212056
223660
252168
302428
386981
508400
640328
699424
701437
669677
644113
629945
626831
692250
922371
1.33937e+06
2.00818e+06
3.40789e+06
216707
141947
140378
147889
154077
160687
166764
173041
179716
186420
192903
199774
207822
220223
246452
293109
366922
470616
588065
670262
701916
704622
698211
695937
703417
760587
990259
1.40599e+06
2.14485e+06
3.78355e+06
210270
136107
133983
141192
147394
153796
159737
165951
172716
179843
187296
195889
206861
222680
252406
302654
376950
473264
581480
670119
730338
763746
780108
797396
816992
870624
1.09505e+06
1.50273e+06
2.29175e+06
4.19865e+06
204312
130884
128006
134880
141311
147747
153603
159768
166611
174198
182724
193377
208073
230184
267664
329854
418299
526286
645293
751398
839355
899174
938375
969721
991667
1.04537e+06
1.25929e+06
1.66098e+06
2.47206e+06
4.59737e+06
199138
126333
122658
129217
135887
142470
148343
154531
161453
169513
179245
192268
211366
241980
291970
372821
486146
624583
770835
906975
1.02733e+06
1.11961e+06
1.17835e+06
1.2143e+06
1.23435e+06
1.28897e+06
1.51109e+06
1.89219e+06
2.68096e+06
5.09092e+06
194613
122395
117969
124148
130958
137719
143715
149979
157068
165681
176735
192441
216792
257376
324880
430734
578753
760817
950631
1.12763e+06
1.28603e+06
1.40931e+06
1.4902e+06
1.53385e+06
1.55877e+06
1.62519e+06
1.87821e+06
2.23231e+06
2.98781e+06
5.69604e+06
190589
118995
113961
119767
126640
133526
139670
146031
153405
162638
175146
193868
224251
276375
365268
503016
695953
932165
1.18578e+06
1.4202e+06
1.62942e+06
1.79299e+06
1.89894e+06
1.95219e+06
1.97897e+06
2.0627e+06
2.36835e+06
2.67836e+06
3.37338e+06
6.45714e+06
186760
115925
110369
115770
122657
129746
136041
142551
150286
160218
174323
196388
233563
299090
412020
587457
833198
1.13118e+06
1.45825e+06
1.76694e+06
2.03823e+06
2.25234e+06
2.39089e+06
2.45981e+06
2.4978e+06
2.62496e+06
3.01651e+06
3.26187e+06
3.86817e+06
7.35289e+06
182449
112544
106711
111779
118431
126191
132743
139469
147576
158313
174134
199855
244601
324960
463977
679816
977172
1.33513e+06
1.72736e+06
2.10841e+06
2.44777e+06
2.72475e+06
2.90988e+06
3.00896e+06
3.07071e+06
3.27352e+06
3.80773e+06
3.99058e+06
4.47702e+06
8.3767e+06
179860
110239
104276
109174
115731
122919
129717
136802
145137
156871
174598
204283
257318
353830
520176
775752
1.11661e+06
1.51602e+06
1.94487e+06
2.36857e+06
2.75666e+06
3.0957e+06
3.34638e+06
3.50484e+06
3.62536e+06
3.95603e+06
4.6957e+06
4.85404e+06
5.2098e+06
9.5196e+06
178051
108643
102402
107197
113757
120793
127612
134939
143831
156159
175941
210112
272490
386688
581010
871622
1.24185e+06
1.6611e+06
2.09859e+06
2.53363e+06
2.94442e+06
3.3247e+06
3.63815e+06
3.87103e+06
4.08516e+06
4.59907e+06
5.6117e+06
5.76613e+06
6.02024e+06
1.07234e+07
176617
107435
100919
105632
112261
119365
126354
133974
143316
156747
179041
218545
291595
426158
649334
968012
1.35364e+06
1.7753e+06
2.20851e+06
2.6449e+06
3.06983e+06
3.4787e+06
3.84522e+06
4.14738e+06
4.46586e+06
5.20498e+06
6.55319e+06
6.71243e+06
6.85782e+06
1.18643e+07
175474
106338
99631.3
104296
111037
118344
125725
133732
143733
158560
184023
230653
317660
475935
730642
1.07185e+06
1.46325e+06
1.87835e+06
2.30377e+06
2.74778e+06
3.19668e+06
3.63992e+06
4.0587e+06
4.4273e+06
4.85359e+06
5.83275e+06
7.53428e+06
7.74725e+06
7.7531e+06
1.30038e+07
174489
105280
98435.7
103049
109926
117442
125216
133870
144922
161689
191417
247624
353278
540976
826992
1.18685e+06
1.58173e+06
1.99355e+06
2.4193e+06
2.87737e+06
3.36932e+06
3.86339e+06
4.34153e+06
4.78108e+06
5.32299e+06
6.53852e+06
8.54621e+06
8.87297e+06
8.80195e+06
1.41713e+07
173742
104284
97288.3
101816
108734
116345
124377
133679
146197
166064
201924
270974
401152
623251
940722
1.31717e+06
1.71833e+06
2.1353e+06
2.57496e+06
3.06181e+06
3.61009e+06
4.17794e+06
4.732e+06
5.26166e+06
5.92218e+06
7.33879e+06
9.57388e+06
1.00388e+07
9.94273e+06
1.52965e+07
173538
103492
96307.5
100682
107464
115050
123072
132863
146830
170381
214817
301655
463944
726617
1.07728e+06
1.46977e+06
1.88144e+06
2.31213e+06
2.77795e+06
3.31092e+06
3.93067e+06
4.59657e+06
5.2579e+06
5.90878e+06
6.69943e+06
8.26046e+06
1.05927e+07
1.12127e+07
1.1153e+07
1.62106e+07
173884
103063
95664.1
99829.6
106436
114060
122204
132577
147871
174895
228074
337986
540475
851341
1.23684e+06
1.64718e+06
2.07237e+06
2.52561e+06
3.03171e+06
3.6295e+06
4.34601e+06
5.14662e+06
5.95009e+06
6.74471e+06
7.68606e+06
9.34963e+06
1.16335e+07
1.23751e+07
1.24414e+07
1.71638e+07
174506
102914
95294.2
99334.5
105899
113794
122297
133684
150986
183029
248051
384277
629945
986463
1.4064e+06
1.84273e+06
2.28754e+06
2.77598e+06
3.34178e+06
4.03241e+06
4.88372e+06
5.861e+06
6.84697e+06
7.82172e+06
8.93381e+06
1.0652e+07
1.27287e+07
1.35139e+07
1.36796e+07
1.86732e+07
175325
103138
95172.4
99179.4
105861
114129
123358
135990
156376
195903
278967
448879
738427
1.13323e+06
1.57749e+06
2.04533e+06
2.52729e+06
3.07282e+06
3.72657e+06
4.54929e+06
5.58444e+06
6.78402e+06
8.01133e+06
9.21916e+06
1.05313e+07
1.22793e+07
1.40095e+07
1.47433e+07
1.52969e+07
1.95312e+07
176454
103210
94976.4
99075.9
105787
114439
124630
138749
163616
214366
323120
536434
871777
1.29586e+06
1.757e+06
2.24872e+06
2.78781e+06
3.42079e+06
4.20293e+06
5.21336e+06
6.48862e+06
7.96619e+06
9.50697e+06
1.10336e+07
1.26034e+07
1.43887e+07
1.56038e+07
1.59126e+07
1.62976e+07
2.0912e+07
177634
102754
94289.6
98553.3
105469
114722
125886
142481
173814
240273
383594
648062
1.02875e+06
1.4767e+06
1.95147e+06
2.46658e+06
3.07276e+06
3.80492e+06
4.77263e+06
6.04394e+06
7.64367e+06
9.50711e+06
1.14594e+07
1.33987e+07
1.53125e+07
1.72795e+07
1.80011e+07
1.76619e+07
1.81567e+07
2.12743e+07
178629
101830
93194.1
97473.3
104727
114934
127594
147966
188452
276632
463386
782696
1.20487e+06
1.67371e+06
2.16332e+06
2.7176e+06
3.39874e+06
4.25857e+06
5.4544e+06
7.05965e+06
9.10217e+06
1.14919e+07
1.40033e+07
1.65419e+07
1.8945e+07
2.13071e+07
2.19362e+07
2.12704e+07
2.17967e+07
2.03763e+07
8.77707e+06
7.96608e+06
6.91627e+06
6.11004e+06
5.33203e+06
4.79403e+06
4.40456e+06
4.05134e+06
3.82523e+06
3.78342e+06
3.93753e+06
4.30297e+06
4.94609e+06
5.93061e+06
7.27542e+06
8.92472e+06
1.07903e+07
1.27781e+07
1.48024e+07
1.67648e+07
1.85947e+07
2.0244e+07
2.17063e+07
2.29748e+07
2.40577e+07
2.509e+07
2.59343e+07
2.66127e+07
2.71717e+07
2.76166e+07
2.79324e+07
2.81334e+07
2.82251e+07
2.82066e+07
2.80744e+07
2.78233e+07
2.74546e+07
2.69603e+07
2.63424e+07
2.56008e+07
2.47365e+07
2.37533e+07
2.26544e+07
2.14452e+07
2.01365e+07
1.87414e+07
1.72866e+07
1.58003e+07
1.43102e+07
1.28429e+07
1.14194e+07
1.00587e+07
8.78016e+06
7.59813e+06
6.52052e+06
5.55157e+06
4.69094e+06
3.93505e+06
3.27875e+06
2.71378e+06
2.23125e+06
1.82298e+06
1.48327e+06
1.21566e+06
1.00793e+06
842303
709252
603228
519669
454176
402517
358557
321363
290302
264609
243520
226292
212228
200795
191579
184073
177929
172917
168901
165762