/*--------------------------------*- C++ -*----------------------------------*\
| =========                 |                                                 |
| \\      /  F ield         | OpenFOAM: The Open Source CFD Toolbox           |
|  \\    /   O peration     | Version:  2112                                  |
|   \\  /    A nd           | Website:  www.openfoam.com                      |
|    \\/     M anipulation  |                                                 |
\*---------------------------------------------------------------------------*/
FoamFile
{
    version     2.0;
    format      ascii;
    arch        "LSB;label=32;scalar=64";
    class       volScalarField;
    location    "0.00189";
    object      nut;
}
// * * * * * * * * * * * * * * * * * * * * * * * * * * * * * * * * * * * * * //

dimensions      [0 2 -1 0 0 0 0];

internalField   nonuniform List<scalar> 
13875
(
0.0511669
0.0366198
0.0343772
0.0343199
0.0342614
0.0343244
0.0343272
0.0343148
0.0342872
0.0342529
0.0342904
0.0343257
0.0343291
0.0343345
0.0343085
0.0342604
0.0342806
0.0343046
0.0343275
0.0343344
0.0342723
0.0343305
0.0343854
0.0365658
0.0514336
0.0532594
0.0341174
0.032235
0.0320999
0.0320223
0.0320628
0.0320585
0.0320501
0.0320334
0.0319862
0.0320386
0.0320567
0.0320587
0.0320596
0.0320428
0.0319944
0.0320245
0.0320393
0.0320569
0.0320704
0.0320292
0.0320982
0.0322316
0.034055
0.0536444
0.056457
0.0335627
0.0318175
0.031587
0.0315163
0.0315542
0.0315445
0.0315274
0.0314569
0.0313937
0.0314597
0.0315346
0.0315403
0.0315371
0.0315214
0.0314114
0.0314446
0.0315134
0.0315397
0.0315601
0.0315211
0.0315741
0.0317976
0.0334974
0.0565988
0.0590735
0.0332341
0.031504
0.0312704
0.0312103
0.0312437
0.0312299
0.0312102
0.0311186
0.0310611
0.0311197
0.0312181
0.0312248
0.0312209
0.0312056
0.0310816
0.0311047
0.0311969
0.0312244
0.0312487
0.0312138
0.0312561
0.0314877
0.033173
0.0591471
0.0611341
0.0330063
0.0312616
0.0309965
0.0309347
0.0309629
0.0309469
0.030923
0.0308287
0.0307755
0.0308308
0.0309324
0.03094
0.0309363
0.0309201
0.0307971
0.030815
0.0309093
0.0309404
0.0309668
0.0309366
0.0309828
0.0312334
0.0329231
0.0612588
0.0628359
0.032855
0.0311078
0.0307665
0.0307041
0.0307212
0.0306988
0.0306672
0.030567
0.0305192
0.0305696
0.0306761
0.0306852
0.0306822
0.0306635
0.0305421
0.0305541
0.0306531
0.0306914
0.030724
0.0307045
0.0307555
0.0310623
0.032827
0.0629765
0.0648542
0.0330879
0.0311281
0.0306337
0.0305277
0.0305217
0.0304853
0.0304427
0.0303366
0.0302948
0.0303397
0.0304518
0.0304634
0.0304613
0.0304364
0.0303184
0.030327
0.0304306
0.0304782
0.0305214
0.0305261
0.0306298
0.0311194
0.0330777
0.0648769
0.0672042
0.0339879
0.0314707
0.0306689
0.0304642
0.0304003
0.0303312
0.0302687
0.0301531
0.0301141
0.0301491
0.0302675
0.0302848
0.030285
0.0302525
0.0301384
0.0301426
0.0302544
0.0303203
0.0303911
0.0304474
0.0306408
0.0314014
0.0339044
0.0673819
0.0738095
0.0363864
0.0321181
0.0309018
0.0304989
0.0303659
0.0302531
0.0301613
0.0300391
0.0300009
0.0300242
0.0301493
0.0301737
0.0301763
0.0301343
0.0300272
0.0300291
0.0301446
0.0302368
0.0303469
0.0304715
0.0308242
0.0319581
0.0360283
0.074247
0.0834509
0.0387786
0.0329225
0.031279
0.0307321
0.030462
0.0302916
0.0301633
0.0300497
0.0300111
0.0300327
0.0301521
0.0301833
0.0301877
0.0301402
0.0300477
0.0300462
0.0301452
0.0302644
0.030426
0.0306686
0.0311628
0.0326785
0.0381714
0.0835914
0.0912765
0.0443565
0.0347411
0.0323991
0.03125
0.0307959
0.0305517
0.0303821
0.0302745
0.0302325
0.0302556
0.0303577
0.0303956
0.0304001
0.0303584
0.0302838
0.0302803
0.030363
0.0305085
0.0307219
0.0311277
0.0321261
0.0345611
0.0434442
0.0895279
0.0947343
0.0561258
0.0422239
0.0346818
0.0327863
0.0317586
0.0312736
0.0310412
0.0309107
0.0308565
0.0308765
0.0309494
0.0309878
0.0309947
0.0309695
0.0309151
0.0309226
0.0310226
0.0312193
0.0316353
0.0324591
0.0337875
0.0405862
0.0539891
0.0943272
0.0864018
0.0648317
0.0608817
0.0434432
0.0367335
0.033889
0.0331693
0.0328074
0.0326613
0.0326383
0.0326139
0.0327037
0.0327144
0.0327257
0.0327143
0.0326805
0.0327048
0.0328192
0.0330882
0.0337891
0.0363912
0.043315
0.0542632
0.0663929
0.0866894
0.0791887
0.0640844
0.0621664
0.075545
0.0472866
0.0427772
0.0409897
0.0389961
0.0384603
0.0378085
0.0382685
0.0375491
0.0383285
0.0376925
0.0378661
0.0378279
0.0381176
0.0386923
0.0404048
0.0427269
0.0487417
0.0707044
0.0599918
0.0655365
0.0819069
0.0750948
0.0641204
0.0607488
0.0688955
0.0598665
0.0550233
0.0588398
0.0552523
0.0530933
0.050648
0.0520317
0.0502472
0.051668
0.050215
0.050681
0.0507234
0.0514947
0.0534689
0.058746
0.0563825
0.0600476
0.0668314
0.0592151
0.0647847
0.075608
0.0677887
0.0643925
0.0628999
0.0691357
0.066298
0.0781878
0.0836699
0.0693964
0.0660966
0.0665299
0.066024
0.0682552
0.0665473
0.0678368
0.0669834
0.0676309
0.0665578
0.066289
0.0754113
0.0836269
0.0704334
0.0690465
0.0607062
0.0643384
0.0684707
0.0656515
0.0665134
0.0675875
0.0731124
0.0701106
0.0862807
0.082341
0.0652524
0.0628568
0.061471
0.0631636
0.0630026
0.0634952
0.0629105
0.0628805
0.0628996
0.0628871
0.0621135
0.0726504
0.0903256
0.0766055
0.0745087
0.0669247
0.0665429
0.0669677
0.0621065
0.0703805
0.0712795
0.0704059
0.0667018
0.0818048
0.0791412
0.0659946
0.0619266
0.0596835
0.060704
0.0599662
0.0608611
0.0599855
0.0603612
0.0608908
0.0614024
0.0625795
0.0729706
0.0828103
0.0719888
0.0724746
0.0720202
0.0715225
0.0633298
0.0556282
0.0713789
0.0723501
0.0685902
0.0638936
0.0720965
0.0757802
0.0694921
0.0637976
0.0597087
0.0589041
0.0577028
0.0583835
0.0575802
0.0583481
0.0596079
0.0616555
0.0657213
0.0732847
0.0742755
0.0671619
0.0699257
0.0726463
0.0736001
0.0579029
0.0526258
0.0706315
0.0693314
0.0661684
0.06211
0.0663251
0.0719507
0.0706515
0.0654708
0.0602306
0.057739
0.0558906
0.056195
0.0557214
0.0571587
0.0596041
0.0632995
0.0681574
0.0714992
0.0685326
0.0643776
0.0669772
0.0692643
0.070464
0.0533991
0.0615183
0.0663475
0.0651662
0.0631436
0.0600508
0.0630404
0.0688564
0.0696416
0.0654058
0.0599155
0.0564228
0.0539806
0.0539838
0.0539028
0.0560018
0.0592848
0.0635828
0.0679867
0.0691929
0.065213
0.0619911
0.0639043
0.0649201
0.0654627
0.0619334
0.0769287
0.0680958
0.062823
0.0609891
0.0583292
0.0608242
0.0662296
0.0678464
0.0643394
0.0588487
0.0548063
0.0519913
0.0517432
0.0519406
0.0544299
0.0581687
0.0626435
0.0665016
0.0668884
0.0630628
0.0601568
0.0616745
0.0621875
0.0671032
0.0769943
0.0909438
0.0737955
0.0615228
0.0589001
0.0566276
0.0588465
0.0638924
0.0657902
0.0626914
0.0573015
0.0530012
0.0499713
0.0495403
0.0498554
0.0525311
0.05647
0.060912
0.0644312
0.0645897
0.0610654
0.0583437
0.05956
0.0607314
0.0724766
0.0912192
0.100058
0.0755963
0.0599868
0.0569263
0.0550117
0.0569046
0.0616692
0.0636657
0.060558
0.0551888
0.0509229
0.0478964
0.0474363
0.0478604
0.0505844
0.0545369
0.0589143
0.0623247
0.0623071
0.0589424
0.056803
0.0579395
0.0596274
0.073862
0.0988354
0.105826
0.076554
0.0586683
0.0553574
0.0536156
0.0552465
0.0596162
0.0614386
0.0583661
0.0531306
0.04891
0.0459594
0.0454939
0.045955
0.0486603
0.0526031
0.0569321
0.0601465
0.0600995
0.057054
0.0553761
0.056579
0.058764
0.0752264
0.104639
0.112251
0.0777039
0.0579768
0.0542119
0.0524809
0.0539064
0.0577225
0.0591376
0.0560982
0.0511171
0.0470436
0.0441826
0.0436858
0.0441678
0.046787
0.0505836
0.0547196
0.057796
0.057954
0.0554653
0.0541388
0.0554638
0.0581631
0.0757542
0.111582
0.119112
0.0786125
0.0574647
0.0533917
0.051629
0.0528167
0.0558972
0.0567337
0.0537252
0.049064
0.0451975
0.0425362
0.0420438
0.0425382
0.0450876
0.0487647
0.0527259
0.0556384
0.0560217
0.0541149
0.0531598
0.0547364
0.0578873
0.0772371
0.117189
0.124828
0.0797437
0.0573281
0.0527403
0.0510369
0.0518984
0.0542282
0.0545145
0.0515416
0.0472077
0.0435678
0.0410482
0.0405449
0.0410467
0.0434743
0.0469329
0.0506591
0.0534766
0.0541804
0.052983
0.0524553
0.054076
0.0577095
0.0782567
0.12375
0.132057
0.0803349
0.0572249
0.0521465
0.0505672
0.0511364
0.0526964
0.0524758
0.0495501
0.0455024
0.0420696
0.0396968
0.0391831
0.0396765
0.0419301
0.0451787
0.0486955
0.0514183
0.0524395
0.0519724
0.0517995
0.053397
0.0576184
0.0780708
0.130419
0.139003
0.0805559
0.0571754
0.0515772
0.0500503
0.0504082
0.0511978
0.0504094
0.0474939
0.0437815
0.0406208
0.0384462
0.0379438
0.0384545
0.0406132
0.043656
0.0469796
0.0496715
0.0509719
0.0510821
0.0511546
0.0528232
0.0577122
0.078717
0.136727
0.142437
0.0810152
0.0574589
0.0512776
0.0494992
0.0496216
0.0498536
0.0486734
0.0457876
0.0423135
0.0393499
0.0373194
0.0368209
0.0373264
0.0393172
0.0421686
0.0453293
0.0479878
0.0495528
0.0501201
0.0504395
0.0524476
0.0578214
0.0791164
0.142114
0.145993
0.0819523
0.0579218
0.0513031
0.0489507
0.0488134
0.0486304
0.0471077
0.0442509
0.0409842
0.0382171
0.0363032
0.0358004
0.0363057
0.0381595
0.0408057
0.0438172
0.0464585
0.0482564
0.0491649
0.049783
0.0523068
0.0581762
0.0795927
0.145135
0.149904
0.0820507
0.0587634
0.0514975
0.0485011
0.0479537
0.0473848
0.0456058
0.042804
0.0397274
0.0371225
0.035362
0.0348716
0.0353851
0.0371287
0.0396394
0.0425372
0.045136
0.0470674
0.0482257
0.0492372
0.0523737
0.058815
0.0804994
0.148455
0.152557
0.0822315
0.0596724
0.0520325
0.0482144
0.0471821
0.046248
0.0443062
0.041543
0.0386308
0.0361921
0.0345235
0.0340266
0.0345402
0.0361755
0.0385127
0.0412826
0.0438705
0.0459082
0.0473615
0.048877
0.05271
0.0598706
0.0808419
0.151856
0.155273
0.083137
0.0599156
0.0526686
0.0481827
0.0464716
0.0451772
0.0431301
0.0404549
0.0376795
0.0353332
0.0337603
0.0332622
0.0337702
0.0352995
0.0375395
0.0401922
0.0427263
0.0448117
0.0465853
0.0487707
0.0532748
0.060558
0.0813265
0.154118
0.158055
0.0830147
0.0597628
0.0533517
0.0483555
0.0458949
0.0441887
0.0419882
0.0393744
0.0367455
0.0345441
0.0330591
0.0325665
0.0330845
0.0345602
0.0366739
0.039218
0.0417178
0.0438828
0.045994
0.0488588
0.0540746
0.0607044
0.0824791
0.156343
0.159782
0.0832819
0.0596652
0.0545534
0.0487569
0.0455488
0.0433393
0.0410016
0.0384602
0.0359572
0.0338421
0.0324259
0.0319348
0.0324517
0.0338374
0.0358651
0.0382889
0.0407561
0.043015
0.045597
0.0491136
0.055159
0.0604336
0.0823022
0.158739
0.161775
0.0838105
0.0595748
0.055443
0.0494674
0.0454402
0.0427007
0.0401571
0.0376177
0.0352107
0.0332101
0.0318537
0.0313603
0.0318797
0.0331921
0.0351042
0.0374471
0.0399317
0.0423942
0.0454549
0.0497877
0.0559761
0.0601214
0.0822506
0.160629
0.16389
0.0836238
0.0588968
0.0554411
0.0503179
0.0454766
0.0422697
0.0394157
0.0368414
0.0345195
0.0325975
0.0313135
0.0308344
0.0313554
0.0326145
0.0344635
0.0367352
0.039262
0.0420454
0.0454977
0.0506931
0.0561628
0.0596154
0.0827112
0.162703
0.165292
0.0838807
0.0581543
0.055312
0.051865
0.0458797
0.0420869
0.0389148
0.0361958
0.033912
0.0320676
0.0308306
0.0303519
0.0308682
0.0320668
0.033835
0.0360822
0.03877
0.041859
0.0457823
0.052114
0.0559877
0.0587145
0.0826816
0.164689
0.166756
0.0849007
0.0576887
0.0549205
0.0529393
0.0466754
0.0420824
0.0386279
0.0357056
0.0333967
0.0315777
0.0303842
0.0299081
0.0304091
0.0315676
0.0332984
0.0355726
0.0384652
0.0418629
0.046562
0.0531537
0.055564
0.0579065
0.0831258
0.166024
0.168139
0.085355
0.0570377
0.0542217
0.0529105
0.0479673
0.0422768
0.0384641
0.0353578
0.0329468
0.0311292
0.0299705
0.0295
0.0300066
0.0311384
0.0328839
0.0352505
0.0383432
0.0422289
0.0480047
0.0530722
0.0549169
0.0576925
0.084565
0.167499
0.168916
0.0862786
0.0567752
0.0534686
0.0525066
0.0495111
0.0430452
0.0384948
0.0352155
0.0326158
0.0307514
0.0295927
0.0291243
0.0296312
0.0307538
0.03254
0.0350711
0.0382921
0.0429714
0.049525
0.0526082
0.0541151
0.0571709
0.0851149
0.168718
0.169722
0.0879438
0.0570968
0.0528564
0.0518578
0.0499782
0.0445107
0.0388281
0.03515
0.0324308
0.0304804
0.0292774
0.0287924
0.0293139
0.0304796
0.0323483
0.0349829
0.0385366
0.044636
0.0501333
0.0518878
0.0534555
0.057106
0.0861212
0.169542
0.170752
0.0884141
0.056963
0.0522688
0.0510682
0.0497216
0.0467028
0.0396705
0.0352106
0.0323652
0.0303383
0.0290461
0.0285311
0.0290891
0.030347
0.0323113
0.0350734
0.0394892
0.0465689
0.0498599
0.0511208
0.0529672
0.0575573
0.0878043
0.170366
0.171207
0.0894963
0.0574805
0.0519096
0.050373
0.0493375
0.0479087
0.0419048
0.035582
0.0323795
0.0303138
0.0289504
0.0283682
0.0289911
0.0303074
0.0323114
0.0353883
0.041136
0.0473102
0.0493772
0.0504897
0.0525534
0.0577709
0.0885689
0.171297
0.171584
0.0909799
0.0582412
0.0517566
0.0498537
0.0488278
0.0477301
0.0441032
0.0369286
0.0325186
0.030305
0.0289272
0.0282942
0.0289622
0.0303003
0.032429
0.0364581
0.0434602
0.0472247
0.0488199
0.0500134
0.0523172
0.0581619
0.0896357
0.171663
0.171349
0.0912826
0.0585455
0.0516271
0.049422
0.0482881
0.0473602
0.0449152
0.0392025
0.0330694
0.0303496
0.0289184
0.028282
0.0289545
0.0303831
0.0330376
0.038812
0.0447263
0.0470146
0.0483338
0.0496854
0.0522925
0.0590014
0.0910656
0.171169
0.169734
0.0914468
0.0589274
0.0515945
0.0491321
0.0478231
0.0468289
0.0448921
0.041452
0.0345653
0.0306189
0.0289511
0.028301
0.0289805
0.0306622
0.0344552
0.0409267
0.0447575
0.046635
0.0479201
0.0494552
0.0522694
0.0593754
0.09125
0.169674
0.16364
0.0904248
0.0592517
0.0515157
0.0489072
0.0474449
0.0462952
0.044651
0.0423255
0.0371118
0.0315489
0.0291422
0.0284253
0.0291513
0.0315685
0.0368316
0.0417325
0.0445642
0.0462231
0.0476011
0.0492917
0.0521881
0.0596058
0.090052
0.163793
0.133018
0.301711
0.332974
0.337341
0.337702
0.337666
0.337554
0.337492
0.337474
0.337429
0.337347
0.337214
0.337052
0.336896
0.336765
0.336662
0.336579
0.336508
0.336443
0.336381
0.33632
0.336259
0.336199
0.336137
0.336074
0.336013
0.335864
0.334534
0.317597
0.147772
0.104971
0.289374
0.328474
0.334212
0.33464
0.334546
0.334373
0.334243
0.334196
0.33413
0.334038
0.33389
0.333706
0.333519
0.333357
0.333225
0.333119
0.333027
0.332944
0.332866
0.332789
0.332714
0.33264
0.332567
0.332492
0.33241
0.332106
0.328971
0.298735
0.126297
0.103925
0.286554
0.325848
0.331196
0.331613
0.331503
0.331331
0.331202
0.331178
0.331153
0.331117
0.331009
0.330847
0.33067
0.330512
0.330384
0.330282
0.330197
0.330123
0.330054
0.329989
0.329926
0.329865
0.329806
0.329745
0.329672
0.329301
0.32537
0.290832
0.119825
0.105653
0.284042
0.323588
0.328942
0.329442
0.329359
0.329178
0.32906
0.329052
0.329054
0.329064
0.328993
0.328864
0.328715
0.328585
0.328488
0.328418
0.328367
0.328327
0.328293
0.328261
0.328232
0.328204
0.328177
0.328149
0.328105
0.327737
0.323575
0.288088
0.117649
0.105457
0.282063
0.322568
0.328249
0.328879
0.32882
0.3286
0.328412
0.328322
0.328284
0.328271
0.328202
0.328083
0.327949
0.327837
0.327759
0.32771
0.32768
0.327661
0.327647
0.327636
0.327627
0.327618
0.327609
0.3276
0.327571
0.327206
0.322933
0.287065
0.116384
0.1053
0.281577
0.322775
0.328855
0.329774
0.32984
0.329544
0.329078
0.328621
0.328333
0.328171
0.328023
0.327879
0.327741
0.327632
0.32756
0.327517
0.327495
0.327484
0.327478
0.327474
0.327471
0.327469
0.327466
0.327463
0.327438
0.327066
0.322685
0.286422
0.115299
0.105534
0.282497
0.32451
0.331473
0.333443
0.334356
0.334201
0.332878
0.330857
0.329336
0.328546
0.328131
0.327881
0.327707
0.32759
0.327517
0.327476
0.327455
0.327446
0.327442
0.32744
0.327439
0.327439
0.327438
0.327436
0.327411
0.327027
0.322536
0.285843
0.11429
0.106406
0.285597
0.32959
0.338794
0.343594
0.347601
0.349201
0.347311
0.341262
0.334279
0.330233
0.328643
0.328034
0.327744
0.327593
0.327511
0.327469
0.327448
0.327439
0.327436
0.327434
0.327434
0.327434
0.327433
0.327431
0.327406
0.32701
0.322413
0.285296
0.113358
0.107971
0.292829
0.341323
0.353929
0.36157
0.36903
0.376355
0.380538
0.37554
0.356712
0.339512
0.331015
0.328608
0.327894
0.327629
0.327518
0.327469
0.327447
0.327438
0.327435
0.327434
0.327433
0.327433
0.327433
0.327431
0.327404
0.326996
0.322303
0.284788
0.112512
0.110933
0.303577
0.352377
0.36243
0.368892
0.377749
0.388117
0.398912
0.408428
0.408768
0.379598
0.345414
0.331468
0.328461
0.327761
0.327547
0.327475
0.327448
0.327438
0.327434
0.327433
0.327433
0.327433
0.327433
0.327431
0.327403
0.326985
0.322202
0.284318
0.111747
0.112402
0.304987
0.353974
0.364888
0.373076
0.383534
0.39542
0.407847
0.420342
0.431748
0.435523
0.401649
0.349482
0.331335
0.328258
0.327652
0.327496
0.327452
0.327438
0.327434
0.327433
0.327433
0.327433
0.327433
0.327431
0.327402
0.326974
0.322108
0.283882
0.111054
0.112451
0.30482
0.354542
0.367306
0.376503
0.387552
0.400681
0.414642
0.428625
0.441444
0.453255
0.457283
0.415311
0.349539
0.330649
0.328038
0.327571
0.327465
0.32744
0.327434
0.327433
0.327433
0.327433
0.327433
0.327431
0.327401
0.326963
0.32202
0.283477
0.110424
0.112148
0.305302
0.355005
0.369293
0.379093
0.389596
0.402555
0.416866
0.432377
0.447525
0.460838
0.472626
0.474584
0.416512
0.345526
0.329721
0.327838
0.327514
0.327448
0.327435
0.327433
0.327433
0.327433
0.327433
0.327431
0.3274
0.326953
0.321938
0.283102
0.10985
0.111707
0.306646
0.356345
0.370799
0.378919
0.387892
0.399288
0.413695
0.429444
0.446402
0.463216
0.477417
0.489516
0.486116
0.403445
0.339606
0.32889
0.327682
0.327477
0.32744
0.327434
0.327433
0.327433
0.327433
0.327431
0.3274
0.326944
0.321861
0.282755
0.109328
0.11123
0.309158
0.357693
0.369024
0.372319
0.378776
0.387924
0.401679
0.418597
0.43659
0.456355
0.475413
0.491193
0.503734
0.487941
0.381903
0.334333
0.328278
0.327574
0.327455
0.327436
0.327433
0.327433
0.327433
0.327431
0.327399
0.326936
0.321793
0.282444
0.108857
0.111214
0.312656
0.356584
0.359883
0.355613
0.359077
0.366071
0.378752
0.397014
0.41696
0.439214
0.462805
0.484884
0.502972
0.514235
0.469901
0.359672
0.330886
0.327886
0.327506
0.327443
0.327434
0.327433
0.327433
0.327431
0.327399
0.326928
0.321731
0.282164
0.108435
0.111569
0.316054
0.347502
0.338512
0.326764
0.327669
0.333316
0.345192
0.363718
0.386324
0.411482
0.438975
0.467325
0.492801
0.513874
0.51755
0.430597
0.343488
0.329048
0.327659
0.327467
0.327437
0.327434
0.327433
0.327431
0.327398
0.326921
0.321675
0.281912
0.108057
0.112724
0.31344
0.325888
0.30486
0.28759
0.286693
0.292294
0.303491
0.321127
0.345786
0.37351
0.404611
0.43818
0.471567
0.500752
0.524255
0.507483
0.385202
0.33415
0.328153
0.327538
0.327447
0.327435
0.327433
0.327431
0.327398
0.326916
0.321627
0.281694
0.107725
0.116086
0.299296
0.288054
0.25962
0.242286
0.241941
0.247759
0.258014
0.273953
0.298574
0.327864
0.361485
0.398961
0.438796
0.476928
0.510726
0.526472
0.466233
0.353601
0.329994
0.32774
0.327477
0.327438
0.327434
0.327431
0.327397
0.32691
0.321585
0.281504
0.107435
0.117712
0.267543
0.244004
0.21727
0.20024
0.199767
0.205405
0.215466
0.228831
0.250789
0.279361
0.313039
0.352543
0.396523
0.442236
0.485267
0.518962
0.517822
0.404523
0.337218
0.328373
0.327556
0.32745
0.327435
0.327431
0.327397
0.326906
0.321549
0.281341
0.107184
0.122534
0.223623
0.199934
0.178383
0.16869
0.168892
0.173246
0.180679
0.189918
0.207101
0.233167
0.264524
0.3033
0.348324
0.398272
0.4492
0.495798
0.522277
0.477321
0.35859
0.330576
0.327773
0.327479
0.327439
0.327432
0.327397
0.326903
0.32152
0.281207
0.106972
0.125309
0.18789
0.171398
0.161911
0.160047
0.155241
0.153706
0.1558
0.161306
0.17333
0.19468
0.221132
0.255847
0.298849
0.349345
0.404548
0.461323
0.504208
0.514534
0.407621
0.338035
0.3284
0.327551
0.327449
0.327433
0.327396
0.3269
0.321497
0.281097
0.106796
0.138686
0.162338
0.166914
0.178433
0.177488
0.163795
0.151576
0.147513
0.147737
0.152891
0.166581
0.186623
0.215244
0.253336
0.300824
0.356404
0.417232
0.47231
0.509301
0.469427
0.35642
0.330381
0.327734
0.327471
0.327436
0.327397
0.326898
0.321478
0.281012
0.106653
0.150149
0.169901
0.195505
0.219725
0.212947
0.198706
0.174219
0.156606
0.146525
0.143004
0.149201
0.162918
0.184554
0.215933
0.257736
0.309647
0.369849
0.43247
0.483699
0.497884
0.392411
0.336059
0.3282
0.327523
0.327442
0.327397
0.326896
0.321465
0.280948
0.106543
0.173599
0.206349
0.252334
0.303098
0.26213
0.242771
0.207497
0.17377
0.152591
0.143101
0.142898
0.150472
0.165184
0.189074
0.223443
0.268952
0.324772
0.388942
0.448759
0.490174
0.440642
0.348181
0.329483
0.327643
0.327456
0.327398
0.326895
0.321456
0.2809
0.106462
0.147771
0.317597
0.334534
0.335864
0.336013
0.336075
0.336138
0.336199
0.33626
0.336321
0.336382
0.336444
0.336509
0.33658
0.336663
0.336766
0.336897
0.337054
0.337215
0.337349
0.33743
0.337476
0.337493
0.337556
0.337668
0.337704
0.337343
0.332974
0.301702
0.13299
0.126296
0.298735
0.328971
0.332106
0.33241
0.332492
0.332567
0.33264
0.332714
0.332789
0.332866
0.332944
0.333027
0.333119
0.333226
0.333357
0.333519
0.333706
0.33389
0.334038
0.33413
0.334196
0.334244
0.334373
0.334546
0.334641
0.334213
0.328475
0.289376
0.104986
0.119823
0.290831
0.32537
0.329301
0.329672
0.329745
0.329806
0.329865
0.329927
0.32999
0.330055
0.330123
0.330197
0.330282
0.330384
0.330512
0.33067
0.330848
0.331009
0.331117
0.331154
0.331178
0.331203
0.331331
0.331503
0.331614
0.331197
0.32585
0.286561
0.1039
0.117648
0.288088
0.323576
0.327737
0.328105
0.328149
0.328177
0.328204
0.328232
0.328261
0.328293
0.328327
0.328367
0.328418
0.328488
0.328585
0.328715
0.328863
0.328993
0.329063
0.329054
0.329051
0.32906
0.329177
0.329359
0.329442
0.328943
0.323591
0.284059
0.105692
0.116385
0.287066
0.322933
0.327206
0.327571
0.327599
0.327609
0.327618
0.327627
0.327636
0.327647
0.327661
0.32768
0.32771
0.327759
0.327837
0.327949
0.328083
0.328202
0.328271
0.328283
0.328321
0.328411
0.328599
0.328819
0.328878
0.328248
0.322565
0.282044
0.105473
0.115298
0.286421
0.322685
0.327066
0.327438
0.327463
0.327466
0.327469
0.327471
0.327474
0.327478
0.327484
0.327495
0.327517
0.32756
0.327632
0.327741
0.327879
0.328023
0.32817
0.328331
0.328618
0.329072
0.329538
0.329835
0.329771
0.328853
0.322774
0.281579
0.105248
0.11429
0.285845
0.322536
0.327027
0.327411
0.327436
0.327438
0.327439
0.327439
0.32744
0.327442
0.327446
0.327455
0.327476
0.327517
0.32759
0.327707
0.327881
0.32813
0.328543
0.329327
0.330837
0.332849
0.334171
0.334333
0.333429
0.331465
0.324507
0.282505
0.105603
0.113359
0.285296
0.322413
0.32701
0.327406
0.327431
0.327433
0.327434
0.327434
0.327434
0.327436
0.327439
0.327448
0.327469
0.327511
0.327593
0.327744
0.328032
0.328638
0.330214
0.334223
0.34116
0.347198
0.349093
0.347518
0.343541
0.338763
0.329564
0.285569
0.106367
0.112511
0.284787
0.322302
0.326996
0.327404
0.327431
0.327433
0.327433
0.327433
0.327434
0.327435
0.327438
0.327447
0.327469
0.327518
0.327628
0.327893
0.328601
0.330981
0.339378
0.356443
0.375221
0.380298
0.376183
0.368903
0.361475
0.353853
0.341265
0.292803
0.107971
0.111748
0.284319
0.322202
0.326985
0.327403
0.327431
0.327433
0.327433
0.327433
0.327433
0.327434
0.327438
0.327448
0.327475
0.327547
0.32776
0.328453
0.33142
0.345182
0.379064
0.408339
0.408152
0.398698
0.387947
0.377614
0.368791
0.362344
0.352305
0.303521
0.110937
0.111054
0.283881
0.322107
0.326974
0.327402
0.327431
0.327433
0.327433
0.327433
0.327433
0.327434
0.327438
0.327452
0.327496
0.327651
0.328251
0.331284
0.349175
0.400926
0.435082
0.43143
0.420076
0.407623
0.395238
0.383384
0.372964
0.3648
0.353901
0.304935
0.112353
0.110424
0.283477
0.32202
0.326963
0.327401
0.327431
0.327433
0.327433
0.327433
0.327433
0.327434
0.32744
0.327465
0.32757
0.328032
0.330604
0.3492
0.414393
0.456765
0.452896
0.441143
0.428378
0.414438
0.400516
0.387405
0.376383
0.367214
0.354477
0.304836
0.112476
0.109851
0.283102
0.321938
0.326953
0.3274
0.327431
0.327433
0.327433
0.327433
0.327433
0.327435
0.327448
0.327514
0.327835
0.329691
0.345247
0.415557
0.474061
0.472277
0.460548
0.447305
0.432219
0.416739
0.402459
0.389492
0.378985
0.3692
0.354929
0.305249
0.112133
0.109328
0.282755
0.321861
0.326944
0.3274
0.327431
0.327433
0.327433
0.327433
0.327434
0.32744
0.327477
0.32768
0.328873
0.339411
0.402526
0.4855
0.489166
0.477152
0.463048
0.446322
0.429427
0.413702
0.399313
0.387884
0.378862
0.370721
0.356271
0.306595
0.111692
0.108857
0.282444
0.321793
0.326936
0.327399
0.327431
0.327433
0.327433
0.327433
0.327436
0.327455
0.327573
0.328268
0.334224
0.381164
0.48715
0.503381
0.490984
0.475328
0.45639
0.43671
0.418783
0.401888
0.388129
0.378937
0.372375
0.369001
0.357639
0.309103
0.111212
0.108435
0.282164
0.321731
0.326928
0.327399
0.327431
0.327433
0.327433
0.327434
0.327443
0.327506
0.327881
0.330836
0.359223
0.468857
0.513847
0.502824
0.484889
0.462964
0.439491
0.417319
0.397439
0.379189
0.366484
0.359459
0.355837
0.359973
0.356592
0.312604
0.111204
0.108058
0.281912
0.321675
0.326921
0.327398
0.327431
0.327433
0.327434
0.327437
0.327467
0.327657
0.329028
0.343248
0.429561
0.51707
0.51377
0.49289
0.467601
0.439402
0.412022
0.386933
0.364375
0.345846
0.333917
0.328272
0.327167
0.338753
0.347574
0.31601
0.111529
0.107725
0.281694
0.321627
0.326916
0.327398
0.327431
0.327433
0.327435
0.327447
0.327537
0.328145
0.334046
0.384452
0.506794
0.524131
0.500908
0.471944
0.438747
0.405312
0.374305
0.346625
0.321982
0.30432
0.293035
0.287452
0.288143
0.305204
0.326101
0.313466
0.112689
0.107436
0.281505
0.321586
0.32691
0.327397
0.327431
0.327434
0.327438
0.327477
0.327737
0.329958
0.353244
0.465166
0.52625
0.510912
0.477379
0.43947
0.399789
0.362411
0.328839
0.299537
0.274894
0.258919
0.248574
0.24277
0.242906
0.26008
0.288409
0.299409
0.116055
0.107185
0.281341
0.321549
0.326906
0.327397
0.327431
0.327435
0.32745
0.327555
0.328361
0.337073
0.4037
0.517434
0.519102
0.485749
0.442967
0.397433
0.353553
0.31409
0.280392
0.251743
0.229707
0.216321
0.20614
0.200512
0.200809
0.217769
0.244421
0.267815
0.117679
0.106972
0.281206
0.321519
0.326903
0.327397
0.327432
0.327439
0.327478
0.327769
0.330529
0.358192
0.476347
0.522263
0.496212
0.449976
0.399244
0.349386
0.304383
0.265571
0.234142
0.207949
0.190637
0.181305
0.173744
0.169381
0.169004
0.178736
0.200356
0.223994
0.122513
0.106796
0.281098
0.321497
0.3269
0.327396
0.327433
0.327448
0.327549
0.328387
0.337873
0.406748
0.514293
0.50461
0.462108
0.405542
0.350395
0.299909
0.256854
0.221994
0.19541
0.17392
0.16173
0.156101
0.153855
0.155089
0.16004
0.16214
0.171661
0.188318
0.125381
0.106654
0.281012
0.321478
0.326898
0.327397
0.327436
0.32747
0.32773
0.330336
0.356083
0.468663
0.509565
0.473007
0.418223
0.35749
0.301918
0.254309
0.216071
0.187289
0.167001
0.153135
0.147717
0.147412
0.151172
0.162813
0.176386
0.17796
0.167174
0.162771
0.138709
0.106542
0.280947
0.321465
0.326896
0.327397
0.327442
0.327522
0.32819
0.335928
0.391712
0.497749
0.484277
0.433368
0.370916
0.310689
0.258676
0.216714
0.185142
0.163338
0.149433
0.143018
0.14612
0.156004
0.172972
0.19765
0.212166
0.218747
0.195189
0.170295
0.15033
0.106461
0.2809
0.321456
0.326895
0.327398
0.327456
0.327641
0.329452
0.347947
0.43998
0.490566
0.44958
0.389938
0.325774
0.269823
0.224148
0.189584
0.165513
0.150639
0.142915
0.142961
0.151939
0.172474
0.206548
0.241937
0.260456
0.299183
0.252348
0.205752
0.173446
0.0819713
0.0821625
0.0823552
0.0825481
0.082741
0.0829339
0.083127
0.0833201
0.0835134
0.0837067
0.0839001
0.0840936
0.0842872
0.0844808
0.0846746
0.0848684
0.0850623
0.0852563
0.0854504
0.0856446
0.0858388
0.0860332
0.0862276
0.0864221
0.0866167
0.0868113
0.0870061
0.0872009
0.0873958
0.0875908
0.0877859
0.087981
0.0881763
0.0883716
0.088567
0.0887625
0.088958
0.0891536
0.0893494
0.0895452
0.089741
0.089937
0.090133
0.0903291
0.0905253
0.0907216
0.0909179
0.0911143
0.0913108
0.0915074
0.091704
0.0919008
0.0920976
0.0922945
0.0924914
0.0926884
0.0928856
0.0930827
0.09328
0.0934773
0.0936747
0.0938722
0.0940698
0.0942674
0.0944651
0.0946629
0.0948608
0.0950587
0.0952567
0.0954548
0.0956529
0.0958512
0.0960494
0.0962478
0.0964463
0.0966448
0.0968433
0.097042
0.0972407
0.0974395
0.0976384
0.0978373
0.0980364
0.0982354
0.0984346
0.0986338
0.0988331
0.0990325
0.0992319
0.0994314
0.099631
0.0998306
0.10003
0.10023
0.10043
0.10063
0.10083
0.10103
0.10123
0.10143
0.10163
0.101831
0.102031
0.102232
0.102432
0.102633
0.102833
0.103034
0.103235
0.103436
0.103637
0.103838
0.104039
0.10424
0.104441
0.104642
0.104844
0.105045
0.105246
0.105448
0.10565
0.105851
0.106052
0.106252
0.106444
0.256959
0.257238
0.257476
0.257706
0.257934
0.258162
0.258388
0.258614
0.258839
0.259063
0.259287
0.25951
0.259733
0.259954
0.260175
0.260396
0.260615
0.260835
0.261053
0.261271
0.261488
0.261704
0.26192
0.262135
0.262349
0.262563
0.262776
0.262989
0.2632
0.263411
0.263622
0.263832
0.264041
0.26425
0.264458
0.264665
0.264871
0.265077
0.265283
0.265488
0.265692
0.265895
0.266098
0.2663
0.266502
0.266703
0.266903
0.267103
0.267302
0.2675
0.267698
0.267895
0.268092
0.268288
0.268483
0.268678
0.268872
0.269066
0.269259
0.269451
0.269643
0.269834
0.270025
0.270215
0.270404
0.270593
0.270781
0.270969
0.271156
0.271342
0.271528
0.271713
0.271898
0.272082
0.272266
0.272449
0.272631
0.272813
0.272994
0.273174
0.273355
0.273534
0.273713
0.273891
0.274069
0.274246
0.274423
0.274599
0.274775
0.27495
0.275124
0.275298
0.275471
0.275644
0.275816
0.275988
0.276159
0.27633
0.2765
0.276669
0.276838
0.277007
0.277175
0.277343
0.27751
0.277677
0.277843
0.278009
0.278173
0.278338
0.278501
0.278664
0.278826
0.278987
0.279149
0.279309
0.27947
0.279629
0.279789
0.279947
0.280105
0.280263
0.280422
0.280587
0.280768
0.314136
0.314245
0.314334
0.31442
0.314504
0.314588
0.314671
0.314753
0.314835
0.314917
0.314998
0.315078
0.315158
0.315237
0.315316
0.315394
0.315472
0.315549
0.315626
0.315702
0.315777
0.315852
0.315927
0.316001
0.316074
0.316148
0.31622
0.316292
0.316364
0.316435
0.316506
0.316576
0.316645
0.316715
0.316783
0.316852
0.316919
0.316987
0.317054
0.31712
0.317186
0.317252
0.317317
0.317382
0.317446
0.31751
0.317573
0.317636
0.317699
0.317761
0.317822
0.317884
0.317944
0.318005
0.318065
0.318125
0.318184
0.318243
0.318301
0.318359
0.318417
0.318474
0.318531
0.318588
0.318644
0.3187
0.318755
0.31881
0.318865
0.318919
0.318973
0.319026
0.31908
0.319132
0.319185
0.319237
0.319289
0.31934
0.319391
0.319442
0.319493
0.319543
0.319592
0.319642
0.319691
0.31974
0.319788
0.319836
0.319884
0.319932
0.319979
0.320026
0.320072
0.320118
0.320164
0.32021
0.320255
0.3203
0.320345
0.32039
0.320436
0.320483
0.320531
0.32058
0.320629
0.320679
0.320728
0.320774
0.320817
0.320857
0.320894
0.32093
0.320964
0.320999
0.321034
0.32107
0.321107
0.321144
0.321181
0.321219
0.321257
0.321295
0.321334
0.321375
0.32142
0.325634
0.325658
0.325676