/*--------------------------------*- C++ -*----------------------------------*\
| =========                 |                                                 |
| \\      /  F ield         | OpenFOAM: The Open Source CFD Toolbox           |
|  \\    /   O peration     | Version:  2112                                  |
|   \\  /    A nd           | Website:  www.openfoam.com                      |
|    \\/     M anipulation  |                                                 |
\*---------------------------------------------------------------------------*/
FoamFile
{
    version     2.0;
    format      ascii;
    arch        "LSB;label=32;scalar=64";
    class       surfaceScalarField;
    location    "0.00432";
    object      phi;
}
// * * * * * * * * * * * * * * * * * * * * * * * * * * * * * * * * * * * * * //

dimensions      [1 0 -1 0 0 0 0];

oriented        oriented;

internalField   nonuniform List<scalar> 
27436
(
-0.533382
8.19277
-0.0931651
7.47163
-0.0835385
7.78636
-0.0692188
7.78651
-0.0686876
7.79235
-0.0541916
7.78181
-0.0450109
7.78587
-0.0304961
7.7827
-0.0188808
7.78473
-0.0119568
7.78904
-0.00772207
7.79179
0.000940619
7.78871
0.0143157
7.78362
0.0313626
7.78074
0.0473441
7.78171
0.054625
7.78915
0.0545724
7.79472
0.0643693
7.78762
0.0744933
7.78547
0.0942991
7.77787
0.09624
7.79104
0.111517
7.78577
0.123981
7.78249
0.573682
7.4629
8.21583
-0.247265
8.44003
-0.0963966
7.32072
-0.0820922
7.77199
-0.0566041
7.76099
-0.0549642
7.79041
-0.0478529
7.77477
-0.0380526
7.77656
-0.0310058
7.77569
-0.0318504
7.78515
-0.0108641
7.7694
0.00111807
7.78011
0.0152056
7.77451
0.0149908
7.78382
0.0211179
7.77462
0.0206734
7.78217
0.0380581
7.77173
0.0500066
7.78275
0.0722168
7.76538
0.0678777
7.7898
0.0749837
7.77078
0.0719207
7.79413
0.10292
7.75475
0.114397
7.77138
0.267571
7.30806
8.47666
-0.227276
8.66729
-0.14129
7.2347
-0.120905
7.75154
-0.107731
7.74787
-0.0977108
7.78045
-0.0917823
7.76929
-0.0864529
7.77161
-0.0799239
7.76919
-0.0718434
7.77748
-0.0638146
7.76278
-0.0372008
7.75328
-0.0148693
7.75142
-0.0127018
7.78162
-0.0109816
7.77296
-0.00666487
7.77789
0.0153798
7.74968
0.0283977
7.76969
0.0518072
7.74199
0.0544291
7.78708
0.0535692
7.77161
0.0616958
7.78597
0.0781947
7.73831
0.100345
7.74934
0.192565
7.21395
8.67172
-0.169636
8.83691
-0.139554
7.20462
-0.134175
7.74613
-0.111782
7.72552
-0.103976
7.77281
-0.0972938
7.76311
-0.0899279
7.76442
-0.081675
7.76081
-0.0684749
7.76478
-0.0543371
7.74974
-0.0301864
7.72963
-0.00547789
7.7268
0.00285447
7.77327
0.00564381
7.77023
0.0149152
7.76865
0.0386517
7.72594
0.0528396
7.75553
0.0769695
7.71802
0.0874226
7.77652
0.0866983
7.7723
0.0914169
7.78121
0.11785
7.71199
0.110902
7.75613
0.161701
7.16372
8.84051
-0.0736704
8.9106
-0.0364786
7.16746
-0.0914211
7.80105
-0.0578899
7.69203
-0.0583526
7.77339
-0.0568145
7.76195
-0.0540094
7.76167
-0.0479553
7.75463
-0.036639
7.75391
-0.0247635
7.73875
-0.00218053
7.70752
0.0201623
7.70428
0.0270572
7.7663
0.0285284
7.7688
0.0359623
7.76126
0.0579982
7.70392
0.0677038
7.74586
0.089815
7.69616
0.0985593
7.76764
0.0928362
7.77802
0.0928998
7.7811
0.123217
7.68171
0.0892268
7.79001
0.096557
7.15753
8.94174
0.118279
8.79235
0.0438137
7.24196
-0.048576
7.89346
-0.00641171
7.64998
-0.0202389
7.78742
-0.0268062
7.76883
-0.0286556
7.76326
-0.0262237
7.75192
-0.0193901
7.74773
-0.0117615
7.73228
0.0049903
7.69044
0.0235218
7.68591
0.0275555
7.76219
0.0248958
7.77151
0.0287923
7.75739
0.045175
7.68756
0.0495618
7.74151
0.0663476
7.67953
0.0727733
7.76108
0.0622959
7.78845
0.0475812
7.79576
0.0860275
7.64326
-0.0145522
7.89024
-0.0206014
7.16383
8.92059
0.304491
8.4879
0.136258
7.41025
-0.00421832
8.03448
0.0289687
7.61642
-0.00948251
7.8261
-0.0404516
7.80018
-0.064715
7.78725
-0.0835584
7.77035
-0.0944503
7.75973
-0.105848
7.74488
-0.113234
7.69788
-0.115721
7.68886
-0.126529
7.77301
-0.146913
7.79197
-0.160012
7.77052
-0.162566
7.69013
-0.183036
7.76202
-0.186785
7.68348
-0.201005
7.77523
-0.235598
7.82302
-0.267917
7.82802
-0.288267
7.66362
-0.354768
7.95637
-0.658236
7.46769
8.25974
0.873377
7.6146
0.521926
7.76179
0.414689
8.14186
0.33943
7.69181
0.279349
7.88645
0.227882
7.85187
0.187323
7.82727
0.154676
7.80255
0.130813
7.78508
0.105096
7.77202
0.0816866
7.72189
0.0655799
7.70575
0.041333
7.79735
0.00668432
7.82671
-0.0188622
7.79611
-0.0415111
7.71281
-0.0721285
7.79269
-0.0937465
7.70525
-0.121324
7.8027
-0.171918
7.87357
-0.23332
7.88935
-0.283267
7.71354
-0.407487
8.08023
-0.694091
7.75439
7.56095
0.593777
7.02096
0.40995
7.94582
0.240762
8.31133
0.196108
7.73669
0.143136
7.93971
0.10355
7.89162
0.0800707
7.85011
0.0676472
7.81466
0.0665447
7.78769
0.0680702
7.77141
0.0696826
7.72149
0.0754691
7.70106
0.0813975
7.79166
0.0773526
7.8309
0.0781988
7.79531
0.0741748
7.71689
0.0711716
7.79578
0.0714669
7.70521
0.0620026
7.81225
0.0239747
7.91161
-0.0313645
7.94463
-0.0497598
7.73183
-0.2204
8.25048
-0.372467
7.90628
7.18616
-3.03894
10.0602
-3.37338
8.28065
-2.75244
7.69078
-2.60915
7.59356
-2.29013
7.62031
-1.97726
7.57798
-1.69077
7.56304
-1.4063
7.5308
-1.10258
7.48666
-0.787461
7.45605
-0.501275
7.43703
-0.209634
7.41061
0.100911
7.48146
0.409313
7.5227
0.704126
7.50055
0.972863
7.44823
1.28685
7.48189
1.55996
7.43232
1.90126
7.47111
2.20454
7.6084
2.5062
7.64295
2.63509
7.60294
3.21308
7.6723
2.93853
8.18004
10.1261
-4.23099
14.2917
-4.33965
8.39088
-4.10113
7.45298
-3.7608
7.25301
-3.32844
7.18657
-2.88679
7.13537
-2.43181
7.10856
-1.96828
7.06924
-1.49744
7.01968
-1.02637
6.9857
-0.573683
6.98631
-0.123116
6.96124
0.348432
7.01031
0.828932
7.04243
1.28486
7.04474
1.70483
7.02836
2.16437
7.02247
2.60168
6.99525
3.06869
7.00434
3.59399
7.0833
4.06835
7.16879
4.39088
7.28033
4.57523
7.48826
4.52119
8.23381
14.6492
-2.69595
16.9899
-4.89681
10.5933
-4.89252
7.44935
-4.17462
6.53298
-3.78841
6.79757
-3.33709
6.68382
-2.829
6.60251
-2.30081
6.54441
-1.77465
6.49791
-1.26118
6.47356
-0.750568
6.47741
-0.254723
6.46651
0.2665
6.48951
0.793357
6.51589
1.3116
6.52679
1.78971
6.55053
2.278
6.53441
2.76792
6.50568
3.26812
6.50445
3.78044
6.5713
4.26744
6.68217
5.04506
6.50288
4.82617
7.70749
2.72778
10.333
17.3783
2.36636
14.6256
0.530064
12.4311
-4.80461
12.7845
-3.81939
5.54368
-4.00803
6.98105
-3.55143
6.22733
-3.00225
6.05733
-2.48588
6.03276
-1.94715
5.96181
-1.40694
5.93417
-0.863668
5.93492
-0.330741
5.93429
0.223996
5.93504
0.787142
5.95312
1.34115
5.97324
1.88554
6.00662
2.39774
6.02267
2.86273
6.0414
3.36156
6.00617
3.88131
6.05231
3.78791
6.7771
4.88688
5.40512
-0.357604
12.9533
-2.37496
12.3514
15.0038
2.47447
12.1535
3.31107
11.5958
3.67201
12.4231
-0.654097
9.87229
-4.35114
10.6746
-3.70638
5.58519
-3.23492
5.58941
-2.76407
5.56558
-2.2066
5.40556
-1.65382
5.38248
-1.09519
5.37735
-0.545718
5.38593
0.0189181
5.37157
0.598307
5.37541
1.17337
5.40012
1.74545
5.43655
2.29626
5.47376
2.73052
5.6086
3.05809
5.68018
3.6075
5.50144
-0.310554
10.6947
-4.59234
9.69009
-3.91833
12.2815
-2.93555
11.3697
12.0694
1.72604
10.4291
3.50837
9.81657
4.99258
10.9381
5.41559
9.4487
4.7907
11.301
0.804485
9.5683
-1.41071
7.80353
-1.70946
5.86887
-1.43619
5.1326
-1.03582
4.98177
-0.568198
4.90854
-0.0775079
4.89363
0.422555
4.86932
0.929177
4.8671
1.43301
4.89542
1.88997
4.9794
2.22284
5.14069
2.00074
5.83419
-0.415653
8.09445
-4.23737
9.32642
-4.63277
11.0892
-4.14506
9.20512
-2.63584
10.7744
-1.23098
9.96767
10.8403
0.762334
9.66762
1.70661
8.87495
3.01348
9.63544
3.59314
8.87554
3.04273
11.8565
1.65268
10.963
0.368544
9.09965
-0.129934
6.38601
-0.0957742
5.11917
-0.027609
4.93572
0.03108
4.87428
0.0736637
4.87582
0.141543
4.82799
0.213656
4.8221
0.293457
4.8435
0.357993
4.9414
0.395143
5.12887
0.0674354
6.18468
-1.17399
9.35359
-2.33097
10.4878
-2.73414
11.5016
-2.2723
8.75073
-1.31646
9.8212
-0.36795
9.02211
10.4749
1.71027
7.95822
2.2671
8.32253
2.59961
9.31704
2.06955
9.41618
2.58442
11.3463
2.7663
10.7843
1.9391
9.92652
0.951224
7.38003
0.544315
5.53134
0.327974
5.15836
0.195545
5.01281
0.0635338
5.01291
-0.0719968
4.96899
-0.204597
4.96062
-0.392607
5.03884
-0.691643
5.24822
-1.27737
5.72125
-2.4641
7.37294
-3.08479
9.97146
-2.76774
10.1769
-2.46661
11.2117
-3.06317
9.35478
-2.79721
9.56456
-2.32903
8.55811
8.14972
2.03462
5.92812
2.53964
7.82666
1.90021
9.9726
1.16723
10.1589
1.47553
11.043
1.75401
10.5018
2.42521
9.2374
2.32241
7.46731
1.61372
6.22721
1.01578
5.74033
0.431707
5.57936
-0.0998663
5.52748
-0.640625
5.49001
-1.21084
5.51367
-1.7899
5.59795
-2.37826
5.81714
-3.00705
6.33423
-3.18009
7.52885
-2.55218
9.32706
-2.69002
10.3112
-2.36734
10.8976
-3.21939
10.2186
-3.62858
9.98879
-2.61388
7.55319
5.54151
3.27135
2.66159
5.50834
5.59492
6.35449
9.13198
6.2713
10.2475
6.26028
11.0568
5.78504
10.973
5.0399
9.97034
4.00508
8.49117
2.99585
7.22983
2.16275
6.57091
1.38913
6.35329
0.634828
6.28045
-0.124774
6.25094
-0.877435
6.26508
-1.6355
6.35656
-2.41113
6.58993
-3.30239
7.21927
-4.21054
8.4278
-4.82668
9.93342
-5.28369
10.7622
-5.31746
10.9309
-5.39762
10.3032
-4.88829
9.4848
-2.92079
5.5922
2.62699
1.45323
1.21068
3.71079
3.34522
4.86359
7.98748
5.46102
9.65128
6.00852
10.509
6.02321
10.955
5.25518
10.7312
4.10913
9.63104
2.96386
8.37139
1.98498
7.55024
1.12714
7.21347
0.291673
7.11904
-0.536295
7.0831
-1.37627
7.10851
-2.23989
7.22321
-3.22796
7.57823
-4.40794
8.3963
-5.62957
9.64521
-6.42648
10.7245
-6.46757
10.7975
-6.03657
10.4964
-5.46023
9.72756
-3.85072
7.88625
-1.45304
3.20391
1.17669
0.0433389
1.16859
-0.00692628
3.40104
1.39082
6.59351
2.64992
8.39085
3.46599
9.69136
3.79885
10.6193
3.6121
10.9146
2.99399
10.2461
2.22226
9.14149
1.48765
8.28566
0.794733
7.90794
0.121426
7.7954
-0.565306
7.77364
-1.2481
7.79477
-1.96465
7.94225
-2.74218
8.3563
-3.57405
9.22658
-4.23941
10.3093
-4.39812
10.8807
-4.02024
10.4153
-3.13011
9.60382
-1.71152
8.30831
-0.1803
6.36387
-0.102573
3.13371
1.07594
-0.817144
1.98556
-0.988019
3.57525
-0.0338457
5.63958
0.845094
7.51067
1.65161
8.88364
2.10299
10.1657
2.20364
10.8111
1.9948
10.4528
1.5797
9.55516
1.11036
8.75525
0.651549
8.36759
0.174045
8.27525
-0.298836
8.24949
-0.781248
8.27993
-1.24269
8.40542
-1.71078
8.82465
-2.11643
9.63041
-2.28746
10.4796
-2.14388
10.736
-1.67118
9.9405
-0.823826
8.75441
0.07266
7.41145
0.999701
5.43803
0.756556
3.38099
1.83273
-0.757922
2.74527
-1.3679
4.18797
-1.22638
5.49677
-0.560217
6.84423
0.142059
8.18174
0.535889
9.77253
0.8478
10.499
0.986527
10.313
0.932404
9.60843
0.743525
8.94375
0.489067
8.6226
0.235971
8.53029
-0.0354545
8.52315
-0.284019
8.53038
-0.525965
8.64812
-0.684619
8.9824
-0.692717
9.63627
-0.516833
10.3026
-0.192873
10.4122
0.200483
9.55
0.871513
8.08336
1.5171
6.76647
1.544
5.41086
0.783302
4.14615
2.62612
-0.633598
3.3818
-1.65304
5.20745
-1.89593
5.73756
-1.70177
6.65078
-1.38154
7.8625
-0.850484
9.24333
-0.379005
10.0267
-0.0652381
9.99758
0.0720849
9.46924
0.0967863
8.91804
0.0670577
8.65262
-0.01815
8.61681
-0.108943
8.61539
-0.197388
8.61987
-0.227501
8.67819
-0.206958
8.96036
-0.07189
9.4982
0.244112
9.9854
0.729848
9.92727
1.25515
9.0263
1.60596
7.73342
1.82738
6.54594
1.63545
5.60242
0.621989
5.1609
3.25311
-0.437303
3.82604
-1.28876
6.05639
-1.8153
6.26196
-1.89066
6.72657
-1.71808
7.69176
-1.29478
8.82295
-0.824424
9.55681
-0.442971
9.61494
-0.190586
9.21509
-0.0745198
8.80022
-0.0478162
8.62579
-0.0381734
8.60798
-0.0405659
8.6186
-0.0273803
8.60705
0.000255584
8.64989
0.13008
8.82823
0.397642
9.22789
0.80341
9.57813
1.28366
9.4472
1.68645
8.62712
1.86166
7.55954
1.77898
6.62786
1.23082
6.14996
0.464299
5.92387
3.70868
-0.314898
4.1451
-1.21655
6.94468
-1.80508
6.85031
-2.03265
6.95354
-1.96465
7.62474
-1.5988
8.45824
-1.15441
9.11099
-0.734939
9.19361
-0.429768
8.907
-0.231605
8.60009
-0.0845094
8.4783
0.0210427
8.50265
0.129344
8.51089
0.236023
8.50036
0.39306
8.4921
0.605186
8.61429
0.925531
8.905
1.35679
9.1451
1.78327
9.02084
2.13514
8.27709
2.2108
7.48592
1.96972
6.86896
1.40338
6.71939
0.528205
6.79375
4.23053
-0.566484
4.70956
-1.43285
7.81038
-1.87571
7.29474
-2.27065
7.34807
-2.27199
7.62723
-2.03123
8.2185
-1.62551
8.70483
-1.18209
8.74813
-0.815914
8.5381
-0.560047
8.34175
-0.388639
8.30614
-0.212061
8.32633
-0.0492504
8.34855
0.129058
8.32224
0.310538
8.30968
0.566602
8.35635
0.928431
8.54088
1.36055
8.7114
1.75601
8.62507
1.99641
8.03698
2.03668
7.44668
1.69139
7.21159
1.27221
7.13816
0.449127
7.59985
4.68147
-0.533682
5.23897
-1.19408
8.47504
-1.63741
7.73906
-1.97016
7.68073
-2.04795
7.70509
-1.84063
8.01022
-1.4811
8.34352
-1.09095
8.35577
-0.762705
8.20663
-0.502034
8.07926
-0.259432
8.06324
-0.0563531
8.12363
0.153325
8.13965
0.358701
8.11698
0.606218
8.06174
0.880172
8.08109
1.21951
8.19958
1.61958
8.30968
1.96212
8.28081
2.14377
7.85724
2.08638
7.50414
1.72923
7.56878
1.26873
7.59872
0.566959
8.30655
5.26334
-0.55936
5.78957
-1.14557
9.06316
-1.59981
8.19424
-1.8087
7.89025
-1.94086
7.83822
-1.8458
7.91492
-1.53393
8.03097
-1.14866
7.96795
-0.794247
7.84966
-0.497098
7.78004
-0.256268
7.82201
-0.00586204
7.87386
0.23043
7.90434
0.483111
7.86506
0.720053
7.82444
1.01909
7.78067
1.38257
7.8344
1.77033
7.92051
2.08244
7.96826
2.16138
7.77514
2.03498
7.63172
1.87197
7.72954
1.39842
8.06609
0.649196
9.06555
5.94807
-0.790282
6.58455
-1.35519
9.62762
-1.87699
8.71701
-2.04856
8.06181
-2.16226
7.95126
-2.07445
7.8255
-1.78906
7.744
-1.44366
7.62051
-1.12001
7.52338
-0.837424
7.49632
-0.549559
7.53435
-0.291904
7.61708
-0.0200518
7.63373
0.243876
7.60185
0.543626
7.52489
0.834022
7.4896
1.14835
7.51869
1.48765
7.58017
1.7668
7.68782
1.86813
7.67331
1.76293
7.73425
1.60833
7.88377
1.08668
8.58464
0.351723
9.80505
6.32221
-0.476823
7.06844
-1.19117
10.3428
-1.65698
9.18331
-1.79244
8.19683
-1.79227
7.95122
-1.72919
7.76225
-1.51988
7.53429
-1.21927
7.31776
-0.906849
7.20901
-0.605188
7.19366
-0.343783
7.27328
-0.0585188
7.33293
0.211763
7.36485
0.493532
7.32135
0.750969
7.26782
1.05312
7.18664
1.37766
7.19316
1.68363
7.27346
1.8887
7.48233
1.91412
7.64659
1.88611
7.76454
1.806
7.96044
1.16021
9.22875
0.53756
10.4287
6.86293
-0.190792
7.26577
-0.72927
10.8845
-1.54615
10.0004
-1.62246
8.27184
-1.6458
7.97397
-1.55837
7.67403
-1.34007
7.31444
-1.10714
7.08304
-0.855933
6.95601
-0.608777
6.94645
-0.324289
6.98962
-0.0641279
7.07402
0.210969
7.09126
0.466812
7.06677
0.752915
6.98236
1.00505
6.93436
1.2547
6.94234
1.49666
7.03138
1.71683
7.26229
1.79528
7.56709
1.7716
7.79009
1.78208
7.95165
1.04303
9.97421
0.404847
11.0585
7.24905
-0.434964
7.70822
-0.892849
11.3436
-1.76576
10.8697
-1.7697
8.27432
-1.75178
7.95561
-1.65184
7.57371
-1.48548
7.14721
-1.24856
6.84422
-1.00282
6.70939
-0.731801
6.67535
-0.492222
6.75091
-0.216051
6.79918
0.0475434
6.82913
0.326358
6.7893
0.570173
6.73956
0.841178
6.66347
1.09773
6.68501
1.32047
6.80715
1.47777
7.10449
1.55279
7.49133
1.54056
7.80372
1.4069
8.08751
0.583851
10.8022
0.231587
11.4078
7.46487
-0.062162
7.77505
-0.456975
11.7404
-1.1762
11.5805
-1.50303
8.59895
-1.52499
7.97768
-1.39533
7.44361
-1.20608
6.95747
-0.999074
6.63628
-0.785233
6.49465
-0.580422
6.47143
-0.31334
6.48501
-0.0654848
6.55263
0.203445
6.56157
0.450349
6.54364
0.71753
6.47325
0.927824
6.453
1.13098
6.48109
1.35089
6.58741
1.53385
6.92194
1.65188
7.37329
1.63323
7.82602
1.31388
8.40651
0.598958
11.5069
0.361949
11.6382
7.81523
0.0464383
7.73046
-0.0870396
11.8747
-0.796637
12.289
-1.40751
9.20771
-1.32572
7.89453
-1.24673
7.3632
-1.10231
6.81187
-0.931298
6.46373
-0.740843
6.30508
-0.505717
6.23678
-0.307446
6.28754
-0.0649132
6.31129
0.163708
6.33409
0.406291
6.30213
0.604123
6.27634
0.833796
6.22404
1.03011
6.28372
1.18919
6.4252
1.33678
6.77391
1.41331
7.29489
1.59453
7.64421
0.850867
9.15103
0.226685
12.1367
0.16078
11.7008
7.97599
-0.290966
8.02647
-0.353666
11.9405
-0.751504
12.687
-1.44018
9.89294
-1.41213
7.86496
-1.32985
7.28019
-1.14355
6.62565
-0.968213
6.28911
-0.793277
6.12937
-0.636223
6.08106
-0.403216
6.05565
-0.19513
6.10421
0.0398532
6.10009
0.254358
6.08859
0.49012
6.04163
0.652379
6.06177
0.821091
6.11514
0.998595
6.24785
1.17225
6.59929
1.22781
7.23978
1.17155
7.7017
0.342176
9.97658
-0.083901
12.5621
-0.00906464
11.6361
7.9789
-0.143107
8.17919
0.028246
11.7724
-0.249656
12.9652
-1.03749
10.676
-1.16117
7.98713
-1.08355
7.20202
-0.973192
6.51521
-0.811016
6.12629
-0.644164
5.96392
-0.433592
5.87128
-0.263618
5.8863
-0.0438991
5.88541
0.159013
5.89791
0.376177
5.87226
0.541927
5.87651
0.745557
5.85896
0.916947
5.94274
1.06667
6.09542
1.17783
6.48714
1.32335
7.09377
1.14412
7.88114
0.360421
10.7618
0.152285
12.7758
0.207094
11.6003
8.21753
0.00860538
8.18018
0.153487
11.633
0.238562
12.8805
-0.509792
11.4177
-1.103
8.57832
-0.954515
7.05254
-0.85569
6.41696
-0.720764
5.99183
-0.563881
5.80609
-0.431753
5.74044
-0.232065
5.68758
-0.0578882
5.71188
0.141614
5.69913
0.312802
5.70174
0.511866
5.67855
0.644738
5.72652
0.787727
5.80023
0.939204
5.94371
1.05256
6.37247
1.23816
6.90754
0.618389
8.5002
-0.0757564
11.45
-0.0591457
12.7639
0.0441082
11.5089
8.27125
-0.220477
8.40741
-0.191461
11.6064
0.025595
12.6624
-0.417395
11.858
-1.01114
9.17012
-0.99303
7.03456
-0.90859
6.33311
-0.795263
5.87818
-0.664054
5.67607
-0.473825
5.55149
-0.329452
5.54375
-0.142315
5.52548
0.0238435
5.53361
0.208157
5.51819
0.348222
5.53881
0.534666
5.54131
0.677841
5.65728
0.761846
5.85981
0.797914
6.33496
0.768818
6.93526
0.0104781
9.25484
-0.453152
11.9014
-0.125839
12.4295
-0.0542036
11.4345
8.20847
-0.0625231
8.47562
0.0331873
11.5148
0.443095
12.2513
0.135333
12.1632
-0.634531
9.93852
-0.894971
7.29381
-0.702336
6.14092
-0.624648
5.79989
-0.489203
5.5406
-0.372043
5.43556
-0.194146
5.36667
-0.0408402
5.37273
0.135678
5.35772
0.286738
5.36759
0.467431
5.35896
0.584569
5.42464
0.705162
5.53698
0.805534
5.75868
1.02237
6.11841
0.740646
7.21315
-0.0670958
10.0617
-0.211052
12.0388
0.15803
12.0569
0.159127
11.4237
8.35529
0.0546144
8.42404
0.12574
11.444
0.425086
11.9524
0.542679
12.0434
-0.0897861
10.5697
-0.608357
7.81233
-0.607326
6.13952
-0.545857
5.73779
-0.463495
5.45927
-0.307301
5.28079
-0.187912
5.24778
-0.0331426
5.21865
0.10591
5.21932
0.262563
5.21164
0.378427
5.24366
0.540237
5.26407
0.628189
5.44968
0.714401
5.67265
0.723405
6.10781
0.233037
7.70783
-0.432494
10.7292
-0.272413
11.877
0.0178086
11.7667
0.0408505
11.4035
8.37944
-0.10461
8.52812
-0.0705589
11.4099
0.158629
11.7225
0.482598
11.7174
-0.0048448
11.0562
-0.567262
8.37325
-0.679648
6.25111
-0.574631
5.6326
-0.478666
5.36454
-0.392729
5.19617
-0.24927
5.10537
-0.123683
5.09363
0.0226829
5.07361
0.152791
5.08185
0.299493
5.09756
0.380094
5.18425
0.45454
5.37611
0.565034
5.56284
0.344135
6.32909
-0.391934
8.4491
-0.789027
11.1277
-0.378971
11.4688
-0.193634
11.5814
-0.141298
11.3589
8.23
0.0372262
8.48833
0.0912633
11.3557
0.266094
11.5465
0.672317
11.3099
0.633777
11.0945
-0.0789417
9.08524
-0.472589
6.64315
-0.466829
5.62632
-0.378487
5.27783
-0.254189
5.07339
-0.157875
5.00949
-0.0246551
4.96118
0.0973558
4.9523
0.227614
4.95228
0.323297
5.00289
0.457476
5.0508
0.553361
5.28143
0.52621
5.58891
0.110655
6.74445
-0.545547
9.11258
-0.436607
11.0189
-0.107879
11.125
0.0577856
11.4104
0.103866
11.3206
8.32975
0.167613
8.32155
0.28896
11.2344
0.412127
11.4212
0.647842
11.071
0.887732
10.8515
0.246545
9.725
-0.205541
7.09411
-0.336291
5.75663
-0.278312
5.22187
-0.226203
5.02277
-0.128017
4.91301
-0.0261728
4.86004
0.0926739
4.83423
0.194053
4.85145
0.294697
4.90288
0.348194
4.99779
0.430415
5.19984
0.284095
5.73754
-0.216381
7.2432
-0.834353
9.73064
-0.458185
10.6434
-0.241162
10.9009
-0.144458
11.3114
-0.0506472
11.2208
8.28836
-0.0228409
8.34605
0.0627298
11.149
0.14933
11.3313
0.395562
10.8232
0.827173
10.4205
0.636505
9.9131
-0.0448876
7.77375
-0.363223
6.07483
-0.335377
5.19574
-0.253346
4.94205
-0.176672
4.83713
-0.0824952
4.76703
0.0128292
4.73975
0.106141
4.75905
0.176153
4.83407
0.242734
4.93167
0.243628
5.19954
-0.119566
6.09673
-0.896562
8.01557
-0.951225
9.78635
-0.577084
10.2649
-0.348632
10.6698
-0.297457
11.2592
-0.132011
11.0593
8.17932
0.106249
8.24411
0.294031
10.9612
0.351848
11.2723
0.523131
10.6497
0.814689
10.1258
0.951433
9.77333
0.338118
8.38556
-0.0795908
6.49266
-0.190514
5.30919
-0.162263
4.91536
-0.0900698
4.76663
-0.0165527
4.69448
0.0673004
4.65674
0.142742
4.68446
0.219451
4.75826
0.24892
4.90205
0.100079
5.34899
-0.411316
6.60594
-0.92826
8.53655
-0.676772
9.53849
-0.3968
9.98269
-0.234234
10.5096
-0.180782
11.2134
-0.0191876
10.9095
8.1761
0.156573
8.09264
0.378477
10.7398
0.450863
11.1954
0.580145
10.5172
0.805203
9.90158
1.21996
9.35541
0.93095
8.67307
0.166544
7.25785
-0.0777995
5.55671
-0.0952047
4.93451
-0.047088
4.72008
0.00548258
4.64336
0.0559967
4.60737
0.118949
4.62256
0.167277
4.71121
0.147808
4.92309
-0.119899
5.61573
-0.849763
7.32367
-1.04142
8.73502
-0.683986
9.18335
-0.439643
9.74013
-0.311693
10.389
-0.245938
11.1524
-0.05767
10.7442
8.13541
0.034944
8.06274
0.234157
10.542
0.336908
11.0922
0.408656
10.4434
0.610571
9.69583
0.894707
9.06755
0.960605
8.60573
0.552358
7.66756
0.0278118
6.08379
-0.114807
5.07841
-0.0842626
4.69109
-0.0439898
4.60431
-0.00876617
4.5733
0.0329585
4.58206
0.0418894
4.7035
-0.111309
5.07542
-0.74288
6.24459
-1.14646
7.72872
-0.977508
8.56905
-0.730059
8.943
-0.566234
9.58071
-0.518194
10.3427
-0.397543
11.0426
-0.149868
10.5159
7.98865
0.0688317
7.99559
0.306585
10.3039
0.464211
10.933
0.553908
10.3515
0.688125
9.56311
0.877436
8.87789
1.22237
8.25865
0.921622
7.97003
0.270961
6.73946
0.0347283
5.31603
0.000373203
4.72641
0.00983548
4.59644
0.0158981
4.56839
0.0282094
4.57081
-0.0302336
4.76275
-0.294297
5.33978
-0.855815
6.80031
-1.13041
8.00231
-0.787785
8.23039
-0.641901
8.8031
-0.5304
9.4711
-0.440421
10.2541
-0.276802
10.8822
-0.0420484
10.288
7.94087
0.0996706
7.90173
0.429396
9.97542
0.621372
10.7407
0.631478
10.3416
0.712358
9.48177
0.900723
8.68869
1.09751
8.06003
1.16328
7.90532
0.832038
7.07214
0.190019
5.95923
0.0536485
4.86375
0.0276847
4.62343
0.0146572
4.58258
-0.0100062
4.59648
-0.172483
4.92586
-0.821506
5.98857
-1.12356
7.10221
-1.00252
7.88097
-0.812391
8.04036
-0.641443
8.63486
-0.580523
9.40968
-0.559434
10.2272
-0.363738
10.686
-0.0499891
9.97248
7.8804
0.00616355
-0.209115
0.00659214
-0.224883
0.0062715
-0.233082
0.00513919
-0.239274
0.00309344
-0.252218
-0.000650571
-0.260748
-0.00489262
-0.275031
-0.00875473
-0.282313
-0.0126366
-0.295847
-0.0153763
-0.316049
-0.0170401
-0.325955
-0.0180331
-0.335963
-0.0181207
-0.336893
-0.0184283
-0.353125
-0.0193034
-0.370119
-0.0350261
-0.406431
-0.113682
-0.55401
-0.500058
-1.43824
-0.622246
-1.76396
-0.60323
-1.77507
-0.589507
-1.75224
-0.551666
-1.73318
-0.501082
-1.72098
-0.442392
-1.71445
-0.378525
-1.71423
-0.310895
-1.71642
-0.236289
-1.7174
-0.153225
-1.73006
-0.0692318
-1.72484
-1.79584
0.0177917
-0.231347
0.018505
-0.231423
0.0167639
-0.238304
0.0145295
-0.243629
0.0110127
-0.254568
0.00690449
-0.260424
0.00209965
-0.27249
-0.00239793
-0.279752
-0.00619534
-0.296496
-0.00862079
-0.306771
-0.0104168
-0.316845
-0.0113094
-0.320191
-0.0124224
-0.330408
-0.0135924
-0.346868
-0.0247696
-0.373734
-0.0814568
-0.458225
-0.375997
-0.862585
-0.576605
-1.67621
-0.587423
-1.85411
-0.600009
-1.75362
-0.580361
-1.71918
-0.534699
-1.68922
-0.483597
-1.66934
-0.427951
-1.65852
-0.366146
-1.65671
-0.299195
-1.65924
-0.224937
-1.66332
-0.142239
-1.67887
-0.0568918
-1.67427
-1.72866
0.00771258
-0.245232
0.00510145
-0.236915
0.00268133
-0.244155
-0.00180895
-0.245363
-0.00601961
-0.253835
-0.0106152
-0.257172
-0.0156164
-0.272118
-0.0206093
-0.281956
-0.0240663
-0.290362
-0.0259613
-0.29774
-0.0272885
-0.305588
-0.027363
-0.31267
-0.0273924
-0.325874
-0.0332503
-0.346903
-0.07169
-0.400655
-0.206124
-0.663491
-0.636192
-1.55896
-0.633947
-1.86266
-0.640384
-1.84536
-0.640955
-1.74513
-0.598293
-1.68861
-0.555951
-1.65179
-0.505648
-1.63121
-0.446824
-1.61681
-0.380782
-1.61084
-0.309065
-1.61006
-0.22999
-1.61501
-0.146978
-1.63024
-0.0654792
-1.62378
-1.66574
-0.00131328
-0.251444
-0.0051231
-0.243063
-0.00886483
-0.248904
-0.0140977
-0.244771
-0.0195672
-0.251127
-0.0242658
-0.259304
-0.0294033
-0.269322
-0.0340211
-0.273776
-0.0375572
-0.281203
-0.038918
-0.287429
-0.0397744
-0.295902
-0.0399195
-0.305172
-0.0424905
-0.322516
-0.0653926
-0.362553
-0.16626
-0.525957
-0.642767
-1.43333
-0.724039
-1.86136
-0.696434
-1.9055
-0.676159
-1.81765
-0.649592
-1.73665
-0.606994
-1.66643
-0.561911
-1.61617
-0.510039
-1.58848
-0.451364
-1.57109
-0.386389
-1.56317
-0.315281
-1.56127
-0.235844
-1.56853
-0.152152
-1.58421
-0.0695114
-1.57427
-1.60268
-0.0010514
-0.257585
-0.00656314
-0.247346
-0.011929
-0.250483
-0.0185796
-0.243547
-0.0250383
-0.251061
-0.0301203
-0.252684
-0.0353715
-0.261637
-0.0395392
-0.265875
-0.0418966
-0.272779
-0.0436413
-0.278851
-0.0457647
-0.288495
-0.0474837
-0.301771
-0.0590554
-0.330834
-0.126456
-0.442123
-0.540445
-0.91755
-0.752864
-1.80577
-0.731248
-1.97742
-0.710811
-1.87688
-0.672256
-1.79782
-0.640075
-1.71717
-0.59824
-1.63359
-0.55316
-1.57231
-0.502111
-1.53849
-0.444502
-1.51973
-0.3814
-1.51124
-0.310977
-1.50819
-0.233977
-1.51715
-0.155536
-1.53077
-0.0774595
-1.52055
-1.54855
-0.00157388
-0.262073
-0.0078918
-0.249577
-0.0148659
-0.250747
-0.0223727
-0.24513
-0.0293631
-0.245292
-0.0353548
-0.246127
-0.0404422
-0.25402
-0.0436805
-0.259252
-0.0451371
-0.266883
-0.049588
-0.273778
-0.0515801
-0.286414
-0.0587208
-0.308345
-0.102783
-0.392108
-0.291272
-0.766739
-0.761427
-1.8009
-0.764441
-2.02723
-0.747785
-1.97764
-0.707813
-1.86011
-0.66453
-1.78208
-0.629772
-1.68836
-0.589553
-1.58965
-0.546529
-1.52629
-0.497061
-1.48574
-0.44068
-1.46471
-0.377629
-1.45487
-0.30687
-1.45159
-0.23144
-1.46006
-0.154543
-1.47253
-0.075135
-1.46638
-1.48823
-0.00276149
-0.264214
-0.0100126
-0.249995
-0.0182615
-0.249254
-0.0264092
-0.237286
-0.0347583
-0.237862
-0.0411651
-0.238795
-0.0455309
-0.247559
-0.0478063
-0.25487
-0.0510951
-0.265126
-0.0548096
-0.276578
-0.0603809
-0.298084
-0.0906712
-0.369531
-0.220315
-0.685958
-0.715196
-1.82641
-0.808726
-2.07704
-0.776347
-2.08067
-0.750888
-1.94452
-0.702772
-1.84388
-0.656487
-1.75493
-0.621624
-1.65498
-0.585835
-1.53805
-0.544738
-1.47463
-0.49608
-1.42959
-0.44059
-1.40737
-0.377762
-1.3979
-0.307368
-1.3933
-0.232421
-1.40089
-0.156108
-1.4121
-0.0773906
-1.40937
-1.42607
-0.00585477
-0.263753
-0.0134601
-0.246251
-0.0222701
-0.238978
-0.0319819
-0.227432
-0.0409579
-0.229601
-0.046958
-0.233403
-0.0514473
-0.246055
-0.0529074
-0.25984
-0.05698
-0.281466
-0.0626019
-0.309695
-0.0857228
-0.383194
-0.193711
-0.674371
-0.665022
-1.86226
-0.816902
-2.13377
-0.797342
-2.15677
-0.78839
-2.03348
-0.746967
-1.91938
-0.695325
-1.81145
-0.64774
-1.7156
-0.613834
-1.61658
-0.583457
-1.48455
-0.544118
-1.41743
-0.496429
-1.37142
-0.441483
-1.34854
-0.379837
-1.3391
-0.308593
-1.33592
-0.232774
-1.34254
-0.15548
-1.35207
-0.0769503
-1.35023
-1.36323
-0.0087177
-0.257213
-0.0168096
-0.232616
-0.0270143
-0.225879
-0.037851
-0.216974
-0.0453075
-0.22451
-0.0525058
-0.238509
-0.0572166
-0.26861
-0.0589655
-0.31345
-0.0631239
-0.380616
-0.0827035
-0.480286
-0.178881
-0.75844
-0.605027
-1.95331
-0.793611
-2.20851
-0.804172
-2.20417
-0.812712
-2.10931
-0.788861
-1.98938
-0.735767
-1.86788
-0.684257
-1.75312
-0.63571
-1.65561
-0.60411
-1.56683
-0.580103
-1.4323
-0.542821
-1.35618
-0.496519
-1.31062
-0.44227
-1.289
-0.381061
-1.27975
-0.310726
-1.27969
-0.234717
-1.28557
-0.157049
-1.29274
-0.077931
-1.29154
-1.30243
-0.0100034
-0.241452
-0.0201573
-0.215054
-0.0320888
-0.213123
-0.0422711
-0.212332
-0.0522373
-0.239466
-0.0593069
-0.297553
-0.0626508
-0.407126
-0.0634948
-0.563149
-0.0785254
-0.75249
-0.166623
-1.43603
-0.506692
-2.12065
-0.716328
-2.29035
-0.77922
-2.2378
-0.813558
-2.1534
-0.817096
-2.04206
-0.773963
-1.91333
-0.717957
-1.76791
-0.667707
-1.65067
-0.619503
-1.56218
-0.592717
-1.49864
-0.574443
-1.37378
-0.538663
-1.29076
-0.494285
-1.2488
-0.440953
-1.22913
-0.380332
-1.22181
-0.311288
-1.22467
-0.235856
-1.23091
-0.15771
-1.23686
-0.0780579
-1.23625
-1.245
-0.0120634
-0.223427
-0.0230688
-0.199611
-0.0362312
-0.206883
-0.0504473
-0.23842
-0.0611007
-0.353717
-0.0705344
-0.573352
-0.0879443
-1.13943
-0.108384
-1.71028
-0.156587
-1.9253
-0.323487
-2.1194
-0.566599
-2.31244
-0.693926
-2.24069
-0.773139
-2.16173
-0.817762
-2.06108
-0.803627
-1.94033
-0.743547
-1.75976
-0.692541
-1.61553
-0.647066
-1.51712
-0.602547
-1.44952
-0.580563
-1.41121
-0.567508
-1.30786
-0.532395
-1.22179
-0.489683
-1.18527
-0.437735
-1.16918
-0.377824
-1.1652
-0.311224
-1.17093
-0.236847
-1.17897
-0.157752
-1.18606
-0.0782145
-1.18505
-1.1921
-0.0142023
-0.207095
-0.0284642
-0.192198
-0.0455799
-0.235311
-0.0680425
-0.403689
-0.106296
-0.809375
-0.186392
-1.79889
-0.170579
-2.0116
-0.157876
-2.09387
-0.198169
-2.13323
-0.383932
-2.19135
-0.55509
-2.20134
-0.672073
-2.11135
-0.768269
-2.03904
-0.801664
-1.91606
-0.763362
-1.73435
-0.705918
-1.55782
-0.666849
-1.4537
-0.628276
-1.38028
-0.588078
-1.33071
-0.563737
-1.30484
-0.556778
-1.23544
-0.525191
-1.15075
-0.484008
-1.11984
-0.433431
-1.10871
-0.374689
-1.10931
-0.308875
-1.11796
-0.235635
-1.12759
-0.156994
-1.13671
-0.0786619
-1.1344
-1.14092
-0.017727
-0.196122
-0.041389
-0.214284
-0.0836901
-0.411582
-0.200022
-1.31797
-0.301595
-1.89943
-0.246107
-2.14116
-0.186228
-2.12549
-0.167041
-2.09986
-0.209996
-2.07211
-0.384685
-2.07747
-0.538092
-2.03148
-0.650977
-1.93612
-0.740472
-1.82648
-0.757398
-1.65726
-0.713298
-1.4912
-0.673534
-1.35121
-0.645958
-1.27882
-0.611952
-1.22544
-0.574416
-1.1922
-0.54694
-1.18244
-0.543975
-1.14986
-0.518149
-1.07804
-0.478302
-1.0532
-0.429008
-1.04829
-0.372314
-1.05435
-0.306678
-1.06439
-0.233902
-1.07554
-0.15614
-1.08681
-0.0788558
-1.08355
-1.09067
-0.0303035
-0.218335
-0.0966698
-0.368592
-0.360013
-1.09595
-0.404244
-1.836
-0.34133
-2.06379
-0.222378
-2.13713
-0.171159
-2.04344
-0.1641
-1.98363
-0.210737
-1.92393
-0.378451
-1.88622
-0.487555
-1.77016
-0.605849
-1.6671
-0.68726
-1.55509
-0.701584
-1.37666
-0.669613
-1.22812
-0.645378
-1.12962
-0.627356
-1.08647
-0.596428
-1.05399
-0.562718
-1.04
-0.533952
-1.05171
-0.53186
-1.0527
-0.511646
-1.00147
-0.472704
-0.985811
-0.424514
-0.987988
-0.36902
-0.999497
-0.303719
-1.01092
-0.231592
-1.02383
-0.155292