/*--------------------------------*- C++ -*----------------------------------*\
| =========                 |                                                 |
| \\      /  F ield         | OpenFOAM: The Open Source CFD Toolbox           |
|  \\    /   O peration     | Version:  2112                                  |
|   \\  /    A nd           | Website:  www.openfoam.com                      |
|    \\/     M anipulation  |                                                 |
\*---------------------------------------------------------------------------*/
FoamFile
{
    version     2.0;
    format      ascii;
    arch        "LSB;label=32;scalar=64";
    class       surfaceScalarField;
    location    "0.00745";
    object      phi;
}
// * * * * * * * * * * * * * * * * * * * * * * * * * * * * * * * * * * * * * //

dimensions      [1 0 -1 0 0 0 0];

oriented        oriented;

internalField   nonuniform List<scalar> 
27436
(
-0.533485
8.19282
-0.0933658
7.47167
-0.0849746
7.78712
-0.07067
7.7865
-0.0635569
7.7876
-0.0480954
7.78195
-0.0395195
7.7884
-0.0351426
7.79217
-0.0262275
7.78806
-0.0164076
7.78724
-0.00784277
7.78878
0.00126189
7.7882
0.0143415
7.78386
0.0311458
7.78091
0.0462442
7.78234
0.0549269
7.78822
0.0580423
7.79261
0.0658384
7.78973
0.0753312
7.78831
0.0895454
7.78252
0.096244
7.78789
0.11176
7.78556
0.124107
7.78238
0.574291
7.4624
8.21789
-0.247195
8.44
-0.096113
7.3206
-0.0811507
7.77216
-0.0543152
7.7595
-0.0585557
7.79202
-0.0613532
7.78481
-0.0391827
7.76698
-0.0292518
7.78271
-0.0195129
7.77977
-0.00973918
7.77545
0.00129364
7.77838
0.0153339
7.77418
0.014986
7.78398
0.0215009
7.77436
0.0210263
7.78282
0.0377046
7.77156
0.0466057
7.78371
0.0589659
7.77738
0.082352
7.76492
0.0776447
7.78723
0.0721683
7.79341
0.102956
7.75473
0.114277
7.77124
0.267714
7.30882
8.47979
-0.227251
8.66726
-0.141089
7.23448
-0.120436
7.75159
-0.106854
7.74633
-0.104664
7.78989
-0.106273
7.78558
-0.0901329
7.74908
-0.0744249
7.76546
-0.0669758
7.77296
-0.0498251
7.76352
-0.0373706
7.76665
-0.0140831
7.75136
-0.0125713
7.78252
-0.0114553
7.77314
-0.00830006
7.77964
0.0126946
7.75058
0.0241002
7.77231
0.0472645
7.75417
0.0609456
7.75125
0.0594264
7.78875
0.0638137
7.78902
0.0786695
7.73991
0.1006
7.74961
0.19258
7.2151
8.67034
-0.169534
8.8368
-0.139414
7.20437
-0.13406
7.74629
-0.112779
7.72534
-0.113542
7.7906
-0.109226
7.77958
-0.0886346
7.72779
-0.0750091
7.75083
-0.0619229
7.75905
-0.0438566
7.74633
-0.0276249
7.7526
-0.0058569
7.73027
0.00307515
7.77367
0.00481778
7.77128
0.0149118
7.76952
0.0353117
7.73016
0.0494845
7.75813
0.0696387
7.73396
0.0885267
7.73237
0.0942586
7.78302
0.0944454
7.78884
0.118935
7.71552
0.111319
7.75731
0.16191
7.16395
8.83633
-0.0736231
8.91041
-0.0365714
7.16732
-0.0924983
7.8023
-0.0624547
7.69561
-0.0698221
7.79802
-0.0672142
7.77652
-0.0512902
7.71065
-0.0405533
7.73861
-0.029691
7.74699
-0.0146832
7.73249
0.000616793
7.73949
0.0183755
7.71312
0.0269109
7.76525
0.0275678
7.77055
0.0369795
7.76008
0.0543909
7.71273
0.0645092
7.74799
0.0819383
7.71647
0.0969351
7.71737
0.101133
7.77881
0.0968964
7.79307
0.12481
7.68765
0.0898459
7.79239
0.0967205
7.15754
8.93818
0.118483
8.79191
0.0436786
7.24216
-0.0501063
7.89618
-0.012507
7.65828
-0.0313426
7.81683
-0.0340962
7.77839
-0.024132
7.69941
-0.0185278
7.73081
-0.0127657
7.73983
-0.0020243
7.72453
0.00792259
7.73154
0.0214694
7.70018
0.0258632
7.76097
0.0249717
7.77147
0.0296259
7.75539
0.0421965
7.70015
0.0464132
7.74376
0.0582664
7.70458
0.0683641
7.70726
0.0691504
7.77804
0.0524705
7.80972
0.0884442
7.65174
-0.0139833
7.89479
-0.0209838
7.1646
8.91923
0.304522
8.48735
0.135944
7.41081
-0.00685802
8.03909
0.0221782
7.62951
-0.0225884
7.86154
-0.0471434
7.8015
-0.0589954
7.71038
-0.0749787
7.74483
-0.0902852
7.75332
-0.0940785
7.72909
-0.109235
7.74932
-0.117234
7.70888
-0.130278
7.77409
-0.146308
7.78756
-0.158073
7.76715
-0.166362
7.70841
-0.184942
7.76233
-0.193171
7.71277
-0.20809
7.72217
-0.22851
7.79843
-0.262702
7.84387
-0.284734
7.67381
-0.35441
7.96428
-0.658416
7.46861
8.26102
0.873257
7.61403
0.521754
7.7624
0.410474
8.15056
0.332217
7.70811
0.268336
7.92517
0.227867
7.84045
0.192989
7.74451
0.162713
7.77426
0.134811
7.77927
0.115757
7.74814
0.0862782
7.78223
0.0640402
7.73209
0.0389273
7.7994
0.00679047
7.81974
-0.0192345
7.79316
-0.0444701
7.73364
-0.0742571
7.7921
-0.100855
7.73933
-0.130784
7.75207
-0.167022
7.83465
-0.228115
7.90492
-0.279074
7.7248
-0.405886
8.09087
-0.69356
7.75637
7.56505
0.59296
7.02107
0.410135
7.94541
0.237821
8.3229
0.187879
7.75772
0.12879
7.98354
0.0975878
7.86947
0.0845876
7.75888
0.0753349
7.78223
0.072041
7.77933
0.0760318
7.74281
0.0754634
7.78601
0.0741068
7.73449
0.0784043
7.79506
0.0769379
7.82124
0.0770155
7.79308
0.0723881
7.73827
0.0674532
7.79702
0.062783
7.74399
0.0561507
7.75868
0.0295046
7.86123
-0.0265685
7.96089
-0.0464811
7.74463
-0.21915
8.26317
-0.37186
7.90877
7.18997
-3.05092
10.0729
-3.39044
8.2853
-2.76472
7.69664
-2.62086
7.61318
-2.30324
7.66507
-1.93564
7.50396
-1.65772
7.48418
-1.36955
7.4931
-1.07776
7.48352
-0.788099
7.44982
-0.492242
7.49079
-0.20683
7.44978
0.0993622
7.48858
0.404073
7.51653
0.695015
7.50216
0.967249
7.46605
1.26354
7.50071
1.54065
7.4669
1.83459
7.46474
2.19637
7.49941
2.50207
7.65512
2.66032
7.58633
3.23465
7.68847
2.95053
8.19244
10.1399
-4.25604
14.3319
-4.36165
8.3923
-4.19362
7.52418
-3.90254
7.3171
-3.32905
7.09207
-2.81274
6.99658
-2.35936
7.03512
-1.91072
7.04114
-1.4568
7.02425
-1.02103
7.00938
-0.562451
7.03038
-0.11976
7.00751
0.343162
7.02529
0.811699
7.04805
1.25913
7.05484
1.67842
7.04679
2.13055
7.04856
2.56794
7.02949
3.0216
7.01109
3.57026
6.95076
4.12856
7.0968
4.44133
7.27344
4.61335
7.51631
4.56463
8.24055
14.7059
-2.74523
17.0835
-4.85865
10.506
-4.98062
7.63364
-4.15527
6.48456
-3.65003
6.59395
-3.19627
6.5576
-2.69218
6.53646
-2.19229
6.53371
-1.6983
6.52342
-1.21988
6.52613
-0.725175
6.53338
-0.24247
6.5254
0.261034
6.52163
0.762962
6.54634
1.25826
6.55971
1.71759
6.5875
2.20617
6.55989
2.69478
6.5408
3.18911
6.51677
3.66339
6.4766
4.24468
6.51565
5.09512
6.42299
4.71808
7.89327
2.77981
10.1789
17.4865
2.3751
14.7148
0.194023
12.6869
-5.01264
12.8263
-3.91611
5.38118
-3.81425
6.50525
-3.29954
6.06078
-2.84807
6.08576
-2.35104
6.02561
-1.84043
6.00662
-1.32739
6.01017
-0.813399
6.01846
-0.306157
6.01923
0.21528
6.00076
0.743146
6.01905
1.2649
6.03817
1.78574
6.06657
2.28053
6.06482
2.76031
6.06077
3.19875
6.07826
3.74744
5.92807
3.97055
6.29278
5.09925
5.29481
-0.178234
13.1709
-2.39904
12.4001
15.0875
2.46134
12.2608
3.52752
11.6216
3.45398
12.8902
-0.820409
9.65172
-3.60809
9.30675
-3.19018
5.6647
-2.94764
5.84394
-2.46554
5.53387
-1.94585
5.48432
-1.46315
5.5281
-0.973828
5.5303
-0.472532
5.51992
0.0286606
5.50143
0.537494
5.51154
1.03396
5.54206
1.52312
5.57715
2.02446
5.56285
2.48495
5.59979
2.61596
5.94745
2.95952
5.5852
-0.0893916
9.34197
-4.16637
9.37014
-3.87901
12.8846
-2.95718
11.4792
12.1308
1.88226
10.3851
3.88191
9.62489
5.78212
10.9837
4.98447
10.4329
4.07277
10.2235
-1.25715
10.9779
-2.38903
6.96934
-2.04858
5.1978
-1.63433
5.07268
-1.1428
5.03958
-0.607044
4.99688
-0.0640292
4.97901
0.471142
4.96881
1.01085
4.97367
1.55321
5.00026
2.06467
5.06505
2.45225
5.17417
2.81084
5.24054
1.57121
7.18712
-3.62942
10.785
-4.2499
9.96307
-4.87506
9.99477
-3.06151
11.0714
-1.33984
9.75797
10.7918
1.08842
9.30319
2.16425
8.55218
3.97231
9.17651
4.92713
9.46995
5.07116
10.0778
5.78711
10.2718
2.71423
10.0382
1.11133
6.80042
-0.0461751
6.23064
-0.370202
5.36589
-0.23466
4.86161
0.0519011
4.69256
0.39606
4.62541
0.71348
4.65667
0.918953
4.79461
0.792599
5.19081
-0.513971
6.4789
-2.28298
7.00865
-5.01698
9.92045
-4.27033
10.0396
-3.96307
9.65548
-3.49123
9.52272
-1.84344
9.42355
-0.742119
8.65742
10.0505
2.0199
7.29012
3.20887
7.36856
4.42152
7.96831
5.95641
7.93409
7.04131
8.99003
6.63593
10.6892
4.59834
12.0808
2.07123
9.3293
0.829469
7.48017
0.121833
6.07724
-0.0641999
5.051
-0.0928282
4.72708
-0.047071
4.58695
-0.0247855
4.64189
-0.145831
4.92271
-0.766014
5.81669
-2.27763
7.99337
-4.78559
9.5187
-6.72788
11.8689
-7.20453
10.5201
-6.47775
8.92788
-5.029
8.07384
-3.72611
8.12071
-2.57741
7.50896
7.47356
2.53388
4.7606
4.12307
5.7826
4.63854
7.45637
4.2596
8.31362
4.43814
8.80584
4.13903
10.9856
4.03345
12.1869
2.40379
10.9642
1.28563
8.59796
0.585933
6.77473
0.232842
5.39994
-0.0750596
5.0318
-0.393096
4.90267
-0.712321
4.95927
-1.07359
5.28265
-1.85189
6.59427
-3.07113
9.21103
-4.7716
11.2219
-5.84636
12.9506
-6.34675
11.0258
-5.86401
8.44795
-5.87394
8.08443
-4.93319
7.18103
-2.93625
5.51245
4.53789
3.16474
1.59745
6.25894
2.69015
8.46225
5.25491
8.15213
8.62079
6.36675
10.5913
5.87677
11.4762
5.55486
12.5089
4.90697
11.6115
4.14599
9.35681
3.23018
7.68629
1.95355
6.67191
0.797013
6.18422
-0.337558
6.03399
-1.52025
6.13932
-2.84518
6.6043
-3.96855
7.71405
-4.38932
9.62837
-4.76511
11.5978
-4.40543
12.5949
-4.92237
11.5472
-7.19153
10.7188
-7.81504
8.70698
-5.7882
5.15369
-2.95864
2.68307
1.57947
1.19684
0.400523
2.89973
0.986974
4.94525
3.20658
6.50707
7.05405
5.72392
11.3778
5.44979
11.7535
5.44737
12.5112
4.88562
12.1729
3.81273
10.4308
2.65347
8.84584
1.50535
7.81921
0.384252
7.30441
-0.742912
7.16089
-1.89411
7.29074
-3.13066
7.84059
-4.41533
8.99801
-5.44906
10.6609
-5.89428
12.0423
-5.78438
12.4856
-5.96479
11.7278
-6.69979
11.4551
-4.92845
6.93861
-2.95226
3.17868
-1.20766
0.938435
0.371645
0.582092
-0.183353
0.847764
0.720624
0.995756
3.05773
1.27267
6.77491
2.30243
10.3551
2.96822
11.0898
3.46984
12.0085
3.35223
12.2922
2.65145
11.1357
1.79165
9.70868
0.94517
8.66696
0.106767
8.14382
-0.724771
7.99378
-1.59871
8.16603
-2.52662
8.76907
-3.46314
9.93444
-4.10608
11.3027
-4.10042
12.0357
-3.46645
11.8511
-2.76305
11.0236
-1.63551
10.3288
-1.13506
6.44038
-0.882143
2.92756
-0.593098
0.6497
-0.22236
-0.159085
-0.0249642
-0.304673
0.865971
-0.804944
3.55847
-0.7192
6.68854
0.410698
9.22878
1.36881
10.134
1.95001
11.4258
2.07138
12.174
1.76986
11.4418
1.27861
10.2035
0.722542
9.2249
0.163908
8.70387
-0.399476
8.55873
-0.963117
8.73104
-1.52112
9.32768
-1.97956
10.3927
-2.19138
11.5136
-1.99856
11.8418
-1.33036
11.1823
-0.309557
10.0018
0.814762
9.20482
0.805527
6.45043
0.375257
3.3596
0.212529
0.812998
-0.00938929
-0.636892
0.611467
-1.49251
1.72221
-1.84156
3.90812
-1.81777
6.66652
-0.904983
8.31784
-0.0320302
9.26057
0.491814
10.903
0.791675
11.877
0.865568
11.3713
0.743678
10.3273
0.511292
9.45798
0.22419
8.9917
-0.0653364
8.84927
-0.338898
9.00547
-0.539665
9.5285
-0.600379
10.4527
-0.470246
11.3819
-0.201685
11.572
0.40019
10.5799
1.25497
9.14564
2.15799
8.30304
2.05097
6.55973
1.6232
3.78868
0.645251
1.79062
0.635533
-0.454378
1.06721
-1.61478
2.88491
-2.49556
4.79198
-2.58205
6.75674
-2.06125
7.79754
-1.58134
8.78266
-1.0085
10.331
-0.480968
11.3511
-0.130551
11.0213
0.0126765
10.1835
0.0254343
9.44442
-0.0336037
9.05058
-0.128252
8.94402
-0.190281
9.06738
-0.176722
9.51446
-0.0169266
10.2916
0.337516
11.0258
0.831749
11.0763
1.33663
10.0751
1.87703
8.60449
2.44307
7.7372
2.38284
6.62089
1.45964
4.71338
0.406716
2.84263
1.04322
-0.435278
1.50446
-1.4878
3.94045
-2.2644
5.57229
-2.43116
6.92467
-2.18256
7.54721
-1.89364
8.49329
-1.43853
9.87728
-0.905624
10.8173
-0.467679
10.5811
-0.207339
9.91972
-0.0899548
9.32492
-0.0527211
9.01267
-0.0221084
8.91272
0.0258454
9.01872
0.158452
9.38101
0.431453
10.0173
0.859433
10.596
1.36953
10.5652
1.77748
9.66656
2.08077
8.30059
2.34947
7.47026
2.14454
6.82625
1.36106
5.49768
0.381191
3.82262
1.42492
-0.355698
1.86215
-1.27738
4.86566
-2.09717
6.39475
-2.44228
7.27071
-2.40107
7.50466
-2.16255
8.25683
-1.76681
9.48157
-1.19772
10.246
-0.691888
10.0712
-0.341114
9.56435
-0.132049
9.11317
0.0266504
8.85269
0.15114
8.78713
0.309876
8.85887
0.538216
9.15147
0.921077
9.63281
1.42922
10.0862
1.9593
10.0331
2.29111
9.33493
2.48767
8.10285
2.51428
7.44303
2.15534
7.18541
1.28088
6.37383
0.362494
4.73984
1.78754
-0.441094
2.30509
-1.42131
5.84941
-2.23633
7.21306
-2.56006
7.59508
-2.58011
7.52245
-2.46193
8.13844
-2.15642
9.17554
-1.64963
9.73555
-1.1426
9.55896
-0.736407
9.153
-0.441828
8.81569
-0.226757
8.63618
-0.0208724
8.57987
0.195359
8.64143
0.48704
8.85861
0.873445
9.2452
1.34431
9.61361
1.82292
9.55323
2.1517
9.0048
2.28302
7.97157
2.23307
7.49371
1.96167
7.45654
1.22674
7.10913
0.341377
5.62532
2.13007
-0.344119
2.6519
-1.21087
6.71912
-1.96825
7.97258
-2.19715
7.82231
-2.37543
7.69767
-2.28101
8.04384
-1.98528
8.87838
-1.48563
9.23173
-1.0037
9.07214
-0.616836
8.76148
-0.317835
8.5141
-0.0532228
8.37019
0.18082
8.34455
0.444458
8.37664
0.753904
8.5478
1.17006
8.82743
1.65188
9.13043
2.10313
9.10025
2.34661
8.76134
2.41011
7.90605
2.21685
7.6851
1.9294
7.74443
1.15505
7.8827
0.342646
6.43613
2.47017
-0.285602
2.94037
-1.17605
7.61106
-1.91736
8.71351
-2.0964
8.00128
-2.24117
7.84114
-2.17337
7.97665
-1.91792
8.62138
-1.48915
8.799
-1.03981
8.61809
-0.641718
8.3596
-0.30094
8.17121
-0.018088
8.08598
0.266373
8.05876
0.553941
8.08785
0.900629
8.19984
1.29626
8.43052
1.73236
8.69241
2.14857
8.68238
2.39154
8.51656
2.43793
7.85936
2.27551
7.84648
2.09188
7.92845
1.34978
8.62408
0.419192
7.36991
2.89297
-0.527852
3.47092
-1.43043
8.51365
-2.06946
9.35105
-2.20738
8.13913
-2.41317
8.04488
-2.45223
8.01525
-2.24371
8.41045
-1.78437
8.33617
-1.32949
8.15955
-0.937071
7.96417
-0.61394
7.84633
-0.295973
7.76682
-0.00266344
7.76417
0.311728
7.77252
0.646088
7.8643
1.04957
8.02558
1.47977
8.26108
1.87237
8.28856
2.07551
8.31347
2.05332
7.88003
1.89808
7.99821
1.71191
8.11309
1.12274
9.20938
0.383178
8.11039
3.29066
-0.429116
3.90209
-1.27185
9.35588
-1.93584
10.0137
-1.99731
8.2003
-2.03179
8.0789
-2.03128
8.01488
-1.82222
8.19936
-1.46641
7.97809
-1.0877
7.77799
-0.725582
7.5999
-0.377809
7.49734
-0.0758402
7.46367
0.239413
7.44778
0.548501
7.46239
0.894094
7.51755
1.25837
7.66011
1.63625
7.88132
1.99359
7.92948
2.18031
8.12521
2.14824
7.91147
2.11579
8.02932
1.98365
8.24349
1.39286
9.79733
0.508422
9.00593
3.78132
-0.389956
4.29442
-0.788888
9.75443
-1.52829
10.7503
-1.73486
8.4064
-1.82295
8.16682
-1.78685
7.97914
-1.65534
8.06573
-1.32389
7.6452
-0.979915
7.4317
-0.656256
7.27472
-0.37033
7.21032
-0.0648017
7.15703
0.221969
7.15994
0.523909
7.15959
0.823511
7.21704
1.17642
7.30609
1.52191
7.5349
1.80267
7.64744
1.91437
8.01237
1.96296
7.86154
1.89687
8.09232
1.81466
8.32394
1.09114
10.5204
0.452587
9.63918
4.22439
-0.65797
4.95421
-1.09804
10.1936
-1.78763
11.4379
-1.96274
8.58265
-1.95213
8.15746
-1.88617
7.9137
-1.70234
7.87984
-1.41943
7.36105
-1.12503
7.13592
-0.82925
6.9779
-0.513725
6.89374
-0.233209
6.87543
0.066052
6.85963
0.353991
6.87071
0.662369
6.9077
0.951964
7.01554
1.24141
7.24375
1.52514
7.36226
1.68782
7.84817
1.74406
7.80482
1.747
8.08757
1.62853
8.43904
0.746177
11.3945
0.41225
9.97253
4.65915
-0.465365
5.42044
-0.740417
10.4663
-1.33292
12.0315
-1.58207
8.83296
-1.65475
8.23132
-1.60396
7.86244
-1.45447
7.72806
-1.19059
7.09705
-0.897289
6.84154
-0.60156
6.68149
-0.346769
6.63793
-0.0596787
6.58721
0.206893
6.59202
0.487493
6.58927
0.752212
6.64213
1.06027
6.70626
1.34513
6.95797
1.58622
7.1193
1.73509
7.6979
1.7797
7.75932
1.72116
8.14391
1.42083
8.73779
0.971428
11.8417
0.618786
10.3131
5.28851
-0.328655
5.75062
-0.436496
10.5745
-0.956356
12.5529
-1.521
9.39993
-1.56354
8.27432
-1.47519
7.77367
-1.25874
7.50971
-1.05075
6.88884
-0.824809
6.6151
-0.593557
6.44967
-0.319446
6.36292
-0.0824172
6.34914
0.177877
6.33071
0.420819
6.34537
0.680876
6.3813
0.913545
6.4726
1.14902
6.72067
1.37274
6.89394
1.56569
7.50295
1.64625
7.67687
1.6801
8.10735
1.20135
9.21377
0.689369
12.3558
0.366572
10.6206
5.65729
-0.43289
6.18715
-0.656457
10.8004
-0.916742
12.8164
-1.5735
10.0572
-1.55702
8.25801
-1.507
7.72404
-1.3688
7.3705
-1.12665
6.64665
-0.901399
6.38956
-0.648224
6.19585
-0.438084
6.15179
-0.186912
6.09691
0.0394014
6.10337
0.282802
6.10109
0.512463
6.15052
0.770179
6.21346
0.982064
6.50756
1.19667
6.67765
1.33112
7.36661
1.36952
7.6376
1.32433
8.14994
0.670423
9.86238
0.376411
12.6614
0.239542
10.7842
5.88264
-0.234726
6.42564
-0.309222
10.8766
-0.456119
12.9661
-1.23344
10.8336
-1.37247
8.39648
-1.3274
7.67827
-1.11466
7.15628
-0.897468
6.42939
-0.703619
6.19562
-0.514117
6.00588
-0.27031
5.90703
-0.0632608
5.88888
0.172888
5.86627
0.38839
5.88457
0.61381
5.92433
0.806158
6.01991
1.02226
6.28948
1.25861
6.43951
1.43869
7.18496
1.47697
7.59814
1.38092
8.24524
0.635753
10.6082
0.578142
12.7232
0.395498
10.956
6.27172
-0.0329657
6.46221
-0.0472598
10.8949
-0.0592486
12.9808
-0.747764
11.5211
-1.19176
8.84049
-1.11715
7.60295
-1.02231
7.05978
-0.839172
6.24513
-0.650516
6.00649
-0.437847
5.79239
-0.267007
5.73521
-0.0566124
5.67755
0.132351
5.67632
0.34027
5.67576
0.526242
5.73713
0.746572
5.79819
0.920521
6.1141
1.09947
6.25873
1.24311
7.03892
1.33464
7.50537
0.926481
8.6489
0.262632
11.2758
0.221204
12.7628
0.178463
10.9731
6.43027
-0.220812
6.68414
-0.380977
11.0618
-0.212362
12.8192
-0.696989
12.0075
-1.30565
9.44611
-1.21155
7.50781
-1.04913
6.89681
-0.863323
6.05962
-0.685633
5.82859
-0.533211
5.63911
-0.334188
5.53535
-0.161737
5.50433
0.0353005
5.47847
0.211114
5.49905
0.401453
5.54622
0.562349
5.63662
0.760491
5.91509
0.933124
6.0852
1.03656
6.93548
1.10909
7.43181
0.426842
9.33249
-0.137694
11.8448
0.00672268
12.6229
0.0636188
10.8961
6.49196
-0.0341934
6.716
-0.0755031
11.1097
0.139357
12.6113
-0.122109
12.2692
-0.850361
10.173
-0.943964
7.60045
-0.852106
6.80374
-0.723997
5.93004
-0.572708
5.67679
-0.376068
5.44171
-0.223227
5.38176
-0.0404152
5.32091
0.126924
5.31045
0.306958
5.31836
0.471674
5.38067
0.673675
5.43348
0.812493
5.77486
0.955761
5.93986
1.09121
6.79848
1.00311
7.51873
0.330507
10.0085
0.0528012
12.1235
0.253544
12.4207
0.195818
10.9284
6.73769
0.0175723
6.69664
0.0640692
11.0648
0.2824
12.3987
0.283602
12.2682
-0.463646
10.9219
-0.893276
8.02866
-0.719253
6.62752
-0.618154
5.82837
-0.485207
5.54314
-0.368214
5.32402
-0.196852
5.20994
-0.0484778
5.17216
0.115542
5.14606
0.266336
5.1671
0.424319
5.22248
0.556031
5.30182
0.723538
5.60749
0.824135
5.83902
1.02436
6.59707
0.71926
7.82244
-0.0460546
10.7727
-0.15899
12.2385
0.0532933
12.2134
0.0348242
10.9966
6.82756
-0.128205
6.82424
-0.109973
11.0477
0.0510961
12.2406
0.204117
12.1158
-0.258352
11.3818
-0.76454
8.53486
-0.796327
6.65937
-0.668268
5.70042
-0.576408
5.45046
-0.405985
5.15323
-0.277746
5.08126
-0.120423
5.01463
0.0229472
5.00251
0.171334
5.01837
0.311938
5.08145
0.471203
5.14198
0.552524
5.52494
0.629422
5.76162
0.678275
6.54777
0.0868844
8.41313
-0.523714
11.389
-0.300972
12.0209
-0.213749
12.1474
-0.150267
10.9715
6.69047
-0.0414156
6.86767
0.0219389
10.9837
0.184746
12.0757
0.548614
11.7495
0.181187
11.7515
-0.440435
9.15736
-0.628931
6.84499
-0.499574
5.56865
-0.406289
5.35574
-0.316722
5.06309
-0.170004
4.93436
-0.0399584
4.88456
0.105168
4.85741
0.242226
4.8812
0.376714
4.94685
0.483877
5.03491
0.616457
5.3917
0.736561
5.63989
0.605482
6.67626
0.0148931
9.00335
-0.328474
11.7333
-0.0581063
11.7543
0.0556994
12.0369
0.0853375
10.9594
6.76401
0.0926291
6.77787
0.25282
10.8239
0.305864
12.0211
0.563706
11.4918
0.750248
11.5684
0.0593572
9.8597
-0.431065
7.32585
-0.455791
5.5922
-0.382596
5.2819
-0.258975
4.93981
-0.159044
4.83438
-0.0307819
4.75644
0.0907435
4.73603
0.218391
4.75341
0.331484
4.83376
0.44689
4.91966
0.53322
5.30493
0.58595
5.58684
0.268571
6.99239
-0.556835
9.82853
-0.453479
11.632
-0.184546
11.4972
-0.139153
12.0061
-0.0182065
10.8233
6.72237
-0.124385
6.90451
-0.0110107
10.7119
0.0910779
11.9166
0.326295
11.2507
0.681054
11.212
0.133122
10.4062
-0.349825
7.80857
-0.460014
5.70265
-0.372072
5.19348
-0.309856
4.87719
-0.20355
4.72786
-0.097814
4.65085
0.0228398
4.61557
0.132585
4.64377
0.233965
4.73206
0.306941
4.84661
0.387926
5.22313
0.289746
5.68487
-0.194671
7.47801
-0.86796
10.5016
-0.562321
11.328
-0.359227
11.2953
-0.28307
11.9188
-0.0362865
10.5463
6.65856
0.0507271
6.85529
0.237304
10.5267
0.281667
11.8705
0.470346
11.0626
0.868755
10.8141
0.796668
10.4794
0.0337433
8.5674
-0.306952
6.04385
-0.300167
5.18549
-0.207492
4.7856
-0.128329
4.64916
-0.0279755
4.55073
0.0753099
4.51257
0.178035
4.54123
0.267329
4.64323
0.355052
4.75937
0.378522
5.199
0.0943403
5.96584
-0.594768
8.16545
-0.789482
10.6956
-0.381138
10.9196
-0.170448
11.077
-0.0935031
11.8224
0.0673976
10.3797
6.70477
0.0658122
6.79076
0.301973
10.2925
0.407372
11.764
0.568781
10.8987
0.870594
10.5104
1.01174
10.3369
0.441625
9.13649
-0.0601737
6.54723
-0.201908
5.32797
-0.160699
4.74495
-0.0908308
4.57926
-0.0174899
4.47763
0.0725386
4.42286
0.151274
4.46273
0.233269
4.5609
0.30011
4.69281
0.208783
5.29024
-0.192217
6.36798
-0.879625
8.85394
-0.715609
10.5303
-0.414306
10.6076
-0.236528
10.883
-0.134578
11.7235
0.0360908
10.2211
6.72986
-0.0146042
6.80491
0.158022
10.1219
0.280634
11.6409
0.419385
10.7589
0.644965
10.285
1.03338
9.94634
0.792852
9.38032
0.0745129
7.26929
-0.200273
5.60317
-0.18821
4.73344
-0.12653
4.51773
-0.0556786
4.407
0.00861082
4.35881
0.0737066
4.39792
0.134956
4.49961
0.162138
4.6659
-0.116553
5.56836
-0.813731
7.06642
-1.2357
9.27433
-0.779504
10.0716
-0.557339
10.3767
-0.408964
10.7297
-0.289561
11.6218
-0.075874
10.0239
6.65283
-0.0135281
6.81654
0.255496
9.85501
0.443334
11.4535
0.534649
10.6709
0.739257
10.0791
1.01653
9.66868
1.0179
9.37589
0.544191
7.74757
0.0307036
6.11876
-0.0924011
4.85807
-0.0592412
4.48516
-0.0123546
4.36034
0.0361411
4.31056
0.090326
4.34401
0.133854
4.45646
0.0489895
4.75117
-0.323054
5.93953
-0.903375
7.64727
-1.03283
9.4013
-0.698461
9.73359
-0.4527
10.1315
-0.347723
10.6319
-0.16306
11.4705
0.0786308
9.79472
6.73876
0.0304215
6.78743
0.295839
9.58924
0.56241
11.1892
0.652461
10.5786
0.792506
9.93879
0.952471
9.50493
1.32981
9.00135
0.887133
8.19576
0.242859
6.77006
0.0157555
5.08667
-0.0111139
4.51188
0.0127475
4.33674
0.0315074
4.29206
0.0631887
4.3126
0.066117
4.45402
-0.123814
4.94198
-0.851363
6.66613
-1.26955
8.06542
-0.946085
9.07905
-0.718787
9.50406
-0.538042
9.9518
-0.449091
10.5477
-0.184186
11.208
0.0653357
9.55049
6.81525
0.0393751
-0.337344
0.0800193
-0.433305
0.109002
-0.524636
0.146209
-0.661626
0.188255
-0.8323
0.203412
-0.882826
0.19486
-0.816638
0.166878
-0.680609
0.135193
-0.529166
0.10144
-0.355128
0.0801819
-0.188514
0.0814332
-0.0767106
0.103699
-0.097759
0.160501
-0.203526
0.219499
-0.40038
0.257991
-0.55842
0.281272
-0.684442
0.296593
-0.78465
0.289364
-0.904737
0.238112
-1.12758
0.144582
-1.94388
-0.0580535
-2.73883
-0.146715
-2.8059
-0.170132
-2.9646
-0.172861
-3.08726
-0.204462
-3.25519
-0.180289
-3.40957
-0.11573
-3.4948
-0.0532994
-3.48718
-3.49981
0.0636091
-0.373309
0.108072
-0.464446
0.138083
-0.549648
0.186364
-0.730632
0.213524
-0.87515
0.2006
-0.862369
0.162633
-0.762294
0.124501
-0.605488
0.0897635
-0.459962
0.0603775
-0.301194
0.0475859
-0.163525
0.0562494
-0.0734249
0.0855019
-0.107227
0.13999
-0.223222
0.197843
-0.409505
0.240768
-0.556709
0.268915
-0.677646
0.272553
-0.798525
0.240442
-0.983064
0.150309
-1.44696
-0.00349413
-2.5976
-0.130463
-2.78399
-0.166859
-2.76756
-0.169956
-2.92895
-0.176239
-3.02468
-0.199464
-3.22704
-0.166601
-3.36614
-0.103946
-3.43111
-0.0391343
-3.41463
-3.45046
0.0502503
-0.399285
0.0810406
-0.483396
0.113374
-0.586387
0.144407
-0.780008
0.15418
-0.892373
0.139373
-0.834213
0.102309
-0.700599
0.0703685
-0.538458
0.0432139
-0.404111
0.0235027
-0.264312
0.0182334
-0.148954
0.0350494
-0.0820196
0.070011
-0.127246
0.123043
-0.249349
0.176644
-0.420712
0.217186
-0.56224
0.236375
-0.69572
0.222421
-0.87009
0.149333
-1.23947
0.0115773
-2.32548
-0.126599
-2.66624
-0.187285
-2.73588
-0.208107
-2.80297
-0.204143
-2.87467
-0.218613
-2.99977
-0.235073
-3.19722
-0.181838
-3.3019
-0.113275
-3.36853
-0.0446356
-3.34671
-3.40179
0.0310989
-0.411737
0.0559356
-0.500651
0.0824984
-0.626519
0.100116
-0.81596
0.101476
-0.893864
0.0767669
-0.80354
0.0450784
-0.638855
0.0186993
-0.492888
-0.00115839
-0.366711
-0.0120303
-0.245742
-0.00762963
-0.152462
0.0154507
-0.104197
0.0526433
-0.159264
0.103536
-0.283667
0.152404
-0.444598
0.186504
-0.590662
0.190654
-0.764984
0.138266
-1.0897
0.0320364
-2.05299
-0.131682
-2.48782
-0.213341
-2.61121
-0.228851
-2.6744
-0.232908
-2.73978
-0.22827
-2.75866
-0.250838
-2.94126
-0.254301
-3.16077
-0.189936
-3.24078
-0.120184
-3.31015
-0.0446007
-3.29954
-3.33964
0.0273286
-0.425463
0.0474716
-0.520261
0.0674887
-0.664736
0.0792964
-0.839857
0.0628585
-0.878594
0.0331018
-0.768189
0.00657138
-0.598903
-0.0190744
-0.466465
-0.0346667
-0.350701
-0.0388223
-0.246043
-0.0287346
-0.173446
0.000493734
-0.152243
0.0399109
-0.212489
0.0889873
-0.346306
0.132859
-0.504126
0.153304
-0.689896
0.128086
-1.01718
0.0576121
-1.90867
-0.0879833
-2.20469
-0.214463
-2.44738
-0.247281
-2.54562
-0.242692
-2.61044
-0.236465
-2.67334
-0.238696
-2.71946
-0.273188
-2.88164
-0.259316
-3.07667
-0.194603
-3.16514
-0.122354
-3.23829
-0.0474797
-3.23527
-3.2545
0.0203539
-0.439112
0.0366946
-0.541107
0.053962
-0.695185
0.0497152
-0.848091
0.0240652
-0.862656
-0.0051513
-0.742439
-0.0333914
-0.574497
-0.0535672
-0.454784
-0.0632493
-0.353877
-0.0602287
-0.272908
-0.0431526
-0.224187
-0.0106215
-0.234175
0.032414
-0.306248
0.0777804
-0.465528
0.112415
-0.656905
0.100445
-0.97532
0.0608334
-1.78962
-0.0555523
-2.15728
-0.158797
-2.25147
-0.250718
-2.39166
-0.264518
-2.47728
-0.25258
-2.53839
-0.23874
-2.59759
-0.247647
-2.68365
-0.283852
-2.83123
-0.257813
-3.00613
-0.191382
-3.08162
-0.119704
-3.15349
-0.0433415
-3.15922
-3.15428
0.0157841
-0.452094
0.0232182
-0.558314
0.0291729
-0.716602
0.0134042
-0.854008
-0.0156538
-0.857001
-0.0471634
-0.730065
-0.0689424
-0.574743
-0.0846385
-0.468269
-0.0901187
-0.396914
-0.0791634
-0.344131
-0.0553861
-0.326625
-0.0181167
-0.377324
0.0254915
-0.50001
0.058205
-0.722686
0.0584654
-1.20336
0.0360571
-1.68227
-0.0427114
-2.01009
-0.125471
-2.18828
-0.20663
-2.29186
-0.274662
-2.34812
-0.277929
-2.41209
-0.26073
-2.4626
-0.243901
-2.51805
-0.255672
-2.59845
-0.287564
-2.77054
-0.256745
-2.92545
-0.188121
-3.00116
-0.114735
-3.07008
-0.0439224
-3.07934
-3.06795
0.00723768
-0.461646
0.00599087
-0.572804
-0.00276589
-0.732016
-0.0242105
-0.867783
-0.0522482
-0.871328
-0.0792538
-0.756169
-0.101059
-0.631623
-0.113218
-0.56006
-0.112078
-0.515616
-0.0950668
-0.50277
-0.0651158
-0.542586
-0.0293903
-0.657134
0.00390063
-0.949288
0.0098858
-1.32876
-0.00886244
-1.60819
-0.051543
-1.91111
-0.111444
-2.04857
-0.177374
-2.1453
-0.242878
-2.2296
-0.289978
-2.29549
-0.289139
-2.34308
-0.267281
-2.38659
-0.248035
-2.43534
-0.261144
-2.51165
-0.291503
-2.70433
-0.258838
-2.84066
-0.187635
-2.9224
-0.113802
-2.98626
-0.0494583
-2.99371
-2.98207
-0.00207486
-0.468898
-0.0139049
-0.585867
-0.0330716
-0.753435
-0.0608235
-0.894386
-0.0893661
-0.920566
-0.118687
-0.879609
-0.136886
-0.821052
-0.144398
-0.777561
-0.143492
-0.772381
-0.126656
-0.849383
-0.101119
-0.987943
-0.0769028
-1.14367
-0.0548146
-1.3339
-0.0513324
-1.61744
-0.0730911
-1.80339
-0.1149
-1.9569
-0.163566
-2.03294
-0.216871
-2.08812
-0.270683
-2.16775
-0.303117
-2.23961
-0.300587
-2.26925
-0.271441
-2.30622
-0.251797
-2.25877
-0.264905
-2.45378
-0.297751
-2.62479
-0.262695
-2.75301
-0.186873
-2.82647
-0.11502
-2.87936
-0.0540795
-2.89614
-2.89169
-0.0131731
-0.476103
-0.0368992
-0.604934
-0.0679014
-0.782814
-0.108822
-0.950605
-0.149204
-1.01286
-0.171633
-1.10613
-0.188253
-1.11369
-0.205755
-1.16433
-0.209464
-1.17712
-0.190523
-1.24631
-0.15744
-1.36567
-0.128704
-1.47319
-0.11223
-1.6032
-0.113341
-1.7256
-0.127724
-1.85377
-0.161316
-1.93562
-0.200238
-1.9905
-0.2453
-2.02751
-0.290707
-2.12987
-0.330892
-2.16611
-0.311202
-2.18382
-0.266512
-2.20128
-0.258453
-2.19934
-0.269049
-2.36785
-0.29936
-2.54044
-0.255766
-2.64055
-0.186381
-2.70956
-0.119568
-2.76842
-0.0580345
-2.80463
-2.79973
-0.0244297
-0.488788
-0.063683
-0.631807
-0.111907
-0.833504
-0.172283
-1.027
-0.236011
-1.13226
-0.25036
-1.20925
-0.261883
-1.26907
-0.276432
-1.34464
-0.277774
-1.39902
-0.25638
-1.45944
-0.221029
-1.5319
-0.188878
-1.61084
-0.170541
-1.69628
-0.167027
-1.77895
-0.171189
-1.84426
-0.193069
-1.88566
-0.225066
-1.92433
-0.265893
-1.98988
-0.32274
-2.05388
-0.325322
-2.07499
-0.294475
-2.07649
-0.266555
-2.08726
-0.267716
-2.13317
-0.275357
-2.29562
-0.288376
-2.44542
-0.247003
-2.53428
-0.189598
-2.60061
-0.124284
-2.66682
-0.0610141
-2.6993
-2.68475
-0.0395512
-0.509731
-0.0994548
-0.670001
-0.169706
-0.894134
-0.247058
-1.07674
-0.299791
-1.17808
-0.338986
-1.24165
-0.357429
-1.315
-0.356251
-1.38888
-0.342295
-1.44242
-0.321506
-1.50768
-0.288619
-1.5812
-0.255012
-1.67632
-0.229877
-1.72339
-0.212858
-1.76248
-0.208037
-1.79204
-0.215831
-1.81284
-0.242818
-1.83894
-0.281472
-1.90588
-0.325433
-1.96025
-0.309401
-1.95437
-0.28227
-1.95389
-0.271845
-1.96011
-0.278566
-2.08177
-0.282176
-2.22606
-0.281443
-2.35232
-0.238049
-2.43349
-0.185529
-2.49293
-0.126057
-2.55767
-0.0658317
-2.58002
-2.56444
-0.0599196
-0.540768
-0.145905
-0.715785
-0.236225
-0.931715
-0.319087
-1.06957
-0.372192
-1.15432
-0.413495
-1.23308
-0.438408
-1.30132
-0.438213
-1.37273
-0.422617
-1.44057
-0.398232
-1.51998
-0.358665
-1.58809
-0.313155
-1.63516
-0.274433
-1.66564
-0.245563
-1.68598
-0.232361
-1.70197
-0.235861
-1.71588
-0.258306
-1.74252
-0.315101
-1.80362
-0.312865
-1.83819
-0.295729
-1.82281
-0.277126
-1.78299
-0.282358
-1.8829
-0.290251
-2.03284
-0.291659
-2.16184
-0.269547
-2.25863
-0.227729
-2.33286
-0.182704
-2.38326
-0.133202
-2.44035
-0.0726557
-2.46406
-2.4454
-0.0861412
-0.581159
-0.197708
-0.749382
-0.299221
-0.920606
-0.384556
-1.02418
-0.440535
-1.10423
-0.47998
-1.16992
-0.500168
-1.22256
-0.499844
-1.29601
-0.481053
-1.36116
-0.448017
-1.4314
-0.401332
-1.49115
-0.351159
-1.53001
-0.305713
-1.55955
-0.271026
-1.57999
-0.253339
-1.59228
-0.255441
-1.60986
-0.275234
-1.63862
-0.315493
-1.6867
-0.314455
-1.69611
-0.287747
-1.69716
-0.285482
-1.70114
-0.297118
-1.83792
-0.304538
-1.98408
-0.292812
-2.08585
-0.261195
-2.16189
-0.223158
-2.22974
-0.185309
-2.27777
-0.13553
-2.32859
-0.0749292
-2.35279
-2.32833
-0.117569
-0.615378
-0.245711
-0.751003
-0.35802
-0.87717
-0.445655
-0.961308
-0.501777
-1.02546
-0.536226
-1.06163