/*--------------------------------*- C++ -*----------------------------------*\
| =========                 |                                                 |
| \\      /  F ield         | OpenFOAM: The Open Source CFD Toolbox           |
|  \\    /   O peration     | Version:  2112                                  |
|   \\  /    A nd           | Website:  www.openfoam.com                      |
|    \\/     M anipulation  |                                                 |
\*---------------------------------------------------------------------------*/
FoamFile
{
    version     2.0;
    format      ascii;
    arch        "LSB;label=32;scalar=64";
    class       volScalarField;
    location    "0.00455";
    object      alphat;
}
// * * * * * * * * * * * * * * * * * * * * * * * * * * * * * * * * * * * * * //

dimensions      [1 -1 -1 0 0 0 0];

internalField   nonuniform List<scalar> 
13875
(
0.119858
0.0816046
0.0784607
0.0782791
0.0782739
0.0783578
0.0783579
0.0783877
0.0783117
0.0782613
0.0782803
0.0783186
0.0783795
0.0784141
0.078399
0.0782876
0.078227
0.0782896
0.0783352
0.0783728
0.078285
0.078258
0.0784848
0.0814332
0.120902
0.103941
0.0576828
0.0570963
0.0571732
0.0566815
0.0565619
0.0565433
0.0566607
0.057007
0.0570859
0.0571461
0.0571146
0.0566545
0.0566179
0.0566723
0.057074
0.057056
0.0570494
0.0566763
0.0565834
0.0566317
0.0571365
0.0570718
0.0573663
0.104669
0.110623
0.0553289
0.0558866
0.0547027
0.0544581
0.0542945
0.0542059
0.054231
0.0541652
0.0542527
0.054365
0.054381
0.0542775
0.0543042
0.0542559
0.0543403
0.0540331
0.0542762
0.0543451
0.0543875
0.0544462
0.0545635
0.0557703
0.0550978
0.111253
0.115891
0.0546488
0.0553898
0.0542923
0.0539005
0.053754
0.0536685
0.0536899
0.0535602
0.0534856
0.0535162
0.0535771
0.0537355
0.0537689
0.0537125
0.053547
0.0533682
0.053582
0.0538066
0.0538539
0.0539131
0.054165
0.0551889
0.0543007
0.115752
0.12104
0.0546368
0.055129
0.0537195
0.0535614
0.0533503
0.0532192
0.0532193
0.0530853
0.0529925
0.0530219
0.0530913
0.053259
0.0532952
0.0532371
0.0530627
0.0528877
0.0530719
0.0533315
0.0534132
0.0535335
0.0535725
0.0550061
0.054319
0.12129
0.124416
0.0547464
0.0551896
0.0535745
0.0531641
0.0529452
0.0528154
0.0528066
0.0526917
0.0525596
0.052573
0.052641
0.0528456
0.0528878
0.0528155
0.052613
0.0524777
0.0526662
0.0529373
0.0530351
0.0531644
0.0534681
0.0548807
0.0543924
0.124029
0.128752
0.0564728
0.0557826
0.0534177
0.0531575
0.052794
0.052563
0.0524983
0.052357
0.052194
0.0522086
0.0522903
0.0525211
0.0525653
0.0524863
0.0522527
0.0521515
0.0523089
0.0526419
0.0528633
0.0531407
0.0533361
0.055631
0.0563523
0.128962
0.135706
0.0611905
0.0578345
0.0543817
0.0533064
0.0527566
0.0524408
0.0523318
0.0521739
0.0519744
0.0519345
0.052018
0.0523158
0.0523758
0.0522743
0.0519961
0.0519662
0.0521383
0.0525271
0.0528303
0.0533073
0.054267
0.0575265
0.0610331
0.135641
0.151338
0.0692435
0.0615548
0.0559206
0.0543933
0.0533319
0.0527212
0.0524235
0.0521898
0.0519609
0.0518624
0.0519672
0.0523352
0.05242
0.052301
0.0519669
0.0519994
0.0521683
0.0526623
0.0533296
0.0543163
0.0557084
0.0610125
0.0683733
0.154281
0.239186
0.0873768
0.0664863
0.0590155
0.0556271
0.0541911
0.0534001
0.0529404
0.0526135
0.0523526
0.0522137
0.0523118
0.0527674
0.0528876
0.0527523
0.0524012
0.0524637
0.0526532
0.053225
0.0541417
0.0556774
0.0587928
0.0661296
0.0868124
0.241293
0.365082
0.118433
0.0762069
0.0627337
0.0585445
0.0561091
0.0549164
0.0542216
0.0537815
0.0534848
0.0533272
0.0533941
0.0539241
0.0540931
0.0539803
0.0536662
0.0537175
0.0539188
0.0545521
0.0558179
0.058271
0.0624806
0.0749529
0.112761
0.365073
0.657561
0.194071
0.104581
0.076093
0.0645091
0.0600772
0.0582513
0.0571994
0.0565991
0.0562483
0.0560778
0.0560953
0.0566424
0.0568841
0.0568379
0.0566444
0.0566982
0.0569734
0.0578217
0.0594734
0.0642392
0.0751885
0.10268
0.185297
0.644598
0.582335
0.424814
0.184578
0.0964986
0.0817407
0.071018
0.0664073
0.064526
0.0635291
0.063049
0.0628491
0.0628304
0.0632843
0.0636041
0.0636965
0.0637279
0.0639665
0.0646023
0.0662123
0.0706459
0.080569
0.0927648
0.174771
0.422685
0.58053
0.498394
0.400939
0.359856
0.369104
0.138178
0.0971076
0.0876484
0.0848948
0.0830181
0.0821511
0.0818628
0.0818793
0.0821586
0.0825514
0.0828722
0.083271
0.0841403
0.0860535
0.0890922
0.0993454
0.156355
0.36989
0.352034
0.400816
0.50484
0.409009
0.352875
0.345976
0.379226
0.315353
0.216668
0.186036
0.145474
0.134338
0.13181
0.130652
0.130629
0.13069
0.131096
0.131742
0.13315
0.135982
0.146264
0.190163
0.226764
0.31248
0.375121
0.339508
0.364826
0.428064
0.350331
0.320645
0.31825
0.376405
0.452294
0.505259
0.472142
0.441864
0.467095
0.478757
0.478222
0.474414
0.474452
0.477448
0.47894
0.479614
0.465814
0.438146
0.47006
0.515364
0.454483
0.38161
0.323363
0.326928
0.362499
0.269224
0.273936
0.324017
0.406587
0.474653
0.524458
0.524433
0.491806
0.457607
0.452403
0.452391
0.451549
0.452427
0.454186
0.454962
0.454917
0.462
0.488451
0.508476
0.521327
0.478808
0.411934
0.322533
0.279966
0.284246
0.199608
0.251507
0.331744
0.381161
0.421017
0.468174
0.481872
0.471957
0.441711
0.422516
0.416802
0.415556
0.417373
0.41982
0.423244
0.430484
0.447921
0.467967
0.464927
0.464126
0.424613
0.397991
0.334976
0.237118
0.182981
0.0931577
0.179987
0.319527
0.348803
0.365565
0.390712
0.399721
0.406186
0.397901
0.378666
0.366017
0.360854
0.361314
0.36353
0.368394
0.379165
0.39683
0.399142
0.387075
0.386812
0.364051
0.351298
0.323325
0.182381
0.0925904
0.0392303
0.123607
0.243367
0.283974
0.295938
0.321076
0.343461
0.357551
0.357553
0.339756
0.321946
0.311626
0.310238
0.313365
0.322307
0.33683
0.35199
0.349767
0.33644
0.320956
0.299905
0.29086
0.246034
0.122003
0.0380437
0.0405138
0.0978442
0.168258
0.210485
0.233788
0.263859
0.291153
0.311602
0.318255
0.304419
0.285581
0.274288
0.272077
0.276748
0.286984
0.302369
0.312711
0.304716
0.287012
0.263292
0.235423
0.212172
0.162937
0.0915772
0.0369984
0.0900713
0.117456
0.127784
0.165166
0.18769
0.222132
0.248941
0.270505
0.280286
0.269558
0.252534
0.240685
0.238355
0.243117
0.254262
0.268161
0.275193
0.26425
0.24495
0.2209
0.188645
0.165561
0.123917
0.112726
0.0859789
0.138455
0.132666
0.118435
0.133239
0.154768
0.189304
0.21348
0.235439
0.246409
0.237735
0.22158
0.210819
0.207938
0.212597
0.222549
0.235948
0.241334
0.229028
0.209468
0.186658
0.155288
0.133163
0.116847
0.128937
0.135633
0.16436
0.142108
0.115505
0.117449
0.134843
0.161017
0.1831
0.204701
0.215275
0.206926
0.192918
0.18301
0.180942
0.1847
0.194086
0.20557
0.210276
0.19813
0.178185
0.159065
0.135395
0.117953
0.114765
0.142854
0.159609
0.181704
0.157199
0.113834
0.109609
0.12082
0.139039
0.158659
0.178048
0.187538
0.180522
0.167611
0.159694
0.15744
0.161246
0.168887
0.17979
0.184104
0.172774
0.154573
0.136989
0.120219
0.109608
0.113359
0.158794
0.175777
0.198272
0.17561
0.113209
0.106418
0.110628
0.123013
0.139318
0.155297
0.163093
0.156967
0.146469
0.138814
0.137264
0.140023
0.147226
0.155837
0.159252
0.150087
0.135032
0.1211
0.110164
0.106749
0.112571
0.16989
0.200038
0.223676
0.185456
0.114266
0.105005
0.103483
0.110943
0.123766
0.136106
0.142032
0.13696
0.127535
0.121718
0.120031
0.122852
0.128301
0.136334
0.139367
0.131891
0.120078
0.108352
0.101837
0.104659
0.113372
0.182844
0.222827
0.250225
0.194462
0.115556
0.102891
0.0986556
0.101845
0.110457
0.119375
0.123652
0.119151
0.111947
0.106506
0.105491
0.107426
0.112772
0.1189
0.121661
0.116226
0.107304
0.0999413
0.0971053
0.102496
0.115114
0.19325
0.254895
0.282956
0.205608
0.11836
0.10081
0.0950946
0.0951346
0.100326
0.106478
0.109172
0.105248
0.0983597
0.0943695
0.0930573
0.0950469
0.098772
0.104433
0.106966
0.103324
0.0973266
0.0925007
0.0930423
0.0995746
0.116707
0.201965
0.283723
0.319353
0.218086
0.119842
0.0982664
0.0913904
0.0902163
0.0916107
0.0947757
0.0958827
0.0920437
0.0871355
0.0832962
0.0825666
0.0838932
0.0877321
0.0919433
0.0944561
0.092172
0.0885826
0.0878281
0.0892717
0.0974089
0.120481
0.218573
0.307258
0.334322
0.229008
0.12464
0.0960698
0.0877259
0.0848758
0.0844085
0.0856536
0.085464
0.0821993
0.0772576
0.0745642
0.073561
0.0751253
0.0776998
0.0819067
0.0844466
0.083928
0.0823539
0.0827746
0.0857864
0.0951957
0.123675
0.233752
0.332378
0.342243
0.235823
0.12912
0.0956126
0.0846901
0.0808991
0.0784577
0.0780248
0.0767287
0.0729785
0.0694011
0.0665281
0.0659739
0.0669973
0.0697458
0.0727752
0.0754514
0.0759219
0.076068
0.0790394
0.0827002
0.0945665
0.129274
0.241168
0.345135
0.353184
0.23678
0.136719
0.0964638
0.0814995
0.076067
0.0731363
0.0715065
0.0694987
0.0662473
0.0622971
0.0602684
0.0594373
0.0607142
0.0625702
0.0660054
0.0688082
0.0702343
0.0712068
0.0742517
0.0795859
0.0950799
0.137628
0.24412
0.354242
0.358692
0.239212
0.148763
0.0974812
0.0793771
0.0726436
0.0683177
0.065646
0.0631812
0.0595773
0.0566887
0.0544095
0.0539124
0.0547643
0.0569558
0.0594994
0.0624037
0.0643416
0.0667838
0.0713707
0.0777054
0.0962324
0.147313
0.242941
0.363287
0.358568
0.240617
0.154821
0.101885
0.0783562
0.0691431
0.0638543
0.0611117
0.0581391
0.0550148
0.0516639
0.049946
0.049171
0.0502329
0.051767
0.0547935
0.0576164
0.0600265
0.062262
0.0677313
0.0769282
0.0998196
0.157849
0.241336
0.370065
0.363308
0.238423
0.154503
0.104754
0.0788021
0.0667721
0.0601371
0.0565815
0.0535941
0.0500459
0.0475405
0.0456356
0.045147
0.0458669
0.0477662
0.0500694
0.052974
0.0556742
0.058828
0.0656462
0.077917
0.104688
0.158603
0.236719
0.370965
0.365314
0.234512
0.154278
0.112842
0.0798657
0.0645491
0.0566249
0.0528872
0.049698
0.0468545
0.0438957
0.0423943
0.0416679
0.0426157
0.0439991
0.0467999
0.0495065
0.0522442
0.0555148
0.0636229
0.0788744
0.113404
0.157095
0.230843
0.370892
0.364167
0.229265
0.15303
0.123721
0.0830028
0.0644581
0.0545743
0.0496183
0.0463422
0.0430594
0.0408337
0.039151
0.0386904
0.0393615
0.0410372
0.0430693
0.0458253
0.048946
0.0536038
0.0633162
0.0823233
0.125965
0.154612
0.226748
0.365568
0.365357
0.223665
0.148696
0.124553
0.0869344
0.0640047
0.0525881
0.0470617
0.0434183
0.0407137
0.0380863
0.036761
0.0361143
0.0369962
0.0381967
0.0406888
0.0433244
0.0465372
0.0515957
0.0633484
0.0874072
0.127548
0.150039
0.224597
0.359284
0.364472
0.221587
0.141309
0.123774
0.0939711
0.0655614
0.0524407
0.0450164
0.0409806
0.037684
0.035735
0.0342641
0.0338593
0.034473
0.0359397
0.0377624
0.0406095
0.0445547
0.0517652
0.064781
0.0956527
0.125982
0.140923
0.22172
0.35864
0.358853
0.219893
0.134657
0.122863
0.105833
0.0679109
0.0521933
0.0439163
0.0390497
0.0361665
0.0336981
0.0325178
0.0318975
0.0326839
0.0337478
0.036133
0.039014
0.0435148
0.0510391
0.0679827
0.108549
0.123532
0.133839
0.221877
0.354747
0.357267
0.218755
0.128831
0.118497
0.105497
0.0727664
0.0528654
0.0437164
0.0377923
0.033863
0.03191
0.0305571
0.0301787
0.030699
0.0320733
0.0338916
0.0374198
0.0433645
0.0527214
0.0740273
0.108492
0.118362
0.129717
0.221624
0.35053
0.349537
0.218875
0.124991
0.112624
0.105077
0.0808276
0.0543473
0.0435891
0.0370224
0.0331992
0.0304478
0.0292749
0.0286587
0.0294067
0.0304706
0.0332226
0.0370342
0.0432846
0.0545002
0.0835378
0.107031
0.112604
0.125435
0.219293
0.347202
0.342489
0.21893
0.123783
0.106868
0.102366
0.0884145
0.0586007
0.0443509
0.0371128
0.0317376
0.029273
0.0277557
0.0273416
0.0278789
0.0293836
0.0316756
0.0368083
0.0440546
0.0598973
0.0887224
0.102903
0.106786
0.123535
0.219184
0.343757
0.336828
0.215643
0.121544
0.102926
0.0983635
0.0882945
0.0649178
0.0457253
0.0368766
0.0322227
0.0286646
0.0269994
0.0262736
0.0271116
0.0286515
0.0322567
0.0370665
0.046181
0.0681624
0.0884997
0.0972283
0.103004
0.122847
0.216512
0.336146
0.331691
0.214815
0.12218
0.099179
0.0927072
0.0867206
0.0749537
0.049574
0.0378269
0.0316696
0.0285388
0.0262512
0.0255655
0.0263607
0.0285078
0.0315913
0.0379209
0.0504737
0.0746725
0.0863049
0.0915094
0.0992687
0.122747
0.21396
0.332915
0.322714
0.210682
0.122447
0.0980717
0.0890907
0.0841254
0.0752897
0.0559571
0.039561
0.0325775
0.0285801
0.0263621
0.0251913
0.0264939
0.028471
0.03263
0.0403319
0.0570838
0.0743382
0.0826544
0.0879088
0.0975897
0.122061
0.210641
0.324945
0.316478
0.207587
0.12229
0.0963231
0.0856035
0.0798177
0.0741794
0.0651318
0.0441247
0.0328384
0.0286398
0.0261475
0.0251958
0.026284
0.0286983
0.033003
0.045774
0.0655871
0.0736437
0.0787238
0.0847369
0.0962886
0.122945
0.207987
0.31661
0.296549
0.199887
0.120611
0.0960911
0.0838074
0.076189
0.0720628
0.0655013
0.0505833
0.0360482
0.0291764
0.026525
0.0252973
0.026654
0.0292586
0.0367601
0.0537801
0.065717
0.0713622
0.0757204
0.0832217
0.0957338
0.120888
0.199788
0.295645
0.269024
0.188924
0.118574
0.0941809
0.0820074
0.0736392
0.0686756
0.0645472
0.0577037
0.0403005
0.0307623
0.0266757
0.0256331
0.0267785
0.0310534
0.0407837
0.0575672
0.0646315
0.0683458
0.0731745
0.0815291
0.0936992
0.118443
0.188782
0.269019
0.0762029
0.21483
0.292406
0.322066
0.331795
0.337089
0.342023
0.346627
0.350881
0.355511
0.360954
0.367919
0.384063
0.455993
0.733156
0.91372
0.947762
0.951569
0.940402
0.911734
0.870764
0.833927
0.806216
0.784127
0.762214
0.733003
0.686024
0.603802
0.452899
0.173005
0.0713502
0.224675
0.30094
0.327792
0.336133
0.341072
0.345384
0.350421
0.355355
0.360724
0.367311
0.38228
0.449999
0.748496
0.942363
0.97457
0.972185
0.963544
0.946532
0.914503
0.8712
0.832848
0.802516
0.777617
0.752115
0.718737
0.6672
0.581582
0.432957
0.169496
0.0752043
0.240436
0.309477
0.332702
0.33984
0.344298
0.349182
0.354482
0.360507
0.367793
0.381848
0.440632
0.711827
0.970757
1.00721
1.00036
0.986739
0.971442
0.946183
0.907926
0.86561
0.826883
0.793552
0.764899
0.735509
0.698401
0.643172
0.554158
0.407321
0.163966
0.0779608
0.250895
0.314626
0.336359
0.343069
0.348283
0.35379
0.360209
0.368939
0.385455
0.443429
0.695608
0.983059
1.04001
1.03443
1.01361
0.992276
0.967201
0.93007
0.894068
0.84994
0.809317
0.774296
0.744456
0.713993
0.674768
0.617082
0.526349
0.381871
0.159237
0.0787674
0.255054
0.318232
0.339378
0.346944
0.353863
0.362465
0.374725
0.396255
0.461347
0.715539
0.985643
1.05686
1.05937
1.04028
1.01281
0.98483
0.947356
0.90498
0.871353
0.826929
0.781206
0.746053
0.715845
0.684994
0.644703
0.585718
0.495488
0.356893
0.154468
0.0796312
0.258807
0.321712
0.343498
0.354003
0.368148
0.39114
0.428944
0.504565
0.765262
0.978002
1.05031
1.06548
1.05159
1.02708
0.993616
0.955112
0.913688
0.872773
0.842461
0.802008
0.752311
0.716374
0.685138
0.653504
0.61265
0.554138
0.467375
0.337125
0.150841
0.0805333
0.263113
0.326315
0.35201
0.375801
0.420985
0.495868
0.630986
0.815051
0.948972
1.01181
1.04043
1.04038
1.02101
0.986124
0.944345
0.908899
0.872078
0.833946
0.808652
0.778616
0.726774
0.690509
0.658925
0.626738
0.585254
0.52724
0.442614
0.318388
0.146777
0.0816935
0.268728
0.33621
0.38154
0.456443
0.606767
0.742358
0.808229
0.893641
0.949226
0.977566
0.996581
0.991
0.959643
0.914695
0.881752
0.85449
0.823594
0.790878
0.770624
0.750929
0.700663
0.663987
0.632642
0.600492
0.559098
0.501184
0.418607
0.300755
0.142996
0.0839439
0.281498
0.371017
0.488165
0.688225
0.764652
0.7862
0.808829
0.858259
0.893352
0.91532
0.930658
0.912783
0.871504
0.835719
0.813965
0.79376
0.769969
0.743197
0.728567
0.717871
0.672699
0.635171
0.60486
0.573213
0.532169
0.474777
0.394803
0.28365
0.139077
0.09501
0.330327
0.497342
0.735389
0.779495
0.761065
0.741724
0.747091
0.780968
0.811238
0.831382
0.838227
0.812768
0.78104
0.755445
0.741455
0.728142
0.711309
0.69093
0.682646
0.679217
0.641683
0.603665
0.575
0.544252
0.503775
0.447646
0.370934
0.267017
0.135095
0.164884
0.602616
0.793508
0.831765
0.746699
0.693763
0.659916
0.654474
0.680325
0.701077
0.72344
0.730925
0.714677
0.692113
0.674749
0.6672
0.660174
0.64974
0.636181
0.633891
0.635135
0.606885
0.569833
0.542979
0.513376
0.47379
0.419386
0.34666
0.250436
0.130764
0.256209
0.919285
0.964285
0.781228
0.662759
0.595688
0.558279
0.549259
0.563837
0.588891
0.615736
0.628158
0.620819
0.607171
0.597652
0.595521
0.593008
0.588269
0.581635
0.583734
0.587932
0.568594
0.533988
0.508948
0.480628
0.442129
0.38995
0.321855
0.233763
0.125949
0.304274
0.933158
0.905011
0.68512
0.562175
0.494774
0.458888
0.449552
0.460646
0.485605
0.513029
0.53071
0.534726
0.530805
0.527689
0.529225
0.529782
0.529869
0.528992
0.533859
0.540292
0.528159
0.496889
0.473723
0.446654
0.409379
0.360263
0.297343
0.217491
0.120765
0.336264
0.846783
0.766731
0.603581
0.48079
0.412775
0.378232
0.367773
0.376142
0.397113
0.424484
0.444799
0.46021
0.464169
0.466781
0.469314
0.472804
0.47609
0.479539
0.486457
0.493704
0.486883
0.459518
0.4382
0.412605
0.377129
0.331873
0.274388
0.202445
0.115753
0.359502
0.733172
0.631386
0.531188
0.421767
0.352718
0.318123
0.307159
0.310453
0.32842
0.353441
0.374695
0.397989
0.412073
0.416043
0.417523
0.423266
0.428296
0.434672
0.442478
0.449382
0.44593
0.422875
0.403298
0.379472
0.346628
0.305438
0.253365
0.188703
0.110959
0.366767
0.618102
0.513724
0.44791
0.373024
0.30716
0.271395
0.258315
0.261153
0.275598
0.299993
0.321106
0.346933
0.374299
0.374482
0.37471
0.380779
0.386771
0.394543
0.402678
0.408732
0.406774
0.38745
0.369959
0.347993
0.318181
0.280952
0.234034
0.176043
0.106282
0.360334
0.523019
0.418649
0.369603
0.323289
0.27191
0.237511
0.220181
0.2218
0.236266
0.261113
0.280604
0.310218
0.344404
0.341102
0.339669
0.344818
0.351198
0.359441
0.367504
0.372277
0.370111
0.354421
0.338931
0.318658
0.291844
0.258368
0.21626
0.164441
0.101788
0.348137
0.438012
0.349598
0.338081
0.34315
0.299179
0.256055
0.216742
0.194423
0.207898
0.23247
0.251492
0.283434
0.321217
0.31498
0.312152
0.315314
0.321096
0.329391
0.336574
0.340014
0.33692
0.324215
0.310506
0.291786
0.267783
0.237781
0.20009
0.153865
0.0975074
0.336425
0.370929
0.34884
0.378102
0.386982
0.333594
0.283796
0.237354
0.202422
0.187496
0.211169
0.23341
0.266049
0.306162
0.295487
0.290119
0.291533
0.296596
0.304409
0.310083
0.311774
0.307582
0.296859
0.284562
0.267507
0.246136
0.21929
0.185585
0.144288
0.0934886
0.321029
0.336141
0.385549
0.402194
0.413411
0.36145
0.306919
0.258557
0.216405
0.188596
0.196689
0.224782
0.257588
0.294164
0.281153
0.274459
0.273732
0.277128
0.283312
0.287327
0.287256
0.281863
0.272631
0.261193
0.245915
0.22689
0.202854
0.172689
0.13573
0.0897634
0.290467
0.33833
0.404467
0.409994
0.427972
0.384052
0.33059
0.283049
0.234089
0.200074
0.195108
0.225755
0.25611
0.287488
0.271404
0.264645
0.259906
0.260802
0.265308
0.267471
0.265394
0.259246
0.251445
0.240552
0.226922
0.209873
0.188265
0.161154
0.128116
0.0863146
0.269948
0.365181
0.420009
0.418385
0.441925
0.394166
0.343682
0.298294
0.256645
0.217599
0.205797
0.228318
0.256693
0.284223
0.268767
0.259713
0.249491
0.247432
0.24961
0.249841
0.247101
0.240444
0.232948
0.222512
0.210098
0.194652
0.175221
0.150784
0.121256
0.0830587
0.256666
0.363969
0.414188
0.419023
0.445305
0.400782
0.347061
0.310496
0.282584
0.241957
0.219108
0.232753
0.256926
0.282265
0.27435
0.256977
0.240506
0.2353
0.235227
0.234654
0.230764
0.223937
0.216334
0.206612
0.195229
0.181204
0.163704
0.141513
0.114977
0.0799725
0.265504
0.370381
0.407605
0.424247
0.449324
0.391804
0.355785
0.322452
0.306028
0.272085
0.236754
0.240127
0.25942
0.286514
0.292407
0.257298
0.23332
0.224223
0.222898
0.221162
0.214773
0.208995
0.201696
0.192965
0.182532
0.169624
0.153602
0.133318
0.109202
0.0770713
0.239638
0.316955
0.39364
0.439361
0.460929
0.392686
0.366302
0.335585
0.323234
0.299796
0.256964
0.249264
0.267271
0.298997
0.326136
0.263211
0.228847
0.216468
0.212809
0.207978
0.201594
0.1957
0.18918
0.181224
0.171575
0.159585
0.144737
0.126098
0.10398
0.0743857
0.172989
0.453526
0.60456
0.687142
0.734747
0.764666
0.787392
0.810446
0.839077
0.876909
0.91745
0.946444
0.956672
0.952738
0.920107
0.745303
0.461773
0.386517
0.369357
0.362115
0.356381
0.351412
0.347262
0.342685
0.337823
0.332701
0.323114
0.293152
0.215106
0.0763594
0.169583
0.433828
0.582692
0.668715
0.720936
0.755108
0.781336
0.807184
0.838177
0.876828
0.919471
0.952658
0.969416
0.976321
0.978378
0.947388
0.76495
0.457047
0.384754
0.368706
0.361692
0.355965
0.351069
0.346109
0.341897
0.336797
0.328406
0.30153
0.224955
0.0715804
0.164166
0.408439
0.555713
0.645196
0.701188
0.73906
0.769069
0.79854
0.832042
0.870499
0.911557
0.949784
0.976733
0.990439
1.00337
1.01004
0.976687
0.733421
0.448539
0.384558
0.369044
0.361422
0.355277
0.34991
0.345325
0.34048
0.333107
0.309887
0.24074
0.075421
0.159582
0.383261
0.528278
0.619564
0.678193
0.718011
0.749076
0.779677
0.814875
0.854062
0.895912
0.932115
0.969832
0.994924
1.0159
1.03631
1.04237
0.99056
0.723395
0.453291
0.389104
0.371003
0.361517
0.354643
0.34912
0.343844
0.33686
0.314829
0.250713
0.0781724
0.15493
0.358458
0.497812
0.588743
0.648685
0.689363
0.72079
0.751678
0.786906
0.830688
0.871607
0.905609
0.947714
0.985744
1.01422
1.04132
1.06013
1.05838
0.993339
0.747917
0.475048
0.403471
0.378855
0.364764
0.355294
0.347992
0.340262
0.318349
0.254859
0.0788732
0.15136
0.338767
0.469794
0.557305
0.616921
0.658072
0.690318
0.722273
0.758562
0.805291
0.841795
0.872114
0.912864
0.954069
0.993271
1.02709
1.05114
1.06449
1.04911
0.982275
0.797722
0.533931
0.443974
0.4003
0.37268
0.355916
0.344503
0.322083
0.258946
0.0796112
0.147346
0.320091
0.44512
0.530428
0.58944
0.631261
0.664065
0.696331
0.732944
0.780712
0.807857
0.833104
0.87059
0.906848
0.942255
0.983987
1.01898
1.03762
1.03586
1.00717
0.949734
0.829212
0.67041
0.533535
0.436642
0.382632
0.354503
0.32714
0.263407
0.0806709
0.1436
0.302538
0.42118
0.50437
0.563103
0.604868
0.637543
0.669475
0.706113
0.751922
0.769978
0.790049
0.821867
0.851917
0.878918
0.910976
0.955272
0.98653
0.990075
0.97044
0.941637
0.885696
0.810164
0.755515
0.645948
0.478101
0.390416
0.338949
0.269673
0.0818462
0.139689
0.285428
0.397379
0.477952
0.535991
0.577371
0.609463
0.640151
0.677219
0.717661
0.727556
0.742085
0.767873
0.790753
0.810551
0.831374
0.866043
0.906444
0.92283
0.906951
0.882987
0.845547
0.799325
0.782178
0.768725
0.719981
0.515745
0.381801
0.286096
0.0849259
0.135694
0.268757
0.373457
0.450761
0.507378
0.548136
0.579264
0.608135
0.645371
0.677962
0.68106
0.689366
0.708825
0.724773
0.737577
0.750563
0.775487
0.80611
0.828331
0.820426
0.798795
0.766731
0.734194
0.731286
0.754074
0.78265
0.767818
0.533004
0.351106
0.100658
0.131325
0.252073
0.349059
0.42234
0.477217
0.516953
0.546791
0.573712
0.60972
0.633355
0.631876
0.634192
0.646998
0.656552
0.663076
0.669606
0.686478
0.708258
0.721232
0.7116
0.687167
0.665355
0.640012
0.646656
0.682021
0.738966
0.837801
0.856709
0.697472
0.188045
0.126468
0.235242
0.324067
0.392688
0.445374
0.483903
0.512289
0.537251
0.570609
0.585977
0.581665
0.579372
0.585673
0.589448
0.591577
0.592754
0.601995
0.614556
0.618569
0.604492
0.576264
0.550182
0.535323
0.544818
0.582308
0.651492
0.775834
0.979146
0.926075
0.263764
0.12124
0.218789
0.299303
0.362714
0.412408
0.449634
0.476594
0.499621
0.529428
0.538175
0.531867
0.52681
0.527477
0.526586
0.525548
0.523467
0.526381
0.528625
0.521524
0.502827
0.47448
0.449137
0.437561
0.447893
0.484116
0.553688
0.680035
0.887787
0.913953
0.306414
0.11617
0.203554
0.27607
0.334007
0.37976
0.415301
0.440703
0.461884
0.487487
0.491599
0.48443
0.477568
0.474255
0.470057
0.466002
0.463544
0.46037
0.454211
0.436618
0.416072
0.38818
0.366789
0.357765
0.370716
0.40692
0.478345
0.605977
0.745228
0.825334
0.336266
0.111332
0.189667
0.25481
0.307267
0.348819
0.381931
0.405516
0.424695
0.44613
0.447666
0.440644
0.432843
0.426798
0.421139
0.414723
0.413587
0.409432
0.391252
0.368071
0.346548
0.321327
0.302924
0.299681
0.313541
0.350929
0.424253
0.52515
0.612846
0.710938
0.358308
0.106621
0.176887
0.235296
0.28253
0.320016
0.350223
0.371895
0.388884
0.406514
0.407586
0.401336
0.39308
0.385227
0.379073
0.37266
0.372786
0.37203
0.342004
0.316009
0.294047
0.269807
0.254978
0.253231
0.269429
0.306328
0.373227
0.439407
0.497797
0.600048
0.363159
0.102067
0.165136
0.217317
0.259699
0.293367
0.320586
0.340531
0.355503
0.369717
0.371589
0.366554
0.358272
0.350026
0.343412
0.338037
0.339967
0.342246
0.30688
0.275333
0.255864
0.231379
0.216866
0.219729
0.240401
0.275556
0.324719
0.362756
0.405973
0.506569
0.354986
0.0977112
0.154389
0.200885
0.238834
0.268989
0.29331
0.311769
0.324915
0.336747
0.339709
0.33607
0.328551
0.320195
0.314276
0.31072
0.314028
0.319675
0.280838
0.247914
0.227811
0.203378
0.194719
0.221824
0.262911
0.309204
0.353929
0.343483
0.343458
0.42372
0.346264
0.0936157
0.144644
0.186122
0.220072
0.247052
0.268654
0.285666
0.297584
0.307517
0.311541
0.309851
0.303785
0.295863
0.290984
0.289153
0.294705
0.305111
0.264901
0.231432
0.206895
0.184721
0.205884
0.241699
0.288
0.341739
0.396493
0.385003
0.352576
0.362793
0.335292
0.0898312
0.135941
0.173033
0.2034
0.227544
0.246705
0.262185
0.273464
0.282071
0.286998
0.287078
0.282662
0.276412
0.273346
0.274321
0.281019
0.292927
0.257429
0.224537
0.194402
0.189846
0.219493
0.262304
0.310648
0.369433
0.420725
0.404839
0.389335
0.334049
0.320338
0.0863321
0.128203
0.161426
0.188696
0.210392
0.227481
0.241292
0.252195
0.259792
0.26528
0.267219
0.264793
0.260168
0.259805
0.265155
0.272164
0.285575
0.255262
0.225567
0.196179
0.203014
0.23944
0.285346
0.332605
0.389034
0.434271
0.413259
0.407719
0.340818
0.289135
0.0830412
0.121257
0.150999
0.175559
0.195117
0.210611
0.223101
0.2335
0.240909
0.24702
0.249558
0.249393
0.247167
0.250027
0.261178
0.270602
0.279427
0.253332
0.225942
0.206652
0.222281
0.262326
0.301562
0.34534
0.399572
0.447215
0.421744
0.422918
0.368272
0.268608
0.0799198
0.114949
0.141661
0.163924
0.181573
0.195727
0.207156
0.216835
0.224199
0.230967
0.23446
0.235197
0.23519
0.241173
0.258483
0.276669
0.277897
0.252521
0.230264
0.220321
0.246221
0.286476
0.314184
0.352516
0.406135
0.447952
0.423642
0.416731
0.365723
0.25459
0.0769617
0.109136
0.13334
0.153696
0.169889
0.182943
0.193474
0.202235
0.209199
0.215234
0.220936
0.222837
0.224521
0.233958
0.258764
0.296556
0.283337
0.255156
0.237514
0.238655
0.275556
0.3089
0.326206
0.363755
0.397029
0.454187
0.429917
0.410038
0.371322
0.262658
0.0742306
0.103855
0.125985
0.144687
0.159704
0.171849
0.181756
0.189682
0.195921
0.202012
0.208055
0.212513
0.216813
0.230233
0.265847
0.327173
0.300103
0.264811
0.246677
0.258145
0.301984
0.325831
0.339804
0.374113
0.397385
0.464521
0.444102
0.396718
0.320134
0.236996
0.980729
1.00514
0.999458
0.992163
0.976836
0.943793
0.895662
0.864548
0.824807
0.792841
0.76656
0.74047
0.72032
0.701577
0.682626
0.66547
0.652124
0.640798
0.630191
0.619559
0.609538
0.602164
0.597011
0.591839
0.587016
0.581679
0.574288
0.565471
0.555676
0.543957
0.530888
0.516493
0.500739
0.484146
0.466888
0.449293
0.431627
0.413201
0.393804
0.373926
0.35448
0.334999
0.31622
0.298311
0.28121
0.264967
0.249756
0.233098
0.219949
0.20944
0.199397
0.190377
0.182357
0.175612
0.169621
0.164136
0.159317
0.15512
0.151456
0.148201
0.145149
0.142373
0.139903
0.137624
0.135134
0.132399
0.12945
0.126364
0.123328
0.120382
0.117581
0.115015
0.112748
0.110708
0.10881
0.106912
0.104869
0.102522
0.099767
0.0966373
0.0932327
0.0896875
0.0861291
0.08265
0.0793071
0.0761431
0.0731623
0.0704034
0.0678936
0.0656252
0.0635401
0.0616107
0.0598385
0.0582467
0.0568582
0.0556795
0.0547055
0.053915
0.0532864
0.0528017
0.0524495
0.0522176
0.0520914
0.0520629
0.0521011
0.0521948
0.0523395
0.0525234
0.0527789
0.0531225
0.0535616
0.0541117
0.0547604
0.0554751
0.0562206
0.0570359
0.0580083
0.059206
0.0607563
0.0620263
0.0635251
0.0653095
0.0672414
0.0693538
0.0717303
1.41061
1.42501
1.37984
1.34411
1.29851
1.23886
1.19335
1.1512
1.10865
1.06068
1.01537
0.9815
0.956297
0.92986
0.903752
0.880908
0.861938
0.846068
0.832128
0.818858
0.807855
0.802744
0.802613
0.806107
0.814157
0.824713
0.835026
0.843774
0.850418
0.855625
0.858092
0.857512
0.852816
0.842921
0.827483
0.806676
0.782312
0.758785
0.73985
0.721853
0.703875
0.684372
0.662584
0.638487
0.612299
0.58455
0.547157
0.508926
0.470501
0.433594
0.397201
0.364472
0.334602
0.309475
0.287931
0.269611
0.254509
0.242147
0.232072
0.223698
0.216515
0.210295
0.205006
0.200387
0.196
0.191766
0.187668
0.18359
0.179493
0.175755
0.17263
0.170088
0.168087
0.166516
0.165172
0.163759
0.162018
0.15972
0.157211
0.153641
0.147715
0.141381
0.1347
0.127948
0.121362
0.114996
0.108859
0.103102
0.0978714
0.0932373
0.0891265
0.085508
0.0823174
0.0795399
0.0772036
0.0752717
0.073694
0.0724137
0.0713829
0.0705732
0.0699556
0.0695067
0.0691969
0.0690177
0.0689344
0.0689445
0.0690431
0.0692113
0.0695011
0.0699227
0.0704713
0.0712043
0.0720832
0.0730295
0.0740172
0.075188
0.0767521
0.07864
0.0808224
0.082722
0.0851125
0.0880319
0.0912733
0.0948842
0.0990956
1.25334
1.26653
1.22911
1.20939
1.18694
1.16173
1.11447
1.08308
1.05901
1.03364
1.01246
0.996539
0.979165
0.963552
0.952242
0.942958
0.934642
0.927268
0.92075
0.917158
0.918545
0.924842
0.934951
0.948345
0.963804
0.976821
0.984928
0.991007
0.992844
0.986812
0.9725
0.951366
0.923325
0.89118
0.861606
0.835455
0.809845
0.783806
0.759292
0.743588
0.729005
0.714027
0.70477
0.694236
0.683894
0.669972
0.655945
0.642041
0.623195
0.595709
0.560771
0.518202
0.474413
0.433143
0.396111
0.364925
0.339525
0.318194
0.299818
0.284263
0.271846
0.261982
0.254495
0.248792
0.243807
0.239102
0.234968
0.231413
0.228915
0.22709
0.225351
0.223873
0.223275
0.223357
0.223942
0.224561
0.225122
0.225726
0.224879
0.222306
0.216716
0.210308
0.203379
0.195385
0.186006
0.175299
0.163415
0.150684
0.13799
0.127251
0.118109
0.109952
0.103007
0.0973111
0.0928417
0.0893359
0.0865646
0.0843701
0.0826618
0.0813598
0.080399
0.0797432
0.0793449
0.079155
0.0790992
0.079145
0.0792922
0.0795192
0.0798545
0.0803101
0.0809276
0.0817728
0.0828033
0.0839033
0.0851089
0.0865814
0.0886628
0.0912425
0.0941801
0.0969014
0.100202
0.10405
0.108461
0.113519
0.119401
1.06575
1.10191
1.09903
1.10709
1.0979
1.08793
1.06416
1.04863
1.02837
1.01414
1.00907
1.00447
0.992555
0.981968
0.974267
0.966286
0.95878
0.95399
0.954661
0.960285
0.971052
0.985541
1.00251
1.02026
1.03558
1.0459
1.05134
1.04791
1.03081
0.999814
0.954931
0.90287
0.856052
0.820503
0.801888
0.794519
0.792509
0.791723
0.7869
0.776237
0.753006
0.731702
0.704764
0.673442
0.645623
0.622411
0.60243
0.586597
0.579686
0.582164
0.598202
0.619142
0.606235
0.570336
0.522733
0.472624
0.431883
0.399463
0.373001
0.350937
0.332973
0.318515
0.307731