/*--------------------------------*- C++ -*----------------------------------*\
| =========                 |                                                 |
| \\      /  F ield         | OpenFOAM: The Open Source CFD Toolbox           |
|  \\    /   O peration     | Version:  2112                                  |
|   \\  /    A nd           | Website:  www.openfoam.com                      |
|    \\/     M anipulation  |                                                 |
\*---------------------------------------------------------------------------*/
FoamFile
{
    version     2.0;
    format      ascii;
    arch        "LSB;label=32;scalar=64";
    class       volScalarField;
    location    "0.00693";
    object      T;
}
// * * * * * * * * * * * * * * * * * * * * * * * * * * * * * * * * * * * * * //

dimensions      [0 0 0 1 0 0 0];

internalField   nonuniform List<scalar> 
13875
(
1412.01
1535.59
1482.41
1487.91
1482.06
1484.86
1483.97
1483.94
1484.43
1484.27
1484.14
1484.15
1483.61
1483.93
1483.85
1483.85
1483.44
1484.72
1484.87
1483.12
1481.88
1487.69
1480.55
1533.04
1398.38
1307.02
1356.17
1318.92
1322.33
1317.22
1321.04
1322.39
1323.1
1323.56
1323.4
1323.28
1323.25
1318.17
1317.68
1318.37
1322.76
1322.95
1323.47
1322.31
1317.82
1316.7
1321.89
1319.59
1356.53
1303.84
1307.24
1340.07
1314.29
1311.96
1305.3
1306.2
1305.53
1305.97
1305.93
1304.68
1304.54
1305.99
1303.84
1304.06
1303.91
1305.77
1303.89
1305.92
1306.03
1305.09
1304.86
1311.04
1311.37
1336.28
1296.72
1317.37
1344.8
1314.65
1308.81
1306.21
1305.97
1304.8
1304.22
1303.88
1303.14
1302.71
1303.48
1303.95
1304.09
1304.06
1303.45
1302.42
1303.49
1304.21
1305.49
1305.35
1307.7
1313.94
1343.54
1311.42
1329.52
1342.11
1315.7
1312.53
1304.88
1305.95
1305.34
1304.21
1303.95
1303.28
1302.77
1303.35
1303.81
1304.22
1303.84
1303.28
1302.52
1303.99
1305.2
1304.88
1304.75
1311.75
1311.96
1338.4
1315.98
1332.21
1351.13
1318.82
1309.95
1308.11
1306.88
1305.07
1304.52
1303.81
1303.44
1302.92
1303.54
1304.15
1304.48
1304.31
1303.55
1302.63
1303.54
1304.27
1306.56
1307.27
1308.42
1318.98
1349.14
1326.66
1338.98
1360.46
1329.01
1317.55
1308.04
1307.32
1306.62
1304.65
1304.35
1303.88
1303.41
1303.62
1304.26
1304.82
1304.26
1303.57
1303.18
1304.6
1306.21
1306.55
1307.8
1317.6
1325.64
1358.17
1321.82
1359.7
1384.67
1344.01
1321.15
1316.69
1310.2
1306.83
1305.25
1305.05
1304.57
1304.01
1304.18
1305.04
1305.52
1305.24
1304.18
1303.76
1304.96
1306.2
1309.94
1315.28
1320.37
1341.45
1381.01
1350.39
1537.14
1508.37
1387.09
1350.4
1322
1315.29
1311.19
1306.89
1306.87
1306.28
1305.58
1305.34
1306.17
1306.89
1306.37
1305.67
1305.65
1307.33
1310.58
1314.29
1321.35
1349.25
1382.74
1505.66
1520.98
1834.75
1574.29
1426.9
1358.38
1338.35
1320.64
1314.01
1310.61
1309.92
1309.23
1308.32
1308.04
1308.83
1309.61
1309.3
1308.66
1308.91
1311.01
1314.16
1320.58
1337
1357.1
1424.7
1566.5
1826.3
2506.88
1804.22
1517.28
1406.62
1349.89
1331.81
1325.77
1317.73
1316.59
1315.34
1313.89
1313.41
1314.04
1315.02
1314.94
1314.82
1315.33
1317.86
1326.25
1330.17
1348.82
1419.28
1502.36
1798
2429.41
2811.99
2301.39
1734.34
1462.62
1426.33
1361.04
1340.08
1331.48
1329.62
1327.51
1325.74
1325.21
1325.6
1326.57
1326.75
1327.39
1328.66
1332.15
1340.18
1370.81
1405.49
1456.68
1729.91
2305.93
2837.29
2786.2
2654.29
2348.42
2209.25
1523.97
1416.01
1397.4
1373.23
1365.33
1358.77
1355.08
1353.98
1353.88
1354.82
1355.74
1358.79
1364.91
1375.63
1401.28
1422.35
1567.8
2239.86
2247.04
2686.26
2766.55
2722.38
2660.92
2744.51
2772.81
2055.33
1825.05
1521.9
1480.41
1463.23
1451.3
1446.03
1444.5
1444.29
1445.26
1446.57
1451.35
1462.91
1482.5
1541.95
1919.3
2103.76
2783.76
2792.5
2702.74
2701.18
2581.68
2637.03
2685.57
2689.59
2590.38
2362.77
2039.2
1970.99
1881.16
1779.53
1741.52
1729.48
1725.59
1727.42
1734.54
1760.38
1855.36
1973.07
1988.27
2411.97
2636.93
2734.41
2679.65
2650.54
2625.27
2499.94
2538.25
2634.75
2692
2666.73
2694.89
2871.78
2985.7
2996.48
3089.04
3171.22
3195.55
3206.19
3200.75
3181.33
3112.32
2959.12
2981.38
2899.55
2724.53
2666.71
2712.65
2631.34
2559.4
2533.23
2316.08
2399.06
2479.94
2524.91
2620.22
2751.48
3041.59
3435.44
3604.36
3685.93
3694.78
3686.85
3683.8
3687.41
3697.59
3703.44
3617.34
3454.34
3084.62
2765.54
2625.84
2563.99
2470.58
2405.36
2331.67
2029.54
2155.6
2319.7
2634.32
2777.26
2841.02
2985.5
3343.02
3564.98
3650.56
3673.13
3669.86
3668.78
3671.69
3675.53
3658.23
3537.59
3330.16
2965.83
2819.02
2782.13
2604.16
2281.75
2148.31
2028.73
1814.75
1877.53
2007.54
2298.66
2753.08
2838.61
2884.79
3129.08
3364.86
3490.93
3530.33
3542.45
3545.76
3546.65
3535.86
3501.87
3372.2
3131.88
2918.45
2940.17
2769.08
2255.23
2005.74
1886.88
1817.77
2451.82
2338.5
2070.96
2194.96
2543.69
2677.56
2691.9
2856.84
3092.08
3283.9
3383.81
3420.41
3429.25
3423.35
3388.4
3284.07
3080.21
2860.44
2717.25
2709.68
2517.83
2200.27
2112.41
2346.05
2451.78
3292.42
3349.05
2702
2269.21
2404.24
2511.81
2539.17
2672.31
2903.87
3119.14
3251.2
3300.87
3307.96
3300.09
3244.88
3098.22
2872.62
2662.39
2541.7
2537.98
2365.2
2289.37
2772.62
3411.6
3296.68
3629.15
3531.05
2714.25
2158.31
2224.69
2344.65
2412.5
2531.25
2752.96
2977.4
3120.6
3174.03
3183.92
3169.43
3104.82
2945.87
2716.64
2521.29
2406.6
2357.43
2190.37
2198.42
2800.58
3571.43
3615.71
3451.5
2980.24
2421.42
1997.6
2083.8
2221.06
2304.68
2423.73
2625.97
2842.48
2991.9
3051.8
3060.26
3046.81
2977.26
2813.98
2596.81
2418.44
2292.59
2226.06
2040.98
2006.63
2429.55
3006.98
3461.94
3485.99
2846.39
2170.96
1860.55
1993.69
2118.81
2206.67
2320.89
2518.94
2729.47
2870.87
2928.52
2941.06
2923.14
2856.11
2702.9
2491.12
2318.5
2198.86
2119.47
1950.79
1855.94
2188.37
2873.19
3495.25
3395.19
2671.35
2025.17
1794.5
1954.06
2058.68
2115.36
2239.32
2425.17
2622.83
2760.59
2817.8
2825.36
2811.21
2743.75
2592.98
2395.58
2230.63
2113.64
2062.17
1905.04
1779.45
2052.19
2735.33
3414.3
3366.95
2649.42
1982.69
1804.68
1922.7
1978.03
2041.21
2154.59
2336.56
2525.81
2653.48
2704.75
2717.52
2699.91
2639.77
2503.28
2312.24
2150.43
2040.96
1991.86
1889.89
1790.12
1981.47
2668.48
3368.72
3292.06
2520
1921.52
1809.68
1893.24
1946.24
1976.4
2095.79
2264.75
2436.9
2555.29
2606.37
2613.77
2601.45
2542.35
2414.53
2241.1
2085.9
1974.12
1960.72
1865.79
1795.64
1924.05
2534.07
3303.31
3269.87
2501.66
1941.54
1842.03
1889.74
1884.6
1918.2
2032.74
2197.47
2360.52
2463.38
2505.53
2518.5
2501.79
2450.7
2337.15
2170.68
2023.5
1914.74
1903.27
1871.86
1813.76
1933.98
2537.6
3291.12
3276.08
2483.56
1921.93
1836.33
1846.58
1858.63
1873.4
1988.47
2136.79
2281.35
2375.34
2420.05
2427.14
2417.55
2368.8
2267.82
2120.83
1981.46
1869.72
1877.6
1836.12
1820.22
1903.7
2450.36
3250.6
3250.81
2515.28
1961.15
1868.8
1857.99
1829.22
1830.76
1939.47
2082.45
2217.92
2299.21
2331.91
2344.27
2329.36
2289.34
2200.94
2061.13
1934.21
1823.89
1851.89
1852.6
1844.82
1930.32
2483.76
3231.62
3178.93
2426.63
1934.29
1876.91
1808.46
1809.64
1800.35
1916.27
2040.52
2155.83
2223.37
2259.91
2264.61
2257.51
2217.49
2140.33
2020.15
1903.86
1790.29
1821.59
1806.69
1859.68
1916.53
2438.52
3187.77
3141.72
2422.78
1984.36
1908.54
1817.09
1787.14
1774.68
1874.66
1989.01
2097.63
2158.93
2182.93
2193.9
2181.36
2152.91
2086.89
1973.23
1875.77
1767.8
1807.04
1813.94
1883.78
1939.17
2396.84
3146.13
3088.11
2375.91
1987.4
1893.3
1786.98
1758.55
1750.46
1861.5
1958.21
2048.69
2093.77
2123.37
2125.76
2121.17
2089.71
2037.57
1941.3
1852.29
1742.01
1766.65
1788.87
1887.08
1952.11
2370.58
3096.87
3042.1
2347.17
2017.79
1920.19
1809.65
1745.03
1740.19
1833.23
1913.02
1996.94
2042.13
2056.82
2066.4
2055.62
2036.42
1988.55
1897.17
1830.84
1729.35
1758.99
1801.16
1901.31
2003.71
2351.27
3034.51
3011.23
2316.76
2013.89
1919.21
1787.02
1716.47
1711.52
1820.56
1887.58
1956.21
1983.93
2007.88
2008.74
2006.59
1982.19
1951.44
1874.63
1814.23
1702.12
1722.79
1791.19
1911.93
2008.77
2302.38
2974.94
2989.46
2303.42
2017.68
1933.46
1801.71
1724.85
1709.46
1796.39
1848.81
1908.87
1942.68
1950.5
1959.28
1949.98
1936.69
1903.25
1835.58
1799.53
1697.61
1724.42
1808.41
1928.96
2015.42
2299.82
2971.36
2944.47
2264.33
2007.14
1955.96
1790.22
1707.36
1683.27
1784.8
1830.24
1879.84
1892.6
1911.22
1910.43
1910.1
1890.38
1875.64
1814.94
1777.32
1670.71
1707.3
1790.07
1952.5
2003.54
2254.87
2933.33
2920.76
2273.09
2013.33
1998.04
1813.47
1727.92
1689.88
1763.98
1791.9
1833.3
1858.17
1861.6
1869.24
1861.16
1853.11
1829.72
1783.99
1772.37
1676.98
1722.84
1815.87
1987.87
2008.24
2253.97
2917.4
2883.64
2253.17
1993.97
2008.7
1816.25
1713.44
1668.48
1751.03
1775.61
1813.62
1816.51
1830.59
1828.06
1829.2
1814.11
1810.86
1758.26
1747.42
1658.44
1708.15
1811.69
2024.87
1987.42
2240.76
2903.84
2841.47
2244.88
1978.22
2000.05
1846.62
1749.06
1692.37
1743.23
1744.6
1767.79
1787.24
1787.67
1793.62
1787
1781.93
1765
1734.97
1746.96
1674.28
1738.93
1846.01
2012.03
1966.78
2232.52
2855.86
2818.43
2237.13
1944.66
1996.45
1901.34
1741.6
1678.73
1729.08
1728.43
1755.95
1751.85
1762.51
1758.97
1761.61
1750.1
1753.88
1707.96
1727.34
1675.28
1725.83
1880.34
2013.44
1933.73
2202.26
2806.22
2787.76
2229.69
1929.69
1977.38
1932.13
1781.01
1720.91
1736.55
1708.29
1711.54
1726.51
1724.69
1729.78
1724.71
1721.44
1711.81
1697.82
1737.5
1709.53
1778.29
1954.83
1994.13
1918.09
2216.61
2772.47
2759.21
2207.73
1904.65
1960.1
1932.51
1808.99
1718.37
1729.84
1694.9
1710.99
1698.85
1705.22
1700.41
1704.3
1696.05
1706.39
1670.17
1722.26
1707.71
1783.98
1952.69
1979.71
1897.77
2214.13
2744.22
2725.64
2206.11
1903.11
1925.52
1918.38
1877.25
1765.83
1755.34
1693.52
1670.89
1676.72
1671.88
1675.51
1671.46
1671.46
1673.3
1682.36
1754.12
1752.94
1848.43
1940.14
1943.65
1897.19
2200
2711.56
2703.84
2193.95
1889.29
1906.02
1903.92
1906.46
1773.78
1746.27
1690.23
1684.83
1657.9
1657.79
1650.86
1656.25
1653.94
1678.87
1664.42
1737.09
1773.93
1932.38
1924.68
1921.17
1888.54
2188.67
2693.84
2662.43
2172.86
1888.88
1878.53
1872.48
1893.08
1844.33
1781.33
1709.8
1654.17
1645.29
1630.24
1631.12
1629.29
1637.27
1653.64
1693.01
1781.24
1847.04
1919.13
1897.28
1891.8
1890.16
2172.44
2667.64
2644.4
2170.96
1883.36
1868.2
1841.32
1876.51
1921.34
1800.05
1709.59
1686.97
1641.28
1626.74
1614.79
1624.72
1637.08
1676.58
1677.74
1788.37
1944.8
1901.43
1866.72
1878.81
1876.24
2155.43
2646.48
2595
2148.18
1878.24
1847.74
1815.7
1860.2
1904.78
1873.29
1740.69
1658.98
1641.1
1609.89
1603.91
1608.44
1632.13
1661.14
1725.22
1868.28
1928.66
1882.26
1842.14
1857.39
1872.84
2143.85
2596.08
2554.51
2130.14
1865.1
1847.62
1797.22
1821.2
1887.82
1961.18
1770.23
1702.94
1647.25
1627.97
1604.8
1624.86
1642.37
1695.52
1732.09
1968.53
1908.15
1837.13
1818.4
1853.17
1860.77
2125.75
2557.39
2388.04
2080.58
1844.95
1825.84
1781.31
1799.07
1868.5
1933.78
1871.99
1688.13
1654.06
1611.74
1607.8
1610.31
1642.82
1700.74
1833.87
1942.03
1888.03
1808.47
1799.08
1833
1843.1
2072.64
2383.42
619.488
908.301
1072.74
1069.36
997.923
859.649
757.731
717.42
721.793
772.807
829.682
770.041
556.757
422.222
365.255
341.645
331.596
327.225
325.893
325.768
325.827
325.495
324.774
324.042
323.213
323.365
326.223
336.172
370.31
411.514
728.5
989.055
1075.61
1042.39
899.632
746.241
681.223
669.551
681.003
734.793
807.946
781.249
595.898
445.376
379.279
350.865
337.818
331.952
329.97
329.541
329.128
328.55
327.869
327.561
328.095
330.926
339.484
367.485
398.944
419.213
772.751
1023.61
1061.69
993.768
809.512
695.253
654.542
661.009
679.07
736.55
803.342
777.238
598.705
450.069
383.778
354.919
341.173
334.777
332.389
331.563
330.84
330.208
329.647
329.9
331.614
337.908
356.511
395.326
407.51
427.139
861.89
1034.88
1036.81
932.162
740.717
650.01
639.71
658.96
684.789
746.165
805.845
782.976
617.385
467.455
397.087
364.108
347.528
339.71
336.53
335.295
334.38
333.744
333.656
335.312
339.689
352.229
389.215
406.593
411.719
433.432
901.22
1043.43
1016.04
859.643
684.024
622.825
635.316
672.672
703.623
764.936
809.585
780.206
617.758
474.451
404.362
370.822
353.133
344.349
340.27
338.322
337.038
336.866
337.657
341.026
350.049
374.715
407.913
415.372
418.437
438.141
967.109
1048.34
983.918
781.961
641.421
612.477
638.363
703.603
737.234
790.012
815.291
774.93
615.305
484.611
414.495
378.74
359.625
349.702
344.734
342.229
340.989
341.253
343.375
349.691
366.319
407.068
416.736
422.809
424.972
440.563
990.839
1045.86
933.393
722.216
618.041
607.523
657.378
747.8
780.138
815.322
819.534
762.746
604.243
486.888
421.711
385.319
365.304
354.609
348.855
346.103
344.972
345.915
350.307
361.486
391.231
419.281
423.365
428.592
432.293
443.249
1024.47
1036.27
880.857
682.772
599.261
605.812
685.386
778.956
812.281
829.593
819.227
742.561
591.289
485.635
425.189
391.033
370.645
359.499
353.429
350.516
349.701
351.9
359.023
377.696
417.582
426.738
429.633
434.536
438.181
446.953
1039.51
1017.64
831.889
648.829
584.371
605.095
694.552
785.768
819.32
830.531
807.406
708.676
573.031
478.762
424.466
393.593
374.752
363.897
357.942
355.101
355.02
359.087
370.809
403.551
428.832
433.332
436.489
441.283
444.664
451.266
1059.04
996.703
795.578
626.696
575.321
598.917
691.221
776.449
807.384
812.624
770.663
664.073
546.052
466.561
421.007
394.201
377.832
367.964
362.527
360.218
361.604
368.321
387.492
427.898
436.983
440.071
444.26
447.241
450.485
455.18
1069.34
975.81
772.465
612.629
563.251
579.11
658.073
729.103
755.466
759.306
701.649
603.339
510.241
450.268
415.43
393.862
380.045
371.709
367.302
366.197
369.584
381.043
415.627
439.065
444.323
446.794
451.089
452.441
457.432
460.796
1074.41
960.258
758.397
607.047
551.544
548.821
593.182
647.274
668.815
668.847
605.595
534.099
471.821
433.216
409.443
393.475
382.279
375.901
372.883
373.742
380.193
399.889
438.604
447.683
451.065
453.857
457.242
458.626
463.583
463.164
1077.87
948.855
751.216
606.227
542.385
521.852
529.706
556.765
568.544
558.116
507.096
472.326
440.008
419.734
405.338
393.565
385.218
381.01
379.84
383.218
396.016
434.396
450.851
455.921
458.4
461.687
463.919
464.782
467.335
465.153
1082.61
941.36
749.885
608.899
541.192
511.338
498.819
496.687
492.191
475.502
449.931
437.419
423.757
413.342
404.191
395.065
389.472
387.672
389.17
397.258
425.456
453.923
460.811
464.523
466.927
469.908
470.843
470.33
470.972
468.424
1087.04
938.601
752.726
618.394
545.396
509.763
489.409
477.992
464.139
447.909
433.689
426.819
419.237
412.458
405.192
399.306
396.662
397.708
403.43
422.798
457.793
467.676
470.891
474.098
476.076
478.142
477.787
475.924
475.867
471.254
1092.79
939.599
762.912
637.155
558.283
514.747
489.105
475.569
459.756
444.643
432.858
426.639
420.654
415.975
411.053
408.757
409.272
414.254
429.535
463.568
476.39
480.442
481.1
484.299
485.582
486.562
485.337
481.491
481.219
474.054
1096.6
944.457
780.768
663.673
583.435
531.825
498.636
481.722
466.445
453.033
441.89
435.524
430.281
427.737
425.807
427.496
432.099
447.423
473.652
487.043
492.158
493.859
492.99
494.234
495.149
494.969
492.427
488.019
485.547
477.604
1102.18
955.398
807.807
701.402
620.654
563.967
525.393
502.912
489.89
476.633
466.726
459.505
454.714
454.353
456.103
463.199
476.025
491.119
501.382
506.574
508.11
507.193
504.72
503.777
504.264
502.912
499.255
494.947
492.2
481.859
1110.51
972.376
843.964
749.288
670.69
612.855
571.658
544.187
532.309
521.2
513.349
506.592
501.602
503.825
507.985
511.347
515.569
521.473
524.913
525.759
523.182
516.611
515.16
513.229
512.531
510.055
505.809
502.131
498.277
485.318
1118.35
993.385
886.902
804.419
731.575
677.029
634.598
605.832
593.194
588.335
583.956
575.625
566.425
561.052
554.276
550.448
548.11
548.219
547.48
542.453
532.596
526.793
524.541
522.156
519.713
515.725
511.933
507.497
502.81
489.279
1126.1
1017.76
936.403
866.996
800.929
747.819
709.055
684.9
676.677
670.498
658.104
646.488
633.551
619.15
602.668
589.527
580.067
574.163
564.696
551.84
542.939
537.406
533.786
530.06
525.488
520.551
516.437
512.585
506.845
493.069
1129.68
1049.12
991.406
935.586
874.653
824.807
792.99
780.97
773.643
756.945
740.366
724.878
707.168
683.586
657.292
633.386
611.575
594.381
577.822
563.093
553.827
547.136
541.911
535.668
529.249
524.294
520.475
516.969
510.495
497.054
1142.35
1082.19
1052.67
1010.97
954.627
909.071
889.248
888.674
875.342
854.904
834.974
813.525
788.032
753.399
715.775
677.665
642.463
615.453
592.813
575.521
563.712
555.116
548.589
539.442
532.516
527.257
524.563
520.809
513.367
499.973
1120.92
1122.62
1125.12
1092.25
1038.79
1002.87
993.725
992.181
978.744
958.608
935.357
907.145
871.683
823.078
769.967
718.627
674.006
638.036
609.203
587.991
572.348
562.609
553.3
542.499
534.857
529.715
528.56
523.626
515.873
502.718
1143.68
1189.01
1205.3
1176.4
1125.45
1098.58
1095.38
1088.82
1075.83
1055.95
1029.93
997.109
950.598
887.243
818.941
756.552
703.467
658.364
623.355
598.094
580.643
569.232
556.181
544.26
536.041
531.491
531.709
524.888
516.538
504.398
412.488
366.901
334.357
325.233
322.682
322.798
323.798
324.48
325.148
325.37
325.388
325.536
327.015
331.614
342.451
367.947
429.784
575.896
782.819
827.567
762.771
718.139
715.101
757.881
858.241
1000.29
1075.91
1081.4
925.599
634.975
420.155
399.146
363.495
337.942
329.919
327.412
327.202
327.511
328.144
328.756
329.146
329.676
331.84
338.021
352.039
382.504
453.533
614.161
787.683
804.218
726.99
679.332
668.634
680.77
745.795
900.49
1047.9
1082.85
999.886
744.973
428.137
408.518
394.403
354.167
336.376
330.535
329.174
329.202
329.677
330.43
331.142
332.13
334.725
341.443
356.103
387.131
458.235
616.042
783.79
800.174
729.372
677.351
660.401
654.077
695.892
812.22
998.667
1067.33
1032.4
788.255
434.608
412.741
406.062
385.508
350.289
338.373
334.298
332.897
333.142
333.827
334.811
336.233
339.736
347.948
365.246
400.961
475.706
633.588
788.457
803.01
740.128
683.799
658.798
639.38
649.791
742.776
937.433
1042.89
1042.95
875.181
439.755
419.15
414.878
406.221
370.459
348.365
339.777
336.609
336.026
336.473
337.834
339.926
344.363
353.739
372.086
408.383
482.336
632.153
786.56
807.892
760.217
703.647
673.495
635.331
623.384
686.145
865.405
1023.42
1051.47
913.63
442.253
425.261
422.475
415.687
403.628
363.838
348.268
342.447
340.535
340.347
341.718
344.333
349.706
360.197
380.255
418.944
492.073
628.011
782.473
814.968
786.879
738.191
705.047
638.387
612.973
645.438
788.17
990.877
1055.73
975.888
444.542
432.235
428.93
422.454
417.374
386.724
359.627
349.149
345.17
344.422
345.665
348.63
354.616
365.866
386.844
425.971
494.629
616.788
772.086
821.439
814.513
782.427
749.706
656.614
607.272
620.828
728.427
940.006
1052.99
998.115
447.595
438.641
434.982
428.659
425.641
415.752
375.587
357.765
351.045
349.026
350.059
353.217
359.542
371.176
392.451
428.873
493.275
603.923
754.457
822.858
831.063
815.045
780.496
683.662
605.079
600.86
687.654
888.547
1043.29
1031.14
452.045
445.12
440.308
435.783
432.577
427.584
400.092
369.308
358.18
354.377
354.573
357.615
363.868
375.171
394.669
427.904
485.696
584.382
723.186
813.343
833.062
821.533
787.308
692.504
603.814
585.367
653.359
840.06
1025.17
1045.97
455.818
450.784
446.6
443.362
439.358
435.654
426.351
385.734
367.327
360.95
359.7
362.111
367.76
378.068
394.99
423.638
472.095
555.856
678.56
779.582
816.906
809.074
777.865
688.816
597.109
576.456
630.914
804.324
1005.06
1066.58
460.88
457.583
452.086
450.273
446.031
442.7
437.986
412.9
379.822
368.9
365.678
366.901
371.41
380.04
394.252
416.836
453.973
517.259
615.59
712.421
765.631
760.742
731.367
655.642
577.715
564.528
617.002
780.931
984.497
1076.83
463.888
463.864
458.085
456.744
453.328
450.002
446.643
437.549
398.397
379.333
373.147
372.363
375.409
381.953
393.354
409.739
435.17
476.04
541.996
615.794
676.252
675.069
649.921
592.048
548.65
552.861
611.941
766.734
968.813
1081.95
466.145
467.97
464.56
463.719
460.911
457.83
454.982
450.258
432.463
394.794
382.592
379.257
380.454
384.689
393.224
404.87
420.083
442.209
476.206
513.974
565.529
573.929
560.041
530.581
522.772
544.292
611.629
759.763
957.791
1086.2
470.077
471.675
470.605
470.593
469.216
466.026
463.642
460.444
453.54
422.792
396.265
388.528
387.078
388.896
394.593
403.538
412.942
423.742
438.83
452.915
479.565
494.545
498.168
499.95
512.494
543.327
614.587
758.286
950.267
1091.01
473.127
477.423
476.832
477.605
477.42
475.135
473.276
470.689
467.529
457.16
420.429
402.634
397.181
396.233
398.999
404.899
412.004
418.841
427.121
435.108
449.699
465.598
478.928
490.306
511.012
547.938
624.979
761.374
947.646
1096.26
475.463
482.901
482.81
485.211
485.825
484.787
483.529
481.731
480.326
476.271
462.565
427.869
413.741
409.098
408.684
411.01
415.816
420.448
426.873
434.047
445.821
460.936
476.358
490.025
516.6
561.285
644.007
772.063
948.768
1101.99
479.165
487.491
489.564
492.879
494.284
494.569
493.697
492.082
493.802
492.206
486.962
472.983
447.21
432.589
428.07
426.446
428.11
430.828
436.095
443.086
454.183
467.36
482.367
499.721
534.126
587.111
670.823
790.255
954.169
1106.11
482.701
493.714
496.655
499.855
502.345
503.805
503.433
503.987
507.321
508.37
506.996
501.713
491.596
478.077
466.054
459.011
456.651
456.925
461.006
468.788
478.376
490.818
503.672
527.04
566.941
625.033
708.713
817.368
965.252
1111.63
485.698
499.905
503.557
506.729
509.93
512.198
512.956
514.683
518.356
524.041
526.718
526.075
522.816
518.1
514.813
512.04
509.613
507.833
510.926
517.264
524.113
534.091
545.839
574.309
616.715
675.905
757.286
854.257
982.789
1120.06
490.591
504.481
509.613
513.336
516.25
519.367
521.719
524.042
526.545
534.712
544.484
549.73
550.596
551.968
555.874
560.44
567.627
574.061
582.129
590.31
595.006
598.072
609.328
638.589
681.873
737.799
813.103
898.036
1004.23
1128.22
494.252
508.886
514.887
519.068
521.406
525.604
529.593
533.462
536.622
543.119
554.036
568.658
577.992
586.093
598.062
612.618
629.408
644.623
656.818
667.24
678.899
686.88
692.471
714.684
753.948
807.672
875.912
947.887
1029.04
1136.26
498.552
512.777
519.718
523.873
525.407
529.599
535.484
541.499
546.236
553.449
564.388
580.679
598.803
620.018
645.756
671.891
698.816
722.888
740.299
754.404
769.143
785.662
795.654
802.586
832.22
882.257
944.888
1003.3
1060.56
1139.92
501.282
515.479
524.036
528.12
528.816
532.255
539.506
548.294
554.156
563.112
576.545
596.307
621.413
651.854
692.826
734.37
773.647
808.642
834.152
854.226
871.075
890.301
904.476
903.767
918.484
962.885
1020.35
1064.4
1093.5
1152.8
504.512
517.923
526.969
532.525
531.851
534.981
542.474
553.437
561.518
571.753
588.932
612.165
644.198
684.296
733.667
789.798
845.609
895.379
931.57
958.189
977.359
995.955
1009.72
1011.81
1015.52
1047.44
1101.53
1135.63
1132.63
1131.34
506.602
519.044
527.904
535.582
534.49
536.979
544.352
556.32
568.323
580.185
599.436
626.439
664.83
713.79
771.427
838.219
908.79
973.074
1021.79
1053.48
1075.54
1093.82
1106.75
1114.53
1112.84
1134.89
1186.41
1216.61
1198.8
1153.88
825.308
819.334
810.943
806.709
800.761
796.928
792.021
787.992
784.481
781.177
777.399
773.655
769.583
766.584
765.254
765.058
767.85
771.359
777.693
785.964
796.47
808.016
818.211
831.114
842.297
853.481
864.52
875.495
886.854
898.318
909.75
921.223
932.23
942.389
951.456
958.864
964.556
968.808
971.393
971.531
969.315
963.527
954.724
942.535
927.966
912.521
896.225
879.872
862.494
844.065
825.64
807.75
789.87
772.369
755.703
739.791
724.61
710.031
695.506
681.44
668.518
657.012
646.807
637.711
629.614
622.46
615.916
609.91
604.431
599.41
594.82
590.468
586.151
581.726
577.076
572.061
566.65
561.007
555.289
549.592
544.034
538.698
533.659
528.906
524.417
520.111
516.001
511.981
508.137
504.523
501.39
498.579
496.389
494.364
492.535
490.693
488.648
486.638
484.553
482.313
480.434
477.977
476.338
474.501
473.077
472.16
471.64
471.03
470.698
470.893
472.281
475.655
478.721
480.768
481.965
484.43
487.495
492.355
500.424
502.984
503.586
504.434
505.489
506.717
507.041
1055.61
1030.84
1009.39
991.831
973.863
958.169
942.341
927.73
913.628
901.231
890.788
881.936
874.704
871.959
872.789
878.356
890.818
907.274
927.972
951.242
976.094
1002.31
1025.72
1051.13
1073.39
1093.47
1113.04
1132.28
1151.87
1171.67
1191.3
1211.18
1230.93
1249.88
1267.64
1283.8
1298.03
1310.1
1319.73
1326.44
1329.55
1328.63
1323.56
1313.03
1298.02
1279.16
1256.62
1230.56
1201.25
1169.07
1135.15
1101.09
1067.37
1033.53
1000.35
968.604
937.212
904.847
870.183
833.542
797.161
763.321
733.124
706.724
684.283
665.659
650.682
638.852
629.426
621.664
614.966
608.866
603.043
597.365
591.719
585.926
579.839
573.49
567.067
560.778
554.657
548.721
543.062
537.719
532.664
527.797
523.132
518.717
514.572
510.699
507.35
504.352
501.998
499.857
497.937
496.058
493.993
491.906
489.777
487.625
485.563
483.364
481.822
480.163
479.132
478.429
478.083
477.985
478.061
478.338
480.468
484.142
486.281
488.285
491.049
494.191
497.909
502.512
508.942
512.809
515.015
515.425
516.226
518.058
519.05
1421
1390.27
1359.36
1330.63
1302.82
1275.92
1248.25
1219.54
1190.11
1161.54
1136.17
1115.18
1099.1
1090.44
1088.76
1093.89
1107.5
1127.81
1155.63
1186.14
1217.7
1249.77
1280.23
1309.48
1335.96
1359.97
1382.44
1403.9
1424.89
1445.84
1466.05
1485.97
1505.5
1524.24
1541.78
1557.92
1572.5
1585.33
1596.25
1605.05
1611.16
1614
1613.44
1609.29
1600.93
1589.17
1574.15
1554.58
1531.7
1505.75
1476.99
1446.05
1413.27
1378.72
1343.46
1308.32
1272.28
1233.5
1188.28
1134.62
1074.87
1013.21
950.52
888.227
829.905
779.347
739.134
708.754
685.864
668.417
654.505
642.801
632.665
623.645
615.642
607.908
600.346
592.809
585.323
578.002
570.931
564.204
557.883
552.021
546.683
541.693
536.73
531.907
527.308
523.006
519.129
515.671
512.705
510.12
507.681
505.417
503.019
500.66
498.378
496.066
494.027
491.895
490.31
488.571
487.5
486.667
486.232
486.178
486.269
486.714
488.95
491.887
494.022
495.981
498.58
502.287
505.653
509.266
513.293
518.993
522.614
524.479
525.421
526.88
527.842
1762.12
1728.52
1694.51
1663.5
1632.46
1600.36
1566.9
1532.18
1496.51
1461.64
1429.18
1400.61
1377.11
1360.15
1351.95
1352.15
1361.04
1378.88
1404.26
1433.39
1464.37
1495.58
1525.24
1552.93
1577.96
1600.48
1621.11
1640.47
1659.09
1677.25
1695.2
1712.26
1728.48
1743.82
1758.14
1771.39
1783.43
1794.14
1803.43
1811.1
1816.87
1820.39
1821.57
1820.58
1816.29
1809.23
1799.56
1787.22
1772.38
1755.17
1735.8
1714.45
1691.22
1666.17
1639.66
1611.86
1582.65
1551.05
1514.98
1473.43
1427.72
1378.34
1319.7
1244.96
1154.93
1058.94
968.057
889.697
827.476
780.176
744.311
716.332
693.891
675.682
660.615
647.831
636.382
625.645
615.367
605.594
596.531
588.366
581.11
574.634
568.619
562.745
557.057
551.443
546.023
540.896
536.244
532.107
528.482
525.297
522.329
519.585
516.773
513.904
511.014
508.115
505.385
502.793
500.738
498.782
497.499
496.761
496.533
496.608
496.869
497.377
499.351
501.731
503.718
505.625
508.28
511.76
514.777
518.308
522.185
527.609
531.3
533.012
534.332
535.558
536.215
2034.45
2001.56
1964.87
1929.83
1897.18
1864.14
1830.36
1796.11
1761.68
1727.31
1694.58
1664.69
1638.91
1619.17
1607.29
1603.53
1607.94
1619.78
1638.44
1661.38
1686.04
1711.06
1735.21
1757.75
1778.19
1796.49
1812.99
1828.15
1842.39
1855.93
1868.89
1881.42
1893.24
1904.18
1914.25
1923.42
1931.72
1939.14
1945.56
1950.87
1954.83
1957.24
1958.02
1956.8
1953.28
1947.74
1940.4
1931.34
1920.65
1908.44
1894.84
1879.98
1863.9
1846.71
1828.49
1809.27
1788.98
1767.14
1742.9
1716.02
1686.47
1654.14
1616.69
1570.73
1513.3
1440.61
1350.98
1250.24
1150.13
1059.45
981.257
914.911
858.953
812.732
775.251
744.685
719.337
697.67
678.753
662.173
647.665
635.044
624.357
615.073
606.729
599.413
592.497
585.456
578.089
570.666
563.676
557.516
552.088
547.396
543.241
539.431
535.832
532.206
528.713
525.414
521.898
519.293
516.484
514.215
512.506
511.238
510.367
510.006
510.071
510.148
511.025
512.12
513.653
515.211
517.132
520.024
523.474
526.816
530.182
533.455
536.036
538.228
539.083
538.814
537.224
2236.19
2202.67
2167.68
2132.38
2097.47
2064.45
2030.74
1996.78
1963.13
1930.3
1899.47
1871.71
1848.19
1829.56
1816.78
1810.85
1811.48
1819.06
1831.31
1846.87
1864.47
1882.68
1900.26
1916.62
1931.42
1944.61
1956.35
1966.92
1976.62
1985.68
1994.22
2002.27
2009.93
2017.06
2023.55
2029.3
2034.3
2038.52
2041.97
2044.62
2045.97
2045.83
2044.02
2040.74
2036.35
2030.79
2024.02
2016.13
2007.26
1997.51
1986.96
1975.74
1963.68
1951.1
1937.81
1923.8
1908.89
1892.84
1875.42
1856.65
1836.21
1813.66
1787.88
1757.15
1719.47
1672.61
1615.92
1550.68
1479.71
1405.24
1328.77
1251.74
1175.86
1103.81
1037.79
978.884
927.055
881.653
841.754
806.452
775.074
747.465
723.059
701.815
684.117
669.197
656.474
645.504
635.25
624.662
613.291
602.092
591.972
583.07
574.883
567.566
561.69
556.545
552.047
547.476
543.061
539.843
536.104
532.934
531.184
528.785
526.797
526.18
525.45
524.546
524.877
525.333
525.991
527.186
528.953
531.459
534.234
536.753
538.548
539.238
539.792
540.34
540.393
539.912
538.721
2378.22
2343.22
2309.89
2276.23
2243.05
2209.17
2176.57
2143.98
2111.77
2080.52
2051.15
2024.72
2002.28
1984.66
1972.42
1965.96
1964.82
1968.72
1975.98
1986.28
1998.24
2010.74
2022.88
2034.15
2044.28
2053.21
2061.03
2067.92
2074.08
2079.71
2084.92
2089.75
2094.19
2098.24
2101.84
2104.84
2107.25
2108.87
2109.5
2109.03
2107.52
2104.98
2101.46
2097.11
2091.72
2085.51
2078.52
2070.9
2062.76
2054.17
2045.2
2035.87
2026.17
2016.09
2005.56
1994.48
1982.77
1970.33
1956.46
1941.57
1925.17
1906.74
1885.62
1861.07
1832.26
1798.25
1758.76
1714.03
1664.91
1612.16
1556.37
1497.97
1438.19
1378.11
1318.55
1260.36
1203.89
1149.33
1096.54
1045.8
998.289
954.282
913.649
876.486
842.942
812.837
786.741
764.359
743.75
725.267
708.322
691.802
674.578
657.166
640.631
625.261
611.393
599.407
589.528
580.511
572.322
565.869
560.997
555.837
553.007
550.147
546.083
544.414
543.751
541.592
540.53
540.563
540.387
540.916
542.861
544.864
546.254
546.788
546.585
545.903
545.422
545.214
544.978
544.983
545.043
2473.53
2436.2
2405.33
2373.58
2342.83
2311.87
2280.59
2250.22
2220.24
2191.1
2163.45
2138.31
2116.69
2099.48
2087.14
2079.79
2076.98
2077.57
2081.93
2088.44
2096.33
2104.61
2112.78
2120.37
2127.17
2133.12
2138.27
2142.73
2146.67
2150.19
2153.39
2156.27
2158.82
2160.97
2162.67
2163.75
2164.09
2163.58
2162.17
2159.86
2156.79
2152.94
2148.25
2142.66
2136.39
2129.83
2122.84
2115.57
2108.1
2100.45
2092.65
2084.68
2076.51
2068.1
2059.34
2050.03
2039.97
2029.06
2017.04
2003.87
1989.32
1973.15
1955.14
1934.3