/*--------------------------------*- C++ -*----------------------------------*\
| =========                 |                                                 |
| \\      /  F ield         | OpenFOAM: The Open Source CFD Toolbox           |
|  \\    /   O peration     | Version:  2112                                  |
|   \\  /    A nd           | Website:  www.openfoam.com                      |
|    \\/     M anipulation  |                                                 |
\*---------------------------------------------------------------------------*/
FoamFile
{
    version     2.0;
    format      ascii;
    arch        "LSB;label=32;scalar=64";
    class       volScalarField;
    location    "0.00739";
    object      k;
}
// * * * * * * * * * * * * * * * * * * * * * * * * * * * * * * * * * * * * * //

dimensions      [0 2 -2 0 0 0 0];

internalField   nonuniform List<scalar> 
13875
(
812.098
3462.66
3540.24
3538.95
3541.09
3539.81
3541.58
3543.87
3541.19
3539.61
3540.46
3541.25
3540.82
3540.08
3540.48
3541.19
3541.91
3541.16
3540.75
3540.23
3541.13
3539.02
3539.9
3460.77
820.624
881.787
2936.65
3012.94
3000.48
3000.81
2998.22
2997.05
2997.56
2996.26
2997.6
2997.66
2998.36
2996.75
2996.35
2996.2
2998.49
2996.23
2997.08
2996.98
2998.61
3000.43
2999.3
3011.52
2934.49
894.57
993.351
2710.87
2777.41
2755.31
2758.52
2754.97
2745.56
2743.25
2742.04
2743.43
2742.38
2744.58
2751.77
2752.19
2750.88
2744.62
2741.19
2742.67
2745.32
2755.12
2757.66
2753.17
2774.42
2707.38
998.303
1091.05
2533.7
2580.96
2561.55
2566.51
2562.95
2552.05
2549.67
2548.22
2547.53
2546.76
2548.66
2559.63
2560.05
2558.85
2548.62
2547.29
2547.53
2551.16
2562.93
2565.49
2559.39
2579.08
2530.15
1093.77
1172.08
2380.48
2413.15
2392.95
2397.85
2394.17
2383.03
2381.04
2379.86
2378.88
2378.73
2379.72
2390.6
2391.44
2389.89
2379.71
2379.15
2379.03
2382.35
2393.94
2396.79
2391.15
2410.45
2375.84
1177.12
1240.98
2237.12
2270.91
2245
2250.99
2245.81
2233.72
2231.94
2230.65
2229.56
2230.11
2230.26
2241.11
2242.35
2240.5
2230.17
2230.45
2229.93
2233.08
2245.68
2249.96
2243.72
2267.9
2247.23
1246.96
1320.96
2121.8
2158.31
2120.39
2122.91
2115.79
2101.95
2099.95
2098.2
2096.89
2098.01
2097.44
2108.36
2109.76
2107.54
2097.21
2098.52
2097.7
2101.54
2115.49
2121.7
2119.75
2154.1
2095.46
1323.14
1409.76
2000.69
2073.5
2019.65
2016.01
2002.81
1986.3
1982.81
1980.24
1978.9
1980.58
1979.14
1990.24
1991.98
1989.45
1978.8
1981.39
1980.57
1985.42
2002.14
2013.95
2017.95
2068.36
1992.64
1420.21
1691.47
2029.45
2021.93
1944.38
1924.73
1905.26
1885.39
1879.87
1876.09
1874.4
1876.91
1874.81
1886
1888.1
1885.42
1874.64
1878.07
1877.24
1883.31
1903.77
1922.39
1942.19
2017.87
2033.5
1716.75
2509.34
2285.46
2018.11
1901.11
1858.93
1827.52
1804.56
1797.1
1792.38
1790.74
1793.33
1790.96
1801.75
1804.15
1801.58
1792.01
1794.95
1795.14
1801.33
1824.59
1855.53
1891.45
2011.35
2266.11
2529.76
3877.83
3027.91
2153.54
1915.86
1815.22
1774.3
1747.53
1735.2
1729.39
1727.87
1729.91
1727.44
1737.31
1740.01
1738.26
1731.17
1733.3
1735.22
1744.94
1768.38
1813.2
1907.04
2129.37
2936.29
3858.51
5187.6
6461.68
2855.94
1995.57
1855.06
1758.56
1714.25
1696.4
1688.14
1686.1
1686.84
1684.58
1692.68
1695.74
1695.26
1691.03
1693.12
1698.19
1712.17
1757.53
1846.41
1972.9
2788.26
6314.22
5119.84
5059.87
7635.19
7057.05
3335.79
2044.19
1799.92
1742.18
1700.48
1684.05
1677.93
1675.67
1672.9
1678.65
1682.04
1683.5
1683.52
1690.33
1706.71
1746.55
1805.09
2088.51
3229
6760.24
7646.98
5009.25
4830.41
6373.14
7189.13
8722.92
5159.91
2319.27
1896.63
1783.49
1748.46
1745.18
1743.17
1740.64
1745.3
1748.68
1751.4
1754.01
1758.92
1792.57
1938.92
2475.01
5624.88
8144.5
6956.74
6329.38
4831.64
4608.31
5528.12
6050.06
6982.62
6856.69
6664.86
3381.51
2380.56
2134.12
2041.03
2001.65
1987.16
1987.22
1991.95
2003.39
2034.65
2122.93
2385.58
3579.67
6863.56
6844.63
6700.47
5965.59
5488.29
4680.3
4298.26
4810.78
5119.16
5876.7
6077.13
6569.39
5567.39
5154.23
4868.95
4225.86
4302.6
4354.9
4400.61
4388.96
4326.93
4225.91
4768.93
5438.71
5654.92
6652.7
6010.06
5702.62
5071.69
4780.05
4364.79
3735.55
4051.88
4345.83
5069.37
5610.48
6530.38
7364.39
7655.87
6761.42
6262.73
6539.27
6768.6
6904.11
6855.13
6622.33
6586.29
6755.91
7646.28
7453.02
6548.56
5479.09
4904.27
4232.7
3966.04
3721.8
3069.07
3411.09
3950.31
4856.75
5533.11
6130.2
7138.32
7883.44
6526.97
5440.01
5222.23
5250.24
5324.55
5290.94
5281.48
5750.76
6490.38
7553
7173.68
6259.74
5562.5
4819.39
3873.54
3349.16
3028.85
2634.67
3159.25
3843.93
5103.81
6018.62
5769.32
6086.96
6830.06
6141.9
5149.5
4691.49
4564.72
4554.04
4608.84
4780.23
5275.39
5942.9
6552.45
6143.66
5900.75
6264.39
5208.97
3870.49
3151.22
2637.17
2506.69
3355.26
4071.31
5307.39
5822.16
5296.89
5244.97
5763.12
5597.96
4946.13
4412.8
4096.9
3989.01
4163.61
4532.91
5004.26
5376.52
5546.72
5289.98
5421.57
5955.31
5297.68
4136.07
3405.38
2510.85
4929.09
7063.27
5808.52
4855.99
5039.87
4655.55
4575.22
5006.73
5069.5
4620.54
4074.08
3658.71
3511.11
3761.22
4223.18
4657.43
4860.21
4837.12
4618.76
4762.37
5141.87
4929.69
6226.5
7522.92
5621.66
11355.4
21708.9
7110.95
4230.31
4339.92
4099.84
4052.98
4426.85
4574.29
4243.28
3713.05
3260.16
3097.99
3370.64
3857.96
4258.21
4378.01
4299.8
4086.91
4178.86
4403.05
4316.5
7690.32
21778.5
12338.7
12611.6
16072.6
6245.04
3766.93
3797.39
3650.17
3613.41
3952.67
4120.78
3850.05
3351.12
2907.14
2740.92
3002.28
3476.97
3852.37
3934.45
3851.3
3640.98
3698.68
3830.06
3826.51
6425.11
16089.7
12606.9
11903.3
15743.3
5293.46
3419.53
3359.74
3256.21
3236.24
3538.38
3709.79
3468.43
2998.28
2585.57
2438.49
2682.01
3127.78
3480.42
3540.37
3449.49
3268.78
3304.64
3394.82
3489.1
5501.73
16651
12008.9
11479.2
15362.7
4724.38
3154.76
3023.55
2928.93
2928.53
3188.69
3342.82
3124.1
2693.69
2315.83
2184.41
2405.95
2820.01
3144.12
3194.03
3105.82
2955.02
2977.85
3065.88
3227.04
4980.77
16744.2
11670.5
11166.8
15548.7
4339.18
2912.96
2754.06
2654.43
2675.52
2891.69
3019.56
2818.96
2430.48
2087.73
1968.92
2167.36
2542.23
2836.96
2886.5
2808.5
2685.45
2693.31
2795.16
2972.99
4543.66
16650.5
11487.2
11082.3
14723.3
3944.35
2695.59
2532.18
2425.99
2459.77
2633.92
2725.28
2537.33
2193.7
1891.43
1786.75
1968.13
2307.89
2571.93
2623.42
2559.32
2459.01
2462.84
2582.8
2762.2
4176.32
16044
11364.9
10951.1
14292.9
3689.77
2517.46
2354.11
2242.29
2276.66
2414.5
2475.44
2299.32
1994.96
1725.7
1630.69
1793.84
2097.04
2334.29
2390.93
2343.23
2265.94
2271.62
2399.1
2574.77
3907.98
15733
11234.5
10710.8
14125.7
3511.23
2365.97
2205.65
2095.89
2119.09
2222.9
2256.56
2092.92
1824.81
1584.13
1496.72
1642.27
1910.45
2121.48
2184.77
2155.05
2099.39
2112.99
2238.61
2411.34
3658.49
14780.9
11143.9
10508.5
13354.3
3352.53
2237.95
2067.65
1971.47
1985.15
2052.92
2058.56
1903.85
1668.92
1458.52
1380.74
1514.92
1756.51
1944.89
2009.63
1994.34
1959.82
1980.88
2099.24
2280.53
3504.61
14186.2
10928.3
10203.1
12368.2
3218.38
2136.39
1950.56
1860.96
1867.93
1906.05
1890.74
1746.78
1539.8
1351.8
1280.33
1401.04
1615.82
1783.55
1852.71
1853.49
1839.21
1862.63
1970.91
2170.56
3335.18
13136.1
10679.4
9926.08
11779.5
3124.87
2061.2
1844.35
1759.51
1763.06
1779.17
1748.12
1612.65
1427.81
1258.76
1192.72
1301.17
1493.95
1646.03
1717.1
1730.66
1731.81
1754.89
1856.7
2084.93
3196.51
12115.6
10438.8
9700.66
10785.9
3011.94
2004.88
1753.81
1670.15
1665.08
1663.52
1616.86
1490.03
1326.47
1175.74
1116.28
1216.33
1391.04
1527.65
1599.76
1623.98
1634.01
1660.97
1760.89
2021.09
3098.63
11429.2
10138.8
9458.04
10026.7
2899.98
1964.43
1682.48
1590.7
1573.13
1562.31
1506.3
1387.34
1239.95
1103.52
1048.64
1138.99
1297.31
1422.29
1494.36
1528.18
1543.36
1577.47
1682.23
1970.27
3000.2
10632.4
9861.05
9230.77
9486.92
2781
1933.94
1635.68
1518.16
1490.91
1470.68
1408.58
1296.83
1164.2
1039.72
989.254
1071.36
1214.79
1329.03
1401.26
1440.32
1461.28
1502.8
1628.18
1938.84
2883.69
10010.7
9600.01
9000.93
8891.12
2663.54
1907.4
1603.68
1455.56
1414.89
1384.6
1320.78
1215.39
1094.23
981.827
935.998
1012.02
1144.61
1249.87
1319.75
1360.13
1388.75
1438.72
1591.55
1917.28
2777.45
9550.64
9364.83
8787.32
8491.33
2561.18
1912.97
1586.98
1404.77
1349.13
1308.69
1242.43
1144.84
1034.44
931.168
888.716
957.889
1079.25
1176.5
1244.04
1287.05
1323.78
1384.35
1568.66
1915.38
2652.78
8928.8
9135.16
8563.29
8277.42
2465.25
1903.39
1584.03
1369.68
1289.04
1239.92
1173.2
1082.61
980.837
885.503
846.086
909.325
1021.61
1111.66
1175.87
1221.79
1264.72
1346.61
1561.9
1908.34
2527.6
8498.24
8922.91
8323.96
7909.73
2349.19
1856.01
1595.12
1347.51
1238.6
1178.27
1108.91
1024.42
931.247
843.92
807.921
866.996
971.015
1054.09
1115.47
1164.21
1214.53
1320.45
1569.97
1872.84
2410.05
8290.86
8711.06
8108.64
7681.48
2241.34
1803.58
1628.47
1337.97
1199.59
1125.38
1054.08
974.272
887.343
806.367
773.052
827.224
923.89
1001.31
1060.56
1113.8
1175.71
1307.05
1581.7
1814
2301.01
8083.29
8445.95
7938.13
7510.24
2167.1
1745.74
1656.92
1345.12
1171.83
1082.32
1005.67
928.961
847.683
772.279
741.488
791.506
880.933
953.721
1012.32
1071.81
1149.27
1304.4
1631.07
1759.5
2213.35
7961.24
8185.09
7778.56
7313.79
2081.58
1672.3
1633.97
1361.75
1152.13
1050.23
964.231
887.391
810.471
740.599
712.345
759.198
843.619
912.47
972.067
1040.49
1129.82
1319.39
1646.95
1706.66
2239.77
7788.68
7973.39
7630.3
7158.91
2016.1
1600.49
1587.43
1414.93
1144.9
1026.24
931.462
852.212
777.837
712.202
685.757
729.06
808.092
874.662
937.848
1017.45
1119.41
1350.14
1607.75
1633.42
2153.98
7583.32
7800
7508.41
6999.97
2047.74
1537.84
1527.61
1450.23
1158.48
1008.09
907.974
822.618
748.772
686.148
661.134
701.47
776.564
842.613
911.868
1000.7
1129.25
1421.58
1551.06
1563.47
2114.63
7396.62
7657.96
7383.44
6858.06
1985.35
1474.98
1458.7
1432.79
1194.51
999.198
887.8
798.74
723.455
662.656
638.909
677.327
750.086
817.634
892.017
992.511
1175.83
1448.47
1485.33
1509.54
2136.89
7241.86
7544.63
7260.69
6699.13
2012.36
1428.76
1389.8
1384.42
1272.81
1013.64
874.836
782.503
704.689
643.185
619.486
656.484
729.263
799.052
876.967
1001.19
1256.28
1403.48
1417.49
1453.66
2109.49
7088.14
7434.21
7138.14
6555.44
2056.31
1397.46
1331.33
1330.83
1299.67
1071.99
871.285
768.009
690.778
628.867
603.034
640.962
713.639
783.71
868.623
1054.93
1293.68
1349.33
1356.42
1413.7
2113.2
6917.57
7311.57
6945.7
6379.61
2041.58
1365.25
1281.67
1276.41
1258.68
1159.15
895.709
757.051
678.54
617.848
590.854
629.455
701.074
772.37
888.225
1145.95
1256.96
1290.76
1305.51
1393.91
2150.67
6697.37
7109.09
6695.48
6150.4
2041.73
1344.28
1239.54
1222.46
1214.34
1193.45
972.475
760.023
669.319
608.81
582.263
619.822
690.134
769.205
945.356
1197.44
1214.82
1231.99
1259.21
1370.4
2121.15
6440.3
6852.6
6111.7
5742.46
2025.51
1325.26
1203.35
1175.49
1166.42
1155.99
1055.61
799.526
667.424
601.108
574.614
611.222
684.967
795.183
1043.2
1169.67
1168.87
1180.68
1218.06
1346.1
2077.32
6001.96
6254.24
1329.48
2682.03
3331.86
3112.69
2648.4
2258.42
1986.14
1851.59
1855.03
1938.57
2011.3
1970.31
1687.75
1352.24
1077.78
885.413
782.538
738.884
731.498
754.263
841.743
1139.97
1541.89
1632.89
1613.02
1564.54
1520.54
1400.54
1200.15
784.538
1561.9
2887.97
3358.07
3000.98
2496.44
2111.72
1871.07
1765.08
1778.99
1843.62
1893.48
1874.86
1652.11
1329.71
1052.3
864.306
766.168
724.397
723.148
771.15
981.432
1448.07
1586.2
1587.39
1549.71
1494.7
1450.53
1334.09
1152.07
778.18
1733.71
3090.23
3372.16
2885.4
2362.73
1996.15
1782.73
1699.33
1733.64
1793.12
1822.39
1795.47
1574.23
1254.11
992.817
827.294
742.186
710.568
726.461
848.131
1234.56
1482.45
1502.24
1481.52
1448.39
1407.63
1367.25
1256
1093.85
766.055
1925.87
3294.12
3351.91
2764.42
2220.22
1878.82
1708.48
1649.68
1698.45
1750.87
1762.8
1730.4
1506.56
1187.28
946.865
799.141
726.338
709.882
774.993
1049.71
1368.5
1436.44
1424.67
1394.38
1365.55
1332.13
1290.58
1185.43
1039.51
754.563
2102.34
3431.71
3307.08
2646.21
2101.51
1788.6
1657.55
1623
1676.28
1729.13
1731.31
1681.05
1432.69
1118.04
899.872
774.16
721.993
747.851
932.137
1237.01
1354.64
1370.87
1353.05
1321.64
1292.09
1261.88
1219.96
1122.26
990.281
742.657
2275.32
3572.13
3264.36
2532.95
1996.12
1718.57
1615.64
1594.41
1663.59
1730.87
1721.61
1640.29
1347.27
1055.02
863.263
767.76
761.621
891.278
1141.49
1256.66
1305.28
1308.44
1288.43
1255.82
1227.82
1200.16
1157.65
1068.52
947.52
730.005
2427.75
3700.76
3213.04
2427.71
1911.35
1667.91
1574.03
1562.27
1651.04
1747.9
1723.11
1595.35
1271.93
1011.79
857.463
821.826
920.111
1096.22
1181.21
1228.59
1256.17
1251.51
1228.81
1196.03
1171.3
1143.84
1103.37
1021.38
907.813
717.821
2573.64
3822.35
3168.86
2342.18
1853.3
1629.26
1529.51
1530.94
1647.69
1752.85
1721.19
1536.02
1239.3
1025.45
939.308
1003.43
1106.24
1142.6
1170.98
1199.42
1212.64
1200.84
1175.42
1143.47
1121.51
1094.9
1056.03
977.933
867.978
704.391
2719.34
3924.02
3132.72
2303.07
1836.72
1604.19
1504.49
1517.93
1638.04
1748.22
1735.71
1541.18
1310.98
1163.3
1144
1151.82
1147.15
1143.63
1156.94
1172.95
1174.03
1155.72
1128.17
1096.5
1078.52
1051.31
1012.48
935.688
828.539
690.333
2876.49
4016.46
3137.2
2314.86
1859.46
1638.94
1554.29
1576.22
1696.48
1801.02
1785.61
1641.12
1456.28
1318.05
1242.5
1192.28
1156.47
1145
1145.8
1149
1139.75
1115.72
1086.51
1057.78
1039.17
1011.27
969.711
893.588
791.52
676.558
3034.86
4133.87
3193.04
2389.9
1965.14
1772.13
1703.09
1738.55
1849.7
1893.31
1819.74
1684.99
1524.7
1413.97
1312.16
1234.33
1181.46
1154.82
1139.77
1128.6
1109.13
1078.54
1046.51
1021.38
1002.9
972.662
927.847
854.973
759.923
663.996
3201.07
4302.48
3328.09
2559.53
2187.21
2029.16
1955.83
1952.39
1984.14
1972.83
1919.44
1836.88
1710.73
1582.14
1440.86
1320.2
1232.24
1176.9
1141.33
1113.76
1083.02
1044.27
1009.54
989.874
970.439
937.971
890.893
820.852
731.829
652.054
3391.29
4552.48
3572.18
2842.28
2509.52
2354.85
2315.54
2330.75
2350.62
2350.7
2320.52
2239.69
2087.42
1883.42
1660.96
1464.24
1314.63
1213.29
1150.08
1104.5
1059.15
1014.95
982.909
963.894
942.734
906.659
858.499
790.343
706.218
640.266
3627.68
4920.02
3947.92
3230.86
2928.57
2837.91
2873.75
2941.86
3000.22
3042.5
3017.47
2898.18
2664.04
2347.8
1995.31
1676.78
1432.36
1268.23
1170.01
1098.81
1039.27
989.735
962.884
942.671
918.385
878.507
829.128
762.888
682.27
628.059
3935.08
5433.97
4442.65
3724.86
3496.61
3535.47
3675.1
3832.66
3969.71
4053.76
4019.64
3835.49
3477.35
2993.94
2450.27
1959.09
1584.69
1344.66
1197.13
1096.77
1024.39
975.607
948.552
925.594
894.876
852.261
802.53
738.042
659.496
615.509
4338.38
6092.85
5038.07
4387.8
4293.01
4472.35
4760.49
5047.67
5284.78
5414.69
5355.67
5057.33
4506.29
3785.39
3001.71
2299.6
1776.21
1437.85
1229.31
1099.39
1012.49
967.25
938.037
907.427
872.547
828.946
778.399
714.642
637.693
602.956
4858.85
6877.28
5790.37
5258.17
5301.07
5666.51
6131
6549.91
6868.65
7003.3
6863.04
6382.01
5588.44
4608.01
3594.11
2690.4
1999.9
1543.58
1267.64
1106.13
1011.74
962.846
926.51
889.121
851.93
807.793
756.358
692.245
616.737
590.248
5471.03
7798.94
6725.84
6280.31
6480.52
7010.14
7598.92
8106.15
8440.78
8511.24
8217.85
7523.72
6532.9
5380.61
4199.68
3111.28
2250.44
1662.98
1315.49
1121.27
1016.86
957.977
912.157
871.889
833.215
788.377
735.936
670.97
597.029
578.359
6163.82
8867.66
7763.37
7392.2
7690.1
8295.52
8929.47
9473.14
9768.19
9726.61
9260.96
8410.32
7308.27
6062.8
4773.12
3545.27
2526.54
1810.54
1378.86
1145.34
1022.28
950.405
898.134
855.888
816.025
770.113
716.711
651.192
579.374
567.537
6925.37
10007.6
8856.16
8497.88
8811.75
9432.51
10090.4
10624.2
10841.7
10657.4
10029.7
9073.26
7911.04
6631
5291.85
3980.75
2837.24
1985.05
1454.62
1171.36
1026.79
941.967
885.353
841.077
799.828
752.583
698.267
632.859
563.245
557.097
7784.98
11137.1
9941.78
9559.58
9879.5
10498.6
11136.6
11615.9
11742.6
11415.3
10657.1
9617.68
8410.27
7114.97
5759.01
4408.41
3162.86
2175.1
1542.65
1203.49
1033.09
935.599
873.867
827.259
784.372
735.833
680.662
615.397
547.767
546.752
8720.21
12433.3
10962
10594.7
10969.3
11626.7
12244.6
12644.6
12648.9
12179
11301.1
10159.8
8886.62
7547.08
6164.45
4792.39
3482.92
2391.86
1655.41
1248.16
1044.18
931.71
863.653
814.301
769.649
719.435
663.62
598.306
532.989
536.958
9547
13408.7
11905.8
11713.3
12206.3
12927.7
13532
13865.1
13723.6
13101.9
12076.5
10787.9
9399.39
7965.41
6539.01
5159.91
3834.1
2661.95
1803.99
1309.03
1060.84
930.545
855.276
802.154
755.252
703.701
647.052
582.124
518.916
527.544
10140.7
15130.7
13150.2
13129.3
13718.5
14471.3
15062.8
15345.7
15065.2
14272.6
13055.9
11576
10026.4
8466.86
6979.9
5582.61
4236.84
2986.43
1992.17
1387.78
1084.86
932.54
848.446
790.914
741.731
688.691
631.085
566.953
505.8
518.812
10128.1
15749.8
15678.8
15335.6
15696.7
16357.3
16903.6
17139.4
16722.5
15738.5
14295.3
12589.5
10838.2
9117.47
7526.21
6064.57
4671.73
3345.94
2221.96
1489.55
1117.54
938.545
843.429
781.28
728.992
673.911
616.274
553.282
493.964
511.153
784.649
1206.15
1408.34
1533.09
1581.7
1629.8
1647.46
1534.12
1112.47
834.211
753.682
733.373
743.466
792.145
903.544
1108.27
1397.43
1740.91
2012
2044.95
1969.64
1882.03
1882.83
2026.29
2308.93
2711.92
3191.23
3426.18
2758.06
1365.22
778.176
1157.48
1340.59
1461.25
1511.08
1563.89
1600.37
1594.63
1434.77
966.686
768.202
724.444
729.201
776.102
882.326
1082.31
1375.6
1699.3
1911.41
1926.75
1874.61
1805.86
1794.36
1907.06
2156.4
2555.82
3079
3454.17
2966.55
1602.63
766.387
1098.93
1261.08
1374.19
1417.68
1459.47
1490.03
1512.93
1485.76
1221.1
841.648
726.629
715.089
751.609
844.369
1020.73
1296.31
1618.67
1833.04
1856.24
1824.96
1760.54
1726.05
1814.66
2035.65
2418.2
2962.18
3469.05
3178.3
1778.3
754.878
1043.1
1188.34
1295.41
1339.32
1372.8
1403.45
1433.14
1445.27
1369.54
1041.37
773.837
714.179
735.29
814.986
972.888
1227.53
1550.47
1770.43
1797.87
1784.72
1725.37
1673.35
1737.17
1915.11
2272.38
2840.07
3450.44
3392.38
1973.33
743.131
992.617
1122.78
1221.45
1267.13
1297.08
1326.46
1358.33
1377.4
1358.91
1239.9
932.546
752.952
730.417
788.911
924.078
1157.57
1478.85
1727.89
1768.49
1763.12
1702.53
1644.29
1682.45
1822.98
2150.46
2717.14
3404.92
3535.09
2154.72
730.707
949.188
1068.38
1157.75
1203.3
1231.87
1257.61
1290.75
1311.2
1307.67
1262.47
1147.12
903.662
773.501
783.788
886.79
1095.35
1397.33
1695.86
1761.73
1763.96
1687.64
1614.93
1639.03
1750.62
2043.41
2600.39
3356.9
3679.48
2331.73
718.711
909.169
1020.97
1102.55
1146.65
1175.22
1196.39
1229.49
1251.63
1255.86
1231.9
1187.23
1107.67
942.99
846.068
886.633
1055.68
1333.54
1653.78
1767.31
1779.32
1670.87
1582
1599.53
1700.02
1956.32
2493.42
3304.61
3812.95
2490.56
705.528
869.457
977.694
1055.11
1097.42
1125.23
1143
1175.33
1199.76
1210.54
1198.99
1174.77
1149.59
1120.11
1039.25
982.901
1079.79
1319.03
1609.89
1777.65
1791.3
1669.53
1551.6
1556.05
1661.56
1897.67
2408.42
3258.65
3936.81
2644.03
691.783
830.103
935.803
1012.07
1054.07
1081.38
1099.15
1127.91
1154.4
1171.15
1170.41
1158.95
1146.89
1155.63
1170.52
1189.16
1232.23
1406.07
1642.63
1822.84
1817.13
1685.57
1560.42
1545.66
1641.93
1883.21
2371.25
3223.61
4040.4
2797.03
678.495
793.336
894.397
970.131
1014.65
1042.87
1059.62
1086.72
1114.87
1136.81
1145.53
1147.41
1147.57
1164.96
1209.55
1271.45
1360.62
1529.62
1736.82
1890.74
1896.51
1775.09
1649.55
1620.67
1700.54
1918.26
2390.64
3233.42
4136.83
2962.33
666.217
761.673
856.309
928.787
975.877
1007.64
1024.73
1049.16
1079.34
1106.63
1125.38
1141.45
1159.97
1193.63
1261.4
1348.96
1456.72
1585.31
1749.03
1889.96
1965.59
1918.98
1806.16
1775.16
1852.3
2044.63
2482.31
3300.94
4264.21
3127.94
653.937
733.583
822.605
892.378
940.207
975.164
993.939
1014.04
1047.58
1081.89
1112.85
1143.62
1187.17
1251.96
1362.93
1500.15
1649.99
1788.96
1920.14
2002.86
2056.94
2059.97
2031.7
2041.69
2122.25
2288.01
2673.45
3457.81
4449.01
3305.22
641.603
708.174
792.549
860.605
909.025
947.721
969.151
987.588
1021.12
1062.55
1107.52
1157.91
1231.25
1347.77
1529.09
1754.21
1995.35
2211.89
2369.71
2448.52
2473.2
2464.82
2443.88
2429.71
2466.6
2626
2978.03
3734.31
4728.03
3511.45
629.048
684.391
765.571
832.484
882.65
923.982
949.003
969.045
998.98
1048.12
1109.33
1184.49
1296.03
1483.43
1770.74
2133.13
2518.31
2853.05
3093.2
3210.06
3225.75
3167.51
3096.71
3025.24
2984.84
3065.99
3382.05
4141.02
5136.65
3773.05
616.659
661.858
740.964
806.961
857.942
900.734
932.081
956.481
984.472
1037.61
1114.75
1222.49
1383.96
1660.86
2088.36
2641.06
3234.32
3749.02
4117.18
4298.05
4320.17
4213.03
4053.29
3877.79
3726.33
3673.13
3900.04
4653.38
5696.37
4116.68
604.222
640.244
717.732
783.207
835.096
878.692
913.666
946.729
977.688
1029.89
1123.64
1266.74
1494.04
1879.24
2468.84
3247.26
4097.37
4864.46
5434.15
5731.89
5778.15
5620.87
5349.54
5030.04
4716.91
4522.85
4608.81
5274.26
6388.66
4567.43
591.593
619.482
695.657
761.147
813.888
857.876
895.377
934.718
974.418
1029.51
1135.83
1315.3
1621.57
2132.61
2902.15
3891.26
4978.37
6011.02
6833.83
7321.27
7453.27
7291.14
6936.31
6474.87
5978.57
5586.73
5528.3
6081.66
7211.06
5131.85
579.698
599.703
674.617
740.592
794.098
838.683
877.894
919.988
970.265
1035.34
1152.94
1368.79
1757.68
2409.2
3355.24
4529.48
5784.15
6987.56
8008.34
8714.6
9008.72
8921.41
8551.17
7999
7380.52
6821.93
6603.57
7062.88
8192.68
5784.08
568.247
581.667
654.743
721.204
775.37
821.131
861.115
905.27
962.059
1042.44
1174.92
1430.57
1907.74
2701.52
3803.92
5106.17
6457.24
7751.26
8888.38
9760.94
10236.7
10274.4
9950.49
9363.72
8698.33
8070.77
7761.16
8152.1
9313.02
6517.75
556.806
564.965
636.009
702.673
757.651
804.929
845.831
891.619
952.622
1046.74
1202.9
1508.64
2081.01
3006.83
4225.43
5595.91
6983.9
8310.13
9513.99
10503.4
11154
11348.8
11117.8
10554.8
9865.47
9222.92
8902.71
9286.97
10495.6
7318.56
546.061
549.116
618.526
685.078
740.828
789.71
832.471
879.995
945.693
1051.49
1235.64
1597.89
2270.77
3319.84
4620.66
6017.9
7416.74
8759.12
10014.5
11097.1
11891.4
12242.7
12116.6
11618.9
10950.9
10310.9
9989.34
10407.2
11676.8
8223.94
536.48
534.559
601.903
668.16
724.568
775.385
820.332
870.7
942.103
1061.6
1279.52
1707.74
2484.22
3625.26
4975.23
6383.31
7807.37
9197.98
10526.5
11720.2
12644.9
13147.8
13156.9
12750.9
12106
11425.1
11043.6
11456.9
13029.9
9167.3
527.516
521.203
586.145
651.971
708.857
761.514
809
863.195
941.471
1078.07
1337.71
1851.01
2742.28
3950.27
5305.74
6715.46
8185.77
9679.48
11136
12490.7
13570.7
14234.6
14394.8
14059.5
13429.8
12681.7
12177
12410.9
14034.8
10012.5
519.17
508.677
571.321
636.457
694.103
748.036
798.286
856.65
943.324
1100.28
1412.91
2035.46
3052.68
4325.01
5690.38
7115.22
8646.84
10276.6
11909
13470.2
14752.3
15593.2
15895.8
15613.9
14993.9
14216.7
13616.6
13676.2
15793.7
10630.8
512.108
497.783
557.909
621.85
680.357
735.58
788.869
851.776
948.68
1131.79
1512.82
2265.4
3403.81
4740.82
6142.46
7628.03
9264.47
11067.5
12914.9
14717.7
16239.7
17271.1
17715
17480.8
16897.9
16214.5
15851
16239.6
16401.9
10584.8
3391.33
2951.89
2513.98
2123.62
1811.18
1564.08
1375.72
1234.76
1131.74
1059.87
1013.71
994.21
997.434
1024.59
1076.84
1159.17
1293.01
1493.79
1774.27
2139.36
2590.15
3106.92
3667.85
4250.28
4816.52
5350.89
5837.6
6270.87
6664.81
7011.26
7297.7
7522.7
7678.93
7766.5
7806.85
7821.11
7795.25
7720.52
7590.14
7400.4
7149.37
6841.68
6479.76
6074.6
5635.14
5177.22
4715.3
4255.15
3806.49
3377.2
2975.1
2607.53
2279
1991.06
1742.57
1530.82
1351.75
1200.97
1074.42
968.392
879.961
805.987
744.22
692.99
650.639
615.521
586.161
561.452
540.706
523.528
509.622
498.54
489.65
482.357
476.265
471.11
466.621
462.537
458.7
455.107
451.881
449.171
447.048
445.5
444.441
443.755
443.317
442.991
442.664
442.236
441.723
441.189
440.721
440.477
440.49
440.608
440.791
441.097
441.636
442.345
443.464
445.351
447.745
450.768
453.934
457.081
460.163
463.269
466.875
471.143
476.977
482.789
487.779
488.403
489.211
491.213
495.541
497.084
495.187
494.027
494.018
495.569
498.487
501.501
506.621
12844.1
11673.1
10187.8
8732.75
7492.7
6445.08
5607.16
4942.7
4419.57
4019.41
3727.51
3544.59
3462.05
3488.01
3626.62
3920.22
4411.17
5132.11
6130.79
7428.33
9027.73
10883.7
12888.6
14951.6
16990.1
18943.4
20758.4
22409.7
23888.1
25188.3
26306.5
27234.3
27958.2
28489.4
28797
28873.8
28774.1
28484.4
28000.2
27338
26509.7
25533.4
24426.8
23211.1
21913.6
20562.3
19181.2
17764.7
16336.2
14920
13535.9
12194.8
10909.1
9691.41
8551.28
7494.85
6528.84
5653.55
4867.46
4167.86
3554.78
3024.04
2572.98
2197.33
1890.55
1643.88
1446.89
1290.09
1165.7
1067.08
988.717
926.192
875.921
834.541
799.187
767.75
738.913
711.984
686.626
662.74
640.333
619.467
600.188
582.403
565.946
550.593
536.222
522.697
510.015
498.175
487.211
477.12
467.851
459.303
451.411
444.101
437.39
431.305
425.897
421.166
417.233
414.602
412.676
411.479
410.865
410.587
410.585
410.913
411.977
415.193
423.239
434.329
441.927
443.111
444.503
449.01
459.316
464.703
463.756
463.817
465.011
468.087
473.961
481.432
488.99
24461.1
22759.8
20304.4
17820.9
15571.6
13620
11991
10658
9586.84
8746.61
8121.61
7699.7
7485.32
7495.57
7744.41
8318.45
9306.27
10778.1
12794.8
15365.7
18439.2
21905.4
25590.6
29324.7
32942.7
36361.5
39495.7
42314.3
44790.6
46918.6
48701.3
50140
51236.7
52014.1
52490.6
52614.8
52369.7
51871.6
51114.4
50106.4
48863.2
47405
45759.9
43962.6
42046.2
40036.6
37953.6
35806.2
33617.5
31412.9
29215.7
27049.5
24930.5
22876.4
20899
19009.1
17212.9
15512.2
13907.7
12394.3
10966.6
9618.96
8358.91
7201.02
6152.69
5215.95
4393.58
3689.3
3102.8
2629
2256.74
1970.19
1750.83
1580.98
1446.66
1338.02
1248.34
1172.79
1107.68
1050.21
998.415
951.004
907.192
866.532
828.807
793.82
761.486
731.61
703.983
678.458
655
633.527
613.773
595.384
578.138
562.108
547.452
533.995
521.74
510.61
500.884
492.952
486.373
480.92
476.654
473.244
470.338
467.892
466.476
467.342
473.216
483.517
489.656
491.399
493.127
497.746
508.593
517.617
516.762
516.431
517.687
521.641
528.548
536.839
546.336
39506.7
37244.4
33774.6
30153.6
26752.1
23724.6
21119.3
18932.5
17150.3
15759.4
14750.1
14126.4
13907
14118.3
14838.2
16209.4
18375.3
21410
25305.7
29950.2
35147.5
40647.7
46199
51572.8
56601.3
61149.7
65221.2
68820.1
71926.7
74575.2
76747.3
78459.1
79728.7
80604.5
81094.5
81208.3
80930.6
80204.9
79162.3
77857.4
76309.5
74551.3
72614.1
70512.8
68267.8
65896.2
63423.8
60868.1
58252.3
55601.6
52937.1
50272.7
47621.5
44993.8
42397.4
39840.7
37325.3
34850.8
32415
30010.6
27632.6
25286.2
22985.2
20749.3
18593.6
16517
14520.6
12616.5
10834.4
9210.46
7777.95
6553.48
5532.52
4695.08
4015.6
3472.45
3044.88
2708.35
2438.87
2218.1
2032.88
1874.04
1735.53
1613.23
1504.43
1407.02
1319.33
1240.07
1168.26
1102.73
1042.06
985.571
933.008
884.571
839.903
797.89
758.551
722.423
689.84
661.095
636.114
614.993
597.408
582.466
569.96
559.811
551.116
543.553
537.788
535.078
538.619
548.157
553.629
554.411
554.549
556.961
566.217
577.416
578.097
576.892
577.912
582.133
589.64
598.558
608.17
57560.7
54759.7
50368.1
45703.4
41237.1
37182.8
33634.8
30635.7
28201
26346.4
25118.1
24565.9
24751.4
25775
27749.2
30805.2
35015.1
40325
46554.5
53383.9
60466.1
67482.8
74182.9
80394.3
86024.8
91056.4
95457.5
99230.2
102458
105132
107326
109041
110304
111152
111574
111598
111255
110575
109515
108160
106605
104863
102963
100924
98758.5
96467.1
94079.9
91623.6
89104.8
86533
83914.1
81245.2
78528.3
75763.2
72966.4
70149.1
67303
64418.1
61482.2
58482.7
55415.6
52297.1
49138.2
45946.7
42706.5
39436.9
36146.6
32855
29601
26450.4
23464.1
20678.8
18120
15784.2
13687.1
11837
10235.6
8866.85
7705.73
6728.03
5910.55
5231.28
4667
4193.95
3791.92
3445.66
3144.18
2879.28
2644.28
2433.79
2242.23
2065.7
1901.51
1748.65
1606.22
1473.41
1349.67
1235.76
1132.05
1039.54
958.213
888.352
829.309
780.26
739.446
705.979
678.213
654.675
635.517
621.622
615.647
619.29
622.027
621.606
619.338
618.679
624.07
633.444
635.16
632.99
633.682
637.642
645.322
654.752
666.23
77465.2
74269
69203.6
63769.9
58500.6
53674.1
49446.4
45923.1
43167.5
41267
40282.7
40373.8
41681.5
44307.4
48302
53612.9
60118.3
67532
75493.4
83630.8
91608.9
99158.8
106099
112337
117854
122683
126893
130545
133505
135931
137901
139443
140541
141216
141514
141486
141176
140626
139866
138872
137655
136325
134891
133357
131728
130002
128179
126273
124281
122200
120023
117745
115357
112836
110214
107503
104691
101760
98690.4
95459.7
92066.5
88544.4
84889.1
81090.4
77133.6
73024.7
68780.4
64431.3
60010.2
55553.3
51090.8
46677
42346.5
38186
34251.3
30581.2
27201.2
24111.4
21307.8
18787.1
16541.1
14566.1
12845.2
11353.4
10063.7
8952.59
7997.5
7175.8
6467.6
5853.6
5316.34
4838.65
4407.77
4012.43
3642.58
3292.29
2960.58
2649.99
2361.65
2097.86
1861.18
1650.63
1466.48
1308.03
1174.01
1063.2
971.739
896.173
834.517
786.213
752.672
735.493
726.727
716.586
704.402
695.368
692.905
698.116
698.575
694.392
693.583
696.826
704.143
713.738
724.674
97865.7
94394.3
88876.7
82989.7
77299
72129.2
67691
64166.5
61622.6
60209.9
60149
61631.2
64706.6
69378.1
75528.7
82854.9
91040.1
99693.6
108424
116907
124888
132190
138722
144469
149467
153789
157528
160654
163246
165375
167035
168228
169040
169530
169773
169828
169747
169576
169341
169046
168679
168191
167605
166934
166171
165307
164328
163222
161972
160562
158984
157235
155323
153256
151040
148690
146214
143598
140818
137833
134606
131155
127500
123584
119368
114840
110007
104929
99605.1
94052.5
88310.7
82455.6
76553.7
70665.8
64847.6
59186.9
53828
48735
43911.8
39380.4
35186
31367.2
27904.8
24778.3
21954.8
19428.9
17189.2
15216.4
13489
11985.6
10680.5
9548.74
8567.21
7713.74
6963.24
6294.86
5689.87
5137.71
4627.51
4151.02
3707.33
3294.2
2910.42
2559.72
2242.62
1961.53
1717.62
1507.47
1328.61
1181.32
1067.16
986.446
933.377
888.99
850.74
819.809
797.381
785.985
779.525
769.636
763.721
763.544
767.726
774.043
780.945
117392
113747
107995
101954
96200.1
91083.8
86912.7
83783.5
81946.8
81706.4
83261
86612.5
91688.8
98322.6
106217
114913
123946
132968
141670
149832
157287
163935
169759
174807
179130
182837
185990
188615
190731
192383
193632
194517
195126
195573
195945
196313
196729
197225
197795
198413
199042
199643
200181
200623
200934
201075
201011
200706
200134
199283
198164
196804
195244
193525
191678
189724
187662
185462
183078
180464
177570
174370
170866
167015
162781
158139
152951
147508
141728
135612
129206
122606
115871
109022
102086
95124.6
88109
81120.6
74243.8
67545.3
61119
55145.9
49590.9
44423
39685.5
35363.5
31435.6
27882.4
24686
21834.9
19310.3
17087.2
15136.9
13429.6