/*--------------------------------*- C++ -*----------------------------------*\
| =========                 |                                                 |
| \\      /  F ield         | OpenFOAM: The Open Source CFD Toolbox           |
|  \\    /   O peration     | Version:  2112                                  |
|   \\  /    A nd           | Website:  www.openfoam.com                      |
|    \\/     M anipulation  |                                                 |
\*---------------------------------------------------------------------------*/
FoamFile
{
    version     2.0;
    format      ascii;
    arch        "LSB;label=32;scalar=64";
    class       volScalarField;
    location    "0.00681";
    object      epsilon;
}
// * * * * * * * * * * * * * * * * * * * * * * * * * * * * * * * * * * * * * //

dimensions      [0 2 -3 0 0 0 0];

internalField   nonuniform List<scalar> 
13875
(
1.16001e+06
2.94628e+07
3.28237e+07
3.28359e+07
3.29044e+07
3.28427e+07
3.29224e+07
3.2981e+07
3.28939e+07
3.28664e+07
3.29104e+07
3.29157e+07
3.28754e+07
3.28445e+07
3.2861e+07
3.2911e+07
3.29484e+07
3.29124e+07
3.28928e+07
3.28609e+07
3.28995e+07
3.28308e+07
3.28049e+07
2.94952e+07
1.1777e+06
1.31389e+06
2.27475e+07
2.53556e+07
2.52365e+07
2.52777e+07
2.52149e+07
2.52407e+07
2.52654e+07
2.52093e+07
2.52186e+07
2.52403e+07
2.52532e+07
2.52134e+07
2.51942e+07
2.52006e+07
2.52506e+07
2.5246e+07
2.52362e+07
2.5225e+07
2.52293e+07
2.52698e+07
2.52199e+07
2.53285e+07
2.27603e+07
1.34195e+06
1.57303e+06
1.97065e+07
2.18303e+07
2.16259e+07
2.16945e+07
2.16318e+07
2.15652e+07
2.15567e+07
2.15045e+07
2.15059e+07
2.15296e+07
2.15494e+07
2.161e+07
2.16032e+07
2.15971e+07
2.15476e+07
2.15318e+07
2.15304e+07
2.15487e+07
2.16411e+07
2.16834e+07
2.16019e+07
2.17903e+07
1.96888e+07
1.58451e+06
1.81372e+06
1.73852e+07
1.90388e+07
1.88796e+07
1.89637e+07
1.89087e+07
1.88257e+07
1.88181e+07
1.877e+07
1.87576e+07
1.87763e+07
1.87902e+07
1.88868e+07
1.88808e+07
1.88764e+07
1.87879e+07
1.87941e+07
1.87802e+07
1.88066e+07
1.89152e+07
1.89521e+07
1.88581e+07
1.90148e+07
1.7361e+07
1.82063e+06
2.02278e+06
1.54524e+07
1.67728e+07
1.66214e+07
1.67009e+07
1.66519e+07
1.65656e+07
1.6563e+07
1.65252e+07
1.65153e+07
1.65306e+07
1.65353e+07
1.66286e+07
1.66271e+07
1.66195e+07
1.65339e+07
1.65475e+07
1.65309e+07
1.65526e+07
1.66548e+07
1.66902e+07
1.66053e+07
1.67444e+07
1.54263e+07
2.03678e+06
2.20644e+06
1.37122e+07
1.49286e+07
1.47396e+07
1.48291e+07
1.47715e+07
1.46767e+07
1.46774e+07
1.46449e+07
1.46381e+07
1.46509e+07
1.46484e+07
1.47401e+07
1.47419e+07
1.47317e+07
1.4647e+07
1.46677e+07
1.46479e+07
1.46668e+07
1.47748e+07
1.48193e+07
1.47294e+07
1.49036e+07
1.38469e+07
2.22356e+06
2.42251e+06
1.22511e+07
1.34784e+07
1.32085e+07
1.32689e+07
1.31992e+07
1.3092e+07
1.30915e+07
1.30607e+07
1.30521e+07
1.30657e+07
1.3057e+07
1.31478e+07
1.31512e+07
1.31377e+07
1.30554e+07
1.30838e+07
1.3062e+07
1.30854e+07
1.32006e+07
1.3257e+07
1.32016e+07
1.34215e+07
1.1952e+07
2.43017e+06
2.66591e+06
1.06155e+07
1.2313e+07
1.19762e+07
1.19987e+07
1.18868e+07
1.1761e+07
1.17491e+07
1.17164e+07
1.17062e+07
1.17243e+07
1.17077e+07
1.1798e+07
1.18043e+07
1.17878e+07
1.17054e+07
1.17432e+07
1.17214e+07
1.17514e+07
1.18845e+07
1.19813e+07
1.19657e+07
1.22639e+07
1.05448e+07
2.69524e+06
3.49628e+06
1.02124e+07
1.1483e+07
1.10307e+07
1.09405e+07
1.07892e+07
1.06422e+07
1.06166e+07
1.05783e+07
1.05642e+07
1.05905e+07
1.05674e+07
1.06561e+07
1.06654e+07
1.06472e+07
1.05665e+07
1.06093e+07
1.05877e+07
1.0625e+07
1.07805e+07
1.09229e+07
1.10216e+07
1.14745e+07
1.03385e+07
3.57429e+06
6.83533e+06
1.2219e+07
1.1197e+07
1.04294e+07
1.01691e+07
9.93576e+06
9.77176e+06
9.73003e+06
9.68891e+06
9.675e+06
9.70276e+06
9.67795e+06
9.75986e+06
9.77167e+06
9.75403e+06
9.68439e+06
9.72078e+06
9.71006e+06
9.74607e+06
9.9158e+06
1.01438e+07
1.03611e+07
1.11603e+07
1.21284e+07
6.89235e+06
1.49148e+07
1.86896e+07
1.20484e+07
1.03261e+07
9.62071e+06
9.32941e+06
9.14418e+06
9.06618e+06
9.01985e+06
9.00804e+06
9.03146e+06
9.00701e+06
9.07825e+06
9.09311e+06
9.08132e+06
9.03126e+06
9.05846e+06
9.06459e+06
9.12604e+06
9.28718e+06
9.60998e+06
1.02691e+07
1.18794e+07
1.79401e+07
1.49981e+07
2.5468e+07
6.88904e+07
1.81872e+07
1.07149e+07
9.71325e+06
9.0197e+06
8.71875e+06
8.60392e+06
8.54319e+06
8.52965e+06
8.54219e+06
8.52058e+06
8.57573e+06
8.59393e+06
8.59129e+06
8.56215e+06
8.58581e+06
8.61646e+06
8.70657e+06
9.02094e+06
9.65669e+06
1.05418e+07
1.75492e+07
6.73168e+07
2.5032e+07
2.65935e+07
7.60879e+07
8.70258e+07
2.40237e+07
1.09402e+07
9.1346e+06
8.73799e+06
8.45529e+06
8.34315e+06
8.30217e+06
8.292e+06
8.26825e+06
8.30503e+06
8.32601e+06
8.33723e+06
8.33837e+06
8.39112e+06
8.50175e+06
8.7733e+06
9.15548e+06
1.12955e+07
2.25633e+07
8.07512e+07
7.65945e+07
2.60834e+07
2.63652e+07
5.52811e+07
8.00104e+07
1.04623e+08
5.78006e+07
1.30119e+07
9.62953e+06
8.85326e+06
8.609e+06
8.59086e+06
8.58309e+06
8.56136e+06
8.59098e+06
8.61164e+06
8.63143e+06
8.64772e+06
8.6809e+06
8.91327e+06
9.96366e+06
1.45335e+07
6.56673e+07
9.106e+07
7.54458e+07
5.4555e+07
2.57536e+07
2.53586e+07
4.26827e+07
5.82498e+07
7.26187e+07
7.5862e+07
7.45873e+07
2.29938e+07
1.32368e+07
1.1264e+07
1.05199e+07
1.02255e+07
1.01114e+07
1.01077e+07
1.01401e+07
1.0226e+07
1.04685e+07
1.11721e+07
1.32801e+07
2.59892e+07
7.78955e+07
7.49428e+07
6.61255e+07
5.67229e+07
4.23048e+07
2.64262e+07
2.4746e+07
3.36521e+07
4.35198e+07
5.46303e+07
5.98406e+07
6.832e+07
5.15226e+07
4.48031e+07
4.30025e+07
3.45479e+07
3.61198e+07
3.73396e+07
3.82301e+07
3.78969e+07
3.66485e+07
3.45588e+07
4.23181e+07
4.81205e+07
5.23171e+07
6.90791e+07
5.81749e+07
5.06812e+07
4.28252e+07
3.35255e+07
2.58336e+07
2.01428e+07
2.54182e+07
3.25499e+07
4.24624e+07
5.04294e+07
6.33181e+07
7.35335e+07
7.51661e+07
6.00571e+07
5.046e+07
5.32649e+07
5.59395e+07
5.77964e+07
5.70036e+07
5.43066e+07
5.36526e+07
6.02479e+07
7.42818e+07
7.36632e+07
6.29817e+07
4.79142e+07
3.93299e+07
3.11918e+07
2.46844e+07
2.004e+07
1.48985e+07
1.92068e+07
2.68264e+07
3.79357e+07
4.6544e+07
5.43395e+07
6.6854e+07
7.29089e+07
5.11065e+07
3.76649e+07
3.57695e+07
3.62166e+07
3.70297e+07
3.66369e+07
3.63569e+07
4.05508e+07
5.13942e+07
6.84437e+07
6.63001e+07
5.51707e+07
4.56252e+07
3.62978e+07
2.58645e+07
1.86986e+07
1.46121e+07
1.21985e+07
1.67592e+07
2.46117e+07
3.98871e+07
4.93196e+07
4.60979e+07
5.05865e+07
5.71441e+07
4.54288e+07
3.35986e+07
2.8961e+07
2.77579e+07
2.77035e+07
2.81667e+07
2.96874e+07
3.46126e+07
4.36501e+07
5.35369e+07
5.04908e+07
4.71333e+07
5.11223e+07
3.92819e+07
2.42542e+07
1.6561e+07
1.20353e+07
1.15855e+07
1.80244e+07
2.57869e+07
3.99478e+07
4.40746e+07
3.87192e+07
3.92134e+07
4.39602e+07
3.94839e+07
3.10963e+07
2.54692e+07
2.26347e+07
2.18411e+07
2.32078e+07
2.65131e+07
3.16321e+07
3.74509e+07
4.12451e+07
3.91374e+07
3.98459e+07
4.52906e+07
3.82922e+07
2.55865e+07
1.80954e+07
1.16478e+07
2.72827e+07
5.09285e+07
3.93294e+07
3.29237e+07
3.48469e+07
3.13644e+07
3.13227e+07
3.51936e+07
3.37464e+07
2.76176e+07
2.20245e+07
1.85665e+07
1.75572e+07
1.93829e+07
2.32999e+07
2.80811e+07
3.19653e+07
3.31744e+07
3.12907e+07
3.2238e+07
3.57676e+07
3.20255e+07
3.99304e+07
4.86959e+07
2.8355e+07
8.90403e+07
2.69131e+08
5.11019e+07
2.63204e+07
2.76491e+07
2.56086e+07
2.56943e+07
2.88494e+07
2.85646e+07
2.39052e+07
1.87872e+07
1.52963e+07
1.42584e+07
1.61025e+07
1.99431e+07
2.41858e+07
2.70021e+07
2.7387e+07
2.56391e+07
2.62069e+07
2.81325e+07
2.59917e+07
5.49513e+07
2.64206e+08
8.93587e+07
9.27985e+07
1.76058e+08
4.24576e+07
2.17736e+07
2.24491e+07
2.12801e+07
2.13197e+07
2.39503e+07
2.40473e+07
2.03095e+07
1.58514e+07
1.26753e+07
1.16749e+07
1.33115e+07
1.67484e+07
2.04259e+07
2.2654e+07
2.28312e+07
2.12396e+07
2.1617e+07
2.2622e+07
2.16393e+07
4.37444e+07
1.69532e+08
9.0919e+07
7.90924e+07
1.65296e+08
3.33127e+07
1.85536e+07
1.85068e+07
1.77526e+07
1.77824e+07
1.99337e+07
2.0191e+07
1.7058e+07
1.32205e+07
1.04909e+07
9.66393e+06
1.10771e+07
1.40517e+07
1.72163e+07
1.90485e+07
1.90529e+07
1.77756e+07
1.80604e+07
1.86852e+07
1.86597e+07
3.46224e+07
1.67487e+08
7.90795e+07
7.12603e+07
1.53696e+08
2.7885e+07
1.62208e+07
1.56268e+07
1.49625e+07
1.50482e+07
1.67458e+07
1.69867e+07
1.43678e+07
1.11213e+07
8.79081e+06
8.09669e+06
9.29348e+06
1.18512e+07
1.45443e+07
1.6067e+07
1.60207e+07
1.50223e+07
1.5247e+07
1.58495e+07
1.6436e+07
2.93453e+07
1.608e+08
7.19628e+07
6.49055e+07
1.50054e+08
2.4202e+07
1.42302e+07
1.34067e+07
1.2735e+07
1.29073e+07
1.41919e+07
1.4352e+07
1.21574e+07
9.42846e+06
7.44579e+06
6.85513e+06
7.85868e+06
1.00119e+07
1.22794e+07
1.35662e+07
1.35491e+07
1.28037e+07
1.29147e+07
1.36037e+07
1.44085e+07
2.50524e+07
1.51103e+08
6.62527e+07
6.04722e+07
1.35513e+08
2.07828e+07
1.25029e+07
1.16366e+07
1.0957e+07
1.11698e+07
1.2097e+07
1.21041e+07
1.02616e+07
8.0081e+06
6.36002e+06
5.86721e+06
6.73044e+06
8.55725e+06
1.04548e+07
1.15604e+07
1.1596e+07
1.10397e+07
1.11165e+07
1.18896e+07
1.27606e+07
2.16478e+07
1.3834e+08
6.23645e+07
5.72572e+07
1.25921e+08
1.853e+07
1.11319e+07
1.02688e+07
9.57718e+06
9.76802e+06
1.04208e+07
1.0318e+07
8.75801e+06
6.88035e+06
5.49274e+06
5.06862e+06
5.80302e+06
7.33305e+06
8.92143e+06
9.88229e+06
9.98811e+06
9.61214e+06
9.67556e+06
1.04758e+07
1.13523e+07
1.92193e+07
1.30774e+08
5.82584e+07
5.35777e+07
1.20291e+08
1.69564e+07
9.98574e+06
9.14654e+06
8.50584e+06
8.61641e+06
9.04222e+06
8.84543e+06
7.52724e+06
5.96463e+06
4.78893e+06
4.41799e+06
5.04008e+06
6.31646e+06
7.63631e+06
8.48263e+06
8.65609e+06
8.43053e+06
8.52116e+06
9.27224e+06
1.01406e+07
1.72335e+07
1.18265e+08
5.45829e+07
4.96366e+07
1.09568e+08
1.56485e+07
9.03825e+06
8.16354e+06
7.62704e+06
7.66502e+06
7.87726e+06
7.59303e+06
6.46679e+06
5.17253e+06
4.19672e+06
3.88164e+06
4.42793e+06
5.51419e+06
6.62452e+06
7.36394e+06
7.57885e+06
7.47741e+06
7.60841e+06
8.26776e+06
9.16092e+06
1.59722e+07
1.1084e+08
5.14401e+07
4.62153e+07
9.65623e+07
1.45433e+07
8.28523e+06
7.36867e+06
6.88239e+06
6.8721e+06
6.93036e+06
6.59191e+06
5.62657e+06
4.54418e+06
3.71434e+06
3.43764e+06
3.9074e+06
4.82269e+06
5.75322e+06
6.41227e+06
6.6732e+06
6.68691e+06
6.83439e+06
7.41724e+06
8.34894e+06
1.46673e+07
9.7635e+07
4.79205e+07
4.31688e+07
8.79082e+07
1.36665e+07
7.72851e+06
6.67576e+06
6.22985e+06
6.19822e+06
6.14775e+06
5.78325e+06
4.94212e+06
4.02286e+06
3.31124e+06
3.06638e+06
3.47155e+06
4.25035e+06
5.04424e+06
5.63322e+06
5.92058e+06
6.01611e+06
6.16154e+06
6.68731e+06
7.73296e+06
1.3599e+07
8.61844e+07
4.46958e+07
4.02889e+07
7.66854e+07
1.28643e+07
7.291e+06
6.09512e+06
5.67301e+06
5.59791e+06
5.4697e+06
5.07718e+06
4.34585e+06
3.57359e+06
2.96697e+06
2.75491e+06
3.11404e+06
3.78704e+06
4.46349e+06
4.99271e+06
5.29676e+06
5.43771e+06
5.59417e+06
6.08469e+06
7.25897e+06
1.29608e+07
7.84265e+07
4.16761e+07
3.80585e+07
6.76097e+07
1.20788e+07
6.9666e+06
5.64048e+06
5.20021e+06
5.0665e+06
4.90453e+06
4.5102e+06
3.86819e+06
3.20485e+06
2.67812e+06
2.48968e+06
2.8029e+06
3.38386e+06
3.96955e+06
4.44233e+06
4.75731e+06
4.92152e+06
5.1039e+06
5.59452e+06
6.89453e+06
1.23509e+07
6.92943e+07
3.89297e+07
3.60364e+07
6.09429e+07
1.11964e+07
6.7116e+06
5.32258e+06
4.77788e+06
4.60908e+06
4.42034e+06
4.0321e+06
3.46377e+06
2.89425e+06
2.43219e+06
2.26455e+06
2.53958e+06
3.0435e+06
3.55119e+06
3.97991e+06
4.29217e+06
4.46875e+06
4.68381e+06
5.24159e+06
6.63535e+06
1.15087e+07
6.07778e+07
3.66841e+07
3.38563e+07
5.43842e+07
1.03552e+07
6.48643e+06
5.08952e+06
4.42216e+06
4.20392e+06
3.98646e+06
3.621e+06
3.1149e+06
2.61907e+06
2.2169e+06
2.06942e+06
2.31621e+06
2.7614e+06
3.20789e+06
3.59431e+06
3.88959e+06
4.08149e+06
4.32428e+06
4.99042e+06
6.44318e+06
1.06873e+07
5.50731e+07
3.4745e+07
3.21032e+07
4.94789e+07
9.6244e+06
6.41946e+06
4.93166e+06
4.1314e+06
3.86208e+06
3.6197e+06
3.27063e+06
2.82316e+06
2.39069e+06
2.03369e+06
1.90107e+06
2.11892e+06
2.51e+06
2.90346e+06
3.25065e+06
3.53465e+06
3.745e+06
4.0196e+06
4.81305e+06
6.33241e+06
9.85162e+06
4.89873e+07
3.27716e+07
3.05134e+07
4.60031e+07
8.95532e+06
6.2975e+06
4.83681e+06
3.91568e+06
3.56252e+06
3.30025e+06
2.9723e+06
2.57482e+06
2.19235e+06
1.87342e+06
1.75339e+06
1.94689e+06
2.29425e+06
2.64417e+06
2.95385e+06
3.2264e+06
3.4514e+06
3.79577e+06
4.70873e+06
6.31702e+06
9.1087e+06
4.50011e+07
3.11684e+07
2.88347e+07
4.18532e+07
8.2292e+06
6.00086e+06
4.81543e+06
3.7608e+06
3.31163e+06
3.02292e+06
2.70565e+06
2.35089e+06
2.01467e+06
1.73159e+06
1.62438e+06
1.80033e+06
2.10999e+06
2.42143e+06
2.70037e+06
2.96448e+06
3.20723e+06
3.63275e+06
4.70415e+06
6.17504e+06
8.48322e+06
4.22832e+07
2.95302e+07
2.75212e+07
3.88531e+07
7.55139e+06
5.67596e+06
4.87999e+06
3.66051e+06
3.11331e+06
2.79107e+06
2.48419e+06
2.16316e+06
1.86152e+06
1.60662e+06
1.50958e+06
1.66725e+06
1.94339e+06
2.22406e+06
2.47726e+06
2.73736e+06
3.01309e+06
3.52908e+06
4.71799e+06
5.81733e+06
7.77411e+06
3.92168e+07
2.78504e+07
2.64436e+07
3.6539e+07
7.01077e+06
5.33381e+06
4.96953e+06
3.62622e+06
2.96539e+06
2.60155e+06
2.29349e+06
1.99809e+06
1.72683e+06
1.49613e+06
1.4082e+06
1.55037e+06
1.79652e+06
2.05103e+06
2.28536e+06
2.54996e+06
2.87156e+06
3.47578e+06
4.91678e+06
5.47873e+06
7.15094e+06
3.65521e+07
2.65323e+07
2.5351e+07
3.42507e+07
6.49204e+06
4.94107e+06
4.84102e+06
3.64017e+06
2.85229e+06
2.45613e+06
2.13228e+06
1.85133e+06
1.60395e+06
1.39614e+06
1.31706e+06
1.44729e+06
1.67056e+06
1.90463e+06
2.1283e+06
2.40728e+06
2.7608e+06
3.50122e+06
4.94004e+06
5.13369e+06
6.89211e+06
3.41802e+07
2.55497e+07
2.44497e+07
3.23171e+07
6.06718e+06
4.57028e+06
4.581e+06
3.79263e+06
2.78268e+06
2.34506e+06
2.00495e+06
1.72767e+06
1.49835e+06
1.30846e+06
1.23582e+06
1.35358e+06
1.55552e+06
1.77372e+06
1.99743e+06
2.29512e+06
2.68212e+06
3.59526e+06
4.71044e+06
4.72517e+06
6.37809e+06
3.20925e+07
2.45604e+07
2.37149e+07
3.04205e+07
6.13392e+06
4.25231e+06
4.27215e+06
3.90453e+06
2.78704e+06
2.25622e+06
1.91062e+06
1.62651e+06
1.40589e+06
1.22966e+06
1.16238e+06
1.26968e+06
1.4551e+06
1.66397e+06
1.89674e+06
2.21128e+06
2.67966e+06
3.86221e+06
4.40836e+06
4.35563e+06
6.00395e+06
3.03497e+07
2.37859e+07
2.29364e+07
2.88022e+07
5.77428e+06
3.9506e+06
3.9402e+06
3.81074e+06
2.88234e+06
2.19777e+06
1.82867e+06
1.54552e+06
1.32607e+06
1.15969e+06
1.09728e+06
1.19743e+06
1.3717e+06
1.5784e+06
1.81653e+06
2.15856e+06
2.82562e+06
3.93434e+06
4.0853e+06
4.07922e+06
6.05509e+06
2.86197e+07
2.31469e+07
2.22556e+07
2.7138e+07
5.82642e+06
3.72059e+06
3.62496e+06
3.58155e+06
3.13401e+06
2.21455e+06
1.77025e+06
1.48578e+06
1.26564e+06
1.10159e+06
1.04102e+06
1.13546e+06
1.30589e+06
1.51223e+06
1.75321e+06
2.16877e+06
3.10085e+06
3.7062e+06
3.76933e+06
3.82354e+06
5.87906e+06
2.6943e+07
2.24901e+07
2.1607e+07
2.56321e+07
5.96556e+06
3.55586e+06
3.36409e+06
3.34304e+06
3.19489e+06
2.38348e+06
1.73958e+06
1.4321e+06
1.21886e+06
1.05761e+06
993718
1.08822e+06
1.25504e+06
1.45597e+06
1.71245e+06
2.33955e+06
3.20985e+06
3.45335e+06
3.49147e+06
3.62441e+06
5.83012e+06
2.53784e+07
2.1836e+07
2.06565e+07
2.40807e+07
5.83098e+06
3.39347e+06
3.14341e+06
3.1084e+06
3.01546e+06
2.64927e+06
1.79165e+06
1.38871e+06
1.17747e+06
1.02234e+06
957400
1.05167e+06
1.21216e+06
1.41164e+06
1.76234e+06
2.64844e+06
3.04104e+06
3.19534e+06
3.2562e+06
3.49368e+06
5.98002e+06
2.37086e+07
2.08579e+07
1.94952e+07
2.23569e+07
5.76213e+06
3.27734e+06
2.95844e+06
2.88904e+06
2.83143e+06
2.73348e+06
2.00316e+06
1.38146e+06
1.14381e+06
992591
929876
1.02023e+06
1.17468e+06
1.39145e+06
1.94205e+06
2.78774e+06
2.86169e+06
2.95399e+06
3.04946e+06
3.36331e+06
5.87117e+06
2.20323e+07
1.96663e+07
1.69634e+07
1.98726e+07
5.59421e+06
3.17364e+06
2.80145e+06
2.70134e+06
2.64286e+06
2.58568e+06
2.25146e+06
1.47163e+06
1.12803e+06
966028
905317
991904
1.15397e+06
1.45425e+06
2.24913e+06
2.65301e+06
2.6781e+06
2.74897e+06
2.8693e+06
3.23753e+06
5.63007e+06
1.96144e+07
1.71285e+07
615598
907896
1.67428e+06
1.87105e+06
1.65716e+06
1.34507e+06
1.1351e+06
1.05867e+06
1.06684e+06
1.06831e+06
966375
674929
436497
289077
212430
176046
160329
154033
153117
155626
160608
167714
177254
189263
202956
215774
222333
215418
164378
111263
746960
1.17932e+06
1.89736e+06
1.91061e+06
1.57841e+06
1.25855e+06
1.05422e+06
974446
976801
1.00563e+06
978924
745839
480299
309937
221079
178920
159798
151917
150355
152257
156706
163438
173072
185478
200681
216873
230525
239862
237794
230429
833447
1.45455e+06
2.07778e+06
1.89429e+06
1.47805e+06
1.16334e+06
974280
904124
910603
926238
895188
685019
458058
305764
221039
178479
158074
149370
147081
148438
152453
158838
167759
179888
195200
213391
233366
262344
335551
330188
987539
1.76061e+06
2.21338e+06
1.8591e+06
1.38847e+06
1.07314e+06
893032
828327
845320
863128
841782
676234
462121
311102
222904
177974
156333
146808
143960
145001
148882
155153
163855
175553
191170
211917
244797
324931
461804
371982
1.19671e+06
2.03531e+06
2.29744e+06
1.78573e+06
1.29059e+06
983210
808892
764536
791326
803178
782273
632224
443701
304948
220310
176038
154002
144128
140959
141829
145641
151807
160305
171717
187796
213565
272430
427773
496742
391295
1.46311e+06
2.28031e+06
2.33251e+06
1.68968e+06
1.17972e+06
877891
729573
705242
749482
755017
726758
590930
428015
295423
215107
172850
151219
141401
138359
139371
143185
149345
157776
168998
186794
223092
330748
474983
477366
399764
1.75947e+06
2.54375e+06
2.35275e+06
1.59068e+06
1.0658e+06
791269
672405
660095
710959
714406
679528
556249
404596
280533
207170
168372
148132
138985
136272
137496
141461
147651
155912
168050
190346
252399
415829
454598
446633
408634
2.08948e+06
2.79616e+06
2.34118e+06
1.49053e+06
969834
729488
636639
635068
684883
686994
648686
525511
378402
263400
198127
163532
145145
137045
134845
136485
140717
146958
155539
170101
204452
312097
430339
423956
422964
418132
2.43933e+06
3.02315e+06
2.31339e+06
1.39473e+06
897319
688887
617920
623545
671914
676372
633611
494699
349042
243585
188873
158455
142649
135847
134355
136598
141195
147671
157684
177476
237505
375030
408854
402599
404992
424381
2.8187e+06
3.21472e+06
2.26931e+06
1.3128e+06
855548
670340
605710
607541
657832
669000
615460
457789
314684
224037
179217
154062
141083
135732
135263
138112
143119
150277
162920
194236
291385
379113
386811
389626
392583
426311
3.23037e+06
3.37194e+06
2.22181e+06
1.27411e+06
841718
660521
588513
585102
636197
644324
570707
413407
275847
206404
171500
151440
141283
137484
138079
141299
146575
155148
172767
226366
342895
365102
372937
379534
377836
420231
3.68337e+06
3.51751e+06
2.2078e+06
1.26392e+06
838008
652875
570745
554324
586674
579986
490474
353565
242972
193396
167195
151473
143800
141411
142592
145938
151565
162421
190950
277632
351903
352047
362853
366085
356302
406681
4.12072e+06
3.68587e+06
2.23705e+06
1.27461e+06
848430
653919
558376
519729
520534
490470
399520
300867
223926
187480
167632
154902
149061
147510
148557
151720
158141
173535
222576
318961
344903
340392
350562
346770
329961
392128
4.54165e+06
3.87965e+06
2.30444e+06
1.31001e+06
879400
669256
556579
496007
466956
418111
338494
273252
219461
189052
172623
161588
156816
155131
155444
158270
166443
192521
270849
326514
332441
327091
334410
324685
306103
380495
4.94816e+06
4.10526e+06
2.40663e+06
1.37435e+06
930551
705798
576944
491256
437467
378097
315638
269515
226841
198217
181627
171375
166625
163955
163088
165965
179083
226008
305555
320024
318364
313636
317227
304251
286269
371402
5.37642e+06
4.37973e+06
2.5498e+06
1.47346e+06
1.00927e+06
773385
633546
528807
453805
389413
334932
290638
248045
217659
195941
185372
178825
174314
172121
176771
202839
277149
309470
308995
304341
301088
301499
287038
271457
364171
5.86135e+06
4.71093e+06
2.74497e+06
1.61279e+06
1.1232e+06
875681
731950
615844
526426
453676
394725
341266
290588
251907
220221
206260
194813
187656
184996
196526
247240
301064
303168
297395
292428
290207
287371
273211
259697
357655
6.36185e+06
5.10398e+06
3.01101e+06
1.8053e+06
1.28263e+06
1.02026e+06
875415
753843
654845
572603
498875
430792
365432
311927
262565
238428
218672
208169
208341
237506
299621
304251
296036
287486
283116
280749
275560
262623
249955
352116
6.86474e+06
5.58597e+06
3.36931e+06
2.06718e+06
1.49898e+06
1.21794e+06
1.07396e+06
952641
847793
757788
667515
582568
496142
418450
340379
293590
261260
247266
257583
306945
318291
302408
290139
279652
276239
272575
265956
253922
240695
347151
7.44582e+06
6.17459e+06
3.81696e+06
2.41597e+06
1.78529e+06
1.47961e+06
1.33064e+06
1.21842e+06
1.11898e+06
1.02707e+06
927863
831393
725893
615542
493997
403156
349784
330054
347284
347726
324677
300964
284302
273381
270535
265927
257857
246442
232416
341584
8.42385e+06
6.68941e+06
4.34599e+06
2.87207e+06
2.16022e+06
1.80975e+06
1.63645e+06
1.54009e+06
1.46866e+06
1.39074e+06
1.31221e+06
1.23846e+06
1.1419e+06
994275
808684
639438
535318
469702
417245
370380
329396
299512
277375
268336
265955
260195
250773
239197
224601
336694
9.19268e+06
7.44749e+06
4.98664e+06
3.48195e+06
2.66466e+06
2.22601e+06
1.99646e+06
1.89833e+06
1.86644e+06
1.85392e+06
1.8726e+06
1.90384e+06
1.86124e+06
1.65914e+06
1.37039e+06
1.05428e+06
784280
596085
472302
390365
334614
296634
274090
264423
261918
253988
243922
232044
217093
332743
9.96922e+06
8.01611e+06
5.68718e+06
4.3389e+06
3.38541e+06
2.79701e+06
2.45734e+06
2.32658e+06
2.32577e+06
2.45e+06
2.67169e+06
2.82914e+06
2.74875e+06
2.47434e+06
2.04586e+06
1.52341e+06
1.0504e+06
724413
528889
412104
337990
292317
271258
261434
256867
247194
237065
224962
209861
329182
1.05814e+07
9.13546e+06
7.02135e+06
5.77982e+06
4.53896e+06
3.67065e+06
3.12094e+06
2.89824e+06
2.91915e+06
3.24482e+06
3.63402e+06
3.74492e+06
3.63976e+06
3.29399e+06
2.71949e+06
1.99913e+06
1.33211e+06
866750
590187
431420
340607
291945
269264
258179
250241
240112
230145
218009
203117
325247
1.05529e+07
1.32264e+07
1.09903e+07
8.78122e+06
6.5534e+06
5.08892e+06
4.14039e+06
3.7444e+06
3.78099e+06
4.29101e+06
4.58563e+06
4.63601e+06
4.46269e+06
4.01239e+06
3.3081e+06
2.44762e+06
1.63097e+06
1.02109e+06
647910
451636
347191
293015
267750
253080
242994
232840
223396
211219
196917
319885
108973
162782
213990
219772
212970
200857
187756
176645
167407
160175
155273
152980
154098
160761
178456
218373
301693
460443
711480
1.0023e+06
1.08973e+06
1.0807e+06
1.07451e+06
1.15715e+06
1.37515e+06
1.69502e+06
1.92741e+06
1.73308e+06
945183
636362
222858
234358
237697
227705
214231
198785
184067
172319
163126
156404
151966
150237
152366
160723
181714
227801
324063
507190
784037
999369
1.01803e+06
987649
986783
1.07372e+06
1.28461e+06
1.61357e+06
1.96109e+06
1.95622e+06
1.22574e+06
777747
335765
321723
257209
230574
211511
193838
178941
167082
158254
152051
148333
147158
149934
159360
181551
227795
318913
481575
719361
915510
939755
921228
915180
991161
1.18664e+06
1.51263e+06
1.94616e+06
2.1382e+06
1.5074e+06
870213
382198
462061
316198
241293
209935
189876
174695
163035
154406
148347
144887
144156
147530
157947
181622
230160
324458
485348
707373
858995
875844
855076
838442
908431
1.09439e+06
1.42249e+06
1.91548e+06
2.27645e+06
1.8134e+06
1.03092e+06
403289
503767
418184
266786
211114
186117
170479
159247
150898
145067
141755
141153
144931
155870
179855
227744
317589
464925
660537
798226
815649
801232
774740
822741
1.00422e+06
1.32745e+06
1.84706e+06
2.36979e+06
2.08932e+06
1.24488e+06
410734
485973
475454
322470
219457
184677
167360
156409
148320
142550
139203
138614
142370
153274
176854
223247
307498
447475
616217
741868
767605
759315
714726
743079
897149
1.21343e+06
1.74857e+06
2.41465e+06
2.34799e+06
1.51892e+06
416490
453660
457375
408137
246615
187593
166145
154486
146568
140794
137227
136458
139941
150211
172325
214697
292343
422584
578731
693938
727628
722218
670432
686288
810099
1.09695e+06
1.64702e+06
2.44006e+06
2.62093e+06
1.81703e+06
425121
426860
425048
428518
303401
200805
167992
154022
145827
139963
136103
134964
137844
147042
166962
205018
275273
396409
547052
663267
701778
697805
646219
649887
747403
998955
1.54586e+06
2.4332e+06
2.88102e+06
2.15458e+06
431322
406683
401519
407526
367988
232213
174911
155952
146388
140244
136114
134449
136435
144178
161359
194506
254677
367527
516949
650053
692788
684752
635037
630748
706362
923692
1.44755e+06
2.40872e+06
3.11762e+06
2.50962e+06
433315
393110
387036
384001
374925
283287
190660
160850
148746
141976
137481
135237
136182
142306
156419
183806
233128
330865
482606
633999
686426
669788
618637
618428
688435
880232
1.36244e+06
2.36483e+06
3.32305e+06
2.89623e+06
427215
377832
376440
369099
362497
337151
221430
170164
153367
145231
140388
137730
137746
142225
153307
175051
213160
288479
436698
590859
661085
644989
594699
601299
678371
866656
1.32059e+06
2.3154e+06
3.49462e+06
3.32393e+06
413335
356397
363460
358800
349533
346989
270502
187411
160368
150022
144821
141992
141447
144518
152981
169709
198147
251732
370622
508399
593092
591996
561785
582445
670073
863440
1.30927e+06
2.30063e+06
3.6511e+06
3.79245e+06
397675
330332
344876
347068
337702
340775
314086
217709
170915
156409
150465
147752
147222
149499
156119
169448
190578
230117
311987
413778
501366
525159
526260
569760
671079
874754
1.31934e+06
2.33199e+06
3.83154e+06
4.2497e+06
385542
306507
323467
331829
324843
329897
322108
263943
188781
164553
157049
154696
154846
157158
162804
174023
191024
224494
280194
348463
426985
474538
503988
568891
687813
906938
1.35544e+06
2.4005e+06
4.03789e+06
4.69517e+06
376521
287767
303580
315179
311794
317150
316202
302468
220711
176672
164882
162610
163951
167146
172931
183128
200130
230679
274787
322805
386808
445347
501788
591798
726857
959841
1.42159e+06
2.50405e+06
4.27827e+06
5.13029e+06
368634
273290
287140
299677
299768
303631
306103
307876
271486
199160
175653
172025
174859
179963
187645
198256
220304
252197
295628
341858
398619
464570
542603
652084
797088
1.0417e+06
1.52354e+06
2.64721e+06
4.56176e+06
5.59008e+06
362450
261839
273397
286595
289421
292405
295506
302076
300054
241333
194841
185321
189060
197297
210089
224269
256660
296742
348103
404815
464736
541149
633473
753855
902345
1.15986e+06
1.66861e+06
2.84488e+06
4.89915e+06
6.10438e+06
356578
252052
263035
275906
280462
283595
286582
295425
304914
298317
235006
209136
210869
223506
245354
271354
320982
377473
443597
514267
587111
674617
776760
901702
1.05136e+06
1.32461e+06
1.87138e+06
3.11769e+06
5.30193e+06
6.63939e+06
350392
242962
255338
267163
272969
276830
279751
290351
303843
320590
306824
259897
252919
270866
307252
358947
437917
518857
605547
692291
781147
873661
982331
1.1064e+06
1.255e+06
1.5481e+06
2.14834e+06
3.49036e+06
5.79379e+06
7.17394e+06
344103
234908
248247
259907
266982
271380
274376
285856
303370
329565
354838
355641
343869
371474
434371
535897
659010
770832
873975
970061
1.06576e+06
1.15177e+06
1.25527e+06
1.37038e+06
1.5259e+06
1.84591e+06
2.51419e+06
3.95828e+06
6.39152e+06
7.78304e+06
339015
227392
241683
253380
261828
267083
269939
280628
303428
336373
382752
436248
499284
584199
714497
902541
1.09166e+06
1.23438e+06
1.3187e+06
1.38487e+06
1.45042e+06
1.51212e+06
1.58504e+06
1.68699e+06
1.86695e+06
2.23362e+06
2.9908e+06
4.51493e+06
6.92008e+06
8.79434e+06
335208
220243
235270
246951
256414
263331
266346
276225
302258
343955
407087
501602
645001
867446
1.18512e+06
1.54282e+06
1.84528e+06
2.03295e+06
2.05369e+06
1.99587e+06
1.95123e+06
1.93339e+06
1.9536e+06
2.05942e+06
2.29619e+06
2.75462e+06
3.62897e+06
5.18626e+06
7.68807e+06
9.5895e+06
331753
213281
228728
240592
250456
259128
263549
274330
299376
349624
433034
568021
794828
1.17301e+06
1.71276e+06
2.28059e+06
2.73195e+06
2.99263e+06
3.04252e+06
2.87128e+06
2.60698e+06
2.42679e+06
2.40024e+06
2.53743e+06
2.88494e+06
3.49917e+06
4.519e+06
5.92215e+06
8.29415e+06
1.03924e+07
328046
206572
222242
234166
244015
253691
260880
272826
298423
354078
455132
637736
956812
1.48917e+06
2.23093e+06
3.0009e+06
3.60203e+06
3.94788e+06
4.02115e+06
3.8801e+06
3.4821e+06
3.07121e+06
2.99639e+06
3.22244e+06
3.78443e+06
4.69124e+06
6.01472e+06
7.30174e+06
9.4193e+06
1.10164e+07
322963
200369
216140
227917
237159
247431
257026
272127
300160
360743
476858
699201
1.12362e+06
1.80736e+06
2.69254e+06
3.60173e+06
4.33939e+06
4.80975e+06
4.96313e+06
4.87058e+06
4.53834e+06
4.00094e+06
3.87793e+06
4.26388e+06
5.23361e+06
6.7645e+06
9.10098e+06
1.14361e+07
1.37112e+07
1.10012e+07
2.10708e+06
1.76523e+06
1.48984e+06
1.32436e+06
1.1711e+06
1.06841e+06
980386
914898
867542
845510
842835
853254
874027
908444
956881
1.02346e+06
1.11608e+06
1.23753e+06
1.38915e+06
1.57208e+06
1.78592e+06
2.02106e+06
2.26585e+06
2.51259e+06
2.74025e+06
2.94441e+06
3.11156e+06
3.23083e+06
3.32166e+06
3.38517e+06
3.41954e+06
3.42618e+06
3.40518e+06
3.36152e+06
3.29788e+06
3.2142e+06
3.11429e+06
3.01312e+06
2.90874e+06
2.79736e+06
2.67522e+06
2.53623e+06
2.38063e+06
2.20971e+06
2.02511e+06
1.84503e+06
1.67538e+06
1.5158e+06
1.36233e+06
1.21558e+06
1.08769e+06
976012
876400
784245
701659
629810
565855
509641
459288
414403
375327
342080
314042
290335
270350
253877
240858
230857
223313
217530
212842
208735
204888
201156
197498
193968
190660
187726
185324
183447
182018
180949
180167
179632
179321
179200
179281
179604
180185
180991
181950
182976
184002
184972
185861
186639
187297
187837
188261
188782
189114
189886
190556
191838
193506
195386
197507
199873
203041
207223
211776
217179
223998
231250
237647
244477
252890
264090
277599
286077
291671
297424
304510
311062
316900
6.15124e+06
5.42824e+06
4.58259e+06
4.02619e+06
3.58068e+06
3.21336e+06
2.91327e+06
2.6707e+06
2.4804e+06
2.35205e+06
2.27842e+06
2.2378e+06
2.2137e+06
2.22001e+06
2.26536e+06
2.35683e+06
2.51914e+06
2.76255e+06
3.10184e+06
3.51756e+06
3.98725e+06
4.49841e+06
5.00385e+06
5.49272e+06
5.92336e+06
6.25841e+06
6.49934e+06
6.65055e+06
6.74456e+06
6.80195e+06
6.82871e+06
6.828e+06
6.80675e+06
6.7667e+06
6.70522e+06
6.61489e+06
6.49097e+06
6.3325e+06
6.14402e+06
5.92872e+06
5.69139e+06
5.43434e+06
5.14868e+06
4.83442e+06
4.49376e+06
4.13467e+06
3.76947e+06
3.4158e+06
3.07569e+06
2.7434e+06
2.42527e+06
2.13281e+06
1.86668e+06
1.62149e+06
1.39933e+06
1.20441e+06
1.03507e+06
888127
762074
655429
566023
492763
432891
383337
341956
307453
279361
257035
239374
225223
213487
203305
194203
185956
178415
171472
165100
159307
154100
149532
145616
142316