/*--------------------------------*- C++ -*----------------------------------*\
| =========                 |                                                 |
| \\      /  F ield         | OpenFOAM: The Open Source CFD Toolbox           |
|  \\    /   O peration     | Version:  2112                                  |
|   \\  /    A nd           | Website:  www.openfoam.com                      |
|    \\/     M anipulation  |                                                 |
\*---------------------------------------------------------------------------*/
FoamFile
{
    version     2.0;
    format      ascii;
    arch        "LSB;label=32;scalar=64";
    class       volScalarField;
    location    "0.00659";
    object      nut;
}
// * * * * * * * * * * * * * * * * * * * * * * * * * * * * * * * * * * * * * //

dimensions      [0 2 -1 0 0 0 0];

internalField   nonuniform List<scalar> 
13875
(
0.0511677
0.0366256
0.0343675
0.0343312
0.0342999
0.0343382
0.0342837
0.0342504
0.0343053
0.0343193
0.034287
0.0342889
0.0343217
0.0343415
0.0343306
0.0342929
0.034268
0.0342892
0.0343025
0.0343268
0.0343041
0.034334
0.0343832
0.0365696
0.0514251
0.0532618
0.0341201
0.0322237
0.0321087
0.0320625
0.0320855
0.0320267
0.0319999
0.0320446
0.0320546
0.0320285
0.0320426
0.0320536
0.0320726
0.0320606
0.0320467
0.032004
0.0320345
0.0320462
0.0320763
0.0320639
0.0321022
0.0322291
0.03405
0.0536394
0.0564569
0.0335619
0.0318039
0.0315947
0.031568
0.0315784
0.0314666
0.0314231
0.0314545
0.0314566
0.0314263
0.0314584
0.0315301
0.0315561
0.0315348
0.0314643
0.0314084
0.0314455
0.0314784
0.0315682
0.0315647
0.0315801
0.0317947
0.03349
0.0566011
0.0590706
0.0332328
0.03149
0.0312779
0.0312608
0.031263
0.0311416
0.031092
0.0311209
0.0311173
0.0310843
0.0311103
0.0312134
0.0312401
0.0312184
0.0311167
0.0310734
0.0311024
0.0311468
0.0312545
0.0312554
0.0312624
0.0314846
0.033167
0.0591505
0.0611263
0.033004
0.0312465
0.0310033
0.0309834
0.0309794
0.0308544
0.0308069
0.0308337
0.0308291
0.0307975
0.0308204
0.0309246
0.0309545
0.03093
0.0308272
0.0307869
0.0308146
0.0308597
0.0309693
0.0309768
0.0309898
0.0312299
0.0329196
0.061267
0.0628193
0.0328482
0.0310892
0.0307709
0.0307511
0.0307299
0.0305951
0.0305484
0.0305706
0.0305656
0.0305365
0.0305562
0.0306624
0.0306945
0.0306678
0.0305627
0.0305265
0.0305533
0.0306002
0.0307205
0.0307438
0.0307611
0.0310583
0.0328244
0.0629781
0.064828
0.0330734
0.0311037
0.0306317
0.0305679
0.0305227
0.0303683
0.0303178
0.0303343
0.0303252
0.030301
0.0303181
0.0304269
0.0304582
0.0304287
0.0303222
0.0302935
0.0303207
0.0303767
0.0305127
0.0305603
0.0306331
0.0311132
0.033072
0.0648679
0.0670951
0.0339369
0.0314249
0.0306481
0.0304838
0.0303716
0.0301868
0.030121
0.0301259
0.0301122
0.0300941
0.0301054
0.0302187
0.0302517
0.0302192
0.0301084
0.03009
0.0301214
0.0301906
0.0303583
0.0304676
0.03063
0.0313922
0.0338961
0.0673553
0.0736482
0.0362972
0.032041
0.0308446
0.0304737
0.0302817
0.0300476
0.0299647
0.0299574
0.0299354
0.0299248
0.0299316
0.0300495
0.0300841
0.0300502
0.0299362
0.0299246
0.0299597
0.0300454
0.0302613
0.0304514
0.0308027
0.0319361
0.0360009
0.0741864
0.0829066
0.0384731
0.0327368
0.0311869
0.0305815
0.0302489
0.0299774
0.0298824
0.0298602
0.0298318
0.0298274
0.0298327
0.0299494
0.0299857
0.0299532
0.02985
0.0298359
0.0298762
0.0299682
0.0302228
0.0305522
0.0310852
0.0326234
0.0381036
0.0835383
0.0907274
0.0441388
0.0346497
0.0319979
0.0308297
0.0303709
0.0300534
0.0299153
0.0298702
0.0298358
0.02983
0.0298349
0.0299451
0.0299832
0.0299593
0.0298798
0.0298632
0.0299105
0.0300414
0.0303098
0.0307994
0.0318873
0.0343686
0.0432668
0.0893457
0.0950556
0.0545259
0.040391
0.033465
0.0318927
0.0308609
0.0303506
0.0301531
0.030067
0.0300218
0.0300075
0.0300146
0.0301083
0.0301508
0.03014
0.0300886
0.0300794
0.0301522
0.030334
0.0308476
0.0318087
0.0332193
0.0398325
0.0533471
0.0942623
0.0865997
0.0686916
0.0517042
0.0418499
0.0344449
0.0319944
0.0313196
0.0308506
0.0306674
0.0305758
0.0305374
0.0305373
0.0306077
0.0306547
0.0306661
0.0306586
0.0307084
0.0308994
0.0313611
0.0320191
0.0347768
0.0415573
0.0508432
0.0687662
0.0866095
0.079596
0.0659328
0.0582021
0.0658693
0.0418808
0.0373268
0.0337262
0.032594
0.0321532
0.0320581
0.0320238
0.0320241
0.0320851
0.0321312
0.0321571
0.0321741
0.0322144
0.0326119
0.0341303
0.0383282
0.0433914
0.0656908
0.0578489
0.0661723
0.0816131
0.0753316
0.0643302
0.0566358
0.0607433
0.0561289
0.0542763
0.0447311
0.0391726
0.0370492
0.0361053
0.0357569
0.0356311
0.0356617
0.0357204
0.0358292
0.0361339
0.0369514
0.0391022
0.0452672
0.0555401
0.0558735
0.0612937
0.0566628
0.0641877
0.0746823
0.0671966
0.0619174
0.0544036
0.0574504
0.056209
0.0575024
0.0549902
0.0531448
0.0514921
0.0485942
0.0477583
0.0473469
0.047231
0.0473272
0.0475467
0.0481773
0.0511438
0.0542302
0.0557048
0.0580144
0.0557746
0.0581935
0.0544236
0.0615482
0.0665247
0.0625042
0.0583868
0.0526641
0.0552588
0.0572853
0.0618203
0.0686012
0.0761245
0.0734281
0.0707637
0.073161
0.0746411
0.0755988
0.0752996
0.0738597
0.0726573
0.0721537
0.0761901
0.0704956
0.062386
0.0571436
0.055724
0.0522405
0.0577808
0.0625756
0.0571053
0.0548265
0.0533057
0.056879
0.0604242
0.0643834
0.0735548
0.0842713
0.0746434
0.0687201
0.0690751
0.069514
0.0704172
0.0700677
0.0697022
0.0711729
0.0741317
0.080633
0.0736047
0.0655939
0.0618403
0.0581922
0.0534206
0.0544649
0.0569469
0.0513318
0.0541414
0.0560683
0.0628649
0.0680445
0.0654807
0.0690839
0.0777917
0.0745507
0.0695404
0.0686779
0.0682585
0.0686488
0.0691164
0.0694924
0.0704148
0.0730092
0.0758133
0.0691273
0.0664363
0.0710061
0.0651899
0.0570959
0.0546263
0.0521299
0.0492297
0.0568409
0.060472
0.0672869
0.0696202
0.064772
0.0648422
0.0714108
0.0728977
0.0703154
0.0685936
0.0667951
0.0664576
0.0678554
0.069398
0.0702214
0.0708664
0.0697853
0.0650329
0.066001
0.0715535
0.0682992
0.0617368
0.0575007
0.04874
0.0744059
0.0841338
0.0739325
0.0654049
0.0655293
0.0618102
0.0614359
0.0672431
0.0708787
0.0697467
0.0674612
0.0647134
0.0639768
0.0660412
0.0683396
0.0691933
0.0686261
0.0658066
0.0617712
0.0631627
0.0672431
0.066004
0.0754755
0.0835036
0.0729211
0.124395
0.136638
0.0833654
0.0615957
0.0613224
0.0588174
0.0587879
0.0642127
0.0686614
0.0682468
0.0656271
0.0623104
0.0612985
0.0637072
0.0665129
0.0674875
0.066383
0.0630156
0.0591119
0.0600649
0.0627994
0.0625219
0.0866607
0.137585
0.123956
0.142647
0.115657
0.0783911
0.0587717
0.0579636
0.0563616
0.056483
0.0617474
0.0664118
0.0661903
0.0633949
0.059824
0.0585747
0.0611062
0.0642218
0.0653781
0.0641873
0.0607225
0.0567084
0.0574188
0.0591246
0.0596661
0.0796402
0.116072
0.143607
0.151112
0.116049
0.0722129
0.0567343
0.0552588
0.0541716
0.0544538
0.0594845
0.0641687
0.0638993
0.0609173
0.0572374
0.0559832
0.0585431
0.0618313
0.0631917
0.0620153
0.0584688
0.0546566
0.0551609
0.0563767
0.0577593
0.07347
0.118456
0.150572
0.155792
0.116013
0.068922
0.0554021
0.0532526
0.0522711
0.0528123
0.057466
0.0618955
0.061541
0.0585323
0.0548381
0.0535832
0.0561184
0.0594879
0.0609372
0.059864
0.0564504
0.0529137
0.053152
0.0543787
0.056438
0.0705491
0.120407
0.156029
0.161754
0.11961
0.0667688
0.0540933
0.0516767
0.0506422
0.0514976
0.0556998
0.0597009
0.0592343
0.0562695
0.0526309
0.0513821
0.0538186
0.0571166
0.0586397
0.0577652
0.0546685
0.0514419
0.0512859
0.0526595
0.0550488
0.0678231
0.121843
0.163943
0.169183
0.11846
0.0642717
0.0527921
0.0503684
0.0492685
0.0504116
0.0541339
0.0574923
0.056845
0.054007
0.0505786
0.049387
0.0517799
0.0549886
0.0564967
0.0558234
0.0530934
0.0501618
0.049787
0.0513662
0.0538679
0.065646
0.121631
0.169347
0.174643
0.119598
0.0628911
0.0517749
0.0493864
0.048225
0.0494541
0.0527144
0.0554908
0.0546925
0.05199
0.0487411
0.0475743
0.0498653
0.0529091
0.0544246
0.0539847
0.0516877
0.0491025
0.048573
0.050215
0.0527844
0.0640585
0.12192
0.176143
0.180463
0.122083
0.0621486
0.0509336
0.048581
0.0474816
0.0486125
0.0514065
0.0536112
0.0526998
0.0501671
0.0470881
0.0459362
0.0480945
0.0509496
0.052433
0.0522233
0.0503785
0.0481629
0.0476225
0.0492006
0.0517847
0.0626781
0.119991
0.182718
0.186993
0.121881
0.0616031
0.0502292
0.0477993
0.0469427
0.0479657
0.0502034
0.0517841
0.0507338
0.0483604
0.0455377
0.0444492
0.0465643
0.0492663
0.0507095
0.0506665
0.0492002
0.047355
0.0469095
0.0482969
0.0510013
0.062186
0.121178
0.186626
0.189195
0.119793
0.0613319
0.0498024
0.047208
0.0464403
0.0473434
0.0490919
0.0501628
0.0490353
0.0468195
0.0441692
0.0431099
0.0451119
0.0476403
0.0490405
0.0491819
0.0481281
0.046691
0.0462997
0.0475205
0.0503792
0.061692
0.119955
0.191093
0.191555
0.120619
0.0613583
0.049711
0.0466315
0.0459079
0.0467644
0.0480933
0.0487469
0.0475403
0.0454321
0.0429334
0.0418973
0.0437902
0.0461634
0.0475539
0.0478634
0.0471554
0.0460677
0.045679
0.0468416
0.0500784
0.0614921
0.118665
0.193402
0.195255
0.118391
0.0614984
0.0498386
0.0461921
0.0454681
0.0461762
0.0471202
0.0473465
0.0460864
0.0441115
0.0417856
0.0408069
0.042642
0.0448949
0.0462327
0.0466677
0.0462582
0.0454557
0.0451367
0.0462857
0.0500857
0.0619409
0.118636
0.195162
0.196562
0.117305
0.0617888
0.0502491
0.0459485
0.0450778
0.0455408
0.0462338
0.0461467
0.0448525
0.0429617
0.0407633
0.0398123
0.0415547
0.0436812
0.0450163
0.0455502
0.045424
0.0448337
0.044656
0.0458911
0.0503355
0.062365
0.116657
0.197553
0.197827
0.117749
0.0616226
0.0508189
0.0460662
0.0446722
0.0449215
0.0453821
0.0450454
0.0437232
0.0419279
0.0398358
0.0389174
0.0405735
0.042583
0.0438942
0.0445185
0.0446097
0.0441913
0.0442095
0.0458449
0.0508287
0.0623202
0.115499
0.198692
0.19988
0.116715
0.061286
0.0514253
0.0463834
0.0443581
0.0443338
0.0445295
0.0440305
0.0426763
0.0409325
0.0389684
0.0380953
0.0397063
0.0416223
0.042928
0.0436225
0.0438414
0.0436027
0.0438323
0.0460596
0.0514725
0.0621913
0.116744
0.199891
0.200049
0.117134
0.061117
0.0524695
0.0469576
0.0441762
0.0438261
0.0437405
0.0430847
0.0417467
0.0400754
0.0381985
0.0373518
0.0388812
0.0407025
0.0419962
0.0427282
0.0430958
0.0430819
0.0435635
0.0465002
0.0522755
0.0618787
0.116454
0.201174
0.200292
0.118877
0.0609847
0.0535352
0.047694
0.0441844
0.0433452
0.0430029
0.042235
0.0409187
0.0392961
0.0374938
0.036668
0.038123
0.0398706
0.0411597
0.0419066
0.0423926
0.0425914
0.0435153
0.0471663
0.0536474
0.0617222
0.118448
0.201199
0.201259
0.118484
0.0604081
0.0539075
0.048714
0.0444467
0.0429779
0.042322
0.0414042
0.0401038
0.0385485
0.0368364
0.0360462
0.0374615
0.0391316
0.0403902
0.0411472
0.0417651
0.0422185
0.0437095
0.0483007
0.0546868
0.061513
0.120101
0.201226
0.201176
0.119519
0.059675
0.0539575
0.0499542
0.0448994
0.0427522
0.0417542
0.0407063
0.0394061
0.0378816
0.0362346
0.0354674
0.0368223
0.0384128
0.0396729
0.0404553
0.0412149
0.0420066
0.0441541
0.049492
0.0546369
0.0608054
0.120374
0.201862
0.2013
0.121319
0.0590364
0.0537725
0.0517757
0.0456431
0.0427599
0.0413231
0.0400814
0.0387549
0.0372691
0.03568
0.0349384
0.0362366
0.0377482
0.0390013
0.0398309
0.0408008
0.0420288
0.0448717
0.0514948
0.0544983
0.0600817
0.121442
0.201696
0.201811
0.122497
0.058486
0.0532423
0.0527431
0.0466412
0.0429227
0.0410982
0.0395618
0.0381584
0.0366768
0.0351548
0.034444
0.0357081
0.0371642
0.0384272
0.0393406
0.0405551
0.042184
0.0459711
0.0528967
0.0541569
0.0598364
0.123743
0.201806
0.201459
0.12428
0.0581476
0.0526014
0.0527245
0.0482627
0.043318
0.0410635
0.0392075
0.0376493
0.0361602
0.0346835
0.0339887
0.0351984
0.0366008
0.0378949
0.0389672
0.0404938
0.0425402
0.0474592
0.0530549
0.053434
0.0594242
0.12494
0.202008
0.201287
0.126288
0.0586918
0.0520205
0.0522422
0.0502269
0.0441009
0.0411473
0.0390634
0.0372798
0.0357059
0.0342485
0.033562
0.034728
0.0361015
0.0374678
0.0387755
0.0405975
0.0433678
0.0498651
0.052717
0.0527359
0.0592671
0.126597
0.201732
0.201227
0.127802
0.0586179
0.0514439
0.0514866
0.051159
0.0455796
0.0414399
0.0389952
0.0370459
0.0353263
0.0338557
0.0331799
0.0343284
0.0357086
0.0371958
0.0387129
0.0409399
0.0451762
0.0513798
0.0521395
0.0523156
0.0599685
0.128343
0.201512
0.200585
0.129242
0.0595339
0.0510756
0.0506804
0.0507894
0.0480755
0.0422875
0.0391029
0.0369884
0.0351127
0.0335621
0.0328626
0.0340051
0.0354591
0.0370822
0.038767
0.0417789
0.0477933
0.0510705
0.0514088
0.0518928
0.0602381
0.129766
0.201292
0.199808
0.130728
0.0608715
0.0509191
0.0500392
0.0502267
0.0494941
0.0442423
0.0394255
0.0369596
0.0350283
0.0334081
0.0326281
0.0338237
0.0353454
0.037037
0.0390295
0.0438035
0.0494512
0.0504904
0.0507283
0.0516329
0.060866
0.131158
0.200458
0.198119
0.131395
0.0614366
0.0507822
0.0495089
0.0495494
0.0491735
0.0469195
0.0404661
0.0370256
0.0349932
0.0333511
0.0325175
0.0337643
0.0353106
0.0371088
0.0400933
0.04677
0.04917
0.0497495
0.0501769
0.0516018
0.0623662
0.132337
0.198361
0.195109
0.131182
0.0622145
0.050783
0.0490947
0.048854
0.0486907
0.0484352
0.0427694
0.0374449
0.0350391
0.0333547
0.0325151
0.0337557
0.0353224
0.0374479
0.0422676
0.0485386
0.0487173
0.0489821
0.0497091
0.0515781
0.0630353
0.132189
0.195375
0.186881
0.128393
0.0626483
0.0507762
0.0487643
0.0482523
0.0480553
0.0480839
0.0455407
0.038821
0.0353035
0.033394
0.0325508
0.0337841
0.0355543
0.0386381
0.0453398
0.0482732
0.0481176
0.0483566
0.0493142
0.0515381
0.0631799
0.129122
0.187271
0.150466
0.388117
0.639182
0.778893
0.820442
0.782874
0.743745
0.7223
0.690458
0.615873
0.504155
0.421707
0.391346
0.401108
0.429404
0.461186
0.490409
0.514864
0.535624
0.553626
0.569762
0.583951
0.594033
0.597768
0.588495
0.542798
0.413812
0.30758
0.216635
0.0981929
0.14643
0.448819
0.726125
0.838178
0.836337
0.782278
0.739296
0.722224
0.704596
0.663054
0.561709
0.44918
0.396552
0.393024
0.415077
0.445079
0.474148
0.499406
0.521002
0.539787
0.556551
0.571642
0.584639
0.592493
0.590638
0.568263
0.48107
0.319344
0.21222
0.0963096
0.160056
0.519497
0.788684
0.862241
0.823394
0.762161
0.719544
0.707257
0.697415
0.661518
0.567626
0.455647
0.396981
0.385075
0.401228
0.428615
0.456719
0.482361
0.504749
0.523784
0.54077
0.555892
0.569266
0.578204
0.578655
0.561826
0.507081
0.355064
0.211472
0.0950635
0.173672
0.591336
0.835034
0.872357
0.805747
0.74006
0.695332
0.68546
0.685166
0.658219
0.582938
0.469816
0.401229
0.37891
0.387988
0.411733
0.438593
0.464261
0.486748
0.506221
0.523436
0.538139
0.551182
0.560018
0.561845
0.549401
0.511014
0.407936
0.224358
0.0944276
0.183989
0.648261
0.871084
0.868463
0.784163
0.7133
0.665595
0.658672
0.662784
0.64248
0.58009
0.474656
0.402014
0.372777
0.375646
0.395574
0.420753
0.445831
0.468241
0.487798
0.504707
0.519257
0.531375
0.539656
0.541422
0.531556
0.501937
0.431359
0.26584
0.0969846
0.196794
0.699407
0.897455
0.854862
0.75724
0.681764
0.63745
0.634847
0.644907
0.625281
0.569654
0.470546
0.399711
0.366533
0.364171
0.380682
0.404337
0.428003
0.450156
0.469581
0.485986
0.499746
0.510763
0.518028
0.518942
0.509935
0.485289
0.434332
0.313037
0.111703
0.210982
0.755663
0.922152
0.840951
0.728609
0.6486
0.608944
0.610753
0.625972
0.606499
0.554229
0.461594
0.394721
0.359206
0.353607
0.367422
0.388841
0.411977
0.433194
0.451966
0.467592
0.480148
0.489767
0.495809
0.495746
0.487305
0.465953
0.42625
0.345333
0.135207
0.226523
0.815423
0.940284
0.82346
0.700641
0.622845
0.587127
0.589578
0.606673
0.587233
0.535185
0.451335
0.3866
0.350851
0.344334
0.356112
0.375178
0.396903
0.41771
0.435687
0.450087
0.461226
0.469254
0.473966
0.473541
0.466473
0.449476
0.423247
0.377249
0.141354
0.242135
0.872115
0.948525
0.803751
0.675977
0.603075
0.570691
0.572434
0.589263
0.569604
0.51591
0.439763
0.376712
0.34277
0.336495
0.346746
0.363959
0.384002
0.403563
0.420642
0.433993
0.443775
0.450327
0.453784
0.453369
0.448372
0.438859
0.43258
0.392226
0.144382
0.25756
0.920434
0.947679
0.782998
0.656467
0.588247
0.558057
0.557693
0.572889
0.554389
0.500603
0.425779
0.365566
0.335342
0.330371
0.339385
0.355283
0.373559
0.391646
0.407236
0.419466
0.428028
0.43338
0.435797
0.435737
0.433992
0.436896
0.448749
0.385937
0.145703
0.273413
0.9596
0.938768
0.762941
0.643301
0.578268
0.546646
0.54165
0.55396
0.537197
0.487961
0.409724
0.355066
0.329276
0.326839
0.335071
0.349452
0.365986
0.3823
0.396007
0.40677
0.414106
0.418277
0.420127
0.420962
0.424614
0.442663
0.448144
0.375805
0.146285
0.290351
0.985449
0.924863
0.748711
0.636162
0.571554
0.535613
0.52404
0.531383
0.51459
0.4658
0.393027
0.34622
0.326945
0.326219
0.333772
0.346327
0.360899
0.375027
0.386952
0.395966
0.401886
0.405108
0.406788
0.409458
0.422164
0.455264
0.437872
0.364252
0.145843
0.307246
0.999764
0.914294
0.740803
0.632808
0.567705
0.526719
0.50725
0.50452
0.484785
0.435879
0.37921
0.341797
0.328753
0.328972
0.335183
0.345826
0.358185
0.36982
0.37963
0.386812
0.391281
0.393547
0.395596
0.40233
0.427175
0.454867
0.423691
0.347647
0.144054
0.322089
1.01319
0.909618
0.739372
0.635455
0.569038
0.522731
0.493149
0.479632
0.454508
0.410574
0.371256
0.343132
0.334095
0.334551
0.338887
0.347328
0.357052
0.365901
0.37327
0.378524
0.381465
0.383045
0.386152
0.401027
0.438918
0.441992
0.4035
0.32829
0.141841
0.335495
1.02661
0.911342
0.745259
0.645066
0.576315
0.524588
0.486516
0.46214
0.433214
0.397355
0.370547
0.349792
0.341937
0.341707
0.343962
0.350036
0.356667
0.3625
0.367345
0.370591
0.37208
0.373405
0.379651
0.406026
0.435691
0.423362
0.381848
0.311112
0.139895
0.347715
1.04295
0.921123
0.759208
0.662372
0.593248
0.536551
0.489048
0.455073
0.424064
0.395656
0.37611
0.359361
0.350974
0.349402
0.349624
0.353286
0.356641
0.359426
0.361718
0.36298
0.363371
0.365386
0.378337
0.415518
0.422184
0.403961
0.362647
0.298256
0.138426
0.360344
1.06424
0.939018
0.78179
0.688558
0.621767
0.564159
0.510051
0.467733
0.434049
0.407643
0.388455
0.371196
0.361729
0.357545
0.356338
0.356788
0.356907
0.356736
0.356613
0.3561
0.356074
0.360854
0.384568
0.417668
0.407079
0.386097
0.3475
0.289239
0.137267
0.372672
1.08998
0.965961
0.81325
0.724544
0.662764
0.609346
0.553123
0.504372
0.465027
0.434158
0.409539
0.38841
0.376118
0.367508
0.364165
0.360683
0.35768
0.354784
0.352559
0.350766
0.351455
0.36207
0.396413
0.408639
0.393576
0.371351
0.336485
0.282778
0.136402
0.383324
1.12177
1.00233
0.85341
0.77068
0.716701
0.67108
0.617273
0.564429
0.517736
0.478132
0.444073
0.415374
0.396749
0.381517
0.373498
0.365307
0.359187
0.354105
0.350198
0.348014
0.350998
0.371419
0.404747
0.398214
0.381841
0.360145
0.328493
0.277582
0.136123
0.394529
1.15999
1.04678
0.900924
0.825874
0.783171
0.747539
0.70093
0.648132
0.595921
0.546506
0.500592
0.458917
0.428064
0.401373
0.384964
0.371345
0.362245
0.355367
0.350207
0.34864
0.356769
0.387719
0.401947
0.390035
0.372482
0.352041
0.322659
0.273395
0.135849
0.412803
1.1946
1.09463
0.952566
0.88669
0.8577
0.833815
0.799012
0.752007
0.699648
0.642397
0.583855
0.525064
0.47578
0.429991
0.401212
0.381049
0.368513
0.359341
0.353288
0.353807
0.371211
0.401832
0.396985
0.383603
0.365035
0.346368
0.318003
0.269696
0.135641
0.425685
1.2346
1.14414
1.00514
0.950122
0.935009
0.923332
0.90224
0.866799
0.820475
0.760613
0.692134
0.618769
0.546664
0.474573
0.428135
0.398183
0.379598
0.366908
0.360344
0.365588
0.39358
0.404527
0.393084
0.377703
0.360392
0.342379
0.314287
0.266062
0.135207
0.437987
1.25808
1.17916
1.05216
1.01223
1.01089
1.01144
1.00122
0.980261
0.94494
0.889802
0.819872
0.739909
0.646215
0.545926
0.472078
0.426146
0.397415
0.37935
0.372957
0.385879
0.409154
0.404003
0.389621
0.37288
0.357277
0.339333
0.310889
0.262057
0.134856
0.446495
1.24715
1.20007
1.09788
1.07668
1.0881
1.09997
1.09868
1.08768
1.06346
1.01971
0.960116
0.880043
0.773631
0.651583
0.539292
0.469355
0.425563
0.399666
0.394716
0.413827
0.414856
0.402874
0.385013
0.369789
0.355044
0.336636
0.307561
0.258482
0.134319
0.445953
1.05797
1.15193
1.14311
1.14667
1.16993
1.19283
1.20178
1.19683
1.17722
1.14643
1.09977
1.02721
0.921309
0.788467
0.639346
0.535382
0.470592
0.434808
0.430063
0.428975
0.416933
0.400341
0.380498
0.367368
0.353221
0.333939
0.303986
0.254777
0.133804
0.0981074
0.217131
0.308566
0.414142
0.539965
0.585754
0.59537
0.592138
0.582406
0.568146
0.551708
0.533285
0.512325
0.487567
0.45799
0.425808
0.398647
0.39268
0.430505
0.521349
0.636629
0.707259
0.735786
0.757387
0.800137
0.839927
0.801106
0.659403
0.399138
0.151962
0.0962113
0.2127
0.319901
0.479174
0.565586
0.588276
0.590412
0.582938
0.570191
0.555048
0.537969
0.518907
0.497083
0.471571
0.442069
0.412075
0.391801
0.400097
0.46082
0.581387
0.678809
0.718316
0.734346
0.751736
0.798573
0.855202
0.859414
0.746716
0.462979
0.148111
0.0949608
0.211898
0.354739
0.506073
0.560935
0.577781
0.577558
0.568874
0.555212
0.539468
0.52208
0.502913
0.480738
0.454902
0.425963
0.398883
0.384801
0.401517
0.467237
0.587308
0.676982
0.710086
0.718276
0.732455
0.77855
0.842433
0.884322
0.811102
0.53671
0.161854
0.0942828
0.224236
0.407454
0.511038
0.549832
0.562142
0.560348
0.55129
0.538282
0.523202
0.505591
0.485895
0.462651
0.436949
0.409763
0.386379
0.379752
0.407274
0.482339
0.600072
0.672136
0.695319
0.695304
0.707606
0.755078
0.824363
0.894166
0.857365
0.608896
0.175766
0.0964589
0.265152
0.432081
0.503219
0.532816
0.542212
0.540217
0.531751
0.519556
0.504944
0.487416
0.467487
0.444363
0.419252
0.394153
0.374851
0.374619
0.40898
0.487574
0.595559
0.655192
0.672662
0.66787
0.676914
0.726959
0.801687
0.889782
0.892779
0.664503
0.186226
0.109003
0.313141
0.436124
0.487295
0.511409
0.519807
0.518776
0.511292
0.500152
0.486231
0.469449
0.449558
0.426839
0.402789
0.379725
0.364181
0.369323
0.407127
0.483301
0.583719
0.637331
0.654379
0.642968
0.647491
0.694313
0.773271
0.875808
0.92018
0.715933
0.199173
0.134178
0.344867
0.428145
0.467869
0.488784
0.496823
0.496726
0.490483
0.480662
0.467825
0.451744
0.432486
0.410559
0.387682
0.366885
0.354213
0.362478
0.402342
0.473541
0.567234
0.618257
0.635328
0.618219
0.617918
0.660343
0.743834
0.861702
0.946235
0.774071
0.21365
0.141362
0.376969
0.424323
0.45105
0.467921
0.474683
0.474911
0.469992
0.461714
0.450157
0.435074
0.41671
0.395907
0.37421
0.355595
0.34508
0.354407
0.394379
0.462811
0.54781
0.599118
0.616285
0.597043
0.595995
0.634326
0.715273
0.843647
0.964626
0.83466
0.229007
0.144668
0.39477
0.432789
0.439771
0.44944
0.454242
0.454414
0.450765
0.443975
0.433777
0.419971
0.40279
0.383288
0.363153
0.346356
0.337332
0.346396
0.384639
0.450714
0.528651
0.581783
0.599091
0.580091
0.579425
0.614049
0.689982
0.823294
0.972858
0.892873
0.244734
0.146048
0.388307
0.449009
0.437033
0.434564
0.436202
0.436107
0.433526
0.428028
0.41921
0.406797
0.390956
0.372963
0.354718
0.339471
0.331512
0.338499
0.3733
0.436503
0.513496
0.566244
0.581872
0.565416
0.56666
0.598747
0.670122
0.802205
0.971999
0.941931
0.260237
0.146776
0.37792
0.44942
0.442497
0.42461
0.421165
0.420292
0.41825
0.413874
0.406426
0.395552
0.381491
0.365376
0.349016
0.335292
0.328198
0.332082
0.361778
0.42025
0.499892
0.547989
0.561655
0.549141
0.555301
0.58898
0.656844
0.781778
0.963182
0.981771
0.276102
0.146452
0.366338
0.439093
0.454564
0.421758
0.409507
0.406717
0.404784
0.401389
0.395361
0.386327
0.374505
0.360488
0.346135
0.333955
0.327377
0.329362
0.351613
0.403151
0.476148
0.523773
0.537581
0.531027
0.544356
0.582565
0.649356
0.767077
0.949088
1.0086
0.293463
0.144707
0.350186
0.424863
0.455509
0.426802
0.401976
0.395233
0.392917
0.39042
0.385865
0.378723
0.369209
0.357752
0.345698
0.335417
0.329821
0.330446
0.345593
0.38732
0.444681
0.492082
0.510043
0.513909
0.53561
0.578854
0.646023
0.759218
0.938813
1.0234
0.310409
0.142381
0.33144
0.405061
0.442505
0.438351
0.400213
0.385723
0.382375
0.380471
0.377398
0.372233
0.365147
0.356557
0.347254
0.339156
0.335216
0.335157
0.345782
0.376578
0.417178
0.460088
0.484673
0.499769
0.531757
0.580277
0.648771
0.75768
0.934255
1.03725
0.325413
0.140451
0.314442
0.383143
0.42353
0.436489
0.405027
0.378995
0.372877
0.371265
0.369513
0.366305
0.361693
0.356169
0.350024
0.344249
0.342301
0.342693
0.351697
0.374066
0.402061
0.437859
0.46689
0.493259
0.533757
0.587823
0.658825
0.763643
0.936498
1.05141
0.338853
0.138967
0.301219
0.363965
0.40385
0.42262
0.413982
0.376953
0.364842
0.362753
0.362118
0.360768
0.358623
0.356145
0.353301
0.350115
0.349841
0.351709
0.360852
0.378552
0.399244
0.428298
0.460066
0.496352
0.546276
0.605217
0.67648
0.777951
0.946964
1.06867
0.351141
0.137803
0.291268
0.348739
0.386936
0.40713
0.417755
0.382315
0.359901
0.355523
0.355497
0.355862
0.356086
0.356501
0.356867
0.357146
0.358234
0.362744
0.372659
0.390507
0.410913
0.438188
0.473318
0.518236
0.574716
0.634478
0.703227
0.8009
0.965837
1.09117
0.363764
0.136845
0.28405
0.337547
0.372167
0.393463
0.409144
0.393062
0.360281
0.350727
0.350241
0.352066
0.354447
0.357585
0.360989
0.365389
0.368755
0.377504
0.39044
0.412281
0.438214
0.470136
0.510995
0.562265
0.6206
0.676118
0.739658
0.832702
0.993727
1.11834
0.376265
0.136355
0.278795
0.329565
0.361098
0.382598
0.398734
0.404034
0.368747
0.349852
0.347445
0.350054
0.354241
0.359715
0.366366
0.3755
0.383668
0.399074
0.418682
0.448443
0.484183
0.525104
0.572964
0.627757
0.683336
0.73087
0.786674
0.873508
1.03111
1.15131
0.387032
0.136086
0.275083
0.323816
0.353066
0.373428
0.390289
0.402314
0.384124
0.354956
0.348056
0.350412
0.356077
0.363491
0.373505
0.388437
0.405207
0.432287
0.464592
0.507553
0.555668
0.606673
0.659684
0.713738
0.761688
0.798647
0.842789
0.921392
1.07673
1.19148
0.398118
0.136014
0.271526
0.3193
0.347378
0.366353
0.384144
0.397932
0.40132
0.368575
0.352944
0.353627
0.360583
0.370474
0.384529
0.40673
0.437054
0.483854
0.535189
0.594111
0.655496
0.714489
0.767498
0.814923
0.850546
0.875202
0.904977
0.972688
1.12503
1.22787
0.416756
0.135761
0.26803
0.315636
0.343473
0.361786
0.379672
0.394346
0.405285
0.390628
0.364153
0.360662
0.368753
0.382783
0.403583
0.436803
0.487011
0.560801
0.635014
0.706629
0.77808
0.839576
0.886831
0.921665
0.942739
0.954395
0.969641
1.02577
1.17421
1.26893
0.4301
0.135414
0.264363
0.312384
0.340589
0.358786
0.375493
0.391504
0.405624
0.409734
0.384218
0.373556
0.382378
0.402907
0.435064
0.486182
0.566432
0.668226
0.763738
0.843634
0.912773
0.968553
1.00536
1.0247
1.03373
1.03232
1.03316
1.07366
1.20821
1.29146
0.443161
0.134897
0.260768
0.309278
0.338189
0.356754
0.371763
0.387593
0.405112
0.416693
0.413509
0.395939
0.404707
0.434757
0.484046
0.562121
0.682019
0.804479
0.911289
0.99044
1.04939
1.09217
1.11772
1.12647
1.12526
1.11161
1.09856
1.11941
1.22782
1.27928
0.451477
0.134416
0.257155
0.306095
0.335808
0.355197
0.369596
0.382929
0.4034
0.419873
0.432173
0.433204
0.442795
0.485239
0.558469
0.674113
0.82901
0.961525
1.06591
1.13732
1.18205
1.21118
1.23108
1.2339
1.22088
1.19523
1.16926
1.16473
1.17777
1.08423
0.450794
0.147623
0.146669
0.144176
0.143303
0.141866
0.140712
0.139417
0.138111
0.136855
0.136243
0.136998
0.138842
0.14145
0.144499
0.147826
0.151572
0.156235
0.161956
0.168919
0.177074
0.186369
0.196517
0.206493
0.216037
0.224619
0.231861
0.23752
0.241407
0.243748
0.244544
0.243975
0.242002
0.238792
0.234986
0.230868
0.226597
0.222243
0.217751
0.212953
0.207763
0.202256
0.196552
0.19086
0.185297
0.180033
0.175441
0.171316
0.16732
0.163219
0.158978
0.154661
0.150323
0.146018
0.141736
0.137566
0.133546
0.129671
0.125939
0.122323
0.118923
0.115869
0.113222
0.110948
0.109046
0.107423
0.106056
0.10496
0.104098
0.10342
0.102867
0.102401
0.102012
0.101697
0.101447
0.101243
0.101082
0.100969
0.100918
0.100935
0.101023
0.101177
0.101389
0.101657
0.101985
0.102365
0.102773
0.103179
0.103563
0.103917
0.104243
0.104546
0.104831
0.105107
0.105388
0.10568
0.105975
0.106274
0.106573
0.106898
0.107276
0.107664
0.108163
0.108712
0.109302
0.109946
0.110646
0.111486
0.11236
0.113374
0.11457
0.115883
0.117255
0.118726
0.120279
0.121779
0.123098
0.124539
0.126155
0.12807
0.129888
0.131049
0.131785
0.132544
0.13325
0.133942
0.634838
0.622201
0.600777
0.59454
0.58999
0.587308
0.585486
0.582423
0.578032
0.576565
0.583516
0.595199
0.609079
0.627358
0.651581
0.679968
0.719134
0.772963
0.844947
0.936695
1.04363
1.16574
1.29291
1.4222
1.54381
1.65079
1.7391
1.80499
1.84924
1.8737
1.88228
1.87636
1.85886
1.83307
1.80029
1.76042
1.71336
1.6594
1.5987
1.53165
1.46023
1.38664
1.31346
1.24204
1.17361
1.1085
1.04497
0.983261
0.922526
0.863176
0.806285
0.751995
0.700123
0.649771
0.601803
0.556396
0.51385
0.473885
0.437194
0.404223
0.375164
0.350197
0.32866
0.310053
0.294498
0.28198
0.272295
0.264756
0.258609
0.253194
0.248096
0.243168
0.238407
0.233814
0.229337
0.224998
0.220866
0.217037
0.213583
0.210469
0.207642
0.205116
0.202811
0.200669
0.198668
0.196766
0.194908
0.193059
0.191206
0.189368
0.18756
0.185801
0.1841
0.182498
0.180999
0.179608
0.178337
0.177192
0.176246
0.175557
0.175087
0.175081
0.175515
0.176278
0.177295
0.178456
0.180067
0.182014
0.184509
0.187584
0.191136
0.195153
0.199633
0.20416
0.208767
0.213685
0.219072
0.224444
0.229783
0.234662
0.239004
0.24305
0.246661
0.249982
0.253483
1.8329
1.80867
1.76631
1.75563
1.75995
1.76334
1.76593
1.7589
1.73992
1.71517
1.68478
1.65905
1.63383
1.61427
1.60871
1.61374
1.6409
1.69651
1.78747
1.91987
2.09125
2.29558
2.50857
2.71881
2.91398
3.08295
3.22209
3.33026
3.40724
3.45506
3.47823
3.47907
3.46088
3.42702
3.38039
3.32289
3.25438
3.17491
3.08399
2.98156
2.86916
2.74887
2.62303
2.49352
2.36182
2.22882
2.09386
1.95708
1.81986
1.6838
1.55171
1.42602
1.30785
1.1978
1.09646
1.00271
0.915641
0.834598
0.759392
0.690217
0.627997
0.573482
0.526562
0.486647
0.453319
0.426096
0.404436
0.386984
0.372386
0.359752
0.348546
0.338468
0.329386
0.321253
0.313925
0.30731
0.301361
0.296022
0.291174
0.286683
0.282574
0.27881
0.275353
0.27212
0.269035
0.266018
0.262994
0.259914
0.256777
0.253624
0.250505
0.247466
0.24456
0.241834
0.239335
0.237026
0.234882
0.232873
0.231166
0.229772
0.228715
0.228271
0.228352
0.228826
0.229635
0.230819
0.232452
0.234705
0.237469
0.240776
0.244648
0.248854
0.253114
0.257409
0.261972
0.266641
0.271339
0.275652
0.279325
0.282817
0.28642
0.290225
0.294688
0.298651
0.302596
4.36428
4.34803
4.3082
4.30481
4.32008
4.33113
4.32812
4.30402
4.24542
4.12931
3.98497
3.84161
3.69886
3.56437
3.45374
3.37811
3.35383
3.38823
3.48775
3.65314
3.87116
4.1216
4.37856
4.62436
4.84392
5.02732
5.17145
5.27802
5.35072
5.39379
5.41221
5.40938
5.38872
5.35308
5.30428
5.2433
5.16884
5.08035
4.97629
4.85583