/*--------------------------------*- C++ -*----------------------------------*\
| =========                 |                                                 |
| \\      /  F ield         | OpenFOAM: The Open Source CFD Toolbox           |
|  \\    /   O peration     | Version:  2112                                  |
|   \\  /    A nd           | Website:  www.openfoam.com                      |
|    \\/     M anipulation  |                                                 |
\*---------------------------------------------------------------------------*/
FoamFile
{
    version     2.0;
    format      ascii;
    arch        "LSB;label=32;scalar=64";
    class       volScalarField;
    location    "0.00036";
    object      p;
}
// * * * * * * * * * * * * * * * * * * * * * * * * * * * * * * * * * * * * * //

dimensions      [1 -1 -2 0 0 0 0];

internalField   nonuniform List<scalar> 
13875
(
941385
988338
973732
976322
975706
973227
974058
974372
974353
974514
974557
975090
974794
974607
974717
974737
974701
974316
973409
973688
975849
975928
975385
987022
952792
730309
659398
668031
665886
665327
666158
664539
663477
663970
664248
664165
663699
663580
663591
663504
663529
663886
664897
665526
666069
665125
666083
669922
661849
733010
733679
641424
668478
665792
661157
656327
653106
651175
650405
650527
650817
651084
651055
650989
651070
650997
651090
652067
654674
658322
663099
666095
670597
642727
735878
741023
642624
670819
666650
661811
656934
653648
651676
650852
650970
651247
651556
651542
651466
651536
651455
651543
652469
655114
658885
663779
667005
673397
643912
741695
756277
647549
676408
668927
663708
658650
655106
652973
651990
652106
652302
652744
652817
652686
652705
652590
652673
653574
656368
660465
665662
669547
679590
648779
750020
768055
661407
688791
674388
668238
662387
658201
655680
654361
654466
654525
655131
655507
655243
654897
654654
655002
655986
659227
664022
670235
675801
692754
662680
764194
797938
696603
715489
687552
678473
670380
664587
660804
658616
657218
656711
656984
657370
657167
657175
657738
658944
661267
665666
672175
681057
691453
720048
703288
798002
888689
790180
775328
721745
702089
687977
677983
671201
666376
662690
661012
660696
660960
660979
661534
663418
666730
671681
678897
689564
705188
727555
781992
802586
895520
1.20504e+06
1.03096e+06
918198
805081
755755
726273
705643
692178
681971
673788
669737
668302
668246
668754
670410
674795
682381
692523
706208
727387
759511
812836
931214
1.06021e+06
1.26455e+06
2.50037e+06
1.57458e+06
1.19121e+06
959923
856034
797687
755390
730610
710332
694704
686869
683676
682920
684282
687905
696438
711736
731145
756087
798760
862320
975083
1.22742e+06
1.6623e+06
2.6909e+06
5.25653e+06
2.78307e+06
1.92627e+06
1.35111e+06
1.10937e+06
968239
862623
809948
767324
736115
721363
714792
712643
715235
722282
738008
769519
808775
859479
961569
1.10767e+06
1.3598e+06
1.96377e+06
2.85788e+06
5.61083e+06
5.95597e+06
5.42033e+06
4.33761e+06
2.55139e+06
1.92715e+06
1.49059e+06
1.16664e+06
1.02516e+06
909612
834215
799448
784647
779828
785048
801161
838153
916861
1.02248e+06
1.15745e+06
1.47036e+06
1.93006e+06
2.53879e+06
4.39885e+06
5.45068e+06
5.71639e+06
5.79772e+06
5.53119e+06
5.60843e+06
5.52929e+06
4.43005e+06
3.3683e+06
2.18685e+06
1.72601e+06
1.34726e+06
1.11809e+06
1.02014e+06
978809
967858
980798
1.02854e+06
1.13384e+06
1.371e+06
1.72225e+06
2.14749e+06
3.35728e+06
4.45086e+06
5.47076e+06
5.52842e+06
5.46571e+06
5.59869e+06
5.40817e+06
5.34962e+06
5.45705e+06
5.43252e+06
5.21967e+06
5.19422e+06
4.96966e+06
3.99546e+06
2.83456e+06
2.06406e+06
1.78795e+06
1.65157e+06
1.63616e+06
1.66966e+06
1.86723e+06
2.14586e+06
2.91623e+06
4.06175e+06
4.99415e+06
5.20273e+06
5.22985e+06
5.38754e+06
5.3969e+06
5.30937e+06
5.29321e+06
4.71366e+06
4.86293e+06
5.02727e+06
5.10274e+06
5.06553e+06
5.08032e+06
5.09464e+06
5.08473e+06
5.05919e+06
4.85528e+06
4.29151e+06
4.11819e+06
4.3243e+06
4.13792e+06
4.39354e+06
4.89545e+06
5.08431e+06
5.1081e+06
5.11879e+06
5.09713e+06
5.0778e+06
5.0923e+06
5.04298e+06
4.93567e+06
4.88876e+06
4.2133e+06
4.19542e+06
4.31116e+06
4.43358e+06
4.62374e+06
4.76393e+06
4.96544e+06
5.13884e+06
5.48643e+06
6.27641e+06
8.00465e+06
9.60254e+06
1.00675e+07
9.5694e+06
7.90704e+06
6.23102e+06
5.48078e+06
5.15933e+06
4.99723e+06
4.79447e+06
4.65323e+06
4.48248e+06
4.35311e+06
4.24172e+06
4.36876e+06
3.19314e+06
3.36587e+06
3.61596e+06
3.80903e+06
4.00087e+06
4.23741e+06
4.60882e+06
5.23194e+06
6.11739e+06
7.33239e+06
8.39362e+06
9.4583e+06
9.89946e+06
9.46548e+06
8.38005e+06
7.28088e+06
6.10159e+06
5.22263e+06
4.63282e+06
4.28219e+06
4.05594e+06
3.87745e+06
3.68557e+06
3.41996e+06
3.26597e+06
2.1507e+06
2.53124e+06
2.86791e+06
3.1919e+06
3.53583e+06
3.97486e+06
4.59032e+06
5.34077e+06
6.33718e+06
7.2831e+06
8.13994e+06
8.77865e+06
9.06288e+06
8.77493e+06
8.10009e+06
7.21979e+06
6.22645e+06
5.29519e+06
4.54415e+06
3.94263e+06
3.51558e+06
3.18096e+06
2.84968e+06
2.45721e+06
2.0052e+06
976858
1.49974e+06
2.09853e+06
2.5225e+06
2.97279e+06
3.5519e+06
4.28477e+06
5.11797e+06
5.98963e+06
6.66239e+06
7.19678e+06
7.46384e+06
7.56658e+06
7.49231e+06
7.319e+06
6.78156e+06
6.05946e+06
5.14831e+06
4.29849e+06
3.56428e+06
2.97824e+06
2.51991e+06
2.10885e+06
1.55949e+06
1.00006e+06
448621
860281
1.43718e+06
1.81861e+06
2.28201e+06
2.92642e+06
3.71509e+06
4.54866e+06
5.30355e+06
5.8637e+06
6.22751e+06
6.4363e+06
6.48371e+06
6.43168e+06
6.25938e+06
5.89498e+06
5.32778e+06
4.56492e+06
3.72755e+06
2.93841e+06
2.29072e+06
1.8174e+06
1.44354e+06
888671
462954
365984
653072
1.02588e+06
1.32941e+06
1.76248e+06
2.37937e+06
3.14643e+06
3.93655e+06
4.61748e+06
5.1051e+06
5.42739e+06
5.59031e+06
5.62914e+06
5.58002e+06
5.41194e+06
5.1035e+06
4.61366e+06
3.92618e+06
3.13196e+06
2.36483e+06
1.74462e+06
1.31332e+06
1.01816e+06
631667
357997
455804
602293
777501
1.05253e+06
1.43721e+06
1.97307e+06
2.67956e+06
3.39746e+06
4.00861e+06
4.451e+06
4.7324e+06
4.87455e+06
4.91374e+06
4.86612e+06
4.71863e+06
4.44067e+06
3.99323e+06
3.37923e+06
2.65511e+06
1.94868e+06
1.41447e+06
1.02913e+06
760584
587893
448410
666000
616552
695244
889748
1.24179e+06
1.70697e+06
2.32468e+06
2.95851e+06
3.49401e+06
3.88514e+06
4.1347e+06
4.25827e+06
4.2964e+06
4.25549e+06
4.13174e+06
3.88111e+06
3.48886e+06
2.95269e+06
2.31957e+06
1.70171e+06
1.22739e+06
878992
690060
606980
667884
836090
668763
709388
839035
1.1013e+06
1.50559e+06
2.03894e+06
2.60253e+06
3.07243e+06
3.41057e+06
3.62671e+06
3.73152e+06
3.76561e+06
3.73004e+06
3.62368e+06
3.40593e+06
3.06726e+06
2.5969e+06
2.03494e+06
1.50063e+06
1.09281e+06
829860
704196
662667
806696
1.0072e+06
779156
761086
848430
1.05289e+06
1.3806e+06
1.81336e+06
2.28678e+06
2.70627e+06
3.0122e+06
3.19998e+06
3.28932e+06
3.31838e+06
3.28761e+06
3.19649e+06
3.00709e+06
2.7003e+06
2.27857e+06
1.8029e+06
1.3681e+06
1.05325e+06
839532
756697
777577
1.02889e+06
1.08926e+06
1.00694e+06
874313
881826
1.05282e+06
1.30229e+06
1.66234e+06
2.05333e+06
2.39815e+06
2.66348e+06
2.84235e+06
2.92968e+06
2.96024e+06
2.93002e+06
2.84245e+06
2.66176e+06
2.39559e+06
2.05187e+06
1.66318e+06
1.29673e+06
1.05687e+06
879461
874240
1.00151e+06
1.0892e+06
1.26146e+06
1.1855e+06
999181
962177
1.07495e+06
1.29002e+06
1.55748e+06
1.90235e+06
2.21096e+06
2.43134e+06
2.56818e+06
2.64019e+06
2.66587e+06
2.63752e+06
2.56198e+06
2.42158e+06
2.19802e+06
1.88627e+06
1.54486e+06
1.27857e+06
1.06899e+06
960834
1.01151e+06
1.20527e+06
1.24193e+06
1.37695e+06
1.3132e+06
1.21842e+06
1.09958e+06
1.1292e+06
1.29685e+06
1.5277e+06
1.77489e+06
2.04185e+06
2.2615e+06
2.38151e+06
2.43577e+06
2.45453e+06
2.43386e+06
2.37427e+06
2.24498e+06
2.02457e+06
1.7628e+06
1.51592e+06
1.2857e+06
1.121e+06
1.1056e+06
1.22474e+06
1.31943e+06
1.3713e+06
1.31466e+06
1.30855e+06
1.2715e+06
1.27008e+06
1.25638e+06
1.31935e+06
1.52432e+06
1.74999e+06
1.93804e+06
2.13458e+06
2.27281e+06
2.34354e+06
2.3686e+06
2.3439e+06
2.27291e+06
2.13021e+06
1.92427e+06
1.73639e+06
1.5197e+06
1.31815e+06
1.25264e+06
1.26731e+06
1.27098e+06
1.31129e+06
1.31964e+06
819767
1.10173e+06
1.1899e+06
1.24634e+06
1.29393e+06
1.40539e+06
1.56866e+06
1.76325e+06
1.93408e+06
2.09777e+06
2.22987e+06
2.28881e+06
2.31178e+06
2.28573e+06
2.22316e+06
2.08258e+06
1.92017e+06
1.74984e+06
1.55764e+06
1.40234e+06
1.28957e+06
1.24113e+06
1.1844e+06
1.09125e+06
809620
185825
382732
745514
1.02747e+06
1.19279e+06
1.35112e+06
1.54904e+06
1.76398e+06
1.96217e+06
2.09672e+06
2.17412e+06
2.21502e+06
2.22838e+06
2.21101e+06
2.16657e+06
2.0836e+06
1.95367e+06
1.75386e+06
1.54008e+06
1.34805e+06
1.1875e+06
1.0201e+06
733342
370970
181832
73398.2
85549.8
168350
366042
675752
988439
1.28027e+06
1.56542e+06
1.82726e+06
1.98962e+06
2.03548e+06
2.04377e+06
2.03942e+06
2.03924e+06
2.02868e+06
1.98278e+06
1.82461e+06
1.56361e+06
1.28041e+06
986855
670221
359086
163973
84420.9
73253.4
70113
70311.8
72785.5
85704.1
148921
285672
500751
777633
1.0599e+06
1.28227e+06
1.39302e+06
1.43026e+06
1.43207e+06
1.42559e+06
1.38722e+06
1.27877e+06
1.05514e+06
773265
497005
281876
146560
84810.3
72589.7
70279
70105.2
70102.8
69947.9
69945.2
70311.7
72167
79151.2
105228
164100
243052
329250
399745
445579
460073
443644
398076
328679
242787
163765
104843
78907.9
72092.9
70289.3
69940.1
69948.3
70104.5
70153.3
69985
69930.4
69945.3
70090.9
70494.9
71236.3
72770.9
75306
79758.4
85949.5
91898.4
94204.2
91695.1
85825.7
79743.2
75315.2
72774.4
71231.6
70491.6
70094.8
69950.1
69932.7
69985.9
70153.9
70200.8
70029.8
69980
70012.1
70120.4
70322.4
70475.1
70598.5
70692.8
70791.6
70906.9
71018.5
71064.9
71015.8
70905.5
70791.5
70693.2
70598.6
70475.5
70324.7
70119.1
70012.7
69981.6
70028.1
70200.3
70238.4
70070.7
70029.7
70075.3
70179.8
70365.7
70492.2
70576.5
70617
70633.1
70638.6
70640.9
70641.6
70640.8
70638.6
70633
70616.9
70576.4
70492
70365
70181.9
70076.9
70030.7
70074.4
70242.1
70275.8
70109.5
70074.4
70131.4
70230.9
70401.8
70514.3
70586.5
70620.1
70632.5
70636.1
70636.9
70637
70636.9
70636.1
70632.5
70620.2
70587.1
70515.2
70403.2
70233.6
70133.5
70077.3
70113.1
70276.4
70309.9
70154.2
70121.1
70185.1
70281.3
70433.9
70533.6
70595.6
70623.4
70633.4
70636.2
70636.8
70636.9
70636.8
70636.2
70633.5
70623.5
70595.4
70533.4
70433.5
70279.2
70185.7
70120.6
70150.1
70309.5
70339.1
70193.1
70167.6
70235.2
70323.2
70462.2
70549.6
70602.8
70626.1
70634.2
70636.4
70636.8
70636.9
70636.8
70636.4
70634.1
70625.9
70602.6
70549.2
70461.5
70323.7
70234.1
70166.8
70195.1
70340.8
70369.7
70230.4
70209.8
70280.4
70361
70484.9
70562.6
70608.4
70628.1
70634.8
70636.5
70636.9
70636.9
70636.9
70636.5
70634.8
70628.1
70608.6
70563
70486.4
70361.9
70280.1
70211.8
70233.6
70368.5
70397.2
70274.4
70254.2
70321.6
70397.5
70507.2
70574.2
70613.3
70629.7
70635.2
70636.6
70636.9
70636.9
70636.9
70636.6
70635.2
70629.8
70613.3
70574.1
70506
70396.2
70323.3
70252.7
70269.2
70397.2
70422.4
70311.1
70296.6
70361.8
70428.7
70525.6
70584
70617.4
70631.1
70635.6
70636.7
70636.9
70636.9
70636.9
70636.7
70635.5
70631
70617.2
70583.8
70525.7
70428.9
70360.7
70295.8
70312.4
70422.9
70447.8
70344.4
70334.2
70398.1
70456.6
70541.2
70592.2
70620.6
70632.2
70635.8
70636.7
70636.9
70636.9
70636.9
70636.7
70635.8
70632.2
70620.7
70592.5
70542.4
70457.3
70397
70336.3
70347.7
70445.5
70463.4
70379.2
70371.7
70428.2
70483.5
70556.8
70599.6
70623.5
70633
70636
70636.8
70636.9
70636.9
70636.9
70636.8
70636.1
70633.1
70623.5
70599.6
70555.8
70482.2
70429.9
70369.2
70373.5
70463.4
70458.2
70393.5
70398.3
70452.9
70504.4
70568.6
70605.8
70625.9
70633.8
70636.2
70636.8
70636.9
70636.9
70636.9
70636.8
70636.2
70633.7
70625.8
70605.6
70568.6
70504
70451.5
70396.5
70393.2
70459.2
70457.8
70393.5
70405.7
70461.6
70517.5
70576
70610.1
70627.6
70634.3
70636.4
70636.8
70636.9
70636.9
70636.9
70636.8
70636.3
70634.3
70627.5
70610
70576.5
70517.3
70460.4
70408.1
70396.4
70457.3
70473.8
70400.6
70411.9
70463.2
70522.9
70578.5
70611.7
70628.3
70634.5
70636.4
70636.8
70636.9
70636.9
70636.9
70636.8
70636.4
70634.6
70628.2
70611.6
70577.8
70521.8
70462
70413.1
70403.5
70472.4
70498.1
70423
70426.5
70459.7
70523.9
70577.5
70611.5
70628.1
70634.5
70636.4
70636.8
70636.9
70636.9
70636.9
70636.8
70636.4
70634.5
70628
70611.3
70577
70522.9
70461.2
70424.7
70422.1
70498.7
70553.7
70456.8
70454.6
70461.9
70525.6
70574.7
70610.4
70627.4
70634.3
70636.4
70636.8
70636.9
70636.9
70636.9
70636.8
70636.3
70634.2
70627.3
70610.4
70574.9
70525.7
70462.7
70452.1
70452.3
70552.3
71757.6
71243.6
71032
70774.7
70680.7
70647.7
70638.8
70637.2
70637
70636.9
70636.9
70636.9
70636.9
70636.9
70636.9
70636.9
70636.9
70636.9
70636.9
70636.9
70636.9
70636.9
70636.9
70636.9
70636.9
70636.8
70635.9
70636.1
70621.8
70654.4
71763.1
71283.6
71078.8
70783
70683
70647.9
70638.8
70637.2
70637
70636.9
70636.9
70636.9
70636.9
70636.9
70636.9
70636.9
70636.9
70636.9
70636.9
70636.9
70636.9
70636.9
70636.9
70636.9
70636.9
70636.8
70636
70636
70626.7
70649.4
71837.8
71287.3
71107
70779
70680.9
70646.9
70638.5
70637.1
70636.9
70636.9
70636.9
70636.9
70636.9
70636.9
70636.9
70636.9
70636.9
70636.9
70636.9
70636.9
70636.9
70636.9
70636.9
70636.9
70636.9
70636.8
70636.3
70635.9
70632.1
70644.3
71993.2
71280.3
71120
70774
70679
70645.7
70638.2
70637.1
70636.9
70636.9
70636.9
70636.9
70636.9
70636.9
70636.9
70636.9
70636.9
70636.9
70636.9
70636.9
70636.9
70636.9
70636.9
70636.9
70636.9
70636.9
70636.6
70635.7
70635.1
70640.1
72082.7
71253.6
71116.1
70766.4
70675
70644.3
70638
70637
70636.9
70636.9
70636.9
70636.9
70636.9
70636.9
70636.9
70636.9
70636.9
70636.9
70636.9
70636.9
70636.9
70636.9
70636.9
70636.9
70636.9
70636.9
70636.8
70636.4
70636.5
70638
72084.6
71186.4
71102.7
70752.9
70670.9
70643.5
70637.8
70637
70636.9
70636.9
70636.9
70636.9
70636.9
70636.9
70636.9
70636.9
70636.9
70636.9
70636.9
70636.9
70636.9
70636.9
70636.9
70636.9
70636.9
70636.9
70636.9
70636.8
70636.8
70637.4
72046.8
71125.5
71056.1
70741.7
70668.1
70642.9
70637.8
70637
70636.9
70636.9
70636.9
70636.9
70636.9
70636.9
70636.9
70636.9
70636.9
70636.9
70636.9
70636.9
70636.9
70636.9
70636.9
70636.9
70636.9
70636.9
70636.9
70636.8
70636.9
70637.3
71889.2
71085.1
71020.2
70733.6
70665.6
70642.3
70637.7
70637
70636.9
70636.9
70636.9
70636.9
70636.9
70636.9
70636.9
70636.9
70636.9
70636.9
70636.9
70636.9
70636.9
70636.9
70636.9
70636.9
70636.9
70636.9
70636.9
70636.8
70636.9
70637.3
71779.6
71055.9
70989.6
70726.6
70663.3
70641.8
70637.6
70637
70636.9
70636.9
70636.9
70636.9
70636.9
70636.9
70636.9
70636.9
70636.9
70636.9
70636.9
70636.9
70636.9
70636.9
70636.9
70636.9
70636.9
70636.9
70636.9
70636.8
70637
70637.2
71690
71027.7
70960
70719.3
70660.6
70641.1
70637.5
70637
70636.9
70636.9
70636.9
70636.9
70636.9
70636.9
70636.9
70636.9
70636.9
70636.9
70636.9
70636.9
70636.9
70636.9
70636.9
70636.9
70636.9
70636.9
70636.9
70636.9
70637
70637.2
71600.8
70993.9
70932.1
70711.4
70658.4
70640.6
70637.4
70637
70636.9
70636.9
70636.9
70636.9
70636.9
70636.9
70636.9
70636.9
70636.9
70636.9
70636.9
70636.9
70636.9
70636.9
70636.9
70636.9
70636.9
70636.9
70636.9
70636.9
70637
70637.2
71512.5
70963.4
70906.2
70704.8
70656.4
70640.2
70637.3
70637
70636.9
70636.9
70636.9
70636.9
70636.9
70636.9
70636.9
70636.9
70636.9
70636.9
70636.9
70636.9
70636.9
70636.9
70636.9
70636.9
70636.9
70636.9
70636.9
70636.9
70637
70637.2
71428.8
70935.2
70882.2
70698.8
70654.7
70639.9
70637.3
70637
70636.9
70636.9
70636.9
70636.9
70636.9
70636.9
70636.9
70636.9
70636.9
70636.9
70636.9
70636.9
70636.9
70636.9
70636.9
70636.9
70636.9
70636.9
70636.9
70636.9
70637
70637.2
71352.3
70908.2
70859.6
70693.1
70653
70639.6
70637.2
70637
70636.9
70636.9
70636.9
70636.9
70636.9
70636.9
70636.9
70636.9
70636.9
70636.9
70636.9
70636.9
70636.9
70636.9
70636.9
70636.9
70636.9
70636.9
70636.9
70636.9
70637
70637.1
71279.7
70882.2
70838.3
70687.5
70651.4
70639.3
70637.2
70637
70636.9
70636.9
70636.9
70636.9
70636.9
70636.9
70636.9
70636.9
70636.9
70636.9
70636.9
70636.9
70636.9
70636.9
70636.9
70636.9
70636.9
70636.9
70636.9
70636.9
70637
70637.1
71213.4
70857
70817.8
70682.2
70649.8
70639
70637.2
70637
70636.9
70636.9
70636.9
70636.9
70636.9
70636.9
70636.9
70636.9
70636.9
70636.9
70636.9
70636.9
70636.9
70636.9
70636.9
70636.9
70636.9
70636.9
70636.9
70636.9
70637
70637.1
71149.6
70832.7
70798.1
70677
70648.4
70638.7
70637.1
70636.9
70636.9
70636.9
70636.9
70636.9
70636.9
70636.9
70636.9
70636.9
70636.9
70636.9
70636.9
70636.9
70636.9
70636.9
70636.9
70636.9
70636.9
70636.9
70636.9
70636.9
70637
70637.1
71088
70809
70779.1
70672
70647
70638.5
70637.1
70636.9
70636.9
70636.9
70636.9
70636.9
70636.9
70636.9
70636.9
70636.9
70636.9
70636.9
70636.9
70636.9
70636.9
70636.9
70636.9
70636.9
70636.9
70636.9
70636.9
70636.9
70637
70637.1
71030.8
70786.3
70760.9
70667.3
70645.6
70638.2
70637.1
70636.9
70636.9
70636.9
70636.9
70636.9
70636.9
70636.9
70636.9
70636.9
70636.9
70636.9
70636.9
70636.9
70636.9
70636.9
70636.9
70636.9
70636.9
70636.9
70636.9
70636.9
70637
70637.1
70974.6
70764
70743.2
70662.7
70644.3
70638
70637
70636.9
70636.9
70636.9
70636.9
70636.9
70636.9
70636.9
70636.9
70636.9
70636.9
70636.9
70636.9
70636.9
70636.9
70636.9
70636.9
70636.9
70636.9
70636.9
70636.9
70636.9
70637
70637.1
70918.4
70739.6
70725.4
70658.1
70643.1
70637.8
70637
70636.9
70636.9
70636.9
70636.9
70636.9
70636.9
70636.9
70636.9
70636.9
70636.9
70636.9
70636.9
70636.9
70636.9
70636.9
70636.9
70636.9
70636.9
70636.9
70636.9
70636.9
70637
70637.1
70856.9
70707.3
70705.6
70652.8
70641.7
70637.6
70637
70636.9
70636.9
70636.9
70636.9
70636.9
70636.9
70636.9
70636.9
70636.9
70636.9
70636.9
70636.9
70636.9
70636.9
70636.9
70636.9
70636.9
70636.9
70636.9
70636.9
70636.9
70637
70637.1
70790.5
70664.3
70681.5
70645.4
70639.8
70637.3
70637
70636.9
70636.9
70636.9
70636.9
70636.9
70636.9
70636.9
70636.9
70636.9
70636.9
70636.9
70636.9
70636.9
70636.9
70636.9
70636.9
70636.9
70636.9
70636.9
70636.9
70636.9
70637
70637.1
70755.3
70617.3
70656.1
70635.3
70637.2
70636.9
70636.9
70636.9
70636.9
70636.9
70636.9
70636.9
70636.9
70636.9
70636.9
70636.9
70636.9
70636.9
70636.9
70636.9
70636.9
70636.9
70636.9
70636.9
70636.9
70636.9
70636.9
70636.9
70637
70637.1
70737.9
70572.6
70638.5
70625.2
70634.4
70636.4
70636.9
70636.9
70636.9
70636.9
70636.9
70636.9
70636.9
70636.9
70636.9
70636.9
70636.9
70636.9
70636.9
70636.9
70636.9
70636.9
70636.9
70636.9
70636.9
70636.9
70636.9
70636.9
70637
70637.1
70654.4
70621.8
70636.1
70635.9
70636.8
70636.9
70636.9
70636.9
70636.9
70636.9
70636.9
70636.9
70636.9
70636.9
70636.9
70636.9
70636.9
70636.9
70636.9
70636.9
70636.9
70637
70637.2
70638.8
70647.7
70680.7
70774.7
71032
71243.3
71757.8
70649.4
70626.7
70636
70636
70636.8
70636.9
70636.9
70636.9
70636.9
70636.9
70636.9
70636.9
70636.9
70636.9
70636.9
70636.9
70636.9
70636.9
70636.9
70636.9
70636.9
70637
70637.2
70638.8
70647.9
70682.9
70782.9
71078.8
71283.3
71763.2
70644.3
70632.1
70635.9
70636.3
70636.8
70636.9
70636.9
70636.9
70636.9
70636.9
70636.9
70636.9
70636.9
70636.9
70636.9
70636.9
70636.9
70636.9
70636.9
70636.9
70636.9
70636.9
70637.1
70638.5
70646.9
70680.9
70779
71107
71287.1
71837.7
70640.1
70635.1
70635.7
70636.6
70636.9
70636.9
70636.9
70636.9
70636.9
70636.9
70636.9
70636.9
70636.9
70636.9
70636.9
70636.9
70636.9
70636.9
70636.9
70636.9
70636.9
70636.9
70637.1
70638.2
70645.7
70679
70774
71119.9
71279.9
71992.9
70638
70636.5
70636.4
70636.8
70636.9
70636.9
70636.9
70636.9
70636.9
70636.9
70636.9
70636.9
70636.9
70636.9
70636.9
70636.9
70636.9
70636.9
70636.9
70636.9
70636.9
70636.9
70637
70638
70644.3
70675
70766.5
71116.2
71253.5
72083
70637.4
70636.8
70636.8
70636.9
70636.9
70636.9
70636.9
70636.9
70636.9
70636.9
70636.9
70636.9
70636.9
70636.9
70636.9
70636.9
70636.9
70636.9
70636.9
70636.9
70636.9
70636.9
70637
70637.8
70643.5
70670.9
70752.8
71102.5
71186.3
72084.7
70637.3
70636.9
70636.8
70636.9
70636.9
70636.9
70636.9
70636.9
70636.9
70636.9
70636.9
70636.9
70636.9
70636.9
70636.9
70636.9
70636.9
70636.9
70636.9
70636.9
70636.9
70636.9
70637
70637.8
70642.9
70668.1
70741.7
71056
71125.4
72046.3
70637.3
70636.9
70636.8
70636.9
70636.9
70636.9
70636.9
70636.9
70636.9
70636.9
70636.9
70636.9
70636.9
70636.9
70636.9
70636.9
70636.9
70636.9
70636.9
70636.9
70636.9
70636.9
70637
70637.7
70642.3
70665.6
70733.7
71020.3
71085.6
71889.7
70637.2
70637
70636.8
70636.9
70636.9
70636.9
70636.9
70636.9
70636.9
70636.9
70636.9
70636.9
70636.9
70636.9
70636.9
70636.9
70636.9
70636.9
70636.9
70636.9
70636.9
70636.9
70637
70637.6
70641.8
70663.3
70726.6
70989.6
71055.8
71779.5
70637.2
70637
70636.9
70636.9
70636.9
70636.9
70636.9
70636.9
70636.9
70636.9
70636.9
70636.9
70636.9
70636.9
70636.9
70636.9
70636.9
70636.9
70636.9
70636.9
70636.9
70636.9
70637
70637.5
70641.1
70660.6
70719.3
70960
71027.6
71689.3
70637.2
70637
70636.9
70636.9
70636.9
70636.9
70636.9
70636.9
70636.9
70636.9
70636.9
70636.9
70636.9
70636.9
70636.9
70636.9
70636.9
70636.9
70636.9
70636.9
70636.9
70636.9
70637
70637.4
70640.6
70658.4
70711.4
70932.1
70994.1
71601.6
70637.2
70637
70636.9
70636.9
70636.9
70636.9
70636.9
70636.9
70636.9
70636.9
70636.9
70636.9
70636.9
70636.9
70636.9
70636.9
70636.9
70636.9
70636.9
70636.9
70636.9
70636.9
70637
70637.3
70640.2
70656.4
70704.8
70906.2
70963.4
71512
70637.2
70637
70636.9
70636.9
70636.9
70636.9
70636.9
70636.9
70636.9
70636.9
70636.9
70636.9
70636.9
70636.9
70636.9
70636.9
70636.9
70636.9
70636.9
70636.9
70636.9
70636.9
70637
70637.3
70639.9
70654.7
70698.8
70882.2
70935
71429
70637.1
70637
70636.9
70636.9
70636.9
70636.9
70636.9
70636.9
70636.9
70636.9
70636.9
70636.9
70636.9
70636.9
70636.9
70636.9
70636.9
70636.9
70636.9
70636.9
70636.9
70636.9
70637
70637.2
70639.6
70653
70693.1
70859.6
70908.4
71352.5
70637.1
70637
70636.9
70636.9
70636.9
70636.9
70636.9
70636.9
70636.9
70636.9
70636.9
70636.9
70636.9
70636.9
70636.9
70636.9
70636.9
70636.9
70636.9
70636.9
70636.9
70636.9
70637
70637.2
70639.3
70651.4
70687.5
70838.3
70882.1
71279.7
70637.1
70637
70636.9
70636.9
70636.9
70636.9
70636.9
70636.9
70636.9
70636.9
70636.9
70636.9
70636.9
70636.9
70636.9
70636.9
70636.9
70636.9
70636.9
70636.9
70636.9
70636.9
70637
70637.2
70639
70649.9
70682.2
70817.9
70857
71213
70637.1
70637
70636.9
70636.9
70636.9
70636.9
70636.9
70636.9
70636.9
70636.9
70636.9
70636.9
70636.9
70636.9
70636.9
70636.9
70636.9
70636.9
70636.9
70636.9
70636.9
70636.9
70636.9
70637.1
70638.7
70648.4
70677
70798.1
70832.7
71149.9
70637.1
70637
70636.9
70636.9
70636.9
70636.9
70636.9
70636.9
70636.9
70636.9
70636.9
70636.9
70636.9
70636.9
70636.9
70636.9
70636.9
70636.9
70636.9
70636.9
70636.9
70636.9
70636.9
70637.1
70638.5
70647
70672
70779.1
70809
71088.1
70637.1
70637
70636.9
70636.9
70636.9
70636.9
70636.9
70636.9
70636.9
70636.9
70636.9
70636.9
70636.9
70636.9
70636.9
70636.9
70636.9
70636.9
70636.9
70636.9
70636.9
70636.9
70636.9
70637.1
70638.2
70645.6
70667.3
70760.9
70786.3
71030.2
70637.1
70637
70636.9
70636.9
70636.9
70636.9
70636.9
70636.9
70636.9
70636.9
70636.9
70636.9
70636.9
70636.9
70636.9
70636.9
70636.9
70636.9
70636.9
70636.9
70636.9
70636.9
70636.9
70637
70638
70644.3
70662.7
70743.2
70764
70975.1
70637.1
70637
70636.9
70636.9
70636.9
70636.9
70636.9
70636.9
70636.9
70636.9
70636.9
70636.9
70636.9
70636.9
70636.9
70636.9
70636.9
70636.9
70636.9
70636.9
70636.9
70636.9
70636.9
70637
70637.8
70643.1
70658.1
70725.4
70739.6
70918.6
70637.1
70637
70636.9
70636.9
70636.9
70636.9
70636.9
70636.9
70636.9
70636.9
70636.9
70636.9
70636.9
70636.9
70636.9
70636.9
70636.9
70636.9
70636.9
70636.9
70636.9
70636.9
70636.9
70637
70637.6
70641.7
70652.8
70705.7
70707.4
70856.4
70637.1
70637
70636.9
70636.9
70636.9
70636.9
70636.9
70636.9
70636.9
70636.9
70636.9
70636.9
70636.9
70636.9
70636.9
70636.9
70636.9
70636.9
70636.9
70636.9
70636.9
70636.9
70636.9
70637
70637.3
70639.8
70645.4
70681.5
70664.3
70790.8
70637.1
70637
70636.9
70636.9
70636.9
70636.9
70636.9
70636.9
70636.9
70636.9
70636.9
70636.9
70636.9
70636.9
70636.9
70636.9
70636.9
70636.9
70636.9
70636.9
70636.9
70636.9
70636.9
70636.9
70636.9
70637.2
70635.3
70656
70617.2
70754.8
70637.1
70637
70636.9
70636.9
70636.9
70636.9
70636.9
70636.9
70636.9
70636.9
70636.9
70636.9
70636.9
70636.9
70636.9
70636.9
70636.9
70636.9
70636.9
70636.9
70636.9
70636.9
70636.9
70636.9
70636.4
70634.4
70625.1
70638.4
70572.5
70737.8
70637.1
70637.1
70637.1
70637.1
70637.1
70637.1
70637.1
70637.1
70637.1
70637.1
70637.1
70637.1
70637.1
70637.1
70637.1
70637.1
70637.1
70637.1
70637.1
70637.1
70637.1
70637.1
70637.1
70637.1
70637.1
70637.1
70637.1
70637.1
70637.1
70637.1
70637.1
70637.1
70637.1
70637.1
70637.1
70637.1
70637.1
70637.1
70637.1
70637.1
70637.1
70637.1
70637.1
70637.1
70637.1
70637.1
70637.1
70637.1
70637.1
70637.1
70637.1
70637.1
70637.1
70637.1
70637.1
70637.1
70637.1
70637.1
70637.1
70637.1
70637.1
70637.1
70637.1
70637.1
70637.1
70637.1
70637.1
70637.1
70637.1
70637.1
70637.1
70637.1
70637.1
70637.1
70637.1
70637.1
70637.1
70637.1
70637.1
70637.1
70637.1
70637.1
70637.1
70637.1
70637.1
70637.1
70637.1
70637.1
70637.1
70637.1
70637.1
70637.1
70637.1
70637.1
70637.1
70637.1
70637.1
70637.1
70637.1
70637.1
70637.1
70637.1
70637.1
70637.1
70637.1
70637.1
70637.1
70637.1
70637.1
70637.1
70637.1
70637.1
70637.1
70637.1
70637.1
70637.1
70637.1
70637.1
70637.1
70637.1
70637.1
70637.1
70637.1
70637.1
70637.2
70637
70637
70637
70637
70637
70637
70637
70637
70637
70637
70637
70637
70637
70637
70637
70637
70637
70637
70637
70637
70637
70637
70637
70637
70637
70637
70637
70637
70637
70637
70637
70637
70637
70637
70637
70637
70637
70637
70637
70637
70637
70637
70637
70637
70637
70637
70637
70637
70637
70637
70637
70637
70637
70637
70637
70637
70637
70637
70637
70637
70637
70637
70637
70637
70637
70637
70637
70637
70637
70637
70637
70637
70637
70637
70637
70637
70637
70637
70637
70637
70637
70637
70637
70637
70637
70637
70637
70637
70637
70637
70637
70637
70637
70637
70637
70637
70637
70637
70637
70637
70637
70637
70637
70637
70637
70637
70637
70637
70637
70637
70637
70637
70637
70637
70637
70637
70637
70637
70637
70637
70637
70637
70637
70637
70637
70636.9
70637
70637
70637
70637
70636.9
70636.9
70636.9
70636.9
70636.9
70636.9
70636.9
70636.9
70636.9
70636.9
70636.9
70636.9
70636.9
70636.9
70636.9
70636.9
70636.9
70636.9
70636.9
70636.9
70636.9
70636.9
70636.9
70636.9
70636.9
70636.9
70636.9
70636.9
70636.9
70636.9
70636.9
70636.9
70636.9
70636.9
70636.9
70636.9
70636.9
70636.9
70636.9
70636.9
70636.9
70636.9
70636.9
70636.9
70636.9
70636.9
70636.9
70636.9
70636.9
70636.9
70636.9
70636.9
70636.9
70636.9
70636.9
70636.9
70636.9
70636.9
70636.9
70636.9
70636.9
70636.9
70636.9
70636.9
70636.9
70636.9
70636.9
70636.9
70636.9
70636.9
70636.9
70636.9
70636.9
70636.9
70636.9
70636.9
70636.9
70636.9
70636.9
70636.9
70636.9
70636.9
70636.9
70636.9
70636.9
70636.9
70636.9
70636.9
70636.9
70636.9
70636.9
70636.9
70636.9
70636.9
70636.9
70636.9
70636.9
70636.9
70636.9
70636.9
70636.9
70636.9
70636.9
70636.9
70636.9
70636.9
70636.9
70636.9
70636.9
70636.9
70636.9
70636.9
70636.9
70636.9
70636.9
70636.9
70636.9
70636.9
70636.9
70636.9
70636.9
70636.9
70636.9
70636.9
70636.9
70636.9
70636.9
70636.9
70636.9
70636.9
70636.9
70636.9
70636.9
70636.9
70636.9
70636.9
70636.9
70636.9
70636.9
70636.9
70636.9
70636.9
70636.9
70636.9
70636.9
70636.9
70636.9
70636.9
70636.9
70636.9
70636.9
70636.9
70636.9
70636.9
70636.9
70636.9
70636.9
70636.9
70636.9
70636.9
70636.9
70636.9
70636.9
70636.9
70636.9
70636.9
70636.9
70636.9
70636.9
70636.9
70636.9
70636.9
70636.9
70636.9
70636.9
70636.9
70636.9
70636.9
70636.9
70636.9
70636.9
70636.9
70636.9
70636.9
70636.9
70636.9
70636.9
70636.9
70636.9
70636.9
70636.9
70636.9
70636.9
70636.9
70636.9
70636.9
70636.9
70636.9
70636.9
70636.9
70636.9
70636.9
70636.9
70636.9
70636.9
70636.9
70636.9
70636.9
70636.9
70636.9
70636.9
70636.9
70636.9
70636.9
70636.9
70636.9
70636.9
70636.9
70636.9
70636.9
70636.9
70636.9
70636.9
70636.9
70636.9
70636.9
70636.9
70636.9
70636.9
70636.9
70636.9
70636.9
70636.9
70636.9
70636.9
70636.9
70636.9
70636.9
70636.9
70636.9
70636.9
70636.9
70636.9
70636.9
70636.9
70636.9
70636.9
70636.9
70636.9
70636.9
70636.9
70636.9
70636.9
70636.9
70636.9
70636.9
70636.9
70636.9
70636.9
70636.9
70636.9
70636.9
70636.9
70636.9
70636.9
70636.9
70636.9
70636.9
70636.9
70636.9
70636.9
70636.9
70636.9
70636.9
70636.9
70636.9
70636.9
70636.9
70636.9
70636.9
70636.9
70636.9
70636.9
70636.9
70636.9
70636.9
70636.9
70636.9
70636.9
70636.9
70636.9
70636.9
70636.9
70636.9
70636.9
70636.9
70636.9
70636.9
70636.9
70636.9
70636.9
70636.9
70636.9
70636.9
70636.9
70636.9
70636.9
70636.9
70636.9
70636.9
70636.9
70636.9
70636.9
70636.9
70636.9
70636.9
70636.9
70636.9
70636.9
70636.9
70636.9
70636.9
70636.9
70636.9
70636.9
70636.9
70636.9
70636.9
70636.9
70636.9
70636.9
70636.9
70636.9
70636.9
70636.9
70636.9
70636.9
70636.9
70636.9
70636.9
70636.9
70636.9
70636.9
70636.9
70636.9
70636.9
70636.9
70636.9
70636.9
70636.9
70636.9
70636.9
70636.9
70636.9
70636.9
70636.9
70636.9
70636.9
70636.9
70636.9
70636.9
70636.9
70636.9
70636.9
70636.9
70636.9
70636.9
70636.9
70636.9
70636.9
70636.9
70636.9
70636.9
70636.9
70636.9
70636.9
70636.9
70636.9
70636.9
70636.9
70636.9
70636.9
70636.9
70636.9
70636.9
70636.9
70636.9
70636.9
70636.9
70636.9
70636.9
70636.9
70636.9
70636.9
70636.9
70636.9
70636.9
70636.9
70636.9
70636.9
70636.9
70636.9
70636.9
70636.9
70636.9
70636.9
70636.9
70636.9
70636.9
70636.9
70636.9
70636.9
70636.9
70636.9
70636.9
70636.9
70636.9
70636.9
70636.9
70636.9
70636.9
70636.9
70636.9
70636.9
70636.9
70636.9
70636.9
70636.9
70636.9
70636.9
70636.9
70636.9
70636.9
70636.9
70636.9
70636.9
70636.9
70636.9
70636.9
70636.9
70636.9
70636.9
70636.9
70636.9
70636.9
70636.9
70636.9
70636.9
70636.9
70636.9
70636.9
70636.9
70636.9
70636.9
70636.9
70636.9
70636.9
70636.9
70636.9
70636.9
70636.9
70636.9
70636.9
70636.9
70636.9
70636.9
70636.9
70636.9
70636.9
70636.9
70636.9
70636.9
70636.9
70636.9
70636.9
70636.9
70636.9
70636.9
70636.9
70636.9
70636.9
70636.9
70636.9
70636.9
70636.9
70636.9
70636.9
70636.9
70636.9
70636.9
70636.9
70636.9
70636.9
70636.9
70636.9
70636.9
70636.9
70636.9
70636.9
70636.9
70636.9
70636.9
70636.9
70636.9
70636.9
70636.9
70636.9
70636.9
70636.9
70636.9
70636.9
70636.9
70636.9