/*--------------------------------*- C++ -*----------------------------------*\
| =========                 |                                                 |
| \\      /  F ield         | OpenFOAM: The Open Source CFD Toolbox           |
|  \\    /   O peration     | Version:  2112                                  |
|   \\  /    A nd           | Website:  www.openfoam.com                      |
|    \\/     M anipulation  |                                                 |
\*---------------------------------------------------------------------------*/
FoamFile
{
    version     2.0;
    format      ascii;
    arch        "LSB;label=32;scalar=64";
    class       volScalarField;
    location    "0.00753";
    object      alphat;
}
// * * * * * * * * * * * * * * * * * * * * * * * * * * * * * * * * * * * * * //

dimensions      [1 -1 -1 0 0 0 0];

internalField   nonuniform List<scalar> 
13875
(
0.11986
0.0816024
0.0784483
0.078268
0.078329
0.0783735
0.0783038
0.0782703
0.0782947
0.0783086
0.0783111
0.0783124
0.0783808
0.0784133
0.0783942
0.0782972
0.0782559
0.0782945
0.0783035
0.0783542
0.0783205
0.0782656
0.0784838
0.08144
0.120917
0.103938
0.0576791
0.0570823
0.057171
0.0567103
0.0569126
0.0570977
0.0571375
0.0571466
0.0571278
0.0571263
0.0571216
0.0566599
0.0566147
0.056668
0.0570969
0.0571182
0.0571522
0.0570738
0.0566796
0.0566739
0.0571393
0.0570623
0.0573666
0.104644
0.110619
0.0553251
0.055878
0.0547355
0.0546038
0.0544693
0.0543329
0.0543541
0.0542956
0.0541576
0.0541326
0.0543411
0.0542488
0.0542768
0.0542413
0.0543496
0.054108
0.0542552
0.0542807
0.054451
0.0545303
0.0546016
0.0557817
0.0550955
0.111213
0.115886
0.0546455
0.0553863
0.0543319
0.0540637
0.0539325
0.0536978
0.0535671
0.0534708
0.0534084
0.0533445
0.0534527
0.0537018
0.0537402
0.0536934
0.0534844
0.0533652
0.0534652
0.0536344
0.0539061
0.0539995
0.0542012
0.055195
0.0542928
0.115753
0.121033
0.0546351
0.055126
0.0537635
0.0537079
0.05349
0.0531907
0.0530735
0.0529783
0.0529211
0.0528552
0.0529645
0.0532205
0.0532653
0.0532161
0.0529959
0.0528777
0.0529569
0.0531098
0.0534749
0.0536074
0.0536116
0.0550198
0.054319
0.121321
0.124408
0.0547453
0.0551915
0.0536265
0.0533186
0.053094
0.0527926
0.0526227
0.0525473
0.0524921
0.0524151
0.0525097
0.0527753
0.0528507
0.0527673
0.0525405
0.0524488
0.0525472
0.0527335
0.053053
0.0532386
0.0535038
0.054886
0.0543893
0.124064
0.128744
0.0564744
0.0557877
0.0534701
0.0532944
0.0528675
0.0524199
0.0522518
0.0521579
0.0521179
0.0520321
0.0521221
0.0524082
0.0524782
0.052399
0.0521504
0.0520777
0.0521626
0.0523583
0.0528618
0.0531949
0.0533629
0.0556472
0.0563497
0.12898
0.135699
0.0611951
0.0578372
0.0544226
0.053414
0.0528257
0.0522804
0.0519862
0.0518701
0.0518319
0.0517434
0.0517961
0.0521016
0.052189
0.0520847
0.0518228
0.0518068
0.0519239
0.0522189
0.052788
0.0533248
0.0542759
0.0575165
0.0610264
0.135624
0.151297
0.0692426
0.0615384
0.0559221
0.0544113
0.0531293
0.0522402
0.0518863
0.0517174
0.051667
0.051577
0.0515944
0.0519348
0.0520323
0.0519252
0.0516242
0.0516551
0.0518019
0.0521624
0.0530925
0.0542246
0.0556152
0.0610323
0.0684113
0.154237
0.239299
0.0874258
0.0664517
0.0589802
0.0553612
0.0536739
0.0525285
0.0520084
0.0518227
0.0517435
0.0516612
0.051639
0.0519979
0.0521176
0.0520039
0.0517136
0.0517655
0.0519487
0.0524402
0.0536061
0.0552576
0.0586503
0.0660066
0.0866808
0.241143
0.365316
0.11839
0.0759325
0.062887
0.057534
0.0547562
0.0531361
0.0526112
0.0523366
0.0522189
0.0521422
0.0520933
0.0524394
0.0525823
0.0525007
0.0522662
0.052317
0.0525559
0.0530371
0.0546189
0.0573195
0.0616132
0.0748096
0.113008
0.365582
0.658144
0.192899
0.103923
0.0743124
0.0612718
0.0572987
0.0551737
0.054224
0.0537221
0.0535136
0.0534031
0.0533435
0.053619
0.0537925
0.0537883
0.0536879
0.053769
0.0541718
0.0551165
0.0568614
0.0618783
0.0733598
0.10013
0.182831
0.643473
0.581938
0.435909
0.175964
0.0919743
0.0767314
0.0649585
0.0597465
0.0578843
0.056947
0.0565906
0.0564285
0.0563602
0.0565188
0.0567025
0.0568209
0.0569052
0.0571533
0.0579629
0.0598137
0.0652933
0.0762686
0.089484
0.171852
0.433617
0.581203
0.491447
0.400228
0.346457
0.327149
0.115868
0.0805354
0.0735992
0.0676597
0.0651439
0.0643542
0.0639558
0.0637754
0.0638184
0.063993
0.0643033
0.0648088
0.0657374
0.0683943
0.0749675
0.0833873
0.13099
0.328581
0.337162
0.401229
0.499998
0.408105
0.349541
0.329267
0.33404
0.302256
0.199906
0.127002
0.0946724
0.0866892
0.0860745
0.0855181
0.0852225
0.0852552
0.0854306
0.0858899
0.0868417
0.0876986
0.0953603
0.133457
0.210414
0.303172
0.330386
0.331371
0.360194
0.421414
0.329688
0.293024
0.281919
0.301429
0.31368
0.322025
0.244004
0.191406
0.171282
0.148783
0.136495
0.132408
0.130912
0.1316
0.134299
0.142961
0.171364
0.19555
0.248166
0.324867
0.308231
0.303615
0.291322
0.298328
0.341817
0.239172
0.227516
0.225895
0.265917
0.320309
0.403924
0.535163
0.571136
0.544701
0.54141
0.56201
0.575672
0.58313
0.579433
0.565966
0.554977
0.542709
0.572739
0.535534
0.403857
0.314914
0.266832
0.230706
0.234593
0.252008
0.140912
0.152791
0.186419
0.228811
0.316992
0.437561
0.569158
0.622087
0.560587
0.510632
0.495084
0.492531
0.495644
0.494423
0.498882
0.528745
0.564485
0.611696
0.575472
0.446262
0.31645
0.230322
0.178721
0.143604
0.131607
0.0683427
0.102589
0.164021
0.251122
0.353735
0.409697
0.474836
0.534196
0.4967
0.448393
0.430809
0.429264
0.431055
0.434016
0.439164
0.458261
0.492163
0.529803
0.490002
0.423329
0.37232
0.268827
0.168064
0.104219
0.0701402
0.0262016
0.0518966
0.113846
0.235941
0.351457
0.360885
0.383926
0.426787
0.423676
0.400044
0.388583
0.383991
0.381547
0.38911
0.396201
0.402966
0.412757
0.415487
0.387768
0.373069
0.365288
0.238479
0.11477
0.0519971
0.0256584
0.0739286
0.0831977
0.112008
0.189419
0.275467
0.284259
0.307089
0.3522
0.369099
0.359275
0.347493
0.337494
0.332543
0.343327
0.35462
0.359776
0.3569
0.339187
0.306533
0.291914
0.282963
0.187977
0.111436
0.0845451
0.0790332
0.119704
0.136676
0.124334
0.156862
0.207535
0.223333
0.252596
0.299256
0.322847
0.31868
0.306528
0.293627
0.287209
0.299258
0.313118
0.318192
0.310946
0.287266
0.247612
0.226302
0.211009
0.154255
0.12305
0.136896
0.121536
0.161583
0.140945
0.127258
0.134148
0.162341
0.179556
0.212593
0.256385
0.280998
0.279654
0.267058
0.25307
0.24666
0.257571
0.272087
0.277816
0.269412
0.24742
0.207044
0.18059
0.164674
0.134216
0.126128
0.143874
0.164411
0.203372
0.168338
0.12976
0.123093
0.137568
0.154212
0.180814
0.220639
0.243238
0.24295
0.230761
0.217796
0.211785
0.221854
0.235441
0.241136
0.232269
0.212381
0.176763
0.153714
0.138646
0.123105
0.129239
0.17859
0.202886
0.223639
0.202597
0.133077
0.118257
0.121199
0.134042
0.157096
0.188886
0.208626
0.209393
0.199042
0.187031
0.182184
0.190819
0.203708
0.208996
0.200492
0.182515
0.154652
0.133426
0.121599
0.120222
0.13412
0.217138
0.222559
0.24533
0.233293
0.134191
0.114708
0.110889
0.121121
0.138693
0.164792
0.180633
0.181084
0.172435
0.161957
0.157314
0.164999
0.176035
0.180257
0.173277
0.158697
0.136286
0.120396
0.111648
0.116093
0.135473
0.245714
0.245791
0.271049
0.251542
0.135617
0.111673
0.104303
0.109025
0.124331
0.143521
0.155865
0.156153
0.148965
0.139875
0.136444
0.142826
0.15253
0.156095
0.150382
0.138548
0.122098
0.108372
0.104939
0.113457
0.139006
0.268963
0.266056
0.298705
0.27278
0.136171
0.107671
0.0987915
0.101707
0.112514
0.127043
0.135741
0.135278
0.129433
0.122193
0.11891
0.12477
0.13293
0.136193
0.132179
0.123124
0.110243
0.101026
0.100229
0.109208
0.139972
0.290162
0.295296
0.328054
0.302608
0.141673
0.105273
0.0964138
0.0945365
0.102508
0.112488
0.118954
0.118367
0.113329
0.106705
0.10421
0.108796
0.115688
0.118412
0.115669
0.109189
0.101008
0.094162
0.0970041
0.106389
0.143463
0.308286
0.323458
0.355429
0.316906
0.143551
0.101813
0.092223
0.0906265
0.0950923
0.101413
0.105059
0.103629
0.0993909
0.0942984
0.0917974
0.0962009
0.101961
0.104509
0.102924
0.0983105
0.0927663
0.0895232
0.0929565
0.102774
0.146913
0.32439
0.344535
0.370139
0.323
0.149319
0.100721
0.0902009
0.0861086
0.0884424
0.0906114
0.0927089
0.0913718
0.0879442
0.083203
0.0813778
0.0849183
0.0900905
0.092289
0.0916506
0.08904
0.0871259
0.0852159
0.0903448
0.101436
0.150164
0.32583
0.370778
0.379374
0.323738
0.154385
0.0991688
0.0860142
0.0816559
0.0830974
0.0834686
0.0839057
0.0817891
0.0784148
0.074634
0.0725822
0.0759488
0.0802479
0.0824477
0.0826585
0.0813312
0.0813625
0.0806059
0.0856942
0.0994869
0.152761
0.325021
0.387846
0.396972
0.319281
0.160167
0.100454
0.0840699
0.0780213
0.0784658
0.075906
0.0751808
0.0731325
0.0703707
0.0666343
0.0651976
0.0679428
0.0720465
0.0739786
0.0748318
0.0748821
0.0771641
0.0768206
0.0835157
0.100209
0.1601
0.329776
0.39567
0.404528
0.314217
0.163958
0.100901
0.0808007
0.0744218
0.0732248
0.0704434
0.068823
0.0662527
0.0634427
0.0605565
0.058927
0.0616396
0.0651469
0.0673135
0.0686497
0.0693308
0.0720241
0.0733102
0.0801368
0.100376
0.16539
0.322554
0.402766
0.412229
0.311912
0.164264
0.104191
0.0810527
0.0720837
0.069258
0.0650381
0.062638
0.0600925
0.0578189
0.0547617
0.0536121
0.0557665
0.0591255
0.0608847
0.0628232
0.0645541
0.0682612
0.0707655
0.0797234
0.102412
0.167941
0.323021
0.411107
0.417894
0.304172
0.162288
0.106672
0.081067
0.0687454
0.064813
0.06065
0.0582251
0.0553157
0.0527276
0.0503878
0.0490763
0.0512903
0.0541766
0.056336
0.0582902
0.0597305
0.0638607
0.0676821
0.0795169
0.105967
0.166388
0.320387
0.416926
0.422512
0.305848
0.161928
0.112612
0.0831382
0.0674526
0.0619652
0.0560877
0.0534161
0.0505812
0.0486338
0.0460969
0.0451571
0.0469193
0.0498094
0.0515316
0.0540602
0.0559669
0.0614679
0.0662471
0.081173
0.110632
0.164792
0.314142
0.424339
0.417588
0.304239
0.159364
0.121778
0.0854232
0.0657891
0.0585924
0.0528273
0.0501301
0.0474028
0.0449492
0.0429676
0.0418089
0.0436224
0.0461576
0.0482395
0.0502386
0.0518894
0.057863
0.0643933
0.0822976
0.118958
0.159734
0.311332
0.429344
0.414363
0.303135
0.155712
0.123579
0.0891754
0.0668919
0.0568346
0.0494358
0.0463543
0.0435939
0.0419284
0.0397076
0.0389065
0.0403771
0.0428916
0.044417
0.047143
0.0493206
0.0561108
0.0652115
0.0866951
0.122574
0.155711
0.317589
0.427019
0.40583
0.30368
0.148235
0.123588
0.0953017
0.0670898
0.0545866
0.0469285
0.0438702
0.0413584
0.0391184
0.0374006
0.0363806
0.0379726
0.0401795
0.0420715
0.0441475
0.0463387
0.0538937
0.0651932
0.0901171
0.122758
0.149312
0.315123
0.419051
0.396237
0.304412
0.143842
0.122776
0.105148
0.070381
0.0548366
0.0451088
0.0413041
0.0383708
0.0368092
0.0348402
0.0341758
0.035402
0.0376004
0.0389854
0.0420497
0.0448877
0.0537378
0.0675744
0.0977212
0.121815
0.145317
0.319329
0.402104
0.392296
0.30238
0.138282
0.120184
0.108885
0.0726645
0.054212
0.0439976
0.0396832
0.0369257
0.034657
0.0330907
0.0322143
0.0336287
0.0355879
0.0373824
0.0398378
0.0432669
0.0535061
0.0695787
0.108948
0.120975
0.14203
0.311727
0.388366
0.384839
0.303997
0.136189
0.115525
0.108601
0.0791939
0.055501
0.0439203
0.0382727
0.0345047
0.0328617
0.0310679
0.0304981
0.0315615
0.033587
0.0350788
0.0390132
0.0434844
0.0543943
0.0745818
0.108989
0.117256
0.138766
0.31048
0.384208
0.376754
0.300069
0.135091
0.110834
0.107364
0.0886674
0.0571641
0.0438666
0.0377969
0.0339844
0.031327
0.0297883
0.0289605
0.0301901
0.0320811
0.0340685
0.0376294
0.043125
0.0557729
0.0818839
0.107891
0.111959
0.137237
0.312272
0.379355
0.370992
0.297337
0.13389
0.105977
0.104033
0.092508
0.0613967
0.0446887
0.0377285
0.032336
0.0300686
0.0281983
0.0276285
0.0285884
0.0306377
0.0326546
0.0380861
0.0443254
0.0604086
0.0940847
0.10516
0.107229
0.139379
0.309615
0.37158
0.364292
0.295654
0.133994
0.102806
0.0987018
0.0919343
0.0683588
0.0463192
0.0377472
0.0328398
0.0293144
0.027411
0.0265078
0.0277058
0.0299049
0.0326787
0.0375559
0.0453755
0.0672558
0.0935893
0.100639
0.104005
0.13873
0.305386
0.366688
0.352563
0.289357
0.135637
0.100222
0.0938283
0.0907789
0.0793773
0.0506662
0.038752
0.0322218
0.0290271
0.02653
0.025699
0.026791
0.029433
0.0322556
0.0387077
0.049353
0.0780503
0.0923892
0.0957882
0.10085
0.139196
0.30085
0.35795
0.343195
0.285035
0.134217
0.0984998
0.0901189
0.0876303
0.0796764
0.05715
0.0404644
0.0330175
0.0290306
0.0266123
0.025154
0.0267951
0.029547
0.0328351
0.0395922
0.0558211
0.0784784
0.0890064
0.09212
0.100016
0.13908
0.293447
0.34602
0.317698
0.273684
0.133741
0.097229
0.0873758
0.0842449
0.0785811
0.0673457
0.0449975
0.0331767
0.0291191
0.0263342
0.0251579
0.0265434
0.0294694
0.0330813
0.0438182
0.0659012
0.0780629
0.0851118
0.0888258
0.0979978
0.137265
0.281336
0.319044
0.288014
0.25554
0.129186
0.0958452
0.0853134
0.0801101
0.0768789
0.0680762
0.0516101
0.0363572
0.0297248
0.0267785
0.0252488
0.026912
0.030037
0.0354734
0.0488945
0.0681827
0.0764257
0.0802199
0.0859294
0.0967459
0.132118
0.263873
0.290395
0.0566373
0.135811
0.180868
0.210628
0.245904
0.254099
0.237719
0.21658
0.209713
0.214184
0.21143
0.201885
0.19252
0.217204
0.250043
0.274607
0.301366
0.340993
0.414183
0.609318
0.908631
1.02764
1.03802
1.02799
1.01706
0.98658
0.907543
0.787496
0.608063
0.248493
0.0516863
0.138644
0.189978
0.238165
0.268711
0.257332
0.232524
0.202474
0.196387
0.201249
0.199221
0.196883
0.194415
0.221911
0.246331
0.266728
0.297383
0.356441
0.50391
0.778771
0.901804
0.955796
0.965289
0.956077
0.945224
0.90921
0.836291
0.728965
0.569523
0.242878
0.0554881
0.149802
0.207571
0.258608
0.275164
0.252702
0.22021
0.187017
0.185926
0.193199
0.192888
0.194464
0.19634
0.223066
0.242814
0.267902
0.317392
0.43692
0.663289
0.801802
0.864056
0.894456
0.902609
0.894109
0.884141
0.84582
0.778391
0.68143
0.53717
0.237789
0.0583459
0.162953
0.228653
0.27644
0.280059
0.250665
0.207
0.179974
0.180019
0.188644
0.191021
0.19607
0.201695
0.224948
0.24762
0.288362
0.393478
0.570942
0.697645
0.779085
0.818575
0.8338
0.836154
0.831183
0.822866
0.782567
0.721849
0.63646
0.506208
0.232894
0.0606091
0.177024
0.248636
0.28893
0.283043
0.248045
0.202212
0.180046
0.181529
0.192305
0.200629
0.210959
0.221773
0.248693
0.285068
0.379886
0.507088
0.605551
0.692422
0.748361
0.775101
0.7823
0.77756
0.778319
0.770816
0.73246
0.677889
0.601526
0.481277
0.227289
0.0630646
0.194713
0.268544
0.304961
0.291796
0.250973
0.20507
0.186524
0.194513
0.212022
0.225533
0.243691
0.265938
0.315218
0.389416
0.468596
0.543066
0.606872
0.676761
0.716368
0.73398
0.73544
0.72941
0.728318
0.721199
0.685264
0.635435
0.566282
0.454457
0.221213
0.0664405
0.21598
0.290508
0.323529
0.303208
0.261137
0.220761
0.211551
0.227878
0.252535
0.277006
0.30812
0.358056
0.402043
0.447408
0.502047
0.551806
0.601576
0.657696
0.685988
0.696327
0.693492
0.686769
0.686665
0.679293
0.646564
0.601473
0.537948
0.431829
0.216622
0.0709809
0.24095
0.316024
0.345739
0.328304
0.301612
0.272743
0.269839
0.286853
0.314319
0.349427
0.38514
0.418299
0.4445
0.477943
0.515696
0.552841
0.594775
0.637348
0.656349
0.659435
0.649628
0.64693
0.64725
0.640175
0.608508
0.566744
0.507853
0.408172
0.210693
0.0774442
0.269041
0.344694
0.380184
0.375221
0.372
0.353022
0.346049
0.35978
0.382458
0.419719
0.449532
0.470754
0.480088
0.497675
0.521305
0.550963
0.586085
0.615926
0.625729
0.620924
0.610556
0.61166
0.612332
0.603621
0.572312
0.533944
0.47952
0.38669
0.204508
0.0860943
0.301359
0.38533
0.428534
0.432317
0.428389
0.425659
0.429383
0.446987
0.466989
0.493653
0.505212
0.507612
0.505305
0.512936
0.527058
0.5468
0.572683
0.590529
0.590402
0.581656
0.577431
0.579743
0.578516
0.567081
0.539308
0.505025
0.455653
0.368838
0.198446
0.0973542
0.344245
0.434984
0.473621
0.475638
0.477772
0.480739
0.48882
0.5097
0.533808
0.549773
0.555004
0.550661
0.541241
0.534047
0.532891
0.541954
0.556996
0.559933
0.553453
0.543767
0.548048
0.551439
0.548884
0.536128
0.511289
0.479276
0.433329
0.349958
0.191335
0.111793
0.395735
0.48341
0.516014
0.526432
0.540592
0.550339
0.565416
0.593204
0.622994
0.636138
0.630731
0.612488
0.586223
0.558693
0.540958
0.537186
0.53668
0.527355
0.515499
0.515733
0.522399
0.526139
0.521761
0.507847
0.485437
0.455749
0.412029
0.331289
0.184283
0.128775
0.451221
0.532482
0.565004
0.585505
0.610175
0.637031
0.667215
0.699343
0.720654
0.723626
0.708439
0.67703
0.635024
0.589956
0.552822
0.532715
0.512635
0.495462
0.488637
0.493001
0.500307
0.502632
0.495913
0.482367
0.461587
0.433718
0.391417
0.314194
0.177711
0.146647
0.510119
0.586037
0.619448
0.647706
0.679758
0.717882
0.752588
0.782377
0.798907
0.797138
0.77721
0.740819
0.687592
0.625488
0.568949
0.526195
0.491457
0.473278
0.469198
0.474851
0.48129
0.479563
0.471665
0.45863
0.439168
0.412798
0.372504
0.298806
0.171107
0.164796
0.573398
0.641586
0.672811
0.708622
0.745999
0.784856
0.819559
0.847334
0.862255
0.859189
0.836889
0.796629
0.735194
0.659936
0.586884
0.524774
0.481248
0.459917
0.455482
0.460491
0.46246
0.458451
0.450277
0.437111
0.418241
0.393279
0.354705
0.283804
0.164633
0.182771
0.639436
0.699165
0.719754
0.752381
0.795207
0.832956
0.867157
0.892455
0.903575
0.898941
0.876091
0.836169
0.773973
0.69432
0.608163
0.532367
0.480583
0.454006
0.447051
0.447716
0.444758
0.439403
0.430788
0.417621
0.399238
0.375011
0.338123
0.269659
0.158659
0.201127
0.703694
0.747159
0.75214
0.782164
0.822389
0.856223
0.887918
0.907171
0.915115
0.914021
0.900892
0.868994
0.809975
0.727789
0.634317
0.548223
0.487561
0.453301
0.44088
0.434872
0.42866
0.421916
0.413306
0.400391
0.382357
0.358365
0.32233
0.255922
0.1528
0.219626
0.761818
0.777095
0.769736
0.793202
0.824995
0.858178
0.883224
0.901301
0.916584
0.924504
0.920267
0.8955
0.840972
0.760986
0.665979
0.572
0.500953
0.456869
0.436325
0.422438
0.413463
0.406572
0.397882
0.385044
0.367352
0.34337
0.307289
0.243077
0.147274
0.234962
0.801052
0.791049
0.773371
0.785045
0.81129
0.841851
0.866694
0.888914
0.911456
0.927874
0.93189
0.913918
0.866321
0.793927
0.701746
0.602037
0.519017
0.460642
0.428999
0.410758
0.400265
0.393405
0.38447
0.37174
0.354181
0.329943
0.293805
0.231582
0.142356
0.246021
0.821472
0.791059
0.76169
0.765341
0.789966
0.818469
0.846774
0.874298
0.90316
0.925989
0.936809
0.926022
0.888384
0.828049
0.74118
0.635776
0.532248
0.462986
0.422343
0.401075
0.389833
0.382291
0.373077
0.360329
0.342364
0.318107
0.282135
0.221642
0.137915
0.253557
0.82384
0.768911
0.733201
0.740009
0.770023
0.799464
0.829108
0.860635
0.893859
0.921286
0.937381
0.932739
0.907051
0.861149
0.780157
0.667607
0.552505
0.469418
0.42056
0.395177
0.381796
0.372918
0.362925
0.349907
0.331614
0.307392
0.271528
0.212596
0.133762
0.259066
0.796578
0.720078
0.694259
0.713337
0.749646
0.782944
0.815795
0.846015
0.882753
0.913054
0.930855
0.928801
0.91273
0.879877
0.808079
0.698468
0.581745
0.484962
0.423622
0.391498
0.374939
0.364739
0.35403
0.339908
0.321526
0.297322
0.261807
0.203897
0.129607
0.249925
0.719586
0.639325
0.647485
0.684279
0.727169
0.766401
0.803705
0.834007
0.868961
0.902635
0.917973
0.914845
0.905368
0.884237
0.828165
0.734821
0.620365
0.507148
0.429716
0.38899
0.36896
0.357337
0.345657
0.330241
0.312544
0.288156
0.252913
0.196121
0.126574
0.251737
0.615895
0.543241
0.59322
0.650951
0.703681
0.750228
0.792364
0.825731
0.857209
0.892259
0.906507
0.902447
0.899284
0.890122
0.851039
0.774935
0.662644
0.53434
0.440647
0.391392
0.366805
0.352126
0.338062
0.323906
0.305301
0.28066
0.245637
0.190356
0.124321
0.204424
0.391641
0.447583
0.538996
0.618062
0.680723
0.735525
0.783489
0.820048
0.85459
0.889234
0.90535
0.901296
0.902517
0.902751
0.877148
0.815592
0.706496
0.568497
0.45762
0.396469
0.366682
0.348863
0.33415
0.319235
0.299946
0.273959
0.239393
0.185191
0.122344
0.2485
0.61064
0.790182
0.909935
0.991046
1.03054
1.04433
1.04764
1.03307
0.903017
0.605695
0.411459
0.339268
0.300547
0.274502
0.249137
0.216346
0.194916
0.205108
0.214891
0.215683
0.210053
0.218274
0.240776
0.257092
0.248731
0.212998
0.183114
0.137168
0.056382
0.242975
0.571839
0.731841
0.840229
0.914592
0.956905
0.9694
0.977947
0.962679
0.902702
0.774166
0.505448
0.355698
0.297201
0.267009
0.246215
0.22192
0.196381
0.199562
0.202357
0.202496
0.195982
0.20339
0.235414
0.260443
0.271553
0.240869
0.192546
0.140409
0.0518526
0.238255
0.539943
0.684386
0.782589
0.851572
0.896799
0.905993
0.914425
0.901044
0.866927
0.798534
0.664999
0.44085
0.319696
0.268802
0.243565
0.224143
0.197845
0.197493
0.195973
0.194675
0.185573
0.187697
0.222979
0.255928
0.278108
0.261097
0.210518
0.152017
0.0557141
0.233748
0.509292
0.638793
0.725334
0.786957
0.830731
0.842136
0.842823
0.839636
0.821887
0.777902
0.695508
0.572146
0.404447
0.293561
0.250916
0.228682
0.204159
0.200367
0.194446
0.190576
0.180446
0.181041
0.209901
0.253738
0.2835
0.279227
0.231295
0.1654
0.0586983
0.228591
0.484482
0.603867
0.681069
0.736304
0.776693
0.788246
0.787322
0.787598
0.778243
0.747359
0.685604
0.603935
0.508896
0.394508
0.295277
0.257497
0.227738
0.217756
0.205847
0.195898
0.183788
0.182251
0.206041
0.252591
0.287469
0.29279
0.25096
0.179255
0.0610165
0.222427
0.457567
0.568449
0.637906
0.688444
0.726404
0.739329
0.737512
0.740257
0.736831
0.715701
0.668453
0.604658
0.541393
0.472133
0.401705
0.332993
0.279074
0.255329
0.235828
0.220328
0.201368
0.192183
0.211095
0.257282
0.297733
0.310937
0.272466
0.197266
0.0634757
0.217873
0.434661
0.540053
0.604031
0.649779
0.684017
0.695024
0.693335
0.697652
0.69846
0.685552
0.650176
0.59922
0.550149
0.501276
0.450759
0.409586
0.374723
0.326984
0.294558
0.267481
0.240909
0.223947
0.233498
0.271297
0.311155
0.330904
0.295707
0.219351
0.0670716
0.212565
0.411708
0.510851
0.569625
0.61204
0.644675
0.654992
0.653071
0.653721
0.661623
0.655629
0.631101
0.590507
0.551561
0.514957
0.479325
0.449997
0.428215
0.394368
0.362184
0.328405
0.30109
0.286492
0.292699
0.320588
0.342048
0.356575
0.324022
0.245823
0.0717689
0.206151
0.389354
0.482368
0.536822
0.576334
0.608434
0.619459
0.61768
0.615926
0.624147
0.626005
0.610714
0.579693
0.55013
0.521434
0.499687
0.48616
0.479805
0.45837
0.429688
0.393233
0.371799
0.359531
0.368816
0.390152
0.395832
0.396571
0.356443
0.277226
0.0788625
0.199951
0.370803
0.457915
0.507105
0.542324
0.571829
0.585499
0.585293
0.582656
0.586646
0.592536
0.588113
0.567047
0.546503
0.528989
0.517587
0.513002
0.517571
0.51694
0.504579
0.477981
0.458875
0.441812
0.439362
0.443205
0.446191
0.44632
0.401751
0.312857
0.0884533
0.192781
0.351549
0.435179
0.481205
0.513591
0.539689
0.55395
0.556904
0.553926
0.549902
0.558855
0.562356
0.553387
0.542542
0.537636
0.543187
0.55433
0.565618
0.572607
0.565975
0.547905
0.522716
0.502788
0.494909
0.492656
0.489842
0.489364
0.453113
0.359876
0.101024
0.185341
0.332459
0.413657
0.457271
0.487098
0.510228
0.525312
0.531477
0.52843
0.522428
0.524118
0.534099
0.538488
0.539332
0.549305
0.57332
0.605922
0.635578
0.654761
0.660091
0.645691
0.615608
0.585748
0.569969
0.559077
0.544848
0.533044
0.500723
0.413614
0.116916
0.17815
0.314587
0.392742
0.434913
0.463115
0.48402
0.498742
0.507595
0.506952
0.499872
0.49539
0.506357
0.522267
0.537707
0.565262
0.609994
0.66065
0.706027
0.737589
0.751663
0.747375
0.7242
0.69197
0.660131
0.63165
0.606503
0.584833
0.551106
0.470318
0.13447
0.170842
0.298067
0.373506
0.41423
0.441427
0.460999
0.474879
0.483751
0.487409
0.481664
0.476069
0.481775
0.504864
0.538491
0.584159
0.649525
0.71687
0.771976
0.808265
0.826243
0.826563
0.808677
0.778515
0.743104
0.704893
0.671487
0.640804
0.607076
0.531443
0.15264
0.163612
0.281988
0.35532
0.395202
0.421455
0.440131
0.45333
0.462203
0.467207
0.466962
0.462675
0.467578
0.492777
0.541586
0.606568
0.686351
0.764684
0.82698
0.866168
0.886167
0.887471
0.872515
0.844336
0.810179
0.770494
0.7325
0.696056
0.665658
0.597205
0.170741
0.157312
0.267138
0.338221
0.377005
0.402691
0.420868
0.433742
0.442445
0.448727
0.45327
0.453998
0.461859
0.492452
0.550968
0.631778
0.721451
0.802059
0.863269
0.90152
0.922004
0.924844
0.913696
0.888369
0.856073
0.818801
0.775356
0.743227
0.725569
0.666306
0.188796
0.151446
0.253367
0.322093
0.359938
0.385155
0.403399
0.416158
0.424771
0.431937
0.439253
0.447818
0.462996
0.500302
0.567979
0.659103
0.75409
0.835518
0.892665
0.922453
0.933268
0.931348
0.922577
0.904291
0.874848
0.84254
0.803198
0.774971
0.774891
0.73374
0.207087
0.14607
0.240762
0.306773
0.344319
0.369158
0.387332
0.400231
0.409049
0.416821
0.426876
0.442791
0.46781
0.514358
0.592633
0.689668
0.785096
0.863154
0.915707
0.93881
0.941269
0.930579
0.914034
0.896309
0.872409
0.840497
0.811256
0.791212
0.804801
0.796325
0.225389
0.141186
0.22936
0.292954
0.330251
0.35525
0.373034
0.38616
0.39534
0.403652
0.415148
0.436026
0.473645
0.53081
0.620603
0.72189
0.813985
0.8845
0.93041
0.947446
0.942468
0.924265
0.900198
0.878836
0.853824
0.824905
0.801744
0.793792
0.818473
0.836703
0.240039
0.13657
0.219134
0.280693
0.317626
0.342792
0.361167
0.374247
0.383848
0.392542
0.405094
0.428728
0.473685
0.545646
0.650452
0.756542
0.843035
0.902076
0.939006
0.949918
0.938992
0.915488
0.885661
0.858753
0.831403
0.803568
0.779985
0.780099
0.818276
0.857866
0.250393
0.132438
0.210188
0.269746
0.306339
0.331533
0.350821
0.364381
0.374411
0.383762
0.398095
0.425414
0.477984
0.564486
0.680276
0.791928
0.872606
0.917825
0.943564
0.949003
0.933184
0.905711
0.872124
0.841734
0.812636
0.783824
0.755217
0.751208
0.793139
0.859151
0.257394
0.128975
0.202373
0.260206
0.296187
0.321365
0.34074
0.355693
0.366483
0.376914
0.393237
0.426828
0.490998
0.593041
0.710149
0.818601
0.89009
0.922633
0.939018
0.941874
0.924245
0.894114
0.857761
0.828698
0.796007
0.763102
0.728962
0.713067
0.742488
0.828575
0.262467
0.125865
0.195113
0.251637
0.287056
0.311861
0.330442
0.347589
0.359649
0.371603
0.392091
0.432505
0.512295
0.631404
0.746248
0.837563
0.89289
0.914144
0.92412
0.928274
0.913357
0.87991
0.845915
0.81642
0.779741
0.740917
0.698664
0.665023
0.660908
0.744841
0.253006
0.122817
0.188344
0.243982
0.27935
0.303534
0.323025
0.339625
0.354023
0.369712
0.394577
0.44486
0.540256
0.672363
0.78594
0.859146
0.897235
0.906521
0.910083
0.915876
0.902261
0.868643
0.837215
0.804642
0.763109
0.717429
0.665988
0.610422
0.562228
0.633045
0.253982
0.120834
0.18306
0.237437
0.27308
0.29839
0.318204
0.334829
0.350795
0.369672
0.399749
0.462232
0.575923
0.715878
0.824813
0.883564
0.908209
0.907661
0.907136
0.913526
0.900119
0.866177
0.831647
0.795992
0.748677
0.694074
0.632305
0.557321
0.464778
0.403903
0.205525
0.373352
0.354782
0.328996
0.30189
0.276531
0.25306
0.233121
0.216238
0.205847
0.199783
0.196859
0.198451
0.205221
0.217395
0.235372
0.25893
0.287593
0.320734
0.356412
0.392645
0.426237
0.455457
0.479703
0.497924
0.510958
0.518157
0.52154
0.52188
0.519574
0.51637
0.511823
0.506349
0.500349
0.493749
0.486719
0.479334
0.471553
0.463055
0.454045
0.444607
0.434856
0.424965
0.414858
0.404558
0.394001
0.383243
0.372075
0.360321
0.347878
0.334875
0.321534
0.307902
0.294029
0.280133
0.266396
0.252949
0.240012
0.227652
0.215978
0.205212
0.195448
0.18671
0.178868
0.171771
0.165368
0.159616
0.154455
0.149828
0.145679
0.141997
0.138765
0.135946
0.133534
0.131516
0.12982
0.12832
0.12692
0.125602
0.124367
0.123194
0.122016
0.120792
0.119512
0.118245
0.117046
0.116001
0.115081
0.114307
0.113608
0.112928
0.112234
0.111451
0.110592
0.109582
0.108276
0.106819
0.105301
0.103918
0.102644
0.101517
0.100627
0.0998413
0.0993377
0.0990211
0.0988911
0.0991881
0.0997903
0.100569
0.101438
0.102385
0.103862
0.106192
0.110055
0.111487
0.11246
0.113418
0.114926
0.117619
0.117605
0.117423
0.116992
0.116843
0.11738
0.118296
0.119482
2.9383
2.81425
2.64316
2.42035
2.19472
1.9735
1.77522
1.60154
1.47039
1.37277
1.30605
1.28009
1.30195
1.37384
1.50589
1.70858
1.9835
2.31849
2.68914
3.06653
3.42599
3.74654
4.01782
4.2382
4.41131
4.54011
4.63171
4.68952
4.71933
4.7227
4.69587
4.64992
4.58876
4.51225
4.42057
4.31917
4.21019
4.09581
3.97815
3.8591
3.73991
3.62146
3.50385
3.38735
3.27148
3.15628
3.04101
2.92341
2.80372
2.68208
2.55892
2.43432
2.30728
2.1775
2.04524
1.9109
1.77513
1.63879
1.50273
1.36885
1.23948
1.11801
1.00581
0.902862
0.809333
0.726523
0.654964
0.594204
0.543027
0.500232
0.464905
0.435923
0.411985
0.392007
0.375145
0.360681
0.347915
0.336223
0.32516
0.314422
0.303871
0.293529
0.283466
0.273852
0.264837
0.256598
0.249055
0.242145
0.235656
0.229413
0.223294
0.217229
0.211082
0.204911
0.198763
0.192646
0.186725
0.181133
0.175662
0.170491
0.16593
0.161918
0.158427
0.155533
0.153088
0.151664
0.150867
0.1505
0.150411
0.150803
0.152282
0.155872
0.160965
0.16253
0.163679
0.165473
0.169987
0.173363
0.173356
0.172794
0.171927
0.172312
0.173934
0.176452
0.179425
4.33792
4.14492
3.9364
3.67221
3.39866
3.1344
2.89704
2.69472
2.53387
2.41671
2.35279
2.3471
2.40513
2.5411
2.76302
3.06921
3.44563
3.86913
4.31156
4.7425
5.14536
5.50724
5.82445
6.0898
6.30415
6.46569
6.57733
6.65219
6.69298
6.70219
6.68292
6.63114
6.56095
6.47711
6.38193
6.27235
6.14936
6.0153
5.87189
5.72189
5.56815
5.41126
5.25145
5.08865
4.92405
4.75746
4.58788
4.41492
4.23954
4.06245
3.88419
3.70516
3.52559
3.3465
3.16903
2.99376
2.82099
2.65087
2.48336
2.31883
2.15826
2.00312
1.8545
1.7127
1.57819
1.45036
1.33018
1.21828
1.11368
1.01498
0.922868
0.839542
0.765718
0.701699
0.64761
0.602534
0.564535
0.531509
0.50207
0.475756
0.452291
0.431295
0.412351
0.395089
0.379211
0.364566
0.350991
0.338348
0.326533
0.315419
0.304961
0.295066
0.285698
0.276743
0.268348
0.260209
0.252464
0.24509
0.238011
0.231318
0.225195
0.219586
0.214493
0.21018
0.206554
0.203746
0.202019
0.200762
0.200052
0.199827
0.200885
0.204453
0.209846
0.212195
0.213805
0.217072
0.223703
0.225378
0.225364
0.22447
0.2231
0.223146
0.225344
0.228614
0.232583
5.38203
5.15945
4.94194
4.67921
4.40869
4.14872
3.91762
3.72633
3.584
3.49961
3.47982
3.54162
3.69001
3.92204
4.22893
4.59511
5.00156
5.42858
5.85549
6.26427
6.62931
6.95312
7.23191
7.46676
7.6585
7.79337
7.88299
7.94029
7.96585
7.96235
7.93347
7.88194
7.80343
7.71071
7.60692
7.49297
7.36999
7.23605
7.09663
6.95002
6.79563
6.63446
6.46712
6.29417
6.11738
5.93664
5.75294
5.56714
5.37911
5.18951
4.99957
4.81036
4.62271
4.43686
4.25341
4.07256
3.89418
3.71781
3.54299
3.36947
3.19732
3.02705
2.85989
2.69667
2.53728
2.38131
2.22947
2.08277
1.94242
1.80862
1.68375
1.56656
1.45514
1.34862
1.24766
1.15317
1.06461
0.981856
0.905489
0.836742
0.776337
0.723379
0.676241
0.633672
0.594884
0.559405
0.527038
0.497602
0.470834
0.4465
0.424293
0.404132
0.385879