/*--------------------------------*- C++ -*----------------------------------*\
| =========                 |                                                 |
| \\      /  F ield         | OpenFOAM: The Open Source CFD Toolbox           |
|  \\    /   O peration     | Version:  2112                                  |
|   \\  /    A nd           | Website:  www.openfoam.com                      |
|    \\/     M anipulation  |                                                 |
\*---------------------------------------------------------------------------*/
FoamFile
{
    version     2.0;
    format      ascii;
    arch        "LSB;label=32;scalar=64";
    class       volScalarField;
    location    "0.00229";
    object      alphat;
}
// * * * * * * * * * * * * * * * * * * * * * * * * * * * * * * * * * * * * * //

dimensions      [1 -1 -1 0 0 0 0];

internalField   nonuniform List<scalar> 
13875
(
0.119862
0.0816016
0.0784667
0.0782732
0.0782652
0.0783661
0.0783785
0.0783428
0.0783152
0.0782941
0.0782936
0.0783489
0.0783256
0.0782818
0.0783311
0.0782975
0.078265
0.0783183
0.0783748
0.0783799
0.078274
0.0782603
0.0784901
0.0814929
0.120927
0.103924
0.0576579
0.0570904
0.0571341
0.0566632
0.056566
0.0565633
0.0566606
0.0570678
0.0571121
0.0571539
0.0571798
0.0571382
0.0571627
0.0571892
0.0571297
0.0570109
0.0566473
0.0565668
0.0565741
0.0566628
0.057139
0.0570776
0.0573767
0.104477
0.110614
0.0553453
0.0559038
0.0547369
0.054469
0.0543241
0.0542597
0.0542804
0.054288
0.0541312
0.0542798
0.0542503
0.0542564
0.0544211
0.054404
0.0542684
0.0541846
0.0542095
0.054221
0.0543086
0.0544365
0.0545902
0.0557923
0.0550744
0.111147
0.115885
0.054649
0.0554081
0.0542982
0.0539164
0.053787
0.0537248
0.0537366
0.0535287
0.0534431
0.0535892
0.0535731
0.0536159
0.0536552
0.0536361
0.0535364
0.0535167
0.0536651
0.0536825
0.0537708
0.0538944
0.0541853
0.055206
0.0542907
0.115861
0.121038
0.0546589
0.0551529
0.0537598
0.0535795
0.0533793
0.0532701
0.0532608
0.0530366
0.0529617
0.053107
0.0531007
0.0531308
0.053158
0.0531371
0.0530442
0.0530328
0.0531969
0.0532259
0.053348
0.0535283
0.053601
0.0550256
0.0543292
0.121473
0.124447
0.054763
0.0552276
0.0535943
0.0531912
0.052982
0.0528814
0.0528409
0.0525979
0.0525466
0.0526843
0.0527084
0.052704
0.0527307
0.0527044
0.0526035
0.0526071
0.0527793
0.0528399
0.0529516
0.0531483
0.0534887
0.0548969
0.0544039
0.124157
0.128847
0.0565349
0.0558554
0.0534903
0.0532059
0.0528422
0.0526401
0.0525341
0.0522503
0.0522189
0.0523302
0.0524153
0.0523751
0.0523883
0.0523487
0.0522577
0.0522742
0.0524892
0.0526042
0.052803
0.0531382
0.0533726
0.0556557
0.0563744
0.129054
0.135942
0.0613254
0.057956
0.0544758
0.0534048
0.052847
0.0525374
0.0523564
0.0520466
0.0520298
0.0521114
0.0522422
0.0521883
0.0521728
0.0521065
0.0520521
0.0520786
0.052312
0.0525052
0.052797
0.0533186
0.0543093
0.0575621
0.0610761
0.135679
0.152519
0.0696295
0.0618618
0.0561626
0.0545995
0.0535153
0.0528745
0.05252
0.0521494
0.0521145
0.0521428
0.0523124
0.0522501
0.052183
0.052116
0.0521267
0.0521841
0.0524716
0.0528345
0.0533998
0.0543986
0.0558067
0.061104
0.068458
0.154384
0.241152
0.0881958
0.0670382
0.0594299
0.0560382
0.0545257
0.0536263
0.0530933
0.0527554
0.0527001
0.0526676
0.0528503
0.05278
0.052663
0.0526154
0.0526895
0.0527949
0.0530888
0.0535916
0.0543949
0.0558689
0.0589384
0.06628
0.0870174
0.241876
0.373396
0.121223
0.0777956
0.0637086
0.0594855
0.0567599
0.0554131
0.0546679
0.0543245
0.0542013
0.054118
0.0542597
0.0541838
0.0540464
0.0540365
0.0541592
0.0543351
0.054657
0.0553115
0.0564713
0.0589109
0.0628889
0.0755595
0.113467
0.366631
0.660887
0.203761
0.104655
0.0796155
0.0667679
0.0614291
0.0594752
0.0583699
0.0579425
0.057706
0.0575581
0.0576027
0.0575248
0.0574226
0.0574522
0.0575963
0.0578706
0.0583115
0.0593248
0.0609491
0.0658481
0.0766305
0.104224
0.187044
0.647984
0.589609
0.407027
0.23519
0.108524
0.087957
0.0748451
0.0697109
0.0676594
0.0668039
0.0662981
0.0659895
0.0659533
0.0658486
0.065851
0.0659044
0.0661036
0.0665901
0.0675088
0.0695064
0.0742232
0.0853006
0.0979603
0.185442
0.418209
0.584162
0.50572
0.392222
0.375649
0.438343
0.152239
0.11079
0.102431
0.0958795
0.0945172
0.0934844
0.0933968
0.0927
0.0936556
0.0927647
0.093177
0.0934279
0.0945511
0.0959275
0.101104
0.111453
0.165881
0.398353
0.368452
0.4011
0.509147
0.414436
0.35863
0.361342
0.43018
0.36653
0.233642
0.213329
0.183233
0.157616
0.150652
0.146961
0.144764
0.145169
0.144324
0.144466
0.148441
0.153407
0.175452
0.211173
0.233147
0.343821
0.402806
0.35934
0.377897
0.439247
0.357474
0.331795
0.35309
0.43258
0.520672
0.64788
0.721299
0.583288
0.601905
0.592645
0.625668
0.619047
0.628636
0.619761
0.624165
0.611225
0.599461
0.566277
0.666018
0.690282
0.550807
0.438199
0.356725
0.34592
0.381687
0.282818
0.313859
0.403454
0.477908
0.546102
0.690293
0.609855
0.468273
0.450818
0.4404
0.445116
0.449053
0.443657
0.445922
0.447368
0.447285
0.450401
0.446746
0.539908
0.709356
0.601904
0.499324
0.411144
0.335039
0.315464
0.235365
0.314095
0.404972
0.440331
0.463726
0.549469
0.476299
0.382486
0.361679
0.355591
0.362401
0.360585
0.365645
0.360851
0.364407
0.363632
0.364518
0.371441
0.447444
0.546448
0.507136
0.468877
0.435232
0.319551
0.230365
0.116893
0.246016
0.372607
0.37089
0.368123
0.414716
0.409822
0.364007
0.337202
0.325004
0.32516
0.322356
0.326767
0.322543
0.326516
0.328259
0.33237
0.347224
0.396691
0.423716
0.389435
0.387241
0.385188
0.281481
0.129542
0.0534224
0.170548
0.276154
0.290717
0.2903
0.328259
0.361123
0.349445
0.3218
0.301681
0.295344
0.290144
0.293163
0.290848
0.296411
0.302332
0.314882
0.337899
0.359334
0.336816
0.30042
0.297422
0.287733
0.188491
0.0557753
0.0518645
0.120798
0.187102
0.213502
0.228079
0.269806
0.315129
0.32006
0.297657
0.275844
0.265286
0.25861
0.260212
0.259568
0.266317
0.275499
0.291416
0.31288
0.315815
0.274842
0.23211
0.216993
0.194235
0.120909
0.0546893
0.0864419
0.120947
0.137765
0.16673
0.185923
0.230213
0.273711
0.283804
0.266709
0.246526
0.235241
0.227437
0.228195
0.228283
0.235886
0.245526
0.260876
0.278329
0.275013
0.233933
0.187944
0.16821
0.140248
0.119815
0.0886111
0.147955
0.131933
0.121514
0.138212
0.157297
0.19998
0.238505
0.249548
0.23678
0.21825
0.206438
0.198963
0.198822
0.19925
0.206072
0.215657
0.229455
0.242799
0.238101
0.203492
0.158234
0.138451
0.123884
0.131596
0.151077
0.175827
0.139504
0.119599
0.12194
0.138657
0.173427
0.205496
0.216772
0.205892
0.189711
0.179885
0.172756
0.172825
0.173178
0.179756
0.187657
0.198947
0.209908
0.204632
0.17534
0.140821
0.123454
0.120959
0.13951
0.175606
0.19119
0.146735
0.116533
0.113916
0.125925
0.151887
0.178188
0.188495
0.179452
0.165233
0.156269
0.150493
0.150257
0.150896
0.156236
0.163631
0.173676
0.182646
0.176644
0.152659
0.127444
0.115418
0.118823
0.146154
0.187561
0.20519
0.155266
0.116943
0.108845
0.116254
0.134748
0.155044
0.16307
0.155411
0.143833
0.136463
0.130853
0.130966
0.131198
0.136265
0.142093
0.149768
0.15695
0.153223
0.135176
0.118202
0.110499
0.118848
0.154456
0.205033
0.222521
0.168531
0.119199
0.107835
0.109761
0.121722
0.136713
0.141798
0.13517
0.125477
0.118885
0.114674
0.114292
0.114949
0.118756
0.124251
0.130807
0.136814
0.134429
0.121421
0.11054
0.10868
0.120738
0.168292
0.21821
0.240594
0.190441
0.120758
0.106401
0.104756
0.111152
0.120343
0.122865
0.117092
0.109654
0.104477
0.100485
0.100352
0.100609
0.104514
0.108739
0.113804
0.11902
0.119137
0.111315
0.105835
0.10734
0.121943
0.186857
0.236407
0.268955
0.201096
0.123234
0.105004
0.101594
0.103469
0.108556
0.108727
0.103343
0.0967599
0.0918545
0.0889118
0.0884319
0.0889939
0.0916623
0.0956857
0.0999857
0.104585
0.106126
0.103193
0.101939
0.105651
0.122559
0.19476
0.264155
0.315165
0.206899
0.123534
0.102369
0.0979345
0.0974017
0.097499
0.0953916
0.0903
0.085159
0.0814906
0.0786125
0.0783967
0.0786609
0.0816302
0.0846368
0.0881558
0.0924822
0.0959595
0.097058
0.0981501
0.10294
0.124608
0.202306
0.29799
0.337066
0.214322
0.127762
0.100799
0.0943927
0.091344
0.0891921
0.0857095
0.0806983
0.0760648
0.0722897
0.070366
0.0698149
0.0704087
0.0723323
0.0755308
0.0789588
0.0834264
0.0877693
0.0912903
0.0942925
0.101407
0.126676
0.208079
0.337487
0.345694
0.219679
0.131413
0.100357
0.0905167
0.0862971
0.0818093
0.0772253
0.0721428
0.0679194
0.0650514
0.0628309
0.0626212
0.0629433
0.0651652
0.0675131
0.0705958
0.0749066
0.0802795
0.0857667
0.0900443
0.100621
0.129562
0.211791
0.348296
0.356594
0.220463
0.138289
0.101625
0.0874317
0.0809133
0.0758569
0.0705363
0.0656419
0.0616196
0.0583703
0.0569617
0.056408
0.0570308
0.0584648
0.0613221
0.0645765
0.0687897
0.0745579
0.0805804
0.0869731
0.101247
0.13513
0.215405
0.356097
0.362633
0.222112
0.149756
0.102668
0.084706
0.0763845
0.0699414
0.0642883
0.0594942
0.0557637
0.0532029
0.0514355
0.0511631
0.0515346
0.0534165
0.0555386
0.0586657
0.0628015
0.0689075
0.0761838
0.0844384
0.102105
0.144014
0.21584
0.364053
0.362107
0.223386
0.155954
0.107162
0.0837364
0.0726494
0.0654525
0.0597905
0.0550872
0.0514635
0.048441
0.0472556
0.0466502
0.0473105
0.0485291
0.0512319
0.0543762
0.0583626
0.0639964
0.0724113
0.083688
0.105234
0.156064
0.216569
0.364953
0.366053
0.221324
0.155605
0.110202
0.0835913
0.0695899
0.0607487
0.0549521
0.0505393
0.0471977
0.0446972
0.0431649
0.0428345
0.0432372
0.044956
0.0470652
0.0500544
0.0538768
0.0596973
0.0694256
0.0839161
0.109957
0.156542
0.217017
0.358752
0.365011
0.217807
0.155362
0.117538
0.0845245
0.0675287
0.0575686
0.0514754
0.0472716
0.0440922
0.0412434
0.0401838
0.0395376
0.0402263
0.0414135
0.0439921
0.046866
0.0505778
0.0563428
0.0676593
0.0845116
0.116585
0.155365
0.213042
0.358971
0.362509
0.213784
0.153784
0.128493
0.0873282
0.0670444
0.0547366
0.0480296
0.0437768
0.0407745
0.0385092
0.0371272
0.0367437
0.0372012
0.0387138
0.0407173
0.0434625
0.0472948
0.0535478
0.0667306
0.0869729
0.127693
0.152611
0.207668
0.357817
0.36287
0.208253
0.149483
0.128602
0.090491
0.066745
0.0532766
0.0458293
0.0414358
0.0384499
0.0358277
0.0349515
0.0343073
0.0350129
0.0360199
0.0384531
0.0412349
0.0453357
0.0523228
0.0669792
0.0909351
0.128235
0.148447
0.204371
0.355187
0.361977
0.205483
0.141831
0.128289
0.0979469
0.0681439
0.0524782
0.0438238
0.0388362
0.0358455
0.0337854
0.0325858
0.0321959
0.0326552
0.0340186
0.0358779
0.0387587
0.0435423
0.0516381
0.0678305
0.0983977
0.127572
0.139367
0.199958
0.356353
0.356817
0.202979
0.135664
0.126583
0.108747
0.07073
0.0526919
0.0432236
0.0375235
0.0343193
0.0317524
0.0309802
0.0303411
0.0310182
0.031926
0.0343352
0.0374121
0.0430395
0.0518179
0.0703853
0.108708
0.125019
0.132697
0.198254
0.354091
0.355692
0.201059
0.129075
0.122519
0.109384
0.0764017
0.0531374
0.042705
0.0361699
0.032391
0.0302111
0.0291279
0.0287232
0.0291382
0.0304749
0.0324417
0.0361976
0.0427428
0.0530118
0.0766127
0.109455
0.120842
0.127755
0.197882
0.350392
0.348671
0.200222
0.125664
0.116316
0.107306
0.0849643
0.0551502
0.0430754
0.036108
0.0317596
0.0287485
0.0279421
0.0272823
0.0279692
0.028938
0.0318713
0.036077
0.0428969
0.0555026
0.085045
0.107039
0.114594
0.12404
0.195333
0.347195
0.342591
0.200531
0.123309
0.110558
0.105286
0.0888756
0.0593036
0.0439863
0.0358429
0.030546
0.0277985
0.026508
0.0260557
0.0265464
0.0280609
0.0306819
0.0359057
0.0436619
0.0606064
0.0880305
0.103999
0.109077
0.121174
0.195155
0.343032
0.337238
0.19691
0.121581
0.106047
0.0996664
0.0883569
0.0659387
0.0464437
0.036187
0.0310253
0.0271786
0.0258753
0.0250482
0.0258938
0.0274134
0.0311992
0.0362976
0.0462891
0.0690991
0.0873132
0.097561
0.105034
0.120962
0.193447
0.334455
0.332333
0.196305
0.120751
0.10209
0.0947827
0.0874463
0.0757339
0.0517182
0.0368928
0.0305205
0.0272099
0.0251654
0.0244324
0.0252001
0.027451
0.0306484
0.0371623
0.0506496
0.0723827
0.0860496
0.0933239
0.101209
0.119299
0.19152
0.332349
0.323189
0.192874
0.121239
0.10058
0.0903305
0.0849953
0.0761162
0.060543
0.0397739
0.0315502
0.027161
0.0253842
0.024156
0.0253829
0.0273425
0.0315585
0.0396801
0.0577352
0.0725257
0.0825563
0.0887251
0.0995467
0.11917
0.18892
0.323238
0.317111
0.189956
0.119656
0.0985041
0.0878062
0.0815064
0.0750391
0.0641798
0.0445303
0.0319826
0.0273392
0.0251443
0.0241528
0.0251658
0.0276781
0.0320929
0.0446785
0.0628835
0.0717783
0.0792978
0.0866828
0.0976581
0.118454
0.1874
0.315993
0.297032
0.182699
0.118678
0.0982229
0.0855435
0.0784992
0.0730291
0.0645551
0.0519116
0.0354849
0.0277941
0.0255395
0.0242473
0.0255477
0.0281433
0.0354118
0.0520381
0.0632211
0.0701178
0.076352
0.0846472
0.09728
0.117407
0.179976
0.294717
0.270624
0.173354
0.115209
0.0959859
0.0846356
0.0760135
0.0696499
0.0636291
0.0561773
0.0395622
0.0295527
0.0256851
0.0245751
0.025681
0.0299336
0.0391395
0.054697
0.0623186
0.0673091
0.0741987
0.0835877
0.0947204
0.11361
0.170566
0.269875
0.119727
0.272018
0.301327
0.306186
0.307908
0.30887
0.309534
0.309344
0.308429
0.306755
0.305043
0.303667
0.302707
0.30206
0.301617
0.301248
0.300939
0.300702
0.300532
0.300412
0.300321
0.300246
0.300178
0.300115
0.300038
0.299997
0.299772
0.298494
0.282685
0.131586
0.0925649
0.26251
0.302194
0.311316
0.315561
0.319129
0.322014
0.322733
0.321054
0.316126
0.309884
0.304657
0.301467
0.299772
0.298845
0.2983
0.297929
0.297655
0.297457
0.297318
0.297214
0.297129
0.297055
0.296987
0.296908
0.296845
0.296424
0.292984
0.263561
0.109337
0.090905
0.265562
0.31197
0.325072
0.332868
0.34179
0.350303
0.35473
0.354063
0.344875
0.330601
0.315684
0.305272
0.299919
0.297571
0.29646
0.295883
0.295545
0.29532
0.295164
0.29505
0.29496
0.294882
0.294812
0.294735
0.294656
0.294113
0.289507
0.254893
0.101824
0.0947988
0.277234
0.335479
0.35637
0.36839
0.377354
0.387058
0.397149
0.407009
0.411965
0.39654
0.356898
0.325222
0.306295
0.298238
0.295326
0.294145
0.293618
0.29336
0.293214
0.293121
0.293056
0.293005
0.292962
0.292914
0.292853
0.292292
0.2873
0.251472
0.099363
0.101331
0.301988
0.360844
0.375444
0.380149
0.385032
0.393838
0.40562
0.420289
0.437441
0.453472
0.454973
0.402598
0.338374
0.308083
0.297248
0.294002
0.292874
0.292455
0.292285
0.292206
0.292162
0.292134
0.292114
0.292092
0.292047
0.291492
0.286345
0.250192
0.0981421
0.106732
0.306486
0.362872
0.376121
0.38065
0.386167
0.395525
0.40823
0.424524
0.443627
0.464975
0.487135
0.497997
0.451226
0.350823
0.309161
0.296521
0.293305
0.292326
0.29202
0.291915
0.291875
0.291857
0.291848
0.291837
0.291796
0.291237
0.285965
0.249518
0.0971826
0.107148
0.304262
0.360129
0.374071
0.378933
0.384755
0.393361
0.406294
0.424994
0.447482
0.471787
0.495803
0.5207
0.535481
0.490651
0.358439
0.30852
0.295727
0.29286
0.292082
0.291869
0.291808
0.291789
0.291782
0.291775
0.291733
0.291163
0.285764
0.24897
0.0963085
0.107341
0.300154
0.353937
0.368396
0.37355
0.380223
0.388623
0.400894
0.419788
0.444447
0.47375
0.503103
0.529722
0.555284
0.570541
0.51586
0.358319
0.306176
0.294862
0.292527
0.291951
0.291812
0.291778
0.291769
0.291764
0.291719
0.291134
0.285615
0.24846
0.0955049
0.106566
0.295037
0.347086
0.361534
0.367679
0.375732
0.384285
0.395858
0.414194
0.438192
0.468312
0.502768
0.5364
0.564955
0.590817
0.603239
0.523143
0.350437
0.302887
0.294023
0.29227
0.291872
0.291786
0.291769
0.291762
0.291715
0.291116
0.285485
0.247982
0.0947753
0.105187
0.289364
0.340282
0.354319
0.362063
0.371502
0.380744
0.391387
0.408119
0.432056
0.461418
0.49539
0.534096
0.570807
0.600581
0.626747
0.631903
0.507249
0.337566
0.299548
0.293301
0.292081
0.291824
0.291775
0.291763
0.291713
0.2911
0.285368
0.247537
0.0941165
0.103212
0.284369
0.334107
0.348291
0.357592
0.367868
0.377807
0.387779
0.40185
0.424384
0.454015
0.486803
0.524811
0.567028
0.605933
0.636265
0.662623
0.652886
0.466065
0.323324
0.29684
0.292741
0.291951
0.291796
0.291766
0.291712
0.291085
0.285259
0.247123
0.0935199
0.101683
0.281211
0.330174
0.344469
0.354452
0.364715
0.37447
0.383701
0.395217
0.414308
0.444195
0.476554
0.513454
0.555478
0.60116
0.641461
0.672503
0.697552
0.657664
0.412094
0.311162
0.294881
0.292346
0.291868
0.291778
0.291712
0.291071
0.285157
0.246737
0.0929773
0.100469
0.280405
0.328695
0.342686
0.351642
0.360642
0.368941
0.377207
0.386183
0.401764
0.429251
0.462597
0.49925
0.540264
0.587334
0.636424
0.677415
0.710073
0.726527
0.620683
0.363559
0.302681
0.293559
0.29209
0.291815
0.291716
0.291057
0.285062
0.246379
0.0924833
0.100254
0.283563
0.330808
0.342537
0.34777
0.353698
0.35932
0.36602
0.372646
0.384829
0.408752
0.442893
0.480258
0.521329
0.56795
0.620862
0.673015
0.713919
0.747829
0.742263
0.533912
0.33234
0.297586
0.292736
0.291932
0.291732
0.291047
0.284974
0.246049
0.0920335
0.101004
0.28955
0.3341
0.340612
0.340296
0.341066
0.343191
0.346976
0.352639
0.361203
0.383185
0.415585
0.45512
0.49697
0.544198
0.597701
0.656359
0.710089
0.751774
0.788233
0.728096
0.432287
0.312387
0.294751
0.292258
0.291788
0.291043
0.284896
0.245752
0.0916284
0.101702
0.295042
0.334921
0.33422
0.326216
0.322089
0.320319
0.323272
0.328495
0.335483
0.352661
0.381778
0.423763
0.466602
0.515421
0.569688
0.630423
0.693537
0.747932
0.798625
0.804812
0.655753
0.361063
0.301453
0.293221
0.291943
0.291057
0.284828
0.245484
0.0912651
0.10335
0.297864
0.326209
0.316207
0.302321
0.294994
0.291018
0.293244
0.298282
0.3062
0.318006
0.344231
0.38595
0.430353
0.480992
0.536866
0.598421
0.666573
0.733895
0.79336
0.843856
0.80237
0.512881
0.324639
0.296165
0.292378
0.291119
0.284774
0.245246
0.0909405
0.104775
0.292616
0.304045
0.286831
0.269113
0.259718
0.254692
0.256171
0.261093
0.269899
0.279453
0.303491
0.342708
0.388272
0.439938
0.497605
0.560718
0.631174
0.707212
0.778554
0.847739
0.863735
0.750444
0.393579
0.305722
0.293622
0.291295
0.284749
0.245042
0.0906551
0.107622
0.274986
0.267098
0.244034
0.226368
0.217441
0.212653
0.214157
0.219304
0.228203
0.238634
0.260076
0.296324
0.342104
0.392902
0.451147
0.517081
0.589476
0.670491
0.753453
0.83295
0.884187
0.861407
0.580274
0.335461
0.297333
0.291798
0.284774
0.244872
0.0904066
0.10939
0.246921
0.223683
0.19991
0.183333
0.17398
0.170102
0.172602
0.178774
0.187092
0.197847
0.214413
0.246431
0.29044
0.340356
0.398542
0.466438
0.541099
0.625298
0.716846
0.806453
0.893593
0.912957
0.810115
0.420631
0.308862
0.293186
0.284928
0.244744
0.0901916
0.112634
0.207833
0.180344
0.1572
0.143175
0.135024
0.134822
0.137345
0.141231
0.147448
0.157659
0.172393
0.199216
0.241228
0.287517
0.343511
0.409786
0.486085
0.571624
0.667046
0.76741
0.868655
0.923477
0.914904
0.627306
0.341873
0.297252
0.28541
0.244685
0.090013
0.116686
0.176367
0.148464
0.124955
0.113348
0.108627
0.107669
0.106734
0.110393
0.117266
0.126476
0.139264
0.162084
0.199701
0.24148
0.291638
0.351979
0.425048
0.51016
0.606826
0.714038
0.826613
0.926192
0.9538
0.852056
0.432522
0.309193
0.28673
0.244753
0.0898718
0.120698
0.149827
0.123678
0.103468
0.0960504
0.0920504
0.0893823
0.0885988
0.0920951
0.0983036
0.105945
0.115976
0.133554
0.162158
0.196366
0.240928
0.296142
0.364004
0.445671
0.542211
0.651706
0.770756
0.897054
0.958321
0.953601
0.640533
0.340546
0.290482
0.245087
0.0897693
0.145928
0.13541
0.0906164
0.0869204
0.0823896
0.0845074
0.0823205
0.0811909
0.0823203
0.0870422
0.0928238
0.0989304
0.109577
0.132547
0.162767
0.201165
0.250076
0.311479
0.386963
0.478798
0.586474
0.70449
0.843003
0.943261
0.986153
0.868984
0.419809
0.300901
0.246082
0.089729
0.115663
0.107174
0.0729418
0.0814579
0.0790169
0.0748543
0.0772986
0.0773598
0.0766845
0.0786641
0.081485
0.0856753
0.0950924
0.114384
0.140356
0.172723
0.214554
0.269168
0.337403
0.4213
0.522754
0.641577
0.779081
0.92072
0.98502
0.9742
0.613684
0.326855
0.248884
0.0897939
0.131586
0.282685
0.298494
0.299773
0.299998
0.300039
0.300115
0.300178
0.300246
0.300322
0.300413
0.300533
0.300703
0.30094
0.301249
0.301617
0.302058
0.302702
0.303656
0.305024
0.306726
0.308398
0.309315
0.309511
0.308853
0.307897
0.306178
0.301321
0.272006
0.119702
0.109336
0.263561
0.292984
0.296424
0.296845
0.296908
0.296987
0.297055
0.297129
0.297214
0.297318
0.297458
0.297655
0.297929
0.298299
0.298841
0.299762
0.301442
0.304602
0.309789
0.315996
0.320917
0.322612
0.321914
0.319055
0.315509
0.311278
0.302169
0.262497
0.0925774
0.101823
0.254892
0.289507
0.294113
0.294656
0.294735
0.294813
0.294882
0.29496
0.29505
0.295164
0.29532
0.295545
0.295882
0.296456
0.297558
0.299883
0.305176
0.315481
0.330284
0.344471
0.35365
0.354378
0.350022
0.34158
0.332727
0.324973
0.311904
0.265533
0.0908784
0.0993624
0.251472
0.2873
0.292292
0.292853
0.292914
0.292962
0.293005
0.293056
0.293121
0.293214
0.29336
0.293617
0.294141
0.295312
0.298191
0.306139
0.324834
0.356116
0.395626
0.411327
0.406574
0.396802
0.386767
0.377086
0.368121
0.356127
0.335301
0.277149
0.0948194
0.0981425
0.250193
0.286345
0.291492
0.292047
0.292092
0.292114
0.292134
0.292162
0.292205
0.292285
0.292455
0.29287
0.293988
0.297194
0.307866
0.337761
0.401233
0.454069
0.452935
0.43704
0.419949
0.405322
0.39358
0.384791
0.379923
0.375234
0.360656
0.301818
0.101304
0.0971819
0.249516
0.285964
0.291237
0.291796
0.291837
0.291848
0.291857
0.291875
0.291915
0.292019
0.292323
0.293291
0.296465
0.308895
0.349971
0.44943
0.497143
0.486571
0.464515
0.443219
0.424172
0.407921
0.395255
0.385921
0.380427
0.375921
0.362705
0.306352
0.106645
0.0963089
0.248972
0.285765
0.291163
0.291733
0.291775
0.291782
0.291789
0.291808
0.291869
0.292079
0.292849
0.295676
0.308238
0.357342
0.488445
0.534525
0.520065
0.495248
0.471306
0.44708
0.424657
0.405988
0.393084
0.384493
0.378701
0.373867
0.359974
0.304197
0.107193
0.0955055
0.24846
0.285615
0.291134
0.291719
0.291764
0.291769
0.291778
0.291811
0.291949
0.292518
0.294821
0.305926
0.357193
0.513462
0.569517
0.554573
0.529076
0.502565
0.473309
0.444077
0.419468
0.400587
0.388338
0.379953
0.37331
0.368176
0.353748
0.299966
0.107265
0.0947753
0.247981
0.285485
0.291116
0.291715
0.291762
0.291769
0.291786
0.291871
0.292264
0.293992
0.302686
0.349376
0.520212
0.601981
0.589977
0.564198
0.535773
0.502275
0.467911
0.437829
0.413879
0.395546
0.383986
0.375448
0.367427
0.361307
0.346891
0.294893
0.106521
0.0941171
0.247538
0.285368
0.2911
0.291713
0.291763
0.291775
0.291824
0.292077
0.293279
0.299406
0.336695
0.504026
0.630405
0.625791
0.599749
0.570133
0.533564
0.494938
0.461021
0.431685
0.407797
0.391049
0.380414
0.371195
0.361779
0.354059
0.340053
0.289173
0.105143
0.0935195
0.247122
0.285258
0.291085
0.291712
0.291766
0.291796
0.291949
0.292727
0.296754
0.322698
0.462846
0.651025
0.661511
0.635328
0.605174
0.566448
0.524351
0.486404
0.453676
0.424069
0.401564
0.387458
0.377472
0.36755
0.357286
0.348003
0.333837
0.284126
0.103093
0.092977
0.246737
0.285157
0.291071
0.291712
0.291777
0.291866
0.292338
0.294829
0.310759
0.409614
0.655042
0.696167
0.671461
0.640613
0.600528
0.554982
0.513039
0.476193
0.443905
0.414019
0.394956
0.383413
0.374166
0.364401
0.354133
0.34416
0.32988
0.280986
0.101623
0.0924838
0.24638
0.285063
0.291057
0.291715
0.291814
0.292085
0.293529
0.302459
0.362048
0.616458
0.724738
0.708908
0.676484
0.635737
0.586822
0.539868
0.498941
0.462344
0.429094
0.401567
0.386004
0.377012
0.368723
0.360406
0.351338
0.342365
0.328368
0.28008
0.100334
0.0920337
0.246049
0.284974
0.291047
0.291732
0.291929
0.292721
0.297474
0.331456
0.529179
0.739711
0.746428
0.712849
0.672237
0.620349
0.567597
0.521082
0.480106
0.442803
0.408781
0.384763
0.37257
0.365986
0.359295
0.353599
0.347643
0.342304
0.330559
0.283239
0.1001
0.0916282
0.245752
0.284896
0.291043
0.291786
0.292249
0.294695
0.311918
0.429068
0.72506
0.786719
0.750637
0.70924
0.655826
0.597399
0.544047
0.496943
0.45521
0.415745
0.383491
0.36134
0.35285
0.347199
0.343444
0.341369
0.34046
0.340579
0.333997
0.28935
0.100884
0.0912654
0.245485
0.284828
0.291057
0.291939
0.293195
0.301241
0.359504
0.650308
0.802273
0.797588
0.74703
0.692989
0.630149
0.569665
0.515562
0.46686
0.424151
0.382244
0.353304
0.336371
0.32934
0.324102
0.321088
0.322796
0.326799
0.334636
0.335139
0.295033
0.101656
0.0909406
0.245246
0.284774
0.291117
0.292365
0.296072
0.323859
0.508203
0.799162
0.841924
0.792679
0.733382
0.666399
0.598512
0.537232
0.481568
0.431045
0.386801
0.345098
0.319029
0.307485
0.299427
0.294357
0.292007
0.296033
0.303227
0.316873
0.326755
0.298198
0.10337
0.0906547
0.245042
0.284748
0.29129
0.293584
0.30538
0.390717
0.745075
0.861714
0.847215
0.778239
0.7072
0.631525
0.561366
0.498445
0.44106
0.389529
0.344319
0.304985
0.28084
0.271236
0.262357
0.257367
0.255798
0.260928
0.270135
0.287793
0.305009
0.293163
0.104925
0.0904069
0.244872
0.284773
0.291783
0.297203
0.334412
0.574473
0.858575
0.882403
0.833095
0.753705
0.671103
0.590552
0.518428
0.452494
0.39445
0.343697
0.297974
0.261725
0.239952
0.229514
0.220585
0.215415
0.213674
0.218653
0.227526
0.24514
0.268331
0.275827
0.107875
0.0901919
0.244743
0.284922
0.29314
0.308437
0.417102
0.805424
0.911434
0.893622
0.807003
0.717699
0.626603
0.542893
0.468416
0.400378
0.342105
0.292299
0.24823
0.215911
0.198937
0.188255
0.179902
0.173795
0.171064
0.174959
0.184489
0.201162
0.22484
0.247976
0.109764
0.0900125
0.244682
0.285393
0.2971
0.340688
0.621092
0.912916
0.923111
0.869665
0.768497
0.668613
0.573475
0.488023
0.411725
0.345374
0.2891
0.242548
0.200399
0.173669
0.158752
0.1484
0.142134
0.138307
0.135715
0.136077
0.144404
0.158869
0.181619
0.209046
0.1133
0.0898719
0.244748
0.286682
0.308726
0.428564
0.847995
0.953163
0.926233
0.828146
0.715719
0.608826
0.511961
0.426461
0.353439
0.292949
0.242678
0.200672
0.162523
0.140257
0.127342
0.118019
0.111333
0.107839
0.108711
0.109736
0.113854
0.124619
0.14926
0.17758
0.117536
0.0897689
0.245072
0.290333
0.339399
0.634353
0.952451
0.959121
0.899027
0.772877
0.653808
0.544286
0.447315
0.365502
0.297249
0.241909
0.197168
0.162945
0.133562
0.116644
0.10659
0.0988872
0.0929674
0.0893666
0.0902712
0.0934201
0.0961735
0.102317
0.122935
0.150975
0.121621
0.0897267
0.246042
0.300485
0.416146
0.865301
0.98681
0.944628
0.845473
0.706881
0.58875
0.480767
0.388558
0.312785
0.25108
0.201958
0.163336
0.13318
0.109899
0.0995952
0.093396
0.087533
0.0830547
0.0816995
0.0828129
0.0849332
0.0826827
0.0860782
0.0902576
0.136121
0.147785
0.089789
0.248771
0.325932
0.608058
0.973982
0.986844
0.923152
0.781783
0.643937
0.524919
0.423053
0.338847
0.270309
0.215397
0.173322
0.140713
0.114851
0.0955661
0.0864116
0.0823441
0.0792116
0.0772136
0.0780003
0.0772757
0.0747408
0.0783034
0.0810364
0.072374
0.107016
0.117466
0.0686303
0.0687929
0.068957
0.0691211
0.0692853
0.0694496
0.069614
0.0697785
0.0699431
0.0701077
0.0702724
0.0704372
0.0706021
0.0707671
0.0709322
0.0710973
0.0712626
0.0714279
0.0715933
0.0717588
0.0719244
0.07209
0.0722558
0.0724216
0.0725875
0.0727535
0.0729195
0.0730857
0.0732519
0.0734182
0.0735846
0.0737511
0.0739177
0.0740843
0.074251
0.0744178
0.0745847
0.0747517
0.0749187
0.0750858
0.075253
0.0754203
0.0755877
0.0757551
0.0759226
0.0760902
0.0762579
0.0764257
0.0765935
0.0767614
0.0769294
0.0770974
0.0772656
0.0774338
0.0776021
0.0777705
0.0779389
0.0781074
0.0782761
0.0784447
0.0786135
0.0787823
0.0789512
0.0791202
0.0792893
0.0794584
0.0796276
0.0797969
0.0799662
0.0801357
0.0803052
0.0804747
0.0806444
0.0808141
0.0809839
0.0811538
0.0813238
0.0814938
0.0816646
0.0818395
0.0820335
0.0823141
0.0829817
0.0851086
0.0922422
0.113272
0.165374
0.258531
0.381006
0.511736
0.638216
0.748216
0.846988
0.931402
1.00182
1.05934
1.10364
1.13751
1.15864
1.16799
1.17041
1.16414
1.14759
1.12416
1.09313
1.05488
1.01077
0.961484
0.907614
0.849253
0.786965
0.719995
0.649803
0.576018
0.498371
0.422928
0.342037
0.260746
0.186345
0.129793
0.107899
0.0969561
0.0924192
0.0906606
0.0900758
0.221904
0.222156
0.222375
0.222586
0.222796
0.223004
0.223212
0.22342
0.223627
0.223833
0.224039
0.224244
0.224448
0.224652
0.224856
0.225059
0.225261
0.225463
0.225665
0.225865
0.226066
0.226265
0.226464
0.226663
0.226861
0.227059
0.227256
0.227452
0.227648
0.227844
0.228038
0.228233
0.228427
0.22862
0.228813
0.229005
0.229197
0.229388
0.229578
0.229768
0.229958
0.230147
0.230336
0.230524
0.230711
0.230898
0.231085
0.231271
0.231456
0.231641
0.231825
0.232009
0.232193
0.232376
0.232558
0.23274
0.232921
0.233102
0.233282
0.233462
0.233641
0.23382
0.233999
0.234176
0.234354
0.234531
0.234707
0.234883
0.235058
0.235233
0.235407
0.235581
0.235755
0.235927
0.2361
0.236272
0.236444
0.236622
0.236841
0.237277
0.238512
0.234691
0.193328
0.160407
0.216452
0.351148
0.499145
0.609012
0.678386
0.722936
0.75013
0.772867
0.791854
0.806964
0.81782
0.824512
0.829291
0.833398
0.837049
0.839518
0.840836
0.841141
0.839535
0.838338
0.83822
0.837983
0.838397
0.840308
0.844243
0.850575
0.859829
0.87114
0.880238
0.890657
0.901619
0.905869
0.911229
0.901684
0.859787
0.755601
0.576323
0.406708
0.310613
0.274102
0.256165
0.27635
0.276465
0.276562
0.276655
0.276746
0.276837
0.276928
0.277017
0.277106
0.277195
0.277283
0.27737
0.277457
0.277544
0.27763
0.277715
0.2778
0.277884
0.277968
0.278051
0.278134
0.278216
0.278298
0.278379
0.27846
0.27854
0.27862
0.278699
0.278778
0.278856
0.278934
0.279011
0.279088
0.279164
0.27924
0.279315
0.27939
0.279465
0.279539
0.279612
0.279685
0.279758
0.27983
0.279902
0.279973
0.280044
0.280114
0.280184
0.280254
0.280323
0.280391
0.28046
0.280527
0.280595
0.280662
0.280728
0.280794
0.28086
0.280925
0.28099
0.281055
0.281119
0.281183
0.281246
0.281309
0.281371
0.281434
0.281495
0.281557
0.281618
0.281678
0.281739
0.281799
0.281858
0.281917
0.281979
0.282065
0.282309
0.283297
0.275454
0.203593
0.172596
0.276382
0.45136
0.605924
0.690952
0.732108
0.746277
0.745187
0.737007
0.726405
0.71627
0.702295
0.685758
0.66982
0.657226
0.646197
0.636099
0.627485
0.620082
0.613623
0.607857
0.602938
0.599272
0.59944
0.601003
0.604496
0.610728
0.620228
0.633283
0.649995
0.672612
0.703352
0.739071
0.777854
0.818673
0.861155
0.906072
0.94757
0.97178
0.968448
0.912973
0.760127
0.539791
0.382369
0.289257
0.289287
0.289312
0.289336
0.289359
0.289381
0.289404
0.289426
0.289448
0.28947
0.289491
0.289512
0.289534
0.289554
0.289575
0.289596
0.289616
0.289636
0.289656
0.289676
0.289695
0.289715
0.289734
0.289753
0.289771
0.28979
0.289808
0.289827
0.289845
0.289862
0.28988
0.289898
0.289915
0.289932
0.289949
0.289966
0.289983
0.289999
0.290015
0.290032
0.290048
0.290064
0.290079
0.290095
0.29011
0.290125
0.290141
0.290156
0.29017
0.290185
0.2902