/*--------------------------------*- C++ -*----------------------------------*\
| =========                 |                                                 |
| \\      /  F ield         | OpenFOAM: The Open Source CFD Toolbox           |
|  \\    /   O peration     | Version:  2112                                  |
|   \\  /    A nd           | Website:  www.openfoam.com                      |
|    \\/     M anipulation  |                                                 |
\*---------------------------------------------------------------------------*/
FoamFile
{
    version     2.0;
    format      ascii;
    arch        "LSB;label=32;scalar=64";
    class       volScalarField;
    location    "0.00234";
    object      epsilon;
}
// * * * * * * * * * * * * * * * * * * * * * * * * * * * * * * * * * * * * * //

dimensions      [0 2 -3 0 0 0 0];

internalField   nonuniform List<scalar> 
13875
(
1.15996e+06
2.94686e+07
3.28084e+07
3.28558e+07
3.29659e+07
3.28665e+07
3.2865e+07
3.28835e+07
3.29122e+07
3.29282e+07
3.2892e+07
3.2911e+07
3.29048e+07
3.28723e+07
3.28807e+07
3.29243e+07
3.29067e+07
3.2896e+07
3.2867e+07
3.2853e+07
3.29537e+07
3.2833e+07
3.27972e+07
2.94744e+07
1.17787e+06
1.31376e+06
2.27542e+07
2.53471e+07
2.52535e+07
2.53123e+07
2.52202e+07
2.52087e+07
2.52197e+07
2.52418e+07
2.52544e+07
2.5228e+07
2.5223e+07
2.52391e+07
2.52181e+07
2.52377e+07
2.52642e+07
2.52286e+07
2.52263e+07
2.52089e+07
2.52083e+07
2.52987e+07
2.52205e+07
2.53228e+07
2.27473e+07
1.34247e+06
1.57303e+06
1.97136e+07
2.18252e+07
2.16396e+07
2.17033e+07
2.16319e+07
2.16166e+07
2.16146e+07
2.15528e+07
2.15611e+07
2.15363e+07
2.15322e+07
2.15385e+07
2.15322e+07
2.15508e+07
2.15776e+07
2.15351e+07
2.16153e+07
2.1614e+07
2.16211e+07
2.16929e+07
2.16006e+07
2.17852e+07
1.96841e+07
1.58508e+06
1.81389e+06
1.73913e+07
1.90349e+07
1.88911e+07
1.89683e+07
1.89092e+07
1.88929e+07
1.88896e+07
1.88054e+07
1.88116e+07
1.87943e+07
1.88081e+07
1.88045e+07
1.8789e+07
1.87991e+07
1.88287e+07
1.88011e+07
1.88877e+07
1.88893e+07
1.88995e+07
1.89592e+07
1.88573e+07
1.90101e+07
1.73626e+07
1.8212e+06
2.0233e+06
1.54578e+07
1.67701e+07
1.663e+07
1.67007e+07
1.66522e+07
1.66389e+07
1.66324e+07
1.65477e+07
1.65586e+07
1.65446e+07
1.65593e+07
1.65548e+07
1.65387e+07
1.65449e+07
1.65715e+07
1.65499e+07
1.66282e+07
1.6634e+07
1.66434e+07
1.6693e+07
1.66042e+07
1.67407e+07
1.54304e+07
2.03726e+06
2.20766e+06
1.37208e+07
1.49286e+07
1.47472e+07
1.48254e+07
1.47781e+07
1.47625e+07
1.4749e+07
1.46608e+07
1.46753e+07
1.46649e+07
1.46806e+07
1.46752e+07
1.46576e+07
1.46606e+07
1.46843e+07
1.46722e+07
1.47434e+07
1.47564e+07
1.47699e+07
1.48183e+07
1.47293e+07
1.49002e+07
1.38517e+07
2.22358e+06
2.4245e+06
1.22632e+07
1.34804e+07
1.3217e+07
1.32649e+07
1.32098e+07
1.31868e+07
1.31643e+07
1.30748e+07
1.30904e+07
1.30813e+07
1.31001e+07
1.30942e+07
1.30761e+07
1.30732e+07
1.30948e+07
1.3095e+07
1.31595e+07
1.31808e+07
1.32017e+07
1.32552e+07
1.32017e+07
1.34206e+07
1.19567e+07
2.4304e+06
2.67515e+06
1.06391e+07
1.23268e+07
1.1992e+07
1.20028e+07
1.19203e+07
1.18752e+07
1.18374e+07
1.17452e+07
1.17594e+07
1.1747e+07
1.17689e+07
1.17638e+07
1.17453e+07
1.17345e+07
1.17591e+07
1.1771e+07
1.18327e+07
1.18671e+07
1.19074e+07
1.1986e+07
1.19757e+07
1.22642e+07
1.05458e+07
2.69657e+06
3.51326e+06
1.02397e+07
1.15069e+07
1.10611e+07
1.0965e+07
1.08567e+07
1.07886e+07
1.07319e+07
1.06407e+07
1.06544e+07
1.06341e+07
1.06583e+07
1.06553e+07
1.06356e+07
1.06186e+07
1.06477e+07
1.06695e+07
1.07294e+07
1.07798e+07
1.08409e+07
1.09518e+07
1.10344e+07
1.14831e+07
1.03472e+07
3.58095e+06
6.93418e+06
1.23656e+07
1.12777e+07
1.04595e+07
1.02643e+07
1.00765e+07
9.9756e+06
9.89416e+06
9.81424e+06
9.82186e+06
9.79737e+06
9.81774e+06
9.81752e+06
9.79661e+06
9.77802e+06
9.80819e+06
9.83702e+06
9.89547e+06
9.96441e+06
1.00553e+07
1.0229e+07
1.04139e+07
1.11891e+07
1.21559e+07
6.90182e+06
1.51041e+07
1.89124e+07
1.20907e+07
1.05418e+07
9.87342e+06
9.58643e+06
9.44206e+06
9.33216e+06
9.26275e+06
9.26139e+06
9.23547e+06
9.24619e+06
9.24892e+06
9.22759e+06
9.21464e+06
9.24442e+06
9.27872e+06
9.33882e+06
9.43232e+06
9.55713e+06
9.82459e+06
1.04237e+07
1.20071e+07
1.80907e+07
1.50849e+07
2.52198e+07
6.53338e+07
2.08013e+07
1.14335e+07
1.02323e+07
9.55197e+06
9.24711e+06
9.09599e+06
9.01296e+06
8.99398e+06
8.96498e+06
8.96196e+06
8.96376e+06
8.94562e+06
8.94404e+06
8.97589e+06
9.0185e+06
9.09588e+06
9.23247e+06
9.51232e+06
1.00835e+07
1.09242e+07
1.84355e+07
6.69532e+07
2.50854e+07
2.64478e+07
6.39362e+07
9.88445e+07
3.94169e+07
1.25525e+07
1.02945e+07
9.75199e+06
9.51975e+06
9.44331e+06
9.42049e+06
9.38043e+06
9.38365e+06
9.37872e+06
9.36181e+06
9.3728e+06
9.40703e+06
9.45712e+06
9.53919e+06
9.73404e+06
1.02426e+07
1.24862e+07
2.76585e+07
8.66375e+07
6.93029e+07
2.61606e+07
2.61165e+07
4.81213e+07
8.0953e+07
1.29796e+08
6.67646e+07
1.82138e+07
1.53967e+07
1.30864e+07
1.23904e+07
1.19804e+07
1.21273e+07
1.17492e+07
1.21873e+07
1.18177e+07
1.19746e+07
1.20315e+07
1.23488e+07
1.29175e+07
1.48851e+07
1.83391e+07
6.88792e+07
1.01873e+08
7.76974e+07
5.10396e+07
2.60381e+07
2.53837e+07
3.87824e+07
5.9764e+07
8.79586e+07
7.82114e+07
5.5852e+07
6.38599e+07
5.78123e+07
5.1908e+07
5.1257e+07
5.69687e+07
5.181e+07
5.91562e+07
5.47728e+07
5.49991e+07
5.27553e+07
5.16393e+07
5.42437e+07
6.52822e+07
5.64764e+07
7.59526e+07
7.48192e+07
5.92495e+07
4.10398e+07
2.74123e+07
2.57418e+07
3.29703e+07
5.11843e+07
7.1329e+07
7.33499e+07
9.5361e+07
8.23469e+07
5.98574e+07
5.30515e+07
5.69848e+07
5.69608e+07
5.86568e+07
5.85802e+07
6.03381e+07
5.7207e+07
5.77947e+07
5.37956e+07
5.5754e+07
7.19481e+07
9.91094e+07
7.65733e+07
6.43325e+07
5.02314e+07
3.46801e+07
2.80646e+07
2.35489e+07
2.99528e+07
4.63054e+07
6.28017e+07
6.50882e+07
9.26473e+07
6.14984e+07
4.10845e+07
3.63403e+07
3.72468e+07
3.72684e+07
3.82292e+07
3.81287e+07
3.89155e+07
3.73054e+07
3.76649e+07
3.65329e+07
3.8474e+07
5.19485e+07
9.28548e+07
7.07051e+07
5.92412e+07
4.68569e+07
3.09543e+07
2.43159e+07
1.92199e+07
2.92569e+07
4.33685e+07
4.87852e+07
4.99537e+07
7.1336e+07
5.03175e+07
3.32914e+07
2.82017e+07
2.78311e+07
2.7222e+07
2.75477e+07
2.75133e+07
2.78484e+07
2.72563e+07
2.80334e+07
2.83602e+07
3.15482e+07
4.47263e+07
6.71869e+07
5.30701e+07
4.69016e+07
4.44916e+07
3.15948e+07
1.97467e+07
1.55209e+07
2.90917e+07
3.7323e+07
3.80713e+07
3.76902e+07
4.9345e+07
4.44776e+07
3.30253e+07
2.562e+07
2.27764e+07
2.13362e+07
2.10097e+07
2.09297e+07
2.11281e+07
2.10967e+07
2.23513e+07
2.4441e+07
3.00394e+07
4.05792e+07
4.77236e+07
3.87575e+07
3.73576e+07
3.80292e+07
3.1815e+07
1.61224e+07
1.40767e+07
2.78961e+07
3.0171e+07
3.04733e+07
3.01176e+07
3.68813e+07
3.80263e+07
3.19765e+07
2.45374e+07
2.00566e+07
1.77265e+07
1.68954e+07
1.67088e+07
1.69389e+07
1.74848e+07
1.95547e+07
2.32963e+07
2.95838e+07
3.57211e+07
3.60612e+07
3.05166e+07
3.01245e+07
3.06027e+07
2.81943e+07
1.50106e+07
1.51291e+07
2.24392e+07
2.44362e+07
2.49328e+07
2.47928e+07
2.95726e+07
3.20853e+07
2.86138e+07
2.22953e+07
1.76103e+07
1.49188e+07
1.38098e+07
1.35582e+07
1.38659e+07
1.48131e+07
1.72965e+07
2.13724e+07
2.68971e+07
3.06475e+07
2.91735e+07
2.50818e+07
2.48099e+07
2.44821e+07
2.21622e+07
1.61025e+07
2.0574e+07
2.25768e+07
2.08801e+07
2.11619e+07
2.10098e+07
2.46432e+07
2.70385e+07
2.4804e+07
1.96174e+07
1.52656e+07
1.25849e+07
1.14004e+07
1.11105e+07
1.14496e+07
1.25169e+07
1.49971e+07
1.88052e+07
2.33826e+07
2.59994e+07
2.45124e+07
2.12752e+07
2.10843e+07
2.06405e+07
2.20412e+07
2.06306e+07
2.3883e+07
2.56741e+07
1.84285e+07
1.80227e+07
1.80124e+07
2.081e+07
2.27613e+07
2.11486e+07
1.68949e+07
1.30836e+07
1.06218e+07
9.48533e+06
9.18586e+06
9.49986e+06
1.05159e+07
1.27619e+07
1.60591e+07
1.98309e+07
2.18935e+07
2.07531e+07
1.82078e+07
1.79663e+07
1.80531e+07
2.50157e+07
2.3303e+07
2.3128e+07
2.5405e+07
1.61461e+07
1.55352e+07
1.55552e+07
1.75343e+07
1.91423e+07
1.79035e+07
1.42547e+07
1.10098e+07
8.91063e+06
7.92716e+06
7.66594e+06
7.95741e+06
8.8666e+06
1.0809e+07
1.36048e+07
1.67989e+07
1.84767e+07
1.74974e+07
1.57468e+07
1.56176e+07
1.59547e+07
2.43357e+07
2.25231e+07
2.25237e+07
2.42341e+07
1.42829e+07
1.36026e+07
1.35534e+07
1.49101e+07
1.61793e+07
1.51541e+07
1.20721e+07
9.32853e+06
7.53393e+06
6.69431e+06
6.47058e+06
6.7267e+06
7.51589e+06
9.18964e+06
1.15702e+07
1.42397e+07
1.56231e+07
1.48603e+07
1.37039e+07
1.37326e+07
1.42179e+07
2.35388e+07
2.18973e+07
2.1845e+07
2.33276e+07
1.29769e+07
1.21182e+07
1.1925e+07
1.28336e+07
1.37504e+07
1.28157e+07
1.02344e+07
7.94638e+06
6.42769e+06
5.71116e+06
5.51067e+06
5.73488e+06
6.40576e+06
7.8153e+06
9.79177e+06
1.20049e+07
1.32209e+07
1.27482e+07
1.20061e+07
1.22171e+07
1.29068e+07
2.23808e+07
2.10238e+07
2.11731e+07
2.25692e+07
1.19104e+07
1.09288e+07
1.06015e+07
1.1145e+07
1.1693e+07
1.07959e+07
8.65813e+06
6.77402e+06
5.507e+06
4.91211e+06
4.73997e+06
4.9372e+06
5.51457e+06
6.71436e+06
8.37098e+06
1.02041e+07
1.12843e+07
1.10715e+07
1.06578e+07
1.10321e+07
1.18897e+07
2.18673e+07
2.0716e+07
2.10144e+07
2.1844e+07
1.10921e+07
9.90718e+06
9.54555e+06
9.80563e+06
1.00483e+07
9.17189e+06
7.38743e+06
5.83134e+06
4.76944e+06
4.2665e+06
4.11381e+06
4.28723e+06
4.77774e+06
5.77917e+06
7.14904e+06
8.6719e+06
9.66507e+06
9.71065e+06
9.56643e+06
9.99511e+06
1.10348e+07
2.09856e+07
2.03365e+07
2.13031e+07
2.08179e+07
1.03467e+07
9.00594e+06
8.6438e+06
8.70879e+06
8.6964e+06
7.84893e+06
6.35319e+06
5.05698e+06
4.16236e+06
3.7361e+06
3.59936e+06
3.74996e+06
4.16066e+06
4.99608e+06
6.1347e+06
7.40031e+06
8.31348e+06
8.58013e+06
8.62659e+06
9.06732e+06
1.02871e+07
1.9587e+07
1.99795e+07
2.07664e+07
1.97544e+07
9.71533e+06
8.21166e+06
7.82371e+06
7.76366e+06
7.54459e+06
6.70753e+06
5.45081e+06
4.38705e+06
3.6469e+06
3.29263e+06
3.17378e+06
3.31025e+06
3.66504e+06
4.36947e+06
5.32512e+06
6.40375e+06
7.25354e+06
7.64989e+06
7.79806e+06
8.26952e+06
9.67662e+06
1.86987e+07
2.03607e+07
2.00211e+07
1.87867e+07
9.25387e+06
7.58008e+06
7.09916e+06
6.94819e+06
6.61323e+06
5.81913e+06
4.74736e+06
3.85082e+06
3.22501e+06
2.92432e+06
2.8185e+06
2.93926e+06
3.23784e+06
3.83065e+06
4.63901e+06
5.55934e+06
6.34192e+06
6.81828e+06
7.04372e+06
7.61765e+06
9.14665e+06
1.77512e+07
1.95734e+07
1.93827e+07
1.79486e+07
8.87371e+06
7.1115e+06
6.45839e+06
6.23853e+06
5.84854e+06
5.09151e+06
4.16808e+06
3.40686e+06
2.875e+06
2.61634e+06
2.52026e+06
2.62817e+06
2.88306e+06
3.38232e+06
4.07208e+06
4.86807e+06
5.59733e+06
6.09739e+06
6.39224e+06
7.11097e+06
8.72507e+06
1.68091e+07
1.86899e+07
1.83976e+07
1.68266e+07
8.66788e+06
6.73402e+06
5.91657e+06
5.60184e+06
5.17414e+06
4.47048e+06
3.67567e+06
3.0255e+06
2.57131e+06
2.35234e+06
2.26714e+06
2.36553e+06
2.58589e+06
3.01709e+06
3.61691e+06
4.3083e+06
4.97338e+06
5.47698e+06
5.84852e+06
6.69886e+06
8.43704e+06
1.60288e+07
1.81427e+07
1.7926e+07
1.57621e+07
8.47969e+06
6.47611e+06
5.47565e+06
5.06926e+06
4.61746e+06
3.9684e+06
3.27254e+06
2.71204e+06
2.32091e+06
2.13009e+06
2.05171e+06
2.14071e+06
2.33164e+06
2.69965e+06
3.22006e+06
3.83086e+06
4.4307e+06
4.9447e+06
5.41094e+06
6.3957e+06
8.31461e+06
1.50537e+07
1.74308e+07
1.75231e+07
1.4878e+07
8.07794e+06
6.29089e+06
5.14296e+06
4.61285e+06
4.13814e+06
3.54708e+06
2.94048e+06
2.45065e+06
2.10549e+06
1.93909e+06
1.86732e+06
1.94749e+06
2.11348e+06
2.43668e+06
2.89195e+06
3.4275e+06
3.96977e+06
4.4965e+06
5.07706e+06
6.20085e+06
8.03908e+06
1.4084e+07
1.69213e+07
1.67978e+07
1.37898e+07
7.56532e+06
6.13248e+06
4.88799e+06
4.23568e+06
3.72925e+06
3.1774e+06
2.64468e+06
2.21903e+06
1.92031e+06
1.77403e+06
1.70864e+06
1.78337e+06
1.93189e+06
2.21384e+06
2.6151e+06
3.09357e+06
3.59067e+06
4.13559e+06
4.81309e+06
6.06981e+06
7.57584e+06
1.32031e+07
1.64376e+07
1.63603e+07
1.28629e+07
7.08945e+06
6.12364e+06
4.70961e+06
3.94332e+06
3.39101e+06
2.87234e+06
2.40076e+06
2.02593e+06
1.76102e+06
1.63145e+06
1.57094e+06
1.63935e+06
1.7692e+06
2.01944e+06
2.372e+06
2.79928e+06
3.26633e+06
3.84803e+06
4.61934e+06
6.04436e+06
7.05006e+06
1.22213e+07
1.58339e+07
1.60594e+07
1.19984e+07
6.63314e+06
5.9992e+06
4.61417e+06
3.71888e+06
3.12208e+06
2.61827e+06
2.1894e+06
1.85613e+06
1.62313e+06
1.50769e+06
1.45119e+06
1.51461e+06
1.62933e+06
1.84828e+06
2.16303e+06
2.55805e+06
3.01432e+06
3.62972e+06
4.5257e+06
5.91636e+06
6.54018e+06
1.13429e+07
1.55083e+07
1.55561e+07
1.11715e+07
6.08539e+06
5.66207e+06
4.5645e+06
3.54312e+06
2.91004e+06
2.40317e+06
2.0054e+06
1.70703e+06
1.49943e+06
1.39702e+06
1.34562e+06
1.40471e+06
1.50719e+06
1.70439e+06
1.98884e+06
2.36105e+06
2.82469e+06
3.46247e+06
4.49507e+06
5.60453e+06
6.02657e+06
1.06185e+07
1.52831e+07
1.52696e+07
1.05004e+07
5.57431e+06
5.31527e+06
4.66964e+06
3.43908e+06
2.75226e+06
2.23857e+06
1.85241e+06
1.57889e+06
1.39293e+06
1.30066e+06
1.25237e+06
1.30716e+06
1.39887e+06
1.57479e+06
1.83661e+06
2.20354e+06
2.67758e+06
3.35286e+06
4.57866e+06
5.25321e+06
5.49077e+06
9.94186e+06
1.48829e+07
1.50483e+07
9.98762e+06
5.16261e+06
4.94521e+06
4.64187e+06
3.42298e+06
2.62933e+06
2.11378e+06
1.72953e+06
1.46991e+06
1.29819e+06
1.21446e+06
1.16935e+06
1.21936e+06
1.30303e+06
1.4644e+06
1.71397e+06
2.0833e+06
2.56813e+06
3.35299e+06
4.5529e+06
4.88109e+06
5.04e+06
9.42242e+06
1.4624e+07
1.46685e+07
9.49756e+06
4.76384e+06
4.55636e+06
4.39325e+06
3.50371e+06
2.54606e+06
2.01099e+06
1.63128e+06
1.37597e+06
1.21458e+06
1.13758e+06
1.09529e+06
1.14293e+06
1.2202e+06
1.3738e+06
1.62119e+06
1.98677e+06
2.51622e+06
3.48291e+06
4.28783e+06
4.50386e+06
4.72547e+06
9.00912e+06
1.44509e+07
1.44099e+07
9.08564e+06
4.46462e+06
4.18528e+06
4.10291e+06
3.58767e+06
2.55329e+06
1.93701e+06
1.55927e+06
1.29916e+06
1.14246e+06
1.06881e+06
1.02889e+06
1.07383e+06
1.14714e+06
1.2973e+06
1.54744e+06
1.90942e+06
2.54078e+06
3.53754e+06
3.99291e+06
4.13678e+06
4.39744e+06
8.5978e+06
1.41467e+07
1.42094e+07
8.72439e+06
4.27445e+06
3.87141e+06
3.79553e+06
3.47512e+06
2.662e+06
1.90384e+06
1.49744e+06
1.241e+06
1.08391e+06
1.00995e+06
970288
1.01429e+06
1.08843e+06
1.2392e+06
1.48484e+06
1.87543e+06
2.69672e+06
3.40614e+06
3.67881e+06
3.82453e+06
4.15916e+06
8.21885e+06
1.39503e+07
1.39981e+07
8.32432e+06
4.04031e+06
3.59525e+06
3.49431e+06
3.27898e+06
2.87148e+06
1.93442e+06
1.45089e+06
1.19466e+06
1.03983e+06
960841
920782
965302
1.04429e+06
1.19395e+06
1.44182e+06
1.93893e+06
2.82173e+06
3.20811e+06
3.38385e+06
3.56139e+06
4.00316e+06
7.91124e+06
1.38042e+07
1.38218e+07
7.96163e+06
3.90019e+06
3.3684e+06
3.23196e+06
3.08283e+06
2.90892e+06
2.15387e+06
1.43795e+06
1.15716e+06
1.00576e+06
924928
881625
928753
1.00892e+06
1.15451e+06
1.42679e+06
2.09873e+06
2.75749e+06
2.99808e+06
3.1344e+06
3.33598e+06
3.82645e+06
7.55772e+06
1.36599e+07
1.36655e+07
7.65826e+06
3.79528e+06
3.18427e+06
3.0137e+06
2.88191e+06
2.75441e+06
2.33037e+06
1.5336e+06
1.12991e+06
973294
895262
850362
898479
976943
1.12616e+06
1.50115e+06
2.25675e+06
2.6178e+06
2.79018e+06
2.92548e+06
3.14724e+06
3.68077e+06
7.25067e+06
1.34984e+07
1.33396e+07
7.2716e+06
3.63959e+06
3.02073e+06
2.82811e+06
2.69336e+06
2.59032e+06
2.31325e+06
1.7303e+06
1.14444e+06
946210
867773
824169
870954
951855
1.14885e+06
1.69851e+06
2.2511e+06
2.47353e+06
2.60706e+06
2.75271e+06
2.99266e+06
3.57681e+06
6.95503e+06
1.31693e+07
1.28166e+07
6.85697e+06
3.49034e+06
2.86955e+06
2.66899e+06
2.52706e+06
2.41878e+06
2.21083e+06
1.89553e+06
1.24711e+06
936516
843693
801031
846552
944079
1.24142e+06
1.82572e+06
2.15216e+06
2.32147e+06
2.44753e+06
2.60063e+06
2.83975e+06
3.42193e+06
6.55965e+06
1.26414e+07
1.13658e+07
6.27009e+06
3.33039e+06
2.71884e+06
2.52627e+06
2.38107e+06
2.2596e+06
2.09518e+06
1.8946e+06
1.4467e+06
980975
831496
785698
833335
987294
1.41097e+06
1.8041e+06
2.03995e+06
2.17827e+06
2.3106e+06
2.46601e+06
2.68701e+06
3.25026e+06
5.98678e+06
1.12471e+07
359084
194278
183900
181951
180431
179038
178829
179113
179721
180368
180372
179520
178881
178410
178015
177623
177185
176706
176208
175705
175205
174709
174219
173732
173252
172767
172290
172051
175715
292836
203772
137420
135178
135435
136849
138421
140419
141895
142352
140941
137148
133162
130541
129148
128422
127920
127496
127091
126693
126305
125929
125562
125205
124855
124508
124175
123818
123821
126744
173541
155707
122429
122783
125924
129404
132925
136740
140530
143898
145162
140199
128829
118986
113608
111549
110748
110339
110069
109856
109669
109498
109338
109185
109039
108893
108761
108626
108840
111829
144702
149544
127391
127699
129770
131517
133693
137251
142199
148286
155241
161195
159627
139787
118931
109138
106284
105462
105147
104996
104906
104839
104783
104733
104687
104642
104605
104581
104893
108045
138587
157559
132436
129156
129869
131253
133754
138029
143900
151131
159666
169061
178411
182225
160259
123789
108502
104922
104102
103849
103758
103718
103696
103680
103667
103655
103649
103662
104010
107235
137505
159654
132621
128655
129448
131243
134515
139540
146299
154833
164685
175210
186088
197331
203870
181294
128490
108363
104502
103752
103550
103492
103472
103464
103460
103456
103457
103482
103843
107102
137382
160210
131637
127336
128568
130853
135079
141027
148718
158439
169643
181827
194200
206174
218199
225597
198505
130372
107805
104251
103626
103475
103436
103426
103423
103421
103424
103452
103820
107105
137411
159744
129843
125748
127639
130740
136408
143648
152524
163304
175292
188442
202367
216086
228761
240938
247503
208941
128437
106859
104031
103554
103447
103423
103417
103416
103418
103448
103823
107130
137454
158641
127925
124456
127060
131466
138915
147780
158035
169987
182984
196668
210897
225871
240348
253235
265319
268987
209491
123378
105831
103842
103504
103433
103418
103416
103418
103449
103829
107158
137489
157509
126324
123648
127273
133544
143086
153996
165894
178708
192676
207193
221453
236211
251650
266391
279135
291022
288186
197076
117001
104976
103692
103469
103425
103417
103418
103450
103836
107184
137519
156382
125266
123654
128807
137542
149566
162839
176501
190195
204371
219800
234095
248478
263346
279009
293743
306256
317678
300757
172907
111379
104368
103585
103446
103420
103418
103451
103842
107209
137545
156089
124904
124915
132320
144161
159120
174838
190215
204580
218599
233879
248430
262393
276503
291602
307563
322143
334773
343850
296675
146135
107600
103966
103513
103432
103420
103452
103847
107233
137569
156967
126031
128088
138651
154243
172349
190581
207228
221740
234978
249244
263783
277318
290791
305014
320811
337275
351634
364810
366105
261250
126061
105500
103718
103469
103426
103453
103853
107255
137591
158612
128435
133884
148926
169064
190196
210326
227033
241118
252490
265854
279096
292738
305480
319146
334169
351161
368271
382743
397336
375726
205986
113756
104441
103574
103445
103457
103858
107275
137611
162696
133688
143679
164390
189744
213700
234369
250386
263104
272284
283024
294019
307972
319938
333258
347818
364361
382855
400419
417039
430257
359231
154229
107682
103912
103497
103466
103864
107293
137627
166542
140869
158065
187181
217874
243424
263635
277790
287961
294719
300200
308903
321968
333746
346805
361210
377256
395728
415518
433993
455582
447693
286999
124976
105162
103651
103491
103872
107309
137641
175717
152903
178875
217016
253769
279799
297359
307178
313230
316263
317132
323276
334104
346158
358867
373197
389044
407031
427993
449695
472796
490341
443289
200567
111178
104144
103559
103886
107325
137653
183263
169994
208225
256419
298610
320386
332818
336372
336584
334692
332517
335339
343413
355862
368071
382280
398477
416562
438133
462034
486440
515794
517195
371078
139935
106051
103758
103917
107342
137662
199593
196525
247880
303336
346354
364040
369490
364501
357500
350220
344641
343211
348895
361220
372937
387002
404045
423244
445547
470953
498266
529957
551362
518474
249974
115212
104387
103998
107363
137671
210014
233986
300416
360669
407538
419193
408400
394154
380315
365875
355333
346914
348487
360386
371770
386541
404687
425630
448880
475873
506711
540051
576443
586592
448409
155283
106888
104223
107402
137686
234332
287002
364914
438362
511717
511635
480426
446325
412632
383118
363563
351178
347943
358977
370172
383888
401953
423849
448293
476429
509761
546502
590568
618630
595544
296211
118785
104927
107487
137710
257304
371353
476978
608725
732698
727735
643775
548292
474894
418713
384673
364736
356465
364152
372461
384256
399437
419321
444009
473138
507722
546428
594679
638402
659370
516393
166751
107716
107709
137774
323673
501915
737053
1.04055e+06
1.22169e+06
1.14871e+06
952174
752924
603653
497120
435316
399821
382066
376936
375942
382748
394494
413205
437933
467545
502842
543638
594344
654302
689855
668312
325909
120425
108375
137935
411917
961434
1.22435e+06
1.61669e+06
1.82976e+06
1.73413e+06
1.51679e+06
1.16505e+06
862260
646060
525698
456602
411175
387591
381979
382944
392118
408907
432140
462342
497719
541630
591599
655463
706666
736764
564916
169001
110889
138329
620831
2.52285e+06
2.3444e+06
2.63523e+06
2.59008e+06
2.53796e+06
2.338e+06
1.90888e+06
1.3216e+06
893590
652529
527297
450073
411922
399758
393561
397671
410363
431492
460104
495144
539058
588305
653791
723483
768712
738454
330655
121901
139373
292838
175716
172053
172292
172770
173255
173737
174224
174715
175211
175712
176216
176715
177194
177633
178025
178419
178889
179525
180372
180422
179778
179172
178893
179107
180511
181973
183922
194310
359249
173542
126744
123821
123818
124175
124508
124855
125205
125562
125929
126305
126693
127091
127496
127919
128418
129139
130516
133106
137050
140826
142247
141804
140350
138373
136814
135410
135164
137410
203754
144703
111829
108840
108626
108761
108894
109039
109186
109338
109499
109670
109857
110069
110338
110746
111538
113567
118862
128593
139886
144912
143710
140386
136624
132825
129319
125855
122736
122401
155734
138587
108045
104893
104581
104605
104642
104687
104733
104783
104839
104906
104996
105146
105458
106270
109072
118694
139267
159157
160918
155044
148131
142074
137149
133603
131435
129692
127627
127318
149479
137504
107235
104010
103662
103649
103655
103667
103680
103696
103718
103758
103848
104098
104907
108415
123421
159484
181747
178096
168813
159460
150961
143762
137918
133661
131172
129796
129091
132375
157497
137382
107102
103843
103482
103457
103456
103460
103464
103472
103491
103550
103749
104487
108264
127997
180281
203322
196938
185753
174923
164449
154643
146145
139417
134414
131161
129375
128593
132565
159678
137411
107105
103820
103452
103424
103421
103423
103426
103436
103474
103624
104239
107710
129787
197206
224908
217695
205726
193811
181502
169373
158222
148540
140888
134969
130766
128494
127271
131570
160086
137453
107130
103823
103448
103418
103416
103417
103423
103447
103552
104022
106784
127868
207439
246699
240327
228199
215591
201936
188074
174978
163050
152316
143487
136282
130646
127561
125682
129787
159731
137489
107158
103829
103449
103418
103416
103418
103433
103503
103835
105779
122876
207675
267926
264534
252515
239701
225299
210390
196223
182599
169676
157778
147581
138766
131358
126979
124387
127857
158564
137518
107184
103836
103450
103418
103417
103424
103468
103688
104945
116638
195117
286833
290070
278268
265601
250933
235554
220851
206660
192208
178325
165576
153747
142903
133416
127183
123575
126253
157393
137545
107209
103842
103451
103418
103420
103445
103582
104350
111160
171203
298946
316496
305208
292782
278133
262539
247728
233397
219174
203808
189719
176097
162518
149327
137378
128701
123572
125187
156290
137569
107233
103847
103452
103420
103432
103511
103956
107488
144870
293922
342288
333510
320987
306514
290625
275581
261523
247608
233139
217911
203987
189708
174433
158814
143948
132193
124830
124818
155923
137591
107255
103853
103453
103426
103468
103713
105450
125382
258161
364128
363313
350279
336043
319677
303948
289778
276353
262860
248419
234167
221019
206602
190074
171958
153970
138493
127995
125940
156791
137611
107275
103858
103457
103444
103572
104418
113427
203160
372813
395556
381129
366816
349842
332958
318001
304382
291680
278071
264941
251510
240224
226249
209697
189727
168747
148739
133788
128354
158408
137627
107293
103864
103466
103496
103902
107553
152537
355089
427816
415241
398742
381368
362995
346570
332096
318824
306896
292961
282091
271479
262342
249685
233763
213206
189394
164205
143628
133639
162581
137641
107309
103871
103491
103647
105116
124231
282472
444697
453543
432160
413863
394258
375908
359992
345705
332695
320979
307911
299392
294033
287278
277122
263065
242937
217543
187061
158061
140886
166543
137652
107325
103886
103557
104126
110903
197238
439184
487598
470925
447915
426443
405677
387842
372122
357971
345320
333379
322479
316438
315574
312605
306542
296813
279376
253470
216945
178953
152999
175889
137662
107342
103916
103752
105969
138611
365080
513944
513614
484643
460437
436798
415457
397596
381494
367509
355384
343157
334914
331765
333996
335921
335855
332421
320173
298514
256508
208474
170189
183688
137671
107363
103996
104362
114765
245370
514574
548930
528209
496655
469631
444525
422510
403579
386575
372633
360891
348544
343072
343899
349482
356794
363829
369048
363983
346755
304136
248536
196898
200178
137685
107401
104215
106774
153494
442177
583708
574142
538525
505361
474866
448195
425239
404418
386327
371540
360156
348251
346436
354044
364681
379393
393449
408689
419439
408741
361223
301554
234984
210969
137710
107484
104897
118197
290712
591783
616549
589168
545192
508710
475675
447780
423440
401562
383624
369703
358747
346825
350728
362698
382064
410697
445314
480952
514332
516265
440611
367209
288709
235828
137772
107701
107582
164573
510069
657222
636644
593570
545484
506889
472460
443366
418625
398880
383726
371737
363216
354305
364177
383436
417808
472386
547159
644683
732928
737667
609367
479667
374802
259391
137929
108346
119800
320161
665431
688619
653344
593487
542807
502187
466912
437183
412374
393704
381861
374875
375141
378868
398458
432565
495864
599400
753629
953518
1.15746e+06
1.22309e+06
1.03884e+06
742260
507340
326785
138314
110771
166971
559131
735825
705988
654964
591129
541066
497171
461727
431533
408232
391304
381953
380825
386463
408416
454844
521460
644036
857350
1.16126e+06
1.51466e+06
1.73799e+06
1.83564e+06
1.6319e+06
1.23452e+06
971758
417602
139333
121399
325477
736907
768776
723182
653568
587910
538693
494682
459601
430950
409699
396759
392368
398061
410442
447688
523690
646552
888380
1.32131e+06
1.89745e+06
2.31824e+06
2.5275e+06
2.60075e+06
2.63703e+06
2.38491e+06
2.57262e+06
632394
138967
138951
138944
138936
138928
138920
138912
138904
138896
138888
138880
138872
138864
138856
138848
138839
138831
138823
138815
138806
138798
138790
138781
138773
138764
138756
138747
138738
138730
138721
138712
138704
138695
138686
138677
138668
138659
138650
138641
138632
138623
138614
138605
138596
138586
138577
138568
138558
138549
138540
138530
138521
138511
138501
138492
138482
138473
138463
138453
138443
138433
138423
138413
138404
138394
138383
138373
138363
138353
138343
138333
138322
138312
138302
138291
138281
138274
138286
138409
139171
143580
168122
279884
670533
1.42992e+06
2.24121e+06
2.9335e+06
3.44284e+06
3.82837e+06
4.11236e+06
4.31598e+06
4.45553e+06
4.54501e+06
4.59729e+06
4.61618e+06
4.61122e+06
4.56884e+06
4.50368e+06
4.43049e+06
4.34724e+06
4.25275e+06
4.14929e+06
4.02497e+06
3.89968e+06
3.7687e+06
3.63044e+06
3.48842e+06
3.34366e+06
3.19624e+06
3.04439e+06
2.88821e+06
2.72317e+06
2.55368e+06
2.37793e+06
2.19047e+06
1.98044e+06
1.74505e+06
1.47591e+06
1.18908e+06
857181
524020
267983
183017
151881
142362
108799
108781
108768
108756
108744
108731
108719
108707
108695
108682
108670
108658
108646
108634
108622
108610
108597
108585
108573
108561
108549
108537
108525
108513
108501
108489
108477
108465
108453
108441
108429
108418
108406
108394
108382
108370
108358
108347
108335
108323
108311
108300
108288
108276
108265
108253
108241
108230
108218
108207
108195
108183
108172
108160
108149
108137
108126
108115
108103
108092
108080
108069
108058
108046
108035
108024
108013
108001
107990
107979
107968
107956
107945
107934
107924
107919
107949
108404
116171
203522
717943
2.00292e+06
3.42225e+06
4.23573e+06
4.40987e+06
4.3313e+06
4.17472e+06
4.03408e+06
3.90356e+06
3.793e+06
3.68041e+06
3.5639e+06
3.4525e+06
3.34106e+06
3.22601e+06
3.11963e+06
3.02059e+06
2.92726e+06
2.8394e+06
2.7556e+06
2.67422e+06
2.59265e+06
2.50277e+06
2.41547e+06
2.32555e+06
2.23292e+06
2.13815e+06
2.04244e+06
1.94662e+06
1.85346e+06
1.76424e+06
1.67077e+06
1.57957e+06
1.49256e+06
1.41394e+06
1.33975e+06
1.26284e+06
1.19241e+06
1.11893e+06
1.04619e+06
951472
796447
547281
297724
162716
104355
104348
104343
104337
104332
104327
104322
104317
104312
104307
104302
104297
104292
104287
104282
104278
104273
104268
104263
104259
104254
104249
104245
104240
104235
104231
104226
104222
104217
104213
104208
104204
104200
104195
104191
104187
104182
104178
104174
104170
104165
104161
104157
104153
104149
104145
104141
104137
104133
104129
104125
104121
104117
104113
104109
104105
104101
104098
104094
104090
104086
104083
104079
104075
104072
104068
104064
104061
104057
104054
104050
104047
104043
104042
104057
104263
108902
189019
830795
2.59561e+06
4.32967e+06
5.06166e+06
5.00049e+06
4.66915e+06
4.28726e+06
3.9287e+06
3.62315e+06
3.36616e+06
3.13091e+06
2.9257e+06
2.75481e+06
2.59761e+06
2.45923e+06
2.33605e+06
2.2296e+06
2.13668e+06
2.05406e+06
1.97903e+06
1.91034e+06
1.84719e+06
1.78841e+06
1.73281e+06
1.67641e+06
1.62287e+06
1.57103e+06
1.51938e+06
1.46734e+06
1.41469e+06
1.36136e+06
1.30903e+06
1.2613e+06
1.21864e+06
1.17755e+06
1.14081e+06
1.10716e+06
1.07974e+06
1.06045e+06
1.04211e+06
1.022e+06
1.00041e+06
980258
949901
897043
789604
579628
103541
103539
103538
103537
103536
103534
103533
103532
103531
103530
103529
103528
103527
103526
103525
103524
103523
103522
103521
103520
103519
103518
103517
103516
103515
103514
103514
103513
103512
103511
103510
103509
103508
103508
103507
103506
103505
103504
103503
103503
103502
103501
103500
103500
103499
103498
103497
103497
103496
103495
103494
103494
103493
103492
103492
103491
103490
103490
103489
103488
103488
103487
103486
103486
103485
103484
103484
103483
103483
103482
103482
103481
103487