/*--------------------------------*- C++ -*----------------------------------*\
| =========                 |                                                 |
| \\      /  F ield         | OpenFOAM: The Open Source CFD Toolbox           |
|  \\    /   O peration     | Version:  2112                                  |
|   \\  /    A nd           | Website:  www.openfoam.com                      |
|    \\/     M anipulation  |                                                 |
\*---------------------------------------------------------------------------*/
FoamFile
{
    version     2.0;
    format      ascii;
    arch        "LSB;label=32;scalar=64";
    class       volScalarField;
    location    "0.00552";
    object      alphat;
}
// * * * * * * * * * * * * * * * * * * * * * * * * * * * * * * * * * * * * * //

dimensions      [1 -1 -1 0 0 0 0];

internalField   nonuniform List<scalar> 
13875
(
0.11986
0.0816018
0.0784489
0.0782772
0.0783198
0.0783788
0.078283
0.0782817
0.07834
0.0783208
0.0782778
0.0783021
0.0783807
0.0784142
0.0783935
0.0782975
0.0782447
0.0782964
0.078308
0.0783558
0.0783193
0.0782638
0.0784839
0.081438
0.120913
0.103938
0.0576796
0.0570827
0.0571591
0.0566541
0.0566775
0.0570408
0.0571063
0.0571824
0.0572181
0.0571637
0.0571111
0.0566478
0.0566137
0.0566665
0.0570908
0.0571143
0.057163
0.057075
0.0566834
0.0566743
0.0571371
0.0570636
0.0573642
0.104653
0.11062
0.0553249
0.0558752
0.0547258
0.0545769
0.0544636
0.0542266
0.0541444
0.0542011
0.0543158
0.0543919
0.0543691
0.0542539
0.054279
0.0542386
0.0543465
0.0541119
0.054268
0.0542883
0.0544602
0.054534
0.0546029
0.0557808
0.0550953
0.11124
0.115885
0.0546446
0.0553823
0.0543171
0.0540398
0.0539187
0.0536468
0.053491
0.0534791
0.0534854
0.0534268
0.0535034
0.053709
0.0537426
0.053691
0.0534876
0.0533855
0.0534736
0.0536418
0.0539164
0.0540045
0.0542013
0.0551952
0.0542969
0.115763
0.121032
0.0546344
0.0551219
0.0537498
0.0536759
0.0534859
0.0531352
0.052994
0.0529877
0.053001
0.0529284
0.0530158
0.0532303
0.0532686
0.0532131
0.0529982
0.0528971
0.0529666
0.0531193
0.0534843
0.0536109
0.0536122
0.0550194
0.0543198
0.121314
0.124408
0.0547454
0.0551884
0.0536126
0.0532961
0.053082
0.0527381
0.052566
0.0525557
0.0525954
0.0524895
0.0525598
0.0527924
0.0528556
0.052765
0.0525427
0.0524717
0.0525575
0.0527382
0.0530698
0.0532453
0.0535037
0.0548876
0.0543915
0.124053
0.128746
0.0564758
0.0557848
0.0534617
0.0532725
0.0528688
0.0523759
0.0522092
0.0521809
0.0522152
0.0521003
0.0521824
0.0524338
0.0524846
0.0523974
0.0521561
0.052101
0.0521743
0.0523647
0.0528628
0.053201
0.0533635
0.0556474
0.0563522
0.128973
0.135704
0.061198
0.0578405
0.0544196
0.0534149
0.0528408
0.0522163
0.051983
0.0519122
0.0519231
0.0518025
0.0518577
0.0521412
0.052198
0.0520908
0.0518378
0.051838
0.0519429
0.052227
0.0528108
0.0533424
0.0542778
0.057522
0.0610302
0.135628
0.151308
0.0692428
0.0615455
0.055917
0.0544145
0.0531498
0.05223
0.0518908
0.0517462
0.0517249
0.0516395
0.0516756
0.0519981
0.0520547
0.0519392
0.0516606
0.0517004
0.051831
0.0521859
0.053091
0.0542321
0.0556166
0.0610305
0.0684112
0.15425
0.239338
0.0874473
0.0664773
0.0590208
0.0554346
0.0537551
0.0525579
0.0521042
0.0518816
0.0517663
0.0517323
0.0517525
0.0521037
0.0521689
0.052049
0.0517885
0.0518365
0.0520112
0.0524984
0.0536463
0.05531
0.058683
0.0660283
0.0867004
0.241184
0.365474
0.118409
0.075952
0.0628697
0.0576456
0.0548962
0.0533051
0.0527304
0.0524186
0.052258
0.0522676
0.0522728
0.0526178
0.0526974
0.0526106
0.0524075
0.0524497
0.0526805
0.0531483
0.054705
0.0573456
0.0617267
0.0747605
0.112938
0.365428
0.65846
0.19328
0.104055
0.0746132
0.0618755
0.0575929
0.0555068
0.0544163
0.0538998
0.0536675
0.0536517
0.0536513
0.0539384
0.0540589
0.054041
0.0539476
0.0540332
0.054433
0.0552853
0.0572648
0.0619852
0.0734454
0.100391
0.183033
0.643526
0.582403
0.436727
0.176298
0.092436
0.0771109
0.0656218
0.0602836
0.0583419
0.0574315
0.057052
0.0569693
0.0569499
0.0571309
0.0572927
0.057375
0.0574258
0.0576838
0.0585465
0.0600763
0.0656038
0.0764242
0.0891671
0.170771
0.433742
0.580531
0.492257
0.401725
0.347825
0.330777
0.118857
0.0817632
0.0748813
0.0689075
0.0665188
0.0655731
0.06526
0.0650976
0.0651554
0.0653659
0.065643
0.066028
0.0669874
0.0695975
0.0760723
0.0857564
0.131684
0.331882
0.338095
0.400688
0.500361
0.408457
0.350721
0.332203
0.340159
0.303224
0.204965
0.129162
0.102181
0.092693
0.090105
0.0897818
0.0895637
0.0896517
0.0898739
0.0902277
0.0906038
0.0923093
0.100896
0.134115
0.204274
0.309559
0.334219
0.331418
0.360863
0.420307
0.332451
0.298646
0.287038
0.310157
0.326225
0.332514
0.262517
0.19918
0.176399
0.1555
0.143067
0.137882
0.136363
0.137299
0.141075
0.152273
0.175915
0.196944
0.252484
0.340161
0.323496
0.308981
0.29133
0.298723
0.343299
0.243423
0.230716
0.23826
0.286507
0.342024
0.422708
0.585479
0.703464
0.68123
0.613651
0.627163
0.640787
0.648431
0.646461
0.633749
0.608891
0.647044
0.712917
0.62321
0.442275
0.348163
0.286636
0.2366
0.237204
0.253716
0.148071
0.16275
0.197856
0.262038
0.356098
0.479796
0.633511
0.715577
0.584195
0.500006
0.487051
0.488685
0.495077
0.493724
0.491471
0.502198
0.573059
0.695874
0.655589
0.49382
0.37597
0.278134
0.195308
0.151013
0.136653
0.0704466
0.108639
0.184928
0.301273
0.406452
0.443149
0.503979
0.553145
0.488268
0.424279
0.404139
0.40168
0.40512
0.405917
0.405144
0.417101
0.469891
0.53641
0.516537
0.455892
0.427709
0.328954
0.193834
0.110033
0.0717564
0.0273586
0.0559484
0.138885
0.293971
0.377162
0.366441
0.387702
0.434467
0.430136
0.393023
0.368595
0.358032
0.357486
0.361607
0.367897
0.383134
0.412549
0.422212
0.387572
0.369224
0.386502
0.311252
0.146363
0.0570707
0.0266705
0.0574678
0.0755673
0.123575
0.217655
0.28434
0.283712
0.306959
0.359666
0.381075
0.360056
0.333344
0.317447
0.314439
0.321416
0.333232
0.350785
0.365576
0.347975
0.303195
0.283908
0.288062
0.223589
0.125479
0.0773568
0.0562954
0.121086
0.13
0.140569
0.169303
0.214428
0.220637
0.253095
0.306533
0.335927
0.320811
0.29388
0.276339
0.272516
0.280207
0.294142
0.312496
0.322061
0.297997
0.248484
0.218136
0.215915
0.169035
0.143161
0.137784
0.11922
0.15022
0.14281
0.141485
0.141821
0.168583
0.179257
0.215841
0.266253
0.294139
0.281965
0.256191
0.239161
0.234427
0.242104
0.2558
0.273425
0.28183
0.259229
0.212304
0.175827
0.167554
0.142145
0.143022
0.162496
0.152415
0.188921
0.151552
0.13486
0.126858
0.140791
0.154102
0.186252
0.228754
0.254903
0.243775
0.220244
0.205019
0.201121
0.207906
0.220514
0.236406
0.243908
0.222303
0.183191
0.151689
0.139755
0.126298
0.134507
0.160401
0.194698
0.22107
0.161077
0.133116
0.119399
0.123947
0.137275
0.162995
0.198079
0.21938
0.210209
0.18993
0.176677
0.172938
0.179381
0.190627
0.204977
0.211562
0.192634
0.160294
0.135
0.122751
0.118919
0.132488
0.165844
0.228962
0.247469
0.176105
0.130463
0.11492
0.112605
0.123009
0.144365
0.171765
0.189907
0.181439
0.164168
0.152184
0.149156
0.154376
0.164227
0.175986
0.181589
0.166588
0.141952
0.122115
0.112075
0.11447
0.129213
0.173184
0.251459
0.268305
0.187323
0.127982
0.111522
0.105255
0.113752
0.129788
0.151559
0.164006
0.156355
0.141935
0.132076
0.129189
0.134147
0.142421
0.152233
0.157561
0.146334
0.126968
0.111889
0.10437
0.111029
0.127268
0.18908
0.26933
0.28442
0.200116
0.126091
0.107456
0.100937
0.104586
0.117062
0.133214
0.142451
0.135088
0.123253
0.114811
0.112571
0.116583
0.123885
0.132049
0.136767
0.128995
0.114565
0.103766
0.100216
0.107978
0.126555
0.202627
0.295348
0.30859
0.214755
0.127209
0.104566
0.0955343
0.0986702
0.107245
0.119514
0.124863
0.1182
0.107986
0.100861
0.09855
0.10229
0.108146
0.114685
0.119179
0.114717
0.104752
0.0969619
0.0948478
0.104139
0.125693
0.214195
0.319061
0.348117
0.228737
0.126475
0.100802
0.0930114
0.0938614
0.0988003
0.106502
0.109223
0.102999
0.0948094
0.0886633
0.0868977
0.0899693
0.0953086
0.100792
0.104738
0.102236
0.0957357
0.09244
0.0927851
0.10141
0.12835
0.233792
0.342786
0.36521
0.242246
0.129634
0.0979224
0.0878484
0.0897779
0.0920746
0.0963237
0.0967921
0.0909687
0.0839037
0.0787871
0.0769464
0.0799739
0.0843828
0.0891949
0.0931472
0.0929077
0.0896147
0.0873882
0.0868535
0.0985071
0.130519
0.252608
0.371234
0.374974
0.250731
0.134253
0.0965805
0.0861007
0.0859888
0.0857014
0.0876921
0.0862507
0.081062
0.0749215
0.0701938
0.0686889
0.0712172
0.0752973
0.0793346
0.0828884
0.0839038
0.0830936
0.084526
0.0853426
0.0970401
0.135863
0.262634
0.383674
0.387485
0.248608
0.139715
0.0964237
0.0825965
0.0816217
0.0805447
0.0802724
0.0782212
0.0727876
0.0671429
0.0631346
0.0616206
0.0641317
0.0676228
0.0716622
0.0754848
0.0774119
0.0777717
0.0789725
0.0817257
0.0966258
0.142295
0.264729
0.390399
0.395975
0.250654
0.149658
0.0977561
0.0815865
0.0788654
0.0753642
0.0742102
0.070103
0.0654063
0.0607471
0.0570348
0.0557455
0.057891
0.0612827
0.064692
0.0680897
0.0711149
0.0735094
0.0770942
0.080202
0.0975233
0.150712
0.262883
0.396691
0.400094
0.248682
0.162526
0.101502
0.080388
0.0748397
0.0706548
0.0688236
0.0643114
0.0598393
0.0552223
0.0519841
0.0506828
0.0527646
0.0556679
0.0591088
0.0626321
0.0660877
0.0680921
0.0725735
0.0785586
0.0999859
0.164188
0.261403
0.402969
0.405734
0.243932
0.163055
0.106144
0.0824509
0.0727403
0.0667644
0.0644331
0.0583066
0.054274
0.0506205
0.0475495
0.0464384
0.0482765
0.0511618
0.0539789
0.0572828
0.0616159
0.065025
0.070632
0.0801262
0.105063
0.166715
0.256805
0.404154
0.409101
0.23653
0.162633
0.115241
0.0831993
0.0697174
0.0627696
0.0594315
0.0538346
0.0504941
0.046563
0.0439063
0.0427775
0.0445638
0.0470041
0.0501522
0.0532219
0.0574508
0.0603642
0.0677529
0.080739
0.111847
0.165942
0.247369
0.406369
0.404045
0.230077
0.161409
0.128667
0.0882293
0.0695866
0.0601922
0.0559753
0.0496562
0.0464007
0.0432936
0.040636
0.0396408
0.041214
0.0437201
0.0461315
0.0490692
0.0539349
0.0585279
0.0671249
0.0847985
0.123667
0.164183
0.241023
0.402463
0.398803
0.224208
0.157681
0.135077
0.091824
0.068733
0.057767
0.0521683
0.0462558
0.0437392
0.0402023
0.0379823
0.0369797
0.0385532
0.0406151
0.0435611
0.0459303
0.0504745
0.0556501
0.0665499
0.0888644
0.134414
0.16198
0.236714
0.395725
0.39077
0.222515
0.151309
0.134327
0.101213
0.0702022
0.0566168
0.0497975
0.0436772
0.0405202
0.0378157
0.0354732
0.0346271
0.0359783
0.0382428
0.0403346
0.0432308
0.0484528
0.0552576
0.0676268
0.0968568
0.134498
0.15565
0.232679
0.391111
0.379918
0.219877
0.143558
0.133542
0.11412
0.0722984
0.056473
0.0476851
0.0410764
0.0386639
0.0354529
0.0335597
0.0325972
0.0340077
0.0357755
0.0385501
0.0406558
0.0459444
0.0544042
0.0697211
0.108495
0.133694
0.14699
0.229741
0.384702
0.377025
0.218454
0.136499
0.129211
0.119562
0.0775556
0.0568318
0.0469622
0.0399038
0.0363293
0.0336848
0.0315334
0.0308173
0.0319615
0.0340411
0.0361483
0.0394018
0.0457002
0.0555599
0.0748104
0.11949
0.130696
0.13992
0.226429
0.377806
0.370307
0.217568
0.131612
0.123227
0.118855
0.08597
0.0586359
0.0464277
0.0383328
0.0351783
0.0319168
0.0301635
0.0292234
0.0305452
0.0321841
0.0351294
0.037984
0.0449847
0.0568047
0.0835608
0.119152
0.125691
0.134109
0.222222
0.373705
0.365535
0.217435
0.128863
0.116388
0.116644
0.0998864
0.0629819
0.0471268
0.0387785
0.0340084
0.0308083
0.0286042
0.0278793
0.0289475
0.031
0.0337348
0.0382417
0.045766
0.0610198
0.0967187
0.116764
0.117603
0.12955
0.221386
0.369692
0.360607
0.214045
0.125893
0.111571
0.112082
0.100249
0.0699408
0.0480821
0.0382052
0.0337014
0.0297824
0.027734
0.0267551
0.0280677
0.0299181
0.0336326
0.0379253
0.0468322
0.0690654
0.0995782
0.112425
0.112692
0.127283
0.218406
0.360991
0.356644
0.214281
0.125572
0.106528
0.105233
0.0990496
0.0817677
0.0520239
0.0395083
0.033758
0.0295116
0.0268441
0.0259698
0.0271401
0.0296424
0.0334586
0.0388308
0.0513219
0.0812143
0.0981993
0.105017
0.107023
0.125744
0.215894
0.358218
0.347518
0.210357
0.125228
0.104349
0.100021
0.0964429
0.0853098
0.0591398
0.0404475
0.0337987
0.0295845
0.0269079
0.0255422
0.0271896
0.0296361
0.0335885
0.039853
0.0583821
0.0846005
0.0957717
0.0994568
0.10429
0.125137
0.211912
0.348478
0.341117
0.208026
0.124637
0.101227
0.0955141
0.0918992
0.0847625
0.0701998
0.0452601
0.0347308
0.0295709
0.0267768
0.0256088
0.0270472
0.0297284
0.0344812
0.0447087
0.0702268
0.0844271
0.0911174
0.0950657
0.101593
0.125721
0.208517
0.339608
0.318894
0.200171
0.12254
0.100257
0.0925053
0.0872254
0.0829917
0.074024
0.0512315
0.0366141
0.0301681
0.0272073
0.025773
0.0274447
0.0302863
0.0364057
0.0510281
0.0733071
0.0825255
0.086731
0.0919889
0.100524
0.123784
0.199296
0.316242
0.28855
0.190013
0.120157
0.0975522
0.0901695
0.0837037
0.0800895
0.073657
0.062574
0.0415237
0.0311709
0.0273236
0.0261078
0.0275235
0.031314
0.041439
0.062452
0.072969
0.0793349
0.0832318
0.0895867
0.0977403
0.120175
0.188097
0.287211
0.176421
0.450876
0.610923
0.707483
0.737178
0.733687
0.731854
0.748359
0.791433
0.83492
0.872017
0.901032
0.915634
0.848202
0.719555
0.656967
0.612323
0.571207
0.548901
0.533456
0.520545
0.508007
0.497029
0.48521
0.468559
0.436083
0.386669
0.317158
0.225328
0.103103
0.174877
0.454968
0.592851
0.665595
0.676701
0.665058
0.666798
0.692094
0.741665
0.797565
0.842114
0.875626
0.897483
0.872976
0.730857
0.657705
0.612751
0.566705
0.534263
0.517392
0.503437
0.489562
0.478135
0.466742
0.450387
0.41938
0.371188
0.303305
0.21494
0.100386
0.193326
0.476059
0.572417
0.614354
0.606106
0.598458
0.607114
0.637408
0.687018
0.750082
0.803741
0.840984
0.870675
0.862444
0.740776
0.657432
0.607482
0.557456
0.515121
0.497725
0.482596
0.467706
0.456336
0.444956
0.428513
0.398951
0.352152
0.286421
0.202731
0.0966826
0.204321
0.480521
0.530654
0.544972
0.521376
0.517631
0.530683
0.56939
0.623384
0.693887
0.754696
0.797279
0.835858
0.842887
0.756012
0.659769
0.60352
0.54985
0.502445
0.479356
0.462648
0.446978
0.435221
0.423393
0.40646
0.377953
0.332706
0.269802
0.191102
0.0931587
0.209603
0.466821
0.472965
0.466703
0.438108
0.438417
0.451167
0.492781
0.551651
0.625395
0.694176
0.744292
0.790726
0.812319
0.765981
0.660135
0.601328
0.543424
0.492015
0.46119
0.442422
0.425906
0.413534
0.400948
0.383224
0.355446
0.312538
0.253688
0.180578
0.0905433
0.212537
0.441703
0.407449
0.387773
0.361063
0.364651
0.374567
0.418251
0.4799
0.554273
0.628609
0.688024
0.74026
0.774482
0.762691
0.660771
0.598347
0.540601
0.482251
0.445456
0.422801
0.405572
0.392607
0.379173
0.360837
0.333708
0.293917
0.239185
0.171223
0.0883322
0.214738
0.406584
0.341959
0.317737
0.296072
0.299275
0.306618
0.349783
0.412206
0.484259
0.560138
0.627437
0.685895
0.730983
0.735935
0.653926
0.594352
0.539349
0.475793
0.432423
0.405241
0.387738
0.374243
0.360018
0.341177
0.313947
0.275543
0.224
0.160306
0.0842515
0.214706
0.365366
0.286173
0.267789
0.27723
0.280987
0.269666
0.288867
0.35013
0.418887
0.493201
0.565656
0.629935
0.681968
0.701229
0.640111
0.595526
0.536906
0.473911
0.420858
0.389821
0.37158
0.357091
0.342019
0.322625
0.294948
0.254638
0.202335
0.144045
0.0776356
0.212974
0.325094
0.254077
0.28613
0.316605
0.321722
0.302835
0.268663
0.297186
0.360791
0.430233
0.504157
0.573561
0.630777
0.661309
0.621761
0.582525
0.53414
0.472966
0.411748
0.373793
0.352806
0.337231
0.320494
0.297991
0.266563
0.227621
0.181094
0.129992
0.0723372
0.208201
0.295809
0.279809
0.323885
0.348148
0.357547
0.338578
0.2987
0.263797
0.311409
0.374158
0.446099
0.51793
0.58009
0.618697
0.600945
0.559729
0.53784
0.471482
0.403465
0.354524
0.32963
0.311318
0.291837
0.269143
0.241023
0.206925
0.166314
0.120976
0.0692416
0.200688
0.283052
0.320387
0.353102
0.382179
0.393993
0.375821
0.326594
0.266071
0.272242
0.327732
0.394437
0.467877
0.532855
0.576357
0.57806
0.53312
0.530764
0.475464
0.396285
0.337469
0.306623
0.287961
0.26919
0.248176
0.222384
0.191281
0.154441
0.113464
0.0665569
0.190422
0.28715
0.356209
0.384783
0.413369
0.419202
0.401285
0.347695
0.278341
0.247257
0.290238
0.352774
0.424844
0.490231
0.536817
0.553045
0.507399
0.510536
0.499475
0.395121
0.323931
0.288072
0.267994
0.250135
0.230258
0.206195
0.177615
0.144127
0.106988
0.0642171
0.179225
0.315547
0.388276
0.413086
0.43151
0.431067
0.413341
0.365741
0.284404
0.238291
0.259885
0.319565
0.388559
0.452444
0.501718
0.527012
0.486333
0.48694
0.502457
0.410685
0.316228
0.273632
0.25084
0.233536
0.214542
0.192005
0.165647
0.135093
0.101268
0.0621397
0.170839
0.355835
0.419226
0.430868
0.443171
0.435639
0.411722
0.371995
0.287895
0.237125
0.239157
0.293398
0.359941
0.42173
0.47264
0.505052
0.466887
0.464831
0.484754
0.458032
0.319654
0.262556
0.237319
0.218811
0.200558
0.179405
0.155053
0.127114
0.0962404
0.0603306
0.167677
0.394669
0.446605
0.446529
0.463254
0.447016
0.40572
0.368539
0.289025
0.234909
0.230943
0.278863
0.340696
0.399882
0.451485
0.486747
0.449269
0.445985
0.463539
0.476839
0.344285
0.257937
0.225676
0.20526
0.187917
0.168123
0.145635
0.120047
0.0918575
0.0587198
0.168138
0.430462
0.470739
0.461802
0.483844
0.462883
0.403786
0.363315
0.292254
0.235922
0.230247
0.276668
0.333562
0.387109
0.436921
0.47095
0.432896
0.428935
0.444506
0.461954
0.414532
0.265931
0.216668
0.194367
0.176354
0.157902
0.137133
0.113703
0.0879488
0.0572554
0.171015
0.463818
0.492237
0.471972
0.495677
0.464117
0.411011
0.362596
0.302443
0.246143
0.241826
0.283958
0.332596
0.380501
0.429167
0.46034
0.42035
0.414655
0.427987
0.441928
0.442403
0.302013
0.214559
0.184991
0.165414
0.148482
0.129269
0.107747
0.0841473
0.0557161
0.175974
0.494617
0.511047
0.477399
0.494738
0.46635
0.425966
0.375487
0.3144
0.267304
0.267833
0.296866
0.336627
0.381684
0.430207
0.457888
0.412493
0.403377
0.41344
0.425031
0.430109
0.385638
0.228379
0.178245
0.156568
0.139375
0.121838
0.102017
0.0803575
0.0540372
0.181182
0.521139
0.525305
0.480471
0.492262
0.472839
0.445679
0.3997
0.339519
0.294935
0.301897
0.314314
0.347796
0.388156
0.435996
0.452698
0.409945
0.397188
0.401613
0.408684
0.411988
0.402005
0.284147
0.180089
0.149341
0.130431
0.114461
0.0963315
0.0765487
0.0522496
0.188528
0.546194
0.53434
0.476508
0.482157
0.483631
0.468661
0.430013
0.373933
0.32378
0.331158
0.345059
0.374088
0.406346
0.442239
0.445773
0.415902
0.397931
0.393847
0.394745
0.394852
0.389053
0.352012
0.201507
0.146221
0.124069
0.106727
0.0907955
0.0731107
0.0506327
0.197731
0.55732
0.532795
0.468421
0.469933
0.488576
0.494998
0.462334
0.417264
0.361413
0.362986
0.383855
0.403253
0.422678
0.445738
0.432583
0.414032
0.406998
0.391436
0.383927
0.379312
0.371936
0.354757
0.267703
0.153441
0.119824
0.101576
0.085224
0.0698266
0.049102
0.207214
0.567727
0.523888
0.459537
0.457557
0.485898
0.514799
0.502433
0.460314
0.404906
0.39367
0.410908
0.427223
0.434298
0.435828
0.418615
0.406664
0.403678
0.391887
0.376848
0.365553
0.355635
0.34051
0.305008
0.179334
0.120064
0.0979673
0.0816912
0.0660743
0.0471761
0.203113
0.54412
0.499954
0.447251
0.447569
0.478169
0.522105
0.537666
0.505677
0.446063
0.417487
0.428098
0.441915
0.440975
0.421716
0.40814
0.397358
0.393005
0.38552
0.371477
0.355503
0.342608
0.325161
0.302838
0.239231
0.12849
0.0959358
0.0792596
0.0638445
0.0457209
0.204786
0.522508
0.46868
0.43958
0.44173
0.470506
0.512325
0.555158
0.551687
0.497503
0.444948
0.438088
0.44557
0.4351
0.412381
0.399271
0.388806
0.381073
0.37373
0.363251
0.348355
0.33266
0.311801
0.292419
0.258439
0.155974
0.0977461
0.0773676
0.0624402
0.044946
0.180185
0.42373
0.439045
0.439782
0.441461
0.461221
0.504137
0.550174
0.581403
0.554754
0.482208
0.443139
0.436048
0.427271
0.406099
0.390505
0.380496
0.369455
0.361646
0.352378
0.340016
0.322658
0.303329
0.28168
0.257018
0.204278
0.107546
0.077117
0.0614347
0.044463
0.103758
0.227495
0.319694
0.388635
0.436659
0.46775
0.484452
0.496461
0.507959
0.520203
0.532551
0.548585
0.571921
0.613979
0.660781
0.729481
0.871711
0.908189
0.88999
0.859153
0.820299
0.774081
0.732534
0.717205
0.718731
0.722876
0.690963
0.597212
0.443601
0.175876
0.101026
0.217011
0.30568
0.372867
0.419633
0.449349
0.465995
0.477759
0.489751
0.503368
0.516537
0.534271
0.568714
0.61476
0.662151
0.744423
0.877114
0.889746
0.864575
0.829077
0.781641
0.723932
0.674889
0.649189
0.647457
0.658746
0.651293
0.581557
0.447623
0.174394
0.0973212
0.204693
0.288658
0.353645
0.39897
0.427422
0.444269
0.455984
0.467868
0.482905
0.497037
0.515567
0.559982
0.610222
0.663057
0.755151
0.861756
0.862104
0.828958
0.789939
0.733198
0.669318
0.621308
0.590223
0.580281
0.586826
0.59882
0.560192
0.467981
0.19263
0.093736
0.192894
0.27186
0.334078
0.377868
0.40545
0.422797
0.43503
0.447223
0.463237
0.479012
0.503972
0.552783
0.607203
0.666735
0.769776
0.838666
0.826269
0.785334
0.740253
0.676348
0.605102
0.553133
0.513303
0.501059
0.507831
0.530141
0.517372
0.471731
0.203577
0.0910095
0.182083
0.255392
0.313614
0.35526
0.382318
0.400367
0.413494
0.426333
0.443137
0.46109
0.493937
0.547209
0.605582
0.668027
0.781032
0.806321
0.779206
0.732321
0.678689
0.607289
0.533802
0.476738
0.43553
0.425182
0.423966
0.451394
0.46004
0.457619
0.208687
0.0887462
0.172488
0.240565
0.294568
0.333406
0.359977
0.378608
0.392642
0.406195
0.423677
0.446192
0.484592
0.545099
0.602868
0.669821
0.764635
0.767592
0.728752
0.675687
0.612247
0.537064
0.463659
0.403868
0.36117
0.351938
0.349263
0.37556
0.395083
0.432289
0.211702
0.0845952
0.161468
0.225243
0.275938
0.313626
0.340304
0.359406
0.374156
0.38835
0.406193
0.433824
0.479105
0.543919
0.599522
0.662736
0.735551
0.722631
0.674326
0.614225
0.543908
0.468661
0.397771
0.336726
0.29574
0.290349
0.287106
0.308078
0.331934
0.397198
0.213816
0.0778958
0.145006
0.203463
0.255462
0.294571
0.321633
0.341212
0.356714
0.371838
0.390845
0.422768
0.477999
0.54123
0.600679
0.648989
0.69842
0.672719
0.618076
0.551735
0.47793
0.405097
0.33797
0.28008
0.273066
0.284892
0.280009
0.264065
0.279863
0.35672
0.212979
0.072605
0.130903
0.182134
0.228313
0.266762
0.297738
0.31958
0.336556
0.352841
0.374932
0.414482
0.477122
0.538199
0.584819
0.629959
0.657168
0.621866
0.561792
0.490345
0.416757
0.349378
0.288519
0.274594
0.310208
0.326826
0.320842
0.290046
0.253134
0.317836
0.210826
0.069465
0.121796
0.167358
0.207859
0.241588
0.269518
0.292268
0.311674
0.330047
0.355752
0.406651
0.475413
0.54175
0.560919
0.607736
0.613297
0.570594
0.506224
0.433291
0.362917
0.302434
0.262675
0.306854
0.346489
0.362739
0.352748
0.327627
0.28273
0.291225
0.205562
0.0666983
0.1141
0.155257
0.192045
0.222919
0.248612
0.269737
0.288485
0.307395
0.339343
0.399944
0.479077
0.530223
0.533996
0.58252
0.5706
0.523663
0.456844
0.382812
0.318424
0.266259
0.272151
0.335182
0.383656
0.398678
0.386883
0.357846
0.32351
0.281306
0.197186
0.0643023
0.107468
0.144741
0.178202
0.206618
0.230606
0.25055
0.268433
0.289025
0.326211
0.399248
0.501492
0.50883
0.510449
0.553808
0.530945
0.481538
0.414837
0.342941
0.282114
0.245249
0.284154
0.356074
0.408753
0.42178
0.416788
0.390269
0.35968
0.28839
0.18663
0.0621815
0.10164
0.135564
0.166098
0.192336
0.214819
0.233879
0.251348
0.274777
0.319203
0.415091
0.498886
0.484811
0.490011
0.526231
0.495979
0.444434
0.379563
0.310758
0.252927
0.240635
0.291162
0.374909
0.419516
0.433238
0.433661
0.417805
0.393163
0.319347
0.175509
0.0603515
0.096552
0.127503
0.15543
0.17969
0.200807
0.219123
0.237873
0.263909
0.323089
0.460508
0.480065
0.461965
0.470676
0.503856
0.467575
0.414591
0.352052
0.28593
0.234384
0.240279
0.295049
0.378305
0.413903
0.438774
0.445361
0.435704
0.424099
0.359113
0.167544
0.0587354
0.0921325
0.120374
0.145959
0.168382
0.188172
0.205625
0.226292
0.259668
0.348142
0.472582
0.458821
0.442809
0.452022
0.483664
0.446175
0.393578
0.334207
0.273228
0.226868
0.238415
0.295874
0.3725
0.409596
0.45233
0.467049
0.452013
0.451736
0.397789
0.165037
0.0572822
0.0882119
0.113989
0.137421
0.158148
0.176634
0.194805
0.217447
0.268039
0.415923
0.456565
0.439884
0.425638
0.435451
0.468561
0.432173
0.381563
0.328155
0.273343
0.2268
0.239487
0.298636
0.367409
0.409364
0.469094
0.48789
0.467186
0.476266
0.433663
0.165854
0.0557447
0.0843838
0.107999
0.129531
0.148703
0.165731
0.185448
0.215615
0.304647
0.437862
0.436431
0.423214
0.411115
0.422847
0.45912
0.425115
0.376073
0.327397
0.279567
0.239056
0.24872
0.306593
0.368179
0.416747
0.471857
0.498846
0.477566
0.498341
0.467309
0.168941
0.0540389
0.0804937
0.102204
0.122038
0.139534
0.156905
0.178856
0.229749
0.383804
0.42452
0.419577
0.408614
0.399844
0.415119
0.458267
0.425563
0.377712
0.33239
0.292854
0.26562
0.268564
0.316894
0.382085
0.431364
0.472389
0.500544
0.483924
0.517198
0.498323
0.173976
0.052194
0.0765691
0.0964585
0.114566
0.130676
0.149674
0.180997
0.285374
0.397165
0.406403
0.403371
0.396815
0.394112
0.413045
0.454644
0.432769
0.383624
0.343934
0.31064
0.299721
0.296542
0.343112
0.406442
0.450392
0.477318
0.496793
0.487178
0.531677
0.524804
0.179393
0.0505548
0.0730729
0.0908648
0.106885
0.124321
0.146741
0.202526
0.348918
0.383931
0.389632
0.389603
0.389588
0.398265
0.420318
0.449871
0.439961
0.403169
0.369724
0.339601
0.328251
0.326166
0.379006
0.435952
0.473475
0.487094
0.485763
0.483069
0.540663
0.549988
0.186554
0.0490211
0.0697939
0.085367
0.101836
0.120177
0.154279
0.267975
0.350285
0.367106
0.374362
0.379282
0.388679
0.408911
0.415801
0.436822
0.444585
0.421007
0.400718
0.379612
0.357817
0.362096
0.421203
0.468153
0.499072
0.490511
0.47234
0.474352
0.538726
0.560915
0.196234
0.0469904
0.0660953
0.0818639
0.098279
0.12076
0.181203
0.302351
0.336497
0.351307
0.360936
0.373317
0.392096
0.402496
0.407119
0.421761
0.438973
0.433854
0.426449
0.408196
0.391452
0.407638
0.464862
0.506349
0.517327
0.485854
0.45916
0.464518
0.530625
0.57154
0.205404
0.0456374
0.0638881
0.0794053
0.09629
0.129721
0.23961
0.299443
0.321763
0.338513
0.351764
0.370884
0.383843
0.391384
0.39727
0.410488
0.424912
0.442018
0.441387
0.426797
0.418011
0.451118
0.51149
0.54022
0.522786
0.478598
0.448901
0.452141
0.508158
0.54959
0.201453
0.0448741
0.062438
0.0774885
0.0982469
0.158722
0.256105
0.288729
0.308886
0.32862
0.346531
0.362691
0.372645
0.379797
0.38865
0.401059
0.415616
0.437226
0.445401
0.43789
0.448483
0.504864
0.557599
0.556693
0.510891
0.471605
0.444191
0.445014
0.477329
0.528559
0.202958
0.0443767
0.0613839
0.0773044
0.108617
0.204909
0.254109
0.278104
0.300311
0.319406
0.338483
0.351505
0.361025
0.369337
0.381376
0.391914
0.409044
0.429594
0.436139
0.445252
0.489052
0.563309
0.586242
0.550285
0.502025
0.464679
0.444975
0.445667
0.446391
0.428849
0.178504
0.517451
0.502861
0.485764
0.469869
0.451886
0.433843
0.413547
0.394697
0.374575
0.35586
0.33722
0.32044
0.303477
0.288011
0.272573
0.259362
0.246166
0.234824
0.224451
0.213895
0.205032
0.196159
0.18823
0.181085
0.174311
0.168432
0.163075
0.158351
0.154084
0.150343
0.147271
0.144718
0.143924
0.145064
0.147603
0.151583
0.15712
0.164262
0.172763
0.182705
0.193339
0.203909
0.215192
0.227043
0.239333
0.252559
0.267332
0.286111
0.313229
0.344397
0.367988
0.377753
0.378814
0.378195
0.37952
0.377821
0.364027
0.346692
0.328
0.314286
0.303762
0.295542
0.289691
0.286733
0.284319
0.282233
0.280363
0.278321
0.276281
0.274326
0.272523
0.270782
0.269058
0.267003
0.264684
0.262299
0.2597
0.25723
0.255205
0.253443
0.251555
0.249278
0.246278
0.242369
0.237899
0.233441
0.229299
0.225434
0.22174
0.218112
0.214406
0.210401
0.205921
0.200947
0.195598
0.190106
0.1847
0.179576
0.174728
0.170096
0.165707
0.161494
0.157669
0.154999
0.153535
0.153059
0.153636
0.155136
0.156948
0.158969
0.161422
0.164763
0.167601
0.168595
0.163772
0.145869
0.122432
0.102158
0.0807143
0.061812
0.0507731
0.0462034
0.044416
0.0439164
0.0440013
0.835269
0.816861
0.789468
0.767094
0.738774
0.711295
0.678477
0.649042
0.617064
0.586335
0.555466
0.52679
0.499089
0.475809
0.452662
0.434033
0.414427
0.399275
0.384102
0.370302
0.360022
0.350255
0.343642
0.338245
0.334835
0.333015
0.332714
0.33417
0.337786
0.342761
0.349604
0.361631
0.377018
0.393623
0.412063
0.432131
0.45577
0.479311
0.503713
0.528636
0.552967
0.576608
0.598829
0.621184
0.644034
0.666927
0.69173
0.723876
0.759925
0.784983
0.801852
0.822725
0.844499
0.871552
0.909547
0.936255
0.937871
0.924034
0.889854
0.85529
0.816927
0.781959
0.746361
0.708858
0.673588
0.64535
0.622515
0.602921
0.585866
0.571705
0.560196
0.551105
0.544176
0.538869
0.533763
0.528903
0.524434
0.520122
0.515255
0.50889
0.500658
0.491231
0.481587
0.471769
0.461458
0.450211
0.437815
0.42441
0.410363
0.396089
0.381941
0.368092
0.354701
0.342115
0.330754
0.320646
0.311809
0.304674
0.29986
0.297183
0.295705
0.295061
0.295254
0.296093
0.297615
0.299656
0.300648
0.297904
0.293643
0.283566
0.266335
0.24438
0.222373
0.201711
0.183931
0.170456
0.159872
0.150857
0.143423
0.133449
0.113636
0.0825723
0.0679986
0.0624663
0.0610048
0.937351
0.920921
0.891935
0.87038
0.84138
0.81507
0.782148
0.75315
0.719736
0.689512
0.659868
0.6322
0.604044
0.57971
0.555157
0.535255
0.515859
0.500038
0.486065
0.473162
0.463786
0.455218
0.448839
0.444855
0.443276
0.444875
0.447342
0.451475
0.457025
0.468545
0.482157
0.494698
0.511308
0.524548
0.536439
0.54794
0.559497
0.570664
0.581219
0.590888
0.600062
0.609542
0.619311
0.629939
0.642369
0.656182
0.676727
0.702545
0.718563
0.717399
0.717616
0.72142
0.728213
0.751996
0.800538
0.85932
0.901934
0.942662
0.990341
1.018
1.02221
1.00253
0.966455
0.92549
0.889718
0.854798
0.822736
0.790189
0.762157
0.737824
0.716366
0.696688
0.678622
0.662988
0.648959
0.636596
0.625852
0.614631
0.601756
0.58794
0.574197
0.561107
0.54948
0.539389
0.529384
0.518226
0.505513
0.491315
0.476066
0.460494
0.44547
0.431878
0.420226
0.41053
0.402863
0.397316
0.393384
0.389955
0.38618
0.382313
0.379681
0.377965
0.375179
0.369894
0.361115
0.347013
0.32768
0.303826
0.277856
0.253906
0.233537
0.21639
0.202786
0.191995
0.182318
0.173897
0.168132
0.163841
0.16313
0.16263
0.160159
0.151596
0.129098
0.0948341
0.0814923
0.945281
0.92964
0.898001
0.876142
0.845279
0.819761
0.786683
0.760638
0.732979
0.706719
0.679112
0.651713
0.626681
0.605933
0.584306
0.568371
0.554019
0.541323
0.533325
0.521809
0.515258
0.509707
0.504561
0.500538
0.494724
0.48881
0.485183
0.487518
0.493577
0.493475
0.494725
0.497095
0.498194
0.501554
0.50317
0.506439
0.510653
0.515233
0.520481
0.525886
0.532608
0.540027
0.548971
0.558453
0.568158
0.579006
0.595334
0.615907
0.634264
0.636278
0.631969
0.628151
0.626725
0.629779
0.642078
0.662976
0.682109
0.713571
0.780532
0.858734