/*--------------------------------*- C++ -*----------------------------------*\
| =========                 |                                                 |
| \\      /  F ield         | OpenFOAM: The Open Source CFD Toolbox           |
|  \\    /   O peration     | Version:  2112                                  |
|   \\  /    A nd           | Website:  www.openfoam.com                      |
|    \\/     M anipulation  |                                                 |
\*---------------------------------------------------------------------------*/
FoamFile
{
    version     2.0;
    format      ascii;
    arch        "LSB;label=32;scalar=64";
    class       volScalarField;
    location    "0.00721";
    object      p;
}
// * * * * * * * * * * * * * * * * * * * * * * * * * * * * * * * * * * * * * //

dimensions      [1 -1 -2 0 0 0 0];

internalField   nonuniform List<scalar> 
13875
(
951593
984275
973586
975823
973742
974594
975147
974826
975156
975264
975186
975015
974702
974803
974830
974689
974630
975333
975175
973971
973386
975646
972334
982667
945702
733792
659530
672107
677065
669315
669861
677304
678789
679433
679651
679522
678645
670368
669174
670401
678017
679290
679306
677537
669947
669571
676911
672247
657217
731031
736882
635525
664366
653764
649424
648239
647975
647893
646737
646458
646679
649150
645447
645345
645248
648896
646247
648241
647929
647651
648542
652158
661918
632202
733715
743527
636171
665253
653927
649734
648434
647088
645469
644212
643785
643297
644087
645477
645445
645277
644560
643526
644638
646130
647801
648824
652282
662664
632810
739278
757361
639184
667813
654644
650598
648958
647197
645541
644296
643877
643380
644113
645588
645700
645400
644592
643624
644720
646252
648237
649606
652875
664945
635453
750249
759067
647857
673590
656633
652407
650032
647566
645799
644552
644127
643627
644228
645826
646211
645663
644721
643910
644987
646653
649164
651279
654744
670518
643185
751708
765123
668402
685835
661570
656064
652014
648473
646430
645123
644643
644154
644603
646362
646789
646169
645032
644543
645698
647734
651220
654912
660340
682043
665868
755756
791397
718505
711792
674928
663811
656273
650735
647971
646399
645757
645249
645481
647436
647955
647247
645857
645838
647197
649983
655327
662280
673120
707038
715341
781651
909003
828212
766718
704542
679238
664708
655561
651252
649060
648095
647521
647510
649656
650310
649487
647876
648479
650338
654605
663394
676918
700856
760162
823100
909464
1.52495e+06
1.03004e+06
833793
739338
697431
674875
662524
656749
653974
652690
652092
651932
654138
654940
654128
652489
653500
655919
661618
673908
695705
736727
829316
1.02516e+06
1.51687e+06
2.90707e+06
1.39355e+06
957271
795901
725474
691544
675143
667260
663531
661804
661113
660820
662742
663750
663232
662079
663252
666406
673747
689630
722194
789142
940797
1.3509e+06
2.85986e+06
5.60675e+06
2.34527e+06
1.28667e+06
936053
789492
728681
701978
689347
683444
680775
679703
679274
680489
681723
681797
681997
683863
689006
700898
727046
786699
925486
1.25146e+06
2.2733e+06
5.5725e+06
5.39112e+06
4.83978e+06
2.3143e+06
1.40168e+06
980301
829150
767639
741643
729841
724443
722142
721330
721485
722874
724116
726630
731756
743220
769560
834462
989335
1.38461e+06
2.17977e+06
4.87344e+06
5.34117e+06
4.83891e+06
4.64723e+06
4.71324e+06
3.99969e+06
1.64419e+06
1.1385e+06
956832
887099
855539
840568
834027
831414
830426
831944
835486
843429
860455
896153
976215
1.19974e+06
1.8356e+06
4.02368e+06
4.68342e+06
4.71499e+06
4.76157e+06
4.02733e+06
4.1266e+06
4.50174e+06
4.26611e+06
4.0229e+06
2.49875e+06
1.66485e+06
1.38393e+06
1.27247e+06
1.22514e+06
1.20612e+06
1.19875e+06
1.19632e+06
1.19819e+06
1.20544e+06
1.22492e+06
1.27333e+06
1.39053e+06
1.69306e+06
2.65508e+06
4.1197e+06
4.24844e+06
4.51074e+06
4.28073e+06
4.26217e+06
3.53389e+06
3.46239e+06
3.93202e+06
4.07025e+06
4.30334e+06
4.36532e+06
3.69957e+06
3.08431e+06
2.86844e+06
2.70973e+06
2.60297e+06
2.56363e+06
2.54814e+06
2.55359e+06
2.5835e+06
2.66604e+06
2.87119e+06
3.07115e+06
3.74978e+06
4.40956e+06
4.24457e+06
4.08402e+06
4.05997e+06
3.57151e+06
3.74738e+06
2.55414e+06
2.69522e+06
3.06502e+06
3.51905e+06
4.24682e+06
5.23154e+06
6.88851e+06
7.70685e+06
8.06691e+06
8.16861e+06
8.23882e+06
8.25718e+06
8.2711e+06
8.2643e+06
8.26185e+06
8.20408e+06
8.09434e+06
7.79219e+06
6.92384e+06
5.22042e+06
4.20896e+06
3.57215e+06
3.15304e+06
2.81781e+06
2.70639e+06
1.44582e+06
1.73491e+06
2.33501e+06
3.05248e+06
4.25324e+06
5.67843e+06
6.85185e+06
7.48349e+06
7.69494e+06
7.66024e+06
7.57113e+06
7.49973e+06
7.48124e+06
7.49827e+06
7.57002e+06
7.69061e+06
7.76519e+06
7.5612e+06
6.89907e+06
5.66009e+06
4.21198e+06
2.98761e+06
2.21927e+06
1.63657e+06
1.35421e+06
694609
1.02308e+06
1.69568e+06
2.65709e+06
4.20659e+06
5.18257e+06
5.81679e+06
6.29824e+06
6.426e+06
6.399e+06
6.36796e+06
6.3879e+06
6.40874e+06
6.40965e+06
6.39377e+06
6.44416e+06
6.52188e+06
6.44541e+06
6.0513e+06
5.40966e+06
4.23735e+06
2.73342e+06
1.72198e+06
1.03955e+06
704083
373652
611694
1.142e+06
2.27422e+06
3.72224e+06
4.3257e+06
4.63944e+06
4.98421e+06
5.19971e+06
5.36157e+06
5.50837e+06
5.61812e+06
5.65308e+06
5.62919e+06
5.52111e+06
5.36301e+06
5.19094e+06
4.98022e+06
4.69314e+06
4.40921e+06
3.75406e+06
2.30051e+06
1.16025e+06
611524
370080
905299
933915
1.16153e+06
1.92394e+06
2.9165e+06
3.34558e+06
3.69026e+06
4.0904e+06
4.4084e+06
4.63777e+06
4.81191e+06
4.91553e+06
4.93755e+06
4.91416e+06
4.80304e+06
4.60781e+06
4.3465e+06
4.01243e+06
3.6461e+06
3.37621e+06
2.89676e+06
1.87878e+06
1.15239e+06
944917
925337
975780
934932
1.14514e+06
1.60422e+06
2.1706e+06
2.58069e+06
3.01769e+06
3.45759e+06
3.7873e+06
4.02112e+06
4.18444e+06
4.27058e+06
4.2842e+06
4.26184e+06
4.16567e+06
3.98044e+06
3.71749e+06
3.36642e+06
2.91801e+06
2.5603e+06
2.14222e+06
1.55303e+06
1.12779e+06
928673
967237
1.08798e+06
970412
1.10912e+06
1.32531e+06
1.67932e+06
2.04968e+06
2.53513e+06
2.95292e+06
3.25709e+06
3.47286e+06
3.6158e+06
3.68687e+06
3.70047e+06
3.67514e+06
3.59136e+06
3.42662e+06
3.18947e+06
2.88722e+06
2.42491e+06
2.01814e+06
1.65559e+06
1.3056e+06
1.09472e+06
977054
1.10718e+06
1.32375e+06
1.09868e+06
1.10918e+06
1.16894e+06
1.43221e+06
1.76083e+06
2.14157e+06
2.52704e+06
2.79922e+06
2.99706e+06
3.11587e+06
3.18175e+06
3.19412e+06
3.16875e+06
3.09253e+06
2.95007e+06
2.7352e+06
2.46906e+06
2.06339e+06
1.71282e+06
1.3904e+06
1.14035e+06
1.09746e+06
1.1125e+06
1.32438e+06
1.38314e+06
1.23634e+06
1.11625e+06
1.10424e+06
1.28377e+06
1.54016e+06
1.8411e+06
2.1579e+06
2.39614e+06
2.57402e+06
2.68743e+06
2.74417e+06
2.75719e+06
2.73302e+06
2.66813e+06
2.54186e+06
2.34998e+06
2.115e+06
1.79127e+06
1.49633e+06
1.24494e+06
1.09036e+06
1.10608e+06
1.2558e+06
1.36928e+06
1.45147e+06
1.37094e+06
1.13392e+06
1.10557e+06
1.19487e+06
1.38882e+06
1.60597e+06
1.86869e+06
2.0692e+06
2.22375e+06
2.32496e+06
2.37554e+06
2.38753e+06
2.36633e+06
2.30761e+06
2.19472e+06
2.02898e+06
1.82998e+06
1.57388e+06
1.35699e+06
1.16127e+06
1.09112e+06
1.11933e+06
1.35102e+06
1.41697e+06
1.494e+06
1.4212e+06
1.15497e+06
1.10699e+06
1.13732e+06
1.25823e+06
1.42477e+06
1.62772e+06
1.79412e+06
1.92448e+06
2.01367e+06
2.05759e+06
2.07148e+06
2.05036e+06
1.99868e+06
1.902e+06
1.76112e+06
1.59563e+06
1.39613e+06
1.23291e+06
1.11392e+06
1.09144e+06
1.14404e+06
1.39927e+06
1.45945e+06
1.58214e+06
1.51071e+06
1.19286e+06
1.10645e+06
1.09163e+06
1.16198e+06
1.27528e+06
1.4345e+06
1.56703e+06
1.676e+06
1.75071e+06
1.79259e+06
1.80528e+06
1.78875e+06
1.74378e+06
1.66402e+06
1.54711e+06
1.41156e+06
1.2561e+06
1.14514e+06
1.07733e+06
1.09155e+06
1.17814e+06
1.49322e+06
1.54691e+06
1.69096e+06
1.62896e+06
1.2427e+06
1.10094e+06
1.06473e+06
1.08156e+06
1.15372e+06
1.27276e+06
1.37956e+06
1.46856e+06
1.53136e+06
1.56539e+06
1.57849e+06
1.56252e+06
1.52357e+06
1.45763e+06
1.36183e+06
1.25525e+06
1.1409e+06
1.07213e+06
1.05262e+06
1.08501e+06
1.21371e+06
1.55502e+06
1.60189e+06
1.75326e+06
1.74014e+06
1.29939e+06
1.09885e+06
1.03241e+06
1.02907e+06
1.05916e+06
1.14516e+06
1.22558e+06
1.29753e+06
1.34842e+06
1.37812e+06
1.38757e+06
1.37529e+06
1.34136e+06
1.28867e+06
1.21229e+06
1.12866e+06
1.04433e+06
1.01688e+06
1.02006e+06
1.079e+06
1.26998e+06
1.66669e+06
1.68761e+06
1.75364e+06
1.74906e+06
1.34187e+06
1.09902e+06
1.00114e+06
980298
981693
1.03239e+06
1.0925e+06
1.14974e+06
1.19196e+06
1.21565e+06
1.22491e+06
1.21415e+06
1.18756e+06
1.14526e+06
1.08535e+06
1.02502e+06
972880
973305
991641
1.07505e+06
1.30033e+06
1.68664e+06
1.71741e+06
1.75608e+06
1.74807e+06
1.41979e+06
1.10079e+06
969762
927980
919629
949181
990151
1.03316e+06
1.06368e+06
1.0832e+06
1.08876e+06
1.08145e+06
1.05934e+06
1.02691e+06
981822
940430
911760
919000
956807
1.07537e+06
1.35132e+06
1.68483e+06
1.72031e+06
1.76096e+06
1.73425e+06
1.48552e+06
1.1042e+06
944673
882918
868864
873196
898574
930479
953712
967407
972654
965772
949653
925966
893321
868058
862346
874632
930026
1.07806e+06
1.41327e+06
1.68255e+06
1.72735e+06
1.76034e+06
1.71103e+06
1.54595e+06
1.11612e+06
922546
841982
815741
812588
823752
845187
861431
872635
875618
871792
859533
842970
820817
807455
810844
833170
906189
1.08571e+06
1.51151e+06
1.67882e+06
1.74578e+06
1.75855e+06
1.66733e+06
1.55337e+06
1.14232e+06
914693
812321
771261
758659
757860
770109
781354
788923
791927
788387
779620
768052
755726
756249
766613
801771
895124
1.10418e+06
1.56273e+06
1.67308e+06
1.7421e+06
1.75108e+06
1.63319e+06
1.54836e+06
1.16911e+06
915802
782020
727628
710738
705659
709519
715135
720585
722091
720280
713049
707631
702729
705908
721300
772196
896323
1.14189e+06
1.56332e+06
1.65943e+06
1.73063e+06
1.73484e+06
1.60406e+06
1.54209e+06
1.22589e+06
924068
763849
694578
665286
655129
653171
656021
659410
660525
659014
655061
652352
654763
665042
691057
753469
900252
1.19165e+06
1.54805e+06
1.62355e+06
1.71181e+06
1.70152e+06
1.57489e+06
1.52952e+06
1.33935e+06
946351
752458
664145
628257
613910
609317
607754
609742
609321
608900
606542
607735
611551
623289
656878
737472
913285
1.29205e+06
1.51989e+06
1.5712e+06
1.68712e+06
1.65934e+06
1.55589e+06
1.49546e+06
1.35783e+06
972766
753469
643948
595276
574148
565750
564583
564410
563816
563614
562713
564247
573537
593692
637654
738305
943233
1.33989e+06
1.46546e+06
1.53084e+06
1.6644e+06
1.60304e+06
1.53194e+06
1.42811e+06
1.35492e+06
1.02986e+06
761559
627642
567846
542797
532670
527999
527613
525498
526778
526628
530641
539918
562487
618059
741862
981806
1.33754e+06
1.39531e+06
1.50945e+06
1.63392e+06
1.55468e+06
1.50093e+06
1.36653e+06
1.3461e+06
1.14485e+06
781993
627893
549543
514692
499042
494478
492252
491279
491979
493012
497106
512551
544891
618158
753089
1.05125e+06
1.33091e+06
1.34441e+06
1.49665e+06
1.57325e+06
1.5214e+06
1.46956e+06
1.30965e+06
1.31958e+06
1.18819e+06
808854
630766
537926
493804
475656
466857
464294
461843
464353
465344
472414
488441
528806
622430
780726
1.19508e+06
1.31624e+06
1.30156e+06
1.47177e+06
1.49583e+06
1.48331e+06
1.44163e+06
1.27261e+06
1.26606e+06
1.18567e+06
866388
641344
538446
477941
450175
441169
436930
435452
436867
439802
448178
474343
527881
629251
818441
1.19295e+06
1.28256e+06
1.26535e+06
1.42361e+06
1.44907e+06
1.43902e+06
1.40131e+06
1.24455e+06
1.20729e+06
1.17428e+06
983213
663661
542113
471458
437043
420915
415967
412542
415419
419170
432061
463842
529354
646863
893271
1.18176e+06
1.21951e+06
1.23837e+06
1.38061e+06
1.40607e+06
1.40667e+06
1.36159e+06
1.22471e+06
1.15217e+06
1.14275e+06
1.01916e+06
696806
548475
471838
423342
403317
394897
392150
394339
400744
418404
464186
537324
686701
1.04725e+06
1.15684e+06
1.15819e+06
1.21556e+06
1.34127e+06
1.36959e+06
1.36584e+06
1.32419e+06
1.20651e+06
1.11206e+06
1.08021e+06
1.01434e+06
766608
566212
475332
422680
392932
380712
375261
379571
389664
414378
465801
552702
757464
1.04303e+06
1.10294e+06
1.11133e+06
1.19671e+06
1.31342e+06
1.34461e+06
1.31796e+06
1.27704e+06
1.18868e+06
1.07659e+06
1.02046e+06
1.00069e+06
906635
602762
485146
423651
389099
369425
362741
367889
384852
414801
471395
584045
901566
1.02701e+06
1.04241e+06
1.07159e+06
1.18809e+06
1.28026e+06
1.30985e+06
1.2696e+06
1.23725e+06
1.16492e+06
1.05436e+06
977183
968207
904401
668916
503871
425951
389391
367263
353958
365110
385194
418063
486799
652028
902512
991716
997325
1.05153e+06
1.17179e+06
1.23681e+06
1.2606e+06
1.17254e+06
1.17757e+06
1.13438e+06
1.03372e+06
943268
922780
896026
805052
544395
434639
391513
367612
354217
365379
386536
426548
515418
786111
895420
938273
959961
1.03337e+06
1.13858e+06
1.17481e+06
1.16936e+06
1.03697e+06
1.09834e+06
1.07507e+06
1.01077e+06
919399
878469
874012
804607
628350
455419
398378
369485
355891
366918
391866
446832
573637
798295
874161
884818
928946
1.0118e+06
1.07974e+06
1.09596e+06
1.03723e+06
85140.3
84726.1
83263.9
81826.5
81054.1
80682.4
79845.4
78818.4
78132.4
78397.5
80198.7
83967.1
85363.6
85576.8
86264.4
87366.5
88044.4
89173.3
90332.4
91667.6
93310.6
96098.2
102064
116338
159111
195470
203111
210302
216162
221579
83540.2
84403.7
83689.4
82456.8
81121.9
80729.1
79594.4
77778.8
77070.9
77696.9
79959.9
83047.1
84209.7
84984.2
86149.5
86949.2
87802.8
89054.3
90273.5
91657.6
93795.9
98280.8
108603
135681
181844
194762
203221
211216
216904
222399
83289
84380.2
83810.4
82600.8
80771.3
79852.2
78700
77215.7
76476.9
77394.5
79933.4
82275.9
83774.1
84569.1
86047.6
86793.9
87738.2
89034.8
90275
91935.2
95362.8
102719
120666
172359
190797
196337
204469
213032
219018
223677
83833.1
84642.3
84007.8
82718.1
80684.2
79466.7
78023
76738.2
76203.6
77220.5
79765.6
81726.2
83544.9
84332
86001
86738.3
87716.9
89097.4
90581.8
92980.8
98119.8
110104
148190
186474
194769
198937
207976
215032
221087
224353
84093
84770.5
84199.2
82830.2
80682.3
79347.8
77777.8
76606.5
76162.2
77359.7
79710.7
81552.4
83604.7
84249.8
85997.8
86726
87728
89309.9
91179.8
95040.5
103414
125078
177950
192521
196716
201859
210051
218379
224127
225570
84067.6
84939
84293.8
83227.7
81004.6
79344.2
77777.6
76612.8
76543.7
77642.2
79715.1
81497.2
83605.8
84219.7
86013.5
86860.5
88050.7
89864.8
92589.6
98568.3
113360
161738
188362
195508
198389
204472
212181
221583
227806
229112
84296.4
85542.9
84546.9
84012.1
81392.9
79794.9
78623
77276.6
77114.5
78141.4
80018.8
81594.5
83796.3
84519.9
86395
87192.2
88586
90894.6
95380.8
105643
139715
180473
192446
197283
200750
207336
214808
225556
230602
231129
84583.7
86192.2
85263.1
84429.9
81616.4
80627.3
79268.2
78041.3
77863
78883
80663.2
81958.8
83844.8
84900.1
86994.9
87889.8
89577.2
92964.9
100737
122418
169546
187112
194693
199278
203476
209559
216053
227607
231916
231935
85176.5
86787.6
86012.6
84667.1
82303.6
81570.4
79794.4
78903.7
78852.9
80107.5
81412.5
83230.9
84063.7
85820
87983.3
89110.4
91697.8
97912.1
114166
159373
179183
189497
196144
200536
204747
210609
217910
228549
232354
232119
85974.7
87570.9
86590.2
85244.3
83407.9
82925.5
81087.9
80549.2
80725.2
81448.1
82649.4
84301.4
85212.7
87188.7
89418.7
91821.9
97182.6
111699
150799
172120
182339
190373
196399
201143
205289
211009
218623
228823
232422
232128
86905.6
88365.4
87277.1
86023
84639.7
83854.8
82213.8
81772.9
82368.8
83353.5
84623.4
86108
88033
90482.5
93912.7
99074.3
113843
146887
164873
175413
183274
190625
196620
201383
205438
211085
218822
228839
232017
231540
87908.6
89243.2
88053.2
87040.7
86082.4
85213.8
83665.3
83224.6
83955.9
85775.5
88284.4
91319.2
95117.5
98455.9
105395
121139
144007
159367
168766
175792
183387
190659
196671
201430
205430
211009
218859
228280
230475
230513
88888.4
90131.7
89104.2
88302.7
87687
86870.6
86530.3
87600.7
90265.9
93651
97460.9
102316
110443
120307
132093
142270
154570
162834
169354
175356
183042
190465
196570
201113
204491
209987
218595
226609
228372
228926
89940.5
91161.3
90446.6
90143.4
90363.3
90686.4
91486.1
94654.4
99146.9
104557
114530
123627
129073
135057
142777
150717
158082
163321
168542
175746
182867
189798
195761
199534
201619
208647
217467
223837
225864
226845
91128
92304.7
92159.2
92866
94302.6
97060.3
102531
108435
114566
121059
127019
132518
137374
142050
147778
154037
159147
162801
168352
175464
182634
189248
194379
197279
199136
207094
215843
220473
222658
224120
92430.2
93745
94340
96488.3
99867.7
106930
112513
116202
121758
128162
132780
136988
141168
145409
150026
155168
159359
163000
167806
174611
181948
188309
191660
193432
197951
206072
213364
216364
218379
220536
94015.7
95438
97185.9
101571
108389
113596
117428
121148
126845
131598
135434
139172
142904
146782
150789
155383
159117
162404
166726
173978
181263
185955
188104
189111
197088
205055
210181
212427
213769
216019
95840.8
97624.7
100886
108415
114017
116778
120149
124390
129165
133079
136392
139924
143449
147093
150886
155008
157133
161137
166052
173003
179209
182546
184308
187823
196528
203582
206731
207996
209428
211251
97540.3
100257
106045
113517
116472
118155
121450
125756
130062
133497
136577
140011
143485
147040
150093
152710
155441
159906
164852
170713
175744
178756
179492
187373
196077
201006
202932
203800
205088
205722
99511.1
103412
112305
115944
117385
118577
121931
126096
130218
133459
136141
139281
142741
145799
147976
150483
153735
157553
162108
167599
171631
174877
177991
187322
194988
197655
198871
199566
200340
199746
101392
107179
114214
116680
117629
118597
121990
125880
129104
131422
134026
137782
141546
144008
145501
147674
150683
154490
158359
163696
167510
171410
177624
187186
192554
194021
194615
195024
195158
194241
103083
110833
115085
116855
117647
118162
121163
124030
126326
128918
131925
136174
139402
141003
141995
143660
146985
150910
155383
159434
163561
168505
177942
186440
189490
190166
190315
190343
189886
188813
103322
112677
115207
116300
116808
117332
119902
121896
123632
126280
129348
133762
136254
137511
138834
141458
145132
148989
153335
157642
161962
167698
177893
184356
186051
186207
186019
185611
184752
183479
104235
111316
113731
114710
115161
115869
118043
119518
121033
123261
126428
130896
133226
134490
136806
140348
144202
148056
151826
156472
161191
167681
177534
181596
182452
182266
181551
180970
180069
178539
92973.5
105498
110846
113067
113886
114246
116035
117099
118784
120472
123932
128404
130813
132309
135525
139551
143638
147436
150966
154999
160715
167809
176052
178601
179063
178209
177291
176720
175754
174218
219720
216745
211226
203353
193767
153038
114063
101122
95656.1
93091.1
91491.4
90163.1
88915.8
87784.6
86934.3
85731.6
85077.5
84891.2
83255.6
79540.1
77754.2
77503.2
78039.8
79144.9
80105.9
80533
81314.5
82818.7
84229.3
84661.6
220574
217433
211754
203265
194765
179919
131369
107251
97664.8
93470.4
91491.9
90079.2
88784.8
87568.1
86487.6
85585.7
84630.9
83620.3
82309.4
79320.9
77112.5
76524.8
77135.3
78864.8
80150.8
80609
81950.1
83187.9
83925.2
83061.4
221969
219458
212939
203597
196739
190329
168447
118348
101778
94884.5
91651.2
90070.9
88759.7
87513.8
86316.7
85540.6
84212.9
83194.5
81654
79289.6
76840.8
76046.5
76646.9
78047.2
79422.8
80316.7
82123.1
83295.8
83907.7
82809.5
222835
220823
215214
206840
199335
194794
184715
141847
108692
97487.5
92565.6
90267.8
88774.1
87498.9
86249.2
85518.8
83931.1
82957.5
81228.8
79173.2
76692.2
75852
76356.5
77529.3
79124.7
80269
82273.3
83470.4
84081.8
83203.5
224402
223505
219313
210888
202247
196911
191786
175458
122750
102386
94446.3
90774.7
88940
87516.7
86229
85562.2
83833.1
83025.5
81100.9
79144.6
76929.4
75851.5
76301.5
77359.4
79060.6
80319.2
82415.7
83702.8
84157.7
83408.6
228290
227446
223450
214029
205008
198700
195272
187949
159094
111689
97764.1
92057
89446.2
87787.8
86312.9
85664.4
83805.5
83049
81074.1
79274.8
77355.6
76439.5
76526.6
77526.1
79124.5
80913.1
83104.4
83973.4
84402.9
83363.6
230478
230642
227683
216757
207979
201187
197179
192591
179733
135589
104452
94667.8
90365.8
88262.2
86697.1
86048.3
84128.1
83168.8
81314.7
79699.4
77983.5
77193.1
77371
78567.2
79673.9
81237.7
83982.4
84368
85056.2
83544.1
231384
232162
229779
219643
211267
204382
199445
194757
186502
169061
119981
99813.6
92387.9
89159.3
87420.4
86695.9
84627.1
83164.9
82028
80504.8
78835.6
77997.5
78171.4
79268.8
80648.4
81531.8
84463.4
85208.6
85826.4
83844.9
231610
232699
230727
221499
212950
206127
201225
195900
189318
180184
158307
112846
97299.6
91309.4
88774.1
87703.1
85819.8
83754
83210.4
81515.8
80102.8
78965.4
79042.2
79860.7
81572
82272.3
84727.5
86172.4
86635.8
84455.7
231623
232790
230999
222328
213615
206949
202075
196708
190397
183095
172323
150088
111302
97028.9
91737.6
89379.4
87339.2
85317.3
84267.9
82889.2
81373.6
80020.2
79928.6
80641.6
82780
83323.8
85092.4
86839.8
87604.5
85353.3
230717
232489
231011
222572
213742
207244
202396
197279
190496
183591
176377
165291
147087
114983
99745.2
94631.8
91025.4
88137.5
86522.4
84868.8
83245.9
81286.9
80352.5
81115.6
83426.3
84507.7
85744.5
87423.8
88564.1
86406.8
229562
231050
230092
222574
212598
207276
202464
197268
190391
183234
177179
169625
159795
144757
123747
108743
100224
96255.7
92184.7
88726.3
86166.4
84172.2
83030.4
83408.1
85003.8
85968.7
86811
88199.7
89505.6
87644.5
228579
229070
228307
222014
211626
206438
202329
197192
190316
182950
177130
170349
163508
155083
143300
133912
124350
114678
105362
99180
95010.4
91420.5
88584.7
86923.5
87173.3
87837.5
88238.4
89252
90426.7
88834.2
227662
226872
225626
220430
211263
202972
200760
196785
190081
182797
175167
169997
164186
158436
151188
143898
136749
130906
125618
117997
107906
100801
95865.3
92391.4
91376.1
90870.8
90446.9
90527.7
91459.9
90047.9
226009
224108
222365
218418
210305
201995
198318
194882
189107
181889
174630
167740
163960
159448
154331
148288
142799
138333
133974
128696
122548
116756
110766
104837
98646.3
95328.5
93442.6
92255.6
92613.8
91352.6
223070
220337
218503
215587
209150
200796
193505
192052
187933
180887
173452
167058
162382
159622
155378
150241
145687
141836
137928
133794
129430
123652
117713
114051
109092
101762
97464.1
94613.8
94120
92737.7
219427
216200
214543
212059
207442
199504
191096
188634
186022
180163
172408
165768
161677
159045
155543
150861
146828
143345
139871
136217
132541
128038
122812
118899
114952
110784
103250
97832.4
95970.5
94355.7
214738
211924
209841
208051
205184
198679
189969
185344
182956
178534
171560
165008
159550
156507
154711
150910
147066
143765
140522
137086
133768
130039
125468
121314
117808
115349
110548
102127
98386.7
96250.8
208865
207454
205118
203690
201992
197647
189589
182346
179495
175400
169594
163682
158251
154374
152116
149726
146911
143775
140581
137232
134062
130699
126540
122398
119001
117384
114957
108564
101370
98138.7
202567
202179
200310
199118
198156
195824
189399
179725
175914
171889
166646
161139
156936
152720
149918
147779
145706
142987
139752
136553
133877
130748
126778
122722
119312
118175
116907
113729
105036
100382
196688
196706
195478
194503
194076
192957
188954
179024
172593
168224
162653
158250
154300
150376
147450
145546
144120
141895
138417
134495
131595
129132
126176
122715
119285
118341
117532
115490
109253
102657
190793
191212
190656
190007
189891
189410
186956
178695
169229
164558
159980
156039
151574
146978
143538
141943
141109
139641
136819
132442
129218
126435
124055
121628
118783
118313
117692
116238
112871
104620
184778
185690
185713
185559
185691
185468
183859
178053
167848
162787
158633
154594
149711
145248
141290
138691
137607
136473
134203
129815
126558
123741
121835
120167
117735
117183
116870
116182
114547
105538
179077
180437
180982
181254
181678
181588
180613
176878
167803
161917
157770
153228
148706
144381
140159
136539
134515
133367
131200
126866
123478
121088
119466
118194
116196
115522
115150
114489
112619
106761
174154
175741
176616
177178
177885
178000
177534
175077
167927
161467
157018
151977
147829
143812
139345
135125
132193
130834
128617
124365
120694
118789
117017
116020
114474
114132
113472
111559
106605
95111.4
455358
436554
419998
406319
393267
381694
370261
359333
348814
338989
329490
320275
311617
303620
297020
292071
288540
287912
288528
290379
294111
299857
307109
315600
324980
334436
343645
352324
360754
368479
375374
381537
387124
392028
396158
399465
401914
403453
404038
403588
403313
402413
401366
399708
396565
393136
389560
385824
381716
377337
372604
367511
361969
355962
349677
343232
336710
330235
323956
317946
312334
306994
301811
296795
291815
286756
281579
276353
270969
265356
259594
253741
247755
241524
235164
228982
223173
217786
212782
208042
203414
198730
193871
188765
183406
177876
172325
166959
161903
157283
153132
149377
145937
142783
139931
137408
135290
133558
132253
131246
130486
129929
129426
129295
129308
129345
129420
129535
129877
130742
132349
135450
138588
138950
139773
141720
145830
153964
155680
155974
156567
157932
161052
165947
169920
458067
439556
425230
410548
397534
385215
373612
362458
351854
342055
332849
324001
315751
308257
302269
297986
295217
294387
295017
297416
301015
305765
310945
317068
324484
332631
340984
349222
357101
364471
371392
377742
383410
388291
392310
395418
397588
398763
398448
398209
397523
396786
395229
393053
389336
385247
380976
376641
372031
367002
361525
355742
349746
343564
337251
330893
324635
318548
312651
307046
301705
296561
291480
286491
281739
276979
272212
267613
263269
258839
253801
248200
242347
236667
231266
226071
221094
216371
211813
207306
202665
197778
192660
187386
182046
176750
171565
166567
161844
157397
153187
149315
145856
142743
139963
137529
135477
133780
132451
131429
130598
130028
129590
129555
129566
129603
129666
129822
130162
130903
132799
136019
138649
139361
140509
142857
146849
154488
156858
157165
157840
159368
162503
167227
171455
456096
440197
426744
413314
400802
388799
377333
366338
355996
346386
337662
329513
322186
315698
310531
307397
305373
304562
305421
307051
309674
313521
318109
323336
329336
335878
342601
349332
355977
362359
368112
373350
378199
382522
386191
389182
391393
392653
392795
392498
391385
389934
387591
385193
382189
379064
375555
371766
367565
362915
357843
352403
346656
340629
334251
327524
320900
314352
307922
301743
295808
290085
284511
279172
274094
269419
265337
261599
257519
252772
247283
241557
236568
232329
228154
223593
218761
213870
209073
204385
199794
195249
190665
185991
181216
176393
171628
166953
162379
158079
154164
150563
147185
144039
141210
138730
136636
134889
133507
132468
131616
130972
130541
130529
130537
130566
130599
130684
130951
131649
133309
135866
137899
139527
142070
144244
147010
152512
158366
159299
160136
161626
164331
168403
172561
456442
440147
426482
413431
401441
390181
379798
370001
360862
352555
344955
338095
332140
327162
323266
320791
319396
319113
319858
321033
322791
325045
328063
331815
336314
341274
346450
351679
356838
361844
366681
371168
374985
378193
380929
383254
385042
386209
386720
386423
385871
384678
382278
379073
375443
371673
367688
363522
359153
354555
349751
344768
339600
334241
328755
323229
317465
311607
305757
300076
294622
289349
284179
279092
274065
269005
263965
258002
251863
245882
240778
236981
233578
229522
224481
219122
214157
209509
205284
201491
197821
194015
189952
185625
181129
176529
171893
167361
163056
158986
155109
151469
148161
145193
142521
140166
138165
136474
135099
134025
133112
132527
132079
131897
131900
131946
131965
132011
132182
132681
133919
135904
137962
139843
142773
145016
147197
151414
158276
160546
161556
162790
165129
168949
173243
455163
438370
424848
412378
400703
389911
380401
371837
364127
357501
351925
347163
343088
339664
336939
335123
334055
333756
334269
335099
336826
338807
341160
343799
346784
350100
353662
357330
360976
364537
367900
371041
373973
376620
378826
380294
381095
381550
381595
381219
380287
378771
376669
374106
370832
366984
362701
358161
353453
348540
343429
338139
332695
327130
321466
315708
309924
304279
298844
293605
288537
283616
278798
274021
269211
264380
259261
254481
249578
244548
239524
234474
229288
223474
218390
214317
210584
207006
203412
199412
194997
190487
186159
182080
178211
174407
170501
166729
163350
160096
156914
153666
150543
147647
145044
142748
140775
139050
137640
136508
135582
134952
134433
134227
134058
133943
133927
133850
133895
134138
134827
136298
138423
140250
142961
145502
147732
151113
157276
160360
161666
163579
166304
169979
174031
455552
437419
422980
410189
398903
389177
380719
373570
367536
362138
357657
354289
351856
349859
348687
348075
347921
348169
348698
349512
350749
352700
354681
356775
358998
361322
363697
366062
368356
370539
372579
374438
376026
377373
378623
379309
379483
379303
378579
377538
376072
374170
371789
368918
365583
361854
357837
353479
348780
343842
338721
333464
328121
322662
317070
311702
306375
301114
295925
290802
285704
280612
275484
270299
265043
259700
254264
248725
243276
238070
233011
228108
223112
218691
214258
209729
205054
200505
195939
191634
187756
184241
180947
177794
174767
171902
169044
166064
163243
160452
157661
155043
152557
150197
147963
145868
143934
142190
140688
139413
138433
137703
137174
136788
136486
136224
135960
135681
135690
135807
136233
137243
139357
140865
143155
145726
148061
150870
154918
159177
161280
163593
166949
170872
174684
457124
437443
422710
410069
398915
389299
381202
374736
369793
366192
363551
361559
360180
359593
359595
359922
360449
361134
361991
363002
364172
365715
367478
369194
370866
372466
373990
375424
376689
377796
378816
379632
379994
380114
380133
379934
379329
378442
377134
375306
373166
370654
367716
364364
360625
356539
352151
347507
342647
337612
332440
327170
321852
316531
311232
305980
300788
295663
290608
285648
280151
275166
270063
264921
259770
254608
249471
244430
239439
234388
229316
224217
219169
214258
209518
205120
200948
196841
192928
188995
185001
181243
177729
174433
171318
168388
165635
163049
160709
158328
156086
154221
152580
151035
149531
148102
146734
145421
144150
142942
141824
140875
140120
139559
139129
138764
138400
138193
138050
138080
138282
138868
140111
141804
143565
146092
148462
150663
153231
156258
160079
163364
167292
171318
174654
460290
436882
421282
409231
398828
389942
382658
376953
372611
369181
367898
367646
367693
368079
368984
370178
371474
372774
374089
375413
376745
378059
379464
380868
382036
383001
383885
384548
384829
384916
384929
384842
384419
383743
382853
381758