/*--------------------------------*- C++ -*----------------------------------*\
| =========                 |                                                 |
| \\      /  F ield         | OpenFOAM: The Open Source CFD Toolbox           |
|  \\    /   O peration     | Version:  2112                                  |
|   \\  /    A nd           | Website:  www.openfoam.com                      |
|    \\/     M anipulation  |                                                 |
\*---------------------------------------------------------------------------*/
FoamFile
{
    version     2.0;
    format      ascii;
    arch        "LSB;label=32;scalar=64";
    class       surfaceScalarField;
    location    "0.00726";
    object      phi;
}
// * * * * * * * * * * * * * * * * * * * * * * * * * * * * * * * * * * * * * //

dimensions      [1 0 -1 0 0 0 0];

oriented        oriented;

internalField   nonuniform List<scalar> 
27436
(
-0.533522
8.19284
-0.0933605
7.47169
-0.0851072
7.78739
-0.0709896
7.78686
-0.0649348
7.78846
-0.0484465
7.78131
-0.039946
7.78911
-0.0346763
7.79121
-0.0239439
7.78785
-0.0153059
7.789
-0.0091104
7.79044
0.000370955
7.7879
0.014161
7.78321
0.0310901
7.78081
0.0462639
7.78228
0.0548992
7.78826
0.0580346
7.7926
0.0658367
7.78972
0.07533
7.7883
0.0895535
7.78251
0.0962165
7.7879
0.111758
7.7856
0.12387
7.78256
0.574015
7.46081
8.2185
-0.247224
8.44009
-0.0962106
7.32061
-0.081244
7.77221
-0.0540843
7.76004
-0.0583605
7.79236
-0.0606206
7.78271
-0.0381956
7.76657
-0.0282106
7.78152
-0.020957
7.78057
-0.0110174
7.7793
0.00129804
7.77875
0.0158053
7.7738
0.0152283
7.78361
0.0216281
7.77433
0.0210651
7.78284
0.0376999
7.77164
0.0466068
7.7837
0.0589725
7.77736
0.0823447
7.76493
0.0776735
7.78719
0.0722153
7.79337
0.102987
7.7548
0.114285
7.77099
0.26826
7.30876
8.48842
-0.227257
8.66736
-0.141097
7.23446
-0.120343
7.7514
-0.106345
7.74599
-0.105035
7.7908
-0.106635
7.78382
-0.0942888
7.75329
-0.0741977
7.76061
-0.058776
7.76204
-0.0496613
7.76572
-0.0395894
7.76906
-0.0148084
7.74944
-0.0125931
7.78147
-0.0113348
7.77305
-0.00820985
7.77973
0.0127108
7.75071
0.0240725
7.77233
0.0473078
7.75411
0.0609232
7.75131
0.0594231
7.78869
0.0638809
7.78894
0.0786916
7.73991
0.100897
7.74899
0.192275
7.21761
8.67419
-0.169564
8.83689
-0.139485
7.20443
-0.134069
7.74611
-0.112782
7.72511
-0.114408
7.79234
-0.111385
7.78036
-0.0904765
7.73172
-0.0718865
7.74113
-0.0572223
7.74588
-0.0440504
7.75122
-0.0289381
7.75294
-0.00750042
7.72779
0.00296437
7.7711
0.00492722
7.7711
0.0149917
7.76969
0.0353294
7.73039
0.0494544
7.75822
0.0697024
7.73386
0.0885529
7.73244
0.094252
7.78299
0.0944651
7.78876
0.118975
7.7154
0.111662
7.75664
0.162374
7.16548
8.83241
-0.0736248
8.91045
-0.0365732
7.16736
-0.0926416
7.80212
-0.0631315
7.69572
-0.0714563
7.8008
-0.0700916
7.77891
-0.0524227
7.71367
-0.0360552
7.72352
-0.0242229
7.73309
-0.0145081
7.74036
-0.00166347
7.7388
0.0161216
7.7098
0.0268573
7.7606
0.027755
7.77025
0.0370881
7.7604
0.0544104
7.71309
0.0644837
7.74815
0.0820615
7.71628
0.0969806
7.71751
0.101117
7.77884
0.0968909
7.79302
0.124855
7.68747
0.0902148
7.79155
0.0974731
7.15751
8.93053
0.118496
8.7919
0.043743
7.24212
-0.0503316
7.89622
-0.0138128
7.65943
-0.0337534
7.82108
-0.0368458
7.78328
-0.0251774
7.70096
-0.0125193
7.7092
-0.00554899
7.72489
-0.0017984
7.73667
0.00563729
7.73002
0.0188246
7.69592
0.0260378
7.75364
0.0249649
7.77147
0.0297159
7.7557
0.042209
7.70059
0.0463793
7.74399
0.0583744
7.70427
0.0684248
7.70745
0.0691375
7.77811
0.0524298
7.80976
0.0884538
7.65143
-0.0139048
7.89436
-0.0212058
7.16469
8.91287
0.304588
8.48729
0.136035
7.41065
-0.00700209
8.03934
0.0208478
7.63162
-0.0255937
7.86771
-0.0504573
7.80776
-0.0605369
7.71094
-0.0674096
7.71418
-0.0821046
7.73841
-0.0960125
7.75143
-0.110727
7.74363
-0.12122
7.70606
-0.131113
7.76384
-0.146378
7.78687
-0.15805
7.76746
-0.166367
7.70892
-0.184986
7.76262
-0.193047
7.71235
-0.207991
7.7224
-0.228531
7.79865
-0.262725
7.84397
-0.284728
7.67346
-0.354791
7.96476
-0.658562
7.46795
8.25797
0.873218
7.61416
0.521629
7.76224
0.409761
8.15118
0.330367
7.71118
0.264384
7.93397
0.225228
7.84775
0.19492
7.74049
0.171645
7.73651
0.142648
7.76658
0.113614
7.78149
0.0841146
7.77215
0.0602247
7.72963
0.0381305
7.7862
0.00671404
7.81845
-0.0192198
7.79349
-0.0445064
7.73421
-0.0743151
7.79244
-0.100772
7.73881
-0.130687
7.75231
-0.167055
7.83501
-0.228142
7.90508
-0.279056
7.72445
-0.406156
8.0921
-0.693748
7.75544
7.56722
0.592872
7.02153
0.409966
7.94533
0.237162
8.3244
0.185916
7.76216
0.125154
7.99472
0.0943557
7.87846
0.086919
7.74879
0.0845909
7.73842
0.0792781
7.772
0.0753213
7.78556
0.0724772
7.77432
0.0703957
7.73119
0.0767707
7.78005
0.0767122
7.8187
0.0769713
7.79336
0.0722721
7.73894
0.0674574
7.79726
0.06293
7.74338
0.0562848
7.75901
0.0295292
7.86179
-0.0265927
7.9612
-0.0465158
7.74436
-0.21919
8.26489
-0.372338
7.90853
7.19405
-3.05177
10.0739
-3.39256
8.2863
-2.76516
7.69708
-2.62094
7.61863
-2.30434
7.6785
-1.94062
7.51501
-1.65226
7.4596
-1.37327
7.45878
-1.08437
7.48374
-0.781227
7.48085
-0.494145
7.48672
-0.208527
7.4454
0.0967637
7.47505
0.403565
7.51211
0.694837
7.50224
0.966186
7.46763
1.26539
7.49807
1.54233
7.46646
1.83563
7.46576
2.19659
7.50085
2.50225
7.65552
2.65973
7.58698
3.2351
7.68943
2.95072
8.19296
10.1425
-4.25836
14.3335
-4.36542
8.39409
-4.19566
7.52842
-3.89917
7.32303
-3.32033
7.09939
-2.79616
6.99047
-2.35257
7.0159
-1.92154
7.02729
-1.47059
7.03276
-1.01847
7.02624
-0.562946
7.03087
-0.120511
7.00325
0.339188
7.01576
0.811433
7.0402
1.2594
7.05443
1.67767
7.04941
2.13276
7.04304
2.57152
7.02776
3.02507
7.01226
3.57292
6.95307
4.12993
7.09844
4.44161
7.27532
4.61308
7.51759
4.56474
8.24089
14.707
-2.75593
17.0912
-4.86198
10.5004
-4.98654
7.65309
-4.1425
6.47818
-3.62526
6.58071
-3.17731
6.54346
-2.69586
6.53484
-2.21087
6.54223
-1.71623
6.53755
-1.22348
6.5314
-0.72293
6.53033
-0.242446
6.52357
0.256784
6.51734
0.762028
6.53552
1.25976
6.55697
1.71833
6.59101
2.206
6.5555
2.6969
6.53701
3.19307
6.51618
3.66717
6.47906
4.24718
6.51844
5.09728
6.42523
4.71762
7.89688
2.78047
10.1774
17.4867
2.37067
14.7222
0.161516
12.7069
-5.00149
12.814
-3.89743
5.37337
-3.80309
6.48486
-3.3023
6.04242
-2.86731
6.09952
-2.36662
6.04172
-1.84747
6.01781
-1.32904
6.01234
-0.809983
6.01173
-0.305244
6.02005
0.209983
6.00342
0.74063
6.00577
1.26557
6.03258
1.78981
6.06717
2.28157
6.06405
2.76068
6.05815
3.19994
6.07715
3.75029
5.92892
3.97593
6.29305
5.10024
5.30051
-0.170892
13.1669
-2.39719
12.4028
15.0888
2.45872
12.2647
3.533
11.6306
3.50243
12.8418
-0.769642
9.65943
-3.6188
9.33803
-3.19635
5.62969
-2.97095
5.87432
-2.4774
5.54755
-1.94902
5.4895
-1.46346
5.52747
-0.97531
5.52479
-0.47084
5.51727
0.0273597
5.50701
0.52835
5.50611
1.03013
5.53181
1.52737
5.57074
2.0318
5.56014
2.49014
5.60016
2.6166
5.95101
2.95599
5.58942
-0.089289
9.33863
-4.17173
9.38582
-3.87909
12.8736
-2.9561
11.4783
12.1313
1.88599
10.3796
3.88942
9.62744
5.73536
10.9952
4.97628
10.4102
4.13054
10.1965
-1.18754
10.9351
-2.40428
7.08189
-2.06225
5.2066
-1.63769
5.06662
-1.14005
5.03181
-0.6037
4.9905
-0.0621809
4.97782
0.473479
4.97361
1.00588
4.97582
1.54581
4.99373
2.06119
5.05701
2.45936
5.16291
2.82533
5.23494
1.57781
7.19929
-3.62224
10.7913
-4.24756
9.96526
-4.85573
9.99543
-3.05824
11.0756
-1.34096
9.76043
10.7896
1.07083
9.30986
2.14368
8.55497
3.95727
9.18191
4.89978
9.46079
5.08166
10.0204
5.82054
10.2035
2.78185
10.1094
1.1753
6.81074
0.00661875
6.23282
-0.350507
5.38846
-0.225124
4.86595
0.0544818
4.69877
0.396316
4.63267
0.708933
4.66454
0.906094
4.79842
0.765349
5.19965
-0.534856
6.4645
-2.28516
6.98595
-5.02716
9.94312
-4.27147
10.0378
-3.95349
9.64914
-3.48071
9.52346
-1.83354
9.42856
-0.731285
8.65787
10.058
2.02084
7.29035
3.19466
7.38202
4.39737
7.98148
5.92386
7.93465
7.02475
8.92415
6.65013
10.6008
4.62008
12.1425
2.08761
9.34458
0.865283
7.45712
0.167869
6.08744
-0.0259196
5.06141
-0.0604957
4.73641
-0.0251119
4.60127
-0.0095207
4.65529
-0.133996
4.92967
-0.75854
5.83133
-2.263
7.97533
-4.76327
9.4914
-6.72481
11.9121
-7.19107
10.5061
-6.47386
8.9349
-5.0168
8.06772
-3.71898
8.13103
-2.58088
7.52047
7.47748
2.5222
4.76818
4.10888
5.79392
4.58636
7.50731
4.21332
8.31289
4.3389
8.80373
3.96658
10.9809
3.94326
12.1723
2.37443
10.9147
1.31034
8.51694
0.656873
6.74093
0.28986
5.42808
-0.0371164
5.0619
-0.37047
4.93319
-0.702234
4.98679
-1.07969
5.30795
-1.83462
6.58747
-3.02839
9.1687
-4.71531
11.1794
-5.80079
13.0046
-6.3621
11.0726
-5.84756
8.4256
-5.85572
8.07864
-4.94203
7.21838
-2.93474
5.51375
4.54348
3.16742
1.60026
6.26831
2.69121
8.46938
5.30348
8.05021
8.74047
6.25886
10.5991
5.7744
11.4694
5.49621
12.4537
4.86742
11.5424
4.10645
9.27476
3.19064
7.65417
1.93692
6.67871
0.793634
6.20172
-0.331029
6.05456
-1.50788
6.16086
-2.82669
6.62368
-3.95687
7.71387
-4.37596
9.58213
-4.76278
11.5626
-4.35328
12.5964
-4.82292
11.5425
-7.10647
10.7105
-7.81881
8.79347
-5.78831
5.18806
-2.95909
2.68478
1.58464
1.19467
0.404797
2.88353
1.001
4.89271
3.29123
6.41594
7.21758
5.66409
11.3552
5.42071
11.717
5.42472
12.4536
4.84808
12.1192
3.7669
10.3551
2.61833
8.80213
1.48184
7.81349
0.367246
7.31427
-0.754254
7.17448
-1.90167
7.30734
-3.13133
7.85206
-4.40164
8.98172
-5.43357
10.6102
-5.88236
12.0079
-5.75763
12.47
-5.9308
11.7151
-6.69095
11.4744
-4.92816
7.03697
-2.93974
3.20148
-1.2074
0.952466
0.376916
0.584454
-0.180833
0.840914
0.743605
0.9788
3.15152
1.26879
6.92432
2.31013
10.317
2.97799
11.0526
3.46057
11.9745
3.32276
12.2566
2.61629
11.0615
1.76284
9.6556
0.924744
8.65047
0.0924827
8.14539
-0.733332
7.99972
-1.60146
8.17508
-2.52026
8.76998
-3.4469
9.90628
-4.09307
11.253
-4.09979
12.0114
-3.47536
11.8435
-2.78151
11.0201
-1.64413
10.3393
-1.1079
6.50276
-0.871261
2.96647
-0.593337
0.674711
-0.217389
-0.170672
-0.00997789
-0.316352
0.888746
-0.818214
3.6524
-0.693371
6.79609
0.428558
9.19615
1.38784
10.0975
1.94076
11.4249
2.04725
12.1511
1.74013
11.3691
1.25278
10.1432
0.702056
9.20048
0.148483
8.69842
-0.409602
8.55759
-0.967747
8.73282
-1.51971
9.32066
-1.97486
10.3592
-2.19188
11.4674
-2.0094
11.827
-1.33903
11.1716
-0.303387
9.98395
0.808897
9.22882
0.825063
6.48741
0.370132
3.42319
0.21491
0.830445
-0.00166785
-0.656378
0.647283
-1.51529
1.74824
-1.83896
3.97461
-1.78716
6.74081
-0.87435
8.28392
-0.026925
9.25124
0.480513
10.9198
0.780206
11.8511
0.850534
11.2986
0.725381
10.2682
0.49512
9.43001
0.213435
8.97978
-0.0712336
8.84228
-0.33986
9.00074
-0.536559
9.51588
-0.597585
10.4182
-0.470527
11.3382
-0.201332
11.5562
0.386985
10.5823
1.23879
9.13009
2.15794
8.31041
2.04974
6.59675
1.63521
3.83856
0.66806
1.79719
0.665785
-0.465804
1.11437
-1.63137
2.91437
-2.49647
4.83869
-2.55623
6.79946
-2.04596
7.77569
-1.58094
8.78781
-1.01453
10.3541
-0.485858
11.3213
-0.139654
10.9513
-0.000314782
10.1278
0.0136648
9.41535
-0.042609
9.0362
-0.133925
8.9336
-0.193088
9.05928
-0.178895
9.5003
-0.0199714
10.2574
0.333308
10.983
0.823862
11.0649
1.33304
10.0728
1.87561
8.58698
2.43757
7.7487
2.38761
6.64683
1.49159
4.73548
0.419047
2.86861
1.08488
-0.445003
1.56121
-1.50351
3.97347
-2.26596
5.60115
-2.41681
6.94927
-2.16743
7.52512
-1.8977
8.51803
-1.43573
9.89167
-0.901656
10.7861
-0.468798
10.5176
-0.213836
9.87221
-0.0980603
9.29949
-0.0587555
8.99717
-0.0253337
8.90018
0.0254028
9.00775
0.159948
9.36446
0.430852
9.98483
0.855616
10.5571
1.3677
10.552
1.7691
9.67125
2.06707
8.2879
2.35056
7.4656
2.13409
6.86278
1.37881
5.49046
0.394237
3.8524
1.47902
-0.36159
1.92483
-1.29061
4.90397
-2.10041
6.41025
-2.43118
7.27911
-2.40024
7.49471
-2.16215
8.28002
-1.76209
9.49103
-1.19284
10.2155
-0.69384
10.0175
-0.343977
9.52131
-0.135209
9.09036
0.0231101
8.83875
0.149243
8.77373
0.309124
8.84703
0.536435
9.13615
0.915198
9.60505
1.42197
10.049
1.95261
10.0206
2.29156
9.33254
2.48591
8.09283
2.50733
7.44422
2.16069
7.20871
1.2977
6.35351
0.376005
4.77043
1.85376
-0.445363
2.37237
-1.42606
5.88667
-2.23766
7.2221
-2.56181
7.60241
-2.57406
7.50527
-2.46055
8.16602
-2.14629
9.17639
-1.63893
9.70741
-1.13542
9.51283
-0.737726
9.12279
-0.445131
8.79721
-0.228575
8.62179
-0.0220556
8.56659
0.195717
8.62845
0.488309
8.84269
0.873114
9.21938
1.34022
9.58097
1.81893
9.54125
2.1421
9.00905
2.27764
7.95703
2.24969
7.47315
1.97018
7.48756
1.23568
7.08679
0.338958
5.66321
2.19107
-0.343919
2.71802
-1.21587
6.75986
-1.97192
7.97786
-2.19374
7.82249
-2.37641
7.68519
-2.27874
8.06764
-1.97775
8.87385
-1.47863
9.20705
-1.00237
9.03524
-0.615389
8.73438
-0.316641
8.4973
-0.0533195
8.35776
0.181128
8.33158
0.444636
8.36428
0.753393
8.53359
1.16436
8.80813
1.64604
9.09888
2.09906
9.08756
2.34733
8.76169
2.40494
7.89804
2.21628
7.66027
1.94736
7.75622
1.15495
7.87633
0.34172
6.47281
2.53082
-0.283455
3.0029
-1.17903
7.65647
-1.91495
8.71191
-2.10276
8.00803
-2.24475
7.82582
-2.17159
7.9938
-1.90813
8.60973
-1.47952
8.77762
-1.03226
8.58644
-0.641257
8.3417
-0.302503
8.15752
-0.0186965
8.07352
0.265733
8.04687
0.553547
8.07625
0.899621
8.18731
1.29542
8.41216
1.72773
8.66584
2.14372
8.67077
2.3842
8.5202
2.43857
7.84295
2.28681
7.81275
2.10674
7.93579
1.37178
8.60872
0.427346
7.42013
2.96498
-0.527121
3.53181
-1.42858
8.55849
-2.07195
9.3542
-2.20496
8.14019
-2.42144
8.03837
-2.44716
8.0176
-2.23569
8.39699
-1.77721
8.31792
-1.32753
8.13496
-0.934142
7.94689
-0.610968
7.83368
-0.294829
7.75729
-0.00179731
7.754
0.312253
7.76209
0.646074
7.85322
1.04458
8.01346
1.47599
8.23416
1.87055
8.276
2.08055
8.31094
2.05444
7.86719
1.89734
7.96707
1.72276
8.11035
1.11937
9.20843
0.349999
8.18963
3.32183
-0.422639
3.95552
-1.28127
9.41806
-1.93602
10.008
-1.999
8.20244
-2.03249
8.07096
-2.03092
8.01653
-1.81443
8.18082
-1.4587
7.9614
-1.08052
7.75637
-0.723804
7.58914
-0.378384
7.4884
-0.0754049
7.45469
0.239736
7.4391
0.548389
7.45357
0.892833
7.50853
1.25789
7.64787
1.63181
7.85943
1.99097
7.91543
2.17717
8.12335
2.15461
7.8884
2.11506
8.00656
1.95753
8.2659
1.41349
9.75416
0.493441
9.11015
3.80526
-0.394136
4.35152
-0.78985
9.81656
-1.54442
10.7619
-1.73399
8.39106
-1.82343
8.15841
-1.78471
7.97763
-1.6518
8.04674
-1.32087
7.62984
-0.980504
7.41521
-0.655411
7.26405
-0.367684
7.20135
-0.0635678
7.15067
0.222985
7.15269
0.524249
7.15219
0.823351
7.20872
1.17172
7.29882
1.52043
7.5102
1.80299
7.63261
1.91944
8.00673
1.95765
7.84752
1.90378
8.0578
1.87511
8.29348
1.1262
10.4975
0.481851
9.75813
4.28423
-0.655488
5.00748
-1.09184
10.2543
-1.78415
11.4541
-1.96745
8.57488
-1.95311
8.14468
-1.8859
7.91233
-1.69641
7.85845
-1.41358
7.34714
-1.11837
7.12071
-0.826701
6.97296
-0.513516
6.88861
-0.232222
6.8696
0.0667056
6.85363
0.354491
6.86423
0.662385
6.90037
0.953373
7.00713
1.23777
7.22477
1.52409
7.34481
1.69029
7.83962
1.75493
7.78161
1.7481
8.06178
1.65303
8.38436
0.744738
11.3933
0.432503
10.0619
4.7336
-0.463293
5.47299
-0.733175
10.5287
-1.32792
12.0524
-1.58374
8.83224
-1.65394
8.21518
-1.59828
7.85726
-1.45173
7.71093
-1.19015
7.08582
-0.898216
6.82953
-0.599949
6.67567
-0.343903
6.63282
-0.0582272
6.58349
0.207846
6.58722
0.487386
6.58435
0.750839
6.63645
1.05658
6.701
1.34521
6.93562
1.58897
7.1
1.73436
7.69394
1.77135
7.7435
1.72831
8.104
1.42922
8.68293
0.949852
11.8723
0.601081
10.3868
5.33388
-0.326215
5.80085
-0.418398
10.6271
-0.955695
12.593
-1.52408
9.39969
-1.56414
8.25607
-1.47711
7.77143
-1.25557
7.49037
-1.04728
6.87989
-0.820516
6.60462
-0.591952
6.44744
-0.319224
6.35995
-0.0815449
6.34553
0.178146
6.32716
0.420792
6.34149
0.68041
6.3765
0.913925
6.46684
1.14512
6.70256
1.37228
6.87128
1.57651
7.48835
1.651
7.66586
1.67917
8.07146
1.18987
9.16694
0.668095
12.4081
0.338346
10.7063
5.66852
-0.430377
6.23173
-0.644155
10.8434
-0.911713
12.8616
-1.57246
10.0626
-1.55684
8.24186
-1.50155
7.71903
-1.36467
7.35498
-1.12612
6.64216
-0.901561
6.3802
-0.646782
6.19335
-0.435435
6.14856
-0.185756
6.09542
0.0401297
6.10095
0.283117
6.0981
0.512427
6.14713
0.768776
6.2104
0.985211
6.48603
1.19308
6.66198
1.32912
7.35098
1.37227
7.62223
1.33702
8.10338
0.68432
9.81492
0.349711
12.7607
0.208061
10.8763
5.86165
-0.22434
6.45767
-0.287257
10.907
-0.452294
13.0279
-1.23654
10.8507
-1.37279
8.38071
-1.32942
7.67666
-1.11314
7.13956
-0.895506
6.42704
-0.700074
6.18635
-0.512795
6.00567
-0.269983
5.90516
-0.0623279
5.88746
0.173248
5.86512
0.388019
5.88324
0.6136
5.92106
0.807865
6.01565
1.01626
6.27628
1.25951
6.41734
1.44831
7.16132
1.48553
7.58368
1.39025
8.19753
0.638318
10.5712
0.561201
12.8397
0.407518
11.0222
6.2675
-0.0257364
6.48083
-0.0309846
10.9127
-0.0476017
13.0464
-0.73553
11.5428
-1.19923
8.84428
-1.11079
7.58952
-1.01614
7.04656
-0.837454
6.24906
-0.649561
5.99689
-0.436695
5.79315
-0.264993
5.73375
-0.0552721
5.67752
0.133232
5.67643
0.34129
5.67477
0.52726
5.7349
0.744945
5.79701
0.922789
6.09769
1.0947
6.24349
1.23729
7.01593
1.33967
7.47822
0.931171
8.59701
0.248758
11.2607
0.19729
12.8882
0.1727
11.029
6.39231
-0.213839
6.69027
-0.375557
11.0771
-0.206263
12.8769
-0.68602
12.0204
-1.29906
9.4598
-1.21167
7.50386
-1.04962
6.88633
-0.861306
6.06148
-0.682914
5.8177
-0.531565
5.64124
-0.333746
5.53488
-0.161616
5.50518
0.0358558
5.47875
0.211167
5.49928
0.401903
5.54361
0.562841
5.63581
0.75726
5.90197
0.937852
6.06118
1.04426
6.90951
1.11042
7.41187
0.419461
9.29315
-0.166978
11.8479
0.00134777
12.7268
0.0883003
10.9317
6.5125
-0.0352843
6.71724
-0.0818461
11.1229
0.153699
12.6386
-0.100439
12.2724
-0.845617
10.2064
-0.945717
7.60397
-0.845706
6.78493
-0.721959
5.93609
-0.571989
5.66614
-0.375599
5.44499
-0.221804
5.38178
-0.0389349
5.32222
0.128145
5.31144
0.309135
5.31784
0.472644
5.37947
0.672631
5.43461
0.813648
5.75951
0.950304
5.92249
1.08177
6.77574
1.01068
7.48065
0.31635
9.9914
0.0174327
12.1457
0.260314
12.4817
0.204734
10.9807
6.77646
0.0142198
6.69766
0.0549221
11.0768
0.290373
12.3999
0.304895
12.2568
-0.444899
10.9574
-0.887265
8.04527
-0.720385
6.61767
-0.616612
5.83188
-0.483449
5.53097
-0.367216
5.32796
-0.195916
5.20938
-0.0471009
5.17318
0.116989
5.1471
0.266836
5.16779
0.425827
5.22017
0.556879
5.30346
0.723393
5.59194
0.829452
5.81494
1.03376
6.56938
0.719253
7.79121
-0.0625249
10.7681
-0.179204
12.2619
0.0575689
12.2494
0.0429139
11.0488
6.85286
-0.134075
6.82928
-0.117509
11.0537
0.0562221
12.2217
0.225234
12.085
-0.241747
11.4194
-0.757148
8.5594
-0.798487
6.65716
-0.665449
5.69675
-0.574476
5.43817
-0.405058
5.15814
-0.275823
5.08026
-0.119077
5.01632
0.0239006
5.00389
0.173278
5.01796
0.312751
5.07982
0.471267
5.14373
0.551585
5.50982
0.628085
5.73595
0.682913
6.51313
0.0825026
8.39322
-0.546235
11.4054
-0.315801
12.0312
-0.2041
12.1512
-0.136743
10.9855
6.71606
-0.0469861
6.87642
0.00984413
10.9912
0.185147
12.0441
0.556749
11.7103
0.202148
11.7769
-0.426033
9.18541
-0.624625
6.85225
-0.498423
5.56947
-0.404327
5.34284
-0.316035
5.06933
-0.169199
4.93312
-0.0384825
4.88545
0.106743
4.85841
0.242791
4.88176
0.378553
4.94391
0.484981
5.03707
0.616932
5.37667
0.740565
5.61091
0.613204
6.63731
0.00962602
8.99482
-0.350964
11.7602
-0.0683447
11.7488
0.0626098
12.0244
0.107865
10.9616
6.81113
0.0910242
6.78728
0.247635
10.8333
0.303938
11.9871
0.563055
11.448
0.768727
11.5688
0.0747241
9.88281
-0.421838
7.33832
-0.456664
5.60313
-0.377619
5.26257
-0.258428
4.94882
-0.157745
4.8317
-0.0295005
4.75711
0.0920429
4.73665
0.220508
4.753
0.332672
4.83096
0.447885
4.92131
0.533302
5.28978
0.587177
5.55435
0.267123
6.95466
-0.581379
9.8414
-0.466741
11.6452
-0.185151
11.4677
-0.123427
11.9713
-0.0134884
10.8356
6.77808
-0.122413
6.91181
-0.0115663
10.7232
0.0869639
11.8873
0.31911
11.2138
0.698968
11.1865
0.147186
10.4303
-0.340304
7.82434
-0.458045
5.71854
-0.371681
5.17462
-0.308623
4.88576
-0.202849
4.72579
-0.0965992
4.65071
0.02413
4.61566
0.133265
4.64359
0.235748
4.72808
0.308888
4.84782
0.391835
5.20547
0.290622
5.65423
-0.198892
7.44441
-0.891867
10.5354
-0.564034
11.3153
-0.346788
11.2453
-0.265917
11.8851
-0.0419938
10.5939
6.71818
0.0519464
6.86193
0.240206
10.5366
0.279642
11.8477
0.467378
11.027
0.862098
10.7912
0.822711
10.4679
0.0381596
8.59858
-0.303889
6.06237
-0.301054
5.17005
-0.206679
4.79149
-0.12738
4.6462
-0.0267351
4.55001
0.0766024
4.51224
0.179291
4.54085
0.268991
4.63817
0.357639
4.75915
0.38209
5.17969
0.0916172
5.94207
-0.621496
8.15577
-0.801549
10.7166
-0.372752
10.885
-0.152576
11.0169
-0.0886944
11.8047
0.055593
10.4559
6.75981
0.0682463
6.79535
0.308904
10.2959
0.40712
11.7491
0.561038
10.8747
0.865598
10.4866
1.03103
10.3
0.474713
9.15448
-0.0533443
6.59378
-0.199309
5.31556
-0.159955
4.7525
-0.0898964
4.5759
-0.0162582
4.47609
0.073815
4.42194
0.152461
4.46196
0.23537
4.55486
0.302979
4.69168
0.211568
5.2705
-0.198707
6.35377
-0.899763
8.85935
-0.705882
10.5215
-0.400615
10.5716
-0.224426
10.8281
-0.149609
11.7301
0.0204628
10.304
6.77091
-0.00984775
6.80527
0.162782
10.1232
0.284899
11.626
0.419018
10.7423
0.646257
10.2617
1.02981
9.91563
0.811335
9.37011
0.0775292
7.32655
-0.196644
5.5884
-0.187298
4.74336
-0.125395
4.51395
-0.054496
4.40539
0.00967238
4.35778
0.0758004
4.39601
0.13768
4.49301
0.164691
4.66485
-0.11918
5.55342
-0.848578
7.08102
-1.24242
9.24882
-0.772395
10.0504
-0.545037
10.3404
-0.408239
10.6909
-0.311413
11.6446
-0.0804593
10.0847
6.68943
-0.0100937
6.81504
0.263795
9.84964
0.445776
11.443
0.53135
10.6588
0.735374
10.0597
1.01091
9.63743
1.03714
9.3407
0.563626
7.79927
0.0353603
6.11553
-0.0910459
4.87053
-0.0581538
4.48127
-0.0112377
4.35863
0.0373267
4.30925
0.0922349
4.34131
0.136817
4.44859
0.0447691
4.75745
-0.347253
5.94509
-0.925438
7.66336
-1.01883
9.34532
-0.688905
9.71691
-0.448858
10.0995
-0.356372
10.6032
-0.172415
11.4749
0.0735686
9.84617
6.77111
0.0322393
6.78348
0.29948
9.58097
0.569634
11.1741
0.659011
10.5702
0.792517
9.9276
0.948564
9.48072
1.3281
8.96323
0.890516
8.23429
0.251933
6.75332
0.0186837
5.10365
-0.00891399
4.50898
0.0142968
4.33569
0.0329029
4.29073
0.0633389
4.31114
0.0693451
4.44234
-0.126185
4.95394
-0.863937
6.68345
-1.28808
8.08488
-0.94065
8.99804
-0.712154
9.4929
-0.53537
9.922
-0.456155
10.5254
-0.196666
11.2177
0.0575522
9.59336
6.83734
0.0308628
-0.396348
0.0735743
-0.438433
0.112131
-0.516803
0.153355
-0.63589
0.19805
-0.785392
0.234281
-0.905936
0.240933
-0.88066
0.224419
-0.746139
0.197148
-0.583495
0.161158
-0.387083
0.138592
-0.214283
0.125773
-0.126909
0.160331
-0.140536
0.229523
-0.285941
0.277776
-0.490409
0.306777
-0.643673
0.325818
-0.751846
0.343173
-0.830631
0.360551
-0.884647
0.377854
-0.932065
0.386224
-0.999038
0.371479
-1.12861
0.290779
-1.4269
0.189675
-2.72828
-0.0119796
-3.0778
-0.0608851
-3.12166
-0.078675
-3.36844
-0.103688
-3.55259
-0.0968816
-3.63768
-3.71539
0.0626966
-0.415416
0.10751
-0.463317
0.143771
-0.543001
0.195508
-0.694336
0.247561
-0.852594
0.262061
-0.917523
0.230115
-0.831281
0.193762
-0.684129
0.155605
-0.517889
0.120628
-0.329689
0.105055
-0.183607
0.100083
-0.108471
0.137892
-0.139827
0.199611
-0.286101
0.250776
-0.477562
0.28935
-0.620078
0.31826
-0.727105
0.341017
-0.806036
0.36077
-0.862519
0.371198
-0.919813
0.366673
-1.0156
0.311805
-1.21423
0.205716
-1.7721
0.0098483
-2.9567
-0.0753224
-3.06114
-0.0831711
-3.1131
-0.0900277
-3.37437
-0.104627
-3.51684
-0.0725909
-3.6027
-3.66211
0.0510296
-0.426758
0.08737
-0.48392
0.123734
-0.570142
0.169016
-0.756906
0.200127
-0.89913
0.186265
-0.892789
0.156336
-0.781904
0.126028
-0.614856
0.0973239
-0.453663
0.076021
-0.282433
0.0695043
-0.159725
0.0760746
-0.099187
0.117608
-0.145438
0.175087
-0.290756
0.224349
-0.466718
0.264755
-0.60086
0.294883
-0.704591
0.318918
-0.783272
0.338522
-0.845901
0.341773
-0.924978
0.309305
-1.06862
0.202202
-1.40443
0.0423781
-2.65459
-0.0967082
-2.93013
-0.114637
-3.00752
-0.114681
-3.13361
-0.119289
-3.31887
-0.126791
-3.49012
-0.0781299
-3.55575
-3.61345
0.0362562
-0.430259
0.0662396
-0.497992
0.100648
-0.603115
0.132465
-0.805246
0.146022
-0.923863
0.130739
-0.861386
0.095474
-0.717818
0.0658247
-0.544232
0.0434008
-0.394505
0.0317173
-0.244574
0.0334141
-0.142457
0.0523186
-0.101498
0.0958071
-0.160211
0.152286
-0.302398
0.19847
-0.46152
0.239587
-0.587292
0.272076
-0.686378
0.297292
-0.766711
0.310956
-0.84125
0.302618
-0.951816
0.234357
-1.18138
0.0934049
-2.11361
-0.102577
-2.83493
-0.150497
-2.87686
-0.138517
-2.95404
-0.13157
-3.10468
-0.135648
-3.27481
-0.140059
-3.45734
-0.0740746
-3.50531
-3.56962
0.0332819
-0.433273
0.0572751
-0.508984
0.0885451
-0.638529
0.109671
-0.837297
0.105492
-0.921839
0.0834263
-0.821642
0.0486188
-0.645592
0.0197069
-0.480763
0.0008283
-0.344764
-0.00514726
-0.216836
0.00479761
-0.135352
0.0296247
-0.11174
0.0759192
-0.184751
0.130557
-0.321168
0.176909
-0.465091
0.219546
-0.580032
0.253633
-0.678483
0.278938
-0.761366
0.281884
-0.858953
0.242174
-1.02775
0.138157
-1.48543
-0.0610653
-2.57962
-0.170298
-2.77629
-0.163383
-2.82409
-0.145837
-2.91775
-0.139059
-3.08108
-0.156115
-3.24057
-0.146084
-3.43633
-0.0725549
-3.47121
-3.54358
0.029013
-0.438102
0.0505059
-0.522554
0.0732817
-0.670578
0.0855128
-0.856785
0.0639153
-0.897726
0.0362336
-0.775716
0.00736727
-0.590193
-0.0210477
-0.440484
-0.036473
-0.314386
-0.0362014
-0.204955
-0.0191839
-0.14217
0.012663
-0.132766
0.0621178
-0.217751
0.116483
-0.347475
0.162038
-0.480357
0.203379
-0.583922
0.236953
-0.680273
0.257084
-0.773197
0.242087
-0.912797
0.150302
-1.2314
-0.0149774
-2.35931
-0.176876
-2.63736
-0.191737
-2.71304
-0.169609
-2.78202
-0.148651
-2.8929
-0.143277
-3.05063
-0.169512
-3.199
-0.15439
-3.40652
-0.0732596
-3.43653
-3.48133
0.0243036
-0.44067
0.0392424
-0.534351
0.0539413
-0.696956
0.0491875
-0.859121
0.0198298
-0.863123
-0.00935146
-0.731542
-0.0400004
-0.546168
-0.0611603
-0.413863
-0.0688426
-0.301872
-0.0609956
-0.208784
-0.0397508
-0.162584
-0.00110218
-0.172939
0.0489926
-0.259353
0.102074
-0.385174
0.144926
-0.505423
0.182673
-0.602581
0.213761
-0.701432
0.214571
-0.824102
0.159295
-1.07577
0.0447474
-2.12605
-0.126065
-2.50823
-0.213625
-2.58948
-0.207397
-2.6532
-0.180334
-2.75535
-0.155226
-2.86649
-0.148736
-3.01623
-0.177376
-3.1685
-0.149652
-3.36003
-0.0635713
-3.38634
-3.39283
0.0146008
-0.439841
0.0206811
-0.539782
0.0218697
-0.706132
-0.000295605
-0.84175
-0.0297301
-0.829354
-0.0590249
-0.693964
-0.0795656
-0.522152
-0.0901587
-0.407908
-0.0936501
-0.304693
-0.0801229
-0.232348
-0.0544908
-0.200512
-0.0145971
-0.234586
0.0374108
-0.31387
0.0867207
-0.436244
0.128321
-0.544699
0.162038
-0.642797
0.175986
-0.763977
0.147734
-0.992493
0.0783735
-1.91497
-0.0817491
-2.32102
-0.189371
-2.47004
-0.229784
-2.538
-0.22321
-2.60838
-0.189346
-2.70923
-0.160579
-2.82499
-0.151371
-2.97383
-0.174642
-3.1324
-0.14269
-3.30099
-0.0608175
-3.3237
-3.30721
0.00767588
-0.434309
0.00221653
-0.537995
-0.0129139
-0.696991
-0.0382189
-0.816393
-0.0707871
-0.800904
-0.0963635
-0.678805
-0.108426
-0.532433
-0.113757
-0.429742
-0.11198
-0.337226
-0.0955694
-0.279099
-0.0670384
-0.266145
-0.0243701
-0.317666
0.0242141
-0.397632
0.0676613
-0.512874
0.107093
-0.618546
0.131537
-0.741122
0.114573
-0.961654
0.0732193
-1.80783
-0.054404
-2.19229
-0.157732
-2.30715
-0.221584
-2.40972
-0.245335
-2.48257
-0.231423
-2.55494
-0.193339
-2.65526
-0.163594
-2.77191
-0.157038
-2.92209
-0.174096
-3.09427
-0.139689
-3.23812
-0.0664656
-3.25028
-3.22763
-0.00210425
-0.42156
-0.016703
-0.528351
-0.0415409
-0.679167
-0.0718758
-0.786451
-0.109431
-0.777151
-0.132663
-0.68412
-0.134493
-0.581625
-0.135469
-0.479217
-0.126318
-0.402186
-0.108491
-0.361611
-0.0769291
-0.379922
-0.0366515
-0.441354
0.00921609
-0.536242
0.0455537
-0.649675
0.0775966
-0.781627
0.0735364
-0.99702
0.0403863
-1.71861
-0.0477871
-2.03422
-0.128712
-2.1855
-0.195053
-2.28082
-0.238279
-2.3465
-0.254268
-2.42272
-0.234109
-2.50206
-0.193883
-2.59703
-0.163582
-2.7088
-0.156851
-2.86439
-0.174384
-3.04402
-0.141907
-3.16846
-0.0735027
-3.18268
-3.15567
-0.0107224
-0.403563
-0.0350397
-0.510829
-0.068649
-0.653984
-0.107072
-0.751324
-0.143801
-0.756113
-0.157152
-0.706672
-0.166254
-0.635763
-0.163623
-0.565011
-0.151248
-0.515903
-0.128292
-0.51502
-0.0954319
-0.576066
-0.0592902
-0.659411
-0.0190354
-0.780627
0.0130055
-0.920653
0.0201963
-1.23641
-0.00850201
-1.65766
-0.0611274
-1.94748
-0.115573
-2.05016
-0.167938
-2.12673
-0.214606
-2.21302
-0.245871
-2.28193
-0.254666
-2.36039
-0.230927
-2.44447
-0.192
-2.53543
-0.164126
-2.63542
-0.159315
-2.79953
-0.184793
-2.97994
-0.143578
-3.09625
-0.0745125
-3.11278
-3.08379
-0.0191791
-0.380592
-0.0521557
-0.487564
-0.0922913
-0.624819
-0.137669
-0.720564
-0.174117
-0.746415
-0.192039
-0.734898
-0.207858
-0.710212
-0.202917
-0.711577
-0.19062
-0.719087
-0.16862
-0.77282
-0.137964
-0.88141
-0.10278
-1.00518
-0.0724015
-1.29073
-0.0570026
-1.43935
-0.0552741
-1.60518
-0.0807427
-1.84777
-0.116635
-1.987
-0.152367
-2.03466
-0.190344
-2.07545
-0.225455
-2.12594
-0.249694
-2.21498
-0.25073
-2.29838
-0.226757
-2.38343
-0.190325
-2.46202
-0.169013
-2.47285
-0.16462
-2.72122
-0.185307
-2.90791
-0.134611
-3.01914
-0.0684679
-3.02892
-3.0058
-0.0277354
-0.353491
-0.0690132
-0.459122
-0.118415
-0.595737
-0.170649
-0.697951
-0.211869
-0.763409
-0.242878
-0.797712
-0.263205
-0.826587
-0.270695
-0.897915
-0.259309
-0.969931
-0.242956
-1.18542
-0.215985
-1.29401
-0.177856
-1.37588
-0.142836
-1.50108
-0.123555
-1.63065
-0.119365
-1.76156
-0.126902
-1.88056
-0.148663
-1.94545
-0.17514
-1.97059
-0.204557
-1.99303
-0.230902
-2.04625
-0.249785
-2.13832
-0.247113
-2.22172
-0.222502
-2.29934
-0.187015
-2.36057
-0.175911
-2.43254
-0.173701
-2.64589
-0.173504
-2.82323
-0.125029
-2.92497
-0.0651458
-2.93601
-2.92721
-0.0364129
-0.322927
-0.0874478
-0.428253
-0.145739
-0.565565
-0.207834
-0.688136
-0.260889
-0.804055
-0.301854
-0.909107
-0.335964
-1.03814
-0.353797
-1.12204
-0.351355
-1.22587
-0.329604
-1.346
-0.294861
-1.45606
-0.24971
-1.53406
-0.20723
-1.60372
-0.176626
-1.68818
-0.163188
-1.77537
-0.159642
-1.83909
-0.16905
-1.86203
-0.190884
-1.87781
-0.215198
-1.89751
-0.235525
-1.96514
-0.248744
-2.05037
-0.243856
-2.13942
-0.217613
-2.19778
-0.189275
-2.18762
-0.184828
-2.37505
-0.182284
-2.5743
-0.165227
-2.728
-0.123291
-2.81915
-0.0668754
-2.8422
-2.8467
-0.0462971
-0.288485
-0.109581
-0.394582
-0.180155
-0.538717
-0.258055
-0.693005
-0.33048
-0.855406
-0.38713