/*--------------------------------*- C++ -*----------------------------------*\
| =========                 |                                                 |
| \\      /  F ield         | OpenFOAM: The Open Source CFD Toolbox           |
|  \\    /   O peration     | Version:  2112                                  |
|   \\  /    A nd           | Website:  www.openfoam.com                      |
|    \\/     M anipulation  |                                                 |
\*---------------------------------------------------------------------------*/
FoamFile
{
    version     2.0;
    format      ascii;
    arch        "LSB;label=32;scalar=64";
    class       volScalarField;
    location    "0.00294";
    object      alphat;
}
// * * * * * * * * * * * * * * * * * * * * * * * * * * * * * * * * * * * * * //

dimensions      [1 -1 -1 0 0 0 0];

internalField   nonuniform List<scalar> 
13875
(
0.119858
0.0816027
0.0784645
0.0782743
0.0782677
0.0783668
0.0783829
0.0783504
0.0782838
0.0782999
0.0782906
0.0782941
0.0784242
0.0784072
0.0782665
0.0782545
0.0783093
0.0782962
0.0783645
0.0783559
0.0782821
0.0782647
0.0784877
0.0814409
0.120916
0.103933
0.0576724
0.0570924
0.0571377
0.0566628
0.0565665
0.0565654
0.0566475
0.0570663
0.0571645
0.0571514
0.0571071
0.056701
0.0566962
0.0570838
0.057143
0.057175
0.0570058
0.0566552
0.0565758
0.0566537
0.0571423
0.0570746
0.0573815
0.104648
0.110617
0.0553296
0.0558916
0.0547235
0.0544617
0.054319
0.0542575
0.0542612
0.054331
0.0544131
0.0544221
0.05439
0.0544656
0.0544521
0.0543686
0.0544113
0.0544182
0.0541822
0.0542819
0.0543561
0.0544326
0.0545865
0.0557877
0.0551036
0.111178
0.115885
0.0546439
0.0553956
0.054287
0.0539083
0.0537817
0.0537212
0.0537158
0.0535466
0.0536286
0.0537056
0.0537494
0.0539236
0.0539161
0.0537641
0.0536535
0.0536445
0.053581
0.0537463
0.0538256
0.0538947
0.054181
0.055205
0.0542995
0.115723
0.121034
0.05464
0.0551371
0.0537435
0.0535682
0.0533712
0.053265
0.0532406
0.053061
0.0531247
0.0532106
0.0532628
0.0534636
0.0534478
0.0532736
0.0531569
0.0531394
0.0531101
0.0533059
0.0534073
0.0535294
0.0535946
0.0550243
0.0543233
0.12131
0.124423
0.0547477
0.0552041
0.0535775
0.0531769
0.0529713
0.0528742
0.0528266
0.0526228
0.0526926
0.0527988
0.0528512
0.0530861
0.0530627
0.0528453
0.0527284
0.0527076
0.0527048
0.052894
0.0530132
0.0531563
0.0534849
0.0548994
0.0544015
0.124093
0.128787
0.056491
0.0558122
0.0534586
0.0531804
0.0528224
0.0526295
0.0525239
0.0522834
0.0523283
0.0524397
0.0525182
0.0527523
0.0527502
0.0524933
0.0523548
0.0523483
0.052422
0.0526528
0.0528626
0.0531461
0.0533678
0.0556586
0.0563689
0.129048
0.135803
0.0612355
0.0578765
0.0544205
0.0533579
0.0528133
0.0525235
0.0523441
0.0520759
0.0520894
0.0522096
0.0522954
0.0525478
0.0525638
0.0522769
0.052121
0.0521083
0.0522665
0.0525306
0.0528389
0.0533243
0.0543067
0.0575657
0.0610724
0.13576
0.151661
0.0693819
0.0616716
0.056043
0.0544993
0.0534437
0.0528522
0.0524966
0.0521555
0.0520867
0.0521798
0.0523027
0.0525805
0.0526194
0.0522932
0.0521008
0.0521524
0.0524399
0.052827
0.0534216
0.0543972
0.0558053
0.0611062
0.0684629
0.154479
0.240187
0.0876453
0.0666843
0.059192
0.0558513
0.0544019
0.0535787
0.0530484
0.052684
0.0525599
0.0526023
0.052754
0.053065
0.0531283
0.0527963
0.0525738
0.0526617
0.0530286
0.0535312
0.0543584
0.0558389
0.0589364
0.0662868
0.0870238
0.241857
0.366892
0.119437
0.0768577
0.0631794
0.0590952
0.0565508
0.0552745
0.0545104
0.0540984
0.0539212
0.0538829
0.0540355
0.0543646
0.0544459
0.0541772
0.0539654
0.054066
0.0544727
0.0551503
0.0563325
0.0588218
0.0628683
0.0755483
0.113465
0.366471
0.66337
0.19665
0.10588
0.0774517
0.0656897
0.0610094
0.0590386
0.0579331
0.0574303
0.0571801
0.0570744
0.057166
0.0574577
0.0575667
0.0574038
0.0573116
0.0574538
0.0578865
0.0589446
0.0606035
0.0655766
0.0764708
0.104124
0.186968
0.647839
0.585751
0.420224
0.195125
0.0994883
0.0849482
0.0732319
0.0684462
0.0664914
0.0656527
0.0652031
0.0650287
0.0649992
0.0651724
0.0653434
0.0653473
0.0655223
0.0659185
0.0666812
0.068684
0.0734031
0.0847897
0.0975389
0.184198
0.41972
0.583955
0.499738
0.39799
0.373516
0.404387
0.142624
0.101855
0.096348
0.0910112
0.0903619
0.0895866
0.0893984
0.0893299
0.0895299
0.0897126
0.0899431
0.0904169
0.0914156
0.0923346
0.0978783
0.108405
0.16105
0.394732
0.366779
0.401811
0.508706
0.412882
0.358868
0.358499
0.401353
0.338134
0.225615
0.196949
0.164989
0.143612
0.138999
0.135346
0.135389
0.133755
0.13545
0.135938
0.139481
0.145029
0.167579
0.203381
0.22904
0.337519
0.3982
0.356692
0.376285
0.437929
0.357835
0.328532
0.341162
0.41068
0.50583
0.631786
0.647492
0.54768
0.588445
0.598281
0.614578
0.612757
0.61737
0.612333
0.616964
0.602072
0.584221
0.543633
0.634038
0.647485
0.517954
0.424669
0.34615
0.34161
0.378124
0.283918
0.30646
0.381488
0.475064
0.572752
0.677762
0.563046
0.457935
0.462661
0.454592
0.458721
0.455292
0.453885
0.453837
0.458847
0.454897
0.456103
0.450341
0.534055
0.678992
0.579453
0.480559
0.389404
0.319494
0.306693
0.233969
0.308126
0.398221
0.443019
0.498639
0.535222
0.447827
0.375906
0.376333
0.373299
0.37591
0.372658
0.37365
0.372374
0.376739
0.373581
0.371503
0.373466
0.442071
0.538594
0.495807
0.456889
0.415037
0.298617
0.219133
0.115212
0.245887
0.38111
0.376849
0.379206
0.407744
0.391589
0.352962
0.344223
0.339709
0.338317
0.334881
0.33526
0.333714
0.33789
0.337526
0.337547
0.346146
0.388801
0.414453
0.380461
0.380438
0.377015
0.256507
0.118698
0.0535727
0.169476
0.278954
0.293451
0.294852
0.325873
0.348632
0.33725
0.322901
0.311922
0.306719
0.3016
0.30112
0.300998
0.306354
0.309996
0.318581
0.335115
0.351125
0.32977
0.296191
0.295064
0.282171
0.17493
0.0517819
0.05354
0.123253
0.187538
0.214386
0.230031
0.269014
0.306455
0.308717
0.295484
0.282367
0.27436
0.268266
0.26704
0.268241
0.274598
0.281697
0.294006
0.309936
0.309167
0.26943
0.229012
0.214478
0.188117
0.114129
0.0480683
0.0900712
0.125303
0.138168
0.167442
0.186849
0.230185
0.267451
0.27396
0.263172
0.250789
0.242432
0.235446
0.233869
0.235542
0.242797
0.250665
0.262892
0.275855
0.269637
0.229902
0.184931
0.166101
0.135462
0.117085
0.0848933
0.151098
0.135803
0.122362
0.138382
0.157888
0.200367
0.233722
0.240871
0.232745
0.221035
0.212126
0.205523
0.203534
0.205242
0.211808
0.220011
0.231151
0.240734
0.234192
0.200357
0.155098
0.136429
0.12091
0.1293
0.151142
0.179285
0.143119
0.120436
0.122641
0.139122
0.173682
0.201422
0.209114
0.202033
0.191985
0.184579
0.178159
0.176721
0.178151
0.184556
0.191274
0.200439
0.208507
0.200739
0.172485
0.138283
0.120843
0.118411
0.137818
0.174606
0.194376
0.149702
0.117538
0.114481
0.126421
0.151915
0.174661
0.18173
0.176102
0.167097
0.160153
0.154993
0.153478
0.155043
0.160298
0.166699
0.174924
0.181263
0.173903
0.150141
0.125148
0.113105
0.116144
0.14566
0.187006
0.208904
0.15748
0.118041
0.109893
0.116592
0.134273
0.151754
0.157469
0.152616
0.145466
0.139806
0.134612
0.13364
0.134659
0.139713
0.144795
0.150844
0.155981
0.150476
0.132646
0.116001
0.108146
0.116638
0.155338
0.203919
0.22583
0.169257
0.120062
0.108611
0.109903
0.12106
0.133725
0.137149
0.133138
0.126965
0.121704
0.117828
0.116588
0.117887
0.121685
0.126564
0.131739
0.13582
0.132576
0.119214
0.108425
0.107131
0.118993
0.172608
0.217217
0.243251
0.191073
0.121513
0.106848
0.104846
0.110143
0.117618
0.119157
0.115601
0.111018
0.106993
0.103159
0.102356
0.103128
0.107021
0.110747
0.114627
0.118348
0.117029
0.109128
0.1039
0.105697
0.1205
0.190452
0.236202
0.270356
0.202914
0.124081
0.105243
0.101249
0.102428
0.106135
0.105778
0.102398
0.0980559
0.0940145
0.0912535
0.0901761
0.0911639
0.0938091
0.0973785
0.100723
0.103927
0.104782
0.101227
0.100093
0.104232
0.121587
0.198276
0.265901
0.314665
0.208701
0.124103
0.102309
0.0975376
0.0961638
0.0954224
0.0931409
0.0897539
0.0863899
0.0835127
0.0806398
0.0799581
0.0805511
0.0834749
0.0860895
0.0887833
0.0920212
0.0943042
0.0952628
0.0965985
0.101515
0.123904
0.206578
0.300832
0.337598
0.215472
0.128308
0.100729
0.0937406
0.0901098
0.0873399
0.0840817
0.0805553
0.0772519
0.0740244
0.0721487
0.0711922
0.0720683
0.0739443
0.0767822
0.0795296
0.0830299
0.0866665
0.0896201
0.092738
0.0999723
0.125849
0.212646
0.338947
0.346419
0.220123
0.131611
0.100026
0.0899091
0.0851667
0.080354
0.0759012
0.0721242
0.0690272
0.0667165
0.0644162
0.0638568
0.0644088
0.0665809
0.0686025
0.0710868
0.0746422
0.0791087
0.0843551
0.0886691
0.0990815
0.129097
0.216598
0.349745
0.357115
0.220909
0.138391
0.10136
0.0867273
0.0798572
0.074487
0.0696705
0.0659147
0.0627137
0.0597913
0.0583486
0.0575132
0.0583397
0.0597134
0.0622895
0.065005
0.068535
0.0735488
0.0791453
0.0855353
0.0997449
0.13458
0.221025
0.357575
0.36484
0.222301
0.149425
0.102083
0.0839905
0.0754298
0.0689436
0.0635859
0.0597716
0.0566973
0.054583
0.052689
0.0521705
0.0527034
0.0545444
0.0563984
0.0590493
0.0626672
0.0681444
0.074934
0.0829246
0.100442
0.143504
0.221488
0.365356
0.365477
0.223785
0.15557
0.106636
0.0830082
0.071686
0.0643655
0.0593539
0.0554858
0.0524107
0.0496263
0.0483717
0.0475682
0.0483649
0.049526
0.05202
0.0547501
0.0581971
0.0632524
0.0710722
0.0818146
0.10395
0.157283
0.222861
0.365875
0.36972
0.221755
0.155327
0.109164
0.0827307
0.0686901
0.0600861
0.0546299
0.0508772
0.0479379
0.0458293
0.0441873
0.0436811
0.0441994
0.0458762
0.0477664
0.0503785
0.0538485
0.0591321
0.0682032
0.0819282
0.108501
0.158257
0.223399
0.359633
0.367842
0.218814
0.154741
0.116806
0.0838095
0.0666352
0.0567495
0.0512716
0.047628
0.0448824
0.0421989
0.0410899
0.0403146
0.0411065
0.0422358
0.0446817
0.0472131
0.050465
0.0556827
0.0663688
0.0827243
0.115688
0.156913
0.219699
0.35987
0.364468
0.215409
0.153738
0.12706
0.0861441
0.0661388
0.0541422
0.0478419
0.0441115
0.0413799
0.0394084
0.0379414
0.0374564
0.0380036
0.0394862
0.0413425
0.0437826
0.0472762
0.0530053
0.0654959
0.0850462
0.126545
0.154711
0.213837
0.359352
0.364661
0.210011
0.149256
0.127752
0.0898395
0.0657923
0.0525163
0.0456718
0.0417494
0.0391469
0.0366323
0.0356763
0.0349692
0.0357579
0.036729
0.0390479
0.0415365
0.0451791
0.0517089
0.0657293
0.0897138
0.127848
0.150164
0.209992
0.35732
0.363423
0.207565
0.142298
0.126938
0.0964787
0.0669833
0.0519814
0.0436725
0.0391637
0.036333
0.0345316
0.0332495
0.0328061
0.0333398
0.0346772
0.0364169
0.0390142
0.0434372
0.0511672
0.0664228
0.097054
0.127409
0.141549
0.205367
0.358708
0.35818
0.205289
0.135723
0.125957
0.107968
0.0696052
0.0518212
0.0430537
0.0377762
0.0349388
0.0324515
0.0315919
0.030908
0.0316505
0.0325339
0.0348651
0.0376312
0.0427813
0.0510363
0.0690966
0.109057
0.12556
0.133893
0.203742
0.356529
0.357157
0.203445
0.129868
0.121747
0.107593
0.0744939
0.0526349
0.0426333
0.0364305
0.0327962
0.0308683
0.029686
0.0292514
0.0297248
0.0310239
0.032862
0.03633
0.0425593
0.0523931
0.0748265
0.108945
0.122086
0.129602
0.203157
0.352667
0.35057
0.20249
0.125936
0.116055
0.107004
0.0831201
0.0543059
0.0428308
0.0362752
0.0323138
0.0293791
0.0284632
0.0277763
0.0285151
0.0294416
0.0322578
0.0361183
0.0426519
0.0547157
0.0835572
0.107763
0.115941
0.124855
0.200847
0.349263
0.344317
0.202798
0.124294
0.110443
0.104246
0.088156
0.0586866
0.043722
0.0360817
0.0307924
0.028361
0.0269869
0.0265159
0.0270419
0.0284918
0.0309497
0.0359542
0.0434527
0.0599529
0.0881941
0.103851
0.110099
0.122526
0.200858
0.344839
0.339054
0.199076
0.121837
0.106259
0.100051
0.0883332
0.0650754
0.0458047
0.0363046
0.0314295
0.0277166
0.0263116
0.0254772
0.0263487
0.0277971
0.0314559
0.0362675
0.046014
0.068499
0.087859
0.0987215
0.105682
0.121555
0.199195
0.335755
0.333904
0.198646
0.121801
0.102306
0.094252
0.0870663
0.075231
0.0506862
0.0371414
0.030776
0.0276987
0.0255807
0.0248293
0.0256324
0.0277716
0.0308937
0.0371762
0.0506541
0.0729402
0.0864101
0.0930509
0.101882
0.120856
0.197182
0.332983
0.324632
0.195176
0.121539
0.100628
0.090906
0.0849014
0.0756433
0.0587844
0.0396733
0.0318895
0.0276537
0.0257786
0.0245123
0.0258002
0.0276793
0.0317684
0.0396619
0.0578178
0.0729723
0.083058
0.0894832
0.0993896
0.120154
0.194393
0.323825
0.31819
0.19228
0.120917
0.0988132
0.0873783
0.0812398
0.0747205
0.0640205
0.0444505
0.0321875
0.0278058
0.0255349
0.0245069
0.0255693
0.0279712
0.0323195
0.0449852
0.0635606
0.0722941
0.0795572
0.0861648
0.098292
0.120487
0.192511
0.316117
0.297854
0.185007
0.119038
0.0982092
0.0858579
0.0780774
0.0727472
0.0643205
0.0514329
0.0356489
0.0282572
0.0259363
0.0245995
0.0259469
0.028457
0.0356773
0.0523752
0.0637012
0.0703789
0.076524
0.0848073
0.0971446
0.118559
0.18479
0.294525
0.271318
0.17554
0.116696
0.0962501
0.0839977
0.0755478
0.0694951
0.0635795
0.056313
0.0396486
0.0299686
0.0260643
0.0249264
0.026061
0.0302469
0.0395991
0.0554556
0.0628911
0.0675925
0.0742911
0.0831454
0.0956572
0.115622
0.174881
0.269803
0.107679
0.258503
0.314952
0.33233
0.336244
0.338989
0.342382
0.346741
0.352089
0.358313
0.366321
0.37656
0.389386
0.404375
0.420826
0.438092
0.455942
0.472278
0.481439
0.461634
0.369069
0.317589
0.302931
0.299443
0.298431
0.298161
0.297815
0.296324
0.280234
0.130816
0.0878717
0.25224
0.312657
0.331051
0.334666
0.337394
0.341294
0.346467
0.352635
0.359351
0.367409
0.377677
0.390931
0.407066
0.42586
0.446844
0.469333
0.492934
0.51502
0.533217
0.522074
0.387068
0.315778
0.299025
0.295508
0.29462
0.293815
0.289398
0.257823
0.105052
0.0864543
0.253345
0.309826
0.326446
0.328807
0.332229
0.336725
0.342852
0.34973
0.356872
0.364786
0.374861
0.388162
0.404535
0.424783
0.448479
0.473476
0.498863
0.524283
0.547598
0.564458
0.530103
0.370614
0.309987
0.296776
0.29407
0.292547
0.286098
0.247131
0.0948208
0.0871235
0.252047
0.30703
0.321432
0.323784
0.327278
0.331683
0.338373
0.346286
0.354432
0.362721
0.372935
0.386965
0.40415
0.424287
0.447433
0.474621
0.503325
0.530006
0.555094
0.576338
0.586422
0.522345
0.353375
0.303617
0.293857
0.290909
0.28337
0.242227
0.0912928
0.086534
0.25112
0.30627
0.319979
0.322714
0.326463
0.331191
0.338322
0.346587
0.355296
0.363868
0.373893
0.388052
0.405761
0.42632
0.449109
0.474129
0.502621
0.533835
0.560704
0.58244
0.602844
0.606054
0.499536
0.33768
0.298602
0.290736
0.281992
0.240241
0.089819
0.0864171
0.252607
0.307194
0.320384
0.323666
0.327986
0.333447
0.341286
0.350215
0.359526
0.368277
0.376997
0.390647
0.408248
0.42881
0.451058
0.475258
0.501803
0.531453
0.562128
0.588322
0.610579
0.631258
0.622595
0.462765
0.323646
0.294219
0.282029
0.239471
0.0888572
0.0873925
0.256065
0.310542
0.323716
0.327602
0.332432
0.338431
0.346788
0.356275
0.366105
0.375123
0.38317
0.393871
0.409747
0.430522
0.452294
0.475815
0.500848
0.528732
0.560392
0.591634
0.617538
0.641587
0.660973
0.631352
0.41828
0.31115
0.284311
0.239343
0.0880596
0.0887993
0.260594
0.315181
0.328953
0.333666
0.339566
0.346671
0.355545
0.365301
0.375043
0.383684
0.39095
0.398337
0.41132
0.430997
0.452875
0.476212
0.500923
0.52765
0.558041
0.591494
0.622931
0.649247
0.675044
0.689324
0.623094
0.377178
0.294597
0.240356
0.0874185
0.09008
0.265166
0.320093
0.335035
0.341556
0.348994
0.357418
0.366558
0.376048
0.385044
0.392872
0.398877
0.404203
0.413783
0.430733
0.453217
0.476639
0.501467
0.527803
0.556651
0.589622
0.624524
0.656042
0.683738
0.710131
0.712944
0.577236
0.337158
0.245479
0.0871091
0.0911104
0.269449
0.324975
0.341684
0.351603
0.361349
0.371026
0.380209
0.387956
0.394461
0.399902
0.404855
0.409437
0.416554
0.430569
0.452124
0.476207
0.501261
0.527733
0.55581
0.587484
0.623135
0.659419
0.691267
0.720677
0.745609
0.726158
0.491963
0.268717
0.0877283
0.0920743
0.273881
0.329904
0.348241
0.359793
0.370454
0.380372
0.389816
0.396066
0.400259
0.404112
0.40825
0.412308
0.417518
0.429091
0.448292
0.473361
0.498549
0.525502
0.553734
0.584799
0.619861
0.658488
0.696105
0.728656
0.759346
0.77725
0.706077
0.359801
0.0917194
0.0929359
0.278939
0.335195
0.353332
0.364476
0.374548
0.383783
0.392706
0.39891
0.401933
0.404337
0.406541
0.409732
0.412833
0.423989
0.440951
0.466038
0.491743
0.519309
0.548473
0.580055
0.614759
0.653773
0.695285
0.734028
0.767321
0.795848
0.791628
0.57205
0.107334
0.0940373
0.285053
0.340565
0.35682
0.365684
0.373452
0.381367
0.389297
0.39537
0.3979
0.399655
0.40049
0.402905
0.406226
0.413985
0.429878
0.453861
0.480604
0.508764
0.539071
0.571697
0.607009
0.646079
0.688983
0.733064
0.77235
0.803694
0.82795
0.751917
0.167033
0.0951438
0.29196
0.344861
0.356957
0.360805
0.36581
0.372258
0.378534
0.384063
0.3869
0.387388
0.388198
0.390908
0.394753
0.399237
0.414932
0.437422
0.465587
0.49426
0.525692
0.559298
0.595858
0.635443
0.678734
0.725351
0.771249
0.807298
0.845597
0.851697
0.275025
0.0968565
0.298982
0.345971
0.351059
0.349182
0.350488
0.354078
0.358824
0.363836
0.36615
0.366552
0.368075
0.371836
0.376441
0.381724
0.395278
0.416731
0.445777
0.475506
0.508202
0.542909
0.580914
0.621239
0.664838
0.712242
0.762079
0.800987
0.862619
0.951986
0.462067
0.098407
0.304116
0.341348
0.337174
0.328612
0.325814
0.326442
0.329531
0.333605
0.335714
0.337057
0.340051
0.345159
0.350888
0.358322
0.370433
0.391365
0.42103
0.452035
0.485918
0.521995
0.561226
0.602474
0.646976
0.694722
0.739933
0.797931
0.904869
1.10718
0.639524
0.100856
0.304024
0.327233
0.313187
0.298376
0.291747
0.289722
0.291309
0.294784
0.297258
0.299811
0.304575
0.311583
0.319285
0.328588
0.339836
0.361117
0.3914
0.423972
0.458889
0.49631
0.536131
0.578268
0.624194
0.672988
0.717985
0.795295
0.965835
1.30956
0.70022
0.102951
0.296482
0.302551
0.279756
0.259811
0.25019
0.24632
0.247463
0.250819
0.253705
0.257429
0.263953
0.272807
0.282583
0.293739
0.30473
0.326574
0.356902
0.391422
0.426965
0.465334
0.505632
0.548897
0.596399
0.646867
0.701511
0.804597
1.05956
1.52407
0.70837
0.105829
0.278039
0.26673
0.237641
0.21587
0.205703
0.202044
0.202781
0.205895
0.208651
0.214098
0.222151
0.232629
0.24403
0.256233
0.267636
0.288773
0.31865
0.354336
0.390578
0.429553
0.470978
0.515334
0.56398
0.614719
0.683741
0.820329
1.21555
1.80315
0.689324
0.107989
0.251918
0.227551
0.194802
0.173757
0.164923
0.162096
0.161928
0.163952
0.168419
0.1751
0.183535
0.193919
0.203881
0.213596
0.226633
0.246345
0.276357
0.312963
0.350436
0.390304
0.432883
0.478504
0.527859
0.579427
0.662755
0.845549
1.42163
1.81207
0.648571
0.110986
0.21881
0.18511
0.153005
0.13804
0.131919
0.128899
0.128128
0.131652
0.13702
0.143066
0.149964
0.157759
0.166909
0.178152
0.191605
0.208864
0.236579
0.272311
0.309094
0.349315
0.3923
0.438903
0.489113
0.546125
0.642635
0.883241
1.66515
1.67255
0.60716
0.115717
0.190246
0.153493
0.12342
0.11486
0.110834
0.108353
0.107583
0.110113
0.115647
0.11999
0.123989
0.130618
0.139717
0.150872
0.163427
0.178214
0.202918
0.235514
0.269822
0.308887
0.351388
0.397942
0.448686
0.510831
0.62446
0.946706
1.91948
1.53759
0.57793
0.116227
0.163831
0.122064
0.103341
0.0996387
0.0989026
0.0969914
0.0965602
0.0988739
0.101315
0.104095
0.107385
0.113081
0.120939
0.130746
0.141497
0.153958
0.175628
0.204456
0.234866
0.270924
0.311657
0.356829
0.407001
0.474931
0.613288
1.05866
1.93221
1.42229
0.554211
0.14096
0.150787
0.0999223
0.0937113
0.0922308
0.0933638
0.0917384
0.0919897
0.0936156
0.0936193
0.0948044
0.0982119
0.102749
0.108833
0.11676
0.125182
0.134613
0.151046
0.175547
0.204094
0.236693
0.274698
0.317467
0.364941
0.440012
0.614915
1.20611
1.83479
1.30618
0.537903
0.109709
0.0981586
0.0735374
0.0865075
0.0853369
0.0876634
0.0896117
0.0905304
0.0916846
0.0884075
0.0894609
0.0927279
0.0963442
0.100964
0.106456
0.111162
0.117315
0.128678
0.150018
0.176614
0.206715
0.241652
0.281503
0.328399
0.407788
0.630113
1.34605
1.70917
1.20067
0.526795
0.130815
0.280235
0.296324
0.297815
0.298161
0.298426
0.29942
0.302829
0.317123
0.367214
0.460034
0.480647
0.471696
0.455461
0.437667
0.420452
0.404047
0.389096
0.376297
0.366079
0.358088
0.351884
0.346555
0.342211
0.338826
0.336087
0.332178
0.31483
0.258417
0.107649
0.105052
0.257822
0.289398
0.293814
0.294615
0.295485
0.298918
0.315196
0.384555
0.520147
0.532357
0.514353
0.49238
0.468854
0.446427
0.425489
0.40673
0.390622
0.377384
0.367133
0.359091
0.3524
0.346255
0.341099
0.337206
0.334483
0.330874
0.312514
0.252178
0.0878688
0.0948193
0.247129
0.286096
0.292543
0.294052
0.296693
0.309502
0.368381
0.527177
0.563294
0.546809
0.523618
0.498298
0.472981
0.448056
0.424406
0.404178
0.387824
0.374532
0.364469
0.356568
0.349452
0.342596
0.336491
0.332012
0.328602
0.326245
0.309644
0.253229
0.0863953
0.0912922
0.242226
0.283367
0.290897
0.293793
0.303239
0.351507
0.518123
0.584947
0.575375
0.554277
0.529321
0.502741
0.474125
0.446981
0.42386
0.403748
0.386589
0.372551
0.362263
0.354002
0.345903
0.338069
0.331437
0.327048
0.323557
0.3212
0.306816
0.251928
0.087097
0.0898192
0.24024
0.281983
0.29069
0.298326
0.336144
0.494526
0.6043
0.601808
0.58148
0.559864
0.533149
0.502034
0.473587
0.448603
0.42585
0.405317
0.387632
0.373334
0.363402
0.354949
0.346291
0.338056
0.330948
0.326234
0.322481
0.319733
0.306028
0.250936
0.0864855
0.0888561
0.239464
0.281997
0.294036
0.322441
0.45743
0.620368
0.630186
0.609603
0.587375
0.561351
0.530792
0.501195
0.474696
0.45054
0.428337
0.407792
0.390208
0.376508
0.367957
0.35923
0.349951
0.341036
0.333208
0.32776
0.32344
0.320142
0.306948
0.252407
0.0863218
0.0880585
0.239325
0.284193
0.31029
0.41373
0.628317
0.659798
0.640679
0.616582
0.590824
0.559724
0.528106
0.500252
0.475261
0.451783
0.430068
0.409295
0.393473
0.382945
0.374906
0.365882
0.356081
0.346612
0.338255
0.332258
0.327435
0.323522
0.310358
0.25596
0.0874184
0.0874141
0.240287
0.294058
0.373728
0.61821
0.68795
0.674241
0.6484
0.62214
0.590879
0.557517
0.527145
0.500452
0.475781
0.452471
0.430664
0.410981
0.398318
0.390991
0.383813
0.374969
0.365224
0.355489
0.346614
0.339527
0.333607
0.328873
0.31511
0.260519
0.0887397
0.0870925
0.245189
0.335105
0.570235
0.71126
0.709433
0.68308
0.655315
0.624003
0.58925
0.556313
0.527491
0.501216
0.476435
0.453027
0.43062
0.413662
0.404168
0.398819
0.392801
0.385109
0.376021
0.366609
0.357621
0.349196
0.341744
0.335181
0.320265
0.265296
0.0900914
0.0876708
0.267535
0.485189
0.723982
0.745111
0.72027
0.690733
0.659025
0.62293
0.587347
0.555703
0.527694
0.501291
0.476299
0.452232
0.430716
0.416647
0.409322
0.404735
0.399686
0.394271
0.387462
0.380032
0.371719
0.362068
0.352273
0.342209
0.325455
0.26979
0.0911923
0.0914983
0.355368
0.702828
0.776741
0.759228
0.728377
0.695861
0.658464
0.619962
0.584924
0.553876
0.525721
0.498825
0.473715
0.448678
0.429416
0.417188
0.412031
0.407869
0.404012
0.400832
0.397297
0.391283
0.381832
0.371862
0.361145
0.349414
0.330772
0.27452
0.0921945
0.106597
0.565561
0.790531
0.795886
0.767363
0.733979
0.695438
0.654065
0.615082
0.580375
0.548822
0.519716
0.492163
0.466531
0.441435
0.423974
0.413229
0.410048
0.407565
0.405324
0.403427
0.400843
0.394842
0.38558
0.376133
0.365999
0.354797
0.336487
0.279946
0.0932205
0.164801
0.749441
0.828
0.804013
0.772578
0.733427
0.689473
0.646579
0.607488
0.572165
0.539546
0.509283
0.481114
0.454397
0.430404
0.412786
0.407593
0.404464
0.402175
0.400983
0.400186
0.398026
0.391701
0.383559
0.375197
0.367281
0.358392
0.342152
0.286362
0.0943958
0.27226
0.85031
0.846108
0.807835
0.771834
0.726068
0.67945
0.636061
0.596423
0.559854
0.52623
0.494835
0.466165
0.437959
0.415608
0.400748
0.396605
0.39277
0.39024
0.389454
0.389353
0.386924
0.380853
0.374364
0.367484
0.362385
0.358633
0.346592
0.293569
0.095621
0.459368
0.950953
0.862976
0.801922
0.763043
0.713151
0.665649
0.621929
0.581555
0.543548
0.508841
0.476204
0.446523
0.417467
0.396359
0.384004
0.378501
0.373978
0.370363
0.369158
0.369066
0.366426
0.360973
0.355817
0.351928
0.350519
0.35252
0.347706
0.300824
0.0974501
0.639302
1.10627
0.905417
0.799056
0.741218
0.695717
0.647864
0.603278
0.562006
0.52278
0.486718
0.452898
0.421977
0.392392
0.371995
0.360747
0.353144
0.347377
0.342414
0.340007
0.338753
0.33569
0.331197
0.327584
0.326766
0.329525
0.338294
0.342838
0.306106
0.0990578
0.701169
1.30998
0.966605
0.796508
0.719268
0.674068
0.625166
0.579231
0.537102
0.497274
0.459848
0.424956
0.392563
0.362445
0.34174
0.330932
0.321422
0.313965
0.307247
0.302484
0.299806
0.296172
0.292323
0.290049
0.291958
0.298845
0.313942
0.328843
0.305935
0.101376
0.709705
1.52704
1.06066
0.805962
0.702881
0.648149
0.597431
0.549954
0.506714
0.466442
0.428024
0.392371
0.358257
0.327992
0.306867
0.296037
0.284836
0.275411
0.266306
0.259665
0.25561
0.251525
0.247844
0.246114
0.250199
0.260187
0.28039
0.303966
0.298032
0.1034
0.690818
1.80993
1.21737
0.821792
0.685332
0.616737
0.565084
0.516389
0.472003
0.430613
0.391624
0.355365
0.320031
0.290269
0.269281
0.257956
0.245861
0.234825
0.224017
0.215906
0.210018
0.206103
0.202786
0.201741
0.205671
0.215839
0.238207
0.268023
0.27907
0.106285
0.649975
1.81793
1.42494
0.847384
0.664493
0.580571
0.52901
0.479517
0.433843
0.391234
0.351488
0.314193
0.277972
0.247967
0.228924
0.21571
0.20546
0.195412
0.184768
0.176471
0.168977
0.164125
0.161715
0.161657
0.164696
0.173631
0.195339
0.228696
0.252716
0.108418
0.608377
1.67748
1.67346
0.885805
0.643792
0.5472
0.490157
0.439779
0.393142
0.3501
0.310098
0.273402
0.238248
0.210975
0.194016
0.18027
0.16864
0.159248
0.150846
0.143676
0.136901
0.131509
0.128076
0.128722
0.131853
0.13762
0.152621
0.185095
0.219241
0.111457
0.579072
1.54182
1.92922
0.950098
0.625584
0.51172
0.449464
0.398633
0.352112
0.309733
0.270851
0.236597
0.204332
0.180225
0.165621
0.152793
0.141342
0.132277
0.124976
0.120544
0.115262
0.109943
0.107339
0.108159
0.110914
0.114974
0.122578
0.152356
0.190411
0.116373
0.555729
1.42538
1.93635
1.0642
0.614607
0.475627
0.407512
0.357404
0.312383
0.271904
0.235938
0.205423
0.176906
0.155729
0.143304
0.132322
0.122391
0.114418
0.108206
0.104799
0.101459
0.0987779
0.0965672
0.0969981
0.0991036
0.0992651
0.103272
0.12151
0.163738
0.116918
0.538215
1.30781
1.83597
1.21349
0.617047
0.440493
0.365062
0.317991
0.275362
0.237601
0.20506
0.177131
0.15282
0.135885
0.126859
0.118189
0.110119
0.103778
0.098839
0.0954254
0.0937549
0.0935373
0.0921818
0.0918849
0.0935327
0.0920947
0.0934751
0.0991141
0.150315
0.141916
0.52673
1.20089
1.70961
1.35642
0.632811
0.408351
0.329015
0.281949
0.242248
0.207746
0.177985
0.151746
0.131023
0.118756
0.112653
0.107733
0.102013
0.0970842
0.093206
0.0898049
0.0885873
0.0913729
0.0897562
0.0892042
0.0869065
0.0840967
0.0852597
0.0728734
0.097534
0.110527
0.0622519
0.062402
0.0625534
0.0627049
0.0628565
0.0630081
0.0631599
0.0633117
0.0634637
0.0636157
0.0637679
0.0639201
0.0640724
0.0642248
0.0643773
0.0645299
0.0646826
0.0648354
0.0649883
0.0651413
0.0652943
0.0654475
0.0656007
0.0657541
0.0659075
0.066061
0.0662146
0.0663684
0.0665222
0.066676
0.06683
0.0669841
0.0671383
0.0672925
0.0674468
0.0676013
0.0677558
0.0679104
0.0680651
0.0682199
0.0683748
0.0685297
0.0686848
0.0688399
0.0689951
0.0691505
0.0693059
0.0694614
0.069617
0.0697759
0.069994
0.0713778
0.0942798
0.276096
0.839113
1.70756
2.71416
3.16117
3.26406
3.25419
3.17272
2.97246
2.71356
2.48752
2.29444
2.1297
1.99727
1.89287
1.80601
1.73259
1.66875
1.60857
1.54774
1.48286
1.41645
1.35079
1.28454
1.21588
1.14644
1.08041
1.01849
0.961723
0.910328
0.863363
0.820285
0.78078
0.744888
0.712678
0.683425
0.656452
0.63139
0.608078
0.586509
0.56568
0.546512
0.529654
0.514865
0.502047
0.490954
0.481355
0.472939
0.465449
0.458863
0.453303
0.4489
0.445697
0.443656
0.442343
0.441453
0.441205
0.441595
0.44279
0.44472
0.447171
0.450338
0.454364
0.459385
0.465339
0.471302
0.477533
0.484507
0.492382
0.500896
0.509457
0.518014
0.210564
0.210815
0.211036
0.21125
0.211462
0.211673
0.211884
0.212094
0.212303
0.212512
0.212721
0.212929
0.213137
0.213344
0.213551
0.213757
0.213963
0.214168
0.214373
0.214577
0.214781
0.214984
0.215187
0.21539
0.215592
0.215793
0.215995
0.216195
0.216395
0.216595
0.216794
0.216993
0.217191
0.217389
0.217587
0.217784
0.21798
0.218176
0.218372
0.218567
0.218762
0.218956
0.219149
0.219343
0.219536
0.219728
0.21992
0.220112
0.220313
0.220731
0.218254
0.122845
0.254404
0.568942
0.797906
0.97239
1.16579
1.36453
1.61474
1.95133
2.52812
3.06482
3.28839
3.36794
3.38902
3.32635
3.19909
3.02064
2.80671
2.58442
2.38148
2.20295
2.04542
1.90703
1.7844
1.67693
1.58227
1.49779
1.42188
1.35017
1.28184
1.21762
1.15797
1.10215
1.0497
1.00194
0.958338
0.918182
0.881298
0.84767
0.817197
0.789493
0.76435
0.741076
0.719025
0.698334
0.681164
0.667446
0.656151
0.646408
0.637602
0.629774
0.623102
0.617678
0.613826
0.611848
0.611894
0.613772
0.617278
0.622677
0.629822
0.638918
0.64984
0.662868
0.678723
0.69784
0.720918
0.748474
0.781455
0.81893
0.861532
0.910305
0.966705
1.03262
1.10956
0.268366
0.268503
0.268622
0.268737
0.268849
0.268961
0.269073
0.269183
0.269293
0.269403
0.269512
0.26962
0.269728
0.269835
0.269941
0.270047
0.270153
0.270257
0.270362
0.270465
0.270568
0.270671
0.270773
0.270874
0.270975
0.271076
0.271175
0.271275
0.271373
0.271472
0.271569
0.271666
0.271763
0.271859
0.271955
0.27205
0.272144
0.272238
0.272332
0.272425
0.272517
0.272609
0.2727
0.272791
0.272882
0.272972
0.273062
0.273162
0.273537
0.264686
0.136256
0.337209
0.63344
0.754801
0.802265
0.857475
0.928134
1.00363
1.0874
1.18271
1.32457
1.53215
1.81368
2.19625
2.689
3.34012
3.82203
4.04486
4.12662
4.07225
3.85255
3.47463
3.08209
2.72618
2.4252
2.19635
2.02331
1.87787
1.75001
1.63688
1.53787
1.4492
1.36918
1.29698
1.23174
1.17231
1.11866
1.07013
1.02599
0.985579
0.948964
0.915468
0.88448
0.855727
0.829597
0.805455
0.784196
0.767225
0.752236
0.739299
0.728384
0.719069
0.711238
0.705367
0.70178
0.700656
0.701925
0.704971
0.710006
0.717555
0.726721
0.738379
0.754741
0.776905
0.804087
0.836902
0.874529
0.918841
0.983387
1.05985
1.14263
1.2361
1.34131
1.46008
1.58696
0.285036
0.285082
0.285121
0.285157
0.285194
0.285229
0.285265
0.2853
0.285335
0.285369
0.285403
0.285437
0.285471
0.285504
0.285537
0.28557
0.285602
0.285634
0.285666
0.285698
0.285729
0.28576
0.28579
0.285821
0.285851
0.285881
0.285911
0.28594
0.285969
0.285998
0.286026
0.286055
0.286083
0.286111
0.286138
0.286166
0.286193
0.286219
0.286246
0.286272
0.286299
0.286325
0.28635
0.286376
0.286401
0.286426
0.286461
0.286759
0.274986
0.139419
0.38007
0.666382
0.758555
0.782391
0.796886
0.820862
0.846238
0.863091
0.881267
0.905004
0.942628
0.998396
1.07193
1.15815
1.25366
1.35332
1.47513
1.63878