/*--------------------------------*- C++ -*----------------------------------*\
| =========                 |                                                 |
| \\      /  F ield         | OpenFOAM: The Open Source CFD Toolbox           |
|  \\    /   O peration     | Version:  2112                                  |
|   \\  /    A nd           | Website:  www.openfoam.com                      |
|    \\/     M anipulation  |                                                 |
\*---------------------------------------------------------------------------*/
FoamFile
{
    version     2.0;
    format      ascii;
    arch        "LSB;label=32;scalar=64";
    class       volScalarField;
    location    "0.00294";
    object      k;
}
// * * * * * * * * * * * * * * * * * * * * * * * * * * * * * * * * * * * * * //

dimensions      [0 2 -2 0 0 0 0];

internalField   nonuniform List<scalar> 
13875
(
812.065
3462.71
3540.06
3539.53
3542.61
3540.38
3540.85
3540.92
3540.51
3541.53
3541.6
3541.55
3539.36
3540.22
3541.48
3539.95
3542.44
3541.96
3540.86
3538.58
3541.13
3539.3
3539.86
3460.82
820.612
881.772
2936.74
3012.93
3000.9
3000.99
2997.36
2996.91
2996.98
2997.77
2999.19
2999.33
2998.91
2997.59
2998.22
2998.88
2997.99
2999.85
2997.06
2997.05
2996.51
2999.54
2999.31
3011.53
2934.68
894.542
993.35
2711
2777.45
2755.45
2756.73
2753.83
2752.84
2751.93
2745.26
2746.17
2747.32
2747.78
2754.1
2754.7
2748.25
2745.47
2746.91
2745.89
2752.38
2753.7
2755.73
2752.89
2774.42
2707.57
998.206
1091.09
2533.82
2581.01
2561.59
2564.62
2562
2560.67
2559.66
2550.19
2550.6
2552.48
2553.58
2561.44
2562.03
2554.65
2550.39
2551.42
2553.33
2560.58
2562.12
2563.86
2559.11
2579.05
2530.28
1093.73
1172.17
2380.59
2413.2
2392.83
2395.75
2393.39
2392.08
2390.77
2381.31
2381.19
2383.35
2384.11
2392.73
2393.23
2385.19
2381.31
2382.13
2385.06
2392.05
2393.75
2395.3
2390.8
2410.44
2375.92
1177.12
1241.17
2237.39
2271.06
2244.85
2248.71
2245.78
2244.02
2241.98
2232.25
2231.47
2233.89
2234.64
2243.53
2244.41
2235.4
2231.69
2232.58
2236.94
2243.85
2246.44
2248.55
2243.5
2267.86
2247.42
1247.11
1321.28
2122.2
2158.45
2120.34
2120.72
2116.2
2113.35
2110.24
2100.42
2098.79
2101.33
2102.3
2111.12
2112.41
2102.65
2099.09
2100.13
2106.23
2113.21
2116.91
2120.6
2119.65
2154.28
2095.89
1323.56
1410.84
2001.89
2074.31
2020.27
2014.68
2005.84
2000.22
1995.11
1985.02
1981.92
1984.19
1985.49
1994.3
1996.29
1985.71
1982.03
1983.8
1991.86
1999.63
2006.07
2013.98
2019.2
2068.62
1992.91
1421.04
1693.67
2030.54
2023.38
1946.32
1925.65
1912.44
1903.66
1896.06
1885.68
1881.02
1882.5
1884.36
1893.22
1895.97
1884.83
1880.81
1883.78
1893.56
1902.71
1912.28
1925.58
1944.08
2019.29
2035.24
1718.96
2515.92
2292.62
2022.1
1902.05
1868.55
1844.17
1830.68
1819.99
1809.82
1804.44
1804.65
1806.76
1815.52
1818.82
1808.31
1804.23
1807.69
1817.94
1828.76
1842.68
1866.33
1899.2
2015.7
2270.45
2531.83
3892.12
3038.27
2163.56
1934.25
1843.35
1806.62
1786.28
1772
1761.98
1756.25
1755.12
1756.79
1765
1768.51
1760.11
1756.91
1760.51
1770.12
1783.89
1802.9
1841.25
1928.14
2147.08
2955.06
3873.29
5179.36
6444.08
2952.76
2043.85
1911.89
1824.7
1783.55
1763.53
1751.07
1744.29
1742.08
1742.45
1748.87
1752.77
1747.27
1746.58
1751.4
1762.6
1782.17
1822.12
1903.93
2023.08
2874.77
6339.53
5128.23
5049.97
7169.5
7499.11
3779.12
2171.04
1928.12
1871.94
1842.28
1831.93
1824.47
1822.12
1821.57
1825.79
1830.01
1827.34
1829.44
1836.12
1846.07
1874.25
1945.03
2227.66
3612.5
7179.26
7195.86
5020.43
4814.77
6086.41
7408.97
9807.01
5485.85
2739.6
2437.01
2224.28
2163.62
2138.73
2132.57
2128.91
2137.41
2139.9
2142.68
2150.91
2181.35
2253.98
2492.6
2888.85
5999.51
8893.44
7171.68
6117.47
4867.18
4640.39
5403.3
6293.47
7806.57
6942.31
5881.25
6163.79
5281.72
4993.46
5057.09
5177.97
5144.06
5246.19
5190.02
5208.72
5099.64
5056
5397.15
6462.15
5889.52
6994.48
7378.58
6194.51
5438.24
4790.44
4441.54
4908.89
5829.9
7138.69
7326
8838.22
7885.92
6380.7
6444.72
6746.36
6831.65
6882.17
6902.68
6908.42
6856.49
6778.65
6417.06
6332.07
7719.34
8925.85
7405.38
6895.53
5726.32
4924.81
4588.73
4171.9
4682.19
5656.57
7028.54
7404.69
8934.26
6811.5
5226.13
5182.39
5223.72
5298.75
5319.21
5337.34
5337.15
5325.54
5261.99
5162.21
5188.74
6503.66
9165.76
7433.86
6809.47
5675.07
4654.14
4187.67
3655.01
4783.75
5822.38
6199.12
6375.81
7526.5
6057.77
4727.4
4521.88
4456.1
4435.21
4414.93
4426.47
4427.22
4461.85
4484.68
4500.94
4716.19
5964.05
7566.5
6297.47
6030.02
5840.7
4801.02
3638.22
3114.03
4905.45
5536.48
5415.02
5320.79
6043.19
5686.63
4788.15
4286.95
4009.9
3860.81
3787.1
3779.7
3786.17
3857.41
3977.37
4192.52
4686.8
5625.27
6064.9
5237.59
5320.24
5514.02
4952.69
3125.72
2904.68
4867.55
4876.11
4759.52
4645.44
5110.43
5225.98
4749.42
4182.16
3747.91
3478.66
3344.09
3314.89
3342.9
3471.57
3715.52
4119.49
4696.29
5190.26
5088.09
4589.02
4711.81
4873.37
4745.93
2897.71
3270.37
4232.27
4280.58
4207.9
4126.94
4503.9
4753.86
4475.13
3952.41
3479.75
3149.69
2971.65
2928.09
2977.95
3157.01
3474.91
3933.21
4457.05
4729.25
4478.73
4095.84
4188.15
4235.61
4099.53
3242.38
4312.15
4345.47
3888.71
3806.64
3736.16
4059.62
4311.82
4124
3663.35
3197.33
2847.1
2649.36
2595.69
2656.55
2856.89
3198.12
3650.62
4105.02
4287.27
4046.65
3717.8
3793.27
3819.61
4229.84
4321.83
5032.52
4786.7
3611.83
3447.46
3405.87
3679.59
3900.3
3754.78
3349.43
2914.06
2569.67
2368.56
2309.78
2369.85
2569.49
2903.25
3323.14
3722.58
3868.86
3666.63
3385.35
3429.17
3525.85
4708.23
5055.43
5188.4
4781.22
3329.4
3148.28
3114.24
3320.61
3518.43
3399.09
3025.21
2624.78
2306.86
2119.52
2064.76
2124.07
2313.07
2623.5
3006.56
3371.9
3491.45
3306.18
3105.2
3143.36
3266.35
4689.13
5159.68
5262.9
4680.2
3092.16
2906.75
2863.69
3011.96
3181.59
3074.55
2736.52
2372.37
2079.02
1907.1
1857.53
1912.7
2087.17
2375.32
2723.46
3050.29
3157.06
2996.9
2855.65
2905.97
3048.27
4646.37
5222.63
5334.27
4597.93
2924.46
2716.76
2651.29
2753.71
2885.2
2778.81
2475.35
2148.95
1883.23
1726.31
1679.87
1730.66
1887.88
2147.69
2456.64
2747.06
2855.37
2737.45
2638.59
2710.63
2886.01
4571.55
5279.71
5405.44
4526.83
2783.68
2556.98
2473.15
2532.2
2616.59
2504.93
2234.99
1946.21
1708.81
1570.01
1528.48
1575.49
1718.34
1953.69
2229.31
2486.43
2597.07
2521.17
2461.98
2557
2764.76
4568.21
5363.98
5509.46
4487.36
2680.85
2416.64
2327.5
2349
2388.74
2270.27
2028.43
1772.8
1561.49
1437.02
1398.36
1441.69
1569.29
1777.8
2020.44
2249.27
2366.31
2338.17
2317.06
2415.9
2660.48
4487.17
5465.15
5696.22
4397.44
2584.32
2287.97
2198.7
2192.81
2191.03
2067.65
1850.42
1622.83
1433.78
1321.98
1285.85
1325.09
1437.21
1621.43
1836.04
2040.08
2162.24
2179.13
2187.51
2285.47
2564.56
4325.02
5568.71
5767.48
4280.49
2500.83
2170.92
2076.19
2051.49
2013.06
1881.99
1684.76
1484.58
1319.15
1221.05
1188.14
1225.33
1326.62
1490.21
1680.77
1866.91
1993.26
2042.16
2068.11
2170.81
2488.31
4253.33
5746.14
5732.48
4179.31
2444.58
2077.4
1962.97
1923.55
1861.99
1729.66
1549.11
1369.21
1221.27
1133.35
1102.89
1137.14
1226.21
1371.18
1542.06
1712.34
1840.55
1911.95
1952.15
2075.66
2422.37
4152.67
5730.48
5704.78
4106.23
2399.35
2010.73
1859.5
1807.27
1732.51
1598.38
1431.38
1268.67
1136.57
1057.11
1028.25
1060.11
1139.28
1267.51
1421.34
1578.5
1708.39
1792.84
1848.15
2003.2
2373.94
4057.57
5654.17
5628.45
3974.75
2384.8
1957.56
1769.35
1697.05
1611.95
1479.93
1326.08
1178.38
1059.6
988.854
962.484
992.598
1063.9
1179.88
1320.78
1465.71
1592.74
1684.27
1758.47
1946.41
2349.11
3990.27
5627.88
5605.7
3850.94
2373.41
1927.51
1695.44
1601.42
1507.44
1379.44
1235.42
1100.76
994.029
929.635
904.447
932.685
996.782
1100.34
1228.79
1364.4
1487.15
1587.66
1683.72
1909.26
2360.89
3881.02
5574.74
5592.05
3761
2322.29
1909.33
1641.02
1517.01
1413.63
1290.77
1157.59
1034
935.539
876.82
853.127
879.421
937.238
1032.23
1150.11
1275.56
1392.59
1502.46
1629.28
1895.74
2345.19
3765.63
5526.08
5521.5
3620.69
2243.8
1895.53
1602.52
1445.21
1330.31
1209.06
1084.8
971.801
883.166
829.839
807.547
832.945
886.452
972.759
1081.04
1198.54
1312.2
1432.58
1590.8
1893.72
2280.24
3675.11
5480.52
5476.35
3507.48
2171.16
1915.29
1578.44
1390.48
1258.48
1138.35
1022.59
918.78
836.881
787.781
766.766
790.793
839.259
919.136
1018.42
1128.11
1240.2
1376.82
1564.98
1915.33
2196.08
3533.31
5414.85
5457.37
3405.12
2100.54
1910.62
1574.47
1349.48
1200.53
1077.63
966.673
870.222
795.686
750.392
730.326
753.322
797.653
870.101
962.343
1068.32
1184.24
1336.55
1564.82
1912.84
2109.79
3404.38
5386
5406.78
3286.39
2002.35
1857.17
1579.25
1318.54
1155.27
1024.32
916.157
826.226
757.509
715.851
697.308
719.423
760.373
827.982
914.475
1018.29
1142.66
1306.99
1577.81
1868.63
2016.47
3299.77
5377.54
5379.19
3197.61
1906.02
1799.1
1623.53
1306.11
1122.13
983.163
873.049
787.432
723.884
685.225
667.376
688.484
726.305
788.692
871.083
977.889
1110.26
1292.06
1623.81
1808.2
1909.25
3193.82
5332
5361.22
3141.45
1829.49
1731.59
1635.96
1313.39
1098.31
952.668
837.785
753.715
693.343
657.021
640.077
659.876
695.336
754.412
835.576
947.547
1087.95
1305.41
1639.29
1738.97
1816.91
3118.96
5299.7
5312.59
3075.2
1748.14
1652.84
1594.15
1346.32
1084.26
927.126
809.502
724.221
665.629
631.353
615.171
634.495
668.081
725.706
808.419
924.083
1082.46
1354.37
1592.06
1662.59
1758.72
3075.07
5285.51
5275.61
3025.2
1689.56
1575.4
1536.88
1390.15
1094.07
909.896
789.611
699.427
641.382
607.876
592.33
610.964
643.417
701.024
787.69
905.899
1099.52
1393.33
1529.95
1582.7
1688.68
3014.59
5243.47
5249.84
2993.52
1659.11
1508.25
1471.92
1382.82
1136.39
904.158
772.669
680.966
621.569
587.493
571.824
590.34
623.513
682.613
770.364
901.277
1158.37
1381.84
1459.34
1511.86
1642.02
2964.89
5213.03
5224.01
2932.87
1612.01
1446.35
1403.24
1340.43
1209.95
918.591
761.117
667.557
607.125
570.58
554.398
573.509
608.948
669.323
759.739
929.379
1217.02
1336.66
1388.99
1451.77
1620.2
2931.83
5191.88
5197.48
2886.41
1592.11
1395.01
1340.79
1294.55
1236.85
990.716
760.67
656.771
596.596
558.777
540.746
561.465
597.86
657.686
759.415
992.937
1215.19
1285.79
1327.27
1397.36
1588.88
2876.5
5173.67
5173.58
2852.06
1582.51
1355.23
1288.89
1245.37
1201.76
1061.96
796.807
650.241
586.678
549.447
530.246
551.837
588.026
650.435
792.786
1059.24
1181.56
1232.75
1275.69
1354.4
1566.78
2828.82
5143.65
5107.81
2784.8
1555.13
1319.01
1243.29
1196.57
1161.71
1074.52
870.116
658.454
578.712
540.963
521.893
543.238
580.854
663.055
872.788
1069.76
1143.82
1184.82
1231.98
1320.99
1557.78
2786.23
5068.1
4984.57
2706.12
1529.44
1286.36
1204.41
1153.53
1117
1050.44
937.202
700.424
577.822
533.697
514.698
535.698
580.733
705.282
928.802
1044.44
1101.79
1142.34
1194.86
1287.94
1529.62
2703.14
4941.34
4609.73
2572.64
1498.85
1251.96
1169.12
1115.49
1073.85
1020.08
948.171
779.935
599.253
531.495
510.83
532.899
602.943
778.729
929.404
1012.72
1061.01
1105.57
1160.38
1252.23
1492.99
2559.74
4576.23
510.089
645.453
684.405
693.065
692.433
692.176
694.613
700.735
710.27
723.349
740.465
761.405
785.939
813.571
843.833
876.546
912.236
950.579
988.57
1002.01
901.485
820.154
800.345
795.085
792.832
791.265
789.657
786.843
772.891
683.603
391.228
578.403
633.064
648.592
651.501
654.91
660.926
670.716
683.742
699.72
718.552
740.127
764.469
791.296
820.481
852.097
886.163
923.152
962.272
1002.9
1003.34
806.861
679.075
653.68
648.576
646.469
644.313
638.894
607.652
450.178
353.466
551.469
605.807
622.363
625.826
632.177
641.226
654.627
670.887
689.582
710.012
732.379
756.961
783.351
812.256
843.565
875.833
908.48
941.507
973.537
1000.98
959.64
718.885
608.979
590.438
586.94
584.753
578.258
541.697
374.006
344.836
541.734
594.525
610.965
615.452
623.924
635.088
651.505
671.249
693.288
716.021
740.013
766.246
793.917
822.898
853.09
885.642
919.334
951.451
982.062
1009.63
1027.29
940.709
669.62
579.603
566.828
563.645
556.655
519.483
352.458
342.852
539.948
592.761
609.784
615.502
626.2
639.807
659.074
681.598
706.346
731.162
756.571
784.23
813.185
843.018
873.345
903.956
935.878
969.876
1001.05
1027.97
1054.46
1064.09
913.855
635.999
567.41
558.096
550.106
512.89
346.304
343.376
541.258
593.709
610.396
618.071
631.416
648.447
671.195
697.039
724.613
751.511
777.403
806.187
836.141
866.498
896.505
926.671
957.218
988.825
1021.13
1050.88
1077.99
1105.74
1100.71
865.179
608.943
560.972
548.934
511.03
343.777
346.812
544.946
597.529
614.564
624.885
641.403
662.309
688.92
718.41
748.95
778.099
805.039
832.314
861.572
892.601
921.942
951.261
980.362
1010.18
1042.1
1074.52
1104.11
1133.47
1162.03
1128.28
796.098
587.341
551.275
510.681
342.087
350.916
550.215
603.225
621.913
635.834
656.898
682.862
713.737
746.764
779.709
810.318
837.689
862.562
889.744
920.074
949.27
977.823
1006.27
1035.05
1065.44
1098.24
1131.24
1161.99
1194.64
1220.79
1131.66
722.722
566.085
511.832
340.829
354.884
556.058
610.24
632.039
651.641
678.733
710.708
745.941
781.909
816.39
847.497
874.022
896.988
921.107
948.899
978.604
1006.51
1034.45
1062.6
1091.57
1123.25
1157.72
1192.15
1225.78
1261.86
1277.45
1082.16
651.667
518.947
340.384
358.321
562.042
618.509
645.267
673.493
708.432
747.004
786.532
823.615
856.951
886.249
911.386
933.212
954.593
979.336
1007.94
1035.91
1063.25
1091.02
1119.21
1149.78
1184.11
1221.52
1258.54
1296.31
1334.71
1323.75
964.684
563.066
342.397
362.228
569.131
628.863
662.075
698.7
740.834
785.107
828.572
865.99
897.594
924.994
948.201
968.573
986.968
1008.77
1034.66
1063.33
1090
1117.65
1145.93
1176.31
1210.28
1249.04
1290.51
1331.26
1373.66
1410.17
1328.52
766.962
354.742
366.047
577.962
642.42
682.54
726.907
775.024
823.451
868.647
906.723
936.636
960.897
980.153
997.941
1012.5
1033.18
1056.5
1085.03
1111.8
1139.65
1168.84
1200.15
1234.51
1273.84
1318.07
1364.39
1409.75
1454.91
1473.89
1180.08
411.494
371.797
590.372
660.539
707.9
758.781
810.493
860.832
905.501
942.64
970.02
990.745
1006.13
1020.88
1034.02
1049.39
1071.55
1098.85
1126.86
1155.21
1185.77
1218.51
1254.3
1294.52
1340.09
1390.76
1442.25
1490.53
1536.51
1474.6
637.976
377.695
606.478
683.409
737.409
791.35
844.252
893.834
934.991
968.855
992.909
1008.55
1021.18
1033.7
1045.55
1055.69
1077.66
1103.59
1133.88
1163.04
1195.36
1229.76
1267.75
1309.53
1356.33
1409.46
1466.46
1520.3
1580.1
1616
983.779
388.059
628.514
710.939
768.549
822.085
871.803
915.702
950.928
979.552
998.056
1009.83
1020.26
1031.34
1042.42
1052.72
1072.07
1097.58
1130.02
1161.23
1195.98
1232.77
1273.53
1317.32
1365.73
1420.59
1480.26
1538.83
1627.59
1787.47
1429.16
398.585
655.376
740.687
797.417
844.709
885.907
920.628
947.547
968.862
981.89
991.16
1000.5
1011.05
1022.32
1035.05
1052.71
1078.97
1113.74
1148.1
1185.77
1225.8
1269.42
1315.67
1366.5
1423.29
1478.61
1558.45
1704.74
2104.14
1752.67
417.538
685.847
769.294
817.181
852.239
880.988
904.465
921.909
936.151
944.555
951.698
960.733
972.318
985.584
1000.83
1017.67
1046.09
1083.73
1122.47
1163.55
1207.37
1253.64
1303
1357.08
1416.54
1474.57
1577.77
1819.13
2504.39
1874.55
433.794
715.053
789.256
822.874
841.652
856.054
868.466
878.283
886.969
890.234
895.074
904.436
917.586
933.572
951.672
968.445
999.681
1039.63
1083.93
1128.28
1176.02
1225.47
1278.96
1337.35
1400.82
1471.65
1609.35
1999.26
2888.37
1915.95
459.027
738.544
794.697
809.043
815.013
820.264
826.997
831.121
831.768
827.468
831.004
841.121
855.917
873.706
893.432
910.498
942.235
984.058
1033.01
1081.01
1132.78
1186.75
1244.48
1307.15
1373.63
1463.66
1652.76
2280.31
3248.01
1908.4
477.18
757.119
791.221
791.805
794.672
800.625
807.173
800.274
788.342
777.907
778.611
785.58
795.978
809.135
822.36
841.997
872.133
917.64
970.559
1023.93
1080.09
1139.05
1201.59
1268.25
1338.8
1449.43
1719.25
2645.11
3244.21
1865.67
508.774
767.82
789.302
793.548
827.994
839.307
838.611
817.737
792.208
765.73
753.186
747.201
744.484
748.75
760.624
779.97
806.657
851.03
906.091
961.365
1021.15
1084.13
1151.27
1222.31
1302.15
1435.68
1820.18
3031.85
3076.78
1816.03
543.827
810.609
842.039
916.699
985.797
994.22
976.183
928.182
868.696
809.099
770.89
739.183
721.302
716.918
723.391
736.894
756.544
795.65
846.874
899.821
960.082
1025.48
1095.56
1170.47
1259.92
1427.69
1975.25
3347.89
2911.07
1776.51
620.841
896.089
1049.16
1202.21
1284.92
1267.44
1237.87
1152.11
1034.74
918.465
836.324
776.693
738.474
717.276
711.024
713.587
723.013
754.675
798.488
844.97
901.749
966.453
1037.31
1114.25
1214.94
1436.73
2227.12
3377.49
2767.99
1738.92
721.552
1329.2
1429.59
1566.55
1629.79
1637.35
1626.94
1488.35
1300.65
1104.52
959.434
863.573
797.394
750.676
724.621
711.535
707.758
725.218
758.171
798.771
849.789
910.868
979.74
1055.34
1170.9
1475.3
2514.72
3276.1
2631.43
1708.41
982.139
2145.95
1970.31
1957.13
2012.31
2024.63
2061.45
1933.45
1675.42
1377.52
1147.58
1001.66
903.688
823.443
767.014
726.472
700.047
699.111
723.456
760.928
805.731
861.774
926.538
1002.98
1132.51
1555.23
2745.74
3134.65
2510.45
1682.43
683.605
772.894
786.848
789.663
791.271
792.836
795.07
800.225
819.475
898.676
1000.29
987.822
949.94
911.637
875.981
843.317
813.118
785.552
761.077
740.187
723.146
710.125
700.64
694.554
692.142
692.416
693.058
684.401
645.544
510.263
450.177
607.651
638.894
644.312
646.464
648.552
653.549
678.109
802.446
1000.27
1001.55
961.139
922.119
885.215
851.232
819.694
790.588
763.844
739.578
718.081
699.328
683.425
670.468
660.727
654.743
651.356
648.463
632.966
578.376
391.268
374.004
541.696
578.257
584.75
586.924
590.344
608.219
714.714
955.089
998.941
971.939
940.065
907.176
874.644
842.493
811.282
782.459
756.157
731.659
709.38
689.037
670.43
654.249
640.918
631.92
625.6
622.156
605.623
551.342
353.39
352.456
519.482
556.653
563.633
566.758
579.045
665.917
934.231
1024.66
1007.64
980.257
949.825
917.857
884.3
851.851
821.752
792.868
765.302
739.145
715.165
692.545
670.629
651.033
634.729
623.627
615.188
610.717
594.297
541.589
344.725
346.303
512.889
550.097
558.047
567.032
632.919
905.83
1060.93
1052.25
1025.86
999.107
968.122
934.268
902.455
871.955
841.738
812.006
783.166
755.46
730.231
705.617
681.003
658.592
639.421
625.887
615.225
609.521
592.512
539.749
342.705
343.775
511.023
548.901
560.737
606.61
856.029
1096.72
1103.35
1075.67
1048.65
1019.1
986.948
955.464
925.034
894.981
865.088
834.822
804.984
776.24
750.586
723.811
696.373
670.646
648.004
631.065
617.78
610.122
593.456
541.036
343.234
342.084
510.66
551.134
585.793
787.396
1122.93
1159.45
1131.07
1101.69
1072.28
1040.02
1008.22
978.507
949.516
920.306
891.093
860.138
831.042
804.008
777.154
748.11
717.709
688.356
661.86
641.054
624.622
614.325
597.331
544.817
346.788
340.818
511.75
565.201
715.556
1123.71
1218.01
1192.31
1159.54
1128.87
1096.05
1063.38
1033.11
1004.44
976.101
947.632
918.58
888.301
861.543
836.784
809.608
778.911
746.069
713.205
682.463
656.628
635.64
621.762
603.118
550.116
350.803
340.342
518.511
647.096
1070.79
1274.25
1259.68
1223.45
1189.72
1155.46
1121.15
1089.59
1060.77
1032.75
1004.93
977.086
947.52
919.764
895.785
872.829
846.421
815.576
781.132
745.402
710.503
678.654
651.653
632.083
610.346
556.162
354.868
342.24
560.539
952.332
1319.81
1332.96
1294.33
1256.28
1219.31
1182.04
1147.82
1117.41
1089.4
1061.8
1034.6
1006.69
978.184
953.413
931.805
909.955
884.875
855.809
822.274
785.714
747.272
708.859
673.961
645.656
618.886
562.346
358.415
354.038
757.44
1322.67
1408.71
1372.17
1329.35
1288.46
1247.08
1208.4
1174.55
1144.33
1116.25
1088.76
1062.27
1033.69
1007.77
985.227
966.806
946.333
923.586
897.08
866.427
829.45
786.126
741.933
699.812
663.062
629.582
569.713
362.458
408.728
1169.09
1472.12
1453.95
1408.34
1362.65
1316.31
1272.08
1232.81
1198.58
1167.45
1138.44
1110.71
1084.13
1055.7
1031.74
1011.72
996.987
979.906
960.726
937.064
907.899
870.263
824.91
776.36
728.249
683.846
643.539
578.888
366.559
629.962
1471.19
1536.14
1489.79
1441
1389.32
1338.55
1292.94
1252.78
1217.12
1184.54
1154.17
1125.93
1098.05
1070.88
1046.62
1034.34
1021.43
1006.74
991.061
971.439
944.609
907.533
862.847
812.112
760.329
709.409
661.962
591.585
372.501
976.277
1614.48
1579.98
1519.73
1465.51
1408.28
1355
1308.12
1266.39
1228.54
1194.28
1162.16
1133.15
1102.92
1077.25
1056.41
1046.59
1034.68
1022.43
1009.98
994.86
971.235
937.05
895.896
845.968
793.066
739.227
685.079
608.021
378.702
1424.4
1785.42
1627.25
1538.62
1479.64
1419.6
1364.58
1316.13
1272.39
1231.78
1195.16
1160.66
1129.68
1097.34
1072.28
1054.5
1043.97
1032.93
1022.07
1012.1
1000.79
981.93
952.92
917.424
873.453
823.772
770.42
712.871
630.332
389.381
1753.04
2102.57
1704.51
1558.42
1478.33
1422.49
1365.57
1314.78
1268.63
1225.17
1185.33
1147.93
1113.86
1079.24
1053.77
1037.12
1024.33
1012.97
1002.64
994.185
984.937
970.853
949.096
921.681
887.063
846.11
799.226
742.68
657.277
400.015
1876.82
2506.46
1819.05
1577.91
1474.42
1416.03
1356.45
1302.51
1253.31
1207.17
1163.51
1122.64
1084.33
1046.92
1019.46
1003.04
987.669
974.664
963.641
954.576
947.159
937.172
922.668
904.624
881.297
853.283
818.844
771.126
688.036
418.605
1919.15
2895.73
1999.81
1609.75
1471.78
1400.79
1337.06
1278.85
1225.53
1176.25
1128.61
1084.23
1040.66
1000.84
970.758
954.3
936.253
920.665
907.308
897.641
892.173
887.06
878.367
868.213
856.352
842.796
824.751
791.842
717.373
434.802
1912.12
3260.36
2282.51
1653.41
1464.21
1374.59
1307.24
1244.61
1186.95
1133.15
1081.55
1033.57
985.221
943.442
912.259
895.424
876.1
858.854
843.837
833.537
829.311
831.825
831.212
827.276
821.24
816.186
811.215
798.073
740.799
460.152
1869.53
3255.59
2650.49
1720.69
1450.29
1339.08
1268.66
1201.87
1139.36
1080.48
1024.56
971.669
919.083
873.884
844.551
824.738
811.153
797.798
787.414
780.734
779.456
789.89
801.472
808.66
803.145
797.832
794.93
794.618
759.804
478.406
1819.85
3086.96
3043.73
1823.25
1436.25
1302.61
1222.78
1151.6
1084.48
1021.51
962.039
907.064
852.779
809.419
783.293
763.835
751.434
746.734
748.995
754.098
767.156
795.037
821.864
845.053
846.178
833.747
796.876
792.952
770.928
510.4
1780.42
2920.5
3361.13
1981.03
1428.71
1260.36
1170.82
1095.82
1025.88
960.69
900.62
847.786
796.915
759.364
740.172
726.877
720.229
725.19
743.694
772.193
811.599
874.061
935.636
987.464
1005.92
1001.17
925.576
845.607
815.207
546.132
1743.35
2776.18
3386.41
2237.89
1438.7
1215.35
1114.4
1037.62
966.984
902.598
845.852
799.223
755.666
725.473
716.341
714.482
721.373
742.818
783.575
839.743
925.059
1046.55
1164.83
1256.07
1280.63
1299.3
1225.02
1066.9
903.615
625.199
1710.83
2637.91
3282.66
2528.85
1479.17
1171.32
1055.19
980.098
911.361
850.457
799.525
759.713
727.265
709.193
714.815
728.854
756.226
802.541
872.948
963.705
1111.68
1320.49
1514.22
1647.78
1653.5
1644.21
1586.83
1455.61
1349.9
728.411
1684.06
2515.27
3140.45
2763.22
1561.6
1133.32
1003.62
926.835
862.156
806.755
762.302
726.063
703.114
702.182
730.035
771.791
830.149
909.251
1013.82
1152.37
1384.89
1693.1
1960.02
2077.28
2029.11
2025.96
1973.53
2002.2
2169.9
994.776
286.335
286.679
287.035
287.391
287.746
288.101
288.456
288.81
289.165
289.519
289.873
290.227
290.58
290.934
291.287
291.64
291.993
292.346
292.698
293.05
293.403
293.754
294.106
294.458
294.809
295.16
295.511
295.862
296.213
296.563
296.913
297.263
297.613
297.963
298.312
298.661
299.01
299.359
299.708
300.056
300.405
300.753
301.101
301.448
301.796
302.143
302.49
302.837
303.184
303.539
304.067
308.559
421.398
1573.13
3899.1
5623.61
6661.33
6744.64
6588.32
6402.51
6171.34
5837.05
5468.69
5143.16
4856.19
4605.37
4393.31
4211.69
4051.03
3909.26
3781.73
3660.69
3540.73
3415.97
3288.87
3162.42
3036.35
2910.65
2786.53
2668.23
2556.31
2452.09
2355.4
2264.77
2179.35
2099.97
2026.77
1958.86
1895.46
1836.03
1780.58
1728.95
1680.93
1634.68
1592.04
1554.25
1520.94
1492.03
1467.19
1446.25
1428.98
1414.48
1402.26
1392.46
1385.18
1380.26
1377.45
1376.26
1376.39
1377.93
1381.12
1386.48
1394.08
1403.91
1416.23
1431.45
1449.9
1471.44
1494.44
1518.89
1545.18
1573.29
1602.38
1631.04
1658.54
479.771
480.045
480.293
480.534
480.771
481.008
481.244
481.479
481.714
481.947
482.18
482.413
482.644
482.875
483.105
483.335
483.564
483.792
484.019
484.246
484.472
484.697
484.922
485.145
485.369
485.591
485.813
486.034
486.255
486.475
486.694
486.912
487.13
487.347
487.564
487.779
487.994
488.209
488.423
488.636
488.848
489.06
489.271
489.482
489.692
489.901
490.11
490.318
490.537
491.042
504.154
806.78
2553.27
4160.46
4525.97
4608.7
4824.31
5116.76
5484.17
5952.84
6663.04
7097.52
7147.14
7065.44
6920.82
6706.85
6464.61
6195.93
5907.49
5619.64
5349.99
5098.92
4858.26
4626.88
4407.85
4205.39
4020.7
3848.41
3687.17
3535.16
3393.51
3261.4
3138.16
3021.84
2912.57
2811.03
2717.13
2629.29
2547.5
2471.58
2401.27
2335.71
2275.15
2218.86
2164.78
2112.74
2067.4
2029.2
1996.09
1966.86
1940.11
1915.39
1892.98
1873.23
1857.16
1844.86
1835.94
1829.36
1824.9
1822.83
1823.74
1828.22
1836.28
1848.41
1865.41
1888.55
1918.64
1955.55
1999.93
2050.67
2107.62
2171.3
2242.34
2321.64
2410.71
535.689
535.819
535.933
536.043
536.151
536.258
536.365
536.471
536.576
536.681
536.785
536.889
536.991
537.094
537.195
537.297
537.397
537.497
537.597
537.695
537.794
537.891
537.988
538.085
538.181
538.276
538.371
538.465
538.559
538.652
538.745
538.837
538.929
539.02
539.111
539.201
539.29
539.379
539.468
539.556
539.643
539.73
539.816
539.902
539.988
540.073
540.158
540.253
540.711
561.342
1023.97
3102.59
4314.22
4274.98
3996.88
3802.26
3679.64
3633.47
3693.21
3880.26
4258.63
4851.22
5621.89
6558.74
7626.79
8807.8
9588.59
9943.29
10006.8
9781.99
9291.3
8601.05
7910.44
7281.91
6731.45
6265.52
5868.86
5510.16
5180.05
4881.03
4613.41
4373.27
4156.8
3959.83
3780.37
3617.73
3470.14
3335.71
3213.99
3104.11
3005.42
2915.4
2831.57
2754.02
2682
2614.59
2553.2
2500.58
2452.52
2409.39
2371.11
2336.14
2303.68
2276.36
2255.2
2239.12
2226.6
2215.35
2205.56
2197.48
2191.3
2187.18
2188.86
2198
2214.02
2238.22
2269.24
2308.78
2372.51
2450.95
2537.54
2634.85
2744.28
2867.27
3002.8
550.971
551.014
551.051
551.085
551.119
551.152
551.185
551.218
551.251
551.283
551.315
551.347
551.378
551.409
551.44
551.47
551.5
551.53
551.56
551.59
551.619
551.648
551.676
551.705
551.733
551.761
551.788
551.816
551.843
551.87
551.896
551.923
551.949
551.975
552
552.026
552.051
552.076
552.101
552.125
552.15
552.174
552.198
552.221
552.245
552.268
552.301
552.69
575.557
1123.9
3353.15
4365.15
4221.42
3895.06
3607.58
3389.13
3214.92
3073.61
2975.68
2920.06
2921.84
3001.89
3170.9
3444.74
3846.97
4406.94
5167.73
6132.16
7304.61
8653.22
10060.3
10821.4
10775.3
10329.9
9524.67
8584.83
7766.01
7069.76
6492.78
6022.62
5635.58
5297.14
4993.49
4719.02
4474.12
4254.46
4057.31
3881.14
3725.93
3588.39
3465.23
3353.29
3249.26
3154.24
3068.66
2991.34
2920.01
2854.69
2793.37
2737.14
2686.26
2639.52
2595.94
2558.85
2528.67
2503.47
2481.03
2459.8
2438.15
2417.24
2396.34
2376.28
2360.34
2354.63
2361.26
2374.9
2399.8
2433.7
2474.38
2524.92
2582.04
2654.57
2745.29
2835.24
2883.56
554.291
554.301
554.309
554.317
554.325
554.332
554.34
554.347
554.354
554.361
554.368
554.375
554.382
554.389
554.395
554.402
554.408
554.415
554.421
554.428
554.434
554.44
554.446
554.452
554.458
554.464
554.469
554.475
554.481
554.486
554.492
554.497
554.502
554.508
554.513
554.518
554.523
554.528
554.533
554.538
554.543
554.547
554.552
554.557
554.562
554.573
554.865
574.087
1099.55
3383.78
4400.85
4224.73
3888.38
3582.73
3327.69
3120.26
2951.41
2819.86
2731.53
2681.44
2671.97
2704.09
2776.2
2890.96
3062.29
3321.44
3694.72
4191.2
4804.97
5642.27
6789.02
8288.55
9876.15
11225.1
12295.6
12194.9
11131.5
9754.01
8686.96
7851.9
7167.64
6596.35
6114.47
5697.15
5333.38
5013.66
4733.69
4488.09
4274.59
4090.14
3928.55
3783.89
3651.39
3531.81
3425.14
3328.75
3239.79
3157.38
3079.97
3004.71
2937.19
2874.51
2815.96
2764.7
2720.88
2681.99
2646.71
2614.05
2583.1
2552.69
2529.16
2509.23
2492.29
2476.86
2460.21
2446.52
2438.85
2446.67
2465.48
2479.39
2464.24
2350.79
2164.02
1937.82
1701
554.858
554.86
554.861
554.863
554.864
554.865
554.867
554.868
554.869
554.87
554.871
554.873
554.874
554.875
554.876
554.877
554.878
554.879
554.88
554.881
554.882
554.883
554.884
554.885
554.886
554.887
554.888
554.889
554.89
554.891
554.891
554.892
554.893
554.894
554.895
554.895
554.896
554.897
554.898
554.899
554.899
554.9
554.901
554.902
554.906
555.094
567.865
984.45
3241.77
4415.85
4249.62
3899.65
3587.05
3323.89
3098.81
2914.83
2773.41
2674.71
2620
2607.75
2637.06
2703.22
2810.32
2962.12
3166.44
3452.58
3811.19
4219.01
4636.58
4986.35
5300.12
5634.75
6050.34
6593.51
7334.55
8452.47
9993.86
11098.3
10706.5
9709
8697.64
7931.5
7327.68
6800.44
6337.14
5929.39
5562.16
5238.42
4961.4
4724.24
4516.58
4330.69
4161.98
4010.28
3876.55
3756.09
3644.43
3539.64
3440.36
3341.51
3251.07
3165.1
3084.81
3012.08
2947.14
2888.73
2836.48
2788.4
2744.09
2709.07
2674.85
2638.36
2600.25
2564.01
2523.42
2459.2
2348.04
2136.77
1889.34
1626.79
1376.39
1219.96
1141.61
1108.63
1109.2
554.937
554.937
554.937
554.937
554.938
554.938
554.938
554.938
554.938
554.938
554.939
554.939
554.939
554.939
554.939
554.939
554.94
554.94
554.94
554.94
554.94
554.94
554.94
554.94
554.941
554.941
554.941
554.941
554.941
554.941
554.941
554.941
554.941
554.942
554.942
554.942
554.942
554.942
554.942
554.942
554.942
554.942
554.942
554.945
555.048
562.01
841.688
2921.45
4391.5
4291.01
3928.59
3601.28
3326.89
3096.76
2905.72
2755.72
2650.87
2597.29
2586.33
2620.91
2698.82
2816.83
2987.53
3226.32
3539.08
3966.57
4442.1
4774.93
4991.79
5048.07
5059.64
5031.92
5052.96
5098.28
5177.88
5366.9
5702.9
6534.05
7595.82
8925.52
9570.64
9414.05
8666
7925.43
7334.02
6855.5
6439.95
6069.43
5748.91
5473.25
5233.6
5022.29
4832.61
4659.28
4501.51
4353.97
4212.4
4080.26
3953.33
3828.69
3708.11
3589.49
3475.22
3366.68
3266.24
3174.55
3092.96
3019.69
2955.68
2904.64
2858.87
2793.13
2634.65
2349.34
2015.1
1657.73
1338.5
1140.02
1011.77
934.344
896.193
885.582
895.555
920.916
958.494
554.946
554.946
554.946
554.946
554.946
554.946
554.946
554.946
554.946
554.946
554.946
554.946
554.946
554.946
554.946
554.946
554.946
554.946
554.946
554.946
554.946
554.946
554.946
554.946
554.946
554.946
554.946
554.946
554.946
554.946
554.946
554.946
554.946
554.947
554.947
554.947
554.947
554.947
554.947
554.947
554.947
554.947
554.948
554.996
558.194
720.498
2439.15
4301.16
4332.78
3971.61
3631.81
3344.31
3105.69
2910.62
2751.52
2638.37
2581.75
2572.31
2608.54
2691.47
2821.52
3003.19
3259.52
3619.88