/*--------------------------------*- C++ -*----------------------------------*\
| =========                 |                                                 |
| \\      /  F ield         | OpenFOAM: The Open Source CFD Toolbox           |
|  \\    /   O peration     | Version:  2112                                  |
|   \\  /    A nd           | Website:  www.openfoam.com                      |
|    \\/     M anipulation  |                                                 |
\*---------------------------------------------------------------------------*/
FoamFile
{
    version     2.0;
    format      ascii;
    arch        "LSB;label=32;scalar=64";
    class       volScalarField;
    location    "0.00539";
    object      nut;
}
// * * * * * * * * * * * * * * * * * * * * * * * * * * * * * * * * * * * * * //

dimensions      [0 2 -1 0 0 0 0];

internalField   nonuniform List<scalar> 
13875
(
0.0511677
0.0366259
0.0343653
0.0343321
0.0342972
0.0343373
0.0342888
0.0342854
0.034298
0.0342859
0.0342835
0.034296
0.0343253
0.034343
0.0343298
0.0342955
0.0342683
0.0342819
0.0342987
0.0343285
0.0343036
0.0343341
0.0343832
0.0365598
0.0514342
0.053262
0.0341203
0.032222
0.0321084
0.0320624
0.0320829
0.0320403
0.0320405
0.0320494
0.0320274
0.0320203
0.032048
0.0320561
0.0320743
0.0320604
0.0320462
0.0320037
0.0320263
0.0320443
0.0320792
0.0320635
0.0321023
0.032229
0.0340475
0.0536494
0.0564571
0.0335621
0.0318031
0.0315946
0.0315698
0.0315749
0.0314843
0.0314644
0.0314661
0.0314421
0.0314303
0.0314616
0.0315315
0.0315583
0.031535
0.0314613
0.0314077
0.0314394
0.0314784
0.0315731
0.0315648
0.0315797
0.0317948
0.0334928
0.0566077
0.0590708
0.0332331
0.03149
0.0312783
0.0312635
0.0312614
0.0311585
0.0311237
0.0311206
0.0311022
0.0310902
0.0311125
0.0312146
0.0312431
0.0312185
0.0311126
0.0310732
0.0311002
0.0311476
0.0312571
0.0312553
0.0312614
0.031485
0.0331718
0.0591527
0.0611263
0.0330042
0.0312472
0.0310049
0.0309872
0.0309804
0.0308701
0.0308315
0.0308317
0.0308166
0.0308035
0.030822
0.0309255
0.0309588
0.0309296
0.0308225
0.0307878
0.0308144
0.0308604
0.0309736
0.0309769
0.0309882
0.0312307
0.0329236
0.0612625
0.0628188
0.0328483
0.0310903
0.0307737
0.030756
0.0307331
0.030608
0.0305653
0.030569
0.0305573
0.0305419
0.0305569
0.030663
0.0306999
0.030667
0.0305577
0.0305286
0.0305549
0.0306012
0.0307237
0.0307437
0.0307587
0.0310594
0.0328264
0.06297
0.0648268
0.033073
0.0311053
0.0306354
0.0305733
0.030527
0.0303793
0.0303278
0.0303331
0.0303234
0.0303059
0.0303179
0.0304272
0.0304645
0.0304273
0.0303172
0.0302975
0.0303243
0.0303775
0.0305157
0.0305622
0.0306311
0.0311147
0.0330736
0.0648606
0.0670926
0.0339354
0.0314259
0.0306508
0.0304893
0.030377
0.0301939
0.0301256
0.0301278
0.0301196
0.030099
0.0301044
0.0302188
0.0302594
0.0302173
0.0301035
0.0300961
0.0301271
0.0301927
0.0303604
0.0304675
0.030625
0.0313928
0.033898
0.0673521
0.0736423
0.0362944
0.0320432
0.030848
0.0304811
0.0302884
0.0300531
0.0299626
0.0299612
0.0299552
0.0299314
0.0299303
0.0300503
0.0300942
0.0300487
0.0299323
0.0299338
0.0299701
0.0300491
0.0302631
0.0304565
0.0308018
0.0319391
0.0360064
0.0741939
0.0828869
0.0384631
0.0327302
0.0311824
0.0305883
0.0302549
0.0299821
0.0298857
0.0298716
0.0298622
0.0298376
0.0298341
0.029952
0.0299999
0.0299545
0.0298497
0.0298489
0.0298922
0.0299792
0.0302301
0.0305556
0.0310972
0.0326214
0.0380987
0.0835241
0.0907048
0.0441353
0.0346521
0.0320107
0.0308555
0.0303737
0.0300586
0.0299317
0.0298974
0.0298768
0.02985
0.0298455
0.029954
0.0300043
0.0299704
0.0298898
0.0298841
0.0299351
0.0300597
0.0303465
0.0308174
0.0318999
0.0343786
0.0432763
0.0893422
0.0950374
0.0545334
0.0403597
0.0334419
0.0319124
0.0308836
0.030372
0.0301935
0.0301161
0.0300785
0.03005
0.0300472
0.030136
0.0301879
0.0301723
0.0301206
0.0301198
0.0301999
0.0303673
0.0308779
0.0318135
0.03321
0.0398158
0.0533201
0.0942457
0.0865864
0.0688526
0.0515285
0.0417687
0.0344514
0.0320423
0.0313882
0.0309361
0.0307642
0.0306724
0.030628
0.0306166
0.0306815
0.0307334
0.0307439
0.0307383
0.0307962
0.0309719
0.0314227
0.0321638
0.0348525
0.041587
0.0506909
0.0685746
0.0866011
0.0795487
0.0659793
0.0581749
0.0660363
0.0419231
0.0374455
0.0339112
0.032816
0.0323797
0.0322601
0.0322314
0.0322207
0.0322815
0.032334
0.0323507
0.0323507
0.0324399
0.0328652
0.0342338
0.0382557
0.0432521
0.0656817
0.0577477
0.0660149
0.0815828
0.0753179
0.0644574
0.056775
0.0611123
0.0563393
0.0545677
0.0451706
0.0399459
0.0381442
0.0370101
0.0365529
0.0364088
0.0364293
0.0365082
0.036614
0.0368962
0.0378859
0.039943
0.0453879
0.0544462
0.0564212
0.0613867
0.0565139
0.0641037
0.0746699
0.0672478
0.0619877
0.0547575
0.0583663
0.0569647
0.0581098
0.0556823
0.0537511
0.053972
0.0507486
0.0489369
0.0483153
0.0481602
0.0483233
0.0486466
0.0496187
0.0535633
0.0544755
0.0555706
0.0584153
0.0567569
0.0587296
0.0543504
0.0613924
0.0665391
0.0627626
0.0587885
0.0536495
0.0572794
0.059086
0.0637172
0.0741913
0.0877941
0.0798196
0.0720703
0.072025
0.0728001
0.0732841
0.0731168
0.0724563
0.0713723
0.0777304
0.0870868
0.0750881
0.0640532
0.0593703
0.0576818
0.0528084
0.0578461
0.0627006
0.0575422
0.0558004
0.0561019
0.0612314
0.0637048
0.0669324
0.0798185
0.0939
0.0785682
0.0686654
0.0672014
0.0679688
0.0686335
0.0683785
0.0676282
0.0684118
0.0766984
0.090018
0.0792054
0.0678777
0.0652707
0.0626075
0.0559193
0.0550729
0.0572434
0.051819
0.0563191
0.0606358
0.0686166
0.0706761
0.0663328
0.0722486
0.0836234
0.0794706
0.0710811
0.0669617
0.0660189
0.0661336
0.0663466
0.06681
0.0695477
0.0765016
0.0814037
0.0723239
0.0669202
0.0729534
0.0710295
0.0614263
0.0567473
0.0525034
0.0500974
0.0586956
0.0657365
0.0713863
0.0698885
0.0644253
0.0665164
0.0760596
0.0783483
0.0726954
0.0670899
0.0642295
0.0636274
0.0646116
0.0668255
0.0707746
0.0751266
0.0740472
0.066581
0.0654687
0.0717785
0.0724958
0.0668834
0.0596611
0.0495379
0.0614537
0.0780409
0.0726602
0.0665111
0.0655625
0.0614063
0.0626789
0.0713352
0.076388
0.0726059
0.0662827
0.0621538
0.0611263
0.0628295
0.066222
0.0705944
0.0730384
0.0694015
0.0628141
0.0627271
0.0674019
0.0677118
0.0744394
0.079602
0.057441
0.113125
0.108517
0.0780627
0.0623037
0.0618655
0.0586131
0.059951
0.0680622
0.0741438
0.0712959
0.0646891
0.0598518
0.0585158
0.0606688
0.0646695
0.0691756
0.0708186
0.0663594
0.0601771
0.0598674
0.0633811
0.0635047
0.0816321
0.116381
0.110809
0.134742
0.0996659
0.0737811
0.0593702
0.0586138
0.0562485
0.0577543
0.0655221
0.0718557
0.0693384
0.0626294
0.0574581
0.0558976
0.0582181
0.0625136
0.0671528
0.0686687
0.063988
0.0579575
0.0573903
0.0597523
0.0604012
0.0766598
0.11452
0.136535
0.143952
0.092041
0.0683499
0.0571655
0.0558979
0.0543136
0.055941
0.0633143
0.0696301
0.0669245
0.0600849
0.0549064
0.0534046
0.0558276
0.0602072
0.0649028
0.0665414
0.0617355
0.0559891
0.0554211
0.0570018
0.0582719
0.0709685
0.100591
0.145513
0.148624
0.08715
0.0648953
0.0557004
0.053848
0.0526903
0.0545295
0.0613398
0.0672561
0.0644249
0.0576624
0.0525459
0.0510995
0.0535243
0.0579481
0.0626225
0.0643225
0.0597174
0.0544029
0.0536732
0.0549125
0.0567754
0.0672843
0.0962896
0.150375
0.153742
0.0854551
0.0622969
0.0545299
0.0522479
0.0513732
0.0534067
0.0596122
0.064827
0.0618794
0.0553899
0.050406
0.0489784
0.0513571
0.0556614
0.0601407
0.0619529
0.0579548
0.0531218
0.0521082
0.0531556
0.0554643
0.0640733
0.0916857
0.155742
0.158921
0.0833157
0.0602258
0.0534031
0.0509677
0.0503378
0.0525818
0.0580796
0.0622413
0.0591671
0.0531001
0.0484219
0.0470688
0.0494261
0.0536088
0.0578909
0.0597779
0.0563831
0.0520098
0.0508115
0.0518479
0.0543597
0.0621821
0.0906395
0.159906
0.16348
0.0838573
0.059168
0.0524136
0.0500176
0.0495359
0.0517882
0.0566137
0.0598288
0.05671
0.0510928
0.0466731
0.0453485
0.0476371
0.051601
0.0556006
0.0575727
0.0549485
0.0511047
0.0497834
0.0507952
0.0532435
0.0608478
0.0901677
0.165665
0.169538
0.0852865
0.0586442
0.0516075
0.0493235
0.0489908
0.0511126
0.055231
0.0575566
0.0544834
0.049298
0.0451079
0.0438005
0.0459839
0.0496932
0.0534193
0.0554601
0.0535948
0.0503511
0.0490334
0.0499022
0.0522862
0.0597518
0.0889733
0.171261
0.174934
0.085681
0.0583765
0.050883
0.0487498
0.0486857
0.0505876
0.0538571
0.0552405
0.0522011
0.0475075
0.0436627
0.0424212
0.0445794
0.0480993
0.0515507
0.053584
0.0523354
0.0496836
0.0485056
0.0491539
0.0515445
0.0593834
0.0897423
0.175488
0.176809
0.0861332
0.058538
0.0504784
0.0482521
0.0482965
0.0500066
0.0525714
0.0532763
0.0503298
0.0460151
0.0423985
0.0411789
0.0432477
0.0465357
0.0497517
0.0518111
0.051157
0.0491101
0.0480362
0.0485154
0.050996
0.0593377
0.0902422
0.179612
0.178971
0.0867079
0.0588889
0.0503368
0.0478623
0.0478883
0.0494137
0.051355
0.0515272
0.0486699
0.0446929
0.0412846
0.0400809
0.042059
0.0451374
0.0481253
0.0501711
0.0500436
0.0485426
0.0475937
0.0480633
0.0507945
0.0597081
0.0896803
0.181097
0.181373
0.0864176
0.0594439
0.0504878
0.0476049
0.0474928
0.0487928
0.0501845
0.0498349
0.0470848
0.043428
0.0402569
0.0390987
0.0410258
0.0439433
0.0467676
0.0487721
0.0490182
0.0479468
0.047148
0.0477117
0.0509146
0.0604824
0.0896144
0.182625
0.182527
0.0868533
0.0602722
0.0510881
0.0475455
0.047056
0.0481359
0.0490915
0.0483563
0.0457369
0.0423622
0.0393744
0.0382342
0.0400658
0.0428147
0.0454457
0.0473779
0.0480288
0.0473588
0.046736
0.0476163
0.0514636
0.0614712
0.0890874
0.184596
0.183983
0.0880103
0.0607037
0.0519388
0.0477017
0.0466397
0.0474255
0.0480481
0.0470685
0.0445721
0.0414081
0.0385831
0.0374618
0.0392051
0.041798
0.0443069
0.0461835
0.0470678
0.0467037
0.0463198
0.0477892
0.0524263
0.0621276
0.0889969
0.185624
0.18526
0.0881601
0.0605045
0.0529053
0.0481845
0.0463572
0.0467621
0.0469863
0.0458148
0.0434415
0.0404959
0.0378546
0.0367782
0.0384688
0.0409401
0.0433091
0.045139
0.0461837
0.0461068
0.0460474
0.0482287
0.0536781
0.0621385
0.0896622
0.18689
0.185485
0.0892848
0.06039
0.0545452
0.0488636
0.0462133
0.0461355
0.0460006
0.0447553
0.0425099
0.0397158
0.037213
0.0361569
0.0377635
0.0401042
0.0423923
0.0441605
0.0452775
0.0455441
0.0459312
0.0489194
0.0554226
0.061818
0.0896236
0.187528
0.185915
0.0908081
0.0603012
0.0557741
0.0500099
0.0462987
0.0456709
0.0451492
0.0438056
0.041643
0.0390009
0.0366306
0.0355983
0.0371327
0.0393471
0.0415298
0.0432806
0.0444893
0.0451471
0.0460559
0.050182
0.0567044
0.0614028
0.0900317
0.187397
0.186423
0.0915711
0.0597345
0.0559481
0.0512411
0.0466173
0.0453388
0.0443728
0.0429123
0.0407999
0.0382843
0.0360598
0.0350769
0.0365586
0.0386769
0.0407971
0.0425327
0.0438342
0.0448499
0.0463925
0.0515637
0.0569384
0.0607895
0.0910409
0.187726
0.186073
0.0928505
0.0590684
0.0558352
0.0531726
0.047271
0.0452505
0.0438009
0.0421572
0.0400489
0.0376503
0.035551
0.0345949
0.0360044
0.0379993
0.0400538
0.0418368
0.0433028
0.0447704
0.0470664
0.0535995
0.0567056
0.0599028
0.0915419
0.188062
0.185997
0.0948198
0.0585855
0.0553751
0.0545123
0.0483039
0.0452967
0.0434478
0.0415563
0.0394056
0.0370516
0.0350597
0.0341348
0.0354731
0.0373676
0.039395
0.0412665
0.0429748
0.0449125
0.0481773
0.0550095
0.0561595
0.0590766
0.0926927
0.187744
0.186097
0.0959195
0.0579769
0.0545494
0.0547046
0.0498635
0.0455277
0.0432414
0.0410655
0.0387766
0.0364595
0.0345899
0.0337069
0.0350078
0.0367992
0.0388332
0.0408452
0.0428359
0.0452463
0.0499135
0.0551624
0.0553732
0.0587315
0.0943951
0.187766
0.185778
0.0971812
0.0576615
0.0536737
0.0541872
0.0517158
0.046315
0.0431908
0.040825
0.0383141
0.0359493
0.034152
0.0332956
0.0345395
0.0362535
0.0383438
0.0406178
0.0428038
0.0460286
0.0519192
0.0546789
0.0543883
0.058255
0.0953962
0.187597
0.185647
0.0987991
0.0579804
0.0529709
0.0533864
0.0526358
0.047783
0.0433405
0.0406583
0.0379999
0.0355428
0.0337688
0.0329263
0.0341218
0.0357975
0.0379762
0.0404544
0.0429787
0.0476884
0.0532647
0.0538765
0.0536169
0.0580663
0.0966623
0.187369
0.185499
0.0998303
0.0578
0.0522669
0.0524196
0.0522257
0.0499953
0.0439536
0.0405913
0.0378313
0.035279
0.0334622
0.0326134
0.0338055
0.0355091
0.0378183
0.0404445
0.0437541
0.0501852
0.052752
0.0529257
0.0530464
0.0585228
0.0984029
0.187236
0.18508
0.101145
0.0583913
0.0517877
0.0514347
0.0515369
0.0511967
0.0457171
0.0408161
0.0377249
0.0351438
0.0333028
0.0323927
0.0336234
0.0353216
0.0376766
0.0406277
0.0455327
0.0514951
0.0519729
0.0519701
0.0525258
0.0587875
0.099538
0.187236
0.184553
0.102842
0.0592918
0.05154
0.0506387
0.0506604
0.0506041
0.0479804
0.0419315
0.03775
0.0350188
0.0331938
0.0322738
0.0334975
0.0351764
0.0376673
0.0416661
0.0481447
0.0509135
0.0510699
0.0512067
0.0521767
0.0592804
0.100853
0.186618
0.18336
0.103684
0.0597275
0.0512885
0.0499656
0.0497573
0.0499024
0.0490941
0.0441625
0.0381591
0.0349687
0.0331434
0.0322271
0.0334349
0.0351361
0.0381674
0.0441274
0.0493733
0.0501796
0.0502236
0.0505841
0.0520418
0.0602218
0.102463
0.185067
0.180563
0.104156
0.0602533
0.0511582
0.0494382
0.0490019
0.049052
0.0485781
0.0464926
0.0396435
0.0351367
0.033121
0.0321765
0.0333858
0.0352797
0.0396882
0.0464062
0.048851
0.0493326
0.0495012
0.0500654
0.0518643
0.060626
0.102871
0.18228
0.173349
0.10294
0.0607525
0.0509835
0.0490243
0.0483686
0.0481872
0.0479379
0.0472711
0.0423901
0.0360114
0.0332558
0.0322181
0.0334785
0.0361295
0.0423858
0.0470881
0.0481823
0.0484791
0.0488725
0.0496279
0.0516216
0.0608681
0.101508
0.175184
0.112738
0.282488
0.397611
0.457235
0.483349
0.491009
0.497387
0.513412
0.540217
0.57076
0.59657
0.611404
0.594676
0.576367
0.568416
0.565114
0.560867
0.554763
0.551071
0.548351
0.545067
0.540702
0.534797
0.525041
0.506668
0.475542
0.429115
0.360853
0.26074
0.119865
0.112982
0.28503
0.390986
0.439684
0.458351
0.462294
0.468103
0.485671
0.516545
0.553517
0.586682
0.606304
0.599917
0.577966
0.567384
0.563221
0.556037
0.54979
0.545407
0.542253
0.538304
0.533316
0.526954
0.516508
0.497834
0.465959
0.418603
0.350047
0.251716
0.118047
0.124381
0.29705
0.386817
0.420927
0.431249
0.43095
0.436146
0.454616
0.487842
0.528426
0.565925
0.592709
0.599966
0.576169
0.562281
0.556916
0.549401
0.541942
0.537046
0.533644
0.529145
0.523857
0.516814
0.505275
0.485948
0.45347
0.405637
0.337529
0.242222
0.116362
0.133872
0.305898
0.376246
0.398287
0.402141
0.400205
0.404847
0.422503
0.455165
0.49839
0.540055
0.574555
0.592244
0.573829
0.556518
0.549838
0.542737
0.533037
0.527628
0.523811
0.518818
0.513152
0.505333
0.492717
0.472604
0.43962
0.391748
0.324765
0.233065
0.114642
0.139404
0.308581
0.362722
0.377629
0.379677
0.378185
0.381273
0.393649
0.421135
0.463546
0.508073
0.548118
0.574918
0.56773
0.548683
0.54137
0.534447
0.524035
0.516924
0.512477
0.507129
0.50109
0.49251
0.478835
0.45788
0.424568
0.377069
0.311879
0.224075
0.113167
0.14452
0.310021
0.353533
0.36685
0.371365
0.371625
0.370605
0.373859
0.392182
0.428903
0.473765
0.517218
0.551316
0.557844
0.538601
0.531788
0.52602
0.514945
0.505734
0.500243
0.494557
0.488112
0.478843
0.464183
0.442387
0.408925
0.361941
0.298503
0.215006
0.111518
0.149544
0.310486
0.354047
0.373529
0.386143
0.387035
0.377627
0.367299
0.371664
0.39763
0.43893
0.484012
0.523574
0.542704
0.52625
0.520322
0.516952
0.505532
0.494127
0.487277
0.481234
0.474397
0.464561
0.449136
0.42642
0.392558
0.346014
0.283908
0.204746
0.109032
0.155055
0.312239
0.372298
0.408695
0.437035
0.434077
0.411286
0.379709
0.364054
0.37338
0.40601
0.450402
0.493553
0.519555
0.51132
0.507705
0.506531
0.496085
0.482034
0.473846
0.467089
0.459777
0.449413
0.433292
0.409581
0.374675
0.328019
0.268051
0.193965
0.106236
0.160953
0.32048
0.41962
0.48962
0.541663
0.530208
0.486514
0.419788
0.374246
0.359783
0.377812
0.417825
0.46261
0.4935
0.494391
0.492511
0.494833
0.485795
0.470559
0.459485
0.451182
0.442799
0.431125
0.413714
0.388744
0.354528
0.310018
0.253849
0.185079
0.104179
0.167431
0.342492
0.510924
0.632103
0.675933
0.653234
0.602029
0.495793
0.407086
0.360392
0.357192
0.388096
0.432177
0.466767
0.475433
0.474771
0.482241
0.475156
0.458664
0.444032
0.433977
0.424565
0.412016
0.394176
0.369725
0.336939
0.294699
0.241787
0.177707
0.102425
0.174856
0.388021
0.650703
0.751927
0.754358
0.723646
0.679826
0.590664
0.460395
0.376031
0.346143
0.363307
0.403828
0.440322
0.455122
0.455811
0.469299
0.464968
0.446722
0.428902
0.416823
0.406641
0.39377
0.376039
0.352228
0.320652
0.280453
0.230609
0.170895
0.100811
0.184431
0.468124
0.77499
0.820335
0.783672
0.738041
0.711216
0.647114
0.517445
0.401034
0.345005
0.344719
0.378262
0.414874
0.434593
0.436631
0.454923
0.45573
0.435775
0.414806
0.400456
0.389454
0.376373
0.358775
0.335544
0.305196
0.267059
0.220229
0.164692
0.0992904
0.197559
0.585654
0.87099
0.859501
0.788003
0.725524
0.707292
0.674025
0.556354
0.425877
0.349285
0.33163
0.356325
0.391377
0.414949
0.418296
0.437438
0.448474
0.427185
0.401469
0.385068
0.37303
0.359715
0.342284
0.319646
0.290565
0.254479
0.210595
0.158892
0.0978801
0.214692
0.722687
0.945902
0.885775
0.787306
0.711545
0.687186
0.681667
0.571999
0.443386
0.352765
0.323032
0.338783
0.370802
0.395671
0.401288
0.42008
0.441151
0.422659
0.390407
0.370629
0.357376
0.343784
0.326587
0.304576
0.276773
0.242703
0.201655
0.153533
0.0965763
0.235492
0.844622
1.00815
0.909719
0.788133
0.702074
0.665198
0.676134
0.575678
0.446876
0.351675
0.31651
0.325667
0.353675
0.378744
0.386025
0.404051
0.426865
0.425186
0.383695
0.357475
0.342861
0.3286
0.311663
0.290318
0.263797
0.231692
0.193342
0.148632
0.0953687
0.2581
0.951759
1.06734
0.931038
0.789359
0.69665
0.646316
0.657141
0.572248
0.439857
0.346918
0.310842
0.316572
0.340573
0.364719
0.373051
0.390974
0.412373
0.428184
0.385123
0.347169
0.32922
0.314126
0.297475
0.276839
0.251582
0.221369
0.185576
0.144107
0.0941847
0.282348
1.05137
1.12674
0.951706
0.793443
0.691115
0.631674
0.627431
0.559709
0.42645
0.340854
0.308144
0.311252
0.331927
0.353862
0.362683
0.379936
0.399266
0.416688
0.400487
0.342702
0.316756
0.300633
0.283982
0.264064
0.24005
0.211628
0.178245
0.139771
0.0929689
0.308807
1.14834
1.18541
0.972077
0.798871
0.68497
0.623729
0.601699
0.53912
0.42288
0.340551
0.30899
0.309659
0.327757
0.346123
0.354513
0.37076
0.389135
0.403144
0.411217
0.350198
0.307569
0.288326
0.2711
0.25193
0.229129
0.20241
0.171289
0.135568
0.0917123
0.336154
1.24353
1.24176
0.997351
0.80791
0.689327
0.624066
0.586779
0.516297
0.421271
0.345518
0.313971
0.313059
0.328283
0.340818
0.348114
0.363845
0.380483
0.390464
0.400995
0.376486
0.306378
0.277251
0.259043
0.240449
0.218894
0.193767
0.164768
0.131721
0.0904968
0.36452
1.34038
1.29488
1.02839
0.826955
0.704099
0.632441
0.580482
0.504157
0.416185
0.354908
0.326789
0.323111
0.332257
0.338418
0.344687
0.359212
0.372617
0.380866
0.386762
0.38623
0.320651
0.270546
0.248614
0.229491
0.209365
0.185834
0.158835
0.12834
0.0893922
0.403999
1.42864
1.34376
1.06815
0.856049
0.727475
0.651715
0.588064
0.510058
0.421823
0.370951
0.346164
0.336706
0.338475
0.340906
0.345446
0.356102
0.365454
0.371637
0.374085
0.37452
0.350884
0.274225
0.240255
0.220212
0.200266
0.178528
0.153426
0.12524
0.0883644
0.438461
1.51623
1.39558
1.11908
0.899389
0.764935
0.68324
0.613374
0.530343
0.437048
0.386274
0.361175
0.349739
0.344259
0.344414
0.350139
0.354876
0.359484
0.362282
0.362293
0.360039
0.351507
0.294028
0.237034
0.212433
0.192521
0.171597
0.148436
0.122264
0.0873874
0.477103
1.554
1.43357
1.18349
0.963061
0.817909
0.727709
0.653256
0.562561
0.459529
0.398215
0.371685
0.361155
0.351017
0.34885
0.352611
0.35463
0.355834
0.353853
0.351286
0.347182
0.339059
0.316787
0.24333
0.206994
0.186299
0.165941
0.143737
0.119573
0.0865053
0.500785
1.576
1.47051
1.2713
1.05595
0.891048
0.782708
0.703474
0.612235
0.498007
0.416235
0.385177
0.371239
0.35983
0.353454
0.353115
0.351515
0.350707
0.347212
0.341748
0.335777
0.326233
0.313919
0.264355
0.206321
0.181407
0.161508
0.140107
0.117215
0.0857153
0.508666
1.41844
1.50568
1.39841
1.18295
0.988179
0.854633
0.76459
0.675906
0.558319
0.451514
0.40163
0.379622
0.368695
0.358227
0.35296
0.348426
0.345736
0.341665
0.334977
0.327115
0.315899
0.30462
0.281982
0.214638
0.178673
0.157895
0.137315
0.115236
0.0848851
0.120143
0.262164
0.362546
0.430706
0.476701
0.507112
0.524935
0.534643
0.540533
0.544756
0.547784
0.550406
0.554154
0.560089
0.564539
0.568325
0.577752
0.597954
0.609497
0.591643
0.56365
0.532241
0.505504
0.489418
0.483509
0.476048
0.450754
0.392912
0.279912
0.11339
0.118326
0.253145
0.351775
0.420204
0.467057
0.498173
0.516382
0.526823
0.533225
0.538164
0.541707
0.544805
0.549311
0.555591
0.562762
0.567428
0.579904
0.604108
0.603557
0.580284
0.545401
0.508076
0.47725
0.459956
0.454725
0.451847
0.433619
0.38594
0.282519
0.113647
0.116634
0.243607
0.339245
0.407224
0.454533
0.486264
0.505193
0.516726
0.523856
0.529133
0.53311
0.536455
0.541501
0.549055
0.55651
0.562652
0.578385
0.600681
0.588526
0.558788
0.519876
0.478957
0.446416
0.428669
0.424229
0.424886
0.414987
0.381503
0.294609
0.125006
0.114897
0.23438
0.326427
0.393305
0.44068
0.472945
0.492713
0.505296
0.513232
0.518949
0.523339
0.527093
0.532726
0.542479
0.54951
0.557345
0.576316
0.590309
0.569143
0.532178
0.489363
0.446268
0.415298
0.398918
0.394959
0.397015
0.392957
0.371194
0.303409
0.134529
0.1134
0.225302
0.313452
0.378556
0.42562
0.458275
0.478922
0.492506
0.501196
0.507394
0.512136
0.516523
0.524078
0.534292
0.541223
0.549776
0.570145
0.571154
0.541589
0.499801
0.454607
0.413247
0.388359
0.377509
0.375068
0.376332
0.373964
0.35894
0.305779
0.139743
0.111721
0.21616
0.300025
0.363385
0.409947
0.442848
0.46437
0.47888
0.488248
0.494904
0.500088
0.505565
0.515151
0.526111
0.531778
0.539896
0.560385
0.546657
0.510168
0.465372
0.420803
0.386113
0.370901
0.369632
0.371799
0.371559
0.365774
0.351616
0.307388
0.1447
0.109222
0.205853
0.28542
0.347462
0.393584
0.426954
0.449355
0.464642
0.474543
0.481539
0.48732
0.494144
0.506028
0.517219
0.520418
0.527692
0.541202
0.518321
0.476849
0.430978
0.391153
0.368183
0.367552
0.381004
0.391917
0.390995
0.376154
0.35486
0.308535
0.149913
0.106413
0.195021
0.269512
0.329512
0.375901
0.410227
0.433504
0.449454
0.459895
0.467342
0.474066
0.482453
0.496834
0.506864
0.507967
0.512995
0.516866
0.487935
0.443324
0.399068
0.369339
0.364333
0.384987
0.421137
0.445729
0.448683
0.416827
0.376758
0.311581
0.155365
0.104351
0.186118
0.25531
0.311528
0.355785
0.38967
0.414348
0.431446
0.443042
0.451441
0.459861
0.471309
0.486692
0.495017
0.492096
0.495789
0.490513
0.456933
0.411242
0.37274
0.359165
0.379831
0.431944
0.506595
0.552233
0.563116
0.505828
0.429009
0.322042
0.161508
0.102566
0.178627
0.243109
0.296143
0.338228
0.370779
0.395009
0.41258
0.425006
0.434397
0.444541
0.459615
0.476134
0.482209
0.474295
0.476435
0.463652
0.426854
0.382544
0.354742
0.364276
0.419115
0.518981
0.623378
0.673233
0.695193
0.652687
0.526141
0.347364
0.168279
0.100918
0.171692
0.23178
0.281776
0.321879
0.353265
0.376896
0.394443
0.407224
0.41744
0.429811
0.447912
0.465949
0.469238
0.455451
0.455832
0.437149
0.398956
0.359349
0.347023
0.384664
0.478455
0.613428
0.697238
0.737391
0.768906
0.768367
0.667657
0.397651
0.175976
0.0993695
0.165388
0.221261
0.268262
0.306354
0.336565
0.359651
0.377097
0.390119
0.401223
0.415983
0.437303
0.456536
0.453771
0.436489
0.435348
0.41193
0.374061
0.342638
0.349372
0.413538
0.538224
0.666903
0.723034
0.747496
0.796948
0.835327
0.790235
0.483567
0.186232
0.0979369
0.15951
0.211516
0.255581
0.291664
0.320652
0.343172
0.360473
0.373749
0.385995
0.402919
0.428971
0.448865
0.436147
0.418657
0.414392
0.388656
0.353028
0.331633
0.356312
0.441267
0.575328
0.689588
0.713657
0.73503
0.801906
0.875819
0.88697
0.605498
0.199914
0.0966133
0.154084
0.202487
0.243719
0.277817
0.305563
0.32748
0.344576
0.35817
0.371694
0.3922
0.424516
0.43972
0.418759
0.401667
0.395112
0.368337
0.336534
0.324781
0.361021
0.459956
0.590078
0.694025
0.693303
0.722239
0.802689
0.904738
0.963463
0.742376
0.217565
0.0953928
0.149119
0.194092
0.232628
0.264788
0.291286
0.312557
0.32943
0.343702
0.358714
0.38583
0.426497
0.424864
0.402567
0.386341
0.378233
0.351599
0.324299
0.319169
0.360788
0.462825
0.594732
0.687233
0.674814
0.714048
0.804839
0.93127
1.02854
0.862797
0.238568
0.0942014
0.144539
0.18624
0.222227
0.252519
0.27778
0.298378
0.314987
0.330099
0.34868
0.387316
0.426795
0.410317
0.389299
0.373216
0.364389
0.338903
0.315744
0.313624
0.355514
0.45495
0.591396
0.666227
0.655907
0.709531
0.806684
0.954579
1.0912
0.969824
0.261131
0.0929735
0.140139
0.178822
0.21241
0.240929
0.264969
0.284891
0.30155
0.317761
0.344548
0.401874
0.414252
0.397103
0.37805
0.36241
0.353757
0.330596
0.310767
0.310759
0.348264
0.44138
0.577526
0.636317
0.642105
0.704933
0.811457
0.977098
1.15399
1.07022
0.284945
0.0917049
0.135819
0.171787
0.203114
0.229953
0.252797
0.271998
0.289245
0.308802
0.352072
0.409579
0.400481
0.38695
0.368697
0.353616
0.346222
0.326588
0.309241
0.311165
0.346875
0.437321
0.553653
0.612645
0.63461
0.69952
0.817989
0.999827
1.216
1.16855
0.311093
0.0904751
0.131845
0.165217
0.194405
0.219643
0.241257
0.259957
0.278224
0.307977
0.377205
0.39845
0.387924
0.378124
0.361667
0.347038
0.340862
0.327431
0.312538
0.315275
0.351564
0.4322
0.528935
0.598491
0.63573
0.703649
0.828356
1.0274
1.27594
1.26558
0.337885
0.0893679
0.128409
0.159266
0.18644
0.210041
0.230254
0.249463
0.271746
0.322454
0.384353
0.384129
0.378326
0.370127
0.356962
0.343461
0.338899
0.331556
0.322737
0.327438
0.359373
0.424966
0.516903
0.5928
0.645031
0.718581
0.84751
1.0598
1.33254
1.36521
0.365521
0.088342
0.125373
0.153852
0.179108
0.200877
0.220986
0.241179
0.275827
0.350997
0.372146
0.371625
0.369122
0.363066
0.353992
0.344405
0.341182
0.33817
0.336652
0.347184
0.374333
0.429729
0.522899
0.600821
0.664459
0.742362
0.876897
1.09993
1.3832
1.45645
0.406148
0.0873391
0.122427
0.14878
0.172053
0.19314
0.213224
0.238293
0.296206
0.349783
0.357787
0.360071
0.359946
0.357332
0.353387
0.349467
0.344252
0.344402
0.350453
0.362444
0.389786
0.445646
0.542561
0.625625
0.696015
0.780448
0.921064
1.15156
1.43742
1.54679
0.439647
0.0864117
0.119645
0.143926
0.166322
0.186878
0.207875
0.245149
0.316479
0.337093
0.345163
0.349279
0.3518
0.353431
0.353577
0.351807
0.34839
0.351963
0.362757
0.373605
0.402777
0.469633
0.575136
0.665095
0.741082
0.834689
0.986201
1.21593
1.47685
1.58888
0.477394
0.0855764
0.117106
0.140288
0.161824
0.181899
0.207502
0.266616
0.312477
0.324409
0.334007
0.339913
0.345491
0.349935
0.350711
0.352266
0.353022
0.360124
0.372247
0.387629
0.422326
0.509965
0.625412
0.716295
0.797917
0.909762
1.08104
1.30566
1.51172
1.60902
0.500827
0.0847189
0.115168
0.137504
0.15815
0.179239
0.21643
0.281977
0.303158
0.314664
0.325187
0.33343
0.340602
0.345174
0.347442
0.352464
0.358165
0.368843
0.380211
0.405314
0.460608
0.572542
0.689791
0.778912
0.872026
1.00901
1.20979
1.43312
1.5445
1.44802
0.50857
0.164598
0.164217
0.162789
0.161555
0.160198
0.158707
0.157067
0.155348
0.153539
0.151662
0.149747
0.147709
0.145582
0.143459
0.141347
0.139255
0.137208
0.135192
0.133222
0.131336
0.12953
0.127822
0.126237
0.124755
0.123394
0.122129
0.120965
0.119894
0.118918
0.118051
0.117298
0.116637
0.116055
0.115547
0.115285
0.115627
0.116181
0.117055
0.118526
0.12054
0.122776
0.124773
0.126812
0.129058
0.131632
0.134337
0.137096
0.139878
0.14254
0.145854
0.150892
0.156912
0.161881
0.164681
0.16516
0.16426
0.162759
0.159529
0.154057
0.148671
0.14398
0.140189
0.137004
0.134448
0.132462
0.130919
0.129825
0.129186
0.128941
0.128948
0.129064
0.129248
0.129581
0.130089
0.130616
0.13108
0.131503
0.131813
0.131932
0.131852
0.131582
0.131162
0.130722
0.130346
0.13
0.129606
0.129118
0.128519
0.127799
0.126959
0.126025
0.125044
0.124069
0.123153
0.122326
0.121604
0.121004
0.120552
0.12032
0.120358
0.120553
0.120879
0.121292
0.121793
0.122469
0.123239
0.124036
0.124673
0.12482
0.123813
0.121588
0.11879
0.115
0.110115
0.103693
0.0956863
0.0882304
0.0845059
0.0831996
0.0829579
0.0830223
0.0831821
0.0834737
0.0838247
0.0842596
0.252813
0.254477
0.253974
0.25433
0.254514
0.254504
0.254134
0.253734
0.253152
0.251936
0.250674
0.249054
0.246896
0.24561
0.243485
0.243134
0.240948
0.240713
0.239449
0.238294
0.238644
0.238834
0.24114
0.244043
0.248417
0.253705
0.259964
0.267159
0.275338
0.284792
0.295668
0.308115
0.323249
0.339687
0.356533
0.371556
0.385686
0.399986
0.413651
0.426079
0.437194
0.446695
0.454288
0.460355
0.465789
0.470532
0.474008
0.475659
0.475176
0.476364
0.480361
0.47864
0.472671
0.463741
0.451373
0.438657
0.424234
0.40754
0.388034
0.36909
0.353397
0.341194
0.331791
0.323366
0.316293
0.31087
0.30604
0.302216
0.299103
0.296871
0.295155
0.293774
0.293024
0.292583
0.291747
0.290367
0.288811
0.287047
0.28488
0.282354
0.279665
0.276825
0.273794
0.270577
0.267196
0.263698
0.260158
0.256634
0.253136
0.249653
0.246207
0.242936
0.240023
0.237593
0.235835
0.234524
0.233383
0.232298
0.231137
0.229953
0.229018
0.228262
0.227353
0.225942
0.223711
0.220186
0.215031
0.208996
0.202359
0.19516
0.188376
0.182425
0.177236
0.172607
0.168357
0.163368
0.15468
0.136117
0.120778
0.114007
0.111685
0.111318
0.11182
0.112737
0.113844
0.285114
0.289162
0.290903
0.293795
0.296522
0.299197
0.301475
0.303918
0.306023
0.307519
0.30892
0.309767
0.310446
0.311446
0.312327
0.314306
0.315832
0.318996
0.322235
0.326288
0.332088
0.338586
0.347579
0.358156
0.371581
0.387582
0.406479
0.427697
0.450307
0.473348
0.497801
0.52492
0.553611
0.583206
0.610822
0.635827
0.658446
0.679149
0.697747
0.714777
0.729986
0.743368
0.754332
0.762376
0.76797
0.771793
0.773822
0.773511
0.771039
0.765541
0.751483
0.730094
0.706313
0.678909
0.653027
0.627832
0.598628
0.563043
0.52577
0.491093
0.460398
0.43647
0.419402
0.406782
0.397414
0.390203
0.384709
0.38041
0.377075
0.374396
0.3714
0.368755
0.366842
0.365171
0.363397
0.361123
0.357906
0.35431
0.350605
0.347115
0.343865
0.340638
0.336772
0.332119
0.326955
0.321624
0.316433
0.311613
0.307308
0.303573
0.300353
0.29755
0.295069
0.292724
0.290219
0.287534
0.284751
0.281786
0.278456
0.274518
0.269756
0.263979
0.25725
0.249754
0.241771
0.233854
0.226317
0.219394
0.213334
0.207994
0.203187
0.198905
0.195437
0.192312
0.190064
0.188575
0.186955
0.18343
0.175343
0.156358
0.140376
0.133711
0.132472
0.133447
0.13525
0.299349
0.305061
0.308052
0.312338
0.316237
0.320241
0.32401
0.328156
0.332181
0.336469
0.341466
0.34664
0.352935
0.360246