/*--------------------------------*- C++ -*----------------------------------*\
| =========                 |                                                 |
| \\      /  F ield         | OpenFOAM: The Open Source CFD Toolbox           |
|  \\    /   O peration     | Version:  2112                                  |
|   \\  /    A nd           | Website:  www.openfoam.com                      |
|    \\/     M anipulation  |                                                 |
\*---------------------------------------------------------------------------*/
FoamFile
{
    version     2.0;
    format      ascii;
    arch        "LSB;label=32;scalar=64";
    class       volScalarField;
    location    "0.01108";
    object      T;
}
// * * * * * * * * * * * * * * * * * * * * * * * * * * * * * * * * * * * * * //

dimensions      [0 0 0 1 0 0 0];

internalField   nonuniform List<scalar> 
13875
(
1412.01
1535.58
1482.39
1487.77
1481.98
1484.16
1484.1
1483.96
1484.43
1484.34
1484.14
1484.17
1483.62
1483.93
1483.84
1483.86
1483.43
1484.73
1484.88
1483.12
1481.88
1487.67
1480.54
1533.33
1397.88
1307.03
1356.17
1318.91
1322.16
1316.57
1318.84
1322.17
1323.02
1323.56
1323.42
1323.23
1323.3
1318.17
1317.69
1318.36
1322.76
1322.95
1323.47
1322.32
1317.82
1316.7
1321.86
1319.57
1356.22
1301.71
1307.24
1340.06
1314.27
1311.83
1305.29
1305.96
1305.85
1305.88
1305.84
1304.58
1304.65
1306.05
1303.87
1304.06
1303.91
1305.78
1303.89
1305.95
1306.03
1305.08
1304.86
1311.06
1311.4
1335.73
1296.97
1317.37
1344.79
1314.63
1308.68
1306.06
1306.04
1305.03
1304.19
1303.84
1303.09
1302.7
1303.51
1303.96
1304.1
1304.05
1303.46
1302.43
1303.5
1304.21
1305.48
1305.35
1307.71
1313.92
1343.7
1312.72
1329.52
1342.1
1315.68
1312.4
1305
1306.01
1305.76
1304.2
1303.96
1303.24
1302.75
1303.43
1303.87
1304.24
1303.83
1303.3
1302.52
1304
1305.2
1304.87
1304.75
1311.74
1311.97
1338.61
1316.93
1332.2
1351.12
1318.8
1309.85
1308.08
1306.94
1305.19
1304.52
1303.81
1303.44
1302.92
1303.57
1304.16
1304.52
1304.31
1303.56
1302.64
1303.56
1304.27
1306.56
1307.28
1308.43
1318.97
1349.09
1326.45
1338.98
1360.45
1328.98
1317.47
1308.12
1307.55
1306.69
1304.48
1304.36
1303.95
1303.41
1303.61
1304.33
1304.84
1304.24
1303.58
1303.17
1304.59
1306.19
1306.49
1307.8
1317.6
1325.66
1358.19
1321.35
1359.71
1384.68
1344.03
1321.12
1316.73
1310.44
1306.76
1305.1
1305.05
1304.68
1303.98
1304.16
1305.03
1305.52
1305.22
1304.18
1303.76
1304.96
1306.16
1310
1315.32
1320.39
1341.54
1380.96
1349.79
1537.19
1508.35
1387.06
1350.39
1322.03
1315.85
1310.93
1306.77
1306.85
1306.35
1305.45
1305.3
1306.19
1306.86
1306.33
1305.65
1305.63
1307.26
1310.54
1314.2
1321.31
1349.22
1382.75
1505.59
1521.16
1834.85
1574.37
1427.06
1358.43
1338.43
1320.93
1313.81
1310.45
1309.85
1309.18
1308.11
1307.95
1308.81
1309.55
1309.18
1308.57
1308.84
1310.95
1314.09
1320.59
1337.07
1357.21
1424.87
1566.51
1827.25
2507.09
1804.14
1517.3
1406.77
1349.88
1331.61
1325.42
1317.54
1316.42
1315.09
1313.52
1313.23
1313.95
1314.85
1314.71
1314.62
1315.16
1317.72
1326.15
1330.05
1348.71
1419.38
1502.17
1797.7
2430.11
2812.1
2301.09
1735.17
1462.94
1425.8
1360.97
1339.53
1331.07
1329.16
1326.98
1325.11
1324.82
1325.28
1326.19
1326.31
1326.91
1328.2
1331.77
1339.77
1371.53
1405.52
1457.24
1731.3
2306.16
2837.42
2786.33
2654.44
2351.79
2206.75
1524.33
1414.6
1395.64
1372.49
1364.1
1357.45
1353.82
1353.01
1352.94
1353.83
1354.67
1357.54
1363.61
1374.93
1399.58
1421.8
1567.48
2234.9
2245.85
2687
2766.32
2722.59
2660.3
2744.26
2784.99
2051.55
1831.14
1520.97
1476.09
1459.23
1447.21
1442.35
1441.24
1441.02
1441.89
1443.17
1447.66
1458.79
1478.87
1541.76
1923.22
2101.38
2803.2
2792.61
2702.89
2701.33
2581.72
2638.21
2686.44
2687.51
2590.45
2366.48
2018.53
1965.57
1865.79
1765.84
1730.75
1719.93
1716.38
1717.96
1724.61
1748.61
1840.28
1961.68
1983.83
2421.45
2637.5
2735.75
2678.41
2652.18
2625.71
2499.57
2536.1
2629.5
2685.21
2657.98
2686.06
2872.4
2941.23
2935.12
3034.62
3114.1
3136.62
3146.51
3140.4
3122.96
3056
2904.24
2939.98
2899.74
2717.57
2661.15
2706.6
2624.49
2557.8
2533.14
2313.16
2397.8
2477.96
2531.05
2604.5
2729.59
3032.94
3410.25
3593.2
3684.38
3698.34
3691.54
3688.87
3691.74
3700.6
3701.4
3598.14
3418.67
3054.2
2739.75
2615.82
2564.67
2469.92
2404.4
2328.92
2024.11
2147.05
2302.97
2617.1
2791.15
2829.59
2959.8
3313.97
3529.8
3643.25
3672.99
3672.58
3672.01
3673.89
3674.89
3646.33
3501.92
3291.65
2963.1
2840.1
2807.33
2564.71
2269.95
2139.53
2023.97
1812.58
1879.13
2010.13
2242.28
2718.82
2838.96
2879.06
3105.71
3358.61
3499.69
3544.65
3556.12
3560.64
3559.77
3549.82
3510.7
3360.92
3119.68
2918.77
2926.43
2677.53
2204.23
2007.28
1884.63
1814.51
2462.23
2349.26
2105.98
2195.33
2508.34
2689.19
2698.75
2842.79
3080.79
3278.62
3388.44
3432.4
3441.39
3435.01
3391.64
3278.4
3068.44
2852.08
2729.79
2715.42
2484.12
2222.83
2140.22
2348.25
2453.18
3251.56
3426.69
2749.67
2299.84
2376.73
2531.74
2548.61
2660.33
2885.42
3110.05
3251.37
3305.58
3316.59
3304.92
3245.91
3091.81
2856.3
2656.71
2559.24
2541.64
2358.97
2325.37
2811.17
3480.7
3256.42
3627.11
3574.48
2812.23
2209.62
2213.92
2368.46
2417.26
2523.32
2737.45
2963.45
3118.89
3181.83
3190.92
3177.04
3102.69
2932.05
2701.07
2521.4
2417.88
2370.01
2190.27
2247.66
2899.04
3619.7
3673.67
3496.48
3117.79
2489.19
2057.71
2061.63
2235.11
2308.55
2414.76
2608.11
2832.2
2988.94
3053.63
3066.93
3048.2
2974.49
2806.1
2583.68
2415.79
2299.19
2234.83
2035.81
2054.7
2475.23
3124.61
3529.55
3509.89
2961.89
2249.58
1904.55
1974.54
2137.6
2206.34
2316.69
2504.47
2715.54
2868.5
2935.08
2946.25
2930.04
2853.68
2689.62
2477.09
2318.79
2201.58
2131.15
1943.34
1893.58
2255.62
2980.62
3543.88
3446.98
2786.37
2097.43
1822.46
1927.93
2066.3
2118.14
2230.85
2408.28
2614.34
2757.11
2817.81
2831.85
2810.83
2739.92
2585.93
2383.15
2227.53
2118.48
2064.04
1896.02
1809.3
2113.23
2835.73
3481.38
3418.41
2747.18
2041.48
1827.28
1903.64
2000.05
2040.66
2149.77
2323.22
2512.19
2650.69
2711.65
2721.96
2707.21
2637.66
2490.02
2298.23
2149.58
2043.9
2001.92
1878.57
1818.66
2040.17
2764.69
3454.18
3339.87
2601.33
1964.67
1829.64
1880.65
1954.99
1976.41
2085.74
2247.66
2430
2552.41
2605.49
2619.83
2600.12
2539.25
2408.28
2227.62
2080.31
1978.15
1961.3
1858.31
1824.15
1972.36
2617.05
3366.44
3314.9
2562.68
1971.53
1863.49
1871.53
1907.4
1916.07
2024.78
2184.81
2347.89
2461.67
2513.34
2522.33
2509.41
2449.08
2324.04
2156.37
2019.43
1917.72
1914.96
1854.07
1852.35
1975.77
2608.92
3361.69
3309.91
2538.74
1942.21
1854.06
1840.7
1877.14
1868.68
1976.4
2119.44
2275.44
2374.04
2418.96
2433.11
2415.24
2366.13
2262.38
2106.64
1971.39
1871.01
1883.6
1832.49
1852.61
1935.85
2514.44
3280.92
3269.95
2538.29
1974.09
1886.36
1841.04
1852.08
1826.82
1930.05
2070.81
2207.56
2297.78
2340.91
2347.84
2337.63
2287.01
2188.74
2047.61
1926.98
1827.25
1867.06
1828.68
1874.31
1959.49
2524.83
3266.75
3188.29
2458.05
1946.87
1886.73
1803.62
1827.53
1794.42
1902.94
2023.36
2151.59
2224.49
2258.39
2270.4
2254.23
2215.36
2135.82
2005.93
1889.82
1793.38
1837.24
1805.12
1874.92
1940.11
2462.41
3210.52
3152.93
2452.06
1992.28
1911.25
1810.33
1806.13
1769.53
1864.69
1980.49
2090.11
2157.78
2192.4
2196.69
2191.14
2150.32
2076.07
1962.39
1866.57
1767.69
1819.41
1807.61
1891.57
1968.81
2421.01
3131.32
3087.26
2396.32
1994
1894.71
1782.71
1774.77
1742.72
1848.6
1943.17
2045.52
2097.39
2121.09
2131.17
2117.76
2089.8
2033.54
1927.8
1835.87
1743.15
1783.22
1789.31
1886.29
1963.77
2376.95
3098.54
3053.43
2375.34
2027.95
1915.03
1805.79
1760.96
1731.43
1824.08
1908.89
1993.67
2040.05
2067.35
2068.69
2066.43
2033.12
1979.68
1889.55
1820.77
1722.79
1770.63
1796.4
1898.92
2016.11
2371.19
3080.25
3013.18
2342.38
2018.24
1910.02
1787.16
1731.28
1700.36
1809.58
1875.52
1953.55
1988.93
2005.29
2014.03
2002.77
1984.16
1947.66
1861.95
1800.79
1698.39
1739.25
1795.28
1902.72
2016.17
2336.2
3026.66
2997.57
2334.3
2019.97
1923.73
1802.8
1734.61
1695.88
1789.81
1848.03
1908.83
1939.87
1962.17
1961.37
1961.44
1933.09
1896.61
1831.42
1790.57
1682.18
1730.19
1806.74
1922.32
2014.47
2344.64
3011.88
2952.56
2286.71
2009.58
1943.1
1794.39
1719.39
1671.67
1775.84
1819.12
1877.78
1898.41
1908.55
1915.71
1905.51
1893.45
1873.06
1800.87
1769.01
1663.9
1720.7
1792.06
1938.35
2008.48
2303.62
2974.28
2943.08
2297.18
2015.42
1979.88
1815.71
1731.61
1672.67
1759.29
1793.12
1835.69
1855.19
1873.68
1871.31
1873.76
1849.85
1825.96
1779.61
1763.64
1657.56
1722.96
1815.71
1972.71
2003.55
2283.2
2910.04
2905.22
2276.78
1995.88
1993.38
1811.7
1715.63
1655.48
1748.19
1764.54
1810.93
1822.14
1827.49
1833.02
1825.73
1818.09
1808.62
1744.12
1741.11
1650.42
1716.53
1810.68
1996.06
1979.07
2262.04
2881.87
2854.61
2268.97
1979.75
1995.52
1845.65
1748.28
1676.14
1739.87
1745.07
1772.53
1784.16
1799.33
1796.13
1800.27
1779.11
1764.28
1728.49
1737.4
1656.64
1733.82
1839.74
1986.83
1962.83
2251.63
2887.43
2827.28
2258.08
1948.26
1983.66
1880.53
1733.79
1664.46
1728.03
1717.47
1753.03
1757.24
1760.09
1763.69
1758.42
1755.06
1753.91
1694.09
1719.76
1667.02
1727.18
1873.46
1987.25
1938.75
2256.65
2864.31
2792.41
2251.13
1934.66
1974.22
1927.09
1767.2
1704.64
1733.49
1706.64
1719.82
1724.1
1736.66
1732.53
1738
1718.99
1716.59
1690.94
1726.47
1690.78
1762.06
1935.62
1977.78
1940.66
2270.27
2818.76
2762.19
2228.94
1913.63
1959.85
1930.81
1786.66
1707.11
1730.62
1684.02
1706.98
1703.22
1703.11
1704.86
1701.22
1701.09
1709.65
1657.46
1713.31
1699.44
1773.15
1936.55
1967.08
1924.63
2247.01
2774.61
2728.21
2227.85
1912.49
1926.88
1913.87
1835.27
1742.19
1749.69
1689.42
1681.19
1675.02
1683.81
1678.56
1685.56
1668.53
1682.42
1672.16
1734.79
1727.89
1829.08
1929.72
1945.84
1918.12
2214.5
2739.78
2707.45
2215.43
1901.64
1903.65
1902.32
1904.93
1759.51
1748.15
1676.51
1679.91
1661.11
1655.27
1654.9
1654.04
1658.92
1682.54
1652.48
1729.45
1753.88
1895.68
1917.13
1918.16
1900.98
2217.39
2707.51
2669.35
2196.66
1900.61
1883.14
1878.25
1892.38
1827.97
1771.99
1701.56
1667.75
1641.58
1641.8
1633.4
1643.5
1630.25
1664.59
1680.64
1757.08
1808.12
1898.37
1897.99
1893.42
1903.93
2200.85
2671.69
2652.48
2195.43
1894.5
1859.86
1850.77
1875.81
1907
1792.19
1688.66
1681.34
1643.98
1624.34
1616.32
1620.15
1642.22
1683.34
1664.3
1771.79
1882.35
1878.47
1869.23
1875
1886.87
2196.27
2649.34
2605.21
2172.86
1888.98
1852.4
1829.6
1862.9
1894.62
1851.73
1730.53
1673.57
1633.15
1625.88
1608.6
1627.45
1618.95
1673.43
1713.14
1826.73
1899.8
1866.12
1844.44
1859.47
1904.65
2182.75
2599.09
2564.52
2156.07
1875.3
1840.95
1804.39
1827.51
1879.7
1939.32
1732.69
1697.29
1647.77
1619.17
1608.22
1612.61
1646.06
1696.33
1711.27
1917.52
1879.36
1830.26
1823.01
1858.84
1891.82
2160.26
2561.66
2402.11
2108.76
1854.4
1825.98
1786.82
1796.27
1856.65
1921.42
1821.68
1710.82
1641.9
1629.39
1610.75
1630.21
1623.42
1706.72
1797.26
1929.05
1863.41
1802.43
1804.47
1845.28
1863.76
2106
2394.27
1059.43
997.038
942.467
882.085
821.436
764.176
713.408
669.906
633.091
601.466
573.915
549.947
529.3
511.474
496.463
483.936
473.925
465.795
459.015
453.318
448.054
443.062
438.214
433.55
429.152
425.091
421.418
418.006
414.852
412.075
1060.3
997.927
946.049
890.462
835.465
784.073
738.694
698.044
662.925
631.555
602.927
577.148
553.831
532.651
513.999
497.777
484.487
473.776
464.983
457.848
451.489
445.932
440.797
435.887
431.693
427.731
424.402
421.57
418.249
416.019
1061.44
1003.46
955.335
903.116
851.201
802.141
758.084
718.615
683.378
651.269
621.693
594.557
569.396
546.229
525.277
506.594
490.781
477.783
467.608
459.554
452.627
446.734
441.489
436.605
432.387
428.464
425.577
422.768
419.177
417.03
1068.79
1012.95
967.952
919.719
871.626
826.213
784.897
747.144
712.893
680.891
650.624
621.872
594.455
568.496
544.346
522.33
503.164
486.907
473.76
463.498
455.368
448.851
443.355
438.482
434.108
430.732
427.899
424.858
422.165
420.116
1075.37
1023.82
982.312
938.445
894.328
852.192
813.006
776.475
742.748
710.454
679.21
648.853
619.418
591.013
564.072
538.916
516.346
496.603
480.073
467.114
457.493
450.083
444.268
439.233
435.023
431.803
428.926
426.017
423.758
421.995
1081.9
1034.07
996.609
957.382
917.485
878.89
842.316
807.582
774.772
742.608
710.971
679.602
648.335
617.675
587.985
559.706
533.535
509.973
489.72
473.582
461.598
452.867
446.482
441.247
436.893
433.305
430.321
427.923
425.897
424.539
1087.33
1044.41
1011.36
976.886
941.424
906.276
872.557
839.687
807.755
776.056
744.24
711.791
678.934
645.945
613.518
582.262
552.514
525.258
501.397
481.697
466.347
455.43
447.917
442.324
437.764
434.18
431.101
428.663
426.534
425.687
1093.8
1055.22
1026.62
996.954
965.94
934.278
903.737
872.976
842.311
811.259
779.531
746.153
711.866
677.001
641.817
607.906
574.958
544.382
516.928
493.393
474.353
460.522
451.112
444.63
439.723
435.81
432.448
429.952
428.116
427.848
1099.99
1066.37
1042.23
1017.44
990.919
962.825
935.433
906.98
877.88
847.948
816.095
781.589
745.88
709.197
671.514
635.212
599.653
565.933
534.921
507.592
484.774
467.063
454.565
446.32
440.765
436.665
433.165
430.609
429.16
428.863
1106.58
1077.51
1057.86
1038
1016.11
991.789
967.342
941.328
914.045
885.282
853.001
817.416
780.502
742.617
703.189
665.084
627.314
590.441
556.013
525.05
498.423
476.697
460.551
449.776
443.037
438.479
434.731
431.895
430.642
430.262
1112.27
1088.31
1073.26
1058.27
1041.12
1020.94
999.1
975.422
950.11
922.222
889.069
852.95
815.81
777.503
736.835
696.674
656.771
617.063
579.449
544.81
514.076
488.251
468.025
453.79
445.04
439.811
435.907
432.994
431.725
431.196
1117.85
1098.61
1088.23
1078.07
1065.53
1049.39
1030.49
1009.15
985.54
957.696
923.99
888.62
852.252
813.574
772.14
729.991
688.416
646.282
605.691
567.468
532.54
502.412
477.97
460.092
448.622
442.033
437.498
434.303
432.911
432.366
1122.53
1108.44
1102.57
1097.11
1089.1
1076.79
1061.05
1042.02
1019.77
991.195
958.342
924.871
889.201
850.286
808.498
764.827
721.659
677.476
634.162
592.547
553.624
518.93
489.947
467.697
452.444
443.705
438.379
434.924
433.386
433.241
1126.1
1117.96
1116.23
1115.22
1111.58
1103.01
1090.36
1073.63
1052.75
1024.64
993.17
960.952
926.006
887.236
845.346
801.012
756.171
710.609
665.043
620.466
577.927
538.981
505.23
478.126
458.268
446.23
439.64
435.932
434.399
434.288
1129.53
1126.44
1129.26
1132.33
1132.72
1127.92
1118.21
1103.76
1084.24
1057.12
1027.51
996.328
962.226
923.842
882.184
838.009
791.575
745.136
697.805
650.677
604.826
561.944
523.625
491.342
466.25
449.645
440.78
436.529
434.873
434.873
1132.31
1134.69
1141.13
1148.68
1152.43
1151.26
1144.48
1132.29
1114.23
1088.63
1060.8
1030.82
997.25
959.743
918.689
875.111
827.713
780.676
732.182
683.036
634.338
587.804
545.079
507.701
477.238
455.416
443.176
437.737
435.633
435.54
1134.84
1142.14
1152.87
1163.95
1171.05
1172.91
1169.05
1159.11
1142.65
1118.76
1092.69
1063.74
1031.01
994.321
954.252
911.563
864.229
816.494
767.416
716.806
665.803
616.061
569.153
526.77
490.749
463.136
446.545
438.905
436.059
435.844
1137.06
1148.91
1163.31
1177.71
1188.59
1192.94
1191.85
1184.22
1169.47
1147.47
1122.91
1095.15
1063.42
1027.14
988.677
946.892
900.712
852.235
802.916
751.319
698.525
646.091
595.484
548.498
507.343
474.289
452.242
440.975
436.685
436.255
1137.94
1154.9
1172.91
1190.86
1204.86
1211.66
1212.88
1207.54
1194.56
1174.71
1151.52
1124.99
1094.25
1059.12
1021.25
981.011
936.271
887.757
838.021
785.773
731.544
676.813
623.045
572.159
526.533
488.363
460.104
444.2
437.603
436.389
1139.03
1160.28
1181.6
1202.84
1219.79
1229.12
1232.17
1229.14
1217.87
1200.21
1178.56
1153.18
1123.52
1089.4
1052.89
1013.6
970.28
922.975
872.444
819.795
764.5
707.907
651.562
597.382
547.675
504.638
470.579
449.025
439.512
436.969
1139.24
1165.28
1189.62
1213.89
1233
1245.13
1249.87
1249.06
1239.57
1223.74
1203.93
1179.92
1151.37
1118.34
1083.2
1044.84
1002.99
957.135
906.439
853.246
797.293
739.291
680.856
623.744
570.124
522.173
482.449
454.704
441.624
437.83
1138.5
1170.04
1197.45
1224.12
1245.48
1259.68
1266.16
1267.29
1259.69
1245.82
1227.67
1205.04
1177.72
1146.06
1112.2
1075.35
1034.15
989.661
940.106
885.935
829.647
770.634
710.537
650.939
593.881
541.472
496.336
462.495
444.496
438.327
1140.15
1175.02
1205.77
1233.93
1256.75
1272.73
1281.05
1283.83
1278.26
1266.4
1250.01
1228.83
1202.76
1172.58
1139.92
1104.36
1064.56
1020.87
972.535
917.905
861.221
801.605
740.275
678.687
618.766
562.611
513.156
473.252
448.811
439.387
1115.95
1183.84
1216.47
1244.31
1267.27
1284.04
1294.39
1298.77
1295.21
1285.68
1271.1
1251.4
1226.63
1198.02
1166.59
1132.2
1093.56
1050.58
1002.84
948.868
891.46
831.739
769.583
706.424
644.216
585.149
531.94
486.661
455.011
441.068
1148.94
1223.75
1241.51
1258.45
1278.21
1294.83
1306.39
1312.38
1310.91
1303.5
1290.84
1272.84
1249.44
1222.37
1192.07
1158.48
1120.4
1077.51
1030.45
978.037
920.293
860.689
797.976
733.623
669.487
607.705
550.747
501.005
462.466
443.568
412.019
414.585
418.165
421.888
425.746
429.76
434.103
438.674
443.301
447.865
452.889
458.488
465.417
473.512
483.427
496.045
511.313
529.314
550.231
574.407
602.207
634.083
670.867
713.933
764.214
821.14
881.3
941.649
996.567
1059.94
415.718
418.134
421.323
424.664
428.123
431.901
436.198
441.036
446.145
451.604
457.555
464.184
473.102
483.931
497.204
513.494
532.476
553.888
577.5
603.526
632.21
663.839
698.835
739.1
784.003
835.028
889.327
944.89
997.271
1060.44
416.65
419.291
422.285
425.531
428.482
432.133
436.467
441.533
446.789
452.767
459.254
466.567
476.635
489.396
505.136
523.857
545.115
568.531
594.026
621.507
651.037
683.506
718.787
757.969
801.67
850.405
901.678
953.849
1002.45
1061.47
418.84
421.86
424.396
427.097
429.888
433.715
437.957
443.004
448.653
455.121
462.829
472.206
484.752
500.738
519.749
541.74
566.097
592.321
620.181
649.279
679.633
712.066
746.483
784.062
825.12
870.341
917.946
966.283
1011.67
1068.77
420.721
422.863
425.291
427.906
430.575
434.376
438.735
443.74
449.631
456.514
465.536
477.437
492.981
512.292
534.678
559.836
587.096
615.824
645.675
676.506
707.92
740.76
774.77
811.251
850.309
892.496
936.317
980.495
1022.6
1075.27
424.338
425.069
426.939
429.383
432.269
436.045
440.354
445.401
451.474
459.545
470.579
485.339
504.391
527.362
553.316
581.67
611.807
642.92
674.741
706.823
738.739
771.507
804.774
839.604
876.151
915.026
954.812
994.54
1032.84
1082.26
426.036
425.971
427.604
430.057
433.091
436.887
441.249
446.41
453.141
462.963
476.86
495.013
517.49
543.779
573.22
604.715
637.661
671.453
705.15
738.508
770.975
803.533
835.866
868.915
902.742
938.318
973.854
1008.96
1042.94
1087.72
427.016
427.095
428.391
431.054
434.505
438.705
443.23
448.877
456.907
469.13
486.396
508.382
534.445
563.928
596.396
630.561
666.118
702.284
737.691
772.239
804.937
836.911
868.213
899.348
930.101
962.248
993.502
1023.93
1053.56
1094.11
427.3
427.565
428.958
431.599
435.341
439.636
444.486
451.236
461.706
477.265
498.25
524.051
553.953
586.904
621.985
658.365
696.104
734.135
771.245
807.162
840.265
871.269
901.246
930.333
958.02
986.66
1013.55
1039.23
1064.6
1099.97
428.469
429.126
430.613
433.152
437.035
441.609
447.172
455.778
469.503
489.015
514
543.582
576.93
613.179
650.869
689.065
728.66
767.474
805.631
842.562
876.419
906.319
934.625
961.53
986.294
1011.44
1033.78
1054.67
1075.73
1106.89
429.904
430.105
431.446
434.291
438.27
443.141
450.154
461.876
479.693
503.647
532.786
566.119
602.859
642.209
682.231
722.224
763.576
802.663
840.607
877.754
912.354
941.638
967.965
992.587
1014.86
1036.11
1053.8
1069.9
1086.5
1112.47
431.47
431.586
432.805
435.761
440.102
445.566
454.966
470.582
493.034
521.508
554.819
591.921
631.886
673.966
715.886
757.748
800.067
839.578
876.734
912.871
947.065
976.518
1001.02
1023.33
1043.23
1060.31
1073.36
1084.88
1096.83
1118.22
432.278
432.123
433.369
436.592
441.235
448.496
461.579
481.735
508.926
541.94
579.629
620.531
663.502
707.884
751.381
795.044
837.6
877.311
913.789
948.022
981.189
1010.62
1033.77
1053.64
1070.58
1083.76
1092.47
1099.17
1106.63
1122.99
432.781
432.831
434.129
437.688
443.365
453.592
471.092
496.063
528.214
565.938
607.718
651.964
697.447
743.459
788.247
833.139
875.606
915.114
950.827
983.631
1015.42
1044.07
1065.64
1083.02
1096.88
1106.37
1110.8
1112.79
1116.18
1126.87
433.377
433.429
434.898
438.693
446.153
460.448
483.228
513.726
551.032
593.223
638.641
685.697
733.13
780.078
826.179
871.353
913.415
952.432
987.107
1018.9
1048.83
1076.43
1096.35
1111.21
1122.06
1127.75
1128.12
1125.94
1125.01
1130.64
434.32
434.407
436.198
440.792
451.097
470.445
498.986
535.12
577.215
623.362
671.871
721.139
769.922
817.261
864.522
909.135
950.473
988.578
1022.53
1053.01
1081.18
1107.27
1125.63
1138.03
1145.85
1147.76
1144.65
1138.2
1133.57
1133.59
434.737
434.839
437.303
443.757
458.095
483.402
517.793
559.282
605.815
655.441
706.515
757.452
807.02
854.597
902.344
945.925
986.179
1023.21
1056.42
1085.75
1112.25
1136.52
1153.2
1163.33
1168
1166.65
1160.15
1150.31
1141.3
1136.45
434.985
435.248
439.001
448.735
468.533
499.678
539.536
585.83
636.268
688.831
741.923
794.009
843.855
891.893
939.069
981.338
1019.97
1056.4
1088.58
1116.74
1141.66
1164.14
1179
1186.93
1188.54
1184.59
1174.33
1161.18
1148.48
1138.9
434.921
435.996
441.719
455.715
481.87
518.579
563.439
613.944
667.722
722.716
777.38
830.216
880.136
928.669
974.289
1014.95
1052.52
1087.87
1119.05
1146.01
1169.46
1190
1203.03
1208.74
1207.73
1201.33
1187.95
1171.35
1154.92
1139.98
435.753
437.677
445.972
465.22
497.546
539.621
588.963
643.103
699.659
756.609
812.436
865.664
915.933
964.083
1007.89
1047.16
1083.5
1117.68
1147.79
1173.53
1195.6
1214.01
1225.28
1228.73
1225.73
1216.74
1200.54
1180.62
1160.75
1141.37
436.074
439.399
450.812
476.297
514.769
562.065
615.617
672.928
731.775
790.239
846.83
900.255
951.139
997.767
1039.77
1078.24
1112.9
1145.95
1175
1199.48
1219.92
1236.13
1245.81
1247.07
1242.34
1230.71
1212.28
1189.16
1166.18
1141.97
436.308
441.544
457.28
489.28
533.537
585.852
643.177
703.205
763.891
823.461
880.424
934.321
984.957
1029.74
1071.08
1107.81
1141.06
1172.78
1200.65
1223.76
1242.52
1256.52
1264.64
1263.94
1257.54
1243.85
1223.25
1197.44
1171.27
1141.5
437.388
445.211
466.725
505.262
554.425
610.822
671.319
733.537
795.614
855.911
913.003
967.746
1016.95
1060.77
1100.69
1136.03
1168.08
1198.21
1224.88
1246.63
1263.46
1275.36
1281.73
1279.43
1271.24
1255.85
1233.72
1206.17
1176.36
1143.16
438.979
450.678
479.252
523.728
577.072
636.634
699.594
763.496
826.499
887.069
944.437
999.375
1047.3
1090.52
1129.08
1163.11
1193.96
1222.48
1247.87
1267.94
1282.95
1292.91
1297.23
1293.48
1283.52
1267.1
1244.71
1217.03
1185.18
1119.67
441.054
457.45
493.39
542.697
599.888
662.39
727.414
792.736
856.363
916.843
974.717
1028.24
1075.31
1117.92
1155.79
1188.92
1218.69
1245.74
1269.47
1288.01
1301.27
1309.17
1311.38
1306.21
1294.99
1278.63
1259.28
1241.71
1224.99
1152.18
1638.58
1670.22
1680.87
1701.06
1712.32
1729.51
1740.81
1755.92
1767.16
1780.71
1791.92
1804.46
1815.68
1827.62
1838.91
1850.56
1862.01
1873.57
1884.9
1895.85
1906.49
1917.09
1927.58
1937.82
1947.91
1957.36
1966.44
1975.27
1983.86
1992.25
2000.41
2008.25
2015.74
2022.88
2029.66
2036.09
2042.15
2047.83
2053.1
2057.95
2062.34
2066.23
2069.54
2072.26
2074.46
2076.02
2076.85
2077.06
2076.52
2075.26
2072.91
2069.97
2066.49
2061.26
2055.35
2048.55
2040.78
2031.98
2022.06
2011.2
1999.38
1986.68
1973.01
1958.41
1942.86
1926.34
1908.94
1890.71
1871.72
1852.06
1831.86
1811.17
1790.07
1768.65
1747.08
1725.32
1703.45
1681.69
1659.99
1638.15
1616.51
1595.12
1573.54
1551.7
1530.18
1508.49
1485.99
1463.14
1440.63
1417.51
1392.45
1367.37
1342.63
1316.63
1287.17
1257.81
1229.58
1200.35
1167.81
1133.67
1099.23
1063.19
1024.94
984.733
942.542
898.396
852.618
806.374
761.188
717.788
677.33
640.927
608.637
580.034
555.297
534.191
516.144
500.648
487.206
475.853
466.58
458.933
452.552
447.439
443.735
1706.83
1731.84
1745.01
1761.11
1775.09
1789.51
1802.82
1816.22
1828.92
1841.66
1853.96
1866.27
1878.32
1890.35
1902.19
1913.98
1925.68
1937.34
1948.88
1960.21
1971.33
1982.31
1993.15
2003.78
2013.99
2023.92
2033.51
2042.76
2051.71
2060.33
2068.7
2076.75
2084.46
2091.81
2098.78
2105.35
2111.51
2117.22
2122.47
2127.21
2131.42
2135.05
2138.08
2140.49
2142.25
2143.31
2143.72
2143.44
2142.4
2140.59
2137.95
2134.52
2130.21
2124.91
2118.68
2111.49
2103.34
2094.55
2083.99
2072.66
2060.24
2046.72
2032
2016.32
1999.7
1982.28
1964.01
1944.92
1925.05
1904.58
1883.58
1862.13
1840.31
1818.22
1795.99
1773.67
1751.34
1729.07
1706.82
1684.63
1662.56
1640.64
1618.77
1596.92
1575.07
1553.07
1530.77
1508.2
1485.31
1461.84
1437.71
1413.15
1387.94
1361.67
1334.32
1306.61
1278.47
1248.97
1217.89
1185.72
1152.13
1116.84
1080.03
1041.89
1002.39
961.475
919.497
877.254
835.666
795.383
757.291
722.015
689.718
660.254
633.754
609.772
587.737
567.555
548.931
531.4
515.071
500.262
486.955
475.17
465.523
1761.54
1782.49
1797.35
1812
1826.26
1840.25
1853.85
1867.24
1880.32
1893.28
1906.08
1918.77
1931.33
1943.79
1956.13
1968.37
1980.53
1992.61
2004.57
2016.36
2027.97
2039.41
2050.67
2061.68
2072.41
2082.78
2092.75
2102.35
2111.65
2120.65
2129.32
2137.64
2145.59
2153.16
2160.32
2167.06
2173.32
2179.09
2184.3
2188.94
2192.96
2196.33
2199.03
2201.04
2202.32
2202.87
2202.83
2202.02
2200.44
2198.09
2194.94
2190.98
2186.16
2180.43
2173.76
2166.11
2157.43
2147.7
2136.74
2124.64
2111.45
2097.44
2081.65
2065.14
2047.57
2028.93
2009.2
1988.74
1967.67
1946.14
1924.14
1901.72
1878.94
1855.99
1832.95
1809.89
1786.89
1764.03
1741.37
1718.96
1696.73
1674.59
1652.51
1630.52
1608.54
1586.47
1564.25
1541.82
1519.07
1495.9
1472.28
1448.17
1423.46
1398.04
1371.97
1345.39
1318.15
1289.95
1260.73
1230.47
1199.22
1166.94
1133.11
1097.99
1062.29
1025.41
988.2
950.933
914.078
878.024
843.264
810.185
778.912
749.434
721.769
695.666
670.784
647.059
624.431
602.547
581.322
561.118
542.248
524.475
508.518
1815.73
1835.24
1850.51
1864.58
1878.77
1892.79
1906.66
1920.42
1934.04
1947.57
1960.99
1974.31
1987.53
2000.65
2013.65
2026.5
2039.37
2052.08
2064.65
2077.05
2089.25
2101.25
2113.11
2124.77
2136.1
2146.96
2157.39
2167.48
2177.32
2186.81
2195.91
2204.61
2212.91
2220.8
2228.28
2235.29
2241.78
2247.69
2252.98
2257.61
2261.54
2264.75
2267.2
2268.89
2269.74
2269.96
2269.45
2268.14
2266.03
2263.14
2259.44
2254.9
2249.5
2243.18
2235.93
2227.68
2218.31
2207.72
2195.83
2182.66
2168.22
2152.59
2135.65
2117.6
2098.51
2078.68
2057.37
2035.48
2012.88
1989.6
1965.71
1941.6
1917.4
1893.27
1869.15
1845.07
1821.13
1797.45
1774.08
1751.05
1728.33
1705.91
1683.74
1661.67
1639.6
1617.51
1595.37
1573.07
1550.55
1527.72
1504.54
1480.94
1456.88
1432.29
1407.18
1381.57
1355.35
1328.44
1300.72
1272.2
1242.86
1212.69
1181.61
1149.83
1117.51
1084.62
1050.92
1016.7
983.789
951.326
919.492
888.683
858.938
830.224
802.563
775.796
749.731
724.314
699.529
675.132
651.029
627.294
604.459
582.526
562.256
1874.81
1893.85
1908.87
1922.17
1936.05
1950.11
1964.31
1978.57
1992.83
2007.04
2021.19
2035.26
2049.24
2063.13
2076.9
2090.57
2104.13
2117.56
2130.83
2143.9
2156.69
2169.22
2181.82
2194.17
2206.07
2217.44
2228.35
2238.97
2249.43
2259.41
2268.93
2278.02
2286.69
2294.97
2302.81
2310.15
2316.92
2323.02
2328.45
2333.18
2337.2
2340.43
2342.85
2344.41
2345.1
2345.19
2344.43
2342.8
2340.34
2337.05
2332.9
2327.85
2321.84
2314.87
2306.97
2298.08
2287.98
2276.45
2263.42
2248.9
2232.9
2215.46
2196.64
2176.55
2155.32
2133.03
2109.7
2085.55
2060.82
2035.91
2010.22
1984.46
1958.55
1932.47
1906.4
1880.64
1855.33
1830.57
1806.3
1782.5
1759.18
1736.34
1713.89
1691.73
1669.79
1647.94
1626.04
1604.03
1581.79
1559.39
1536.73
1513.76
1490.42
1466.69
1442.56
1418.01
1392.97
1367.37
1341.17
1314.35
1286.93
1258.89
1230.27
1201.13
1171.58
1141.71
1111.59
1081.31
1051.1
1020.83
990.848
962.351
934.39
906.708
879.594
852.892
826.493
800.364
774.473
748.661
722.833
696.874
671.335
646.412
623.029
1943.26
1961.24
1975.2
1986.51
1999.46
2013.05
2027.29
2041.88
2056.65
2071.5
2086.35
2101.15
2115.88
2130.49
2144.98
2159.31
2173.47
2187.44
2201.2
2214.75
2228.1
2241.21
2254.2
2266.91
2279.08
2290.74
2301.87
2312.7
2323.6
2333.75
2343.41
2352.64
2361.5
2369.98
2378.03
2385.4
2392.24
2398.33
2403.78
2408.67
2412.92
2416.41
2419.12
2421.04
2422.01
2422.28
2421.72
2420.17
2417.76
2414.51
2410.36
2405.12
2398.7
2390.89
2382.59
2373.29
2362.88
2350.81
2336.78
2321.03
2303.45
2284.16
2263.27
2240.94
2217.3
2192.43
2166.47
2139.65
2112.22
2084.51
2056.54
2028.49
2000.49
1972.91
1945.16
1917.82
1890.88
1864.34
1838.51
1813.57
1789.52
1766.3
1743.66
1721.46
1699.56
1677.9
1656.38
1634.9
1613.39
1591.67
1569.71
1547.42
1524.91
1502.11
1479
1455.53
1431.66
1407.37
1382.64
1357.46
1331.85
1305.82
1279.4
1252.62
1225.56
1198.26
1170.79
1143.26
1115.88
1088.54
1061.18
1033.93
1006.44
979.628
953.721
927.487
901.292
875.07
848.795
822.315
795.523
768.237
740.945
713.886
688.169
2029.62
2042.46
2051.25
2059.08
2069.67
2081.72
2095.02
2109.26
2124.11
2139.24
2154.49
2169.75
2184.91
2199.93
2214.76
2229.34
2243.65
2257.67
2271.39
2284.83
2298.08
2311.18
2323.91
2336.1
2347.62
2358.7
2369.45
2379.89
2389.91
2399.33
2408.29
2416.83
2424.96
2432.63
2439.76
2445.25
2450.75
2455.35
2459.64
2463.75
2467.72
2471.12
2474.22
2476.9
2478.79
2479.59
2479.68
2478.81
2477.26
2475.04
2472.02
2468
2462.88
2455.8
2447.83
2439.52
2430.76
2420.33
2406.62
2390.78
2372.58
2352.43
2330.22
2306.33
2280.87
2253.89
2225.52
2196.12
2165.99
2135.66
2105.23
2074.79
2044.37
2014.22
1984.42
1955.15
1926.53
1898.81
1871.83
1845.97
1821.18
1797.26
1774.16
1751.79
1730.03
1708.74
1687.71
1666.79
1645.85
1624.85
1603.75
1582.55
1561.02
1539.14
1516.97
1494.58
1471.88
1448.87
1425.53
1401.85
1377.85
1353.54
1328.96
1304.15
1279.14
1253.98
1228.72
1203.41
1178.08
1152.71
1127.38
1102.1
1076.7
1051.19
1025.06
998.778
973.311
947.238
921.061
894.424
867.197
839.221
810.881
782.381
755.003
2148.59
2148.73
2144.82
2142.09
2146.41
2155.09
2166.37
2178.61
2192.45
2206.94
2221.85
2236.84
2251.71
2266.34
2280.63
2294.52
2307.95
2320.94
2333.49
2345.68
2357.52
2368.94
2379.36
2388.97
2397.89
2406.28
2414.26
2421.8
2428.85
2435.56
2442.1
2448.39
2454.17
2459.13
2463.06
2465.46
2466.85
2468.1
2469.93
2471.93
2474.85
2477.4
2480.41
2483.92
2487.22
2488.81
2489.43
2489.84
2489.85
2489.1
2487.71
2486.3
2484.29
2481.35
2477.24
2471.21
2463.72
2453.57
2442.24
2429.47
2414.4
2397.4