/*--------------------------------*- C++ -*----------------------------------*\
| =========                 |                                                 |
| \\      /  F ield         | OpenFOAM: The Open Source CFD Toolbox           |
|  \\    /   O peration     | Version:  2112                                  |
|   \\  /    A nd           | Website:  www.openfoam.com                      |
|    \\/     M anipulation  |                                                 |
\*---------------------------------------------------------------------------*/
FoamFile
{
    version     2.0;
    format      ascii;
    arch        "LSB;label=32;scalar=64";
    class       volVectorField;
    location    "0.01108";
    object      U;
}
// * * * * * * * * * * * * * * * * * * * * * * * * * * * * * * * * * * * * * //

dimensions      [0 1 -1 0 0 0 0];

internalField   nonuniform List<vector> 
13875
(
(2204.17 109.693 1.81271e-18)
(2142.47 5.6252 -9.38747e-19)
(2170.26 -2.17838 -9.41092e-19)
(2167.81 -0.747766 0)
(2170.38 -0.0233056 0)
(2169.26 -1.27132 9.36857e-19)
(2169.47 -1.06682 -9.37097e-19)
(2169.61 -0.195523 -4.68552e-19)
(2169.46 -0.209431 4.6826e-19)
(2169.49 0.00323072 0)
(2169.55 0.478003 -3.88195e-22)
(2169.44 1.12611 -3.88103e-22)
(2169.57 0.942709 0)
(2169.39 -0.0154345 -4.68228e-19)
(2169.45 -0.923986 4.68593e-19)
(2169.6 -1.29119 0)
(2169.87 -0.264019 9.37053e-19)
(2169.22 0.349158 -9.37802e-19)
(2169.14 0.941343 3.87944e-22)
(2169.81 1.18705 -3.85757e-22)
(2170.45 -0.165224 -9.36282e-19)
(2167.85 0.297491 9.37162e-19)
(2171.11 2.47324 -1.8781e-18)
(2143.38 -8.68842 1.91702e-18)
(2210.25 -106.973 1.76457e-18)
(2253.39 91.9354 -1.63245e-18)
(2228.46 -1.16398 1.88336e-18)
(2247.4 0.689111 8.71864e-19)
(2245.45 0.924907 -8.67123e-19)
(2248.47 -0.268293 4.16911e-22)
(2247.29 1.85051 5.20055e-22)
(2245.86 1.12215 4.16206e-22)
(2245.43 0.103853 -4.35738e-19)
(2245.1 0.330154 4.35978e-19)
(2245.17 0.175549 2.17557e-19)
(2245.27 -0.48101 -1.62979e-19)
(2245.36 -1.38585 -5.31533e-20)
(2247.65 -1.16379 0)
(2247.84 0.0567948 -4.34998e-19)
(2247.56 1.03676 4.33459e-19)
(2245.59 1.43215 4.36029e-19)
(2245.52 0.500028 -4.35306e-19)
(2245.2 -0.242994 5.18488e-22)
(2245.69 -1.56266 -5.18692e-22)
(2247.84 -1.97238 5.19787e-22)
(2248.39 0.741658 -8.71453e-19)
(2245.59 -0.725478 2.59966e-18)
(2247.26 -1.56599 -1.74255e-18)
(2228.95 3.49263 5.42844e-22)
(2256.86 -96.9577 -1.71209e-18)
(2252.4 78.123 0)
(2236.34 -18.2425 0)
(2249.5 4.43987 0)
(2250.58 -1.84131 0)
(2253.54 -2.33962 -1.63929e-18)
(2253.27 1.64392 1.64245e-18)
(2253.14 1.93572 1.72323e-18)
(2253.18 0.617531 -2.58226e-18)
(2253.12 -0.0832706 8.61631e-19)
(2253.7 -0.084789 4.30508e-22)
(2253.69 0.173646 -4.30886e-19)
(2253.03 -2.21141 4.29916e-19)
(2254.07 -2.555 0)
(2253.98 0.00287264 0)
(2254.04 2.35758 4.08174e-22)
(2253.18 2.00094 0)
(2254.07 0.221651 8.38103e-22)
(2253.11 -0.291202 4.3055e-19)
(2253.1 -2.51607 -4.30685e-19)
(2253.54 -1.75345 0)
(2253.72 2.35613 0)
(2250.9 1.32446 0)
(2250.67 -4.81595 0)
(2238.22 13.6658 0)
(2257.41 -74.3287 0)
(2247.86 51.3564 0)
(2235.05 -28.6783 1.81421e-18)
(2249.3 7.21647 -3.41694e-18)
(2251.6 -4.71453 3.46616e-18)
(2253.3 -2.86691 -1.63462e-18)
(2253.27 1.45684 0)
(2253.5 1.52964 -8.35307e-22)
(2253.95 0.141163 0)
(2254.17 -0.571038 0)
(2254.38 -0.49874 0)
(2254.58 0.347265 0)
(2254.18 -1.87836 -8.4424e-22)
(2254.05 -2.4566 -5.08751e-20)
(2253.96 -0.0271679 5.07205e-20)
(2254 2.27013 0)
(2254.25 1.79934 0)
(2254.74 0.267628 7.9943e-22)
(2254.16 0.38686 -8.57099e-19)
(2253.81 -1.75818 8.56105e-19)
(2253.43 -1.48786 -1.62403e-18)
(2253.56 2.75072 1.62364e-18)
(2251.97 4.34507 1.74095e-18)
(2249.75 -8.89862 -1.72058e-18)
(2235.8 31.2283 0)
(2251.33 -58.7395 0)
(2244.89 39.2797 1.74898e-18)
(2235.45 -47.878 0)
(2248.76 10.479 0)
(2250.36 -7.62578 0)
(2253.5 -4.09848 0)
(2253.25 1.00876 1.68026e-21)
(2253.3 1.17333 1.66505e-21)
(2254.04 -0.628714 4.3277e-19)
(2254.17 -0.797533 -4.29492e-19)
(2254.33 -0.594149 2.05934e-19)
(2254.56 0.444019 -2.0722e-19)
(2254.22 -1.34062 0)
(2254.06 -2.21675 0)
(2253.89 -0.0407492 -1.65804e-21)
(2254.05 2.07047 0)
(2254.3 1.34984 -1.68506e-21)
(2254.71 0.27862 8.07404e-19)
(2254 0.719141 -8.50724e-19)
(2253.5 -1.24642 1.71528e-18)
(2253.54 -0.834863 -1.69085e-18)
(2253.61 3.76558 1.6535e-21)
(2250.68 6.47464 0)
(2250.03 -11.5651 0)
(2237.2 42.7966 0)
(2250.09 -35.3429 0)
(2241.5 6.75051 0)
(2231.55 -63.6237 9.12423e-19)
(2247.22 12.2607 -8.47624e-19)
(2250.9 -11.1494 0)
(2252.49 -4.82493 8.60906e-19)
(2252.86 0.425134 -4.37025e-19)
(2253.48 0.57431 -2.85161e-21)
(2253.99 -1.11058 -2.18657e-19)
(2254.21 -1.26215 -4.33111e-19)
(2254.23 -0.858551 1.60193e-19)
(2254.49 0.515257 1.6547e-21)
(2254.18 -0.998885 2.68552e-19)
(2253.96 -2.01698 -2.15534e-19)
(2253.77 -0.120828 3.36305e-21)
(2253.89 1.8781 -4.27642e-19)
(2254.21 1.15039 4.33281e-19)
(2254.64 0.33857 1.63731e-21)
(2254.11 1.32309 -1.68381e-21)
(2253.73 -0.370372 -1.67929e-21)
(2252.96 -0.365081 -8.58672e-19)
(2252.77 4.13858 8.4613e-19)
(2251.44 10.7005 0)
(2247.38 -15.198 0)
(2232.42 65.5546 -1.93316e-18)
(2246.08 -18.604 -1.26236e-19)
(2254.03 2.89535 -4.95245e-20)
(2227.5 -79.3563 6.02419e-20)
(2243.07 12.2229 0)
(2248.51 -15.6106 -2.69177e-23)
(2252.13 -6.70023 -2.62608e-23)
(2252.51 -0.650054 0)
(2253.03 -0.17633 0)
(2254.01 -1.87882 -8.63523e-19)
(2254.02 -1.38752 8.59636e-19)
(2253.98 -0.855991 0)
(2254.29 0.638762 1.68841e-18)
(2254.15 -0.416229 4.939e-21)
(2253.87 -1.55855 -1.72329e-18)
(2253.62 -0.115662 -1.71139e-21)
(2253.87 1.44084 0)
(2254.19 0.687721 3.44592e-18)
(2254.42 0.387138 1.7874e-21)
(2253.75 1.7073 -6.90573e-18)
(2253.09 0.276423 3.45053e-18)
(2252.83 0.958557 2.63968e-23)
(2252.28 6.1093 0)
(2248.52 12.9823 3.52736e-18)
(2244.19 -12.5319 -3.30806e-18)
(2228.88 73.1228 3.81548e-18)
(2247.24 2.96566 -3.17858e-18)
(2218.37 -22.8495 -3.16932e-19)
(2214.71 -87.4819 -7.49633e-18)
(2235.66 3.49207 8.70707e-22)
(2246.08 -22.4143 2.61179e-23)
(2248.77 -8.90572 -8.09351e-22)
(2251.23 -2.3088 0)
(2252.88 -1.59594 -3.44346e-18)
(2253.77 -2.47439 3.4585e-18)
(2253.69 -1.81507 0)
(2253.63 -1.19862 -8.30025e-22)
(2254 0.476088 -8.22283e-22)
(2253.91 -0.112309 0)
(2253.57 -1.29601 0)
(2253.33 -0.109895 -1.65913e-21)
(2253.48 1.25898 -8.38964e-22)
(2253.93 0.533985 2.60055e-23)
(2254.13 0.698304 -8.5631e-22)
(2253.53 2.44534 -2.62925e-23)
(2252.91 1.7268 -1.73231e-18)
(2251.39 2.39481 -1.62473e-20)
(2249.25 8.06227 1.68866e-18)
(2246.39 19.4104 8.85528e-22)
(2236.71 -4.81219 3.45901e-18)
(2216.52 81.5727 -3.53805e-18)
(2222.47 18.1614 2.5009e-23)
(2113.3 -37.8696 9.42594e-19)
(2168.64 -98.621 0)
(2217.13 -20.2175 -8.31529e-22)
(2234.96 -32.34 -8.65831e-19)
(2245.78 -17.5428 1.71057e-18)
(2248.9 -6.33834 -1.72695e-18)
(2251.31 -3.48245 9.18605e-21)
(2253.08 -3.4875 8.59506e-19)
(2252.91 -1.82636 0)
(2252.85 -1.14165 -8.47245e-19)
(2253.29 0.546419 8.46851e-19)
(2253.4 0.574359 0)
(2253.05 -0.703653 0)
(2252.73 -0.199651 2.1032e-21)
(2252.97 0.560393 8.34487e-22)
(2253.31 0.0485302 8.42048e-19)
(2253.33 0.90859 -8.445e-19)
(2252.55 3.25748 0)
(2251.25 3.35946 8.60651e-19)
(2249.48 6.04974 -1.72838e-18)
(2246.23 15.1761 8.44914e-19)
(2236.18 28.8948 -8.4087e-22)
(2219.04 16.6539 0)
(2171.37 93.9915 0)
(2117.23 35.3714 0)
(1873.64 -142.227 -6.57009e-17)
(2125.76 -161.363 8.42462e-17)
(2198.91 -54.817 0)
(2229.3 -54.1926 -2.99435e-17)
(2239.76 -21.8331 3.06878e-17)
(2246.53 -10.9288 0)
(2249.86 -7.63744 -2.9588e-20)
(2251.48 -5.12335 -1.46384e-17)
(2251.49 -2.54212 1.46525e-17)
(2251.53 -1.72682 -2.94034e-20)
(2252.07 -0.0241316 0)
(2252.23 0.60812 -3.70507e-18)
(2251.89 -0.310748 5.58725e-18)
(2251.54 -0.189733 -1.89608e-18)
(2251.72 0.419952 -2.92168e-20)
(2252.03 0.377786 0)
(2251.91 1.77764 0)
(2250.96 5.03046 -2.94776e-17)
(2249.44 7.54292 2.90876e-17)
(2246.67 10.2615 -3.05973e-17)
(2240.47 20.4899 2.918e-17)
(2229.4 53.0075 3.22082e-17)
(2199.89 52.4943 -2.92238e-17)
(2128.73 161.837 -8.33852e-17)
(1884.68 138.378 -1.25827e-17)
(1653.21 -215.591 -9.08339e-17)
(2011.62 -307.621 1.37582e-16)
(2159.66 -104.541 0)
(2210.97 -64.8694 6.8233e-17)
(2232.89 -29.5878 -7.0746e-17)
(2242.02 -15.5105 -3.40604e-17)
(2245.75 -8.2274 3.41222e-17)
(2248.31 -4.46481 -3.30691e-17)
(2248.54 -1.83195 3.33715e-17)
(2248.9 -1.098 3.25966e-20)
(2249.66 0.374988 0)
(2249.9 1.21323 -2.11553e-18)
(2249.64 0.40222 2.16614e-18)
(2249.21 -0.191909 3.31724e-20)
(2249.29 -0.469802 3.27348e-20)
(2249.4 -0.40964 3.27748e-20)
(2249.15 0.900247 0)
(2248.03 4.5624 0)
(2245.09 7.60912 -6.77215e-17)
(2242.27 15.4022 6.81685e-17)
(2233.69 26.9499 -7.13567e-17)
(2211.54 59.0225 1.47083e-16)
(2166.1 99.4425 -6.99471e-17)
(2016.83 298.574 -3.86813e-20)
(1697.86 206.057 8.75422e-20)
(1281.75 -592.665 -1.08911e-16)
(1742.59 -590.622 1.18897e-16)
(2046.76 -180.768 2.1671e-16)
(2174.11 -106.954 -9.35255e-17)
(2208.53 -36.8838 0)
(2230.16 -20.9403 7.42994e-17)
(2238.65 -13.6885 -7.53148e-17)
(2242.02 -7.32439 0)
(2242.77 -4.18126 3.55037e-20)
(2243.66 -2.80546 0)
(2244.62 -0.745041 0)
(2244.86 0.860272 0)
(2244.74 0.832856 4.66976e-18)
(2244.31 0.133089 -4.66079e-18)
(2244.24 0.0458557 -3.72119e-20)
(2243.99 0.788041 -3.53239e-20)
(2243.38 2.81522 0)
(2241.75 7.24331 0)
(2238.05 13.9427 0)
(2228.48 19.0638 -7.89337e-17)
(2211.51 37.2534 1.56919e-16)
(2176.42 102.63 -7.23223e-17)
(2052.73 161.795 -1.33645e-16)
(1750.26 592.117 1.00495e-16)
(1286.04 543.626 -5.99396e-20)
(1302.14 -610.275 1.60756e-16)
(1114.14 -1086.59 0)
(1702.06 -453.984 0)
(1928.04 -130.529 -1.08233e-16)
(2150.5 -85.5482 1.09367e-16)
(2201.47 -43.5266 0)
(2216.13 -13.7917 1.12698e-20)
(2224.35 -5.33074 4.03184e-17)
(2227.76 -1.6541 -4.08937e-17)
(2230.49 -0.850831 0)
(2232.11 0.632868 -1.0062e-17)
(2232.5 1.52432 1.01025e-17)
(2232.64 1.4822 -5.06972e-18)
(2232.24 0.452899 5.08271e-18)
(2231.85 -0.506369 3.86308e-20)
(2230.67 -1.05204 -4.06282e-17)
(2228.22 -0.119494 8.05105e-17)
(2223.7 4.29824 1.04981e-18)
(2214.18 13.5242 -4.04052e-17)
(2197.93 45.0981 -9.08622e-17)
(2134.02 72.1466 8.43706e-17)
(1912.47 109.615 8.25516e-20)
(1758.65 455.523 2.60566e-20)
(1103.67 1071.1 1.67445e-16)
(1319.46 612.401 7.17261e-18)
(1359.05 -629.406 0)
(1143.45 -1059.5 0)
(1292.31 -752.332 0)
(1195.87 -815.076 0)
(1954.35 -257.114 0)
(2048.35 -61.4726 1.02224e-16)
(2156.86 -45.4767 -1.04224e-16)
(2175.74 -29.7595 1.15082e-19)
(2184.52 -18.8824 -1.0315e-20)
(2191.73 -10.5822 2.25903e-17)
(2194.58 -4.58477 -2.28342e-17)
(2195.38 -0.683539 -2.25482e-19)
(2195.73 1.1015 -7.06758e-19)
(2195.34 1.94009 8.02166e-19)
(2194.55 3.80707 -2.26533e-17)
(2192.09 8.35886 2.24183e-17)
(2185.39 17.4802 9.90657e-20)
(2174.68 31.6785 0)
(2149.5 51.7363 0)
(2017.15 86.3285 0)
(1918.56 323.989 -2.1139e-16)
(1168.35 812.81 -6.17904e-17)
(1296.87 702.285 1.64035e-16)
(1135.48 1023.06 2.05599e-20)
(1368.89 618.998 2.08607e-20)
(1437.09 -621.113 0)
(1273.67 -927.51 3.94184e-20)
(1321.52 -784.809 0)
(1234.79 -859.359 -1.68165e-16)
(1334.31 -801.632 3.18979e-16)
(1637.82 -558.869 -2.04051e-16)
(1939.98 -122.222 0)
(1959.11 -13.6711 -1.02536e-19)
(2007.21 14.9749 0)
(2044.81 8.3735 0)
(2056.91 5.83672 -1.40697e-17)
(2060.68 2.90005 1.4401e-17)
(2061.84 2.18833 1.41799e-17)
(2061.34 1.65775 -1.42404e-17)
(2059.05 0.102466 0)
(2050.45 -3.71904 -5.86029e-17)
(2018.32 -9.55927 5.90961e-17)
(1962.98 18.0804 7.11538e-17)
(1937.6 143.449 -5.96319e-17)
(1595.65 587.674 0)
(1308.74 794.599 0)
(1203.28 850.603 -1.71898e-19)
(1331.3 779.087 -1.70898e-16)
(1266.95 918.151 3.667e-16)
(1425.22 619.064 -1.6942e-16)
(1519.53 -631.08 -1.69209e-16)
(1387.76 -855.536 1.86928e-16)
(1384.36 -759.096 0)
(1280.67 -818.406 -1.9028e-16)
(1307.39 -782.361 -6.20426e-18)
(1305.31 -745.938 2.77284e-16)
(1260.66 -594.524 -1.99282e-16)
(1322.24 -525.517 1.18154e-16)
(1538.64 -271.496 0)
(1563.43 -121.779 0)
(1549.1 -58.8148 -4.07961e-20)
(1545.42 -21.2974 2.73068e-19)
(1542.63 -3.41424 0)
(1544.59 12.0397 0)
(1548.02 41.9286 5.79426e-17)
(1558.56 108.694 -5.50654e-17)
(1574.44 229.059 -1.10504e-16)
(1335.1 526.247 2.24347e-16)
(1246.97 597.576 1.82271e-17)
(1286.15 746.206 -9.0433e-17)
(1301.35 779.116 0)
(1252.85 823.269 0)
(1382.36 760.885 -1.73778e-16)
(1351.1 887.85 2.02896e-16)
(1502.23 640.998 -4.59536e-20)
(1660.25 -609.818 1.57207e-16)
(1562.31 -748.965 -9.69856e-20)
(1527.63 -686.976 9.49641e-17)
(1466.51 -726.039 -8.49813e-17)
(1398.44 -681.593 -4.46488e-20)
(1337.98 -599.601 8.77433e-20)
(1193.11 -448.48 1.15616e-16)
(871.485 -242.649 -1.8012e-16)
(696.933 -126.413 6.39367e-17)
(533.817 -57.4041 0)
(409.848 -22.4818 -3.37272e-17)
(369.752 -8.33269 3.3683e-17)
(353.421 0.146623 0)
(360.982 8.84447 6.32854e-20)
(390.79 17.3374 -3.35874e-17)
(499.299 50.2646 3.38205e-17)
(739.039 123.101 0)
(873.88 253.992 -1.16445e-16)
(1177.83 439.37 1.16672e-16)
(1327.31 595.446 8.92024e-17)
(1389.41 685.252 -1.86163e-16)
(1434.02 744.734 9.95859e-17)
(1520.16 708.922 0)
(1547.48 776.288 1.68795e-16)
(1650.23 625.047 -3.29878e-18)
(1815.11 -551.651 -3.3234e-18)
(1746.3 -601.999 8.00623e-17)
(1688.35 -548.94 -3.63621e-17)
(1539.77 -422.819 -5.72565e-17)
(1420.83 -358.889 7.32757e-17)
(1384.22 -277.791 -5.12905e-17)
(1292.42 -253.523 5.29168e-17)
(949.228 -199.45 -5.85939e-17)
(736.318 -109.377 -5.14719e-19)
(597.629 -59.1811 3.29951e-17)
(502.89 -31.011 1.65074e-17)
(470.786 -15.6479 -1.53877e-19)
(458.213 1.41064 -1.66942e-17)
(465.791 21.5123 -6.0386e-20)
(497.942 30.6943 -7.50823e-20)
(591.2 54.6954 -2.06721e-18)
(794.707 103.744 2.23954e-20)
(970.866 194.647 5.37893e-18)
(1283.12 228.243 -3.5371e-18)
(1366.11 306.296 0)
(1409.83 400.338 1.0921e-17)
(1551.31 478.172 -3.45307e-17)
(1689.34 590.656 4.13862e-17)
(1741.69 634.418 -5.64927e-17)
(1810.2 569.715 5.30923e-17)
(1998.95 -510.227 -8.72898e-20)
(1954.1 -329.615 -1.0488e-19)
(1882.66 -318.066 1.21858e-19)
(1789.19 -215.421 -5.49315e-21)
(1529.79 -68.908 -1.83426e-19)
(1416.64 -27.2042 -2.0058e-19)
(1375.77 -71.3694 -7.14875e-21)
(1197.73 -90.1209 0)
(968.037 -104.379 0)
(819.757 -121.584 6.56618e-17)
(735.186 -102.347 -6.71588e-17)
(696.215 -51.1447 -8.84719e-21)
(680.746 1.83149 8.82952e-21)
(686.875 52.1435 -8.6405e-18)
(719.92 114.346 8.37578e-18)
(807.526 147.153 0)
(985.771 127.832 0)
(1175.6 108.731 -5.64714e-17)
(1341.86 72.7968 5.60601e-17)
(1368.27 16.9665 -1.94228e-19)
(1536.32 73.9765 0)
(1801.21 228.258 0)
(1887.25 323.203 -1.24043e-19)
(1953.1 331.647 -1.07512e-19)
(2000.77 523.841 1.23053e-16)
(1491.8 -176.809 -1.88238e-16)
(1737.21 -123.001 -2.39881e-16)
(1847.18 116.576 1.22273e-16)
(1796.57 145.963 0)
(1644.62 187.588 1.99121e-19)
(1517.41 144.387 1.08082e-16)
(1504.46 34.023 -2.08667e-16)
(1404.91 -17.5428 1.0621e-16)
(1223.33 -55.4036 -1.2103e-16)
(1061.09 -83.0605 1.25275e-16)
(935.342 -73.1629 3.30043e-17)
(862.614 -28.4756 -4.1108e-17)
(840.185 6.46118 -8.32351e-18)
(856.69 40.6471 1.68351e-17)
(930.607 91.4414 0)
(1069.57 108.722 0)
(1245.8 76.8554 1.1659e-16)
(1391.21 37.0088 -2.20922e-16)
(1485.86 -38.1528 1.09363e-16)
(1497.32 -155.551 2.27475e-19)
(1662.25 -196.694 1.53312e-16)
(1789.65 -155.007 -9.74903e-17)
(1830.21 -137.254 -4.90499e-16)
(1736.87 134.096 6.22733e-16)
(1483.05 188.059 -2.49579e-16)
(-49.3764 -75.2812 1.11885e-19)
(481.045 -108.447 -2.56141e-16)
(1396.16 302.577 1.74419e-16)
(1673.94 495.831 0)
(1670.6 418.289 0)
(1610.89 275.891 0)
(1602.79 138.253 0)
(1528.86 68.0671 0)
(1373.15 19.795 -5.16666e-17)
(1209.61 -20.319 1.0844e-16)
(1077.14 -25.2649 -8.46913e-17)
(1000.98 -5.95801 3.2172e-17)
(978.219 9.19895 -3.6277e-18)
(1001.2 21.3769 1.58565e-20)
(1085.14 44.4322 -5.58515e-17)
(1234.42 40.3751 5.54912e-17)
(1403.01 -1.88432 0)
(1527.08 -53.802 0)
(1599 -139.758 -1.73401e-16)
(1603.04 -294.665 1.85802e-16)
(1677.13 -424.009 -1.61924e-19)
(1651.31 -502.424 7.30217e-20)
(1354.08 -270.616 -9.50774e-20)
(409.729 154.26 -1.15878e-19)
(-125.871 94.0042 0)
(-265.715 -41.5697 -2.24391e-16)
(380.28 265.536 2.29029e-16)
(1254.57 636.53 -1.71858e-19)
(1628.31 739.23 1.63324e-16)
(1722.89 573.769 -1.21737e-16)
(1687.43 388.646 0)
(1675.06 234.386 -8.18522e-17)
(1611.2 159.496 7.4615e-17)
(1474.87 96.0339 -4.45929e-17)
(1325.4 39.1042 9.34431e-17)
(1195.18 11.8243 -4.81987e-17)
(1119.54 11.16 1.83389e-19)
(1100.32 7.66934 0)
(1125.33 3.05932 2.49387e-17)
(1214.07 1.46918 2.31324e-17)
(1359.31 -29.4436 -4.73621e-17)
(1505.99 -91.3174 -8.13943e-17)
(1609.18 -151.038 8.39709e-17)
(1677.51 -238.784 -7.21868e-17)
(1682.56 -414.373 7.96865e-17)
(1727.03 -591.795 7.9827e-20)
(1588.62 -765.581 -7.60481e-20)
(1191.4 -623.605 0)
(317.474 -269.689 1.12987e-19)
(-267.607 19.3171 0)
(236.51 220.396 1.91622e-16)
(841.674 702.585 -1.89077e-16)
(1398.13 861.957 6.19641e-20)
(1672.21 864.651 0)
(1774.43 672.883 0)
(1737.19 508.067 -7.31307e-21)
(1720.45 352.935 0)
(1667.83 250.344 7.39592e-20)
(1553.2 168.243 0)
(1417.04 96.6455 4.16127e-17)
(1299.82 52.0347 -6.39932e-17)
(1229.34 25.1772 3.26371e-17)
(1208.42 6.54648 -1.10168e-17)
(1235.01 -15.0134 0)
(1316.13 -42.0107 0)
(1444.99 -91.1214 3.8857e-17)
(1575.72 -161.868 -1.09227e-16)
(1662.44 -248.083 7.30565e-17)
(1731.28 -345.801 -6.11391e-17)
(1736.92 -513.498 6.98052e-17)
(1784.63 -679.263 0)
(1662.68 -886.071 0)
(1387.82 -880.308 0)
(872.258 -731.743 -1.17182e-20)
(243.021 -202.622 -2.01721e-16)
(309.928 76.7614 -3.57683e-20)
(1080.93 720.277 1.5634e-16)
(1530.04 927.359 -1.20087e-16)
(1735.87 905.458 0)
(1804.97 733.95 0)
(1762.66 595.131 7.58164e-21)
(1758.71 441.879 6.44341e-17)
(1713.33 327.94 -5.70104e-17)
(1613.22 226.614 3.03543e-20)
(1494.83 140.792 3.29606e-20)
(1388.51 77.6726 3.48811e-20)
(1323.1 38.5763 -1.0359e-20)
(1304.77 4.2312 -1.03964e-20)
(1327.83 -30.9266 1.93183e-17)
(1403.67 -71.7715 -1.93426e-17)
(1521.71 -137.526 4.22107e-20)
(1635.84 -223.138 3.88471e-20)
(1706.71 -329.641 0)
(1765.96 -434.663 -5.42241e-17)
(1768.67 -590.939 6.2305e-17)
(1818.93 -738.799 0)
(1735.44 -919.343 -9.9257e-17)
(1524.19 -929.018 1.22347e-16)
(1066.1 -711.302 9.05409e-21)
(321.415 -54.6945 -1.88184e-16)
(480.841 112.869 4.16898e-20)
(1241.79 747.329 0)
(1629.55 925.885 0)
(1780.34 913.591 -4.76555e-17)
(1819.45 776.445 4.59398e-17)
(1781.44 652.901 0)
(1790.38 507.962 5.87002e-17)
(1750.59 388.399 -5.24769e-17)
(1663.53 274.521 3.18135e-17)
(1556.51 179.356 -3.21391e-17)
(1464.99 105.094 1.76972e-17)
(1407.87 48.1601 -1.78061e-17)
(1390.07 2.15279 0)
(1414.39 -46.3219 -1.7633e-17)
(1481.26 -105.835 1.76925e-17)
(1582.55 -184.792 -3.47478e-20)
(1684.99 -274.084 -3.20826e-20)
(1744.71 -397.962 5.17007e-20)
(1793.63 -508.059 4.97924e-17)
(1784.11 -656.427 -5.72612e-17)
(1832.8 -781.394 -4.56251e-20)
(1777.69 -929.884 -4.45655e-20)
(1623.56 -922.189 0)
(1212.78 -732.05 -7.23833e-20)
(459.914 -97.5845 4.21858e-20)
(534.996 145.009 1.59706e-22)
(1322.54 690.833 0)
(1695.34 871.956 9.31287e-23)
(1781.34 908.536 4.04829e-20)
(1823.97 803.414 -8.56547e-23)
(1796.95 700.544 -5.19019e-17)
(1817.12 560.04 4.59787e-17)
(1784.75 438.854 0)
(1708.63 315.337 -5.90873e-20)
(1618.22 213.254 -1.07862e-22)
(1534.05 124.598 -1.13819e-22)
(1481.97 59.0032 6.89685e-20)
(1467.19 0.588307 0)
(1485.9 -58.0861 0)
(1546.5 -125.099 -1.13126e-22)
(1639.89 -216.831 -1.06782e-22)
(1729.42 -315.647 -2.63112e-17)
(1777.55 -445.767 7.52418e-17)
(1817.06 -558.212 -5.32572e-17)
(1798.36 -699.547 0)
(1839.23 -799.943 -4.40395e-17)
(1782.9 -915.367 4.41264e-17)
(1698.01 -868.474 9.29254e-23)
(1313.66 -666.569 6.25119e-20)
(519.257 -133.145 1.60413e-22)
(655.415 201.053 3.17842e-18)
(1447.37 675.292 1.25494e-17)
(1744.1 849.553 9.7464e-17)
(1792.34 895.408 -4.11574e-17)
(1837.94 804.934 4.2556e-17)
(1815.24 716.566 -4.7648e-17)
(1843.27 587.859 4.28851e-17)
(1811.97 472.525 -2.51403e-17)
(1745.53 345.068 2.46504e-17)
(1664.22 240.409 1.14797e-22)
(1594.9 146.165 1.20583e-22)
(1550.74 66.3131 -1.23114e-22)
(1535.44 0.540251 7.44251e-18)
(1554.91 -67.0587 7.25176e-18)
(1606.37 -149.08 -1.48527e-17)
(1684.04 -248.035 1.13927e-22)
(1765.7 -342.183 4.89399e-17)
(1807.53 -478.542 -9.51069e-17)
(1844.87 -584.36 4.89298e-17)
(1812.51 -720.84 0)
(1849.02 -802.572 -8.33413e-23)
(1794.47 -899.764 7.90949e-23)
(1739.65 -849.863 -8.44327e-23)
(1438.2 -672.834 -1.21864e-16)
(652.308 -212.897 1.50322e-16)
(714.711 221.467 1.40817e-19)
(1500.5 633.22 0)
(1763.84 799.672 0)
(1798.45 866.427 3.95869e-20)
(1846.16 792.199 8.05266e-20)
(1833.88 726.307 0)
(1868.29 606.075 4.49014e-17)
(1838.96 493.361 -4.22514e-17)
(1779.31 363.14 4.43464e-20)
(1711.82 257.535 -4.75371e-20)
(1648.59 153.278 -1.3734e-17)
(1609.12 70.8586 1.37641e-17)
(1597.88 -3.54459 3.57196e-18)
(1612.85 -79.0131 -3.47657e-18)
(1659.87 -163.158 1.32481e-17)
(1731.17 -272.253 -3.78463e-17)
(1801.27 -373.12 2.46507e-17)
(1832.6 -508.835 -4.63809e-20)
(1865.33 -612.153 3.94508e-20)
(1830.09 -733.553 -4.07106e-17)
(1852.51 -796.347 8.21002e-19)
(1805.93 -864.498 -2.06754e-18)
(1766.57 -789.369 4.12929e-17)
(1474.08 -602.232 5.69532e-20)
(647.138 -209.694 6.91826e-20)
(715.546 207.87 1.35344e-16)
(1537.91 579.448 -1.09575e-16)
(1792.52 760.283 0)
(1817.42 841.425 -3.82275e-17)
(1861.17 782.366 3.06152e-19)
(1853.63 720.884 3.94868e-17)
(1891.93 613.156 4.16744e-17)
(1860.96 511.801 -3.98715e-17)
(1810.21 383.648 -4.67857e-20)
(1749.66 278.988 -2.45555e-17)
(1699.51 173.03 1.19174e-17)
(1666 79.9291 1.26146e-17)
(1653.1 0.660833 -5.38966e-20)
(1668.26 -80.2481 0)
(1706.58 -174.924 0)
(1763.3 -286.353 0)
(1829.21 -378.352 4.64572e-20)
(1857.4 -515.615 9.65428e-21)
(1891.34 -608.526 -4.97841e-20)
(1850.69 -721.947 0)
(1865.7 -780.521 3.81956e-20)
(1820.88 -839.351 9.40646e-21)
(1795.85 -760.886 -4.88031e-20)
(1553.47 -582.677 -1.07073e-16)
(768.308 -241.038 1.36107e-16)
(769.841 234.935 6.57927e-17)
(1564.88 522.193 -9.67033e-17)
(1810.36 681.232 8.22889e-17)
(1829.94 786.839 -4.10486e-17)
(1872.67 752.646 -3.73595e-17)
(1870.49 707.388 3.77087e-17)
(1912.14 614.528 1.92473e-17)
(1882.02 518.693 -1.89525e-17)
(1837.09 389.731 1.08109e-17)
(1788.71 285.881 -2.23266e-17)
(1742.4 173.328 1.7372e-17)
(1712.54 82.6701 -7.40673e-18)
(1704.08 -2.65589 1.48935e-18)
(1714.98 -88.7908 -4.38817e-20)
(1750.84 -179.657 2.2851e-17)
(1803.35 -298.878 -2.2822e-17)
(1859.17 -395.855 3.86974e-20)
(1877.79 -527.681 3.7916e-17)
(1910.74 -614.258 -1.81299e-18)
(1863.67 -711.187 -3.84989e-17)
(1876.41 -756.691 0)
(1836.05 -788.167 4.10404e-17)
(1813.21 -689.789 -3.67162e-17)
(1569.31 -527.698 -1.03622e-16)
(781.08 -252.43 -1.0764e-18)
(888.259 262.946 -6.27467e-17)
(1630.15 478.764 4.84399e-17)
(1835.89 637.069 1.90743e-20)
(1847.45 747.11 -5.38577e-20)
(1892.26 737.564 1.81526e-20)
(1892.76 684.969 3.608e-17)
(1934.63 595.062 -1.72666e-17)
(1899.19 512.03 -1.83118e-17)
(1862.23 390.133 4.13245e-20)
(1817.83 291.595 -4.41043e-20)
(1782.74 181.183 2.02851e-20)
(1758.85 83.5568 -2.05502e-20)
(1749.28 -3.96068 0)
(1761.45 -93.1772 5.23613e-21)
(1789.8 -192.026 -1.07064e-17)
(1829.9 -308.739 1.07667e-17)
(1883.18 -394.954 -1.92781e-17)
(1898.78 -526.852 9.6134e-19)
(1932.47 -599.872 1.81004e-17)
(1887.24 -689.903 -5.33796e-20)
(1889.92 -741.857 -3.66108e-17)
(1855.02 -745.725 3.48545e-17)
(1840.09 -637.929 0)
(1625.89 -479.087 -4.88492e-17)
(851.988 -270.594 6.24382e-17)
(916.607 272.355 0)
(1647.42 434.036 -4.27501e-17)
(1841.95 556.814 4.24191e-17)
(1867.18 673.884 1.77237e-20)
(1902.99 698.719 1.71376e-20)
(1911.18 662.899 -3.45818e-17)
(1947.55 591.302 3.41019e-17)
(1916.63 514.951 1.82701e-17)
(1885.39 395.332 7.98721e-19)
(1852.37 297.417 -1.96606e-17)
(1819 181.896 -2.14679e-20)
(1796.97 89.3752 2.42977e-20)
(1791.12 -1.37725 0)
(1797.64 -92.7359 4.36773e-20)
(1824.49 -183.879 -2.13843e-20)
(1862.34 -307.734 9.74632e-18)
(1907.37 -397.245 -9.62888e-18)
(1913.66 -519.925 -1.82853e-20)
(1946.71 -589.329 -1.91217e-20)
(1905.4 -664.014 1.75508e-20)
(1901.54 -705.5 -3.63395e-17)
(1873.1 -683.527 -6.36575e-18)
(1850.77 -572.484 3.38025e-17)
(1665.37 -442.184 0)
(972.909 -291.047 5.98984e-17)
(1020.33 287.382 -1.14172e-16)
(1687.88 398.526 4.50248e-17)
(1856.37 501.647 3.25529e-17)
(1891.2 626.052 -4.06033e-17)
(1920.76 672.539 0)
(1933.69 642.943 -2.07163e-21)
(1967.6 568.281 0)
(1931.36 497.746 -2.19088e-21)
(1907.22 386.969 -2.32252e-21)
(1875.23 295.934 0)
(1851.22 185.278 0)
(1834.98 87.6303 -2.55819e-21)
(1827.67 -2.624 0)
(1836.68 -95.2752 0)
(1856.53 -193.136 -9.63483e-18)
(1883.39 -310.23 9.61921e-18)
(1928.65 -387.795 -2.3059e-21)
(1933.75 -510.075 -1.71134e-17)
(1965.14 -573.012 1.63303e-17)
(1929.8 -644.718 0)
(1917.06 -678.739 3.57601e-17)
(1892.34 -637.616 -7.27108e-17)
(1865.87 -518.853 7.2221e-17)
(1698.6 -395.956 4.13677e-18)
(1009.57 -272.353 -5.68e-17)
(1073.14 272.419 1.35898e-20)
(1706.29 367.5 -1.04952e-20)
(1859.12 434.552 0)
(1907.37 546.162 0)
(1929.21 616.448 0)
(1950.63 611.001 7.70736e-21)
(1976.82 556.313 0)
(1944.42 488.827 -7.86656e-21)
(1927.24 382.005 0)
(1904.97 291.71 -8.49528e-21)
(1881.22 176.42 0)
(1865.06 86.8639 -2.36241e-18)
(1861.71 -3.93078 2.34534e-18)
(1865.58 -96.1355 0)
(1886.11 -183.761 9.18675e-18)
(1911.98 -308.154 -1.80188e-17)
(1949.07 -388.679 8.70728e-18)
(1945.79 -497.363 0)
(1977.87 -558.892 1.59158e-17)
(1945.25 -616.199 -1.59265e-17)
(1930.61 -627.113 3.56099e-17)
(1911.85 -559.346 -3.15126e-17)
(1860.1 -454.193 0)
(1706.81 -362.801 0)
(1038.2 -246.576 0)
(1118.91 264.816 -1.31691e-20)
(1728.04 344.781 1.0315e-20)
(1876.6 377.547 0)
(1926.73 469.139 0)
(1946.84 579.751 0)
(1969.51 592.981 -7.64933e-21)
(1997.82 533.48 0)
(1959.49 468.52 8.19057e-21)
(1947.94 369.568 0)
(1924.59 289.354 -8.80215e-18)
(1908.04 182.162 8.83955e-18)
(1896.98 88.2278 -8.37991e-21)
(1891.14 -0.740294 9.26397e-21)
(1897.95 -92.8227 8.36511e-21)
(1911.54 -184.986 0)
(1928.23 -299.218 0)
(1968.67 -367.771 8.46715e-21)
(1963.77 -479.557 -1.62227e-17)
(1995.98 -538.168 1.51022e-17)
(1967.11 -594.498 0)
(1941.32 -588.557 7.84649e-21)
(1928.67 -485.341 0)
(1874.45 -397.641 0)
(1726.72 -343.968 0)
(1111.99 -241.966 0)
(1141.52 235.75 -5.0824e-17)
(1737.74 313.665 4.20067e-17)
(1887.8 322.122 0)
(1937.35 391.874 -1.67128e-20)
(1956.79 517.323 0)
(1981.36 548.59 -1.45385e-17)
(2005.52 514.589 3.00592e-17)
(1971.3 456.911 -1.58649e-17)
(1964.27 361.41 -8.13337e-18)
(1949.92 281.569 8.34282e-18)
(1933.03 170.263 4.34608e-21)
(1920.68 85.6779 1.11729e-18)
(1918.96 -2.84573 -1.07383e-18)
(1920.94 -93.2912 8.52118e-18)
(1937.7 -174.622 -8.51598e-18)
(1954.06 -296.095 0)
(1984.8 -366.139 -1.5152e-20)
(1975.16 -463.004 0)
(2006.87 -520.241 0)
(1980.23 -558.705 -1.6223e-17)
(1952.66 -525.521 1.46711e-17)
(1937.62 -399.168 0)
(1888.03 -336.02 3.65664e-17)
(1726.69 -317.296 2.13255e-18)
(1137.04 -236.632 -1.04647e-16)
(1198.65 221.917 5.05002e-17)
(1765.79 292.891 1.93679e-20)
(1901.13 275.061 3.08879e-17)
(1939.8 321.893 -2.32502e-17)
(1967.98 476.441 -1.76353e-17)
(1995.27 518.377 0)
(2022.83 488.728 7.52171e-21)
(1986.03 430.639 1.51791e-17)
(1983.66 341.1 -1.578e-17)
(1965.37 270.584 0)
(1954.3 170.123 0)
(1947.26 82.6212 -2.5841e-20)
(1942.82 -3.24251 3.22005e-20)
(1948.5 -92.7463 1.67975e-20)
(1958.21 -176.753 4.08022e-18)
(1966.96 -284.419 -4.03808e-18)
(2004.39 -344.809 8.36557e-21)
(1993.31 -446.633 1.55319e-17)
(2022.44 -496.144 -2.89436e-17)
(1993.91 -523.936 1.40525e-17)
(1966.44 -485.408 -1.48783e-20)
(1941.95 -325.626 0)
(1901.44 -280.512 1.695e-20)
(1755.4 -300.459 4.05507e-17)
(1204.14 -242.42 -1.01009e-16)
(1200.45 184.475 -4.96935e-17)
(1766.63 258.882 -3.82796e-17)
(1905.06 230.842 3.49467e-17)
(1930.56 248.771 1.45401e-17)
(1976.4 392.628 -1.82333e-17)
(2005.31 459.771 0)
(2028.76 463.044 3.66494e-21)
(1997.44 417.929 -1.10853e-20)
(1998.42 335.488 7.59159e-18)
(1988.05 265.097 -1.56225e-17)
(1976.12 160.759 7.89195e-18)
(1966.35 83.0042 1.98576e-18)
(1965.71 -1.46395 -1.86006e-18)
(1965.93 -88.278 1.84582e-18)
(1980 -160.837 -1.97626e-18)
(1989.58 -276.339 0)
(2016.63 -337.033 1.12256e-20)
(2003.73 -421.255 -3.568e-21)
(2029.83 -473.642 -1.47991e-17)
(2005.4 -474.117 1.36697e-17)
(1973.95 -404.776 0)
(1932.94 -260.45 0)
(1911.04 -235.895 -4.07491e-21)
(1780.1 -273.451 -4.00814e-17)
(1253.58 -215.666 -1.64329e-18)
(1248.84 169.414 -2.34983e-17)
(1782.96 240.073 1.96337e-17)
(1917.23 208.944 4.11129e-21)
(1929.9 182.575 0)
(1987.97 327.176 1.34702e-17)
(2018.42 421.385 -1.61124e-17)
(2040.85 433.952 3.40873e-21)
(2010.57 389.323 3.66688e-21)
(2016.77 313.166 1.39942e-20)
(2000.5 251.897 -1.89009e-18)
(1992.9 159.254 9.56205e-19)
(1988.65 79.0029 1.87782e-18)
(1985.31 -2.22841 -9.63382e-19)
(1989.23 -87.9132 3.82539e-18)
(1996.45 -163.024 -3.81421e-18)
(2000.24 -263.183 0)
(2036.59 -317.34 1.01586e-20)
(2020.73 -404.142 -1.50988e-17)
(2041.28 -442.424 1.3247e-17)
(2016.64 -432.109 3.47427e-21)
(1984.24 -342.069 0)
(1929.79 -186.074 0)
(1928.4 -214.463 4.12282e-21)
(1790.7 -248.312 -3.94785e-17)
(1260.15 -180.901 4.63576e-17)
(1286.18 145.126 2.34479e-20)
(1793.25 210.757 0)
(1928.98 180.074 -7.81499e-21)
(1933.92 128.714 -1.4386e-17)
(1984.73 240.791 1.78511e-17)
(2018.68 351.553 -1.31343e-17)
(2040.56 393.092 1.52099e-17)
(2019.17 368.002 -7.03007e-18)
(2028.4 303.355 7.36205e-18)
(2020.13 243.657 -3.64597e-18)
(2011.66 146.224 3.70118e-18)
(2003.87 75.6143 -1.82674e-18)
(2003.84 -3.05661 2.08828e-18)
(2003.03 -85.4874 -2.4731e-19)
(2015.47 -150.6 3.69713e-18)
(2020.59 -257.953 -7.29626e-18)
(2045.57 -307.328 -3.76403e-18)
(2029.45 -375.034 7.00863e-18)
(2045.75 -409.415 1.34692e-20)
(2022.6 -367.325 -6.9846e-21)
(1985.73 -247.199 0)
(1936.92 -143.987 0)
(1938.04 -187.139 0)
(1797.09 -213.194 -1.93263e-17)
(1258.06 -151.213 2.28805e-17)
(1306.8 141.24 -2.79072e-21)
(1802.17 192.748 0)
(1946.68 167.484 9.86021e-21)
(1941.18 83.0188 -7.92692e-21)
(1973.64 166.311 -7.22092e-21)
(2029.6 300.596 0)
(2050.31 351.967 -6.61108e-21)
(2031.5 338.111 6.85569e-18)
(2045.25 281.431 -7.25102e-18)
(2030.56 230.912 0)
(2025.48 147.15 1.70502e-21)
(2022.58 74.7179 0)
(2020.25 -0.664476 0)
(2023.13 -81.6235 1.79753e-18)
(2028.01 -147.783 -1.80013e-18)
(2028.2 -239.951 -7.24131e-21)
(2063.57 -286.553 -1.65209e-21)
(2043.19 -352.701 6.98406e-21)
(2050.12 -363.612 -7.49854e-18)
(2030.42 -322.039 6.39028e-18)
(1975.12 -188.658 -1.73178e-17)
(1940.5 -91.1677 3.09918e-17)