/*--------------------------------*- C++ -*----------------------------------*\
| =========                 |                                                 |
| \\      /  F ield         | OpenFOAM: The Open Source CFD Toolbox           |
|  \\    /   O peration     | Version:  2112                                  |
|   \\  /    A nd           | Website:  www.openfoam.com                      |
|    \\/     M anipulation  |                                                 |
\*---------------------------------------------------------------------------*/
FoamFile
{
    version     2.0;
    format      ascii;
    arch        "LSB;label=32;scalar=64";
    class       volScalarField;
    location    "0.00225";
    object      p;
}
// * * * * * * * * * * * * * * * * * * * * * * * * * * * * * * * * * * * * * //

dimensions      [1 -1 -2 0 0 0 0];

internalField   nonuniform List<scalar> 
13875
(
951507
984102
973649
975525
973360
974384
974512
974249
974902
975015
975033
975259
975042
974834
975003
974638
974709
974217
974332
974270
973024
975587
972407
982692
945380
733710
659308
672161
677003
670273
668510
668499
670142
677717
679313
679293
679957
679317
679157
679782
679517
677808
671477
669054
668430
669826
677035
672294
657375
730703
736799
635616
664566
653665
648354
646001
645106
645679
648214
647115
647579
648218
647236
648984
648228
646053
645236
645081
644972
645734
647647
652017
662011
632276
733402
743446
636275
665463
653824
648644
646203
645258
645738
645272
644154
645252
645392
645724
646603
645037
643889
643911
645122
645099
645923
647922
652138
662761
632880
739036
757282
639324
668060
654541
649535
646804
645701
645979
645330
644300
645349
645512
645900
646683
645129
644069
644041
645331
645490
646476
648724
652725
665057
635524
750132
759143
648093
673943
656562
651454
648086
646627
646563
645593
644775
645677
645928
646410
646973
645469
644599
644475
645857
646328
647665
650479
654605
670672
643276
751815
765522
668886
686456
661664
655429
650716
648501
647845
646431
645891
646560
647001
647537
647739
646351
645736
645589
647142
648116
650269
654401
660322
682310
666060
756148
792487
719692
713115
675647
664127
656354
652398
650674
648697
648304
648647
649378
649839
649658
648502
648153
648062
649911
651750
655550
662522
673454
707610
715854
782651
913200
831463
770031
707198
682019
667751
660313
656662
653938
653434
653381
654428
654623
654104
653301
653241
653376
655736
659169
666152
679037
702310
761612
824485
911931
1.5427e+06
1.03926e+06
842645
748153
706294
684659
673633
667820
664777
664023
663602
664752
664507
663789
663558
663810
664238
666925
672136
682601
702645
741960
833263
1.02879e+06
1.52493e+06
2.96811e+06
1.42119e+06
988153
820615
748919
715351
698967
690822
687241
685829
684992
685678
685044
684426
684874
685572
686580
689684
696583
711137
741095
804405
953458
1.36023e+06
2.88292e+06
5.80667e+06
2.39156e+06
1.40436e+06
1.01082e+06
848152
784896
756927
743904
737990
735107
733434
733073
732349
732087
733079
734611
737136
742356
753699
778278
834037
972086
1.30195e+06
2.30082e+06
5.63014e+06
5.59878e+06
4.85429e+06
2.99478e+06
1.69575e+06
1.13493e+06
980823
918279
888435
873734
866247
862789
860597
861151
860662
862136
865347
871945
885438
913438
971702
1.10974e+06
1.53503e+06
2.3913e+06
4.91505e+06
5.40469e+06
5.06294e+06
4.72878e+06
5.01197e+06
4.79985e+06
2.05145e+06
1.62942e+06
1.472e+06
1.38212e+06
1.34137e+06
1.32228e+06
1.31906e+06
1.30606e+06
1.31904e+06
1.30961e+06
1.31483e+06
1.32224e+06
1.34104e+06
1.38133e+06
1.47045e+06
1.64582e+06
2.11978e+06
4.63059e+06
5.07167e+06
4.80856e+06
4.84722e+06
4.2197e+06
4.36836e+06
4.90722e+06
5.13574e+06
5.05995e+06
3.90203e+06
3.61196e+06
3.3009e+06
3.20059e+06
3.05401e+06
3.07905e+06
2.97821e+06
3.0512e+06
3.00606e+06
3.02894e+06
3.05767e+06
3.13855e+06
3.31107e+06
3.59384e+06
3.77767e+06
4.78138e+06
4.97157e+06
4.99817e+06
4.54295e+06
4.46955e+06
3.84461e+06
3.91614e+06
4.66174e+06
5.3707e+06
6.75225e+06
7.96618e+06
9.2027e+06
9.09341e+06
9.62401e+06
9.33213e+06
9.67246e+06
9.41408e+06
9.63379e+06
9.4568e+06
9.59661e+06
9.45241e+06
9.52829e+06
9.24272e+06
9.26722e+06
8.32127e+06
6.99418e+06
5.464e+06
4.89914e+06
4.13812e+06
4.14801e+06
3.06235e+06
3.55489e+06
4.74242e+06
5.51219e+06
6.74731e+06
7.65998e+06
7.79775e+06
7.71828e+06
7.55033e+06
7.45057e+06
7.23034e+06
7.33393e+06
7.13657e+06
7.28324e+06
7.27556e+06
7.39243e+06
7.52989e+06
7.71382e+06
7.73689e+06
7.82266e+06
7.10446e+06
5.82544e+06
4.99207e+06
3.81833e+06
3.4017e+06
2.48915e+06
3.31305e+06
4.65509e+06
5.28839e+06
5.8551e+06
6.1175e+06
5.90044e+06
5.90268e+06
5.90377e+06
5.92831e+06
5.94305e+06
5.95854e+06
5.9612e+06
5.9646e+06
5.96797e+06
5.96268e+06
5.95222e+06
5.9577e+06
5.98058e+06
6.161e+06
6.19989e+06
5.64629e+06
4.99395e+06
3.31884e+06
2.42875e+06
1.32564e+06
2.29173e+06
3.86466e+06
4.2925e+06
4.51769e+06
4.72098e+06
4.85791e+06
5.03733e+06
5.18664e+06
5.28805e+06
5.35374e+06
5.38819e+06
5.40794e+06
5.40465e+06
5.38442e+06
5.338e+06
5.2539e+06
5.11865e+06
4.9657e+06
4.83739e+06
4.68891e+06
4.50703e+06
4.06795e+06
2.58411e+06
1.45132e+06
667718
1.55453e+06
2.71679e+06
3.18433e+06
3.41395e+06
3.71643e+06
4.10122e+06
4.42368e+06
4.6245e+06
4.7491e+06
4.83426e+06
4.88192e+06
4.90688e+06
4.9006e+06
4.86537e+06
4.7982e+06
4.68931e+06
4.50111e+06
4.18877e+06
3.79572e+06
3.49892e+06
3.28628e+06
2.81046e+06
1.73096e+06
708038
707600
1.19088e+06
1.80493e+06
2.25817e+06
2.60413e+06
3.02191e+06
3.50229e+06
3.85963e+06
4.07496e+06
4.21759e+06
4.31724e+06
4.37406e+06
4.39957e+06
4.38752e+06
4.33933e+06
4.2515e+06
4.1195e+06
3.91247e+06
3.54789e+06
3.04581e+06
2.62201e+06
2.29268e+06
1.86655e+06
1.18661e+06
735194
932172
1.0364e+06
1.24986e+06
1.70689e+06
2.06923e+06
2.55321e+06
2.99925e+06
3.32975e+06
3.54826e+06
3.70216e+06
3.80697e+06
3.86576e+06
3.89066e+06
3.87335e+06
3.818e+06
3.72031e+06
3.57281e+06
3.35915e+06
3.02323e+06
2.56247e+06
2.06486e+06
1.70982e+06
1.28632e+06
1.03885e+06
946838
1.34814e+06
1.04658e+06
1.07311e+06
1.3864e+06
1.72456e+06
2.20857e+06
2.58646e+06
2.87041e+06
3.08294e+06
3.2356e+06
3.33714e+06
3.39438e+06
3.41719e+06
3.39649e+06
3.33836e+06
3.23792e+06
3.08707e+06
2.8761e+06
2.59321e+06
2.21819e+06
1.71346e+06
1.38286e+06
1.09628e+06
1.05891e+06
1.40706e+06
1.42452e+06
1.07176e+06
1.07621e+06
1.23216e+06
1.50799e+06
1.90603e+06
2.22139e+06
2.47969e+06
2.67146e+06
2.8108e+06
2.91248e+06
2.96666e+06
2.98897e+06
2.96652e+06
2.90937e+06
2.80823e+06
2.66412e+06
2.47137e+06
2.21332e+06
1.89921e+06
1.51008e+06
1.23499e+06
1.09072e+06
1.08404e+06
1.42221e+06
1.4245e+06
1.11333e+06
1.08862e+06
1.16145e+06
1.36342e+06
1.65848e+06
1.91858e+06
2.15151e+06
2.32366e+06
2.4498e+06
2.54195e+06
2.59322e+06
2.61256e+06
2.59282e+06
2.53827e+06
2.44545e+06
2.31113e+06
2.13774e+06
1.90467e+06
1.64471e+06
1.36485e+06
1.16603e+06
1.10023e+06
1.12537e+06
1.42185e+06
1.4303e+06
1.17647e+06
1.11651e+06
1.12429e+06
1.25371e+06
1.45889e+06
1.67281e+06
1.87356e+06
2.02381e+06
2.13675e+06
2.22104e+06
2.26313e+06
2.28493e+06
2.26312e+06
2.21493e+06
2.1288e+06
2.00845e+06
1.8561e+06
1.65864e+06
1.44593e+06
1.26049e+06
1.13285e+06
1.1235e+06
1.17959e+06
1.42193e+06
1.44502e+06
1.28146e+06
1.16307e+06
1.12446e+06
1.17742e+06
1.31072e+06
1.48085e+06
1.64659e+06
1.77606e+06
1.87465e+06
1.94675e+06
1.98464e+06
1.99874e+06
1.98309e+06
1.93696e+06
1.8637e+06
1.75859e+06
1.62782e+06
1.46397e+06
1.29465e+06
1.17528e+06
1.12636e+06
1.1645e+06
1.28437e+06
1.43461e+06
1.4905e+06
1.47078e+06
1.20531e+06
1.12273e+06
1.12046e+06
1.19211e+06
1.318e+06
1.45019e+06
1.55889e+06
1.64534e+06
1.71002e+06
1.74145e+06
1.7559e+06
1.73862e+06
1.70226e+06
1.63703e+06
1.54701e+06
1.43813e+06
1.31e+06
1.18402e+06
1.12141e+06
1.12359e+06
1.2008e+06
1.44973e+06
1.47136e+06
1.59032e+06
1.54673e+06
1.23033e+06
1.11452e+06
1.08546e+06
1.10985e+06
1.19591e+06
1.29624e+06
1.38451e+06
1.45583e+06
1.50848e+06
1.53731e+06
1.5477e+06
1.53422e+06
1.50115e+06
1.44744e+06
1.37193e+06
1.28264e+06
1.18519e+06
1.10309e+06
1.08474e+06
1.11172e+06
1.21981e+06
1.50602e+06
1.55489e+06
1.79835e+06
1.59659e+06
1.24479e+06
1.10053e+06
1.05177e+06
1.04881e+06
1.094e+06
1.16312e+06
1.2318e+06
1.29094e+06
1.33761e+06
1.35988e+06
1.3698e+06
1.35584e+06
1.33055e+06
1.28352e+06
1.22189e+06
1.15319e+06
1.08606e+06
1.04275e+06
1.04777e+06
1.09662e+06
1.24398e+06
1.5744e+06
1.70493e+06
1.85251e+06
1.64194e+06
1.2712e+06
1.08735e+06
1.0133e+06
994794
1.01448e+06
1.05931e+06
1.1093e+06
1.15492e+06
1.19081e+06
1.21123e+06
1.21827e+06
1.20858e+06
1.18489e+06
1.14904e+06
1.10239e+06
1.05362e+06
1.01023e+06
993015
1.01176e+06
1.08358e+06
1.26214e+06
1.61012e+06
1.85339e+06
1.85135e+06
1.66564e+06
1.31776e+06
1.08711e+06
979998
947378
944992
971399
1.00387e+06
1.03634e+06
1.06685e+06
1.08091e+06
1.08933e+06
1.07978e+06
1.06271e+06
1.0325e+06
998507
966440
941681
944015
975851
1.07877e+06
1.29161e+06
1.63253e+06
1.8526e+06
1.84166e+06
1.6686e+06
1.37874e+06
1.08943e+06
950763
901116
890148
899475
920659
941124
961456
973969
979014
972549
956763
937225
915768
895359
887349
898717
947030
1.08174e+06
1.34633e+06
1.64074e+06
1.84784e+06
1.82235e+06
1.66803e+06
1.50485e+06
1.10277e+06
930581
859373
836788
834109
844158
856193
871829
878540
884428
878285
869436
853905
841853
832609
836841
858753
927383
1.08947e+06
1.43374e+06
1.63806e+06
1.83007e+06
1.78483e+06
1.66427e+06
1.57194e+06
1.13209e+06
925780
826944
791194
782675
783034
788194
795949
801444
804129
800847
793376
786126
781671
780958
790574
826888
927407
1.11246e+06
1.56963e+06
1.63242e+06
1.79407e+06
1.75601e+06
1.64481e+06
1.56916e+06
1.1632e+06
928236
800615
748949
731587
727232
727613
730964
731869
735134
731471
729669
725927
725943
730254
749467
801242
932199
1.15652e+06
1.5723e+06
1.61745e+06
1.7235e+06
1.71227e+06
1.60435e+06
1.56396e+06
1.22792e+06
939747
786853
716427
689736
680272
677325
676361
675877
676802
675588
675558
676471
679691
689077
717559
788460
939693
1.21903e+06
1.56208e+06
1.57953e+06
1.68201e+06
1.66643e+06
1.55461e+06
1.54976e+06
1.35725e+06
966239
787630
690988
651733
635738
629938
628035
625015
626295
625251
627460
630191
636209
651100
691334
789555
959974
1.34479e+06
1.54119e+06
1.52984e+06
1.63628e+06
1.63523e+06
1.50866e+06
1.51219e+06
1.3571e+06
998102
791807
677550
623601
601294
591499
586345
583873
583681
584051
586006
591980
602149
624338
680210
798474
1.00243e+06
1.35015e+06
1.49833e+06
1.48525e+06
1.59467e+06
1.59939e+06
1.46883e+06
1.43742e+06
1.35275e+06
1.0654e+06
807332
678190
601687
568834
555261
550093
545275
545738
545826
550139
556428
570877
603954
680738
810922
1.06856e+06
1.34196e+06
1.40863e+06
1.44676e+06
1.56712e+06
1.55633e+06
1.43047e+06
1.36065e+06
1.33857e+06
1.2001e+06
840382
683212
592555
547084
527988
518433
514503
513593
514739
518517
529032
549591
596536
685157
838218
1.20238e+06
1.3225e+06
1.33441e+06
1.4141e+06
1.53331e+06
1.52413e+06
1.40089e+06
1.29856e+06
1.30211e+06
1.19847e+06
891273
690266
593161
531524
502750
491017
485166
484707
484693
491967
504097
534472
597546
700550
896986
1.20148e+06
1.28129e+06
1.27917e+06
1.38457e+06
1.49321e+06
1.47659e+06
1.37391e+06
1.25289e+06
1.23004e+06
1.1887e+06
998712
709385
598364
528160
488098
468404
461929
460014
462031
468959
490088
531283
600761
725502
1.00205e+06
1.18524e+06
1.21149e+06
1.23531e+06
1.35369e+06
1.46219e+06
1.42575e+06
1.34508e+06
1.21802e+06
1.16827e+06
1.16226e+06
1.04272e+06
746941
612146
529222
475450
450586
439512
438031
439837
451894
478726
532211
610488
775579
1.038e+06
1.14975e+06
1.1526e+06
1.20345e+06
1.32731e+06
1.42253e+06
1.38806e+06
1.31017e+06
1.19268e+06
1.1138e+06
1.10404e+06
1.0377e+06
812060
637124
531826
475494
441029
425499
420420
425675
442504
478924
537716
634611
880891
1.03257e+06
1.07985e+06
1.10243e+06
1.18099e+06
1.29298e+06
1.37337e+06
1.34699e+06
1.27751e+06
1.17203e+06
1.07285e+06
1.04102e+06
1.02332e+06
946148
691327
542726
477493
440940
415953
409028
415936
441608
480113
549035
677161
920959
1.01213e+06
1.02443e+06
1.06308e+06
1.16021e+06
1.26155e+06
1.34054e+06
1.30054e+06
1.23491e+06
1.15227e+06
1.04593e+06
989915
990983
944795
802473
567885
483311
441658
415962
404500
415914
442197
484102
573176
763047
917621
968754
975048
1.03666e+06
1.1405e+06
1.22671e+06
1.29715e+06
1.25906e+06
1.19888e+06
1.12948e+06
1.02719e+06
955079
941852
932045
850555
615774
494669
443617
416438
405024
416736
445541
495834
626235
837124
906608
919180
944197
1.01848e+06
1.11858e+06
1.19038e+06
1.24813e+06
1.17583e+06
1.14505e+06
1.10198e+06
1.01327e+06
932304
900928
903391
848094
716633
519263
450972
418819
407203
419086
453516
518951
730967
835752
880718
878734
922515
1.00337e+06
1.09227e+06
1.13628e+06
1.16145e+06
1.04691e+06
1.07317e+06
1.05514e+06
993528
917389
864684
855504
835732
768750
570692
469969
425585
412967
425535
472195
566902
761682
824272
837695
847482
908858
983434
1.04667e+06
1.06609e+06
1.03659e+06
71134.1
71220
71409.6
71490.7
71697.1
71819.8
71902.1
71830
71664.8
71435.5
71232.4
71075.6
70966.8
70892
70828.8
70766.6
70715.2
70679.2
70657.7
70646.2
70640.5
70637.6
70636.3
70635.9
70632.7
70638.4
70623.2
70647.3
70597.4
70670.7
71407.4
71843.1
72276.5
72658.6
73223.2
73711.8
74051.7
74013.5
73608.7
72857.4
72080.3
71514.4
71177.5
70987
70872.7
70794.3
70733.6
70690.5
70663.8
70649.2
70641.8
70638.1
70636.4
70635.9
70632.9
70638.3
70624.9
70646.1
70614.6
70655.6
72136.6
73320
74242.9
75148.2
76241.1
77291.6
78116.5
78335.1
77898.6
76458.4
74556.6
72867.6
71790.5
71246.3
70976.6
70833.1
70751.6
70700
70668.7
70651.6
70642.9
70638.6
70636.6
70636
70633.5
70638
70628.6
70643.1
70625.4
70646.5
74077.2
76381.4
78090.5
80315.9
82813.5
85311.9
87509.9
88752.1
88855.7
86609.4
81237.6
77006.5
73842.9
72045.4
71273.6
70939.3
70785.2
70711.5
70673.5
70653.7
70643.8
70639
70636.9
70636.1
70634.3
70637.6
70631
70641
70629.6
70642.6
77967.9
83175.8
86122.3
88201.2
89295.9
90299.2
91897.2
93816.6
96124.5
98348.4
98472.9
90496.3
80092.7
74829.5
72207.3
71240.1
70879.4
70738.5
70680.7
70656
70644.6
70639.4
70637.1
70636.2
70634.9
70637.3
70632.7
70639.5
70632.2
70640.1
85185
88534.7
88845.1
89534.1
89896.1
90542
91973.4
93914.8
96491
99666.6
103245
105597
100763
83471.2
75535.1
72207.8
71158.3
70814.8
70700.5
70660.6
70645.7
70639.7
70637.2
70636.3
70635.5
70637
70634
70638.5
70633.9
70638.7
86683.4
88774.6
88664.3
89279.7
89613.8
90141.1
91239.7
93121.5
96013.1
99526.2
103386
107571
110931
108505
86765.1
75755.1
72059.5
71053.2
70759.2
70673.9
70648.5
70640.2
70637.4
70636.4
70635.9
70636.8
70635
70637.8
70634.9
70637.9
86530.1
87863.7
87392
88091.7
88228
88463.2
89034.7
90611.1
93788
98115
102983
107576
112063
115893
113721
88135.2
75441.4
71820.5
70947.4
70716.5
70657.1
70641.8
70637.7
70636.6
70636.2
70636.7
70635.6
70637.4
70635.5
70637.4
85762.3
85910.3
85369.8
86051.2
86114.7
86269.2
86480.2
87602.6
90457.3
94830.4
100653
106746
112077
116772
120723
117339
87096.7
74699.8
71551.4
70854.7
70686
70647.2
70638.6
70636.8
70636.5
70636.7
70636.1
70637.1
70636
70637.2
84283.2
83521
83145.1
83587.6
83709
83883.7
83899.7
84515.3
87058.9
91216.8
96866.1
103770
110882
116771
121707
125384
118836
84371.8
73742.3
71293.1
70780.5
70665.4
70641.7
70637.3
70636.6
70636.7
70636.5
70637
70636.3
70637
82298.3
81090.5
80781.1
81050
81270.1
81466.5
81479.8
81741.6
83613.2
87681.2
93166.6
99756.4
107656
115487
121721
126899
129627
116075
80934.4
72798.2
71073.6
70725.4
70652.4
70639
70636.9
70636.8
70636.7
70637
70636.5
70636.9
80562.7
78992.3
78687.5
78805.2
79081.8
79232.2
79300.5
79363.2
80584.1
84092.9
89670.7
95995.9
103576
112321
120628
126966
132370
133039
107487
77842.3
72022.6
70907.3
70687.5
70644.8
70637.8
70636.9
70636.9
70637
70636.7
70636.9
78836.5
77183
76945.2
77040.6
77220.1
77330.9
77369.4
77326.2
77996.3
80693.9
86197
92471.4
99760.5
108242
117757
126261
132628
137933
134731
95445.6
75210.9
71474.4
70793
70663.8
70640.7
70637.3
70637
70637
70636.8
70636.9
78085.9
76448.6
76150.3
75984.6
75878.9
75854.4
75692.9
75599
75758.8
77704
82601.3
89091.7
96242.6
104334
113818
123919
132345
138763
142855
130813
84829.3
73291.6
71108.1
70721.1
70650.2
70638.6
70637.2
70637
70636.9
70636.9
77851.5
76293.3
75904
75506.3
75145.4
74665.4
74280.9
73951.6
73743.8
74950.1
79154.8
85684.1
92907.9
100787
109857
120321
130690
138673
145375
145286
115748
78720.2
72069.1
70884.6
70679.3
70643.1
70637.7
70637.1
70636.9
70637
77746.1
76567.5
76408.5
75908
75101.7
74027
73128.5
72501.9
72292
72521.6
76168.7
82227.3
89772.7
97570.7
106374
116458
127586
137737
145750
152621
144539
96693.4
74985.4
71366.2
70758.5
70656.7
70639.6
70637.4
70637
70637
77794.1
76871.9
77121
76657.9
75567.8
74100.2
72779
72150.2
71856.6
71725.4
73948
79146.8
87040
94754.7
103454
113103
124050
135649
145580
154857
154957
134800
82899.3
72777.4
70984.9
70693
70645.4
70638.2
70637.2
70637
77717.6
76847.4
77381.7
77785.3
76421.3
74806.5
73210.1
72301.1
71860.8
71717.2
72479.6
76949.8
84683
92442.2
101137
110572
120953
132850
144626
155145
161070
154986
109265
76743.8
71622.6
70791.8
70661.2
70640.5
70637.6
70637.5
77688.7
76684
77335.4
78069.6
77516.4
75765.9
73706.7
72503.2
71889.2
71677.4
71666.9
75632.8
82948.6
90690.9
99210.3
108541
118789
130285
142928
154933
166034
165270
148075
87202.5
73388.9
71060.4
70701.4
70646.8
70638.5
70637.7
77493.5
76355.4
76908.9
78323.6
78784.3
75977.8
73686.2
72588.3
71970.6
71447.7
70875.6
73895.7
80753.5
88878.4
97410.9
106796
117201
128301
141306
154492
166964
170697
165586
118997
78020.1
71788.7
70808.5
70662.4
70640.7
70637.3
77014.9
75755.4
76885.6
78763.5
77449
74783.7
73674.7
72752.5
71351.1
70122.3
69571.5
71884.5
78387.7
86944.6
95628.3
105117
115561
126752
139580
153461
166951
176993
175502
158076
90523.6
73714.6
71084
70702.2
70647.2
70639.5
76836.5
75636.5
77178.6
77994.3
75535.3
74579.2
72649.4
70452.7
69352.9
68905
69010.6
70942.6
77059.8
86016.3
94231.5
103206
113084
124635
137459
151602
166209
180733
182128
176584
125389
78510
71805.5
70801
70660.1
70641.1
75681.7
75445.4
76028.2
75478.3
74941
72341.7
69772.8
68518.1
68148.5
68468.4
69031
70567.1
74838.4
83077.2
90550.6
99440.5
109851
121637
134662
149499
165001
181116
187838
186799
166113
90718.2
73621.8
71043.8
70691.7
70644.7
79621.7
74912.2
75106.4
75415.9
73072.8
71835.3
69014.9
67920.3
67617.4
68427.4
68957.4
68340.1
71617.2
80308.7
88532.2
97542.6
107731
119334
132468
147538
163713
180701
195962
195081
187065
125995
77970.8
71654.3
70772.9
70658.3
60265.2
72564.3
74937.2
75880.4
73619.5
69019.7
67158.9
66318.3
66128.2
66134
66007.1
65547.8
70006
79118.1
87639.7
96707.6
106708
118183
131106
145727
162176
178915
198069
201846
199558
169800
87757.6
73142.3
70958.9
70683.6
70670.7
70597.4
70647.3
70623.2
70638.4
70632.7
70635.9
70636.3
70637.6
70640.5
70646.2
70657.6
70679.2
70715.2
70766.5
70828.7
70891.7
70966.1
71074.2
71230.1
71432.2
71661
71826.2
71898.9
71817.4
71695.5
71489.6
71408.8
71219.6
71134.1
70655.6
70614.6
70646.1
70624.9
70638.3
70632.9
70635.9
70636.4
70638.1
70641.8
70649.2
70663.7
70690.5
70733.5
70794.2
70872.4
70986
71175
71509.2
72070.8
72843.5
73593.3
73999.3
74039.7
73702.8
73216.6
72653.8
72273.1
71841
71406.7
70646.5
70625.4
70643.1
70628.6
70638
70633.5
70636
70636.6
70638.6
70642.9
70651.6
70668.7
70700
70751.6
70832.8
70975.3
71242.9
71782
72849.1
74526.1
76418.9
77859.6
78300.7
78087.5
77269.6
76224.6
75135.5
74233.8
73313.8
72133.6
70642.6
70629.6
70641
70631
70637.6
70634.3
70636.1
70636.9
70639
70643.8
70653.7
70673.5
70711.4
70784.8
70938
71269.4
72032.9
73811.2
76947.8
81137
86480.9
88751.5
88664.7
87438.5
85253.7
82765.9
80278.8
78068.2
76366.5
74068.8
70640.1
70632.2
70639.5
70632.7
70637.3
70634.9
70636.2
70637.1
70639.4
70644.6
70656
70680.7
70738.1
70878.1
71235.5
72191.4
74783.2
79997.2
90284
98330
98268.8
96065
93764.4
91850.2
90252.8
89249
88154.4
86075.9
83134.6
77944.1
70638.7
70633.9
70638.5
70634
70637
70635.5
70636.3
70637.2
70639.7
70645.7
70660.5
70700.2
70813.6
71153.7
72189.5
75475
83294.4
100500
105492
103177
99609.6
96438.8
93865.9
91928.4
90497.8
89853.2
89493.8
88810.1
88499.7
85150.3
70637.9
70634.9
70637.8
70635
70636.8
70635.9
70636.4
70637.4
70640.2
70648.4
70673.7
70758.3
71049.1
72041.9
75685.4
86483
108247
110827
107503
103325
99472.2
95966.3
93076.9
91196
90095.4
89569.9
89239.3
88629.6
88743.7
86662.5
70637.4
70635.5
70637.4
70635.6
70636.7
70636.2
70636.6
70637.7
70641.8
70657
70715.8
70944
71805.4
75373.1
87824.5
113489
115783
111986
107507
102928
98071.3
93751.1
90572
88993.7
88418.1
88183.7
88049.2
87357
87830.2
86501.8
70637.2
70636
70637.1
70636.1
70636.7
70636.5
70636.8
70638.6
70647.1
70685.5
70852.1
71539.3
74637.4
86798.8
117056
120596
116687
112002
106690
100616
94799.3
90428.2
87567.6
86441
86224.1
86070.1
86007.1
85330.2
85872.5
85726
70637
70636.3
70637
70636.5
70636.7
70636.6
70637.3
70641.6
70665.1
70778.7
71284.2
73693.2
84123
118450
125232
121609
116690
110826
103732
96834.8
91184
87028.3
84475.3
83854.2
83834.3
83659.2
83536.8
83098.2
83472.9
84243
70636.9
70636.5
70637
70636.7
70636.8
70636.9
70638.9
70652.2
70724.2
71067.4
72762.8
80767.7
115553
129439
126784
121626
115421
107615
99724
93138.7
87651.6
83586.5
81701.6
81431.3
81415.2
81216.3
80993.8
80724.9
81033.1
82243.4
70636.9
70636.7
70637
70636.9
70636.9
70637.7
70644.7
70686.8
70903.4
72000.6
77722.3
106875
132801
132230
126855
120547
112268
103534
95955.4
89635.2
84053.9
80547.5
79315.3
79244.9
79174.1
79021
78740.9
78620.8
78924.4
80498.2
70636.9
70636.8
70637
70637
70637.3
70640.6
70663.4
70790.7
71461.2
75132.5
94990.6
134417
137755
132495
126160
117685
108185
99709
92420.8
86155
80645.1
77949.3
77270
77308.3
77265.5
77151
76965.6
76864.6
77096.1
78742.6
70636.9
70636.9
70637
70637.2
70638.6
70650
70719.9
71100.7
73244.8
84537.2
130325
142619
138602
132214
123825
113748
104271
96183.6
89034.2
82558.1
77646.2
75704.8
75542.1
75637.1
75789.5
75806.8
75912.5
76077.7
76354.3
77975.6
70637
70636.9
70637.1
70637.7
70643
70678.7
70880.6
72044.2
78574.8
114917
144778
145184
138514
130571
120231
109775
100711
92840
85622.3
79117
74860.7
73667.3
73889.1
74234.3
74624.3
75105
75444.6
75841.7
76216.4
77748.8
70637
70637
70637.4
70639.6
70656.4
70756.6
71353.5
74903.8
96155.8
144105
152379
145591
137585
127469
116364
106284
97482.8
89694.1
82162.1
76145.2
72505
72293.7
72510
73147.7
74052.3
75121.9
75915.6
76397.2
76526
77670
70637
70637.2
70638.2
70645.3
70692.2
70978.9
72736.9
82650.7
133954
154641
154677
145417
135506
123929
113013
103375
94679.4
86981.9
79109.2
73963.4
71801.9
71942.7
72227.9
72868.6
74183.8
75659.3
76700.3
77152.2
76896.3
77769.1
70637.5
70637.6
70640.4
70660.9
70789.1
71603.7
76622.7
108485
154514
160636
155022
144473
132722
120852
110502
101098
92417.3
84726.1
77016.5
72579.5
71843.3
71976
72420.6
73302.9
74939.6
76559.6
77923
77516.5
76943
77754
70637.7
70638.4
70646.6
70700.3
71052.5
73332.9
86757.4
147152
164849
165849
154828
142809
130215
118737
108505
99230
90736.1
83064.2
75758
71793.3
71821.8
72038.9
72651.8
73871.4
75977.4
77752.4
78238.5
77528.2
76829.8
77806.6
70637.3
70640.6
70662
70805.4
71765.3
77870.8
118075
165155
170401
166885
154401
141245
128312
117281
106878
97533.6
89031.7
81042.8
74177.8
71036.8
71639.7
72142
72796.6
73926.8
76237
79151.4
78665.6
77204.8
76584.5
77707.3
70639.5
70647.1
70701
71075.2
73649.1
89938.5
157298
175127
176601
166909
153449
139612
126832
115735
105297
95787.5
87093.3
78503.8
72051.3
69682.8
70225.7
71583.8
73008.9
73978.5
75278.4
78058.6
79722.7
77398.4
76104.2
77416.7
70641.1
70659.7
70797.8
71780.1
78343.6
124334
176154
181908
180738
166219
151686
137529
124662
113143
103272
94386.4
86086.9
77076.1
71120.6
69116.4
69135.2
69700.9
71037.1
73231.4
75335.3
76172.1
78561.4
77695.6
76002
77284
70644.5
70690.6
71035.4
73556.1
90094.9
165263
186555
187640
181195
165090
149646
134773
121759
109869
99464.7
90543.4
83181.5
74703.6
70731.7
69124.2
68726.5
68631.5
69092.3
70532.1
73612
75779.6
75774.3
75993.6
75990.7
76185.9
70658
70770.2
71631.2
77811.3
124860
186696
194942
195921
180839
163885
147735
132612
119438
107775
97553.1
88493.7
80394.2
71536.7
68552.4
69162.4
68688.7
68124.1
68455.3
69637.7
72815.9
73918.7
75325.4
75491.6
75695.5
80522.3
70682.7
70952.2
73087.3
87342.1
168742
199411
201851
198240
179137
162383
145928
131242
118271
106751
96704.8
87576.7
79192
69975
65966
66564.4
66615.7
66750.4
67147.4
67829.2
69645.3
74034.7
75617.9
75108.8
73466.8
61319.6
70637
70637
70637
70637
70637
70637
70637
70637
70637
70637
70637
70637
70637
70637
70637
70637
70637
70637
70637
70637
70637
70637
70637
70637
70637
70637
70637
70637
70637
70637
70637
70637
70637
70637
70637
70637
70637
70637
70637
70637
70637
70637
70637
70637
70637
70637
70637
70637
70637
70637
70637
70637
70637
70637
70637
70637
70637
70637
70637
70637
70637
70637
70637
70637
70637
70637
70637
70637
70637
70637
70637
70637
70637
70637
70637
70637
70637
70637
70637
70637.1
70637.5
70639.9
70650.7
70694.1
70862.7
71433.5
73044.9
77183.5
86989.6
110302
159466
232609
310781
384020
447531
498154
538940
571368
594420
609222
614708
613587
605203
590953
570696
545240
515491
482260
446069
407066
366495
326092
284942
241045
196501
154163
116518
91403.6
81724.9
76223.5
73296.3
71844.1
71167.1
70871.3
70737.7
70637
70637
70637
70637
70637
70637
70637
70637
70637
70637
70637
70637
70637
70637
70637
70637
70637
70637
70637
70637
70637
70637
70637
70637
70637
70637
70637
70637
70637
70637
70637
70637
70637
70637
70637
70637
70637
70637
70637
70637
70637
70637
70637
70637
70637
70637
70637
70637
70637
70637
70637
70637
70637
70637
70637
70637
70637
70637
70637
70637
70637
70637
70637
70637
70637
70637
70637
70637
70637
70637
70637
70637
70637
70637
70637
70637
70637
70637
70637.1
70639
70648.7
70696.5
70929.2
71845.6
74869.6
84119.1
114724
185844
287942
381599
442842
472381
485226
488941
488130
487608
486270
482743
478139
472303
464414
455174
444127
432144
419866
406547
392289
377388
362402
347509
332567
316337
300330
286450
272227
256261
236384
206192
162587
120417
89870.6
79732.6
74786.1
72431.1
71382.1
70637
70637
70637
70637
70637
70637
70637
70637
70637
70637
70637
70637
70637
70637
70637
70637
70637
70637
70637
70637
70637
70637
70637
70637
70637
70637
70637
70637
70637
70637
70637
70637
70637
70637
70637
70637
70637
70637
70637
70637
70637
70637
70637
70637
70637
70637
70637
70637
70637
70637
70637
70637
70637
70637
70637
70637
70637
70637
70637
70637
70637
70637
70637
70637
70637
70637
70637
70637
70637
70637
70637
70637
70637
70637
70637
70637
70637
70637.7
70644.2
70682.1
70911.6
72017.5
76499.4
94694
158087
283656
412063
494362
529384
540179
539132
529402
515410
500321
487096
475252
462513
448800
434774
421062
408277
396208
384486
372959
363287
354263
345801
337803
330093
322412
314510
306166
297309
288300
279940
272043
263725
253311
240796
223647
195935
149604
107061
83886.1
76521.4
70637
70637
70637
70637
70637
70637
70637
70637
70637
70637
70637
70637
70637
70637
70637
70637
70637
70637
70637
70637
70637
70637
70637
70637
70637
70637
70637
70637
70637
70637
70637
70637
70637
70637
70637
70637
70637
70637
70637
70637
70637
70637
70637
70637
70637
70637
70637
70637
70637
70637
70637
70637
70637
70637
70637
70637
70637
70637
70637
70637
70637
70637
70637
70637
70637
70637
70637
70637
70637
70637
70637
70637
70637
70637
70637
70637.1
70639.8
70660.3
70809.8
71742.5
76468.2
101881
196914
362596
504502
567773
590030
591593
582174
567598
550266
533354
516703
499167
481097
462510
444332
427173
411272
396521
382689
369738
357959
346418
337555
329798
322926
316858
311484
306409
301520
296622
291476
285842
279406
272313
264885
257546
250706
243274
233813
221314
202499
165354
119578
70637
70637
70637
70637
70637
70637
70637
70637
70637
70637
70637
70637
70637
70637
70637
70637
70637
70637
70637
70637
70637
70637
70637
70637
70637
70637
70637
70637
70637
70637
70637
70637
70637
70637
70637
70637
70637
70637
70637
70637
70637
70637
70637
70637
70637
70637
70637
70637
70637
70637
70637
70637
70637
70637
70637
70637
70637
70637
70637
70637
70637
70637
70637
70637
70637
70637
70637
70637
70637
70637
70637
70637
70637
70637
70637.5
70645.1
70708.1
71229.9
74618.5
96847.7
202989
403092
561155
623043
639609
636240
621203
603664
586209
568793
549348
527693
504169
479270
455294
433200
413186
395027
378570
363703
350336
338373
327345
316936
307951
300946
294413
288559
283534
279236
275595
272496
269923
267686
265703
263488
260516
256201
250625
243858
236740
229812
222327
211445
196763
70637
70637
70637
70637
70637
70637
70637
70637
70637
70637
70637
70637
70637
70637
70637
70637
70637
70637
70637
70637
70637
70637
70637
70637
70637
70637
70637
70637
70637
70637
70637
70637
70637
70637
70637
70637
70637
70637
70637
70637
70637
70637
70637
70637
70637
70637
70637
70637
70637
70637
70637
70637
70637
70637
70637
70637
70637
70637
70637
70637
70637
70637
70637
70637
70637
70637
70637
70637
70637
70637
70637
70637
70637
70638.4
70657.5
70847
72456.1
84359.1
169814
392563
588277
662690
681008
677298
662781
643547
623545
603545
580618
553947
526902
498812
471914
446173
422643
402098
384183
368403
354115
340704
328055
316247
305399
295517
286229
279557
273343
267300
261713
256546
252052
248166
244863
242153
240297
239249
239018
239075
239232
238577
235118
229601
222920
215877
208368
70637
70637
70637
70637
70637
70637
70637
70637
70637
70637
70637
70637
70637
70637
70637
70637
70637
70637
70637
70637
70637
70637
70637
70637
70637
70637
70637
70637
70637
70637
70637
70637
70637
70637
70637
70637
70637
70637
70637
70637
70637
70637
70637
70637
70637
70637
70637
70637
70637
70637
70637
70637
70637
70637
70637
70637
70637
70637
70637
70637
70637
70637
70637
70637
70637
70637
70637
70637
70637
70637
70637
70637.1
70640.4
70684
71190.9
75840.7
120581
317257
576093
686095
716842
714544
700900
683385
664630
643135
616966
587004
550524
519952
492185
465695
442348
420876
399395
380324
363365
347849
333622
320349
307876
296271
285702
275826
266922
259714
254190
248524
243113
237936
233319
229115
225204
221831
219045
216998
215563
214783
214787
214873
216290
217842
217977
216192
208536
70637
70637
70637
70637
70637
70637
70637
70637
70637
70637
70637
70637
70637
70637
70637
70637
70637
70637
70637