/*--------------------------------*- C++ -*----------------------------------*\
| =========                 |                                                 |
| \\      /  F ield         | OpenFOAM: The Open Source CFD Toolbox           |
|  \\    /   O peration     | Version:  2112                                  |
|   \\  /    A nd           | Website:  www.openfoam.com                      |
|    \\/     M anipulation  |                                                 |
\*---------------------------------------------------------------------------*/
FoamFile
{
    version     2.0;
    format      ascii;
    arch        "LSB;label=32;scalar=64";
    class       surfaceScalarField;
    location    "0.00891";
    object      phi;
}
// * * * * * * * * * * * * * * * * * * * * * * * * * * * * * * * * * * * * * //

dimensions      [1 0 -1 0 0 0 0];

oriented        oriented;

internalField   nonuniform List<scalar> 
27436
(
-0.533455
8.1928
-0.093289
7.47166
-0.0850404
7.7873
-0.070084
7.78628
-0.0647404
7.78899
-0.0483986
7.78163
-0.0409898
7.78964
-0.0343463
7.79013
-0.0238495
7.78773
-0.0153163
7.78901
-0.00887136
7.78989
0.00032658
7.78797
0.0142008
7.78319
0.0310999
7.78082
0.0462329
7.78231
0.0549107
7.78824
0.0580219
7.79262
0.0658478
7.7897
0.0753527
7.78828
0.0895481
7.78254
0.0962209
7.7879
0.111765
7.78555
0.124101
7.78238
0.57441
7.46225
8.21848
-0.247208
8.44
-0.0961763
7.32061
-0.0814284
7.77254
-0.0553486
7.76047
-0.0615648
7.79499
-0.0579361
7.77644
-0.0376377
7.76839
-0.0282504
7.7811
-0.0212958
7.78077
-0.0111509
7.77905
0.00136659
7.77844
0.0157196
7.77355
0.0151773
7.78388
0.0216378
7.77435
0.0210612
7.78286
0.037714
7.77158
0.046607
7.78372
0.0589565
7.77735
0.0823313
7.76492
0.0776665
7.78721
0.0721882
7.79342
0.102975
7.75472
0.114302
7.77118
0.267774
7.30907
8.48084
-0.227242
8.66723
-0.141176
7.2345
-0.120614
7.75182
-0.107431
7.74682
-0.105409
7.79247
-0.106331
7.77713
-0.0941454
7.75664
-0.0737301
7.75952
-0.0583271
7.76277
-0.049951
7.76824
-0.0391725
7.76653
-0.0145919
7.74949
-0.0125454
7.78193
-0.0113637
7.77322
-0.00824409
7.77974
0.0127088
7.75062
0.0240721
7.77236
0.0473565
7.75411
0.0609275
7.75135
0.0593856
7.78875
0.0638196
7.789
0.078677
7.73988
0.100673
7.74952
0.192565
7.21551
8.66993
-0.16954
8.8368
-0.13951
7.20446
-0.134321
7.74653
-0.113812
7.72599
-0.115082
7.79325
-0.11077
7.77389
-0.0905031
7.73688
-0.0722303
7.73988
-0.0574184
7.7457
-0.0436432
7.75326
-0.0290685
7.75102
-0.00720615
7.72748
0.00304895
7.77174
0.0049018
7.77143
0.0149691
7.76966
0.0353074
7.73027
0.0494464
7.75822
0.0697896
7.7338
0.0885638
7.73258
0.0942192
7.78309
0.0944418
7.78877
0.118942
7.71548
0.111375
7.75725
0.16203
7.16398
8.83508
-0.0735928
8.91038
-0.0366017
7.16742
-0.0927679
7.80251
-0.0635892
7.69639
-0.0714456
7.80043
-0.0706291
7.77308
-0.0524594
7.71948
-0.0359819
7.72199
-0.0244694
7.7328
-0.0142857
7.74267
-0.00168533
7.73727
0.0164813
7.70925
0.0268723
7.76137
0.0276535
7.77069
0.0370444
7.76028
0.0543804
7.71293
0.0644698
7.74813
0.0821567
7.71615
0.0970153
7.71773
0.101048
7.77905
0.096873
7.79294
0.124812
7.68759
0.0898858
7.79235
0.0967618
7.1574
8.93709
0.118588
8.79178
0.0437663
7.24215
-0.0503675
7.89647
-0.0138131
7.65935
-0.0335417
7.81953
-0.0379873
7.77733
-0.0251823
7.70758
-0.0127792
7.70811
-0.0058316
7.72428
-0.00176065
7.73873
0.00544765
7.72868
0.0192611
7.69545
0.0256522
7.75497
0.0250104
7.77132
0.0296707
7.75564
0.0421752
7.70044
0.0463717
7.74394
0.058481
7.70406
0.0684829
7.70775
0.0690469
7.77848
0.052409
7.80956
0.0884333
7.65162
-0.0140061
7.89486
-0.0210891
7.16452
8.91881
0.304659
8.4871
0.136116
7.41059
-0.00696692
8.03938
0.0211821
7.63059
-0.0249418
7.86498
-0.0517735
7.80245
-0.0596123
7.71591
-0.0673229
7.71559
-0.0827693
7.73808
-0.0953608
7.75119
-0.112393
7.74454
-0.120364
7.70347
-0.131139
7.7657
-0.146279
7.78643
-0.158054
7.76743
-0.166398
7.70883
-0.18502
7.76258
-0.192968
7.71203
-0.207909
7.7227
-0.228737
7.7993
-0.262784
7.84356
-0.284768
7.67365
-0.354466
7.96445
-0.658501
7.46846
8.26133
0.873334
7.61375
0.521963
7.76187
0.410307
8.15075
0.331085
7.70918
0.265255
7.93068
0.223139
7.84375
0.194713
7.74327
0.17126
7.73856
0.141961
7.766
0.114209
7.77811
0.0825173
7.77532
0.0608527
7.72506
0.0379229
7.78857
0.00673015
7.81755
-0.0192355
7.79349
-0.0445011
7.73419
-0.0743095
7.79241
-0.100681
7.73839
-0.130602
7.75263
-0.167134
7.83578
-0.228199
7.90457
-0.279128
7.72462
-0.405905
8.09105
-0.693638
7.75624
7.56597
0.592987
7.02078
0.410248
7.94456
0.237737
8.32314
0.187287
7.75907
0.126356
7.99112
0.0934218
7.87942
0.0864017
7.74897
0.0838639
7.74007
0.0786099
7.77054
0.0758882
7.77941
0.0712291
7.77972
0.070597
7.72543
0.0767785
7.78219
0.0767338
7.81753
0.0769336
7.79338
0.0722413
7.73902
0.0674566
7.79729
0.0629579
7.74291
0.0562321
7.75933
0.0293024
7.86264
-0.0267021
7.96046
-0.0465162
7.74435
-0.219155
8.26335
-0.371964
7.90872
7.19062
-3.05094
10.0718
-3.39188
8.2853
-2.76474
7.69591
-2.61923
7.61357
-2.30382
7.67518
-1.94299
7.52255
-1.64669
7.4495
-1.36873
7.46125
-1.08395
7.48538
-0.781339
7.47535
-0.494643
7.49384
-0.20898
7.43948
0.0975826
7.47542
0.403507
7.51163
0.694728
7.50231
0.966389
7.46752
1.2648
7.49902
1.54144
7.46627
1.83568
7.46497
2.19632
7.50183
2.50185
7.65476
2.66037
7.58577
3.23484
7.68851
2.95039
8.19273
10.1399
-4.25823
14.3299
-4.36777
8.39469
-4.19686
7.52637
-3.90177
7.31799
-3.32646
7.09845
-2.79073
6.98606
-2.34663
7.00345
-1.92085
7.03485
-1.47112
7.03479
-1.02076
7.02355
-0.562022
7.0364
-0.121549
6.99873
0.340407
7.01336
0.81168
7.04055
1.25934
7.05483
1.67726
7.04979
2.13223
7.04425
2.57018
7.02847
3.0248
7.01038
3.57637
6.95005
4.13307
7.09781
4.44369
7.27492
4.6145
7.5175
4.56455
8.24199
14.7056
-2.75845
17.0879
-4.86844
10.5042
-4.98284
7.64268
-4.14095
6.47513
-3.62248
6.577
-3.17155
6.53432
-2.69922
6.53135
-2.21601
6.55151
-1.71795
6.53566
-1.22561
6.52974
-0.723139
6.53481
-0.244295
6.51959
0.257604
6.51165
0.762
6.53651
1.25936
6.55763
1.71865
6.59074
2.20668
6.55661
2.69745
6.53817
3.19193
6.51605
3.66737
6.47444
4.24814
6.51668
5.09824
6.42452
4.72132
7.8944
2.77956
10.1838
17.4856
2.36512
14.7222
0.167559
12.6996
-5.00639
12.8167
-3.89236
5.36058
-3.80397
6.48909
-3.30661
6.03902
-2.87767
6.10441
-2.37242
6.04594
-1.84954
6.01155
-1.32956
6.00873
-0.810612
6.01583
-0.307068
6.01586
0.210722
5.99439
0.740601
6.00721
1.2648
6.03358
1.78875
6.06706
2.28069
6.06507
2.76054
6.05891
3.20107
6.076
3.76122
5.91432
3.97329
6.30426
5.10852
5.28869
-0.1804
13.1833
-2.39861
12.4021
15.0867
2.45449
12.2669
3.52053
11.632
3.44786
12.8865
-0.812045
9.62709
-3.63539
9.3202
-3.20314
5.61437
-2.97332
5.87648
-2.47287
5.54459
-1.94726
5.48501
-1.46695
5.52794
-0.976936
5.52549
-0.472674
5.51207
0.0261563
5.49657
0.532323
5.50196
1.03385
5.53256
1.52834
5.57279
2.02813
5.56522
2.48348
5.60382
2.61248
5.94769
2.98682
5.54004
-0.0895767
9.38037
-4.15607
9.35546
-3.8784
12.9056
-2.95592
11.4798
12.1305
1.87768
10.3878
3.87547
9.63395
5.77124
10.9892
4.95445
10.4471
4.0982
10.1837
-1.19543
10.9139
-2.38514
7.06944
-2.04682
5.20628
-1.62987
5.06842
-1.13722
5.03671
-0.602567
4.99168
-0.0627155
4.97364
0.469528
4.96575
1.00195
4.97076
1.54232
4.99312
2.05325
5.06218
2.44515
5.17258
2.79688
5.25159
1.50421
7.2411
-3.66484
10.7104
-4.23573
9.9515
-4.89141
10.0119
-3.05264
11.0666
-1.33382
9.76145
10.797
1.09063
9.2952
2.16678
8.55711
3.98147
9.1771
4.93731
9.49193
5.05403
10.0696
5.79354
10.1764
2.7823
10.0795
1.13048
6.86138
-0.058941
6.26135
-0.391408
5.36912
-0.252802
4.85368
0.04129
4.68051
0.394167
4.61394
0.716568
4.64894
0.930529
4.77993
0.814705
5.17857
-0.511836
6.49935
-2.33949
7.07793
-5.03008
9.93214
-4.27831
9.95997
-3.97175
9.64492
-3.50837
9.5489
-1.86151
9.41916
-0.761398
8.66155
10.0359
2.00472
7.28735
3.17306
7.38649
4.37031
7.97978
5.94717
7.91646
7.05152
8.96813
6.63956
10.5907
4.70391
12.0092
2.16628
9.40407
0.870068
7.56127
0.187846
6.05399
0.00190989
5.04036
-0.0370012
4.71738
-0.0172434
4.59041
-0.0175206
4.64751
-0.165005
4.9245
-0.82283
5.83428
-2.38276
8.05784
-4.94545
9.63961
-6.73989
11.7308
-7.24748
10.4661
-6.42417
8.82081
-4.99998
8.12343
-3.70632
8.12513
-2.56062
7.51574
7.47539
2.53105
4.75453
4.14945
5.76529
4.68012
7.44643
4.32691
8.27121
4.54521
8.74832
4.26911
10.8691
4.13432
12.1459
2.55612
10.9831
1.36845
8.75118
0.601247
6.82415
0.21341
5.43024
-0.0805268
5.01214
-0.374213
4.88396
-0.672458
4.9447
-1.02086
5.2715
-1.90485
6.7161
-3.24574
9.39464
-4.93586
11.327
-5.8622
12.6596
-6.25331
10.858
-5.96936
8.53801
-5.94045
8.09464
-4.9655
7.14944
-2.94093
5.49088
4.5344
3.16181
1.59196
6.23439
2.69077
8.47718
5.19974
8.24387
8.50689
6.46807
10.5218
5.92544
11.4112
5.58523
12.4876
4.88136
11.6859
4.15271
9.47939
3.23942
7.73849
1.99454
6.67569
0.822315
6.184
-0.329972
6.03563
-1.53405
6.14755
-2.89775
6.63352
-3.97637
7.79224
-4.38545
9.8005
-4.77358
11.7127
-4.64335
12.5312
-5.26316
11.4805
-7.52665
10.8033
-7.858
8.42783
-5.77132
5.06182
-2.95916
2.67831
1.57507
1.20004
0.390812
2.926
0.963388
4.94818
3.1771
6.46945
6.98907
5.7559
11.2332
5.43504
11.7307
5.4025
12.5212
4.85483
12.2342
3.79892
10.5346
2.63792
8.89918
1.49236
7.82071
0.372971
7.30274
-0.755103
7.16317
-1.91051
7.30237
-3.15544
7.87799
-4.44943
9.08555
-5.45877
10.8086
-5.87843
12.1305
-5.80575
12.4582
-6.09073
11.7664
-6.68359
11.3983
-4.98881
6.73337
-2.98283
3.05527
-1.21258
0.907804
0.362095
0.579983
-0.19097
0.86516
0.67642
1.00366
3.0384
1.3339
6.65901
2.2588
10.3067
2.9129
11.0766
3.40862
12.0265
3.32121
12.3212
2.65527
11.2001
1.79531
9.75891
0.938304
8.67746
0.0982371
8.14249
-0.734804
7.99612
-1.61223
8.18003
-2.54767
8.81419
-3.48462
10.0228
-4.08997
11.4131
-4.02704
12.0663
-3.41692
11.8473
-2.72668
11.0759
-1.66363
10.3357
-1.14356
6.21374
-0.916263
2.82798
-0.596563
0.58745
-0.235683
-0.153497
-0.0379006
-0.302151
0.823341
-0.695702
3.43048
-0.648586
6.60978
0.395586
9.25999
1.30755
10.167
1.89986
11.4344
2.02978
12.191
1.73518
11.4953
1.25583
10.2387
0.704192
9.22959
0.145045
8.70196
-0.415468
8.55732
-0.977671
8.74321
-1.53226
9.36993
-1.97704
10.4682
-2.15923
11.5946
-1.9504
11.8561
-1.27062
11.1668
-0.296316
10.1011
0.802816
9.23696
0.69183
6.32528
0.363015
3.15625
0.200466
0.749247
-0.0355558
-0.528472
0.490087
-1.36585
1.65942
-1.77995
3.84362
-1.79422
6.61876
-0.916925
8.38227
-0.0575044
9.31052
0.466638
10.9091
0.771562
11.885
0.859847
11.4077
0.733979
10.3657
0.495614
9.46895
0.212363
8.98628
-0.0734433
8.84445
-0.341108
9.01217
-0.535684
9.56539
-0.595954
10.5287
-0.46511
11.4632
-0.183088
11.574
0.447655
10.5361
1.30664
9.2425
2.17411
8.3683
2.0336
6.46488
1.50271
3.68595
0.545182
1.7059
0.509055
-0.396762
0.88734
-1.50235
2.76386
-2.42329
4.76241
-2.54586
6.7372
-2.06642
7.90392
-1.5952
8.8401
-1.02533
10.3366
-0.511678
11.3703
-0.165594
11.064
-0.00970393
10.2118
0.0114898
9.44909
-0.0464174
9.04588
-0.137742
8.93723
-0.197624
9.07318
-0.178791
9.54717
-0.00529854
10.3554
0.356148
11.1023
0.839689
11.0901
1.34831
10.0274
1.92732
8.66283
2.45994
7.83567
2.33868
6.58527
1.36761
4.65619
0.35576
2.7186
0.865199
-0.382601
1.27049
-1.39696
3.7781
-2.18398
5.54769
-2.42341
6.97577
-2.19141
7.67118
-1.88447
8.53211
-1.44701
9.8965
-0.919414
10.8417
-0.470892
10.6182
-0.216121
9.9593
-0.102123
9.3369
-0.0593398
9.0047
-0.026171
8.90553
0.0273357
9.02087
0.165474
9.40991
0.439584
10.0824
0.87343
10.669
1.3826
10.582
1.77007
9.64053
2.10932
8.32462
2.38365
7.55952
2.11832
6.84953
1.30724
5.46552
0.350682
3.67527
1.21457
-0.34657
1.61792
-1.22756
4.65956
-2.04992
6.36774
-2.41178
7.33642
-2.38256
7.64195
-2.15734
8.30609
-1.7734
9.50934
-1.21648
10.2843
-0.724725
10.1294
-0.355273
9.59233
-0.136962
9.12061
0.0185791
8.85093
0.145487
8.78015
0.304998
8.86279
0.537636
9.17852
0.935855
9.6853
1.45071
10.1555
1.965
10.0682
2.289
9.31655
2.50316
8.10938
2.50898
7.55299
2.14097
7.21652
1.24103
6.36429
0.356739
4.55679
1.56731
-0.465039
2.08505
-1.38275
5.57888
-2.20234
7.18597
-2.53225
7.66517
-2.59098
7.69907
-2.45811
8.1716
-2.16244
9.21179
-1.6558
9.77816
-1.1343
9.61109
-0.739714
9.20005
-0.450526
8.83344
-0.229422
8.63159
-0.0222821
8.57471
0.196988
8.64506
0.494943
8.88208
0.880616
9.30125
1.35579
9.68169
1.83564
9.58931
2.14163
9.01046
2.29864
7.95306
2.24601
7.60613
1.95852
7.50337
1.21675
7.10549
0.377316
5.39612
1.94391
-0.365444
2.45323
-1.22064
6.43674
-1.97167
7.93612
-2.16656
7.85905
-2.35657
7.88749
-2.27091
8.08499
-1.98761
8.92717
-1.49393
9.28549
-1.02475
9.14509
-0.622018
8.79952
-0.315608
8.52895
-0.0557386
8.37358
0.17847
8.34218
0.441943
8.38327
0.751577
8.57376
1.18325
8.87106
1.66843
9.19763
2.11
9.14899
2.34517
8.7759
2.41207
7.88495
2.1999
7.81589
1.94904
7.75228
1.18728
7.86757
0.368011
6.21458
2.31424
-0.30118
2.75641
-1.19565
7.335
-1.91334
8.65472
-2.08859
8.03475
-2.23264
8.03119
-2.16428
8.01415
-1.91931
8.68161
-1.49167
8.85972
-1.02703
8.68348
-0.638526
8.41281
-0.304342
8.1964
-0.017174
8.08784
0.266327
8.06027
0.557847
8.09313
0.911749
8.22127
1.30441
8.4797
1.74243
8.76134
2.16289
8.72882
2.37826
8.56019
2.44866
7.8171
2.28916
7.97756
2.10011
7.94165
1.42665
8.54035
0.467506
7.17221
2.78275
-0.537659
3.29555
-1.44504
8.24593
-2.05414
9.26335
-2.22693
8.20589
-2.40335
8.20654
-2.4395
8.04936
-2.24326
8.48629
-1.7888
8.40784
-1.35117
8.24812
-0.943515
8.00626
-0.607594
7.86159
-0.295091
7.77665
-0.00256559
7.76891
0.309394
7.78245
0.643165
7.88831
1.06033
8.06348
1.49292
8.32948
1.87749
8.34595
2.07994
8.35826
2.04264
7.85214
1.93423
8.08412
1.72734
8.1486
1.14378
9.12552
0.367399
7.94992
3.14711
-0.43754
3.73318
-1.27839
9.09233
-1.89962
9.8879
-2.03608
8.3429
-2.03862
8.20897
-2.01503
8.02475
-1.82459
8.29616
-1.4711
8.05556
-1.07317
7.85123
-0.719112
7.65255
-0.379811
7.52287
-0.0727647
7.47027
0.241202
7.45579
0.553398
7.47096
0.904554
7.53804
1.26502
7.70376
1.64483
7.95065
2.01224
7.9785
2.15699
8.2146
2.16422
7.8481
2.14918
8.09934
1.94908
8.34759
1.44271
9.6307
0.551756
8.84005
3.69462
-0.42254
4.15619
-0.822452
9.49554
-1.57619
10.6405
-1.75811
8.52474
-1.81914
8.27093
-1.77862
7.98474
-1.65286
8.17207
-1.32441
7.72811
-0.998889
7.52554
-0.661024
7.31441
-0.36265
7.22467
-0.063435
7.17147
0.223431
7.16934
0.521934
7.17297
0.820833
7.23926
1.18856
7.33626
1.53512
7.60436
1.80463
7.70936
1.92938
8.08887
1.95338
7.8247
1.93707
8.11564
1.88753
8.39728
1.12277
10.3961
0.519753
9.4389
4.20815
-0.665044
4.82168
-1.11487
9.94533
-1.84986
11.376
-1.98932
8.65887
-1.95543
8.23391
-1.88969
7.91834
-1.71354
7.99539
-1.42565
7.43939
-1.10932
7.20793
-0.815281
7.01971
-0.514769
6.92375
-0.229464
6.88615
0.0682698
6.87177
0.35946
6.88188
0.670722
6.9284
0.954936
7.0522
1.24872
7.31092
1.54572
7.41287
1.68383
7.95055
1.75817
7.74988
1.75516
8.11901
1.70081
8.45051
0.748148
11.3542
0.404712
9.77885
4.61063
-0.466083
5.2894
-0.783933
10.2643
-1.39213
11.9858
-1.5982
8.86579
-1.65427
8.29265
-1.60411
7.86962
-1.45366
7.84627
-1.19092
7.17503
-0.912151
6.9271
-0.611689
6.71884
-0.339181
6.65098
-0.0580602
6.60489
0.208956
6.60463
0.486333
6.60453
0.753754
6.66046
1.07083
6.7349
1.35336
7.02763
1.59533
7.17105
1.74901
7.79656
1.76636
7.73331
1.75551
8.12927
1.41524
8.79055
0.954511
11.8067
0.530923
10.2006
5.14232
-0.338875
5.6241
-0.506717
10.4324
-1.01869
12.497
-1.52582
9.37266
-1.56782
8.33318
-1.48682
7.78741
-1.26706
7.62347
-1.05511
6.96023
-0.81563
6.68555
-0.577186
6.47948
-0.321289
6.39466
-0.0787232
6.36187
0.180765
6.34491
0.427402
6.35766
0.686444
6.40162
0.917544
6.50357
1.16153
6.78347
1.39346
6.93875
1.57085
7.61882
1.62365
7.68003
1.67498
8.07924
1.22088
9.24773
0.697112
12.3379
0.436153
10.4661
5.58153
-0.434064
6.05435
-0.700542
10.7027
-0.99357
12.7851
-1.59949
9.97269
-1.55965
8.29027
-1.51288
7.73865
-1.37662
7.48296
-1.12711
6.70929
-0.912422
6.46959
-0.660943
6.22792
-0.430885
6.16405
-0.185597
6.11632
0.0410012
6.1179
0.280947
6.1175
0.514315
6.16742
0.779097
6.23847
0.985942
6.57637
1.20171
6.72245
1.35532
7.4648
1.38756
7.64736
1.34559
8.11942
0.713165
9.87931
0.381676
12.6531
0.263344
10.5786
5.84804
-0.265741
6.31454
-0.365156
10.7977
-0.496328
12.9131
-1.24349
10.729
-1.37418
8.42543
-1.34406
7.71422
-1.12631
7.26688
-0.908683
6.48927
-0.69755
6.25608
-0.499569
6.02927
-0.273773
5.93789
-0.0597114
5.90163
0.176313
5.88151
0.396048
5.89744
0.618431
5.94513
0.810189
6.04636
1.03612
6.34922
1.27643
6.4826
1.46052
7.28021
1.48307
7.62354
1.40409
8.19877
0.672608
10.6078
0.591753
12.7309
0.379091
10.795
6.22776
-0.0481779
6.35934
-0.0666576
10.8118
-0.101654
12.9473
-0.787477
11.4176
-1.18183
8.81688
-1.13456
7.66269
-1.02723
7.15214
-0.834775
6.29396
-0.656165
6.07715
-0.449513
5.82245
-0.259049
5.7468
-0.0546273
5.69676
0.13427
5.69208
0.338151
5.6932
0.528119
5.75437
0.758427
5.81595
0.925692
6.18195
1.10715
6.2993
1.2719
7.11642
1.34827
7.54852
0.952059
8.59566
0.30524
11.2552
0.273429
12.7745
0.185111
10.8915
6.4109
-0.23162
6.58996
-0.386486
10.961
-0.226662
12.7899
-0.740781
11.9248
-1.32252
9.39481
-1.23092
7.57018
-1.06289
6.98481
-0.882798
6.11511
-0.690049
5.88373
-0.520935
5.65347
-0.335169
5.56042
-0.157781
5.51875
0.0382291
5.49563
0.21766
5.5134
0.405213
5.56698
0.566396
5.65423
0.772046
5.97562
0.945379
6.12648
1.04781
7.01067
1.11804
7.476
0.451614
9.25881
-0.103783
11.8127
0.0240962
12.6457
0.0433205
10.877
6.44864
-0.0429367
6.63492
-0.0698999
10.986
0.119388
12.5984
-0.177777
12.232
-0.865456
10.0936
-0.939441
7.64835
-0.862469
6.90892
-0.716883
5.96686
-0.572364
5.73803
-0.385012
5.46499
-0.216317
5.39131
-0.0388405
5.34067
0.129128
5.32714
0.306262
5.33591
0.474238
5.39818
0.68254
5.44607
0.818433
5.83945
0.964277
5.98112
1.09462
6.88332
1.02866
7.54321
0.369113
9.92045
0.0653673
12.1181
0.223845
12.4914
0.145553
10.9488
6.57967
0.0136165
6.62455
0.0698192
10.932
0.284732
12.3826
0.223237
12.2828
-0.529611
10.8366
-0.906867
8.01726
-0.733543
6.72793
-0.635814
5.86626
-0.487975
5.58991
-0.353771
5.33138
-0.197169
5.23426
-0.045376
5.18828
0.118101
5.16317
0.27062
5.18269
0.423822
5.24509
0.559732
5.30923
0.737186
5.66092
0.835947
5.88003
1.04813
6.66865
0.748726
7.84224
-0.0353016
10.713
-0.177457
12.2636
0.0274317
12.2769
0.0641207
10.8979
6.6311
-0.123359
6.75077
-0.0962051
10.9062
0.062696
12.2223
0.140244
12.2023
-0.314008
11.2912
-0.801409
8.50491
-0.774137
6.70316
-0.660538
5.75517
-0.567926
5.498
-0.414053
5.17697
-0.271876
5.09167
-0.119266
5.03512
0.0246128
5.01875
0.169187
5.03781
0.314293
5.09913
0.476554
5.14747
0.552853
5.58582
0.631957
5.80168
0.717234
6.58248
0.153022
8.40517
-0.48489
11.3432
-0.34058
12.1186
-0.21664
12.1511
-0.0853571
10.7465
6.54203
-0.0288867
6.78357
0.0384846
10.8435
0.188476
12.0724
0.540962
11.857
0.116706
11.723
-0.490088
9.1189
-0.64775
6.85474
-0.509791
5.61298
-0.412293
5.39901
-0.306622
5.06996
-0.172759
4.95747
-0.0380406
4.89983
0.106996
4.87322
0.246701
4.89703
0.375964
4.96975
0.490663
5.03155
0.633031
5.44246
0.753044
5.68092
0.625119
6.71201
0.0438742
8.98564
-0.319099
11.7059
-0.0630166
11.8616
0.069739
12
0.13724
10.67
6.69183
0.0948504
6.69238
0.262557
10.6793
0.310419
12.0289
0.56182
11.5984
0.708169
11.5677
-0.0347366
9.85432
-0.464487
7.27717
-0.446804
5.59569
-0.372463
5.32502
-0.268037
4.9665
-0.154586
4.84375
-0.0301873
4.77504
0.0922879
4.75026
0.217691
4.77169
0.335693
4.85066
0.452359
4.91475
0.528759
5.36443
0.592855
5.61399
0.308114
6.99354
-0.497179
9.7952
-0.448115
11.6627
-0.153699
11.5636
-0.0906708
11.9278
-0.0231606
10.6112
6.69004
-0.118
6.81371
-0.00859504
10.5715
0.0946848
11.9264
0.35229
11.3528
0.622364
11.3052
0.0730985
10.4129
-0.393788
7.75793
-0.465466
5.67382
-0.384367
5.24438
-0.30703
4.88791
-0.209558
4.74615
-0.0971385
4.6622
0.024653
4.62814
0.138234
4.65735
0.236159
4.75357
0.312282
4.83855
0.401861
5.27599
0.306742
5.71076
-0.178114
7.47564
-0.860756
10.4748
-0.545206
11.3413
-0.295142
11.3055
-0.245211
11.8893
-0.0739548
10.4575
6.63984
0.0475686
6.76851
0.231752
10.3941
0.285712
11.8786
0.468228
11.1683
0.86833
10.9019
0.696692
10.581
0.00174034
8.45112
-0.303393
5.97049
-0.31889
5.25725
-0.214205
4.78295
-0.12912
4.66086
-0.0282263
4.56102
0.0769588
4.52259
0.180828
4.5534
0.271625
4.6599
0.350895
4.75737
0.380073
5.24351
0.116653
5.97323
-0.545404
8.13751
-0.778863
10.7081
-0.337529
10.8914
-0.123909
11.0984
-0.105995
11.8878
0.0124686
10.3594
6.67157
0.0609689
6.70775
0.288759
10.1684
0.397438
11.7675
0.572978
10.9831
0.849358
10.6255
0.956136
10.4668
0.30877
9.09264
-0.0786374
6.35311
-0.212467
5.39447
-0.164167
4.73637
-0.0945198
4.59174
-0.0187019
4.48521
0.0747163
4.42887
0.156131
4.47094
0.236395
4.58214
0.310186
4.68339
0.231852
5.32252
-0.164716
6.36432
-0.865433
8.83201
-0.704402
10.5524
-0.404914
10.5957
-0.222747
10.9235
-0.170244
11.8416
0.00656577
10.1848
6.69285
-0.0247205
6.73153
0.146346
9.99651
0.267926
11.6467
0.405925
10.8612
0.624578
10.4173
1.02801
10.0764
0.721268
9.40602
0.0681757
7.0099
-0.226282
5.68911
-0.188763
4.69716
-0.128056
4.53046
-0.0564084
4.41351
0.0101408
4.36233
0.0747909
4.40804
0.138437
4.51382
0.168977
4.65215
-0.0997114
5.59147
-0.763284
7.02848
-1.21659
9.2889
-0.767947
10.106
-0.541573
10.3743
-0.434621
10.8213
-0.300773
11.7186
-0.0753366
9.95792
6.6294
-0.0248512
6.75601
0.22714
9.74817
0.421988
11.4587
0.525869
10.7449
0.735171
10.2018
1.01301
9.79821
0.966957
9.44273
0.358684
7.61924
0.00218614
6.04274
-0.100642
4.80064
-0.0635687
4.49472
-0.0137736
4.36403
0.0378228
4.31077
0.0942842
4.34941
0.137822
4.47361
0.0743563
4.71225
-0.273782
5.93606
-0.884567
7.63365
-1.02752
9.43471
-0.701338
9.7857
-0.475122
10.1548
-0.381239
10.7249
-0.165959
11.492
0.0800303
9.70233
6.70975
0.0206865
6.73732
0.272308
9.49391
0.535042
11.1881
0.61557
10.668
0.782234
10.0327
0.99411
9.58855
1.31545
9.13498
0.895198
8.04739
0.175829
6.76754
-0.00828761
4.98715
-0.0152353
4.50097
0.0094668
4.33912
0.0326386
4.28781
0.0683266
4.31576
0.0710314
4.46701
-0.108168
4.89114
-0.816384
6.64479
-1.23155
8.04813
-0.962506
9.16789
-0.728892
9.55672
-0.539441
9.9689
-0.449154
10.6285
-0.189589
11.2264
0.0524775
9.46533
6.76145
-0.0507259
-1.11363
-0.064526
-1.17626
-0.0855643
-1.1499
-0.0961658
-1.15682
-0.106811
-1.18436
-0.111781
-1.21783
-0.119495
-1.258
-0.12491
-1.29141
-0.134604
-1.3248
-0.157736
-1.33817
-0.203452
-1.34753
-0.254807
-1.28903
-0.284124
-1.23184
-0.290655
-1.20816
-0.285277
-1.17458
-0.266069
-1.17067
-0.248196
-1.17792
-0.225947
-1.20474
-0.196113
-1.25835
-0.164222
-1.28327
-0.134894
-1.30033
-0.106955
-1.34704
-0.0807838
-1.39962
-0.0560073
-1.45364
-0.0334677
-1.50901
-0.0149878
-1.56001
-0.00436759
-1.60854
0.00172431
-1.64657
0.00355041
-1.67218
-1.65104
0.0436472
-1.153
0.0125678
-1.12222
-0.00641307
-1.11124
-0.0363676
-1.10358
-0.0544682
-1.15205
-0.0681205
-1.1898
-0.0804349
-1.23537
-0.0956485
-1.25436
-0.108857
-1.27337
-0.126899
-1.2631
-0.162934
-1.25898
-0.210965
-1.20089
-0.246614
-1.17699
-0.254529
-1.14856
-0.244955
-1.12277
-0.23005
-1.1248
-0.217278
-1.13936
-0.199916
-1.19757
-0.176092
-1.21071
-0.146145
-1.24519
-0.121342
-1.27332
-0.0972945
-1.32314
-0.0735175
-1.37586
-0.051895
-1.43199
-0.0331726
-1.48971
-0.017139
-1.54575
-0.00637579
-1.59748
0.000607104
-1.64057
0.0027527
-1.66892
-1.6479
-0.0116965
-1.13489
-0.0484737
-1.06174
-0.0781439
-1.06366
-0.101525
-1.06221
-0.126234
-1.11798
-0.140226
-1.16585
-0.15535
-1.21195
-0.170361
-1.22789
-0.189651
-1.23509
-0.203474
-1.21302
-0.230907
-1.19467
-0.268385
-1.14532
-0.291178
-1.12152
-0.285171
-1.09829
-0.276398
-1.0835
-0.266476
-1.09405
-0.257196
-1.11218
-0.230798
-1.14846
-0.203739
-1.17581
-0.175987
-1.21431
-0.1507
-1.25252
-0.125134
-1.30395
-0.099758
-1.35742
-0.0766069
-1.41367
-0.0549707
-1.47212
-0.0354599
-1.53011
-0.0204848
-1.58564
-0.00969096
-1.6375
-0.00242823
-1.67914
-1.65946
-0.0471659
-1.07785
-0.0836134
-1.00519
-0.122977
-1.00973
-0.149471
-1.02478
-0.182597
-1.08379
-0.203301
-1.14225
-0.222213
-1.1907
-0.236464
-1.21575
-0.253038
-1.22126
-0.260414
-1.19539
-0.284487
-1.14394
-0.309678
-1.09804
-0.320091
-1.05446
-0.31245
-1.05135
-0.303796
-1.05163
-0.296395
-1.0665
-0.280294
-1.08495
-0.256259
-1.11845
-0.229101
-1.14921
-0.200938
-1.19019
-0.175219
-1.23688
-0.148299
-1.2901
-0.121773
-1.34561
-0.0976813
-1.40292
-0.0745603
-1.46025
-0.0534655
-1.51648
-0.0360779
-1.57306
-0.0219338
-1.63665
-0.00858454
-1.70393
-1.68828
-0.0532281
-1.01449
-0.0905238
-0.948341
-0.129801
-0.954336
-0.16248
-0.983063
-0.198097
-1.04876
-0.226843
-1.11548
-0.250907
-1.17101
-0.267382
-1.21197
-0.283369
-1.21649
-0.290296
-1.19658
-0.308986
-1.12762
-0.324944
-1.05422
-0.329248
-1.02331
-0.317926
-1.02268
-0.316964
-1.02952
-0.309231
-1.0451
-0.285934
-1.06236
-0.267277
-1.09708
-0.240814
-1.13067
-0.214724
-1.17485
-0.189275
-1.22639
-0.162524
-1.28115
-0.135773
-1.33869
-0.111018
-1.39732
-0.0881959
-1.45476
-0.0681905
-1.50825
-0.0504284
-1.56356
-0.0314981
-1.65746
-0.0144267
-1.67931
-1.6631
-0.0458118
-0.95567
-0.0932304
-0.882322
-0.134846
-0.898373
-0.176641
-0.93691
-0.216245
-1.00988
-0.251583
-1.08315
-0.27849
-1.14838
-0.299066
-1.19542
-0.312739
-1.20887
-0.321336
-1.19037
-0.334981
-1.12337
-0.3443
-1.03224
-0.330545
-1.02287
-0.335465
-1.01141
-0.332896
-1.01564
-0.319982
-1.02943
-0.295666
-1.04757
-0.279325
-1.08274
-0.254222
-1.118
-0.228966
-1.16527
-0.202729
-1.21971
-0.175388
-1.27472
-0.148588
-1.3331
-0.123675
-1.39148
-0.100891
-1.44853
-0.0819083
-1.50472
-0.0651254
-1.55746
-0.0403927
-1.6313
-0.0188339
-1.65913
-1.63947
-0.0544504
-0.888479
-0.102499
-0.818354
-0.149444
-0.839943
-0.194043
-0.887247
-0.236168
-0.966955
-0.27041
-1.0486
-0.306886
-1.11803
-0.33407
-1.18231
-0.347933
-1.20706
-0.359211
-1.18403
-0.368329
-1.12666
-0.360236
-1.0589
-0.359955
-1.02906
-0.357556
-1.00835
-0.351809
-1.00878
-0.329674
-1.02163
-0.313158
-1.0417
-0.296192
-1.07735
-0.272037
-1.11349
-0.246984
-1.16276
-0.219123
-1.21807
-0.191053
-1.27619
-0.163904
-1.33251
-0.138534
-1.38923
-0.115564
-1.4458
-0.0955107
-1.50595
-0.0752226
-1.55812
-0.049486
-1.61521
-0.0239451
-1.6417
-1.61599
-0.0581259
-0.815511
-0.113244
-0.748423
-0.172885
-0.770052
-0.21297
-0.8431
-0.259064
-0.919683
-0.299351
-1.00982
-0.341394
-1.0835
-0.369921
-1.16226
-0.389661
-1.19723
-0.401077
-1.18743
-0.40579
-1.13528
-0.391735
-1.08857
-0.3927
-1.04818
-0.385186
-1.01796
-0.371854
-1.01286
-0.348788
-1.02343
-0.332832
-1.04442
-0.314985
-1.0796
-0.291272
-1.11581
-0.265768
-1.16538
-0.236918
-1.22053
-0.207434
-1.30435
-0.17998
-1.33575
-0.154699
-1.38966
-0.131784
-1.44625
-0.10969
-1.50735
-0.0857352
-1.5596
-0.0577661
-1.60399
-0.0283198
-1.6255
-1.59226
-0.067018
-0.73295
-0.120397
-0.681355
-0.176992
-0.70386
-0.231611
-0.783773
-0.282122
-0.868101
-0.333073
-0.960903
-0.373705
-1.0446
-0.404965
-1.1353
-0.430038
-1.17782
-0.442616
-1.18454
-0.444294
-1.14969
-0.43304
-1.11648
-0.425689
-1.07671
-0.411164
-1.04146
-0.390198
-1.02652
-0.372728
-1.03415
-0.353928
-1.05484
-0.335361
-1.08921
-0.311705
-1.12404
-0.285878
-1.17265
-0.257852
-1.22665
-0.224307
-1.29852
-0.196315
-1.34591
-0.171737
-1.3966
-0.148617
-1.45391
-0.125366
-1.51179
-0.0948767
-1.56088
-0.0650856
-1.59824
-0.0328585
-1.61481
-1.57552
-0.0692832
-0.648249
-0.126165
-0.611923
-0.182399
-0.637037
-0.245125
-0.715481
-0.30122
-0.810799
-0.356329
-0.908891
-0.392836
-1.00604
-0.434937
-1.09515
-0.466698
-1.14832
-0.481405
-1.17586
-0.481132
-1.16566
-0.474253
-1.1413
-0.455432
-1.1121
-0.435331
-1.0745
-0.411433
-1.04923
-0.393271
-1.05291
-0.372271
-1.07155
-0.353016
-1.10355
-0.329855
-1.13703
-0.303755
-1.18359
-0.274107
-1.23526
-0.241538
-1.29716
-0.2116
-1.35701
-0.1887
-1.41007
-0.164809
-1.46719
-0.137973
-1.51724
-0.103894
-1.56078
-0.0717472
-1.59753
-0.0364642
-1.61078
-1.5652
-0.070989
-0.56117
-0.13588
-0.53487
-0.190066
-0.571823
-0.254031
-0.645302
-0.314643
-0.748526
-0.373004
-0.852336
-0.413385
-0.966493
-0.457768
-1.05322
-0.496874
-1.11232
-0.514681
-1.16175
-0.515443
-1.17484
-0.507136
-1.16253
-0.483981
-1.14578
-0.454704
-1.11063
-0.431909
-1.07851
-0.409975
-1.07747
-0.389135
-1.09233
-0.369748
-1.1214
-0.347643
-1.1529
-0.321204
-1.1937
-0.290178
-1.24703
-0.259087
-1.30234
-0.228954
-1.36306
-0.205065
-1.42611
-0.17819
-1.50891
-0.146952
-1.52924
-0.113875
-1.56607
-0.0775799
-1.60078
-0.0396112
-1.60999
-1.56097
-0.0698693
-0.475144
-0.138761
-0.454675
-0.195276
-0.503977
-0.259561
-0.574844
-0.322465
-0.683382
-0.381765
-0.792787
-0.43148
-0.91256
-0.473177
-1.00449
-0.516599
-1.07624
-0.537057
-1.14337
-0.541736
-1.17403
-0.532579
-1.17876
-0.511778
-1.17291
-0.478061
-1.14851
-0.450443
-1.11358
-0.424265
-1.10696
-0.403
-1.11674
-0.383342
-1.14244
-0.361525
-1.1721
-0.337469
-1.21115
-0.305983
-1.26072
-0.276116
-1.31788
-0.24814
-1.37966
-0.229208
-1.44238
-0.191249
-1.51869
-0.155803
-1.55544
-0.121005
-1.57707
-0.0816597
-1.60558
-0.0414085
-1.60826
-1.55648
-0.0732408
-0.385496
-0.140707
-0.376576
-0.198805
-0.434555
-0.262817
-0.505833
-0.32589
-0.6182
-0.384479
-0.73211
-0.441171
-0.85247
-0.483845
-0.951323
-0.527734
-1.03403
-0.552669
-1.11594
-0.562852
-1.16374
-0.55504
-1.18867
-0.53842
-1.192
-0.504918
-1.18442
-0.468994
-1.15436
-0.439156
-1.14187
-0.416693
-1.14455
-0.395638
-1.16749
-0.374932
-1.19669
-0.352013
-1.23768
-0.322569
-1.297
-0.293652
-1.33963
-0.26621
-1.39799
-0.235349
-1.4559
-0.203322
-1.52206
-0.164829
-1.56061
-0.125315
-1.58656
-0.084251
-1.61153
-0.0425806
-1.60831
-1.55382
-0.0753054
-0.293989
-0.141252
-0.300837
-0.199406
-0.365319
-0.260749
-0.44207
-0.322535
-0.554404
-0.383285
-0.66815
-0.442106
-0.788586
-0.491449
-0.884985
-0.533119
-0.986657
-0.56275
-1.08041
-0.579378
-1.14245
-0.578656
-1.18538
-0.561023
-1.20619
-0.531868
-1.21189
-0.491453
-1.19928
-0.456409
-1.18153
-0.428414
-1.1792
-0.406924
-1.19781
-0.387901
-1.22624
-0.370384
-1.29594
-0.337749
-1.33214
-0.308708
-1.36683
-0.280284
-1.42282
-0.24728
-1.47643
-0.213105
-1.52937
-0.173125
-1.56813
-0.129619
-1.59516
-0.0877157
-1.62009
-0.045002
-1.61447
-1.55784
-0.0761972
-0.20235
-0.141704
-0.225201
-0.198934
-0.295247
-0.257645
-0.381059
-0.318007
-0.493087
-0.37785
-0.606173
-0.434411
-0.727673
-0.476746
-0.829217
-0.524477
-0.929482
-0.564243