/*--------------------------------*- C++ -*----------------------------------*\
| =========                 |                                                 |
| \\      /  F ield         | OpenFOAM: The Open Source CFD Toolbox           |
|  \\    /   O peration     | Version:  2112                                  |
|   \\  /    A nd           | Website:  www.openfoam.com                      |
|    \\/     M anipulation  |                                                 |
\*---------------------------------------------------------------------------*/
FoamFile
{
    version     2.0;
    format      ascii;
    arch        "LSB;label=32;scalar=64";
    class       volScalarField;
    location    "0.00891";
    object      T;
}
// * * * * * * * * * * * * * * * * * * * * * * * * * * * * * * * * * * * * * //

dimensions      [0 0 0 1 0 0 0];

internalField   nonuniform List<scalar> 
13875
(
1412
1535.58
1482.39
1487.81
1481.98
1484.24
1484.01
1483.91
1484.43
1484.31
1484.12
1484.19
1483.64
1483.94
1483.84
1483.86
1483.43
1484.73
1484.87
1483.12
1481.88
1487.66
1480.53
1532.91
1396.89
1307.02
1356.17
1318.9
1322.2
1316.61
1319.1
1322.09
1323.03
1323.6
1323.43
1323.24
1323.26
1318.18
1317.69
1318.36
1322.76
1322.95
1323.47
1322.32
1317.82
1316.7
1321.88
1319.59
1355.98
1302.27
1307.24
1340.07
1314.27
1311.85
1305.3
1305.98
1305.76
1305.94
1305.95
1304.68
1304.61
1306.04
1303.86
1304.06
1303.91
1305.78
1303.89
1305.95
1306.03
1305.08
1304.86
1311.07
1311.39
1335.95
1297.91
1317.37
1344.8
1314.64
1308.72
1306.08
1306.1
1304.91
1304.23
1303.87
1303.12
1302.72
1303.49
1303.94
1304.1
1304.05
1303.46
1302.43
1303.5
1304.21
1305.48
1305.36
1307.7
1313.93
1343.89
1312.57
1329.52
1342.11
1315.69
1312.45
1304.99
1305.97
1305.66
1304.24
1304.02
1303.27
1302.78
1303.4
1303.85
1304.24
1303.83
1303.3
1302.52
1304
1305.2
1304.87
1304.75
1311.74
1312
1338.49
1316.5
1332.2
1351.13
1318.8
1309.89
1308.08
1307.03
1305.15
1304.56
1303.84
1303.45
1302.93
1303.58
1304.15
1304.51
1304.3
1303.56
1302.64
1303.56
1304.27
1306.56
1307.28
1308.43
1319
1348.97
1325.98
1338.98
1360.45
1328.98
1317.5
1308.1
1307.56
1306.72
1304.65
1304.36
1303.91
1303.39
1303.64
1304.33
1304.84
1304.24
1303.58
1303.17
1304.59
1306.19
1306.49
1307.8
1317.6
1325.71
1358.15
1321.17
1359.71
1384.67
1344.02
1321.14
1316.73
1310.38
1306.84
1305.24
1305.02
1304.62
1303.98
1304.18
1305.05
1305.51
1305.21
1304.18
1303.76
1304.96
1306.16
1309.99
1315.31
1320.39
1341.56
1380.91
1349.98
1537.18
1508.34
1387.06
1350.39
1322.03
1315.72
1311.11
1306.88
1306.84
1306.31
1305.51
1305.3
1306.2
1306.86
1306.32
1305.64
1305.63
1307.26
1310.54
1314.19
1321.31
1349.22
1382.75
1505.62
1521.75
1834.84
1574.35
1427.02
1358.41
1338.46
1321
1313.89
1310.52
1309.87
1309.2
1308.2
1307.96
1308.8
1309.54
1309.17
1308.57
1308.84
1310.95
1314.09
1320.59
1337.07
1357.18
1424.86
1566.51
1827.38
2507.09
1804.13
1517.27
1406.7
1349.99
1331.76
1325.5
1317.56
1316.44
1315.14
1313.62
1313.24
1313.93
1314.84
1314.7
1314.61
1315.15
1317.71
1326.15
1330.04
1348.7
1419.35
1502.15
1797.74
2429.59
2812.08
2301.01
1735.07
1462.87
1425.84
1361.2
1339.54
1331.06
1329.18
1327.03
1325.21
1324.83
1325.24
1326.18
1326.29
1326.89
1328.18
1331.76
1339.75
1371.57
1405.51
1457.26
1731.33
2306.17
2837.2
2786.3
2654.52
2351.54
2206.24
1524.27
1414.49
1395.53
1372.45
1364.08
1357.45
1353.87
1352.98
1352.87
1353.81
1354.64
1357.51
1363.57
1374.91
1399.52
1421.77
1567.46
2234.66
2245.82
2687.07
2766.26
2722.56
2660.36
2744.07
2785.99
2051.38
1831.26
1520.75
1475.99
1459.14
1447.11
1442.3
1441.14
1440.9
1441.82
1443.1
1447.58
1458.68
1478.76
1541.78
1923.66
2101.29
2804.06
2792.61
2702.95
2701.4
2581.77
2638.29
2686.1
2687.49
2590.72
2366.13
2019.03
1965.17
1865.57
1765.68
1730.57
1719.69
1716.14
1717.77
1724.42
1748.38
1839.9
1961.45
1983.65
2421.81
2637.67
2735.76
2678.3
2652.25
2625.8
2499.62
2536.18
2629.4
2684.7
2657.8
2686.11
2871.04
2940.74
2934.32
3033.5
3112.97
3135.38
3145.25
3139.04
3121.71
3054.81
2902.97
2938.49
2899.2
2717.34
2661.1
2706.26
2624.62
2557.87
2533.2
2313.26
2397.81
2478.45
2531.08
2603.93
2728.91
3031.73
3409.05
3592.65
3684.05
3698.32
3691.79
3689.11
3692.03
3700.88
3701.51
3597.63
3417.47
3053.39
2739.48
2615.89
2564.85
2469.94
2404.39
2328.94
2024.03
2147.06
2302.85
2616.27
2790.12
2829.29
2959.19
3312.84
3528.03
3643.09
3672.89
3672.57
3672.09
3673.87
3675.02
3646.21
3500.36
3290.04
2962.4
2840.08
2807.36
2562.92
2269.78
2139.55
2023.9
1812.65
1878.87
2010.21
2241.67
2718.15
2838.95
2878.95
3105.51
3359.05
3498.87
3544.42
3557.7
3561.65
3561.28
3548.99
3509.69
3360.68
3119.3
2919.31
2926.51
2676.46
2203.37
2007.04
1883.93
1814.24
2458.97
2346.14
2104.74
2194.1
2506.96
2689.46
2699.12
2842.33
3080.37
3280.08
3388.61
3430.46
3440.98
3433.17
3392.31
3279.46
3068.02
2852.2
2730.47
2715.29
2482.55
2221.76
2139.13
2343.88
2449.71
3261.23
3428.8
2748.79
2299.9
2376.8
2532.41
2549.2
2660.36
2885.18
3108.76
3251.51
3307.35
3316.75
3306.77
3245.42
3090.32
2855.88
2657.08
2560.11
2541.48
2358.54
2326
2810.32
3484.06
3265.85
3638.21
3579.93
2812.16
2210
2213.68
2368.95
2417.56
2523.1
2737.02
2964.72
3118.41
3179.48
3191
3174.65
3102.55
2933.09
2701.12
2521.92
2418.12
2369.2
2190.16
2248.52
2898.85
3625.82
3681.01
3502.27
3119.05
2486.89
2056.92
2062.15
2235.8
2309.11
2414.85
2607.25
2830.73
2989.55
3055.75
3066.57
3050.63
2974.73
2804.59
2582.93
2416.18
2299.33
2234.92
2035.42
2054.71
2474.1
3126.62
3533.14
3516.24
2962.68
2248.95
1904.21
1974.36
2137.6
2206.36
2316.24
2504.09
2716.3
2867.25
2932.36
2946.78
2927.03
2853.19
2690.68
2477.22
2319.07
2201.76
2129.95
1943.25
1892.88
2253.93
2981.39
3546.32
3454.36
2789.61
2096.93
1821.81
1928.1
2066.3
2118.11
2230.61
2407.24
2612.7
2757.72
2820.41
2830.98
2813.91
2740.74
2584.66
2382.5
2227.9
2118.65
2064.13
1895.53
1808.36
2110.97
2830.53
3482.04
3425.57
2752.57
2041.68
1826.64
1902.99
1999.63
2040.43
2149.1
2322.66
2512.9
2649.3
2708.13
2722.79
2703.41
2637.07
2491.2
2298.23
2149.55
2044.11
2000.57
1878.52
1817.26
2039.02
2766.13
3457.56
3347.25
2602.61
1965.65
1828.65
1880.01
1954.43
1976.09
2085.46
2246.67
2428.05
2553.09
2608.79
2618.98
2604.02
2539.56
2406.92
2227.19
2080.6
1978.34
1961.79
1857.62
1823.22
1971.4
2613.56
3368.52
3315.02
2561.83
1971.88
1863.31
1871.67
1906.74
1915.71
2023.91
2183.88
2348.84
2460.25
2509.43
2523.45
2505.07
2448.48
2324.87
2156.01
2019.21
1917.77
1913.67
1854.07
1850
1974.3
2607.55
3361.52
3311.65
2539.11
1940.64
1852.56
1840.12
1876.27
1868.48
1976.04
2118.46
2273.71
2374.8
2422.82
2432.07
2419.92
2366.07
2261.34
2106.37
1971.43
1871.44
1883.15
1830.89
1851.91
1932.72
2499.94
3285.31
3277.02
2545.29
1975.48
1887.71
1841
1851.54
1826.41
1928.87
2070.07
2208.46
2296.65
2336.13
2348.78
2332.8
2287.24
2189.32
2046.9
1926.6
1826.79
1866.78
1828.64
1871.02
1958.21
2524.2
3273.35
3188.56
2455.36
1945.43
1886.08
1802.96
1827.2
1794.04
1902.8
2022.82
2150.41
2224.71
2262.9
2269.08
2259.57
2214.85
2135.21
2006.01
1889.78
1793.32
1835.81
1803.65
1873.5
1936.1
2465.2
3217.44
3159.85
2453.61
1995.24
1911.97
1810.38
1805.76
1769.52
1863.87
1979.67
2090.9
2157.19
2187.26
2197.86
2185.23
2150.9
2076.49
1961.27
1865.88
1767.34
1819.42
1805.6
1891.77
1969.67
2430.63
3160.27
3092.68
2397.95
1995.97
1896.18
1783.6
1774.75
1742.87
1847.92
1942.97
2044.71
2097.04
2126.47
2129.81
2123.54
2088.22
2033.65
1928.06
1836.23
1742.95
1782.44
1788.78
1887.51
1965.32
2393.21
3112.33
3054.81
2373.22
2026.87
1915.88
1806.31
1760.89
1731.1
1823.26
1908.09
1994.01
2040.38
2061.45
2069.97
2059.65
2033.84
1979.78
1888.5
1819.06
1722.98
1771.46
1795.89
1902.96
2024.2
2386.02
3073.54
3015.8
2338.39
2016.6
1908.25
1786.05
1730.36
1699.97
1809.64
1875.62
1953.19
1987.84
2011.11
2012.37
2009.27
1981.88
1948.19
1862.62
1801.34
1697.93
1737.47
1796.56
1904.63
2015.29
2332.65
3022.5
3002.13
2332.15
2022.61
1928.42
1806.26
1737
1697.19
1788.07
1847.12
1908.8
1940.58
1955.25
1962.56
1954.23
1933.83
1895.99
1830.54
1789.23
1683.71
1732.35
1806.48
1924.56
2022.57
2332.69
2999.88
2954.09
2286.62
2008.9
1943.08
1792.6
1717.82
1669.96
1775.9
1819.71
1877.51
1896.69
1914.52
1913.69
1912.78
1891.36
1873.41
1802.05
1768.98
1662.15
1719.94
1794.22
1943.1
2011.65
2299.18
2969.38
2941.48
2296.96
2015.48
1979.96
1816.29
1732.45
1673.23
1759.14
1792.51
1835.44
1855.96
1866.59
1872.28
1865.68
1850.52
1824.86
1779.18
1762.91
1660.05
1725.37
1816.07
1980.44
2008.57
2286.23
2937.75
2904.53
2274.98
1993.49
1995.21
1818.73
1718.27
1656.94
1747.69
1764.37
1810.4
1820.18
1834.14
1831.52
1832.75
1815.98
1808.83
1745.55
1741.44
1649.88
1715.88
1814.53
1998.01
1983.44
2272.37
2921.37
2857.03
2267.31
1976.51
1991.86
1844
1746.68
1673.66
1738.42
1744.81
1771.69
1785.32
1793.19
1796.81
1792.16
1779.43
1762.78
1728.23
1736.5
1658.63
1737.17
1843.93
1992.37
1967.14
2281.09
2886.34
2830.07
2257.45
1946.54
1982.13
1887.5
1734.98
1666.63
1729.34
1717.39
1753.28
1755.34
1766.5
1762.56
1766.16
1753.06
1754.53
1695.74
1719.94
1666.11
1725.41
1875.03
1988.63
1941
2246.5
2839.04
2794.84
2251.7
1936.19
1977.89
1929.08
1773.95
1705.64
1732.21
1706.31
1717.74
1725.04
1730.48
1733.05
1731.04
1718.92
1714.09
1688.52
1726.02
1694.4
1767.5
1941.28
1980.61
1933.37
2248.25
2802.87
2765.34
2229.58
1914.94
1955.27
1922.61
1785.52
1701.86
1730.43
1683.9
1708.17
1701.75
1709.31
1704
1709.57
1699.82
1710.8
1658.4
1714.04
1699.28
1774.97
1942.73
1966.72
1914.33
2230.02
2770.97
2732.31
2227.38
1914.4
1929.7
1915.33
1845.39
1750.14
1752.18
1689.89
1679.8
1675.45
1677.95
1678.83
1678.74
1669.31
1680.9
1672.76
1736.64
1732.46
1831.25
1931.01
1942.46
1910.17
2216.66
2734.58
2711.42
2214.57
1903.01
1903.39
1903.13
1899.38
1760.63
1745.16
1675.28
1680.96
1659.98
1661.62
1654.42
1661.92
1657.72
1685.69
1653.74
1730.76
1758.33
1904.04
1918.28
1914.21
1898.06
2212.51
2707.14
2672.33
2194.8
1899.81
1879.47
1875.61
1885.07
1821.51
1772.24
1703.22
1667.21
1643.02
1636.05
1634.38
1636.35
1633.16
1662.03
1681.24
1758.92
1815.38
1902.08
1894.66
1891.58
1906.35
2205.18
2677.85
2655.21
2192.29
1894.05
1864.96
1849.86
1876.81
1907.72
1798.27
1689.66
1681.42
1641.52
1629.82
1617.76
1629.35
1640.48
1686.02
1666.52
1776.34
1903.96
1880.75
1865.41
1871.19
1895.95
2191.6
2656.39
2607.02
2172.39
1890
1851.99
1823.93
1858.12
1889.22
1850.1
1727.59
1671.73
1636.13
1614.31
1604.55
1614.72
1621.83
1669.57
1712.28
1835.04
1898.23
1868.14
1842.39
1861.75
1903.64
2179.91
2607.86
2566.46
2154.22
1872.71
1839.21
1803.38
1824.77
1875.9
1941.89
1736.05
1700.4
1646.79
1630.24
1605.17
1625.62
1646.01
1702.44
1714.98
1926.69
1880.71
1826.06
1819.17
1851.66
1877.11
2159.54
2570.94
2395.54
2102.38
1855.35
1834.3
1790.39
1797.13
1857.69
1920.83
1820.56
1707.58
1645.82
1616.08
1607.83
1618.16
1624.28
1706.44
1799.92
1925.99
1863.82
1801.01
1800.49
1840.02
1857.46
2106.93
2398.28
942.001
925.084
940.462
920.693
888.844
827.263
769.316
702.637
635.433
566.372
510.562
470.05
444.031
429.333
420.058
414.646
411.424
409.339
408.636
408.266
407.578
407.081
406.388
405.759
404.889
402.621
398.574
393.59
387.203
380.501
956.612
970.01
988.441
971.185
926.609
859.2
795.222
731.794
669.44
603.534
544.904
495.154
463.738
446.655
436.894
431.502
427.897
426.039
424.051
422.326
420.477
418.961
417.441
416.108
414.519
411.698
407.248
402.102
395.861
389.3
964.926
993.236
1010.01
987.753
934.139
862.213
794.894
733.853
676.242
614.847
558.906
512.235
480.504
461.331
449.715
442.298
437.137
433.493
430.503
428.117
425.98
423.962
422.054
420.282
418.32
415.295
410.841
405.885
400.019
393.287
994.688
1027.72
1039.94
1010.12
945.061
866.997
796.33
736.921
683.28
632.226
582.64
533.682
500.225
478.564
465.131
456.745
450.852
446.487
442.751
439.466
436.312
433.445
430.857
428.533
426.096
422.792
418.453
413.816
408.714
401.69
1017.34
1050.83
1059.94
1023.72
952.979
871.144
798.798
738.507
685.655
638.652
595.925
552.115
518.115
495.077
480.271
469.922
461.951
455.744
450.246
445.727
442.03
438.594
435.635
432.924
430.239
426.708
422.39
418.877
413.306
406.459
1039.22
1077.31
1083.36
1041.26
961.943
875.147
801.087
738.098
685.245
640.335
600.336
562.437
531.703
508.64
493.321
481.889
472.9
465.688
459.077
453.85
449.638
445.815
442.658
439.784
436.869
433.156
428.686
424.545
418.364
412.714
1061.59
1100.92
1103.54
1057.2
972.433
883.274
805.143
738.692
684.582
640.52
601.178
567.456
541.123
519.793
503.929
491.222
481.064
472.497
465.107
459.245
454.592
450.441
447.177
444.118
441.008
437.391
433.086
428.098
422.174
415.931
1079.7
1124.21
1125.15
1076.87
987.775
894.219
811.812
741.255
684.774
639.599
600.335
569.348
545.889
526.906
511.387
498.574
488.214
479.019
471.142
465.009
460.087
456.317
452.588
449.39
445.942
442.207
437.795
432.297
426.46
421.275
1103.37
1147.35
1147.61
1096.06
1004.61
907.805
821.803
747.64
687.921
639.276
599.119
569.794
548.097
530.885
516.474
503.653
493.149
483.474
475.289
469.164
464.223
460.633
456.69
453.161
449.609
445.878
441.463
435.962
430.257
423.932
1122.44
1170.32
1169.2
1115.81
1023.72
925.555
836.11
758.411
695.205
641.377
599.146
570.165
548.88
533.012
519.377
507.619
497.367
487.98
479.815
473.78
468.753
464.9
461.47
457.697
454.143
450.207
445.558
440.181
434.115
428.795
1140.77
1192.39
1189.9
1136.65
1045.69
947.165
855.97
774.456
707.498
647.874
601.762
571.45
549.382
533.941
521.064
510.633
500.9
491.501
483.258
477.037
472.214
467.76
464.203
461.253
457.968
453.533
448.667
443.534
437.105
431.695
1159.94
1213.08
1210.33
1159.17
1070.59
973.529
880.826
795.615
723.574
659.778
609.004
575.299
550.801
534.799
522.497
513.2
504.457
495.42
487.329
480.892
476.544
471.922
468.252
465.597
462.526
457.871
452.498
446.954
440.488
435.156
1175.26
1232.35
1230.76
1183.29
1098.44
1003.98
910.772
822.093
743.663
677.134
621.436
583.209
554.895
536.491
523.949
515.126
507.309
498.975
491.112
484.839
480.728
475.842
471.931
468.634
464.938
460.586
455.605
449.709
443.519
438.502
1190.77
1250.59
1251.19
1208.39
1129.01
1037.74
945.732
854.13
769.653
700.116
639.761
596.068
563.001
540.559
526.279
517.071
509.89
502.857
495.577
489.563
485.533
480.278
475.783
471.906
467.94
463.626
458.541
452.465
446.15
441.082
1203.42
1267.89
1271.38
1235.19
1161.24
1074.66
984.666
891.565
802.237
728.823
664.268
614.235
575.689
548.248
530.495
519.556
512.549
506.54
500.113
494.059
488.066
483.427
479.08
474.666
470.065
465.585
460.379
454.385
448.106
443.284
1213.94
1284.61
1292.01
1262.78
1195.04
1113.45
1025.03
930.444
838.586
762.465
695.086
638.824
594.095
560.794
537.955
523.989
516.066
510.307
504.874
497.48
490.924
486.345
481.85
477.135
472.504
467.862
462.893
457.063
451.301
447.185
1224.4
1300.54
1312.12
1290.52
1230.28
1153.41
1067.36
971.726
880.659
802.216
732.691
670.568
618.875
579.063
549.926
531.004
520.254
513.863
508.113
500.806
493.941
488.506
483.965
478.802
473.983
469.084
464.18
458.698
453.647
450.045
1232.24
1315.59
1331.56
1317.93
1265.85
1194.76
1111.58
1018.86
929.152
847.956
776.196
709.018
650.419
603.768
567.625
542.243
526.434
517.118
510.933
504.105
497.567
490.566
486.064
480.632
475.482
470.763
465.602
460.28
455.387
451.753
1239.69
1329.13
1350.23
1344.43
1301.24
1236.55
1157.96
1069.19
980.971
898.267
823.841
753.601
688.709
635.315
591.893
559.2
536.237
521.843
513.513
507.063
500.127
492.861
487.97
482.438
476.979
471.944
466.721
461.677
457.255
453.969
1241.19
1341.02
1368.01
1369.28
1335.62
1278.04
1205.09
1120.43
1035.63
952.676
874.225
802.772
733.02
673.667
623.134
582.735
551.336
529.879
517.038
509.76
502.999
495.955
490.232
484.549
478.778
473.45
468.567
463.598
459.226
455.899
1246.29
1351.78
1385.89
1392.37
1368.26
1318.62
1251.81
1171.47
1089.91
1008.99
927.901
855.06
782.534
718.382
661.147
612.808
572.406
542.073
523.709
513.093
506.164
499.045
491.946
485.727
479.653
474.013
469.469
465.061
461.053
457.755
1245.97
1360.88
1401.78
1413.83
1398.94
1357.81
1297.49
1222.09
1143.83
1064.73
986.036
909.408
835.655
767.941
704.701
648.676
598.947
560.021
534.18
517.988
509.381
501.957
494.132
487.356
480.976
474.981
470.374
466.301
462.364
459.331
1248.41
1369.68
1416.99
1433.79
1427.39
1394.69
1341.03
1271.67
1197.64
1121.5
1045.65
965.857
889.742
819.18
750.51
688.416
631.384
584.743
549.322
525.938
513.153
504.451
496.104
488.006
481.378
475.375
471.249
467.38
463.544
460.63
1235.92
1379.21
1431.87
1453.04
1453.44
1428.93
1382.46
1319.98
1250.21
1176.81
1102.4
1023.26
942.336
868.254
796.112
729.658
666.956
613.582
569.158
536.953
517.926
505.751
496.844
488.171
480.792
474.352
471.369
467.45
463.772
461.151
1244.45
1406.25
1450.09
1472.66
1477.37
1460.59
1420.86
1365.65
1300.18
1229.52
1155.65
1076.6
992.57
914.57
841.407
773.294
707.022
646.323
592.717
551.359
524.312
508.403
498.278
489.388
480.851
474.953
470.129
466.081
463.243
461.321
378.824
385.563
391.747
396.562
400.037
401.867
402.598
403.232
403.81
404.288
404.983
405.584
406.989
408.595
411.837
417.633
427.818
445.22
474.524
519.561
581.309
654.414
723.114
790.205
850.084
911.954
944.468
962.345
944.116
957.231
387.612
394.097
400.201
405.182
408.95
411.369
412.815
414.047
415.488
416.952
418.592
420.049
422.108
424.729
428.314
434.109
445.037
465.323
501.773
555.747
617.702
682.242
742.907
807.035
874.168
943.905
991.249
1008.6
988.93
971.854
391.507
398.012
403.773
408.694
412.486
415.112
416.881
418.517
420.453
422.31
424.185
426.451
429.395
433.739
439.465
447.379
459.712
480.724
517.906
569.152
626.556
684.982
741.511
803.501
873.444
948.477
1005.87
1029.12
1011.99
980.34
398.742
405.639
411.598
416.47
420.146
422.983
425.033
427.201
429.853
432.417
435.312
438.37
442.302
446.633
453.565
462.763
477.075
500.139
537.642
590.307
638.13
688.011
741.875
802.014
874.061
954.972
1024.36
1056.65
1044.69
1009.88
404.484
411.051
415.979
420.44
424.161
427.16
429.324
431.863
434.912
438.469
442.188
446.356
452.071
458.108
466.634
477.87
493.969
518.46
555.319
599.002
641.303
688.558
741.139
802.406
876.448
961.322
1036.03
1075.34
1066.92
1032.19
411.091
416.202
422.548
426.601
430.66
433.868
436.049
438.807
442.424
446.768
450.988
455.576
462.277
469.338
478.144
490.383
507.31
532.31
563.344
600.635
641.267
686.595
739.5
803.74
879.687
968.58
1051.56
1096.45
1092.19
1053.74
414.394
420.1
426.207
430.843
434.903
438.126
440.514
443.479
447.129
451.256
455.923
461.863
469.476
477.963
487.9
500.847
518.365
540.693
566.448
599.819
639.191
683.68
738.787
806.608
886.65
978.744
1066.5
1115.52
1114.85
1075.84
419.846
424.625
430.43
435.582
439.649
442.889
445.838
449.009
452.2
456.396
461.24
467.818
476.031
485.182
495.469
508.315
525.005
544.253
567.27
597.459
636.388
682.814
739.708
811.686
896.521
993.022
1085.07
1136.06
1137.05
1093.73
422.629
428.677
434.197
439.51
443.329
446.605
449.837
453.25
456.232
460.122
465.01
471.752
480.299
489.906
500.526
513.392
528.268
545.334
566.808
595.247
635.287
684.128
744.565
820.486
909.174
1008.66
1102.37
1157.2
1159.45
1117.14
427.341
432.732
438.501
443.788
447.608
450.978
454.357
457.797
460.845
464.409
469.225
475.977
484.444
493.955
504.441
516.204
529.693
545.228
566.258
594.777
635.995
690.364
754.383
834.085
926.048
1027.12
1121
1177.79
1181.83
1135.48
430.547
435.8
441.921
447.213
451.189
454.657
457.75
461.067
464.405
467.883
472.353
479.107
487.568
497.184
507.245
517.826
530.401
545.142
566.749
596.268
641.421
701.615
769.654
852.478
946.893
1048.48
1141.12
1197.91
1203.15
1153.3
433.942
439.077
445.378
450.943
455.472
459.494
462.012
465.107
468.786
472.415
476.474
482.965
491.387
500.67
509.626
519.17
531.062
546.18
569.554
602.31
652.588
716.951
790.08
876.885
972.655
1072.76
1162.84
1217.72
1223.05
1171.89
437.202
442.26
448.449
454.129
459.133
463.101
465.59
468.312
472.556
476.708
480.909
486.842
495.165
503.612
511.434
520.259
532.244
549.537
576.614
613.971
669.573
736.314
815.728
906.464
1003.02
1100.36
1186.43
1237.53
1241.5
1186.47
440.128
445.13
451.633
457.426
462.364
466.353
469.465
472.603
476.401
480.87
485.785
491.536
498.968
506.337
513.404
522.046
535.377
556.519
588.518
631.582
692.224
761.9
846.887
941.082
1036.1
1130.46
1211.63
1257.47
1259.07
1201.87
442.418
447.213
453.689
459.404
464.419
468.642
472.404
476.326
480.382
484.399
489.443
496.067
502.544
508.796
515.77
525.744
542.208
568.431
606.042
655.504
720.167
794.239
883.979
979.663
1072.72
1162.55
1238.16
1277.12
1275.69
1213.87
446.176
450.41
456.339
461.878
466.767
471.111
475.308
479.483
483.905
488.297
494.294
500.738
506.318
511.907
519.557
532.637
554.107
586.122
629.885
685.861
753.553
830.778
923.757
1019.94
1111.65
1196.43
1265.92
1296.85
1291.7
1224.01
449.767
453.326
458.342
463.513
468.027
472.658
477.351
481.93
486.649
491.76
498.506
505.304
510.716
516.788
526.616
544.261
571.951
610.486
661.031
722.926
792.972
872.315
965.593
1062.61
1151.99
1231.64
1293.6
1316.67
1306.96
1234.06
451.815
455.532
460.272
465.483
470.145
474.577
479.559
484.476
489.012
495.746
502.262
508.934
514.864
523.408
537.787
561.609
596.415
641.94
699.218
766.295
838.312
919.999
1011.41
1107.03
1194
1266.96
1320.6
1335.9
1321.56
1241.3
454.069
457.543
461.826
466.879
471.913
476.216
481.508
486.674
491.44
498.983
505.315
512.033
519.833
533.17
554.549
585.899
628.089
680.516
743.966
814.47
888.866
971.765
1062.18
1153.67
1236.19
1302.34
1346.93
1354.24
1334.61
1248.57
456.016
459.288
463.552
468.58
473.158
478.215
483.808
489.224
494.694
502.205
508.451
516.262
528.086
548.118
577.994
617.428
666.984
725.692
793.985
865.496
943.209
1027.5
1114.26
1201.14
1277.77
1336.85
1371.81
1371.77
1346.24
1249.82
457.81
461.174
465.03
469.325
473.662
479.134
485.267
491.728
498.298
505.672
512.382
523.026
541.255
569.723
608.521
656.114
712.429
776.214
847.703
919.238
1000.38
1082.39
1165.67
1248.11
1318.3
1369.86
1394.81
1389.56
1356.76
1254.13
458.448
461.921
465.71
470.047
474.054
480.288
486.866
493.836
501.754
509.34
517.937
533.426
559.836
597.413
645.072
700.304
762.614
830.253
903.136
977.743
1056.84
1137.04
1216.83
1294.28
1357.51
1400.63
1416.35
1405.38
1365.52
1253.31
459.498
462.43
466.269
470.337
473.706
480.927
488.382
496.377
504.812
513.553
526.201
548.476
583.887
630.202
685.774
747.129
814.596
885.145
960.249
1038.44
1114.34
1191.66
1267.23
1338.48
1394.42
1429.03
1436.12
1420.49
1374.16
1254.98
460.401
462.943
466.298
469.462
474.722
480.612
488.493
497.521
506.331
518.815
537.665
568.753
612.223
665.79
727.133
792.472
864.185
937.732
1017.75
1096.98
1170.9
1244.94
1316.4
1380.61
1428.74
1454.91
1455.34
1435.46
1384.04
1242.41
461.347
463.487
466.365
469.018
474.661
481.018
489.505
498.692
508.908
525.497
552.467
593.163
644.478
704.138
769.285
836.838
910.469
988.606
1072.42
1150.94
1226.05
1296.05
1363.14
1419.95
1460.3
1478.74
1475.22
1453.8
1411.93
1249.4
860.695
839.031
835.388
834.557
840.314
852.68
870.198
894.657
925.209
961.772
1002.83
1047.36
1094.3
1142.15
1189.7
1235.89
1279.9
1321.28
1359.63
1394.28
1425.55
1453.76
1479.18
1501.63
1521.23
1538.32
1553.14
1565.88
1576.8
1586.1
1594.03
1600.84
1605.9
1610.07
1613.19
1615.29
1616.33
1616.31
1615.36
1613.22
1609.87
1605.29
1599.42
1592.16
1583.45
1573.25
1561.46
1548.01
1532.83
1515.77
1496.88
1476.12
1453.52
1429.11
1402.95
1375.12
1345.67
1314.78
1282.61
1249.34
1215.18
1180.32
1144.99
1109.53
1074.19
1039.09
1004.29
969.748
935.44
901.361
867.608
834.267
801.669
770.056
739.864
711.287
684.515
659.627
636.594
615.403
596.201
578.852
563.608
550.278
538.778
528.977
520.527
513.383
507.23
501.906
497.226
493.153
489.275
486.037
482.973
480.228
477.932
475.497
473.306
471.892
470.022
467.996
466.137
464.732
463.535
462.178
460.737
459.745
459.462
459.456
459.444
459.081
458.578
458.712
459.453
461.115
463.185
463.404
463.085
462.271
461.598
461.412
461.029
461.204
461.723
958.953
952.705
952.821
958.737
971.334
991.159
1017.28
1049.43
1086.69
1127.99
1172.11
1217.92
1264.32
1310.23
1354.77
1397.22
1437.04
1474.05
1507.66
1537.57
1564.59
1588.75
1610.45
1629.62
1646.22
1660.64
1673.12
1683.86
1693.05
1700.84
1707.39
1712.79
1717
1720.21
1722.57
1723.97
1724.44
1723.95
1722.48
1720.01
1716.59
1711.83
1706.01
1698.98
1690.71
1681.17
1670.3
1658.06
1644.45
1629.46
1613.03
1595.14
1575.88
1555.28
1533.35
1510.04
1485.58
1460
1433.39
1405.88
1377.6
1348.65
1319.14
1289.12
1258.61
1227.81
1196.75
1165.41
1133.76
1101.83
1069.68
1037.35
1004.95
972.617
940.476
908.614
877.143
846.087
815.374
784.943
754.844
725.212
696.457
668.966
643.226
619.639
598.368
579.591
563.055
548.621
536.027
525.233
515.894
507.914
501.22
495.411
490.335
486.192
482.397
479.224
476.313
473.648
471.18
469.145
467.628
465.991
464.516
463.215
462.589
462.177
462.033
461.829
461.176
461.102
461.678
463.504
465.179
465.167
464.742
464.024
463.371
462.946
462.729
462.825
463.584
1053.8
1054.43
1059.48
1069.96
1086.88
1110.38
1139.86
1174.53
1213.27
1254.99
1298.6
1342.97
1387.13
1430.22
1471.57
1510.61
1546.97
1580.47
1611.09
1638.1
1662.34
1684.1
1703.65
1720.92
1735.85
1748.85
1760.13
1769.85
1778.18
1785.25
1791.17
1796.1
1800.03
1803.04
1805.13
1806.29
1806.59
1806.03
1804.57
1802.18
1798.84
1794.47
1789.06
1782.59
1775.05
1766.42
1756.72
1745.78
1733.75
1720.59
1706.3
1690.89
1674.34
1656.76
1638.14
1618.61
1598.05
1576.54
1554.17
1530.99
1507.04
1482.34
1457.23
1431.7
1405.85
1379.54
1352.72
1325.39
1297.48
1268.97
1239.81
1210.19
1180.18
1149.81
1119.08
1088.05
1056.72
1025.08
993.17
961.024
928.7
896.326
864.138
832.441
801.415
770.841
741.422
712.95
685.38
659.318
634.861
612.315
591.697
573.266
556.951
542.717
530.144
519.483
510.049
502.109
495.423
489.487
484.721
480.625
477.708
475.052
473.25
471.396
470.057
469.521
469.196
468.644
467.736
467.617
468.025
469.46
470.461
469.978
469.06
468.132
467.241
466.296
465.721
465.58
466.508
1151.4
1157.01
1166.93
1182.14
1203.17
1229.92
1261.76
1297.79
1336.95
1378.07
1420.09
1462.11
1503.44
1543.42
1581.45
1617.13
1650.22
1680.61
1708.3
1732.89
1754.88
1774.7
1792.48
1808.22
1821.86
1833.83
1844.3
1853.4
1861.28
1868.09
1873.86
1878.63
1882.48
1885.47
1887.63
1888.91
1889.36
1889.04
1887.9
1885.91
1883.06
1879.32
1874.67
1869.11
1862.62
1855.21
1846.87
1837.57
1827.32
1816.15
1804.08
1791.13
1777.1
1762.29
1746.62
1730.1
1712.74
1694.6
1675.77
1656.31
1636.28
1615.69
1594.24
1572.08
1549.27
1525.72
1501.46
1476.81
1451.56
1425.66
1399.26
1372.23
1344.48
1315.99
1286.79
1256.89
1226.42
1195.43
1164.02
1132.14
1099.82
1067.16
1034.24
1001.25
968.218
935.123
902.344
869.962
837.881
807.146
777.135
748.139
720.2
693.286
667.267
642.517
619.091
597.459
577.412
559.461
543.828
530.095
518.598
508.872
501.289
494.913
489.948
486.082
482.601
481.268
479.923
478.561
477.26
476.591
476.912
478.217
478.411
477.375
475.817
474.274
472.684
471.282
470.261
470.182
469.865
1252.21
1262.07
1276.81
1296.38
1320.93
1350.15
1383.39
1419.78
1458.36
1498.18
1538.36
1578.08
1616.64
1653.54
1688.45
1721.14
1751.43
1779.22
1804.47
1827.05
1847.38
1865.72
1882.14
1896.72
1909.49
1920.82
1930.83
1939.68
1947.42
1954.12
1959.9
1964.77
1968.8
1972.01
1974.44
1976.1
1976.93
1977.09
1976.53
1975.23
1973.18
1970.36
1966.76
1962.38
1957.21
1951.24
1944.49
1936.93
1928.57
1919.42
1909.47
1898.72
1887.13
1874.74
1861.55
1847.58
1832.87
1817.49
1801.27
1784.41
1766.86
1748.57
1729.5
1709.78
1689.46
1668.53
1646.9
1624.14
1600.4
1575.63
1550.12
1524.1
1497.4
1470.03
1442
1413.34
1384.01
1354.05
1323.39
1292.09
1260.25
1227.9
1195.04
1161.83
1128.46
1094.95
1061.49
1028.13
994.838
962.001
929.499
897.108
865.515
834.126
803.265
773.146
743.773
715.515
688.431
662.709
638.265
614.815
593.044
573.038
555.347
540.002
527.334
517.26
509.021
503.986
499.576
495.685
491.536
488.335
488.245
488.744
488.136
486.618
484.732
482.093
479.682
478.042
476.89
475.801
474.91
1354.49
1367.88
1386.89
1410.14
1437.45
1468.44
1502.39
1538.52
1576.03
1614.15
1652.18
1689.48
1725.54
1759.92
1792.33
1822.62
1850.67
1876.43
1899.8
1920.9
1940.07
1957.38
1972.9
1986.74
1999.09
2010.17
2020.08
2028.91
2036.72
2043.61
2049.64
2054.82
2059.16
2062.78
2065.66
2067.85
2069.38
2070.23
2070.48
2070.13
2069.13
2067.46
2065.12
2062.08
2058.34
2053.9
2048.76
2042.9
2036.31
2028.97
2020.87
2011.99
2002.28
1991.76
1980.44
1968.34
1955.5
1941.95
1927.61
1912.52
1896.66
1879.99
1862.5
1843.96
1824.58
1804.32
1783.12
1760.99
1738.1
1714.58
1690.3
1664.83
1638.39
1610.94
1583.03
1554.59
1525.56
1496
1465.92
1435.35
1404.23
1372.68
1340.8
1308.59
1276.09
1243.25
1210.17
1176.91
1143.52
1110.14
1077
1044
1011.15
978.333
945.744
913.286
881.365
850.227
819.381
788.933
759.014
729.614
701.275
674.14
648.624
624.875
602.605
582.867
565.106
551.399
540.735
530.879
521.515
513.064
508.782
505.567
500.77
497.057
493.749
491.011
488.739
486.682
484.901
483.1
481.62
1456.5
1473.03
1495.26
1521.36
1550.81
1582.95
1617.01
1652.47
1688.71
1725.12
1761.16
1796.36
1830.3
1862.58
1893.01
1921.47
1947.84
1972.04
1994.17
2014.36
2032.76
2049.38
2064.34
2077.88
2090.21
2101.38
2111.46
2120.54
2128.68
2135.94
2142.36
2147.96
2152.69
2156.9
2160.4
2163.28
2165.65
2167.48
2168.8
2169.57
2169.8
2169.45
2168.45
2166.81
2164.5
2161.53
2157.89
2153.54
2148.45
2142.6
2135.94
2128.44
2120.07
2110.83
2100.75
2089.87
2078.2
2065.71
2052.35
2038.14
2023.05
2006.99
1989.88
1971.68
1952.44
1932.24
1911.14
1888.74
1865.46
1841.28
1816.11
1790.06
1763.4
1736.4
1708.62
1680.05
1650.67
1620.93
1590.86
1560.5
1529.88
1498.98
1467.85
1436.55
1405.06
1373.48
1341.89
1310.26
1278.53
1246.57
1214.38
1182.04
1149.58
1116.91
1084.02
1051.31
1018.95
986.705
954.264
921.788
890.184
858.453
826.566
795.171
764.374
734.698
705.698
678.679
653.062
629.774
610.634
593.788
577.847
561.767
549.644
538.671
527.158
517.641
509.704
503.913
499.538
496.263
494.252
492.332
490.626
1556.92
1576.38
1601.35
1629.29
1659.75
1692.2
1726.17
1761
1796.15
1831.19
1865.68
1899.27
1931.62
1962.5
1991.57
2018.68
2043.72
2066.73
2087.98
2107.53
2125.33
2141.45
2156.12
2169.66
2182.14
2193.57
2204.01
2213.49
2222.02
2229.68
2236.52
2242.58
2247.92
2252.69
2256.91
2260.47
2263.76
2266.68
2269.12
2271.19
2272.79
2273.73
2274.05
2273.78
2272.8
2271.16
2268.84
2265.75
2261.87
2257.15
2251.55
2245
2237.51
2229.11
2219.83
2209.72
2198.69
2186.6
2173.46
2159.49
2144.58
2128.43
2110.95
2092.2
2072.22
2051.08
2028.84