/*--------------------------------*- C++ -*----------------------------------*\
| =========                 |                                                 |
| \\      /  F ield         | OpenFOAM: The Open Source CFD Toolbox           |
|  \\    /   O peration     | Version:  2112                                  |
|   \\  /    A nd           | Website:  www.openfoam.com                      |
|    \\/     M anipulation  |                                                 |
\*---------------------------------------------------------------------------*/
FoamFile
{
    version     2.0;
    format      ascii;
    arch        "LSB;label=32;scalar=64";
    class       volScalarField;
    location    "0.00505";
    object      epsilon;
}
// * * * * * * * * * * * * * * * * * * * * * * * * * * * * * * * * * * * * * //

dimensions      [0 2 -3 0 0 0 0];

internalField   nonuniform List<scalar> 
13875
(
1.16e+06
2.94634e+07
3.28152e+07
3.28321e+07
3.29196e+07
3.28552e+07
3.29234e+07
3.29517e+07
3.28926e+07
3.28935e+07
3.29208e+07
3.29054e+07
3.28692e+07
3.2844e+07
3.28691e+07
3.29211e+07
3.29105e+07
3.29066e+07
3.2912e+07
3.28456e+07
3.29119e+07
3.28255e+07
3.28018e+07
2.94684e+07
1.17821e+06
1.31384e+06
2.2748e+07
2.53495e+07
2.52348e+07
2.52797e+07
2.52239e+07
2.52439e+07
2.52514e+07
2.52012e+07
2.52037e+07
2.52288e+07
2.5239e+07
2.52095e+07
2.5194e+07
2.52089e+07
2.52589e+07
2.52406e+07
2.5247e+07
2.52446e+07
2.52188e+07
2.52845e+07
2.5221e+07
2.53278e+07
2.27462e+07
1.34277e+06
1.57302e+06
1.97072e+07
2.18258e+07
2.16257e+07
2.16879e+07
2.16397e+07
2.15753e+07
2.15486e+07
2.14958e+07
2.14934e+07
2.15205e+07
2.15322e+07
2.16071e+07
2.16026e+07
2.16071e+07
2.15573e+07
2.15305e+07
2.155e+07
2.15687e+07
2.1614e+07
2.16902e+07
2.16053e+07
2.17908e+07
1.96858e+07
1.5853e+06
1.81378e+06
1.73856e+07
1.90353e+07
1.88794e+07
1.89549e+07
1.89146e+07
1.88365e+07
1.8803e+07
1.87651e+07
1.87612e+07
1.87774e+07
1.87758e+07
1.88839e+07
1.88802e+07
1.88851e+07
1.87971e+07
1.87766e+07
1.8796e+07
1.8828e+07
1.88903e+07
1.89561e+07
1.88613e+07
1.90149e+07
1.73651e+07
1.82118e+06
2.02293e+06
1.54529e+07
1.67706e+07
1.66223e+07
1.66916e+07
1.66579e+07
1.65779e+07
1.65522e+07
1.65252e+07
1.65217e+07
1.65339e+07
1.65257e+07
1.66255e+07
1.66271e+07
1.66274e+07
1.65415e+07
1.65303e+07
1.65426e+07
1.65708e+07
1.6636e+07
1.66929e+07
1.6608e+07
1.67452e+07
1.54322e+07
2.03685e+06
2.20663e+06
1.37134e+07
1.49274e+07
1.47409e+07
1.48212e+07
1.47782e+07
1.46895e+07
1.46703e+07
1.46503e+07
1.46471e+07
1.46549e+07
1.46432e+07
1.47361e+07
1.47419e+07
1.47386e+07
1.46534e+07
1.46511e+07
1.46568e+07
1.46825e+07
1.47558e+07
1.48197e+07
1.47309e+07
1.49039e+07
1.38513e+07
2.22301e+06
2.42276e+06
1.22526e+07
1.34783e+07
1.32113e+07
1.32608e+07
1.32066e+07
1.31048e+07
1.30861e+07
1.30716e+07
1.30667e+07
1.30706e+07
1.30558e+07
1.31429e+07
1.31518e+07
1.31446e+07
1.30615e+07
1.30673e+07
1.30687e+07
1.30976e+07
1.31818e+07
1.3258e+07
1.32035e+07
1.3424e+07
1.19557e+07
2.42989e+06
2.66634e+06
1.0617e+07
1.23143e+07
1.19768e+07
1.19908e+07
1.18957e+07
1.17739e+07
1.17493e+07
1.17349e+07
1.17286e+07
1.17299e+07
1.17108e+07
1.17933e+07
1.18066e+07
1.17963e+07
1.17131e+07
1.17284e+07
1.17275e+07
1.17623e+07
1.1872e+07
1.19821e+07
1.19684e+07
1.2264e+07
1.05436e+07
2.69524e+06
3.49699e+06
1.02133e+07
1.14861e+07
1.10354e+07
1.09343e+07
1.07991e+07
1.06541e+07
1.06225e+07
1.06071e+07
1.05986e+07
1.05987e+07
1.05764e+07
1.0653e+07
1.06717e+07
1.06594e+07
1.05776e+07
1.05983e+07
1.05939e+07
1.06356e+07
1.07783e+07
1.09281e+07
1.10273e+07
1.14832e+07
1.03475e+07
3.57925e+06
6.83628e+06
1.22248e+07
1.11952e+07
1.04167e+07
1.01698e+07
9.95049e+06
9.78789e+06
9.75021e+06
9.73169e+06
9.72047e+06
9.71829e+06
9.69526e+06
9.7611e+06
9.78539e+06
9.77359e+06
9.70209e+06
9.7192e+06
9.71956e+06
9.75875e+06
9.92586e+06
1.01502e+07
1.04057e+07
1.11677e+07
1.21348e+07
6.88496e+06
1.49255e+07
1.86934e+07
1.20625e+07
1.03429e+07
9.65153e+06
9.34377e+06
9.17821e+06
9.10939e+06
9.08304e+06
9.06698e+06
9.06288e+06
9.03963e+06
9.09162e+06
9.11967e+06
9.11528e+06
9.06342e+06
9.07465e+06
9.08469e+06
9.14784e+06
9.30882e+06
9.63751e+06
1.03094e+07
1.19361e+07
1.804e+07
1.50462e+07
2.54542e+07
6.84016e+07
1.82733e+07
1.07343e+07
9.76309e+06
9.09234e+06
8.78544e+06
8.68498e+06
8.63862e+06
8.6151e+06
8.60666e+06
8.5855e+06
8.62136e+06
8.64933e+06
8.65587e+06
8.62533e+06
8.63604e+06
8.66489e+06
8.75532e+06
9.07054e+06
9.71792e+06
1.05898e+07
1.75662e+07
6.78213e+07
2.50851e+07
2.65951e+07
7.4327e+07
8.74653e+07
2.51194e+07
1.10611e+07
9.18862e+06
8.88236e+06
8.59233e+06
8.48953e+06
8.43914e+06
8.41665e+06
8.39313e+06
8.41548e+06
8.44049e+06
8.46016e+06
8.46064e+06
8.5019e+06
8.60229e+06
8.88347e+06
9.21717e+06
1.14255e+07
2.33509e+07
8.15448e+07
7.51459e+07
2.61354e+07
2.6255e+07
5.39024e+07
7.96463e+07
1.09593e+08
5.82518e+07
1.38546e+07
9.98861e+06
9.24975e+06
8.98174e+06
8.94508e+06
8.93045e+06
8.91755e+06
8.93762e+06
8.95788e+06
8.97884e+06
8.98431e+06
9.01047e+06
9.3109e+06
1.02529e+07
1.53458e+07
6.57233e+07
9.261e+07
7.51719e+07
5.37229e+07
2.57765e+07
2.53184e+07
4.21086e+07
5.81323e+07
7.52225e+07
7.37233e+07
8.03881e+07
2.9264e+07
1.5324e+07
1.3618e+07
1.25405e+07
1.24914e+07
1.25295e+07
1.26102e+07
1.2627e+07
1.25783e+07
1.25898e+07
1.3542e+07
1.55928e+07
3.15326e+07
8.26022e+07
7.33499e+07
6.7021e+07
5.62754e+07
4.19323e+07
2.65478e+07
2.48833e+07
3.34692e+07
4.4319e+07
5.73309e+07
6.01245e+07
7.0759e+07
5.55546e+07
4.50092e+07
4.95642e+07
5.01751e+07
5.25248e+07
5.58567e+07
5.77213e+07
5.63284e+07
5.2269e+07
5.05462e+07
5.42022e+07
4.62357e+07
5.67081e+07
7.18127e+07
5.87013e+07
5.21622e+07
4.29818e+07
3.32493e+07
2.60754e+07
2.073e+07
2.59617e+07
3.4112e+07
4.5739e+07
5.25981e+07
6.61595e+07
8.27843e+07
1.04474e+08
7.21724e+07
5.76207e+07
5.39434e+07
5.27778e+07
5.28918e+07
5.27001e+07
5.33756e+07
5.72404e+07
7.35242e+07
1.05168e+08
8.50675e+07
6.67635e+07
5.14204e+07
4.26657e+07
3.23133e+07
2.49427e+07
2.0574e+07
1.53991e+07
1.984e+07
3.02143e+07
4.41879e+07
4.95573e+07
5.84249e+07
7.46539e+07
8.99083e+07
5.35355e+07
3.98072e+07
3.59426e+07
3.48007e+07
3.48837e+07
3.50099e+07
3.61082e+07
4.05505e+07
5.54943e+07
8.64564e+07
7.45802e+07
5.94389e+07
5.00859e+07
4.29807e+07
2.93924e+07
1.91469e+07
1.50797e+07
1.20013e+07
1.7946e+07
2.99421e+07
4.70583e+07
5.06664e+07
4.72969e+07
5.31008e+07
6.13718e+07
4.71273e+07
3.50557e+07
2.92497e+07
2.70248e+07
2.66545e+07
2.71564e+07
2.90684e+07
3.47693e+07
4.68095e+07
6.03516e+07
5.34553e+07
4.75517e+07
5.14935e+07
4.80044e+07
3.01372e+07
1.8022e+07
1.18481e+07
1.0503e+07
2.00803e+07
3.59651e+07
4.71095e+07
4.35097e+07
3.80372e+07
3.95409e+07
4.53873e+07
4.08298e+07
3.20056e+07
2.52175e+07
2.1987e+07
2.13354e+07
2.22296e+07
2.52504e+07
3.1875e+07
4.05233e+07
4.4771e+07
3.97666e+07
3.84339e+07
4.41431e+07
4.67054e+07
3.61111e+07
2.04813e+07
1.08616e+07
1.44586e+07
2.45962e+07
2.91126e+07
3.64568e+07
3.42255e+07
3.03217e+07
3.09414e+07
3.56136e+07
3.46007e+07
2.80078e+07
2.13853e+07
1.797e+07
1.72891e+07
1.83542e+07
2.17136e+07
2.81266e+07
3.44667e+07
3.53042e+07
3.11987e+07
3.07657e+07
3.48618e+07
3.62408e+07
2.90183e+07
2.54136e+07
1.50433e+07
2.87752e+07
4.75625e+07
2.55453e+07
2.874e+07
2.74272e+07
2.45362e+07
2.50491e+07
2.88465e+07
2.90573e+07
2.37528e+07
1.77678e+07
1.46482e+07
1.40101e+07
1.49888e+07
1.80568e+07
2.37509e+07
2.8902e+07
2.8749e+07
2.53221e+07
2.49206e+07
2.78644e+07
2.86605e+07
2.59483e+07
6.29881e+07
2.99156e+07
3.1954e+07
5.61522e+07
2.28898e+07
2.33994e+07
2.20352e+07
2.00851e+07
2.06175e+07
2.37596e+07
2.42513e+07
1.97099e+07
1.45622e+07
1.19309e+07
1.1374e+07
1.2141e+07
1.46688e+07
1.95119e+07
2.40213e+07
2.3736e+07
2.0797e+07
2.03494e+07
2.2252e+07
2.33866e+07
2.35107e+07
6.94995e+07
3.45375e+07
3.16965e+07
5.23147e+07
1.99523e+07
1.93344e+07
1.78498e+07
1.66021e+07
1.70938e+07
1.96972e+07
2.01644e+07
1.60562e+07
1.17437e+07
9.70436e+06
9.2975e+06
9.89901e+06
1.18886e+07
1.58984e+07
1.99548e+07
1.96951e+07
1.72433e+07
1.68453e+07
1.81555e+07
1.95098e+07
2.07999e+07
6.10499e+07
3.48648e+07
3.10734e+07
4.72857e+07
1.74328e+07
1.63306e+07
1.48039e+07
1.38972e+07
1.4395e+07
1.64692e+07
1.67199e+07
1.3143e+07
9.57546e+06
7.98803e+06
7.68592e+06
8.14926e+06
9.72291e+06
1.30347e+07
1.65393e+07
1.64692e+07
1.45032e+07
1.40832e+07
1.50854e+07
1.65365e+07
1.83065e+07
5.49857e+07
3.40472e+07
3.00357e+07
4.43974e+07
1.54398e+07
1.38841e+07
1.25398e+07
1.18071e+07
1.22726e+07
1.38543e+07
1.38609e+07
1.08129e+07
7.9026e+06
6.65541e+06
6.41957e+06
6.78229e+06
8.01728e+06
1.06894e+07
1.36263e+07
1.3817e+07
1.23505e+07
1.19189e+07
1.27267e+07
1.40554e+07
1.59394e+07
4.85787e+07
3.20687e+07
2.8375e+07
4.04589e+07
1.37279e+07
1.19124e+07
1.07692e+07
1.01459e+07
1.05689e+07
1.16971e+07
1.14531e+07
8.91299e+06
6.56956e+06
5.59797e+06
5.41741e+06
5.71393e+06
6.71102e+06
8.89976e+06
1.13438e+07
1.17078e+07
1.06391e+07
1.02449e+07
1.09243e+07
1.21089e+07
1.41084e+07
4.36604e+07
3.06996e+07
2.73102e+07
3.74253e+07
1.24753e+07
1.03872e+07
9.41275e+06
8.87988e+06
9.18874e+06
9.95696e+06
9.56841e+06
7.44318e+06
5.54284e+06
4.76478e+06
4.61599e+06
4.86159e+06
5.66618e+06
7.43954e+06
9.45061e+06
9.94417e+06
9.25049e+06
8.95123e+06
9.5315e+06
1.0528e+07
1.26489e+07
4.02938e+07
2.9177e+07
2.6559e+07
3.50448e+07
1.14562e+07
9.16629e+06
8.30215e+06
7.86761e+06
8.05978e+06
8.54196e+06
8.06348e+06
6.29043e+06
4.73186e+06
4.09296e+06
3.96661e+06
4.16965e+06
4.82265e+06
6.26509e+06
7.92277e+06
8.49116e+06
8.09867e+06
7.91425e+06
8.35453e+06
9.24808e+06
1.15144e+07
3.69702e+07
2.76176e+07
2.51233e+07
3.24578e+07
1.06088e+07
8.1792e+06
7.36829e+06
7.02768e+06
7.11913e+06
7.3481e+06
6.79676e+06
5.31467e+06
4.06277e+06
3.54538e+06
3.43846e+06
3.61914e+06
4.16709e+06
5.35735e+06
6.7388e+06
7.3295e+06
7.15432e+06
7.06568e+06
7.41539e+06
8.27045e+06
1.07169e+07
3.51351e+07
2.67257e+07
2.39377e+07
2.98564e+07
9.9759e+06
7.43952e+06
6.61935e+06
6.30374e+06
6.33173e+06
6.39944e+06
5.82166e+06
4.57229e+06
3.5372e+06
3.10051e+06
3.00611e+06
3.16423e+06
3.62055e+06
4.60387e+06
5.76043e+06
6.35931e+06
6.34223e+06
6.32611e+06
6.64151e+06
7.50045e+06
1.00517e+07
3.23668e+07
2.51879e+07
2.29238e+07
2.78775e+07
9.50271e+06
6.89292e+06
5.98091e+06
5.68469e+06
5.67056e+06
5.61998e+06
5.04531e+06
3.97364e+06
3.11384e+06
2.73971e+06
2.65364e+06
2.79423e+06
3.18029e+06
3.99507e+06
4.97684e+06
5.56334e+06
5.66194e+06
5.69419e+06
5.98865e+06
6.92032e+06
9.56524e+06
2.97328e+07
2.39384e+07
2.16211e+07
2.55692e+07
9.15822e+06
6.47326e+06
5.46558e+06
5.15767e+06
5.08942e+06
4.95748e+06
4.38799e+06
3.47883e+06
2.75874e+06
2.43868e+06
2.36219e+06
2.49058e+06
2.82561e+06
3.52309e+06
4.36163e+06
4.91476e+06
5.07664e+06
5.15998e+06
5.47295e+06
6.47732e+06
9.24078e+06
2.76476e+07
2.29211e+07
2.08333e+07
2.35617e+07
8.7514e+06
6.18953e+06
5.07382e+06
4.71584e+06
4.5968e+06
4.41675e+06
3.86769e+06
3.0828e+06
2.47299e+06
2.19275e+06
2.12127e+06
2.23832e+06
2.52857e+06
3.1175e+06
3.83958e+06
4.36742e+06
4.57367e+06
4.69464e+06
5.07917e+06
6.16613e+06
8.90254e+06
2.52431e+07
2.17579e+07
2.01987e+07
2.20448e+07
8.21352e+06
5.97151e+06
4.80411e+06
4.33861e+06
4.16721e+06
3.95628e+06
3.44173e+06
2.76195e+06
2.23294e+06
1.98538e+06
1.91873e+06
2.02525e+06
2.27924e+06
2.79138e+06
3.41685e+06
3.9034e+06
4.13599e+06
4.3091e+06
4.80531e+06
5.9678e+06
8.42178e+06
2.31107e+07
2.09259e+07
1.91694e+07
2.01648e+07
7.65919e+06
5.81322e+06
4.60767e+06
4.01736e+06
3.79698e+06
3.55157e+06
3.07041e+06
2.47832e+06
2.02565e+06
1.80924e+06
1.74735e+06
1.84804e+06
2.07286e+06
2.51901e+06
3.06891e+06
3.51846e+06
3.7694e+06
3.99058e+06
4.60488e+06
5.85721e+06
7.86613e+06
2.14518e+07
2.02082e+07
1.85001e+07
1.87022e+07
7.14762e+06
5.78474e+06
4.47292e+06
3.77022e+06
3.48454e+06
3.21035e+06
2.76297e+06
2.24845e+06
1.85053e+06
1.6575e+06
1.59946e+06
1.69239e+06
1.89024e+06
2.2837e+06
2.76188e+06
3.17606e+06
3.45617e+06
3.73978e+06
4.4632e+06
5.86916e+06
7.28182e+06
1.96644e+07
1.92013e+07
1.80177e+07
1.7405e+07
6.70668e+06
5.65755e+06
4.42438e+06
3.58635e+06
3.22324e+06
2.92101e+06
2.50185e+06
2.04652e+06
1.69904e+06
1.52728e+06
1.47235e+06
1.55923e+06
1.73294e+06
2.07709e+06
2.50109e+06
2.88971e+06
3.19221e+06
3.56056e+06
4.44216e+06
5.76688e+06
6.69965e+06
1.82555e+07
1.8472e+07
1.73451e+07
1.6103e+07
6.15844e+06
5.34093e+06
4.39942e+06
3.4489e+06
3.00782e+06
2.66883e+06
2.27115e+06
1.86898e+06
1.56348e+06
1.41104e+06
1.36061e+06
1.44226e+06
1.59738e+06
1.90546e+06
2.28182e+06
2.64576e+06
2.97977e+06
3.42315e+06
4.44654e+06
5.44872e+06
6.18706e+06
1.70743e+07
1.79333e+07
1.68961e+07
1.51603e+07
5.64217e+06
5.02678e+06
4.52146e+06
3.37177e+06
2.84987e+06
2.46506e+06
2.08095e+06
1.71742e+06
1.4471e+06
1.31068e+06
1.26294e+06
1.33905e+06
1.47606e+06
1.74874e+06
2.0899e+06
2.44504e+06
2.81556e+06
3.35625e+06
4.58525e+06
5.08091e+06
5.65874e+06
1.5957e+07
1.72856e+07
1.65465e+07
1.43981e+07
5.26914e+06
4.69025e+06
4.4977e+06
3.35642e+06
2.71841e+06
2.31077e+06
1.92415e+06
1.5891e+06
1.34486e+06
1.22111e+06
1.17638e+06
1.2463e+06
1.36971e+06
1.61648e+06
1.93128e+06
2.28891e+06
2.68667e+06
3.36879e+06
4.57489e+06
4.69011e+06
5.21632e+06
1.5058e+07
1.68386e+07
1.60687e+07
1.36925e+07
4.87597e+06
4.32082e+06
4.28029e+06
3.41591e+06
2.61807e+06
2.18663e+06
1.79526e+06
1.47674e+06
1.25379e+06
1.14199e+06
1.10019e+06
1.16628e+06
1.27796e+06
1.50682e+06
1.80736e+06
2.16954e+06
2.60599e+06
3.49612e+06
4.31484e+06
4.31689e+06
4.96945e+06
1.42709e+07
1.65126e+07
1.57203e+07
1.30948e+07
4.5935e+06
3.97743e+06
4.00455e+06
3.54671e+06
2.5924e+06
2.0883e+06
1.70233e+06
1.38676e+06
1.17587e+06
1.07144e+06
1.03208e+06
1.09364e+06
1.19689e+06
1.41166e+06
1.7106e+06
2.07168e+06
2.59177e+06
3.60377e+06
4.0081e+06
3.97414e+06
4.63816e+06
1.35486e+07
1.60869e+07
1.54516e+07
1.25199e+07
4.47768e+06
3.69435e+06
3.71113e+06
3.50826e+06
2.67222e+06
2.02106e+06
1.62464e+06
1.31778e+06
1.11207e+06
1.01056e+06
972547
1.03085e+06
1.1302e+06
1.33885e+06
1.6326e+06
2.00602e+06
2.69755e+06
3.5364e+06
3.67773e+06
3.6831e+06
4.43736e+06
1.2863e+07
1.57962e+07
1.51634e+07
1.19601e+07
4.25011e+06
3.44003e+06
3.41977e+06
3.306e+06
2.86351e+06
2.00939e+06
1.5619e+06
1.26556e+06
1.06397e+06
959852
921891
979079
1.07903e+06
1.28671e+06
1.57482e+06
2.02213e+06
2.89962e+06
3.31264e+06
3.37143e+06
3.44456e+06
4.3601e+06
1.22459e+07
1.55724e+07
1.49435e+07
1.14052e+07
4.16974e+06
3.24057e+06
3.15901e+06
3.09478e+06
2.91356e+06
2.13441e+06
1.52823e+06
1.22154e+06
1.02766e+06
922459
881318
940435
1.03973e+06
1.23991e+06
1.54037e+06
2.14602e+06
2.92259e+06
3.08141e+06
3.11837e+06
3.23941e+06
4.20827e+06
1.16541e+07
1.53557e+07
1.47403e+07
1.09046e+07
4.13549e+06
3.08427e+06
2.94323e+06
2.87747e+06
2.75379e+06
2.35782e+06
1.58035e+06
1.18945e+06
994508
892349
849928
909536
1.00562e+06
1.20638e+06
1.58822e+06
2.37557e+06
2.76102e+06
2.86098e+06
2.91034e+06
3.07371e+06
4.09984e+06
1.1113e+07
1.51228e+07
1.4363e+07
1.0352e+07
4.00223e+06
2.93941e+06
2.75756e+06
2.6711e+06
2.59015e+06
2.42701e+06
1.7547e+06
1.18616e+06
966600
865516
824725
881949
979299
1.21805e+06
1.79492e+06
2.43896e+06
2.59606e+06
2.66989e+06
2.73759e+06
2.94744e+06
4.05339e+06
1.05616e+07
1.47148e+07
1.37228e+07
9.73276e+06
3.88555e+06
2.81254e+06
2.59901e+06
2.49764e+06
2.42329e+06
2.30763e+06
1.97321e+06
1.27598e+06
954463
841650
802090
856880
967350
1.31794e+06
1.9885e+06
2.31479e+06
2.42773e+06
2.503e+06
2.58802e+06
2.81854e+06
3.91724e+06
9.91838e+06
1.40332e+07
1.21822e+07
8.81726e+06
3.74585e+06
2.68944e+06
2.46254e+06
2.35147e+06
2.26447e+06
2.18186e+06
2.02358e+06
1.50271e+06
995953
828626
786472
841836
1.01192e+06
1.5357e+06
2.00235e+06
2.1832e+06
2.26915e+06
2.35849e+06
2.4566e+06
2.68893e+06
3.75499e+06
8.96911e+06
1.24751e+07
113846
289500
353030
358074
361366
353636
331835
309194
287141
290294
297107
295804
289953
281923
272046
262041
254536
249504
245083
240014
236024
233933
229848
223595
217694
212022
204846
194035
181186
195090
148101
345287
410604
407535
406960
390592
353830
337354
309461
298914
302733
301016
295345
287646
277234
265492
256220
249980
244979
239520
235521
233851
231178
224629
217955
211553
203717
192066
179121
195355
166330
345928
405041
408993
413798
397038
365051
342420
322132
304224
300482
300782
295841
288131
277369
264775
254678
248072
242966
237604
233873
232261
230847
224338
217127
210105
201762
189522
176734
195446
191603
344157
400314
414930
422080
407850
382983
356217
340155
312019
300516
296890
294283
287325
276728
263574
252290
245173
239963
234851
231394
229872
229323
223031
215305
207633
198600
185911
173361
193751
230951
347039
403727
428832
438054
430002
409463
379132
358012
324383
304766
296238
290208
284093
273616
260380
248154
240857
235785
231015
227845
226521
226512
220625
212591
204309
194300
181212
169031
190125
277655
361735
420948
456137
471169
468833
446263
409488
379293
341678
311017
298316
287034
279531
268447
255785
243155
235615
230601
226091
223162
222007
221968
216305
207912
199103
188582
174871
162891
183953
328000
387850
456149
502557
527540
528163
498314
447802
404685
368538
319376
300807
285113
274670
262595
250104
237725
229610
224366
219611
216501
215313
214535
209263
200825
191937
181028
167457
156678
178681
383478
426376
514092
578348
615633
616244
574920
501000
436489
390408
331282
303627
283901
270716
259388
244460
232397
223541
217836
212373
208619
207062
205598
201018
192923
184263
173881
161580
152148
174599
445877
477094
606196
698663
754914
755441
687914
580793
481283
415137
349055
308905
283127
267615
257398
241890
227336
217686
211185
205137
201384
199801
198279
194419
186757
178239
168187
156544
148043
170672
515898
544921
749232
897202
990825
978809
862239
697444
548409
447767
379995
317621
283572
264615
256020
240588
222368
212106
204422
198183
194684
193127
191431
187995
180839
172559
162813
151705
144062
166623
590289
642029
986086
1.24626e+06
1.42523e+06
1.36102e+06
1.14862e+06
879516
648525
495195
405182
330343
286134
263540
255023
239774
219047
206829
197793
191562
188363
186774
184854
181618
174954
166967
157551
146967
140174
162581
668572
789965
1.40126e+06
1.89172e+06
2.23295e+06
2.04066e+06
1.64251e+06
1.16771e+06
803654
567005
433802
348218
288894
263208
254713
239524
217502
201920
191515
185369
182423
180727
178591
175375
169139
161479
152414
142349
136401
158554
759041
1.03592e+06
2.1637e+06
3.12864e+06
3.42856e+06
2.95462e+06
2.40343e+06
1.60053e+06
1.03203e+06
670064
474359
366639
291490
263151
255679
240518
216535
197207
185893
179718
176953
175115
172747
169413
163501
156129
147395
137849
132671
154469
881487
1.47656e+06
3.53395e+06
4.37806e+06
4.19597e+06
3.51572e+06
2.95825e+06
2.16735e+06
1.32038e+06
802682
525423
382437
293247
262803
256971
242760
216637
193627
180876
174695
172044
170061
167408
163864
158115
150918
142427
133361
128825
150090
1.07004e+06
2.31444e+06
5.19269e+06
5.09382e+06
4.56051e+06
3.73148e+06
3.32601e+06
2.56521e+06
1.59086e+06
935766
577449
395276
295414
262980
255129
245537
218170
191544
176818
170422
167753
165597
162592
158761
152973
145783
137404
128766
124766
145296
1.36558e+06
3.67137e+06
6.46457e+06
5.5987e+06
4.71538e+06
3.73153e+06
3.28123e+06
2.83462e+06
1.78737e+06
1.0336e+06
612464
402387
294118
260274
252650
248650
221415
190629
173775
167009
164067
161699
158286
154025
148022
140684
132366
124133
120671
140282
1.79258e+06
5.38944e+06
7.54668e+06
6.10787e+06
4.88588e+06
3.65822e+06
2.97038e+06
2.82842e+06
1.83583e+06
1.07586e+06
624433
399611
290940
257064
250103
254445
227016
191453
172005
164346
160914
158251
154442
149637
143264
135752
127536
119730
116772
135387
2.39931e+06
7.17461e+06
8.72888e+06
6.89522e+06
5.22956e+06
3.68032e+06
2.81778e+06
2.70219e+06
1.77355e+06
999479
596753
387176
287754
255336
249296
259141
236352
194890
171323
162399
158238
155129
150869
145486
138746
131182
123131
115710
113150
130760
3.18656e+06
9.0471e+06
1.01941e+07
7.94126e+06
5.72497e+06
3.83005e+06
2.81979e+06
2.58921e+06
1.75587e+06
911779
550522
367565
287904
257029
250649
258802
254245
202846
171998
161031
155893
152190
147418
141549
134549
127074
119183
112060
109805
126321
4.18646e+06
1.11418e+07
1.20018e+07
9.27235e+06
6.40056e+06
4.09273e+06
2.90941e+06
2.54517e+06
1.82418e+06
922763
515242
363695
292504
262203
254990
260327
282768
220452
175552
160590
153936
149484
144113
137840
130663
123271
115534
108679
106714
122043
5.50388e+06
1.36253e+07
1.41435e+07
1.09769e+07
7.28194e+06
4.4947e+06
3.10055e+06
2.61007e+06
1.88875e+06
994477
534495
377544
302199
271369
262840
266505
290985
257184
185886
161274
152414
146877
141070
134138
126905
119578
112125
105452
103820
117939
7.33473e+06
1.6875e+07
1.68366e+07
1.29832e+07
8.45031e+06
5.07113e+06
3.38763e+06
2.70347e+06
2.0222e+06
1.07625e+06
590630
404716
318694
284578
274806
276733
293157
312997
211514
165389
151652
143998
138123
130664
123506
116267
109058
102442
101159
114146
1.08346e+07
1.88629e+07
1.94639e+07
1.54551e+07
1.01455e+07
5.89492e+06
3.78768e+06
2.8945e+06
2.19057e+06
1.20196e+06
656106
437165
341481
298741
285898
287636
293732
327409
262154
177472
151958
141855
135170
127735
120668
113522
106435
99790.4
98693.3
110675
1.29233e+07
2.31418e+07
2.31833e+07
1.8962e+07
1.26626e+07
7.11849e+06
4.361e+06
3.17661e+06
2.36331e+06
1.37091e+06
732730
483558
370585
317099
299021
297875
298478
324290
326762
205477
156487
141262
132341
125147
118240
111220
104211
97500.8
96439.6
107506
1.39585e+07
2.42091e+07
2.93656e+07
2.44177e+07
1.6399e+07
8.98756e+06
5.18993e+06
3.58019e+06
2.60676e+06
1.59077e+06
844069
546900
419501
349025
317017
307435
304920
316524
338043
253476
167782
142666
130966
122245
115921
109167
102267
95544.9
94485.9
104584
196161
181972
194924
205818
212986
218686
224438
230011
233532
235736
239638
244480
248877
254098
261806
271903
281501
289057
294504
295200
287867
287793
315312
334689
357653
365267
362904
359133
296841
119262
196514
179949
192999
204721
212519
218925
225340
230989
233349
235175
239104
244249
249191
255623
265116
276957
287061
294333
299683
300772
298462
312524
338740
356002
391654
406532
406141
408462
342953
151844
196606
177513
190403
202698
211022
218021
224880
230370
231725
233440
237131
242129
247151
253914
264205
276830
287261
294623
299371
298600
304986
328100
343272
366657
397467
412156
406986
401207
341182
170502
194892
174095
186728
199434
208484
216119
223407
228667
229339
230914
234363
239097
244156
251399
262890
276005
286250
292913
295367
300538
314230
343057
358282
385488
408706
420030
413061
397097
339900
196243
191280
169716
181968
195152
205109
213321
220867
225702
225955
227304
230510
234937
239819
247227
259598
272696
282901
288886
295931
305911
328066
361395
382926
413368
431372
438663
428287
401735
344225
236275
185122
163611
175691
189416
199864
208602
216505
221076
221349
222561
225589
229811
234627
242304
254919
267318
278381
286161
298771
313120
350977
383831
414617
451615
472942
474996
457768
420995
360424
282909
179871
157456
168332
181911
192684
201461
209396
213771
214515
215846
219101
223610
228680
237003
249009
261789
273688
284684
301862
323062
375834
409855
454741
507107
536598
535032
507761
458596
388005
332121
175702
152860
162404
174787
185091
193611
201134
205052
206541
208151
211957
217132
222709
231830
244096
258759
269937
283910
305934
337289
397208
443177
513190
589439
631920
629329
588180
520514
427614
388127
171674
148680
157275
168994
178991
187328
194412
197809
199416
201060
204904
210585
216977
226950
241893
256929
266763
283651
312779
361444
422829
492838
599081
710410
780213
777884
715658
617305
479867
449986
167521
144622
152338
163520
173216
181285
187902
191040
192832
194459
198103
203988
211544
222105
240840
255749
264250
285319
323440
390843
458927
567034
725760
899340
1.02105e+06
1.03363e+06
926116
768532
550248
519662
163371
140653
147502
158162
167535
175298
181497
184542
186547
188241
191588
197500
206441
219404
240259
254984
263836
288453
339117
415173
511779
678673
926307
1.21472e+06
1.43462e+06
1.50845e+06
1.29636e+06
1.01798e+06
651476
594773
159232
136799
142785
152930
161957
169414
175271
178351
180561
182377
185421
191381
201759
218164
240288
254911
264048
292341
360018
447312
592266
851775
1.24437e+06
1.76039e+06
2.16934e+06
2.38282e+06
1.98288e+06
1.45474e+06
807724
674945
155029
132988
138192
147827
156531
163736
169354
172579
175006
176950
179777
185868
197328
217487
241537
256716
264506
296087
378429
493774
707670
1.10414e+06
1.7335e+06
2.55786e+06
3.10936e+06
3.57087e+06
3.27121e+06
2.25489e+06
1.06915e+06
768802
150523
129059
133618
142785
151262
158325
163869
167312
169996
172040
174759
181077
194300
217941
243799
256664
264937
299360
396238
551994
856179
1.41745e+06
2.32251e+06
3.09941e+06
3.64237e+06
4.28705e+06
4.45438e+06
3.67661e+06
1.54207e+06
900759
145588
124905
128944
137692
146082
153169
158812
162547
165523
167737
170544
177279
192453
219783
246330
254560
264668
302419
412003
610554
1.00098e+06
1.71012e+06
2.72229e+06
3.41861e+06
3.80491e+06
4.64164e+06
5.14582e+06
5.27543e+06
2.43401e+06
1.10417e+06
140434
120716
124216
132569
140936
148196
154096
158259
161562
164025
167142
174326
191845
223330
248924
251750
261158
300591
420710
651410
1.1049e+06
1.90649e+06
2.96778e+06
3.29864e+06
3.80377e+06
4.82111e+06
5.68792e+06
6.50854e+06
3.8309e+06
1.41959e+06
135423
116744
119710
127636
135939
143406
149701
154400
158084
160859
164466
172584
193020
228902
254037
249219
257402
297245
419454
664974
1.143e+06
1.93939e+06
2.90664e+06
2.97327e+06
3.74645e+06
5.04407e+06
6.27595e+06
7.60194e+06
5.54264e+06
1.86724e+06
130720
113065
115609
123128
131288
138858
145554
150820
154976
158141
162486
171920
196878
238104
255826
248374
255773
292785
405257
631688
1.05197e+06
1.86181e+06
2.74905e+06
2.85097e+06
3.77352e+06
5.42833e+06
7.14987e+06
8.82938e+06
7.3032e+06
2.49764e+06
126238
109625
111910
119129
127104
134635
141606
147374
152105
155782
161104
172724
205285
256368
254947
249469
257309
291589
380700
572689
962668
1.85863e+06
2.63235e+06
2.87195e+06
3.94011e+06
5.95159e+06
8.26771e+06
1.03547e+07
9.1542e+06
3.29515e+06
121909
106413
108507
115481
123298
130763
137889
144055
149389
153752
160650
176704
223392
279182
256745
253515
262030
295261
372817
533479
974879
1.92785e+06
2.59826e+06
2.97138e+06
4.21167e+06
6.64952e+06
9.6627e+06
1.22362e+07
1.12428e+07
4.29129e+06
117739
103449
105283
112050
119603
127021
134208
140970
146719
152196
161422
187865
260971
284493
262840
261382
270748
303776
384320
554708
1.04504e+06
1.99179e+06
2.66561e+06
3.17293e+06
4.62936e+06
7.55489e+06
1.14178e+07
1.44506e+07
1.37221e+07
5.6151e+06
113904
100824
102285
108942
116208
123561
130720
138036
143867
151549
166084
214740
308533
286434
272451
271887
283225
320177
410225
610668
1.13359e+06
2.13023e+06
2.77043e+06
3.47415e+06
5.23074e+06
8.77541e+06
1.34797e+07
1.71993e+07
1.69524e+07
7.47506e+06
110445
98428.2
99629.4
106256
113350
120606
127710
135020
141830
152155
179190
266723
318155
287287
282541
281731
296432
341872
442703
677928
1.27064e+06
2.29888e+06
2.97288e+06
3.89301e+06
6.09978e+06
1.05289e+07
1.59971e+07
1.986e+07
1.89096e+07
1.07866e+07
107290
96232.4
97355.2
104013
111001
118127
125008
132180
141213
157160
208605
322678
314995
292818
292483
294094
314746
371364
490738
760018
1.45275e+06
2.45965e+06
3.26706e+06
4.49378e+06
7.385e+06
1.3124e+07
1.95504e+07
2.34988e+07
2.3081e+07
1.28403e+07
104391
94270
95435.6
102101
108991
115808
122135
130826
142700
169354
258794
329491
307175
299076
302571
312809
347967
423858
559675
880010
1.675e+06
2.70074e+06
3.68033e+06
5.3581e+06
9.30519e+06
1.69426e+07
2.50393e+07
2.9407e+07
2.40774e+07
1.39193e+07
1.84437e+06
1.80965e+06
1.748e+06
1.69933e+06
1.65815e+06
1.61879e+06
1.58492e+06
1.54848e+06
1.51429e+06
1.47753e+06
1.44295e+06
1.40478e+06
1.37029e+06
1.3313e+06
1.29242e+06
1.25242e+06
1.21055e+06
1.16873e+06
1.12489e+06
1.08149e+06
1.03865e+06
996520
955219
914985
875659
837583
801008
765703
731516
698756
667959
639210
612491
587136
562839
539098
515772
493257
471804
450362
428079
404965
384703
369415
354944
340794
327455
314909
302957
292074
282566
274889
269453
266396
264057
263218
263205
265022
269259
278750
296198
325414
360687
389328
410992
428198
443465
453941
460382
464417
464254
463740
461595
460984
458631
453157
443656
435562
423872
410076
396246
383044
370996
360383
351597
345069
341106
338542
335820
332131
327315
321410
314378
306394
298152
289507
280080
269647
257936
244316
227526
206938
181365
152304
124320
105680
95504.5
89833.8
86956.5
85606.4
85042.5
84896.7
85052.1
85406.1
85937.8
86706.4
87762.7
88996.8
90088.2
91412
93099.4
94874.4
96897.9
99215.8
101664
708230
691121
665857
646894
631633
617515
605840
595280
586641
578693
572661
566572
561423
557166
552430
549377
546677
544655
544512
544785
546128
547045
548177
550512
557519
569828
587733
610874
637393
665777
696783
731678
771781
815471
859888
900388
933652
957888
971801
975403
964384
940387
906891
871802
835540
789308
732385
667909
599717
534741
474081
422588
381754
347976
322828
305053
293349
289290
299271
331013
365939
379383
379750
378236
377985
379769
383136
386681
391289
396256
401127
405565
409467
412791
416737
418113
417106
413387
408009
399741
391119
381795
371910
361646
351049
340191
329007
317517
305819
294039
282296
270729
259532
248833
238274
228192
219295
211491
204609
198625
193143
187826
183429
179022
172101
155549
129786
103938
88852
82228.3
79900.7
79301.9
79332.1
79613.8
79987.1
80489.9
81563.3
83419.4
84785.6
85492.1
86475.4
87691.6
89222.2
90907.7
92537
603829
591380
569926
554989
542858
531576
523458
517316
514111
513121
515473
520060
527303
537448
548915
563839
580447
600946
626061
655872
692052
734995
784520
839780
905818
990507
1.10104e+06
1.24121e+06
1.40695e+06
1.58582e+06
1.76996e+06
1.96643e+06
2.17803e+06
2.37633e+06
2.54846e+06
2.70792e+06
2.83459e+06
2.92665e+06
2.96248e+06
2.95138e+06
2.91959e+06
2.87488e+06
2.8171e+06
2.74767e+06
2.67157e+06
2.57308e+06
2.4449e+06
2.27939e+06
2.07816e+06
1.84466e+06
1.5928e+06
1.34822e+06
1.13634e+06
967207
841617
757023
694222
660963
651651
620103
575031
531951
492381
463770
443430
427349
416136
407854
402143
399436
398081
397020
397106
397135