/*--------------------------------*- C++ -*----------------------------------*\
| =========                 |                                                 |
| \\      /  F ield         | OpenFOAM: The Open Source CFD Toolbox           |
|  \\    /   O peration     | Version:  2112                                  |
|   \\  /    A nd           | Website:  www.openfoam.com                      |
|    \\/     M anipulation  |                                                 |
\*---------------------------------------------------------------------------*/
FoamFile
{
    version     2.0;
    format      ascii;
    arch        "LSB;label=32;scalar=64";
    class       volScalarField;
    location    "0.00643";
    object      alphat;
}
// * * * * * * * * * * * * * * * * * * * * * * * * * * * * * * * * * * * * * //

dimensions      [1 -1 -1 0 0 0 0];

internalField   nonuniform List<scalar> 
13875
(
0.11986
0.0816027
0.0784501
0.0782849
0.0783231
0.078386
0.0782898
0.0782871
0.0782943
0.0782889
0.0783044
0.0783186
0.0783845
0.0784126
0.0783949
0.078296
0.0782551
0.0782981
0.0783065
0.0783547
0.0783208
0.0782645
0.0784858
0.0814402
0.120897
0.103938
0.0576792
0.05708
0.0571613
0.0566527
0.0566685
0.0570545
0.0571388
0.0571491
0.0571077
0.0571111
0.0571253
0.0566597
0.0566147
0.0566686
0.0570961
0.0571183
0.057155
0.0570741
0.0566791
0.0566743
0.0571391
0.0570653
0.0573472
0.10464
0.110619
0.0553251
0.0558745
0.0547206
0.0545857
0.0544879
0.0543469
0.0543738
0.0543518
0.0542304
0.0541758
0.0543393
0.054249
0.0542771
0.0542413
0.0543493
0.0541087
0.0542519
0.0542808
0.0544497
0.0545308
0.0546027
0.0557799
0.0550913
0.111306
0.115885
0.0546448
0.0553816
0.0543142
0.0540521
0.0539437
0.0537566
0.0536077
0.0535249
0.0534368
0.0533689
0.0534616
0.0537012
0.0537404
0.0536935
0.0534842
0.0533682
0.0534616
0.0536331
0.053905
0.054
0.0542016
0.0551929
0.0543033
0.115807
0.121032
0.0546344
0.0551214
0.0537449
0.0536821
0.0535107
0.0532323
0.0531072
0.0530213
0.0529475
0.0528803
0.0529676
0.0532224
0.0532656
0.053216
0.0529961
0.0528802
0.0529543
0.0531092
0.0534741
0.0536082
0.053612
0.0550174
0.0543248
0.121311
0.124408
0.0547451
0.0551884
0.0536091
0.0533102
0.0531126
0.0528389
0.0526621
0.0525883
0.0525136
0.0524434
0.0525126
0.0527741
0.0528504
0.0527671
0.0525405
0.0524524
0.0525458
0.0527312
0.0530522
0.0532396
0.0535045
0.0548839
0.0543931
0.124014
0.128746
0.056475
0.0557849
0.053459
0.0532859
0.0529125
0.0524481
0.0522749
0.0522005
0.0521263
0.052056
0.0521286
0.052411
0.0524769
0.0523981
0.0521519
0.0520819
0.0521618
0.0523563
0.0528635
0.0531967
0.0533636
0.0556452
0.0563558
0.128926
0.135703
0.0611968
0.0578393
0.054418
0.0534208
0.0528646
0.0523006
0.0520142
0.0519169
0.0518332
0.0517602
0.0518034
0.0521049
0.0521874
0.0520845
0.0518253
0.0518137
0.0519265
0.0522179
0.0527903
0.0533288
0.0542783
0.0575192
0.06103
0.135583
0.151305
0.0692436
0.0615445
0.0559339
0.0544276
0.0531876
0.0522511
0.0519053
0.0517549
0.0516664
0.0515864
0.051607
0.051946
0.0520342
0.0519256
0.0516298
0.0516658
0.0518067
0.0521674
0.0530992
0.0542317
0.0556239
0.0610315
0.0684139
0.15426
0.239308
0.0874357
0.0664689
0.0590042
0.0554042
0.0537267
0.0525523
0.0520491
0.0518477
0.0517428
0.051671
0.0516584
0.0520194
0.0521295
0.0520109
0.0517274
0.0517832
0.051969
0.0524598
0.0536255
0.0552777
0.0586692
0.0660273
0.0867002
0.241218
0.365338
0.118404
0.075974
0.0629476
0.0576093
0.0548134
0.0531824
0.052669
0.0523733
0.0522343
0.0521667
0.0521304
0.0524813
0.0526137
0.0525276
0.0522986
0.0523526
0.0525944
0.0530747
0.0546547
0.0573487
0.0616965
0.0748131
0.112998
0.365598
0.658256
0.193119
0.104063
0.0744953
0.0615288
0.0573892
0.0552628
0.0543162
0.0538027
0.0535805
0.0534743
0.0534224
0.0537022
0.0538688
0.0538649
0.0537644
0.0538471
0.0542503
0.0551985
0.0569193
0.0619439
0.0734463
0.10034
0.182944
0.643641
0.582065
0.436324
0.176136
0.0919549
0.0768194
0.0651855
0.0599387
0.0581049
0.0571516
0.0567702
0.05661
0.0565395
0.0566971
0.0568764
0.0570014
0.0570816
0.0573335
0.0581439
0.0600039
0.0654654
0.0764322
0.0893103
0.171269
0.434176
0.581319
0.491651
0.40078
0.346763
0.329585
0.11762
0.0812179
0.0741793
0.0682945
0.0657099
0.0647899
0.0644177
0.0642154
0.0642509
0.0644344
0.0647518
0.065248
0.0661719
0.068856
0.0754514
0.0834106
0.132033
0.331729
0.337992
0.401333
0.500199
0.40826
0.34982
0.330171
0.336843
0.301672
0.203873
0.127887
0.099058
0.0893475
0.0875476
0.0870785
0.0867549
0.0868126
0.0869811
0.0874103
0.0882239
0.0891109
0.0970664
0.134709
0.216036
0.304729
0.333471
0.331803
0.360833
0.421541
0.330515
0.2946
0.283778
0.304617
0.317172
0.326423
0.257343
0.194333
0.170545
0.150317
0.137683
0.133848
0.131851
0.132977
0.135896
0.145826
0.173277
0.195656
0.253171
0.327765
0.311736
0.306462
0.292936
0.29947
0.342809
0.240626
0.229217
0.229406
0.272243
0.326675
0.407714
0.532431
0.615232
0.602571
0.566036
0.593464
0.604634
0.616287
0.610882
0.597436
0.579172
0.580845
0.614645
0.567019
0.412305
0.323979
0.275012
0.233888
0.237004
0.253661
0.143151
0.156003
0.190059
0.231309
0.328285
0.457434
0.595568
0.65875
0.559219
0.499976
0.494712
0.494944
0.500294
0.498716
0.499891
0.520129
0.566931
0.645533
0.608583
0.465378
0.337282
0.239814
0.184013
0.146602
0.134201
0.0691569
0.104371
0.168361
0.259385
0.373714
0.424065
0.495066
0.543699
0.479226
0.429346
0.420648
0.419262
0.422584
0.425305
0.427614
0.437587
0.476943
0.534901
0.499761
0.433232
0.391135
0.282827
0.174502
0.105895
0.070704
0.0265696
0.0530001
0.120011
0.251744
0.364069
0.366536
0.387101
0.428094
0.419818
0.39447
0.384053
0.376308
0.374889
0.381623
0.386711
0.391302
0.406427
0.415326
0.387015
0.372825
0.379637
0.263614
0.124049
0.0526972
0.0253801
0.0711542
0.0825425
0.113584
0.19748
0.283065
0.287162
0.308298
0.354007
0.371182
0.358818
0.345157
0.332003
0.32864
0.337633
0.347187
0.352772
0.355545
0.340717
0.305811
0.291224
0.28769
0.19315
0.111354
0.0791742
0.0670019
0.11902
0.126423
0.126549
0.160845
0.210079
0.223374
0.254187
0.303267
0.326943
0.319131
0.304065
0.289046
0.284592
0.294681
0.306626
0.313383
0.312769
0.290545
0.248482
0.223935
0.213706
0.155037
0.12721
0.126144
0.119578
0.159486
0.133317
0.128404
0.136654
0.16325
0.179524
0.215331
0.261443
0.286041
0.279891
0.264498
0.249299
0.244626
0.253804
0.266395
0.273943
0.272089
0.251095
0.209512
0.178946
0.165904
0.135806
0.128889
0.13498
0.159914
0.202296
0.155991
0.129057
0.124011
0.137155
0.155153
0.184356
0.225474
0.247642
0.242631
0.22813
0.214511
0.210041
0.218709
0.230369
0.237385
0.235811
0.21588
0.179784
0.153531
0.138208
0.123172
0.128745
0.15495
0.19619
0.22292
0.184053
0.132074
0.118115
0.121345
0.136003
0.160234
0.193314
0.212733
0.208951
0.196679
0.18429
0.180687
0.188015
0.199194
0.205874
0.203447
0.185778
0.156947
0.134424
0.121934
0.118789
0.1318
0.181015
0.216429
0.243125
0.212183
0.13229
0.114848
0.111336
0.122867
0.141881
0.168374
0.183862
0.180472
0.170207
0.159532
0.155955
0.162644
0.171895
0.177321
0.175943
0.16143
0.138917
0.121188
0.111525
0.115251
0.131067
0.19965
0.244697
0.266795
0.226769
0.133052
0.111902
0.105156
0.111367
0.126862
0.146653
0.158627
0.155572
0.147056
0.137842
0.135261
0.140753
0.148961
0.15367
0.152102
0.140943
0.123886
0.109283
0.105008
0.112502
0.132867
0.220238
0.264326
0.290641
0.241426
0.132407
0.107738
0.0992369
0.103352
0.114696
0.129574
0.137689
0.134659
0.127694
0.120416
0.117853
0.123066
0.129745
0.133707
0.133551
0.125101
0.112362
0.101218
0.0995047
0.108509
0.131613
0.236258
0.290819
0.322311
0.263669
0.136464
0.105621
0.0971808
0.0964174
0.104304
0.114678
0.12071
0.117822
0.111899
0.105223
0.103295
0.107341
0.113126
0.1164
0.116082
0.110645
0.102156
0.0942401
0.0960332
0.10614
0.13347
0.25056
0.317456
0.352881
0.28393
0.137869
0.101712
0.0919451
0.0915108
0.0965738
0.103162
0.106169
0.103088
0.0981452
0.0930462
0.0909903
0.0949757
0.0995813
0.102466
0.103253
0.0994258
0.094009
0.0887101
0.0911142
0.101693
0.135986
0.271512
0.343201
0.366468
0.295428
0.142558
0.0997477
0.0899647
0.0874608
0.0898962
0.0921175
0.0937534
0.0909625
0.0869765
0.082204
0.0806816
0.0838157
0.0881253
0.090598
0.0912282
0.0895694
0.0875176
0.0852501
0.088006
0.0996537
0.139019
0.286318
0.369372
0.375498
0.297871
0.145701
0.0981432
0.0855796
0.0825776
0.0840627
0.0847132
0.0845735
0.0814209
0.0775292
0.0737358
0.0719522
0.0750214
0.0783075
0.0806991
0.0822715
0.0816432
0.0817114
0.0804243
0.0838482
0.0966041
0.142336
0.294271
0.385704
0.389477
0.295559
0.152435
0.0986992
0.0837769
0.0791699
0.079514
0.0769729
0.0757867
0.0728512
0.0696905
0.0659298
0.0646346
0.0670498
0.070408
0.0724515
0.0739466
0.0747077
0.0771429
0.0771144
0.0820025
0.0966657
0.14949
0.298333
0.39191
0.396815
0.294186
0.161884
0.0994512
0.0801218
0.0751653
0.0738871
0.071209
0.0691546
0.066
0.0628221
0.0598896
0.0583874
0.0608768
0.0634839
0.0657205
0.0678547
0.0688577
0.0721429
0.0729219
0.07823
0.0968342
0.158462
0.294052
0.401131
0.402233
0.292013
0.165102
0.102099
0.0803227
0.0732881
0.0701552
0.0657976
0.0629661
0.0598791
0.0573051
0.0542216
0.0531139
0.055044
0.057787
0.0595582
0.0615213
0.0637751
0.0680843
0.0709021
0.0776888
0.0986168
0.165606
0.294676
0.410214
0.408847
0.284237
0.163557
0.104935
0.0803124
0.0691322
0.0648881
0.0611018
0.0583547
0.0550949
0.052215
0.0498487
0.0485841
0.0506321
0.0527171
0.0549331
0.0573282
0.0589863
0.0631329
0.067267
0.077267
0.102396
0.165938
0.290744
0.411429
0.412195
0.282266
0.163442
0.110031
0.0821611
0.0681194
0.0624873
0.0567498
0.0536358
0.0503714
0.0481774
0.0456363
0.0446976
0.0463004
0.0486215
0.0502823
0.0528278
0.0553744
0.0605795
0.0658207
0.0791725
0.106732
0.165565
0.286373
0.415098
0.406578
0.279462
0.162016
0.119403
0.0841965
0.0655539
0.0583044
0.0530181
0.0501085
0.0471523
0.044464
0.0424767
0.0413495
0.0430322
0.0448298
0.0470407
0.0493244
0.0511385
0.0564763
0.0633916
0.0802719
0.115928
0.164314
0.283997
0.409054
0.402392
0.277375
0.159056
0.128065
0.0873384
0.0665748
0.0571245
0.0500186
0.0464502
0.0433629
0.0414908
0.0392858
0.0384471
0.0397676
0.0418729
0.0433395
0.0459595
0.0487804
0.0550225
0.064023
0.0852816
0.130023
0.163798
0.282
0.395311
0.393368
0.277852
0.152448
0.128616
0.092676
0.0662208
0.053951
0.0468242
0.0436635
0.0410811
0.0386304
0.036932
0.035912
0.0373928
0.0389828
0.041054
0.0431789
0.0454131
0.052407
0.0638692
0.0896155
0.13077
0.158605
0.276244
0.389602
0.384097
0.277397
0.145805
0.127947
0.101237
0.0690892
0.054605
0.0454675
0.0412609
0.0380924
0.0363403
0.0344117
0.0336945
0.0348487
0.0366517
0.0380513
0.0408757
0.0442888
0.0525654
0.0661099
0.0990749
0.130061
0.151518
0.274744
0.386409
0.380618
0.276002
0.138468
0.125578
0.114244
0.0708242
0.0534224
0.0435173
0.0392415
0.0365581
0.0341288
0.0326255
0.0317394
0.0330684
0.0344622
0.0365103
0.0387462
0.042213
0.051877
0.0688317
0.11361
0.128599
0.144159
0.27248
0.381421
0.374556
0.276709
0.134516
0.120408
0.113627
0.0766464
0.0551143
0.0439792
0.0379798
0.0341869
0.0323515
0.0306396
0.0300208
0.0310321
0.0326755
0.0342176
0.0377137
0.0426162
0.0531481
0.074629
0.113848
0.12363
0.138162
0.271895
0.378456
0.367902
0.273776
0.13227
0.114982
0.113
0.0857274
0.0562161
0.0432734
0.0371219
0.0334712
0.0307571
0.0293314
0.0284849
0.0296692
0.0310148
0.0333379
0.0365573
0.0418313
0.0542008
0.0837658
0.113338
0.116
0.133076
0.27337
0.373676
0.362461
0.270377
0.130132
0.109043
0.108902
0.0967308
0.0611547
0.0446357
0.0372991
0.0320792
0.0295333
0.0277685
0.0271531
0.0280826
0.0297795
0.0318831
0.0369021
0.0435038
0.0598149
0.0985129
0.110347
0.110464
0.131889
0.271379
0.365767
0.356491
0.268721
0.130063
0.105473
0.103304
0.09667
0.0687384
0.0457461
0.0369787
0.0324499
0.028711
0.0269465
0.0260348
0.0272203
0.0289035
0.0320412
0.0364192
0.0445003
0.0678428
0.0983706
0.105946
0.106224
0.130509
0.268573
0.360723
0.345197
0.262052
0.13115
0.10202
0.0977019
0.0947583
0.0814716
0.0510114
0.0382809
0.0319837
0.0284338
0.0260813
0.0252427
0.0263146
0.0286053
0.0315836
0.0376027
0.0497452
0.0806193
0.0960548
0.0995105
0.10278
0.131191
0.265093
0.350697
0.336431
0.257983
0.130139
0.100425
0.0941188
0.0914648
0.081574
0.0576051
0.0395981
0.0326311
0.0284046
0.026127
0.0247428
0.0263357
0.0285725
0.0322719
0.0390537
0.0571434
0.0811414
0.0922403
0.095585
0.101203
0.132742
0.259338
0.338677
0.311858
0.247174
0.129572
0.098517
0.0902816
0.0868471
0.0807233
0.069147
0.0445803
0.0328981
0.0285289
0.0258792
0.0247435
0.0260885
0.0286493
0.0326114
0.0442627
0.0691711
0.0801122
0.0870508
0.0911953
0.0994534
0.13242
0.248198
0.312119
0.283176
0.231492
0.125645
0.0975192
0.0883593
0.0828453
0.078372
0.0694893
0.0510135
0.0359052
0.0290927
0.0263006
0.0248495
0.0264731
0.0291484
0.035474
0.050818
0.0695529
0.0779185
0.0823213
0.0890597
0.0985777
0.12851
0.232638
0.284837
0.131063
0.249944
0.233837
0.26248
0.282049
0.287892
0.290659
0.280341
0.263318
0.267707
0.311235
0.363764
0.417413
0.472309
0.52307
0.566526
0.600557
0.622219
0.636493
0.651016
0.665125
0.674127
0.667706
0.617044
0.440971
0.331289
0.275588
0.226903
0.164276
0.0749938
0.111702
0.212569
0.231375
0.272416
0.290526
0.298106
0.303813
0.293189
0.271736
0.239139
0.268168
0.326291
0.385214
0.442616
0.495593
0.541071
0.577722
0.602709
0.62019
0.636365
0.652615
0.664369
0.66855
0.64933
0.53508
0.352735
0.273499
0.217199
0.156248
0.0722888
0.114043
0.213488
0.245849
0.289393
0.303585
0.32204
0.332102
0.315803
0.28792
0.248895
0.26288
0.315131
0.366474
0.418896
0.470334
0.516573
0.554189
0.58331
0.60531
0.625618
0.64444
0.659639
0.668132
0.662616
0.602853
0.392721
0.273088
0.208664
0.147026
0.0694344
0.109129
0.21083
0.262015
0.298127
0.31224
0.333589
0.34201
0.330321
0.298717
0.257131
0.239394
0.287775
0.340076
0.391538
0.443621
0.491825
0.529328
0.560392
0.585444
0.608687
0.631818
0.650819
0.663606
0.667732
0.645404
0.489082
0.287767
0.20302
0.140046
0.067038
0.104225
0.219379
0.279953
0.307397
0.330062
0.349186
0.351273
0.343332
0.313042
0.261908
0.235768
0.269231
0.318195
0.366824
0.417712
0.464602
0.50606
0.538214
0.565153
0.591392
0.61907
0.641424
0.65645
0.664325
0.654594
0.578818
0.344333
0.205711
0.135333
0.0654004
0.0991505
0.235896
0.297325
0.315776
0.340587
0.350623
0.344633
0.332444
0.310204
0.259651
0.234279
0.251241
0.29724
0.34376
0.391782
0.437605
0.48129
0.515242
0.543678
0.569898
0.597651
0.620133
0.635457
0.644033
0.637467
0.596571
0.463445
0.23238
0.135069
0.0642972
0.0971342
0.256076
0.316415
0.332441
0.357154
0.35402
0.334387
0.315765
0.29662
0.252854
0.23171
0.236715
0.280141
0.325918
0.369519
0.412939
0.455832
0.491845
0.522258
0.548871
0.572853
0.59322
0.607619
0.615528
0.612065
0.58103
0.501321
0.311885
0.144432
0.0637672
0.0965986
0.276164
0.33579
0.355862
0.372941
0.356602
0.322109
0.299575
0.280204
0.244267
0.225261
0.225351
0.2645
0.308009
0.349015
0.390742
0.431575
0.468075
0.498767
0.524525
0.546571
0.56419
0.576944
0.58379
0.58171
0.557271
0.49706
0.383805
0.18017
0.0660052
0.097128
0.296276
0.353587
0.3778
0.38512
0.352708
0.309821
0.279702
0.261922
0.234584
0.217007
0.218381
0.252151
0.292209
0.331085
0.370966
0.410116
0.445715
0.476153
0.501054
0.521008
0.536139
0.546905
0.552383
0.549847
0.529116
0.479259
0.400828
0.257867
0.0829977
0.0989853
0.317802
0.370519
0.393403
0.38818
0.347654
0.298148
0.258044
0.244228
0.225586
0.209253
0.21471
0.244674
0.280726
0.316972
0.354936
0.392059
0.426875
0.456427
0.479757
0.497623
0.510332
0.519386
0.523623
0.520834
0.504762
0.467181
0.409026
0.331125
0.159823
0.102139
0.337988
0.386876
0.406077
0.389959
0.34671
0.288625
0.244736
0.233963
0.220937
0.206939
0.215187
0.240751
0.275224
0.307646
0.343441
0.378318
0.411721
0.440087
0.461909
0.477523
0.488405
0.496266
0.500386
0.498807
0.48805
0.465429
0.431751
0.400539
0.224583
0.105639
0.357011
0.400395
0.416663
0.397311
0.347135
0.285045
0.238847
0.229204
0.220251
0.21162
0.219946
0.244173
0.274283
0.30421
0.336273
0.369213
0.399514
0.425973
0.445913
0.460134
0.469959
0.475994
0.479608
0.480923
0.475569
0.465473
0.456529
0.510629
0.244906
0.110142
0.372315
0.410929
0.424556
0.406377
0.353179
0.290662
0.241069
0.23298
0.225404
0.222964
0.2318
0.253499
0.278852
0.305581
0.333522
0.362632
0.389865
0.413651
0.431007
0.443325
0.451701
0.457557
0.460665
0.461554
0.462354
0.461651
0.488356
0.58362
0.245917
0.114455
0.385612
0.419615
0.42781
0.415513
0.365939
0.309685
0.259796
0.247786
0.239222
0.242918
0.252989
0.267996
0.288112
0.310018
0.333625
0.3584
0.381822
0.402157
0.417726
0.428176
0.434736
0.438778
0.441118
0.443714
0.45023
0.470811
0.57227
0.579046
0.238123
0.119143
0.398382
0.425361
0.429554
0.423022
0.383383
0.339125
0.293075
0.275144
0.267036
0.275293
0.278659
0.285166
0.299356
0.316802
0.335956
0.355486
0.37514
0.391547
0.404653
0.413459
0.418012
0.420438
0.422627
0.428937
0.44621
0.499659
0.636596
0.540989
0.231684
0.123479
0.408646
0.429185
0.431655
0.429476
0.398043
0.365263
0.331396
0.310953
0.304578
0.307159
0.302956
0.302941
0.311015
0.323784
0.339322
0.354409
0.368344
0.381165
0.391989
0.398603
0.401365
0.403419
0.407074
0.41976
0.45367
0.559914
0.627176
0.505179
0.226412
0.127898
0.417682
0.433674
0.430851
0.432333
0.41175
0.386485
0.356056
0.335198
0.326129
0.322835
0.31889
0.317638
0.321172
0.329202
0.341291
0.352495
0.361084
0.371227
0.378916
0.383094
0.385062
0.38825
0.396271
0.418385
0.477703
0.619334
0.592815
0.480088
0.222977
0.132119
0.426328
0.436593
0.429002
0.430905
0.424246
0.409918
0.379444
0.355376
0.342576
0.336403
0.330515
0.328312
0.32969
0.334477
0.341282
0.348927
0.354642
0.361068
0.365495
0.367867
0.370251
0.375579
0.389845
0.424911
0.521083
0.614295
0.558199
0.460908
0.223214
0.135072
0.433486
0.437121
0.42237
0.423457
0.431982
0.434182
0.411954
0.387184
0.368604
0.355653
0.345688
0.339866
0.337601
0.337608
0.339759
0.343176
0.346638
0.350365
0.352616
0.354142
0.357824
0.366198
0.388275
0.445611
0.587556
0.587238
0.532738
0.447285
0.224958
0.13829
0.439282
0.433311
0.409315
0.41389
0.431466
0.447767
0.444364
0.423704
0.400691
0.379828
0.363759
0.352647
0.344899
0.338451
0.335635
0.336305
0.337963
0.340198
0.340782
0.342653
0.347915
0.360992
0.393085
0.474685
0.594337
0.560958
0.513778
0.440218
0.224172
0.142662
0.43628
0.421532
0.392458
0.400235
0.423345
0.448308
0.464528
0.456438
0.434487
0.409317
0.38871
0.370211
0.353998
0.337931
0.330979
0.329064
0.329734
0.330775
0.331283
0.334121
0.341254
0.359927
0.409991
0.539781
0.577828
0.540057
0.49973
0.438078
0.221876
0.145479
0.432221
0.405715
0.373951
0.383472
0.41033
0.438929
0.467672
0.475883
0.464544
0.444615
0.423088
0.396713
0.370068
0.341639
0.329414
0.323866
0.322522
0.32355
0.324403
0.32909
0.339645
0.366978
0.438891
0.559508
0.556189
0.520341
0.487255
0.431449
0.218478
0.142478
0.410754
0.381203
0.352606
0.365759
0.397061
0.427868
0.458643
0.481353
0.487233
0.482699
0.466764
0.434547
0.396113
0.353959
0.334124
0.323024
0.318914
0.319072
0.32061
0.326896
0.342045
0.38401
0.499962
0.553993
0.53082
0.506162
0.479721
0.421821
0.214857
0.143012
0.386639
0.355048
0.333385
0.348822
0.38181
0.414132
0.444194
0.470967
0.494566
0.509837
0.50727
0.479245
0.434998
0.378878
0.347577
0.328868
0.320277
0.31807
0.320704
0.327888
0.349409
0.412541
0.533457
0.540677
0.515979
0.494622
0.471408
0.411496
0.212012
0.124824
0.29812
0.312215
0.315124
0.335053
0.367237
0.399893
0.430691
0.455346
0.486581
0.51833
0.532613
0.520788
0.482982
0.417986
0.370867
0.342693
0.327116
0.322186
0.322961
0.33167
0.363634
0.464146
0.535497
0.52429
0.498519
0.484698
0.462445
0.400842
0.209041
0.074512
0.163756
0.226902
0.276282
0.333777
0.448226
0.616061
0.662544
0.668042
0.658908
0.645033
0.630745
0.616273
0.59354
0.558458
0.514204
0.462991
0.408904
0.356037
0.304876
0.264169
0.266419
0.284415
0.293802
0.290792
0.285322
0.265251
0.233274
0.245704
0.129214
0.0718234
0.155708
0.217178
0.274321
0.35547
0.538422
0.644667
0.662871
0.658637
0.646794
0.630771
0.614678
0.596843
0.570749
0.533287
0.487085
0.433946
0.376967
0.318851
0.262818
0.242912
0.276976
0.297821
0.307164
0.300943
0.293444
0.275513
0.234339
0.209458
0.110041
0.068983
0.146583
0.208657
0.273878
0.395155
0.600034
0.656838
0.662542
0.654093
0.638813
0.620074
0.599975
0.577903
0.547452
0.508836
0.462181
0.411006
0.359508
0.309315
0.258655
0.253965
0.293692
0.321173
0.336381
0.325129
0.306613
0.292113
0.249161
0.211949
0.112381
0.0665561
0.139486
0.202953
0.287269
0.481105
0.635748
0.660358
0.657393
0.644347
0.625428
0.603646
0.580869
0.554958
0.522583
0.482872
0.43604
0.384543
0.333793
0.281837
0.239477
0.2618
0.306009
0.335829
0.345915
0.335433
0.314561
0.299888
0.264786
0.210602
0.107449
0.0648881
0.134698
0.2047
0.339594
0.57792
0.6519
0.657902
0.648244
0.632663
0.611473
0.585812
0.560837
0.532372
0.498463
0.457209
0.410986
0.360869
0.312863
0.264139
0.238655
0.267299
0.320142
0.347417
0.355342
0.350783
0.331554
0.309107
0.282522
0.221309
0.102756
0.063732
0.133989
0.228655
0.461349
0.598948
0.637303
0.641696
0.632861
0.61736
0.594662
0.566606
0.539385
0.509242
0.474105
0.432169
0.385646
0.339158
0.292964
0.247515
0.237839
0.264956
0.315595
0.33606
0.346755
0.353518
0.343267
0.318609
0.300575
0.238311
0.0978162
0.0631041
0.141849
0.304615
0.505521
0.584518
0.61316
0.615902
0.607667
0.59309
0.571679
0.545861
0.517824
0.487152
0.451194
0.408702
0.363644
0.321378
0.276683
0.234006
0.23479
0.256981
0.301132
0.318316
0.337148
0.358077
0.360711
0.336111
0.320215
0.25886
0.0959863
0.0648281
0.173669
0.385023
0.50247
0.55983
0.583126
0.585396
0.57843
0.565495
0.547099
0.524582
0.496867
0.465655
0.428678
0.386943
0.34366
0.303271
0.261756
0.223151
0.228094
0.247539
0.283853
0.302018
0.324985
0.360866
0.376904
0.359998
0.33977
0.279116
0.0955773
0.0795133
0.246588
0.402024
0.48608
0.532868
0.552063
0.554321
0.548922
0.538107
0.522531
0.502601
0.476621
0.443813
0.407554
0.367933
0.326512
0.287713
0.250351
0.216507
0.219423
0.23732
0.265103
0.281963
0.312973
0.356716
0.388925
0.382043
0.357782
0.299606
0.0963734
0.149539
0.322529
0.410376
0.472212
0.508276
0.523211
0.525357
0.521165
0.512135
0.499157
0.480982
0.456377
0.424993
0.390089
0.3525
0.313161
0.277086
0.242698
0.213171
0.211383
0.228134
0.24681
0.260457
0.30172
0.351825
0.391576
0.397345
0.375494
0.321104
0.0986382
0.218864
0.395066
0.432872
0.467781
0.489818
0.499969
0.501496
0.497414
0.488968
0.477212
0.460802
0.438378
0.410111
0.377281
0.341339
0.30498
0.272351
0.239225
0.213603
0.208887
0.223244
0.235624
0.247623
0.292917
0.351329
0.394715
0.411019
0.392725
0.341667
0.101823
0.241437
0.501695
0.459454
0.468051
0.476457
0.48091
0.480196
0.475652
0.468649
0.458599
0.443853
0.424109
0.397855
0.367021
0.335102
0.302443
0.271614
0.242809
0.21764
0.213137
0.221721
0.230396
0.24148
0.289388
0.352303
0.402695
0.420615
0.406882
0.361612
0.105453
0.243102
0.582418
0.493206
0.466772
0.463056
0.462271
0.460191
0.455626
0.450028
0.441368
0.428646
0.410696
0.387788
0.360368
0.332392
0.304424
0.276907
0.252314
0.229668
0.222325
0.22574
0.232956
0.242913
0.295254
0.358366
0.411879
0.427737
0.417104
0.377824
0.109891
0.236888
0.581654
0.575596
0.477298
0.452915
0.444856
0.440807
0.437208
0.432752
0.425531
0.41464
0.39929
0.379507
0.356455
0.332724
0.309454
0.286937
0.267117
0.251571
0.240552
0.238209
0.246477
0.261176
0.314171
0.370884
0.420985
0.430604
0.424937
0.391695
0.114443
0.231073
0.546259
0.641003
0.505147
0.449396
0.430194
0.4231
0.419559
0.415967
0.410625
0.401573
0.388769
0.37258
0.354757
0.335212
0.316886
0.29873
0.284555
0.277846
0.272433
0.264821
0.274276
0.294668
0.343247
0.388535
0.428381
0.432036
0.429898
0.404657
0.119321
0.22601
0.510455
0.632276
0.56327
0.455794
0.420753
0.407161
0.402394
0.399336
0.395933
0.389206
0.378954
0.36606
0.353292
0.338656
0.324598
0.310927
0.302889
0.302466
0.305637
0.302832
0.311137
0.333883
0.369258
0.402965
0.43476
0.433674
0.433376
0.415121
0.123704
0.223008
0.483318
0.59762
0.624056
0.479527
0.418437
0.395264
0.386904
0.383292
0.380903
0.376582
0.369129
0.359823
0.351025
0.340903
0.331333
0.321646
0.318047
0.318941
0.322124
0.326347
0.336434
0.359178
0.390692
0.416755
0.43746
0.432466
0.437464
0.424414
0.128188
0.224379
0.462431
0.561745
0.619826
0.519944
0.424755
0.388932
0.374515
0.368875
0.36618
0.363648
0.359162
0.35306
0.347646
0.341182
0.334858
0.329965
0.329362
0.331193
0.335874
0.343557
0.358892
0.38414
0.415324
0.429673
0.436222
0.429986
0.439441
0.432953
0.132554
0.226007
0.449265
0.535632
0.592072
0.589141
0.445
0.387393
0.365445
0.357257
0.35344
0.351607
0.349284
0.345879
0.342904
0.340222
0.337238
0.338145
0.341178
0.347274
0.356387
0.370739
0.392207
0.418578
0.440867
0.437799
0.428264
0.424246
0.438488
0.439134
0.135825
0.224928
0.442229
0.516376
0.564999
0.598443
0.471659
0.391602
0.360253
0.347766
0.342798
0.340563
0.339546
0.337917
0.336659
0.33731
0.339259
0.346377
0.354176
0.366678
0.382555
0.404145
0.42997
0.452298
0.455043
0.437437
0.418484
0.411909
0.434523
0.443768
0.139189
0.222661
0.439762
0.502201
0.544208
0.583816
0.534322
0.406922
0.358858
0.341094
0.334223
0.331488
0.33064
0.329985
0.330121
0.333466
0.340171
0.35684
0.373207
0.392843
0.414107
0.439075
0.462714
0.472969
0.455511
0.429321
0.404714
0.39555
0.423509
0.440043
0.143501
0.219709
0.433625
0.490387
0.525372
0.563951
0.562384
0.435472
0.365588
0.339192
0.329323
0.325572
0.324489
0.323929
0.325787
0.332865
0.345393
0.374955
0.401968
0.429185
0.451756
0.470367
0.481365
0.474466
0.445814
0.41618
0.387875
0.377332
0.408574
0.433983
0.146469
0.217164
0.423922
0.482309
0.510305
0.53745
0.560004
0.492278
0.380956
0.341758
0.327542
0.322392
0.320971
0.321227
0.326481
0.339401
0.360248
0.403957
0.442418
0.47498
0.492147
0.494772
0.486011
0.463243
0.43326
0.403072
0.370754
0.356537
0.384293
0.412323
0.143448
0.213842
0.413194
0.473937
0.497669
0.519984
0.547336
0.535835
0.40942
0.348997
0.328348
0.321859
0.320044
0.322936
0.333154
0.354503
0.389209
0.446656
0.489439
0.516205
0.519908
0.503248
0.475743
0.448342
0.418468
0.387588
0.354647
0.338134
0.358205
0.388725
0.143718
0.210998
0.40114
0.465885
0.487612
0.503684
0.531834
0.542087
0.455678
0.361996
0.332142
0.324042
0.323952
0.330961
0.34892
0.380688
0.43266
0.497392
0.532194
0.541467
0.528472
0.495917
0.460551
0.434834
0.403976
0.37277
0.340867
0.319554
0.316484
0.300297
0.125201
0.281081
0.282199
0.28647
0.289824
0.294879
0.301127
0.309425
0.318373
0.327535
0.334693
0.343626
0.356909
0.364755
0.371902
0.379101
0.387172
0.395759
0.406804
0.421639
0.436687
0.453154
0.470481
0.488031
0.502226
0.512668
0.517178
0.515025
0.508923
0.498805
0.485212
0.468416
0.448987
0.427581
0.404984
0.382277
0.360666
0.340884
0.322779
0.307485
0.294809
0.283769
0.273256
0.263196
0.253899
0.245606
0.238705
0.233325
0.229273
0.22636
0.22404
0.221706
0.219226
0.216726
0.21389
0.210976
0.208158
0.20524
0.202193
0.198874
0.195122
0.191053
0.18748
0.183703
0.180355
0.177107
0.173654
0.170059
0.16643
0.162893
0.1595
0.156226
0.152949
0.149757
0.146755
0.144031
0.14165
0.139552
0.137764
0.13629
0.13512
0.134258
0.133642
0.133116
0.132501
0.131752
0.130885
0.129931
0.128905
0.127808
0.126681
0.125573
0.124552
0.123675
0.122988
0.122562
0.122535
0.122748
0.123145
0.123551
0.124355
0.125271
0.126254
0.127435
0.128916
0.131009
0.133701
0.136683
0.13998
0.143508
0.147179
0.151023
0.154934
0.15892
0.163151
0.16807
0.171866
0.174603
0.178311
0.182745
0.189315
0.193256
0.196241
0.198955
0.20345
0.207461
0.687213
0.69953
0.715129
0.736328
0.765598
0.797936
0.838606
0.885775
0.936433
0.986395
1.03738
1.09167
1.14545
1.19969
1.26442
1.31152
1.35638
1.41053
1.4728
1.55942
1.66156
1.76976
1.894
2.01527
2.11984
2.20739
2.26661
2.29802
2.29822
2.26558
2.21364
2.14386
2.06326
1.97514
1.88129
1.78178
1.6802
1.58065
1.48718
1.40239
1.32542
1.25285
1.18393
1.11942
1.06094
1.00788
0.960659
0.919435
0.884125
0.852674
0.821785
0.791034
0.760471
0.729581
0.699026
0.668984
0.641068
0.615488
0.592151
0.57021
0.547804
0.52452
0.500744
0.476141
0.453371
0.432737
0.414553
0.398098
0.383218
0.369815
0.357624
0.346382
0.335675
0.325136
0.314808
0.305035
0.29605
0.288211
0.281565
0.275977
0.271254
0.267088
0.263059
0.258885
0.25442
0.249704
0.244835
0.23992
0.235029
0.230252
0.225679
0.221424
0.217552
0.214167
0.211327
0.209309
0.207887
0.206957
0.206316
0.206474
0.207141
0.20833
0.210009
0.212257
0.215798
0.220968
0.226661
0.232899
0.239935
0.247359
0.254686
0.261396
0.267882
0.276665
0.283091
0.291043
0.299396
0.306879
0.315244
0.325389
0.336366
0.354642
0.369172
0.38095
0.391307
1.20449
1.21998
1.2464
1.28613
1.34318
1.40466
1.47283
1.54455
1.61642
1.68706
1.74837
1.80892
1.8743
1.94214
2.01607
2.09772
2.16842
2.23268
2.28272
2.32227
2.38358
2.45624
2.56886
2.71912
2.87507
3.01906
3.13502
3.2136
3.24949
3.23714
3.18575
3.10648
3.00222
2.88188
2.75188
2.61728
2.48248
2.35092
2.22463
2.10395
1.98908
1.87756
1.76884
1.66384
1.56387
1.46989
1.38347
1.3052
1.23499
1.17103
1.1104
1.05289
0.998669
0.946576
0.898485
0.855763
0.819575
0.790477
0.76714
0.745845
0.726151
0.709091
0.690371
0.666522
0.638048
0.607214
0.577072
0.548979
0.52357
0.501031
0.481505
0.464475
0.449266
0.435502
0.422657
0.410497
0.398994
0.388295
0.378718
0.370346
0.363014
0.35633
0.349808
0.343153
0.336181
0.328922
0.321536
0.314201
0.307062
0.300245
0.293855
0.287949
0.282588
0.277793
0.273639
0.27032
0.267889
0.266169
0.264992
0.264458
0.264828
0.265566
0.266792
0.268739
0.271845
0.277075
0.283935
0.290548
0.297358
0.303029
0.309933
0.318125
0.326212
0.334704
0.343182
0.351235
0.364045
0.375803
0.38652
0.398831
0.412106
0.426571
0.438333
0.447665
0.456904
2.34462
2.33263
2.3395
2.37755
2.42599
2.48414
2.53456
2.5732
2.60189
2.61983
2.62402
2.61333
2.59593
2.58382
2.57975
2.60157
2.65101
2.71736
2.80885
2.9199
3.06117
3.23
3.43383
3.66686
3.89206
4.09164
4.24345
4.34622
4.39838
4.39883
4.34533
4.24957
4.1216
3.96915
3.80205
3.62943
3.45804
3.29257
3.13523
2.9861
2.84175
2.69997
2.55884
2.41838
2.28008
2.1452
2.01517
1.89031
1.77034
1.65378
1.53966
1.42832
1.32159
1.22145
1.12989
1.04711
0.974551
0.912281
0.857463
0.810553
0.780194
0.771052
0.773455
0.772492
0.761092
0.738886
0.709643
0.679447
0.650707
0.623158
0.597433
0.574649
0.554421
0.536347
0.520199
0.50531
0.491105
0.477537
0.464952
0.453602
0.443375