/*--------------------------------*- C++ -*----------------------------------*\
| =========                 |                                                 |
| \\      /  F ield         | OpenFOAM: The Open Source CFD Toolbox           |
|  \\    /   O peration     | Version:  2112                                  |
|   \\  /    A nd           | Website:  www.openfoam.com                      |
|    \\/     M anipulation  |                                                 |
\*---------------------------------------------------------------------------*/
FoamFile
{
    version     2.0;
    format      ascii;
    arch        "LSB;label=32;scalar=64";
    class       volScalarField;
    location    "0.00222";
    object      nut;
}
// * * * * * * * * * * * * * * * * * * * * * * * * * * * * * * * * * * * * * //

dimensions      [0 2 -1 0 0 0 0];

internalField   nonuniform List<scalar> 
13875
(
0.0511667
0.0366212
0.0343769
0.0343194
0.0342614
0.0343243
0.0343276
0.0343163
0.0342874
0.0342684
0.0343168
0.0343256
0.0342938
0.0342825
0.0343143
0.0342921
0.0342964
0.0343037
0.0343265
0.0343323
0.0342721
0.034331
0.0343863
0.0365747
0.0514254
0.0532598
0.034118
0.0322344
0.0320992
0.0320219
0.0320626
0.0320585
0.0320503
0.0320359
0.0320074
0.0320465
0.032084
0.0320476
0.0320239
0.0320583
0.0320389
0.0320335
0.0320368
0.0320595
0.0320696
0.0320285
0.0320981
0.0322325
0.0340574
0.0536355
0.0564568
0.0335624
0.0318164
0.031586
0.0315155
0.0315537
0.031544
0.0315275
0.0314622
0.0314209
0.0314578
0.0315129
0.0314762
0.0314493
0.0314572
0.0314368
0.0314497
0.0315021
0.0315422
0.0315598
0.0315206
0.0315738
0.0317984
0.0334958
0.0565945
0.0590726
0.0332338
0.0315028
0.0312693
0.0312096
0.0312431
0.0312293
0.0312101
0.0311237
0.0310777
0.031126
0.0311687
0.0311563
0.031125
0.0311096
0.0310962
0.0311252
0.031188
0.0312273
0.0312483
0.0312131
0.0312559
0.0314883
0.0331701
0.059147
0.0611319
0.0330057
0.0312601
0.0309953
0.0309337
0.0309621
0.0309461
0.0309231
0.0308335
0.0307895
0.0308387
0.0308868
0.0308807
0.0308445
0.0308201
0.0308066
0.0308404
0.0309034
0.0309432
0.0309663
0.0309359
0.0309829
0.0312336
0.0329212
0.0612641
0.0628316
0.0328532
0.0311057
0.0307649
0.0307028
0.03072
0.0306978
0.0306676
0.0305713
0.0305317
0.0305809
0.030634
0.0306334
0.0305937
0.0305624
0.0305458
0.0305849
0.03065
0.0306937
0.0307236
0.0307039
0.0307557
0.031062
0.0328267
0.0629836
0.0648466
0.0330841
0.0311241
0.0306309
0.0305255
0.0305198
0.0304838
0.030443
0.0303404
0.0303071
0.0303551
0.0304143
0.0304164
0.0303751
0.0303391
0.0303164
0.0303604
0.0304296
0.03048
0.0305214
0.0305261
0.0306302
0.0311188
0.0330777
0.0648829
0.0671805
0.0339744
0.0314621
0.0306633
0.0304597
0.0303967
0.0303286
0.0302686
0.0301563
0.0301254
0.0301684
0.0302365
0.030241
0.0302
0.0301596
0.0301276
0.0301782
0.0302556
0.0303208
0.0303915
0.0304474
0.030641
0.0314005
0.0339035
0.0673826
0.0737782
0.036365
0.0321018
0.0308894
0.0304894
0.0303596
0.0302483
0.0301596
0.030042
0.0300095
0.0300452
0.0301234
0.0301288
0.0300903
0.0300475
0.030006
0.0300587
0.0301461
0.030237
0.0303479
0.0304728
0.0308252
0.031957
0.0360251
0.0742381
0.0833426
0.0386973
0.0328803
0.0312504
0.0307155
0.0304496
0.0302821
0.0301579
0.0300507
0.0300174
0.0300469
0.0301276
0.0301331
0.0300974
0.0300568
0.0300119
0.030055
0.0301466
0.0302691
0.0304279
0.0306704
0.0311652
0.0326774
0.0381653
0.0835767
0.0911537
0.0443701
0.0347717
0.0323328
0.0312138
0.0307723
0.0305328
0.0303699
0.0302696
0.0302297
0.0302525
0.0303299
0.0303367
0.0303039
0.0302687
0.0302291
0.0302628
0.0303533
0.0305106
0.0307236
0.0311285
0.0321274
0.0345597
0.0434388
0.089513
0.094743
0.0559181
0.0419516
0.0344963
0.0327016
0.0317084
0.0312409
0.0310169
0.0308864
0.030825
0.0308382
0.0309079
0.0309145
0.0308868
0.0308585
0.0308348
0.0308749
0.0309873
0.0312032
0.0316312
0.0324645
0.0337882
0.0405663
0.0539843
0.0943181
0.086433
0.0653333
0.0594513
0.0436527
0.0364799
0.0338128
0.0330768
0.0327155
0.0325791
0.0325238
0.0325126
0.0325985
0.0325997
0.0325723
0.0325501
0.03254
0.0325951
0.0327195
0.033019
0.0337446
0.0363427
0.0432669
0.0541231
0.0665096
0.0866835
0.0793106
0.0642856
0.0618302
0.0751824
0.0469124
0.0424413
0.0405301
0.0384755
0.0377835
0.037286
0.0375432
0.0371043
0.0376421
0.0372001
0.037313
0.0373068
0.0376441
0.0382838
0.0401042
0.0425051
0.048422
0.0706356
0.0599248
0.0655763
0.0819013
0.075298
0.0641103
0.0604283
0.0686989
0.0597023
0.0547431
0.05834
0.0542472
0.0514705
0.049752
0.0504302
0.0494265
0.0501505
0.049326
0.0496884
0.0497452
0.050589
0.0527301
0.058201
0.0558533
0.0596739
0.066667
0.0590704
0.0647912
0.0755851
0.067995
0.064067
0.0623251
0.0690555
0.0663893
0.0778969
0.0819273
0.0685783
0.0665177
0.06717
0.0673999
0.0690773
0.0677612
0.068777
0.0680385
0.0683445
0.066892
0.0659447
0.075531
0.0820979
0.0691745
0.0686425
0.0604089
0.0641454
0.0683847
0.0657613
0.0658232
0.0666803
0.0729474
0.0701653
0.0866235
0.0810049
0.0644405
0.0630006
0.0621056
0.0637718
0.0638078
0.0642415
0.0637564
0.0638291
0.0634699
0.0631783
0.0618471
0.0730449
0.089813
0.075195
0.0737251
0.0661077
0.0660126
0.0667523
0.062106
0.0693021
0.0706102
0.0704609
0.0668666
0.0823784
0.0785633
0.0650418
0.0617821
0.0603066
0.061226
0.060808
0.0615946
0.0608388
0.0613332
0.0614705
0.0616453
0.0625399
0.0732658
0.0824836
0.0709751
0.0718803
0.0714469
0.0707515
0.0630028
0.0556004
0.0705473
0.0718135
0.068537
0.0640493
0.072538
0.0757413
0.0688539
0.0634347
0.0600596
0.0593388
0.0584649
0.0590706
0.0584048
0.0592174
0.0601134
0.0618482
0.065654
0.0732077
0.0738537
0.0664407
0.0695152
0.072288
0.0729941
0.057555
0.0525916
0.0704069
0.0688826
0.0660451
0.0622119
0.0666675
0.0721092
0.0703241
0.0651147
0.0603855
0.0580928
0.0565641
0.0568518
0.0565127
0.0578989
0.0599855
0.0633525
0.0679542
0.0711968
0.0680809
0.0639056
0.0667728
0.0691469
0.0704156
0.0530943
0.0616097
0.0664695
0.0648999
0.063024
0.0601157
0.063332
0.0690766
0.0694651
0.0650845
0.0599548
0.0566972
0.0545858
0.0546175
0.0546391
0.0566145
0.0595255
0.0635077
0.0677118
0.0688476
0.0647959
0.0616327
0.0637727
0.0648643
0.0655418
0.0616088
0.0775071
0.0687355
0.0626486
0.0608806
0.0583715
0.0610845
0.0664638
0.0677467
0.0640479
0.0588347
0.0550336
0.0525416
0.0523552
0.0526239
0.0549512
0.0583133
0.0624913
0.0662143
0.0665428
0.0626656
0.0598247
0.0615761
0.062203
0.0675866
0.0773184
0.0915581
0.0745392
0.0613645
0.0587617
0.0566687
0.0591035
0.0641242
0.0657142
0.0624106
0.0572509
0.0531926
0.0504873
0.050137
0.050501
0.0529923
0.0565407
0.0606976
0.064144
0.0642723
0.0606925
0.0580215
0.0594206
0.0607435
0.0731863
0.09182
0.100787
0.0762293
0.0598219
0.0568099
0.0550763
0.0571408
0.0618882
0.0635969
0.0602727
0.055127
0.0510983
0.0483903
0.0480196
0.0484682
0.0509969
0.0545609
0.058646
0.0620373
0.0620271
0.0585839
0.0564912
0.0577648
0.0596248
0.0745195
0.0994601
0.106581
0.0769453
0.0585156
0.0552663
0.0537054
0.05547
0.0598165
0.0613649
0.0580874
0.0530662
0.0490827
0.0464327
0.0460604
0.0465322
0.0490386
0.0525945
0.0566125
0.0598448
0.059847
0.0567267
0.0550798
0.0563795
0.0587086
0.0758463
0.105288
0.113045
0.0779534
0.0578392
0.0541683
0.052591
0.0541148
0.0578994
0.059054
0.0558303
0.0510534
0.0472088
0.044637
0.0442381
0.0447187
0.0471323
0.0505597
0.054378
0.0574763
0.057723
0.0551725
0.0538516
0.0552614
0.0580995
0.0763337
0.112258
0.119951
0.0788632
0.05735
0.0533866
0.051757
0.0530088
0.0560407
0.0566361
0.0534793
0.049011
0.0453688
0.0429742
0.0425762
0.0430634
0.0454074
0.0487233
0.0523657
0.0552975
0.055789
0.053851
0.0529032
0.0545329
0.0578224
0.077793
0.11791
0.125748
0.0801212
0.0572641
0.0527517
0.0511772
0.0520761
0.0543412
0.0544011
0.0513133
0.0471622
0.0437373
0.0414746
0.0410636
0.0415499
0.0437728
0.0468911
0.0502995
0.0531158
0.0539423
0.0527408
0.0522142
0.053871
0.0576675
0.0787557
0.124593
0.13316
0.0808519
0.0571798
0.0521738
0.0507084
0.051294
0.0527777
0.0523552
0.0493444
0.0454659
0.0422415
0.0401087
0.0396863
0.040159
0.0422197
0.0451443
0.0483503
0.0510422
0.0521744
0.051742
0.0515882
0.053209
0.0575579
0.0786275
0.131402
0.140264
0.0811852
0.0571599
0.0516375
0.0501998
0.0505442
0.0512449
0.0502749
0.0473123
0.043762
0.0408009
0.038853
0.038435
0.0389196
0.0408896
0.0436286
0.0466422
0.0492797
0.050698
0.0508543
0.0509549
0.0526582
0.0576878
0.0794421
0.137718
0.143637
0.0817162
0.0574937
0.0513513
0.0496413
0.04974
0.0498704
0.0485419
0.0456323
0.0423051
0.0395343
0.0377158
0.0372996
0.037776
0.0395932
0.042159
0.0450206
0.0475971
0.0492465
0.0498909
0.0502468
0.0522905
0.057856
0.0798828
0.143092
0.147182
0.0827282
0.0579833
0.0513873
0.0490903
0.0489198
0.0486329
0.0469794
0.0441146
0.0409906
0.0384054
0.0366937
0.0362688
0.0367419
0.0384345
0.040817
0.0435401
0.0460848
0.0479507
0.0489235
0.0495887
0.0521752
0.0582069
0.0804172
0.146097
0.151073
0.0828726
0.0588653
0.0515986
0.048638
0.0480436
0.0473691
0.0454885
0.0426975
0.0397501
0.0373199
0.0357452
0.0353298
0.0358057
0.0374021
0.039671
0.0422976
0.0447774
0.0467537
0.0479883
0.0490493
0.0522661
0.0589442
0.0814083
0.149414
0.153729
0.0831961
0.0598263
0.0521322
0.0483439
0.0472598
0.0462355
0.0442029
0.0414558
0.0386714
0.0363914
0.0349013
0.0344771
0.0349512
0.0364491
0.038566
0.041085
0.0435477
0.0455986
0.0471197
0.0486916
0.0525946
0.0600039
0.0817256
0.15278
0.156432
0.0842171
0.0601745
0.0528369
0.048299
0.0465469
0.0451634
0.0430423
0.0403901
0.0377315
0.0355358
0.0341301
0.0337044
0.0341693
0.0355753
0.037612
0.0400289
0.042425
0.044517
0.0463625
0.0485955
0.0532443
0.0607185
0.0821146
0.155036
0.159238
0.0840883
0.0600433
0.0535279
0.0484783
0.0459637
0.0441755
0.0419141
0.03933
0.0368106
0.0347518
0.0334268
0.0330041
0.0334772
0.0348347
0.0367579
0.0390853
0.0414458
0.0435968
0.0457792
0.048708
0.0540369
0.0608433
0.0832549
0.157242
0.160964
0.0843392
0.0599769
0.0547951
0.0488837
0.0456151
0.0433269
0.0409393
0.0384308
0.0360286
0.034052
0.0327913
0.0323674
0.0328367
0.0341107
0.0359661
0.038184
0.0405006
0.0427522
0.0453948
0.0489898
0.0552087
0.0605627
0.083144
0.159628
0.162948
0.0848453
0.0598991
0.0557054
0.0496016
0.0454983
0.0426925
0.0401031
0.0375993
0.0352887
0.0334198
0.0322169
0.0317902
0.0322596
0.0334655
0.0352149
0.0373654
0.039714
0.0421569
0.0452592
0.0496724
0.0560479
0.0602164
0.0831671
0.161453
0.165038
0.0846895
0.0591888
0.0556873
0.0504583
0.0455337
0.0422598
0.0393717
0.0368348
0.0346028
0.0328112
0.031675
0.0312593
0.0317298
0.0328833
0.0345797
0.036676
0.039082
0.0418287
0.0453137
0.0505934
0.0561966
0.0596695
0.0837345
0.163476
0.166416
0.0850116
0.0584117
0.0555382
0.0520262
0.0459415
0.0420777
0.0388829
0.036195
0.0339963
0.032281
0.0311889
0.0307723
0.0312383
0.0323386
0.0339593
0.0360423
0.0386278
0.0416666
0.0456348
0.052037
0.0559613
0.0587244
0.0837728
0.165394
0.167863
0.0860856
0.0579512
0.055131
0.0530982
0.0467673
0.0420772
0.0385994
0.0357206
0.0334828
0.0317887
0.0307371
0.0303224
0.0307753
0.0318377
0.0334326
0.0355624
0.0383624
0.0417068
0.0465003
0.0530728
0.0554865
0.0579632
0.0842635
0.166682
0.169209
0.0865891
0.0572871
0.0544047
0.0530563
0.0481423
0.042278
0.0384408
0.0353879
0.0330361
0.0313414
0.0303192
0.0299072
0.0303656
0.0314092
0.0330236
0.0352805
0.0382481
0.0421274
0.048146
0.0529574
0.0548137
0.0578048
0.085703
0.168101
0.169942
0.0875164
0.0570026
0.0536388
0.0526371
0.0496425
0.0430967
0.0384833
0.0352548
0.0327113
0.0309624
0.0299362
0.0295234
0.029984
0.0310199
0.0327011
0.0351272
0.0382452
0.0430093
0.049519
0.0524888
0.0540297
0.0572897
0.0862131
0.169264
0.170724
0.0891778
0.0573427
0.0530366
0.0519889
0.0500325
0.0445938
0.0388469
0.0351917
0.0325374
0.0306935
0.0296168
0.0291819
0.0296608
0.03075
0.0325281
0.0350523
0.0385717
0.0448142
0.0498476
0.0517684
0.053394
0.057211
0.087087
0.170008
0.171734
0.089685
0.057229
0.0524529
0.0511997
0.0497671
0.0468096
0.0397365
0.0352566
0.0324734
0.0305614
0.0293842
0.0289138
0.0294315
0.030626
0.0324859
0.0351592
0.0396962
0.046579
0.0495728
0.0509924
0.0529077
0.0576528
0.0886085
0.170756
0.172149
0.0907659
0.0577612
0.0520862
0.0505105
0.0494172
0.0479916
0.0421072
0.0356677
0.0324891
0.0305384
0.0292895
0.0287526
0.0293301
0.0305854
0.0324778
0.0355307
0.041605
0.0470739
0.0491095
0.0503428
0.0524876
0.0578431
0.0892214
0.171603
0.17249
0.0922358
0.0585607
0.0519351
0.0499929
0.0489223
0.0478083
0.0442309
0.0371137
0.0326263
0.0305258
0.0292636
0.0286759
0.0292981
0.0305742
0.0325985
0.0367615
0.0436334
0.0469381
0.0485345
0.049842
0.0522512
0.0582461
0.0901505
0.171929
0.172184
0.092536
0.058885
0.0518192
0.0495758
0.0484039
0.0474253
0.0449029
0.0394737
0.0332182
0.0305682
0.0292503
0.0286541
0.029287
0.030649
0.0332764
0.0391271
0.0444676
0.0466734
0.0480292
0.0494945
0.0522246
0.059057
0.0914328
0.171355
0.170542
0.0926577
0.0592517
0.0517881
0.0493189
0.0479576
0.0468888
0.0448628
0.041606
0.0347714
0.0308431
0.0292763
0.0286629
0.0293115
0.0309433
0.0347317
0.0409545
0.0444412
0.0462449
0.0476046
0.0492611
0.052158
0.059358
0.091474
0.169808
0.164366
0.0915408
0.0596149
0.0517155
0.0490676
0.0475814
0.0463517
0.0446063
0.0423399
0.0373206
0.0317909
0.0294634
0.0287774
0.0294845
0.0318744
0.0370079
0.0415064
0.0441925
0.0458093
0.0472738
0.049033
0.0520207
0.059522
0.0901077
0.163854
0.13268
0.300973
0.332137
0.33687
0.33753
0.337706
0.337676
0.337514
0.337243
0.336936
0.336673
0.33646
0.336286
0.336136
0.335984
0.335834
0.335703
0.335593
0.335502
0.335423
0.335351
0.335282
0.335214
0.335147
0.335077
0.335009
0.334831
0.333329
0.315967
0.146919
0.102587
0.287413
0.327735
0.33486
0.336101
0.336681
0.336904
0.336686
0.335999
0.335002
0.33413
0.333516
0.333122
0.33285
0.332643
0.332462
0.332305
0.332175
0.332067
0.331975
0.331892
0.331814
0.331738
0.331665
0.331588
0.331498
0.331103
0.327308
0.294962
0.122657
0.0998075
0.284043
0.327197
0.335128
0.337265
0.338896
0.340069
0.34033
0.339293
0.336791
0.334022
0.33207
0.331041
0.330508
0.330194
0.329978
0.329809
0.32967
0.329555
0.329459
0.329373
0.329293
0.329218
0.329145
0.32907
0.32897
0.328439
0.323461
0.285537
0.114623
0.101165
0.282771
0.329527
0.339428
0.343653
0.347958
0.351766
0.35416
0.35418
0.349639
0.342103
0.334707
0.330513
0.328801
0.328119
0.327789
0.327602
0.327481
0.327393
0.327326
0.327271
0.327223
0.327179
0.327137
0.327094
0.327021
0.326466
0.321113
0.281897
0.11199
0.10175
0.286393
0.338714
0.351217
0.355969
0.359846
0.364695
0.370177
0.375639
0.378918
0.372705
0.354503
0.338459
0.33029
0.327716
0.326911
0.3266
0.32646
0.326388
0.326345
0.326316
0.326295
0.326276
0.32626
0.326242
0.32619
0.325634
0.320131
0.280539
0.110652
0.103665
0.293273
0.345855
0.356281
0.359346
0.362925
0.368434
0.37522
0.382999
0.391351
0.398561
0.398348
0.373449
0.343856
0.33062
0.327285
0.326444
0.326174
0.326076
0.326036
0.326017
0.326007
0.326
0.325994
0.325987
0.325941
0.325376
0.319746
0.279804
0.109581
0.104847
0.29315
0.346086
0.356701
0.360401
0.365012
0.37153
0.379367
0.388312
0.397652
0.40703
0.415869
0.41881
0.392508
0.348478
0.330698
0.327031
0.326249
0.326032
0.325967
0.325945
0.325936
0.325933
0.325931
0.325926
0.325882
0.3253
0.319539
0.279196
0.108601
0.105347
0.292279
0.345465
0.356756
0.361255
0.366914
0.374254
0.383127
0.393414
0.40402
0.414286
0.423791
0.432824
0.436333
0.406771
0.350364
0.330231
0.326793
0.326139
0.325977
0.325935
0.325923
0.325919
0.325918
0.325915
0.325868
0.325269
0.319382
0.278627
0.107698
0.105704
0.291924
0.34454
0.356487
0.362096
0.369217
0.377569
0.387226
0.398164
0.409536
0.421047
0.431717
0.440928
0.449384
0.45186
0.414011
0.34877
0.329348
0.326562
0.326062
0.32595
0.325924
0.325918
0.325916
0.325913
0.325865
0.325249
0.319244
0.278096
0.106879
0.105757
0.291883
0.343993
0.356752
0.363858
0.372524
0.381792
0.392022
0.403506
0.414953
0.426607
0.438211
0.448766
0.457475
0.465175
0.465035
0.412247
0.344263
0.328351
0.326359
0.326007
0.325934
0.325919
0.325916
0.325912
0.325863
0.325231
0.319119
0.277603
0.106139
0.105581
0.292194
0.344041
0.35785
0.36655
0.376478
0.386463
0.396857
0.408285
0.420085
0.431619
0.442988
0.454415
0.464675
0.472829
0.479849
0.474523
0.400067
0.338509
0.327505
0.3262
0.32597
0.325925
0.325917
0.325912
0.325861
0.325215
0.319002
0.277144
0.105468
0.105381
0.293365
0.34508
0.35999
0.369857
0.380234
0.39039
0.400585
0.411368
0.423135
0.434908
0.446158
0.457559
0.468991
0.479044
0.486864
0.493038
0.477281
0.380879
0.333389
0.32688
0.326086
0.325946
0.32592
0.325913
0.32586
0.325199
0.318893
0.276716
0.104859
0.105248
0.295835
0.347299
0.362808
0.372453
0.382174
0.391631
0.401184
0.411065
0.422104
0.434479
0.446015
0.4578
0.469838
0.481756
0.491864
0.499802
0.503687
0.465331
0.360388
0.329898
0.326465
0.326012
0.325931
0.325914
0.325858
0.325185
0.318791
0.276321
0.104303
0.105385
0.299568
0.35059
0.364991
0.372192
0.37984
0.387608
0.396215
0.404983
0.415333
0.427917
0.440526
0.453425
0.466555
0.480062
0.492999
0.50343
0.511749
0.510022
0.435188
0.344751
0.32792
0.326211
0.325966
0.325919
0.325858
0.325171
0.318697
0.275955
0.103798
0.106148
0.305234
0.353578
0.363574
0.365808
0.370226
0.375676
0.383178
0.390943
0.400863
0.413452
0.427916
0.442545
0.457708
0.473213
0.488871
0.503147
0.514254
0.523224
0.50603
0.394727
0.334701
0.326893
0.326066
0.325936
0.325859
0.325159
0.318612
0.275627
0.103343
0.106843
0.310399
0.352903
0.355253
0.350543
0.350833
0.353933
0.36013
0.367736
0.377434
0.390584
0.406747
0.423925
0.441816
0.460245
0.478842
0.496881
0.512396
0.5252
0.529684
0.481378
0.361119
0.329636
0.326377
0.325984
0.325865
0.325148
0.318535
0.27533
0.102934
0.108732
0.313709
0.343573
0.334905
0.323679
0.32111
0.322352
0.328271
0.336218
0.346364
0.359549
0.37709
0.397279
0.418179
0.440145
0.46229
0.48413
0.504532
0.521673
0.536616
0.52915
0.430175
0.341453
0.327452
0.326121
0.325886
0.325141
0.318466
0.275066
0.102569
0.110162
0.308861
0.320719
0.303082
0.287079
0.282395
0.283014
0.28927
0.297665
0.308971
0.321826
0.340289
0.363205
0.386927
0.412475
0.438602
0.464569
0.489908
0.512664
0.532941
0.542626
0.51158
0.377993
0.331736
0.32654
0.325943
0.325142
0.318408
0.274836
0.102248
0.113224
0.29175
0.283348
0.260026
0.243397
0.239489
0.240529
0.24676
0.25518
0.267124
0.280156
0.299138
0.323382
0.349296
0.377735
0.407726
0.438218
0.468287
0.496799
0.52232
0.541239
0.541766
0.455143
0.347452
0.327968
0.326104
0.325158
0.318359
0.274635
0.101968
0.115001
0.262798
0.240762
0.218154
0.203657
0.199175
0.200588
0.206396
0.214631
0.225646
0.238154
0.25611
0.280141
0.307347
0.337599
0.370591
0.405246
0.439854
0.473975
0.505405
0.534185
0.548309
0.52588
0.389673
0.333319
0.32658
0.325212
0.318324
0.274465
0.101725
0.119247
0.222988
0.199166
0.183092
0.173431
0.169967
0.171395
0.175524
0.180777
0.189011
0.199913
0.215333
0.238082
0.264809
0.295297
0.329653
0.366869
0.40538
0.444277
0.481674
0.517025
0.542183
0.549775
0.468318
0.350502
0.328162
0.325371
0.318311
0.274327
0.101521
0.122688
0.191942
0.173265
0.166802
0.166234
0.161623
0.157634
0.155944
0.157609
0.162554
0.170746
0.183323
0.202929
0.227179
0.255315
0.288435
0.325556
0.366204
0.408459
0.45084
0.492017
0.528463
0.549927
0.532372
0.392392
0.333645
0.325826
0.318337
0.274219
0.101349
0.132982
0.170358
0.17124
0.18467
0.188436
0.175935
0.160534
0.152136
0.14938
0.150008
0.154083
0.162351
0.176283
0.195793
0.219761
0.249586
0.284935
0.325135
0.368792
0.414651
0.460534
0.506406
0.538115
0.550765
0.466845
0.34924
0.327262
0.318459
0.274152
0.101212
0.144206
0.181632
0.196554
0.220957
0.221004
0.204155
0.184236
0.165788
0.154913
0.149525
0.148119
0.149858
0.157724
0.172581
0.191829
0.217323
0.249155
0.286828
0.329589
0.376454
0.425224
0.475304
0.518056
0.546501
0.527585
0.383154
0.331798
0.318818
0.274136
0.101109
0.16491
0.210024
0.237147
0.284697
0.261567
0.239274
0.217414
0.193074
0.169971
0.156418
0.148557
0.145211
0.148483
0.158851
0.173301
0.193836
0.220876
0.254529
0.294229
0.339392
0.388653
0.440578
0.492591
0.530506
0.545856
0.449077
0.343679
0.319879
0.274198
0.101035
0.146918
0.315967
0.333329
0.334831
0.335009
0.335077
0.335148
0.335215
0.335283
0.335352
0.335424
0.335503
0.335594
0.335704
0.335836
0.335985
0.336137
0.336287
0.336461
0.336672
0.336934
0.337241
0.337512
0.337674
0.337706
0.33753
0.33687
0.332136
0.300964
0.132652
0.122656
0.294961
0.327308
0.331103
0.331498
0.331588
0.331665
0.331739
0.331814
0.331892
0.331975
0.332067
0.332175
0.332305
0.332462
0.332643
0.332849
0.333121
0.333512
0.334123
0.334989
0.335982
0.33667
0.33689
0.336671
0.336094
0.334856
0.327733
0.287413
0.102602
0.114621
0.285536
0.32346
0.328439
0.328971
0.32907
0.329145
0.329218
0.329294
0.329373
0.329459
0.329556
0.32967
0.329809
0.329978
0.330193
0.330506
0.331035
0.332054
0.333987
0.336735
0.33923
0.340272
0.340022
0.338863
0.337243
0.335114
0.32719
0.284046
0.0997842
0.11199
0.281897
0.321113
0.326466
0.327021
0.327094
0.327137
0.327179
0.327223
0.327271
0.327326
0.327393
0.327481
0.327602
0.327788
0.328116
0.328792
0.330482
0.334621
0.341945
0.349438
0.353987
0.354002
0.351642
0.347864
0.343585
0.339383
0.3295
0.282774
0.1012
0.110652
0.28054
0.320132
0.325634
0.32619
0.326242
0.32626
0.326276
0.326295
0.326316
0.326345
0.326388
0.32646
0.326599
0.326908
0.327704
0.33024
0.338286
0.354164
0.372311
0.378644
0.375449
0.370027
0.364574
0.35974
0.355872
0.351123
0.338637
0.286332
0.10176
0.10958
0.279803
0.319745
0.325376
0.325941
0.325987
0.325994
0.326
0.326007
0.326017
0.326036
0.326076
0.326173
0.326441
0.327272
0.330549
0.343571
0.372846
0.397902
0.398291
0.391139
0.38282
0.375069
0.368311
0.362821
0.359257
0.3562
0.345785
0.293218
0.103602
0.108601
0.279198
0.31954
0.3253
0.325882
0.325926
0.325931
0.325933
0.325936
0.325945
0.325967
0.326032
0.326246
0.327018
0.330614
0.348085
0.391694
0.418351
0.415558
0.406769
0.397421
0.388114
0.3792
0.371394
0.364899
0.360308
0.356623
0.346034
0.293156
0.104909
0.107699
0.278628
0.319382
0.325269
0.325868
0.325915
0.325918
0.325919
0.325923
0.325935
0.325977
0.326136
0.326782
0.330153
0.349927
0.405859
0.435876
0.432488
0.423482
0.414006
0.403773
0.393204
0.382945
0.374104
0.366788
0.361153
0.356669
0.345386
0.292192
0.1053
0.106879
0.278096
0.319244
0.325249
0.325865
0.325913
0.325916
0.325918
0.325924
0.325949
0.32606
0.326553
0.329283
0.348322
0.41292
0.451319
0.448994
0.440565
0.431386
0.420756
0.409279
0.397941
0.387027
0.377402
0.369077
0.361987
0.356399
0.344472
0.291887
0.105697
0.106139
0.277604
0.319119
0.325231
0.325863
0.325912
0.325916
0.325919
0.325934
0.326006
0.326353
0.328307
0.34388
0.411043
0.464425
0.464753
0.457083
0.448412
0.437894
0.426323
0.414694
0.403281
0.391819
0.381615
0.372373
0.363737
0.356657
0.343917
0.291831
0.105758
0.105468
0.277143
0.319002
0.325215
0.325861
0.325912
0.325917
0.325925
0.325969
0.326196
0.327477
0.338232
0.398852
0.473795
0.479394
0.472414
0.464304
0.454089
0.4427
0.431364
0.419855
0.408091
0.39667
0.38629
0.376326
0.36642
0.357747
0.343953
0.292115
0.105522
0.104858
0.276717
0.318893
0.325199
0.32586
0.325913
0.32592
0.325945
0.326084
0.326864
0.333218
0.379828
0.476275
0.492511
0.486432
0.478666
0.468673
0.457287
0.445923
0.434712
0.422962
0.411229
0.400451
0.390255
0.38011
0.369737
0.359888
0.345
0.293335
0.105391
0.104304
0.276321
0.318791
0.325185
0.325858
0.325914
0.325931
0.32601
0.326456
0.329811
0.359689
0.463912
0.503091
0.499372
0.491501
0.481467
0.469613
0.457632
0.445897
0.43441
0.422055
0.411042
0.401159
0.391588
0.38212
0.37237
0.362717
0.347209
0.295749
0.105209
0.103798
0.275955
0.318697
0.325171
0.325858
0.325919
0.325965
0.326207
0.32788
0.344321
0.433571
0.509249
0.511286
0.503062
0.492733
0.479891
0.466468
0.453412
0.440573
0.428024
0.415454
0.405122
0.396353
0.387719
0.379917
0.372191
0.364955
0.350531
0.299483
0.105337
0.103342
0.275627
0.318612
0.325159
0.325859
0.325936
0.326064
0.326875
0.334488
0.393411
0.505004
0.52273
0.513896
0.502912
0.488762
0.473214
0.457815
0.442748
0.428192
0.413803
0.401217
0.391289
0.383546
0.376001
0.370514
0.36598
0.363643
0.353578
0.30518
0.106107
0.102935
0.275331
0.318535
0.325148
0.325865
0.325983
0.326369
0.32955
0.360361
0.479663
0.528919
0.524861
0.512183
0.496829
0.478937
0.460473
0.442165
0.424378
0.407277
0.3912
0.378032
0.368345
0.360743
0.354503
0.351389
0.350946
0.355501
0.353036
0.31039
0.106822
0.10257
0.275066
0.318466
0.325141
0.325885
0.326117
0.327419
0.341072
0.42845
0.528212
0.5362
0.521504
0.504525
0.4843
0.462638
0.44065
0.418812
0.398013
0.377886
0.36041
0.347303
0.337095
0.329132
0.323157
0.321878
0.324284
0.335353
0.343865
0.313802
0.108707
0.102248
0.274835
0.318407
0.325142
0.325941
0.326527
0.331587
0.376802
0.510069
0.542126
0.532843
0.512704
0.490153
0.465006
0.439228
0.41328
0.387861
0.364258
0.341367
0.322889
0.310082
0.298681
0.290217
0.283843
0.283232
0.28773
0.303667
0.32121
0.309136
0.110172
0.101968
0.274636
0.318359
0.325157
0.3261
0.327919
0.346937
0.453234
0.541044
0.540973
0.522477
0.497117
0.468833
0.438951
0.408613
0.378791
0.350437
0.324594
0.300354
0.281275
0.268238
0.25617
0.247661
0.241254
0.240269
0.243994
0.260566
0.283948
0.292126
0.113285
0.101725
0.274465
0.318324
0.325211
0.326565
0.333126
0.388286
0.524627
0.547996
0.534292
0.5058
0.474585
0.440693
0.406283
0.371716
0.338804
0.308591
0.281423
0.25728
0.239163
0.226586
0.215472
0.20713
0.201139
0.199729
0.204088
0.218663
0.241268
0.263234
0.115111
0.10152
0.274327
0.31831
0.325366
0.328104
0.349924
0.466407
0.54934
0.542258
0.517536
0.48235
0.445168
0.406461
0.36811
0.330933
0.296509
0.266007
0.239154
0.216381
0.200709
0.189638
0.181373
0.175946
0.171734
0.170243
0.173641
0.183634
0.199736
0.223441
0.119422
0.10135
0.27422
0.318336
0.32581
0.333433
0.39091
0.531364
0.549968
0.528774
0.492753
0.451756
0.409496
0.367312
0.3267
0.289548
0.256365
0.228096
0.203728
0.184055
0.171255
0.16292
0.15795
0.156111
0.157723
0.161632
0.166259
0.166904
0.173714
0.192391
0.12293
0.101213
0.274151
0.318454
0.327205
0.348705
0.465038
0.550642
0.538545
0.507215
0.461465
0.415692
0.369855
0.32621
0.285887
0.250454
0.220462
0.196411
0.176709
0.162716
0.154225
0.150127
0.14945
0.152097
0.160469
0.176044
0.188483
0.18478
0.171654
0.17095
0.133272
0.101108
0.274133
0.318804
0.331616
0.381875
0.526728
0.546917
0.518798
0.47633
0.42628
0.377544
0.330639
0.287782
0.249983
0.218012
0.192353
0.17299
0.157904
0.149973
0.14796
0.149374
0.154653
0.165278
0.183748
0.204291
0.221726
0.222225
0.197148
0.182788
0.144675
0.101035
0.274194
0.319835
0.343263
0.447375
0.546053
0.531295
0.493549
0.441685
0.389737
0.34044
0.295165
0.255329
0.221533
0.19433
0.173628
0.159042
0.14847
0.145227
0.148392
0.156063
0.169526
0.192109
0.216964
0.239751
0.263028
0.28448
0.237852
0.212618
0.166465
0.0774687
0.0776518
0.0778366
0.0780214
0.0782063
0.0783913
0.0785763
0.0787615
0.0789468
0.0791322
0.0793176
0.0795032
0.0796888
0.0798746
0.0800604
0.0802463
0.0804323
0.0806185
0.0808047
0.080991
0.0811773
0.0813638
0.0815504
0.081737
0.0819238
0.0821106
0.0822976
0.0824846
0.0826717
0.0828589
0.0830462
0.0832336
0.083421
0.0836086
0.0837962
0.083984
0.0841718
0.0843597
0.0845477
0.0847358
0.084924
0.0851122
0.0853006
0.085489
0.0856775
0.0858661
0.0860548
0.0862436
0.0864325
0.0866214
0.0868105
0.0869996
0.0871888
0.0873781
0.0875675
0.0877569
0.0879465
0.0881361
0.0883258
0.0885156
0.0887055
0.0888954
0.0890855
0.0892756
0.0894658
0.0896561
0.0898465
0.0900369
0.0902275
0.0904181
0.0906088
0.0907996
0.0909904
0.0911814
0.0913724
0.0915635
0.0917547
0.091946
0.0921373
0.0923287
0.0925202
0.0927119
0.0929039
0.093098
0.0932994
0.0935272
0.0938504
0.0945009
0.0961985
0.10072
0.110902
0.128117
0.153092
0.180491
0.200915
0.215588
0.226064
0.233456
0.238335
0.241174
0.242561
0.242885
0.242311
0.240811
0.238437
0.23521
0.231211
0.226481
0.220977
0.214246
0.206048
0.195873
0.183328
0.167682
0.14852
0.127065
0.115178
0.107538
0.103293
0.101512
0.100861
0.100702
0.100751
0.100877
0.10103
0.249174
0.249456
0.249699
0.249934
0.250167
0.250399
0.25063
0.250861
0.251091
0.251321
0.25155
0.251778
0.252005
0.252232
0.252459
0.252684
0.25291
0.253134
0.253358
0.253581
0.253804
0.254026
0.254247
0.254468
0.254688
0.254908
0.255127
0.255345
0.255563
0.25578
0.255996
0.256212
0.256428
0.256642
0.256856
0.25707
0.257283
0.257495
0.257707
0.257918
0.258129
0.258339
0.258548
0.258757
0.258965
0.259173
0.25938
0.259586
0.259792
0.259997
0.260202
0.260406
0.260609
0.260812
0.261015
0.261217
0.261418
0.261618
0.261819
0.262018
0.262217
0.262415
0.262613
0.26281
0.263007
0.263203
0.263399
0.263594
0.263788
0.263982
0.264175
0.264368
0.26456
0.264752
0.264943
0.265134
0.265324
0.265513
0.265702
0.26589
0.266079
0.266271
0.266484
0.266783
0.267258
0.265192
0.241222
0.189571
0.162462
0.176091
0.205739
0.232721
0.252351
0.264119
0.272135
0.278047
0.282787
0.286872
0.290573
0.294239
0.29795
0.301547
0.305072
0.308673
0.312539
0.3168
0.321654
0.327519
0.334704
0.343516
0.354123
0.366102
0.378701
0.390658
0.399562
0.400591
0.38505
0.356849
0.322688
0.30139
0.289644
0.281177
0.276627
0.274849
0.274334
0.309393
0.309518
0.309623
0.309724
0.309823
0.309922
0.310019
0.310117
0.310213
0.310309
0.310405
0.310499
0.310594
0.310687
0.31078
0.310873
0.310964
0.311056
0.311146
0.311236
0.311326
0.311415
0.311503
0.311591
0.311679
0.311765
0.311852
0.311937
0.312022
0.312107
0.312191
0.312275
0.312358
0.31244
0.312522
0.312604
0.312685
0.312765
0.312845
0.312924
0.313003
0.313082
0.31316
0.313237
0.313314
0.313391
0.313467
0.313542
0.313617
0.313692
0.313766
0.31384
0.313913
0.313985
0.314058
0.31413
0.314201
0.314272
0.314342
0.314412
0.314482
0.314551
0.31462
0.314688
0.314756
0.314823
0.31489
0.314957
0.315023
0.315089
0.315154
0.315219
0.315283
0.315348
0.315411
0.315474
0.315537
0.3156
0.315662
0.315727
0.315807
0.315966
0.316038
0.305055
0.237903
0.169055
0.172572
0.207334
0.237134
0.255605
0.265074
0.270318
0.273445
0.275215
0.276084
0.276654
0.277206
0.278012
0.279159
0.280518
0.281995
0.2836
0.285362
0.287401
0.289998
0.293176
0.297137
0.30227
0.308945
0.317526
0.328461
0.342094
0.358588
0.377889
0.399577
0.422382
0.444163
0.461744
0.469233
0.45404
0.415229
0.369477
0.34437
0.330608
0.322932
0.323304
0.323336
0.323362
0.323387
0.323411
0.323435
0.323458