/*--------------------------------*- C++ -*----------------------------------*\
| =========                 |                                                 |
| \\      /  F ield         | OpenFOAM: The Open Source CFD Toolbox           |
|  \\    /   O peration     | Version:  2112                                  |
|   \\  /    A nd           | Website:  www.openfoam.com                      |
|    \\/     M anipulation  |                                                 |
\*---------------------------------------------------------------------------*/
FoamFile
{
    version     2.0;
    format      ascii;
    arch        "LSB;label=32;scalar=64";
    class       volScalarField;
    location    "0.00106";
    object      epsilon;
}
// * * * * * * * * * * * * * * * * * * * * * * * * * * * * * * * * * * * * * //

dimensions      [0 2 -3 0 0 0 0];

internalField   nonuniform List<scalar> 
13875
(
1.16001e+06
2.94707e+07
3.28082e+07
3.28479e+07
3.29607e+07
3.28453e+07
3.28669e+07
3.29125e+07
3.29532e+07
3.29154e+07
3.28673e+07
3.2897e+07
3.28794e+07
3.29025e+07
3.29389e+07
3.29004e+07
3.28813e+07
3.28708e+07
3.29111e+07
3.28564e+07
3.29409e+07
3.28312e+07
3.28002e+07
2.94701e+07
1.17825e+06
1.31374e+06
2.27576e+07
2.53476e+07
2.52492e+07
2.5311e+07
2.52065e+07
2.521e+07
2.52283e+07
2.52464e+07
2.52426e+07
2.52241e+07
2.52241e+07
2.52304e+07
2.52423e+07
2.52326e+07
2.52345e+07
2.52176e+07
2.52069e+07
2.52431e+07
2.52141e+07
2.52912e+07
2.5219e+07
2.5327e+07
2.27494e+07
1.34262e+06
1.5731e+06
1.97182e+07
2.18268e+07
2.16383e+07
2.1705e+07
2.16229e+07
2.16164e+07
2.16112e+07
2.15561e+07
2.15544e+07
2.15407e+07
2.15275e+07
2.15437e+07
2.15624e+07
2.15347e+07
2.15331e+07
2.15948e+07
2.16067e+07
2.16422e+07
2.16262e+07
2.16864e+07
2.15991e+07
2.17902e+07
1.96866e+07
1.58487e+06
1.81405e+06
1.73958e+07
1.90362e+07
1.8891e+07
1.89697e+07
1.89035e+07
1.88951e+07
1.88836e+07
1.88305e+07
1.88131e+07
1.87933e+07
1.87974e+07
1.87934e+07
1.88197e+07
1.88047e+07
1.8788e+07
1.88735e+07
1.8883e+07
1.89144e+07
1.89053e+07
1.89546e+07
1.88548e+07
1.90139e+07
1.73625e+07
1.82184e+06
2.02367e+06
1.54621e+07
1.67716e+07
1.66309e+07
1.67023e+07
1.66492e+07
1.66398e+07
1.66236e+07
1.658e+07
1.65614e+07
1.65417e+07
1.65527e+07
1.65444e+07
1.6565e+07
1.65545e+07
1.65368e+07
1.66177e+07
1.66269e+07
1.66548e+07
1.66486e+07
1.66901e+07
1.66014e+07
1.67431e+07
1.54277e+07
2.03862e+06
2.20849e+06
1.37271e+07
1.49309e+07
1.4749e+07
1.48279e+07
1.47784e+07
1.47629e+07
1.47376e+07
1.47017e+07
1.46809e+07
1.466e+07
1.46777e+07
1.46655e+07
1.46788e+07
1.46744e+07
1.46557e+07
1.47339e+07
1.47459e+07
1.47743e+07
1.47755e+07
1.48171e+07
1.47268e+07
1.49033e+07
1.38561e+07
2.22732e+06
2.42608e+06
1.22716e+07
1.34851e+07
1.32207e+07
1.32687e+07
1.32125e+07
1.31866e+07
1.31526e+07
1.31233e+07
1.30988e+07
1.30764e+07
1.31004e+07
1.30854e+07
1.30927e+07
1.30963e+07
1.30738e+07
1.31514e+07
1.31665e+07
1.31962e+07
1.32079e+07
1.32569e+07
1.32018e+07
1.34258e+07
1.19676e+07
2.43658e+06
2.68044e+06
1.06578e+07
1.23372e+07
1.20002e+07
1.20094e+07
1.19261e+07
1.18759e+07
1.18281e+07
1.18007e+07
1.17719e+07
1.17433e+07
1.17731e+07
1.17564e+07
1.17589e+07
1.17725e+07
1.17426e+07
1.18216e+07
1.18446e+07
1.18829e+07
1.19165e+07
1.19919e+07
1.19801e+07
1.22792e+07
1.05703e+07
2.70897e+06
3.52101e+06
1.02586e+07
1.15252e+07
1.10766e+07
1.09786e+07
1.08665e+07
1.07926e+07
1.07323e+07
1.07036e+07
1.06711e+07
1.06344e+07
1.06668e+07
1.06513e+07
1.06511e+07
1.0674e+07
1.06384e+07
1.07153e+07
1.07495e+07
1.08006e+07
1.08554e+07
1.09651e+07
1.10532e+07
1.15076e+07
1.03836e+07
3.60572e+06
6.99414e+06
1.24977e+07
1.13365e+07
1.05128e+07
1.02831e+07
1.0093e+07
9.98865e+06
9.91754e+06
9.88149e+06
9.8441e+06
9.80568e+06
9.83246e+06
9.82144e+06
9.82149e+06
9.85011e+06
9.81773e+06
9.88119e+06
9.92953e+06
9.99429e+06
1.0079e+07
1.0258e+07
1.04441e+07
1.12738e+07
1.23821e+07
7.0232e+06
1.52397e+07
1.88296e+07
1.2008e+07
1.0643e+07
9.92646e+06
9.61707e+06
9.47649e+06
9.38527e+06
9.33904e+06
9.29858e+06
9.26015e+06
9.27516e+06
9.27088e+06
9.27574e+06
9.30548e+06
9.28515e+06
9.33541e+06
9.39443e+06
9.48111e+06
9.60327e+06
9.88566e+06
1.05497e+07
1.18941e+07
1.8148e+07
1.53511e+07
2.51438e+07
5.92474e+07
2.29146e+07
1.18626e+07
1.0359e+07
9.63147e+06
9.32189e+06
9.1865e+06
9.11377e+06
9.06502e+06
9.02452e+06
9.02314e+06
9.02406e+06
9.03726e+06
9.06763e+06
9.06425e+06
9.11592e+06
9.19605e+06
9.32672e+06
9.611e+06
1.02538e+07
1.14329e+07
2.10403e+07
6.13519e+07
2.50204e+07
2.63412e+07
5.67453e+07
1.04503e+08
5.40313e+07
1.3219e+07
1.04502e+07
9.95217e+06
9.73657e+06
9.64929e+06
9.6059e+06
9.55572e+06
9.55655e+06
9.55643e+06
9.57936e+06
9.59829e+06
9.61747e+06
9.68135e+06
9.78023e+06
9.9836e+06
1.06222e+07
1.32832e+07
4.20338e+07
1.034e+08
5.88665e+07
2.59317e+07
2.57867e+07
4.33527e+07
7.95315e+07
1.34631e+08
7.092e+07
1.94448e+07
1.68161e+07
1.46111e+07
1.40506e+07
1.35591e+07
1.37395e+07
1.35093e+07
1.40051e+07
1.36021e+07
1.38271e+07
1.37198e+07
1.40493e+07
1.4852e+07
1.72385e+07
2.08453e+07
7.55041e+07
1.10076e+08
8.07329e+07
4.44487e+07
2.53629e+07
2.48679e+07
3.54592e+07
5.82961e+07
9.02755e+07
8.1017e+07
5.7916e+07
6.21564e+07
6.11244e+07
5.85328e+07
6.0387e+07
6.49888e+07
6.4275e+07
6.8827e+07
6.52901e+07
6.60628e+07
6.21412e+07
5.94891e+07
6.3616e+07
6.44817e+07
5.67443e+07
8.05799e+07
8.00584e+07
6.05491e+07
3.64281e+07
2.62762e+07
2.53207e+07
3.13985e+07
5.07042e+07
7.20647e+07
7.50426e+07
1.01536e+08
8.88063e+07
5.88787e+07
5.25801e+07
5.61324e+07
5.54898e+07
5.76917e+07
5.57499e+07
5.71539e+07
5.61981e+07
5.67986e+07
5.41638e+07
5.84887e+07
7.7416e+07
1.0339e+08
7.72875e+07
6.66955e+07
5.18626e+07
3.16637e+07
2.66778e+07
2.36729e+07
2.99556e+07
4.69513e+07
6.30743e+07
6.63343e+07
9.40907e+07
6.56316e+07
4.00603e+07
3.6132e+07
3.65932e+07
3.68759e+07
3.76997e+07
3.69405e+07
3.74081e+07
3.72874e+07
3.73299e+07
3.69326e+07
3.99805e+07
5.70512e+07
9.8402e+07
6.85069e+07
5.88893e+07
4.87747e+07
2.95091e+07
2.32273e+07
1.96081e+07
3.07601e+07
4.26934e+07
4.82301e+07
5.06872e+07
7.10906e+07
5.1709e+07
3.32817e+07
2.81799e+07
2.72057e+07
2.70834e+07
2.71264e+07
2.66825e+07
2.69676e+07
2.73767e+07
2.81158e+07
2.92439e+07
3.38367e+07
4.90141e+07
7.10285e+07
5.09281e+07
4.49065e+07
4.40363e+07
3.14666e+07
1.90048e+07
1.59233e+07
2.97287e+07
3.62608e+07
3.72073e+07
3.76668e+07
4.88817e+07
4.4605e+07
3.29916e+07
2.56493e+07
2.24254e+07
2.12034e+07
2.07047e+07
2.03401e+07
2.05688e+07
2.1285e+07
2.2818e+07
2.56853e+07
3.22782e+07
4.3487e+07
4.94287e+07
3.72845e+07
3.53335e+07
3.67447e+07
3.10637e+07
1.55335e+07
1.44716e+07
2.66197e+07
2.92129e+07
2.96012e+07
2.97465e+07
3.63177e+07
3.76455e+07
3.16234e+07
2.43763e+07
1.97911e+07
1.76134e+07
1.66456e+07
1.62614e+07
1.6592e+07
1.77404e+07
2.01749e+07
2.45498e+07
3.13785e+07
3.73201e+07
3.64852e+07
2.93104e+07
2.86913e+07
2.94684e+07
2.66132e+07
1.45105e+07
1.51951e+07
2.10112e+07
2.34247e+07
2.41189e+07
2.43454e+07
2.89595e+07
3.15584e+07
2.81502e+07
2.20243e+07
1.7366e+07
1.48078e+07
1.36021e+07
1.32048e+07
1.36288e+07
1.5039e+07
1.78963e+07
2.24964e+07
2.8257e+07
3.15137e+07
2.90836e+07
2.40877e+07
2.37087e+07
2.3662e+07
2.09806e+07
1.53196e+07
1.92546e+07
2.01923e+07
1.98777e+07
2.04596e+07
2.05965e+07
2.40122e+07
2.64432e+07
2.42704e+07
1.93021e+07
1.50762e+07
1.2521e+07
1.12406e+07
1.08328e+07
1.12593e+07
1.27081e+07
1.55459e+07
1.97832e+07
2.44508e+07
2.64916e+07
2.4151e+07
2.03781e+07
2.02125e+07
1.9984e+07
2.07243e+07
1.95067e+07
2.20715e+07
2.27244e+07
1.75894e+07
1.75297e+07
1.76649e+07
2.02261e+07
2.22011e+07
2.0613e+07
1.65994e+07
1.29395e+07
1.05923e+07
9.36906e+06
8.97171e+06
9.33279e+06
1.06519e+07
1.3236e+07
1.69601e+07
2.07771e+07
2.2267e+07
2.03162e+07
1.73372e+07
1.72715e+07
1.75126e+07
2.354e+07
2.209e+07
2.15267e+07
2.2766e+07
1.55927e+07
1.52057e+07
1.52118e+07
1.70427e+07
1.86443e+07
1.74043e+07
1.39999e+07
1.09467e+07
8.924e+06
7.84734e+06
7.50486e+06
7.81186e+06
8.96966e+06
1.12512e+07
1.44645e+07
1.76833e+07
1.87973e+07
1.70949e+07
1.49519e+07
1.49648e+07
1.54687e+07
2.30389e+07
2.16415e+07
2.11464e+07
2.20244e+07
1.3911e+07
1.33655e+07
1.32486e+07
1.45059e+07
1.57369e+07
1.47216e+07
1.18798e+07
9.30979e+06
7.57299e+06
6.64088e+06
6.35669e+06
6.60794e+06
7.6093e+06
9.61506e+06
1.23933e+07
1.50911e+07
1.59586e+07
1.4587e+07
1.30414e+07
1.31183e+07
1.37882e+07
2.24509e+07
2.13493e+07
2.06676e+07
2.10739e+07
1.26564e+07
1.19153e+07
1.16527e+07
1.24835e+07
1.33553e+07
1.24743e+07
1.01076e+07
7.96211e+06
6.47637e+06
5.67783e+06
5.44426e+06
5.64828e+06
6.49331e+06
8.21944e+06
1.0591e+07
1.28425e+07
1.3599e+07
1.26174e+07
1.15107e+07
1.16706e+07
1.24787e+07
2.13267e+07
2.0694e+07
2.01484e+07
2.04033e+07
1.1641e+07
1.07238e+07
1.03609e+07
1.08547e+07
1.13613e+07
1.05311e+07
8.58589e+06
6.81036e+06
5.56201e+06
4.89818e+06
4.71775e+06
4.88532e+06
5.60974e+06
7.10473e+06
9.13834e+06
1.10387e+07
1.17268e+07
1.10779e+07
1.03153e+07
1.05665e+07
1.14844e+07
2.10122e+07
2.04956e+07
2.01655e+07
1.9943e+07
1.08218e+07
9.7191e+06
9.31609e+06
9.55368e+06
9.77836e+06
8.9914e+06
7.35845e+06
5.88069e+06
4.82605e+06
4.27158e+06
4.13255e+06
4.27002e+06
4.87561e+06
6.14753e+06
7.87646e+06
9.5021e+06
1.01726e+07
9.83846e+06
9.37543e+06
9.62629e+06
1.0698e+07
2.06987e+07
2.04249e+07
2.06057e+07
1.94743e+07
1.01757e+07
8.83346e+06
8.43985e+06
8.50958e+06
8.49056e+06
7.72646e+06
6.35135e+06
5.11281e+06
4.22497e+06
3.76189e+06
3.65586e+06
3.76728e+06
4.26676e+06
5.33202e+06
6.79711e+06
8.21098e+06
8.88455e+06
8.81889e+06
8.58848e+06
8.81641e+06
1.01431e+07
2.0228e+07
2.00795e+07
2.02699e+07
1.88111e+07
9.62686e+06
8.10595e+06
7.66043e+06
7.60485e+06
7.39951e+06
6.64937e+06
5.47975e+06
4.4475e+06
3.7129e+06
3.34041e+06
3.26762e+06
3.36015e+06
3.77665e+06
4.6794e+06
5.94055e+06
7.18517e+06
7.85288e+06
7.97048e+06
7.87469e+06
8.17738e+06
9.75379e+06
2.00566e+07
1.99765e+07
1.97975e+07
1.82877e+07
9.27678e+06
7.53225e+06
6.95801e+06
6.82394e+06
6.525e+06
5.79692e+06
4.78887e+06
3.91953e+06
3.30094e+06
2.99574e+06
2.94785e+06
3.0221e+06
3.36209e+06
4.11334e+06
5.18115e+06
6.28678e+06
6.97404e+06
7.21858e+06
7.23034e+06
7.67134e+06
9.51452e+06
1.96236e+07
1.90489e+07
1.93312e+07
1.78202e+07
8.98871e+06
7.10552e+06
6.37399e+06
6.15218e+06
5.80545e+06
5.11023e+06
4.22678e+06
3.4802e+06
2.96056e+06
2.71193e+06
2.68749e+06
2.74418e+06
3.01865e+06
3.63899e+06
4.55481e+06
5.54176e+06
6.22975e+06
6.55436e+06
6.67829e+06
7.32317e+06
9.29459e+06
1.88391e+07
1.82519e+07
1.85291e+07
1.69105e+07
8.81328e+06
6.78229e+06
5.88686e+06
5.56233e+06
5.17209e+06
4.51118e+06
3.74663e+06
3.10911e+06
2.67211e+06
2.47623e+06
2.4718e+06
2.5141e+06
2.73781e+06
3.25822e+06
4.0472e+06
4.92448e+06
5.59504e+06
5.97498e+06
6.21559e+06
7.07438e+06
9.18195e+06
1.8215e+07
1.7714e+07
1.81842e+07
1.6135e+07
8.55496e+06
6.59529e+06
5.51115e+06
5.08167e+06
4.65045e+06
4.02757e+06
3.35338e+06
2.81002e+06
2.43861e+06
2.28062e+06
2.2947e+06
2.32394e+06
2.50195e+06
2.93462e+06
3.60431e+06
4.39659e+06
5.04538e+06
5.4867e+06
5.85765e+06
6.91922e+06
8.99447e+06
1.73232e+07
1.69652e+07
1.78317e+07
1.56999e+07
8.14367e+06
6.4739e+06
5.22821e+06
4.67121e+06
4.20501e+06
3.62206e+06
3.03315e+06
2.55924e+06
2.2452e+06
2.12083e+06
2.15206e+06
2.16803e+06
2.30803e+06
2.66581e+06
3.24245e+06
3.9446e+06
4.56256e+06
5.05915e+06
5.60403e+06
6.84262e+06
8.58758e+06
1.67694e+07
1.64502e+07
1.7341e+07
1.5368e+07
7.66556e+06
6.51255e+06
5.02961e+06
4.35029e+06
3.8347e+06
3.27243e+06
2.75245e+06
2.34728e+06
2.08242e+06
1.99085e+06
2.0355e+06
2.04106e+06
2.1493e+06
2.4522e+06
2.94627e+06
3.57194e+06
4.18422e+06
4.73595e+06
5.40457e+06
6.85512e+06
8.19561e+06
1.63987e+07
1.59995e+07
1.70657e+07
1.5086e+07
7.30638e+06
6.44371e+06
4.95222e+06
4.10654e+06
3.54218e+06
2.99876e+06
2.52676e+06
2.17379e+06
1.95226e+06
1.88676e+06
1.94623e+06
1.94039e+06
2.01867e+06
2.26798e+06
2.69542e+06
3.26112e+06
3.8534e+06
4.4702e+06
5.29017e+06
6.82018e+06
7.65303e+06
1.61242e+07
1.5591e+07
1.69467e+07
1.47883e+07
6.98529e+06
6.1766e+06
4.95512e+06
3.91608e+06
3.31137e+06
2.77399e+06
2.34362e+06
2.03326e+06
1.84699e+06
1.8055e+06
1.8786e+06
1.86184e+06
1.9137e+06
2.12028e+06
2.49339e+06
2.99896e+06
3.60115e+06
4.25876e+06
5.28966e+06
6.61085e+06
7.13201e+06
1.58095e+07
1.54377e+07
1.69084e+07
1.46279e+07
6.47929e+06
5.81477e+06
5.06603e+06
3.81176e+06
3.12939e+06
2.61159e+06
2.1977e+06
1.92354e+06
1.76794e+06
1.74945e+06
1.83378e+06
1.80578e+06
1.83531e+06
2.00992e+06
2.34296e+06
2.82192e+06
3.40293e+06
4.13303e+06
5.43666e+06
6.19169e+06
6.69189e+06
1.56455e+07
1.55305e+07
1.70032e+07
1.47069e+07
6.05383e+06
5.42147e+06
5.06951e+06
3.86525e+06
3.00352e+06
2.49251e+06
2.09755e+06
1.84205e+06
1.71396e+06
1.71403e+06
1.81179e+06
1.77429e+06
1.78337e+06
1.92774e+06
2.22942e+06
2.6768e+06
3.24451e+06
4.13441e+06
5.39762e+06
5.7152e+06
6.17575e+06
1.57241e+07
1.57033e+07
1.71919e+07
1.51707e+07
5.80598e+06
5.03357e+06
4.77546e+06
4.06605e+06
2.97999e+06
2.41055e+06
2.0344e+06
1.79773e+06
1.68384e+06
1.69881e+06
1.80698e+06
1.76384e+06
1.75448e+06
1.88094e+06
2.15839e+06
2.57628e+06
3.18861e+06
4.32002e+06
5.12498e+06
5.25049e+06
5.80521e+06
1.6259e+07
1.60768e+07
1.75088e+07
1.60368e+07
5.46818e+06
4.62358e+06
4.44945e+06
4.11419e+06
3.108e+06
2.3701e+06
1.99949e+06
1.78078e+06
1.69089e+06
1.71793e+06
1.83536e+06
1.78226e+06
1.75994e+06
1.86529e+06
2.11747e+06
2.52362e+06
3.28789e+06
4.40638e+06
4.75654e+06
4.83209e+06
5.74889e+06
1.71412e+07
1.64963e+07
1.789e+07
1.70856e+07
5.53165e+06
4.28439e+06
4.13553e+06
3.92221e+06
3.39624e+06
2.45538e+06
2.00045e+06
1.79501e+06
1.72588e+06
1.76797e+06
1.89681e+06
1.83434e+06
1.79578e+06
1.88257e+06
2.10414e+06
2.54555e+06
3.54096e+06
4.25182e+06
4.41005e+06
4.46805e+06
5.65627e+06
1.82333e+07
1.70604e+07
1.84175e+07
1.80257e+07
5.95552e+06
4.06652e+06
3.83624e+06
3.69698e+06
3.48898e+06
2.74166e+06
2.05642e+06
1.83241e+06
1.7812e+06
1.84318e+06
1.99295e+06
1.91697e+06
1.8574e+06
1.92203e+06
2.13368e+06
2.75663e+06
3.75178e+06
3.98004e+06
4.0717e+06
4.19859e+06
5.94646e+06
1.91653e+07
1.76807e+07
1.90971e+07
1.90372e+07
6.14894e+06
3.89267e+06
3.5761e+06
3.4737e+06
3.3508e+06
3.07179e+06
2.28386e+06
1.90941e+06
1.86294e+06
1.94257e+06
2.10979e+06
2.01767e+06
1.94153e+06
1.99633e+06
2.31549e+06
3.16022e+06
3.66369e+06
3.74058e+06
3.78191e+06
4.03909e+06
6.40005e+06
2.00745e+07
1.84836e+07
1.98015e+07
1.9984e+07
6.48802e+06
3.82482e+06
3.38047e+06
3.27356e+06
3.20527e+06
3.19805e+06
2.76175e+06
2.0935e+06
1.9809e+06
2.06366e+06
2.25046e+06
2.14414e+06
2.05746e+06
2.14943e+06
2.74078e+06
3.39645e+06
3.47632e+06
3.51337e+06
3.55454e+06
3.90274e+06
6.55882e+06
2.12366e+07
1.94037e+07
2.05031e+07
2.09878e+07
6.86148e+06
3.85168e+06
3.25451e+06
3.11038e+06
3.0808e+06
3.12404e+06
3.15806e+06
2.54677e+06
2.19578e+06
2.23645e+06
2.43874e+06
2.32301e+06
2.25597e+06
2.55427e+06
3.23821e+06
3.34371e+06
3.32622e+06
3.31398e+06
3.38573e+06
3.84216e+06
6.80218e+06
2.25613e+07
2.03074e+07
2.09377e+07
2.23585e+07
7.1346e+06
3.88097e+06
3.15903e+06
2.99708e+06
2.98655e+06
3.0586e+06
3.25142e+06
3.22343e+06
2.69005e+06
2.5082e+06
2.71386e+06
2.59651e+06
2.69065e+06
3.32828e+06
3.46438e+06
3.25292e+06
3.19943e+06
3.17008e+06
3.26648e+06
3.87302e+06
7.3395e+06
2.40514e+07
2.08287e+07
2.09797e+07
2.325e+07
7.70022e+06
3.99734e+06
3.12622e+06
2.93598e+06
2.93235e+06
3.04452e+06
3.28882e+06
3.69822e+06
3.57488e+06
3.07275e+06
3.20302e+06
3.14866e+06
3.58688e+06
3.88961e+06
3.49783e+06
3.22955e+06
3.11702e+06
3.07936e+06
3.19732e+06
3.95453e+06
7.85447e+06
2.50282e+07
2.09669e+07
1.92193e+07
2.2571e+07
8.18277e+06
4.24813e+06
3.18567e+06
2.94282e+06
2.95033e+06
3.09946e+06
3.37949e+06
3.906e+06
4.49899e+06
4.37837e+06
4.67623e+06
4.47732e+06
4.63687e+06
4.13393e+06
3.57149e+06
3.27062e+06
3.10775e+06
3.05793e+06
3.21024e+06
4.13203e+06
8.20509e+06
2.43039e+07
1.93752e+07
384191
212400
199664
198669
199054
199128
199038
198725
198348
197978
197623
197284
196955
196634
196320
196010
195705
195404
195108
194816
194527
194243
193963
193687
193415
193148
192885
192843
197619
329684
298150
181721
172534
172015
172367
172307
172142
171830
171531
171289
171092
170923
170769
170626
170488
170355
170226
170101
169979
169860
169745
169633
169523
169417
169313
169214
169120
169371
175420
267539
274125
174356
166546
166264
166554
166440
166256
165963
165730
165582
165490
165429
165385
165348
165315
165284
165255
165227
165200
165174
165148
165124
165100
165078
165056
165037
165027
165387
171839
259883
269142
173313
165495
165277
165592
165459
165276
164978
164759
164632
164567
164535
164519
164510
164504
164499
164494
164490
164486
164481
164477
164473
164469
164466
164463
164461
164471
164858
171455
259772
269997
173485
165351
165172
165500
165355
165166
164853
164632
164506
164445
164418
164407
164403
164401
164401
164400
164399
164399
164398
164398
164397
164396
164395
164395
164396
164411
164808
171519
260469
270548
173535
165334
165239
165526
165350
165159
164837
164616
164491
164431
164405
164395
164391
164390
164390
164390
164390
164390
164390
164390
164389
164389
164388
164389
164390
164407
164815
171642
261229
270582
173479
165329
165326
165549
165343
165154
164829
164612
164488
164428
164403
164393
164390
164389
164389
164389
164389
164389
164389
164389
164389
164388
164388
164388
164389
164407
164826
171770
261960
270212
173409
165337
165400
165553
165329
165143
164817
164606
164485
164426
164401
164392
164390
164389
164389
164389
164389
164389
164389
164389
164389
164388
164388
164388
164389
164408
164837
171890
262638
269873
173414
165401
165454
165548
165306
165123
164798
164598
164480
164423
164400
164392
164390
164389
164389
164389
164389
164389
164389
164389
164389
164389
164388
164388
164389
164409
164847
171999
263252
269686
173554
165441
165481
165535
165261
165090
164772
164583
164471
164419
164399
164392
164390
164389
164389
164389
164389
164389
164389
164389
164389
164389
164389
164388
164389
164409
164857
172099
263811
269633
173664
165470
165491
165502
165204
165047
164740
164566
164464
164417
164398
164391
164390
164389
164389
164389
164389
164389
164389
164389
164389
164389
164389
164389
164389
164410
164866
172192
264316
269626
173731
165493
165496
165442
165132
164996
164709
164552
164458
164415
164397
164391
164389
164389
164389
164389
164389
164389
164389
164389
164389
164389
164389
164389
164389
164410
164874
172277
264776
269527
173768
165508
165410
165369
165058
164945
164682
164539
164453
164412
164396
164391
164389
164389
164389
164389
164389
164389
164389
164389
164389
164389
164389
164389
164390
164410
164881
172357
265199
269586
173781
165523
165284
165286
164992
164895
164656
164527
164447
164410
164396
164391
164389
164389
164389
164389
164389
164389
164389
164389
164389
164389
164389
164389
164390
164411
164889
172431
265585
269565
173843
165587
165189
165196
164931
164846
164631
164514
164442
164408
164395
164390
164389
164389
164389
164389
164389
164389
164389
164389
164389
164389
164389
164389
164390
164411
164896
172497
265933
269769
174055
165805
165249
165138
164876
164797
164606
164501
164437
164406
164394
164390
164389
164389
164389
164389
164389
164389
164389
164389
164389
164389
164389
164389
164390
164412
164902
172557
266244
270310
174942
166764
165824
165316
164877
164755
164581
164488
164431
164404
164394
164390
164389
164389
164389
164389
164389
164389
164389
164389
164389
164389
164389
164389
164390
164412
164908
172611
266523
272070
179198
172727
169757
166516
165154
164780
164563
164476
164425
164402
164393
164390
164389
164389
164389
164389
164389
164389
164389
164389
164389
164389
164389
164389
164390
164412
164912
172657
266768
277759
196990
210596
204723
178988
167052
165083
164602
164470
164420
164400
164392
164390
164389
164389
164389
164389
164389
164389
164389
164389
164389
164389
164389
164389
164390
164413
164917
172697
266981
296165
253116
356964
436701
315471
190543
167166
164866
164506
164420
164398
164392
164390
164389
164389
164389
164389
164389
164389
164389
164389
164389
164389
164389
164389
164390
164413
164920
172732
267165
332685
368898
619798
842851
828586
448237
192489
166479
164691
164442
164399
164391
164389
164389
164389
164389
164389
164389
164389
164389
164389
164389
164389
164389
164389
164390
164413
164923
172760
267320
362168
640382
1.0324e+06
1.43271e+06
1.45474e+06
1.17923e+06
455286
182661
165631
164545
164410
164392
164389
164389
164389
164389
164389
164389
164389
164389
164389
164389
164389
164389
164389
164390
164413
164925
172784
267448
381932
1.15635e+06
1.63824e+06
2.29491e+06
2.33651e+06
1.95954e+06
1.27401e+06
343140
172277
164958
164457
164396
164390
164389
164389
164389
164389
164389
164389
164389
164389
164389
164389
164389
164389
164390
164413
164927
172801
267551
689395
3.46363e+06
3.58956e+06
4.49093e+06
3.92478e+06
2.92932e+06
2.14845e+06
1.02436e+06
225437
166922
164602
164412
164391
164389
164389
164389
164389
164389
164389
164389
164389
164389
164389
164389
164389
164390
164413
164928
172814
267628
4.64324e+06
2.42865e+07
2.94675e+07
1.61309e+07
8.15355e+06
4.54884e+06
3.11393e+06
1.92286e+06
527494
177852
165047
164454
164394
164389
164389
164389
164389
164389
164389
164389
164389
164389
164389
164389
164389
164390
164413
164929
172822
267687
329685
197620
192844
192886
193149
193417
193689
193966
194246
194531
194820
195112
195409
195710
196016
196326
196641
196962
197292
197632
197987
198358
198735
199049
199139
199066
198681
199678
212423
384328
267539
175421
169371
169120
169214
169313
169417
169523
169633
169745
169860
169979
170101
170226
170355
170488
170626
170769
170923
171092
171289
171531
171829
172141
172307
172367
172015
172533
181719
298119
259885
171839
165387
165027
165037
165056
165078
165100
165124
165148
165174
165200
165227
165255
165284
165315
165348
165385
165429
165490
165582
165730
165963
166256
166441
166555
166264
166546
174355
274171
259773
171455
164858
164471
164461
164463
164466
164469
164473
164477
164481
164486
164490
164494
164499
164504
164510
164519
164535
164567
164632
164759
164978
165277
165459
165592
165277
165494
173308
269087
260468
171518
164808
164411
164396
164395
164395
164396
164397
164398
164398
164399
164399
164400
164401
164401
164403
164407
164418
164445
164506
164632
164854
165166
165355
165500
165172
165352
173490
269977
261230
171643
164815
164407
164390
164389
164388
164389
164389
164390
164390
164390
164390
164390
164390
164390
164391
164395
164405
164431
164491
164616
164837
165160
165350
165526
165239
165333
173534
270636
261959
171769
164826
164407
164389
164388
164388
164388
164389
164389
164389
164389
164389
164389
164389
164389
164390
164393
164403
164428
164488
164612
164829
165154
165343
165549
165326
165328
173474
270465
262637
171890
164837
164408
164389
164388
164388
164388
164389
164389
164389
164389
164389
164389
164389
164389
164390
164392
164401
164426
164485
164606
164817
165143
165329
165553
165399
165338
173415
270280
263253
171999
164847
164409
164389
164388
164388
164389
164389
164389
164389
164389
164389
164389
164389
164389
164390
164392
164400
164423
164480
164598
164798
165123
165306
165548
165454
165401
173411
269862
263810
172099
164857
164409
164389
164388
164389
164389
164389
164389
164389
164389
164389
164389
164389
164389
164390
164392
164399
164419
164471
164583
164772
165090
165261
165535
165481
165441
173557
269657
264317
172192
164866
164410
164389
164389
164389
164389
164389
164389
164389
164389
164389
164389
164389
164389
164390
164391
164398
164417
164464
164566
164740
165047
165204
165502
165491
165470
173662
269697
264777
172277
164874
164410
164389
164389
164389
164389
164389
164389
164389
164389
164389
164389
164389
164389
164389
164391
164397
164415
164458
164552
164709
164996
165133
165442
165496
165493
173729
269573
265198
172356
164881
164410
164390
164389
164389
164389
164389
164389
164389
164389
164389
164389
164389
164389
164389
164391
164396
164412
164453
164539
164682
164945
165058
165369
165410
165508
173771
269539
265585
172431
164889
164411
164390
164389
164389
164389
164389
164389
164389
164389
164389
164389
164389
164389
164389
164391
164396
164410
164447
164527
164656
164895
164992
165286
165284
165523
173782
269591
265933
172497
164896
164411
164390
164389
164389
164389
164389
164389
164389
164389
164389
164389
164389
164389
164389
164390
164395
164408
164442
164514
164631
164846
164931
165196
165189
165587
173841
269569
266244
172557
164902
164412
164390
164389
164389
164389
164389
164389
164389
164389
164389
164389
164389
164389
164389
164390
164394
164406
164437
164501
164606
164797
164876
165138
165249
165806
174057
269751
266523
172611
164908
164412
164390
164389
164389
164389
164389
164389
164389
164389
164389
164389
164389
164389
164389
164390
164394
164404
164431
164488
164581
164755
164877
165316
165826
166767
174944
270327
266768
172657
164912
164412
164390
164389
164389
164389
164389
164389
164389
164389
164389
164389
164389
164389
164389
164390
164393
164402
164425
164476
164563
164780
165155
166520
169768
172737
179199
272078
266981
172697
164917
164413
164390
164389
164389
164389
164389
164389
164389
164389
164389
164389
164389
164389
164389
164390
164392
164400
164420
164470
164602
165085
167060
179022
204756
210632
196988
277740
267165
172732
164920
164413
164390
164389
164389
164389
164389
164389
164389
164389
164389
164389
164389
164389
164389
164390
164392
164398
164420
164506
164867
167174
190600
315500
436265
356779
252964
296133
267321
172760
164923
164413
164390
164389
164389
164389
164389
164389
164389
164389
164389
164389
164389
164389
164389
164389
164391
164399
164442
164691
166485
192531
447920
826358
840969
619144
368460
332528
267448
172783
164925
164413
164390
164389
164389
164389
164389
164389
164389
164389
164389
164389
164389
164389
164389
164389
164392
164410
164545
165634
182690
454725
1.17517e+06
1.44946e+06
1.42895e+06
1.03071e+06
639351
361916
267550
172801
164927
164413
164390
164389
164389
164389
164389
164389
164389
164389
164389
164389
164389
164389
164389
164390
164396
164457
164960
172299
343111
1.26955e+06
1.95083e+06
2.3248e+06
2.28808e+06
1.63568e+06
1.15348e+06
381302
267629
172814
164928
164413
164390
164389
164389
164389
164389
164389
164389
164389
164389
164389
164389
164389
164389
164391
164412
164603
166928
225414
1.02134e+06
2.13874e+06
2.9118e+06
3.89266e+06
4.46962e+06
3.59725e+06
3.4504e+06
682141
267687
172822
164929
164413
164390
164389
164389
164389
164389
164389
164389
164389
164389
164389
164389
164389
164389
164394
164454
165049
177878
526925
1.91524e+06
3.09572e+06
4.50787e+06
8.04627e+06
1.595e+07
2.92859e+07
2.3966e+07
4.51282e+06
288003
287822
287652
287481
287310
287140
286970
286800
286630
286460
286290
286120
285951
285781
285612
285443
285274
285105
284936
284767
284598
284430
284262
284093
283925
283757
283589
283421
283254
283086
282919
282752
282584
282417
282250
282084
281917
281750
281584
281418
281251
281085
280919
280753
280588
280422
280257
280091
279926
279761
279596
279431
279266
279102
278937
278773
278609
278444
278280
278117
277953
277789
277626
277462
277299
277136
276973
276810
276647
276484
276322
276159
275997
275835
275673
275511
275349
275187
275026
274864
274703
274542
274381
274220
274059
273898
273738
273577
273417
273257
273096
272936
272777
272617
272457
272298
272138
271979
271820
271661
271502
271344
271185
271026
270868
270710
270552
270394
270236
270078
269921
269763
269606
269448
269291
269134
268977
268821
268664
268508
268351
268195
268038
267878
267685
178549
178472
178411
178352
178293
178234
178176
178118
178060
178002
177945
177888
177831
177775
177719
177663
177607
177551
177496
177441
177387
177332
177278
177224
177170
177117
177064
177011
176958
176905
176853
176801
176749
176698
176647
176596
176545
176494
176444
176394
176344
176294
176245
176195
176146
176098
176049
176001
175953
175905
175857
175810
175762
175715
175669
175622
175576
175529
175483
175438
175392
175347
175302
175257
175212
175167
175123
175079
175035
174991
174948
174904
174861
174818
174776
174733
174691
174648
174606
174565
174523
174481
174440
174399
174358
174318
174277
174237
174197
174157
174117
174077
174038
173998
173959
173920
173882
173843
173805
173766
173728
173690
173653
173615
173578
173540
173503
173466
173430
173393
173357
173320
173284
173248
173213
173177
173142
173106
173071
173036
173001
172967
172932
172896
172854
165741
165727
165716
165706
165696
165686
165676
165667
165657
165647
165638
165628
165619
165610
165601
165591
165582
165573
165564
165556
165547
165538
165530
165521
165512
165504
165496
165487
165479
165471
165463
165455
165447
165439
165431
165424
165416
165408
165401
165393
165386
165379
165371
165364
165357
165350
165343
165336
165329
165322
165315
165308
165301
165295
165288
165282
165275
165269
165262
165256
165249
165243
165237
165231
165225
165219
165213
165207
165201
165195
165189
165183
165178
165172
165166
165161
165155
165150
165144
165139
165133
165128
165123
165117
165112
165107
165102
165097
165092
165087
165082
165077
165072
165067
165062
165058
165053
165048
165043
165039
165034
165030
165025
165021
165016
165012
165007
165003
164999
164994
164990
164986
164982
164978
164974
164970
164965
164961
164957
164954
164950
164946
164942
164938
164933
164482
164480
164479
164478
164477
164476
164475
164474
164473
164472
164471
164470
164469
164469
164468
164467
164466
164465
164464
164463
164463
164462
164461
164460
164459
164459
164458
164457
164456
164456
164455
164454
164454
164453
164452
164451
164451
164450
164449
164449
164448
164448
164447
164446
164446
164445
164444
164444
164443
164443
164442
164442
164441
164440
164440
164439
164439
164438
164438
164437
164437
164436
164436
164435
164435
164434
164434
164433
164433
164432
164432
164432
164431
164431
164430
164430
164429
164429
164429
164428
164428
164427
164427
164427
164426
164426
164425
164425
164425
164424
164424
164424
164423
164423
164422
164422
164422
164421
164421
164421
164420
164420
164420
164420
164419
164419
164419
164418
164418
164418
164417
164417
164417
164417
164416
164416
164416
164416
164415
164415
164415
164415
164414
164414