/*--------------------------------*- C++ -*----------------------------------*\
| =========                 |                                                 |
| \\      /  F ield         | OpenFOAM: The Open Source CFD Toolbox           |
|  \\    /   O peration     | Version:  2112                                  |
|   \\  /    A nd           | Website:  www.openfoam.com                      |
|    \\/     M anipulation  |                                                 |
\*---------------------------------------------------------------------------*/
FoamFile
{
    version     2.0;
    format      ascii;
    arch        "LSB;label=32;scalar=64";
    class       volScalarField;
    location    "0.0063";
    object      alphat;
}
// * * * * * * * * * * * * * * * * * * * * * * * * * * * * * * * * * * * * * //

dimensions      [1 -1 -1 0 0 0 0];

internalField   nonuniform List<scalar> 
13875
(
0.119861
0.081602
0.0784511
0.0782834
0.0783284
0.0783773
0.0782662
0.078265
0.0783405
0.0783274
0.0782823
0.0783002
0.0783765
0.0784123
0.0783946
0.078299
0.0782561
0.0782906
0.0782997
0.0783544
0.0783209
0.078265
0.0784874
0.0814562
0.12089
0.103938
0.0576787
0.0570808
0.0571638
0.0566549
0.0566613
0.0570261
0.0571024
0.0571785
0.0572165
0.0571434
0.0571103
0.0566539
0.0566136
0.0566678
0.057098
0.0571181
0.0571481
0.0570737
0.0566803
0.0566734
0.0571392
0.057068
0.057337
0.104583
0.110619
0.0553251
0.0558752
0.0547238
0.0545673
0.0544441
0.0542361
0.0541763
0.0541979
0.0543266
0.05426
0.0543539
0.0542478
0.0542771
0.0542404
0.0543504
0.0541064
0.0542482
0.0542834
0.0544555
0.0545307
0.0546027
0.0557807
0.0550801
0.11134
0.115885
0.0546449
0.0553816
0.0543173
0.0540272
0.0538975
0.0536421
0.0534936
0.053459
0.0534635
0.0533865
0.0534894
0.0537022
0.0537402
0.0536926
0.0534819
0.0533607
0.0534628
0.0536407
0.0539105
0.054
0.0542015
0.0551922
0.0543047
0.115873
0.121032
0.0546342
0.0551204
0.0537433
0.0536665
0.0534783
0.053129
0.0529909
0.0529675
0.0529769
0.0528948
0.0530037
0.0532223
0.0532653
0.0532155
0.0529934
0.0528735
0.0529544
0.0531141
0.0534797
0.0536077
0.0536114
0.0550165
0.0543289
0.121355
0.124409
0.0547451
0.0551863
0.0536059
0.0532859
0.0530733
0.0527248
0.0525539
0.0525322
0.0525697
0.0524596
0.052546
0.052778
0.05285
0.0527664
0.0525378
0.0524443
0.0525473
0.0527402
0.0530615
0.0532402
0.0535038
0.0548818
0.0543948
0.124008
0.128748
0.0564751
0.0557815
0.0534486
0.0532679
0.0528542
0.0523689
0.0521845
0.0521523
0.0521721
0.0520771
0.0521642
0.0524179
0.0524769
0.0523981
0.0521482
0.0520744
0.0521637
0.0523642
0.0528642
0.0531972
0.0533618
0.0556423
0.0563592
0.128901
0.135708
0.0611981
0.0578354
0.0544113
0.0534122
0.05284
0.0521946
0.0519412
0.0518755
0.0518712
0.0517794
0.0518382
0.0521188
0.0521869
0.0520838
0.0518221
0.0518067
0.0519296
0.0522263
0.0527954
0.0533309
0.0542771
0.0575177
0.0610314
0.135535
0.151314
0.0692474
0.061547
0.0559091
0.0544122
0.0531255
0.0522122
0.0518371
0.0517042
0.0516634
0.0516077
0.051648
0.0519702
0.0520362
0.051925
0.0516265
0.0516605
0.0518136
0.0521742
0.053101
0.0542314
0.0556188
0.0610272
0.0684113
0.154231
0.239338
0.0874488
0.066472
0.0590218
0.0554214
0.05374
0.0525064
0.0520349
0.0518222
0.0516947
0.0516841
0.0517141
0.0520614
0.0521327
0.052013
0.0517286
0.0517836
0.0519718
0.0524557
0.0536223
0.0552788
0.0586766
0.0660308
0.0867006
0.241237
0.365431
0.118448
0.0760198
0.0628916
0.0576005
0.0548381
0.0532262
0.0526484
0.0523339
0.0521688
0.0521867
0.0522071
0.0525497
0.0526265
0.0525356
0.0523088
0.0523598
0.0526022
0.0530795
0.0546537
0.0573467
0.0617367
0.0747984
0.112962
0.365598
0.658359
0.193224
0.104136
0.0745198
0.0616
0.0574943
0.0553648
0.0542931
0.0537636
0.0535309
0.0535136
0.0535253
0.0538073
0.0539115
0.0538875
0.0537824
0.0538681
0.0542731
0.0552146
0.0569356
0.0619394
0.0734567
0.100413
0.183
0.64367
0.582206
0.435646
0.176811
0.0926676
0.0769651
0.0653305
0.0599969
0.058079
0.0571604
0.0567873
0.0566902
0.0566754
0.0568421
0.0569773
0.0570583
0.0571145
0.0573723
0.0581871
0.0600374
0.0654938
0.0764391
0.0892684
0.170974
0.43413
0.581346
0.491908
0.400899
0.348471
0.329245
0.117398
0.0813609
0.074115
0.0682719
0.0658007
0.0649269
0.0645743
0.0644069
0.0644479
0.0646222
0.0648983
0.0653411
0.0662399
0.0689258
0.075534
0.0836137
0.132148
0.332194
0.337979
0.401202
0.500231
0.408742
0.350238
0.33131
0.337329
0.302316
0.200973
0.127569
0.0991045
0.0895792
0.0878939
0.0874282
0.0871311
0.087191
0.0873702
0.0877771
0.0885163
0.0893934
0.0974033
0.134757
0.216135
0.305195
0.333923
0.331385
0.360891
0.421533
0.331031
0.295215
0.284439
0.305589
0.318737
0.325719
0.25589
0.195099
0.171091
0.150368
0.138031
0.134166
0.132157
0.133316
0.136327
0.146461
0.173658
0.195637
0.253564
0.328444
0.313022
0.306866
0.292678
0.299668
0.342942
0.241084
0.22973
0.230447
0.274307
0.328563
0.409653
0.539242
0.6238
0.611216
0.569368
0.597551
0.609027
0.61992
0.614959
0.602419
0.582692
0.588116
0.622983
0.572508
0.41408
0.325768
0.276145
0.233958
0.237217
0.253869
0.14359
0.156079
0.190832
0.231947
0.331042
0.461322
0.600655
0.670365
0.564166
0.499786
0.494852
0.494604
0.500263
0.499066
0.499727
0.518537
0.568027
0.650356
0.613886
0.468329
0.341184
0.242416
0.185015
0.147161
0.134437
0.0692701
0.104518
0.168452
0.260628
0.375683
0.426289
0.496142
0.544513
0.481051
0.428376
0.419064
0.417424
0.420831
0.423507
0.425819
0.434869
0.475228
0.534906
0.501207
0.435381
0.395655
0.286397
0.17591
0.106155
0.0708734
0.0264446
0.0526596
0.119524
0.251884
0.365743
0.367456
0.388113
0.428813
0.422031
0.39491
0.382931
0.374576
0.373315
0.379923
0.385208
0.390226
0.406105
0.415565
0.387077
0.372714
0.380639
0.268826
0.126493
0.0532139
0.0255733
0.0690469
0.0812372
0.112486
0.195811
0.283877
0.288387
0.308655
0.354168
0.373063
0.360034
0.344683
0.330854
0.327589
0.336331
0.346058
0.352253
0.3559
0.341428
0.3055
0.290392
0.287919
0.195409
0.112727
0.0799543
0.0665982
0.118469
0.12539
0.126239
0.159686
0.210506
0.223728
0.254205
0.303009
0.328644
0.320558
0.303896
0.288329
0.283861
0.293625
0.305497
0.312977
0.31338
0.291237
0.24836
0.22331
0.213761
0.156262
0.131534
0.131643
0.120188
0.15785
0.134796
0.129182
0.136343
0.164039
0.1804
0.21489
0.261426
0.287327
0.281261
0.264631
0.248936
0.244175
0.252948
0.265352
0.273507
0.272641
0.251757
0.210013
0.178495
0.166216
0.136481
0.131521
0.137639
0.160446
0.199882
0.156096
0.129342
0.123688
0.137457
0.155087
0.184505
0.225466
0.24881
0.243532
0.2282
0.214285
0.209694
0.217953
0.22927
0.236756
0.236262
0.216433
0.180081
0.153402
0.138285
0.123165
0.129364
0.149622
0.19636
0.221426
0.181971
0.132261
0.118782
0.12168
0.136815
0.160167
0.193387
0.213456
0.209747
0.196724
0.184113
0.180443
0.187318
0.198164
0.205282
0.20376
0.186239
0.157425
0.134618
0.122088
0.118427
0.131453
0.17756
0.219488
0.243314
0.206488
0.131923
0.115248
0.111621
0.122955
0.141966
0.168336
0.18441
0.180962
0.170119
0.159341
0.15572
0.161996
0.170863
0.176603
0.176066
0.161787
0.13911
0.121466
0.111405
0.114823
0.130095
0.1958
0.243679
0.267778
0.220291
0.132761
0.112369
0.105457
0.111678
0.126775
0.146729
0.158964
0.155804
0.146868
0.137647
0.135043
0.140127
0.148068
0.15307
0.152153
0.141205
0.124258
0.109704
0.104802
0.112059
0.131616
0.21345
0.263253
0.291066
0.235665
0.131638
0.108073
0.0995533
0.102851
0.114917
0.129649
0.137894
0.134629
0.127425
0.120169
0.117623
0.1225
0.128879
0.133028
0.133466
0.125324
0.112371
0.101342
0.0994675
0.108043
0.13002
0.226179
0.29006
0.322631
0.257402
0.13533
0.105725
0.0970401
0.0964393
0.104401
0.114732
0.120715
0.117642
0.111533
0.104966
0.10306
0.106813
0.112428
0.115877
0.115955
0.110808
0.102442
0.0942009
0.0957192
0.105729
0.131499
0.239368
0.316155
0.351393
0.275949
0.136253
0.101513
0.0920777
0.0914534
0.096719
0.103175
0.106053
0.102758
0.0977782
0.0927494
0.0907536
0.0945033
0.0989117
0.101923
0.103112
0.0994599
0.0939817
0.0889155
0.0911799
0.100923
0.133141
0.259594
0.343498
0.364323
0.286931
0.140274
0.0993734
0.0895661
0.0876148
0.0898476
0.0920617
0.0935813
0.0906149
0.0865514
0.0819156
0.0804491
0.0833775
0.0875936
0.0901763
0.0910375
0.0896874
0.0875611
0.0851578
0.0876081
0.0993797
0.136424
0.277611
0.371618
0.373037
0.289169
0.143122
0.0976252
0.0855868
0.082588
0.0839141
0.0846678
0.0843258
0.0810473
0.0771323
0.0734413
0.0717265
0.0746416
0.0778124
0.0803156
0.0820901
0.0815691
0.0817162
0.0807206
0.0836291
0.0957497
0.138992
0.285609
0.386028
0.387065
0.28778
0.14995
0.0981223
0.0834961
0.0791953
0.0793182
0.076857
0.0755914
0.0725322
0.069292
0.0656522
0.0644175
0.0667045
0.0699974
0.0721014
0.0737511
0.0747796
0.0769547
0.0770231
0.0818645
0.0960716
0.1465
0.291475
0.396995
0.394735
0.287713
0.159251
0.0988615
0.0799716
0.0751553
0.0736128
0.0711301
0.0689168
0.0656815
0.0624788
0.059647
0.0581776
0.0605698
0.0631064
0.0654383
0.0676809
0.0687835
0.0721737
0.0731127
0.0778914
0.0961045
0.155584
0.289854
0.403186
0.400588
0.288131
0.16378
0.101402
0.0798763
0.0731173
0.0698446
0.0657293
0.0628624
0.0596318
0.0569935
0.0539884
0.0529186
0.0547674
0.0574482
0.059255
0.0613049
0.0637758
0.0677372
0.0708938
0.0774853
0.0980281
0.164482
0.292156
0.411423
0.407844
0.282801
0.162271
0.104036
0.0800497
0.069203
0.0647962
0.0611921
0.0581833
0.0548558
0.0519378
0.0496559
0.0483962
0.0503789
0.0524198
0.054706
0.0571377
0.0589645
0.0632206
0.0672232
0.07701
0.102191
0.167035
0.291244
0.411039
0.413558
0.280008
0.162453
0.108773
0.0816881
0.067989
0.0621574
0.056742
0.053544
0.0502123
0.0479446
0.045447
0.0445156
0.0460628
0.0483152
0.0500058
0.0525756
0.0553563
0.0601545
0.0658391
0.0790523
0.107158
0.166777
0.283772
0.41388
0.411011
0.27579
0.161717
0.117526
0.0837772
0.0655423
0.0582107
0.0532711
0.0499685
0.047015
0.0442332
0.0423047
0.0411642
0.0428062
0.0445743
0.0468519
0.0491361
0.0511604
0.0565035
0.0633291
0.0802353
0.117095
0.165584
0.276943
0.406994
0.406846
0.2733
0.158786
0.12919
0.0868793
0.0664011
0.0569745
0.0501123
0.0463686
0.0432692
0.0412977
0.0391107
0.0382638
0.0395457
0.0415816
0.0430988
0.0456791
0.0487568
0.0550162
0.0638753
0.0853515
0.132668
0.164597
0.273774
0.396973
0.396141
0.273074
0.153305
0.129688
0.092341
0.0661446
0.0540228
0.0470699
0.0435677
0.0409904
0.0384369
0.036771
0.0357294
0.0371837
0.0387463
0.0408909
0.0429977
0.0454073
0.0524459
0.0637646
0.0899161
0.133082
0.158969
0.269474
0.391598
0.384345
0.271751
0.146643
0.129168
0.101198
0.0689959
0.0545858
0.0455365
0.041206
0.0380315
0.0361835
0.0342599
0.0335161
0.0346462
0.0363852
0.0378446
0.0406181
0.0442515
0.0525392
0.0660117
0.0998226
0.132186
0.151134
0.2689
0.386751
0.379677
0.26933
0.139697
0.12676
0.114528
0.0708613
0.05348
0.0437353
0.0391944
0.0364856
0.0339759
0.032484
0.0315666
0.0328802
0.03425
0.0363675
0.0385796
0.042222
0.0519523
0.0688999
0.114553
0.129791
0.143448
0.266585
0.38097
0.372676
0.268961
0.135381
0.121639
0.114082
0.0770207
0.055164
0.0440818
0.0379156
0.0341472
0.0322319
0.0305095
0.0298579
0.030854
0.0324482
0.0340564
0.0374988
0.0426285
0.0531001
0.0747452
0.114887
0.124195
0.137015
0.266011
0.378519
0.365823
0.265812
0.133018
0.115855
0.113525
0.0863177
0.0562787
0.043508
0.0371028
0.033416
0.0306328
0.0292059
0.0283359
0.0295046
0.0308231
0.0332323
0.0364278
0.0418725
0.0544893
0.0842646
0.113833
0.116077
0.132247
0.267613
0.374465
0.36045
0.262623
0.130146
0.109744
0.109409
0.0974183
0.0613718
0.0447548
0.0371908
0.0320437
0.0294386
0.0276561
0.0270179
0.0279275
0.0295886
0.031774
0.0367208
0.0435211
0.060038
0.0991207
0.110837
0.110582
0.130717
0.266866
0.367965
0.354715
0.261339
0.12995
0.105969
0.104026
0.0972017
0.0690862
0.0459839
0.0369313
0.0324721
0.0286166
0.0268352
0.0259165
0.0270811
0.0287441
0.0319727
0.0362932
0.0446414
0.068278
0.0990082
0.105715
0.105995
0.130354
0.264111
0.363649
0.343831
0.255362
0.13067
0.102213
0.0980873
0.0952969
0.0820557
0.0512404
0.0381881
0.0319569
0.0283469
0.0259903
0.0251421
0.0262006
0.0284639
0.0315108
0.0374546
0.0498365
0.0810179
0.0963053
0.0995697
0.102933
0.131107
0.260452
0.353652
0.335389
0.25154
0.129745
0.100567
0.0944165
0.0916393
0.0821485
0.0579416
0.0396888
0.0326712
0.0282973
0.0260414
0.0246626
0.0262388
0.0284214
0.0322187
0.0390524
0.0574441
0.0817009
0.0922167
0.095517
0.10154
0.133056
0.254245
0.34132
0.311243
0.24119
0.129062
0.0985891
0.0903738
0.0870907
0.0811315
0.0695807
0.0449531
0.0329204
0.0284274
0.0257917
0.0246614
0.0259907
0.0285192
0.0325897
0.0444705
0.0695239
0.0803677
0.0868563
0.091334
0.100045
0.132131
0.242772
0.314146
0.282606
0.22602
0.125048
0.0975136
0.0886415
0.0828361
0.0786871
0.069872
0.0518749
0.0361268
0.0289813
0.0262067
0.0247692
0.0263799
0.0290019
0.035532
0.051316
0.0699668
0.0781247
0.082588
0.0893151
0.0989378
0.127957
0.227601
0.285684
0.143106
0.276152
0.252584
0.258347
0.268837
0.2768
0.273383
0.263592
0.277859
0.318972
0.370162
0.426838
0.484678
0.538551
0.585548
0.618662
0.641155
0.655034
0.667504
0.678975
0.6861
0.671288
0.577016
0.426631
0.353413
0.313271
0.279641
0.234285
0.171265
0.0788651
0.125155
0.234286
0.214492
0.247973
0.272946
0.282764
0.283724
0.268565
0.243848
0.261663
0.322324
0.387545
0.449855
0.507248
0.556273
0.595275
0.621162
0.638221
0.6526
0.666555
0.675927
0.675339
0.635547
0.474042
0.361018
0.306722
0.26825
0.223456
0.162907
0.0760451
0.127943
0.226575
0.227129
0.271267
0.290641
0.304639
0.308263
0.290742
0.262059
0.256802
0.30594
0.362655
0.421081
0.47787
0.528382
0.570461
0.600797
0.622031
0.639928
0.655556
0.669478
0.673531
0.651833
0.533425
0.372681
0.299861
0.254938
0.211023
0.15343
0.0730616
0.12432
0.218812
0.247312
0.286501
0.302338
0.320867
0.327243
0.311759
0.281643
0.246088
0.271645
0.331309
0.389503
0.446039
0.49808
0.542727
0.577861
0.602253
0.622703
0.641742
0.657193
0.66441
0.654572
0.597313
0.404578
0.298056
0.245543
0.199647
0.145238
0.0707707
0.118396
0.220116
0.268846
0.301991
0.321891
0.345416
0.353783
0.338356
0.29875
0.256123
0.252092
0.307669
0.361325
0.415421
0.467963
0.513968
0.552083
0.582904
0.605363
0.625383
0.643173
0.654193
0.649629
0.613575
0.471782
0.309283
0.23843
0.189804
0.138239
0.0690401
0.111682
0.225974
0.290832
0.31528
0.340347
0.359604
0.36063
0.351763
0.312728
0.259971
0.238982
0.285899
0.335703
0.386902
0.4393
0.486408
0.526008
0.558152
0.585078
0.607569
0.626038
0.637477
0.636208
0.61508
0.547878
0.350774
0.238772
0.182271
0.130827
0.0665861
0.107055
0.245991
0.312145
0.330959
0.359077
0.367896
0.356257
0.340075
0.310872
0.258868
0.234886
0.266635
0.312933
0.361355
0.412489
0.459996
0.500877
0.534355
0.562555
0.587284
0.607454
0.620314
0.622631
0.605063
0.567039
0.452048
0.26103
0.177451
0.12357
0.0635086
0.104362
0.269636
0.334555
0.351365
0.373313
0.368178
0.347093
0.324699
0.298608
0.25303
0.23166
0.248107
0.291889
0.339336
0.390062
0.436788
0.476653
0.510786
0.539816
0.564996
0.585505
0.600279
0.605285
0.590759
0.561813
0.499548
0.343624
0.184831
0.119179
0.0616855
0.103114
0.293911
0.356665
0.376993
0.391583
0.372173
0.33397
0.309313
0.283319
0.245511
0.225958
0.234357
0.274031
0.321779
0.368286
0.413033
0.454709
0.489252
0.518251
0.542923
0.561897
0.575631
0.582827
0.576104
0.541945
0.497449
0.414895
0.232176
0.121266
0.0607648
0.10377
0.31774
0.377024
0.397784
0.403921
0.369208
0.320625
0.289218
0.266152
0.236927
0.218024
0.22566
0.26079
0.305238
0.349154
0.391956
0.432935
0.46821
0.497509
0.52097
0.5382
0.549516
0.555505
0.551699
0.529734
0.479494
0.425209
0.318768
0.142996
0.062155
0.106385
0.34202
0.395347
0.413714
0.408675
0.365441
0.309894
0.267639
0.250652
0.229651
0.211764
0.221457
0.254818
0.294144
0.3339
0.374165
0.41411
0.449058
0.477309
0.499288
0.515038
0.52525
0.531433
0.529115
0.509243
0.459957
0.414852
0.347342
0.206467
0.0706118
0.109712
0.364245
0.411194
0.425813
0.413156
0.36336
0.302571
0.255606
0.24185
0.226385
0.211221
0.223628
0.25257
0.288639
0.324155
0.36142
0.398895
0.432845
0.459715
0.480243
0.494727
0.503989
0.508303
0.504536
0.485488
0.438943
0.399482
0.356002
0.275198
0.0965986
0.114251
0.38265
0.423759
0.436407
0.420634
0.365558
0.301917
0.249809
0.238383
0.227604
0.218673
0.231253
0.256516
0.288364
0.320131
0.353832
0.388201
0.419598
0.443938
0.462553
0.475549
0.483175
0.485765
0.480137
0.460812
0.417039
0.383532
0.35341
0.312905
0.176075
0.118774
0.398077
0.433215
0.442589
0.430011
0.37484
0.313867
0.257063
0.245725
0.235765
0.234899
0.246671
0.267678
0.293635
0.321
0.35022
0.380913
0.408491
0.430041
0.446093
0.457184
0.463346
0.46429
0.456818
0.437274
0.395825
0.371521
0.350506
0.347358
0.223615
0.123775
0.412951
0.440286
0.444646
0.437906
0.390011
0.337859
0.283999
0.266434
0.255505
0.261407
0.270538
0.282898
0.302765
0.325258
0.349806
0.375976
0.399292
0.417665
0.431336
0.440287
0.444217
0.442838
0.43472
0.415539
0.380148
0.362562
0.356442
0.390478
0.233512
0.128539
0.425164
0.444314
0.446905
0.443937
0.407193
0.368708
0.322842
0.298442
0.289066
0.296567
0.296758
0.299899
0.313651
0.331871
0.351444
0.372714
0.391074
0.406193
0.416958
0.42333
0.424712
0.42171
0.41307
0.396244
0.371826
0.358432
0.378843
0.478638
0.231885
0.133313
0.435636
0.448225
0.446862
0.447748
0.421569
0.392098
0.357254
0.33152
0.321876
0.322372
0.318685
0.317122
0.32482
0.338821
0.353905
0.369779
0.383461
0.394806
0.402308
0.40592
0.405338
0.401639
0.393617
0.379533
0.366571
0.364259
0.41922
0.498159
0.227031
0.138054
0.445136
0.451341
0.444329
0.446901
0.435715
0.415578
0.381836
0.354023
0.338722
0.33562
0.332677
0.330607
0.333849
0.344838
0.355394
0.366405
0.375967
0.383054
0.387234
0.388653
0.387293
0.384261
0.379222
0.37104
0.362638
0.38231
0.50537
0.483531
0.223367
0.141361
0.452745
0.451741
0.438494
0.43904
0.444551
0.440749
0.410397
0.377347
0.356771
0.34889
0.342958
0.341372
0.342167
0.348719
0.354832
0.361813
0.367694
0.371156
0.372538
0.372352
0.371025
0.369617
0.368866
0.365366
0.366895
0.414593
0.533602
0.463563
0.22269
0.144974
0.45875
0.449487
0.425603
0.428141
0.444805
0.457624
0.444432
0.412911
0.386798
0.369905
0.358032
0.353668
0.350276
0.350484
0.351664
0.355326
0.358386
0.359438
0.358834
0.357787
0.357491
0.358195
0.361149
0.361639
0.38133
0.471866
0.528007
0.445749
0.223047
0.149276
0.455607
0.438893
0.407183
0.413728
0.436586
0.46039
0.469731
0.44987
0.424075
0.397714
0.377629
0.366549
0.356441
0.349408
0.345215
0.346217
0.348079
0.347442
0.34619
0.345721
0.346962
0.349891
0.355033
0.366145
0.409714
0.5224
0.512513
0.433864
0.223596
0.153603
0.449825
0.423298
0.386354
0.395399
0.423124
0.451538
0.477101
0.479152
0.463049
0.433132
0.405513
0.384333
0.363371
0.347241
0.339609
0.338582
0.33818
0.337056
0.335378
0.335798
0.33798
0.342017
0.351118
0.377629
0.457478
0.528414
0.495387
0.422697
0.222257
0.150889
0.429408
0.397462
0.363197
0.376333
0.408219
0.439275
0.47066
0.495703
0.497745
0.475032
0.444911
0.412462
0.376542
0.350528
0.337881
0.332954
0.330257
0.328533
0.326933
0.328055
0.331352
0.337813
0.353549
0.400451
0.518503
0.517331
0.472959
0.413765
0.219571
0.150881
0.406836
0.367508
0.343915
0.359188
0.392618
0.424999
0.458438
0.494464
0.515727
0.511279
0.490495
0.452511
0.403719
0.361575
0.34275
0.330986
0.324931
0.322208
0.321315
0.323514
0.326683
0.336785
0.362351
0.432572
0.531087
0.504136
0.45853
0.402041
0.216051
0.132424
0.320285
0.331166
0.329551
0.347342
0.3783
0.410685
0.444455
0.480362
0.511036
0.527937
0.527739
0.498026
0.445981
0.384755
0.355597
0.334371
0.322993
0.318359
0.317434
0.318405
0.323276
0.338549
0.380783
0.496374
0.524798
0.488441
0.447819
0.391427
0.211508
0.0783262
0.170675
0.234201
0.28007
0.314069
0.356019
0.433162
0.587427
0.668625
0.680132
0.672325
0.660827
0.648917
0.634872
0.611157
0.576646
0.529184
0.474021
0.416535
0.360316
0.310322
0.272848
0.26655
0.276936
0.278289
0.269721
0.256021
0.2477
0.270691
0.140957
0.0754817
0.162221
0.22339
0.268744
0.307867
0.364496
0.483015
0.635303
0.670959
0.670295
0.660315
0.646172
0.632357
0.614695
0.587675
0.547505
0.496854
0.439861
0.377288
0.312476
0.254608
0.248774
0.274842
0.290369
0.286876
0.276209
0.250951
0.214828
0.228872
0.122842
0.0724597
0.152719
0.210985
0.255352
0.301278
0.376772
0.539954
0.649039
0.668322
0.663536
0.649448
0.633785
0.616075
0.594076
0.562757
0.519859
0.468203
0.411676
0.354284
0.298189
0.253834
0.268704
0.297784
0.31642
0.309336
0.293743
0.274051
0.228444
0.222798
0.125728
0.0701123
0.14446
0.199619
0.245918
0.299626
0.408704
0.596055
0.64955
0.659002
0.651726
0.635966
0.61707
0.59642
0.570819
0.535308
0.489793
0.437059
0.380829
0.324038
0.265739
0.250368
0.28879
0.319162
0.332843
0.324027
0.30569
0.28965
0.249871
0.216398
0.121879
0.0683697
0.137486
0.189624
0.238752
0.310187
0.47311
0.610942
0.645052
0.648622
0.638114
0.6203
0.599859
0.576842
0.545505
0.506711
0.459738
0.407289
0.353888
0.301814
0.249433
0.261761
0.307976
0.346027
0.356511
0.347051
0.32536
0.305575
0.272121
0.219856
0.116039
0.0660447
0.130267
0.181978
0.238434
0.348248
0.541878
0.613547
0.6352
0.633852
0.621572
0.60285
0.579677
0.552242
0.519697
0.47931
0.431663
0.379882
0.329407
0.280308
0.239944
0.265622
0.320641
0.35424
0.361404
0.360676
0.343208
0.319215
0.294385
0.228053
0.109553
0.0630097
0.122942
0.176815
0.257942
0.444336
0.568077
0.605658
0.62122
0.617574
0.603738
0.582875
0.557558
0.528983
0.494901
0.45349
0.405955
0.355274
0.307897
0.261946
0.237428
0.263691
0.317191
0.342644
0.357966
0.369997
0.360891
0.334398
0.316218
0.24906
0.105477
0.0611847
0.118429
0.182399
0.331698
0.497863
0.563939
0.592622
0.603868
0.597336
0.581722
0.5604
0.535049
0.506161
0.471099
0.429781
0.383464
0.334248
0.287454
0.244355
0.234462
0.257213
0.304082
0.328008
0.350588
0.37268
0.375927
0.354432
0.3392
0.273468
0.103358
0.0602347
0.11969
0.222817
0.41281
0.500929
0.547692
0.577537
0.582175
0.572811
0.55849
0.53859
0.514036
0.484487
0.449092
0.408013
0.362946
0.316889
0.270316
0.231266
0.228603
0.249095
0.288163
0.312195
0.338008
0.377732
0.395069
0.379739
0.361394
0.298274
0.102523
0.061374
0.138633
0.312242
0.426565
0.484064
0.5342
0.553609
0.556075
0.549433
0.537388
0.519742
0.495892
0.466607
0.430388
0.388302
0.344189
0.301456
0.257175
0.22296
0.220258
0.240293
0.270275
0.291886
0.324765
0.374258
0.407114
0.400295
0.381253
0.322785
0.103618
0.0688708
0.196761
0.343975
0.416523
0.466193
0.512362
0.530627
0.53212
0.525644
0.514981
0.498901
0.476644
0.448334
0.412285
0.371659
0.330141
0.291165
0.251951
0.218765
0.213272
0.232438
0.253628
0.270537
0.314487
0.370477
0.411621
0.41557
0.399155
0.347343
0.106518
0.091814
0.267568
0.35396
0.400536
0.445477
0.489555
0.506497
0.508847
0.503914
0.494365
0.479567
0.458781
0.431727
0.397234
0.359658
0.321653
0.28612
0.249799
0.220815
0.212264
0.228381
0.243589
0.259168
0.307473
0.368895
0.417806
0.427486
0.414726
0.3694
0.110215
0.16752
0.307812
0.352482
0.383889
0.424062
0.465744
0.482386
0.485931
0.48273
0.474682
0.461339
0.442454
0.417742
0.386343
0.352501
0.318548
0.286136
0.254663
0.228525
0.219383
0.228506
0.239228
0.253246
0.307217
0.371547
0.425872
0.437915
0.426921
0.387651
0.114713
0.218772
0.343378
0.349912
0.37232
0.403172
0.442526
0.459101
0.463866
0.462277
0.456086
0.444823
0.428521
0.406198
0.379129
0.349311
0.320103
0.291996
0.26645
0.245033
0.233765
0.236096
0.246111
0.260224
0.319404
0.380303
0.435148
0.444987
0.43746
0.402821
0.119143
0.230164
0.386674
0.356617
0.366166
0.38562
0.420493
0.436496
0.442568
0.442599
0.438232
0.429017
0.415497
0.396681
0.374205
0.348995
0.325096
0.301806
0.281906
0.269952
0.259031
0.254667
0.26627
0.286693
0.342902
0.395624
0.442933
0.447634
0.445004
0.417475
0.12397
0.229172
0.474775
0.380042
0.362547
0.37685
0.402391
0.41494
0.421522
0.423185
0.421082
0.41441
0.403487
0.388365
0.370816
0.350732
0.33187
0.313156
0.299347
0.296454
0.295142
0.287582
0.29891
0.325525
0.372919
0.412444
0.44918
0.449935
0.44939
0.430025
0.128701
0.224669
0.496169
0.419791
0.368518
0.372212
0.386548
0.39539
0.401377
0.404021
0.403941
0.399898
0.392354
0.380774
0.367705
0.353011
0.338767
0.324819
0.317274
0.318304
0.322324
0.321646
0.332542
0.360166
0.396186
0.426378
0.452794
0.449464
0.454025
0.440854
0.133306
0.22116
0.481995
0.504373
0.386243
0.368665
0.376158
0.379968
0.383424
0.385858
0.386853
0.385073
0.380878
0.373465
0.36423
0.353998
0.344849
0.334232
0.331418
0.332746
0.336051
0.339769
0.355558
0.385276
0.419587
0.440069
0.451654
0.447431
0.4576
0.450592
0.137977
0.220785
0.46231
0.534271
0.417599
0.372936
0.369348
0.369282
0.369248
0.370145
0.371155
0.370892
0.369193
0.365784
0.359782
0.353737
0.348818
0.3425
0.342438
0.343424
0.349809
0.359131
0.379718
0.413889
0.444233
0.448091
0.442696
0.442957
0.458967
0.458954
0.141152
0.222768
0.445107
0.529198
0.472371
0.385336
0.365066
0.362675
0.358639
0.357309
0.35733
0.357676
0.357785
0.357087
0.353806
0.351227
0.350349
0.350861
0.354452
0.359007
0.371623
0.390986
0.417129
0.44918
0.461901
0.448669
0.432008
0.42963
0.456645
0.465351
0.14459
0.223277
0.433807
0.513913
0.524796
0.412479
0.368395
0.356153
0.350939
0.34692
0.345376
0.345746
0.347022
0.347727
0.346388
0.346051
0.349486
0.357792
0.368365
0.380264
0.400619
0.429622
0.456121
0.475408
0.464865
0.44054
0.417524
0.411099
0.445115
0.461965
0.149235
0.221792
0.423569
0.498129
0.531578
0.455961
0.378785
0.352682
0.343301
0.337823
0.335903
0.335945
0.3375
0.33841
0.339457
0.341024
0.349386
0.365329
0.388089
0.41028
0.437128
0.468802
0.486828
0.483377
0.456492
0.427097
0.399001
0.390445
0.428628
0.45584
0.153511
0.219094
0.415963
0.476573
0.52094
0.521451
0.401731
0.354318
0.338032
0.331504
0.328776
0.32823
0.329722
0.331336
0.33476
0.340363
0.353682
0.381712
0.418589
0.452083
0.479333
0.502023
0.503146
0.476719
0.444128
0.412377
0.379956
0.36767
0.401876
0.433882
0.150874
0.215579
0.403956
0.461156
0.507972
0.536025
0.431981
0.362498
0.337341
0.327428
0.324292
0.322617
0.324013
0.326904
0.334137
0.347424
0.367427
0.412561
0.460578
0.498984
0.515744
0.518208
0.501046
0.464927
0.429686
0.396963
0.363248
0.348973
0.371524
0.410038
0.15089
0.211813
0.392939
0.450393
0.49196
0.530947
0.494989
0.380173
0.338927
0.324213
0.319702
0.318852
0.320704
0.32635
0.339237
0.362463
0.394616
0.458867
0.508148
0.536692
0.53356
0.512941
0.485958
0.452855
0.415272
0.382428
0.351335
0.334686
0.335081
0.321095
0.132553
0.241078
0.24239
0.246623
0.250462
0.25583
0.261164
0.267292
0.273438
0.283652
0.293393
0.304294
0.315305
0.325527
0.335868
0.347231
0.360306
0.375199
0.385676
0.39457
0.404719
0.415364
0.427865
0.442039
0.455479
0.468724
0.479182
0.485372
0.4871
0.483981
0.476815
0.465422
0.451512
0.436534
0.421525
0.406073
0.390926
0.376075
0.361071
0.346187
0.331737
0.318188
0.306958
0.297546
0.288088
0.27861
0.27008
0.2622
0.254945
0.248631
0.243625
0.239814
0.236472
0.233442
0.230089
0.226824
0.223864
0.220814
0.21764
0.214086
0.210049
0.205832
0.201822
0.197664
0.19293
0.18817
0.18354
0.178888
0.174453
0.170536
0.16708
0.164042
0.161383
0.158963
0.156826
0.154807
0.152981
0.151483
0.150486
0.14992
0.149497
0.148908
0.147999
0.146861
0.14557
0.144184
0.142727
0.141215
0.139691
0.138233
0.136939
0.135857
0.135023
0.134437
0.134086
0.133967
0.13416
0.134678
0.135497
0.136385
0.137397
0.138483
0.139738
0.141386
0.143665
0.146264
0.148559
0.150652
0.152493
0.15439
0.156231
0.157987
0.159438
0.161076
0.161668
0.16214
0.163666
0.165764
0.168597
0.172269
0.177336
0.182225
0.18612
0.190312
0.195805
0.2048
0.509814
0.516933
0.523609
0.533487
0.5421
0.550466
0.562446
0.578331
0.598434
0.619871
0.644024
0.67257
0.702637
0.73489
0.77397
0.822371
0.881186
0.952918
1.03449
1.11945
1.21235
1.29383
1.37782
1.4667
1.559
1.6556
1.73964
1.8048
1.85242
1.88576
1.90433
1.90236
1.87871
1.83389
1.77803
1.7113
1.64076
1.56606
1.49027
1.41676
1.34797
1.28483
1.22659
1.1698
1.11392
1.05861
1.00534
0.955802
0.91188
0.874359
0.84173
0.81144
0.78189
0.750328
0.718875
0.688615
0.660998
0.635075
0.611135
0.587365
0.562248
0.535527
0.507916
0.481542
0.458028
0.437848
0.420628
0.405529
0.392683
0.38165
0.371922
0.362776
0.354046
0.345403
0.336827
0.329025
0.322302
0.316902
0.312554
0.308608
0.304414
0.299613
0.294173
0.288303
0.282208
0.276025
0.269867
0.263876
0.258206
0.25301
0.248369
0.244324
0.240852
0.237944
0.235566
0.23386
0.232877
0.232883
0.233156
0.23398
0.235412
0.237489
0.239761
0.243389
0.246669
0.249602
0.252413
0.255314
0.258104
0.260746
0.260789
0.261717
0.263976
0.267262
0.271954
0.278677
0.287439
0.300958
0.314302
0.326145
0.336306
0.349744
0.361961
0.372429
0.38262
0.657687
0.669725
0.681199
0.696169
0.716735
0.737043
0.760805
0.786921
0.816649
0.849152
0.878586
0.910455
0.947844
0.981799
1.01843
1.06176
1.11162
1.17661
1.25757
1.35702
1.48119
1.60889
1.74288
1.87696
2.00157
2.12528
2.24006
2.34515
2.43636
2.51117
2.56983
2.60954
2.62323
2.60597
2.55815
2.48094
2.38132
2.27263
2.15847
2.04554
1.93733
1.8351
1.73648
1.63815
1.54005
1.44399
1.35206
1.26612
1.18897
1.12291
1.06662
1.01638
0.969717
0.924704
0.882711
0.845963
0.816042
0.792817
0.773997
0.754625
0.734601
0.71278
0.686385
0.655629
0.623343
0.592675
0.56569
0.54274
0.523672
0.507545
0.493501
0.480645
0.468269
0.456815
0.446574
0.437372
0.429142
0.421646
0.414542
0.407314
0.399535
0.391175
0.38245
0.373582
0.364728
0.356013
0.347563
0.339463
0.331794
0.324652
0.318125
0.312267
0.307108
0.302612
0.298799
0.295796
0.293762
0.29277
0.292715
0.293012
0.293871
0.295127
0.297418
0.299402
0.301282
0.303633
0.306303
0.310299
0.313779
0.317263
0.320683
0.324814
0.331965
0.340089
0.34823
0.356607
0.367416
0.377667
0.388072
0.397454
0.406415
0.414508
0.422716
0.431615
0.44099
1.04515
1.05593
1.07852
1.10865
1.15
1.19228
1.22728
1.26192
1.29325
1.32288
1.34227
1.35592
1.36758
1.37447
1.37672
1.38014
1.38624
1.40174
1.44487
1.51329
1.62503
1.78531
1.99732
2.25143
2.52972
2.80333
3.04245
3.2586
3.42394
3.5467
3.6285
3.67707
3.69204
3.67186
3.61538
3.52506
3.40075
3.25765
3.10593
2.94961
2.79493
2.64478
2.4983
2.35278
2.20645
2.05952
1.91448
1.77425
1.64245
1.52079
1.40863
1.30449
1.20875
1.12113
1.04074
0.968383
0.907321
0.855844
0.811615
0.779047
0.767272
0.773517
0.778822
0.77241
0.752958
0.724545
0.693432
0.664727
0.639473
0.617773
0.598825
0.582396
0.56757
0.553117
0.53879
0.524776
0.512718
0.502049
0.491939
0.481756
0.471023
0.459638
0.447804
0.435724