/*--------------------------------*- C++ -*----------------------------------*\
| =========                 |                                                 |
| \\      /  F ield         | OpenFOAM: The Open Source CFD Toolbox           |
|  \\    /   O peration     | Version:  2112                                  |
|   \\  /    A nd           | Website:  www.openfoam.com                      |
|    \\/     M anipulation  |                                                 |
\*---------------------------------------------------------------------------*/
FoamFile
{
    version     2.0;
    format      ascii;
    arch        "LSB;label=32;scalar=64";
    class       volScalarField;
    location    "0.0063";
    object      k;
}
// * * * * * * * * * * * * * * * * * * * * * * * * * * * * * * * * * * * * * //

dimensions      [0 2 -2 0 0 0 0];

internalField   nonuniform List<scalar> 
13875
(
812.099
3462.63
3540.3
3539.26
3541.33
3539.84
3540.85
3543.46
3542.12
3540.18
3540.67
3541.2
3540.64
3540.16
3540.45
3541.25
3541.85
3541.1
3540.68
3540.23
3541.12
3539
3540.07
3460.18
820.519
881.793
2936.63
3012.97
3000.65
3000.92
2997.99
2996.74
2997.64
2996.83
2997.56
2996.92
2998.38
2996.51
2996.37
2996.18
2998.55
2996.17
2997.02
2996.98
2998.64
3000.42
2999.29
3011.58
2933.48
894.618
993.361
2710.86
2777.4
2755.34
2758.47
2754.7
2745.88
2744.31
2741.97
2741.96
2741.96
2744.58
2751.4
2752.16
2750.87
2744.65
2741.1
2742.72
2745.4
2755.17
2757.65
2753.17
2774.4
2706.55
998.534
1091.07
2533.68
2580.91
2561.45
2566.39
2562.7
2552.44
2550.47
2547.78
2546.45
2546.69
2548.66
2559.28
2560.01
2558.84
2548.64
2547.2
2547.65
2551.26
2562.98
2565.46
2559.4
2579
2529.77
1094.03
1172.11
2380.45
2413.09
2392.77
2397.68
2394.04
2383.29
2381.57
2379.35
2378.27
2378.58
2379.67
2390.29
2391.4
2389.89
2379.72
2379.08
2379.19
2382.43
2394.02
2396.77
2391.16
2410.35
2375.89
1177.47
1241.01
2237.12
2270.82
2244.76
2250.85
2245.84
2233.79
2232.3
2230.28
2229.38
2229.83
2230.15
2240.93
2242.29
2240.5
2230.17
2230.38
2230.12
2233.17
2245.72
2249.96
2243.7
2267.76
2247.53
1247.06
1320.98
2121.83
2158.23
2120.19
2122.85
2115.89
2101.79
2100.17
2098.05
2096.86
2097.6
2097.29
2108.3
2109.69
2107.55
2097.21
2098.49
2097.96
2101.59
2115.53
2121.74
2119.75
2154.02
2095.76
1323.04
1409.78
2000.72
2073.48
2019.39
2015.96
2003.01
1986.01
1983.06
1980.43
1978.85
1980.16
1978.98
1990.35
1991.95
1989.44
1978.79
1981.42
1980.9
1985.51
2002.2
2014
2017.97
2068.24
1992.71
1419.9
1691.48
2029.51
2021.98
1944.4
1924.82
1905.5
1884.81
1880.34
1876.69
1874.25
1876.58
1874.72
1886.35
1888.2
1885.44
1874.69
1878.19
1877.71
1883.43
1903.9
1922.57
1942.28
2017.98
2033.56
1716.53
2509.28
2285.58
2018.23
1900.88
1859
1827.76
1804.21
1798.05
1793.34
1790.48
1793.18
1791.14
1802.41
1804.48
1801.77
1792.22
1795.25
1795.77
1801.66
1824.9
1855.77
1892.31
2011.4
2265.78
2529.37
3877.93
3028.32
2154.34
1916.55
1816.53
1774.6
1748.19
1737.09
1730.84
1727.87
1730.13
1728.15
1738.46
1740.82
1738.94
1731.83
1734
1736.18
1745.78
1768.96
1813.91
1907.97
2130.59
2937.36
3858.94
5187.06
6457.67
2858.29
1996.8
1856.22
1760.5
1716.54
1699.63
1690.41
1686.99
1688
1686.35
1694.75
1697.5
1696.94
1692.58
1694.69
1699.96
1713.88
1759.05
1847.98
1972.91
2785.66
6321.43
5121.22
5059.03
7611.45
7073.3
3353.37
2049.54
1803.55
1747.02
1704.88
1687.78
1680.56
1678.78
1676.51
1682.41
1685.56
1687.04
1686.94
1693.67
1710.01
1750.24
1807.08
2091.53
3230.62
6751.74
7646.54
5010.97
4829.89
6358.56
7193.15
8780.43
5169
2340.43
1909.18
1802.35
1760.54
1753.55
1751.87
1749.82
1754.6
1757.59
1760.16
1761.83
1766.72
1802.55
1946.86
2493.97
5640.05
8154.32
6958.34
6333.23
4832.87
4609.32
5522.91
6059.82
7023.85
6800.17
6708.75
3515.38
2432.76
2182.17
2069.25
2033.07
2016.48
2017.96
2022.65
2034.13
2067.38
2163.01
2420.38
3619
6964.25
6834.96
6715.23
5971.41
5493.69
4684.16
4303.79
4815.3
5145.18
5934.99
6078.2
6591.62
5624.6
5027.88
5025.46
4475.48
4486.81
4530.89
4596.58
4568.16
4508.26
4411.57
5057.98
5321.2
5712.64
6693.32
6024.77
5742.57
5091.19
4789.44
4372.91
3749.11
4071.2
4382.02
5120.76
5656.93
6575.69
7358.95
8250.23
7292.74
6383.35
6590.35
6837.95
6973.51
6941.45
6734.27
6583.12
7145
8230
7754.81
6663.84
5570.51
4980.21
4269.73
3987.52
3740.1
3084.66
3435.74
4010.27
4873.35
5574.92
6308.06
7470.53
8612.58
6507.48
5344.98
5254.98
5315.43
5404.98
5379.9
5330.69
5584.22
6511.38
8079.38
7561.59
6426.12
5667.45
4905.77
3959.83
3371.16
3048.81
2644.64
3187.65
3924.54
5294.83
6138.83
5838.46
6296.98
7140.02
6136.79
5087.36
4725.72
4601.62
4607.71
4667.16
4792.84
5136.23
5948.88
6868.77
6336
5900.33
6410.57
5513.24
4000.63
3191.51
2642.92
2519.36
3346.73
4155.03
5503.45
5890.02
5306.22
5344.42
5968.27
5698.21
4952.76
4419.97
4091.96
4019.29
4178.46
4496.63
4926.36
5475.67
5767.86
5366.05
5376.1
6018.37
5567.58
4304.18
3428.33
2521.38
4407.03
6662.23
5424.85
4865.58
5076.73
4659.35
4640.33
5174.93
5213.87
4662.96
4072.44
3644.74
3535.44
3760.38
4173.33
4624.51
5002.7
5018.45
4666.71
4740.47
5174.21
4883.83
5631.67
6435.96
4072.2
10247.9
19107.9
6567.51
4216.97
4369
4102.72
4107.77
4581.16
4731.46
4295.44
3706.11
3246.09
3118.51
3362.82
3804.02
4246.02
4534.13
4460.9
4134.77
4174.01
4445.35
4259.04
7159.83
19400.5
9874.92
11767.3
14506.8
5895.41
3755.26
3824.56
3663.09
3669.82
4095.54
4272.02
3897.49
3344.94
2897.03
2758.16
2992.86
3421.47
3838.12
4088.19
3997.84
3691.1
3717.25
3870.01
3797.87
6199.2
15108.2
12182.9
11316
13978.6
5058.37
3415.37
3390.12
3283.06
3293.83
3671.02
3848.98
3506.24
2991.72
2578.76
2452.73
2670.6
3071.64
3460.77
3687.67
3585
3314.53
3339.59
3435.65
3461.3
5248.42
13453.8
11587.2
10934.1
13218.4
4513.57
3166.81
3059.16
2963.99
2986.95
3307.99
3466.45
3155.63
2688.02
2310.85
2195.92
2394.14
2764.08
3120.48
3325.49
3230.18
2999.59
3017.39
3106.26
3212.59
4668.5
13019.7
11152.9
10633.5
13002.6
4132.92
2935.52
2793.44
2692.27
2733
2999.45
3127.82
2845
2424.84
2083.52
1978.39
2155.43
2487.22
2810.02
2997.94
2923.15
2732.22
2730.08
2831.58
2974.77
4198.62
12378.1
10832.8
10429.9
12116.3
3748.36
2721.61
2569.71
2463.52
2518.08
2730.17
2816.25
2557.91
2188.09
1887.63
1794.07
1955.94
2255.18
2542.97
2715.58
2664.15
2507.22
2494.35
2613.26
2768.66
3826.44
11692.9
10586.8
10290.3
11584.1
3483.91
2540.96
2387.98
2278.26
2333.18
2500.62
2552.08
2315.22
1988.75
1721.92
1636.44
1782.08
2047.18
2304.27
2464.16
2437.66
2315.43
2296.89
2422.78
2583.75
3534.59
11168.3
10380.7
10144.2
11296.6
3290.37
2382.65
2233.49
2131.55
2173.64
2299.66
2320.12
2104.95
1818.03
1580.07
1501.14
1630.9
1864.61
2091.56
2239.88
2237.9
2148.6
2135.15
2257.62
2416.15
3281.82
10469.2
10197.4
9882.83
10782.8
3131
2243.68
2090.88
2006.51
2037.46
2120.41
2109.93
1912.33
1661.61
1454.55
1384.03
1503.97
1712.69
1915.37
2052.02
2066.82
2005.98
2003.87
2111.04
2275.44
3127.32
10173.3
10054.2
9568.93
10094.2
3010.9
2132.74
1970.46
1895.34
1916.83
1965.78
1932.8
1752.81
1531.74
1347.49
1282.64
1390.6
1575.2
1754.98
1882.16
1915.32
1883.38
1888.64
1981.24
2154.43
2996.35
9736.92
9814.63
9288.53
9644.07
2915.64
2052.37
1864.38
1792.48
1809.13
1831.62
1782.91
1616.76
1419.18
1254.3
1194.1
1291.58
1455.43
1617.54
1737.08
1782.86
1773.91
1781.81
1872.82
2061.25
2896.97
9136.66
9462.69
9010.72
8958.32
2842.46
1990.99
1771.01
1702.19
1708.94
1709.04
1644.86
1492.49
1317.63
1171.21
1116.79
1206.97
1354.52
1499.97
1612.05
1667.16
1675.66
1687.33
1774.72
1994.58
2848.61
8747.13
9180.49
8775.66
8443.29
2784.94
1952.44
1696.54
1622.26
1614.59
1602.21
1529.43
1388.66
1230.89
1099
1048.34
1130.48
1262.59
1395.27
1499.74
1562.68
1581.93
1603.22
1692.8
1950.74
2811.42
8311.56
8884.01
8567.19
8049.9
2693.73
1924.89
1648.55
1547.53
1529.93
1506.4
1427.88
1297.38
1155.05
1035.18
988.21
1063.18
1182.13
1302.72
1401.09
1468.92
1496.54
1527.18
1636.29
1929.01
2755.67
7896.76
8647.67
8339.4
7587.75
2587.41
1904.98
1615.42
1482.94
1451.02
1416.12
1336.78
1215.14
1085.09
977.433
934.282
1004.33
1112.54
1224.05
1316.92
1384.4
1418.92
1459.8
1600.7
1924.26
2677.58
7640.89
8429.93
8146.99
7231.84
2497.4
1905.49
1597.4
1428.87
1382.33
1336.75
1256.18
1144.19
1025.28
926.692
886.282
950.425
1048.72
1151.39
1238.2
1306.8
1349.94
1403.55
1580.72
1933.31
2576.11
7234.44
8174.54
7959.65
7020.55
2439.88
1938.43
1589.14
1388.28
1320.17
1265.36
1185
1081.71
971.655
881.099
842.966
901.916
991.981
1087.67
1168.31
1236.45
1289.75
1360.72
1578.18
1987.27
2503.45
6953.06
7947.49
7726.02
6735.68
2332.03
1933.14
1606.07
1362.86
1266.92
1200.08
1118.97
1023.04
922.131
839.432
804.058
859.524
942.287
1030.72
1106.24
1174.77
1237.14
1333.98
1605.57
2011.15
2442.47
6722.56
7765.24
7519.57
6535.42
2225.99
1885.1
1635.07
1348.98
1223.7
1144.18
1062.66
972.621
878.175
801.889
768.515
820.076
895.689
978.847
1050.25
1119.91
1194.74
1320.89
1637.83
1954.2
2319.99
6455.35
7596.56
7362.45
6358.1
2147.1
1826.59
1704.59
1350.79
1193.33
1097.86
1012.86
926.711
838.477
767.756
736.376
784.398
853.76
931.727
1000.76
1075.01
1165.76
1325.35
1719.69
1890.95
2199.72
6238.9
7453.07
7217.51
6171.4
2050.05
1751.36
1724.77
1368.98
1171.22
1062.87
969.455
884.984
801.347
736.133
706.858
752.316
816.604
891.145
959.536
1040.27
1144.37
1352.21
1756.55
1816.31
2116.99
6095.87
7348.99
7092.89
6015.43
1978.29
1671.56
1682.76
1420.36
1160.55
1037.38
935.419
848.817
768.703
707.796
679.956
722.406
782.107
854.069
925.478
1014.61
1133.87
1401.96
1716.93
1723.43
2021.06
5937.8
7222.95
6996.32
5870.74
1976.85
1599.44
1616.75
1496.85
1170.09
1017.9
911.303
819.442
739.739
681.858
655.138
695.049
751.317
822.834
900.388
996.91
1147.13
1500.88
1652.37
1639.39
1941.96
5821.92
7118.86
6887.02
5735.55
1909.64
1530.51
1540.85
1519.5
1216.75
1007.75
890.538
796.46
714.603
658.414
632.766
671.153
725.744
798.687
880.578
990.047
1211.64
1543.02
1578.85
1574.81
1937.69
5712.87
7031.1
6787.89
5593.64
1913.81
1475.74
1465.61
1465.66
1315.79
1023.11
877.821
780.319
695.826
639.004
613.331
650.749
705.787
780.89
866.268
1006.52
1316.41
1488.24
1502.77
1514.39
1912.96
5588.17
6933.66
6688.01
5465
1940.42
1434.7
1401.03
1405.11
1355.76
1091.39
873.762
765.755
681.91
624.738
597.247
635.649
690.959
765.97
861.468
1079.13
1366.63
1423.41
1434.56
1467.54
1917.78
5450.94
6823.09
6525.16
5307.69
1917.6
1395.86
1344.62
1342.43
1312.58
1193.17
900.796
754.595
669.901
613.684
585.3
624.523
678.717
755.724
894.478
1197.64
1321.56
1356.42
1376.12
1437.16
1964.07
5290.15
6639.89
6302.27
5110.49
1911.18
1366.67
1296.74
1282.43
1264.78
1235.63
987.489
757.525
660.748
604.613
576.637
615.032
668.468
756.336
985.176
1247.96
1272.63
1293.39
1324.63
1406.69
1955.37
5091.5
6407.08
5765.66
4770.94
1885.13
1339.58
1253.61
1230
1212.25
1196.22
1085.2
800.815
659.071
596.672
569.334
606.831
665.796
796.356
1094.08
1208.97
1219.61
1240.04
1280.29
1376.88
1916.38
4750.56
5867.4
820.314
1208.96
2051.6
2501.26
2965.64
3021.28
2871.09
2551.35
2043.98
1597.59
1297.14
1137.52
1075.29
1066.17
1079.72
1093.17
1104.45
1117.26
1138.16
1164.86
1191.59
1195.95
1095.66
870.241
750.913
693.166
640.879
567.023
464.045
342.6
857.132
1412.13
2726.63
3561.18
3940.95
3838.59
3638.28
3375.1
2837.86
2027.07
1498.08
1221.6
1100.89
1063.72
1063.75
1074.8
1085.9
1100.29
1122.85
1154.72
1190.56
1220.35
1195.04
968.404
770.342
686.426
626.646
552.474
451.834
335.929
906.056
1692.67
3278.49
4009.96
4164.59
3904.71
3713.16
3503.4
3134.68
2334.65
1677.95
1299.18
1121.65
1055.99
1043.19
1049.75
1061.21
1076.49
1098.88
1128.41
1165.29
1201.36
1213.56
1074.1
804.924
680.866
610.102
535.566
438.169
329.958
977.54
2088.91
3828.07
4368.17
4221.44
3829.36
3629.63
3557.54
3401.99
2769.9
1937.95
1422.08
1162.56
1056.48
1025.58
1025.12
1036.68
1052.74
1075.34
1105.32
1141.35
1179.92
1211.18
1174.78
885.902
685.434
597.277
518.973
425.142
324.005
1073.75
2611.6
4363.95
4639.38
4187.27
3705.13
3457.19
3455.67
3397.31
2972.04
2156.51
1550.9
1208.42
1058.87
1008.07
999.122
1008.42
1027.27
1050.06
1078.7
1114.96
1156.31
1194.03
1204.32
1029.15
723.043
588.774
503.997
413.222
319.336
1205.96
3263.14
4930.3
4829.94
4126.92
3561.38
3248.81
3282.13
3302.32
2987.37
2292.56
1655.26
1252.09
1062.46
991.838
974.607
980.67
998.267
1022.97
1051.78
1086.74
1127.51
1167.92
1200.01
1162.71
839.15
597.674
492.372
401.331
313.457
1380.32
3950.75
5440.39
4927.66
4043.25
3410.84
3050.3
3073.7
3136.34
2886.43
2326.63
1694.14
1271.14
1058.22
973.84
949.826
953.238
970.015
994.415
1023.69
1058.33
1098.58
1140.02
1172.48
1187.97
1050.35
669.691
486.981
389.261
305.477
1597.02
4646.98
5877.55
4955.6
3907.57
3230.86
2875.37
2902.7
2975.09
2750.51
2294.85
1676.79
1265.13
1047.78
955.804
926.356
926.412
942.521
966.933
996.194
1029.74
1068.4
1107.71
1138.59
1159.74
1131.24
877.181
518.721
381.874
299.863
1854.94
5364.78
6245.62
4927.67
3742.32
3026.49
2693.74
2752.24
2832.11
2617.25
2215.89
1635.93
1243.14
1031.69
933.719
900.522
901.2
917.445
942.163
971.343
1002.82
1037.4
1073.76
1104.5
1113.59
1108.52
1020.72
664.632
392.066
296.803
2150.92
6101.25
6529.3
4835.79
3563.09
2849.65
2539.26
2615.11
2714.82
2495.79
2103.2
1584.3
1211.95
1005.69
909.781
875.828
876.035
893.999
920.378
949.59
979.356
1010.18
1041.33
1068.22
1081.09
1064.52
1028.77
862.334
465.3
300.715
2481.19
6819.93
6713.29
4720.76
3407.86
2732.95
2443.62
2499.77
2622.07
2398.27
2000.84
1523.14
1172.33
975.999
885.093
853.323
854.952
874.992
902.627
932.135
961.105
989.563
1017.01
1039.96
1049.11
1028.46
1001.62
927.637
643.82
329.275
2852.3
7484.46
6804.23
4615.66
3316.17
2658.74
2390.07
2408.9
2529.74
2337.18
1932.28
1452.21
1117.52
941.922
862.996
835.973
839.727
862.014
890.959
920.856
949.2
975.21
998.171
1015.78
1021.9
999.325
974.956
939.647
804.838
427
3289.21
8058.81
6837.88
4554.83
3280.52
2630.01
2348.23
2308.86
2415.76
2256.34
1854.74
1352.5
1056.85
910.336
847.093
826.016
832.419
856.245
885.308
914.581
941.078
963.485
981.799
994.061
995.441
969.812
949.204
928.969
881.014
653.643
3782.62
8560.4
6890.61
4537.41
3281.52
2629.34
2321.22
2213.09
2254.46
2101.13
1691.54
1245.47
1003.92
890.697
841.582
824.836
833.37
856.96
884.789
911.592
934.758
952.877
965.921
972.177
968.545
939.379
925.049
917.226
965.038
745.73
4287.28
9059.64
6979.53
4568.23
3325.35
2661.34
2318.69
2122.4
2059.31
1878.82
1496.85
1170.34
973.084
888.601
848.592
833.683
842.365
863.591
887.745
910.691
929.506
941.847
947.889
948.64
940.944
914.939
904.783
927.009
1076.85
763.554
4782.88
9561.51
7123.75
4672.58
3426.32
2736.1
2349.92
2066.18
1893.52
1678.56
1368.17
1138.45
977.298
903.718
867.539
851.705
858.314
874.193
892.146
909.451
922.164
927.484
926.747
922.962
914.535
897.119
892.803
975.047
1202.11
762.006
5288.02
10104.8
7357.25
4862.66
3585.25
2870.94
2434.79
2072.01
1807.95
1562.59
1319.11
1149.13
1011.96
931.223
894.613
876.53
878.675
886.22
895.999
905.582
910.914
909.417
904.56
898.636
892.195
880.889
899.223
1059.32
1182.99
750.071
5820.05
10704.3
7707.61
5156.43
3818.41
3079.56
2618.57
2189.83
1843.98
1566.15
1352.11
1194.17
1061.92
970.355
928.101
907.284
901.232
898.73
898.241
898.996
896.627
890.837
884.44
880.59
876.642
870.049
936.227
1171.46
1122.6
739.896
6299.86
11378.6
8195.73
5547.25
4138.83
3373.65
2907.67
2445.56
2034.17
1709.83
1469.45
1282
1135.71
1029.71
974.132
945.011
925.527
910.855
899.316
891.204
882.717
874.503
868.108
868.671
864.266
875.825
1004.3
1178.39
1069.54
736.134
6790.61
12163.9
8814.55
6051.29
4566.05
3772.46
3300.95
2838
2386.49
1996.15
1689.08
1442.85
1257.13
1121.66
1038.67
988.583
950.487
922.193
900.882
885.134
872.454
862.697
857.739
860.349
858.351
906.535
1096.56
1147.11
1030.03
736.492
7644.36
12848.4
9536.07
6693.54
5140.74
4304.26
3804.72
3354.12
2886.19
2438.68
2044.25
1711.9
1449.02
1253.93
1118.6
1035.56
974.919
935.312
905.55
883.717
867.354
856.389
852.182
852.74
868.153
967.952
1148.82
1112.95
1001.83
736.959
8289.22
13813.4
10430.5
7555.45
5905.9
4983.58
4412.54
3971.24
3523.28
3048.69
2565.51
2125
1741.95
1434.27
1217.8
1095.67
1011.59
957.648
917.86
888.312
867.756
854.186
848.765
852.171
897.079
1054.75
1143.89
1083.02
975.348
735.769
8840.89
14448.9
11333
8697.69
6917.95
5836.72
5129.68
4654.87
4247.95
3783.8
3239.85
2697.14
2166.59
1695.03
1362.01
1186.26
1068.94
993.607
939.185
899.98
874.33
857.785
851.299
864.734
952.61
1133.09
1124.27
1051.14
951.293
732.28
9192.21
15256.2
12736.7
10368.5
8324.51
6947.85
6009.22
5396.7
4975.41
4548.01
4003.95
3410.09
2746.69
2089.81
1580.46
1324.23
1154.92
1045.39
970.349
920.966
888.504
866.037
860.191
893.093
1026.81
1147.93
1105.89
1027.74
923.148
725.912
9114.46
16052.6
15120.4
13096.6
10407.5
8498.42
7165.62
6294.57
5729.53
5283.13
4796.96
4210.87
3471.79
2657.03
1911.19
1526.67
1277.56
1118.01
1015.19
951.093
905.222
877.342
876.729
944.214
1125.71
1141.64
1085.15
1008.14
896.464
716.504
341.626
463.535
567.26
641.681
694.276
754.86
881.484
1106.88
1191.29
1184.1
1157.05
1130.61
1110.68
1098.39
1087.07
1074.06
1062.92
1076.53
1150.47
1330.8
1662.99
2153.65
2697.59
3012.28
3148.82
3091.78
2607.59
2116.21
1231.45
827.53
334.733
451.12
552.704
627.574
688.199
776.567
982.003
1192.45
1213.19
1183.08
1147.12
1115.8
1094.26
1080.21
1069.32
1059.41
1062.11
1108.11
1246.02
1555.68
2142.34
2997.49
3487.99
3753.91
3948.16
4052.34
3678.43
2825.24
1447.43
867.011
328.669
437.426
535.87
610.985
683.286
812.346
1080.25
1206.49
1194.02
1158.47
1121.97
1092.92
1071.02
1055.76
1044.96
1040.26
1057.15
1133.76
1333.63
1750.98
2462.48
3261.47
3587.73
3801.02
3998.78
4261.33
4115.58
3377.19
1741.42
919.231
322.528
424.313
519.316
598.175
688.337
891.55
1168.51
1202.09
1173.3
1135.59
1099.75
1070.33
1047.82
1031.66
1021.61
1024.45
1061.37
1181.73
1471.18
2034.4
2910.99
3489.48
3613.73
3680.69
3907.42
4306.94
4475.9
3940.5
2156.31
995.121
317.815
412.425
504.177
589.593
724.123
1026.4
1196.12
1186.27
1149.24
1109.74
1074.12
1045.42
1022.76
1004.49
996.829
1008.94
1067.86
1235.09
1611.41
2262.6
3084.8
3472.6
3497.09
3491.29
3778.75
4279.64
4761.2
4494.21
2694.61
1096.8
312.234
400.79
492.3
596.759
831.112
1150.66
1193.46
1162.79
1121.98
1081.96
1047.63
1018.59
994.157
977.622
973.552
995.094
1075.72
1284.91
1719
2400
3076.68
3356.49
3306.16
3283.61
3634.4
4223.97
4958.72
5071.67
3359.76
1235.43
304.332
388.626
485.978
660.21
1033.83
1184.21
1169.01
1134.7
1093.52
1053.89
1019.64
990.443
966.653
951.028
950.065
979.137
1074.23
1307.28
1757.31
2423.2
2958.36
3184.59
3105.51
3091.54
3483.3
4139.15
5059.24
5598.27
4057.36
1416.85
298.665
380.874
511.747
851.787
1126.5
1159.17
1136.37
1102.67
1062.96
1024.9
991.651
963.083
939.852
924.849
926.654
961.922
1066.46
1302.9
1737.78
2380.16
2815.72
3025.61
2935.97
2918.42
3301.65
4003.52
5090.98
6055.49
4773.52
1641.94
295.457
388.228
641.24
1014.92
1111.75
1117.12
1101.17
1069.08
1032.03
998.007
966.775
938.591
914.735
899.828
903.066
941.66
1051.15
1281.93
1694.43
2291.17
2680.95
2889.28
2785.55
2735.45
3090.55
3832.23
5062.2
6438.44
5516.02
1907.26
298.499
452.229
847.913
1029.96
1067.96
1081.27
1064.69
1037.41
1006.85
976.505
947.278
918.911
894.157
877.587
879.861
918.334
1026.23
1250.23
1644.73
2175.78
2563.36
2776.4
2648.42
2580.49
2912.7
3647.92
4968.04
6724.64
6270.45
2207.47
323.516
620.258
921.261
1002.1
1031.63
1047.06
1036.03
1012.73
985.757
957.873
929.586
901.16
875.242
857.014
858.473
894.85
996.349
1210.65
1583.55
2070.07
2467.95
2681.82
2536.43
2487.66
2795.24
3492.11
4852.28
6912.31
7000.43
2543.48
409.95
789.72
935.648
972.791
1001.31
1019.38
1011.68
993.202
970.36
944.969
917.245
888.548
861.272
841.248
841.094
872.779
960.131
1152.13
1509.84
2005.05
2401.82
2583.77
2449.42
2435.46
2720.45
3401.96
4747.41
7007.69
7673.79
2923.4
632.358
870.573
925.383
945.754
972.255
993.432
989.679
975.692
957.28
935.394
909.462
881.357
853.907
832.858
830.451
855.674
925.182
1088.33
1406.29
1931.92
2313.83
2461.44
2350.03
2397.13
2693.65
3367.71
4688.43
7051.53
8258.68
3374.87
733.974
954.179
913.987
923.137
942.905
967.237
967.81
958.854
945.25
927.802
905.409
879.682
853.243
832.864
828.359
848.345
901.7
1028.29
1292.79
1752.93
2152.14
2293.12
2253.57
2372.71
2693.79
3370.93
4676.83
7117.43
8778.83
3872.82
754.596
1066.12
924.316
906.477
917.537
939.968
944.306
941.378
933.754
921.056
902.923
881.27
858.575
840.937
836.005
854.066
896.273
989.254
1206.88
1539.56
1918.45
2091
2161.19
2370.12
2726.23
3418.35
4714.28
7217.3
9298.12
4376.27
754.594
1193.86
972.399
894.707
899.617
915.399
919.273
921.051
920.251
913.754
901.189
884.763
868.216
855.899
852.989
871.605
909.252
988.735
1161.75
1398.78
1708.62
1923.19
2105.72
2401.46
2803.15
3523.41
4822.69
7375.07
9825.87
4873.26
743.553
1177.58
1055.24
900.938
884.152
894.028
894.973
899.099
903.121
903.559
897.896
888.74
880.016
875.144
877.004
897.63
936.217
1021.66
1163.25
1341.86
1589.18
1837.01
2113.17
2488.26
2940.26
3689.07
5018.98
7626.53
10395.9
5384.95
733.665
1117.36
1166.3
936.668
873.385
878.087
875.833
878.746
884.583
890.068
891.945
891.631
892.705
897.228
906.687
930.628
975.245
1072.03
1206.23
1371.33
1591.6
1875.65
2234.58
2674.03
3151.38
3925.2
5319.14
7993.2
11021.2
5925.06
731.183
1064.82
1174.64
1002.96
879.306
864.956
863.891
863.388
869.419
877.211
885.195
893.688
906.164
921.958
944.738
976.163
1034.56
1146.41
1296.07
1490.65
1739.91
2072.08
2494.27
2965.94
3449.99
4250.21
5724.38
8499.03
11725.4
6412.45
733.843
1026.39
1144.37
1092.04
907.058
858.784
857.381
854.037
859.203
868.382
880.566
896.601
919.626
949.502
992.015
1041.52
1128.17
1269.06
1462.88
1717.64
2036.76
2436.07
2896.45
3370.72
3859.36
4687.43
6239.81
9128.72
12548.5
6908.8
734.71
999.623
1111.49
1147.78
966.755
867.108
850.28
849.16
852.978
864.051
880.504
903.628
935.475
978.671
1045.24
1125.6
1264.87
1468.18
1741.9
2083.44
2491.18
2949.84
3423.73
3886.11
4404.3
5278.51
6894.08
9847.39
13242.2
7804.32
733.344
974.808
1084.15
1144.82
1050.14
894.735
850.511
846.502
851.108
865.237
887.547
918.547
960.972
1019.14
1111
1235.84
1455.43
1777.17
2171
2618.32
3111.82
3603.12
4054.18
4506.11
5099.55
6067.79
7779.22
10741.3
14205.5
8457.26
729.887
952.453
1053.64
1126.47
1135.78
950.174
862.457
849.07
856.011
873.587
902.038
944.035
1001.91
1083.74
1210.87
1393.72
1740.42
2227.31
2768.93
3308.9
3855.91
4341.38
4753.75
5237.49
5972.48
7111.6
8961.64
11648.8
14814.4
9024.34
723.73
924.397
1030.28
1108.8
1152.93
1022.76
889.922
859.037
865.897
889.331
925.205
980.421
1060.35
1180.45
1365.91
1636.67
2171
2838.84
3511.82
4096.38
4633.38
5081.59
5515.96
6134.26
7104.97
8552.54
10685.3
13060.9
15576
9384.65
715.558
897.742
1010.93
1088.05
1148.45
1123.84
939.423
875.754
878.891
908.962
958.316
1031.42
1143.37
1318.45
1593.3
2007.88
2785.54
3604.24
4346.86
4927.21
5396.72
5855.34
6446.78
7315.09
8683.59
10675.7
13497.2
15514.8
16353.5
9298.09
814.055
815.145
814.792
817.56
824.737
832.012
845.663
862.486
887.671
916.516
950.784
990.052
1030.06
1070.11
1119.62
1172.09
1234.31
1297.57
1367.44
1457.27
1555
1687.36
1842.62
2016.83
2212.16
2400.85
2582.47
2737.67
2860.76
2947.78
2992.24
3000.27
2975.17
2926.72
2851.86
2756.66
2654.33
2550.25
2439.34
2320.27
2195.55
2072.95
1955.93
1839.11
1727.65
1636.39
1555.03
1476.84
1398.11
1322.14
1251.19
1182.34
1114.79
1049.63
988.248
931.326
878.072
827.276
778.269
732.788
693.613
661.345
634.204
610.508
590.461
573.761
559.746
548.635
540.104
533.408
528.042
523.897
520.606
518.254
516.646
515.857
516.045
517.294
519.438
522.051
524.555
526.535
527.981
528.971
529.596
529.917
529.988
529.897
529.77
529.737
529.908
530.359
531.153
532.315
533.868
535.955
538.573
541.452
544.645
548.068
551.765
555.822
560.385
565.865
572.329
578.02
583.445
588.489
593.474
598.9
604.086
608.627
613.449
616.116
618.344
622.844
628.585
635.497
643.591
652.445
660.862
667.376
674.921
685.403
702.288
960.028
993.167
1008.71
1042.56
1082.02
1123.49
1182.37
1259.43
1350.49
1444.83
1549.72
1679.05
1814.77
1952.38
2129.5
2320.55
2558.37
2849.33
3181.83
3609.49
4073.55
4633.65
5288.22
6049.72
6925.48
7842.38
8741.75
9555.81
10268.2
10868.6
11330.9
11621.2
11732.9
11679.6
11507.2
11226.4
10879.1
10460.8
9988.66
9481.47
8956.57
8429.35
7908.27
7382.86
6857.2
6340.16
5842.01
5373.65
4935.39
4525.97
4143.14
3776.15
3420.33
3077.72
2758.9
2466.39
2206.62
1975.28
1773.52
1597.23
1443.17
1310.23
1196.46
1101.33
1024.42
963.915
916.673
878.839
848.496
823.973
803.823
786.387
771.054
757.309
744.752
733.838
724.84
717.915
712.732
708.474
704.178
699.123
693.015
686.017
678.413
670.45
662.32
654.199
646.262
638.67
631.537
624.956
618.986
613.691
609.113
605.399
602.722
600.92
599.72
599.169
599.38
600.634
602.271
605.653
608.841
611.847
615.099
618.743
623.188
627.981
630.281
634.1
640.375
648.621
659.092
672.116
687.418
708.308
730.903
753.251
774.123
798.679
823.701
847.609
872.222
1630.22
1720.91
1788.87
1892.16
2034.28
2171.94
2347.03
2542.65
2770.91
2996.31
3220.04
3481.84
3768.01
4026.98
4356.7
4697.11
5119.2
5652.7
6272.1
7142.4
8155.96
9352.79
10765.6
12322.8
14004
15738.6
17404.5
18943.2
20305
21469.8
22416.4
23105.9
23482
23519.5
23232.9
22631.3
21788.7
20815.2
19750.1
18642.2
17519.7
16399
15279.9
14158.4
13048.5
11971.5
10944.7
9989.62
9119.86
8337.17
7633.84
6988.21
6370.57
5777.89
5216.31
4677.45
4161.7
3676.89
3232.6
2829.9
2480.21
2186.85
1941.5
1739.2
1575.44
1444.43
1340.51
1257.48
1190.65
1136.15
1091.12
1053.6
1022.13
995.75
973.476
955.067
940.156
927.877
917.253
907.182
896.534
884.63
871.374
857.003
841.863
826.332
810.779
795.502
780.724
766.62
753.359
741.1
729.939
719.93
711.126
703.709
697.921
693.764
691.246
689.927
689.849
691.04
693.911
697.223
701.141
705.791
711.044
718.079
725.19
732.79
740.772
750.5
764.342
780.386
797.363
813.785
833.469
853.351
874.575
895.935
916.63
935.918
954.465
973.127
992.291
4234.48
4434.31
4611.05
4895.24
5307.27
5695.36
6129.92
6564.71
7037.27
7460.36
7806.08
8155.99
8476.37
8690.77
8946.3
9164.76
9430.82
9809.01
10346.3
11194.6
12528
14433.1
16993.4
20104.7
23554.8
27076.1
30378.4
33400.8
35956.5
38074
39738.3
40948.4
41659.8
41847.4
41507.4
40669.4
39378.6
37822.4
36073.9
34186.9
32216.4
30187.2
28108.5
25991.8
23859.9
21745.6
19686.9
17725.2
15894.9
14209.9
12670.6
11278.3
10031
8923.5
7946.4
7089.06
6329.2
5655.1
5055.4
4508.63
3997.33
3518.21
3091.09
2725.89
2419.79
2169.71
1969.79
1811.4
1684.83
1584.34
1505.3
1444.85
1397.7
1358.15
1325.07
1298.38
1278.63
1263.76
1251.07
1237.76
1221.42
1200.44
1174.53
1144.38
1111.34
1076.83
1042.19
1008.45
976.327
946.183
918.171
892.4
869.01
848.094
829.741
814.287
801.491
790.862
782.516
776.628
772.781
770.548
770.095
771.522
775.03
780.328
787.177
797.001
807.944
819.991
832.725
848.401
871.006
889.966
906.913
923.279
940.1
957.065
973.698
991.441
1004.93
1020.33
1035.7
1050.43
1066.4
13182.8
13529
13754.6
14356.2
15182.7
15966.6
16733.4
17408.8
17967.1
18314.2
18395.4
18316.2
18105.9
17747.7
17359.4
16987.2
16741.2
16813.7
17434.2
18778.7
21168
24725.4
29458.4
35141
41297.7
47388.6
52981.3
57812.5
61783.6
64874
67018.1
68331.8
68877.4
68701.4
67879.5
66494.8
64638.5
62412.8
59934.4
57276.4
54481.8
51559.1
48530.2
45406.6
42202.1
38943
35663.4
32397.2
29208.6
26122.2
23155.4
20339.7
17711.6
15328.1
13216.4
11380.4
9802.55
8472.95
7373.03
6463.01
5702.78
5052.35
4481.38
3983.95
3562.34
3221.75
2951.85
2736.52
2559.44
2416.64
2310.23
2239.02
2196.06
2172.03
2158.77
2150.33
2142.19
2135.12
2127.41
2113.84
2088.62
2047.09
1987.05
1909.67
1818.68
1719.27
1616.86
1516.13
1420.22
1331.35
1250.8
1179.19
1116.76
1063.1
1017.38
978.959
947.012
920.382
898.063
880.35
867.623
858.557
852.822
850.385
851.476
856.378
865.939
878.149
892.205
908.111
925.086
941.822
956.461
969.709
983.585
997.642
1012.89
1028.81
1040.95
1053.29
1065.86
1081.31
1104.47
1122.01
1137.31
35616.6
36237.3
36426.9
37381.6
38437.1
39485.5
40240.8
40647.8
40665.3
40268.2
39423.2
38213.9
36755.5
35196
33673.6
32351.5
31521.2
31496.2
32658.9
35257.2
39499.6
45391.1
52620.6
60663.1
68860
76722.6
83894.3
90041.5
94623.7
97776.3
99635.5
100297
99969.5
98850
97112.7
94903.3
92323.3
89471
86448.7
83317.3
80089.9
76691.5
73233.5
69647
65918.4
62024.4
57982.4
53843
49606.6
45313.3
41011.9
36764.8
32659.6
28779.8
25172.1
21874.1
18902.9
16278.3
13999.9
12043.1
10375.6
8951.51
7729.47
6693.3
5851.36
5202.38
4726.49
4392.18
4167.11
4025.91
3952.46
3934.13
3959.48
4013.38
4078.17
4141.13
4189.39
4217.12
4221.65
4198.45
4143.8
4052.62
3921.44
3751.56
3549.52
3323.83
3083.15
2835.73
2590.26
2353.54
2131.81
1929.62
1749.25
1591.84
1457.72
1346.41
1255.13
1180.71
1120.22
1071.83
1034.62
1006.69
986.138
971.996
963.674
961.366
967.346
975.769
985.785
996.25
1006.09
1015.3
1024.68
1035.57
1044.28
1054.06
1065.11
1076.69
1089.98
1112.64
1130.05
1140.94
1152.61
1165.44
1164.02
69982.2
71190
71808.8
73005.6
74026.2
74765.6
75028.2
74675.5
73619.1
71938.2
69643.4
66848.1
63765.8
60687.6
57876.9
55640.6
54455
54792.6
57034.1
61306.8
67748.4
75916
85032
94423.6
103385
111550
118513
123773
127319
129453
130087
129511
128037
125902
123311
120432
117363
114207
111046
107907
104787
101656
98425.3
95064.3
91461
87596.5
83498.8
79220.9
74770.9
70151.3
65423.5
60704.6
55995.1
51358.3
46860.4
42557.9
38483.5
34697.9
31256.3
28148.2
25340.2
22768.3
20392.7
18211.8
16251
14547.4
13133.7
12019.1
11179
10562.1
10128.7
9841.62
9658
9533.83
9430.33
9319.66
9182.44
9007.6
8791.29
8532.11
8232.7
7895.64
7521.47
7113.49
6676.1
6217.08
5745.84
5275.63
4813.89
4368.65
3945.55
3548.64
3179.95
2838.99
2526.23
2247.19
2006.32
1803.74
1636.14
1498.29
1387.89
1303.51
1239.35
1191
1155.38
1130.53
1118.11
1110
1104.14
1100.16
1096.77
1094.57
1094.42
1097.9
1110.49
1119.5
1137.4
1156.86
1172.92
1181.02
1185.21
1188.9
1176.9
1107.73
1009.88
106388
108138
109347
110621
111438
111659
111155
109808
107615
104613
100865
96557.5
92072.1
87839.7
84226.1
81727.4
80955.8
82375.6
86191.6
92488
100838
110319
119967
129077
137438
144701
150306
154066
156060
156354
155291
153281
150661
147677
144518
141353
138262
135295
132512
129904
127405
125035
122490
119679
116591
113292
109863
106292
102583
98742.7
94802.1
90775
86683.4
82581.7
78554.4
74615.3
70726.8
67033.4
63540.9
60215
57028
53908.9
50849.9
47877.6
45013.4
42286.1
39730.3
37345.5
35126.1
33084.4
31226.3
29526.6
27966
26508.9
25115.5
23755.3
22406.2
21062.4
19728