/*--------------------------------*- C++ -*----------------------------------*\
| =========                 |                                                 |
| \\      /  F ield         | OpenFOAM: The Open Source CFD Toolbox           |
|  \\    /   O peration     | Version:  2112                                  |
|   \\  /    A nd           | Website:  www.openfoam.com                      |
|    \\/     M anipulation  |                                                 |
\*---------------------------------------------------------------------------*/
FoamFile
{
    version     2.0;
    format      ascii;
    arch        "LSB;label=32;scalar=64";
    class       volScalarField;
    location    "0.00209";
    object      p;
}
// * * * * * * * * * * * * * * * * * * * * * * * * * * * * * * * * * * * * * //

dimensions      [1 -1 -2 0 0 0 0];

internalField   nonuniform List<scalar> 
13875
(
951493
984074
973649
975532
973400
974423
974607
974368
974834
974772
975122
974793
974864
975005
974850
974512
974782
973859
974355
974233
973023
975583
972399
982437
944910
733695
659269
672149
677006
670310
668543
668572
670309
677664
678814
678485
670188
670466
673046
677055
678324
677608
670565
668600
668392
669892
677060
672316
657317
730574
736784
635638
664596
653700
648393
646041
645140
645681
647881
645866
648550
645589
645524
645111
645607
644341
647902
645446
644799
645611
647608
652035
662066
632213
733360
743431
636300
665495
653859
648683
646243
645291
645733
645061
643497
645359
645659
645624
645169
645038
642960
644609
645486
644940
645797
647878
652155
662818
632818
739154
757269
639356
668099
654580
649579
646847
645729
645962
645129
643637
645441
645910
645916
645390
645155
643142
644679
645690
645360
646341
648670
652739
665117
635465
750562
759154
648144
674002
656612
651508
648135
646651
646522
645410
644101
645744
646470
646529
645912
645552
643705
644960
646203
646241
647517
650406
654614
670729
643223
752016
765584
668984
686562
661742
655508
650779
648522
647770
646234
645209
646580
647642
647774
647060
646496
644976
645850
647416
648071
650101
654305
660324
682346
666020
756325
792654
719915
713333
675801
664264
656453
652429
650559
648455
647616
648507
650021
650331
649557
648705
647634
648065
650061
651754
655342
662393
673436
707604
715832
782730
913817
832059
770539
707549
682290
667932
660380
656502
653624
652741
652936
654961
655598
654773
653568
653111
653235
655715
659200
665874
678852
702243
761547
824469
911891
1.54534e+06
1.04097e+06
843838
748929
706816
684966
673744
667646
664359
663300
662891
665291
666285
665420
663973
664214
664324
666792
672173
682288
702315
741730
833101
1.02873e+06
1.52485e+06
2.97578e+06
1.42707e+06
992090
822553
749984
715957
699315
690780
686818
685103
684313
686532
687916
687191
685880
686564
687313
689811
696603
710927
740549
803743
952998
1.36e+06
2.88264e+06
5.82451e+06
2.3989e+06
1.41891e+06
1.01678e+06
850909
786501
757816
744200
737895
734993
733803
734715
736545
736157
735604
736495
738604
743210
754029
778199
833363
971130
1.3012e+06
2.29962e+06
5.62941e+06
5.62104e+06
4.85725e+06
3.08391e+06
1.7235e+06
1.14295e+06
985464
921022
890614
876042
869351
866681
864537
867708
866988
867800
869962
875554
888248
915335
972472
1.10946e+06
1.53491e+06
2.39149e+06
4.90959e+06
5.40354e+06
5.08874e+06
4.72986e+06
5.00302e+06
4.84565e+06
2.07145e+06
1.64577e+06
1.48459e+06
1.39573e+06
1.35612e+06
1.33722e+06
1.33557e+06
1.31983e+06
1.33537e+06
1.32391e+06
1.32952e+06
1.33625e+06
1.35392e+06
1.39271e+06
1.47911e+06
1.65237e+06
2.12337e+06
4.63506e+06
5.06897e+06
4.80359e+06
4.84525e+06
4.22479e+06
4.37207e+06
4.90027e+06
5.16474e+06
5.09982e+06
3.95671e+06
3.65882e+06
3.34228e+06
3.27825e+06
3.10307e+06
3.14525e+06
3.02267e+06
3.10608e+06
3.04877e+06
3.07364e+06
3.10178e+06
3.18204e+06
3.35276e+06
3.62434e+06
3.80857e+06
4.79385e+06
4.97357e+06
4.99582e+06
4.5399e+06
4.46718e+06
3.84685e+06
3.92085e+06
4.66473e+06
5.38217e+06
6.75276e+06
7.97635e+06
9.27231e+06
9.13934e+06
9.71511e+06
9.38523e+06
9.7564e+06
9.47894e+06
9.71143e+06
9.52236e+06
9.66656e+06
9.52442e+06
9.59503e+06
9.31777e+06
9.32021e+06
8.38754e+06
7.05035e+06
5.48362e+06
4.92034e+06
4.14082e+06
4.14946e+06
3.06084e+06
3.56767e+06
4.75525e+06
5.51943e+06
6.74949e+06
7.66493e+06
7.80563e+06
7.70535e+06
7.52433e+06
7.4548e+06
7.21128e+06
7.33858e+06
7.12342e+06
7.2869e+06
7.27705e+06
7.39676e+06
7.53446e+06
7.71843e+06
7.74127e+06
7.84351e+06
7.14877e+06
5.8607e+06
5.02838e+06
3.83907e+06
3.41272e+06
2.50182e+06
3.33342e+06
4.66632e+06
5.28905e+06
5.85429e+06
6.11047e+06
5.89004e+06
5.89318e+06
5.89519e+06
5.92168e+06
5.93444e+06
5.95281e+06
5.95421e+06
5.95777e+06
5.95975e+06
5.95421e+06
5.94423e+06
5.94879e+06
5.96741e+06
6.14808e+06
6.21604e+06
5.69207e+06
5.03045e+06
3.36604e+06
2.45566e+06
1.33945e+06
2.3196e+06
3.86703e+06
4.28934e+06
4.51194e+06
4.7107e+06
4.84507e+06
5.0272e+06
5.17733e+06
5.27716e+06
5.34164e+06
5.37728e+06
5.39814e+06
5.39626e+06
5.37607e+06
5.33167e+06
5.25171e+06
5.12236e+06
4.97302e+06
4.84624e+06
4.71127e+06
4.5468e+06
4.10319e+06
2.64166e+06
1.48279e+06
674279
1.58093e+06
2.7243e+06
3.18728e+06
3.41347e+06
3.71089e+06
4.09098e+06
4.41372e+06
4.61563e+06
4.73919e+06
4.82483e+06
4.87376e+06
4.90038e+06
4.89601e+06
4.86242e+06
4.79792e+06
4.69275e+06
4.50939e+06
4.19727e+06
3.80103e+06
3.5075e+06
3.30064e+06
2.832e+06
1.77011e+06
723382
712303
1.1978e+06
1.81562e+06
2.26222e+06
2.60498e+06
3.01864e+06
3.49465e+06
3.8513e+06
4.06763e+06
4.21013e+06
4.31069e+06
4.36861e+06
4.39524e+06
4.38465e+06
4.33814e+06
4.25242e+06
4.12265e+06
3.9191e+06
3.55292e+06
3.04885e+06
2.62587e+06
2.30309e+06
1.8859e+06
1.20813e+06
750079
927161
1.03494e+06
1.25734e+06
1.71035e+06
2.07297e+06
2.55274e+06
2.99602e+06
3.3252e+06
3.54464e+06
3.6981e+06
3.80347e+06
3.86308e+06
3.88912e+06
3.87258e+06
3.81842e+06
3.72213e+06
3.5761e+06
3.36469e+06
3.02712e+06
2.56589e+06
2.06996e+06
1.71717e+06
1.30241e+06
1.05062e+06
958530
1.3542e+06
1.04552e+06
1.07658e+06
1.38831e+06
1.72674e+06
2.20734e+06
2.58402e+06
2.86739e+06
3.08084e+06
3.23327e+06
3.3355e+06
3.3931e+06
3.41632e+06
3.39611e+06
3.33846e+06
3.23866e+06
3.08862e+06
2.87848e+06
2.59544e+06
2.21885e+06
1.71884e+06
1.38828e+06
1.10776e+06
1.06934e+06
1.4119e+06
1.43097e+06
1.07117e+06
1.07929e+06
1.23393e+06
1.51113e+06
1.90688e+06
2.22101e+06
2.47938e+06
2.67132e+06
2.80998e+06
2.91282e+06
2.96632e+06
2.98901e+06
2.96642e+06
2.90956e+06
2.80938e+06
2.66543e+06
2.47435e+06
2.21639e+06
1.90211e+06
1.51629e+06
1.24281e+06
1.09722e+06
1.09301e+06
1.42692e+06
1.43041e+06
1.11322e+06
1.09104e+06
1.16342e+06
1.36504e+06
1.65892e+06
1.919e+06
2.15125e+06
2.32423e+06
2.44974e+06
2.5423e+06
2.59334e+06
2.61273e+06
2.59307e+06
2.53807e+06
2.44652e+06
2.31122e+06
2.13818e+06
1.90637e+06
1.64707e+06
1.36926e+06
1.17228e+06
1.10635e+06
1.13205e+06
1.42632e+06
1.43556e+06
1.17658e+06
1.11785e+06
1.12573e+06
1.25582e+06
1.46042e+06
1.67369e+06
1.87471e+06
2.02499e+06
2.13719e+06
2.22199e+06
2.26361e+06
2.28553e+06
2.26346e+06
2.21505e+06
2.12935e+06
2.0086e+06
1.85729e+06
1.66023e+06
1.44932e+06
1.26563e+06
1.13921e+06
1.1287e+06
1.18173e+06
1.42589e+06
1.44942e+06
1.28159e+06
1.16406e+06
1.12584e+06
1.17931e+06
1.31196e+06
1.48213e+06
1.64718e+06
1.77735e+06
1.87531e+06
1.94754e+06
1.9853e+06
1.99945e+06
1.98395e+06
1.93716e+06
1.86416e+06
1.75881e+06
1.62799e+06
1.46522e+06
1.29743e+06
1.17903e+06
1.12861e+06
1.16573e+06
1.27679e+06
1.43777e+06
1.49346e+06
1.47578e+06
1.20788e+06
1.12467e+06
1.12262e+06
1.19365e+06
1.31904e+06
1.45144e+06
1.55996e+06
1.64602e+06
1.71094e+06
1.74206e+06
1.7567e+06
1.73915e+06
1.70265e+06
1.63742e+06
1.54719e+06
1.43924e+06
1.31113e+06
1.18624e+06
1.12428e+06
1.12598e+06
1.20052e+06
1.44342e+06
1.47349e+06
1.59068e+06
1.55793e+06
1.2344e+06
1.11755e+06
1.08773e+06
1.11176e+06
1.19739e+06
1.29706e+06
1.3858e+06
1.45661e+06
1.5093e+06
1.53798e+06
1.54836e+06
1.53491e+06
1.50168e+06
1.44824e+06
1.37268e+06
1.28342e+06
1.1868e+06
1.10481e+06
1.08641e+06
1.11456e+06
1.22543e+06
1.5117e+06
1.55552e+06
1.79406e+06
1.60047e+06
1.25098e+06
1.10492e+06
1.05488e+06
1.05133e+06
1.09525e+06
1.16433e+06
1.23262e+06
1.29152e+06
1.3383e+06
1.36038e+06
1.37035e+06
1.35629e+06
1.33112e+06
1.28398e+06
1.22236e+06
1.15431e+06
1.08718e+06
1.04481e+06
1.05047e+06
1.09968e+06
1.24893e+06
1.57604e+06
1.70337e+06
1.84958e+06
1.64072e+06
1.27733e+06
1.09134e+06
1.0163e+06
997583
1.01608e+06
1.06099e+06
1.11067e+06
1.15567e+06
1.19151e+06
1.21174e+06
1.21877e+06
1.20918e+06
1.18546e+06
1.15009e+06
1.10377e+06
1.05543e+06
1.01177e+06
994717
1.0134e+06
1.08607e+06
1.26623e+06
1.60952e+06
1.85318e+06
1.84873e+06
1.66288e+06
1.32381e+06
1.0914e+06
983285
949406
946390
972565
1.00472e+06
1.03691e+06
1.06745e+06
1.08123e+06
1.08982e+06
1.08013e+06
1.06329e+06
1.03306e+06
999436
967436
942799
945715
978788
1.08178e+06
1.2949e+06
1.63114e+06
1.85241e+06
1.83968e+06
1.66493e+06
1.38488e+06
1.09365e+06
953146
903324
892132
901172
921900
941941
962096
974396
979475
973102
957377
938347
917030
897004
889725
900563
948572
1.08468e+06
1.34823e+06
1.63559e+06
1.84753e+06
1.82174e+06
1.66445e+06
1.51183e+06
1.10682e+06
933162
861238
837762
835078
844622
856712
872419
878893
884919
878743
870047
854380
842490
833555
837805
860539
929362
1.09189e+06
1.43398e+06
1.63296e+06
1.82964e+06
1.7868e+06
1.66083e+06
1.57028e+06
1.13585e+06
929087
829290
793111
784182
784233
789086
796818
801877
804654
801459
794232
787083
782870
782302
792158
828367
929330
1.11404e+06
1.56084e+06
1.62743e+06
1.79348e+06
1.75557e+06
1.64171e+06
1.56789e+06
1.16643e+06
931404
802334
749696
732121
727623
728224
731643
732400
735776
731993
730328
726640
726643
731025
750363
802551
933693
1.15715e+06
1.56461e+06
1.61304e+06
1.72249e+06
1.71074e+06
1.60208e+06
1.56264e+06
1.22984e+06
942896
788755
718090
691313
681652
678273
676964
676360
677452
676241
676302
677497
680936
690373
718857
789863
941132
1.21802e+06
1.55603e+06
1.57622e+06
1.67885e+06
1.66418e+06
1.551e+06
1.54825e+06
1.35673e+06
969032
789465
691756
652189
636128
630522
628672
625681
627007
625861
628123
630881
637064
652363
692829
790910
960992
1.34088e+06
1.53738e+06
1.52584e+06
1.63318e+06
1.6328e+06
1.50649e+06
1.51008e+06
1.35638e+06
1.00046e+06
793693
678868
625100
602763
592629
586966
584487
584357
584764
586781
593246
603401
625336
681206
799783
1.00284e+06
1.34624e+06
1.49768e+06
1.48304e+06
1.59232e+06
1.59758e+06
1.46658e+06
1.43397e+06
1.35188e+06
1.06672e+06
809002
679522
602476
569344
555931
550781
546070
546448
546497
550766
557121
571604
604357
681713
811922
1.06822e+06
1.33832e+06
1.41341e+06
1.44501e+06
1.56563e+06
1.55504e+06
1.42899e+06
1.35872e+06
1.33724e+06
1.19915e+06
841517
684509
594102
549106
529579
519181
515163
514344
515460
519316
530508
550828
597724
686143
838586
1.20041e+06
1.31898e+06
1.33493e+06
1.41189e+06
1.53226e+06
1.52361e+06
1.3997e+06
1.29765e+06
1.30016e+06
1.1975e+06
891285
691391
594661
532431
503669
491884
486007
485474
485442
492613
504830
535117
598557
701256
895994
1.19954e+06
1.27795e+06
1.27726e+06
1.38235e+06
1.49247e+06
1.47657e+06
1.37294e+06
1.25188e+06
1.2285e+06
1.18784e+06
995565
710411
599817
529049
489918
469316
462718
460820
462816
469777
491556
531985
601684
725904
997773
1.18321e+06
1.20817e+06
1.23176e+06
1.35169e+06
1.46022e+06
1.42581e+06
1.34432e+06
1.21708e+06
1.16553e+06
1.16192e+06
1.04422e+06
747789
613388
530059
476133
451488
440413
438872
440696
452669
479122
532851
610996
775322
1.03707e+06
1.14757e+06
1.1501e+06
1.20139e+06
1.3252e+06
1.42121e+06
1.38789e+06
1.30998e+06
1.19147e+06
1.11352e+06
1.10507e+06
1.03907e+06
812700
638058
532593
476177
441669
425850
421200
426233
442991
479305
538220
634322
879230
1.03176e+06
1.07946e+06
1.09935e+06
1.17814e+06
1.29105e+06
1.3722e+06
1.34744e+06
1.27728e+06
1.17189e+06
1.07356e+06
1.03859e+06
1.02437e+06
946245
691540
543269
478193
441382
416611
409597
416589
441868
480468
549291
675148
919416
1.01148e+06
1.02105e+06
1.06382e+06
1.15999e+06
1.26049e+06
1.34088e+06
1.30126e+06
1.23507e+06
1.15139e+06
1.04702e+06
991183
991664
944761
801406
567906
483943
442080
416619
405041
416542
442441
484370
572997
757642
916125
968571
975744
1.0357e+06
1.14034e+06
1.22683e+06
1.29744e+06
1.26005e+06
1.19972e+06
1.13116e+06
1.02864e+06
953608
940186
931463
849065
614624
495220
444010
417080
405548
417309
445716
495927
625254
836066
905298
916897
942697
1.01955e+06
1.12066e+06
1.19162e+06
1.24938e+06
1.17739e+06
1.14605e+06
1.10108e+06
1.01199e+06
931623
899725
901789
846692
713084
519657
451250
419408
407667
419556
453528
518733
728361
834723
880000
878017
922206
1.00198e+06
1.09105e+06
1.13779e+06
1.16332e+06
1.04767e+06
1.07466e+06
1.05746e+06
993055
914074
862177
853600
834610
768743
570707
470000
426035
413318
425806
471878
566141
761571
823848
838034
845172
904929
983364
1.04914e+06
1.06796e+06
1.03747e+06
71025.8
70947.6
71022.5
71014.5
71081.7
71063.6
71033
70976.9
70954.4
70939.9
70940.4
70927.9
70894.1
70835
70769.5
70715
70677.8
70656.4
70645.5
70640.2
70637.9
70636.7
70636.1
70635.8
70633.2
70638.3
70624.1
70647.2
70598.6
70670.4
71063.3
71053.7
71148.2
71176.1
71303
71328.5
71300.7
71195.8
71089.2
71011
70977.2
70950.5
70918.4
70862.5
70793.7
70732.2
70688.2
70662
70648.2
70641.5
70638.4
70636.9
70636.1
70635.8
70633.3
70638.2
70625.6
70646
70615.5
70655.4
71167.5
71292
71439.4
71577.1
71849.3
71979.1
71960.2
71754.8
71489.5
71256.2
71109.8
71020
70956.7
70890.7
70814.5
70745.9
70696.3
70666.2
70650.3
70642.4
70638.8
70637
70636.2
70635.8
70633.8
70637.9
70629.2
70643.3
70626.1
70646.4
71468.5
71875.1
72197.9
72645.6
73251.9
73637.6
73717.9
73399.2
72768.6
72051.1
71542.3
71234.1
71055.4
70932.9
70836.7
70758.5
70703.3
70669.9
70652
70643.2
70639.1
70637.2
70636.3
70635.9
70634.5
70637.5
70631.5
70641.2
70630.1
70642.6
72285.4
73342.7
74138.9
75120.3
76318.8
77327.4
77827.7
77622.1
76503
74712.2
73025.3
71900.5
71334.3
71041.2
70873.5
70772.4
70709.6
70672.9
70653.3
70643.8
70639.3
70637.3
70636.4
70636
70635.1
70637.2
70633.1
70639.7
70632.7
70640.1
74366.1
76554.5
78126.2
80440
83334
86105.4
88062.2
88669.3
87216.5
82176.3
77672.9
74216.7
72211.2
71347.1
70976.2
70802.7
70717.9
70675.6
70654.4
70644.2
70639.5
70637.4
70636.5
70636.1
70635.6
70636.9
70634.4
70638.8
70634.3
70638.7
78806.6
83901.4
86717.1
88866.9
90109.5
91622.6
93857.5
96396.1
99123.9
100100
93142.1
81298.8
75340.4
72357.9
71280.7
70890.8
70741.4
70681.1
70655.6
70644.5
70639.6
70637.5
70636.6
70636.2
70635.9
70636.8
70635.3
70638.1
70635.3
70637.9
86527.1
89530.8
89749
90334.1
90713.7
91825.5
93996.7
96762.4
100384
104516
107661
104424
85740.9
76077.7
72315
71169.8
70812.9
70697.8
70659.1
70645.1
70639.7
70637.6
70636.7
70636.3
70636.2
70636.7
70635.9
70637.7
70635.9
70637.5
87823
89688.8
89564.6
90122
90360.7
91091.4
92984.8
96017.2
100112
104588
109347
113486
112298
89727.7
76243.8
72115.2
71047.4
70752.5
70670.5
70647.2
70640.1
70637.7
70636.8
70636.4
70636.4
70636.7
70636.4
70637.4
70636.3
70637.2
87468
88500.7
88204.9
88831
88620.4
88732.7
90025.4
93102.1
98059.2
103780
109292
114322
119005
117737
90925.3
75781.2
71832.3
70933.5
70709
70654.5
70641.3
70637.9
70636.9
70636.5
70636.5
70636.7
70636.7
70637.3
70636.6
70637
86180.7
86139.2
85992.8
86461
86173.9
86023.3
86598.5
89227.2
94060.4
100520
107833
114251
119622
124437
121629
88991.3
74831.4
71529.1
70837.7
70679.7
70645.7
70638.6
70637
70636.6
70636.6
70636.7
70636.8
70637.2
70636.8
70637
84233.6
83402.8
83345.3
83669.3
83352.2
83224.8
83299.4
85181.8
89901.1
96061.7
103932
112382
119528
125243
129749
123037
85149.3
73696.8
71249.3
70763.7
70660.9
70641
70637.4
70636.7
70636.6
70636.8
70636.9
70637.1
70636.9
70637
81645.9
80531.4
80491.8
80770.8
80573.6
80497.2
80349
81488.7
85652.4
91800.2
99339.9
108306
117667
125195
131275
134454
118656
80820.8
72649.6
71023.7
70711.2
70649.4
70638.7
70637
70636.7
70636.8
70636.9
70637.1
70637
70637.1
79827.4
78270.7
78140.2
78276.7
78150.1
77966.5
77821.1
78367.8
81576.1
87688.8
95102.3
103659
113800
123708
131313
137593
137879
106809
77325.9
71858.8
70862.7
70676.9
70643
70637.6
70636.8
70636.8
70636.9
70637.1
70637.1
70637.1
77873.1
76208
76068.4
76190.1
76095.2
75770.9
75645.7
75735.2
78030.8
83463.9
91122.8
99362.3
109169
120297
130414
137900
143837
138322
93280.1
74605.6
71327.4
70759.2
70656.9
70639.6
70637.1
70636.8
70636.9
70637.1
70637.1
70637.2
77251.3
75593.3
75254.3
75072.6
74505.3
74081.8
73785.3
73607.6
74932.4
79315.5
87196
95336.8
104796
115822
127614
137457
145001
149125
131385
82610.7
72774.4
70998.8
70698.6
70646
70637.9
70636.9
70636.9
70637
70637.2
70637.4
77717.1
75839.9
75374.9
74518.6
73561.5
72680.8
72070.9
71835.7
72184.8
75535.5
83059.1
91464.6
100792
111344
123459
135450
144855
153094
148985
109926
77090.3
71712
70812.5
70665.4
70640.7
70637.2
70637
70637
70637.1
70637.4
77567.9
75917
75868.7
75114
73053.8
71460.1
70694.9
70192.7
69968.8
72083.1
78963.6
87739.4
97056
107246
118959
132061
144048
154054
157335
146204
90501.7
73806.4
71137.6
70716.5
70648.9
70638.4
70637.1
70637.1
70637.2
70637.1
77340.5
75975.7
76751.2
75461.9
73088
71232.2
70006.7
69291.7
69113.4
69867.4
75630.3
84257.3
93684.8
103777
115081
128016
141781
153732
162394
158982
124618
79380.5
72058.8
70854.4
70670.7
70641.6
70637.4
70637
70637.3
70638
77057.2
75863.6
77070.1
76996.6
73615.9
71355.8
69916.4
69177.4
68851.3
69040.1
73304.9
81498.6
90724.9
100784
112134
124741
138653
152672
165273
166595
156308
97163.4
74543
71222.6
70724.5
70650.4
70638.8
70637
70636.5
70636.7
76867
75505.1
77093.3
77640.3
73732.6
71702.3
70550.2
69455.3
68757.1
68487.3
71436.3
79833.8
89208.9
98796.5
109982
122339
135597
151082
165385
170784
168594
133467
80629
72211.3
70863.6
70670.1
70642
70637.7
70637.1
70636.8
76446
74798.5
75790
75835.6
74860.9
73029.4
69940.8
68455.4
67973.4
68253.9
70666
78905.8
88280.4
97743.1
108517
120466
133860
148467
164852
175232
175987
165028
99769.5
74694.8
71211.4
70717.6
70648.6
70639.1
70638.1
70638.3
74674.7
73494.8
74533.9
75297
74559.4
70060.9
67999.4
67650
67716.2
68479.7
70354.8
76930.2
85222.8
94330.7
105152
117592
131651
147076
164032
179740
181608
178857
137160
80406.9
72096.8
70835.4
70663.3
70640.9
70637.1
70636.6
77091.4
73599.1
75959
76177.4
71036.7
68655.6
67524.3
67335.2
67662
67426.3
66282.6
72104.3
82309.4
91958.6
102845
115374
129745
145839
163560
181720
187790
187657
171841
96635.1
74160.8
71106.6
70700.2
70644.9
70637.6
70636.8
58700.9
72560.6
76216.9
71396
68775.9
66030.3
65019.4
64534.8
63982.8
63812.5
64285.3
69809.6
80828.5
90808.8
101691
114224
128805
145108
162945
181759
194225
195090
189350
131998
78674.1
71746.8
70781.5
70656.6
70640.6
70638.5
70670.4
70598.6
70647.2
70624.1
70638.3
70633.2
70635.8
70636.1
70636.7
70637.9
70640.2
70645.5
70656.4
70677.8
70715
70769.5
70835
70893.9
70927.7
70940.2
70939.6
70954.1
70976.6
71032.7
71063.3
71081.5
71014.4
71022.6
70947.7
71026.2
70655.4
70615.5
70646
70625.6
70638.2
70633.3
70635.8
70636.1
70636.9
70638.4
70641.5
70648.2
70662
70688.2
70732.2
70793.6
70862.4
70918.3
70950.2
70976.7
71010.3
71088.2
71194.7
71299.6
71327.7
71302.5
71175.7
71148
71053.6
71063.5
70646.4
70626.1
70643.3
70629.2
70637.9
70633.8
70635.8
70636.2
70637
70638.8
70642.4
70650.3
70666.2
70696.2
70745.8
70814.5
70890.6
70956.5
71019.4
71108.5
71254
71486.5
71751.4
71956.9
71976.6
71847.7
71576
71438.6
71291.5
71167.4
70642.6
70630.1
70641.2
70631.5
70637.5
70634.5
70635.9
70636.3
70637.2
70639.1
70643.2
70652
70669.9
70703.3
70758.4
70836.6
70932.6
71054.5
71232
71538
72043.1
72757.7
73387.7
73707.7
73629.8
73246.5
72641.9
72195
71873.2
71467.6
70640.1
70632.7
70639.7
70633.1
70637.2
70635.1
70636
70636.4
70637.3
70639.3
70643.8
70653.3
70672.9
70709.5
70772.3
70873.2
71040.2
71331.3
71892.9
73008.6
74685.4
76470.5
77592.2
77802.3
77307.8
76304.8
75109.9
74130.8
73337.1
72282.2
70638.8
70634.3
70638.8
70634.4
70636.9
70635.6
70636.1
70636.5
70637.4
70639.5
70644.2
70654.3
70675.6
70717.9
70802.4
70975
71343.3
72199.1
74186.3
77617.8
82076.4
87109.6
88581.4
87990.1
86049.2
83290.6
80406.1
78104.9
76539.6
74356.4
70637.9
70635.3
70638.1
70635.3
70636.8
70635.9
70636.2
70636.6
70637.5
70639.6
70644.5
70655.6
70681
70741.2
70889.7
71276.6
72341.8
75293.3
81195.2
92932.5
99972.5
99046.1
96337.3
93808.6
91577.5
90064.9
88820.8
86671.2
83862.2
78782.9
70637.5
70635.9
70637.7
70635.9
70636.7
70636.2
70636.3
70636.7
70637.6
70639.7
70645.1
70659.1
70697.6
70811.9
71165.8
72297.6
76018.4
85530.8
104195
107562
104445
100324
96708.2
93949.1
91780.5
90669.8
90290.9
89711.7
89494.3
86491.9
70637.2
70636.3
70637.4
70636.4
70636.7
70636.4
70636.4
70636.8
70637.7
70640.1
70647.2
70670.3
70751.7
71043.7
72098.4
76175
89429.4
112089
113382
109275
104523
100056
95968.4
92941.6
91046.2
90315.8
90078.8
89528.4
89656.9
87799.6
70637
70636.6
70637.3
70636.7
70636.7
70636.5
70636.5
70636.9
70637.9
70641.3
70654.4
70708.5
70930.7
71818.6
75714.2
90591.8
117523
118894
114241
109221
103725
98017
93061.3
89986.4
88687
88573.5
88785.5
88166.2
88466.9
87442.1
70637
70636.8
70637.2
70636.8
70636.7
70636.6
70636.6
70637
70638.6
70645.6
70679.3
70835.6
71518.6
74774.5
88696.2
121381
124310
119530
114174
107779
100484
94031.8
89195.2
86565.3
85978.7
86127.5
86414.8
85949.6
86103.5
86145.7
70637
70636.9
70637.1
70636.9
70636.8
70636.6
70636.7
70637.4
70641
70660.6
70762.4
71242
73653.7
84902.2
122662
129592
125142
119443
112326
103899
96031.1
89875.7
85148.8
83261.3
83176.9
83302.1
83615.9
83296.5
83356.8
84194.7
70637.1
70637
70637.1
70636.9
70636.8
70636.7
70637
70638.7
70649.3
70710.4
71019.1
72621.2
80677.7
118150
134257
131152
125097
117601
108262
99305.8
91765.4
85626
81449.7
80302
80444.7
80515.6
80706.9
80430.2
80470.2
81588.5
70637.1
70637.1
70637.1
70636.9
70636.8
70636.8
70637.6
70642.9
70676.5
70860
71842.5
77230.9
106283
137637
137442
131193
123622
113745
103615
95064.5
87648.1
81544.9
78321.9
77764.6
77908.3
78083.3
78201.7
78067.5
78196.4
79765.2
70637.2
70637.1
70637.1
70636.9
70636.8
70637.1
70639.6
70656.7
70757.8
71318.2
74547.1
92892.6
137976
143643
137760
130307
120225
109111
99308.8
91078
83416.2
77993.6
75681.8
75579.7
75701.1
76019.4
76100.6
75976
76107.8
77777.9
70637.4
70637.2
70637
70636.9
70636.9
70637.9
70645.9
70697.8
70994.1
72742.6
82418.8
130764
148847
144831
137323
127518
115746
104726
95269.5
87141.2
79256.6
74891.2
73554.7
73729.3
74016.8
74434.9
74985
75165.4
75494.4
77125.4
70637.4
70637.1
70637
70637
70637.2
70640.6
70665.1
70810.3
71696.5
76992.8
109303
148660
152874
144689
135322
123359
111257
100711
91389.7
83007
75473
72137.4
71807.1
72043.4
72649.7
73516.5
74469.5
75335.1
75766.2
77601.3
70637.1
70637.2
70637.1
70637.1
70638.4
70648.7
70715.4
71130.5
73756.1
90093.7
145750
157032
153858
143887
131935
118848
107142
96959.4
87653.3
78931.4
72011.3
69977.3
70197
70720.9
71504.6
73119.4
75147.2
75868.8
75883.5
77480
70638
70637.3
70637
70637.4
70641.6
70670.3
70851.4
72036.7
79239.9
123818
158562
161969
153546
141619
127882
114958
103658
93510.2
84122.9
75626
69929.4
69183.1
69377.2
70121.7
71339.6
73214.1
75493.1
76788.1
76028.3
77296.9
70636.7
70636.5
70637
70638.8
70650.2
70723.3
71213.6
74478.5
96637.9
155831
166217
165080
152489
138469
124626
112040
100692
90740.8
81537.7
73395.1
69198.3
68960.8
69294.6
70064.5
71492.9
73757.5
77158.9
77207.6
75962
77095.5
70636.8
70637.1
70637.7
70642
70669.7
70860.2
72184.8
80460.2
132601
168203
170474
165199
150862
135375
122222
109957
98812.3
89301.7
79978.2
71606.1
68685.4
68903.7
69591
70751.3
71908.7
73876.9
77665.1
77313
75702.4
76988.6
70638.3
70638.1
70639
70648.4
70716.4
71201.9
74623.1
99119.5
164483
175665
174938
164678
148369
133753
120324
108556
97795.4
88404.2
79072.6
70819.7
68469.3
68139.3
68655.7
70147.3
73322.1
75259
76134.3
76005.2
75056.7
76696
70636.6
70637.1
70640.8
70662.9
70832.2
72070.7
80236.3
136230
178460
181287
179254
163982
147006
131780
117804
105336
94496.9
85433.9
77137
70469.5
68735.6
67882.9
67823.9
68189
70414.5
75183.9
76865.4
75205.2
73880.2
75043.8
70636.8
70637.5
70644.8
70699.2
71098.6
74095.4
95972.6
171155
187306
187476
181717
163574
145972
129912
115512
102924
92050.4
82402.4
72298.4
66411.6
67619.1
67827.9
67498.6
67735
68979.2
71771.9
77189.2
76299.1
73457.7
77516.5
70638.5
70640.5
70656.3
70779.1
71725.9
78529.1
130981
188911
194802
193975
181863
163116
145334
128972
114294
101721
90845.3
80805.5
70011.6
64165.8
64064.7
64306.7
64938.8
65537.5
66944.4
69493.7
72936.6
75358.8
72296.9
59149.3
70637
70637
70637
70637
70637
70637
70637
70637
70637
70637
70637
70637
70637
70637
70637
70637
70637
70637
70637
70637
70637
70637
70637
70637
70637
70637
70637
70637
70637
70637
70637
70637
70637
70637
70637
70637
70637
70637
70637
70637
70637
70637
70637
70637
70637
70637
70637
70637
70637
70637
70637
70637
70637
70637
70637
70637
70637
70637
70637
70637
70637
70637
70637
70637
70637
70637
70637
70637
70637
70637
70637
70637
70637
70637
70637
70637
70637
70637
70637
70637
70637
70637
70637
70637
70637
70637
70637
70637
70637.1
70637.3
70638.1
70640.5
70646.8
70661.5
70692.6
70753.2
70861.4
71040.5
71312.1
71679.1
72117.3
72582.8
73019
73375.8
73592
73633.9
73527.6
73268.8
72902.2
72479.2
72055.5
71666.3
71347.6
71106.7
70938.8
70823.5
70747.2
70700
70671.8
70655.9
70647.2
70642.4
70639.4
70638
70638
70637
70637
70637
70637
70637
70637
70637
70637
70637
70637
70637
70637
70637
70637
70637
70637
70637
70637
70637
70637
70637
70637
70637
70637
70637
70637
70637
70637
70637
70637
70637
70637
70637
70637
70637
70637
70637
70637
70637
70637
70637
70637
70637
70637
70637
70637
70637
70637
70637
70637
70637
70637
70637
70637
70637
70637
70637
70637
70637
70637
70637
70637
70637
70637
70637
70637
70637
70637
70637
70637
70637
70637
70637
70637
70637
70637
70637
70637
70637
70637
70637
70637
70637
70637
70637
70637
70637
70637.2
70638.7
70643.6
70658.1
70698.6
70804.5
71057.1
71588.6
72547.2
74103.2
76492.4
79814.3
83853.4
88285.1
92714.5
96474.9
99171.1
100682
100477
98444.2
95197.5
91552.2
87660.6
83885.3
80471.6
77587.2
75275.5
73593.5
72439.9
71665.1
71197.5
70938.6
70796.9
70719.5
70678.8
70657.3
70647
70642.8
70637
70637
70637
70637
70637
70637
70637
70637
70637
70637
70637
70637
70637
70637
70637
70637
70637
70637
70637
70637
70637
70637
70637
70637
70637
70637
70637
70637
70637
70637
70637
70637
70637
70637
70637
70637
70637
70637
70637
70637
70637
70637
70637
70637
70637
70637
70637
70637
70637
70637
70637
70637
70637
70637
70637
70637
70637
70637
70637
70637
70637
70637
70637
70637
70637
70637
70637
70637
70637
70637
70637
70637
70637
70637
70637
70637
70637
70637
70637
70637
70637
70637
70637
70637
70637
70637.2
70638.9
70646.3
70672.8
70764.5
71060.2
71858.7
73720.1
77627
85178.5
99285.5
124537
163630
204163
239276
266718
285940
297486
301962
300317
293691
283342
268693
250239
228353
203778
176695
148692
121280
97882.6
86504.2
80171.8
76067.3
73548.8
72139.9
71373.3
70995.7
70812.6
70721.6
70677.6
70637
70637
70637
70637
70637
70637
70637
70637
70637
70637
70637
70637
70637
70637
70637
70637
70637
70637
70637
70637
70637
70637
70637
70637
70637
70637
70637
70637
70637
70637
70637
70637
70637
70637
70637
70637
70637
70637
70637
70637
70637
70637
70637
70637
70637
70637
70637
70637
70637
70637
70637
70637
70637
70637
70637
70637
70637
70637
70637
70637
70637
70637
70637
70637
70637
70637
70637
70637
70637
70637
70637
70637
70637
70637
70637
70637
70637
70637
70637
70637
70637
70637
70637
70637.1
70638.4
70646.2
70680.5
70834.8
71420.2
73230.7
78218.8
91389.9
126479
192249
272355
343444
393930
417968
426220
426089
421520
414102
404963
394751
383347
371561
360062
348149
335915
323380
310438
296590
281231
263004
239823
204424
164406
126428
95601.5
83052.3
77096.6
73785
72137.3
71319.3
70950.1
70637
70637
70637
70637
70637
70637
70637
70637
70637
70637
70637
70637
70637
70637
70637
70637
70637
70637
70637
70637
70637
70637
70637
70637
70637
70637
70637
70637
70637
70637
70637
70637
70637
70637
70637
70637
70637
70637
70637
70637
70637
70637
70637
70637
70637
70637
70637
70637
70637
70637
70637
70637
70637
70637
70637
70637
70637
70637
70637
70637
70637
70637
70637
70637
70637
70637
70637
70637
70637
70637
70637
70637
70637
70637
70637
70637
70637
70637
70637
70637
70637
70637
70637.6
70643.4
70674.6
70848.8
71654
74710.6
85306.2
124390
212689
329845
426463
480419
502121
506703
503253
493217
479244
463962
448476
433485
419415
406165
392721
380105
368637
357477
346619
336284
326515
316980
307470
297619
286405
273510
258819
240804
215915
174578
131433
96285.3
82045.3
76124.7
73146.4
70637
70637
70637
70637
70637
70637
70637
70637
70637
70637
70637
70637
70637
70637
70637
70637
70637
70637
70637
70637
70637
70637
70637
70637
70637
70637
70637
70637
70637
70637
70637
70637
70637
70637
70637
70637
70637
70637
70637
70637
70637
70637
70637
70637
70637
70637
70637
70637
70637
70637
70637
70637
70637
70637
70637
70637
70637
70637
70637
70637
70637
70637
70637
70637
70637
70637
70637
70637
70637
70637
70637
70637
70637
70637
70637
70637
70637
70637
70637
70637
70637.1
70639.7
70659.4
70792.3
71565.4
75207.9
92346.4
161213
303177
446311
531737
563926
570377
565778
552294
535088
516565
499127
482186
465322
448867
433203
418399
404353
390608
377509
366287
355718
345557
335821
326489
317342
308209
299053
289916
281147
272576
263481
252841
239660
223570
199618
159207
117029
88142.2
70637
70637
70637
70637
70637
70637
70637
70637
70637
70637
70637
70637
70637
70637
70637
70637
70637
70637
70637
70637
70637
70637
70637
70637
70637
70637
70637
70637
70637
70637
70637
70637
70637
70637
70637
70637
70637
70637
70637
70637
70637
70637
70637
70637
70637
70637
70637
70637
70637
70637
70637
70637
70637
70637
70637
70637
70637
70637
70637
70637
70637
70637
70637
70637
70637
70637
70637
70637
70637
70637
70637
70637
70637
70637
70637
70637
70637
70637
70637
70637.6
70646
70712.3
71219.7
74260.7
92200.2
178490
361493
531013
603940
626351
625757
612306
593845
573754
555123
535528
513876
491336
468958
447589
427603
409250
392487
377190
363262
349648
339068
330213
322362
315473
309369
303743
298340
292855
286883
280182
272601
264117
255368
246693
238183
227915
215060