/*--------------------------------*- C++ -*----------------------------------*\
| =========                 |                                                 |
| \\      /  F ield         | OpenFOAM: The Open Source CFD Toolbox           |
|  \\    /   O peration     | Version:  2112                                  |
|   \\  /    A nd           | Website:  www.openfoam.com                      |
|    \\/     M anipulation  |                                                 |
\*---------------------------------------------------------------------------*/
FoamFile
{
    version     2.0;
    format      ascii;
    arch        "LSB;label=32;scalar=64";
    class       volVectorField;
    location    "0.00265";
    object      U;
}
// * * * * * * * * * * * * * * * * * * * * * * * * * * * * * * * * * * * * * //

dimensions      [0 1 -1 0 0 0 0];

internalField   nonuniform List<vector> 
13875
(
(2204.22 109.706 1.8125e-18)
(2142.61 5.62825 -9.38518e-19)
(2170.11 -2.22466 -9.41169e-19)
(2168.29 -1.23722 0)
(2170.85 0.0753096 0)
(2169.59 -0.0872496 9.36404e-19)
(2169.58 -0.378271 -9.36798e-19)
(2169.75 -1.30568 -4.68441e-19)
(2169.52 -0.913568 4.68083e-19)
(2169.54 0.147936 0)
(2169.12 0.0233524 -3.88465e-22)
(2169.04 -0.257377 -3.88574e-22)
(2169.26 -0.206267 0)
(2169.84 -0.0365238 -4.68106e-19)
(2169.34 0.248647 4.68596e-19)
(2169.64 0.397164 0)
(2169.59 0.798071 9.36804e-19)
(2170.02 1.02111 -9.36841e-19)
(2169.74 0.400522 3.85511e-22)
(2169.57 0.0546908 -3.85524e-22)
(2170.98 -0.213403 -9.35758e-19)
(2167.9 0.430582 9.36947e-19)
(2171 2.51993 -1.87805e-18)
(2143.61 -8.70997 1.91663e-18)
(2210.51 -106.856 1.76312e-18)
(2253.41 91.9083 -1.63229e-18)
(2228.53 -1.12548 1.88346e-18)
(2247.28 0.642479 8.71845e-19)
(2245.6 1.38108 -8.67233e-19)
(2248.53 -0.431989 4.16334e-22)
(2248.13 0.491589 5.20479e-22)
(2248.12 0.501119 4.16169e-22)
(2247.85 1.74523 -4.36269e-19)
(2245.65 1.18679 4.33327e-19)
(2245.46 -0.1957 2.17578e-19)
(2244.97 0.135369 -1.62925e-19)
(2244.99 0.348485 -5.31618e-20)
(2245.07 -0.208323 0)
(2245.79 -0.0266581 -4.3668e-19)
(2245.1 -0.14377 4.34573e-19)
(2245.25 -0.68456 4.35326e-19)
(2245.71 -1.06229 -4.36127e-19)
(2247.92 -1.19468 5.19845e-22)
(2248.25 -0.442479 -5.20305e-22)
(2248.12 -0.492888 5.20187e-22)
(2248.7 0.678049 -8.71023e-19)
(2245.54 -0.719177 2.59996e-18)
(2247.19 -1.60765 -1.74275e-18)
(2229.05 3.54831 5.4265e-22)
(2256.69 -96.7575 -1.7118e-18)
(2252.45 78.0954 0)
(2236.43 -18.2174 0)
(2249.34 4.36892 0)
(2250.93 -2.01241 0)
(2254.15 -3.04197 -1.65367e-18)
(2253.91 -0.687291 1.64346e-18)
(2254.19 0.23199 1.63979e-18)
(2254.3 2.01286 -2.45784e-18)
(2254.01 2.22142 8.59796e-19)
(2253.31 0.702015 4.30253e-22)
(2252.71 0.185854 -4.30502e-19)
(2252.86 -0.259759 4.31246e-19)
(2253.16 -0.786693 0)
(2253.43 -0.0771892 0)
(2253.2 0.817023 4.30791e-22)
(2252.91 -0.224939 0)
(2253.53 -2.48941 8.38977e-22)
(2254.34 -2.29751 4.09516e-19)
(2254.28 -0.316232 -4.09964e-19)
(2253.94 0.558242 0)
(2254.31 2.96224 0)
(2250.97 1.43306 0)
(2250.59 -4.80388 0)
(2238.01 13.7766 0)
(2256.95 -74.6255 0)
(2247.87 51.3447 0)
(2235.04 -28.5415 1.81454e-18)
(2249.12 7.1532 -3.41734e-18)
(2251.66 -4.73507 3.46502e-18)
(2253.8 -3.82975 -1.65547e-18)
(2253.76 -1.00035 0)
(2254.14 0.162515 -7.90668e-22)
(2254.27 1.94818 0)
(2254.32 2.46786 0)
(2253.98 1.34072 0)
(2253.39 0.372087 0)
(2253.28 -0.321755 -8.04187e-22)
(2253.3 -0.586385 -5.39386e-20)
(2253.48 -0.068543 5.13654e-20)
(2253.33 0.51138 0)
(2253.75 -0.752908 0)
(2254.21 -2.75016 8.39382e-22)
(2254.31 -2.31747 -7.9232e-19)
(2254.21 -0.283609 8.05425e-19)
(2253.82 0.83326 -1.62653e-18)
(2254.07 3.57533 1.6308e-18)
(2252 4.70191 1.74118e-18)
(2249.7 -8.8439 -1.72046e-18)
(2235.64 31.2815 0)
(2251.32 -58.7103 0)
(2244.94 39.3101 1.74893e-18)
(2235.53 -47.7367 0)
(2248.59 10.3864 0)
(2250.66 -8.24942 0)
(2254.17 -5.45046 0)
(2253.87 -1.76944 1.66218e-21)
(2254.07 -0.0735422 1.64289e-21)
(2254.19 1.74768 4.23795e-19)
(2254.25 2.65898 -4.26783e-19)
(2253.84 1.77268 2.14356e-19)
(2253.33 0.434012 -2.03278e-19)
(2253.22 -0.377476 0)
(2253.22 -0.462548 0)
(2253.42 -0.0388636 -1.57161e-21)
(2253.32 0.273542 0)
(2253.76 -1.01983 -1.68674e-21)
(2254.27 -2.89201 8.51393e-19)
(2254.26 -2.26268 -8.08327e-19)
(2254.11 -0.0996747 1.66689e-18)
(2253.86 1.54846 -1.69004e-18)
(2254.29 4.99216 1.66495e-21)
(2250.76 6.91702 0)
(2249.94 -11.4491 0)
(2237.16 42.8299 0)
(2250.48 -35.0935 0)
(2241.48 6.79787 0)
(2231.51 -63.3478 9.12641e-19)
(2247.03 12.186 -8.48138e-19)
(2250.94 -11.6011 0)
(2253 -6.38105 8.61419e-19)
(2253.19 -2.27849 -4.31837e-19)
(2253.72 -0.185242 -2.2428e-21)
(2253.91 1.68979 -2.14233e-19)
(2253.94 2.83915 -4.26101e-19)
(2253.87 2.40291 1.63593e-19)
(2253.31 0.681116 1.62923e-21)
(2253.03 -0.435416 2.64126e-19)
(2253.07 -0.499703 -2.12367e-19)
(2253.28 -0.115001 3.27941e-21)
(2253.17 0.0849599 -4.32533e-19)
(2253.69 -1.4838 4.34283e-19)
(2254.17 -3.15919 1.63843e-21)
(2254.04 -2.244 -1.61806e-21)
(2253.74 -0.0625299 -1.63563e-21)
(2253.22 1.88916 -8.50768e-19)
(2253.28 5.59014 8.52211e-19)
(2251.47 11.3997 0)
(2247.33 -15.0505 0)
(2232.4 65.431 -1.93363e-18)
(2246.22 -18.9918 -1.26492e-19)
(2254.24 2.96183 -4.95301e-20)
(2227.5 -79.1381 6.02401e-20)
(2242.88 12.1146 0)
(2248.77 -16.6384 -2.6913e-23)
(2252.64 -8.70785 -2.62343e-23)
(2252.89 -3.76357 0)
(2253.35 -0.79952 0)
(2253.56 1.27733 -8.45208e-19)
(2253.64 2.61798 8.44212e-19)
(2253.77 2.73719 0)
(2253.03 0.875814 1.71765e-18)
(2252.75 -0.288681 1.69108e-21)
(2252.75 -0.495697 -1.72416e-18)
(2252.97 -0.113364 -1.69797e-21)
(2252.86 -0.0779128 0)
(2253.45 -1.82446 3.44034e-18)
(2253.93 -3.13906 4.98114e-23)
(2253.76 -1.75114 -6.69289e-18)
(2253.37 0.640436 3.36343e-18)
(2252.9 3.36017 2.59276e-23)
(2252.78 7.94802 0)
(2248.6 13.765 3.53143e-18)
(2244.04 -12.4077 -3.31199e-18)
(2228.78 72.8633 3.81546e-18)
(2247.23 2.79794 -3.18059e-18)
(2217.93 -22.8115 -3.17134e-19)
(2214.51 -87.1745 -7.50136e-18)
(2235.24 3.45143 8.72433e-22)
(2245.98 -23.2428 2.61597e-23)
(2248.93 -10.8086 -8.10051e-22)
(2250.59 -4.81987 0)
(2251.88 -1.13173 -3.34801e-18)
(2252.52 1.20235 3.37218e-18)
(2252.8 2.60038 0)
(2253.18 3.12941 -8.25739e-22)
(2252.74 1.49823 -8.42636e-22)
(2252.15 -0.26807 0)
(2252.17 -0.551387 0)
(2252.34 -0.276071 -1.65773e-21)
(2252.31 -0.474226 -8.46263e-22)
(2253.06 -2.59515 2.61229e-23)
(2253.22 -3.31735 -8.46757e-22)
(2252.79 -1.57001 -2.55764e-23)
(2252.01 0.958635 -1.6897e-18)
(2250.79 4.28237 -1.35931e-20)
(2249.44 9.81231 1.68997e-18)
(2246.31 20.2316 8.88296e-22)
(2236.62 -4.54337 3.4605e-18)
(2216.35 81.4503 -3.53721e-18)
(2222.02 18.1101 2.50245e-23)
(2111.27 -38.0083 9.42214e-19)
(2168.22 -98.4364 0)
(2216.57 -20.395 -8.31474e-22)
(2235.11 -33.1586 -8.64875e-19)
(2245.33 -19.9477 1.70664e-18)
(2248.38 -9.81661 -1.70491e-18)
(2250.06 -3.92077 7.34002e-21)
(2251.03 -0.350015 8.47463e-19)
(2251.49 1.46684 0)
(2252.04 2.72005 -8.45577e-19)
(2251.72 2.07946 8.58398e-19)
(2251.07 0.23594 0)
(2250.94 -0.599182 0)
(2251.04 -0.161964 2.09885e-21)
(2251.07 -0.717016 8.38305e-22)
(2251.89 -2.86966 8.56901e-19)
(2251.98 -2.60864 -8.46241e-19)
(2251.38 0.0363277 0)
(2250.29 3.2296 8.54114e-19)
(2248.66 8.5436 -1.7062e-18)
(2245.96 17.1116 8.46396e-19)
(2236.14 29.6002 -8.40119e-22)
(2218.42 16.7641 0)
(2170.76 93.8927 0)
(2115.8 35.4567 0)
(1866.49 -143.06 -6.60265e-17)
(2123.26 -160.539 8.46474e-17)
(2196.18 -55.0271 0)
(2225.99 -57.4959 -2.96678e-17)
(2237.41 -23.2215 3.08675e-17)
(2243.41 -11.3806 0)
(2246.22 -4.03559 -2.99616e-20)
(2247.73 -0.265924 -1.47431e-17)
(2248.59 1.33781 1.47782e-17)
(2249.38 2.69137 -2.95905e-20)
(2249.23 2.86579 0)
(2248.61 0.586148 -3.73143e-18)
(2248.34 -0.471032 5.56564e-18)
(2248.39 -0.459927 -1.89822e-18)
(2248.46 -1.33925 -2.95564e-20)
(2249.22 -3.54104 0)
(2249.18 -2.5892 0)
(2248.22 0.148994 -2.95745e-17)
(2246.57 3.99294 2.96312e-17)
(2243.64 10.2984 -3.02357e-17)
(2238.75 21.7577 2.95543e-17)
(2227.18 54.414 3.21903e-17)
(2198.69 53.4605 -2.93165e-17)
(2127.51 162.721 -8.35395e-17)
(1880.88 139.218 -1.26568e-17)
(1647.8 -224.769 -9.10571e-17)
(2009.19 -310.666 1.38406e-16)
(2152.31 -112.387 0)
(2201.3 -64.1729 6.92471e-17)
(2227.04 -31.4138 -7.1682e-17)
(2235 -16.5712 -3.35266e-17)
(2239.31 -7.24904 3.42717e-17)
(2241.36 -3.05228 -3.37034e-17)
(2242.64 -0.465476 3.40029e-17)
(2243.57 1.80542 3.24196e-20)
(2243.58 2.80237 0)
(2243.18 1.19163 -2.13078e-18)
(2242.72 -0.319774 2.1642e-18)
(2242.78 -0.401195 3.27743e-20)
(2242.79 -1.32009 3.27606e-20)
(2243.39 -2.91057 3.40944e-20)
(2243.22 -1.48522 0)
(2241.98 2.50173 0)
(2239.88 6.70515 -6.90324e-17)
(2235.44 15.3707 6.74023e-17)
(2228.27 27.5574 -7.21477e-17)
(2206.42 58.6821 1.47429e-16)
(2160.62 99.3819 -7.07041e-17)
(2011.86 299.43 -3.89248e-20)
(1690.32 206.66 8.82739e-20)
(1237.76 -578.489 -1.15162e-16)
(1743.12 -578.824 1.17849e-16)
(1991.33 -167.457 2.26777e-16)
(2152.97 -115.993 -9.63365e-17)
(2195.72 -37.2079 0)
(2211.47 -14.233 7.51597e-17)
(2221.62 -5.98155 -7.69281e-17)
(2225.29 -1.20519 0)
(2228.02 0.0378265 3.5583e-20)
(2229.24 2.35184 0)
(2229.49 3.15664 0)
(2229.51 1.63896 0)
(2228.82 0.152614 4.72705e-18)
(2229 -0.697883 -4.73011e-18)
(2228.89 -1.77882 -4.01205e-20)
(2229.02 -3.62489 -3.53022e-20)
(2228.43 -2.73488 0)
(2226.1 0.0150173 0)
(2222.5 5.85538 0)
(2211.33 12.534 -7.91507e-17)
(2198.62 35.5219 1.60153e-16)
(2161.75 103.13 -7.45939e-17)
(2035.78 162.925 -1.33215e-16)
(1746.19 590.619 1.01653e-16)
(1272.28 550.743 -6.01349e-20)
(1261.71 -629.554 1.70766e-16)
(1141.73 -1033.81 0)
(1501.31 -584.277 0)
(1862.53 -150.763 -1.14985e-16)
(2104.9 -77.9606 1.18076e-16)
(2152.61 -52.6576 0)
(2167.22 -26.445 1.39175e-20)
(2177.25 -16.015 4.34721e-17)
(2183.15 -6.6413 -4.39673e-17)
(2185.04 -1.43233 0)
(2185.52 1.0173 -1.08235e-17)
(2186.29 2.16725 1.0816e-17)
(2184.75 0.540633 -5.43144e-18)
(2185.54 0.107004 5.42069e-18)
(2185.19 -0.309594 3.8912e-20)
(2184.6 0.268211 -4.29664e-17)
(2182.78 4.06934 8.64565e-17)
(2177.53 13.2843 1.04527e-18)
(2167.18 25.3068 -4.34638e-17)
(2150.55 53.8934 -9.59766e-17)
(2093.39 61.3578 8.92169e-17)
(1866.38 99.2242 8.6704e-20)
(1633.15 494.734 2.77545e-20)
(1103.28 1052.78 1.69515e-16)
(1305.06 616.194 7.42531e-18)
(1323.39 -634.958 0)
(1160.97 -1021.72 0)
(1211.28 -742.549 0)
(1100.77 -841.031 0)
(1910.33 -263.285 0)
(1901.2 -18.9245 1.25937e-16)
(1945.09 14.6962 -1.2951e-16)
(1993.61 17.1308 1.92174e-19)
(2014.99 6.78958 -1.14012e-20)
(2022.96 5.00759 2.76441e-17)
(2021.73 5.37522 -2.80459e-17)
(2027.58 1.64943 -3.66134e-19)
(2020.08 1.72273 -8.7905e-19)
(2024.55 -1.68408 1.04637e-18)
(2022 -1.86367 -2.81184e-17)
(2020.3 -5.14207 2.80036e-17)
(2011.03 -9.22004 1.72495e-19)
(1988.38 -15.591 0)
(1933.99 -14.288 0)
(1887.15 33.7876 0)
(1873.47 326.011 -2.14849e-16)
(1097.79 817.36 -5.58303e-17)
(1245.25 701.581 1.67439e-16)
(1136.23 991.754 2.06965e-20)
(1348.57 621.709 2.08987e-20)
(1398.56 -621.139 0)
(1255.83 -891.128 4.13583e-20)
(1253.99 -736.222 0)
(1121.64 -826.335 -1.75863e-16)
(1215.85 -679.178 3.4493e-16)
(1118.73 -602.447 -2.3244e-16)
(1156.48 -419.424 0)
(1426.4 -226.961 -1.55745e-19)
(1377.73 -105.934 0)
(1426.29 -35.6956 0)
(1363.98 -25.8888 -2.93127e-17)
(1422.91 4.74673 2.97989e-17)
(1348.55 0.293336 3.00348e-17)
(1399.24 2.77898 -2.97395e-17)
(1373.35 16.0133 0)
(1402.78 41.5474 -1.18559e-16)
(1369.19 105.767 1.17008e-16)
(1408.51 206.857 1.20154e-16)
(1191.54 425.836 -1.09643e-16)
(1092.94 594.937 0)
(1191.2 684.113 0)
(1102.15 810.857 -1.72785e-19)
(1273.26 695.936 -1.73496e-16)
(1255.49 869.313 3.78818e-16)
(1390.59 615.852 -1.73858e-16)
(1469.44 -615.507 -1.75319e-16)
(1359.16 -808.258 1.89773e-16)
(1310.33 -643.547 0)
(1161.18 -649.907 -2.38979e-16)
(1179.03 -530.942 -4.31232e-17)
(936.952 -410.526 3.5292e-16)
(497.483 -119.129 -2.53926e-16)
(473.487 -101.415 1.3594e-16)
(244.702 -9.76323 0)
(263.49 -18.9381 0)
(140.507 -1.35222 -4.31481e-20)
(223.804 -7.46859 1.60683e-19)
(120.882 11.3568 0)
(195.287 -4.0738 0)
(156.072 10.3773 6.66854e-17)
(228.577 12.7306 -6.81642e-17)
(245.26 8.98568 -1.34122e-16)
(446.764 95.6461 2.7607e-16)
(478.02 109.328 -6.60631e-18)
(853.525 341.522 -1.33242e-16)
(1153.27 520.19 0)
(1141.03 648.878 0)
(1310.65 611.703 -1.89191e-16)
(1312.51 808.768 2.15853e-16)
(1449.76 618.234 -4.57576e-20)
(1574.31 -547.292 1.6884e-16)
(1488.16 -623.85 -9.67416e-20)
(1466.99 -448.996 1.07992e-16)
(1301.7 -352.307 -9.98602e-17)
(1235.62 -247.94 -5.10576e-20)
(975.865 -136.768 1.22767e-19)
(625.46 -65.116 1.29247e-16)
(594.768 -135.28 -1.99689e-16)
(471.048 -81.0225 6.74541e-17)
(471.511 -83.6168 0)
(445.702 -43.8279 -3.29934e-17)
(466.2 -35.375 3.29003e-17)
(445.698 -7.05035 0)
(457.024 14.4346 5.90779e-20)
(445.327 31.3397 -3.32254e-17)
(456.098 62.8184 3.30545e-17)
(459.336 73.956 0)
(574.45 119.223 -1.34322e-16)
(592.268 82.3425 1.3096e-16)
(886.607 117.867 1.19477e-16)
(1201.36 249.161 -2.19578e-16)
(1263.52 353.448 1.21141e-16)
(1432.67 442.304 0)
(1463.72 654.439 1.78689e-16)
(1562.79 566.503 -9.99961e-18)
(1709.46 -399.082 -6.33656e-18)
(1610.54 -244.603 9.66444e-17)
(1451 -173.851 -4.41753e-17)
(1321.78 -41.2142 -5.75035e-17)
(1313.34 -107.246 7.91119e-17)
(1132.95 -163.988 -5.73029e-17)
(903.195 -177.188 6.27646e-17)
(888.683 -162.728 -6.37185e-17)
(823.349 -126.314 -1.16573e-19)
(783.71 -101.277 3.22326e-17)
(744.256 -51.2124 1.6046e-17)
(757.091 -35.9409 -4.9935e-20)
(726.226 2.83297 -1.60925e-17)
(747.084 30.5851 -6.2299e-20)
(744.362 57.1146 -7.71899e-20)
(775.355 99.3158 -2.01592e-18)
(828.121 137.536 1.41474e-21)
(894.25 165.26 5.98758e-18)
(916.354 173.657 -3.88225e-18)
(1108.62 156.316 0)
(1285.65 115.597 1.29775e-17)
(1295.73 62.8501 -4.01236e-17)
(1450.45 164.455 4.88249e-17)
(1602.6 272.236 -6.85656e-17)
(1702.36 420.235 6.46605e-17)
(1810.33 -284.766 -1.0448e-19)
(1759.95 42.0186 -1.38512e-19)
(1612.66 106.336 1.62588e-19)
(1468.78 4.76819 -7.15305e-21)
(1464.99 -63.5226 -1.69773e-19)
(1384.85 -120.615 -1.95329e-19)
(1176.17 -152.886 -7.95187e-21)
(1055.35 -140.732 0)
(972.299 -94.0194 0)
(926.786 -81.139 6.46003e-17)
(874.443 -43.4539 -6.4143e-17)
(875.501 -29.716 -8.25826e-21)
(847.867 0.377092 8.24311e-21)
(865.766 27.4325 -8.29107e-18)
(869.343 48.9842 8.06149e-18)
(914.142 79.5938 0)
(969.601 101.492 0)
(1036.41 139.976 -6.2061e-17)
(1137.09 161.644 6.01586e-17)
(1349.22 135.754 -1.8862e-19)
(1439.1 99.966 0)
(1447.15 18.7498 0)
(1607.17 -98.0545 -1.67905e-19)
(1748.99 -40.0606 -1.42541e-19)
(1802.78 297.972 1.5307e-16)
(1783.37 174.385 -1.68651e-16)
(1711.48 398.784 -2.25562e-16)
(1679.81 368.104 1.38895e-16)
(1620.59 220.284 0)
(1603.38 59.1361 2.22412e-19)
(1550.65 -22.2055 1.0654e-16)
(1396.84 -55.3141 -2.17858e-16)
(1233.01 -67.713 1.15003e-16)
(1109.26 -50.1947 -1.27336e-16)
(1041.97 -47.5405 1.26512e-16)
(984.378 -25.7963 3.21063e-17)
(972.129 -17.68 -3.99021e-17)
(949.565 3.3531 -8.03445e-18)
(963.998 21.7502 1.62509e-17)
(979.567 35.7153 0)
(1031.1 51.6399 0)
(1103.05 62.2283 1.24271e-16)
(1209.33 75.7559 -2.41502e-16)
(1367.97 74.1972 1.15591e-16)
(1531.43 43.6119 2.26987e-19)
(1592.25 -32.843 1.93324e-16)
(1616.17 -206.436 -2.14342e-17)
(1693.03 -344.125 -4.73155e-16)
(1710.13 -391.449 5.5741e-16)
(1778.1 -214.403 -2.98737e-16)
(1493.13 530.901 1.14328e-19)
(1523.87 866.674 -1.97527e-16)
(1719.53 598.665 1.25828e-16)
(1712.34 383.479 0)
(1693.27 206.353 0)
(1649.65 112.975 0)
(1520.76 70.3154 0)
(1368.31 23.9893 0)
(1238.53 9.12295 -5.48999e-17)
(1158.62 -12.5356 1.11114e-16)
(1089.81 -2.87234 -8.39705e-17)
(1072.53 -5.40087 3.1446e-17)
(1049.01 5.57767 -3.52097e-18)
(1066.51 13.3848 1.29548e-20)
(1087.13 16.1212 -5.58672e-17)
(1152.85 21.212 5.67487e-17)
(1235.36 6.13458 0)
(1350.75 -13.9665 0)
(1503.91 -53.0166 -1.74894e-16)
(1641.21 -99.7735 1.89138e-16)
(1688.6 -188.14 -1.70796e-19)
(1713.17 -379.897 7.0095e-20)
(1717.48 -603.592 -9.32427e-20)
(1553.5 -834.453 -7.26002e-20)
(1478.94 -568.165 0)
(1181.63 835.102 -1.84792e-16)
(1573.48 998.064 1.18349e-16)
(1779.48 748.022 -1.31347e-19)
(1762.88 536.662 1.50732e-16)
(1746.98 344.286 -1.3003e-16)
(1703.82 242.606 0)
(1600.29 183.856 -8.41863e-17)
(1466.69 113.532 8.26284e-17)
(1339.75 68.564 -4.76914e-17)
(1257.03 32.4867 9.67834e-17)
(1189.84 22.673 -4.82269e-17)
(1165.88 8.31384 1.8072e-19)
(1146.99 6.01084 0)
(1162.42 0.263177 2.45432e-17)
(1191.07 -9.61218 2.36891e-17)
(1256.84 -25.1842 -4.91474e-17)
(1341.81 -57.056 -9.10987e-17)
(1455.39 -108.561 9.04371e-17)
(1588.54 -175.493 -7.40288e-17)
(1697.96 -236.368 8.17365e-17)
(1745.57 -339.277 7.97574e-20)
(1764.2 -546.994 -7.83101e-20)
(1762.53 -765.123 0)
(1581.58 -993.581 6.45401e-20)
(1165.22 -855.464 0)
(1150.51 783.315 1.45262e-16)
(1619.32 949.323 -1.30991e-16)
(1800.56 820.717 5.07843e-20)
(1778.86 680.657 0)
(1771.24 494.701 0)
(1732.27 379.206 -7.44785e-21)
(1656.18 287.685 0)
(1547.13 193.28 7.99476e-20)
(1431.55 130.463 0)
(1350.78 71.5508 4.30263e-17)
(1281.85 48.987 -6.42329e-17)
(1259.68 20.1267 3.21341e-17)
(1238.38 5.33924 -1.07798e-17)
(1256.71 -13.0107 0)
(1282.48 -37.3671 0)
(1350.45 -64.1192 4.14129e-17)
(1432.25 -118.358 -1.2045e-16)
(1533.17 -187.204 7.84724e-17)
(1642.76 -276.794 -6.45313e-17)
(1723.7 -379.776 7.11966e-17)
(1769.42 -488.7 0)
(1784.16 -672.697 0)
(1797.45 -828.807 0)
(1632.8 -925.88 -6.98997e-21)
(1127.51 -768.59 -1.66227e-16)
(1262.66 678.042 -2.78476e-20)
(1705.78 834.229 1.07184e-16)
(1787.71 857.478 -9.881e-17)
(1785.64 745.626 0)
(1778.53 599.39 0)
(1753.7 481.098 7.6784e-21)
(1696.69 365.293 6.55754e-17)
(1600.48 259.249 -6.37458e-17)
(1497.35 183.466 3.30171e-20)
(1427.71 114.712 3.45892e-20)
(1366.36 73.3519 3.52035e-20)
(1341.18 33.3396 -1.01497e-20)
(1323.78 5.01715 -1.01471e-20)
(1338.12 -27.1663 1.91525e-17)
(1366.69 -62.4505 -1.94735e-17)
(1427.61 -108.58 4.47372e-20)
(1500.17 -172.481 4.29306e-20)
(1590.27 -252.886 0)
(1687.49 -352.007 -5.77498e-17)
(1750.81 -479.003 6.35702e-17)
(1778.23 -598.765 0)
(1794.77 -737.969 -1.00337e-16)
(1780.86 -865.097 1.03705e-16)
(1708.42 -834.782 6.40439e-21)
(1282.99 -678.953 -1.50348e-16)
(1359.31 580.968 3.41878e-20)
(1736.11 776.394 0)
(1771.86 859.051 0)
(1784.4 789.557 -5.39908e-17)
(1785.36 676.939 4.74659e-17)
(1776.84 557.092 0)
(1732.64 428.79 6.01667e-17)
(1648.35 311.533 -5.8369e-17)
(1559.6 225.547 3.40301e-17)
(1498.4 143.966 -3.38354e-17)
(1439.8 96.68 1.78255e-17)
(1420.37 43.2553 -1.76442e-17)
(1400.94 3.73666 0)
(1417.98 -40.6321 -1.75503e-17)
(1440.29 -90.0908 1.7917e-17)
(1499.95 -142.51 -3.65712e-20)
(1565.99 -220.589 -3.50543e-20)
(1641.45 -313.487 5.65505e-20)
(1723.74 -422.649 5.29023e-17)
(1774.05 -560.907 -5.80233e-17)
(1778.28 -680.66 -4.8685e-20)
(1790.09 -784.946 -4.80776e-20)
(1772.04 -862.473 0)
(1735.03 -765.267 -5.14278e-20)
(1347.08 -570.953 3.46277e-20)
(1397.54 518.173 1.26271e-22)
(1749.43 713.22 0)
(1766.94 847.604 8.53144e-23)
(1784.68 808.758 4.45022e-20)
(1789.94 722.511 -8.79809e-23)
(1795.77 607.677 -5.26804e-17)
(1759.39 478.476 4.88057e-17)
(1684.09 361.309 0)
(1608.28 267.635 -6.36453e-20)
(1558.84 180.399 -1.13617e-22)
(1508.82 117.417 -1.15457e-22)
(1487.87 54.4312 6.81514e-20)
(1472.56 3.75358 0)
(1485.01 -51.5719 0)
(1508.65 -109.907 -1.15216e-22)
(1558.94 -178.928 -1.13682e-22)
(1615.01 -261.151 -2.9344e-17)
(1680.07 -360.362 8.32128e-17)
(1751.74 -468.479 -5.5316e-17)
(1797.14 -603.971 0)
(1789.69 -723.384 -4.51001e-17)
(1792.09 -802.939 4.77713e-17)
(1769.32 -851.401 8.37042e-23)
(1749.22 -720.138 4.60833e-20)
(1408.8 -512.901 1.25524e-22)
(1438.36 454.355 6.84469e-18)
(1740.56 691.754 1.04878e-17)
(1762.72 826.376 9.04864e-17)
(1788.17 803.98 -4.30131e-17)
(1802.73 745.125 4.304e-17)
(1816.84 640.217 -4.83188e-17)
(1782.6 516.63 4.5461e-17)
(1718.51 394.803 -2.71642e-17)
(1656.97 296.454 2.69198e-17)
(1615.09 201.134 1.19301e-22)
(1567.79 135.358 1.21492e-22)
(1554.11 62.8066 -1.21875e-22)
(1536.61 4.28651 7.3888e-18)
(1551.51 -60.4608 7.26653e-18)
(1567.77 -128.685 -1.51018e-17)
(1615.25 -199.532 1.1979e-22)
(1665.49 -290.98 5.42211e-17)
(1717.45 -396.66 -1.04671e-16)
(1775.54 -507.934 5.119e-17)
(1817.82 -634.439 0)
(1800.71 -742.059 -8.8461e-23)
(1795.02 -799.016 8.17779e-23)
(1766.55 -825.548 -8.09348e-23)
(1736.61 -692.822 -9.97758e-17)
(1434.26 -456.89 1.15726e-16)
(1428.54 459.634 1.10749e-19)
(1715.33 664.42 0)
(1767.47 777.193 0)
(1793 788.871 4.07902e-20)
(1818.05 741.682 8.20915e-20)
(1833.55 649.292 0)
(1801.03 533.844 4.7725e-17)
(1744.87 420.572 -4.68939e-17)
(1694.81 321.507 4.82219e-20)
(1662.45 224.456 -4.99705e-20)
(1623.35 146.556 -1.3882e-17)
(1608.09 66.8836 1.37581e-17)
(1595.47 1.42743 3.5512e-18)
(1606.2 -70.9383 -3.47655e-18)
(1624.21 -145.188 1.35268e-17)
(1662.94 -229.483 -4.02089e-17)
(1703.9 -322.122 2.69252e-17)
(1747.89 -428.679 -5.11657e-20)
(1795.46 -535.327 4.22612e-20)
(1834.72 -651.188 -4.16193e-17)
(1817.11 -743.709 1.13292e-18)
(1798.5 -785.45 -1.49473e-18)
(1777.2 -774.44 4.11147e-17)
(1718.14 -662.895 4.63576e-20)
(1428.42 -465.66 5.42746e-20)
(1398.04 460.242 1.08e-16)
(1721.13 630.235 -9.21758e-17)
(1790.07 722.943 0)
(1804.47 766.199 -3.99344e-17)
(1830.28 733.425 7.24375e-20)
(1849.42 658.572 3.97877e-17)
(1819.02 558.807 4.44706e-17)
(1774.81 443.705 -4.40359e-17)
(1736.68 342.16 -5.04485e-20)
(1709.6 239.686 -2.55777e-17)
(1671.69 161.511 1.22291e-17)
(1663.34 76.0464 1.26378e-17)
(1647.54 4.89089 -5.35046e-20)
(1660.99 -73.4355 0)
(1670.77 -153.384 0)
(1707.75 -235.885 0)
(1744.65 -333.691 5.0654e-20)
(1777.72 -442.417 1.06434e-20)
(1813.22 -548.616 -5.37531e-20)
(1849.36 -649.51 0)
(1829.71 -727.326 3.97679e-20)
(1809.42 -759.099 9.81695e-21)
(1793.64 -722.745 -5.02597e-20)
(1734.74 -634.857 -9.05993e-17)
(1418.16 -469.145 1.05749e-16)
(1386.1 443.465 5.19021e-17)
(1736.54 565.257 -8.56069e-17)
(1808.18 653.23 8.38855e-17)
(1817.19 728 -4.13747e-17)
(1847.53 713.575 -3.79539e-17)
(1862.42 645.105 3.82472e-17)
(1832.89 554.163 2.08908e-17)
(1796.36 451.139 -2.10516e-17)
(1766.56 354.742 1.16398e-17)
(1747.03 254.233 -2.33712e-17)
(1716.8 168.101 1.76361e-17)
(1706.5 78.2036 -7.42766e-18)
(1695.98 2.94988 1.48706e-18)
(1705.11 -79.7036 -4.4128e-20)
(1717.71 -163.197 2.33019e-17)
(1746.23 -255.922 -2.39838e-17)
(1775.51 -351.045 4.25702e-20)
(1804.07 -454.651 4.22143e-17)
(1829.99 -551.746 -2.08461e-18)
(1862.46 -641.58 -3.9387e-17)
(1847.77 -710.161 0)
(1820.71 -726.352 4.20541e-17)
(1811.04 -663.672 -3.80683e-17)
(1737.7 -582.372 -9.17346e-17)
(1398.31 -447.869 -4.17329e-18)
(1416.52 414.9 -5.13045e-17)
(1759.11 497.11 4.55875e-17)
(1829.44 604.188 1.93402e-20)
(1833.82 692.54 -5.5164e-20)
(1865.36 692.405 1.87528e-20)
(1873.36 633.445 3.74844e-17)
(1848.36 554.351 -1.85703e-17)
(1821.96 453.589 -2.009e-17)
(1802.43 357.289 4.43133e-20)
(1785.94 254.783 -4.55987e-20)
(1755.3 171.345 2.07083e-20)
(1752.37 79.0876 -2.06395e-20)
(1738.39 0.784101 0)
(1750.82 -84.8959 4.99643e-21)
(1755.74 -170.596 -1.09702e-17)
(1784.18 -258.863 1.12306e-17)
(1809.74 -356.839 -2.10816e-17)
(1827.75 -460.639 9.03776e-19)
(1845.51 -552.612 1.96891e-17)
(1873.64 -628.549 -5.46713e-20)
(1862.86 -688.019 -3.765e-17)
(1839.46 -683.325 3.61256e-17)
(1833.55 -593.792 0)
(1761.48 -511.239 -4.56198e-17)
(1397.64 -425.476 4.91446e-17)
(1429.3 375.16 0)
(1776.3 422.259 -3.75801e-17)
(1839.53 524.602 4.37435e-17)
(1850.22 636.999 1.7961e-20)
(1879.11 667.125 1.74468e-20)
(1887.54 615.05 -3.57808e-17)
(1862.8 541.035 3.758e-17)
(1840.99 451.754 2.00848e-17)
(1826.2 363.943 6.72365e-19)
(1816.07 266.719 -2.05669e-17)
(1793.4 178.824 -2.17619e-20)
(1787.51 84.1746 2.43413e-20)
(1778.13 4.10846 0)
(1785.51 -83.7461 4.37384e-20)
(1794.16 -171.124 -2.16934e-20)
(1813.9 -265.177 1.02587e-17)
(1833.99 -355.609 -1.0438e-17)
(1850.76 -452.071 -2.01964e-20)
(1861.26 -536.658 -2.10977e-20)
(1886.73 -609.536 1.78923e-20)
(1875.63 -662.996 -3.71231e-17)
(1852.76 -641.178 -5.38752e-18)
(1845.77 -534.994 3.51166e-17)
(1779.88 -429.697 0)
(1438.1 -388.665 5.21139e-17)
(1451.17 349.49 -9.91209e-17)
(1790.1 366.298 4.26492e-17)
(1848.04 464.75 3.37435e-17)
(1869.04 599.018 -3.9892e-17)
(1894.17 632.328 0)
(1900.04 594.836 -2.16768e-21)
(1876.88 532.287 0)
(1863.66 446.891 -2.38603e-21)
(1856.82 357.852 -2.47559e-21)
(1848.87 260.142 0)
(1824.2 177.121 0)
(1825.85 83.0297 -2.56128e-21)
(1812.81 2.1262 0)
(1824.09 -87.1762 0)
(1825.02 -174.134 -9.86439e-18)
(1846.32 -262.073 9.96075e-18)
(1863.01 -354.412 -2.48383e-21)
(1872.14 -451.01 -1.87754e-17)
(1874.89 -530.018 1.81006e-17)
(1900.51 -588.141 0)
(1891.35 -627.402 3.66357e-17)
(1869.28 -590.07 -7.36237e-17)
(1854.13 -462.048 7.62272e-17)
(1795.58 -371.392 6.25096e-18)
(1452.03 -351.673 -4.79964e-17)
(1479.45 315.25 1.19031e-20)
(1804.02 313.878 -9.67439e-21)
(1837.59 406.421 0)
(1881.4 519.083 0)
(1904.62 592.072 0)
(1913.81 570.644 8.05616e-21)
(1890.85 507.258 0)
(1881.83 429.871 -8.61027e-21)
(1876.34 351.204 0)
(1871.9 260.695 -8.83482e-21)
(1855.9 176.762 0)
(1853.88 82.2569 -2.37542e-18)
(1845.66 1.55367 2.352e-18)
(1851.91 -88.0578 0)
(1857.19 -174.608 9.34088e-18)
(1869.8 -264.438 -1.88342e-17)
(1882.69 -347.823 9.3932e-18)
(1893.49 -434.736 0)
(1890.64 -509.411 1.7687e-17)
(1913.14 -568.616 -1.65308e-17)
(1901.6 -589.196 3.62922e-17)
(1882.97 -527.222 -3.24724e-17)
(1848.58 -401.615 0)
(1807.07 -304.162 0)
(1474.13 -319.316 0)
(1481.9 297.176 -1.18895e-20)
(1804.7 289.632 9.55333e-21)
(1836.51 335.123 0)
(1900.9 449.293 0)
(1916.42 541.942 0)
(1926.28 543.287 -8.14154e-21)
(1905.6 497.19 0)
(1901.99 424.634 8.83648e-21)
(1903.79 344.641 0)
(1900.89 253.46 -9.02026e-18)
(1880.81 174.846 9.04663e-18)
(1886.33 83.2302 -8.43238e-21)
(1874.11 3.75505 9.2955e-21)
(1884.22 -85.1633 8.43184e-21)
(1881.48 -169.494 0)
(1897.38 -252.949 0)
(1907.54 -338.056 9.06818e-21)
(1911.42 -425.177 -1.77085e-17)
(1905.04 -493.07 1.69442e-17)
(1925.5 -537.491 0)
(1910.26 -539.706 8.0021e-21)
(1896.67 -458.285 0)
(1830.8 -334.806 0)
(1814.8 -276.354 0)
(1496.79 -287.735 0)
(1502.13 274.859 -4.50352e-17)
(1814.26 263.573 3.92992e-17)
(1846.63 284.03 0)
(1907.34 349.756 -1.7156e-20)
(1924.33 484.601 0)
(1936.42 511.351 -1.54119e-17)
(1919.8 468.48 3.34171e-17)
(1919.52 402.496 -1.715e-17)
(1919.67 331.806 -8.6305e-18)
(1917.64 249.634 8.64178e-18)
(1907.41 171.901 4.41755e-21)
(1908.34 80.4179 1.12465e-18)
(1901.05 2.27272 -1.07879e-18)
(1906.4 -85.6026 8.59916e-18)
(1908.8 -168.605 -8.64553e-18)
(1915.22 -251.775 0)
(1924.4 -326.514 -1.63249e-20)
(1932.32 -405.599 0)
(1921.19 -470.226 0)
(1934.32 -508.876 -1.72024e-17)
(1918.77 -483.509 1.51481e-17)
(1904.19 -353.254 0)
(1840.96 -278.719 3.77477e-17)
(1817.68 -252.407 1.7034e-18)
(1513.92 -267.912 -9.14236e-17)
(1522.81 257.64 4.53709e-17)
(1823.3 245.277 1.84024e-20)
(1856.2 226.177 3.21457e-17)
(1907.87 290.132 -2.3751e-17)
(1931.09 429.77 -1.84954e-17)
(1943.57 465.42 0)
(1932.44 448.259 8.3866e-21)
(1938.47 392.757 1.62819e-17)
(1944.14 321.535 -1.66289e-17)
(1943.55 236.349 0)
(1927.18 162.558 0)
(1935.79 76.5722 -2.58883e-20)
(1924.11 1.1704 3.24273e-20)
(1933.62 -84.1845 1.68732e-20)
(1927.69 -162.694 4.18182e-18)
(1939.76 -240.706 -4.13759e-18)
(1946.28 -318.925 8.89258e-21)
(1948.18 -395.714 1.68055e-17)
(1934.79 -446.909 -3.29567e-17)
(1944.52 -460.475 1.49294e-17)
(1927.84 -422.488 -1.5596e-20)
(1900.76 -285.776 0)
(1850.05 -223.958 1.78253e-20)
(1826.28 -242.045 3.81504e-17)
(1530.75 -254.876 -8.86855e-17)
(1537.11 237.034 -4.44287e-17)
(1835.83 226.742 -3.63914e-17)
(1861.52 197.033 3.56267e-17)
(1887.09 196.277 1.48659e-17)
(1934.54 346.903 -1.93283e-17)
(1948.08 420.418 0)
(1944.77 415.244 4.05718e-21)
(1954.57 367.807 -1.18923e-20)
(1958.08 307.739 8.01846e-18)
(1956.69 233.649 -1.61291e-17)
(1949.99 162.255 8.06096e-18)
(1952.94 76.2006 2.00227e-18)
(1946.16 3.42622 -1.87264e-18)
(1950.49 -79.3763 1.86688e-18)
(1951.13 -156.916 -2.00945e-18)
(1953.23 -234.169 0)
(1960.66 -300.423 1.1979e-20)
(1967.22 -368.946 -3.83742e-21)
(1947.08 -416.36 -1.71025e-17)
(1943.89 -419.033 1.46548e-17)
(1931.79 -348.711 0)
(1881.09 -197.788 0)
(1858.03 -194.291 -4.30726e-21)
(1839.9 -223.894 -3.74922e-17)
(1555.45 -235.012 -1.38501e-18)
(1548.72 220.276 -2.08505e-17)
(1842.75 216.537 1.85713e-17)
(1871.33 178.304 4.28749e-21)
(1894.83 141.789 0)
(1939.37 261.666 1.43561e-17)
(1951.75 353.361 -1.7521e-17)
(1953.53 381.144 3.81951e-21)
(1969.92 353.582 3.87551e-21)
(1978.93 297.247 1.47333e-20)
(1980.51 220.049 -1.92237e-18)
(1966.46 151.285 9.87285e-19)
(1976.36 71.4858 1.89477e-18)
(1964.73 2.03413 -9.72103e-19)
(1973.64 -78.0707 3.87655e-18)
(1966.76 -150.093 -3.88984e-18)
(1976 -222.913 0)
(1978.7 -293.389 1.0887e-20)
(1978.79 -354.655 -1.63195e-17)
(1957.32 -377.911 1.50304e-17)
(1950.05 -349.952 3.77534e-21)
(1932.5 -255.773 0)
(1887.5 -137.21 0)
(1867.49 -180.632 4.33769e-21)
(1848.54 -219.483 -3.68404e-17)
(1562.48 -219.957 4.15842e-17)
(1573.03 195.651 2.09421e-20)
(1856.69 194.743 0)
(1887.34 159.614 -8.04892e-21)
(1897.45 71.5083 -1.50115e-17)
(1923.74 182.93 1.84516e-17)
(1950.9 305.483 -1.42262e-17)
(1956.44 335.168 1.68999e-17)
(1982.03 318.519 -7.42131e-18)
(1989.79 275.626 7.79833e-18)
(1989.49 211.602 -3.76402e-18)
(1985.58 147.913 3.78999e-18)
(1989.63 68.3188 -1.84551e-18)
(1982.95 1.68515 2.10775e-18)
(1986.9 -75.6154 -2.49749e-19)
(1986.68 -146.49 3.78409e-18)
(1986.17 -216.04 -7.56892e-18)
(1990.72 -271.802 -4.08042e-18)
(1993.01 -322.581 7.41324e-18)
(1960.09 -334.284 1.51774e-20)
(1949.96 -298.083 -7.69944e-21)
(1918.48 -176.874 0)
(1893.47 -71.9569 0)
(1887.52 -164.117 0)
(1857.88 -200.273 -1.81443e-17)
(1579.73 -198.207 2.01994e-17)
(1579.28 178.377 -2.5249e-21)
(1862.72 176.347 0)
(1904.4 152.242 1.02543e-20)
(1905.21 53.2806 -8.08521e-21)
(1898.44 103.577 -7.61602e-21)
(1947.56 198.193 0)
(1959.78 284.099 -7.49287e-21)
(1990.29 295.451 7.19314e-18)
(2005.9 264.285 -7.67968e-18)
(2010.79 200.581 0)
(1999.16 139.055 1.75428e-21)
(2009.82 65.891 0)
(1998.14 3.40184 0)
(2006.78 -70.6547 1.82375e-18)
(1999.12 -135.634 -1.83811e-18)
(2006.2 -200.977 -7.32194e-21)
(2003.3 -258.382 -1.78109e-21)
(1996.73 -294.754 7.38059e-21)
(1964.57 -279.198 -8.6495e-18)
(1948.93 -208.305 7.12208e-18)
(1889.54 -103.336 -1.74508e-17)
(1898.6 -53.461 3.25267e-17)
(1905.19 -156.21 -1.64688e-17)