/*--------------------------------*- C++ -*----------------------------------*\
| =========                 |                                                 |
| \\      /  F ield         | OpenFOAM: The Open Source CFD Toolbox           |
|  \\    /   O peration     | Version:  2112                                  |
|   \\  /    A nd           | Website:  www.openfoam.com                      |
|    \\/     M anipulation  |                                                 |
\*---------------------------------------------------------------------------*/
FoamFile
{
    version     2.0;
    format      ascii;
    arch        "LSB;label=32;scalar=64";
    class       volScalarField;
    location    "0.00075";
    object      epsilon;
}
// * * * * * * * * * * * * * * * * * * * * * * * * * * * * * * * * * * * * * //

dimensions      [0 2 -3 0 0 0 0];

internalField   nonuniform List<scalar> 
13875
(
1.16078e+06
2.94641e+07
3.28093e+07
3.29073e+07
3.29607e+07
3.2838e+07
3.28729e+07
3.29407e+07
3.28923e+07
3.2897e+07
3.29006e+07
3.28667e+07
3.2901e+07
3.29383e+07
3.29134e+07
3.29048e+07
3.28346e+07
3.28381e+07
3.29115e+07
3.29169e+07
3.29567e+07
3.27148e+07
3.28214e+07
2.94039e+07
1.17463e+06
1.3149e+06
2.2751e+07
2.53512e+07
2.52735e+07
2.53136e+07
2.51958e+07
2.52039e+07
2.52492e+07
2.52037e+07
2.5221e+07
2.51951e+07
2.52076e+07
2.52152e+07
2.52509e+07
2.52585e+07
2.5251e+07
2.52018e+07
2.5193e+07
2.52459e+07
2.52691e+07
2.5315e+07
2.51741e+07
2.5397e+07
2.27196e+07
1.33399e+06
1.57558e+06
1.97111e+07
2.18336e+07
2.16373e+07
2.16989e+07
2.16068e+07
2.16046e+07
2.1632e+07
2.15763e+07
2.16042e+07
2.15406e+07
2.16036e+07
2.15636e+07
2.15788e+07
2.15784e+07
2.15732e+07
2.1613e+07
2.1606e+07
2.16434e+07
2.16696e+07
2.17027e+07
2.16031e+07
2.18873e+07
1.96862e+07
1.57092e+06
1.81799e+06
1.73889e+07
1.9045e+07
1.88725e+07
1.89596e+07
1.88893e+07
1.8884e+07
1.89016e+07
1.8854e+07
1.88795e+07
1.88275e+07
1.88854e+07
1.88453e+07
1.88458e+07
1.88295e+07
1.88341e+07
1.88891e+07
1.88821e+07
1.89067e+07
1.89324e+07
1.89598e+07
1.88725e+07
1.90891e+07
1.73608e+07
1.81e+06
2.03023e+06
1.54569e+07
1.67806e+07
1.66029e+07
1.66921e+07
1.66378e+07
1.66292e+07
1.66388e+07
1.66e+07
1.66225e+07
1.65801e+07
1.66323e+07
1.65944e+07
1.65908e+07
1.65712e+07
1.65764e+07
1.66313e+07
1.66273e+07
1.66417e+07
1.66621e+07
1.66919e+07
1.66398e+07
1.68132e+07
1.54407e+07
2.03094e+06
2.21806e+06
1.37315e+07
1.49389e+07
1.4722e+07
1.48164e+07
1.47691e+07
1.47527e+07
1.47507e+07
1.47171e+07
1.47372e+07
1.47012e+07
1.47502e+07
1.47161e+07
1.47082e+07
1.46833e+07
1.46901e+07
1.47427e+07
1.47472e+07
1.47588e+07
1.47834e+07
1.48207e+07
1.47837e+07
1.49848e+07
1.3915e+07
2.23856e+06
2.44003e+06
1.22871e+07
1.34923e+07
1.31982e+07
1.3258e+07
1.32056e+07
1.31782e+07
1.31641e+07
1.31325e+07
1.31512e+07
1.31216e+07
1.31676e+07
1.31402e+07
1.31258e+07
1.30952e+07
1.31034e+07
1.315e+07
1.31658e+07
1.31808e+07
1.32155e+07
1.32815e+07
1.32912e+07
1.35413e+07
1.21097e+07
2.48211e+06
2.70092e+06
1.06847e+07
1.23465e+07
1.19856e+07
1.19992e+07
1.19227e+07
1.18701e+07
1.18367e+07
1.18032e+07
1.18182e+07
1.1793e+07
1.18386e+07
1.18191e+07
1.1798e+07
1.17604e+07
1.17646e+07
1.18091e+07
1.18423e+07
1.18724e+07
1.19359e+07
1.20365e+07
1.21062e+07
1.24775e+07
1.08418e+07
2.89279e+06
3.55598e+06
1.02947e+07
1.15381e+07
1.10674e+07
1.09703e+07
1.08647e+07
1.07895e+07
1.07374e+07
1.07018e+07
1.07116e+07
1.06895e+07
1.0736e+07
1.07249e+07
1.06973e+07
1.06511e+07
1.06489e+07
1.0688e+07
1.07397e+07
1.07932e+07
1.08835e+07
1.10441e+07
1.12903e+07
1.18895e+07
1.09441e+07
3.67598e+06
7.06837e+06
1.25674e+07
1.13697e+07
1.05355e+07
1.02776e+07
1.00921e+07
9.98664e+06
9.92117e+06
9.88455e+06
9.88573e+06
9.86826e+06
9.91164e+06
9.9069e+06
9.87486e+06
9.82409e+06
9.8105e+06
9.83912e+06
9.90693e+06
9.99198e+06
1.01264e+07
1.03709e+07
1.08275e+07
1.20674e+07
1.48863e+07
7.85822e+06
1.54259e+07
1.90338e+07
1.20451e+07
1.06699e+07
9.93447e+06
9.6201e+06
9.47462e+06
9.39051e+06
9.35244e+06
9.34676e+06
9.33331e+06
9.3691e+06
9.36589e+06
9.33404e+06
9.28446e+06
9.26321e+06
9.28489e+06
9.36091e+06
9.48532e+06
9.66268e+06
1.00847e+07
1.11791e+07
1.43445e+07
3.39391e+07
1.82906e+07
2.52964e+07
5.85273e+07
2.40875e+07
1.20598e+07
1.03926e+07
9.64314e+06
9.33228e+06
9.20749e+06
9.1486e+06
9.13181e+06
9.11725e+06
9.13592e+06
9.12806e+06
9.10079e+06
9.05697e+06
9.03657e+06
9.06048e+06
9.14876e+06
9.32366e+06
9.70036e+06
1.05849e+07
1.43107e+07
5.48143e+07
7.84552e+07
2.40088e+07
2.65248e+07
5.61872e+07
1.07379e+08
5.92462e+07
1.34368e+07
1.04892e+07
9.99128e+06
9.76148e+06
9.70413e+06
9.67341e+06
9.66074e+06
9.66329e+06
9.6369e+06
9.62362e+06
9.5954e+06
9.57982e+06
9.60816e+06
9.70675e+06
9.93586e+06
1.06907e+07
1.45978e+07
6.98535e+07
1.08942e+08
6.27426e+07
2.46539e+07
2.59452e+07
4.31916e+07
8.06329e+07
1.33054e+08
7.26168e+07
2.03118e+07
1.73516e+07
1.51007e+07
1.42261e+07
1.3856e+07
1.3543e+07
1.34101e+07
1.36099e+07
1.34588e+07
1.33595e+07
1.34324e+07
1.37033e+07
1.42292e+07
1.59315e+07
2.03205e+07
6.91165e+07
1.00878e+08
7.8565e+07
4.77839e+07
2.40336e+07
2.49457e+07
3.53975e+07
5.89226e+07
8.93338e+07
8.0717e+07
5.7365e+07
5.87727e+07
6.3674e+07
5.92481e+07
6.22686e+07
6.24428e+07
6.36628e+07
6.95998e+07
6.76253e+07
6.30184e+07
6.01791e+07
5.68502e+07
5.76709e+07
5.92471e+07
5.50961e+07
7.36736e+07
7.49858e+07
6.03876e+07
3.87814e+07
2.51428e+07
2.52747e+07
3.15732e+07
5.15455e+07
7.1555e+07
7.40444e+07
9.3725e+07
8.73018e+07
6.10486e+07
5.57812e+07
5.82849e+07
6.02246e+07
6.40592e+07
6.79913e+07
6.6923e+07
6.25466e+07
5.91382e+07
5.55719e+07
5.79178e+07
7.85447e+07
1.15847e+08
8.0201e+07
6.25999e+07
5.15385e+07
3.27447e+07
2.59428e+07
2.37833e+07
3.01309e+07
4.7012e+07
6.16741e+07
6.75298e+07
8.77873e+07
6.41572e+07
4.15088e+07
3.84878e+07
3.92561e+07
4.15e+07
4.44816e+07
4.88051e+07
4.7492e+07
4.31044e+07
4.02668e+07
3.83387e+07
3.99353e+07
6.13432e+07
1.07085e+08
8.37285e+07
5.67025e+07
4.46418e+07
2.86508e+07
2.32478e+07
1.96695e+07
3.09168e+07
4.17184e+07
4.73983e+07
5.23391e+07
6.51523e+07
4.93578e+07
3.43062e+07
2.98819e+07
2.9953e+07
3.19386e+07
3.49484e+07
3.93307e+07
3.74344e+07
3.32727e+07
3.09321e+07
3.03927e+07
3.5131e+07
5.30444e+07
7.43225e+07
6.30159e+07
4.51892e+07
3.89054e+07
2.76926e+07
1.95615e+07
1.60423e+07
2.97342e+07
3.4935e+07
3.61624e+07
3.85148e+07
4.56709e+07
4.16401e+07
3.27586e+07
2.67362e+07
2.49069e+07
2.58454e+07
2.87528e+07
3.32238e+07
3.14227e+07
2.72201e+07
2.54955e+07
2.71075e+07
3.45081e+07
4.63784e+07
5.16769e+07
4.35138e+07
3.40273e+07
3.03927e+07
2.43404e+07
1.65171e+07
1.49076e+07
2.72263e+07
2.83975e+07
2.88305e+07
3.01526e+07
3.44599e+07
3.45325e+07
3.03254e+07
2.50256e+07
2.20885e+07
2.2113e+07
2.48798e+07
2.93202e+07
2.71527e+07
2.33155e+07
2.28024e+07
2.6293e+07
3.31485e+07
3.84469e+07
3.79472e+07
3.20775e+07
2.63642e+07
2.36811e+07
2.0495e+07
1.63396e+07
1.64758e+07
2.1907e+07
2.3414e+07
2.36266e+07
2.46822e+07
2.74607e+07
2.84789e+07
2.65518e+07
2.25169e+07
1.96326e+07
1.93942e+07
2.21535e+07
2.64214e+07
2.39879e+07
2.05217e+07
2.06415e+07
2.4331e+07
2.9473e+07
3.14845e+07
2.94123e+07
2.53057e+07
2.16056e+07
1.99657e+07
1.7544e+07
1.69457e+07
2.06985e+07
2.31627e+07
2.01151e+07
2.00994e+07
2.08878e+07
2.25808e+07
2.36105e+07
2.26919e+07
1.97732e+07
1.74464e+07
1.73388e+07
2.01545e+07
2.42003e+07
2.17246e+07
1.84295e+07
1.85615e+07
2.16007e+07
2.52064e+07
2.59626e+07
2.37585e+07
2.08389e+07
1.82628e+07
1.72985e+07
1.93032e+07
1.92017e+07
2.46977e+07
2.867e+07
1.81491e+07
1.75346e+07
1.80061e+07
1.89068e+07
1.97052e+07
1.91723e+07
1.71454e+07
1.55379e+07
1.57829e+07
1.87192e+07
2.25312e+07
2.01686e+07
1.68653e+07
1.66377e+07
1.8787e+07
2.12239e+07
2.15373e+07
1.96583e+07
1.75318e+07
1.58006e+07
1.569e+07
2.36895e+07
2.14422e+07
2.53285e+07
3.20018e+07
1.65562e+07
1.55993e+07
1.55702e+07
1.59253e+07
1.64331e+07
1.61457e+07
1.48209e+07
1.38983e+07
1.46599e+07
1.78449e+07
2.13022e+07
1.90241e+07
1.57104e+07
1.50359e+07
1.63694e+07
1.79156e+07
1.79203e+07
1.65044e+07
1.50634e+07
1.41183e+07
1.43317e+07
2.70054e+07
2.18435e+07
2.53995e+07
3.75638e+07
1.53202e+07
1.40572e+07
1.36067e+07
1.35384e+07
1.38169e+07
1.37364e+07
1.29721e+07
1.26273e+07
1.39015e+07
1.72439e+07
2.03811e+07
1.82186e+07
1.48813e+07
1.37354e+07
1.43852e+07
1.52774e+07
1.50436e+07
1.40604e+07
1.31712e+07
1.27434e+07
1.33634e+07
3.23622e+07
2.19813e+07
2.55344e+07
4.42578e+07
1.46547e+07
1.27079e+07
1.19664e+07
1.1654e+07
1.17694e+07
1.18429e+07
1.15158e+07
1.16645e+07
1.33816e+07
1.67956e+07
1.96772e+07
1.76481e+07
1.43225e+07
1.27318e+07
1.2759e+07
1.31557e+07
1.27901e+07
1.21416e+07
1.16635e+07
1.15771e+07
1.28601e+07
3.83852e+07
2.26748e+07
2.72468e+07
5.03049e+07
1.43887e+07
1.14996e+07
1.06114e+07
1.01596e+07
1.02108e+07
1.03889e+07
1.0401e+07
1.10186e+07
1.3126e+07
1.65189e+07
1.90839e+07
1.72044e+07
1.3881e+07
1.19485e+07
1.14767e+07
1.15315e+07
1.1109e+07
1.06525e+07
1.04685e+07
1.05923e+07
1.27489e+07
4.56214e+07
2.47871e+07
3.02119e+07
5.28922e+07
1.40669e+07
1.0554e+07
9.5598e+06
9.07221e+06
9.08518e+06
9.31986e+06
9.60162e+06
1.05817e+07
1.29421e+07
1.62728e+07
1.8617e+07
1.68663e+07
1.36467e+07
1.14347e+07
1.05294e+07
1.02736e+07
9.84969e+06
9.52511e+06
9.49736e+06
9.80134e+06
1.24929e+07
4.89983e+07
2.83717e+07
3.43505e+07
5.3136e+07
1.35995e+07
9.8866e+06
8.75288e+06
8.30592e+06
8.30624e+06
8.59474e+06
9.08754e+06
1.03451e+07
1.28639e+07
1.60827e+07
1.82286e+07
1.6626e+07
1.3562e+07
1.11563e+07
9.91242e+06
9.39222e+06
8.96208e+06
8.70176e+06
8.72917e+06
9.25637e+06
1.20092e+07
4.82706e+07
3.28471e+07
3.78942e+07
5.07541e+07
1.29843e+07
9.42505e+06
8.21733e+06
7.80676e+06
7.82775e+06
8.18341e+06
8.87281e+06
1.03696e+07
1.29725e+07
1.60119e+07
1.79105e+07
1.64371e+07
1.34967e+07
1.10049e+07
9.54396e+06
8.82831e+06
8.36541e+06
8.11799e+06
8.18768e+06
8.87957e+06
1.16238e+07
4.85185e+07
3.79406e+07
4.14661e+07
4.95582e+07
1.25954e+07
9.2895e+06
8.03661e+06
7.57673e+06
7.59905e+06
8.00625e+06
8.85528e+06
1.04941e+07
1.30912e+07
1.59545e+07
1.76895e+07
1.63411e+07
1.36132e+07
1.10932e+07
9.46541e+06
8.55052e+06
8.04035e+06
7.81957e+06
7.95889e+06
8.77993e+06
1.14789e+07
4.86422e+07
4.2409e+07
4.54741e+07
5.03843e+07
1.26923e+07
9.54649e+06
8.22105e+06
7.66353e+06
7.63323e+06
8.06452e+06
9.01492e+06
1.07503e+07
1.33053e+07
1.59842e+07
1.75601e+07
1.63347e+07
1.38139e+07
1.13276e+07
9.57926e+06
8.53722e+06
8.00022e+06
7.86191e+06
8.10345e+06
9.10861e+06
1.18198e+07
4.98722e+07
4.68507e+07
4.97934e+07
5.03056e+07
1.35665e+07
1.02579e+07
8.87245e+06
8.1499e+06
7.99644e+06
8.39575e+06
9.40907e+06
1.11875e+07
1.36523e+07
1.61247e+07
1.75331e+07
1.63953e+07
1.4051e+07
1.1643e+07
9.86093e+06
8.76467e+06
8.25912e+06
8.26941e+06
8.71231e+06
9.93865e+06
1.31006e+07
5.20108e+07
5.15467e+07
5.51962e+07
5.14886e+07
1.52858e+07
1.19825e+07
1.03732e+07
9.1406e+06
8.78755e+06
9.04414e+06
9.96991e+06
1.17083e+07
1.40464e+07
1.63249e+07
1.76064e+07
1.65731e+07
1.4429e+07
1.21543e+07
1.04032e+07
9.38722e+06
8.97994e+06
9.16876e+06
1.01258e+07
1.17369e+07
1.51508e+07
5.37288e+07
5.67086e+07
6.07671e+07
5.46544e+07
1.79395e+07
1.46603e+07
1.34277e+07
1.09477e+07
1.00487e+07
1.00525e+07
1.08554e+07
1.24034e+07
1.45371e+07
1.66178e+07
1.77755e+07
1.68446e+07
1.49019e+07
1.28208e+07
1.12449e+07
1.03833e+07
1.01985e+07
1.09119e+07
1.30972e+07
1.45373e+07
1.80396e+07
5.68163e+07
6.21409e+07
6.61678e+07
5.89767e+07
2.17052e+07
1.78479e+07
1.77787e+07
1.46107e+07
1.20751e+07
1.15831e+07
1.21242e+07
1.34062e+07
1.52331e+07
1.7061e+07
1.80829e+07
1.72378e+07
1.55032e+07
1.37065e+07
1.24131e+07
1.18488e+07
1.21582e+07
1.45422e+07
1.7548e+07
1.77858e+07
2.21022e+07
6.2826e+07
6.73244e+07
7.08546e+07
6.55124e+07
2.70152e+07
2.17652e+07
2.26773e+07
2.10002e+07
1.60044e+07
1.37026e+07
1.38049e+07
1.47417e+07
1.61314e+07
1.768e+07
1.85679e+07
1.78505e+07
1.64122e+07
1.50357e+07
1.40628e+07
1.39314e+07
1.5938e+07
2.09975e+07
2.26725e+07
2.17055e+07
2.78238e+07
6.96651e+07
7.28138e+07
7.50999e+07
7.25764e+07
3.49118e+07
2.70242e+07
2.69931e+07
2.78498e+07
2.35072e+07
1.73529e+07
1.59754e+07
1.64148e+07
1.73862e+07
1.85491e+07
1.92179e+07
1.86978e+07
1.76657e+07
1.67299e+07
1.62199e+07
1.75999e+07
2.36215e+07
2.80802e+07
2.7016e+07
2.71271e+07
3.58122e+07
7.66011e+07
7.70687e+07
7.93558e+07
8.0193e+07
4.42542e+07
3.38142e+07
3.22415e+07
3.30835e+07
3.26237e+07
2.51987e+07
1.91943e+07
1.85369e+07
1.90742e+07
1.98225e+07
2.02578e+07
1.99292e+07
1.92811e+07
1.88093e+07
1.95268e+07
2.58717e+07
3.29636e+07
3.34098e+07
3.25153e+07
3.45969e+07
4.62715e+07
8.37752e+07
8.14633e+07
8.27269e+07
8.91346e+07
5.5798e+07
4.27935e+07
3.88005e+07
3.85101e+07
3.92746e+07
3.59322e+07
2.6303e+07
2.14654e+07
2.10018e+07
2.14468e+07
2.17207e+07
2.15482e+07
2.12196e+07
2.16463e+07
2.66046e+07
3.67084e+07
3.97872e+07
3.90106e+07
3.92954e+07
4.38118e+07
5.76591e+07
9.25801e+07
8.41484e+07
8.24846e+07
9.86089e+07
6.90316e+07
5.33387e+07
4.66752e+07
4.47256e+07
4.48301e+07
4.45683e+07
3.78097e+07
2.71813e+07
2.35478e+07
2.3325e+07
2.34498e+07
2.345e+07
2.37675e+07
2.72968e+07
3.87111e+07
4.56879e+07
4.53536e+07
4.53025e+07
4.73853e+07
5.43824e+07
7.07323e+07
1.02042e+08
8.40282e+07
8.27587e+07
1.05693e+08
8.09418e+07
6.39741e+07
5.50035e+07
5.13268e+07
5.02689e+07
5.02884e+07
4.8704e+07
3.81748e+07
2.76942e+07
2.57032e+07
2.55343e+07
2.58403e+07
2.81461e+07
3.88443e+07
4.97627e+07
5.11028e+07
5.0801e+07
5.20618e+07
5.60066e+07
6.52221e+07
8.31153e+07
1.08295e+08
8.39375e+07
8.23437e+07
1.10883e+08
9.00831e+07
7.33075e+07
6.31892e+07
5.79276e+07
5.56446e+07
5.49436e+07
5.47273e+07
5.08811e+07
3.64813e+07
2.9253e+07
2.82761e+07
2.9352e+07
3.68486e+07
5.1582e+07
5.56491e+07
5.55264e+07
5.6171e+07
5.86495e+07
6.39947e+07
7.431e+07
9.18664e+07
1.13928e+08
8.33979e+07
8.18473e+07
1.15346e+08
9.72127e+07
8.09366e+07
7.01044e+07
6.39532e+07
6.08296e+07
5.95645e+07
5.92638e+07
5.90463e+07
4.99952e+07
3.61863e+07
3.25497e+07
3.62569e+07
5.052e+07
5.95578e+07
5.99153e+07
6.00125e+07
6.13253e+07
6.45798e+07
7.07437e+07
8.17279e+07
9.87629e+07
1.18396e+08
8.29098e+07
8.16805e+07
1.19296e+08
1.02852e+08
8.70529e+07
7.57859e+07
6.92488e+07
6.577e+07
6.42443e+07
6.37139e+07
6.48605e+07
6.45973e+07
4.8409e+07
4.04162e+07
4.8878e+07
6.49084e+07
6.51087e+07
6.41825e+07
6.45609e+07
6.62758e+07
6.99129e+07
7.65999e+07
8.81507e+07
1.04595e+08
1.21326e+08
8.20982e+07
8.04817e+07
1.18926e+08
1.06343e+08
9.15438e+07
8.04773e+07
7.3966e+07
7.06771e+07
6.9291e+07
6.90649e+07
7.09242e+07
7.43276e+07
7.04441e+07
5.72935e+07
7.07399e+07
7.4727e+07
7.12515e+07
6.94946e+07
6.96148e+07
7.11179e+07
7.44963e+07
8.11771e+07
9.26411e+07
1.08211e+08
1.20706e+08
8.08812e+07
7.94322e+07
1.14283e+08
1.07177e+08
9.47618e+07
8.42066e+07
7.83188e+07
7.58263e+07
7.51137e+07
7.57163e+07
7.8344e+07
8.41045e+07
9.67734e+07
9.78097e+07
9.79418e+07
8.46792e+07
7.87471e+07
7.61356e+07
7.54917e+07
7.62022e+07
7.88113e+07
8.487e+07
9.59187e+07
1.08907e+08
1.15433e+08
8.02616e+07
7.89184e+07
1.05258e+08
1.04544e+08
9.60189e+07
8.6687e+07
8.15837e+07
7.99356e+07
8.01857e+07
8.25076e+07
8.6393e+07
9.50756e+07
1.17648e+08
1.38749e+08
1.18514e+08
9.54762e+07
8.67566e+07
8.28593e+07
8.07082e+07
8.06814e+07
8.2252e+07
8.76263e+07
9.72053e+07
1.0588e+08
1.05436e+08
7.92271e+07
7.84579e+07
9.34886e+07
9.87176e+07
9.48599e+07
8.79399e+07
8.44217e+07
8.3557e+07
8.46458e+07
8.75009e+07
9.22492e+07
1.02214e+08
1.26335e+08
1.55402e+08
1.27288e+08
1.02623e+08
9.2604e+07
8.78321e+07
8.49774e+07
8.39268e+07
8.499e+07
8.89239e+07
9.5709e+07
9.95209e+07
9.34148e+07
7.88829e+07
7.55238e+07
8.0261e+07
9.12703e+07
9.19263e+07
8.86232e+07
8.6264e+07
8.58061e+07
8.70996e+07
9.00203e+07
9.50026e+07
1.04996e+08
1.28266e+08
1.5472e+08
1.29222e+08
1.05437e+08
9.53733e+07
9.03425e+07
8.73771e+07
8.60128e+07
8.66094e+07
8.92005e+07
9.2673e+07
9.16798e+07
8.01318e+07
7.61224e+07
404520
223211
210636
209748
209669
209296
208940
208629
208355
208104
207866
207636
207411
207191
206973
206760
206550
206343
206140
205940
205743
205550
205359
205172
204987
204805
204627
204628
209455
354659
350609
202052
192497
191743
191540
191112
190807
190606
190470
190368
190282
190204
190130
190059
189990
189923
189858
189795
189734
189675
189617
189562
189507
189455
189403
189353
189307
189522
195735
314188
332087
197205
189435
188775
188526
188066
187791
187643
187570
187534
187513
187498
187484
187472
187461
187449
187439
187428
187419
187409
187400
187392
187383
187375
187366
187358
187357
187631
194193
311472
326741
197030
189131
188447
188181
187688
187413
187273
187212
187188
187180
187176
187175
187173
187172
187170
187169
187168
187167
187166
187165
187164
187163
187162
187160
187159
187165
187451
194156
312490
327468
197603
189157
188436
188169
187648
187374
187236
187177
187154
187148
187146
187146
187145
187145
187145
187145
187145
187145
187145
187145
187145
187144
187144
187143
187143
187151
187444
194280
313729
328023
197879
189188
188426
188164
187635
187367
187230
187172
187151
187145
187144
187143
187143
187143
187143
187143
187143
187143
187143
187143
187143
187143
187143
187142
187142
187151
187452
194425
314954
328061
197970
189188
188400
188148
187618
187359
187226
187168
187150
187145
187143
187143
187143
187143
187143
187143
187143
187143
187143
187143
187143
187143
187143
187143
187142
187152
187461
194568
316122
327546
197981
189178
188349
188118
187590
187347
187216
187165
187149
187144
187143
187143
187143
187143
187143
187143
187143
187143
187143
187143
187143
187143
187143
187143
187143
187152
187470
194701
317207
327252
197985
189169
188258
188068
187546
187326
187209
187163
187148
187144
187143
187143
187143
187143
187143
187143
187143
187143
187143
187143
187143
187143
187143
187143
187143
187153
187477
194823
318197
327165
197966
189143
188146
187995
187509
187311
187204
187161
187148
187144
187143
187143
187143
187143
187143
187143
187143
187143
187143
187143
187143
187143
187143
187143
187143
187153
187485
194934
319097
327135
197767
189036
188048
187924
187480
187299
187199
187160
187147
187144
187143
187143
187143
187143
187143
187143
187143
187143
187143
187143
187143
187143
187143
187143
187143
187154
187493
195037
319918
327199
197556
188903
187973
187859
187454
187287
187194
187158
187147
187144
187143
187143
187143
187143
187143
187143
187143
187143
187143
187143
187143
187143
187143
187143
187143
187154
187500
195133
320670
327266
197381
188778
187907
187797
187428
187275
187190
187157
187146
187144
187143
187143
187143
187143
187143
187143
187143
187143
187143
187143
187143
187143
187143
187143
187143
187155
187506
195221
321357
327193
197222
188659
187842
187736
187403
187264
187185
187155
187146
187144
187143
187143
187143
187143
187143
187143
187143
187143
187143
187143
187143
187143
187143
187143
187143
187155
187512
195303
321987
326987
197091
188547
187778
187679
187378
187253
187181
187154
187146
187144
187143
187143
187143
187143
187143
187143
187143
187143
187143
187143
187143
187143
187143
187143
187143
187155
187517
195376
322555
326965
196955
188439
187714
187623
187354
187242
187177
187153
187145
187144
187143
187143
187143
187143
187143
187143
187143
187143
187143
187143
187143
187143
187143
187143
187143
187155
187522
195443
323066
326874
196812
188332
187650
187570
187331
187231
187174
187152
187145
187144
187143
187143
187143
187143
187143
187143
187143
187143
187143
187143
187143
187143
187143
187143
187143
187155
187526
195502
323524
326732
196677
188226
187584
187516
187307
187221
187170
187151
187145
187143
187143
187143
187143
187143
187143
187143
187143
187143
187143
187143
187143
187143
187143
187143
187144
187156
187530
195553
323926
326664
196531
188119
187512
187460
187282
187209
187166
187149
187144
187143
187143
187143
187143
187143
187143
187143
187143
187143
187143
187143
187143
187143
187143
187143
187144
187156
187533
195599
324279
326596
196408
188023
187439
187402
187255
187197
187162
187148
187144
187143
187143
187143
187143
187143
187143
187143
187143
187143
187143
187143
187143
187143
187143
187143
187144
187156
187536
195637
324584
326868
196402
187958
187371
187347
187228
187184
187157
187147
187144
187143
187143
187143
187143
187143
187143
187143
187143
187143
187143
187143
187143
187143
187143
187143
187144
187156
187538
195669
324840
329463
197517
188075
187325
187300
187201
187172
187152
187146
187144
187143
187143
187143
187143
187143
187143
187143
187143
187143
187143
187143
187143
187143
187143
187143
187144
187156
187540
195695
325054
337787
228751
191180
187481
187272
187178
187160
187148
187144
187143
187143
187143
187143
187143
187143
187143
187143
187143
187143
187143
187143
187143
187143
187143
187143
187144
187156
187541
195715
325226
421937
1.41206e+06
360402
191922
187413
187165
187150
187144
187143
187143
187143
187143
187143
187143
187143
187143
187143
187143
187143
187143
187143
187143
187143
187143
187143
187144
187156
187542
195729
325358
413269
7.58452e+06
3.24293e+06
408651
190584
187235
187145
187141
187142
187143
187143
187143
187143
187143
187143
187143
187143
187143
187143
187143
187143
187143
187143
187143
187143
187144
187156
187543
195738
325456
354661
209456
204628
204628
204806
204988
205173
205361
205552
205746
205943
206143
206346
206553
206764
206978
207195
207417
207642
207872
208110
208362
208636
208948
209304
209678
209756
210647
223230
404643
314189
195735
189522
189307
189353
189403
189455
189507
189562
189617
189675
189734
189795
189858
189923
189990
190059
190130
190204
190282
190368
190470
190606
190807
191112
191540
191743
192496
202050
350572
311475
194193
187631
187357
187358
187366
187375
187383
187392
187400
187409
187419
187429
187439
187449
187461
187472
187485
187498
187513
187534
187570
187644
187791
188066
188526
188775
189436
197204
332141
312490
194156
187451
187165
187159
187160
187162
187163
187164
187165
187166
187167
187168
187169
187170
187172
187173
187175
187176
187180
187188
187212
187273
187412
187687
188180
188447
189131
197025
326671
313728
194280
187444
187151
187143
187143
187144
187144
187145
187145
187145
187145
187145
187145
187145
187145
187145
187146
187146
187148
187154
187177
187236
187374
187648
188169
188436
189158
197610
327440
314956
194426
187452
187151
187142
187142
187143
187143
187143
187143
187143
187143
187143
187143
187143
187143
187143
187143
187144
187145
187151
187172
187230
187367
187635
188164
188425
189188
197875
328130
316122
194568
187461
187152
187142
187143
187143
187143
187143
187143
187143
187143
187143
187143
187143
187143
187143
187143
187143
187145
187150
187168
187226
187359
187618
188148
188400
189188
197969
327920
317206
194701
187470
187152
187143
187143
187143
187143
187143
187143
187143
187143
187143
187143
187143
187143
187143
187143
187143
187144
187149
187165
187216
187347
187590
188118
188349
189179
197985
327625
318198
194823
187477
187153
187143
187143
187143
187143
187143
187143
187143
187143
187143
187143
187143
187143
187143
187143
187143
187144
187148
187163
187209
187326
187546
188068
188258
189169
197980
327239
319096
194934
187485
187153
187143
187143
187143
187143
187143
187143
187143
187143
187143
187143
187143
187143
187143
187143
187143
187144
187148
187161
187204
187312
187509
187995
188146
189143
197971
327133
319919
195038
187493
187154
187143
187143
187143
187143
187143
187143
187143
187143
187143
187143
187143
187143
187143
187143
187143
187144
187147
187160
187199
187299
187480
187924
188048
189035
197761
327211
320670
195133
187500
187154
187143
187143
187143
187143
187143
187143
187143
187143
187143
187143
187143
187143
187143
187143
187143
187144
187147
187158
187194
187287
187454
187859
187973
188902
197556
327136
321357
195221
187506
187155
187143
187143
187143
187143
187143
187143
187143
187143
187143
187143
187143
187143
187143
187143
187143
187144
187146
187157
187190
187275
187428
187797
187907
188778
197384
327278
321987
195303
187512
187155
187143
187143
187143
187143
187143
187143
187143
187143
187143
187143
187143
187143
187143
187143
187143
187144
187146
187155
187185
187264
187403
187736
187842
188659
197221
327200
322555
195376
187517
187155
187143
187143
187143
187143
187143
187143
187143
187143
187143
187143
187143
187143
187143
187143
187143
187144
187146
187154
187181
187253
187378
187679
187778
188546
197089
326992
323065
195442
187522
187155
187143
187143
187143
187143
187143
187143
187143
187143
187143
187143
187143
187143
187143
187143
187143
187144
187145
187153
187177
187242
187354
187623
187714
188439
196958
326944
323523
195502
187526
187155
187143
187143
187143
187143
187143
187143
187143
187143
187143
187143
187143
187143
187143
187143
187143
187144
187145
187152
187174
187231
187331
187570
187650
188333
196812
326893
323927
195554
187530
187156
187144
187143
187143
187143
187143
187143
187143
187143
187143
187143
187143
187143
187143
187143
187143
187143
187145
187151
187170
187220
187307
187516
187584
188226
196673
326737
324278
195598
187533
187156
187144
187143
187143
187143
187143
187143
187143
187143
187143
187143
187143
187143
187143
187143
187143
187143
187144
187149
187166
187209
187282
187460
187512
188119
196536
326637
324583
195637
187536
187156
187144
187143
187143
187143
187143
187143
187143
187143
187143
187143
187143
187143
187143
187143
187143
187143
187144
187148
187162
187197
187255
187402
187439
188023
196406
326617
324841
195669
187538
187156
187144
187143
187143
187143
187143
187143
187143
187143
187143
187143
187143
187143
187143
187143
187143
187143
187144
187147
187157
187184
187228
187347
187371
187957
196398
326874
325054
195694
187540
187156
187144
187143
187143
187143
187143
187143
187143
187143
187143
187143
187143
187143
187143
187143
187143
187143
187144
187146
187152
187171
187201
187300
187325
188076
197532
329449
325226
195715
187541
187156
187144
187143
187143
187143
187143
187143
187143
187143
187143
187143
187143
187143
187143
187143
187143
187143
187143
187144
187148
187160
187178
187272
187483
191206
228995
337835
325359
195729
187542
187156
187144
187143
187143
187143
187143
187143
187143
187143
187143
187143
187143
187143
187143
187143
187143
187143
187143
187143
187144
187150
187165
187414
191968
361635
1.41823e+06
422069
325456
195738
187543
187156
187144
187143
187143
187143
187143
187143
187143
187143
187143
187143
187143
187143
187143
187143
187143
187143
187143
187142
187141
187145
187236
190617
410741
3.25383e+06
7.60583e+06
413806
359743
359435
359134
358835
358535
358236
357938
357640
357342
357045
356748
356451
356155
355860
355565
355270
354976
354682
354388
354095
353802
353510
353218
352927
352636
352345
352055
351765
351476
351187
350898
350610
350322
350035
349748
349461
349175
348889
348604
348319
348035
347750
347467
347183
346900
346618
346336
346054
345772
345491
345211
344931
344651
344371
344092
343814
343536
343258
342980
342703
342426
342150
341874
341599
341323
341049
340774
340500
340227
339953
339681
339408
339136
338864
338593
338322
338051
337781
337511
337242
336973
336704
336436
336168
335900
335633
335366
335100
334833
334568
334302
334037
333773
333508
333244
332981
332718
332455
332192
331930
331669
331407
331146
330886
330625
330365
330106
329846
329588
329329
329071
328813
328556
328299
328042
327786
327530
327274
327019
326764
326509
326255
326001
325745
325465
202305
202213
202140
202070
202000
201931
201862
201793
201725
201657
201589
201522
201455
201388
201322
201256
201191
201126
201061
200997
200932
200869
200805
200742
200679
200617
200555
200493
200432
200370
200310
200249
200189
200129
200069
200010
199951
199892
199834
199776
199718
199661
199604
199547
199490
199434
199378
199322
199267
199212
199157
199103
199048
198994
198941
198887
198834
198781
198729
198676
198624
198572
198521
198469
198418
198368
198317
198267
198217
198167
198118
198068
198019
197971
197922
197874
197826
197778
197731
197683
197636
197589
197543
197497
197450
197405
197359
197313
197268
197223
197179
197134
197090
197046
197002
196958
196915
196871
196828
196786
196743
196701
196659
196617
196575
196533
196492
196451
196410
196369
196329
196288
196248
196208
196169
196129
196090
196051
196012
195973
195934
195896
195858
195818
195773
188198
188186
188177
188169
188161
188153
188144
188136
188128
188120
188112
188105
188097
188089
188082
188074
188066
188059
188052
188044
188037
188030
188023
188016
188009
188002
187995
187989
187982
187975
187969
187962
187956
187949
187943
187937
187930
187924
187918
187912
187906
187900
187894
187888
187882
187877
187871
187865
187860
187854
187848
187843
187838
187832
187827
187822
187816
187811
187806
187801
187796
187791
187786
187781
187776
187771
187766
187762
187757
187752
187747
187743
187738
187734
187729
187725
187720
187716
187712
187707
187703
187699
187695
187691
187686
187682
187678
187674
187670
187666
187662
187658
187655
187651
187647
187643
187639
187636
187632
187628
187625
187621
187618
187614
187611
187607
187604
187600
187597
187594
187590
187587
187584
187581
187577
187574
187571
187568
187565
187562
187559
187556
187553
187550
187546
187195
187194
187193
187193
187192
187192
187191
187191
187190
187190
187189
187188
187188
187187
187187
187186
187186
187185
187185
187184
187184
187183
187183
187183
187182
187182
187181
187181
187180
187180
187180
187179
187179
187178
187178
187178
187177
187177
187176
187176
187176
187175
187175
187175
187174
187174
187174
187173
187173
187173
187172
187172
187172
187171
187171
187171
187170
187170
187170
187169
187169
187169
187169
187168
187168
187168
187167
187167
187167
187167
187166
187166
187166
187166
187165
187165
187165
187165
187165
187164
187164
187164
187164
187163
187163
187163
187163
187163
187162
187162
187162
187162
187162
187161
187161
187161
187161
187161
187160
187160
187160
187160
187160
187160
187159
187159
187159
187159
187159
187159
187158
187158
187158
187158
187158
187158
187157
187157
187157
187157
187157
187157
187157
187157
187156
187145
187145
187145
187145
187145
187145
187145
187145
187145
187145
187145
187145
187145
187145
187145
187145
187145
187145
187145
187145
187145
187145
187145
187145
187145
187145
187145
187145