/*--------------------------------*- C++ -*----------------------------------*\
| =========                 |                                                 |
| \\      /  F ield         | OpenFOAM: The Open Source CFD Toolbox           |
|  \\    /   O peration     | Version:  2112                                  |
|   \\  /    A nd           | Website:  www.openfoam.com                      |
|    \\/     M anipulation  |                                                 |
\*---------------------------------------------------------------------------*/
FoamFile
{
    version     2.0;
    format      ascii;
    arch        "LSB;label=32;scalar=64";
    class       surfaceScalarField;
    location    "0.00012";
    object      phi;
}
// * * * * * * * * * * * * * * * * * * * * * * * * * * * * * * * * * * * * * //

dimensions      [1 0 -1 0 0 0 0];

oriented        oriented;

internalField   nonuniform List<scalar> 
27436
(
-0.479149
8.12785
-0.0950892
7.45468
-0.0723154
7.73879
-0.0695436
7.73564
-0.0627667
7.72437
-0.0556699
7.723
-0.0459808
7.72333
-0.0355645
7.7244
-0.0247605
7.72546
-0.0141429
7.72551
-0.00355297
7.7255
0.00702154
7.72552
0.0175867
7.72548
0.0281169
7.72555
0.0386895
7.72551
0.0492951
7.72545
0.0600453
7.72551
0.0705974
7.72417
0.0803377
7.72303
0.0875477
7.72281
0.0952492
7.72334
0.0983063
7.73544
0.120323
7.73849
0.494552
7.46921
8.12652
-0.207339
8.4519
-0.121698
7.41522
-0.11174
7.73818
-0.0947509
7.73949
-0.0751609
7.74105
-0.0572437
7.75244
-0.0429937
7.76302
-0.0316181
7.76965
-0.021355
7.7736
-0.0120508
7.7748
-0.00300244
7.77522
0.00597485
7.77542
0.0148965
7.77546
0.0238103
7.77555
0.0327678
7.77541
0.0419952
7.77493
0.0522449
7.77383
0.063508
7.76965
0.0777201
7.76288
0.0957492
7.75239
0.114848
7.74027
0.130402
7.73934
0.137619
7.7405
0.216691
7.43932
8.47052
-0.189931
8.91596
-0.21019
7.56218
-0.206744
7.78897
-0.17445
7.79003
-0.143954
7.81744
-0.118181
7.8497
-0.0980093
7.87448
-0.0820456
7.88882
-0.0680669
7.89652
-0.0553373
7.89958
-0.043056
7.90082
-0.0309057
7.90134
-0.0188283
7.90149
-0.00674748
7.90154
0.00544364
7.90113
0.0180866
7.89988
0.0319855
7.89697
0.0479031
7.889
0.0680449
7.8745
0.0938751
7.84981
0.123583
7.81708
0.15281
7.79162
0.146216
7.80533
0.14244
7.57035
8.89115
-0.197238
9.58833
-0.287161
7.86268
-0.279096
7.85855
-0.223539
7.87983
-0.173814
7.9617
-0.135582
8.03405
-0.107587
8.08169
-0.0858123
8.10721
-0.0675052
8.11976
-0.050826
8.12598
-0.0348492
8.1287
-0.0191092
8.12978
-0.00346859
8.13006
0.0122041
8.12993
0.0280807
8.12896
0.0446597
8.12635
0.0629
8.12032
0.0845572
8.1076
0.112479
8.0819
0.150539
8.03458
0.198777
7.96254
0.24851
7.88676
0.247035
7.89431
0.162963
7.86971
9.53924
-0.205585
10.4654
-0.280892
7.78303
-0.270191
7.54784
-0.206813
7.54826
-0.145885
7.65157
-0.101135
7.75738
-0.0710865
7.82455
-0.0494231
7.8603
-0.0327437
7.87607
-0.0180311
7.8858
-0.00427547
7.89015
0.00912929
7.89182
0.0224088
7.8922
0.0357307
7.89178
0.049361
7.8902
0.0639392
7.88614
0.0804376
7.87664
0.101797
7.86088
0.131272
7.82531
0.17494
7.75882
0.233211
7.65367
0.290568
7.5591
0.301513
7.58295
0.203445
7.81635
10.4738
-0.0885468
11.5763
-0.212363
8.93011
-0.244614
8.65752
-0.190015
8.52657
-0.127019
8.59743
-0.0793152
8.70953
-0.0492299
8.78063
-0.0293578
8.82146
-0.0158996
8.83799
-0.00498324
8.85096
0.00460251
8.85686
0.013659
8.85918
0.0225321
8.8597
0.0314613
8.85901
0.0408997
8.857
0.0516677
8.85166
0.0648889
8.83902
0.0844643
8.82278
0.114109
8.78241
0.160816
8.7129
0.221508
8.60119
0.273916
8.53802
0.242196
8.69122
0.130585
8.92867
11.5858
0.491478
13.4642
0.229223
12.2035
0.0845334
11.8307
-0.00330075
11.5519
-0.0465054
11.4409
-0.0720481
11.4465
-0.0905686
11.4758
-0.105972
11.504
-0.120835
11.5218
-0.135678
11.532
-0.150797
11.5365
-0.165948
11.5377
-0.181188
11.5384
-0.196617
11.5388
-0.211771
11.5373
-0.22652
11.5327
-0.24112
11.5225
-0.256118
11.5046
-0.273754
11.4761
-0.299099
11.4465
-0.34913
11.4444
-0.441157
11.5573
-0.543748
11.8167
-0.81748
12.1788
13.2645
1.43816
11.3194
1.27915
12.0016
1.0151
12.0668
0.705076
11.9252
0.505039
11.7753
0.383718
11.761
0.30471
11.7779
0.248552
11.797
0.203643
11.8098
0.16362
11.817
0.125529
11.8201
0.0879191
11.8215
0.0505761
11.8223
0.0131506
11.8225
-0.0252441
11.8215
-0.0656984
11.8184
-0.111272
11.8116
-0.168429
11.7994
-0.248626
11.781
-0.37073
11.7651
-0.564406
11.7835
-0.839611
11.923
-1.08321
12.0386
-1.25854
11.9421
11.2768
0.756674
9.36496
0.867422
11.0337
0.710689
11.5719
0.484774
11.5541
0.304652
11.4612
0.196805
11.4489
0.140219
11.4507
0.113761
11.4536
0.102925
11.4564
0.0992903
11.4578
0.0986148
11.4579
0.0987393
11.4587
0.0991488
11.4595
0.0994412
11.4591
0.0984661
11.4589
0.0945406
11.4583
0.0834589
11.4575
0.0568794
11.4551
-0.000545688
11.4535
-0.104896
11.4521
-0.272192
11.4649
-0.467555
11.5424
-0.62703
11.5532
-0.575092
10.9803
9.41926
-2.62551
9.5036
-2.90176
8.73702
-2.73826
8.8779
-2.5362
8.88472
-2.32001
8.86188
-2.06619
8.85929
-1.78168
8.8543
-1.48006
8.84989
-1.16896
8.84658
-0.852775
8.84429
-0.534556
8.84491
-0.215865
8.84868
0.102946
8.84972
0.421611
8.84803
0.739643
8.84669
1.05555
8.84526
1.36671
8.8437
1.6684
8.84319
1.95253
8.84639
2.20774
8.8504
2.42809
8.85248
2.63137
8.8724
2.79711
8.84733
2.52113
8.66067
9.31593
-2.4327
6.50847
-2.55625
3.94366
-2.39431
3.94146
-2.18034
3.92668
-1.95582
3.90845
-1.70639
3.89769
-1.44317
3.89124
-1.17224
3.88813
-0.897991
3.88697
-0.622407
3.887
-0.346373
3.88994
-0.06964
3.89368
0.207205
3.89494
0.483849
3.89533
0.760663
3.89536
1.03665
3.89462
1.31099
3.89399
1.58217
3.8951
1.84657
3.89911
2.09848
3.90653
2.32494
3.91882
2.54124
3.93809
2.6931
3.94964
2.55497
3.94154
6.55378
-0.827897
1.25165
-0.88309
0.857389
-0.811868
0.905205
-0.732352
0.909452
-0.658177
0.913738
-0.57452
0.919557
-0.487615
0.923995
-0.399296
0.92735
-0.31039
0.929724
-0.221311
0.931428
-0.132052
0.932954
-0.0425357
0.934296
0.0470232
0.935044
0.136655
0.935406
0.226257
0.935555
0.315689
0.935205
0.405126
0.934404
0.493911
0.933042
0.581538
0.930669
0.666018
0.927225
0.741995
0.922259
0.821843
0.918242
0.891593
0.91458
0.820641
0.865775
1.28109
-0.096528
0.0655837
-0.0953225
0.0489495
-0.0922994
0.055038
-0.0863899
0.0563594
-0.0789698
0.0575293
-0.0696963
0.0582412
-0.0595436
0.0586296
-0.0490349
0.0588612
-0.0383797
0.0590048
-0.0276799
0.0591015
-0.0169502
0.0591836
-0.00618967
0.0592512
0.00457574
0.0592893
0.0153375
0.0593128
0.0260982
0.0593244
0.0368442
0.0593172
0.0475496
0.0592864
0.0581416
0.0592091
0.0684083
0.0590435
0.0778128
0.0587191
0.0853936
0.0580645
0.0913351
0.0569261
0.0946491
0.0556308
0.095517
0.0495288
0.0672903
0.000128722
0.0114915
-0.00213623
0.0102442
-0.0061147
0.0121115
-0.00851244
0.0125976
-0.00947659
0.0132668
-0.00910856
0.0135684
-0.00805545
0.0136823
-0.00676185
0.0137153
-0.00540509
0.013723
-0.00403414
0.0137242
-0.00266
0.0137241
-0.0012849
0.0137236
9.05277e-05
0.0137228
0.00146515
0.0137219
0.00283913
0.0137209
0.00420975
0.0137193
0.00556561
0.013716
0.00685815
0.0137051
0.00791752
0.0136636
0.00830992
0.0135256
0.00737412
0.0131717
0.00502688
0.0124244
0.000994718
0.011864
-0.00120302
0.00996277
0.0111402
0.00412553
0.010862
0.00160545
0.0100383
-0.00174456
0.0111207
-0.00406829
0.0112613
-0.00538959
0.011706
-0.00546677
0.0119251
-0.00485235
0.0120197
-0.00397226
0.0120508
-0.00301659
0.0120586
-0.00204327
0.0120601
-0.00106636
0.0120604
-8.8796e-05
0.0120604
0.000888848
0.0120604
0.00186636
0.0120604
0.00284306
0.0120604
0.00381527
0.0120601
0.00476594
0.0120582
0.005627
0.0120494
0.00618436
0.0120152
0.00598502
0.0119099
0.00448665
0.0116679
0.00196909
0.0112093
-0.00143999
0.0110706
-0.00385127
0.00986283
0.0105439
0.00214493
0.0121543
0.000312682
0.0107709
-0.00224758
0.0113445
-0.0041325
0.0111177
-0.00526105
0.0111031
-0.0053407
0.0110751
-0.00477327
0.0110696
-0.0039247
0.0110691
-0.00298581
0.0110696
-0.00202354
0.0110699
-0.00105606
0.01107
-8.75366e-05
0.01107
0.000881135
0.01107
0.00184963
0.01107
0.00281696
0.01107
0.00377854
0.0110699
0.0047146
0.0110698
0.00555357
0.0110705
0.00609449
0.0110747
0.00595637
0.0110898
0.00473112
0.0111342
0.00271697
0.0111674
6.16227e-05
0.0114365
-0.00170113
0.010836
0.0123204
0.00118248
0.0139778
5.20185e-06
0.0116783
-0.00147129
0.0115528
-0.0026579
0.0110257
-0.00349606
0.0107205
-0.003632
0.0105581
-0.00331496
0.0104891
-0.00279621
0.0104674
-0.00221094
0.0104619
-0.00160766
0.0104607
-0.00100013
0.0104606
-0.000391699
0.0104605
0.000216883
0.0104605
0.000825331
0.0104605
0.00143293
0.0104606
0.0020365
0.0104607
0.00262289
0.0104618
0.00314507
0.0104671
0.00347061
0.0104881
0.00335288
0.0105564
0.00254657
0.0107192
0.0014235
0.011039
7.5409e-07
0.0116201
-0.00124414
0.011774
0.0141919
0.000162948
0.0148247
-0.000160237
0.0119344
-0.000593403
0.0117482
-0.000923416
0.0109842
-0.00117825
0.0106093
-0.00125798
0.0104268
-0.00121249
0.0103569
-0.00110871
0.0103365
-0.000985393
0.0103315
-0.000856689
0.0103304
-0.000726674
0.0103302
-0.000596373
0.0103302
-0.000466024
0.0103302
-0.000335722
0.0103302
-0.000205708
0.0103302
-7.70593e-05
0.0103304
4.574e-05
0.0103312
0.000150024
0.0103351
0.000204316
0.0103508
0.000169698
0.0104064
3.80566e-05
0.0105677
-6.77493e-05
0.0109059
-0.000223259
0.0116451
-0.00026873
0.0118687
0.01462
0.000165841
0.011921
0.00178874
0.0106429
0.00302864
0.0111338
0.00388798
0.0108544
0.00441438
0.0109146
0.00437888
0.0109361
0.00397137
0.0109539
0.00340507
0.0109611
0.00278883
0.0109631
0.00215935
0.0109635
0.00152673
0.0109636
0.000893431
0.0109636
0.000260019
0.0109636
-0.000373299
0.0109636
-0.00100602
0.0109636
-0.00163591
0.0109636
-0.00225369
0.0109633
-0.00282505
0.0109621
-0.00324777
0.0109578
-0.00332618
0.0109488
-0.00289056
0.0109475
-0.00220364
0.0109228
-0.00111264
0.0112493
0.000331112
0.0107755
0.0123031
-0.00165301
0.00962563
0.000102994
0.00912689
0.00256415
0.0103015
0.00453937
0.0107836
0.00590514
0.0114518
0.00612818
0.0118104
0.0055549
0.0119705
0.00462719
0.0120238
0.00358673
0.0120375
0.00251729
0.0120405
0.00144135
0.012041
0.000364114
0.0120411
-0.00071332
0.0120411
-0.00179056
0.0120411
-0.0028665
0.012041
-0.00393595
0.0120405
-0.00497643
0.0120376
-0.00590438
0.012024
-0.0064792
0.0119721
-0.00626465
0.011813
-0.00492908
0.0114515
-0.00299423
0.0107818
-0.000638852
0.0103113
0.00125474
0.00914125
0.00962503
-0.00365506
0.00916775
-0.00180178
0.00883091
0.00132261
0.0103757
0.00384555
0.0113163
0.00553136
0.0123118
0.00583221
0.0128373
0.00526642
0.0130245
0.00434906
0.0130763
0.00332961
0.0130881
0.00228606
0.0130903
0.00123755
0.0130907
0.000188128
0.0130907
-0.000861414
0.0130907
-0.00191081
0.0130907
-0.00295917
0.0130907
-0.00400197
0.0130902
-0.00501794
0.0130876
-0.00592178
0.013074
-0.00644577
0.0130154
-0.00605048
0.0128043
-0.00422505
0.0122231
-0.00156058
0.0111662
0.00161769
0.0101805
0.00345769
0.00859695
0.00885456
-0.00413388
0.00960535
-0.00191383
0.00960221
0.00163067
0.0114916
0.0042414
0.0126119
0.00570863
0.0134923
0.00578526
0.0138829
0.00514228
0.014014
0.00425534
0.0140472
0.00330671
0.014054
0.00234496
0.0140552
0.00138077
0.0140554
0.000416179
0.0140554
-0.000548468
0.0140554
-0.00151305
0.0140554
-0.00247718
0.0140554
-0.00343854
0.0140552
-0.0043853
0.0140538
-0.0052641
0.0140463
-0.00587849
0.0140099
-0.00572884
0.0138675
-0.00414002
0.0134461
-0.00142501
0.0125056
0.00215599
0.0113019
0.00429185
0.00933473
0.00940639
-0.00378501
0.0108149
-0.00126245
0.0110577
0.00238236
0.0128697
0.00470726
0.0138513
0.00571038
0.0145404
0.00554691
0.0148088
0.00487881
0.0148878
0.004065
0.0149054
0.00321863
0.0149087
0.002366
0.0149092
0.0015123
0.0149093
0.000658448
0.0149093
-0.000195429
0.0149093
-0.00104929
0.0149093
-0.00190298
0.0149093
-0.00275562
0.0149092
-0.00360208
0.0149087
-0.00441652
0.0149055
-0.00508807
0.0148882
-0.00526598
0.0148114
-0.00429967
0.0145511
-0.00204516
0.0138838
0.00152115
0.0129352
0.00397373
0.0111626
0.0109835
-0.00317851
0.0125045
-0.000651737
0.0126403
0.00274248
0.0142488
0.00456262
0.014982
0.00510736
0.0154573
0.00476114
0.0156209
0.00409451
0.0156635
0.00334906
0.015672
0.00258798
0.0156734
0.00182417
0.0156736
0.00105995
0.0156736
0.000295656
0.0156736
-0.000468639
0.0156736
-0.00123293
0.0156736
-0.00199716
0.0156736
-0.00276097
0.0156736
-0.00352209
0.0156734
-0.00426775
0.015672
-0.00493554
0.0156636
-0.00528574
0.0156212
-0.00474875
0.0154587
-0.00293276
0.0149865
0.000487206
0.0142619
0.00302807
0.0126575
0.012509
-0.00211705
0.0134377
0.000400859
0.0137592
0.00357549
0.0152723
0.00506173
0.0159066
0.00530574
0.0162856
0.00482596
0.0164026
0.00412248
0.0164299
0.00337077
0.0164347
0.00261041
0.0164355
0.00184866
0.0164356
0.00108672
0.0164356
0.000324746
0.0164356
-0.000437227
0.0164356
-0.0011992
0.0164356
-0.00196114
0.0164356
-0.00272288
0.0164356
-0.00348321
0.0164355
-0.00423466
0.0164347
-0.00493686
0.0164298
-0.00541129
0.016402
-0.00515263
0.0162825
-0.00363882
0.0158944
-0.000446767
0.0152388
0.00208323
0.0137053
0.0133781
-0.00157181
0.0142587
0.000896474
0.0146917
0.00385432
0.0161378
0.00513382
0.0167189
0.00523098
0.0170342
0.00472612
0.0171225
0.00405575
0.0171412
0.00335297
0.0171442
0.00264478
0.0171446
0.00193578
0.0171447
0.00122668
0.0171447
0.000517562
0.0171447
-0.000191556
0.0171447
-0.000900674
0.0171447
-0.00160978
0.0171447
-0.00231878
0.0171447
-0.00302702
0.0171446
-0.00373007
0.0171442
-0.00440194
0.0171413
-0.00491363
0.0171234
-0.00483786
0.017039
-0.00360664
0.0167386
-0.000674088
0.0161957
0.00176367
0.0147901
0.014478
-0.00127181
0.01539
0.00103223
0.0157381
0.00370632
0.01703
0.0047068
0.0175017
0.00465008
0.0177439
0.00411548
0.0178065
0.00346408
0.0178187
0.00279175
0.0178205
0.00211616
0.0178208
0.00144012
0.0178208
0.000764022
0.0178208
8.79172e-05
0.0178208
-0.000588189
0.0178208
-0.00126429
0.0178208
-0.00194039
0.0178208
-0.00261643
0.0178208
-0.00329199
0.0178208
-0.00396415
0.0178205
-0.00461456
0.0178186
-0.0051441
0.0178056
-0.00518109
0.0177394
-0.00412487
0.017483
-0.00140144
0.016977
0.00094973
0.0156416
0.0150969
-0.000505084
0.0159714
0.00165783
0.0165581
0.00413243
0.0177696
0.00496942
0.0182054
0.00482333
0.0184115
0.00427849
0.0184609
0.00364531
0.0184698
0.00299736
0.0184711
0.00234724
0.0184712
0.00169683
0.0184712
0.00104638
0.0184712
0.00039593
0.0184712
-0.00025452
0.0184712
-0.00090497
0.0184712
-0.00155542
0.0184712
-0.00220583
0.0184712
-0.00285594
0.0184712
-0.00350381
0.0184711
-0.00413652
0.0184698
-0.00467892
0.0184608
-0.00481774
0.0184108
-0.00397048
0.0182007
-0.00149037
0.0177445
0.000675675
0.0165145
0.0158831
-0.000108372
0.0164974
0.00186278
0.0172841
0.00415357
0.0184273
0.00486604
0.0188479
0.00468252
0.0190248
0.00416395
0.019064
0.00357637
0.0190706
0.00297783
0.0190714
0.00237775
0.0190715
0.00177747
0.0190715
0.00117717
0.0190715
0.000576864
0.0190715
-2.34399e-05
0.0190715
-0.000623744
0.0190715
-0.00122405
0.0190715
-0.00182433
0.0190715
-0.00242443
0.0190715
-0.00302313
0.0190714
-0.0036118
0.0190707
-0.0041365
0.0190647
-0.00434575
0.0190296
-0.00370747
0.0188721
-0.00150927
0.0185143
0.000436036
0.0174684
0.0169323
-0.000277766
0.0177965
0.00144392
0.01827
0.00338981
0.0191706
0.00387934
0.0194657
0.0036405
0.019588
0.00314949
0.0196135
0.00261101
0.0196176
0.00206546
0.0196181
0.00151895
0.0196182
0.000972334
0.0196182
0.000425704
0.0196182
-0.000120928
0.0196182
-0.00066756
0.0196182
-0.00121419
0.0196182
-0.00176082
0.0196182
-0.00230744
0.0196182
-0.00285393
0.0196182
-0.00339941
0.0196181
-0.00393739
0.0196175
-0.00442546
0.0196131
-0.00464971
0.019585
-0.00410341
0.0194494
-0.00207614
0.0191137
-0.000209338
0.0181379
0.0174026
0.000269291
0.0184194
0.00196068
0.0189517
0.00373582
0.0197476
0.00413059
0.0199985
0.00387545
0.0200982
0.00341429
0.0201178
0.00291722
0.0201207
0.00241501
0.0201211
0.00191215
0.0201211
0.00140921
0.0201211
0.000906263
0.0201211
0.000403315
0.0201211
-9.96336e-05
0.0201211
-0.000602582
0.0201211
-0.00110553
0.0201211
-0.00160847
0.0201211
-0.00211133
0.0201211
-0.00261352
0.0201211
-0.00311048
0.0201207
-0.00357086
0.0201178
-0.00382313
0.0200982
-0.00342893
0.019998
-0.00165602
0.0197383
-5.93746e-05
0.0189367
0.0183645
0.00050124
0.0187285
0.0021303
0.0194868
0.00375482
0.0202487
0.00407095
0.0204984
0.00379717
0.0205872
0.00334621
0.0206036
0.00286576
0.0206059
0.00238123
0.0206062
0.00189619
0.0206062
0.00141109
0.0206062
0.000925981
0.0206062
0.000440876
0.0206062
-4.42295e-05
0.0206062
-0.000529335
0.0206062
-0.00101444
0.0206062
-0.00149954
0.0206062
-0.00198459
0.0206062
-0.00246916
0.0206062
-0.00294995
0.020606
-0.0034031
0.0206039
-0.00368792
0.0205891
-0.00341039
0.0205098
-0.00184859
0.0202966
-0.000318818
0.0196104
0.0190622
0.000215397
0.0197483
0.00157209
0.0202002
0.00297117
0.0207862
0.00318728
0.0209612
0.0029201
0.0210237
0.00251463
0.0210348
0.00208755
0.0210364
0.00165761
0.0210365
0.00122733
0.0210366
0.000797014
0.0210366
0.000366691
0.0210366
-6.36319e-05
0.0210366
-0.000493955
0.0210366
-0.000924278
0.0210366
-0.0013546
0.0210366
-0.00178492
0.0210366
-0.0022152
0.0210366
-0.00264511
0.0210365
-0.00307203
0.0210363
-0.00347649
0.0210347
-0.00373808
0.0210226
-0.00349417
0.0209536
-0.00204983
0.0207516
-0.000557889
0.0201114
0.0194259
0.000556919
0.0202354
0.00191028
0.0207059
0.00319117
0.0212199
0.00336539
0.0213689
0.00310631
0.0214208
0.00273167
0.0214295
0.00233988
0.0214307
0.00194587
0.0214308
0.0015516
0.0214309
0.00115731
0.0214309
0.000763006
0.0214309
0.000368708
0.0214309
-2.55911e-05
0.0214309
-0.00041989
0.0214309
-0.000814188
0.0214309
-0.00120848
0.0214309
-0.00160275
0.0214309
-0.00199677
0.0214308
-0.00238859
0.0214307
-0.0027634
0.0214296
-0.00302399
0.0214212
-0.00286291
0.0213713
-0.00161344
0.0212269
-0.000344679
0.0207257
0.0203123
0.000765015
0.0203993
0.0020517
0.0211029
0.00321605
0.0216109
0.00334001
0.0217659
0.00306673
0.0218142
0.00269142
0.0218219
0.00230137
0.0218229
0.00190945
0.021823
0.00151732
0.021823
0.00112516
0.021823
0.000733006
0.021823
0.000340849
0.021823
-5.13089e-05
0.021823
-0.000443466
0.021823
-0.000835624
0.021823
-0.00122778
0.021823
-0.00161991
0.021823
-0.00201185
0.021823
-0.00240205
0.0218229
-0.00277838
0.021822
-0.00305737
0.0218151
-0.00295555
0.0217725
-0.00182985
0.0216437
-0.000606187
0.0211982
0.0207193
0.00036763
0.0212062
0.00143589
0.0216412
0.00244723
0.0220194
0.00252431
0.0221284
0.00227335
0.0221625
0.00194051
0.0221679
0.00159641
0.0221686
0.00125094
0.0221686
0.000905313
0.0221687
0.000559671
0.0221687
0.000214027
0.0221687
-0.000131617
0.0221687
-0.00047726
0.0221687
-0.000822904
0.0221687
-0.00116855
0.0221687
-0.00151419
0.0221687
-0.00185982
0.0221687
-0.00220527
0.0221686
-0.00254926
0.0221686
-0.00288133
0.0221678
-0.00312778
0.0221617
-0.00302521
0.022122
-0.0019655
0.0219889
-0.000769812
0.0215489
0.0208669
0.000641749
0.0215818
0.00169603
0.0220216
0.00262427
0.0223509
0.00269054
0.0224437
0.00246173
0.0224722
0.00216369
0.0224766
0.00185643
0.0224771
0.00154805
0.0224772
0.00123956
0.0224772
0.000931052
0.0224772
0.000622544
0.0224772
0.000314036
0.0224772
5.52865e-06
0.0224772
-0.000302979
0.0224772
-0.000611487
0.0224772
-0.000919993
0.0224772
-0.00122849
0.0224772
-0.00153686
0.0224772
-0.00184413
0.0224771
-0.00214219
0.0224766
-0.00237119
0.0224724
-0.00231192
0.0224447
-0.00140008
0.0223531
-0.000411122
0.0220287
0.0216213
0.000805137
0.0216595
0.00179418
0.022318
0.00262886
0.0226521
0.00266375
0.0227522
0.00242796
0.0227795
0.0021304
0.0227834
0.00182473
0.0227839
0.0015181
0.0227839
0.00121137
0.0227839
0.00090462
0.0227839
0.000597874
0.0227839
0.000291127
0.0227839
-1.56196e-05
0.0227839
-0.000322366
0.0227839
-0.000629113
0.0227839
-0.000935858
0.0227839
-0.00124259
0.0227839
-0.00154923
0.0227839
-0.00185497
0.0227839
-0.00215308
0.0227835
-0.00239208
0.02278
-0.00237175
0.0227566
-0.00156334
0.0226766
-0.000626208
0.0223969
0.0219656
0.000378361
0.0223277
0.00118126
0.0227289
0.00189927
0.0229621
0.0019103
0.02303
0.00169955
0.0230487
0.00143879
0.0230514
0.00117175
0.0230517
0.000903974
0.0230518
0.000636124
0.0230518
0.000368266
0.0230518
0.000100408
0.0230518
-0.000167451
0.0230518
-0.00043531
0.0230518
-0.000703168
0.0230518
-0.000971026
0.0230518
-0.00123888
0.0230518
-0.00150673
0.0230518
-0.0017745
0.0230518
-0.00204147
0.0230517
-0.00230173
0.0230514
-0.00250949
0.0230482
-0.0024786
0.0230253
-0.00172085
0.0229379
-0.000805306
0.0226474
0.0219986
0.000600501
0.022611
0.00139029
0.0230077
0.00204956
0.0232078
0.0020659
0.0232652
0.00188283
0.0232808
0.00165727
0.023283
0.00142647
0.0232832
0.00119506
0.0232832
0.000963596
0.0232832
0.000732124
0.0232832
0.00050065
0.0232832
0.000269177
0.0232832
3.77037e-05
0.0232832
-0.00019377
0.0232832
-0.000425243
0.0232832
-0.000656716
0.0232832
-0.000888183
0.0232832
-0.00111959
0.0232832
-0.00135039
0.0232832
-0.00157597
0.023283
-0.00175909
0.0232808
-0.00174801
0.0232657
-0.00110023
0.0232081
-0.000366223
0.0230105
0.0226248
0.000738563
0.0226107
0.00146978
0.0232167
0.00205329
0.0234304
0.00204893
0.0234957
0.00186192
0.0235113
0.0016368
0.0235134
0.00140701
0.0235136
0.00117668
0.0235136
0.000946292
0.0235136
0.0007159
0.0235136
0.000485508
0.0235136
0.000255116
0.0235136
2.47237e-05
0.0235136
-0.000205668
0.0235136
-0.000436061
0.0235136
-0.000666452
0.0235136
-0.000896839
0.0235136
-0.00112718
0.0235136
-0.00135702
0.0235136
-0.00158248
0.0235134
-0.00177163
0.0235117
-0.00178739
0.0234991
-0.00122644
0.0234504
-0.00054411
0.0232866
0.0229091
0.000301598
0.0231562
0.000873388
0.0235212
0.00136748
0.0236565
0.0013523
0.0236988
0.00119043
0.0237089
0.000997756
0.0237102
0.000801457
0.0237104
0.000604752
0.0237104
0.000408006
0.0237104
0.000211257
0.0237104
1.45076e-05
0.0237104
-0.000182242
0.0237104
-0.000378992
0.0237104
-0.000575741
0.0237104
-0.000772491
0.0237104
-0.00096924
0.0237104
-0.00116598
0.0237104
-0.00136268
0.0237104
-0.00155894
0.0237104
-0.00175129
0.0237102
-0.00191131
0.0237085
-0.00191177
0.0236955
-0.00138835
0.0236387
-0.000721424
0.023455
0.0228636
0.000485209
0.0233658
0.00104457
0.0237161
0.00149399
0.0238296
0.00149043
0.0238647
0.00135606
0.0238729
0.0011957
0.023874
0.00103231
0.0238741
0.00086857
0.0238742
0.0007048
0.0238742
0.000541028
0.0238742
0.000377255
0.0238742
0.000213482
0.0238742
4.97095e-05
0.0238742
-0.000114063
0.0238742
-0.000277836
0.0238742
-0.000441608
0.0238742
-0.000605378
0.0238742
-0.000769114
0.0238742
-0.000932514
0.0238741
-0.00109289
0.023874
-0.00122721
0.0238729
-0.00123438
0.0238647
-0.000791253
0.0238281
-0.000274947
0.0237136
0.0233489
0.000608428
0.0233048
0.00111732
0.0238507
0.00150525
0.0239835
0.001488
0.0240264
0.00135195
0.0240353
0.00119268
0.0240364
0.00103069
0.0240365
0.000868386
0.0240365
0.000706055
0.0240365
0.000543722
0.0240365
0.000381388
0.0240365
0.000219055
0.0240365
5.6721e-05
0.0240365
-0.000105613
0.0240365
-0.000267946
0.0240365
-0.00043028
0.0240365
-0.000592611
0.0240365
-0.000754914
0.0240365
-0.000916939
0.0240365
-0.00107644
0.0240364
-0.00121396
0.0240355
-0.00124025
0.024029
-0.000871721
0.0239995
-0.000408125
0.0239101
0.0235819
0.000186248
0.0237372
0.000560954
0.0240634
0.000881315
0.0241364
0.000861549
0.0241627
0.000750069
0.0241679
0.000620192
0.0241686
0.000488243
0.0241687
0.00035607
0.0241687
0.000223875
0.0241687
9.16773e-05
0.0241687
-4.052e-05
0.0241687
-0.000172717
0.0241687
-0.000304915
0.0241687
-0.000437112
0.0241687
-0.00056931
0.0241687
-0.000701507
0.0241687
-0.000833702
0.0241687
-0.000965872
0.0241687
-0.00109779
0.0241687
-0.00122747
0.0241686
-0.00133784
0.0241677
-0.00134718
0.0241605
-0.00100691
0.0241244
-0.000557017
0.024015
0.0235039
0.000337277
0.0238842
0.000698099
0.0241886
0.000980688
0.0242482
0.000972183
0.0242695
0.00088369
0.0242737
0.000780047
0.0242742
0.000674692
0.0242742
0.00056915
0.0242742
0.000463589
0.0242742
0.000358027
0.0242742
0.000252464
0.0242742
0.000146902
0.0242742
4.13391e-05
0.0242742
-6.42235e-05
0.0242742
-0.000169786
0.0242742
-0.000275348
0.0242742
-0.000380909
0.0242742
-0.000486452
0.0242742
-0.00059181
0.0242742
-0.000695459
0.0242742
-0.000783837
0.0242736
-0.000794287
0.0242692
-0.000513143
0.0242456
-0.000179426
0.0241813
0.0238447
0.000448767
0.02378
0.000767713
0.0242626
0.00100112
0.0243426
0.000984435
0.0243711
0.000896897
0.0243761
0.000796128
0.0243766
0.000693844
0.0243767
0.000591392
0.0243767
0.000488924
0.0243767
0.000386455
0.0243767
0.000283985
0.0243767
0.000181516
0.0243767
7.90466e-05
0.0243767
-2.34229e-05
0.0243767
-0.000125892
0.0243767
-0.000228362
0.0243767
-0.00033083
0.0243767
-0.000433283
0.0243767
-0.000535587
0.0243767
-0.000636506
0.0243767
-0.000724995
0.0243763
-0.000748401
0.0243732
-0.00052951
0.0243566
-0.000249726
0.0243142
0.0240504
6.194e-05
0.024123
0.00026607
0.0244279
0.000448586
0.0244366
0.000434022
0.0244504
0.000369154
0.0244525
0.000294309
0.0244527
0.00021838
0.0244528
0.000142338
0.0244528
6.62845e-05
0.0244528
-9.76989e-06
0.0244528
-8.58244e-05
0.0244528
-0.000161879
0.0244528
-0.000237933
0.0244528
-0.000313988
0.0244528
-0.000390042
0.0244528
-0.000466097
0.0244528
-0.00054215
0.0244528
-0.00061819
0.0244528
-0.000694098
0.0244528
-0.000768794
0.0244527
-0.000832815
0.0244523
-0.000838647
0.0244492
-0.000636446
0.0244303
-0.000365494
0.0243953
0.0239872
0.000185846
0.0244276
0.000353854
0.0247619
0.000510774
0.0245273
0.000505648
0.0245158
0.000456252
0.0245117
0.000398599
0.0245115
0.000340031
0.0245114
0.000281365
0.0245114
0.00022269
0.0245114
0.000164014
0.0245114
0.000105338
0.0245114
4.66617e-05
0.0245114
-1.20144e-05
0.0245114
-7.06905e-05
0.0245114
-0.000129367
0.0245114
-0.000188043
0.0245114
-0.000246718
0.0245114
-0.000305383
0.0245114
-0.000363946
0.0245114
-0.00042154
0.0245115
-0.000470326
0.0245116
-0.000472747
0.0245147
-0.000300687
0.0245172
-0.000123628
0.0247428
0.0242783
0.000128148
0.0251332
0.000308222
0.0253384
0.000497361
0.0246473
0.000516252
0.0245897
0.000472961
0.0245683
0.000418968
0.0245668
0.000363822
0.0245667
0.000308558
0.0245667
0.000253283
0.0245667
0.000198007
0.0245667
0.00014273
0.0245667
8.74544e-05
0.0245667
3.21783e-05
0.0245667
-2.30978e-05
0.0245667
-7.83739e-05
0.0245667
-0.00013365
0.0245667
-0.000188925
0.0245667
-0.000244189
0.0245667
-0.000299339
0.0245667
-0.000353344
0.0245668
-0.00039661
0.0245683
-0.000378332
0.0245904
-0.000201366
0.0246565
-4.55749e-05
0.0253486
0.0251759
-0.0107232
0.049653
-0.0133125
0.0535947
-0.0138793
0.0557571
-0.0134909
0.0559419
-0.0129808
0.0559649
-0.0124621
0.0559662
-0.0119428
0.0559662
-0.0114236
0.0559662
-0.0109043
0.0559662
-0.0103851
0.0559662
-0.00986583
0.0559662
-0.00934658
0.0559662
-0.00882732
0.0559662
-0.00830807
0.0559662
-0.00778881
0.0559662
-0.00726956
0.0559662
-0.00675031
0.0559662
-0.00623105
0.0559662
-0.0057118
0.0559662
-0.00519254
0.0559662
-0.00467329
0.0559662
-0.00415403
0.0559662
-0.00363478
0.0559662
-0.00311553
0.0559662
-0.00259627
0.0559662
-0.00207697
0.0559662
-0.00155675
0.0559661
-0.0010229
0.0559628
-0.000321297
0.0558791
0.055985
-0.0126504
0.0550165
-0.015147
0.0536811
-0.0157189
0.0553158
-0.0152652
0.0553664
-0.0146864
0.0553781
-0.0140994
0.0553787
-0.013512
0.0553788
-0.0129245
0.0553788
-0.012337
0.0553788
-0.0117495
0.0553788
-0.011162
0.0553788
-0.0105746
0.0553788
-0.0099871
0.0553788
-0.00939962
0.0553788
-0.00881214
0.0553788
-0.00822467
0.0553788
-0.00763719
0.0553788
-0.00704972
0.0553788
-0.00646224
0.0553788
-0.00587476
0.0553788
-0.00528729
0.0553788
-0.00469981
0.0553788
-0.00411233
0.0553788
-0.00352486
0.0553788
-0.00293738
0.0553788
-0.00234988
0.0553788
-0.00176201
0.0553787
-0.00116939
0.0553782
-0.000587615
0.0553695
0.0553143
-0.0107493
0.0568557
-0.0126924
0.0534902
-0.0131947
0.0548205
-0.0127976
0.054875
-0.0123104
0.0548858
-0.0118183
0.0548863
-0.0113258
0.0548863
-0.0108334
0.0548863
-0.010341
0.0548863
-0.00984855
0.0548863
-0.00935613
0.0548863
-0.0088637
0.0548863
-0.00837127
0.0548863
-0.00787884
0.0548863
-0.00738641
0.0548863
-0.00689399
0.0548863
-0.00640156
0.0548863
-0.00590913
0.0548863
-0.0054167
0.0548863
-0.00492428
0.0548863
-0.00443185
0.0548863
-0.00393942
0.0548863
-0.00344699
0.0548863
-0.00295457
0.0548863
-0.00246214
0.0548863
-0.0019697
0.0548863
-0.00147713
0.0548863
-0.000983542
0.0548862
-0.000490935
0.0548853
0.0548124
-0.00915192
0.0545513
-0.0107726
0.0531119
-0.0111937
0.0543966
-0.0108487
0.0544579
-0.0104353
0.0544684
-0.0100181
0.0544689
-0.00960067
0.0544689
-0.00918325
0.0544689
-0.00876583
0.0544689
-0.00834841
0.0544689
-0.00793099
0.0544689
-0.00751357
0.0544689
-0.00709615
0.0544689
-0.00667873
0.0544689
-0.00626131
0.0544689
-0.00584389
0.0544689
-0.00542647
0.0544689
-0.00500905
0.0544689
-0.00459162
0.0544689
-0.0041742
0.0544689
-0.00375678
0.0544689
-0.00333936
0.0544689
-0.00292194
0.0544689
-0.00250452
0.0544689
-0.0020871
0.0544689
-0.00166968
0.0544689
-0.00125214
0.0544689
-0.000833915
0.0544689
-0.000415885
0.0544684
0.0543942
-0.00871284
0.0538011
-0.0102834
0.0529076
-0.010672
0.0540075
-0.010343
0.0540615
-0.00994885
0.0540705
-0.00955109
0.0540709
-0.00915313
0.0540709
-0.00875517
0.0540709
-0.00835721
0.0540709
-0.00795925
0.0540709
-0.00756128
0.0540709
-0.00716332
0.0540709
-0.00676536
0.0540709
-0.0063674
0.0540709
-0.00596944
0.0540709
-0.00557147
0.0540709
-0.00517351
0.0540709
-0.00477555
0.0540709
-0.00437759
0.0540709
-0.00397962
0.0540709
-0.00358166
0.0540709
-0.0031837
0.0540709
-0.00278574
0.0540709
-0.00238777
0.0540709
-0.00198981
0.0540709
-0.00159184
0.0540709
-0.00119377
0.0540709
-0.000795052
0.0540709
-0.000396513
0.0540705
0.0539961
-0.00834195
0.0536161
-0.00984287
0.0527058
-0.0102114
0.0536433
-0.00989526
0.0536822
-0.00951813
0.0536899
-0.00913758
0.0536902
-0.00875685
0.0536902
-0.00837612
0.0536902
-0.00799539
0.0536902
-0.00761466
0.0536902
-0.00723392
0.0536902
-0.00685319
0.0536902
-0.00647246
0.0536902
-0.00609172
0.0536902
-0.00571099
0.0536902
-0.00533026
0.0536902
-0.00494953
0.0536902
-0.00456879
0.0536902
-0.00418806
0.0536902
-0.00380733
0.0536902
-0.0034266
0.0536902
-0.00304586
0.0536902
-0.00266513
0.0536902
-0.0022844
0.0536902
-0.00190366
0.0536902