/*--------------------------------*- C++ -*----------------------------------*\
| =========                 |                                                 |
| \\      /  F ield         | OpenFOAM: The Open Source CFD Toolbox           |
|  \\    /   O peration     | Version:  2112                                  |
|   \\  /    A nd           | Website:  www.openfoam.com                      |
|    \\/     M anipulation  |                                                 |
\*---------------------------------------------------------------------------*/
FoamFile
{
    version     2.0;
    format      ascii;
    arch        "LSB;label=32;scalar=64";
    class       volScalarField;
    location    "0.01025";
    object      p;
}
// * * * * * * * * * * * * * * * * * * * * * * * * * * * * * * * * * * * * * //

dimensions      [1 -1 -2 0 0 0 0];

internalField   nonuniform List<scalar> 
13875
(
951601
984299
973574
975918
973648
974587
975010
974825
975134
975192
975143
975045
974703
974800
974833
974696
974631
975334
975176
973969
973385
975636
972332
982742
945621
733800
659576
672179
677238
669288
670346
677185
678905
679196
679412
679489
678605
670332
669177
670406
678025
679293
679307
677539
669946
669565
676900
672203
657311
730876
736889
635515
664281
653589
649219
648121
648409
648646
647606
646363
646600
649088
645427
645328
645243
648899
646251
648262
647925
647642
648542
652154
661912
632219
733542
743531
636158
665164
653747
649524
648302
647355
645613
644312
643629
642997
644401
645458
645430
645273
644556
643524
644647
646120
647792
648825
652279
662660
632823
739095
757359
639163
667716
654454
650380
648781
647455
645674
644357
643722
643064
644428
645575
645695
645395
644587
643621
644727
646241
648225
649608
652871
664947
635460
750036
759040
647817
673479
656423
652174
649724
647806
645895
644534
643985
643272
644538
645823
646225
645656
644715
643905
644992
646643
649151
651282
654741
670535
643184
751658
765047
668322
685695
661328
655814
651631
648679
646459
645008
644523
643762
644888
646368
646797
646160
645022
644533
645696
647723
651207
654920
660344
682087
665862
755778
791231
718351
711598
674648
663561
655839
650862
647903
646181
645669
644832
645670
647446
647953
647228
645838
645818
647184
649969
655319
662295
673137
707115
715349
781825
908660
827901
766429
704242
679011
664365
655543
651044
648745
648035
647107
647499
649646
650284
649444
647832
648438
650305
654585
663396
676948
700905
760278
823170
909809
1.5241e+06
1.0294e+06
833386
739124
697287
674768
662291
656336
653632
652611
651689
651620
654062
654859
654031
652390
653412
655846
661578
673913
695757
736821
829475
1.02536e+06
1.51741e+06
2.90521e+06
1.39239e+06
956956
796008
725522
691348
674645
666793
663250
661635
660598
660087
662483
663526
663006
661862
663063
666256
673659
689624
722296
789350
941122
1.35136e+06
2.86088e+06
5.60299e+06
2.34302e+06
1.28644e+06
936264
789407
728071
701354
689042
683217
680333
678807
677998
679773
681132
681260
681523
683468
688714
700733
727069
786918
925922
1.25228e+06
2.27434e+06
5.57432e+06
5.38798e+06
4.83411e+06
2.3127e+06
1.40172e+06
979956
828605
767149
741336
729214
723303
720508
719323
719828
721469
722848
725534
730864
742583
769303
834808
990080
1.387e+06
2.18263e+06
4.87497e+06
5.34287e+06
4.8367e+06
4.64285e+06
4.70931e+06
3.99789e+06
1.6431e+06
1.13912e+06
956052
885470
853155
837638
830724
827825
826749
828480
832329
840628
858068
894429
975917
1.20197e+06
1.83512e+06
4.03232e+06
4.68822e+06
4.71726e+06
4.76308e+06
4.02587e+06
4.12483e+06
4.49557e+06
4.25989e+06
4.01769e+06
2.52841e+06
1.66478e+06
1.37656e+06
1.26361e+06
1.21597e+06
1.1968e+06
1.18915e+06
1.18642e+06
1.18828e+06
1.19576e+06
1.21572e+06
1.265e+06
1.38436e+06
1.69492e+06
2.68848e+06
4.11507e+06
4.24482e+06
4.51072e+06
4.28517e+06
4.26699e+06
3.52992e+06
3.45826e+06
3.92593e+06
4.0613e+06
4.2756e+06
4.34469e+06
3.7015e+06
3.05836e+06
2.84765e+06
2.67902e+06
2.57369e+06
2.53337e+06
2.51822e+06
2.52361e+06
2.55313e+06
2.63625e+06
2.84622e+06
3.04535e+06
3.75631e+06
4.39067e+06
4.2369e+06
4.07891e+06
4.05353e+06
3.57125e+06
3.74816e+06
2.5483e+06
2.69117e+06
3.0602e+06
3.501e+06
4.21032e+06
5.14981e+06
6.79424e+06
7.61244e+06
7.96396e+06
8.06194e+06
8.12255e+06
8.13093e+06
8.14167e+06
8.13342e+06
8.13182e+06
8.07692e+06
7.98111e+06
7.67793e+06
6.81214e+06
5.10272e+06
4.19942e+06
3.56039e+06
3.14986e+06
2.81742e+06
2.70402e+06
1.43313e+06
1.72012e+06
2.31509e+06
3.00763e+06
4.17936e+06
5.58674e+06
6.77712e+06
7.42708e+06
7.66765e+06
7.64001e+06
7.5597e+06
7.49289e+06
7.47444e+06
7.49048e+06
7.55906e+06
7.66155e+06
7.72361e+06
7.48923e+06
6.81107e+06
5.57827e+06
4.11868e+06
2.93451e+06
2.1928e+06
1.62222e+06
1.3449e+06
694823
1.02733e+06
1.70707e+06
2.61615e+06
4.08752e+06
5.1501e+06
5.83331e+06
6.33727e+06
6.50574e+06
6.48037e+06
6.43905e+06
6.45189e+06
6.47094e+06
6.47024e+06
6.45905e+06
6.52047e+06
6.59521e+06
6.4768e+06
6.05675e+06
5.39929e+06
4.1207e+06
2.67468e+06
1.7281e+06
1.04247e+06
704897
383323
618353
1.1393e+06
2.21445e+06
3.63533e+06
4.34647e+06
4.68219e+06
5.01828e+06
5.23955e+06
5.39653e+06
5.54293e+06
5.65645e+06
5.69555e+06
5.66888e+06
5.55924e+06
5.40298e+06
5.23506e+06
5.01505e+06
4.73832e+06
4.43552e+06
3.67228e+06
2.20188e+06
1.1337e+06
608416
374706
957956
981509
1.17334e+06
1.89253e+06
2.89305e+06
3.38254e+06
3.71583e+06
4.10351e+06
4.42546e+06
4.6578e+06
4.83477e+06
4.9419e+06
4.96644e+06
4.94275e+06
4.82995e+06
4.63235e+06
4.3664e+06
4.02887e+06
3.6818e+06
3.40682e+06
2.87718e+06
1.86137e+06
1.14784e+06
971823
961737
1.01723e+06
979303
1.15822e+06
1.60606e+06
2.16775e+06
2.61694e+06
3.02085e+06
3.45683e+06
3.79403e+06
4.03127e+06
4.2008e+06
4.28999e+06
4.30501e+06
4.28282e+06
4.18575e+06
3.99613e+06
3.72703e+06
3.372e+06
2.93619e+06
2.60527e+06
2.1288e+06
1.56109e+06
1.12425e+06
947533
987611
1.12501e+06
1.01882e+06
1.13277e+06
1.34289e+06
1.69087e+06
2.08199e+06
2.52546e+06
2.95636e+06
3.26384e+06
3.48366e+06
3.62977e+06
3.7035e+06
3.71704e+06
3.69249e+06
3.60697e+06
3.44132e+06
3.19945e+06
2.89265e+06
2.42123e+06
2.05887e+06
1.65457e+06
1.31003e+06
1.10259e+06
1.0086e+06
1.14067e+06
1.31962e+06
1.14984e+06
1.13523e+06
1.18942e+06
1.43885e+06
1.77573e+06
2.13273e+06
2.53045e+06
2.80256e+06
3.00459e+06
3.1276e+06
3.19267e+06
3.20653e+06
3.18113e+06
3.10538e+06
2.9618e+06
2.74413e+06
2.4731e+06
2.05934e+06
1.73623e+06
1.39445e+06
1.15305e+06
1.10934e+06
1.15881e+06
1.30943e+06
1.37821e+06
1.2796e+06
1.14309e+06
1.13008e+06
1.29359e+06
1.55569e+06
1.83722e+06
2.16754e+06
2.40163e+06
2.58199e+06
2.69684e+06
2.75552e+06
2.76927e+06
2.74579e+06
2.67865e+06
2.55154e+06
2.35691e+06
2.1223e+06
1.78791e+06
1.51361e+06
1.2459e+06
1.10815e+06
1.12204e+06
1.28535e+06
1.36381e+06
1.43723e+06
1.38773e+06
1.15973e+06
1.13062e+06
1.20336e+06
1.39586e+06
1.60671e+06
1.87545e+06
2.07259e+06
2.22925e+06
2.33235e+06
2.38324e+06
2.39582e+06
2.37499e+06
2.3168e+06
2.2026e+06
2.0338e+06
1.83624e+06
1.57423e+06
1.36792e+06
1.16547e+06
1.10849e+06
1.13781e+06
1.37093e+06
1.41153e+06
1.47463e+06
1.41787e+06
1.17875e+06
1.13074e+06
1.14949e+06
1.27113e+06
1.42794e+06
1.63643e+06
1.79889e+06
1.93134e+06
2.02193e+06
2.06672e+06
2.07942e+06
2.06007e+06
2.00733e+06
1.90894e+06
1.76526e+06
1.60321e+06
1.3969e+06
1.24347e+06
1.11906e+06
1.10858e+06
1.16482e+06
1.40941e+06
1.45368e+06
1.55536e+06
1.48734e+06
1.21327e+06
1.12765e+06
1.10926e+06
1.17455e+06
1.27987e+06
1.43991e+06
1.5696e+06
1.68134e+06
1.75842e+06
1.79775e+06
1.81137e+06
1.79448e+06
1.75157e+06
1.66963e+06
1.54981e+06
1.41664e+06
1.25887e+06
1.15431e+06
1.08834e+06
1.1076e+06
1.20288e+06
1.48616e+06
1.54149e+06
1.67259e+06
1.59817e+06
1.25517e+06
1.11712e+06
1.08048e+06
1.09783e+06
1.16056e+06
1.28018e+06
1.3849e+06
1.4756e+06
1.53864e+06
1.57388e+06
1.585e+06
1.5698e+06
1.52966e+06
1.46285e+06
1.36544e+06
1.26127e+06
1.14485e+06
1.08424e+06
1.06408e+06
1.09816e+06
1.23125e+06
1.54789e+06
1.58657e+06
1.73275e+06
1.71376e+06
1.30052e+06
1.1094e+06
1.04889e+06
1.04487e+06
1.06686e+06
1.15014e+06
1.22928e+06
1.30313e+06
1.35434e+06
1.3827e+06
1.39322e+06
1.37855e+06
1.34643e+06
1.29284e+06
1.21469e+06
1.13252e+06
1.04971e+06
1.0279e+06
1.03353e+06
1.09129e+06
1.27727e+06
1.62884e+06
1.65413e+06
1.73555e+06
1.72443e+06
1.33861e+06
1.10597e+06
1.01564e+06
993111
991896
1.03955e+06
1.09873e+06
1.15651e+06
1.19746e+06
1.2229e+06
1.23063e+06
1.22035e+06
1.19208e+06
1.14952e+06
1.08931e+06
1.02987e+06
980117
981465
1.00215e+06
1.08396e+06
1.30556e+06
1.65756e+06
1.69448e+06
1.74427e+06
1.72414e+06
1.40856e+06
1.10658e+06
979883
938207
929632
954742
994590
1.03786e+06
1.06856e+06
1.0863e+06
1.09309e+06
1.0846e+06
1.06355e+06
1.03046e+06
985547
944202
919490
926395
965598
1.08319e+06
1.35391e+06
1.67001e+06
1.72519e+06
1.75331e+06
1.71374e+06
1.46898e+06
1.10873e+06
953244
892404
878812
880125
905168
936192
958860
973363
977541
971748
953864
929923
898168
872440
868947
881599
936446
1.08517e+06
1.41723e+06
1.67381e+06
1.72507e+06
1.75247e+06
1.69762e+06
1.54247e+06
1.11789e+06
928064
849631
823458
818464
827862
849540
865578
875400
879142
874503
862903
846996
824894
812202
816819
838797
912516
1.09238e+06
1.51977e+06
1.6706e+06
1.72089e+06
1.75081e+06
1.67027e+06
1.54967e+06
1.14005e+06
917677
818710
778456
765206
764562
775021
786160
794543
796569
793558
783112
771751
761086
761186
771443
806325
898970
1.10848e+06
1.54574e+06
1.66159e+06
1.71329e+06
1.74448e+06
1.6447e+06
1.54427e+06
1.16116e+06
918349
787791
733629
715165
709562
713234
719004
723546
725084
722386
715868
711572
707116
711087
728494
779125
899671
1.14184e+06
1.54551e+06
1.64105e+06
1.71431e+06
1.73094e+06
1.61572e+06
1.53738e+06
1.20694e+06
925011
768715
700581
670866
660864
658125
660501
664557
664897
663384
657866
656313
659432
669305
696167
758765
903084
1.18334e+06
1.52926e+06
1.62075e+06
1.71485e+06
1.70337e+06
1.58334e+06
1.52436e+06
1.29781e+06
942931
753938
668715
631969
617080
612378
610934
612029
611979
611402
609127
610912
615383
627879
662710
742019
914416
1.26659e+06
1.49955e+06
1.59873e+06
1.70923e+06
1.67037e+06
1.56355e+06
1.48859e+06
1.34197e+06
962200
754402
647875
599549
579161
570022
567828
568400
567360
568272
565471
567670
577298
596647
640999
742512
941735
1.32633e+06
1.45654e+06
1.57514e+06
1.68977e+06
1.6168e+06
1.54044e+06
1.42168e+06
1.34043e+06
1.00403e+06
760292
629008
570758
545441
534890
530200
528798
528054
528718
529284
533901
543827
566693
622125
745677
975872
1.32491e+06
1.40009e+06
1.53546e+06
1.64263e+06
1.56224e+06
1.5095e+06
1.36404e+06
1.33598e+06
1.08715e+06
775749
628987
551735
518368
502260
497096
496595
494100
495970
495826
500198
515603
547197
622101
756117
1.04382e+06
1.3204e+06
1.34893e+06
1.49356e+06
1.56792e+06
1.52141e+06
1.47548e+06
1.31348e+06
1.31732e+06
1.1798e+06
794709
631029
538791
495215
476855
468737
465550
464044
465315
468088
475794
492541
532277
625870
782360
1.1852e+06
1.30972e+06
1.30363e+06
1.44426e+06
1.50203e+06
1.47645e+06
1.44227e+06
1.28115e+06
1.27931e+06
1.17871e+06
835368
640310
539009
480298
452904
443388
440998
437741
440373
442329
451261
477251
529657
631809
817893
1.18392e+06
1.28287e+06
1.2731e+06
1.4161e+06
1.4654e+06
1.42968e+06
1.39618e+06
1.2532e+06
1.21839e+06
1.17124e+06
917011
661011
541476
471188
436722
422528
416719
414353
416476
421832
434707
466301
530978
647393
888735
1.17593e+06
1.22894e+06
1.25203e+06
1.3952e+06
1.42119e+06
1.39757e+06
1.35608e+06
1.23139e+06
1.16166e+06
1.14607e+06
1.02929e+06
693090
545906
471406
424777
404722
398167
394061
397787
402317
420168
466567
538245
683371
1.0357e+06
1.15734e+06
1.1766e+06
1.24294e+06
1.35562e+06
1.38018e+06
1.35846e+06
1.31962e+06
1.21282e+06
1.11894e+06
1.09566e+06
1.02643e+06
761441
561104
474166
421946
393504
380995
376953
380623
391841
415685
468071
551895
746090
1.03365e+06
1.11485e+06
1.13087e+06
1.22393e+06
1.31195e+06
1.34977e+06
1.31318e+06
1.2754e+06
1.19324e+06
1.0829e+06
1.04218e+06
1.01652e+06
901011
593479
481519
422637
387990
372113
364150
370949
385126
415950
473332
579982
873372
1.02302e+06
1.06011e+06
1.09303e+06
1.20039e+06
1.27123e+06
1.31419e+06
1.26675e+06
1.23736e+06
1.17022e+06
1.05724e+06
997636
990276
899895
651586
494362
424492
388180
367421
353105
365775
385382
418694
487889
640729
898360
998516
1.01209e+06
1.06331e+06
1.16872e+06
1.22724e+06
1.26255e+06
1.17341e+06
1.17909e+06
1.13811e+06
1.0391e+06
961773
939475
893641
772953
521464
432330
389872
367667
353225
365949
386480
425872
515022
760090
894096
947949
970470
1.039e+06
1.13458e+06
1.16965e+06
1.16894e+06
1.03777e+06
1.10184e+06
1.08139e+06
1.01444e+06
933011
892387
874668
794423
577173
451791
395576
369176
354371
367146
391042
443673
570204
799693
877384
893029
933260
1.01052e+06
1.07803e+06
1.09414e+06
1.03651e+06
100152
104333
104666
106129
105481
105778
106060
106072
103907
102855
102013
101599
101152
100607
99962
99062.9
97699.2
96360.8
94528.5
93136.6
91378.9
90155.5
89180.9
88451.9
87797.4
87102.8
86407.3
85808
85439.2
85222.5
99804.9
104887
104662
106159
105474
105962
106360
106222
104047
102951
102077
101640
101196
100671
99982.5
99026.7
97749.4
96343.7
94314.1
93040.1
91384.6
90167.9
89195.2
88473.1
87812.9
87180.5
86541.2
85943.5
85611.5
85362.9
100716
105556
104994
106207
105851
106400
106495
106254
104051
102960
102083
101644
101201
100682
99994.8
98992.7
97751.9
96333.1
94395.7
92670
91277.4
90157.6
89235.4
88508.9
87973.2
87395.7
86876
86336.8
85975.7
85595.2
102676
106312
105713
106590
106524
106719
106535
106253
104041
102961
102075
101616
101180
100667
99909.3
98940.8
97706
96217.1
94378.1
92514.2
91277.2
90188.1
89341.5
88656.4
88121.3
87595
87178.9
86789.4
86355.3
86075.5
104502
107172
106593
107366
106923
106865
106543
106115
103962
102915
101908
101272
100744
100266
99453.3
98466.3
97224.6
95676.8
93966.3
92454.3
91291.9
90270.3
89478.5
88955.2
88472.9
88018.4
87688.5
87452.1
87073.7
86759.8
106188
108084
107375
107790
107104
106917
106544
105799
103636
102574
101363
100533
99863
99321.1
98409.8
97363
96139.9
94513.9
93536.9
92435.9
91307.3
90358.3
89655.1
89288.2
88894.1
88542.2
88257.6
88098
87879.3
87688.3
107702
109171
108213
107991
107170
106931
106511
105312
103047
101891
100317
99272.6
98457.7
97808.4
96972.6
96082.3
95034.8
93929.1
93332.4
92482.1
91487.6
90571.4
90008.5
89750.3
89430.2
89182.5
89012.8
89014.9
89031.1
89052.4
109290
110208
108628
108078
107191
106918
106288
104782
102304
101004
99208.7
98079.3
97209.2
96527.5
95802.2
95069.6
94257.7
93644.2
93236
92498.1
91644.1
90867
90418.4
90079.8
89847.5
89766.6
89807.8
90033.3
90261.8
90579.4
110727
110735
108808
108117
107167
106756
105904
104133
101549
100089
98131.7
96954.6
96071.4
95460.2
94889.2
94338
93811.8
93505.2
93176.1
92513.4
91749.4
91094.5
90632.3
90457.4
90439.6
90503.7
90879.9
91510.2
91776.7
92275
112158
110958
108872
108119
106973
106464
105351
103445
100658
99234
97092
95922.9
95069.2
94566.7
94143.3
93797.3
93532.7
93389.3
93119.3
92526.9
91822.6
91240.6
91084.8
91015.1
91040.9
91337.6
92160.7
92848.6
93082.9
93113.2
113108
111032
108872
107812
106539
105925
104548
102624
99740
98271.7
96018
94905.7
94112
93714
93430.2
93312.7
93284
93276.9
93060.5
92750.2
92110.4
91857.2
91648.9
91618.4
91922
92512.4
93321.9
93584.4
94142.1
94382.1
113556
111009
108545
107336
105868
105117
103532
101694
98720.7
97076.4
94871.6
93777.9
93164.9
92881.1
92772.3
92748.9
92939.2
93016.4
93010.7
92945.5
92677.2
92352.3
92276.6
92294.9
92817
93619.4
94220.5
94697.9
95430
96301.5
113673
110577
107969
106602
104985
104082
102351
100626
97561
95576.3
93630.7
92686.1
92248.5
92082.7
92042.6
92050.9
92469.3
92813.1
92981.5
93033.3
93089.2
93116.3
93166.8
93318.9
93628
94188.3
95128.5
96236.4
96936.2
97555.1
113576
109955
107125
105599
103912
102851
101043
99389.8
96195.6
93844.5
92388.4
91677
91364.7
91251.6
91222.7
91355.5
91913.6
92451.5
92861.9
93058.5
93274.8
93601.2
93888.8
94116.2
94309.8
94741.8
95927
97068.2
97911.5
98375.2
112873
108974
106035
104371
102626
101454
99680
97983.8
94450
92257.2
91184.6
90694.7
90464.3
90372.7
90345.2
90640.6
91401.6
92031.5
92630.7
93060.2
93339.5
93825.2
94238.4
94556.1
94945.9
95702.4
96724.2
97655.9
98417.4
98774.2
111806
107769
104819
102944
101077
99885
98188.3
96243
92751.9
90932.9
90042.3
89662.8
89516.4
89462.1
89435.4
89878.4
90809.2
91571.2
92288.9
92913.4
93350.3
93907
94379.9
94760.2
95312.6
96174.6
97088.1
97954.9
98651.3
98954
110210
105792
103198
101387
99340.9
98160.8
96541.4
94316.3
91247.6
89684.9
88936.5
88621.7
88502.8
88474.7
88505.6
89087.1
90172.3
91055.4
91899.2
92635.7
93340.5
93929
94425.7
94840
95505.3
96387.3
97253.1
98075.3
98750.9
99035.4
108582
104127
101597
99632.1
97532.1
96305.9
94778.8
92436.8
89740.9
88423.2
87837
87588.4
87477.4
87449.9
87559.9
88266.9
89479.7
90472.4
91395.8
92252.1
93132.2
93929.7
94435.8
94869
95608.3
96474.1
97312.7
98110.3
98785.2
99068.5
106157
102083
99382.7
97686.3
95671.9
94335.7
92920
90621.4
88289.7
87141.7
86656.4
86502.3
86456.9
86442.6
86619.5
87442.3
88750.5
89839.8
90836.2
91820.3
92860.8
93781.7
94432.5
94875.9
95656.1
96510.5
97335.7
98116.2
98792.5
99076.7
104025
100062
97589.1
95885
93758
92381.1
91012.6
88887.3
86876.3
85898.8
85511.2
85404.8
85380.9
85491.4
85707.3
86629
88001.9
89163.3
90227.5
91331.2
92508.4
93460.9
94058.4
94747
95676.8
96525
97348
98093.7
98783.8
99078.2
101019
97601
95441.6
93337.1
91836.3
90447.1
89134.9
87255.7
85510
84674.2
84372.4
84318.6
84321.9
84546.7
84827.5
85819.1
87231.4
88432.4
89533.9
90711.9
91951.9
92840.7
93465.6
94676.9
95678.1
96527
97350
98076.7
98778.4
99097.8
98537
95289.6
93436
91545.5
89949.5
88579.7
87331.6
85753.4
84211.5
83475
83211.2
83165.4
83350.8
83646.8
83944.8
85001.7
86415
87601.4
88668.9
89819.6
91037.2
91966.9
93172.9
94652.3
95671.3
96524.6
97345.7
98072.7
98777.8
99317.9
94734.2
92625.1
91355.2
89701.2
88281.2
86810.6
85626.7
84336.7
82972.8
82319.6
82083.3
82042.1
82384.4
82752.9
83061.3
84151.4
85525
86649.3
87654.1
88790.5
90107.5
91391.4
93033.2
94649
95943.2
96787.6
97754.2
98630.8
99299.7
99571.4
92391
90324.6
89747.9
88038.2
86293.4
85138.6
84022.9
82999.4
81794.4
81217.8
81011.1
80977.6
81430
81868.4
82228
83266.1
84576.1
85611.4
86597.8
87819.8
89375.7
91064.6
92963.1
94712.8
96220.2
97481.8
98402.9
99028.9
99687.9
99935.1
83681.8
87805.9
88528.2
86796.3
85050.1
83730.3
82592.1
81731
80678.7
80172.7
79994.5
79969.4
80444
81063.5
81442.4
82334
83552.9
84558.2
85626.3
87016.2
88805.1
90764.7
92882.1
94732.1
96338.6
97828.1
98726.2
99211.6
99859.1
100073
83811.3
83929.6
84165.7
84893.2
85581
86162.4
86952.9
87821.5
89167.4
90962.1
92764.4
94436.7
96205.8
97747
98739.5
99335.4
99656
99779.1
99991.5
100352
101064
102166
104166
104206
104069
104024
105095
103617
103244
98876.4
83916
84126.7
84405.3
85089.6
85723.7
86216.4
87088.2
87861.2
89143.5
90564.9
92332.7
94385.6
96203.1
97751.8
98744.6
99338.6
99628.3
99792.3
99995.6
100361
101144
102264
104293
104799
104360
103995
105110
103616
103792
98534.8
84350.9
84630.9
84863
85344.8
86034.8
86693
87632.8
87920.8
88920.1
90295.7
91898.6
94275.6
96201.3
97680.8
98749.5
99305
99553.7
99710.8
99954.3
100342
101147
102251
104312
105096
105010
104376
105127
104068
104546
99367.9
85203.8
85200.7
85337.6
85711.6
86324.2
87033.8
87640.5
88016.8
88883.3
90209.8
91452.2
93142.3
95597
97121.2
98350.4
99063.6
99420.6
99588.8
99820.7
100248
101123
102115
104216
105235
105602
105285
105513
104766
105378
101309
86117.8
86018.3
86035.5
86198.9
86591
87251.6
87708.6
88320.5
88898.6
90140.5
91279.2
92485.7
94182
95861
97092.9
97962.6
98475.8
98813.5
99219.5
99862.1
100984
102014
104080
105286
105886
105886
106383
105655
106304
103104
86670.5
86738.4
86749.3
86775.1
86916.8
87426.8
87912.6
88806.5
89414.7
90130.1
91249.2
92191.6
93203.8
94648.1
95740.1
96577.8
97140.5
97648.9
98251.6
99170.2
100594
101674
103781
105297
105995
106160
106897
106460
107270
104782
87502.8
87729.8
87691.5
87603.3
87606.6
87687.5
88120.2
88924.5
89556.7
90239.3
91397.7
92096.3
92724.4
93733.8
94708.2
95391.1
95903.7
96469.7
97205
98372.3
100114
101279
103358
105288
106025
106264
107146
107430
108382
106355
88379.9
88607
88530.8
88372.4
88345.2
88339.9
88438.1
89032.8
89648.1
90650.7
91475.7
92072.8
92495
93133
93936.4
94550.2
95020
95580.4
96333.1
97596.8
99547.5
100823
102957
105194
106035
106295
107248
107942
109632
107972
89575.5
89602.3
89467.7
89169.9
89098.3
89083
89089.8
89247.3
89836.1
90644.9
91402.8
92047.3
92376.1
92713.3
93300.1
93805.3
94226.5
94781.3
95539.3
96790.6
98848.8
100209
102502
104941
105928
106299
107288
108188
110271
109391
90862.4
90722.8
90411.8
90017
89844.2
89797.5
89841.3
89843
89994.1
90646.8
91420.1
92023.9
92258.8
92429.2
92767.2
93121
93457.2
93980.7
94730.8
95914.8
98091.2
99439.3
101882
104573
105646
106151
107303
108288
110556
110739
92635.2
92295.6
91631
91036.8
90686.7
90498.9
90510.8
90641.2
90710.3
90779
91401.4
92015.2
92189.3
92214.6
92276.7
92448.6
92675.8
93110.9
93822
94937.1
97213
98580
101077
103896
105193
105799
107082
108319
110639
111732
94627.7
94234.4
93697
92148.7
91593.1
91159.5
91077.1
91118.6
91375
91652.4
91801.7
92021.7
91992.7
91920.8
91769.8
91803.6
91917.5
92197.3
92781.5
93880.2
96079.6
97586.1
100214
102981
104494
105222
106655
108152
110648
112198
96736.4
96025.8
95416.4
93891.2
92624.2
92008.4
91753.2
91789.4
91836.4
92048.3
92107.7
92027.9
91828.4
91505.2
91141
91145.2
91187.8
91352.7
91779.1
92697.7
94598.7
96452.7
99251.9
101888
103536
104395
105980
107654
110256
112322
97845.2
97243.1
96565.5
95761.1
93837.1
92975.9
92659.7
92691.3
92647.5
92537.6
92263.7
92015.7
91527.6
90997.1
90492.5
90365.4
90401.3
90521.5
90823.6
91480.5
92889.6
95083.8
98140.2
100618
102344
103326
105064
106895
109606
112333
98470.9
98061.9
97354.4
96515.2
95083.6
94067.4
93880.8
93544.5
93250
92810.7
92326.8
91948.6
91216.1
90512.3
89799.3
89503.6
89547.3
89631.1
89821.2
90272.6
91311.7
93402.7
96824.8
99194.4
100955
102086
103888
105852
108641
111716
98914.9
98457.7
97786.9
97137.6
96019.8
94959.3
94551
93962.4
93537.1
92928.4
92339.5
91712.4
90837.8
89981.5
89074.5
88613.6
88645.4
88689.1
88826.4
89177.1
90004.5
91708.7
95059.2
97606.9
99397.8
100632
102513
104665
107441
110743
99294.7
98631.7
97962.1
97403.4
96547.2
95546
94886.8
94163.1
93652.8
92962.2
92289.7
91444.5
90457.6
89446.6
88352.9
87719.5
87691.8
87734.1
87850.8
88100.3
88751.3
90197
93105.9
95890.7
97695.6
98962
101048
103102
105541
109141
99362.5
98696.2
98037.6
97505.4
96825.9
95835.4
95044.8
94243.5
93683.8
92963.7
91978.1
91031.9
90004.7
88880.8
87629.6
86832
86749.7
86777.8
86825.9
86998.3
87529.2
88751.9
91219.8
94081.7
95874.6
97218
99331.7
101608
103845
107533
99194.1
98720.5
98069.1
97551.8
96960.3
95976.8
95107.5
94261.5
93685
92768.3
91622.7
90556
89498
88283.2
86911.5
85955.6
85823.9
85796.2
85822.5
85932.4
86331
87339.9
89406.9
92205.2
93945.3
95398.7
97439.6
99081.8
101737
105168
99216.7
98834.1
98099.3
97574.5
97075.5
96057.5
95125.4
94258.2
93519
92497.7
91193.9
90032.3
88954.4
87670.4
86203
85101.1
84899.4
84831
84814.1
84863.7
85152.5
85981.7
87718.4
90308.6
92021.4
93495.5
95534.9
97295.9
99635.1
103107
99193.3
98945.9
98241.9
97613.8
97125.3
96238.9
95126.8
93955.7
93181.7
92091.1
90670.1
89441.5
88356.9
87026.8
85485
84276.3
83948.9
83916.2
83782
83787.2
83994.5
84684
86169.8
88468.7
90129.7
91554.2
93153.1
95071.1
97095.9
100128
99202.8
99011.5
98410.1
97676.3
97169.8
96329.8
95117.2
93783.3
92566.9
91364.2
89915.1
88682.9
87631.2
86304
84728.9
83450.9
83039
82932.5
82809.3
82741.8
82881.1
83431
84684.7
86716.7
88304
89640.2
91183.4
92998.9
94747.7
97647.3
99901
99741
99301.8
98368.8
97560.7
96596.7
95226.2
93700.6
92016.3
90573
89043.7
87789.2
86773.4
85490.3
83928.1
82611.8
82194
81984.3
81813.7
81680.5
81797.2
82246.8
83275.5
85072.7
86575.5
87837.5
89254.6
90878.3
92083.7
93832.7
100310
100211
99743.1
99068.6
98167.1
96901.6
95312.8
93660.9
91688
89920.9
88209.6
86860.2
85848.4
84629.6
83096.8
81827.2
81420
81157
80757.6
80612.1
80713.2
81104.5
81988.6
83554.5
84941.8
85909.7
87481.8
89278.9
89729.1
91483.1
100534
100428
99956.4
99391.9
98453.1
97034.1
95342.5
93594.6
91409.7
89398.2
87487.8
85978.6
84901.2
83696.7
82231.1
81087.9
80715.1
80360.6
79720.1
79559.8
79649.9
80007.4
80814
82208.3
83507.5
84472.3
86184.2
87972.6
86953.3
82875.8
322611
324695
327149
329158
331279
333175
335077
336931
338735
340496
342217
343901
345538
347120
348643
350097
351506
352820
354045
355184
356280
357353
357938
358210
358319
358349
358349
358139
357755
357190
356425
355452
354268
352869
351249
349405
347336
345036
342506
339748
336763
333565
330148
326430
322590
318721
314238
309771
305159
300388
295510
290482
285375
280188
274951
269681
264345
258978
253558
248088
242568
236999
231387
225740
220072
214399
208740
203114
197541
192052
186653
181382
176269
171290
166489
161879
157471
153270
149284
145539
142015
138729
135738
132913
130295
127909
125490
123291
121649
120285
118799
117358
116007
114704
113426
112162
110918
109702
108505
107344
106200
105085
104004
103001
102134
101393
100853
100315
99829.1
99474.5
99082.7
98753.4
98690.8
98694.5
98717.7
98777.2
98886.9
99071
99476.5
99632.5
99717.6
99976.8
100124
100421
100600
325356
326070
328184
330142
332055
333858
335629
337354
339042
340700
342327
343920
345474
346977
348420
349794
351057
352220
353297
354420
355593
356173
356426
356517
356539
356533
356339
355979
355449
354735
353827
352718
351404
349880
348141
346184
344006
341605
338982
336137
333071
329789
326293
322584
318695
314584
310272
305797
301171
296404
291622
286541
281402
276266
271084
265880
260621
255301
249910
244468
238984
233461
227909
222339
216767
211207
205679
200201
194789
189460
184254
179159
174182
169407
164798
160412
156200
152177
148347
144749
141383
138251
135332
132619
130123
127806
125635
123657
121909
120347
118877
117473
116125
114804
113506
112228
110952
109693
108460
107262
106086
104959
103872
102854
101961
101186
100627
100153
99808.3
99571.6
99329.7
99107.8
98957.8
98937.2
98940.6
98957.2
99004.7
99121.1
99364.1
99716.3
99829.7
99886.2
100004
100252
100492
326539
326498
328302
330263
332133
333911
335645
337332
338985
340612
342211
343776
345305
346785
348199
349528
350750
351864
352917
353993
354801
355192
355357
355409
355418
355252
354920
354436
353787
352956
351933
350713
349290
347659
345819
343767
341502
339024
336335
333439
330335
327022
323512
319807
315918
311833
307557
303116
298531
293822
289030
284147
279165
274109
269027
263967
258354
253132
247812
242440
237033
231567
226057
220518
214978
209449
203974
198561
193226
187985
182864
177880
173046
168364
163846
159465
155304
151405
147722
144205
140882
137794
134936
132292
129856
127608
125516
123591
121851
120267
118782
117363
115991
114666
113335
111954
110658
109458
108244
107037
105850
104714
103631
102615
101710
100931
100344
99874.8
99548.9
99303.2
99085.7
98899.8
98804.4
98804.6
98813.7
98843.8
98921.5
99097.3
99462.6
99649.7
99784.7
99794.4
99820.3
99894.4
100022
326674
326576
328223
330204
332064
333851
335592
337288
338954
340596
342209
343783
345323
346805
348211
349522
350723
351819
352847
353849
354388
354641
354741
354767
354761
354487
354066
353490
352739
351803
350672
349341
347807
346067
344120
341968
339611
337054
334301
331354
328216
324885
321361
317663
313786
309725
305492
301100
296565
291906
287140
282271
277318
272297
267224
262106
256907
251639
246310
240947
235418
229645
224175
218655
213153
207658
202212
196807
191478
186243
181146
176197
171408
166788
162357
158115
154041
150130
146515
143206
140101
137166
134406
131826
129423
127207
125168
123291
121557
119945
118424
116977
115573
114201
112837
111471
110167
108904
107675
106419
105162
104020
102970
101981
101091
100304
99665.9
99166.1
98813
98566.9
98406.9
98296.8
98271.8
98275.3
98291.2
98331.2
98423.9
98629.4
99064.7
99194.9
99346.6
99378.6
99413.2
99494.1
99491.6
326254
326165
327785
329856
331747
333575
335358
337098
338803
340478
342120
343721
345275
346761
348162
349459
350652
351760
352806
353602
353998
354184
354258
354277
354211
353884
353398
352739
351895
350856
349616
348171
346522
344669
342617
340367
337927
335302
332498
329518
326365
323041
319541
315872
312044
308042
303877
299559
295101
290518
285816
281001
276086
271078
265989
260829
255596
250297
244926
239505
234036
228512
222963
217433
211984
205922
200546
195194
189932
184764
179722
174802
170034
165434
161035
156839
152863
149108
145499
142058
138938
136141
133551
131135
128891
126792
124819
122969
121231
119573
117979
116447
114966
113530
112132
110775
109456
108159
106882
105613
104387
103241
102155
101081
100091
99311.6
98684.4
98152.5
97738.4
97446.9
97269.5
97181.6
97176.5
97179.9
97196.6
97243.3
97349.5
97576.8
98039.5
98186.8
98347
98523
98524.1
98534.4
98535.9
325209
325114
326962
329162
331129
333038
334893
336699
338463
340188
341869
343495
345057
346539
347925
349204
350383
351482
352488
353148
353469
353610
353662
353674
353535
353169
352614
351855
350900
349735
348365
346788
345010
343036
340875
338528
336006
333318
330471
327469
324313
321006
317551
313932
310160
306225
302136
297902
293532
289030
284392
279619
274722
269707
264593
259406
254154
248819
243394
237903
232370
226809
221241
215683
210158
204666
199213
193853
188643
182964
177970
173127
168446
163916
159574
155415
151467
147755
144303
141095
138028
135118
132474
130152
128017
126008
124111
122310
120599
118980
117435
115932
114454
112990
111533
110079
108650
107267
105934
104657
103433
102259
101138
100077
99103.4
98277.1
97563.4
96962.7
96478.8
96117.9
95865.7
95704.2
95646.7
95647.7
95655.3
95679.2
95735.4
95861.2
96116.2
96414.9
96629.8
96858.6
96882.3
96935.2
97058
323705
323624
325976
328260
330322
332310
334229
336086
337890
339643
341341
342975
344530
345989
347342
348585
349728
350776
351693
352310
352612
352747
352791
352797
352530
352048
351382
350496
349388
348065
346546
344828
342912
340816
338546
336093
333477
330707
327785
324730
321532
318189
314719
311120
307373
303470
299474
295381
291203
286924
282521
277966
273232
268263
263060
257688
252247
246761
241250
235732
230218
224697
219162
213629
208122
202655
197263
191950
186734
181619
176596
171733
167098
162073
157842