/*--------------------------------*- C++ -*----------------------------------*\
| =========                 |                                                 |
| \\      /  F ield         | OpenFOAM: The Open Source CFD Toolbox           |
|  \\    /   O peration     | Version:  2112                                  |
|   \\  /    A nd           | Website:  www.openfoam.com                      |
|    \\/     M anipulation  |                                                 |
\*---------------------------------------------------------------------------*/
FoamFile
{
    version     2.0;
    format      ascii;
    arch        "LSB;label=32;scalar=64";
    class       volScalarField;
    location    "0.0067";
    object      p;
}
// * * * * * * * * * * * * * * * * * * * * * * * * * * * * * * * * * * * * * //

dimensions      [1 -1 -2 0 0 0 0];

internalField   nonuniform List<scalar> 
13875
(
951600
984304
973573
975944
973642
974569
974962
974652
975061
975193
975062
975039
974678
974775
974833
974692
974632
975324
975167
973975
973387
975628
972328
982624
945249
733802
659568
672160
677185
669272
669781
677245
678806
679100
678905
678714
678522
670255
669168
670406
678025
679295
679304
677531
669949
669567
676897
672190
657342
730670
736892
635540
664315
653695
649302
648160
648313
649372
649481
648476
647851
649021
645368
645313
645241
648912
646251
648150
647926
647650
648551
652160
661938
632183
733381
743537
636185
665199
653858
649609
648344
647385
646490
645501
644409
643666
644500
645402
645413
645269
644548
643516
644577
646120
647800
648835
652285
662689
632785
739046
757371
639193
667754
654574
650468
648854
647522
646553
645549
644454
643748
644530
645527
645670
645389
644579
643613
644662
646240
648236
649620
652877
664982
635419
750208
759051
647851
673523
656560
652272
649902
647954
646778
645728
644632
643969
644649
645789
646185
645647
644705
643900
644940
646640
649168
651299
654748
670578
643141
751761
765054
668358
685751
661492
655930
651912
648929
647337
646170
645072
644416
645006
646351
646768
646145
645010
644534
645668
647724
651232
654943
660354
682133
665822
755905
791221
718377
711670
674839
663694
656215
651191
648721
647270
646136
645372
645813
647453
647942
647209
645823
645833
647193
649987
655360
662331
673158
707157
715325
781972
908604
827904
766523
704465
679165
664728
655947
651761
649701
648440
647469
647667
649690
650311
649432
647824
648483
650378
654647
663468
677010
700941
760309
823173
909951
1.52389e+06
1.02943e+06
833580
739378
697509
675082
662803
657044
654356
652922
651880
651805
654170
654972
654059
652404
653514
656019
661743
674054
695877
736887
829503
1.02537e+06
1.51749e+06
2.90484e+06
1.39261e+06
957188
796260
725845
691767
675280
667442
663736
661913
660785
660349
662740
663831
663229
662002
663298
666585
674012
689937
722541
789485
941116
1.35129e+06
2.86079e+06
5.6025e+06
2.34426e+06
1.28626e+06
936416
789907
728828
702138
689640
683678
680823
679298
678568
680413
681784
681987
682160
684093
689393
701449
727745
787458
926278
1.25229e+06
2.2744e+06
5.57377e+06
5.38779e+06
4.84037e+06
2.30958e+06
1.39998e+06
980611
829936
768569
742587
730477
724754
722029
720873
721464
722961
724642
727431
732716
744365
770926
836340
991310
1.38586e+06
2.18183e+06
4.87684e+06
5.34236e+06
4.83754e+06
4.64736e+06
4.70754e+06
3.9884e+06
1.64318e+06
1.14135e+06
960267
890175
858104
842728
835679
832564
831561
833234
837363
846107
863888
900022
980279
1.2059e+06
1.84155e+06
4.03276e+06
4.68835e+06
4.71748e+06
4.76285e+06
4.02515e+06
4.1254e+06
4.50031e+06
4.27161e+06
4.01512e+06
2.51249e+06
1.67613e+06
1.39708e+06
1.2854e+06
1.23648e+06
1.21617e+06
1.20793e+06
1.20527e+06
1.20711e+06
1.21495e+06
1.23587e+06
1.28653e+06
1.40411e+06
1.70326e+06
2.70589e+06
4.13558e+06
4.27074e+06
4.52129e+06
4.28376e+06
4.26453e+06
3.53407e+06
3.46575e+06
3.94075e+06
4.08341e+06
4.32955e+06
4.39073e+06
3.72289e+06
3.13008e+06
2.90979e+06
2.75182e+06
2.64504e+06
2.60369e+06
2.58815e+06
2.5941e+06
2.62531e+06
2.71306e+06
2.91145e+06
3.11648e+06
3.76069e+06
4.41874e+06
4.27552e+06
4.10797e+06
4.08012e+06
3.58224e+06
3.75466e+06
2.55791e+06
2.70283e+06
3.08561e+06
3.5494e+06
4.28459e+06
5.27093e+06
7.00311e+06
7.81902e+06
8.21703e+06
8.33154e+06
8.42458e+06
8.43835e+06
8.46787e+06
8.45026e+06
8.44839e+06
8.37481e+06
8.24594e+06
7.91405e+06
7.04206e+06
5.25439e+06
4.25095e+06
3.61e+06
3.18213e+06
2.83383e+06
2.71905e+06
1.45426e+06
1.74869e+06
2.36118e+06
3.09118e+06
4.30436e+06
5.76437e+06
6.94208e+06
7.54916e+06
7.72343e+06
7.67858e+06
7.56344e+06
7.49291e+06
7.47145e+06
7.49622e+06
7.57511e+06
7.72057e+06
7.80709e+06
7.62904e+06
6.99735e+06
5.71411e+06
4.2668e+06
3.05716e+06
2.25111e+06
1.65772e+06
1.37092e+06
699524
1.03151e+06
1.71251e+06
2.70975e+06
4.30778e+06
5.23787e+06
5.82697e+06
6.25476e+06
6.31137e+06
6.2885e+06
6.27486e+06
6.30413e+06
6.32458e+06
6.32494e+06
6.30376e+06
6.33331e+06
6.4109e+06
6.39444e+06
6.06715e+06
5.46461e+06
4.32393e+06
2.80923e+06
1.75825e+06
1.05476e+06
710914
379328
623751
1.16943e+06
2.3475e+06
3.79842e+06
4.32707e+06
4.60873e+06
4.92926e+06
5.14079e+06
5.31932e+06
5.47081e+06
5.57679e+06
5.60444e+06
5.58512e+06
5.47742e+06
5.31456e+06
5.13257e+06
4.92943e+06
4.65486e+06
4.39708e+06
3.80956e+06
2.38424e+06
1.19542e+06
622130
372327
913005
942151
1.183e+06
1.96643e+06
2.94703e+06
3.33513e+06
3.66272e+06
4.05205e+06
4.37915e+06
4.62215e+06
4.79733e+06
4.89495e+06
4.91356e+06
4.89126e+06
4.78254e+06
4.58445e+06
4.31522e+06
3.97434e+06
3.61062e+06
3.35143e+06
2.90139e+06
1.87811e+06
1.17419e+06
943597
913368
979070
940871
1.16399e+06
1.6224e+06
2.17521e+06
2.56376e+06
2.99767e+06
3.43511e+06
3.77568e+06
4.01572e+06
4.17547e+06
4.25501e+06
4.27015e+06
4.24654e+06
4.15241e+06
3.96874e+06
3.70225e+06
3.34312e+06
2.89492e+06
2.53e+06
2.15142e+06
1.53089e+06
1.14642e+06
939414
977284
1.09303e+06
973271
1.11967e+06
1.33193e+06
1.6772e+06
2.03463e+06
2.52394e+06
2.94424e+06
3.25539e+06
3.47002e+06
3.60852e+06
3.67529e+06
3.69054e+06
3.66409e+06
3.58146e+06
3.41874e+06
3.1823e+06
2.87377e+06
2.41844e+06
1.992e+06
1.6594e+06
1.2946e+06
1.1046e+06
975477
1.09501e+06
1.332e+06
1.09247e+06
1.1078e+06
1.1682e+06
1.42323e+06
1.74789e+06
2.13779e+06
2.5268e+06
2.79774e+06
2.99206e+06
3.10927e+06
3.17173e+06
3.18603e+06
3.15976e+06
3.08489e+06
2.94417e+06
2.73397e+06
2.46205e+06
2.06334e+06
1.69572e+06
1.38847e+06
1.13207e+06
1.09012e+06
1.08768e+06
1.30897e+06
1.3837e+06
1.22772e+06
1.11337e+06
1.09995e+06
1.27754e+06
1.53329e+06
1.83931e+06
2.15966e+06
2.39375e+06
2.56926e+06
2.68071e+06
2.73607e+06
2.75051e+06
2.72573e+06
2.66273e+06
2.53777e+06
2.35074e+06
2.11081e+06
1.79281e+06
1.48894e+06
1.23928e+06
1.0816e+06
1.09539e+06
1.22461e+06
1.34277e+06
1.44746e+06
1.35859e+06
1.12877e+06
1.10065e+06
1.1885e+06
1.38404e+06
1.60495e+06
1.86909e+06
2.0655e+06
2.21836e+06
2.31834e+06
2.36829e+06
2.38169e+06
2.3602e+06
2.3024e+06
2.19229e+06
2.03102e+06
1.82862e+06
1.57503e+06
1.35378e+06
1.15551e+06
1.07986e+06
1.10578e+06
1.30668e+06
1.39321e+06
1.48479e+06
1.4062e+06
1.14668e+06
1.10148e+06
1.13272e+06
1.25596e+06
1.4224e+06
1.62631e+06
1.78998e+06
1.9197e+06
2.00824e+06
2.05207e+06
2.06731e+06
2.04566e+06
1.99494e+06
1.90042e+06
1.76271e+06
1.59466e+06
1.39679e+06
1.231e+06
1.10504e+06
1.0791e+06
1.12666e+06
1.36474e+06
1.44273e+06
1.56321e+06
1.48448e+06
1.17847e+06
1.09987e+06
1.08694e+06
1.1583e+06
1.27265e+06
1.4325e+06
1.56277e+06
1.6719e+06
1.74616e+06
1.78773e+06
1.80175e+06
1.78511e+06
1.74031e+06
1.66199e+06
1.54842e+06
1.41206e+06
1.2553e+06
1.14493e+06
1.06899e+06
1.07915e+06
1.15524e+06
1.46316e+06
1.53479e+06
1.67521e+06
1.59214e+06
1.226e+06
1.0927e+06
1.06059e+06
1.07803e+06
1.15013e+06
1.27036e+06
1.37603e+06
1.46573e+06
1.528e+06
1.56182e+06
1.57583e+06
1.55984e+06
1.52198e+06
1.45613e+06
1.36176e+06
1.25521e+06
1.13924e+06
1.06771e+06
1.04532e+06
1.07333e+06
1.18866e+06
1.51771e+06
1.59773e+06
1.75154e+06
1.7298e+06
1.28039e+06
1.0864e+06
1.02578e+06
1.02291e+06
1.05563e+06
1.143e+06
1.22266e+06
1.29511e+06
1.34567e+06
1.37518e+06
1.38527e+06
1.37282e+06
1.33934e+06
1.28695e+06
1.21198e+06
1.12852e+06
1.0411e+06
1.00847e+06
1.01005e+06
1.06323e+06
1.24056e+06
1.63878e+06
1.70104e+06
1.75496e+06
1.75145e+06
1.31741e+06
1.0837e+06
993545
974529
978253
1.02977e+06
1.08991e+06
1.1482e+06
1.19006e+06
1.21353e+06
1.22312e+06
1.21225e+06
1.18672e+06
1.14383e+06
1.084e+06
1.02399e+06
967289
965104
979759
1.05631e+06
1.26923e+06
1.71406e+06
1.75156e+06
1.76203e+06
1.75068e+06
1.38349e+06
1.08428e+06
960717
922241
915325
946699
987774
1.03156e+06
1.0619e+06
1.08125e+06
1.0872e+06
1.07966e+06
1.0576e+06
1.02512e+06
980042
939327
905355
911405
944340
1.05504e+06
1.31443e+06
1.71701e+06
1.75032e+06
1.7632e+06
1.73607e+06
1.43985e+06
1.08692e+06
935174
877551
864776
870535
896469
929223
952457
966145
971558
964207
948359
924267
891752
866802
855903
867563
918831
1.05754e+06
1.3797e+06
1.71568e+06
1.75101e+06
1.76215e+06
1.71275e+06
1.54487e+06
1.09879e+06
911901
835657
811596
809375
821547
844171
860233
871381
874539
870322
858155
840931
818020
804447
805840
825524
892756
1.06412e+06
1.48439e+06
1.70341e+06
1.75443e+06
1.75958e+06
1.67248e+06
1.5585e+06
1.12473e+06
903402
807092
768401
756207
755601
769632
780694
788180
791209
787287
778742
767210
752609
752801
762108
795003
880855
1.08101e+06
1.54133e+06
1.69506e+06
1.75349e+06
1.75098e+06
1.63727e+06
1.55532e+06
1.15073e+06
904184
774722
722938
707952
703587
708889
714227
719751
721249
718987
712004
705855
699331
701730
715187
763785
881404
1.1151e+06
1.54764e+06
1.67818e+06
1.74507e+06
1.73279e+06
1.6063e+06
1.55076e+06
1.20586e+06
911595
757552
691819
663542
653864
652686
655380
658816
659985
658260
654252
651002
652281
661175
685159
744773
884796
1.15652e+06
1.54077e+06
1.63968e+06
1.72195e+06
1.69577e+06
1.57324e+06
1.54007e+06
1.31562e+06
932130
743001
658754
625654
612550
608328
606651
608778
608639
607757
605321
606082
609126
619325
649218
725686
896591
1.23881e+06
1.5283e+06
1.57216e+06
1.67912e+06
1.65311e+06
1.55282e+06
1.50777e+06
1.3588e+06
955950
743818
640295
593686
572906
564893
563744
563659
563079
562247
562276
563274
571213
589787
630171
726271
926797
1.3689e+06
1.50402e+06
1.52608e+06
1.63884e+06
1.60005e+06
1.52635e+06
1.44334e+06
1.35625e+06
1.0077e+06
750850
621039
564489
540916
531272
526632
526379
524560
525220
525549
529240
537868
558982
610085
729684
964641
1.36663e+06
1.44928e+06
1.49799e+06
1.61194e+06
1.55492e+06
1.49234e+06
1.36873e+06
1.348e+06
1.11181e+06
769510
621162
547470
513033
497782
493257
491078
490130
490497
492105
496060
510371
541266
610086
741643
1.04034e+06
1.35885e+06
1.3812e+06
1.48621e+06
1.56571e+06
1.52261e+06
1.45965e+06
1.30146e+06
1.32154e+06
1.19676e+06
794137
623615
533386
490886
473454
465083
462663
460618
462531
464112
470894
486222
524980
614067
771100
1.19796e+06
1.34019e+06
1.32061e+06
1.46433e+06
1.50509e+06
1.48332e+06
1.43109e+06
1.25675e+06
1.26785e+06
1.1946e+06
846890
633840
533726
474791
448312
439519
435413
434170
435116
438570
446571
471289
523180
620898
812101
1.1967e+06
1.29732e+06
1.27006e+06
1.42765e+06
1.46748e+06
1.43583e+06
1.39354e+06
1.22575e+06
1.20548e+06
1.18286e+06
953828
656379
536785
467390
433862
418730
414093
411203
413438
417747
430315
460684
524645
639375
893469
1.18657e+06
1.22196e+06
1.23201e+06
1.38934e+06
1.4289e+06
1.401e+06
1.35759e+06
1.20633e+06
1.14684e+06
1.14973e+06
1.02797e+06
690716
542538
467655
421033
401181
393152
390762
392277
399345
416432
460965
532897
681325
1.06068e+06
1.16266e+06
1.15565e+06
1.20735e+06
1.35109e+06
1.3906e+06
1.35894e+06
1.32214e+06
1.19414e+06
1.10561e+06
1.08363e+06
1.02338e+06
763591
560103
470704
419878
390109
378632
373796
377500
388094
412447
462546
549330
756521
1.05577e+06
1.11047e+06
1.10713e+06
1.18771e+06
1.31996e+06
1.36199e+06
1.31074e+06
1.2743e+06
1.18157e+06
1.06984e+06
1.02379e+06
1.00926e+06
910869
596655
479549
420761
385826
367138
361272
365724
383502
412896
468197
582799
909913
1.03745e+06
1.04816e+06
1.06832e+06
1.17921e+06
1.28509e+06
1.32291e+06
1.26358e+06
1.23498e+06
1.16222e+06
1.04881e+06
978963
975522
908359
662970
496400
422902
386098
364560
352795
362741
383849
416242
484153
655400
909929
997213
1.00185e+06
1.04717e+06
1.16276e+06
1.23974e+06
1.269e+06
1.16889e+06
1.17618e+06
1.13327e+06
1.02909e+06
943516
926358
898878
800370
532618
431501
388133
364887
353081
363018
385229
424997
514060
798979
901391
939492
961014
1.0285e+06
1.1348e+06
1.17793e+06
1.17307e+06
1.03534e+06
1.09818e+06
1.07717e+06
1.00841e+06
918674
878825
874339
800171
607317
452389
394854
366739
354791
364612
390769
445870
574711
802954
877871
884253
930495
1.00794e+06
1.08028e+06
1.10136e+06
1.04048e+06
111985
108410
110357
109066
106017
102405
101331
100884
100434
99758.6
99780.5
100701
100167
100053
100183
100801
102125
102755
103562
104044
104311
104759
105082
105234
105153
104539
100876
80287.7
60736.3
56365.3
108417
108464
108962
108456
106204
103237
101470
100425
97741.6
97760.8
97611.9
98791.6
98867.7
99181.6
99859.8
100876
101898
103054
103617
104417
105221
105800
106057
106585
106655
106547
106078
99666.9
70717.7
58433.4
106650
108829
107891
107997
106017
103286
100426
98432.8
95678.1
95777.1
95815.8
97508
97904.1
98836.9
99762.2
100982
101867
102872
104127
105148
105792
106479
106986
108123
109465
109680
109506
107704
89137.5
65693
105739
109047
106604
106787
105403
103346
99326.4
96316.5
93398.3
93634.7
94621.9
96523.8
97184.7
98758.1
99750.8
101443
101894
102880
104128
105587
106271
107165
108074
109473
111151
112371
112870
113569
111822
102169
103558
106002
105064
105028
103102
99023.3
96129.7
93543.1
91375.7
92162.9
94127.5
95841.3
96851.8
98834.7
99738.8
101312
101982
102901
104264
105712
106917
108196
109486
110811
112358
113834
116217
121778
138423
177893
102450
104446
103172
102656
100029
96184.2
93249.3
91204.4
90118.5
91523.9
93896.3
95357
97204.2
99144.5
99961.8
101333
102160
103104
104485
105941
107397
108838
110215
111680
113190
115824
121317
135583
187343
202617
102130
103782
102272
101540
98536
94810.1
91862.4
90105.4
89543.9
91336.9
93821
95469.9
97894.2
99351.3
100240
101414
102359
103352
104686
106163
107769
109154
110570
112184
114482
119241
129773
158777
212590
212483
102043
103588
101889
101062
97852.5
94375
91415.5
89840.4
89434.3
91710
94063.5
95944.1
98392.4
99641.5
100467
101625
102707
103623
104884
106306
108007
109368
110833
112886
116844
125188
144965
204084
221860
217954
102018
103553
101756
100916
97619.9
94353
91409.6
90328.1
90252.3
92364.8
94906.2
96802.5
99199
100208
100787
101997
103063
103916
105103
106405
108120
109672
111496
114547
120797
134614
170184
221347
225962
221524
102075
103689
101735
100911
97584.8
94771.6
92418.8
91109.8
91422.5
93401.4
95874.5
97490.9
100101
100575
101338
102819
103492
104336
105418
106690
108333
110089
112463
117142
127045
150260
210055
228258
228100
223233
102495
103996
101864
101346
98629.2
96148.6
93357.9
92088
92562.7
94637.8
96948.4
98001.8
100636
101483
102489
103246
103919
104754
105676
107137
108798
110826
114170
121096
136461
179185
224856
231744
229643
223717
103448
104614
102677
102877
99818.4
96942.6
94118.4
93379.6
93949.4
95736.1
97558.4
99071.1
101039
101892
102902
103683
104447
105350
106378
107835
109586
112061
116890
127151
151014
211209
229478
233135
230417
223656
104716
105354
103850
103746
100320
97324.2
95170.2
94567.1
95460.7
96939.6
98380.7
99925.7
101521
102193
103059
103997
104963
105856
107106
108618
110617
113899
120705
135599
175866
221790
230762
233373
230541
223611
105991
106667
105218
104128
100423
97507.7
95971.8
95610.8
96231.4
97568.3
99165.7
100687
101804
102483
103108
104241
105364
106374
107750
109438
111896
116484
126209
148700
203870
223583
230992
233147
230587
223589
107066
107460
105924
104268
100439
97581.6
96371.7
96154.9
96549
97987.5
99534.7
100990
101891
102512
103273
104477
105643
106711
108275
110309
113478
119999
133970
171298
212807
223636
230593
230855
228552
223598
108158
107765
106274
104336
100440
97577.3
96470.3
96293.2
96621.1
98031.3
99669.9
101039
101714
102521
103561
104853
105847
106955
108828
111407
115803
125120
146625
198096
214160
222387
228007
229163
227438
223573
109002
107810
106455
104364
100083
97400.9
96426.2
96282.7
96542.8
97892.9
99705.3
100765
101104
102849
103680
105183
106067
107331
109609
112965
119373
133060
169400
206400
214156
218789
226224
228047
226731
223906
109349
107821
106529
104051
99188.4
96865.4
96059.7
95873.8
96228.7
97905
99152.1
99491.3
101230
102961
103916
105575
106481
108055
110885
115365
124840
146487
193585
207619
213685
217806
225243
227487
226054
225193
109113
107517
106467
102812
98427.8
96530.4
95818.5
95659.1
96019.5
97671.8
98458.9
99186.9
101242
103114
104091
106031
107195
109251
112920
119449
133715
172414
200850
207576
211657
217398
224779
227190
225461
225861
109017
107048
105809
101237
97528.8
95888.8
95250
95098.1
95524.3
96811.2
97029.4
99081.4
101248
103229
104596
106705
108219
111096
116060
126168
149514
191611
201996
205282
209462
217234
224375
226393
225507
227912
107529
105580
103937
99149.8
96169.3
94850
94356.9
94264.7
95005.8
95735.1
96428.4
99226.5
101228
103548
105272
108014
110190
114197
121549
138051
178831
197047
202037
204087
209044
217211
223859
225713
225422
231313
106341
103758
102120
97033.3
94645.2
93633.4
93300.6
93257.5
94026.2
94404.2
96448.8
99260
101632
104652
107075
110632
113955
119858
132260
163450
189991
197948
201643
203363
208740
217167
222617
224868
226089
233663
103102
100769
98840.1
94614.9
92702.3
92087.9
91957.6
92078.2
93029.6
94082.8
96442
99864.2
103161
107062
111306
115522
121221
131358
155152
180377
193083
198001
199746
201863
208603
216799
220717
223748
227160
234803
100809
98207.9
96155.7
92566.5
90911.9
90405
90299.1
90816.1
91952.6
93957.8
96857.3
101316
105944
111994
118669
124771
135602
152413
170489
185609
193629
197184
195287
199584
208309
215334
218960
222418
228417
235247
89067.2
91972.6
92266.8
89928.9
88909.5
88622.4
88552.8
89609.2
90896.9
93930
97825.5
104012
111186
122106
130248
138629
148882
161493
175609
186625
192651
191955
188205
197204
207197
212968
216751
220908
229080
235351
56166.3
60441.1
79177.6
99508.9
103510
104250
104316
104143
103384
103205
103213
103088
102091
101501
100155
99460.7
99344.7
99578.9
100097
98956
99137.7
99549.7
100229
100745
102023
105359
108319
109636
107477
111248
58077.1
70151.4
98919.6
105397
106093
106335
106325
105604
104831
104506
103890
102909
102227
101562
100152
99176.4
98549
98212.4
98103.6
96880.9
96938
96942.6
99855.3
100923
102864
105732
107941
108397
107824
108029
64559.3
88308.8
107059
109042
109283
109182
108181
106999
106233
105490
104442
103038
102134
101383
100141
99091.3
98292.9
97159.5
96621.3
95104.6
95124.1
94775.3
97613.9
99833.3
102912
105752
107619
107511
108205
106194
94353.6
110301
112903
112436
112042
110840
109360
108001
107037
106036
104830
103473
102336
101371
100366
99128.2
98241.3
96496.6
95595.3
93835
92832.6
92596
95673.3
98534.3
102892
105063
106438
106262
108392
105259
176159
135635
120647
115646
113523
112004
110537
109178
107910
106521
105214
103859
102582
101320
100469
99113.2
98249.1
96229.5
94801.2
93307.7
91327.6
90525.3
92901.2
95549
98025.1
102199
104177
104585
105346
103100
203771
181654
133856
120550
115342
112823
111319
109960
108462
106901
105449
104132
102850
101538
100768
99268.8
98426
96718.2
94345.2
93084.7
90687.6
89287.9
90526.5
92692.8
95571.2
99439.5
101991
102559
103819
102015
214567
211395
155843
128756
118691
114164
111956
110345
108731
107131
105629
104306
103059
101742
101098
99582.8
98562.5
97390.3
94437.3
93022.4
90497.5
88734.7
89420.9
91323.3
94377.3
98035.6
100994
101595
103168
101696
220760
223152
200953
143344
124430
116392
112572
110561
108884
107310
105875
104496
103301
102144
101526
100156
98844.7
97947.5
94860
93363.2
90806.7
88644.4
89170
90918.4
94037.2
97390.5
100630
101193
102962
101586
225497
228352
219514
167565
133601
120119
114039
111086
109216
107685
106179
104695
103569
102607
102013
100910
99456.8
98639.7
95756
94087
91423.3
89442
89698.9
90931.6
94028.5
97159.1
100559
101063
102921
101534
227596
230372
227511
207743
148722
126222
116621
112084
109773
108088
106519
105054
103983
103064
102515
101308
99959.2
99396.5
96368
95087.2
92388.6
90602
90542.9
91916.5
94593.8
97123.8
100600
101044
102968
101496
228191
231176
231474
222771
176041
135266
120457
113799
110583
108607
107006
105589
104479
103496
102763
101646
100636
99917.3
97112.5
96040.5
93718.8
91789.3
91633.4
92910.7
95850.4
98239
101409
101439
103242
101876
227911
231597
232897
227427
209200
149483
126365
116434
111763
109345
107587
106158
105047
104027
103087
102144
101003
100467
98435
96874
95093.7
93450
92984.7
93757.8
96662.5
99490.2
102900
102396
103911
102700
227791
232082
233190
228645
220117
173386
134659
120147
113497
110286
108271
106815
105751
104710
103545
102493
101516
100892
99486.5
98074.8
96426.8
94956
94271.6
94852.8
97054.7
100033
103640
103770
104757
103838
227498
231720
232976
228849
221699
202126
147498
125544
116022
111528
109068
107436
106253
105244
103906
102671
101956
101209
100225
98948.7
96983.4
95722.9
95046.8
95486.7
97230.9
100155
103919
105338
106125
105032
227264
230712
231693
228163
220568
211553
168208
133004
119468
113094
109959
107989
106569
105537
104213
102850
102038
101296
100475
99307.5
97577.9
96028.8
95691.2
95955.7
97292.1
100169
103990
106170
107212
106160
227161
229775
229927
227362
219661
213095
197197
145185
124379
115349
111089
108611
106841
105716
104652
102997
102126
101047
100397
99351.9
97831.4
96092.7
95868.1
96079.4
97274.3
100183
104032
106577
107695
107208
227154
229530
229075
226509
218949
213138
206430
165561
131866
118814
112666
109469
107256
105885
105037
103459
102376
100864
99571.7
99249
98037.6
96111.6
95873.5
96070.8
97107.5
99774.1
104031
106769
107834
108054
227204
229172
228697
225808
217876
212781
207968
192640
144625
124046
115039
110776
108014
106281
105438
103715
102794
101268
99688.2
98776.2
97937.4
96407.1
95731.9
95887.7
96644.5
98901.5
103550
106844
107877
108416
228370
228872
228514
225407
217688
211511
207993
201164
168791
132430
118976
112782
109279
107068
105996
104105
103006
101237
99665.5
98314.4
97664.7
96432.2
95633.8
95768.2
96419.5
98186.7
102208
106661
107743
108435
231372
228743
227823
225161
217634
209852
206091
202718
191263
147219
125378
115803
111076
108190
106763
104717
103274
101359
99689.2
96922.2
96897.4
96139.4
95208.3
95314.6
95858.2
97333.4
100697
105895
107357
108487
235293
228812
227378
224839
217691
209582
204598
202848
197925
176696
136621
121017
114030
110092
107999
105567
103748
101480
99781.8
96814.1
95943.2
95563.1
94582.9
94579.4
94928
96060.6
98730.8
103849
105860
107214
237197
230020
226898
224261
217686
209423
204102
202649
199083
190290
161275
131414
119638
113905
110558
107538
104924
102026
99833.1
96892.8
94673.2
94458.3
93741.1
93597.7
93815.8
94672.7
96921.3
101766
103966
106043
238090
230629
226200
222828
217483
209483
202804
201142
199171
194182
180360
154092
131193
121490
115906
112017
107544
103646
100461
96923.4
94018.9
93179.9
92702.1
92211.5
92316
92883.9
94665.6
98438.6
100863
102818
238427
231096
224171
221097
216349
209417
200900
197433
198625
194868
186260
170282
152352
136098
126059
119943
112918
106603
101936
97448.5
93968.3
91659.3
91229.7
90645.8
90715.7
91144.2
92679.8
95866.4
98316.9
100546
238498
231484
221622
219079
214420
208652
198246
190328
193933
194137
187393
175594
161450
149171
139528
131776
123629
112103
104730
98679.3
94008.6
90516.2
89898.2
88958.5
88963.7
89160
90041.5
92096.2
91985.5
88858.5
605716
606424
606883
606383
602917
602417
601820
601849
605061
605636
604364
601900
596387
591288
587611
582240
574469
565116
555298
545907
533323
519189
503795
487701
470912
453826
437634
422389
407775
392908
379446
367696
357433
348755
341666
335824
330711
325887
321273
317045
313399
310514
308547
308257
308594
309149
309285
310031
310626
310811
310616
310435
310092
309625
308759
307496
305717
303500
301035
298226
295083
291445
287825
283821
279777
275848
271824
267573
262943
257744
251918
245541
238792
231960
225229
218776
212618
206697
200984
195483
190234
185280
180662
176452
172737
169546
166839
164482
162309
160185
158048
155925
153886
151997
150248
148617
147011
145515
144014
142722
141786
140742
140631
140682
140906
141460
142596
144987
147349
150470
154676
159840
166099
174090
181405
187677
193680
200766
211403
223689
228342
231316
233982
236620
238308
600706
597716
596638
593544
590911
586508
581090
575857
573847
573043
574470
577954
578227
577843
576897
573748
566581
557563
545840
533121
519630
505544
491552
477128
461786
447631
434983
421331
407700
394353
381711
370639
361160
353148
346588
341192
336505
332134
327969
324115
320730
318014
316229
315387
315229
315151
314932
314481
314438
314382
313660
313015
311970
310657
309098
307135
304637
301760
298906
295936
292750
289359
285767
282206
278327
274514
270631
266625
262352
257603
252232
246186
239556
232560
225501
218602
212029
205889
200200
194915
189949
185268
180900
176873
173260
170117
167422
165065
162891
160769
158632
156494
154421
152490
150723
149093
147506
146028
144537
143230
142290
141333
141179
141218
141424
141974
143155
145588
148071
151223
155309
160677
167256
173105
178936
186619
194935
203048
211166
219860
227068
231033
231741
231734
231649
578767
578028
580851
582165
582100
581283
579499
576107
573424
569374
568247
567711
566610
564961
562547
558780
553144
545789
535930
523244
509386
495129
480634
466594
452947
439946
428016
416701
405771
395240
385123
375953
367989
361065
355086
349889
345183
340632
336144
331806
327805
324334
321573
319821
318896
318195
317576
316983
316501
316168
315757
315253
314584
313905
312987
311844
310305
308232
305914
302806
299052
294599
290023
285432
280944
276533
272204
267866
263500
258793
253451
247452
240946
234090
227022
219957
213140
206811
201087
195924
191148
186561
182247
178298
174770
171686
169010
166645
164459
162334
160189
158015
155870
153851
152012
150349
148755
147259
145795
144493
143529
142655
142424
142445
142607
143108
144224
146486
149249
152092
155916
160931
166551
172141
177977
184683
191383
197941
204412
210383
214902
218252
219953
220692
221287
550781
550528
556450
560373
564634
567110
568117
571569
574735
574255
572721
569990
566431
561655
555675
548793
540926
532068
521847
510388
497842
484773
471672
458901
446645
435030
424454
414690
405746
397290
389361
381957
375226
369204
363760
358765
354023
349359
344729
340215
335980
332195
328914
326280
324312
322735
321418
320316
319376
318591
317917
317317
316669
315881
314967
313901
312614
311055
309183
306856
304107
300942
297755
294163
289780
284857
279600
274251
268811
263027
256662
249868
242845
235712
228730
222016
215525
209234
203246
197673
192525
187913
183659
179727
176173
173036
170298
167890
165715
163666
161620
159544
157465
155457
153607
151922
150365
148926
147535
146406
145418
144773
144340
144343
144430
144796
145713
147633
150752
153550
156897
160888
165700
170627
175472
180244
185037
189933
195065
200352
204061
206818
209616
212858
216228
529267
529061
534300
540020
546056
551966
557632
561035
562790
569416
572568
571168
565913
558979
550899
541191
530767
519712
508222
496571
484802
473212
461888
451041
440768
431146
422346
414361
407031
400237
394235
388662
383330
378208
373231
368322
363414
358475
353534
348685
344040
339691
335804
332520
329763
327448
325488
323841
322478
321381
320510
319804
319172
318525
317741
316752
315541
314103
312352
310118
307378
304283
300773
297056
293273
289730
285618
280280
273865
267048
260169
253185
245967
238656
231544
224846
218634
212727
206750
200906
195668
190943
186680
182831
179343
176184
173332
170740
168320
166010
163794
161658
159581
157588
155753
154111
152651
151359
150164
149097
148303
147690
147328
147326
147366
147596
148275
149811
152923
155363
157569
160545
163510
166339
169406
172946
176784
181133
185653
189743
194088
198780
204022
208866
212063
511435
510989
514439
519446
525083
531163
537587
544453
551901
556001
559494
561056
559032
552173
543176
533011
521945
510198
498176
486377
475016
464224
454243
445100
436689
428956
421889
415286
409283
404022
399182
394600
390075
385475
380756
375880
370845
365699
360529
355454
350603
346078
342047
338421
335213
332432
330052
328052
326404
325069
324000
323121
322318
321474
320483
319263
317762
315944
313771
311230
308321
305121
301655
297915
293871
289082
283629
277899
272589
267092
261149
254845
248227
241402
234597
227921
221370
215032
209363
204318
199514
194948
190651
186700
183120
179883
176910
174172
171547
169050
166619
164293
162142
160143
158276
156524
154971
153621
152475
151480
150648
149838
149258
149228
149255
149404
149882
150996
153304
155344
157437
158993
160208
162092
164900
168348
171709
175622
179987
184510
189489
194495
199495
203792
206732
494676
494198
495698
498500
502407
507151
512585
518960
529141
534998
535531
534551
534397
533320
528145
519279
508883
497681
486017
474764
464198
454761
446417
439035
432445
426476
420854
415608
410749
406392
402307
398297
394222
389969
385470
380722
375762
370681
365605
360661
355950
351566
347504
343768
340449
337564
335106
333050
331351
329953
328778
327736
326716
325604
324333
322773
320892
318677
316125
313218
309955
306361
302437
298172
293627
288787
283738
278415
272447
266093
259583
253092
246490
239941
233257
226944
221040
215565
210450
205631
201089
196814
192809
189067
185578
182327
179284
176524
173806
171273
168832
166557
164423
162394
160546
158861
157291
155903
154775
153816
153050
152264
151550
151370
151370
151401
151583
152141
153354
155279
156527
157080
157835
159050
161494
165152
169687
174288
178492
182390
186371
189496
191902
194530
196396
480654
479273
478960
478933
479560
481080
483345
486398
491102
498914
500772
501327
499595
496700
493550
488692
481546
473050
464378
455923
448102
441169
435086
429753
425068
420907
417294
414065
410571
406694
402862
399066
395202
391228
387081
382711
378151
373471
368776
364188
359815
355806
352030
348635
345640
343068
340904
339115
337640
336395
335279
334176