/*--------------------------------*- C++ -*----------------------------------*\
| =========                 |                                                 |
| \\      /  F ield         | OpenFOAM: The Open Source CFD Toolbox           |
|  \\    /   O peration     | Version:  2112                                  |
|   \\  /    A nd           | Website:  www.openfoam.com                      |
|    \\/     M anipulation  |                                                 |
\*---------------------------------------------------------------------------*/
FoamFile
{
    version     2.0;
    format      ascii;
    arch        "LSB;label=32;scalar=64";
    class       volScalarField;
    location    "0.01023";
    object      T;
}
// * * * * * * * * * * * * * * * * * * * * * * * * * * * * * * * * * * * * * //

dimensions      [0 0 0 1 0 0 0];

internalField   nonuniform List<scalar> 
13875
(
1412.01
1535.57
1482.4
1487.62
1482.03
1483.94
1484.57
1484.02
1484.63
1484.5
1484.39
1484.27
1483.57
1483.92
1483.84
1483.86
1483.43
1484.73
1484.88
1483.11
1481.88
1487.65
1480.53
1532.86
1396.8
1307.02
1356.16
1318.9
1322.07
1316.59
1318.03
1322.29
1322.95
1323.89
1323.86
1323.76
1323.29
1318.1
1317.67
1318.36
1322.76
1322.95
1323.47
1322.31
1317.82
1316.7
1321.88
1319.58
1355.91
1302.2
1307.23
1340.04
1314.26
1311.72
1305.29
1305.67
1305.81
1305.48
1305
1304.77
1304.92
1306.02
1303.83
1304.05
1303.9
1305.77
1303.89
1305.96
1306.04
1305.09
1304.86
1311.07
1311.39
1335.94
1298.03
1317.37
1344.8
1314.65
1308.52
1306.03
1305.69
1304.95
1303.38
1303.54
1303.51
1302.8
1303.63
1303.91
1304.09
1304.05
1303.45
1302.43
1303.5
1304.21
1305.48
1305.36
1307.7
1313.93
1343.92
1312.69
1329.53
1342.12
1315.73
1312.37
1304.99
1306.07
1305.11
1303.48
1303.56
1303.66
1302.89
1303.32
1303.8
1304.23
1303.82
1303.29
1302.51
1304
1305.2
1304.87
1304.75
1311.74
1311.99
1338.5
1316.54
1332.21
1351.13
1318.81
1309.78
1308.01
1306.48
1304.87
1303.23
1303.79
1303.79
1302.97
1303.61
1304.1
1304.51
1304.3
1303.56
1302.63
1303.56
1304.27
1306.56
1307.28
1308.43
1319.01
1348.97
1325.89
1339
1360.47
1329
1317.47
1308.02
1307.78
1305.85
1303.58
1304.22
1304.16
1303.29
1303.67
1304.28
1304.83
1304.24
1303.58
1303.17
1304.58
1306.19
1306.49
1307.8
1317.61
1325.71
1358.14
1321.09
1359.74
1384.69
1344.06
1321.07
1316.48
1310.18
1306.63
1304.78
1304.92
1304.78
1303.84
1304.31
1305.03
1305.51
1305.22
1304.2
1303.77
1304.95
1306.16
1310
1315.31
1320.39
1341.56
1380.89
1349.93
1537.29
1508.43
1387.04
1350.51
1321.84
1316.02
1310.27
1306.71
1306.99
1306.39
1305.37
1305.42
1306.25
1306.86
1306.34
1305.67
1305.64
1307.25
1310.52
1314.18
1321.3
1349.23
1382.75
1505.62
1521.85
1835.05
1574.41
1427.09
1358.26
1338.29
1320.67
1314.16
1310.32
1309.88
1309.15
1308.08
1308.06
1308.91
1309.55
1309.19
1308.63
1308.88
1310.96
1314.1
1320.59
1337.05
1357.15
1424.86
1566.52
1827.49
2507.46
1804.24
1517.06
1406.8
1349.98
1331.7
1325.56
1318.11
1316.58
1315.06
1313.52
1313.32
1314.09
1314.91
1314.74
1314.67
1315.23
1317.74
1326.13
1330.03
1348.68
1419.32
1502.14
1797.76
2429.63
2812.64
2301.15
1735.99
1463.46
1426.21
1359.73
1339.62
1331.63
1329.45
1326.99
1325.17
1324.95
1325.44
1326.34
1326.43
1327.03
1328.31
1331.81
1339.75
1371.5
1405.46
1457.19
1731.29
2306.12
2837.16
2786.87
2653.94
2355.02
2207.59
1524.04
1414.47
1396.52
1372.72
1364.31
1357.43
1353.86
1353.19
1353.1
1354.03
1354.89
1357.76
1363.79
1375
1399.52
1421.73
1567.44
2235.07
2245.9
2686.99
2766.22
2723.08
2660.31
2744.59
2784.65
2050.47
1819.5
1520.59
1476.77
1459.11
1447.11
1442.45
1441.37
1441.13
1442.07
1443.45
1448
1459.16
1479.12
1541.89
1923.76
2101.38
2803.1
2792.62
2702.91
2701.39
2582.54
2638.85
2686.12
2690
2586.84
2369.96
2029.31
1962.34
1864.01
1764.55
1730.34
1719.53
1716.04
1717.76
1724.65
1748.89
1841.07
1962.45
1984.1
2422.22
2637.64
2735.65
2678.23
2652.14
2625.77
2500.31
2536.62
2627.91
2686.91
2655.42
2684.71
2881.99
2941.88
2931.41
3032.66
3112.37
3134.93
3144.98
3139.22
3122.02
3055.93
2904.14
2941.27
2900.14
2717.68
2661.11
2706.36
2624.71
2557.85
2533.17
2313.74
2398.23
2475.24
2529.66
2602.66
2727.24
3036.35
3414.35
3593.71
3683.63
3697.16
3690.26
3687.69
3691.05
3700.08
3701.44
3598.8
3419.71
3054.37
2739.74
2616.09
2565.02
2469.61
2404.37
2328.9
2024.12
2148.11
2302.05
2614.96
2792.88
2825.58
2958.82
3314.61
3530.26
3642.41
3672.36
3672.01
3671.57
3673.7
3674.81
3646.75
3502.49
3291.83
2963.91
2841.31
2808.39
2563.16
2269.82
2139.51
2023.88
1812.31
1878.53
2010.26
2240.19
2715.03
2837.28
2878.57
3107.03
3359.12
3500.41
3545.91
3557.3
3561.45
3560.23
3550.09
3511.15
3361.18
3121.08
2920.26
2927.52
2677.24
2203.89
2007.05
1884.08
1814.21
2459.42
2346.26
2105.17
2194.61
2504.89
2687.24
2698.58
2842.76
3080.7
3278.76
3388.97
3433.39
3442.05
3435.63
3392.24
3278.58
3068.46
2852.19
2730.24
2714.71
2483.66
2222.38
2140.09
2344.58
2450.81
3248.3
3424.32
2748.42
2302.01
2374.6
2530.38
2548.47
2659.97
2885.03
3110.43
3252
3306.27
3317.22
3305.59
3246.15
3091.78
2856.08
2657.43
2559.58
2541.74
2359.23
2326.12
2809.98
3481.22
3260.09
3627.11
3574.35
2814.66
2212.45
2212.15
2367.87
2417.59
2523.74
2736.6
2963.33
3119.23
3182.6
3191.47
3177.62
3103.03
2931.83
2701.73
2520.99
2417.63
2368.71
2189.77
2248.2
2898.86
3621.89
3674.12
3495.23
3117.77
2489.81
2059.76
2059.79
2235.69
2309.8
2415.99
2607.36
2832.33
2989.08
3053.54
3067.14
3048.43
2974.53
2805.97
2582.56
2416.44
2298.91
2235.14
2036.27
2055.29
2474.66
3122.33
3529.92
3511.35
2959.89
2250.99
1905.09
1973.32
2138.87
2208.29
2317.72
2503.26
2714.77
2868.32
2935.45
2946.35
2930.06
2853.6
2688.99
2477.59
2318.38
2201.6
2129.29
1942.27
1893.23
2255.31
2983
3543.73
3448.24
2787.86
2099.13
1822.7
1928.36
2068.08
2119.99
2231.64
2407.01
2614.03
2756.61
2817.22
2831.74
2810.69
2739.69
2585.46
2381.76
2227.89
2118.02
2064.28
1896.61
1808.58
2111.67
2831.29
3478.79
3422.21
2750.64
2042.2
1827.77
1903.78
2001.71
2042.82
2150.01
2321.66
2511.06
2650.1
2711.76
2721.7
2706.7
2637.08
2489.19
2298.19
2148.75
2044.16
1999.72
1876.97
1816.79
2039.02
2763.22
3453.19
3346.08
2602.21
1966.64
1829.69
1881.58
1956.91
1977.45
2085.58
2246.22
2429.15
2551.87
2604.77
2619.54
2599.63
2538.71
2407.49
2225.88
2080.19
1977.7
1961.99
1859.5
1823.17
1971.34
2618.3
3370.72
3306.14
2559.01
1971.5
1863.82
1872.69
1908.89
1917.18
2024.24
2183.03
2347.02
2461.29
2513.46
2521.91
2508.67
2448.23
2322.97
2156.28
2018.18
1917.69
1912.16
1853.87
1850.39
1975.51
2609.81
3360.82
3304
2536.45
1940.88
1853.21
1841.12
1878.49
1869.02
1975.32
2118.32
2275.41
2373.78
2418.29
2432.67
2414.76
2365.56
2261.66
2104.57
1971.31
1871.39
1883.95
1832.05
1852.75
1935.88
2518.09
3290.17
3272.21
2549.86
1976.13
1888.85
1841.89
1852.37
1826.43
1929.01
2070.64
2207.3
2297.65
2341.06
2347.34
2336.88
2286.18
2188.05
2047.84
1925.17
1826.7
1865.77
1829.73
1875.2
1961.29
2524.42
3258.71
3181.61
2450.86
1944.04
1884.61
1802.89
1828.05
1794.08
1902.86
2023.72
2152.15
2224.52
2257.78
2270.03
2253.9
2215.1
2135.08
2004.49
1890.33
1793.84
1835.04
1804.38
1874.89
1937.57
2456.46
3201.68
3156.69
2449.35
1994.63
1912.43
1810.48
1805.73
1769.08
1865.08
1981.61
2090.23
2157.74
2192.8
2196.43
2190.69
2149.67
2076.06
1962.86
1864.17
1768.03
1820.2
1805.95
1892.7
1970.58
2424.11
3161.93
3097.57
2400.21
1993.96
1897.19
1784.17
1774.99
1743.47
1849.34
1944.57
2045.97
2097.48
2120.5
2131.08
2117.65
2089.87
2033.12
1926.98
1836.69
1742.65
1782.67
1790.23
1887.35
1969.24
2400.4
3126.92
3055.2
2372.2
2026.27
1914.11
1804.16
1760.34
1731.29
1825.42
1910.31
1993.63
2040.08
2068.06
2068.7
2066.26
2032.82
1979.86
1890.2
1817.92
1723.82
1771.64
1796.1
1901.8
2025.52
2380.91
3064.55
3024.16
2342.39
2017.73
1908.56
1787.08
1731.18
1702.16
1811.47
1876.59
1953.87
1988.98
2004.81
2014.16
2002.95
1984.38
1947.22
1862.04
1802.27
1697.91
1738.09
1796.71
1901.77
2007.38
2331.02
2997.81
2996.66
2332.32
2024.89
1928.78
1805.4
1735.57
1697.98
1789.48
1848.57
1908.51
1939.99
1962.95
1961.52
1961.42
1932.95
1897.41
1831.07
1789.1
1684.44
1733.02
1806.92
1924.71
2025.13
2333.3
2992.96
2948.3
2289.1
2010.27
1939.03
1790.96
1715.77
1670.4
1777.48
1820.48
1878.06
1898.5
1908.14
1915.87
1905.81
1893.89
1872.32
1802.54
1769.67
1661.56
1719.76
1793.66
1938.25
1998.44
2300.85
2971.18
2929.88
2298.65
2015.53
1979.91
1816.22
1732.7
1675.57
1760.57
1792.85
1835.23
1855.21
1874.61
1871.44
1873.85
1849.52
1827.16
1778.78
1763.08
1660.48
1724.85
1815.59
1974.51
2012.09
2297.96
2950.51
2898.23
2275.45
1992.55
1994.7
1816.51
1717.07
1656.38
1747.88
1764.82
1811.05
1822.19
1826.78
1833.18
1825.95
1818.74
1807.29
1746.53
1741.86
1650.32
1716.39
1812.64
1996.48
1980.75
2281.81
2938.24
2853.84
2268.1
1976.25
1989.02
1838.14
1744.43
1673.59
1740.67
1745.52
1772.52
1784.05
1800.67
1796.18
1800.31
1778.84
1765.4
1727.37
1736.15
1656.68
1735.37
1844
1992.9
1969.39
2274.04
2887.1
2827.36
2262.3
1947.67
1983.56
1885.15
1735.92
1668.04
1730.39
1717.28
1753.03
1757.05
1759
1763.7
1758.6
1755.55
1753.52
1697.89
1722.03
1668.63
1726.01
1871.57
1987.15
1935.76
2233.29
2832.41
2792.29
2256.77
1937.99
1976.38
1929.49
1771.04
1703.28
1732.31
1706.06
1719.09
1723.74
1738.3
1732.45
1737.87
1718.79
1716.61
1687.35
1724.71
1691.73
1767.2
1944.1
1980.98
1931.69
2242.97
2791.54
2763.88
2234.57
1916.47
1954.25
1922.51
1781.32
1703.92
1732.42
1684.24
1708.16
1703.12
1701.69
1704.69
1701.22
1701.47
1710.04
1661.27
1716.37
1700.47
1775.03
1938.4
1966.17
1914.57
2234.9
2763.21
2731.69
2230.78
1915.58
1929.88
1918.49
1841.99
1749.99
1750.91
1688.92
1680.19
1674.11
1685.56
1678.24
1685.18
1668.15
1682.5
1671.78
1736.15
1731.83
1830.08
1932.24
1945.4
1919.5
2232.67
2726.44
2711.08
2215.89
1902.89
1901.8
1902.96
1900.82
1755.98
1743.29
1675.33
1680.67
1660.94
1653.32
1654.83
1653.92
1659.38
1683.34
1654.51
1730.57
1758.2
1906.51
1920.2
1918.66
1912.73
2223.51
2704.14
2672.06
2195.2
1899.42
1878.98
1877.01
1887.35
1821.04
1774.09
1703.32
1667.6
1640.41
1644.22
1634.1
1643.42
1630.09
1666.37
1682.3
1759.66
1813.29
1900.44
1898.88
1898.3
1913.49
2209.71
2679.21
2654.6
2194.11
1894.06
1867.2
1851.54
1880.09
1907.97
1796.35
1688.02
1679.74
1643.24
1620.79
1618.12
1621.94
1643.38
1682.66
1666.11
1777.63
1899.43
1882.43
1870.15
1876.56
1896.22
2189.52
2659.47
2605.77
2174.99
1890.09
1850.33
1824.07
1856.27
1887.91
1845.59
1727.69
1673.01
1633.12
1629.67
1603.94
1626.41
1619.75
1673.56
1712.33
1832.97
1898.14
1871.25
1846.4
1862.94
1890.07
2177.33
2614.59
2564.13
2157.06
1874.87
1840.41
1807.46
1826.45
1877.81
1940.79
1736.09
1698.39
1647.83
1614.36
1604.54
1615.19
1647.14
1699.65
1715.6
1925.97
1882.01
1828.6
1819.62
1847.2
1872.42
2159.51
2577.65
2394.54
2102.47
1856.83
1834.95
1791.84
1797
1855.45
1917.73
1817.94
1707.69
1640.87
1632.47
1606.96
1629.1
1624.34
1708.23
1799.14
1925.82
1863.27
1804.37
1800.62
1835.44
1853.97
2105.06
2408.16
1095.8
1043.36
975.468
883.428
790.777
709.609
646.368
597.809
559.443
533.744
516.903
505.746
496.75
489.642
482.551
475.148
467.101
459.748
452.647
445.933
439.576
433.913
428.769
423.988
419.165
414.086
408.767
403.19
397.354
392.9
1096.06
1043.33
974.043
883.311
794.607
717.737
657.604
609.165
567.361
539.063
520.204
507.84
498.319
491.441
484.709
477.937
470.279
462.738
455.066
448.603
442.104
436.385
431.339
426.641
421.995
417.044
411.91
406.441
400.97
396.872
1096.77
1045.79
976.472
888.443
803.799
729.185
668.964
617.587
575.305
545.258
523.905
509.751
499.372
492.091
485.316
478.625
471.198
463.682
455.42
449.006
443.112
437.297
432.245
427.476
422.988
418.11
413.14
407.749
402.486
398.368
1107.96
1054.45
986.761
902.734
821.074
748.037
686.617
634.404
589.992
556.794
532.577
515.811
503.441
494.745
487.308
480.603
473.36
465.819
457.616
450.767
445.01
439.335
434.216
429.479
424.987
420.212
415.44
410.459
405.499
402.042
1116.63
1065.58
1000.51
921.423
843.131
770.055
707.342
654.649
608.358
572.459
544.719
524.232
508.779
498
489.28
481.784
474.472
466.738
459
451.857
446.005
440.411
435.205
430.586
426.117
421.425
416.878
412.281
407.556
404.182
1127.15
1076.77
1014.91
940.298
865.791
793.986
731.904
678.166
630.596
592.009
560.54
535.921
516.558
502.494
491.362
482.561
475.136
467.227
460.142
453.448
447.634
442.251
436.984
432.398
428.076
423.594
419.299
415.06
410.935
408.155
1135.48
1089.4
1031.77
961.457
890.206
820.867
759.561
704.996
655.824
614.657
579.332
550.574
527.313
509.303
495.16
484.396
475.838
468.129
461.556
454.955
449.104
443.469
438.339
433.746
429.474
425.169
421.053
417.124
413.452
411.116
1146.79
1103.08
1049.05
983.889
916.42
850.293
790.701
735.229
684.274
640.638
601.766
568.962
541.692
519.42
501.677
488.129
477.99
470.136
463.875
457.541
451.388
445.512
440.585
435.77
431.472
427.469
423.819
420.395
417.285
415.48
1156.33
1117.03
1067.71
1007.74
944.965
882.38
824.714
768.771
716.05
669.93
628.15
591.447
560.243
533.784
512.13
495.133
482.544
473.482
466.772
460.363
453.639
447.616
442.452
437.519
433.28
429.491
426.342
423.564
420.727
419.21
1168.46
1131.71
1087.12
1032.74
975.302
916.587
860.742
804.743
750.76
702.062
657.942
617.777
582.93
552.45
526.766
505.954
490.083
478.699
470.457
463.513
456.635
450.364
445.007
440.33
435.986
432.345
430.007
427.926
424.929
422.985
1177.61
1146.31
1106.83
1058.35
1006.84
952.139
898.113
842.695
788.002
736.766
690.594
647.781
609.536
575.264
545.477
520.492
500.501
485.511
474.585
466.417
459.391
453.29
447.803
442.965
438.586
435.216
433.242
430.599
428.054
425.768
1186.82
1160.58
1126.4
1084.75
1038.88
988.25
936.371
881.641
826.533
774.017
725.212
680.726
639.464
601.695
567.942
538.616
514.185
494.807
480.341
470.124
462.878
456.569
450.926
445.884
441.812
438.743
436.549
434.058
432.012
430.984
1195.19
1174.45
1146.03
1111.22
1070.9
1024.56
974.899
921.172
866.107
813.005
761.921
716.299
672.305
631.194
593.605
559.921
531.038
507.138
488.467
474.964
465.995
459.44
453.985
448.79
444.527
441.289
439.287
437.57
435.628
434.767
1203.81
1188.11
1165.33
1137.17
1102.66
1060.56
1013.11
960.791
906.571
852.886
800.879
753.415
707.422
663.453
622.501
584.769
551.571
523.254
500.108
482.462
470.32
462.636
457.131
451.987
447.115
443.674
442.106
440.792
439.467
438.916
1210.69
1200.98
1184.16
1162.33
1133.68
1095.83
1051.06
1000.57
946.654
893.314
841.517
792.001
744.798
698.498
654.252
612.835
575.721
542.731
514.862
492.582
476.41
466.34
459.879
454.68
449.829
446.302
444.228
442.553
441.215
440.819
1217.02
1212.81
1202.18
1186.62
1163.56
1130.14
1088.73
1040.57
986.606
933.985
883.547
832.738
783.943
735.837
688.734
644.092
603.361
565.953
533.2
506.035
485.292
471.488
463.202
457.497
452.548
448.807
446.284
444.37
443.135
442.816
1222.71
1223.34
1218.82
1209.69
1192.08
1163.1
1125.47
1079.44
1026.98
975.638
925.434
875.02
824.532
774.735
725.471
678.098
634.02
592.467
555.031
522.758
496.878
478.073
466.51
459.804
454.768
450.696
447.664
445.504
444.472
444.116
1226.47
1233.55
1234.23
1231.26
1219.03
1194.48
1160.93
1117.23
1067.02
1017
967.359
917.5
867.05
814.848
764.117
714.572
667.548
622.238
580.358
543.034
511.81
487.799
471.46
462.156
456.942
452.757
449.134
446.874
445.971
445.729
1229.04
1243.04
1249.28
1251.1
1244.22
1224.16
1194.8
1153.84
1106.26
1057.85
1009.25
959.72
909.941
856.352
804.018
752.855
703.238
654.559
608.456
566.37
530.016
500.622
478.861
465.539
458.88
454.554
450.545
448.062
447.106
446.89
1230.55
1251.38
1263.24
1269.51
1267.62
1252.1
1226.74
1189.07
1144.38
1097.89
1050.67
1002.15
951.745
899.327
844.758
792.484
740.699
689.129
639.176
592.701
551.427
516.481
489.077
471.091
461.673
456.784
452.426
449.62
448.572
448.482
1230.85
1258.52
1275.97
1286.13
1289.03
1278.12
1256.68
1222.81
1181.25
1136.92
1091.19
1043.52
993.827
941.979
886.692
833.018
779.539
725.545
672.122
621.527
575.452
534.961
501.821
478.84
465.424
458.919
454.268
450.786
449.362
449.246
1229.55
1264.8
1287.9
1302.92
1308.72
1302.16
1284.55
1254.92
1216.61
1174.55
1130.36
1083.85
1035.32
983.751
929.485
874.209
819.385
763.435
706.959
652.452
601.654
555.593
517.016
488.751
470.332
461.061
456.052
452.017
450.294
450.305
1229.6
1270.92
1299.48
1318.76
1326.99
1324.14
1310.28
1285.03
1250.18
1210.6
1168.14
1122.95
1075.81
1025.24
970.85
916.273
859.78
802.198
743.183
685.03
629.712
578.579
534.975
500.618
476.564
463.497
457.748
453.896
452.064
452.163
1210.76
1279.26
1312.39
1334.25
1343.61
1344.09
1333.84
1313.05
1281.84
1244.98
1204.46
1160.71
1114.97
1065.34
1012.07
957.963
900.821
841.256
780.589
719.642
660.866
605.702
556.65
515.55
485.101
467.969
459.96
455.631
453.506
453.227
1232.59
1310.75
1335.13
1350.94
1360.56
1362.4
1355.32
1338.91
1311.47
1277.54
1239.13
1196.93
1152.43
1104.41
1052.18
998.23
941.852
880.242
818.748
756.068
694.758
635.983
581.881
534.539
497.139
473.657
462.114
456.569
454.16
453.829
390.967
395.299
400.945
406.714
411.748
416.445
421.48
426.213
431.681
437.765
444.085
450.515
457.85
465.52
472.868
480.01
486.985
493.598
501.961
512.698
529.022
554.499
592.361
642.007
706.082
789.323
884.759
978.066
1047.29
1100.85
395.151
399.23
404.534
409.958
415.04
419.662
424.176
428.886
434.348
440.337
446.568
453.418
460.948
468.517
475.903
482.315
488.586
495.078
503.941
515.802
534.055
562.598
603.744
652.85
713.794
792.417
884.055
976.315
1046.96
1100.68
396.686
400.865
406.025
411.135
416.255
421.11
425.243
429.879
435.11
441.067
447.074
454.353
462.01
469.586
476.96
483.001
489.101
495.917
505.829
519.613
540.388
570.505
612.806
664.029
724.912
800.871
888.295
978.424
1048.93
1100.96
400.722
404.177
408.806
413.658
418.685
423.516
428.06
431.999
437.228
442.994
448.568
455.488
463.597
471.191
478.432
484.817
491.568
499.682
511.562
527.906
551.738
584.823
629.029
682.982
744.301
818.091
901.893
988.484
1057.6
1111.98
403.632
406.328
410.652
415.231
419.919
424.675
429.248
433.34
438.37
444.175
449.983
456.373
464.22
471.937
479.132
486.436
494.472
504.872
519.852
539.833
567.144
602.959
649.26
703.639
767.047
840.158
920.408
1002.07
1068.67
1120.61
407.529
409.858
413.801
417.953
422.059
426.642
431.101
435.582
440.38
445.885
451.651
458.157
465.048
472.666
479.737
488.291
498.607
512.518
531.474
555.731
586.829
625.161
672.831
727.894
790.993
863.06
939.265
1016.19
1079.8
1130.63
409.786
412.548
416.158
419.994
423.741
427.71
432.237
437.337
442.195
447.168
453.228
459.724
466.385
473.936
482.416
492.895
506.196
523.782
546.635
575.17
610.197
650.919
699.692
755.711
817.839
887.591
960.263
1032.79
1092.43
1139.33
413.427
416.045
419.278
422.697
426.304
429.918
434.195
439.437
444.47
449.649
456.032
462.257
468.662
476.74
486.933
500.195
517.278
538.989
565.752
598.381
637.166
680.05
729.978
786.753
847.227
913.848
982.818
1050.15
1106.23
1150.57
415.993
418.62
421.709
424.919
428.38
431.957
436.021
441.139
446.318
452.349
459.092
465.367
472.138
481.405
494.181
511.089
532.315
558.234
588.793
625.074
666.906
711.896
763.571
820.661
879.032
942.104
1006.56
1068.78
1120.31
1160.08
419.956
422.153
424.92
427.704
430.917
434.699
438.98
443.771
449.1
455.566
462.241
469.35
477.495
488.931
504.945
525.67
551.057
581.122
615.321
654.838
699.045
746.239
799.561
856.714
912.917
972.147
1031.47
1088.3
1135.14
1171.93
423.566
425.312
427.627
430.27
433.119
436.976
441.574
446.603
451.895
458.133
465.081
473.485
484.328
499.106
518.974
543.765
573.211
607.097
644.72
686.809
733.041
782.711
836.716
893.77
948.214
1003.49
1056.99
1108.11
1149.85
1181.15
428.389
429.898
431.395
433.472
435.924
439.583
444.3
449.583
455.578
461.634
468.93
478.992
493.171
512.138
536.167
565.09
598.39
635.659
676.356
720.238
768.828
820.201
874.911
931.388
984.074
1035.36
1083.18
1127.81
1164.19
1190.25
433.499
434.416
436.307
436.488
438.523
442.015
446.567
452.155
457.993
464.804
473.463
486.235
504.322
527.656
555.947
589.133
626.152
666.81
710.238
755.397
806.169
858.568
913.605
969.435
1020.02
1067.22
1109.58
1147.44
1178
1198.4
437.787
437.919
439.399
440.435
441.661
444.995
449.613
455.505
461.259
468.602
479.812
496.444
518.647
546.243
578.713
615.846
656.198
699.791
745.412
792.481
844.392
897.551
952.334
1007.14
1055.5
1098.58
1135.6
1166.8
1191.49
1207.21
439.908
440.141
441.602
443.487
444.696
447.984
452.928
458.507
464.485
473.606
488.317
509.363
535.919
567.893
604.268
645.113
688.852
734.895
782.05
831.445
883.462
936.645
991.279
1044.34
1090.35
1129.45
1160.8
1185.62
1204.37
1214.23
441.661
441.866
443.319
445.506
447.732
451.195
456.323
461.513
468.761
480.943
499.947
525.452
556.553
592.812
632.892
677.065
723.95
772.029
820.856
872.149
923.168
975.819
1030.19
1081.17
1124.41
1159.39
1185.18
1203.85
1216.19
1220.74
442.918
443.185
444.446
446.973
449.953
453.818
458.705
464.261
474.009
490.475
514.394
544.692
580.39
620.753
664.335
711.44
760.962
810.947
861.713
913.038
963.678
1015.62
1068.51
1117.41
1157.34
1188.09
1208.63
1220.64
1226.71
1226.23
444.753
444.735
445.775
448.522
452.181
456.229
460.95
468.059
481.826
503.321
532.083
567.416
607.701
651.918
698.657
748.198
799.611
851.993
903.389
954.322
1004.69
1055.26
1105.9
1152.63
1188.86
1215.41
1230.49
1236.51
1236.92
1230.23
446.259
445.928
446.986
449.895
454.008
458.063
463.457
473.666
492.528
519.211
553.058
593.269
638.107
685.949
735.529
786.981
839.992
894.312
945.367
996.213
1045.56
1094.47
1142.46
1186.57
1218.86
1241.04
1250.67
1250.3
1246.16
1233.23
447.313
447.129
448.354
451.637
456.112
460.257
467.505
482.13
506.224
538.347
577.335
622.274
671.429
722.531
774.501
827.273
882.163
936.695
987.916
1037.88
1085.95
1132.91
1178.02
1218.87
1247.24
1264.9
1269.27
1264.48
1254.35
1234.92
447.877
447.882
449.371
453.124
458.017
463.066
473.271
492.981
522.756
560.612
604.727
654.264
707.387
761.238
815.04
868.895
925.119
979.267
1029.48
1078.69
1125.46
1170.32
1212.35
1249.4
1273.84
1286.89
1285.94
1277.26
1261.32
1235.35
448.725
448.88
450.535
454.521
459.854
467.013
481.502
506.795
542.311
585.901
635.117
688.954
745.549
801.589
856.638
912.007
967.422
1021.72
1070.74
1118.57
1163.77
1206.31
1244.97
1278.07
1298.6
1307.06
1302.73
1289.18
1267.47
1233.9
450.578
450.841
452.834
456.517
461.935
472.169
492.167
523.625
564.839
613.977
668.018
725.709
785.118
842.824
899.213
954.61
1009.79
1062.71
1111.18
1157.26
1200.63
1240.58
1275.68
1304.76
1321.43
1325.65
1318.58
1300.94
1273.84
1233.91
451.789
452.218
454.5
458.681
465.178
479.19
505.717
544.335
591.601
645.635
703.602
764.247
825.508
884.649
942.219
996.621
1050.97
1102.87
1149.87
1194.34
1235.79
1273.04
1304.42
1329.44
1342.36
1342.67
1334.23
1314.32
1282.34
1215.74
452.428
452.957
455.52
460.441
469.572
489.355
523.725
569.396
622.261
680.47
741.407
803.985
866.093
927.129
983.982
1038.1
1091.35
1141.8
1186.77
1229.56
1268.96
1303.48
1331.3
1352.26
1361.58
1359.88
1351.18
1337.51
1313.14
1236.14
1263.12
1320.53
1344.37
1388.2
1415.8
1451.49
1480.65
1510.35
1537.55
1563.21
1587.31
1609.75
1630.8
1650.48
1668.95
1686.31
1702.7
1718.2
1732.81
1746.53
1759.5
1771.96
1783.86
1794.74
1804.72
1814.1
1823.12
1831.58
1839.51
1846.9
1853.73
1859.98
1865.67
1870.76
1875.26
1879.15
1882.41
1885.02
1886.98
1888.17
1888.7
1888.65
1887.84
1886.1
1883.72
1880.88
1876.6
1871.69
1866.04
1859.53
1852.26
1844.03
1835.11
1825.45
1815.06
1803.95
1792.04
1779.38
1765.87
1751.47
1736.13
1719.85
1702.6
1684.36
1665.14
1644.91
1623.7
1601.53
1578.4
1554.38
1529.39
1503.5
1476.88
1449.24
1420.93
1391.88
1361.89
1331.75
1300.6
1268.67
1237.14
1204.16
1170.55
1137.79
1102.78
1066.24
1031.74
995.892
958.794
921.912
884.389
847.101
810.196
774.047
739.313
706.322
675.344
646.734
620.831
597.075
575.746
556.851
540.056
525.366
512.622
501.912
492.46
484.708
478.221
472.539
467.761
464.369
461.977
459.931
458.1
456.757
456.06
455.52
455.151
454.553
454.542
454.482
454.517
454.128
453.27
1387.88
1426.68
1457.13
1489.57
1519.11
1548.39
1575.7
1601.7
1626.17
1649.2
1670.87
1691.26
1710.48
1728.61
1745.76
1761.99
1777.37
1791.95
1805.78
1818.92
1831.45
1843.31
1854.55
1865.05
1874.89
1884.19
1893
1901.35
1909.23
1916.61
1923.47
1929.81
1935.62
1940.87
1945.55
1949.65
1953.13
1955.98
1958.18
1959.71
1960.48
1960.65
1960.11
1958.78
1956.7
1953.83
1950.06
1945.47
1940.06
1933.82
1926.78
1919.13
1910.41
1901.03
1890.9
1880.01
1868.25
1855.76
1842.45
1828.3
1813.28
1797.29
1780.33
1762.39
1743.48
1723.61
1702.79
1681.03
1658.38
1634.85
1610.53
1585.45
1559.5
1532.77
1505.25
1477.13
1448.41
1419.14
1389.17
1358.67
1327.7
1296.12
1264.11
1231.62
1198.16
1164.18
1130.66
1096.48
1061.59
1026.94
991.637
956.394
921.427
887.099
853.724
821.624
791.018
762.217
735.121
709.439
685.28
662.247
640.487
619.872
600.198
582.055
564.701
548.756
534.077
520.383
507.898
497.263
488.394
480.923
474.428
469.108
464.963
461.907
459.717
458.004
456.53
455.929
455.673
455.033
453.958
1476.1
1507.59
1537.6
1566.7
1594.53
1621.25
1646.55
1670.48
1693.2
1714.65
1734.93
1754.16
1772.4
1789.73
1806.23
1821.94
1836.91
1851.18
1864.77
1877.73
1890.04
1901.79
1912.91
1923.39
1933.29
1942.68
1951.62
1960.13
1968.19
1975.78
1982.88
1989.49
1995.56
2001.09
2006.05
2010.42
2014.18
2017.31
2019.8
2021.62
2022.72
2023.13
2022.9
2021.89
2020.09
2017.48
2014.01
2009.67
2004.47
1998.42
1991.56
1983.92
1975.45
1966.23
1956.31
1945.73
1934.08
1921.72
1908.53
1894.38
1879.23
1863.05
1845.95
1827.92
1808.99
1789.1
1768.27
1746.52
1723.94
1700.56
1676.44
1651.63
1626.18
1600.12
1573.54
1546.31
1518.43
1490.1
1461.44
1432.41
1403
1373.2
1343.07
1312.59
1281.73
1250.68
1219.59
1188.1
1156.17
1123.96
1091.63
1059.44
1027.51
995.993
965.217
935.246
905.939
877.61
850.21
823.62
797.795
772.581
748.115
724.321
701.074
678.934
657.363
636.79
617.205
598.245
579.806
562.276
546.012
530.816
516.644
504.04
493.109
483.764
476.408
470.278
465.46
462.509
460.679
458.743
456.91
1555.35
1583.5
1612.28
1639.5
1665.67
1690.69
1714.47
1737.06
1758.55
1778.98
1798.39
1816.95
1834.69
1851.67
1867.92
1883.5
1898.41
1912.66
1926.29
1939.33
1951.8
1963.72
1975.03
1985.74
1995.92
2005.67
2015.01
2023.94
2032.44
2040.5
2048.07
2055.14
2061.67
2067.64
2073.03
2077.81
2081.97
2085.51
2088.41
2090.67
2092.26
2093.08
2093.27
2092.71
2091.34
2089.12
2086
2081.98
2077.05
2071.22
2064.52
2056.97
2048.6
2039.43
2029.48
2018.76
2007.16
1994.7
1981.32
1967
1951.86
1935.37
1917.98
1899.59
1880.1
1859.49
1838.07
1815.88
1792.96
1769.35
1745.06
1720.13
1694.69
1668.77
1642.45
1615.72
1588.64
1561.05
1533.07
1504.91
1476.6
1448.15
1419.54
1390.77
1361.82
1332.77
1303.69
1274.51
1245.22
1215.84
1186.41
1156.91
1127.39
1098.11
1069.22
1040.83
1013.07
985.868
959.097
932.852
906.983
881.291
855.939
830.897
806.161
782.098
758.424
735.349
712.807
690.516
668.409
646.721
625.854
605.238
585.017
566.005
547.882
530.114
514.062
499.823
487.961
479.214
473.115
467.735
463.27
1632.53
1659.19
1686.99
1712.85
1737.72
1761.5
1784.19
1805.85
1826.55
1846.37
1865.38
1883.66
1901.25
1918.19
1934.52
1950.25
1965.39
1979.87
1993.8
2007.21
2020.11
2032.45
2044.18
2055.36
2066.09
2076.46
2086.42
2096.03
2105.19
2113.9
2122.12
2129.8
2136.92
2143.47
2149.39
2154.69
2159.37
2163.44
2166.91
2169.76
2171.97
2173.48
2174.21
2174.29
2173.53
2171.87
2169.24
2165.62
2161.02
2155.44
2148.92
2141.47
2133.11
2123.87
2113.77
2102.79
2090.9
2078.04
2064.15
2049.19
2033.19
2016.02
1997.8
1978.59
1958.48
1937.1
1914.93
1891.96
1868.11
1843.37
1818.11
1792.5
1766.61
1740.43
1713.95
1687.19
1660.29
1633.29
1606.16
1578.75
1551.16
1523.63
1496.13
1468.66
1441.24
1413.9
1386.63
1359.4
1332.19
1304.98
1277.83
1250.73
1223.73
1196.87
1170.18
1143.61
1117.2
1090.94
1064.82
1038.93
1013.31
987.908
962.5
937.407
912.653
887.883
863.137
838.624
814.306
790.012
765.619
741.217
716.996
692.64
667.776
643.151
619.729
596.466
573.351
551.319
531.011
513.222
499.146
487.239
477.029
1709.26
1735.7
1762.71
1787.63
1811.61
1834.59
1856.62
1877.76
1898.09
1917.7
1936.64
1954.97
1972.72
1989.91
2006.57
2022.68
2038.23
2053.21
2067.68
2081.71
2095.23
2108.15
2120.46
2132.28
2143.78
2154.96
2165.61
2176.05
2185.97
2195.41
2204.3
2212.61
2220.34
2227.48
2233.96
2239.81
2245.07
2249.75
2253.9
2257.49
2260.48
2262.85
2264.51
2265.3
2265.37
2264.43
2262.43
2259.32
2255.13
2249.89
2243.61
2236.3
2227.99
2218.66
2208.3
2196.93
2184.54
2171.03
2156.27
2140.27
2123.04
2104.6
2085.01
2064.33
2042.63
2019.9
1996.28
1971.88
1946.83
1921.11
1894.79
1868.13
1841.13
1813.65
1786.19
1758.83
1731.64
1704.53
1677.52
1650.64
1624
1597.39
1570.75
1544.34
1518.17
1492.23
1466.48
1440.89
1415.42
1390.07
1364.79
1339.59
1314.5
1289.51
1264.63
1239.88
1215.22
1190.58
1165.95
1141.23
1116.33
1091.29
1066.09
1040.96
1016.05
990.759
965.974
941.272
916.132
890.732
864.932
838.72
812.273
785.353
757.393
728.984
701.194
673.322
645.14
617.368
590.048
564.172
542.198
522.947
504.764
1785.89
1813
1839.58
1863.91
1887.42
1909.99
1931.71
1952.68
1972.99
1992.69
2011.83
2030.46
2048.59
2066.23
2083.38
2100.01
2116.12
2131.69
2146.79
2161.5
2175.66
2189.15
2202.02
2214.48
2226.71
2238.61
2250.05
2261.06
2271.55
2281.5
2290.88
2299.55
2307.61
2315.25
2322.13
2328.4
2334.1
2339.3
2344.05
2348.4
2352.22
2355.52
2358.24
2360.13
2360.93
2360.87
2359.61
2357.15
2353.56
2348.92
2343.19
2336.36
2328.42
2319.27
2308.85
2297.17
2284.39
2270.2
2254.37
2237.08
2218.41
2198.41
2177.13
2154.66
2131.07
2106.45
2080.89
2054.51
2027.45
1999.8
1971.71
1943.45
1915.21
1886.47
1858.04
1829.65
1801.34
1773.19
1745.51
1718.4
1691.88
1665.78
1640.23
1614.92
1589.78
1565.01
1540.55
1516.35
1492.4
1468.63
1444.97
1421.4
1397.91
1374.51
1351.16
1327.84
1304.51
1281.16
1257.76
1234.29
1210.68
1186.9
1162.94
1138.81
1114.27
1089.27
1064.16
1038.65
1012.72
987.234
960.825
933.72
905.984
877.475
847.823
817.201
786.238
754.86
723.166
691.377
659.132
626.968
597.685
571.346
546.699
1862.33
1890.85
1917.22
1941.3
1964.69
1987.12
2008.82
2029.87
2050.34
2070.3
2089.78
2108.79
2127.36
2145.46
2163.07
2180.16
2196.72
2212.74
2228.28
2243.4
2257.84
2271.54
2284.63
2297.34
2309.81
2321.92
2333.44
2344.38
2354.7
2364.38
2373.43
2381.9
2389.81
2397.16
2403.81
2409.87
2415.42
2420.5
2425.08
2429.73
2433.64
2437.02
2440.35
2442.82
2444.48
2444.93
2444.54
2443.05
2440.64
2437.39
2433.09
2427.74
2421.41
2413.64
2404.03
2392.56
2380.26
2366.21
2349.94
2331.91
2312.37
2291.36
2268.8
2244.78
2219.52
2193.34
2166.05