/*--------------------------------*- C++ -*----------------------------------*\
| =========                 |                                                 |
| \\      /  F ield         | OpenFOAM: The Open Source CFD Toolbox           |
|  \\    /   O peration     | Version:  2112                                  |
|   \\  /    A nd           | Website:  www.openfoam.com                      |
|    \\/     M anipulation  |                                                 |
\*---------------------------------------------------------------------------*/
FoamFile
{
    version     2.0;
    format      ascii;
    arch        "LSB;label=32;scalar=64";
    class       volScalarField;
    location    "0.0105";
    object      k;
}
// * * * * * * * * * * * * * * * * * * * * * * * * * * * * * * * * * * * * * //

dimensions      [0 2 -2 0 0 0 0];

internalField   nonuniform List<scalar> 
13875
(
812.102
3462.67
3540.49
3539.41
3541.64
3539.71
3540.37
3539.26
3541
3543.3
3541.62
3540.47
3540.37
3540.08
3540.45
3541.2
3541.92
3541.13
3540.74
3540.25
3541.15
3539.02
3540.03
3462.28
820.382
881.795
2936.66
3013.13
3000.73
3001.1
2998.75
2996.89
2995.9
2995.91
2996.87
2995.97
2997.82
2996.36
2996.34
2996.19
2998.51
2996.24
2997.09
2996.96
2998.61
3000.45
2999.29
3011.64
2935.14
894.248
993.357
2710.87
2777.51
2755.35
2758.74
2755.87
2746.5
2743.04
2741.83
2741.55
2740.21
2743.72
2751.3
2752.17
2750.89
2744.65
2741.2
2742.72
2745.3
2755.1
2757.67
2753.16
2774.55
2707.29
998.066
1091.06
2533.67
2580.98
2561.47
2566.59
2563.45
2552.79
2548.83
2548.17
2547.51
2545.7
2547.71
2559.18
2560.04
2558.86
2548.67
2547.31
2547.56
2551.15
2562.92
2565.49
2559.4
2579.2
2529.66
1093.68
1172.1
2380.42
2413.1
2392.77
2397.85
2394.87
2383.56
2380.67
2380.08
2379.06
2377.64
2378.9
2390.19
2391.43
2389.91
2379.75
2379.17
2379.04
2382.34
2393.91
2396.78
2391.17
2410.52
2375.36
1177.25
1241.01
2237.08
2270.82
2244.73
2251.02
2246.5
2233.99
2231.89
2231.33
2230.06
2228.96
2229.43
2240.74
2242.33
2240.53
2230.2
2230.47
2229.92
2233.09
2245.69
2249.94
2243.74
2267.93
2247.08
1247.25
1320.99
2121.78
2158.18
2120.11
2122.91
2116.31
2101.81
2099.91
2099.34
2097.58
2096.87
2096.58
2108
2109.73
2107.58
2097.23
2098.52
2097.67
2101.54
2115.48
2121.66
2119.76
2154.09
2095.53
1323.46
1409.8
2000.71
2073.42
2019.33
2015.97
2003.18
1985.84
1982.96
1981.97
1979.72
1979.52
1978.23
1989.89
1991.94
1989.48
1978.81
1981.39
1980.53
1985.42
2002.15
2013.93
2017.99
2068.33
1992.8
1420.41
1691.51
2029.48
2021.79
1944.12
1924.48
1905.18
1883.62
1880.01
1878.57
1875.68
1876.04
1873.78
1885.64
1888.04
1885.45
1874.65
1878.06
1877.17
1883.3
1903.82
1922.35
1942.18
2017.82
2033.59
1716.62
2509.35
2285.58
2018.09
1900.88
1858.36
1826.34
1802.39
1797.58
1795.24
1791.96
1792.62
1789.93
1801.37
1804.05
1801.56
1791.99
1794.93
1795.06
1801.29
1824.64
1855.55
1891.49
2011.39
2266.27
2529.65
3877.32
3026.54
2153.53
1915.39
1814.43
1772.76
1745.91
1736.87
1732.44
1728.71
1729.17
1726.4
1736.87
1739.86
1738.15
1731.09
1733.26
1735.16
1744.96
1768.15
1813.18
1907.1
2129.49
2936.67
3858.8
5185.84
6451.34
2854.01
1994.49
1853.71
1757.04
1714
1698.84
1690.68
1686.22
1685.99
1683.54
1692.1
1695.47
1695.03
1690.87
1693.03
1698.03
1712.32
1757.72
1846.94
1973.79
2789.55
6314.76
5120.12
5056.64
7606.47
7058.97
3347.49
2045.36
1799.54
1743.42
1702.74
1685.22
1677
1674.53
1671.79
1677.84
1681.45
1683.06
1683.21
1690.16
1706.72
1746.54
1804.02
2088.96
3232.57
6763.72
7643.52
5009.54
4826.46
6348.49
7176.75
8751.55
5185.43
2331.12
1901
1784.18
1747.7
1743.13
1741.02
1738.67
1743.5
1746.85
1749.84
1752.8
1758.13
1792.47
1941.23
2483.84
5618.79
8154.3
6954.98
6327.95
4832.54
4603.23
5507.12
6040.64
6995.32
6858.88
6719.14
3420.79
2379.45
2128.45
2035.01
1995.88
1981.84
1982.28
1986.82
1998.45
2030.38
2120.37
2387.5
3632.33
6900.09
6815.73
6705.03
5964.58
5485.17
4681.14
4292.7
4796.03
5114.37
5883.42
6081.07
6574.12
5567.48
5182.33
4839.89
4180.93
4265.65
4317.31
4360.5
4346.64
4285.16
4185.72
4753.55
5439.12
5663.12
6634.79
5996.05
5706.53
5070.54
4777.1
4365.12
3726.71
4038.16
4337.49
5070.35
5594.08
6490.22
7315.76
7554.53
6680.01
6242.87
6507.83
6741.92
6873.78
6820.27
6573.72
6545.79
6712.41
7559.46
7348.72
6459.17
5431.1
4899.44
4223.76
3959.37
3719.14
3062.47
3406.34
3951.56
4864.3
5499.08
6087.92
7094.74
7769.54
6507.6
5475.34
5210.96
5238.53
5306.16
5271.3
5269.93
5782.66
6517.46
7430.49
7029.3
6212.21
5536.84
4806.35
3859.8
3344.96
3026.67
2639.67
3169.08
3859.47
5061.87
5955.27
5764.44
6080.47
6768.65
6120.7
5172.62
4688.61
4546.15
4537
4590.76
4786.12
5319.11
5963.96
6452.91
6060.13
5962.35
6258.74
5093.08
3842.38
3153.87
2643.96
2524.49
3407.67
4090.43
5193.38
5755.31
5299.45
5248.47
5721.89
5564.2
4950.47
4419.89
4091.66
3978.59
4164.14
4553.78
5031.98
5362.05
5470.05
5259.67
5490
5958.71
5175.74
4096.56
3429.04
2520.59
5072.12
7673.64
6224.98
4833.6
4993.92
4647.07
4573.73
4969.77
5033.48
4625.05
4087.34
3658.24
3503.92
3767.35
4250.08
4679.25
4830.12
4770.69
4601.58
4811.59
5150.34
4961.15
6681.95
8192.21
5955.46
11504.2
23239.3
7837.55
4241.58
4299.89
4086.72
4046.52
4397.08
4541.45
4247.89
3733.26
3265.15
3092.6
3382.29
3890.21
4276.72
4344.06
4240.2
4068.55
4215.53
4412.81
4379.17
8398.25
23325.1
12718.7
13701.1
19425
6899.85
3781.23
3763.59
3633.34
3607.74
3928.21
4092.03
3859.23
3374.18
2914.17
2736.69
3013.64
3509.1
3872.53
3903.19
3796.86
3621.1
3720.45
3840.21
3892.04
6964.9
19063.7
13573
13013.4
19540.9
5832.44
3435.12
3331.36
3242.89
3234.2
3517.23
3683.13
3482.65
3025.75
2594.38
2435.2
2694.33
3161.7
3502.7
3510.75
3400.72
3250.45
3315.39
3402.86
3544.15
5989.96
20228.2
12967.1
12675.8
19213.1
5190.75
3165.74
3003.17
2921.04
2928.49
3168.46
3320.87
3141.65
2721.85
2325.34
2181.29
2417.64
2852.43
3166.57
3167.85
3061.88
2937.8
2981.52
3074.67
3270.72
5407.65
20422.3
12750.6
12467.6
19050.5
4721.84
2921.31
2741.02
2651.21
2674.34
2871.57
3001.29
2839.79
2460.25
2097.09
1966.14
2177.83
2573.92
2860.93
2865.44
2769.68
2667.52
2691.99
2804.6
3006.17
4907.01
20176.7
12686.1
12472.1
17722.6
4241.19
2700.29
2528.18
2426.64
2456.76
2614.58
2713.07
2559.16
2221.91
1900.07
1783.88
1977.58
2336.84
2594.78
2607.16
2524.47
2440.91
2458.34
2592.55
2787.27
4478.4
19017.7
12685.4
12321.8
16859.2
3921.83
2520.05
2353.92
2243.43
2271.75
2396.01
2467.24
2322.72
2022.3
1733.46
1628.19
1801.95
2123.96
2357.53
2380
2313.13
2247.66
2266.3
2406.99
2594.13
4154.32
18312.5
12536.7
12017.9
16404.9
3692.2
2365.04
2204.77
2096.97
2112.36
2205.98
2252.7
2115.03
1849.77
1591.35
1494.14
1649.38
1934.09
2142.71
2178.64
2129.49
2081.02
2105.09
2242.86
2426.21
3846.89
16842.2
12425.6
11781.9
15324.4
3493.09
2233.41
2065.88
1969.76
1976.93
2038.24
2058.18
1925.86
1691.72
1464.42
1378.51
1521.37
1778.69
1965.7
2007.03
1972.71
1942.13
1971.19
2097.34
2289.53
3654.1
15997.5
12168.6
11429.7
14040.7
3332.37
2129.16
1943.74
1856.84
1858.53
1893.84
1893.5
1766.51
1560.05
1357
1277.89
1407.11
1635.64
1802.3
1853.46
1836.25
1822.72
1852.31
1962.42
2172.77
3450.27
14615.8
11876.9
11093.3
13273.9
3213.68
2051.85
1835.32
1753.34
1752.66
1768.91
1752.27
1631.5
1446.65
1262.96
1190.62
1306.45
1512.52
1664.21
1720.29
1717.28
1715.86
1743.87
1845.16
2082.4
3282.18
13351.5
11556.5
10803.6
12130.8
3085.63
1991.36
1742.62
1662.49
1653.56
1655.81
1622.78
1506.77
1342.84
1179.5
1114.04
1221.45
1407.9
1544.27
1604.47
1613.72
1618.33
1648.97
1747.44
2012.73
3166.13
12567.5
11178.7
10493
11239.1
2970.56
1949.01
1667.47
1581.2
1561.27
1556.39
1512.73
1402.77
1255.39
1106.59
1046.77
1143.32
1313.17
1438.07
1500.32
1520.21
1528.4
1563.77
1666.04
1958.79
3060.75
11624.5
10797.9
10204.4
10608.9
2848.26
1913.13
1617.61
1508.37
1479.2
1465.65
1415.65
1310.32
1177.95
1042.77
987.257
1075.38
1229.02
1343.32
1407.92
1434.78
1448.19
1492.08
1608.64
1920.61
2931.72
10851.6
10480.7
9922.17
9925.08
2725.67
1881.63
1583.13
1444.93
1404.01
1381.35
1327.46
1227.89
1107.33
984.218
934.326
1015.43
1158.23
1263.38
1326.36
1356.3
1376.94
1427.72
1572.1
1891.69
2820.28
10290.7
10211.5
9661.29
9429.97
2622.99
1876.09
1562.31
1392.85
1338.82
1306.1
1249.08
1155.65
1046.12
933.444
886.942
961.274
1091.48
1188.45
1250.98
1285.14
1311.96
1373.05
1547.07
1880.95
2691.18
9587.76
9940
9403.02
9159.18
2526.74
1868.67
1551.76
1356.13
1279.13
1238.15
1179.31
1092.46
992.222
887.186
844.441
912.222
1033.47
1123
1182.43
1221.14
1253.32
1334.72
1537.61
1873.15
2564.62
9113.97
9717.47
9119.6
8737.14
2409.86
1828.14
1556.02
1331.92
1228.41
1177.28
1115.08
1033.06
941.335
845.343
806.283
869.556
981.86
1064.46
1122.35
1164.63
1203.57
1308.33
1542.32
1840.23
2453.53
8926.01
9472.21
8854.01
8500.84
2302.06
1778.47
1573.01
1318.18
1188.94
1124.62
1059.3
981.988
897.56
807.75
771.547
829.179
934.51
1010.99
1066.82
1114.92
1165.75
1294.12
1551.84
1783.27
2349.65
8754.09
9177.81
8633.1
8322.21
2239.5
1727.98
1610.39
1316.24
1160.98
1081.41
1010.51
935.768
857.299
773.702
740.017
792.974
890.577
962.711
1018.7
1073.44
1140.08
1290.28
1598.11
1733.19
2272.56
8650.99
8884.13
8430
8118.25
2155.48
1661.35
1605.37
1325.79
1139.9
1049.09
968.246
893.993
820.24
741.833
711.028
760.354
853.066
920.833
977.473
1041.26
1119.89
1304.62
1615.24
1688.39
2334.88
8457.27
8621.63
8242.98
7945.37
2102.58
1593.35
1564.9
1360.64
1129.72
1025.46
934.639
857.673
787.136
713.257
684.479
730.024
816.859
882.339
942.606
1018
1108.93
1332.37
1578.2
1621.56
2239.97
8229.08
8407.99
8090.02
7768.61
2149.33
1532.96
1508.75
1416.35
1136.08
1006.22
909.826
827.785
758.101
686.948
659.992
702.264
784.644
849.172
915.675
1000.53
1115.23
1398.9
1527.05
1556.89
2207.61
8040.12
8236.66
7944.08
7614.17
2083.58
1470.57
1444.21
1428.63
1169.66
995.001
889.524
803.798
732.147
663.197
637.889
677.857
757.948
823.294
895.673
990.921
1153.89
1425.17
1467.78
1505.74
2246.14
7871.92
8099.62
7799.08
7443.45
2115.2
1426.55
1379.87
1382.7
1246.17
1002.33
875.513
786.819
712.518
643.624
618.283
656.782
735.789
803.946
879.716
994.647
1222.18
1385.36
1403.43
1450.66
2227.02
7704.92
7969.69
7657.69
7287.89
2167.78
1398.44
1322.81
1330.32
1277.01
1053.49
868.021
771.851
697.979
628.544
600.819
640.169
719.198
788.531
869.677
1037.2
1270.25
1335.25
1342.83
1413.38
2234.93
7507.84
7825.54
7443.88
7100.81
2154.85
1367.46
1272.68
1273.77
1239.73
1132.19
882.822
760.128
685.627
617.111
589.033
628.076
706.264
776.578
881.977
1118.56
1248.6
1279.8
1292.2
1398.89
2269.29
7265.79
7605.14
7162.41
6848.56
2152.03
1348.42
1230.2
1217
1197.64
1175.61
938.835
757.541
676.274
607.695
580.174
617.997
695.433
770.994
929.636
1181.24
1207.59
1222.61
1246.67
1378.49
2233.79
6991.98
7318.77
6526.25
6389.69
2139.06
1333.06
1193.17
1167.61
1152.09
1147.14
1030.16
785.818
672.279
599.966
572.21
609.556
688.754
790.803
1023.37
1168.47
1163.14
1171.57
1206.38
1355.56
2185.07
6522.5
6671.29
6154.73
9305.12
9172.17
7805.12
6367.89
5320.32
4621.85
4139.22
3751.08
3379.89
3008.84
2632.55
2258.83
1900.55
1572.53
1286.87
1049.99
859.33
708.265
594.619
510.07
447.383
401.045
365.075
334.445
307.038
281.396
258.114
247.818
328.129
6351.43
9809.82
9574.44
8114.8
6630.95
5565.68
4860.21
4384.05
4006.17
3640.04
3274.85
2901.1
2521.11
2144.78
1787.93
1466.23
1190.59
963.287
780.603
642.764
540.202
464.752
410.114
369.02
335.562
307.124
281.432
258.966
250.703
331.387
6661.82
10363.6
9982.7
8455.96
6926.28
5841.54
5135
4663.78
4293.46
3934.81
3576.59
3205.23
2819.03
2425.56
2040.37
1680.83
1362.82
1094.33
874.256
705.217
580.175
488.516
423.029
374.925
337.498
307.582
281.531
259.969
253.798
335.544
6947.56
10920.6
10533.6
8948.06
7350.69
6213.12
5492.59
5013.14
4640.15
4286.06
3934.5
3564.25
3172.15
2762.38
2349.27
1949.85
1584.02
1266.27
998.59
792.516
637.806
524.047
443.507
385.415
342.396
310.424
282.916
261.895
257.437
340.05
7163.38
11504
11180.7
9542.29
7867.64
6658.59
5909.8
5416.47
5036.3
4683.01
4336.88
3967.64
3571.11
3147.17
2708.98
2270.95
1855.78
1482.06
1160.4
911.643
717.337
574.701
473.264
401.487
350.543
313.777
285.091
264.616
261.195
345.107
7378.92
12140.5
11873.7
10194.1
8444.51
7164.65
6380
5867.51
5472.73
5117.13
4776.19
4406.78
4007.44
3571.07
3110.12
2636.38
2173.74
1741.41
1366.85
1065.5
824.471
644.895
515.432
424.896
362.499
318.939
287.893
266.438
263.802
349.82
7611.26
12797.6
12595.5
10901.1
9075.64
7734.21
6906.3
6366.09
5950.99
5586.38
5245.05
4870.21
4466.32
4017.43
3536.39
3032.52
2529.19
2048.34
1621.81
1259.84
963.235
737.443
572.802
457.237
378.966
326.364
291.177
268.215
266.714
355.131
7838.4
13462.2
13359.9
11659.4
9766.96
8367.32
7493.16
6917.23
6472.29
6088.25
5737.61
5350.45
4938.19
4477.47
3981.86
3458.09
2925.9
2406.83
1927.04
1499.65
1139.78
857.829
648.837
501.034
401.594
337.1
295.775
270.822
270.098
360.045
8074.14
14133.9
14183.4
12474.6
10528.2
9069.86
8144.14
7525.4
7041.01
6626.87
6257.59
5853.38
5429.5
4958.99
4453.75
3917.89
3364.95
2811.88
2279.55
1787.08
1358.61
1011.94
748.299
559.667
432.589
352.102
302.226
274.152
272.37
364.366
8322.9
14835
15056.1
13346.9
11360.6
9844.74
8863.51
8194.02
7663.77
7211.9
6813.45
6389.06
5948.62
5468.89
4956.04
4412.56
3842.12
3257.3
2676.52
2123.26
1624.88
1205.65
877.38
637.996
475.103
372.754
311.024
278.006
275.053
368.923
8586.92
15548.2
15948.2
14271.4
12260.9
10693.4
9654.18
8928.78
8352.2
7854.69
7413.79
6961.31
6501.02
6012.43
5492.99
4941.8
4353.51
3741.78
3119.13
2509.05
1941.18
1444.53
1041.69
740.657
532.483
400.863
323.087
282.623
277.951
374.106
8820.88
16253.6
16839.3
15232
13223.7
11613.5
10517.8
9735.72
9113.11
8562.59
8059.87
7571.05
7092.22
6594.08
6066.95
5501.91
4894.9
4260.59
3603.53
2943.54
2308.02
1732.1
1248.32
874.1
608.945
439.352
339.905
289.144
281.623
379.815
9026.91
16949.2
17718.9
16209
14241.2
12602.4
11456.4
10622.7
9954.89
9335.82
8756.99
8233.64
7735.86
7220.22
6676.01
6090.08
5464.84
4808.44
4122.23
3419.13
2725.69
2072.75
1502.15
1043.82
709.215
490.043
362.289
297.912
285.231
384.808
9214.91
17600.6
18585.4
17193.2
15299.7
13656.8
12473
11596.8
10877.6
10170.9
9524.03
8968.38
8439.79
7894.58
7323.02
6710.12
6063.16
5381.96
4666.21
3925.34
3182.8
2461.86
1805.21
1255.32
839
558.394
393.171
309.757
289.755
390.223
9391.57
18216.9
19423.3
18185.6
16380.9
14770.2
13571.3
12664.9
11882.2
11086
10381.3
9782.64
9209.92
8623.96
8015.61
7368.88
6692.75
5981.69
5232.96
4455.74
3663.88
2884.23
2149.65
1508.56
1001.9
647.345
434.092
325.415
295.382
395.876
9599.42
18746.9
20214.7
19162.6
17483.9
15933.4
14752.2
13826.9
12974.3
12097.5
11338.9
10686.2
10060.1
9419.66
8766.38
8076.01
7361.6
6613.56
5827.41
5009.85
4171.52
3334.92
2529.91
1801.56
1199.71
759.769
486.839
345.445
301.995
401.119
9744.06
19202
20915
20090.7
18583.3
17130.9
16006.5
15076.8
14160.2
13216.3
12403.9
11693
11002
10297.6
9585.25
8840.99
8077.99
7284.23
6453.74
5591.47
4706.13
3815.7
2944.39
2133.17
1433.89
899.209
554.169
371.054
309.579
406.202
9840.18
19571.8
21492.5
20939.1
19647.8
18351.2
17323.5
16414.6
15453.6
14456.4
13590.3
12814.4
12048.7
11274
10486.9
9677.25
8854.33
8004.38
7120.31
6205.97
5269.06
4323.51
3388.53
2500.12
1705.29
1070.04
640.774
404.699
318.886
411.258
9937.67
19825.4
21932.7
21652.1
20641.5
19573.2
18693.6
17840.3
16865.5
15829.2
14910.5
14064.4
13217.9
12361.7
11487
10599.1
9703.99
8785.95
7837.19
6860.55
5863.38
4856.98
3857.99
2892.89
2011.91
1275.37
751.188
449.091
330.955
416.162
9962.98
20016.1
22204.1
22174.7
21523.1
20771.8
20107.9
19352.2
18399.5
17343.4
16375
15456
14523.4
13575.1
12602
11621.2
10640.6
9641.31
8615.43
7564.38
6495.55
5418.16
4346.67
3307.75
2349.41
1515.18
888.921
507.334
347.028
420.95
10006.9
20029.6
22260.2
22480.3
22254.8
21925.8
21559.7
20954.1
20061.3
19006.2
17994.3
17001
15979.3
14929.5
13847.2
12758.2
11676.2
10580.4
9462.93
8323.39
7169.91
6011.62
4863.91
3756.15
2719.76
1791.93
1058.24
583.749
368.875
426.293
10007
20024.2
22094
22541
22827.8
23024.5
23041.6
22646.7
21850.4
20823.3
19781.1
18714.1
17596.9
16438.3
15235.2
14023.2
12820
11609.6
10383.7
9141.9
7894.38
6651.85
5430.31
4251.55
3133.64
2111.23
1264.85
682.884
399.591
432.95
10085.3
19834.6
21671.9
22373
23236.7
24061.3
24548.1
24422.3
23770
22802.8
21747
20608
19386.7
18108.9
16777.4
15424.7
14082.4
12735.6
11382.7
10026.3
8678.72
7350.27
6051.7
4793.6
3592.24
2473.71
1510.45
808.314
441.6
440.918
9938.33
19725.8
21184
22141.8
23615.2
25086.2
26086.9
26283.6
25819.9
24950.1
23900.5
22697.2
21364
19956.1
18484.2
16974.7
15473.4
13968.4
12469.9
10986.7
9529.46
8105.76
6717.99
5370.03
4076.82
2864.43
1788.3
960.662
496.173
451.004
9476.6
20740
21375.5
22253
24146.2
26145.7
27662.6
28227.2
28000.1
27272.5
26252
24989.9
23543.1
21993.5
20364.8
18680
16993.8
15309.7
13652.4
12030.1
10449.3
8913.34
7419.59
5969.44
4575.34
3264.44
2086.3
1139.43
564.215
463.601
325.633
246.076
257.501
281.427
307.056
334.259
364.766
400.664
447.251
509.524
593.552
706.419
853.622
1043.17
1275.36
1552.44
1871.74
2224.23
2594.93
2968.32
3339.96
3717.75
4115.69
4611.11
5331.36
6404.73
7860.79
9230.64
9330.81
6175.27
327.838
248.19
257.937
281.223
306.931
335.113
367.817
408.328
462.571
536.943
639.171
776.909
955.98
1181.73
1453.66
1768.6
2118.45
2489.11
2865.84
3237.25
3602.22
3972.81
4359.99
4847.17
5571.54
6660.03
8159.68
9625.82
9827.47
6377.49
330.83
250.515
258.477
281.136
307.124
336.776
373.145
419.973
484.72
573.72
697.006
865.356
1085.33
1352.74
1668.55
2023.36
2403.71
2792.74
3175.71
3544.53
3901.01
4260.89
4640.27
5120.56
5840.44
6946.54
8490.38
10025
10388.1
6685.57
335.027
253.811
260.229
282.405
309.02
341.234
382.479
438.748
517.85
627.911
778.341
982.482
1253.84
1571.66
1937.7
2335.81
2747.76
3154.6
3544.01
3910.21
4257.38
4610.35
4992.8
5478.22
6206.22
7362.51
8975.66
10566.9
10944
6978.19
340.054
258.054
263.403
285.12
312.516
348.382
396.608
465.521
563.788
702.318
888.822
1133.73
1456.03
1835.72
2254.16
2695
3136.18
3559.49
3954.18
4319.63
4659.56
5008.51
5396.54
5894.96
6648.69
7871.32
9560.24
11201.4
11525.8
7200.39
346.671
262.735
266.68
288.972
318.08
358.945
416.867
501.884
626.523
801.403
1034.05
1330.52
1699.9
2134.67
2602.18
3082.12
3549.78
3988.71
4388.95
4756.48
5092.07
5443.02
5844.87
6362.92
7150.7
8438.74
10202.5
11895.6
12163.3
7422.46
352.201
266.02
269.265
292.237
325.845
374.288
444.717
551.788
708.878
929.584
1217.5
1574.5
1997.51
2475.08
2980.51
3488.38
3976.15
4429.32
4837.51
5213.63
5552.96
5914.88
6337.84
6884.19
7715.53
9060.67
10900.1
12616.2
12827
7663.86
357.417
269.557
272.366
297.13
336.908
396.179
483.325
619.252
817.233
1092.13
1442.87
1864.53
2344.91
2861.04
3393.69
3919.38
4419.5
4883.81
5301.72
5692.33
6044.79
6427.92
6883.09
7465.56
8344.5
9749.23
11656
13380.2
13495.7
7889.75
361.976
272.528
275.484
303.367
349.757
422.957
535.754
708.276
956.487
1293.77
1713.53
2199.55
2733.09
3286.2
3841.82
4381.18
4889.99
5363.19
5792.29
6200.25
6573.8
6986.22
7483.34
8109.65
9041.34
10504.3
12459.8
14196.9
14172.4
8121.37
367.577
275.336
278.745
310.88
366.785
459.092
605.1
824.713
1133.2
1538.18
2028.2
2576.41
3156.05
3743
4318.67
4869.03
5386.7
5870.62
6316.23
6744.92
7150.5
7598.27
8144.68
8821.34
9809.78
11330.2
13320.3
15067
14876.3
8365.17
372.413
278.48
282.861
320.47
389.6
506.786
694.671
972.24
1350.99
1829.02
2385.37
2988.99
3610.3
4226.22
4821.08
5380.82
5909.23
6405.63
6872.94
7329.87
7780.09
8276.04
8871.99
9603.61
10649
12220.4
14227.8
15960.6
15596
8630.03
377.461
282.535
288.807
333.835
420.367
570.021
809.415
1155.6
1612.21
2164.98
2784.19
3436.07
4094.42
4733.48
5348.82
5922.27
6461.01
6972.06
7463.42
7957.41
8468.31
9024.37
9670.96
10458.3
11556.9
13167.3
15172
16851.1
16302.8
8876.81
383.865
286.641
296.625
352.933
462.418
654.238
956.024
1380.36
1919.41
2546.33
3224.26
3918.33
4605.92
5267.18
5901.76
6498.17
7054.92
7586.29
8100.38
8634.4
9222.72
9848.59
10550.8
11390.6
12533
14166.1
16143.1
17727.6
16998.5
9088.21
389.736
291.121
306.676
377.97
518.217
763.007
1139.94
1651.66
2275.35
2972.3
3700.73
4431.85
5145.18
5829.7
6485.67
7111.75
7696.73
8259.74
8807.07
9378.68
10040.2
10752.5
11516.9
12401.6
13571.7
15204.6
17124.7
18587.6
17660.3
9282.01
395.474
295.509
319.056
410.936
591.868
901.575
1364.19
1967.77
2672.81
3431.97
4205
4971.76
5713.93
6426.38
7110.17
7772.05
8396.18
9001.55
9595.74
10212.8
10932.9
11737.9
12574.7
13494.6
14673.6
16270.5
18115
19425.4
18287.2
9473.16
400.737
299.889
334.334
453.44
686.23
1073.56
1628.51
2321.42
3099.53
3914.85
4734.14
5540.21
6318.42
7066.48
7787.03
8493.04
9164.27
9823.95
10473.9
11147.8
11923.1
12813
13726.4
14670.9
15834.6
17368.5
19087.9
20221.1
18838.1
9664.44
405.441
305.212
353.938
508.219
804.865
1280.76
1930.16
2706.2
3551.3
4422.05
5292.26
6143.76
6966.31
7759.32
8527.17
9286.42
10017.7
10738.7
11455.1
12191.7
13023.1
13988.1
14970.2
15923.8
17033.9
18472
20018.5
20933.5
19290
9836.4
409.832
312.438
380.351
579.649
952.876
1525.42
2268.75
3122.61
4033.72
4963.27
5888.03
6793.01
7669.14
8517.26
9343.71
10166.5
10972
11762.5
12553.9
13356.3
14244.4
15274.2
16303.6
17241.9
18258.7
19546.8
20879.6
21527.8
19690.8
9945.3
414.218
321.842
415.665
672.024
1134.97
1809.18
2642.36
3573.3
4551.84
5543.5
6529.73
7497.64
8438.14
9352.78
10249.8
11148.5
12040.5
12912.7
13785.7
14660.1
15603.1
16675.8
17725.8
18616.7
19487.5
20557.7
21614.4
21986.9
19959.8
10053.2
418.616
334.066
462.328
789.216
1353.01
2130.86
3050.02
4058.26
5108.18
6170.6
7227.79
8268.79
9284.89
10278.2
11258.7
12246.7
13238.2
14203.2
15161.4
16111
17106.7
18202.8
19234.8
20036.5
20699.6
21468.2
22164.9
22273.8
20175.9
10093.8
423.127
351.164
524.513
935.937
1607.84
2488.5
3494.2
4578.31
5706.55
6848.66
7987.58
9113.35
10218
11304.1
12382.7
13475.4
14578.6
15646.3
16692.6
17718.2
18760.6
19858.8
20836.6
21492.2
21869.4
22228.7
22502.7
22355.9
20210.7
10153.5
428.566
375.386
606.878
1119.98
1906.76
2888.54
3984.53
5145.68
6353.85
7581.11
8811.13
10034.4
11243.4
12439.1
13633.8
14847.9
16074.2
17252
18393.8
19496.7
20574.8
21648.9
22529.8
22978.5
22989.6
22835
22594.5
22218.8
20227.1
10165.1
435.158
409.1
713.676
1343.74
2251.88
3337.96
4525.24
5770.27
7059.14
8373.58
9701.32
11034.6
12365.6
13691.2
15021.7
16373.1
17731.2
19031.4
20276.7
21457.1
22556.9
23576.1
24310.8
24492.6
24058.2
23288.4
22460.8
21823.5
20052.8
10257.5
443.383
453.005
845.868
1601.3
2629.29
3818.97
5100.97
6441.1
7820.44
9229.42
10664.2
12120.8
13591
15070
16555.7
18064.3
19564.4
20997.1
22355.2
23607.2
24712.8
25641.1
26178.9
26044.6
25118.1
23714.8
22263.4
21349.8
19944
10115
453.708
507.727
1002.92
1881.78
3019.57
4312.7
5700.55
7145.45
8629.92
10148.8
11704.7
13297.1
14918.6
16572.8
18241
19927.9
21585.5
23164.2
24642.4
25959.6
27049.1
27845
28145.1
27652.3
26226
24295.2
22405
21534.5
20876
9660.76
24387.6
25346.1
26128.6
27046.3
27913.8
28821.1
29690.2
30577.5
31445.5
32314.6
33174.8
34033.5
34896.9
35782.4
36683.8
37582.6
38474.7
39354.2
40205.7
41000.6
41785.8
42633
43503.2
44325.8
45082.6
45797.9
46494.5
47181.8
47855.7
48514.8
49157.2
49781
50383.9
50963.6
51517.9
52044.6
52541.2
53005
53432.7
53820
54163.2
54458.3
54700.6
54883.3
55004.4
55049.5
55033.5
55052.2
54987.6
54881.3
54689.5
54403.5
54011.9
53509
52965.4
52352.7
51650.2
50847.8
49966.1
49019.7
47993.2
46877.4
45674
44400.9
43062.9
41661.8
40201.7
38694.4
37150.9
35580.7
33993.1
32396
30797.1
29213.4
27656.3
26167.4
24739.2
23364.8
22043.1
20774.2
19554.8
18384.8
17265.9
16192.3
15161.7
14177.5
13234.3
12327.4
11468.5
10659
9890.66
9157.85
8458.73
7795.48
7171.55
6588.51
6047.84
5549.2
5091.75
4674.37
4294.55
3949.4
3634.85
3347.47
3082.57
2836.59
2605.99
2387.13
2178.34
1978.52
1787.31
1604.79
1431.94
1271.45
1125.7
993.051
876.95
778.109
695.869
628.948
575.854
535.061
504.531
482.459
466.217
58567.3
60436.8
62308.8
64351.8
66404.2
68486.4
70568.5
72667.2
74770.4
76881.3
78995.3
81111.5
83225.4
85332.3
87452
89576.7
91693.9
93795.5
95884.8
97970.8
100073
102144
104150
106093
107999
109884
111752
113595
115409
117190
118932
120631
122282
123878
125414
126884
128281
129600
130833
131970
133002
133917
134700
135343
135828
136144
136295
136252
135985
135519
134850
133978
132905
131646
130136
128470
126602
124533
122252
119804
117151
114286
111217
107983
104590
101043
97359.9
93570.7
89701.6
85775.4
81816.5
77851.9
73903.8
69989
66116.6
62265.6
58494.1
54879
51422.8
48125.4
44983.2
41995.4
39155.7
36456
33897.8
31474.8
29175.3
27009.9
24992.1
23107.4
21334.4
19653.3
18069.3
16595
15234.2
13987.8
12856
11832.6
10913.3
10092.2
9360.74
8708.8
8123.26
7592.94
7103.84
6646.76
6212.51
5790.53
5374.9
4963.04
4553.38
4144.31
3740.88
3346.56
2964.76
2597.76
2251.93
1933.35
1644.04
1384.23
1156.82
963.022
802.84
675.539
578.792
80685.4
82999.7
85429.8
88030.3
90698.2
93408.5
96143.8
98905.3
101688
104489
107306
110134
112968
115801
118625
121460
124300
127141
129998
132872
135720
138508
141235
143920
146586
149232
151859
154460
157027
159554
162031
164449
166799
169072
171260
173357
175356
177248
179025
180672
182176
183519
184684
185656
186417
186951
187246
187280
187034
186516
185728
184677
183377
181811
179969
177877
175527
172919
169895
166664
163146
159315
155194
150832
146233
141398
136353
131146
125816
120394
114917
109428
103965
98554.9
93219.4
87980
82853.6
77845
73023.6
68433.9
64067.1
59921.7
55988.1
52258.1
48725.2
45380.2
42214.8
39229.4
36421.8
33778.4
31285.5
28932.6
26719.3
24651.7
22732.7
20963.2
19339
17856.3
16506.5
15283.2
14178.2
13180.9
12276.3
11454
10699.9
10003.9
9355.36
8741.56
8153.2
7584.57
7031.39
6489.71
5959.58
5443.71
4941.91
4453.58
3983.64
3538.44
3119.37
2722.94
2350.77
2007.6
1696.4
1422.29
1191.37
100467
103154
106031
109095
112275
115520
118811
122144
125512
128911
132338
135788
139253
142725
146196
149658
153129
156632
160174
163720
167214
170645
174032
177408
180774
184121
187451
190756
194027
197250
200411
203497
206493
209388
212175
214848
217402
219825
222106
224227
226170
227916
229449
230755
231814
232603
233104
233297
233166
232714
231942
230858
229470
227771
225758
223429
220768
217755
214343
210557
206405
201863
196913
191562
185943
180003
173771
167297
160654
153868
146991
140091
133219
126407
119690
113110
106694
100456
94404.5
88559.8
82994
77732.8
72761.1
68064.5
63627.2
59434.1
55471.9
51729.7
48196.8
44858.7
41703.1
38724.3
35920.9
33293.5
30841.9
28563.2
26454.5
24510
22721.3
21079.8
19576.1
18199.6
16939.9
15785
14726.3
13750.8
12844.9
11998.4
11201.6
10446.5
9726.13
9034.91
8368.56
7726.99
7107.85
6508.39
5929.34
5376.97
4853.34
4350.56
3863.29
3396.64
2958.15
2553.82
2194.67
119565
122615
125881
129361
133000
136725
140512
144353
148242
152173
156144
160148
164179
168229
172290
176355
180426
184519
188651
192756
196792
200773
204735
208710
212678
216629
220563
224473
228343
232154
235886
239518
243035
246427
249688
252817
255805
258638
261300
263772
266039
268092
269921
271514
272849
273896
274630
275030
275083
274783
274135
273146
271824
270163
268150
265761
262965
259740
256064
251942
247375
242367
236886
230953
224622
217878
210721
203093
195318
187347
179240
171074
162930
154824
146804
138940
131273
123837
116659
109749
103106
96751
90740.6
85091.1
79769.5
74751.5
70010.4
65528.1
61286.6
57269.5
53464.8
49865.2
46466.6
43266.5
40262
37449.2
34822.4
32375.2
30098.8
27985.9
26028.8
24219.7
22549.3
21003
19567.2
18237
17003.7
15857.7
14786.1
13780.2
12833.3
11938.9
11090.3
10283.5
9514.67
8778.46
8072.24
7400.49
6764.71
6154.06
5559.19
4982.38
4429.09
3912.7
3442.2
138019
141404
144991
148829
152854
156971
161159
165405
169705
174054
178450
182890
187367
191874
196402
200945
205506
210079
214627
219080
223453
227780
232100
236443
240773
245084
249375
253630
257830
261948
265956
269835
273571
277160
280603
283895
287023
289968
292714
295255
297594
299741
301696
303446
304957
306191
307120
307724
307983
307891
307453
306682
305588
304160
302365
300153
297477
294325
290689
286562
281940
276829
271217
265113
258528
251458
243885
235849
227472
218804
209889
200721
191637
182538
173470
164540
155813
147335
139158
131340
123886
116774
109983
103499
97351.5
91571.4
86108
80933.1
76021.6
71350.7
66907.9
62685.3
58678.7
54884.6
51299.4
47918.2
44734.7
41741.5
38929.7
36292.6
33822.7
31512.8
29353.8
27336.3
25451.8
23696.5
22059.9
20531.9
19102.5
17767.7
16518.7
15348.1
14249
13214.9
12240
11317.5
10443.4
9617.78
8841.7
8103.73
7391.49
6702.93
6039.36
5414.88
4839.09
155319
158966
162772
166871
171153
175516
179940
184416
188940
193513
198134
202800
207504
212236
216983
221737
226486
231207
235853
240370
244740
249037
253320
257607
261855
266060
270222
274320
278324
282200
285927
289491
292892
296127
299201
302109
304826
307340
309658
311806
313819
315724
317521
319187
320662
321921
322933
323681
324135
324292
324156
323744
323072
322108
320818
319127
316972
314342
311254
307691
303645
299120
294090
288533
282436
275774
268553
260810
252625
244086
235250
226168
216913
207470
197823
188182
178786
169614
160741
152312
144321
136750
129567
122730
116190
109879
103817
98017.7
92496.1
87212.7
82153.6
77314.3
72688.7
68275.6
64074.8
60082.6
56293.7
52701.3
49299.8
46082.1
43041.4
40170.5
37461
34906.1
32500.8
30241.7
28120.7
26131.3
24268.7
22523.4
20891.9
19365.4
17940.5
16608.2
15362.1
14192.9
13096.2
12068.4
11108
10206.7
9351.37
8531.89
7750.07
7012.43
6329.35
170667
174457
178327
182527
186857
191233
195642
200079
204545
209044
213574
218128
222695
227256
231793
236287
240710
245028
249204
253221
257075
260803
264444
268036
271547
274925
278186
281309
284267
287040
289616
291997
294189
296210
298070
299759
301250
302564
303747
304868
306001
307175
308324
309466
310495
311485
312371
313133
313717
314129
314384
314492
314502
314344
314101
313694
312808
311361
309540
307317
304663
301606
298139
294222
289781
284718
279125
272900
266097
258842
251209
243197
234798
226045
216966
207711
198435
189209
180040
171495
163475
155896
148716
141904
135376
129052
122866
116794
110805
104945
99250.2
93784.5
88521.3
83458.9
78604.4
73952.4
69500.9
65249.9
61195.4
57332.3
53655.4
50157.7
46834.1
43680.4
40692.3
37866.3
35195.7
32676.6
30305.9
28078
25990
24039.4
22214.8
20514.2
18928.2
17450.2
16072.7
14789.5
13595.6
12484.2
11447.6
10469.8
9549.7
8686.06
7885.34
183104
186854
190558
194610
198682
202743
206785
210808
214818
218816
222792
226733