/*--------------------------------*- C++ -*----------------------------------*\
| =========                 |                                                 |
| \\      /  F ield         | OpenFOAM: The Open Source CFD Toolbox           |
|  \\    /   O peration     | Version:  2112                                  |
|   \\  /    A nd           | Website:  www.openfoam.com                      |
|    \\/     M anipulation  |                                                 |
\*---------------------------------------------------------------------------*/
FoamFile
{
    version     2.0;
    format      ascii;
    arch        "LSB;label=32;scalar=64";
    class       volVectorField;
    location    "0.00733";
    object      U;
}
// * * * * * * * * * * * * * * * * * * * * * * * * * * * * * * * * * * * * * //

dimensions      [0 1 -1 0 0 0 0];

internalField   nonuniform List<vector> 
13875
(
(2204.18 109.695 1.8127e-18)
(2142.48 5.62412 -9.38737e-19)
(2170.27 -2.17229 -9.4108e-19)
(2168.01 -0.742416 0)
(2170.37 0.197595 0)
(2169.41 -1.32514 9.36812e-19)
(2169.32 -1.15488 -9.37179e-19)
(2169.73 0.0384442 -4.68483e-19)
(2169.15 0.162374 4.68295e-19)
(2169.26 -0.112531 0)
(2169.64 0.0992105 -3.88099e-22)
(2169.44 0.978035 -3.88094e-22)
(2169.61 0.947463 0)
(2169.39 -0.0125375 -4.68218e-19)
(2169.45 -0.9162 4.6859e-19)
(2169.6 -1.29053 0)
(2169.87 -0.265583 9.37056e-19)
(2169.22 0.348775 -9.37802e-19)
(2169.14 0.946502 3.87944e-22)
(2169.81 1.18655 -3.85758e-22)
(2170.45 -0.16892 -9.36285e-19)
(2167.85 0.298009 9.37164e-19)
(2171.11 2.48205 -1.87814e-18)
(2143.38 -8.66663 1.91698e-18)
(2210.17 -106.921 1.76483e-18)
(2253.4 91.9348 -1.63242e-18)
(2228.46 -1.16482 1.88339e-18)
(2247.41 0.630392 8.71751e-19)
(2245.56 0.936367 -8.67111e-19)
(2248.49 -0.593001 4.16926e-22)
(2247.7 2.07342 5.20307e-22)
(2245.82 1.31375 4.15897e-22)
(2245.62 -0.162408 -4.35747e-19)
(2245.05 -0.148575 4.36035e-19)
(2245.13 0.041806 2.17523e-19)
(2245.45 -0.0462347 -1.62995e-19)
(2245.48 -1.11271 -5.31315e-20)
(2247.68 -1.1687 0)
(2247.84 0.0737147 -4.34978e-19)
(2247.55 1.02611 4.33463e-19)
(2245.6 1.42903 4.36027e-19)
(2245.51 0.502432 -4.35307e-19)
(2245.2 -0.243621 5.18486e-22)
(2245.69 -1.56845 -5.1869e-22)
(2247.84 -1.97007 5.19792e-22)
(2248.4 0.745973 -8.71458e-19)
(2245.59 -0.72081 2.59968e-18)
(2247.27 -1.55668 -1.74254e-18)
(2228.88 3.52143 5.42938e-22)
(2256.79 -97.0807 -1.71272e-18)
(2252.4 78.1231 0)
(2236.33 -18.2488 0)
(2249.49 4.38509 0)
(2250.66 -1.90268 0)
(2253.51 -2.57426 -1.63914e-18)
(2253.21 1.57134 1.64256e-18)
(2253.29 2.24941 1.72337e-18)
(2253.17 0.909702 -2.58249e-18)
(2252.53 0.331494 8.61682e-19)
(2252.83 -0.192289 4.30392e-22)
(2253.49 -0.155731 -4.30567e-19)
(2253.11 -2.26419 4.30452e-19)
(2254.08 -2.4986 0)
(2253.98 0.0241083 0)
(2254.04 2.36238 4.0818e-22)
(2253.18 1.99982 0)
(2254.07 0.220508 8.38103e-22)
(2253.12 -0.29257 4.30563e-19)
(2253.09 -2.5117 -4.30675e-19)
(2253.54 -1.7559 0)
(2253.71 2.34951 0)
(2250.91 1.3164 0)
(2250.67 -4.80139 0)
(2238.18 13.6663 0)
(2257.46 -74.3183 0)
(2247.86 51.3614 0)
(2235.03 -28.6799 1.81423e-18)
(2249.28 7.1806 -3.41694e-18)
(2251.57 -4.71619 3.46612e-18)
(2253.3 -3.06431 -1.63531e-18)
(2253.09 1.33613 0)
(2253.59 1.79715 -8.32445e-22)
(2253.82 0.520719 0)
(2253.66 -0.0987381 0)
(2254.07 -0.749867 0)
(2254.57 -0.277075 0)
(2254.17 -2.06654 -8.43978e-22)
(2254.06 -2.42712 -5.07412e-20)
(2253.96 -0.00580068 5.06251e-20)
(2254 2.27729 0)
(2254.26 1.79959 0)
(2254.74 0.260289 7.99423e-22)
(2254.17 0.393898 -8.56821e-19)
(2253.82 -1.74492 8.56267e-19)
(2253.42 -1.49029 -1.62436e-18)
(2253.56 2.74116 1.62361e-18)
(2251.98 4.33372 1.74093e-18)
(2249.75 -8.89143 -1.7206e-18)
(2235.82 31.2062 0)
(2251.5 -58.6738 0)
(2244.88 39.2865 1.74899e-18)
(2235.43 -47.8704 0)
(2248.74 10.4588 0)
(2250.34 -7.64685 0)
(2253.46 -4.21571 0)
(2253.16 0.782433 1.67159e-21)
(2253.35 1.54502 1.6558e-21)
(2253.73 0.395772 4.06427e-19)
(2253.66 -0.378177 -4.28188e-19)
(2254.11 -1.01978 2.13718e-19)
(2254.58 -0.252823 -2.07783e-19)
(2254.2 -1.6241 0)
(2254.07 -2.24606 0)
(2253.88 -0.0139584 -1.65381e-21)
(2254.05 2.08075 0)
(2254.3 1.34925 -1.68504e-21)
(2254.71 0.269347 8.07348e-19)
(2254.01 0.727592 -8.501e-19)
(2253.5 -1.22609 1.71583e-18)
(2253.53 -0.842357 -1.69311e-18)
(2253.61 3.75028 1.65335e-21)
(2250.68 6.46235 0)
(2250.03 -11.562 0)
(2237.22 42.7521 0)
(2250.14 -35.4374 0)
(2241.5 6.76345 0)
(2231.53 -63.6195 9.12429e-19)
(2247.2 12.2652 -8.476e-19)
(2250.83 -11.1265 0)
(2252.51 -4.86891 8.60134e-19)
(2252.65 0.261566 -4.36477e-19)
(2253.39 0.978822 -2.51547e-21)
(2253.77 0.0632161 -2.12863e-19)
(2253.82 -0.946807 -4.31996e-19)
(2254.24 -1.56065 1.63833e-19)
(2254.55 -0.232735 1.58649e-21)
(2254.12 -1.33524 2.68173e-19)
(2253.95 -2.07098 -2.15105e-19)
(2253.76 -0.0971275 3.36098e-21)
(2253.88 1.88606 -4.27275e-19)
(2254.21 1.14938 4.33299e-19)
(2254.64 0.326436 1.63706e-21)
(2254.11 1.3384 -1.68309e-21)
(2253.73 -0.340761 -1.67964e-21)
(2252.97 -0.373945 -8.60495e-19)
(2252.77 4.11955 8.46099e-19)
(2251.44 10.6867 0)
(2247.38 -15.1977 0)
(2232.42 65.4828 -1.933e-18)
(2246.04 -18.6405 -1.26203e-19)
(2254.03 2.91227 -4.95244e-20)
(2227.49 -79.3432 6.0243e-20)
(2243.04 12.2448 0)
(2248.48 -15.5799 -2.69177e-23)
(2252.09 -6.6374 -2.62303e-23)
(2252.41 -0.812302 0)
(2252.78 0.540179 0)
(2253.43 -0.376289 -8.53056e-19)
(2253.66 -1.38267 8.65713e-19)
(2254.21 -1.78033 0)
(2254.42 -0.0913406 1.64987e-18)
(2254.08 -0.762169 3.99103e-21)
(2253.85 -1.62255 -1.71987e-18)
(2253.61 -0.100263 -1.71176e-21)
(2253.86 1.44331 0)
(2254.19 0.685224 3.44614e-18)
(2254.42 0.375165 1.7679e-21)
(2253.75 1.71535 -6.90578e-18)
(2253.08 0.307553 3.45089e-18)
(2252.81 0.934068 2.64402e-23)
(2252.27 6.08093 0)
(2248.52 12.9676 3.52719e-18)
(2244.19 -12.5318 -3.30789e-18)
(2228.89 73.0947 3.81557e-18)
(2247.2 2.964 -3.17955e-18)
(2218.38 -22.8311 -3.16975e-19)
(2214.7 -87.4709 -7.49633e-18)
(2235.66 3.51496 8.70639e-22)
(2246.03 -22.3167 2.61182e-23)
(2248.74 -8.76012 -8.08273e-22)
(2250.94 -2.23774 0)
(2252.47 -0.73271 -3.41093e-18)
(2253.42 -1.33418 3.43542e-18)
(2253.56 -2.12368 0)
(2254 -2.24012 -8.37029e-22)
(2254.14 -0.157196 -8.17583e-22)
(2253.84 -0.460044 0)
(2253.52 -1.37636 0)
(2253.31 -0.0996177 -1.65975e-21)
(2253.47 1.25538 -8.39321e-22)
(2253.93 0.527971 2.60047e-23)
(2254.13 0.687449 -8.56354e-22)
(2253.52 2.46242 -2.62907e-23)
(2252.9 1.76095 -1.73244e-18)
(2251.42 2.39385 -1.62492e-20)
(2249.26 8.03298 1.68896e-18)
(2246.39 19.3954 8.85472e-22)
(2236.72 -4.81163 3.45897e-18)
(2216.52 81.5816 -3.53839e-18)
(2222.46 18.1657 2.50143e-23)
(2113.31 -37.8516 9.42601e-19)
(2168.63 -98.6053 0)
(2217.1 -20.1716 -8.31497e-22)
(2234.96 -32.234 -8.65493e-19)
(2245.72 -17.3427 1.70946e-18)
(2248.66 -6.13079 -1.72711e-18)
(2250.66 -2.46973 8.32974e-21)
(2252.43 -2.23773 8.60765e-19)
(2252.94 -2.62064 0)
(2253.35 -2.38918 -8.4756e-19)
(2253.48 0.0699601 8.44523e-19)
(2253.38 0.252976 0)
(2252.98 -0.763145 0)
(2252.72 -0.208146 2.10368e-21)
(2252.96 0.546298 8.34481e-22)
(2253.31 0.0435762 8.4196e-19)
(2253.33 0.904911 -8.44526e-19)
(2252.53 3.26928 0)
(2251.25 3.38512 8.60796e-19)
(2249.46 6.01541 -1.72872e-18)
(2246.23 15.1177 8.45074e-19)
(2236.18 28.8785 -8.40912e-22)
(2219.04 16.6479 0)
(2171.37 94.0018 0)
(2117.29 35.3658 0)
(1873.66 -142.208 -6.57023e-17)
(2125.76 -161.384 8.42416e-17)
(2198.91 -54.8049 0)
(2229.24 -54.1219 -2.99442e-17)
(2239.68 -21.4494 3.07428e-17)
(2246.29 -10.1997 0)
(2249.44 -6.23848 -2.9437e-20)
(2251.29 -4.63498 -1.47698e-17)
(2251.62 -3.93677 1.46916e-17)
(2252.03 -2.91364 -2.9239e-20)
(2252.22 -0.291264 0)
(2252.22 0.365909 -3.7079e-18)
(2251.82 -0.355827 5.59035e-18)
(2251.52 -0.220641 -1.89725e-18)
(2251.71 0.407111 -2.92428e-20)
(2252.03 0.37856 0)
(2251.91 1.7832 0)
(2250.95 5.03971 -2.94879e-17)
(2249.44 7.54902 2.90925e-17)
(2246.69 10.2919 -3.05998e-17)
(2240.49 20.4727 2.91889e-17)
(2229.42 52.9584 3.22055e-17)
(2199.91 52.4771 -2.92231e-17)
(2128.76 161.837 -8.33806e-17)
(1884.86 138.339 -1.25775e-17)
(1653.18 -215.542 -9.0846e-17)
(2011.35 -307.608 1.37623e-16)
(2159.57 -104.253 0)
(2210.94 -64.4785 6.82315e-17)
(2232.67 -28.6391 -7.075e-17)
(2241.67 -14.3546 -3.38756e-17)
(2245.24 -7.3444 3.38931e-17)
(2248.21 -5.23595 -3.36322e-17)
(2248.91 -3.49912 3.34991e-17)
(2249.46 -1.96569 3.24014e-20)
(2249.77 0.334749 0)
(2249.9 1.07673 -2.11509e-18)
(2249.57 0.385112 2.16703e-18)
(2249.19 -0.256121 3.31678e-20)
(2249.28 -0.493764 3.2732e-20)
(2249.4 -0.413232 3.27766e-20)
(2249.15 0.916191 0)
(2248.02 4.59017 0)
(2245.08 7.6143 -6.77071e-17)
(2242.28 15.3137 6.82225e-17)
(2233.71 26.8934 -7.13852e-17)
(2211.6 58.9913 1.47092e-16)
(2166.14 99.3444 -6.99491e-17)
(2016.88 298.526 -3.86801e-20)
(1698.11 205.995 8.75214e-20)
(1281.72 -592.54 -1.0896e-16)
(1741.67 -591.412 1.18864e-16)
(2047.27 -180.412 2.1684e-16)
(2174.23 -105.572 -9.34674e-17)
(2208.39 -35.8049 0)
(2229.72 -20.1086 7.41659e-17)
(2238.34 -14.1615 -7.5478e-17)
(2241.91 -8.8829 0)
(2243.2 -5.71416 3.54637e-20)
(2244.11 -3.34448 0)
(2244.61 -0.577448 0)
(2244.86 0.820279 0)
(2244.67 0.858722 4.66749e-18)
(2244.27 0.0697918 -4.66049e-18)
(2244.2 0.0123075 -3.72151e-20)
(2243.96 0.787716 -3.53172e-20)
(2243.34 2.84395 0)
(2241.73 7.27045 0)
(2237.97 14.0062 0)
(2228.63 19.1271 -7.88988e-17)
(2211.61 37.1893 1.56848e-16)
(2176.58 102.494 -7.22976e-17)
(2053.05 161.783 -1.33629e-16)
(1750.26 592.1 1.00483e-16)
(1286.4 543.525 -5.99331e-20)
(1302.11 -610.661 1.60746e-16)
(1112.3 -1086.21 0)
(1706.73 -449.429 0)
(1929.82 -129.437 -1.08008e-16)
(2150.9 -84.7355 1.09145e-16)
(2201.26 -43.8787 0)
(2215.77 -14.8974 1.13079e-20)
(2224.44 -6.92279 4.04465e-17)
(2228.19 -2.73759 -4.08636e-17)
(2230.69 -0.748578 0)
(2231.9 1.07091 -1.00565e-17)
(2232.44 1.61867 1.01289e-17)
(2232.51 1.56468 -5.08212e-18)
(2232.11 0.446791 5.08499e-18)
(2231.72 -0.549449 3.86247e-20)
(2230.53 -1.14214 -4.06071e-17)
(2228.07 -0.192146 8.04659e-17)
(2223.73 4.39054 1.03816e-18)
(2213.83 13.2396 -4.04001e-17)
(2198.07 44.5916 -9.08932e-17)
(2134.48 72.0613 8.43428e-17)
(1912.82 109.36 8.25677e-20)
(1759.79 454.41 2.60527e-20)
(1103.59 1071.39 1.6743e-16)
(1319.83 612.219 7.16926e-18)
(1359.36 -629.135 0)
(1142.09 -1059.11 0)
(1293.81 -751.071 0)
(1198.11 -812.573 0)
(1954.51 -256.269 0)
(2049.71 -62.6287 1.02234e-16)
(2156.62 -47.7063 -1.04202e-16)
(2175.39 -30.976 1.15417e-19)
(2184.49 -19.6009 -1.03121e-20)
(2191.25 -10.5543 2.26092e-17)
(2193.85 -4.41517 -2.2874e-17)
(2194.96 -0.63058 -2.26059e-19)
(2195.24 1.23013 -7.07129e-19)
(2194.79 2.03286 8.03226e-19)
(2194 3.91808 -2.267e-17)
(2191.52 8.5082 2.24361e-17)
(2184.78 17.6123 9.93212e-20)
(2174.22 31.4636 0)
(2150.04 52.8238 0)
(2021.07 86.8564 0)
(1917.65 322.89 -2.11116e-16)
(1173.11 815.19 -6.14696e-17)
(1297.22 702.576 1.63917e-16)
(1135.36 1023.19 2.05625e-20)
(1369.36 618.837 2.08574e-20)
(1437.43 -620.691 0)
(1273.3 -928.088 3.94319e-20)
(1323.28 -784.035 0)
(1236.96 -859.14 -1.67371e-16)
(1334.33 -804.976 3.18553e-16)
(1642.9 -556.377 -2.04192e-16)
(1938.49 -119.426 0)
(1957.58 -13.1376 -1.02609e-19)
(2004.53 15.7744 0)
(2041.86 9.9558 0)
(2054.33 6.86172 -1.41232e-17)
(2058.6 3.29878 1.44373e-17)
(2059.8 2.39385 1.42148e-17)
(2059.16 1.61987 -1.42923e-17)
(2056.78 -0.149358 0)
(2048.01 -4.51311 -5.87522e-17)
(2015.57 -10.7053 5.92838e-17)
(1960.99 16.3436 7.11489e-17)
(1937.09 137.939 -5.977e-17)
(1607.6 581.553 0)
(1308.42 797.941 0)
(1205.55 849.667 -1.70713e-19)
(1331.22 779.37 -1.70807e-16)
(1266.82 919.354 3.66755e-16)
(1425.7 618.879 -1.69379e-16)
(1519.77 -630.488 -1.69259e-16)
(1388.2 -853.942 1.87046e-16)
(1384.63 -757.441 0)
(1281.12 -818.508 -1.89827e-16)
(1306.53 -782.156 -6.36865e-18)
(1301.21 -746.526 2.77611e-16)
(1256.42 -592.568 -1.99416e-16)
(1314.82 -522.788 1.1833e-16)
(1526.64 -279.137 0)
(1555.7 -126.195 0)
(1540.49 -62.1453 -4.11309e-20)
(1536.95 -22.2414 2.76099e-19)
(1533.89 -3.07561 0)
(1535.55 12.9912 0)
(1538.81 43.3759 5.84769e-17)
(1549 112.395 -5.56331e-17)
(1566.55 234.099 -1.11393e-16)
(1330.32 521.83 2.24929e-16)
(1240.64 592.021 1.82553e-17)
(1285.57 744.738 -9.01284e-17)
(1301.7 779.778 0)
(1253.13 821.804 0)
(1381.6 759.79 -1.74075e-16)
(1352.14 885.786 2.02974e-16)
(1502.47 640.71 -4.59301e-20)
(1659.67 -609.327 1.57295e-16)
(1561.82 -750.763 -9.70205e-20)
(1527.23 -689.482 9.49686e-17)
(1466.99 -725.216 -8.46826e-17)
(1396.34 -679.677 -4.49427e-20)
(1332.44 -597.605 8.78565e-20)
(1187.08 -445.631 1.15793e-16)
(860.497 -235.462 -1.80673e-16)
(675.258 -122.188 6.39734e-17)
(523.479 -54.5921 0)
(397.194 -20.664 -3.37354e-17)
(356.79 -7.08673 3.36501e-17)
(339.474 -0.170438 0)
(346.453 7.85948 6.29135e-20)
(375.362 15.5579 -3.35855e-17)
(481.892 44.8296 3.38613e-17)
(716.564 117.146 0)
(851.979 241.516 -1.17245e-16)
(1163.83 430.77 1.17517e-16)
(1320.88 589.959 8.88763e-17)
(1389.31 682.821 -1.87257e-16)
(1433.26 747.171 9.90918e-17)
(1519.29 711.355 0)
(1546.33 778.39 1.68896e-16)
(1649.57 625.128 -3.22803e-18)
(1814.68 -550.745 -3.32031e-18)
(1745.68 -596.916 8.01984e-17)
(1689.06 -541.124 -3.65393e-17)
(1537.4 -416.801 -5.73783e-17)
(1425.69 -350.819 7.29285e-17)
(1378.4 -267.325 -5.12687e-17)
(1285.78 -252.231 5.31317e-17)
(937.728 -192.175 -5.87444e-17)
(719.817 -102.403 -4.62861e-19)
(593.978 -59.387 3.30377e-17)
(497.514 -35.1119 1.65115e-17)
(465.889 -18.7835 -1.54676e-19)
(453.342 -0.823533 -1.66848e-17)
(460.144 20.6329 -6.08386e-20)
(490.128 32.9824 -7.54983e-20)
(580.843 53.4592 -2.07349e-18)
(777.66 96.8704 1.7731e-20)
(947.251 181.122 5.41816e-18)
(1279.1 227.829 -3.52908e-18)
(1376.16 300.709 0)
(1416.54 400.304 1.08442e-17)
(1544.38 462.693 -3.4797e-17)
(1688.9 584.899 4.15099e-17)
(1742.12 629.748 -5.66539e-17)
(1809.73 568.984 5.32051e-17)
(1993.35 -508.959 -8.63551e-20)
(1953.84 -335.15 -1.04324e-19)
(1883.61 -317.029 1.21717e-19)
(1782.7 -208.266 -5.56809e-21)
(1515.16 -52.3115 -1.85258e-19)
(1411.15 -23.7525 -1.99791e-19)
(1372.62 -73.517 -7.18869e-21)
(1194.54 -92.7619 0)
(961.679 -108.475 0)
(824.375 -122.155 6.56127e-17)
(747.032 -102.627 -6.6968e-17)
(705.005 -48.5134 -8.86991e-21)
(690.591 2.4301 8.84731e-21)
(694.867 51.1787 -8.62387e-18)
(729.083 114.715 8.36161e-18)
(811.663 147.706 0)
(976.29 130.301 0)
(1163.33 107.152 -5.66171e-17)
(1344.47 78.3349 5.61169e-17)
(1378.34 13.4557 -1.94318e-19)
(1508.59 45.0502 0)
(1789.77 214.174 0)
(1885.13 319.931 -1.25026e-19)
(1952.01 335.776 -1.07764e-19)
(1995.72 524.822 1.23009e-16)
(1533.29 -187.285 -1.86418e-16)
(1748.26 -114.2 -2.39315e-16)
(1861.59 102.189 1.21168e-16)
(1801.16 155.126 0)
(1628.34 205.547 2.00834e-19)
(1514.84 137.878 1.07727e-16)
(1504.35 26.1322 -2.08726e-16)
(1405.23 -18.9952 1.06358e-16)
(1219.38 -58.0646 -1.21192e-16)
(1061.28 -84.1121 1.25308e-16)
(939.484 -71.5776 3.29595e-17)
(870.336 -27.8296 -4.10082e-17)
(846.737 6.53603 -8.30173e-18)
(863.269 39.7571 1.67881e-17)
(932.143 89.2404 0)
(1067.46 109.661 0)
(1237.12 78.7799 1.16843e-16)
(1386.43 36.8167 -2.20921e-16)
(1494.2 -26.7768 1.09302e-16)
(1503.12 -151.584 2.28037e-19)
(1639.12 -210.375 1.55973e-16)
(1789.34 -162.171 -9.4763e-17)
(1837.39 -141.156 -4.83976e-16)
(1744.01 126.092 6.2482e-16)
(1514.43 185.854 -2.50745e-16)
(14.9423 -74.6489 1.14525e-19)
(561.779 -90.5437 -2.58133e-16)
(1424.46 326.993 1.69576e-16)
(1681.63 507.612 0)
(1663.81 427.975 0)
(1609.56 267.691 0)
(1600.47 131.723 0)
(1527.12 66.7683 0)
(1365.93 19.1462 -5.1833e-17)
(1205.3 -18.9456 1.08597e-16)
(1079.78 -25.0822 -8.46615e-17)
(1003.93 -4.93485 3.21454e-17)
(983.017 9.46143 -3.62116e-18)
(1003.66 21.2993 1.57443e-20)
(1086.85 45.3829 -5.58331e-17)
(1230 40.865 5.55226e-17)
(1393.94 -0.872256 0)
(1524.49 -52.7994 0)
(1607.35 -129.365 -1.72633e-16)
(1604.9 -289.625 1.85908e-16)
(1669.71 -433.096 -1.63248e-19)
(1664.93 -506.365 7.1992e-20)
(1373.26 -310.498 -9.55305e-20)
(483.873 124.92 -1.15252e-19)
(-61.6194 76.8923 0)
(-332.14 -54.1759 -2.25124e-16)
(439.023 298.708 2.29126e-16)
(1286.82 678.732 -1.67422e-19)
(1644.76 747.735 1.6137e-16)
(1721.38 581.409 -1.21717e-16)
(1689.74 377.066 0)
(1671.53 229.895 -8.19129e-17)
(1610.2 160.787 7.4756e-17)
(1469.93 94.26 -4.47025e-17)
(1320.94 38.5687 9.37035e-17)
(1195.5 13.7653 -4.82195e-17)
(1124.65 11.0001 1.82955e-19)
(1103.69 7.66262 0)
(1129.46 3.01771 2.48834e-17)
(1212.78 0.156102 2.3153e-17)
(1353.52 -27.7612 -4.74598e-17)
(1498.25 -89.1925 -8.16892e-17)
(1608.33 -152.864 8.3958e-17)
(1683.61 -230.365 -7.16326e-17)
(1688.79 -406.561 7.99231e-17)
(1719.47 -600.32 7.99114e-20)
(1613.65 -762.758 -7.53221e-20)
(1226.47 -669.007 0)
(376.8 -291.441 1.11696e-19)
(-318.145 17.7603 0)
(329.252 336.554 1.8868e-16)
(911.443 778.023 -1.85173e-16)
(1430.61 888.652 6.10282e-20)
(1689.06 868.786 0)
(1773.69 675.821 0)
(1737.59 500.773 -7.31771e-21)
(1713.47 353.256 0)
(1665.83 249.834 7.42447e-20)
(1546.52 168.047 0)
(1411.7 97.4152 4.16955e-17)
(1300.34 51.2099 -6.40269e-17)
(1230.42 26.1569 3.26263e-17)
(1211.65 7.0009 -1.09963e-17)
(1235.69 -14.8204 0)
(1316.15 -39.6639 0)
(1440.57 -88.8991 3.89225e-17)
(1569.07 -161.121 -1.09525e-16)
(1661.78 -248.262 7.31103e-17)
(1734.21 -343.334 -6.04813e-17)
(1741.98 -506.229 7.04298e-17)
(1779.31 -681.547 0)
(1677.35 -882.547 0)
(1418.72 -892.684 0)
(927.76 -792.914 -1.13314e-20)
(332.664 -305.688 -1.98691e-16)
(388.355 155.676 -3.58329e-20)
(1157.18 761.621 1.53576e-16)
(1555.35 951.631 -1.15696e-16)
(1750.54 908.951 0)
(1803.2 739.121 0)
(1762.27 589.27 7.51973e-21)
(1752.58 443.514 6.4357e-17)
(1713.86 327.329 -5.72126e-17)
(1608.38 224.359 3.04354e-20)
(1489.79 139.986 3.30668e-20)
(1387.6 79.5633 3.48833e-20)
(1326.87 38.2343 -1.03312e-20)
(1306.84 4.6068 -1.03783e-20)
(1331.5 -30.2198 1.92726e-17)
(1402.51 -73.1399 -1.93482e-17)
(1516.57 -136.217 4.2332e-20)
(1629.76 -220.179 3.89678e-20)
(1706.84 -328.934 0)
(1767.08 -434.591 -5.38653e-17)
(1773.94 -587.405 6.2596e-17)
(1813.78 -739.644 0)
(1746.8 -916.869 -9.78797e-17)
(1543.09 -949.185 1.19863e-16)
(1138.86 -748.042 8.84331e-21)
(389.404 -132.063 -1.8627e-16)
(581.291 164.624 4.13216e-20)
(1302.04 782.236 0)
(1644.16 952.763 0)
(1791.65 916.294 -4.72176e-17)
(1813.86 779.892 4.61156e-17)
(1778.62 649.638 0)
(1784.17 511.51 5.84683e-17)
(1750.45 385.847 -5.27537e-17)
(1656.68 274.69 3.19485e-17)
(1551.44 179.519 -3.22146e-17)
(1464.99 103.926 1.7704e-17)
(1407.89 49.3592 -1.78118e-17)
(1392.87 2.57328 0)
(1414.46 -46.2743 -1.76418e-17)
(1481.12 -103.297 1.76993e-17)
(1578.49 -182.888 -3.47928e-20)
(1678.81 -273.114 -3.21521e-20)
(1744.98 -395.175 5.17833e-20)
(1794.95 -510.029 4.94188e-17)
(1786.9 -653.217 -5.76011e-17)
(1826.33 -783.104 -4.58951e-20)
(1789.36 -924.154 -4.37193e-20)
(1636.31 -941.843 0)
(1266.07 -761.168 -7.1137e-20)
(550.854 -143.98 4.18758e-20)
(617.559 161.758 1.58315e-22)
(1368.62 717.027 0)
(1709.91 891.447 9.09352e-23)
(1791.19 912.999 3.9665e-20)
(1817.49 811.386 -8.54857e-23)
(1795.46 698.637 -5.16342e-17)
(1813.32 562.902 4.58994e-17)
(1786.68 436.358 0)
(1703.5 314.212 -5.92567e-20)
(1613.5 212.088 -1.08205e-22)
(1532.93 126.216 -1.13793e-22)
(1485.44 58.1425 6.87679e-20)
(1468.52 0.769167 0)
(1489.51 -56.6878 0)
(1545.75 -126.319 -1.1314e-22)
(1635.34 -215.816 -1.0714e-22)
(1722.99 -313.397 -2.63908e-17)
(1778.07 -443.117 7.53112e-17)
(1817.53 -560.698 -5.31713e-17)
(1803.01 -698.692 0)
(1831.36 -803.81 -4.4059e-17)
(1791.28 -914.172 4.33898e-17)
(1709.4 -880.943 9.12279e-23)
(1358.12 -693.046 6.07614e-20)
(612.919 -159.546 1.58436e-22)
(731.856 208.817 3.51834e-18)
(1479.98 693.35 1.37118e-17)
(1755.02 860.417 9.69944e-17)
(1798.27 900.836 -4.05851e-17)
(1830.83 811.64 4.22114e-17)
(1813.51 713.766 -4.77258e-17)
(1839.87 591.58 4.2683e-17)
(1811.9 469.236 -2.52472e-17)
(1737.95 346.483 2.47497e-17)
(1659.95 240.32 1.15053e-22)
(1595.32 144.25 1.20715e-22)
(1550.28 67.4376 -1.23264e-22)
(1537.74 0.799579 7.42761e-18)
(1554.62 -67.3374 7.25785e-18)
(1606.78 -146.27 -1.48608e-17)
(1680.56 -246.132 1.14091e-22)
(1758.8 -342.313 4.90416e-17)
(1807.5 -474.174 -9.54597e-17)
(1845.63 -587.228 4.87411e-17)
(1816.51 -718.288 0)
(1841.68 -807.171 -8.41339e-23)
(1800.37 -900.802 7.77211e-23)
(1751.02 -857.31 -8.3067e-23)
(1468.66 -684.58 -1.2034e-16)
(717.586 -209.451 1.48364e-16)
(768.475 222.613 1.39675e-19)
(1526 642.279 0)
(1775.18 804.017 0)
(1802.96 874.128 3.90006e-20)
(1837.07 799.502 8.11035e-20)
(1835.44 726.353 0)
(1866.44 610.284 4.48978e-17)
(1840.36 490.183 -4.23444e-17)
(1773.61 363.16 4.4441e-20)
(1708.67 255.289 -4.76749e-20)
(1648.31 154.808 -1.37453e-17)
(1612.63 70.2646 1.3716e-17)
(1598.88 -3.69462 3.5698e-18)
(1616.34 -77.9743 -3.46704e-18)
(1659.63 -164.421 1.32575e-17)
(1727.42 -270.696 -3.79948e-17)
(1794.12 -372.415 2.47278e-17)
(1832.44 -505.774 -4.64003e-20)
(1864.98 -615.844 3.94572e-20)
(1836.15 -733.833 -4.03851e-17)
(1846.11 -799.662 9.39986e-19)
(1807.28 -870.269 -1.91304e-18)
(1776.84 -790.113 4.08624e-17)
(1496.92 -615.192 5.63552e-20)
(708.75 -212.43 6.85472e-20)
(762.925 209.4 1.34859e-16)
(1558.38 585.681 -1.08058e-16)
(1800.76 760.301 0)
(1818.77 847.742 -3.78692e-17)
(1855 788.54 3.25942e-19)
(1854.78 720.752 3.91852e-17)
(1889.38 618.194 4.16919e-17)
(1859.85 508.47 -4.00281e-17)
(1802.49 386.032 -4.71114e-20)
(1746.83 277.911 -2.45856e-17)
(1700.59 170.998 1.19229e-17)
(1665.43 81.4932 1.26318e-17)
(1655.28 0.71169 -5.38347e-20)
(1667.49 -81.1306 0)
(1707.22 -172.073 0)
(1760.72 -283.701 0)
(1821.82 -379.697 4.66395e-20)
(1856.36 -510.577 9.68927e-21)
(1891 -611.896 -4.97555e-20)
(1856.28 -721.392 0)
(1861.93 -784.237 3.85287e-20)
(1822 -844.69 9.32403e-21)
(1802.49 -758.482 -4.83614e-20)
(1568.55 -580.316 -1.06171e-16)
(802.148 -234.141 1.36261e-16)
(803.9 237.631 6.56797e-17)
(1580.89 521.836 -9.58142e-17)
(1817.07 676.104 8.22268e-17)
(1831.05 791.096 -4.09471e-17)
(1864.54 757.18 -3.75678e-17)
(1874.02 709.82 3.72614e-17)
(1910.81 620.709 1.92724e-17)
(1882.76 515.349 -1.89891e-17)
(1831.8 390.491 1.08359e-17)
(1787.24 282.743 -2.24042e-17)
(1742.47 175.019 1.73817e-17)
(1716.45 82.2755 -7.37852e-18)
(1705.1 -2.56994 1.48893e-18)
(1718.37 -88.0339 -4.36998e-20)
(1750.61 -181.372 2.28704e-17)
(1800.76 -296.752 -2.29067e-17)
(1851.6 -396.74 3.88301e-20)
(1876.74 -524.816 3.79615e-17)
(1909.07 -619.613 -1.91197e-18)
(1870.25 -713.798 -3.81574e-17)
(1872.5 -756.564 0)
(1834.76 -792.304 4.12225e-17)
(1818.42 -684.235 -3.64657e-17)
(1583.18 -524.798 -1.02717e-16)
(813.536 -254.923 -6.3734e-19)
(922.542 268.513 -6.24756e-17)
(1645.13 478.667 4.79805e-17)
(1841.27 631.209 1.90406e-20)
(1844.83 750.675 -5.38207e-20)
(1888.25 740.721 1.82107e-20)
(1895.17 687.925 3.58129e-17)
(1932.61 601.175 -1.7228e-17)
(1897.17 508.554 -1.83709e-17)
(1854.87 393.526 4.16346e-20)
(1816.68 290.124 -4.41849e-20)
(1784.45 179.392 2.02764e-20)
(1758.12 85.0073 -2.06118e-20)
(1751.41 -3.51003 0)
(1760.31 -93.873 5.27243e-21)
(1790.48 -189.494 -1.07162e-17)
(1828.35 -305.461 1.07816e-17)
(1875.64 -397.393 -1.93477e-17)
(1896.77 -521.557 9.95042e-19)
(1932.28 -602.727 1.80821e-17)
(1891.77 -692.79 -5.29693e-20)
(1891.22 -742.049 -3.69564e-17)
(1852.54 -749.481 3.48393e-17)
(1844.51 -631.78 0)
(1635.44 -479.151 -4.84972e-17)
(876.775 -271.573 6.25378e-17)
(936.515 270.826 0)
(1660.84 429.46 -4.23526e-17)
(1844.39 549.597 4.24523e-17)
(1865.28 670.107 1.77326e-20)
(1899.3 700.46 1.71353e-20)
(1914.46 667.264 -3.42336e-17)
(1946.16 597.675 3.41767e-17)
(1916.84 512.48 1.83508e-17)
(1881.08 396.91 8.14482e-19)
(1852.26 293.749 -1.97143e-17)
(1819.28 184.15 -2.14816e-20)
(1800.9 88.9772 2.41702e-20)
(1791.82 -1.12938 0)
(1801.37 -92.0419 4.34703e-20)
(1824.39 -186.076 -2.14046e-20)
(1861.15 -305.057 9.78247e-18)
(1899.96 -399.423 -9.66335e-18)
(1911.79 -518.276 -1.83229e-20)
(1943.58 -594.673 -1.92094e-20)
(1910.6 -668.361 1.73788e-20)
(1901.53 -703.888 -3.65977e-17)
(1869.53 -682.381 -6.66926e-18)
(1853.8 -566.009 3.35951e-17)
(1673.61 -432.036 0)
(974.177 -282.216 6.01786e-17)
(1036.73 286.869 -1.14248e-16)
(1696.86 396.017 4.4637e-17)
(1858.08 488.608 3.23763e-17)
(1887.53 624.861 -4.09998e-17)
(1917.2 673.371 0)
(1936.24 647.021 -2.05657e-21)
(1965.01 574.447 0)
(1929.05 494.923 -2.20444e-21)
(1900.11 391.486 -2.34016e-21)
(1875 294.576 0)
(1853.6 183.952 0)
(1833.89 89.0598 -2.56806e-21)
(1829.61 -2.29012 0)
(1835.27 -95.9109 0)
(1857.51 -190.791 -9.63705e-18)
(1883.02 -306.675 9.63138e-18)
(1921.39 -390.955 -2.31739e-21)
(1931.1 -505.03 -1.71846e-17)
(1963.75 -574.978 1.63714e-17)
(1932.78 -649.275 0)
(1918.76 -678.669 3.57919e-17)
(1890.52 -634.349 -7.33854e-17)
(1865.43 -504.448 7.24535e-17)
(1696.56 -389.312 4.01125e-18)
(987.84 -249.037 -5.75499e-17)
(1092.23 279.388 1.35495e-20)
(1716.34 365.69 -1.03513e-20)
(1864.08 425.909 0)
(1905.53 534.132 0)
(1926.9 616.857 0)
(1954.06 616.372 7.64843e-21)
(1974.61 561.682 0)
(1944.56 487.039 -7.88505e-21)
(1923.52 384.591 0)
(1906.61 287.242 -8.50492e-21)
(1881.49 179.235 0)
(1869.21 86.8166 -2.35125e-18)
(1862.18 -3.87124 2.34545e-18)
(1869.48 -95.4902 0)
(1885.85 -186.21 9.19357e-18)
(1912.36 -305.012 -1.80809e-17)
(1941.97 -391.897 8.7418e-18)
(1943.67 -496.469 0)
(1973.63 -563.169 1.6002e-17)
(1949.54 -620.528 -1.57809e-17)
(1930.15 -623.255 3.58127e-17)
(1910.66 -550.362 -3.17034e-17)
(1861.95 -438.695 0)
(1706.82 -353.914 0)
(1062.15 -268.584 0)
(1137.66 271.442 -1.3159e-20)
(1740.76 343.29 1.02547e-20)
(1880.27 361.586 0)
(1920.47 466.052 0)
(1944.19 580.408 0)
(1971.67 597.508 -7.60531e-21)
(1994.34 538.691 0)
(1956.99 465.828 8.23101e-21)
(1941.03 375.309 0)
(1925.03 288.085 -8.81482e-18)
(1910.78 181.487 8.81525e-18)
(1895.64 89.7479 -8.41223e-21)
(1892.99 -0.452173 9.25546e-21)
(1896.05 -93.2946 8.40601e-21)
(1912.58 -183.336 0)
(1929.14 -295.797 0)
(1961.56 -371.533 8.52111e-21)
(1961.34 -473.397 -1.62503e-17)
(1994.52 -537.223 1.51295e-17)
(1968.34 -599.906 0)
(1944.11 -590.485 7.76075e-21)
(1925.89 -477.269 0)
(1879.53 -378.307 0)
(1738.95 -343.652 0)
(1161.67 -277.176 0)
(1165.14 239.342 -5.04778e-17)
(1752.94 311.294 4.16934e-17)
(1888.42 312.58 0)
(1931.25 377.451 -1.68952e-20)
(1955.9 517.231 0)
(1983.02 552.464 -1.44804e-17)
(2002.42 518.475 3.02815e-17)
(1971.09 455.077 -1.58636e-17)
(1960.94 365.146 -8.13497e-18)
(1952.94 276.557 8.34529e-18)
(1933.15 173.212 4.35167e-21)
(1925.14 85.7939 1.11134e-18)
(1919.21 -2.71331 -1.07339e-18)
(1924.84 -92.4109 8.47624e-18)
(1937.11 -177.383 -8.53348e-18)
(1955.71 -292.695 0)
(1978.53 -370.012 -1.51938e-20)
(1971.98 -463.487 0)
(2001.64 -523.106 0)
(1979.99 -559.681 -1.62791e-17)
(1956.17 -524.67 1.46026e-17)
(1936.17 -394.011 0)
(1887.95 -319.619 3.63457e-17)
(1748.65 -318.317 1.97925e-18)
(1171.16 -249.616 -1.03352e-16)
(1225.7 223.457 5.06513e-17)
(1779.13 289.266 1.92085e-20)
(1901.47 261.063 3.10315e-17)
(1929.89 318.52 -2.32675e-17)
(1967.06 474.707 -1.78153e-17)
(1996.51 522.009 0)
(2019.54 492.977 7.57992e-21)
(1983.55 427.593 1.52243e-17)
(1976.6 347.072 -1.58748e-17)
(1966.69 269.043 0)
(1957.13 170.077 0)
(1945.63 84.2918 -2.59521e-20)
(1944.58 -2.53804 3.21308e-20)
(1946.15 -93.0247 1.69449e-20)
(1959 -176.034 4.07233e-18)
(1969.13 -281.107 -4.04302e-18)
(1997.21 -348.736 8.42384e-21)
(1991.13 -440.537 1.55538e-17)
(2021.37 -495.17 -2.91475e-17)
(1995.19 -527.849 1.40108e-17)
(1968.92 -484.526 -1.4854e-20)
(1938.6 -315.153 0)
(1903.15 -273.122 1.69353e-20)
(1770.19 -298.84 4.04377e-17)
(1211.61 -231.314 -9.97642e-17)
(1231.3 184.944 -4.97182e-17)
(1779.68 257.894 -3.8078e-17)
(1903.32 229.82 3.47898e-17)
(1918.05 236.706 1.45314e-17)
(1976.68 388.754 -1.85049e-17)
(2004.34 461.909 0)
(2025.48 464.29 3.68653e-21)
(1996.31 416.611 -1.10528e-20)
(1995.1 340.013 7.58792e-18)
(1992.04 259.502 -1.56012e-17)
(1975.87 164.022 7.90674e-18)
(1970.68 83.1922 1.97376e-18)
(1965.89 -1.08634 -1.8593e-18)
(1970.28 -86.8085 1.8354e-18)
(1979.09 -164.134 -1.97895e-18)
(1992.08 -272.917 0)
(2011.37 -341.312 1.12453e-20)
(1999.41 -422.65 -3.5771e-21)
(2025.77 -472.564 -1.49762e-17)
(2002.67 -474.512 1.36842e-17)
(1977.17 -401.664 0)
(1929.2 -253.251 0)
(1908.65 -230.31 -4.09376e-21)
(1781 -268.067 -3.98516e-17)
(1225.5 -200.727 -1.85431e-18)
(1272.92 169.972 -2.3369e-17)
(1793.63 242.724 1.94579e-17)
(1916.35 208.083 4.10619e-21)
(1919.92 179.176 0)
(1984.2 311.538 1.34952e-17)
(2016.89 420.091 -1.62736e-17)
(2037.15 436.206 3.43635e-21)
(2008.75 384.572 3.66797e-21)
(2009.56 318.61 1.41108e-20)
(2002.2 249.656 -1.89515e-18)
(1995.22 159.666 9.51294e-19)
(1986.54 80.5229 1.88379e-18)
(1986.71 -1.75559 -9.61006e-19)
(1987.06 -87.9376 3.84409e-18)
(1997.25 -162.507 -3.80031e-18)
(2003.26 -259.798 0)
(2029.97 -320.803 1.02196e-20)
(2018.1 -398.795 -1.51178e-17)
(2039.71 -440.638 1.32942e-17)
(2016.75 -431.364 3.46812e-21)
(1986.28 -338.259 0)
(1925.25 -173.93 0)
(1925.51 -207.407 4.11713e-21)
(1787.38 -242.35 -3.93211e-17)
(1230.21 -167.248 4.68808e-17)
(1305.04 143.972 2.33386e-20)
(1802.05 211.347 0)
(1927.26 184.193 -7.81026e-21)
(1927.42 117.411 -1.45369e-17)
(1979.83 234.149 1.77351e-17)
(2017.47 348.617 -1.31529e-17)
(2037.72 390.797 1.53535e-17)
(2017.29 367.862 -7.02118e-18)
(2025.1 308.45 7.36234e-18)
(2025.09 237.836 -3.63473e-18)
(2010.79 150.013 3.70799e-18)
(2007.83 75.504 -1.81409e-18)
(2004.23 -3.32095 2.08848e-18)
(2007.54 -83.8135 -2.45554e-19)
(2014.49 -153.878 3.69929e-18)
(2024.1 -254.307 -7.29702e-18)
(2041.17 -311.812 -3.7718e-18)
(2024.69 -376.559 7.02301e-18)
(2041.62 -407.781 1.35827e-20)
(2019.22 -364.472 -7.01991e-21)
(1986.4 -238.88 0)
(1932.16 -130.815 0)
(1934.63 -179.781 0)
(1791.31 -203.203 -1.92913e-17)
(1266.76 -140.578 2.30617e-17)
(1325.25 139.91 -2.78368e-21)
(1809.14 194.717 0)
(1945.3 167.664 9.83639e-21)
(1930.49 86.9727 -7.98876e-21)
(1957.67 151.375 -7.25753e-21)
(2026.09 287.511 0)
(2045.31 351.87 -6.6773e-21)
(2029.1 331.132 6.84048e-18)
(2037.55 286.022 -7.30801e-18)
(2032.35 228.278 0)
(2027.48 148.188 1.69878e-21)
(2020.74 75.6807 0)
(2021.42 -0.678302 0)
(2020.76 -81.3619 1.80529e-18)
(2029.09 -147.853 -1.79313e-18)
(2031.84 -236.64 -7.23652e-21)
(2058.38 -288.275 -1.65834e-21)
(2040.27 -346.894 6.98838e-21)
(2048.21 -360.352 -7.5383e-18)
(2029.38 -317.099 6.37575e-18)
(1975.82 -180.097 -1.73658e-17)