/*--------------------------------*- C++ -*----------------------------------*\
| =========                 |                                                 |
| \\      /  F ield         | OpenFOAM: The Open Source CFD Toolbox           |
|  \\    /   O peration     | Version:  2112                                  |
|   \\  /    A nd           | Website:  www.openfoam.com                      |
|    \\/     M anipulation  |                                                 |
\*---------------------------------------------------------------------------*/
FoamFile
{
    version     2.0;
    format      ascii;
    arch        "LSB;label=32;scalar=64";
    class       volScalarField;
    location    "0.00931";
    object      nut;
}
// * * * * * * * * * * * * * * * * * * * * * * * * * * * * * * * * * * * * * //

dimensions      [0 2 -1 0 0 0 0];

internalField   nonuniform List<scalar> 
13875
(
0.0511675
0.0366254
0.0343658
0.0343275
0.0342983
0.0343356
0.0342948
0.0342749
0.0343112
0.0343058
0.0342813
0.0342904
0.0343213
0.0343417
0.0343306
0.0342932
0.0342675
0.0342895
0.0343023
0.0343266
0.0343038
0.0343344
0.0343824
0.0365726
0.0514262
0.0532618
0.0341198
0.0322224
0.0321056
0.0320612
0.0320836
0.0320342
0.0320178
0.0320611
0.0320611
0.0320251
0.0320429
0.0320531
0.0320723
0.0320604
0.032047
0.0320036
0.032034
0.0320459
0.0320759
0.0320636
0.0321024
0.0322287
0.0340552
0.0536366
0.0564568
0.0335617
0.031803
0.0315927
0.0315665
0.0315755
0.0314665
0.031434
0.03147
0.0314718
0.0314351
0.0314605
0.0315301
0.0315555
0.0315346
0.0314644
0.0314078
0.0314445
0.031478
0.0315676
0.0315643
0.0315803
0.0317949
0.0334934
0.0565955
0.0590704
0.0332328
0.0314897
0.0312773
0.0312587
0.0312612
0.0311396
0.031107
0.0311326
0.0311213
0.0310907
0.0311141
0.031214
0.0312396
0.0312182
0.0311164
0.0310725
0.0311019
0.0311463
0.0312539
0.0312552
0.0312626
0.0314851
0.0331675
0.0591454
0.0611256
0.0330041
0.0312466
0.0310041
0.0309815
0.0309772
0.0308519
0.0308225
0.0308452
0.0308298
0.0308027
0.0308243
0.0309261
0.0309544
0.0309297
0.0308268
0.030786
0.0308143
0.0308593
0.0309687
0.0309766
0.0309899
0.0312303
0.0329183
0.0612612
0.0628183
0.0328483
0.0310897
0.0307728
0.0307487
0.0307271
0.0305917
0.0305623
0.0305827
0.0305647
0.0305411
0.0305602
0.0306641
0.0306947
0.0306675
0.0305622
0.0305255
0.0305531
0.0305998
0.0307198
0.0307435
0.0307613
0.0310588
0.0328226
0.0629775
0.0648267
0.0330732
0.0311043
0.0306339
0.0305653
0.0305205
0.0303658
0.0303316
0.0303437
0.0303253
0.0303049
0.0303219
0.0304285
0.0304586
0.0304283
0.0303215
0.0302925
0.0303204
0.030376
0.0305121
0.03056
0.0306333
0.0311132
0.0330708
0.0648711
0.0670933
0.0339365
0.0314251
0.0306518
0.030482
0.0303689
0.0301833
0.0301304
0.0301357
0.0301152
0.0300975
0.0301093
0.0302198
0.0302517
0.0302185
0.0301074
0.0300886
0.0301205
0.0301896
0.0303572
0.0304672
0.0306299
0.0313924
0.0338959
0.067362
0.0736454
0.0362965
0.0320411
0.030847
0.0304733
0.0302789
0.0300495
0.0299723
0.0299626
0.0299396
0.0299278
0.0299346
0.0300486
0.0300826
0.0300488
0.0299345
0.0299224
0.0299581
0.030044
0.0302597
0.0304503
0.0308024
0.0319354
0.0359994
0.0741909
0.0828988
0.0384708
0.0327369
0.0311912
0.0305821
0.0302454
0.0299818
0.0298899
0.0298628
0.0298369
0.0298293
0.0298336
0.0299459
0.0299811
0.0299494
0.0298464
0.0298321
0.0298726
0.0299653
0.0302201
0.0305503
0.0310811
0.0326236
0.0381053
0.083545
0.0907215
0.044144
0.0346509
0.0319977
0.0308208
0.0303618
0.0300521
0.0299132
0.0298668
0.0298393
0.029829
0.0298315
0.0299368
0.029973
0.0299502
0.0298719
0.0298555
0.0299029
0.0300351
0.0303038
0.0307944
0.0318816
0.034363
0.043264
0.0893475
0.0950656
0.0545366
0.0403728
0.033454
0.0318756
0.0308408
0.0303378
0.030135
0.0300508
0.0300149
0.029998
0.0300018
0.030091
0.0301298
0.0301201
0.0300713
0.0300634
0.0301362
0.030321
0.0308357
0.0317991
0.0332293
0.0398483
0.0533636
0.094259
0.0866101
0.0689166
0.0514678
0.0417424
0.0343639
0.0319297
0.0312825
0.0308213
0.0306337
0.0305504
0.0305096
0.0305059
0.030573
0.0306145
0.0306259
0.0306214
0.0306751
0.0308697
0.0313308
0.0320044
0.0347654
0.0415802
0.0509464
0.068768
0.0866035
0.07961
0.0660544
0.0581153
0.0654875
0.0416761
0.0371681
0.0336417
0.0324286
0.032033
0.0319751
0.031939
0.0319327
0.0319921
0.0320349
0.0320606
0.0320868
0.0321376
0.0325334
0.0340781
0.0382574
0.0432063
0.0657041
0.057829
0.0661763
0.0816137
0.0753355
0.0643506
0.0565533
0.0605272
0.0560883
0.0538877
0.044326
0.0388222
0.0367266
0.0358866
0.035508
0.0353827
0.0353994
0.035457
0.0355663
0.0358648
0.036668
0.0389011
0.0451629
0.05522
0.0557441
0.0612428
0.0565959
0.064156
0.0746668
0.0671743
0.0618793
0.0542731
0.0571897
0.0559973
0.0571863
0.0545154
0.053074
0.0508014
0.0483279
0.0474788
0.0471337
0.0470388
0.0471241
0.0472881
0.0477919
0.0504308
0.0542567
0.0554464
0.0577206
0.0556153
0.0580059
0.0543085
0.061499
0.0664823
0.0624106
0.0582101
0.0524286
0.0549694
0.0567659
0.0611977
0.068066
0.072914
0.0701419
0.0707302
0.0730375
0.0745199
0.0753013
0.0749854
0.0734805
0.072702
0.0700803
0.0728509
0.0686713
0.0611947
0.0562967
0.0552966
0.0519627
0.0575783
0.0624393
0.0570069
0.0546862
0.0530499
0.0568425
0.0599489
0.0630217
0.070761
0.079176
0.0745231
0.07037
0.0692553
0.0693644
0.0699009
0.069621
0.069786
0.0727182
0.0739844
0.0767311
0.0708267
0.0641679
0.0609363
0.0576519
0.0528217
0.0542681
0.0567917
0.051382
0.0541581
0.0558363
0.0617636
0.0669499
0.06486
0.0672726
0.0751806
0.0744674
0.0705133
0.0687201
0.0683419
0.0684309
0.0689179
0.0698694
0.0717876
0.0728914
0.0731136
0.0677251
0.0667263
0.0696466
0.0629947
0.0562437
0.0544102
0.0521579
0.0493766
0.0573324
0.0603176
0.0656654
0.0686956
0.0645947
0.0638742
0.0695101
0.0719663
0.0705253
0.068742
0.067208
0.0664921
0.0680665
0.0700477
0.0709909
0.0699265
0.0678113
0.0645498
0.0665407
0.0707329
0.0664433
0.0608718
0.0576389
0.0487799
0.0775057
0.088697
0.0773998
0.0652439
0.0650188
0.0616182
0.0606708
0.0655189
0.0694586
0.069554
0.0676934
0.0652138
0.0640531
0.0663639
0.0690476
0.0695232
0.0672194
0.0640892
0.061463
0.0634655
0.0667572
0.0669105
0.0798852
0.0917635
0.0822838
0.128469
0.160818
0.0900641
0.0620123
0.0608943
0.0585979
0.0580188
0.0625393
0.0670122
0.0678794
0.0659227
0.0628168
0.0613895
0.064104
0.0672614
0.0675841
0.0647364
0.0613681
0.0587263
0.060213
0.0623124
0.0637902
0.0931402
0.165461
0.134497
0.152758
0.145629
0.0842004
0.059174
0.0575458
0.0560198
0.0556462
0.0601005
0.0646882
0.0658337
0.0637146
0.0602855
0.0586766
0.0615074
0.0650004
0.0654817
0.0624329
0.0590809
0.0562426
0.0572908
0.0586675
0.0606909
0.0838915
0.144428
0.153459
0.16138
0.146129
0.0767346
0.0570047
0.0547394
0.0536634
0.0536038
0.0578755
0.0624391
0.0636222
0.0612783
0.057667
0.0560972
0.0589731
0.0626768
0.0633728
0.0601838
0.0568308
0.0541701
0.0548211
0.0558577
0.0585558
0.0776898
0.150463
0.160714
0.167196
0.147297
0.0726784
0.0554224
0.0526593
0.051671
0.0519459
0.0559156
0.0602448
0.0613234
0.0588953
0.0552435
0.0537116
0.0565567
0.060374
0.061186
0.0580978
0.0548227
0.052376
0.0527219
0.0538227
0.0570052
0.0743964
0.154262
0.167546
0.174641
0.150775
0.0698975
0.0539358
0.0510341
0.0499855
0.0505953
0.0542042
0.0581567
0.0590769
0.0566648
0.0530252
0.051517
0.0542581
0.0580596
0.0589881
0.0561786
0.0530594
0.0507905
0.0508276
0.0521479
0.0553268
0.0714585
0.156986
0.177237
0.184287
0.14701
0.0666907
0.0525159
0.0497763
0.0486189
0.0494653
0.0526995
0.0561292
0.0567529
0.0544057
0.0509628
0.0495357
0.0522265
0.0559472
0.0569129
0.0544314
0.0515187
0.0494194
0.0493112
0.0509184
0.0539931
0.0689474
0.155312
0.184374
0.190058
0.146424
0.0648218
0.0514334
0.0488062
0.0475646
0.0484766
0.0513408
0.054283
0.0546766
0.052419
0.0491205
0.0477359
0.0503048
0.0538855
0.0549308
0.0528385
0.0501865
0.0482658
0.0481094
0.0498168
0.0527777
0.0671371
0.155677
0.192055
0.195131
0.148459
0.0637128
0.0505505
0.0480113
0.0468167
0.0476192
0.0501039
0.0525725
0.0527331
0.0506049
0.0474772
0.0461044
0.048535
0.0519017
0.0529871
0.051336
0.0489918
0.0472616
0.0471297
0.0488204
0.0517193
0.0652621
0.151019
0.200111
0.20213
0.14565
0.0627594
0.0498392
0.0472321
0.0462248
0.0469607
0.0489947
0.0509307
0.0508422
0.0488181
0.0459156
0.0446313
0.0470015
0.0502394
0.0513235
0.0499796
0.0479302
0.0464381
0.0463585
0.0479072
0.0509485
0.0645881
0.151785
0.20386
0.204358
0.141847
0.0622207
0.0494247
0.0465456
0.0456633
0.0463412
0.0479764
0.049467
0.0491809
0.0472876
0.0445546
0.0432942
0.0455527
0.048593
0.0496827
0.0487163
0.0470097
0.0457716
0.0456747
0.0470271
0.0503327
0.0636827
0.146907
0.209257
0.206839
0.141612
0.0621394
0.04931
0.0459301
0.045098
0.0457534
0.0470696
0.048173
0.0477356
0.0459268
0.043316
0.0420935
0.044215
0.0471203
0.0482495
0.0475756
0.0461851
0.0451459
0.045001
0.0462473
0.0500118
0.0630963
0.143683
0.211768
0.210969
0.137185
0.0618426
0.0493797
0.0454586
0.0446296
0.0451578
0.0462101
0.0469106
0.0463194
0.0446086
0.0421714
0.0410068
0.0430726
0.0458384
0.0469491
0.0465196
0.0454296
0.0445197
0.0444202
0.0456611
0.0499535
0.063148
0.143239
0.213546
0.212028
0.134855
0.0617012
0.0496865
0.0451634
0.0441979
0.0445204
0.0454148
0.0458074
0.0451135
0.0434811
0.0411459
0.0400242
0.0419598
0.0446201
0.0457571
0.0455432
0.0447403
0.0439091
0.0438985
0.0452437
0.0500828
0.0632859
0.139905
0.216049
0.213016
0.134477
0.0614232
0.0500564
0.0452075
0.0438029
0.0439331
0.0446348
0.0447991
0.0440017
0.0424488
0.0402223
0.0391356
0.0409757
0.0434954
0.0446395
0.0446284
0.044044
0.0433447
0.0435075
0.0451453
0.0504367
0.0629779
0.137737
0.216983
0.215139
0.13252
0.0610288
0.0504351
0.0454574
0.0434958
0.0433865
0.0438665
0.0438453
0.0429801
0.0414697
0.0393451
0.0383245
0.0400859
0.0425469
0.0436886
0.0437922
0.0433522
0.0428282
0.0431536
0.0453584
0.0509339
0.0627762
0.138159
0.217855
0.215426
0.132473
0.0608599
0.0512234
0.0459214
0.0433142
0.0429096
0.0431401
0.042955
0.042059
0.0406047
0.0385719
0.0375885
0.0392635
0.0416032
0.0427475
0.042971
0.0427069
0.0423599
0.042926
0.0457531
0.0516848
0.0623241
0.136709
0.219239
0.215391
0.13478
0.0607377
0.052002
0.046545
0.0433539
0.0424595
0.0424655
0.042137
0.0412362
0.0398336
0.037854
0.0369121
0.0384929
0.0407733
0.04191
0.0421948
0.0421063
0.0419207
0.0429361
0.0464039
0.052447
0.0618491
0.13756
0.219103
0.215829
0.134724
0.0602019
0.0522167
0.0473904
0.0436075
0.0421291
0.0418586
0.0413524
0.0404246
0.0390667
0.0371864
0.0363019
0.0378316
0.040025
0.0411343
0.0414884
0.0415667
0.0415866
0.0431333
0.0472992
0.0527726
0.0613854
0.140113
0.218755
0.214951
0.136772
0.0597081
0.0522217
0.0484782
0.0440425
0.0419571
0.0413355
0.0406654
0.0397225
0.0384108
0.0365816
0.0357334
0.0371704
0.0393184
0.0404134
0.0408288
0.0411101
0.0414442
0.0435549
0.0482489
0.0526488
0.0608426
0.141233
0.218646
0.214419
0.139336
0.0595221
0.0521275
0.0498971
0.0447132
0.0419844
0.0409584
0.0400641
0.0390708
0.0377886
0.0360246
0.0352156
0.0365781
0.0386398
0.0397419
0.0402575
0.0407737
0.04152
0.044184
0.049864
0.0525312
0.0604932
0.143504
0.217531
0.214549
0.141136
0.0592275
0.0517237
0.0505992
0.0455605
0.0421458
0.0407856
0.0395654
0.0384771
0.0372045
0.0354893
0.0347288
0.0360385
0.0380744
0.039171
0.0397989
0.0406056
0.0417041
0.0451366
0.050986
0.0523522
0.0610333
0.146216
0.216804
0.213811
0.14341
0.0592133
0.0511876
0.0505968
0.0469142
0.0425326
0.0407663
0.0392192
0.0379666
0.036679
0.0350101
0.0342817
0.0355282
0.0375015
0.0386328
0.0394413
0.0406137
0.0420884
0.0463551
0.0510266
0.0517945
0.0609001
0.148118
0.216648
0.2133
0.145807
0.060249
0.050678
0.0502337
0.0486397
0.0432525
0.0408314
0.0390588
0.037584
0.0362294
0.0345616
0.0338629
0.0350528
0.0369954
0.0381968
0.0392521
0.0407389
0.0428678
0.0483344
0.0507039
0.0512266
0.0613081
0.150293
0.215958
0.213096
0.147939
0.0602381
0.0501384
0.049632
0.0495422
0.044543
0.041096
0.0389961
0.0373306
0.0358357
0.0341626
0.0334911
0.0346505
0.0366081
0.0379108
0.0391991
0.0410392
0.0443547
0.0495592
0.0501442
0.050868
0.0625358
0.152555
0.215471
0.212191
0.149972
0.0614245
0.0498368
0.0489523
0.0492287
0.0467178
0.0418026
0.0390733
0.0372492
0.0356036
0.033862
0.0331789
0.0343231
0.0363323
0.0377956
0.0392466
0.0417089
0.0464955
0.0493378
0.049458
0.0504304
0.0630705
0.154558
0.215089
0.211131
0.152039
0.0630421
0.0497594
0.0483591
0.0487288
0.0479758
0.043439
0.0393146
0.0372099
0.0355055
0.0336961
0.0329163
0.0341216
0.0361982
0.0377598
0.0394488
0.0433018
0.0479877
0.0488505
0.0488234
0.0501939
0.0639025
0.156423
0.214027
0.209119
0.153332
0.0637489
0.0496529
0.0478664
0.0480804
0.0477052
0.0457235
0.040116
0.037258
0.0354675
0.0336323
0.0327851
0.034048
0.0361622
0.0378282
0.0402444
0.0457243
0.0478753
0.0481762
0.0483169
0.0502523
0.0655064
0.157772
0.211703
0.205677
0.153532
0.0647166
0.0497251
0.0474643
0.0473543
0.0472604
0.0472524
0.0418886
0.0375598
0.035514
0.0336289
0.0327776
0.0340323
0.0361853
0.0380902
0.0419258
0.0474964
0.0474484
0.0474192
0.0478597
0.0502646
0.0660445
0.157916
0.20836
0.19674
0.150364
0.0655211
0.0498253
0.0471665
0.0467488
0.0467063
0.0470716
0.0444983
0.0386776
0.0357307
0.0336758
0.0327977
0.0340615
0.0363373
0.0390825
0.0445672
0.04747
0.0468991
0.0468018
0.0475004
0.0502656
0.0663509
0.15463
0.199441
0.381606
1.55861
2.06157
2.04394
1.84804
1.64359
1.46326
1.29872
1.13491
0.96749
0.804823
0.66617
0.561233
0.48881
0.442605
0.413856
0.394925
0.38106
0.369449
0.358848
0.34791
0.33649
0.324117
0.309644
0.292125
0.270786
0.244324
0.208731
0.158574
0.108929
0.365998
1.64067
2.12589
2.07541
1.8616
1.65233
1.47176
1.31021
1.15216
0.991825
0.834224
0.69408
0.583897
0.505637
0.453199
0.419748
0.397665
0.38151
0.368266
0.356538
0.344847
0.33306
0.320332
0.305435
0.287425
0.265822
0.239275
0.203689
0.154338
0.107395
0.391567
1.80425
2.19408
2.10702
1.88031
1.66746
1.48691
1.32713
1.17323
1.01734
0.862891
0.722425
0.607104
0.522092
0.463358
0.425089
0.399634
0.381018
0.3661
0.353147
0.340948
0.328782
0.315722
0.300391
0.282028
0.260293
0.23387
0.198654
0.150448
0.106005
0.412188
1.88925
2.26329
2.15495
1.91589
1.69653
1.51398
1.3555
1.20481
1.05404
0.901568
0.760052
0.638318
0.544443
0.477903
0.433654
0.403981
0.382497
0.365701
0.35152
0.338739
0.326199
0.312408
0.295946
0.277391
0.255949
0.229384
0.194336
0.147278
0.104939
0.420171
1.96169
2.34077
2.21556
1.9639
1.73724
1.55267
1.395
1.24675
1.09887
0.947587
0.803442
0.675073
0.571751
0.496583
0.444854
0.410101
0.38533
0.366454
0.350939
0.337632
0.324019
0.308916
0.29213
0.273402
0.251896
0.225591
0.190699
0.144617
0.104092
0.427895
2.04186
2.42409
2.28313
2.01895
1.78611
1.59894
1.44219
1.29639
1.15037
0.999665
0.852772
0.718631
0.605539
0.520105
0.459969
0.419231
0.390415
0.368779
0.352127
0.336657
0.321497
0.306117
0.289099
0.27025
0.248493
0.221999
0.187166
0.142164
0.103307
0.437478
2.12492
2.51118
2.357
2.08125
1.8424
1.65315
1.4972
1.35366
1.20939
1.05897
0.909494
0.769962
0.647241
0.550093
0.479903
0.431454
0.39733
0.37274
0.352704
0.335639
0.319147
0.303091
0.285871
0.267017
0.245441
0.218681
0.183754
0.139705
0.102531
0.447987
2.20934
2.60254
2.43892
2.15109
1.9062
1.71565
1.56102
1.41972
1.27747
1.12777
0.976469
0.831647
0.699721
0.590611
0.507843
0.449135
0.407739
0.377718
0.354073
0.334916
0.317324
0.300584
0.283254
0.264354
0.242391
0.215354
0.180497
0.1374
0.101846
0.458448
2.29185
2.69884
2.52973
2.23121
1.97932
1.78818
1.63488
1.49599
1.35624
1.20808
1.05603
0.906099
0.764893
0.642268
0.545203
0.47331
0.421594
0.384547
0.356791
0.334979
0.31592
0.298614
0.281012
0.261686
0.239408
0.212172
0.17734
0.135194
0.10122
0.467355
2.37401
2.79979
2.63
2.32328
2.0639
1.87145
1.71951
1.58315
1.44623
1.30031
1.14738
0.993044
0.843288
0.707579
0.594612
0.506835
0.441893
0.395244
0.36187
0.336409
0.315669
0.297477
0.278982
0.259213
0.236496
0.209022
0.174243
0.13319
0.100719
0.475648
2.45383
2.90519
2.73985
2.42766
2.16081
1.96594
1.81517
1.68155
1.54754
1.40322
1.25018
1.09297
0.936076
0.787912
0.657835
0.551624
0.470082
0.411116
0.37011
0.339867
0.316796
0.296733
0.277322
0.25678
0.233654
0.206
0.17141
0.131278
0.100298
0.483401
2.53402
3.01526
2.85745
2.54329
2.27004
2.07181
1.92166
1.79111
1.65809
1.51387
1.36233
1.20446
1.04259
0.883291
0.736082
0.609734
0.508743
0.434498
0.383056
0.346452
0.319302
0.296875
0.276057
0.255049
0.231407
0.203476
0.1689
0.129539
0.0999755
0.492177
2.61669
3.1283
2.981
2.66728
2.38953
2.1884
2.0381
1.90859
1.77533
1.63394
1.48464
1.32674
1.16064
0.992558
0.829685
0.682931
0.560687
0.468113
0.402429
0.356856
0.32396
0.298012
0.275951
0.253554
0.229296
0.201024
0.166523
0.128164
0.0996898
0.500005
2.70302
3.24206
3.10854
2.79738
2.51728
2.31478
2.16421
2.03293
1.90029
1.76346
1.61645
1.4584
1.28864
1.11369
0.938315
0.772771
0.628526
0.514086
0.430542
0.372624
0.331493
0.300997
0.276373
0.25266
0.227672
0.198977
0.164536
0.12693
0.0994562
0.50726
2.78679
3.35338
3.23752
2.93217
2.65179
2.44917
2.29755
2.1634
2.03419
1.90125
1.7562
1.59749
1.42505
1.24442
1.05969
0.878636
0.712988
0.574603
0.469021
0.394634
0.342285
0.305922
0.277742
0.252543
0.226597
0.197428
0.162971
0.125905
0.0992557
0.512923
2.86444
3.46055
3.36525
3.07043
2.79201
2.5902
2.4351
2.30052
2.17533
2.04571
1.902
1.74256
1.56817
1.38269
1.18997
0.997115
0.812582
0.649582
0.518729
0.423907
0.35756
0.313109
0.28052
0.253274
0.22609
0.196327
0.161774
0.125028
0.0990558
0.518639
2.93289
3.56189
3.4878
3.20852
2.9364
2.73684
2.57776
2.44277
2.32096
2.19416
2.05193
1.89252
1.71668
1.52717
1.32742
1.1252
0.924792
0.738756
0.581655
0.462494
0.379137
0.323683
0.285234
0.254848
0.226141
0.19553
0.160704
0.124135
0.0988155
0.524358
2.99005
3.65521
3.60182
3.3427
3.08405
2.88759
2.7252
2.59109
2.4707
2.34585
2.20586
2.04688
1.87038
1.67859
1.47462
1.2644
1.05004
0.843488
0.660464
0.514303
0.409082
0.339173
0.292522
0.257607
0.226877
0.194979
0.159607
0.123208
0.0989475
0.527991
3.03376
3.73056
3.70321
3.46953
3.23306
3.03981
2.87731
2.74458
2.62515
2.50138
2.36299
2.20548
2.02932
1.83646
1.62893
1.41153
1.18604
0.962749
0.755649
0.58089
0.449753
0.361217
0.303231
0.262381
0.228551
0.194976
0.158773
0.122471
0.0991454
0.53026
3.0623
3.77975
3.78624
3.58523
3.37713
3.19318
3.03389
2.90328
2.78451
2.66166
2.52335
2.36808
2.19297
1.99927
1.78874
1.56545
1.33044
1.09298
0.864978
0.662791
0.502656
0.391261
0.318372
0.269512
0.231459
0.195717
0.158448
0.122017
0.0993589
0.533368
3.06668
3.79515
3.84155
3.68381
3.51375
3.34622
3.19428
3.06711
2.94956
2.82717
2.68978
2.53617
2.36247
2.16785
1.95411
1.72501
1.48222
1.23219
0.987152
0.759844
0.569191
0.430902
0.33899
0.279486
0.235851
0.197367
0.158694
0.12176
0.0995092
0.534304
3.04926
3.766
3.85758
3.76097
3.63856
3.49722
3.35798
3.23615
3.12065
2.99982
2.86551
2.71322
2.54009
2.34365
2.12593
1.89024
1.64018
1.37926
1.12036
0.871207
0.650146
0.481361
0.366176
0.292782
0.24203
0.199992
0.159461
0.121585
0.0996993
0.536762
2.97914
3.66736
3.81164
3.80455
3.74617
3.64368
3.52368
3.40992
3.29935
3.18247
3.05128
2.90089
2.72706
2.52683
2.30432
2.06078
1.8031
1.53358
1.2609
0.992543
0.743943
0.543372
0.400585
0.309442
0.249441
0.203073
0.160383
0.121517
0.099912
0.53284
2.80038
3.43776
3.68141
3.80458
3.83243
3.78054
3.68746
3.5882
3.48557
3.37518
3.24813
3.09826
2.92154
2.71578
2.48763
2.23661
1.97129
1.69404
1.40616
1.12036
0.84892
0.617527
0.443807
0.330912
0.258796
0.206849
0.161793
0.121574
0.10013
0.519601
2.22281
2.89375
3.3918
3.73211
3.8833
3.89977
3.84552
3.76833
3.67923
3.57643
3.45122
3.30127
3.12168
2.91078
2.67582
2.41916
2.14558
1.85791
1.55723
1.25726
0.966656
0.70562
0.498911
0.359238
0.271829
0.212405
0.163976
0.121876
0.100381
0.10855
0.157913
0.208183
0.243873
0.27036
0.291639
0.309037
0.323491
0.335862
0.347166
0.357776
0.368055
0.379533
0.393796
0.413641
0.444037
0.492834
0.568366
0.678337
0.822979
0.989476
1.15867
1.32248
1.48787
1.67235
1.88327
2.08555
2.10117
1.58177
0.385247
0.107039
0.153843
0.203206
0.238921
0.265566
0.287124
0.304875
0.31965
0.332372
0.344105
0.355442
0.366938
0.379991
0.396465
0.419345
0.454121
0.50828
0.589307
0.703581
0.847594
1.00752
1.16984
1.32842
1.49128
1.67639
1.89249
2.11303
2.16406
1.66447
0.369586
0.105657
0.150078
0.198179
0.233652
0.260268
0.282003
0.300085
0.315098
0.328287
0.340543
0.352521
0.365187
0.379867
0.398584
0.424426
0.463394
0.523033
0.609876
0.728474
0.871784
1.02788
1.18535
1.34012
1.50169
1.68696
1.90693
2.14126
2.23144
1.82969
0.395199
0.104581
0.146908
0.193895
0.229441
0.25621
0.277925
0.296458
0.311899
0.325481
0.338321
0.351174
0.365093
0.381806
0.403205
0.432839
0.477007
0.543462
0.638268
0.761997
0.905159
1.0584
1.21138
1.36309
1.5238
1.71059
1.93803
2.186
2.29877
1.9143
0.416154
0.103821
0.144335
0.190341
0.225526
0.252352
0.274651
0.29377
0.310066
0.323763
0.336944
0.350756
0.366149
0.384976
0.409521
0.443746
0.494383
0.568833
0.672071
0.801082
0.945923
1.09836
1.24776
1.39749
1.55792
1.74666
1.98178
2.24382
2.37433
1.98563
0.423928
0.103069
0.141938
0.18708
0.222291
0.249264
0.271506
0.29078
0.307886
0.323274
0.336938
0.351492
0.368742
0.390079
0.418445
0.458411
0.516934
0.600831
0.712628
0.846847
0.993635
1.14498
1.29223
1.44011
1.60053
1.79093
2.03319
2.30868
2.45577
2.06445
0.431231
0.102319
0.139616
0.183863
0.21905
0.246279
0.268417
0.287605
0.304969
0.321207
0.337236
0.353197
0.372553
0.397217
0.430588
0.478022
0.546758
0.641496
0.761541
0.899919
1.04827
1.19935
1.34474
1.49031
1.64929
1.84369
2.09187
2.38014
2.54118
2.14614
0.441229
0.101655
0.137467
0.180858
0.215995
0.243486
0.26571
0.284941
0.302512
0.319606
0.337342
0.356206
0.378669
0.407862
0.447955
0.505054
0.584934
0.69173
0.821624
0.964131
1.11329
1.26352
1.40706
1.55046
1.70774
1.9041
2.1595
2.46012
2.63099
2.22859
0.451021
0.101051
0.135435
0.177962
0.213112
0.240752
0.263363
0.282759
0.300549
0.3184
0.337663
0.35931
0.385786
0.421383
0.471208
0.540614
0.633837
0.753675
0.892544
1.04069
1.19046
1.3389
1.48042
1.62149
1.77722
1.97424
2.237
2.54953
2.72595
2.31015
0.461536
0.100574
0.133616
0.175277
0.210323
0.238102
0.261148
0.280983
0.299486
0.318194
0.339141
0.364488
0.396548
0.440829
0.50294
0.587596
0.696394
0.829306
0.976881
1.12932
1.28022
1.42641
1.56511
1.70372
1.85795
2.05637
2.32686
2.64894
2.82616
2.39068
0.470336
0.100166
0.131992
0.17276
0.207702
0.235523
0.258924
0.279384
0.298593
0.318674
0.342194
0.372215
0.411873
0.467652
0.545427
0.647965
0.77429
0.919668
1.07454
1.22997
1.38217
1.52362
1.66159
1.79746
1.95038
2.1511
2.42946
2.75819
2.9312
2.46965
0.478245
0.0998515
0.130546
0.17042
0.205271
0.233363
0.257021
0.278428
0.298935
0.320836
0.347883
0.384089
0.433803
0.50463
0.601053
0.723246
0.866949
1.02411
1.18423
1.34071
1.4941
1.63493
1.7679
1.90216
2.05415
2.25847
2.54372
2.87501
3.04075
2.54938
0.486385
0.0995617
0.129164
0.168251
0.203042
0.231532
0.255806
0.278014
0.300412
0.325584
0.357589
0.402179
0.465311
0.554475
0.672024
0.814535
0.974074
1.14119
1.30638
1.46282
1.61472
1.7564
1.88457
2.01662
2.16864
2.3775
2.66772
2.99824
3.1532
2.6311
0.494869
0.0992905
0.127876
0.166264
0.201031
0.230086
0.255179
0.278659
0.30333
0.33288
0.372614
0.428892
0.509546
0.62012
0.760147
0.921807
1.09489
1.2694
1.43924
1.59634
1.74518
1.88319
2.01305
2.1397
2.29373
2.50477
2.79834
3.12588
3.26678
2.71617
0.502619
0.0988807
0.12656
0.164398
0.199307
0.229155
0.255292
0.280572
0.308256
0.343807
0.393877
0.465742
0.568616
0.703311
0.865687
1.0439
1.22738
1.40781
1.58082
1.73907
1.88494
2.01851
2.14554
2.27445
2.42646
2.63899
2.93398
3.25571
3.37846
2.79925
0.509834
0.0986525
0.12573
0.163243
0.198399
0.228752
0.25618
0.283578
0.315701
0.359126
0.422891
0.515135
0.643012
0.803029
0.985957
1.17766
1.36926
1.55438
1.72945
1.88863
2.03208
2.16135
2.28396
2.41525
2.56878
2.77861
3.07347
3.38489
3.48593
2.87676
0.51552
0.0986356
0.125024
0.162327
0.197772
0.228787
0.257853
0.288231
0.326208
0.380006
0.461272
0.577956
0.731763
0.91578
1.11561
1.31825
1.51748
1.70677
1.88299
2.04235
2.184
2.30946
2.4281
2.55998
2.71737
2.92324
3.21318
3.50919
3.58741
2.94716
0.521148
0.0987214
0.12434
0.161522
0.197354
0.229455
0.260683
0.295094
0.341001
0.408682
0.511287
0.655331
0.835781
1.04109
1.2545
1.46648
1.67144
1.8634
2.03993
2.19827
2.33827
2.46123
2.57781
2.70933
2.86927
3.07256
3.34913
3.62509
3.68203
3.00631
0.527089
0.0988526
0.123788
0.160909
0.19733
0.230891
0.264803
0.304882
0.361478
0.446972
0.575299
0.747957
0.954004
1.17787
1.40324
1.62251
1.83083
2.02394
2.19968
2.35645
2.49455
2.61669
2.73296
2.86316
3.02396
3.2237
3.4775
3.72841
3.7601
3.05181
0.53085
0.0990978
0.123239
0.16059
0.197805
0.233362
0.270797
0.318281
0.388828
0.496952
0.654445
0.854547
1.08315
1.3217
1.55815
1.78307
1.99441
2.18839
2.36288
2.51705
2.65462
2.77636
2.89324
3.02136
3.17987
3.3708
3.5953
3.81332
3.81263
3.08233
0.533112
0.0992344
0.122621
0.160469
0.199093
0.236982
0.279121
0.336471
0.424872
0.559705
0.747688
0.974127
1.22081
1.47202
1.71737
1.94795
2.16222
2.35722
2.53038
2.68294
2.81939
2.94124
3.05821
3.18358
3.33561
3.51025
3.69606
3.87057
3.83145
3.08947
0.536365
0.0993413
0.121996
0.16037
0.201047
0.241986
0.290502
0.360692
0.47104
0.635396
0.853546
1.10322
1.36464
1.62735
1.8804
2.11732
2.33532
2.5326
2.70586
2.85721
2.99124
3.11195
3.22831
3.34933
3.4892
3.63792
3.77575
3.88902
3.8056
3.07445
0.537596
0.0994872
0.121786
0.1609
0.203597
0.248331
0.305184
0.391347
0.527488
0.722161
0.967812
1.23742
1.51241
1.78536
2.04658
2.29129
2.51474
2.7166
2.89186
3.04226
3.17209
3.28939
3.40343
3.51729
3.6381
3.74903
3.82308
3.84622
3.70942
3.00688
0.540251
0.0997049
0.122015
0.162479
0.207341
0.256861
0.323969
0.429648
0.594696
0.819484
1.08844
1.37552
1.66431
1.94576
2.21521
2.4692
2.70018
2.9085
3.08785
3.23823
3.36437
3.47464
3.58079
3.68322
3.77896
3.83983
3.8265
3.71756
3.48062
2.82965
0.536673
0.099991
0.122534
0.164756
0.212493
0.26842
0.348565
0.477918
0.67419
0.928244
1.21715
1.51852
1.82044
2.11141
2.38957
2.65272
2.89197
3.10682
3.29101
3.44313
3.56615
3.66848
3.76045
3.84431
3.90368
3.8961
3.75762
3.4301
2.9377
2.2499
0.523544
0.410718
0.416861
0.426834
0.439718
0.454965
0.471662
0.489212
0.50702
0.524743
0.542226
0.559338
0.576033
0.59213
0.607546
0.622287
0.636341
0.649641
0.662127
0.673825
0.684856
0.695361
0.705427
0.714987
0.724068
0.732699
0.74084
0.748519
0.755863
0.763056
0.770011
0.776668
0.782978
0.788898
0.794379
0.799352
0.804015
0.808523
0.812553
0.816077
0.819016
0.821357
0.823038
0.823966
0.824054
0.8234
0.822026
0.819755
0.816498
0.812161
0.806767
0.800419
0.793017
0.7845
0.774844
0.764076
0.752304
0.739555
0.725845
0.711191
0.695628
0.679237
0.662142
0.644744
0.627274
0.6095
0.591509
0.573357
0.55506
0.536665
0.518204
0.499734
0.481304
0.462963
0.444759
0.426741
0.408961
0.391487
0.374384
0.357665
0.341282
0.325259
0.30965
0.294464
0.279681
0.265239
0.251083
0.237216
0.223666
0.21045
0.197633
0.185266
0.173447
0.16229
0.151907
0.142433
0.133959
0.12653
0.120209
0.11499
0.110781
0.107472
0.10497
0.103141
0.101839
0.100953
0.100399
0.100088
0.0999596
0.0999678
0.100136
0.100348
0.100588
0.100865
0.10113
0.101397
0.101532
0.101515
0.101424
0.101317
0.101106
0.100922
0.100851
0.10078
0.100543
0.100331
4.75563
4.78276
4.82624
4.90309
4.99464
5.10085
5.21269
5.32634
5.43786
5.54765
5.65693
5.76628
5.87517
5.98278
6.08883
6.19257
6.29252
6.3865
6.47386
6.55723
6.63934
6.722
6.80384
6.88365
6.96098
7.036
7.10924
7.18145
7.2491
7.31203
7.36991
7.42237
7.46925
7.5105
7.54613
7.57628
7.60125
7.62094
7.63604
7.64655
7.65233
7.65318
7.649
7.63996
7.62307
7.59946
7.56874
7.53047
7.48398
7.4284
7.36545
7.29445
7.21507
7.12716
7.03086
6.92716
6.8161
6.69749
6.57107
6.43652
6.29339
6.13967
5.97005
5.78226
5.5847
5.3841
5.1828
4.98014
4.7776
4.57538
4.3738
4.17376
3.97624
3.78252
3.59444
3.41383
3.24184
3.07883
2.92501
2.78097
2.64646
2.52031
2.40088
2.28672
2.17627
2.068
1.96049
1.85246
1.74288
1.63122
1.51741
1.40205
1.2861
1.17083
1.05773
0.948273
0.844018
0.746116
0.65606
0.574521
0.501793
0.437908
0.382668
0.335462
0.295644
0.262411
0.23487
0.212743
0.194748
0.180564
0.169319
0.160166
0.152965
0.147444
0.143658
0.140941
0.138338
0.135456
0.132646
0.130048
0.127979
0.126413
0.125222
0.124125
0.123301
8.07403
8.13866
8.25151
8.40944
8.59437
8.79634
9.00438
9.21221
9.4153
9.61175
9.80127
9.98387
10.1593
10.3271
10.487
10.6386
10.7812
10.9145
11.0396
11.159
11.2735
11.3843
11.4915
11.5946
11.6933
11.7866
11.8749
11.9566
12.031
12.0979
12.157
12.2081
12.251
12.2859
12.313
12.3326
12.3448
12.3498
12.3478
12.3388
12.3228
12.2995
12.2686
12.2296
12.1816
12.1239
12.0565
11.9787
11.8899
11.7899
11.6781
11.5557
11.422
11.2769
11.1207
10.9539
10.7771
10.5902
10.3931
10.1859
9.96879
9.74164
9.5039
9.2558
8.99749
8.72823
8.44808
8.16058
7.87011
7.57737
7.28418
6.99194
6.70137
6.4137
6.13024
5.85231
5.58107
5.3175
5.06221
4.81586
4.57895
4.35119
4.13188
3.9202
3.7153
3.51653
3.32333
3.13497
2.95111
2.77166
2.59662
2.42617
2.26068
2.1005
1.94582
1.79678
1.65329
1.51528
1.38307
1.25641
1.1358
1.02152
0.914458
0.815107
0.72381
0.64091
0.566696
0.501879
0.445303
0.397339
0.35643
0.321344
0.292218
0.268546
0.250136
0.235619
0.223103
0.21144
0.200917
0.191989
0.184814
0.179268
0.174816
0.170934
0.167676
10.4519
10.5439
10.7011
10.911
11.1525
11.4106
11.6739
11.935
12.1887
12.4324
12.6646
12.8847
13.0921
13.2869
13.469
13.6388
13.7968
13.9439
14.0819
14.2127
14.3365
14.4535
14.5638
14.6677
14.7654
14.8549
14.9354
15.0062
15.0674
15.1189
15.1611
15.1941
15.218
15.2333
15.2401
15.2388
15.2296
15.2129
15.1889
15.1577
15.1194
15.0737
15.0203
14.9587
14.8883
14.8085
14.7191
14.6194
14.5093
14.3881
14.2555
14.1118
13.9569
13.7905
13.6126
13.4232
13.2246
13.016
12.7973
12.5688
12.3309
12.0837
11.8271
11.5606
11.2844
10.9985
10.703
10.3976
10.0816
9.75687
9.42634
9.09433
8.76136
8.4284
8.09761
7.77004
7.44679
7.12898
6.81754
6.51324
6.2166
5.92791
5.64735
5.37489
5.11053
4.85427
4.60602
4.36536
4.13217
3.90641
3.68773
3.47639
3.27224
3.0752
2.88509
2.70165
2.52468
2.35378
2.18894
2.02957
1.87564
1.72701
1.58406
1.4471
1.31624
1.19197
1.07453
0.965326
0.863959
0.77171
0.687878
0.611936
0.545463
0.48929
0.442742
0.403389
0.367788
0.33548
0.307136
0.283469
0.264477
0.249687
0.237425
0.227383
0.21926
12.478
12.5865
12.7658
12.9988
13.2626
13.5404