/*--------------------------------*- C++ -*----------------------------------*\
| =========                 |                                                 |
| \\      /  F ield         | OpenFOAM: The Open Source CFD Toolbox           |
|  \\    /   O peration     | Version:  2112                                  |
|   \\  /    A nd           | Website:  www.openfoam.com                      |
|    \\/     M anipulation  |                                                 |
\*---------------------------------------------------------------------------*/
FoamFile
{
    version     2.0;
    format      ascii;
    arch        "LSB;label=32;scalar=64";
    class       volScalarField;
    location    "0.00233";
    object      p;
}
// * * * * * * * * * * * * * * * * * * * * * * * * * * * * * * * * * * * * * //

dimensions      [1 -1 -2 0 0 0 0];

internalField   nonuniform List<scalar> 
13875
(
951514
984115
973646
975524
973382
974403
974536
974307
974809
974876
975200
975233
975003
975041
974903
974450
974667
974142
974306
974254
973023
975591
972418
982795
945760
733716
659328
672170
677007
670292
668529
668563
670280
677701
678729
679167
679233
679297
679686
679214
678585
677156
670322
668565
668448
669925
677056
672324
657340
730939
736806
635601
664543
653637
648339
646004
645107
645612
647912
648189
648825
647044
648352
649277
650092
648970
646672
645235
644811
645629
647627
652055
662021
632315
733601
743451
636259
665439
653795
648627
646205
645256
645671
645359
645333
646388
646099
646223
646336
647148
646443
644620
645297
644950
645814
647897
652175
662768
632922
739130
757286
639304
668031
654509
649514
646801
645691
645917
645446
645407
646489
646299
646417
646418
647217
646523
644835
645544
645368
646358
648690
652760
665057
635572
750020
759134
648063
673904
656524
651426
648077
646608
646508
645763
645724
646820
646845
646949
646744
647516
646805
645463
646142
646258
647537
650427
654636
670661
643331
751744
765487
668833
686393
661611
655388
650696
648470
647798
646671
646643
647662
647983
648065
647671
648296
647557
646830
647493
648124
650136
654333
660345
682289
666117
756047
792402
719579
712995
675555
664056
656314
652355
650632
648981
648833
649620
650284
650399
649820
650138
649527
649579
650372
651901
655421
662439
673462
707586
715902
782507
912887
831172
769768
707009
681883
667681
660262
656638
654249
653738
654060
655044
655250
654514
654354
654119
655060
656412
659558
666076
678953
702301
761589
824510
911792
1.5414e+06
1.03844e+06
842042
747760
706059
684561
673597
667901
665041
664092
663847
664946
665169
664418
663735
664014
665729
668078
673010
682839
702598
741909
833222
1.02879e+06
1.52489e+06
2.96422e+06
1.41853e+06
986225
819675
748497
715240
699050
690999
687241
685446
684673
685436
685586
685091
684098
684773
687072
691022
698100
712275
741476
804181
953144
1.3601e+06
2.88289e+06
5.79651e+06
2.38804e+06
1.3976e+06
1.00828e+06
847298
784718
756917
743663
737239
733947
732392
732190
732383
732125
731482
732657
735896
742674
755027
780228
835530
972563
1.30162e+06
2.30041e+06
5.63011e+06
5.58772e+06
4.85198e+06
2.95415e+06
1.68416e+06
1.13228e+06
979381
916719
886280
871037
863612
860360
858258
859596
858790
859540
862442
869116
883292
912392
972541
1.11231e+06
1.53772e+06
2.39243e+06
4.91457e+06
5.40407e+06
5.05237e+06
4.72822e+06
5.01627e+06
4.78316e+06
2.04272e+06
1.6218e+06
1.46534e+06
1.37413e+06
1.33288e+06
1.31412e+06
1.31074e+06
1.29961e+06
1.31214e+06
1.3028e+06
1.30884e+06
1.31712e+06
1.33632e+06
1.37608e+06
1.46404e+06
1.641e+06
2.12021e+06
4.63368e+06
5.07444e+06
4.808e+06
4.84563e+06
4.21932e+06
4.36916e+06
4.91181e+06
5.12139e+06
5.04018e+06
3.87617e+06
3.58918e+06
3.27882e+06
3.16608e+06
3.02976e+06
3.04657e+06
2.95894e+06
3.02617e+06
2.98582e+06
3.01192e+06
3.04364e+06
3.12569e+06
3.29333e+06
3.5731e+06
3.75831e+06
4.77792e+06
4.9727e+06
5.00013e+06
4.54226e+06
4.46871e+06
3.84674e+06
3.91792e+06
4.6638e+06
5.36267e+06
6.74375e+06
7.95238e+06
9.16386e+06
9.06445e+06
9.57476e+06
9.30116e+06
9.62319e+06
9.38013e+06
9.59103e+06
9.42022e+06
9.56132e+06
9.41936e+06
9.49449e+06
9.20295e+06
9.2311e+06
8.27138e+06
6.95444e+06
5.4526e+06
4.88574e+06
4.13588e+06
4.14526e+06
3.0684e+06
3.55588e+06
4.7396e+06
5.50488e+06
6.73855e+06
7.65247e+06
7.78779e+06
7.71829e+06
7.55547e+06
7.44142e+06
7.23684e+06
7.31952e+06
7.1352e+06
7.27384e+06
7.26401e+06
7.37757e+06
7.51574e+06
7.70576e+06
7.73432e+06
7.80113e+06
7.07153e+06
5.80583e+06
4.97122e+06
3.80698e+06
3.39454e+06
2.49011e+06
3.31019e+06
4.65089e+06
5.28948e+06
5.85203e+06
6.12074e+06
5.89859e+06
5.89927e+06
5.90174e+06
5.92678e+06
5.94252e+06
5.95434e+06
5.9576e+06
5.96131e+06
5.9657e+06
5.96142e+06
5.9511e+06
5.95693e+06
5.9831e+06
6.16262e+06
6.18699e+06
5.62298e+06
4.97306e+06
3.29818e+06
2.41756e+06
1.32493e+06
2.2865e+06
3.86459e+06
4.29332e+06
4.5176e+06
4.72129e+06
4.85616e+06
5.03293e+06
5.1836e+06
5.28624e+06
5.35207e+06
5.38512e+06
5.40483e+06
5.40189e+06
5.38207e+06
5.33577e+06
5.25046e+06
5.11266e+06
4.95785e+06
4.82895e+06
4.67408e+06
4.48716e+06
4.05122e+06
2.56131e+06
1.44046e+06
667049
1.54979e+06
2.71743e+06
3.18561e+06
3.41494e+06
3.7171e+06
4.10332e+06
4.42513e+06
4.62434e+06
4.74822e+06
4.83242e+06
4.87913e+06
4.90418e+06
4.89791e+06
4.86278e+06
4.79568e+06
4.68619e+06
4.4962e+06
4.1822e+06
3.78892e+06
3.49051e+06
3.27666e+06
2.80135e+06
1.71875e+06
703191
708074
1.19129e+06
1.80376e+06
2.25843e+06
2.60412e+06
3.02254e+06
3.50444e+06
3.86141e+06
4.0748e+06
4.21672e+06
4.31558e+06
4.37166e+06
4.39713e+06
4.38497e+06
4.33688e+06
4.24933e+06
4.11704e+06
3.90884e+06
3.54517e+06
3.04117e+06
2.6158e+06
2.2858e+06
1.85935e+06
1.18095e+06
730073
936618
1.03886e+06
1.24968e+06
1.70744e+06
2.0704e+06
2.55487e+06
3.00199e+06
3.33234e+06
3.54876e+06
3.70203e+06
3.80646e+06
3.86467e+06
3.8895e+06
3.87224e+06
3.81727e+06
3.7201e+06
3.57276e+06
3.35876e+06
3.02185e+06
2.56068e+06
2.06117e+06
1.70478e+06
1.28093e+06
1.03482e+06
942308
1.34988e+06
1.04872e+06
1.07321e+06
1.38659e+06
1.72375e+06
2.2085e+06
2.58755e+06
2.87164e+06
3.08331e+06
3.23596e+06
3.33726e+06
3.39397e+06
3.41691e+06
3.39601e+06
3.33827e+06
3.23842e+06
3.08748e+06
2.87561e+06
2.59217e+06
2.21618e+06
1.71031e+06
1.37941e+06
1.09172e+06
1.05504e+06
1.40334e+06
1.4215e+06
1.07349e+06
1.07632e+06
1.23241e+06
1.50863e+06
1.90744e+06
2.22275e+06
2.48125e+06
2.67215e+06
2.81174e+06
2.91313e+06
2.96698e+06
2.9895e+06
2.96704e+06
2.91014e+06
2.80922e+06
2.66577e+06
2.47305e+06
2.21355e+06
1.89924e+06
1.50811e+06
1.23121e+06
1.08856e+06
1.0809e+06
1.4199e+06
1.42123e+06
1.1143e+06
1.08866e+06
1.1616e+06
1.3625e+06
1.65837e+06
1.919e+06
2.15173e+06
2.32382e+06
2.45059e+06
2.54258e+06
2.59392e+06
2.6135e+06
2.59357e+06
2.53937e+06
2.44612e+06
2.31259e+06
2.13875e+06
1.90517e+06
1.64394e+06
1.36293e+06
1.16367e+06
1.09807e+06
1.12308e+06
1.41926e+06
1.4271e+06
1.17623e+06
1.11624e+06
1.12369e+06
1.25345e+06
1.45972e+06
1.67312e+06
1.87455e+06
2.02436e+06
2.13765e+06
2.22193e+06
2.26414e+06
2.2861e+06
2.26431e+06
2.2164e+06
2.13008e+06
2.01016e+06
1.85763e+06
1.6589e+06
1.4459e+06
1.25907e+06
1.13018e+06
1.12127e+06
1.17864e+06
1.41944e+06
1.4424e+06
1.27906e+06
1.16185e+06
1.12382e+06
1.17683e+06
1.30992e+06
1.48078e+06
1.64643e+06
1.77606e+06
1.87534e+06
1.94752e+06
1.9857e+06
1.99992e+06
1.98416e+06
1.93846e+06
1.86495e+06
1.75978e+06
1.62857e+06
1.46464e+06
1.294e+06
1.17411e+06
1.12466e+06
1.16341e+06
1.28605e+06
1.43297e+06
1.48851e+06
1.4671e+06
1.20341e+06
1.12216e+06
1.12e+06
1.19204e+06
1.31786e+06
1.45076e+06
1.55925e+06
1.64601e+06
1.71079e+06
1.74248e+06
1.75693e+06
1.73984e+06
1.70375e+06
1.63836e+06
1.54828e+06
1.43895e+06
1.30984e+06
1.18351e+06
1.12043e+06
1.12251e+06
1.19864e+06
1.45028e+06
1.47189e+06
1.58903e+06
1.54478e+06
1.22866e+06
1.11415e+06
1.08512e+06
1.1094e+06
1.19568e+06
1.29574e+06
1.38435e+06
1.45625e+06
1.50901e+06
1.53809e+06
1.54856e+06
1.53518e+06
1.50232e+06
1.44851e+06
1.37276e+06
1.28313e+06
1.18591e+06
1.10261e+06
1.08399e+06
1.11188e+06
1.22086e+06
1.50995e+06
1.56001e+06
1.79783e+06
1.59247e+06
1.24348e+06
1.0998e+06
1.05126e+06
1.04844e+06
1.09381e+06
1.16336e+06
1.23192e+06
1.29126e+06
1.33797e+06
1.36043e+06
1.37034e+06
1.35659e+06
1.33141e+06
1.28423e+06
1.22263e+06
1.15326e+06
1.08563e+06
1.04239e+06
1.04736e+06
1.09651e+06
1.24495e+06
1.57591e+06
1.70596e+06
1.85147e+06
1.64052e+06
1.26978e+06
1.08618e+06
1.01247e+06
994082
1.01418e+06
1.05884e+06
1.10894e+06
1.15498e+06
1.19098e+06
1.21154e+06
1.21861e+06
1.20898e+06
1.18539e+06
1.14947e+06
1.10274e+06
1.05421e+06
1.01032e+06
992307
1.01121e+06
1.08341e+06
1.26274e+06
1.61136e+06
1.85271e+06
1.85039e+06
1.66572e+06
1.3158e+06
1.08528e+06
979176
946732
944381
971131
1.00381e+06
1.03631e+06
1.06677e+06
1.08104e+06
1.08941e+06
1.07994e+06
1.06287e+06
1.03258e+06
998543
966142
940641
943238
974976
1.07725e+06
1.29125e+06
1.63363e+06
1.85193e+06
1.84102e+06
1.6691e+06
1.37536e+06
1.08749e+06
949257
900155
889633
898687
920009
940783
961301
973894
978919
972502
956740
937182
915655
895152
887422
897902
945855
1.08015e+06
1.34384e+06
1.64051e+06
1.84709e+06
1.82219e+06
1.66856e+06
1.4987e+06
1.1005e+06
929294
858449
835787
833466
843688
855816
871422
878311
884203
878067
869195
853627
841556
831886
835840
857823
925693
1.08737e+06
1.42698e+06
1.63778e+06
1.82908e+06
1.78538e+06
1.66505e+06
1.57407e+06
1.12986e+06
923855
825798
790954
782070
782468
787601
795400
801076
803755
800535
793079
785779
781309
780568
790074
825229
924748
1.11004e+06
1.56825e+06
1.63225e+06
1.79264e+06
1.75422e+06
1.64615e+06
1.57169e+06
1.16107e+06
926269
799044
747465
730719
726565
727087
730414
731404
734716
731039
729293
725628
725523
729506
748415
800054
929424
1.15381e+06
1.57166e+06
1.61772e+06
1.72121e+06
1.71157e+06
1.6068e+06
1.5664e+06
1.2261e+06
937760
785553
715680
689078
679594
676757
675912
675455
676330
675174
675189
676099
679286
688675
716782
786787
936879
1.21602e+06
1.56236e+06
1.58092e+06
1.6793e+06
1.66677e+06
1.5548e+06
1.55188e+06
1.35607e+06
964370
786211
689704
650650
634990
629375
627618
624575
625847
624806
627082
629786
635798
650548
690643
787929
957176
1.34141e+06
1.5425e+06
1.5302e+06
1.63622e+06
1.63639e+06
1.50919e+06
1.51325e+06
1.35606e+06
996547
790429
676618
622897
600729
590989
585941
583449
583205
583642
585636
591574
601703
623795
679281
796941
1.00006e+06
1.34764e+06
1.50078e+06
1.48602e+06
1.59668e+06
1.60109e+06
1.4689e+06
1.43626e+06
1.35184e+06
1.06419e+06
805935
677260
600735
568077
554708
549592
544828
545299
545393
549733
555950
570383
603425
679810
809688
1.06703e+06
1.34055e+06
1.41282e+06
1.44813e+06
1.57051e+06
1.55803e+06
1.43061e+06
1.36047e+06
1.33808e+06
1.20011e+06
839165
682229
591728
546674
527609
518049
514116
513156
514321
518132
528686
549184
596188
684226
837801
1.20313e+06
1.32261e+06
1.33707e+06
1.41574e+06
1.53666e+06
1.52549e+06
1.40084e+06
1.29694e+06
1.30241e+06
1.19851e+06
890186
689292
592320
530737
502072
490518
484760
484290
484275
491527
503580
533956
597237
699709
898212
1.20237e+06
1.28348e+06
1.27849e+06
1.38531e+06
1.49513e+06
1.47751e+06
1.37392e+06
1.25229e+06
1.23207e+06
1.18898e+06
997784
708478
597488
527394
487576
468000
461553
459613
461645
468584
489776
530933
600507
724865
1.00665e+06
1.18642e+06
1.21484e+06
1.23474e+06
1.35491e+06
1.46238e+06
1.42622e+06
1.34543e+06
1.21703e+06
1.16729e+06
1.16275e+06
1.04225e+06
746193
611193
528442
474869
450156
439194
437694
439500
451573
478318
531871
610446
775297
1.03814e+06
1.15107e+06
1.15182e+06
1.20186e+06
1.32836e+06
1.42257e+06
1.38779e+06
1.31199e+06
1.19259e+06
1.11575e+06
1.10498e+06
1.03735e+06
811556
636066
531048
474907
440544
425134
420138
425271
442029
478515
537417
635022
881320
1.03274e+06
1.08149e+06
1.10338e+06
1.18067e+06
1.2937e+06
1.37363e+06
1.3472e+06
1.27881e+06
1.17176e+06
1.07216e+06
1.03974e+06
1.02313e+06
946203
690044
541930
476897
440328
415468
408677
415548
441076
479724
548811
678520
921195
1.01207e+06
1.02358e+06
1.06264e+06
1.16099e+06
1.26235e+06
1.34153e+06
1.30065e+06
1.23564e+06
1.15266e+06
1.04709e+06
990018
991145
944810
800728
566994
482685
441032
415474
404132
415520
441667
483769
573076
766358
917766
968481
975621
1.03937e+06
1.14339e+06
1.2276e+06
1.2979e+06
1.25935e+06
1.19993e+06
1.13001e+06
1.02798e+06
954920
941248
931993
850690
614697
494040
442965
415948
404653
416332
445021
495624
626498
837203
906435
917426
944263
1.02079e+06
1.12129e+06
1.19175e+06
1.24977e+06
1.17646e+06
1.14657e+06
1.10207e+06
1.01406e+06
931045
900952
903277
848234
715169
518653
450273
418321
406816
418671
453026
518939
731897
835669
880058
877795
921768
1.00682e+06
1.0947e+06
1.13844e+06
1.16373e+06
1.04718e+06
1.07453e+06
1.05642e+06
992164
916427
864371
855410
836011
769414
570163
469207
425072
412556
425118
471777
567171
762039
824125
837663
846282
907416
982987
1.0477e+06
1.06814e+06
1.03825e+06
71324.1
71626
72016
72265.9
72663.1
73011.2
73324.4
73387.2
73216.4
72742.4
72146.5
71604.2
71238.7
71012.1
70880.3
70799.8
70739.7
70695.9
70667.6
70651.4
70642.9
70638.6
70636.6
70636
70632.6
70638.5
70622.8
70647.3
70596.8
70670.8
72017.7
73188.8
74186.9
75117.7
76197.4
77251
78215.2
78644.6
78491.4
77412.6
75512.4
73601.9
72199
71425.5
71052
70865.2
70769.3
70712.1
70676.5
70655.9
70645
70639.5
70637
70636.1
70632.8
70638.4
70624.5
70646.1
70614.2
70655.6
73829.6
76212.6
77996.1
80281.2
82700.2
85010.4
87182.9
88617.2
89171.2
88113.1
83728.4
78689.9
75040.8
72670.3
71519.3
71039.1
70827.8
70731.9
70684.8
70659.8
70646.8
70640.3
70637.3
70636.3
70633.5
70638.1
70628.3
70643.1
70625.2
70646.4
77573.5
82747.3
85751.6
87841.6
88914.5
89751.5
91074.1
92755.1
94806.2
97035.8
98295
94294.2
83331.9
76644.6
73057.6
71541.5
70995.1
70783.6
70699.2
70664.3
70648.5
70641.1
70637.7
70636.4
70634.3
70637.6
70630.7
70640.9
70629.4
70642.6
84536
87989.2
88346.7
89091.3
89487.4
90003.1
91151
92811.6
95013.5
97765.6
101038
103987
103733
90301.7
78144.7
73269.5
71491.3
70929.4
70739.5
70674.5
70651
70641.8
70638
70636.6
70635
70637.3
70632.4
70639.4
70632.1
70640.1
86148.2
88276.7
88183.7
88831.9
89207.8
89691.4
90576.3
92079.5
94477.5
97548.8
101033
104777
108642
109698
96546.5
79062.9
73221.1
71377.7
70858.8
70703.7
70657.7
70643.2
70638.4
70636.7
70635.5
70637
70633.8
70638.4
70633.7
70638.7
86047.7
87504.7
86975.4
87672.2
87903.8
88222
88689.5
89833.6
92302.5
95933.9
100342
104730
108892
113146
114525
100445
79142.9
72934.7
71231.7
70794.8
70677.9
70647.3
70639.2
70636.9
70636
70636.8
70634.8
70637.7
70634.7
70637.9
85488.5
85758.3
85051.2
85758.9
85906.8
86219.9
86449
87206.6
89318.6
92827.8
97795.5
103453
108746
113285
117696
118768
101357
78387.3
72498
71082.4
70742.8
70660.6
70641.6
70637.3
70636.3
70636.7
70635.5
70637.2
70635.4
70637.4
84167.5
83558.2
82989.3
83475.4
83660
83995
84111
84524
86285.7
89574.3
94306.7
100283
107007
113011
117865
122341
122447
98925.8
77025.7
72022
70949.2
70704.1
70649.8
70638.7
70636.7
70636.7
70636
70637
70635.8
70637.1
82518.9
81319.5
80873.9
81099.7
81374.9
81724.1
81881.5
82072.5
83251.2
86326.8
90963.7
96622
103546
111069
117574
122628
127085
125122
93230.1
75408.5
71606.6
70842
70677.1
70643.5
70637.5
70636.8
70636.3
70636.8
70636.2
70637
80604.9
79263.9
78864.2
78964.5
79277.8
79624.8
79838.1
79920.3
80604.7
83051.7
87740.9
93224.2
99805.3
107549
115703
122438
127683
131706
125648
86672.4
73879.8
71269.6
70763.2
70659.5
70640.1
70637.2
70636.6
70636.8
70636.4
70636.9
79226.5
77714.7
77372.1
77319.4
77575.7
77880.7
78002.3
78046.2
78354.4
80125.5
84442.9
89996.1
96382.7
103728
112308
120882
127622
133127
135561
119314
80929.6
72661.6
71021.7
70709.9
70648.8
70638.4
70636.9
70636.8
70636.5
70636.9
78193.8
76754
76430.1
76251.6
76325.1
76432.2
76424.8
76393.8
76395.9
77548.2
81156.9
86826.7
93165.1
100236
108454
117811
126602
133199
138754
138058
105773
77109.5
71827
70856
70676.3
70642.8
70637.6
70636.9
70636.7
70636.9
77864.9
76662.2
76315.2
75908.3
75699
75417.2
75129.9
74794.3
74630.4
75104.7
78230.2
83540.5
90104.7
97047
104933
114079
124086
132765
139228
144530
136818
91641.2
74385.4
71297.3
70754.1
70656.6
70639.7
70637.2
70636.8
70636.9
77872.8
76994
76721.3
76149.2
75669.2
74948.9
74126.9
73578.9
73352
73309.4
75743.7
80320.8
87234
94109.5
101862
110611
120669
130927
139114
146383
148630
127339
81633.1
72630.3
70981.4
70696
70646.2
70638.2
70636.9
70636.9
77838.8
77210.6
77333
76954.8
76190
75133.8
73979.9
73358.8
73021.7
72900.6
73927.3
77700.6
84522.8
91505
99252
107750
117352
128095
138191
146502
154113
148385
106044
76598.9
71646.2
70805.2
70664.9
70641
70637.3
70637
77733.7
77261.7
77613.9
77704.5
77181.5
75983.3
74500.7
73576.3
73133.1
72921.6
72899.1
75977.2
82253.7
89421.2
97192.3
105583
114719
125146
136375
146424
155872
157613
144202
88067.6
73590.2
71116
70714.1
70649.3
70638.6
70637.2
77629.8
77218.1
77774.9
78317.7
78556.7
77178.6
75365.8
73965.2
73178.1
72722.6
72441.5
74792.4
80333.7
87729.9
95424.1
103773
112766
122727
134153
145572
155905
164175
159552
120815
78879.4
71996
70851.1
70670.4
70642
70637.6
77641.5
77065.3
77729.5
78629.3
78966.1
77583
75695.1
74088.4
73073.3
72360.4
72129.9
73638.1
78703.9
86176.6
93742.7
101927
111077
120884
132114
144361
155843
167108
168353
156388
95152.8
74432.4
71221.7
70726.8
70650.9
70639.7
77560.8
76935.3
77160.6
78351.1
78784.2
77439.6
74808
73524.5
72902.6
72106.3
71742
71924.2
76233.2
83690.2
91358.7
99767.5
109181
119176
130224
142797
155515
167605
174086
170399
132636
80706.3
72244.6
70876.3
70672.8
70643.9
77382.4
76681.1
76558.1
77254.5
77892.2
75688.8
74248.5
73127.8
71628.9
70386.8
70088
70372.2
73903.2
81827.7
89601.4
97722.7
106988
117300
128323
140662
154299
167369
179742
179573
166964
100686
74966.7
71268.2
70728.4
70651.4
77533.5
76671.9
77107.1
77637.2
76129.9
75512
73370.5
71080.8
69939.4
69456.9
69368.7
69741.8
73001.9
80871.4
88654.3
96529
105041
114862
125960
138279
152197
166229
180635
185012
182002
141734
81687.6
72321.5
70873
70674.2
76543.7
76613.6
77298.1
77654.9
76111.3
73124.7
70842
69537.1
69163
69213
69322.2
69691.1
72773.8
78781.9
85442.3
93381.2
101968
111927
123314
135923
149966
163938
180442
192788
191263
176919
103102
74999.8
71236
70729.2
80709.1
76011.2
76635.8
76112.7
74642.1
72259.4
69998.9
69204.8
68924.9
69230
69420.6
69249.1
69836.2
75679.3
83830.9
91799
100282
109990
121022
133799
147753
163034
179496
195778
198159
193547
145754
81410.4
72179.6
70858.2
60955.2
72610.1
73578.2
74157.6
74451.1
71197.7
69672.2
68656.3
68194.2
67717
67026.5
66890.4
68207.1
74030.2
83158.5
91113
99542.8
109048
119822
132200
146007
161822
177179
196057
204209
203475
185330
100881
74513.9
71182.5
70670.8
70596.8
70647.3
70622.8
70638.5
70632.6
70636
70636.6
70638.6
70642.9
70651.4
70667.5
70695.9
70739.6
70799.6
70879.8
71010.7
71235.5
71598.3
72136.6
72729.7
73203.3
73375.2
73314.5
73003.6
72657.6
72262.2
72013.4
71624.6
71323.6
70655.6
70614.2
70646.1
70624.5
70638.4
70632.8
70636.1
70637
70639.5
70645
70655.9
70676.4
70712
70769.1
70864.5
71049.8
71419.8
72185
73575.9
75473.7
77366.9
78449.7
78606.3
78184.3
77227.7
76179.4
75104
74177.5
73182.2
72014.6
70646.4
70625.2
70643.1
70628.3
70638.1
70633.5
70636.3
70637.3
70640.3
70646.8
70659.8
70684.8
70731.7
70827
71036.6
71511.9
72649.7
74996.5
78617.1
83594.9
87990.9
89071.5
88534.5
87114.1
84951.8
82650.6
80242
77972.8
76196.9
73821.2
70642.6
70629.4
70640.9
70630.7
70637.6
70634.3
70636.4
70637.7
70641.1
70648.5
70664.3
70699.1
70782.9
70992.5
71533
73029.6
76575.5
83163
94081.3
98189.1
96966.4
94750.8
92705.3
91028.2
89705.3
88867.9
87795.3
85704.7
82706.1
77552
70640.1
70632.1
70639.4
70632.4
70637.3
70635
70636.6
70638
70641.8
70651
70674.4
70738.9
70927
71482.6
73236
78051.5
90024.3
103564
103904
100978
97711.8
94963.3
92764
91106.2
89959
89444.9
89051.9
88312.3
87954.3
84501.2
70638.7
70633.7
70638.4
70633.8
70637
70635.5
70636.7
70638.4
70643.2
70657.6
70703.2
70856.6
71369.1
73184.8
78950
96200.3
109555
108559
104714
100975
97498.1
94432.7
92036
90532.9
89647
89165.3
88792.5
88150.7
88245.1
86121.6
70637.9
70634.7
70637.7
70634.8
70636.8
70636
70636.9
70639.2
70647.3
70677.5
70793.1
71224.4
72900
79018.5
100029
114372
113062
108823
104670
100295
95895.2
92267
89794.1
88646.9
88176.7
87859.9
87631.4
86939.7
87470.3
86021.7
70637.4
70635.4
70637.2
70635.5
70636.7
70636.3
70637.3
70641.6
70660.4
70741.6
71076.6
72468.6
78269.7
100913
118606
117600
113203
108683
103407
97761.4
92795.6
89286.9
87168.6
86407.2
86174.2
85862.6
85715.4
85012.5
85720.1
85456.4
70637.1
70635.8
70637
70636
70636.7
70636.7
70638.7
70649.7
70703.2
70944.9
72000.1
76920.8
98433
122248
122230
117774
112939
106959
100251
94278.9
89545.3
86258.1
84487.2
84068.7
83949.5
83613.5
83429.1
82944
83513.8
84124.5
70637
70636.2
70636.8
70636.3
70636.8
70637.5
70643.4
70676.5
70839.1
71591.5
75325.8
92774.9
124863
126949
122525
117494
111016
103508
96585.5
90930.1
86290.3
83214.8
82026.5
81830.9
81672.4
81321.2
81044.1
80819.5
81262.9
82466.7
70636.9
70636.4
70636.8
70636.6
70637.1
70640.1
70659.1
70761.4
71259.5
73821.5
86339.1
125264
131525
127561
122341
115636
107504
99767.9
93188
87709.3
83016
80566
79871.6
79783.6
79567.5
79217.5
78901.1
78799
79194.3
80535.9
70636.9
70636.5
70636.8
70636.9
70638.4
70648.7
70708.8
71015.5
72623.4
80736.6
118615
135316
132982
127504
120799
112249
103676
96334.6
89949.2
84403.5
80077.3
78305
77991.3
77945.9
77816.8
77508.3
77249.2
77299.1
77635.9
79145.7
70636.9
70636.7
70636.9
70637.5
70642.7
70675.7
70852.4
71805.6
76988
105128
137746
138571
133059
126495
117732
108386
100174
93106.7
86770.7
81113.7
77487.1
76336.1
76334.2
76366.1
76371.6
76257.6
76180
76353.6
76661.7
78088.7
70636.9
70636.8
70637.2
70639.6
70656.3
70752.2
71285.4
74310.8
91150.2
136386
144316
139060
132627
123985
114001
104861
96976.9
90041.3
83481.9
78189.8
75012.9
74548.5
74725.3
75079.5
75374.5
75666.1
75853.3
76254.3
76577.5
77754
70636.9
70636.9
70638.1
70646
70695
70975.1
72590
81406.1
126389
148132
146220
138947
130802
120569
110527
101784
94037.3
87176
80271.5
75722.9
73323.7
73371.4
73594.3
74141
74965.3
75676.9
76131.2
76699.8
76948.7
77795.8
70637
70637.3
70640.9
70664.5
70802.1
71626
76473.4
105270
147982
153915
146362
138046
127981
117251
107670
99184.9
91446.3
84489.8
77685.5
73960.2
72992.9
73104
73431
74052.2
75202
76265.6
77020.8
77375.3
77229.6
77825
70637.2
70638.5
70649.1
70712.7
71106.5
73524.9
87539.1
143475
157311
155756
146286
136257
125057
114652
105534
97170
89412.8
82297.7
76021.9
73002
73039.4
73251.2
73677.2
74608.6
76111.3
77313.3
77810.9
77721.6
77356.7
77797.1
70637.6
70641.9
70669.8
70846.9
71966
78694.9
119726
159083
163819
155830
145471
134081
122698
112770
103779
95477.8
87809.9
80512.4
74948.9
72543.6
72843.1
73319
74144.4
75542.8
77402.8
78764.6
78524.6
77974.2
77343.2
77803.4
70639.6
70650.6
70725
71209.2
74344.2
94386.3
155728
168075
167044
155779
144319
132111
120953
111185
102009
93859.2
86314.7
78866.3
73843.5
72245.9
72495.4
73240.1
74286.8
75900.3
77877.7
79357.3
79027.8
78047.1
77283.1
77866.3
70643.8
70672.1
70871.3
72208
80478.3
131496
170036
173756
167601
155484
142824
130312
119342
109354
99916.5
91537.9
83858.9
76579.5
72084.5
71801
72235.5
73127.3
73818.6
75270
77822.5
79321.6
78827
77515.8
77251.2
77859.5
70651.1
70726.5
71254
74864.6
99811.9
166349
179348
179721
167392
154341
140770
128464
117424
107096
97844.4
89660.7
81946.6
73788.6
70581.6
70312
70604.7
71848.2
73561.5
74836.5
76444.4
78875.1
78112.3
77086.9
77205.6
77884.3
70673.5
70867.8
72281.6
81432.4
140506
181744
184909
180724
166340
152301
138420
126041
114848
105070
96546.8
88697.5
80890.4
72751.7
69983.2
69699.3
69828.4
70413.1
71749.2
74381.5
76448.1
76796
77684
77511.8
77264.6
78157.2
70727.2
71222.2
74896
102156
176382
191136
192720
180575
164076
150126
136069
123359
111956
101966
93393.4
85445.7
78742.6
72506.4
69943.2
69673
69686.3
69793.3
70316.6
71814.8
74374.3
76432.7
77220.1
77285.7
77229.6
77145.9
70853.3
72143
81170.6
144535
193375
198191
195947
179695
163201
147929
133910
121119
110043
100291
91810.1
83806.4
75874.9
69911.9
69728.5
69909.9
69799.5
69636.4
69913.4
70700.9
72731.6
74871.5
75510.3
76857
76596.4
81679.3
71170.6
74426.9
100014
184840
203501
204278
196269
177400
162019
146164
132316
119906
109104
99546.7
91122.6
83108.6
74343.8
68554.2
67421.6
67653.7
68545.8
69057.8
69410.7
70183.6
71345.3
74144
74265.4
73790.4
72788
61487.2
70637
70637
70637
70637
70637
70637
70637
70637
70637
70637
70637
70637
70637
70637
70637
70637
70637
70637
70637
70637
70637
70637
70637
70637
70637
70637
70637
70637
70637
70637
70637
70637
70637
70637
70637
70637
70637
70637
70637
70637
70637
70637
70637
70637
70637
70637
70637
70637
70637
70637
70637
70637
70637
70637
70637
70637
70637
70637
70637
70637
70637
70637
70637
70637
70637
70637
70637
70637
70637
70637
70637
70637
70637
70637
70637
70637.1
70637.7
70642
70665.3
70787.6
71356.6
73463.1
80489.4
104175
169865
284565
416996
546590
658707
761905
851086
925548
987314
1.0384e+06
1.0784e+06
1.10795e+06
1.12679e+06
1.13009e+06
1.12675e+06
1.11747e+06
1.10113e+06
1.07837e+06
1.0479e+06
1.01392e+06
975885
933310
887797
839412
788445
734399
677993
620211
562219
504554
445420
386059
327097
270612
215926
161640
115218
87639.3
78373.4
73901.7
71981.7
70637
70637
70637
70637
70637
70637
70637
70637
70637
70636.9
70636.9
70636.9
70636.9
70636.9
70636.9
70636.9
70636.9
70636.9
70636.9
70637
70637
70637
70637
70637
70637
70637
70637
70637
70637
70637
70637
70637
70637
70637
70637
70637
70637
70637
70637
70637
70637
70637
70637
70637
70637
70637
70637
70637
70637
70637
70637
70637
70637
70637
70637
70637
70637
70637
70637
70637
70637
70637
70637
70637
70637
70637
70637
70637
70637
70637
70637
70637
70637
70637
70637.1
70639.4
70653.9
70746.3
71288.1
73767.2
84058.5
129032
242433
384028
486931
535810
562577
576208
590314
602559
612704
617065
617764
615447
608268
597633
586127
574127
561801
549294
536383
522648
507557
493191
478778
463809
448948
434378
420500
406925
391619
374468
356591
338978
321892
302608
283955
265833
249670
234932
215497
180983
133195
93752.6
79892.5
70637
70637
70637
70637
70637
70637
70637
70637
70637
70637
70637
70637
70637
70637
70637
70637
70637
70637
70637
70637
70637
70637
70637
70637
70637
70637
70637
70637
70637
70637
70637
70637
70637
70637
70637
70637
70637
70637
70637
70637
70637
70637
70637
70637
70637
70637
70637
70637
70637
70637
70637
70637
70637
70637
70637
70637
70637
70637
70637
70637
70637
70637
70637
70637
70637
70637
70637
70637
70637
70637
70637
70637
70637
70637.6
70644.3
70692.9
71055.6
73161.2
84088.3
142461
296013
463965
556604
592713
599101
593889
582091
571463
560644
545449
532014
518609
502660
485784
468016
452449
438971
426479
414354
402511
390974
379656
368303
357876
348445
339418
330623
322048
313742
306461
300980
294999
289054
282487
275883
271137
265746
258551
250176
242537
235166
225393
212307
188744
143267
70637
70637
70637
70637
70637
70637
70637
70637
70637
70637
70637
70637
70637
70637
70637
70637
70637
70637
70637
70637
70637
70637
70637
70637
70637
70637
70637
70637
70637
70637
70637
70637
70637
70637
70637
70637
70637
70637
70637
70637
70637
70637
70637
70637
70637
70637
70637
70637
70637
70637
70637
70637
70637
70637
70637
70637
70637
70637
70637
70637
70637
70637
70637
70637
70637
70637
70637
70637
70637
70637
70637
70637
70638.9
70657.1
70816.9
72034.8
79853.2
133148
303876
506462
603287
637478
640582
631124
615071
599045
582743
565647
544915
519770
496190
472449
449726
428078
410065
394637
380535
367442
355108
343388
332251
321799
311924
302837
295367
288754
282354
276281
270306
264571
260298
258624
257409
256259
255235
254345
253227
250976
247402
242169
235788
229209
223066
215469
203789
70637
70637
70637
70637
70637
70637
70637
70637
70637
70637
70637
70637
70637
70637
70637
70637
70637
70637
70637
70637
70637
70637
70637
70637
70637
70637
70637
70637
70637
70637
70637
70637
70637
70637
70637
70637
70637
70637
70637
70637
70637
70637
70637
70637
70637
70637
70637
70637
70637
70637
70637
70637
70637
70637
70637
70637
70637
70637
70637
70637
70637
70637
70637
70637
70637
70637
70637
70637
70637
70637
70637.2
70641.7
70688.1
71159.8
74944.8
106696
261133
502759
631740
673715
676333
666729
651006
634082
615560
596732
573096
547216
518547
487891
462794
440294
420180
401886
384103
367622
352793
339453
327155
315590
304696
294698
285540
277024
270455
265001
259669
254693
249893
245542
241625
238188
235308
232976
231343
230286
230024
230125
231228
232197
232122
228913
223058
217299
211094
70637
70637
70637
70637
70637
70637
70637
70637
70637
70637
70637
70637
70637
70637
70637
70637
70637
70637
70637
70637
70637
70637
70637
70637
70637
70637
70637
70637
70637
70637
70637
70637
70637
70637
70637
70637
70637
70637
70637
70637
70637
70637
70637
70637
70637
70637
70637
70637
70637
70637
70637
70637
70637
70637
70637
70637
70637
70637
70637
70637
70637
70637
70637
70637
70637
70637
70637
70637
70637
70637.4
70646.9
70759.8
72000.7
83191.7
178877
439594
636477
702821
712642
703505
686339
668842
649798
625261
596018
575067
545605
517929
489533
461476
438746
418506
400189
382877
365916
349785
334965
321546
309296
297811
286849
276456
267024
258902
251897
247141
242110
237171
232344
228047
224203
220741
217614
214916
212595
210751
209451
208915
208861
209119
209542
212259
213531
213631
211835
70637
70637
70637
70637
70637
70637
70637
70637
70637
70637
70637
70637
70637
70637
70637
70637
70637
70637
70637
70637
70637
70637
70637
70637
70637
70637
70637
70637
70637
70637
70637
70637
70637
70637
70637
70637
70637
70637
70637
70637
70637
70637
70637
70637
70637
70637
70637
70637
70637
70637
70637
70637
70637
70637
70637
70637
70637
70637
70637
70637
70637
70637
70637
70637
70637
70637
70637
70637
70637.8
70655.3
70904.5
73897
108057
306693
594422
712104
743109
742238
727375
706086
686602
660849
634597
605019
577154
543679
518616
492110
466656
441369
418106
397076
377655
359767
342800
326742
311905
298688
286933
276154
265935
256266
247451
239581
232862
228377
223539
218881
214296
210259
206837
203828
201011
198455
196085
193970
192226
190972
190392
190370
190538
190941
191785
192973
195619
70637
70637
70637
70637
70637
70637