/*--------------------------------*- C++ -*----------------------------------*\
| =========                 |                                                 |
| \\      /  F ield         | OpenFOAM: The Open Source CFD Toolbox           |
|  \\    /   O peration     | Version:  2112                                  |
|   \\  /    A nd           | Website:  www.openfoam.com                      |
|    \\/     M anipulation  |                                                 |
\*---------------------------------------------------------------------------*/
FoamFile
{
    version     2.0;
    format      ascii;
    arch        "LSB;label=32;scalar=64";
    class       volVectorField;
    location    "0.00233";
    object      U;
}
// * * * * * * * * * * * * * * * * * * * * * * * * * * * * * * * * * * * * * //

dimensions      [0 1 -1 0 0 0 0];

internalField   nonuniform List<vector> 
13875
(
(2204.24 109.711 1.81242e-18)
(2142.66 5.63829 -9.3845e-19)
(2170.11 -2.22536 -9.41149e-19)
(2168.29 -1.23621 0)
(2170.85 0.0803968 0)
(2169.62 -0.0660744 9.3635e-19)
(2169.63 -0.349409 -9.36723e-19)
(2169.86 -1.07506 -4.68336e-19)
(2169.52 -1.15785 4.68049e-19)
(2169.73 -0.254293 0)
(2169.27 -0.0880745 -3.88339e-22)
(2169.22 -0.0469801 -3.88343e-22)
(2169.47 0.320148 0)
(2169.12 0.192528 -4.68379e-19)
(2169.26 -0.116669 4.68744e-19)
(2169.92 -0.0406667 0)
(2169.64 0.897704 9.367e-19)
(2170.03 1.10615 -9.36853e-19)
(2169.75 0.399648 3.85528e-22)
(2169.56 0.0495182 -3.85532e-22)
(2170.98 -0.219457 -9.35748e-19)
(2167.89 0.460736 9.36953e-19)
(2171 2.5421 -1.87844e-18)
(2143.34 -8.62537 1.91711e-18)
(2209.96 -106.833 1.76553e-18)
(2253.42 91.8989 -1.63222e-18)
(2228.55 -1.13048 1.88349e-18)
(2247.28 0.657327 8.71844e-19)
(2245.6 1.38572 -8.67218e-19)
(2248.52 -0.447887 4.16346e-22)
(2248.16 0.44933 5.20307e-22)
(2248.16 0.373861 4.16147e-22)
(2247.82 1.31729 -4.36464e-19)
(2245.69 1.37302 4.33266e-19)
(2245.37 0.3397 2.17502e-19)
(2245.1 0.411484 -1.62916e-19)
(2245.09 -0.0598062 -5.31589e-20)
(2245.2 -0.47093 0)
(2245.08 -0.129881 -4.36466e-19)
(2245.1 -0.220116 4.35722e-19)
(2245.69 -0.0352707 4.35094e-19)
(2245.85 -1.05885 -4.35803e-19)
(2247.93 -1.31414 5.19767e-22)
(2248.23 -0.399959 -5.20259e-22)
(2248.1 -0.452814 5.20196e-22)
(2248.65 0.666426 -8.71016e-19)
(2245.54 -0.775684 2.60005e-18)
(2247.21 -1.58598 -1.74273e-18)
(2228.79 3.5536 5.43031e-22)
(2256.62 -97.2708 -1.71319e-18)
(2252.48 78.089 0)
(2236.46 -18.2043 0)
(2249.33 4.392 0)
(2250.92 -1.99185 0)
(2254.14 -3.04906 -1.65482e-18)
(2253.91 -0.708986 1.64357e-18)
(2254.18 0.309806 1.64007e-18)
(2254.16 2.35558 -2.45865e-18)
(2253.41 2.25905 8.59635e-19)
(2253.46 0.421047 4.30172e-22)
(2253.01 -0.147492 -4.30048e-19)
(2253.47 -0.112123 4.30908e-19)
(2253.08 0.252006 0)
(2252.75 0.0904382 0)
(2252.6 -0.307868 4.30474e-22)
(2253.39 -0.734187 0)
(2253.76 -2.14279 8.39046e-22)
(2254.33 -2.06932 4.09585e-19)
(2254.3 -0.29154 -4.09909e-19)
(2253.93 0.571869 0)
(2254.32 2.95035 0)
(2250.99 1.35957 0)
(2250.58 -4.78383 0)
(2238.06 13.6377 0)
(2257.51 -74.1616 0)
(2247.88 51.3491 0)
(2235.03 -28.5139 1.81462e-18)
(2249.1 7.17361 -3.41741e-18)
(2251.65 -4.73422 3.46512e-18)
(2253.79 -3.84056 -1.65667e-18)
(2253.76 -1.01425 0)
(2254.13 0.295525 -7.85773e-22)
(2254.12 2.37306 0)
(2254 2.20599 0)
(2254.15 0.580403 0)
(2253.67 0.103224 0)
(2253.62 0.0101118 -8.03187e-22)
(2253.63 0.387179 -5.13764e-20)
(2253.47 0.221006 5.39005e-20)
(2253.33 -0.3686 0)
(2254.08 -1.30215 0)
(2254.19 -2.42401 8.00673e-22)
(2254.28 -2.07922 -8.10033e-19)
(2254.24 -0.26716 8.05667e-19)
(2253.81 0.839342 -1.62631e-18)
(2254.07 3.57189 1.6318e-18)
(2252.01 4.66982 1.74105e-18)
(2249.68 -8.84281 -1.72053e-18)
(2235.82 31.1157 0)
(2251.71 -58.6945 0)
(2244.96 39.3325 1.74891e-18)
(2235.55 -47.6941 0)
(2248.58 10.4091 0)
(2250.65 -8.24552 0)
(2254.16 -5.46946 0)
(2253.86 -1.77224 1.66115e-21)
(2254.05 0.161209 1.6254e-21)
(2254.08 2.31864 4.10641e-19)
(2254.02 1.95892 -4.26957e-19)
(2254.17 0.696448 2.12215e-19)
(2253.62 0.268343 -2.12389e-19)
(2253.56 0.0679873 0)
(2253.6 0.415604 0)
(2253.51 0.359406 -1.68741e-21)
(2253.35 -0.470249 0)
(2254.12 -1.53397 -1.68668e-21)
(2254.14 -2.47435 8.06114e-19)
(2254.2 -2.03581 -8.30295e-19)
(2254.13 -0.133254 1.66433e-18)
(2253.85 1.54131 -1.68954e-18)
(2254.3 5.00291 1.66542e-21)
(2250.76 6.9055 0)
(2249.93 -11.4631 0)
(2237.19 42.6046 0)
(2250.14 -35.5055 0)
(2241.48 6.83367 0)
(2231.49 -63.2835 9.12712e-19)
(2247 12.2009 -8.48201e-19)
(2250.91 -11.6179 0)
(2253 -6.39692 8.61341e-19)
(2253.18 -2.27072 -4.3148e-19)
(2253.71 0.0774446 -2.14732e-21)
(2253.87 2.24994 -2.09513e-19)
(2253.92 1.75692 -4.28741e-19)
(2254.1 0.955814 1.60281e-19)
(2253.64 0.66192 1.62977e-21)
(2253.38 0.0994106 2.657e-19)
(2253.49 0.435851 -2.12236e-19)
(2253.42 0.450136 3.34383e-21)
(2253.26 -0.545776 -4.2483e-19)
(2254.17 -1.97679 4.34236e-19)
(2253.98 -2.46801 1.61924e-21)
(2253.95 -2.06882 -1.62922e-21)
(2253.79 -0.142825 -1.63113e-21)
(2253.22 1.86944 -8.50534e-19)
(2253.3 5.61036 8.52538e-19)
(2251.47 11.4212 0)
(2247.32 -15.0562 0)
(2232.38 65.2877 -1.93277e-18)
(2245.89 -18.8673 -1.26137e-19)
(2254.32 2.99495 -4.9534e-20)
(2227.49 -79.0735 6.02377e-20)
(2242.83 12.1344 0)
(2248.74 -16.6628 -2.69178e-23)
(2252.61 -8.73753 -2.62332e-23)
(2252.87 -3.75008 0)
(2253.36 -0.496174 0)
(2253.61 1.79081 -8.35515e-19)
(2253.72 1.17234 8.43782e-19)
(2253.83 0.984933 0)
(2253.47 0.950478 1.71945e-18)
(2253.07 0.276764 2.22422e-21)
(2253.25 0.468645 -1.70936e-18)
(2253.16 0.489983 -1.68425e-21)
(2253.13 -0.80531 0)
(2253.94 -2.06633 3.41023e-18)
(2253.79 -2.15996 -1.37424e-22)
(2253.65 -1.68388 -6.7055e-18)
(2253.41 0.457264 3.35765e-18)
(2252.89 3.32119 2.59221e-23)
(2252.8 7.98443 0)
(2248.62 13.794 3.53139e-18)
(2244.05 -12.3992 -3.31083e-18)
(2228.8 72.9468 3.81608e-18)
(2247.01 2.89653 -3.18208e-18)
(2217.75 -22.7496 -3.16605e-19)
(2214.4 -87.0881 -7.50258e-18)
(2235.12 3.45996 8.73016e-22)
(2245.88 -23.2852 2.61604e-23)
(2248.85 -10.8341 -8.10349e-22)
(2250.55 -4.81712 0)
(2251.88 -0.862838 -3.34368e-18)
(2252.64 1.59358 3.36538e-18)
(2252.96 1.05746 0)
(2253.14 1.31896 -8.2196e-22)
(2252.99 1.55709 -8.36951e-22)
(2252.46 0.332216 0)
(2252.71 0.542443 0)
(2252.61 0.364825 -1.64868e-21)
(2252.77 -1.30225 -8.37834e-22)
(2253.34 -2.3189 2.57773e-23)
(2253.09 -2.0102 -8.5106e-22)
(2252.7 -1.59421 -2.55899e-23)
(2252.07 0.712194 -1.68578e-18)
(2250.78 4.23205 -1.36031e-20)
(2249.44 9.84467 1.68944e-18)
(2246.31 20.2606 8.88407e-22)
(2236.62 -4.54057 3.46054e-18)
(2216.32 81.5728 -3.53898e-18)
(2222.04 18.1336 2.50223e-23)
(2110.38 -37.9677 9.41709e-19)
(2167.86 -98.3335 0)
(2216.27 -20.4131 -8.31598e-22)
(2234.9 -33.2384 -8.64998e-19)
(2245.18 -20.0093 1.70725e-18)
(2248.3 -9.87186 -1.70505e-18)
(2250.07 -3.7632 7.46423e-21)
(2251.23 -0.0386147 8.48893e-19)
(2251.57 -0.0906443 0)
(2251.83 0.780049 -8.45693e-19)
(2251.78 1.6986 8.56417e-19)
(2251.22 0.583648 0)
(2251.48 0.582112 0)
(2251.39 0.259612 2.09082e-21)
(2251.69 -1.71385 8.32391e-22)
(2252.1 -1.97371 8.52879e-19)
(2251.85 -0.926342 -8.48441e-19)
(2251.3 -0.200028 0)
(2250.34 2.91983 8.5081e-19)
(2248.63 8.52401 -1.7048e-18)
(2245.99 17.1848 8.46231e-19)
(2236.14 29.6396 -8.40124e-22)
(2218.41 16.7724 0)
(2170.72 94.0015 0)
(2115.94 35.4711 0)
(1863.67 -143.367 -6.62306e-17)
(2122.02 -160.587 8.48587e-17)
(2195.4 -55.2734 0)
(2225.5 -57.7663 -2.96788e-17)
(2237.09 -23.3774 3.08967e-17)
(2243.26 -11.5097 0)
(2246.25 -3.93284 -2.97005e-20)
(2247.9 -0.396621 -1.46895e-17)
(2248.54 0.0473959 1.48697e-17)
(2248.99 1.25006 -2.98033e-20)
(2249.03 2.15396 0)
(2248.54 0.760023 -3.72745e-18)
(2248.82 0.620369 5.56569e-18)
(2248.79 -0.247156 -1.89497e-18)
(2249.13 -2.29629 -2.93626e-20)
(2249.32 -1.93002 0)
(2248.95 -0.57782 0)
(2248.03 0.192897 -2.96035e-17)
(2246.54 3.35186 2.93547e-17)
(2243.61 10.1142 -3.02103e-17)
(2238.77 21.7475 2.95618e-17)
(2227.16 54.5068 3.21888e-17)
(2198.68 53.4656 -2.931e-17)
(2127.46 162.775 -8.35428e-17)
(1880.99 139.221 -1.26505e-17)
(1644.1 -225.527 -9.12539e-17)
(2007.62 -311.514 1.3842e-16)
(2149.57 -113.649 0)
(2200.08 -64.6152 6.92331e-17)
(2226.5 -31.8196 -7.18329e-17)
(2234.75 -16.9858 -3.34446e-17)
(2239.2 -7.45755 3.41142e-17)
(2241.19 -3.42795 -3.37412e-17)
(2242.24 -1.58658 3.41072e-17)
(2242.92 0.345229 3.24907e-20)
(2243.03 1.67584 0)
(2242.72 0.957592 -2.13209e-18)
(2242.97 0.497254 2.16693e-18)
(2243.09 -0.414894 3.28523e-20)
(2243.31 -2.29571 3.25396e-20)
(2243.29 -1.37483 3.4171e-20)
(2242.83 0.931313 0)
(2241.62 3.05329 0)
(2239.73 6.47907 -6.85766e-17)
(2235.39 14.8381 6.72558e-17)
(2228.26 27.3687 -7.21578e-17)
(2206.3 58.7486 1.47521e-16)
(2160.57 99.562 -7.06839e-17)
(2011.9 299.52 -3.8919e-20)
(1690.35 206.684 8.83046e-20)
(1233.93 -577.704 -1.15508e-16)
(1739.7 -576.454 1.17917e-16)
(1976.33 -165.92 2.3185e-16)
(2149.28 -119.204 -9.71988e-17)
(2194.31 -38.7291 0)
(2210.39 -14.6429 7.51528e-17)
(2220.76 -5.99113 -7.67933e-17)
(2224.3 -1.14069 0)
(2226.91 -0.127159 3.56381e-20)
(2228 1.50583 0)
(2228.29 2.18104 0)
(2228.36 0.824704 0)
(2228.47 0.325871 4.72544e-18)
(2228.91 -1.18076 -4.72427e-18)
(2228.76 -2.49695 -3.98504e-20)
(2228.46 -1.88382 -3.53036e-20)
(2227.59 0.00385668 0)
(2225.28 1.26437 0)
(2221.84 5.53637 0)
(2211.18 11.9191 -7.88175e-17)
(2198.51 35.0647 1.59975e-16)
(2161.4 103.277 -7.46427e-17)
(2034.98 162.858 -1.33248e-16)
(1746.36 590.147 1.01672e-16)
(1272.04 551.013 -6.01444e-20)
(1254.34 -635.33 1.71336e-16)
(1145.01 -1017.66 0)
(1457.39 -612.587 0)
(1853.34 -166.202 -1.15191e-16)
(2096.57 -80.3742 1.2046e-16)
(2148.24 -55.0656 0)
(2163.15 -27.3549 1.41284e-20)
(2173.61 -16.5208 4.36345e-17)
(2179.85 -7.6714 -4.41603e-17)
(2182.04 -3.29571 0)
(2182.28 -0.681339 -1.08617e-17)
(2183.54 0.61821 1.08674e-17)
(2182.44 -0.358528 -5.44573e-18)
(2184 -0.78502 5.43788e-18)
(2183.14 -0.851349 3.90415e-20)
(2182.3 1.52467 -4.3547e-17)
(2180.2 6.66754 8.78137e-17)
(2175.1 15.2855 1.07802e-18)
(2165.26 25.9391 -4.35669e-17)
(2149.45 53.1422 -9.5856e-17)
(2092.34 60.4584 8.96795e-17)
(1864.06 98.9797 8.70293e-20)
(1628.81 498.176 2.77879e-20)
(1103.91 1052.44 1.69609e-16)
(1304.84 616.076 7.49155e-18)
(1317.1 -638.834 0)
(1162.84 -1010.77 0)
(1194.64 -749.409 0)
(1074.16 -851.253 0)
(1896.41 -275.823 0)
(1887.91 -22.5375 1.26303e-16)
(1927.27 18.7051 -1.32804e-16)
(1978.12 20.0706 1.97906e-19)
(2001.78 7.77234 -1.15631e-20)
(2014.15 6.33284 2.79428e-17)
(2009.62 4.98072 -2.84176e-17)
(2020.77 -0.298583 -3.70749e-19)
(2010.09 0.198018 -8.88e-19)
(2018.14 -3.10636 1.05853e-18)
(2013.71 -1.91327 -2.84766e-17)
(2011.74 -4.27407 2.83386e-17)
(2002.38 -7.0907 1.75475e-19)
(1980.68 -14.17 0)
(1927.68 -15.3643 0)
(1883.65 31.8764 0)
(1871.12 327.975 -2.13611e-16)
(1093.61 817.806 -5.57537e-17)
(1243.15 701.002 1.67814e-16)
(1136.26 990.109 2.07033e-20)
(1348.2 621.832 2.08997e-20)
(1392.93 -624.955 0)
(1252.83 -883.816 4.16264e-20)
(1240.71 -733.903 0)
(1103.16 -824.004 -1.79707e-16)
(1197.68 -675.593 3.47228e-16)
(1027.23 -546.136 -2.304e-16)
(1082.75 -471.769 0)
(1354.97 -262.609 -1.56783e-19)
(1319 -126.16 0)
(1402.02 -46.8981 0)
(1304.41 -39.0967 -2.96713e-17)
(1404.87 1.36917 3.02327e-17)
(1298.95 -2.31835 3.02824e-17)
(1374.91 -0.0664711 -3.01226e-17)
(1334.7 16.9009 0)
(1364.83 43.5564 -1.20285e-16)
(1328.65 107.483 1.18773e-16)
(1371.14 207.804 1.21468e-16)
(1163.89 431.613 -1.11153e-16)
(1077.71 589.68 0)
(1183.64 679.168 0)
(1097.3 809.625 -1.73303e-19)
(1270.3 694.54 -1.73809e-16)
(1256.22 870.071 3.78931e-16)
(1389.81 615.87 -1.73935e-16)
(1463.88 -617.465 -1.76489e-16)
(1355.51 -803.615 1.90547e-16)
(1300.11 -632.488 0)
(1150.41 -632.734 -2.41307e-16)
(1167.17 -532.091 -4.05551e-17)
(936.035 -397.027 3.49537e-16)
(453.691 -112.881 -2.53885e-16)
(460.152 -101.54 1.35592e-16)
(246.198 -22.1243 0)
(278.606 -24.1749 0)
(107.453 -1.45221 -4.32898e-20)
(231.445 -14.9607 1.60551e-19)
(92.7158 15.0763 0)
(192.214 -13.6991 0)
(146.556 9.40371 6.65745e-17)
(220.069 10.3034 -6.82032e-17)
(232.176 10.1356 -1.34086e-16)
(429.408 91.3545 2.76174e-16)
(451.739 99.7997 -6.76282e-18)
(832.223 323.762 -1.33733e-16)
(1148.01 511.84 0)
(1138.65 646.878 0)
(1306.07 607.495 -1.89373e-16)
(1310.77 805.004 2.1719e-16)
(1447.48 618.107 -4.57677e-20)
(1569.92 -546.563 1.69824e-16)
(1483.63 -608.181 -9.72863e-20)
(1461.46 -440.125 1.07907e-16)
(1298.49 -338.755 -1.00941e-16)
(1236.15 -258.014 -5.05959e-20)
(969.497 -152.599 1.2268e-19)
(598.283 -56.9528 1.29334e-16)
(588.519 -130.503 -1.9937e-16)
(478.053 -79.626 6.7496e-17)
(481.832 -92.2227 0)
(448.598 -45.4678 -3.30856e-17)
(474.104 -40.2713 3.27477e-17)
(448.918 -8.4239 0)
(460.77 13.9262 5.89012e-20)
(449.718 29.6871 -3.32014e-17)
(459.624 60.9175 3.30121e-17)
(459.191 72.9154 0)
(564.575 114.485 -1.34321e-16)
(573.127 79.3843 1.31442e-16)
(866.457 113.59 1.20153e-16)
(1191.14 230.756 -2.20952e-16)
(1254.94 334.725 1.21898e-16)
(1426.89 434.555 0)
(1463.03 646.098 1.78754e-16)
(1558.86 564.305 -1.03352e-17)
(1707 -397.45 -6.38356e-18)
(1607.13 -246.528 9.65208e-17)
(1452.81 -177.63 -4.44523e-17)
(1323.78 -50.1407 -5.71158e-17)
(1325.44 -108.793 7.89783e-17)
(1134.49 -165.446 -5.7419e-17)
(886.893 -167.895 6.23326e-17)
(887.799 -156.067 -6.30642e-17)
(836.636 -122.143 -1.46223e-19)
(798.625 -107.289 3.21908e-17)
(746.154 -49.857 1.60231e-17)
(768.373 -40.6825 -4.22532e-20)
(727.3 0.287727 -1.60681e-17)
(754.374 28.06 -6.24191e-20)
(750.388 53.0466 -7.72196e-20)
(780.81 93.5731 -2.01396e-18)
(829.883 129.917 7.5615e-22)
(891.656 153.522 5.98519e-18)
(907.202 166.494 -3.89463e-18)
(1094.61 156.208 0)
(1277.11 109.984 1.3103e-17)
(1280.81 64.0195 -4.02876e-17)
(1444.62 153.947 4.90928e-17)
(1590.45 259.925 -6.88746e-17)
(1696.5 412.708 6.52405e-17)
(1809.7 -283.925 -1.04046e-19)
(1761.07 33.8619 -1.38186e-19)
(1618.15 97.1799 1.62661e-19)
(1468.89 -1.58398 -7.12161e-21)
(1465.19 -66.8045 -1.69542e-19)
(1384.63 -122.211 -1.95837e-19)
(1166.87 -149.475 -7.94744e-21)
(1046.02 -135.482 0)
(978.713 -88.7327 0)
(941.002 -83.541 6.45727e-17)
(880.579 -42.9279 -6.40233e-17)
(885.028 -32.0442 -8.24847e-21)
(851.625 -2.72958 8.23253e-21)
(872.306 24.2992 -8.28474e-18)
(875.256 45.2833 8.0517e-18)
(917.495 74.898 0)
(964.943 94.6059 0)
(1025.23 131.618 -6.23673e-17)
(1123.06 162.344 6.04598e-17)
(1337.76 141.923 -1.89287e-19)
(1428.76 103.804 0)
(1432.23 17.976 0)
(1597.17 -105.241 -1.68782e-19)
(1737.48 -48.4493 -1.43804e-19)
(1796.47 287.85 1.54451e-16)
(1787.18 168.52 -1.68377e-16)
(1715.63 389.26 -2.25633e-16)
(1685.11 359.209 1.38356e-16)
(1620.71 216.133 0)
(1602.19 58.373 2.21799e-19)
(1549.33 -24.0622 1.0657e-16)
(1393.4 -55.2009 -2.18366e-16)
(1222.54 -67.5696 1.14968e-16)
(1107.14 -46.9183 -1.27197e-16)
(1051.08 -49.486 1.265e-16)
(990.45 -24.8719 3.21012e-17)
(980.754 -19.2607 -3.98669e-17)
(953.535 1.05893 -8.03739e-18)
(969.408 20.0318 1.6238e-17)
(983.402 33.3308 0)
(1030.7 49.5878 0)
(1096.22 59.8616 1.24736e-16)
(1200.02 74.2392 -2.4242e-16)
(1358.82 77.6572 1.15956e-16)
(1523.69 47.8962 2.27748e-19)
(1585.35 -29.7458 1.94435e-16)
(1607.05 -206.347 -2.07188e-17)
(1685.92 -346.441 -4.77547e-16)
(1700.3 -396.762 5.5435e-16)
(1766.55 -233.037 -3.02242e-16)
(1506.88 515.916 1.14556e-19)
(1525.23 856.548 -1.99154e-16)
(1720.75 594.849 1.2547e-16)
(1712.2 380.044 0)
(1690.47 204.418 0)
(1646.3 112.616 0)
(1515.61 71.6325 0)
(1357.74 22.9782 0)
(1232.5 10.8129 -5.48715e-17)
(1163.27 -13.4513 1.1118e-16)
(1094.42 -2.1635 -8.40089e-17)
(1079.21 -5.9707 3.14459e-17)
(1052.38 4.83148 -3.5195e-18)
(1070.85 12.751 1.28666e-20)
(1089.69 15.2928 -5.59093e-17)
(1150.89 20.6239 5.68012e-17)
(1228.68 5.96867 0)
(1342.42 -14.0491 0)
(1495.9 -50.0555 -1.75556e-16)
(1635.15 -95.386 1.8994e-16)
(1683.79 -184.03 -1.71587e-19)
(1707.91 -377.953 7.04666e-20)
(1714.56 -600.861 -9.32974e-20)
(1561.02 -825.277 -7.19932e-20)
(1474.13 -597.483 0)
(1181.1 834.596 -1.86879e-16)
(1572.84 996.225 1.1833e-16)
(1778.96 747.189 -1.3127e-19)
(1762 536.78 1.51257e-16)
(1745.1 344.817 -1.30085e-16)
(1701.28 242.047 0)
(1596.27 184.338 -8.44666e-17)
(1455.97 110.902 8.28459e-17)
(1331.48 70.652 -4.77246e-17)
(1259.23 32.509 9.6959e-17)
(1193.53 24.6376 -4.82862e-17)
(1171.91 8.50922 1.80869e-19)
(1149.7 6.08422 0)
(1166.17 0.77983 2.45502e-17)
(1192.9 -9.59777 2.37199e-17)
(1254.61 -24.2708 -4.9218e-17)
(1336.37 -55.2062 -9.14419e-17)
(1450.53 -106.059 9.06858e-17)
(1584.2 -171.121 -7.41997e-17)
(1693.41 -233.918 8.19685e-17)
(1742.48 -335.47 8.00161e-20)
(1761.53 -541.433 -7.86974e-20)
(1759.23 -761.466 0)
(1587.64 -984.021 6.47912e-20)
(1177.51 -856.394 0)
(1148.48 782.432 1.46094e-16)
(1618.5 948.601 -1.30972e-16)
(1799.63 821.882 5.07822e-20)
(1778.01 680.006 0)
(1767.68 494.87 0)
(1728.31 380.452 -7.46971e-21)
(1651.61 289.608 0)
(1537.52 191.233 8.01347e-20)
(1422.57 132.646 0)
(1350.66 73.3506 4.31503e-17)
(1283.97 51.4276 -6.4345e-17)
(1264.14 21.8068 3.21581e-17)
(1240.65 6.96015 -1.07798e-17)
(1259.76 -11.7317 0)
(1284.14 -36.0997 0)
(1348.85 -62.3984 4.14811e-17)
(1428.63 -115.912 -1.2079e-16)
(1529.47 -185.83 7.86597e-17)
(1638.62 -274.318 -6.47389e-17)
(1720.54 -375.386 7.14596e-17)
(1766.14 -483.695 0)
(1783.41 -665.586 0)
(1797.01 -821.826 0)
(1635.7 -917.987 -6.98344e-21)
(1136.14 -767.437 -1.66377e-16)
(1259.78 677.533 -2.78691e-20)
(1704.73 836.272 1.07446e-16)
(1786.44 860.768 -9.86846e-17)
(1785.26 747.543 0)
(1777.07 601.404 0)
(1752.37 480.75 7.6965e-21)
(1693.23 365.276 6.58443e-17)
(1591.32 257.252 -6.4013e-17)
(1489.07 187.072 3.314e-20)
(1426.96 117.226 3.47143e-20)
(1367.12 76.9413 3.52641e-20)
(1344.55 35.5336 -1.01541e-20)
(1325.3 7.00095 -1.01445e-20)
(1340.75 -24.9597 1.91465e-17)
(1368.32 -61.0393 -1.94739e-17)
(1426.47 -106.285 4.4793e-20)
(1497.01 -169.351 4.30195e-20)
(1588.1 -249.681 0)
(1685.62 -347.693 -5.78484e-17)
(1748.59 -475.773 6.3731e-17)
(1776.06 -593.937 0)
(1793.05 -731.751 -1.00917e-16)
(1782.05 -857.108 1.03867e-16)
(1710.56 -829.589 6.4139e-21)
(1292.39 -684.86 -1.49821e-16)
(1359.45 582.419 3.42065e-20)
(1735.52 779.197 0)
(1771.5 861.697 0)
(1784.76 790.793 -5.41215e-17)
(1783.53 676.951 4.7594e-17)
(1774.71 557.127 0)
(1728.12 430.2 6.04417e-17)
(1640.4 310.851 -5.86429e-17)
(1551.76 229.138 3.41664e-17)
(1496.33 147.32 -3.39619e-17)
(1439.24 100.309 1.78491e-17)
(1422.51 45.7913 -1.76514e-17)
(1401.8 6.20734 0)
(1419.76 -38.015 -1.75352e-17)
(1441.66 -87.8237 1.79156e-17)
(1498.83 -139.792 -3.65967e-20)
(1563.95 -217.527 -3.51199e-20)
(1639.63 -311.412 5.66528e-20)
(1721.18 -420.472 5.30967e-17)
(1772.14 -555.742 -5.82098e-17)
(1777.19 -673.905 -4.89205e-20)
(1789 -777.773 -4.83789e-20)
(1773.64 -854.845 0)
(1736.22 -760.363 -5.13252e-20)
(1353.41 -571.018 3.45519e-20)
(1398.64 518.797 1.26511e-22)
(1749.34 717.467 0)
(1767.53 850.383 8.47972e-23)
(1786.65 810.493 4.46227e-20)
(1790.71 724.408 -8.79764e-23)
(1796.26 607.303 -5.27462e-17)
(1756.34 478.011 4.90732e-17)
(1677.65 360.246 0)
(1601.32 271.061 -6.38949e-20)
(1556.19 182.619 -1.13932e-22)
(1507.37 120.556 -1.15573e-22)
(1489.38 57.1588 6.81654e-20)
(1472.45 6.29115 0)
(1486.36 -48.855 0)
(1510.06 -107.568 -1.15123e-22)
(1558.31 -176.286 -1.1371e-22)
(1612.7 -258.009 -2.93854e-17)
(1678.47 -356.578 8.33864e-17)
(1750.76 -463.707 -5.5339e-17)
(1795.04 -601.298 0)
(1788.28 -717.698 -4.53668e-17)
(1790.64 -796.158 4.79322e-17)
(1770.76 -844.596 8.37828e-23)
(1752.78 -717.228 4.61243e-20)
(1417.28 -526.69 1.2483e-22)
(1437.95 456.343 6.73262e-18)
(1741.15 695.589 1.03634e-17)
(1764.11 829.235 9.03362e-17)
(1790.19 805.54 -4.30544e-17)
(1803 745.541 4.32054e-17)
(1815.75 639.285 -4.85131e-17)
(1778.76 517.669 4.56619e-17)
(1713.21 394.721 -2.72786e-17)
(1650.18 298.873 2.7001e-17)
(1611.49 203.126 1.19526e-22)
(1565.48 137.988 1.21581e-22)
(1554.74 65.3858 -1.21829e-22)
(1536.36 6.78531 7.38287e-18)
(1552.23 -58.0467 7.25391e-18)
(1568.86 -126.501 -1.50916e-17)
(1614.97 -196.675 1.19777e-22)
(1663.64 -287.981 5.42834e-17)
(1715.42 -394.064 -1.04751e-16)
(1773.44 -504.779 5.12997e-17)
(1816.42 -628.442 0)
(1799.91 -735.27 -8.88514e-23)
(1792.87 -792.276 8.24143e-23)
(1768.25 -821.095 -8.10097e-23)
(1742.3 -688.357 -9.99242e-17)
(1444.37 -463.427 1.14328e-16)
(1427.27 462.396 1.10651e-19)
(1716.18 668.232 0)
(1768.67 779.092 0)
(1795.01 789.788 4.08189e-20)
(1818.32 742.524 8.24639e-20)
(1834.68 649.248 0)
(1799.16 533.984 4.79296e-17)
(1741.2 418.931 -4.70235e-17)
(1688.59 322.915 4.82896e-20)
(1658.91 224.975 -5.0021e-20)
(1621.15 148.214 -1.38876e-17)
(1608.62 68.9803 1.37535e-17)
(1594.92 3.41314 3.54763e-18)
(1606.92 -68.5439 -3.47176e-18)
(1625.52 -143.207 1.35081e-17)
(1662.73 -227.084 -4.02006e-17)
(1701.99 -318.916 2.69355e-17)
(1745.86 -424.796 -5.12231e-20)
(1794.04 -530.548 4.22911e-20)
(1832.01 -648.539 -4.17582e-17)
(1815.87 -737.511 1.10753e-18)
(1797.77 -779.334 -1.48355e-18)
(1775.66 -772.381 4.13039e-17)
(1721.6 -659.588 4.6296e-20)
(1438.72 -469.387 5.38903e-20)
(1395.95 462.631 1.07626e-16)
(1721.61 633.69 -9.22443e-17)
(1790.7 725.826 0)
(1805.9 767.747 -3.99347e-17)
(1831.9 733.854 4.77329e-20)
(1849.03 657.766 4.00383e-17)
(1816.55 559.198 4.46496e-17)
(1771.27 442.774 -4.41085e-17)
(1730.35 343.007 -5.05056e-20)
(1705.81 240.104 -2.55947e-17)
(1669.41 163.107 1.22281e-17)
(1663.83 77.6251 1.263e-17)
(1647.06 6.38872 -5.34436e-20)
(1661.44 -71.5155 0)
(1671.87 -151.764 0)
(1707.97 -233.39 0)
(1742.86 -331.056 5.06767e-20)
(1775.07 -439.387 1.06525e-20)
(1810.97 -543.909 -5.38836e-20)
(1847.88 -643.025 0)
(1829.12 -720.801 3.98211e-20)
(1809.29 -753.664 9.84818e-21)
(1791.85 -720.36 -5.04131e-20)
(1735.56 -632.021 -9.05323e-17)
(1429.17 -472.159 1.04971e-16)
(1384.14 444.945 5.1554e-17)
(1737.65 568.203 -8.56276e-17)
(1809.15 655.601 8.37969e-17)
(1819.12 728.681 -4.12907e-17)
(1847.34 713.476 -3.80414e-17)
(1862.27 645.826 3.84334e-17)
(1831.6 554.184 2.09389e-17)
(1794.1 448.864 -2.10414e-17)
(1760.98 354.885 1.16347e-17)
(1743.92 253.553 -2.33789e-17)
(1715.2 168.528 1.76365e-17)
(1707.4 79.4414 -7.42274e-18)
(1695.62 4.02102 1.48521e-18)
(1705.64 -78.0031 -4.40571e-20)
(1719.03 -161.712 2.32667e-17)
(1746.36 -253.997 -2.39647e-17)
(1774.28 -347.971 4.25969e-20)
(1801.53 -451.428 4.22887e-17)
(1827.86 -547.507 -2.02945e-18)
(1859.02 -639.037 -3.94724e-17)
(1845.53 -705.194 0)
(1820.34 -719.72 4.2165e-17)
(1809.4 -659.049 -3.81982e-17)
(1739.31 -579.324 -9.15527e-17)
(1410.23 -451.482 -4.02318e-18)
(1414.5 414.701 -5.09942e-17)
(1757.75 497.242 4.56845e-17)
(1828.64 606.703 1.9363e-20)
(1833.02 694.042 -5.52672e-20)
(1865.37 693.403 1.8766e-20)
(1874.21 631.49 3.75533e-17)
(1846.39 553.511 -1.86163e-17)
(1819.02 451.839 -2.00921e-17)
(1796.75 357.558 4.43326e-20)
(1783.07 254.363 -4.56053e-20)
(1754.2 172.518 2.07058e-20)
(1753.63 79.9152 -2.06219e-20)
(1738.28 1.55561 0)
(1751.45 -83.4648 4.99055e-21)
(1756.91 -169.641 -1.09529e-17)
(1784.6 -256.808 1.12209e-17)
(1808.21 -354.695 -2.11059e-17)
(1825.2 -457.206 8.79226e-19)
(1842.73 -546.988 1.97658e-17)
(1871.89 -622.478 -5.47909e-20)
(1860.61 -683.124 -3.77873e-17)
(1837.64 -678.041 3.62779e-17)
(1831.13 -590.943 0)
(1762.48 -510.437 -4.55485e-17)
(1409.03 -429.449 4.88067e-17)
(1428.46 375.535 0)
(1774.18 422.499 -3.75573e-17)
(1838.48 526.205 4.38506e-17)
(1850.58 637.684 1.79393e-20)
(1879.22 666.312 1.74718e-20)
(1886.89 614.709 -3.58603e-17)
(1860.8 540.771 3.75993e-17)
(1839.26 449.701 2.00513e-17)
(1821.53 364.051 6.67701e-19)
(1814.08 265.777 -2.05644e-17)
(1792.93 178.727 -2.17665e-20)
(1789.22 84.8683 2.43239e-20)
(1778.34 4.60115 0)
(1786.32 -82.6097 4.36762e-20)
(1795.56 -170.054 -2.16558e-20)
(1814.26 -263.751 1.02531e-17)
(1833.38 -352.981 -1.04411e-17)
(1848 -449.727 -2.02256e-20)
(1857.7 -533.681 -2.12016e-20)
(1883.2 -606.267 1.79564e-20)
(1873.66 -657.419 -3.72408e-17)
(1852.43 -635.037 -5.36741e-18)
(1843.14 -531.57 3.52719e-17)
(1780.96 -429.391 0)
(1448.85 -392.94 5.1776e-17)
(1451.73 349.354 -9.85965e-17)
(1788.08 364.156 4.26981e-17)
(1846.54 465.14 3.37858e-17)
(1866.32 599.211 -3.99843e-17)
(1892.45 633.368 0)
(1900.06 593.2 -2.17083e-21)
(1875.11 531.45 0)
(1861.29 444.985 -2.38579e-21)
(1851.84 358.007 -2.47713e-21)
(1846.92 259.407 0)
(1824.29 178.286 0)
(1827.96 83.5309 -2.55931e-21)
(1813.3 2.48758 0)
(1825.11 -86.1329 0)
(1826.38 -173.503 -9.85004e-18)
(1846.72 -260.352 9.95169e-18)
(1861.64 -352.583 -2.48485e-21)
(1869.93 -447.051 -1.88203e-17)
(1872.55 -523.423 1.81279e-17)
(1897.68 -583.05 0)
(1888 -623.277 3.68053e-17)
(1866.3 -585.431 -7.39217e-17)
(1852.38 -459.947 7.62613e-17)
(1796.82 -372.561 6.18598e-18)
(1462.47 -355.28 -4.76174e-17)
(1479.71 316.219 1.18591e-20)
(1801.59 312.569 -9.68444e-21)
(1832.29 405.976 0)
(1881.59 516.498 0)
(1904.09 590.102 0)
(1912.8 569.327 8.07494e-21)
(1887.81 507.965 0)
(1880.14 428.475 -8.60243e-21)
(1872.42 351.705 0)
(1871.02 260.04 -8.82935e-21)
(1856.52 176.715 0)
(1856.27 82.6985 -2.37487e-18)
(1846.45 1.82243 2.35033e-18)
(1853.05 -87.255 0)
(1858.68 -173.656 9.33257e-18)
(1870.28 -263.215 -1.88224e-17)
(1882.27 -345.251 9.39423e-18)
(1890.54 -433.118 0)
(1886.8 -506.863 1.77431e-17)
(1909.44 -564.565 -1.65798e-17)
(1900.06 -582.923 3.63603e-17)
(1882.13 -522.298 -3.25013e-17)
(1845.99 -399.912 0)
(1807.76 -304.416 0)
(1485.19 -323.029 0)
(1483.85 296.27 -1.18518e-20)
(1802.42 287.69 9.56691e-21)
(1833.22 333.017 0)
(1896.48 447.955 0)
(1912.34 542.394 0)
(1924.84 542.125 -8.15189e-21)
(1904.04 496.493 0)
(1900.26 422.787 8.83659e-21)
(1899.27 344.827 0)
(1899.51 252.552 -9.02942e-18)
(1881.84 176.144 9.04597e-18)
(1888.96 83.6638 -8.4306e-21)
(1874.96 4.03987 9.29163e-21)
(1885.53 -84.3579 8.42841e-21)
(1882.85 -168.934 0)
(1897.72 -251.326 0)
(1906.41 -336.08 9.07261e-21)
(1909.73 -420.962 -1.77441e-17)
(1903.02 -487.004 1.69707e-17)
(1921.57 -533.484 0)
(1905 -536.396 8.0414e-21)
(1893.01 -454.837 0)
(1830.36 -334.28 0)
(1815.69 -276.208 0)
(1507.11 -290.607 0)
(1505.97 274.954 -4.49824e-17)
(1810.86 261.449 3.93145e-17)
(1840.85 282.396 0)
(1906.07 347.535 -1.71801e-20)
(1923.99 480.167 0)
(1934.72 509.247 -1.54273e-17)
(1916.79 468.741 3.34672e-17)
(1917.57 401.305 -1.71561e-17)
(1915.9 332.524 -8.63078e-18)
(1917.46 249.319 8.64008e-18)
(1908.55 171.993 4.42048e-21)
(1910.93 80.8746 1.12487e-18)
(1902.02 2.58736 -1.07856e-18)
(1907.61 -84.9183 8.59812e-18)
(1910.13 -167.642 -8.63973e-18)
(1915.64 -250.615 0)
(1923.88 -323.888 -1.6334e-20)
(1929.63 -404.759 0)
(1917.11 -467.398 0)
(1930.64 -502.734 -1.72551e-17)
(1917.56 -475.847 1.51762e-17)
(1901.91 -351.691 0)
(1836.78 -279.295 3.78711e-17)
(1818.12 -250.091 1.73865e-18)
(1523.9 -270.279 -9.07586e-17)
(1526.73 259.167 4.52775e-17)
(1820.23 244.578 1.84444e-20)
(1852.43 223.102 3.22888e-17)
(1901.7 285.878 -2.3842e-17)
(1924.24 430.301 -1.86253e-17)
(1940.63 463.952 0)
(1930.76 448.337 8.37484e-21)
(1936.87 391.076 1.62854e-17)
(1939.92 321.803 -1.66496e-17)
(1942.57 235.25 0)
(1928.46 163.929 0)
(1938.35 77.0309 -2.58818e-20)
(1924.85 1.61103 3.24401e-20)
(1934.87 -83.4005 1.68734e-20)
(1928.85 -161.962 4.18103e-18)
(1939.9 -239.206 -4.13771e-18)
(1945.07 -316.741 8.89896e-21)
(1947.16 -391.282 1.68311e-17)
(1932.88 -441.404 -3.30234e-17)
(1939.61 -456.754 1.49805e-17)
(1920.49 -420.777 -1.56923e-20)
(1897.23 -281.932 0)
(1849.05 -225.707 1.78196e-20)
(1826.34 -240.159 3.81562e-17)
(1539.96 -256.233 -8.81071e-17)
(1540.15 239.571 -4.43685e-17)
(1833.23 226.608 -3.65067e-17)
(1855.13 196.11 3.57907e-17)
(1882.62 195.869 1.4883e-17)
(1935.4 339.961 -1.93507e-17)
(1945.95 417.027 0)
(1941.93 414.189 4.06426e-21)
(1952.37 366.24 -1.19055e-20)
(1954.21 308.483 8.02495e-18)
(1956.79 233.7 -1.61336e-17)
(1950.94 162.491 8.07078e-18)
(1955.1 76.6069 2.00329e-18)
(1946.77 3.91419 -1.87321e-18)
(1951.43 -78.6395 1.86757e-18)
(1952.11 -155.859 -2.00937e-18)
(1953.46 -232.982 0)
(1959.74 -297.844 1.19859e-20)
(1964.3 -367.867 -3.85407e-21)
(1943.59 -412.159 -1.70632e-17)
(1940.79 -410.529 1.46077e-17)
(1931.21 -340.647 0)
(1878.48 -198.67 0)
(1852.45 -195.589 -4.3292e-21)
(1838.95 -221.584 -3.74871e-17)
(1563.83 -236.926 -1.40805e-18)
(1551.53 221.393 -2.08083e-17)
(1841.57 217.303 1.85716e-17)
(1867.92 178.673 4.29929e-21)
(1890.12 136.582 0)
(1931.51 258.94 1.4484e-17)
(1948.12 350.539 -1.75883e-17)
(1951.84 381.072 3.81866e-21)
(1967.75 351.651 3.87945e-21)
(1974.74 297.515 1.47569e-20)
(1979.72 219.007 -1.9266e-18)
(1967.39 152.707 9.87515e-19)
(1978.29 71.8809 1.89568e-18)
(1965.07 2.62358 -9.72727e-19)
(1974.48 -77.2329 3.87853e-18)
(1967.49 -149.107 -3.88998e-18)
(1975.76 -221.427 0)
(1977.36 -290.799 1.09062e-20)
(1977.89 -350.1 -1.63246e-17)
(1954.82 -372.693 1.50589e-17)
(1945.04 -347.905 3.78855e-21)
(1924.73 -253.524 0)
(1884.39 -132.352 0)
(1865.98 -181.947 4.33553e-21)
(1848.47 -217.887 -3.67467e-17)
(1570.18 -221.051 4.14021e-17)
(1575.31 196.951 2.0899e-20)
(1855.19 194.377 0)
(1882.49 160.988 -8.08526e-21)
(1894.27 72.5467 -1.50431e-17)
(1923.66 176.14 1.8417e-17)
(1949.5 302.123 -1.4241e-17)
(1953.3 332.392 1.69853e-17)
(1979.07 316.22 -7.43627e-18)
(1985.65 275.998 7.81079e-18)
(1989.57 211.703 -3.76541e-18)
(1986.14 148.401 3.79512e-18)
(1991.14 68.6875 -1.84659e-18)
(1982.92 2.3176 2.10904e-18)
(1987.35 -74.7465 -2.49866e-19)
(1987.21 -145.249 3.78685e-18)
(1985.92 -214.614 -7.57525e-18)
(1989.07 -268.813 -4.09205e-18)
(1989.53 -320.687 7.43272e-18)
(1956.54 -328.526 1.52571e-20)
(1947.53 -287.929 -7.719e-21)
(1918.74 -172.074 0)
(1890.19 -74.2426 0)
(1882.82 -164.995 0)
(1857.63 -197.39 -1.81092e-17)
(1586.58 -199.594 2.01229e-17)
(1581.26 178.491 -2.51978e-21)
(1860.93 177.644 0)
(1902.79 154.212 1.02596e-20)
(1901.5 50.1811 -8.11035e-21)
(1891.77 101.328 -7.67169e-21)
(1942.93 198.412 0)
(1958.14 282.494 -7.49482e-21)
(1987.57 292.805 7.19552e-18)
(2001.75 264.186 -7.69759e-18)
(2009.94 199.499 0)
(1999.49 140.275 1.7556e-21)
(2011.09 66.2805 0)
(1997.98 4.10804 0)
(2007.11 -69.7097 1.825e-18)
(1999.38 -134.351 -1.83875e-18)
(2005.62 -199.28 -7.32866e-21)
(2001.71 -254.987 -1.7839e-21)
(1994.78 -289.876 7.3797e-21)
(1963.02 -273.644 -8.65504e-18)
(1943.64 -208.826 7.15012e-18)
(1883.77 -100.952 -1.75043e-17)
(1896.75 -49.1412 3.25873e-17)