/*--------------------------------*- C++ -*----------------------------------*\
| =========                 |                                                 |
| \\      /  F ield         | OpenFOAM: The Open Source CFD Toolbox           |
|  \\    /   O peration     | Version:  2112                                  |
|   \\  /    A nd           | Website:  www.openfoam.com                      |
|    \\/     M anipulation  |                                                 |
\*---------------------------------------------------------------------------*/
FoamFile
{
    version     2.0;
    format      ascii;
    arch        "LSB;label=32;scalar=64";
    class       volScalarField;
    location    "0.00297";
    object      k;
}
// * * * * * * * * * * * * * * * * * * * * * * * * * * * * * * * * * * * * * //

dimensions      [0 2 -2 0 0 0 0];

internalField   nonuniform List<scalar> 
13875
(
812.062
3462.71
3540.04
3539.63
3542.54
3540.38
3540.6
3541.17
3540.57
3540.68
3541.37
3541.58
3540.23
3539.85
3541.14
3540.84
3541.69
3541.73
3541.5
3539.29
3542.41
3539.15
3539.95
3460.74
820.321
881.771
2936.74
3012.9
3000.99
3000.95
2997.34
2996.71
2997.15
2997.72
2998.85
2998.47
2997.63
2998.24
2998.08
2997.83
2998.85
2999.9
2997.64
2997.66
2996.84
3000.13
2999.31
3011.55
2933.56
894.447
993.348
2710.99
2777.42
2755.51
2756.72
2753.79
2752.69
2752
2744.85
2745.88
2744.85
2746.34
2754.46
2754.58
2745.68
2746.15
2747.26
2746.08
2752.72
2753.67
2756.07
2753.04
2774.43
2706.37
998.39
1091.08
2533.81
2580.98
2561.63
2564.64
2561.96
2560.58
2559.64
2549.48
2550.33
2550.56
2553
2561.88
2562.15
2552.6
2550.74
2551.82
2551.74
2560.57
2561.76
2563.89
2559.3
2579.05
2529.53
1094.04
1172.17
2380.59
2413.18
2392.86
2395.79
2393.37
2392.07
2390.71
2380.67
2381.08
2381.95
2383.56
2393.09
2393.51
2384.04
2381.44
2382.48
2383.19
2391.68
2393.29
2395.15
2391.01
2410.43
2375.78
1177.69
1241.17
2237.39
2271.03
2244.85
2248.74
2245.78
2244.06
2241.88
2231.72
2231.46
2233.01
2233.97
2243.87
2244.82
2235.24
2231.76
2232.72
2234.87
2243.21
2246.03
2248.39
2243.71
2267.82
2247.79
1247.42
1321.33
2122.22
2158.46
2120.33
2120.75
2116.21
2113.42
2110.14
2100.04
2098.8
2100.83
2101.49
2111.63
2113.08
2103.33
2099.05
2100.06
2104.19
2112.42
2116.62
2120.5
2119.85
2154.24
2096.33
1323.58
1410.68
2001.81
2074.27
2020.25
2014.67
2005.85
2000.28
1995.05
1984.76
1981.91
1984.1
1984.79
1995.07
1997.07
1986.77
1981.7
1983.28
1989.92
1998.76
2005.95
2013.98
2019.38
2068.61
1993.11
1420.68
1693.51
2030.49
2023.45
1946.31
1925.63
1912.41
1903.69
1896
1885.49
1881.03
1882.87
1884.16
1894.41
1896.92
1886.02
1880.32
1882.81
1891.7
1901.74
1912.31
1925.65
1944.26
2019.31
2035.09
1718.42
2513.58
2292.6
2021.97
1902.44
1868.43
1844.13
1830.66
1819.95
1809.71
1804.56
1805.38
1807.49
1817.31
1820.02
1809.45
1803.72
1806.51
1816.25
1827.64
1842.48
1866.41
1899.47
2015.8
2270.25
2531.29
3890.51
3037.94
2164.68
1934.17
1843.11
1806.52
1786.13
1771.9
1761.87
1756.55
1756.06
1758.49
1767.4
1770
1761.13
1756.44
1759.43
1768.71
1782.68
1802.38
1841.19
1928.34
2147.28
2954.72
3872.95
5185.39
6446.98
2949.85
2042.92
1911.24
1824.18
1783.17
1763.1
1750.81
1744.8
1743.19
1744.63
1751.71
1754.47
1748.12
1746.27
1750.55
1761.47
1781.01
1821.25
1903.49
2022.63
2873.3
6340.25
5128.25
5059.87
7189.1
7492.16
3762.92
2168.7
1926.43
1870.57
1841.38
1831.44
1824.71
1823.13
1823.38
1828.32
1831.49
1827.89
1829.18
1835.35
1844.86
1872.67
1943.36
2225.54
3605.74
7171.92
7203.14
5020.55
4827.21
6106.57
7404.05
9758.21
5476.94
2735.42
2431.34
2219.48
2160.68
2136.22
2130.18
2127.33
2135.75
2137.93
2139.63
2147.52
2177.08
2249.14
2487.78
2884.53
5989.83
8884.52
7166.96
6120.38
4866.86
4655.15
5428.63
6293.32
7776.75
6922.58
5872.52
6178.53
5254.78
4975.19
5042.85
5155.62
5128.09
5222.13
5169.79
5185.77
5081.74
5027.93
5375.91
6468.92
5888.47
6986.23
7371.13
6189.72
5438.95
4789.29
4459.78
4932.48
5824.34
7114.86
7318.33
8831.83
7858.1
6364.16
6444.73
6754.09
6836.67
6888.06
6911.38
6916.68
6867.68
6782.83
6406.44
6313.54
7703.14
8893.99
7395.43
6887.29
5720.37
4922.24
4586.2
4184.6
4694.73
5634.08
7004.48
7432.6
8912.87
6783.75
5215.06
5184.54
5227.42
5301.78
5323.1
5342.15
5344.9
5333.22
5263.36
5163.43
5183.07
6485.58
9129.84
7433.12
6805.15
5664.16
4648.45
4183.68
3660.27
4790.03
5806.15
6186.02
6406.89
7507.4
6028.94
4714.45
4522.7
4458.05
4437.98
4418.01
4430.97
4434.91
4469.43
4488.04
4499.58
4705.75
5943.87
7543.47
6301.97
6035.68
5843.68
4791.69
3633.53
3116.51
4909.23
5528.79
5407.17
5333.55
6036.31
5667.01
4774.74
4286.8
4012.48
3863.44
3789.46
3782.98
3792.67
3863.9
3980.54
4188.93
4673.78
5607.31
6052.06
5241.82
5329.03
5529.33
4956.67
3122.37
2905.37
4883.46
4873.94
4754.16
4650.34
5107.06
5212.54
4737.51
4182.12
3752.28
3482.17
3346.33
3317.42
3348.19
3476.59
3717.1
4114.34
4684.22
5177.78
5082.15
4593.62
4720.47
4886.84
4761.41
2895.73
3272.56
4252.25
4283.84
4204.64
4129.24
4501.45
4743.33
4464.72
3952.63
3485.51
3154.4
2974.14
2930.04
2982.28
3161.02
3475.87
3928.57
4447.17
4720.29
4475.85
4100.26
4196.37
4249.63
4112.99
3242.07
4321.21
4371.64
3894.83
3804.73
3737.91
4057.66
4302.71
4114.9
3664.11
3204.07
2852.7
2652.25
2597.33
2660.14
2860.47
3199.29
3647.13
4096.92
4280.08
4045.33
3721.7
3800.27
3832.74
4253.12
4340.89
5042.38
4814.2
3618.7
3446.22
3407.93
3677.88
3891.93
3746.68
3350.45
2921
2575.76
2371.84
2311.34
2372.93
2572.94
2905.01
3321.22
3716.22
3862.26
3665.46
3388.6
3434.52
3536.99
4737.65
5079.49
5197.4
4805.26
3334.98
3147.69
3115.64
3318.64
3511.16
3392.2
3026.29
2631.53
2312.92
2123.05
2066.28
2126.77
2316.44
2625.77
3005.97
3367.17
3485.17
3304.48
3107.71
3147.35
3275.1
4719.41
5182.88
5270.17
4697.79
3096.19
2906.82
2864.48
3009.64
3175.21
3068.61
2737.46
2378.42
2084.67
1910.53
1858.99
1915.07
2090.46
2378.05
2723.84
3046.91
3151.51
2994.64
2857.16
2909.23
3055.34
4681
5244.51
5339.53
4610.39
2926.56
2717.11
2651.55
2751.3
2880.01
2773.62
2475.72
2153.92
1888.19
1729.51
1681.31
1732.77
1890.98
2150.62
2457.85
2744.98
2850.74
2734.86
2639.21
2713.16
2892.13
4603.72
5300.39
5409.37
4533.74
2784.67
2556.86
2472.77
2529.74
2611.99
2500.02
2234.84
1950.03
1712.93
1572.85
1529.91
1577.42
1721.27
1956.65
2231.05
2485.38
2593.43
2518.62
2461.87
2558.92
2770
4595.34
5382.87
5512.27
4489.77
2681.1
2416.41
2326.91
2346.68
2384.49
2265.4
2027.63
1775.48
1564.76
1439.54
1399.75
1443.51
1572.01
1780.68
2022.53
2249.1
2363.75
2335.9
2316.55
2417.15
2665.04
4507.78
5480.8
5700.26
4398.15
2584.11
2287.71
2197.85
2190.4
2186.78
2062.81
1849.13
1624.48
1436.3
1324.19
1287.23
1326.85
1439.75
1624.17
1838.3
2040.5
2160.63
2177.25
2186.77
2286.13
2568.28
4341.06
5581.01
5773.09
4281.35
2500.69
2170.6
2075.18
2049.03
2008.96
1877.26
1683.08
1485.41
1321.1
1223.02
1189.53
1227.06
1329
1492.73
1683
1867.69
1992.36
2040.67
2067.33
2171.1
2491.59
4266.83
5758.05
5740.29
4180.65
2444.75
2076.99
1961.89
1921.04
1857.95
1725.14
1547.1
1369.41
1222.84
1135.16
1104.28
1138.83
1228.41
1373.48
1544.15
1713.27
1840.12
1910.77
1951.34
2075.73
2424.95
4163.68
5741.28
5713.1
4107.66
2400
2010.43
1858.39
1804.79
1728.55
1594.04
1429.23
1268.6
1137.94
1058.8
1029.61
1061.73
1141.27
1269.52
1423.16
1579.37
1708.06
1791.84
1847.27
2003.1
2376.3
4066.29
5663.85
5636.56
3978.51
2385.08
1957.36
1768.35
1694.62
1608.17
1476
1324.06
1178.32
1060.89
990.43
963.776
994.102
1065.66
1181.56
1322.28
1466.41
1592.41
1683.24
1757.4
1946.21
2350.85
3997.23
5636.18
5613.62
3858.98
2374.79
1927.14
1694.38
1599.05
1503.92
1375.98
1233.83
1100.87
995.286
931.091
905.635
934.029
998.274
1101.7
1229.93
1364.83
1486.69
1586.63
1682.49
1908.86
2363.08
3887.19
5581.99
5600.88
3769.1
2324.54
1908.87
1639.67
1514.73
1410.54
1288.01
1156.45
1034.29
936.763
878.151
854.189
880.572
938.461
1033.25
1150.92
1275.76
1391.94
1501.23
1627.88
1895.12
2346.83
3771.47
5533.05
5527.47
3626.27
2245.5
1894.81
1601.08
1443.19
1327.72
1207.02
1084.11
972.302
884.341
831.036
808.491
833.904
887.419
973.507
1081.56
1198.51
1311.42
1431.21
1589.34
1893.09
2281.52
3681.29
5487.71
5480.79
3510.97
2172.24
1914.02
1576.8
1388.57
1256.5
1137.01
1022.26
919.427
837.994
788.823
767.597
791.58
840.032
919.669
1018.72
1127.89
1239.33
1375.31
1563.51
1914.68
2197.06
3540
5422.48
5460.83
3406.14
2100.83
1908.94
1572.9
1347.89
1199.07
1076.68
966.628
870.981
796.731
751.33
731.091
753.991
798.281
870.477
962.509
1068
1183.33
1335.03
1563.67
1912.32
2110.66
3411.78
5394.13
5408.52
3285.98
2001.97
1855.23
1577.53
1316.9
1154.26
1023.74
916.326
827.088
758.522
716.732
698.035
720.029
760.916
828.269
914.551
1017.92
1141.71
1305.56
1577.05
1868.2
2017.05
3308.17
5385.64
5380.93
3195.88
1905.05
1797.05
1621.61
1304.51
1121.16
982.661
873.389
788.391
724.896
686.089
668.091
689.078
726.801
788.976
871.152
977.481
1109.31
1290.71
1623.55
1807.63
1909.75
3203.42
5339.76
5364.53
3139.13
1828.49
1729.74
1633.86
1311.78
1097.38
952.229
838.174
754.661
694.343
657.883
640.778
660.479
695.828
754.693
835.666
947.244
1087.06
1304.11
1639.23
1738.51
1817.61
3129.57
5306.34
5317.45
3073.88
1747.47
1651.35
1591.93
1344.53
1083.55
926.915
809.987
725.133
666.608
632.207
615.869
635.138
668.605
726.036
808.485
923.816
1081.47
1352.9
1592.16
1662.33
1759.81
3086.04
5290.55
5280.98
3025.9
1689.44
1574.13
1534.86
1388.84
1093.56
909.637
790.073
700.311
642.328
608.705
593.011
611.621
643.961
701.405
787.815
905.736
1098.33
1392.69
1530.11
1582.61
1689.73
3024.72
5246.68
5254.61
2996.62
1659.67
1507.14
1470.19
1381.75
1135.89
903.605
772.843
681.737
622.458
588.261
572.48
591.013
624.092
683.063
770.601
901.072
1156.85
1382.26
1459.68
1512.06
1643.08
2974.03
5215.02
5228.02
2938.22
1612.84
1445.37
1401.87
1339.65
1209.49
917.709
760.995
668.212
607.928
571.291
555.044
574.209
609.586
669.86
760.043
928.818
1216.7
1337.08
1389.42
1452.13
1621.15
2939.84
5193.47
5200.18
2893.04
1592.94
1394.31
1339.54
1293.82
1236.29
989.049
760.23
657.283
597.311
559.366
541.307
562.158
598.535
658.265
759.676
992.223
1216.29
1286.32
1327.74
1397.67
1589.72
2883.52
5175.19
5174.27
2859.83
1583.79
1354.8
1287.87
1244.47
1201.04
1060.36
795.766
650.66
587.271
549.917
530.729
552.501
588.694
651.04
792.877
1059.59
1182.71
1233.37
1276.07
1354.67
1567.67
2834.84
5146.06
5107.19
2792.3
1556.41
1318.72
1242.4
1195.66
1160.71
1073.02
868.601
658.705
579.184
541.333
522.326
543.838
581.518
663.558
873.289
1071.24
1144.97
1185.36
1232.32
1321.16
1558.72
2791.51
5071.1
4982.97
2712.09
1530.52
1286.06
1203.51
1152.54
1115.91
1049.05
936.229
700.491
578.2
533.992
515.084
536.254
581.341
705.873
930.158
1045.86
1102.81
1142.82
1195.04
1288.16
1530.66
2707.88
4944.89
4608.38
2576.1
1499.67
1251.97
1168.4
1114.52
1072.86
1018.99
947.858
780.252
599.533
531.758
511.184
533.43
603.568
779.697
931.002
1013.98
1061.78
1105.89
1160.51
1252.49
1494.01
2564.03
4579.92
499.838
635.877
675.719
685.202
684.756
684.655
687.185
693.401
703.035
716.089
732.874
753.247
777.065
803.89
833.319
865.004
899.246
936.774
975.613
1008.4
967.447
846.672
805.693
795.761
792.687
790.918
789.251
786.412
772.421
683.359
386.515
572.212
627.132
643.194
646.123
649.594
655.584
665.418
678.509
694.51
713.059
734.09
757.686
783.539
811.632
842.072
874.941
910.333
948.532
988.998
1020.71
921.36
715.571
658.239
648.341
645.465
643.102
637.591
606.179
448.873
349.966
546.639
601.196
617.959
621.427
627.67
636.446
649.809
666.252
685.077
705.305
727.189
751.144
776.623
804.135
834.181
866.028
898.012
930.905
963.298
994.597
1000.74
836.051
637.122
592.512
585.756
582.984
576.277
539.453
371.863
341.371
537.568
590.545
607.406
611.988
620.34
631.294
647.408
666.79
688.671
711.107
734.677
760.378
787.245
815.481
844.595
875.546
908.817
941.328
972.576
1001.54
1027.25
1011.98
779.89
599.635
567.26
561.825
554.35
516.841
349.941
339.339
535.921
588.995
606.476
612.309
622.939
636.365
655.416
677.792
702.455
726.987
751.024
777.987
806.342
835.466
865.145
895.209
925.828
959.026
991.75
1020.09
1046.77
1070.81
1026.85
730.201
580.15
557.459
547.855
510.137
343.679
339.871
537.298
590.183
607.236
615.075
628.316
645.194
667.76
693.465
720.97
747.828
773.296
800.11
829.129
859.332
888.86
918.535
948.475
979.239
1011.18
1042.22
1069.85
1098.2
1118.5
1023.34
681.577
567.983
547.504
508.383
341.148
343.443
541.108
594.1
611.589
622.085
638.673
659.536
685.891
715.143
745.557
774.722
801.691
827.142
855.365
885.95
915.097
944.055
972.725
1001.61
1032.25
1064.54
1095.55
1124.58
1155.39
1166.33
983.189
638.926
554.188
508.57
339.55
347.876
546.688
600.021
619.2
633.492
654.678
680.773
711.463
744.263
777.107
808.04
835.482
859.353
884.872
913.793
943.158
971.209
999.11
1027.13
1056.19
1087.83
1121.12
1152.99
1184.99
1218.09
1208.05
907.343
597.716
512.023
338.611
352.229
552.865
607.343
629.603
650.097
677.77
710.025
745.096
780.479
814.84
845.317
871.677
894.598
917.317
943.361
972.384
1000.04
1027.34
1054.84
1082.77
1113.04
1146.58
1181.77
1215.8
1251.83
1284.92
1231.01
798.386
533.765
339.233
356.02
559.18
615.863
643.336
672.341
707.606
746.241
786.103
822.584
855.03
884.014
908.948
930.959
951.129
974.172
1000.99
1029.08
1055.63
1082.76
1110.22
1139.61
1172.53
1209.44
1247.57
1285.06
1324.75
1349.95
1194.45
648.632
345.674
360.165
566.587
626.521
659.869
696.577
738.451
782.628
826.091
863.959
895.608
922.6
944.987
965.141
981.803
1003.14
1026.97
1055.22
1081.27
1108.24
1135.99
1165.58
1198.25
1235.75
1277.24
1319.05
1360.52
1400.81
1395.34
997.734
378.226
364.175
575.733
640.305
680.35
724.54
772.151
820.28
865.291
904.153
934.508
958.58
976.957
993.815
1008.78
1026.44
1048.37
1075.34
1101.98
1129
1157.63
1188.25
1221.69
1259.67
1302.78
1349.55
1395.56
1439.33
1477.1
1358.89
522.648
370.068
588.364
658.532
705.673
755.83
806.994
857.644
901.657
939.525
967.549
987.837
1002.74
1017.26
1030.14
1041.19
1063.17
1088.14
1116.4
1143.66
1173.43
1205.34
1240.42
1279.47
1323.46
1373.1
1425.24
1473.31
1525.35
1527.25
841.05
376.098
604.625
681.422
734.992
788.531
841.023
889.81
930.661
965.011
989.342
1004.4
1016.95
1029.24
1040.33
1050.2
1069
1092.7
1122.46
1150.79
1182.16
1215.66
1252.89
1293.49
1338.65
1389.93
1445.33
1497.07
1571.63
1684.53
1276.86
386.44
626.623
708.865
766.106
819.067
867.879
910.854
945.933
974.346
993.077
1004.79
1015.34
1025.75
1036.08
1046.97
1063.04
1086.44
1117.53
1148.22
1181.9
1217.85
1257.6
1300.11
1346.97
1399.63
1451.81
1521.29
1645.89
1980.82
1639.21
396.949
653.199
738.636
794.725
841.253
881.261
914.86
941.558
962.217
975.774
984.898
994.389
1004.27
1015.54
1028.2
1043.08
1067.4
1100.21
1134.4
1170.87
1209.94
1252.16
1297.07
1346.41
1400.71
1452.2
1545.06
1757.79
2391.22
1777.62
415.717
683.624
766.866
814.08
848.091
875.133
897.687
915.013
928.55
937.403
944.322
952.956
963.858
977.208
992.517
1007.27
1033.59
1068.7
1107.91
1147.67
1190.35
1235.06
1283.04
1335.53
1392.61
1456.02
1581.95
1937.74
2818.68
1831.85
431.957
712.622
786.423
818.6
836.307
849.722
861.344
870.668
878.552
882.455
887.129
895.744
908.474
924.339
941.409
957.708
985.919
1023.11
1068.3
1111.33
1157.76
1205.83
1257.81
1314.34
1372.95
1455.67
1633.73
2227.52
3221.81
1837.54
457.142
735.566
790.886
803.971
809.237
813.693
819.319
823.148
823.432
819.829
822.941
832.323
846.473
864.081
882.703
900.276
928.064
966.976
1015.97
1062.94
1113.55
1166.29
1222.53
1282.93
1347.28
1449.98
1712.89
2617.98
3218.6
1804.87
475.388
753.593
786.418
786.613
788.919
794.456
800.177
793.133
781.719
771.329
771.388
777.376
786.882
800.393
813.08
832.667
859.069
900.86
952.588
1004.93
1059.92
1117.47
1178.65
1243.47
1318.04
1446.25
1836.86
3062.91
3055.97
1761.91
506.688
764.117
784.873
788.432
822.328
832.549
832.812
811.975
787.24
761.054
747.77
740.923
738.276
741.262
752.02
770.902
793.363
834.113
888.14
942.028
1000.38
1062
1127.51
1197.17
1282.47
1450.5
2031.18
3349.47
2897
1728.01
541.944
807.589
839.526
912.664
978.771
986.965
970.399
923.295
865.995
806.879
769.126
736.692
717.211
710.576
715.639
728.267
744.403
780.025
829.695
881.207
939.471
1003.32
1071.53
1144.89
1243.92
1477.12
2333.07
3342.24
2754.2
1694.33
618.955
893.988
1046.12
1194.69
1274.26
1260.4
1234.01
1149.27
1033.05
920.625
837.94
776.24
735.769
712.441
704.563
705.751
712.895
740.562
782.649
827.684
882.457
945.023
1013.73
1087.69
1205.1
1542.5
2636.13
3228.08
2615.02
1666.98
720.251
1330.73
1427.1
1554.39
1615.76
1628.12
1617.73
1482.85
1299.79
1107.47
962.085
864.21
796.648
747.903
720.094
705.445
702.312
715.046
745.206
783.434
832.051
890.616
957.133
1035.35
1171.34
1659.47
2871.27
3089.75
2489.37
1643.42
978.38
2123.72
1951.85
1933.31
1993.14
2007.5
2043.17
1920.26
1672.29
1379.95
1151.19
1005.28
906.678
824.821
766.091
724.588
697.732
690.09
712.166
747.459
789.293
842.692
905.272
986.664
1154.36
1861.88
2897.85
2952.61
2383.43
1620.57
683.36
772.424
786.417
789.256
790.924
792.685
795.719
805.393
845.189
964.522
1007.34
974.89
936.112
898.617
864.416
832.786
803.422
776.664
752.907
732.585
715.877
702.883
693.301
687.121
684.616
684.735
685.189
675.714
635.967
500.012
448.872
606.178
637.59
643.1
645.454
648.29
657.898
713.364
915.901
1018.77
987.758
947.397
909.3
873.988
841.2
810.837
782.821
757.05
733.532
712.579
694.111
678.186
665.164
655.382
649.427
645.978
643.067
627.038
572.187
386.558
371.861
539.451
576.276
582.976
585.72
592.271
635.222
829.69
997.84
992.836
961.714
929.477
896.71
864.845
833.109
803.151
775.719
750.331
726.451
704.603
684.476
665.744
649.406
636.135
627.412
621.2
617.747
600.999
546.503
349.877
349.939
516.84
554.345
561.798
567.094
598.118
772.955
1008.03
1025.09
999.587
970.813
939.723
907.357
874.203
843.347
814.331
786.19
759.427
733.662
710.244
687.978
666.232
646.971
630.94
620.046
611.728
607.16
590.321
537.432
341.271
343.678
510.134
547.836
557.346
579.067
723.877
1021.52
1068.31
1044.6
1018
989.857
957.308
924.229
893.715
863.759
834.19
805.162
776.918
750.013
726.167
701.759
677.216
654.951
635.991
622.634
612.035
606.216
588.754
535.735
339.198
341.146
508.369
547.429
567.286
676.312
1015.38
1115.58
1095.89
1067.55
1040.06
1009.21
977.399
946.752
916.924
887.356
857.941
827.822
798.874
772.302
746.921
720.178
692.807
667.223
644.765
627.975
614.796
606.973
589.947
537.094
339.738
339.544
508.524
553.778
635.093
972.911
1162.89
1153.05
1122.22
1093.21
1062.39
1030.24
999.7
970.927
942.368
913.509
884.491
853.973
826.151
800.745
773.862
744.764
714.479
685.363
659.119
638.353
621.85
611.381
593.944
541.013
343.428
338.586
511.813
595.196
896.17
1203.85
1215.92
1182.73
1150.6
1118.88
1085.75
1054.23
1025.28
997.376
969.579
941.602
912.383
883.508
858.334
834.611
807.381
776.357
743.588
710.961
680.445
654.474
633.362
619.108
599.983
546.644
347.774
339.14
532.453
788.827
1225.19
1282.81
1249.79
1213.51
1179.49
1144.47
1111.05
1080.91
1053.13
1025.77
998.586
970.989
942.079
916.056
893.325
870.302
844.011
813.763
779.654
744.412
709.868
677.785
650.207
629.749
607.539
553.037
352.246
345.282
642.522
1184.77
1347.78
1323.14
1283.12
1245.45
1207.41
1170.59
1137.78
1108.53
1081.26
1054.29
1027.88
999.867
973.08
949.837
929.466
907.4
882.755
854.239
821.761
786.054
746.85
708.346
673.123
643.934
616.348
559.57
356.17
376.528
986.411
1392.35
1399.7
1359.05
1317.22
1275.38
1233.95
1196.49
1163.92
1134.49
1106.92
1080.1
1054.22
1026.04
1001.92
979.955
963.247
943.835
921.573
895.3
864.69
827.263
783.839
739.63
697.749
660.962
627.37
567.267
360.449
515.836
1353.14
1476.47
1438.46
1394.2
1347.99
1301.17
1258.03
1220.08
1186.75
1156.3
1127.84
1100.91
1074.43
1047.56
1023.36
1008.64
994.081
977.079
958.665
935.131
905.651
867.033
822.03
773.549
725.874
681.714
641.527
576.762
364.757
833.174
1525.39
1525.1
1472.57
1424.13
1371.8
1322.03
1277.96
1238.95
1203.98
1172.21
1142.63
1115.47
1087.29
1062.5
1041.18
1030.61
1017.88
1003.35
988.386
969.18
941.522
903.753
859.57
808.656
757.42
707.232
660.005
589.668
370.847
1270.43
1682.32
1571.28
1496.69
1444.53
1388.83
1337.37
1292.13
1251.57
1214.46
1181.11
1149.94
1121.78
1092.07
1068.74
1051.48
1041.55
1030.3
1018.2
1006.44
991.712
967.174
932.717
891.735
842.793
790.245
736.799
683.13
606.222
377.199
1638.6
1978.45
1645.38
1521.04
1451.35
1398.68
1345.86
1298.97
1256.53
1216.92
1181.15
1147.71
1117.28
1086.31
1063.48
1048.64
1037.79
1027.34
1017.04
1007.44
996.027
976.484
947.809
912.396
869.502
820.78
768.01
710.751
628.529
387.785
1779.09
2391.68
1757.26
1544.9
1451.8
1399.96
1345.52
1296.25
1251.45
1209.38
1170.49
1134.26
1100.43
1067.81
1044.37
1030.01
1017.21
1006.11
997.008
988.069
978.669
964.001
942.96
915.605
882.24
842.665
796.56
740.63
655.073
398.33
1834.5
2824.71
1937.66
1582.01
1455.88
1392.24
1334.96
1282.61
1234.79
1190.21
1147.66
1108.05
1069.41
1034.55
1009.19
994.528
979.459
966.639
955.875
947.125
939.655
929.382
915.697
897.9
875.432
849.298
815.85
768.777
685.631
416.684
1840.93
3233.48
2229.05
1634.05
1455.95
1373.54
1314.13
1257.72
1205.88
1157.96
1111.64
1068.56
1024.24
987.192
960.129
944.076
927.16
911.556
898.516
889.48
884.014
878.329
870.731
861.309
850.273
837.597
820.724
789.125
714.735
432.927
1808.46
3230.34
2622.91
1714.07
1450.59
1347.27
1283.07
1222.61
1166.43
1113.83
1063.45
1016.59
968.21
929.445
901.946
884.697
866.611
849.435
834.832
825.24
821.633
823.289
823.208
819.857
814.914
810.486
806.016
794.357
737.866
458.245
1765.56
3066.53
3075.75
1839.88
1446.73
1318.37
1243.81
1178.85
1117.69
1060.23
1005.55
953.811
902.305
861.18
835.512
815.566
802.409
788.905
779.203
773.287
772.417
783.101
794.581
801.889
796.847
791.724
789.715
789.732
756.29
476.721
1731.85
2906.5
3359.57
2036.99
1451.51
1282.88
1197.49
1127.72
1062.3
1000.81
942.813
889.372
835.594
796.097
774.072
755.372
743.751
740.364
742.794
748.65
762.159
790.021
816.643
839.437
839.303
827.969
791.754
788.395
767.188
508.436
1699.02
2762.67
3350.14
2343.28
1479.17
1244.26
1144.91
1071.75
1003.81
940.302
882.221
830.905
781.811
747.59
731.434
719.32
714.001
720.888
741.402
770.378
809.237
871.105
931.721
983.078
999.101
994.427
921.908
842.825
812.184
544.372
1669.43
2622.04
3235.08
2649.68
1546.69
1205.37
1087.87
1014.09
945.683
883.44
828.757
783.701
742.266
715.735
709.031
708.471
716.784
740.266
783.576
841.748
926.992
1044.72
1161.66
1252.3
1273.8
1289.63
1217.13
1064.11
901.777
623.49
1645.14
2494.68
3096.27
2886.09
1667.15
1172.25
1035.88
957.619
891.251
832.818
784.309
746.728
717.389
704.184
709.242
724.788
753.998
802.216
874.11
966.529
1115.36
1320.18
1509.65
1640.43
1642.89
1629.43
1573.7
1453.09
1350.97
727.429
1621.99
2387.34
2958.23
2906.82
1876.15
1156.5
987.36
905.741
843.264
790.548
748.939
715.145
693.631
700.071
728.77
771.178
831.895
912.165
1017.33
1155.68
1386.67
1688.85
1945.87
2063.21
2013.27
2007.28
1949.83
1983.05
2146.59
990.932
283.952
284.295
284.649
285.002
285.355
285.708
286.061
286.413
286.765
287.117
287.469
287.821
288.173
288.524
288.875
289.226
289.577
289.927
290.278
290.628
290.978
291.328
291.678
292.027
292.377
292.726
293.075
293.423
293.772
294.12
294.469
294.817
295.164
295.512
295.86
296.207
296.554
296.901
297.247
297.594
297.94
298.286
298.632
298.978
299.324
299.669
300.014
300.36
300.72
301.386
309.67
527.167
2293.86
4756.34
6311.41
6724.76
6642.57
6459.71
6248.61
5946.34
5586.7
5244.73
4949.27
4695.38
4479.3
4299.4
4147.69
4020.87
3906.11
3793.57
3676.5
3555.62
3428.4
3295.04
3159.11
3022.42
2886.39
2756.49
2634.73
2521.6
2415.02
2315.97
2224.45
2139.29
2059.36
1985.06
1916.58
1853.18
1794.14
1738.89
1687.34
1639.28
1594.07
1551.07
1513.11
1479.57
1449.95
1424.06
1401.58
1382.57
1367.13
1354.46
1343.88
1335.38
1329.12
1325.01
1322.86
1322.24
1323.01
1325.23
1328.99
1334.72
1342.57
1352.29
1364.12
1378.47
1395.72
1415.97
1439.07
1463.35
1488.49
1515.03
1542.81
1570.72
1597.55
476.816
477.09
477.339
477.579
477.817
478.054
478.29
478.525
478.76
478.994
479.227
479.46
479.692
479.923
480.153
480.383
480.612
480.84
481.068
481.295
481.521
481.746
481.971
482.195
482.419
482.642
482.864
483.085
483.306
483.526
483.745
483.964
484.182
484.4
484.616
484.832
485.048
485.263
485.477
485.69
485.903
486.115
486.327
486.537
486.748
486.957
487.167
487.396
488.177
513.495
982.739
2998.76
4388.17
4620.52
4796.42
5089.81
5429.92
5875.05
6563.16
7040.24
7095.37
7003.05
6855.59
6649.31
6424.24
6184.06
5932.16
5671.34
5422.86
5181.27
4944.85
4721.38
4509.58
4308.14
4117.85
3941.13
3777.08
3619.58
3468.53
3326.22
3194.78
3072.32
2958.6
2851.51
2750.45
2656.11
2568.58
2486.41
2410.19
2339.83
2274.73
2214.11
2158.14
2105.86
2054.83
2008.32
1967.6
1932.66
1901.95
1874.8
1850.28
1827.82
1807.42
1789.31
1774.42
1762.88
1754.36
1748.03
1743.88
1742.23
1743.55
1748.53
1758.15
1771.43
1788.12
1810.42
1839.36
1874.49
1915.82
1964.31
2018.89
2079.24
2145.71
2219.12
2299.46
532.885
533.015
533.131
533.242
533.351
533.459
533.566
533.673
533.779
533.885
533.99
534.094
534.198
534.301
534.404
534.506
534.607
534.708
534.809
534.908
535.007
535.106
535.204
535.301
535.398
535.494
535.59
535.685
535.78
535.874
535.968
536.061
536.153
536.245
536.337
536.427
536.518
536.608
536.697
536.786
536.874
536.962
537.049
537.136
537.222
537.309
537.415
538.239
578.17
1280.15
3476.52
4382.94
4246.34
3961.68
3794.52
3707.09
3703.77
3830.39
4146.23
4685.55
5420.69
6340.49
7411.39
8612.48
9320.43
9645.83
9741.12
9605.68
9224.66
8631.33
8012.71
7433.46
6901.56
6446.52
6050.94
5677.41
5332.54
5018.7
4732.65
4474.7
4243.45
4034.53
3844.25
3669.23
3508.54
3362.64
3229.96
3108.83
2999.01
2900.13
2811.55
2730.84
2655.67
2585.91
2520.76
2459.55
2405.67
2358.37
2314.99
2276
2241.63
2210.33
2181.31
2156.56
2137.22
2122.52
2111.11
2101.27
2093.3
2087.32
2083.89
2083.13
2085.71
2091.95
2105.87
2127.94
2160.34
2201.19
2249.04
2309.44
2394.87
2485
2585.05
2696.18
2822.67
548.324
548.368
548.405
548.44
548.474
548.508
548.542
548.575
548.608
548.641
548.674
548.706
548.738
548.769
548.801
548.832
548.863
548.893
548.923
548.953
548.983
549.012
549.042
549.07
549.099
549.127
549.156
549.183
549.211
549.238
549.266
549.293
549.319
549.346
549.372
549.398
549.423
549.449
549.474
549.499
549.524
549.548
549.573
549.597
549.621
549.663
550.408
594.478
1416.56
3684.62
4389.34
4163.21
3832.18
3550.37
3343.72
3168.05
3041.23
2958.99
2931.8
2979.57
3119.97
3370.72
3758.01
4317.34
5070.25
6028.54
7218.03
8570.82
10034.4
10716.4
10756.3
10383.7
9676.2
8828.49
8062.87
7367.44
6764.34
6266.21
5833.21
5447.74
5113.07
4822.27
4564.03
4331.47
4122
3932.95
3762.23
3608.63
3471.78
3349.45
3239.93
3140.61
3048.11
2963.06
2886.11
2815.32
2750.61
2691.73
2637.26
2586.72
2541.04
2498.97
2459.83
2426.46
2399.01
2375.98
2355.06
2335.6
2317.91
2301.35
2286.07
2272.51
2260.25
2252.13
2249.38
2257.73
2281.84
2315.87
2360.93
2413.19
2473.84
2543.89
2621.75
2716.92
2823.78
551.708
551.718
551.727
551.735
551.742
551.75
551.758
551.765
551.773
551.78
551.787
551.794
551.801
551.808
551.815
551.822
551.829
551.835
551.842
551.848
551.855
551.861
551.867
551.873
551.879
551.885
551.891
551.897
551.903
551.908
551.914
551.92
551.925
551.93
551.936
551.941
551.946
551.951
551.957
551.962
551.967
551.971
551.976
551.981
551.998
552.554
589.082
1369.75
3680.2
4403.31
4159.31
3815.95
3513.45
3259.36
3057.92
2897.3
2779.49
2699.52
2659.19
2660.54
2706.4
2800.36
2953.32
3194.78
3558.99
4059.4
4773.22
5744.69
7075.81
8766.2
10698
12328.1
13317.3
12798.5
11533.1
10174
9091.6
8163.15
7399.03
6787.16
6275.56
5836.21
5457.98
5123.95
4827.79
4564.49
4331.3
4123.55
3941.21
3782.96
3643.19
3517.86
3402.68
3297.91
3203.67
3117.98
3038.72
2965.46
2895.17
2829.21
2769.56
2713.89
2662.14
2617.09
2578.51
2543.85
2510.89
2479.44
2449.86
2421.78
2394.71
2370.4
2354.31
2342.74
2337.63
2334.66
2333.96
2342.29
2357.87
2389.19
2432.26
2465.15
2457.4
2323.73
2116.92
552.291
552.293
552.295
552.296
552.298
552.299
552.3
552.302
552.303
552.304
552.305
552.306
552.308
552.309
552.31
552.311
552.312
552.313
552.314
552.315
552.316
552.318
552.319
552.32
552.32
552.321
552.322
552.323
552.324
552.325
552.326
552.327
552.328
552.329
552.329
552.33
552.331
552.332
552.333
552.333
552.334
552.335
552.336
552.344
552.684
576.251
1196.46
3529.32
4402.99
4177.38
3827.81
3512.89
3247.44
3025
2852.07
2721.43
2634.05
2587.47
2581.5
2616.08
2691.45
2813.63
2987.57
3228.73
3577.89
4000.47
4495.25
5056.28
5555.84
6053.3
6742.58
7635.86
8843.17
10366.9
11909.8
12317.2
11291.1
9956.7
8882.65
8106.24
7439.63
6891.79
6425.24
6010.42
5639.85
5308.88
5009.5
4742.07
4509.42
4309.29
4133.58
3976.69
3833.81
3704.7
3589.14
3483.86
3385.4
3292.74
3204.21
3118.52
3039.88
2964.66
2894.68
2831.67
2775.44
2723.93
2675.41
2630.23
2588.23
2547.29
2512.65
2484.28
2455.12
2426.2
2397.33
2369.14
2341.26
2297.47
2215.79
2035.62
1813.4
1568.93
1341.64
1224.17
1168.92
552.373
552.374
552.374
552.374
552.374
552.374
552.374
552.375
552.375
552.375
552.375
552.375
552.375
552.376
552.376
552.376
552.376
552.376
552.376
552.377
552.377
552.377
552.377
552.377
552.377
552.377
552.377
552.378
552.378
552.378
552.378
552.378
552.378
552.378
552.378
552.378
552.379
552.379
552.379
552.379
552.379
552.379
552.383
552.558
564.649
970.875
3216.75
4383.18
4209.29
3855.07
3531.61
3257.79
3021.97
2836.86
2702.61
2609.6
2561.08
2555.31
2592.33
2672.66
2798.2
2983.23
3243.1
3594.11
4086.13
4616.97
4952.53
5144.28
5246.17
5326.31
5454.79
5629.24
5894.43
6350.87
7094.86
8351.99
9990.26
11183.4
10826.8
9773.32
8769.87
7971.96
7347.96
6844.33
6423.45
6060.52
5731.86
5432.86
5168.61
4938.24
4735.75
4556.72
4395.64
4249.12
4114.95
3988.66
3865.76
3749.16
3637.76
3530.51
3427.42
3326.03
3229.21
3137.66
3051.72
2970.93
2895.85
2826.86
2764.99
2712.47
2667.35
2620.72
2576.44
2517.88
2400.18
2140.6
1831.74
1509.19
1221.57
1055.18
960.696
913.289
902.217
915.867
946.418
552.383
552.383
552.383
552.383
552.383
552.383
552.383
552.383
552.383
552.383
552.383
552.383
552.383
552.383
552.383
552.383
552.383
552.383
552.383
552.383
552.383
552.383
552.383
552.383
552.383
552.383
552.383
552.383
552.383
552.383
552.383
552.383
552.383
552.383
552.383
552.383
552.383
552.383
552.383
552.383
552.384
552.385
552.462
557.602
783.186
2717.33
4324.94
4256.96
3896.85
3563.15
3279.84
3040.23
2836.55
2697.77
2599.03
2546.27
2539.64
2577.03
2659.19
2789
2975.24
3245.23