/*--------------------------------*- C++ -*----------------------------------*\
| =========                 |                                                 |
| \\      /  F ield         | OpenFOAM: The Open Source CFD Toolbox           |
|  \\    /   O peration     | Version:  2112                                  |
|   \\  /    A nd           | Website:  www.openfoam.com                      |
|    \\/     M anipulation  |                                                 |
\*---------------------------------------------------------------------------*/
FoamFile
{
    version     2.0;
    format      ascii;
    arch        "LSB;label=32;scalar=64";
    class       volScalarField;
    location    "0.00297";
    object      T;
}
// * * * * * * * * * * * * * * * * * * * * * * * * * * * * * * * * * * * * * //

dimensions      [0 0 0 1 0 0 0];

internalField   nonuniform List<scalar> 
13875
(
1411.98
1535.43
1482.66
1486.8
1481.03
1483.46
1483.33
1482.99
1484.24
1484.43
1484.41
1484.25
1484.31
1483.91
1483.69
1484.03
1483.77
1483.56
1482.83
1483.34
1481.07
1487.51
1480.76
1533.05
1398.52
1307.03
1356.15
1319.17
1322.09
1316.54
1317.09
1316.89
1317.64
1322.8
1323.46
1323.52
1322.98
1318.56
1318.2
1322.41
1323.31
1323.01
1321.63
1317.57
1317.21
1316.33
1321.9
1319.69
1356.59
1304.27
1307.22
1339.94
1314.51
1311.03
1303.8
1304.21
1303.51
1303.62
1305.85
1306.6
1305.73
1305.31
1305.68
1305.35
1304.81
1306.66
1306.32
1304.67
1303.86
1304.67
1303.96
1310.83
1311.59
1336.51
1296.91
1317.35
1344.83
1314.95
1308.59
1304.95
1304.67
1303.7
1303.75
1303.95
1304.42
1304.56
1304.84
1305.84
1305.43
1304.66
1304.96
1304.4
1303.37
1304.25
1305.01
1304.73
1307.57
1314.06
1343.57
1311.19
1329.51
1342
1315.95
1311.67
1303.34
1304.04
1303.81
1303.83
1303.86
1304.61
1304.77
1305.11
1306.07
1305.73
1304.83
1305.23
1304.53
1303.41
1303.87
1304.66
1303.74
1311.55
1312.22
1338.47
1315.84
1332.23
1351.21
1319.12
1309.79
1306.82
1306.05
1304.69
1304.39
1304.28
1304.77
1304.9
1305.35
1306.59
1306.16
1305.02
1305.19
1304.98
1304.02
1305.03
1306.35
1306.55
1308.42
1319.09
1349.22
1326.8
1339.09
1360.43
1329.26
1316.82
1306.77
1306.22
1305.27
1304.88
1304.79
1305.32
1305.7
1305.85
1307.24
1307
1305.99
1305.59
1305.22
1304.43
1305.17
1306.55
1307.04
1317.32
1326.03
1358.41
1322.17
1360.13
1385
1344.63
1321.28
1316.1
1311.88
1308.79
1307.27
1306.47
1306.48
1306.63
1306.92
1308.57
1308.43
1307.23
1306.45
1306.89
1306.5
1308.44
1311.67
1315.31
1320.79
1341.61
1381.32
1351.08
1538.29
1508.2
1387.66
1350.7
1322.91
1316.19
1312.39
1310.26
1309.22
1309.15
1309.37
1309.35
1311.41
1311.3
1310.15
1309.09
1309.52
1309.28
1311.77
1315.7
1322.19
1348.4
1384.4
1508.07
1522.96
1839.05
1578
1430.65
1364.05
1343.82
1327.95
1320.84
1317.32
1315.57
1315.13
1315.23
1315.34
1317.42
1317.23
1316.28
1314.86
1315.75
1316.21
1319.76
1326.95
1340.78
1363.5
1427.68
1568.29
1830.48
2521.36
1803.95
1526.09
1436.2
1362.41
1345.13
1335.8
1331.27
1329.03
1328.23
1328.32
1328.65
1330.32
1330.16
1329.54
1328.06
1329.34
1330.33
1334.62
1344.24
1360.55
1427.13
1515.22
1809.9
2446.77
2823.25
2310.99
1797.23
1497.89
1438.52
1397.74
1374.68
1366.8
1361.58
1359.78
1359.73
1360.05
1361
1360.96
1360.9
1360.03
1362.05
1366.81
1373.73
1401.29
1428.51
1487.45
1756.62
2306.19
2848.86
2801.2
2677.66
2473.93
2337.22
1601.05
1513.21
1490.59
1472.18
1463.39
1460.52
1460.3
1460.61
1461.2
1461.03
1461.65
1461.54
1464.97
1474.99
1492.43
1524.09
1631.84
2342.62
2414.17
2713.36
2787.91
2714.82
2682.76
2846.71
2830.12
2136.55
2140.56
1942.32
1849.52
1790.85
1777.21
1772.54
1770.79
1772.59
1772.57
1775.46
1780.43
1798.57
1867.52
1983.12
2163.29
2162.84
2842.76
2855.2
2725.25
2708.76
2654.65
2703.62
2823.03
2813.06
2816.96
2972.7
3320.41
3248.59
3420.94
3414.7
3463.66
3448.63
3481.78
3455.42
3469.58
3427.54
3429.74
3289.66
3358.12
3069.58
2854.53
2840.52
2837.8
2702.4
2669.8
2532.53
2614.18
2828.37
2959.12
3000.89
3336.46
3601.43
3702.09
3686.03
3670.02
3644.73
3643.28
3632.32
3643.8
3642.4
3665.41
3685.48
3713.92
3631.26
3372.66
3025.52
2949.74
2850.31
2646.95
2572.6
2469.55
2581.56
2709.18
2858.15
2985.75
3280.36
3577.09
3679.21
3667.94
3651.4
3622.89
3622.93
3612.79
3623.97
3622.16
3649.43
3672.69
3692.74
3617.83
3403.57
3015.83
2931.71
2749.72
2598.58
2483.61
2268.27
2513.61
2839.73
2977.41
2961.81
3200.69
3389.91
3487.1
3496.62
3508.84
3500.69
3505.16
3502.67
3506.66
3502.64
3507.2
3495.3
3476.59
3388.06
3196.22
2972.05
2958.14
2806.27
2487.09
2265.65
2183.72
2263.24
2586.25
2756.5
2744.03
2884.12
3111.18
3307.29
3380.65
3405.2
3407.83
3413.81
3412.94
3416.66
3407.58
3403.26
3393.29
3341.58
3153.2
2902
2757.9
2779.47
2606.22
2273.76
2191.43
2281.45
2230
2369.33
2502.64
2538.4
2627.36
2842.27
3089.08
3241.02
3303.41
3311.6
3321.92
3322.3
3324.36
3314.2
3311.63
3268.42
3122.1
2858.9
2641.04
2558.44
2528.56
2325.03
2212.47
2285.87
2908.95
2281.48
2172.63
2305.7
2376.5
2462.46
2664.98
2906.7
3085.69
3181.5
3210.28
3220.26
3222.67
3223.91
3216.31
3194.79
3110.15
2921.05
2664.03
2472.89
2392.47
2311.33
2149.84
2270.65
2996.02
2929.8
2061.6
1969.78
2151.39
2246.49
2349.56
2528.33
2757.95
2951.22
3062.72
3095.96
3112.94
3114.48
3116.62
3101.76
3073.11
2965.24
2759.3
2524.63
2362.64
2256.61
2152.23
1959.01
2042.01
2901.67
2919.53
2069.96
1882.61
2035.89
2145.57
2262.65
2412.2
2623.56
2815.08
2941.78
2988.03
3001.25
3005.73
3004.68
2994.11
2953.3
2830.68
2627.02
2412.43
2278.03
2155.57
2036.51
1851.25
2052.83
2979.84
2828.18
2042.51
1870.52
1978.5
2072.06
2179.02
2321.95
2524.39
2709.93
2830.11
2873.95
2895.1
2896.85
2897.89
2878.87
2839.9
2723.21
2524.92
2317.7
2187.77
2079.09
1982.34
1852.63
2019.47
2840.6
2758.85
2036.95
1897.26
1946.66
2011.26
2099.95
2234.32
2431.08
2605.6
2726.19
2774.22
2787.8
2793.18
2790.45
2778.69
2733.05
2612.06
2424.62
2224.48
2103.43
2026.51
1950.58
1875.5
2033.19
2808.24
2731.49
2055.2
1918.34
1929.87
1965.5
2032.91
2166.99
2354.72
2520.14
2628.14
2668.83
2689.96
2691.55
2692
2671.69
2633.76
2527.96
2350.21
2159.42
2033.79
1972.54
1944.43
1896.06
2043.64
2745.75
2701.05
2079.96
1939.01
1924.08
1925.14
1977.74
2105.11
2282.47
2434.84
2538.38
2581.64
2591.39
2596.76
2592.49
2582.15
2541.07
2439.41
2276.37
2094.32
1975.51
1933.18
1936.22
1934.5
2088.42
2729.93
2701.99
2145.28
1977.55
1926.69
1898.23
1936.93
2063.44
2230.09
2368.96
2453.58
2486.06
2504.3
2505.68
2505.65
2485.61
2454.15
2368.93
2218.22
2050.42
1931.74
1900.3
1937.06
1964.3
2142.23
2732.06
2730.76
2156.58
1973.4
1916.94
1881.3
1906.42
2017.38
2166.62
2291.24
2372.64
2410.53
2416.13
2422.25
2416.03
2409.89
2374.45
2298.03
2165.17
2008.89
1904.56
1889.61
1928.26
1983.85
2128.7
2726.75
2775.78
2171.94
1993.5
1923.66
1867.91
1887
1994.99
2131.2
2238.69
2301.38
2325.18
2341.09
2341.64
2340.72
2322.86
2299.95
2239.61
2123.38
1984.73
1882.22
1870.12
1932.49
1990.12
2162.85
2772.96
2747.78
2170.14
1977.54
1917.08
1848.53
1877.85
1969.43
2083.37
2173.47
2229.12
2262.18
2261.51
2269.21
2262.26
2259.7
2229.65
2177.29
2079.35
1955.43
1871.04
1856.63
1924.37
1993.54
2159.61
2766
2740.15
2177.74
2011.13
1927.81
1841.92
1862.1
1949.19
2053.86
2129.31
2170.83
2185.46
2198.09
2199.05
2198.41
2183.3
2169.73
2133.6
2054.9
1943.75
1856.91
1848.23
1925.81
2000.45
2169.72
2736.23
2716.06
2175.31
2023.95
1912.24
1832.83
1854.12
1928.76
2013.32
2074.34
2106.42
2134.44
2128.35
2136.84
2129.23
2131.44
2107.21
2078.04
2014.56
1923.67
1848.35
1839.95
1921.37
2022.6
2163.89
2728.37
2687.69
2169.6
2071.51
1939
1837.98
1841.41
1917.01
1991.74
2039.48
2061.43
2068.07
2075.3
2076.25
2076.36
2065
2060.38
2043.18
1994
1913.32
1833.43
1841.13
1933.71
2054.36
2168.06
2701.82
2682.58
2178.13
2099.83
1928.21
1845.79
1834.43
1895.11
1953.77
1988.2
2003.25
2027.13
2015.26
2023.63
2015.85
2024.25
2005.05
1993.76
1962.24
1901.48
1828.38
1852.77
1935.88
2116.67
2162.38
2679.01
2655.51
2170.72
2095.38
1960.01
1861.81
1828.73
1883.03
1935.14
1960.9
1970.73
1970.38
1972.89
1972.4
1973.13
1966.98
1969.89
1964.92
1940.7
1889.3
1822.25
1864.88
1962.86
2114.73
2170.44
2652.44
2625.11
2158.24
2094.17
1976.09
1873.99
1837.2
1871.32
1899.96
1915.42
1917.84
1938.05
1920.4
1928.84
1921.22
1935.86
1920.87
1919.39
1909.03
1881.67
1824.95
1875.09
1988.84
2111.46
2156.76
2626.78
2606.78
2142.81
2088.06
2041.02
1901.09
1847.49
1863.47
1884.17
1891.59
1893.93
1889.76
1887.47
1885.83
1888.19
1886.62
1893.51
1896.33
1889.64
1879.01
1846.62
1896.48
2045.54
2102.52
2140.34
2597.11
2589.66
2134.11
2075.55
2029.91
1915.6
1867.12
1864.62
1855.45
1852.92
1845.03
1863.1
1841.56
1850.28
1842.93
1860.82
1848.21
1856.08
1862.91
1878.19
1862.89
1922.2
2045.33
2088.18
2123.22
2585.66
2564.07
2112.97
2047.92
2033.81
1964.76
1886.91
1876.19
1847.58
1836.32
1830.71
1822.53
1815.74
1814.1
1817.32
1818.5
1828.53
1839.64
1850.91
1891.88
1885.96
1965.85
2039.39
2051.53
2115.26
2563.24
2553.26
2109.92
2018.33
2017.53
2019.79
1917.15
1898.81
1833.19
1807.23
1785.77
1800.21
1775.97
1784.47
1777.01
1797.68
1787.06
1809.73
1838.09
1911.33
1912.3
2033.3
2033.15
2020.02
2096.76
2541.08
2528.99
2097.44
1993.31
2009.47
2026.89
1950.96
1898.5
1844.63
1801.56
1783.37
1766.48
1756.49
1754.11
1756.93
1762.32
1780.54
1803.76
1845.27
1921.26
1957.46
2032.72
2017.17
1995.13
2093.04
2516.9
2509.38
2088.95
1973.74
1972.33
2010.25
2009.21
1929.12
1853.06
1789.22
1742.23
1748.82
1721.33
1729.56
1722.41
1746.44
1743.35
1789.51
1850.95
1947.69
2019.57
2011.99
1984.48
1977.17
2086.19
2500.48
2477.42
2081.31
1957.94
1947.08
2000.78
2046.52
1945.8
1867.48
1798.12
1761.75
1724.81
1707.81
1704.37
1708.67
1720.59
1758.33
1795.94
1862.39
1981.89
2048.72
2001.16
1956.31
1960.49
2069.55
2468.64
2463.01
2077.27
1949.2
1913.68
1962.69
2026.5
2006.89
1887.5
1800.64
1723
1717.52
1679.9
1685.76
1681.17
1715.59
1727.73
1803.15
1884.39
2056.88
2034.82
1954.38
1926.54
1953.6
2069.04
2453.66
2430.5
2055.38
1936.32
1897.95
1932.93
2014.42
2079.99
1936.91
1811.6
1766.77
1713.9
1681.22
1671.24
1681.08
1707.93
1762.2
1815.16
1923.32
2085.37
2009.86
1926.95
1904.71
1942.96
2054.38
2424.58
2417.25
2053.94
1933.13
1875.83
1894.33
1984.54
2059.15
2017.14
1836.44
1731.95
1718.33
1665.75
1665.85
1667.36
1714.52
1733.38
1840.87
2008.15
2070.41
1978.23
1890.97
1890.26
1939.04
2045.44
2414.07
2381
2032.57
1919.83
1871.42
1877.28
1942.09
2041.17
2061.76
1877.67
1783.13
1718.09
1682.86
1667.08
1684.2
1712.8
1781.96
1896.85
2057.53
2050.87
1932.44
1876.85
1878.94
1927.04
2029.97
2371.07
2351.67
2021.61
1913.8
1856.24
1853.82
1909.89
2011.25
2045.52
1980.69
1762.83
1731.92
1667.37
1670.24
1669.5
1729.13
1765.84
2006.28
2046.48
2025.03
1903.17
1855
1870.23
1919.53
2017.75
2345.33
2214.37
1973.67
1888.42
1851.64
1848.01
1874.47
1967.16
2028.56
2011.09
1863.65
1749.55
1695.64
1678.34
1696.34
1746.15
1860.96
2009
2030.16
1984.43
1872.77
1850.79
1859.77
1894.64
1968.4
2203.74
283.263
283.801
283.128
283.776
283.897
284.245
284.755
285.405
286.111
286.873
287.888
289.321
291.306
293.802
296.679
299.766
303.03
306.431
309.228
310.568
301.811
282.352
276.273
274.588
274.146
274.036
274.004
274.003
273.997
274
281.296
281.729
281.26
281.82
281.79
282.081
282.621
283.324
284.062
284.768
285.565
286.773
288.645
291.178
294.324
297.935
301.753
305.588
309.3
312.381
314.72
307.231
283.21
276.341
274.558
274.139
274.021
274.008
273.991
274.009
279.974
280.597
280.281
280.698
280.494
280.865
281.403
282.194
283.022
283.757
284.464
285.589
287.457
290.009
293.304
297.347
301.773
306.078
310.386
314.316
317.764
319.299
304.377
281.596
275.78
274.428
274.087
274.025
273.995
274.009
279.15
279.656
279.717
279.773
279.644
279.852
280.206
280.84
281.576
282.322
282.985
284.085
286.107
288.881
292.318
296.259
300.856
305.943
310.603
314.839
318.433
321.355
321.992
299.63
279.97
275.333
274.292
274.071
274.005
274.008
278.934
279.328
279.543
279.463
279.395
279.532
279.8
280.364
281.069
281.824
282.46
283.208
285.166
288.08
291.655
295.674
300.046
304.836
310.201
315.04
318.74
321.92
324.605
324.133
294.098
278.486
274.949
274.212
274.038
274.015
278.931
279.333
279.668
279.499
279.456
279.56
279.807
280.354
281.062
281.837
282.5
283.156
284.651
287.434
291.104
295.085
299.365
303.941
308.932
314.161
318.736
322.274
325.581
327.795
324.359
288.725
277.188
274.663
274.133
274.034
279.675
279.99
280.338
280.26
280.204
280.284
280.44
280.873
281.515
282.281
282.952
283.552
284.419
286.738
290.345
294.32
298.559
302.945
307.613
312.817
318.074
322.468
326.031
329.425
330.947
320.292
284.677
276.165
274.434
274.099
280.627
280.864
281.25
281.35
281.351
281.467
281.677
282.055
282.605
283.251
283.852
284.303
284.673
286.216
289.385
293.448
297.69
302.073
306.618
311.56
316.968
322.142
326.377
330.071
333.383
334.21
312.176
281.458
275.411
274.308
281.449
281.674
282.127
282.437
282.777
283.121
283.43
283.713
284.011
284.45
284.678
284.872
285.073
286.018
288.543
292.561
296.907
301.356
305.89
310.614
315.817
321.313
326.342
330.481
334.34
337.358
337.07
301.03
278.856
274.983
282.102
282.308
282.816
283.5
284.385
284.998
285.395
285.732
285.635
285.4
285.263
285.338
285.516
286.079
288.037
291.654
296.175
300.676
305.259
309.902
314.868
320.287
325.808
330.691
334.794
338.699
340.742
336.338
290.277
277.281
282.7
282.85
283.366
284.151
285.07
285.711
286.191
286.613
286.559
286.142
285.81
285.707
285.788
285.936
287.674
290.751
295.329
299.875
304.54
309.231
314.106
319.318
324.924
330.427
335.163
339.247
342.573
343.451
323.399
284.892
283.188
283.336
283.798
284.507
285.392
286.074
286.62
287.123
287.321
286.908
286.48
286.043
285.871
285.997
287.217
289.93
294.279
298.94
303.675
308.477
313.39
318.477
323.935
329.667
335.106
339.717
343.44
346.8
347.996
310.872
283.734
283.857
284.2
284.822
285.586
286.267
287.124
287.671
288.069
287.793
287.314
286.675
286.463
286.49
286.704
289.327
293.237
298.064
302.795
307.659
312.612
317.688
323.009
328.665
334.484
339.885
343.974
349.133
356.76
357.834
284.187
284.309
284.507
285.144
285.864
286.776
287.731
288.428
288.972
288.893
288.148
287.503
287.242
287.157
287.212
289.16
292.584
297.379
302.063
306.915
311.831
316.949
322.207
327.714
333.544
339.497
343.708
350.796
366.979
424.082
284.731
284.772
284.904
285.7
286.522
287.525
288.605
289.494
290.175
290.096
289.324
288.698
288.339
288.161
288.217
289.457
292.496
297.128
301.777
306.585
311.444
316.506
321.623
326.998
332.632
337.915
344.19
355.839
383.884
475.988
284.916
285.079
285.483
286.54
287.588
288.803
290.091
291.162
291.935
291.85
291.019
290.449
289.98
289.761
289.717
290.329
292.954
297.315
301.954
306.663
311.451
316.404
321.313
326.521
331.902
336.603
345.072
362.913
401.783
480.902
285.255
285.603
286.452
287.972
289.486
290.995
292.786
294.198
295.124
294.775
293.753
292.984
292.319
291.915
291.741
291.656
293.904
298.016
302.706
307.239
311.86
316.511
321.241
326.308
331.408
337.107
348.489
373.035
421.278
480.462
285.294
286.281
287.875
290.198
292.95
295.332
298.058
299.894
300.856
299.912
298.375
297.123
295.987
295.176
294.355
293.652
295.474
299.216
304.026
308.276
312.635
316.893
321.368
326.318
330.871
338.428
354.002
389.861
458.283
477.947
285.596
287.308
290.166
294.808
300.225
304.353
308.419
310.565
311.118
308.434
305.932
303.871
301.886
300.277
298.7
297.24
298.075
301.167
305.855
309.871
313.924
317.928
322.044
326.69
331.228
340.607
361.994
412.783
466.706
470.909
285.716
288.729
294.985
305.219
316.436
323.237
328.844
331.02
328.929
323.524
319.399
315.567
311.694
307.865
303.626
301.31
300.911
303.539
308.02
312.052
315.886
319.687
323.588
327.898
333.159
344.701
373.012
445.565
466.181
463.592
286.697
291.728
306.098
331.37
352.092
362.106
367.206
367.761
360.811
350.073
342.017
334.082
325.553
318.081
312.106
308.157
305.428
306.887
311.144
314.805
318.44
322.004
325.765
329.883
336.062
350.75
389.708
470.84
467.658
459.48
286.09
299.44
337.155
399.411
427.901
433.341
433.032
425.385
408.667
389.519
374.837
359.308
345.304
334.261
325.4
318.84
313.474
313.02
315.805
318.415
321.52
324.797
328.307
332.24
340.048
359.7
419.021
475.53
469.314
457.233
296.741
320.178
427.841
525.044
543.618
528.904
522.102
501.438
469.187
438.28
414.833
391.897
372.387
356.534
343.917
333.603
325.334
322.393
323.035
323.715
325.625
328.228
331.385
334.769
345.021
372.772
451.856
477.035
469.431
457.439
280.808
387.52
614.783
672.09
675.997
642.514
632.623
586.788
536.283
498.057
463.841
432.277
406.372
383.931
366.811
352.195
341.031
334.213
332.244
331.198
331.338
332.642
335.054
339.047
351.324
390.456
483.424
479.685
469.378
459.191
316.377
565.244
812.455
819.402
828.794
778.218
743.313
684.028
611.569
569.904
524.088
482.809
450.506
419.24
394.89
373.182
356.482
344.456
341.238
340.365
338.899
338.767
339.769
344.291
360.095
420.157
495.448
482.961
470.267
461.849
274
273.997
274.003
274.004
274.036
274.142
274.575
276.22
282.179
301.373
310.442
309.149
306.373
302.982
299.723
296.64
293.767
291.272
289.287
287.855
286.838
286.076
285.37
284.721
284.211
283.862
283.741
283.097
283.769
283.239
274.009
273.991
274.008
274.021
274.136
274.545
276.282
282.992
306.655
314.617
312.296
309.231
305.534
301.706
297.894
294.286
291.141
288.607
286.732
285.521
284.723
284.019
283.282
282.58
282.039
281.747
281.776
281.219
281.688
281.268
274.009
273.995
274.024
274.084
274.418
275.733
281.4
303.658
319.148
317.669
314.237
310.323
306.025
301.728
297.309
293.266
289.968
287.415
285.54
284.396
283.691
282.957
282.136
281.353
280.816
280.446
280.647
280.226
280.546
279.925
274.008
274.005
274.069
274.285
275.297
279.801
298.83
321.794
321.242
318.337
314.763
310.541
305.893
300.813
296.216
292.274
288.836
286.06
283.991
282.907
282.26
281.522
280.792
280.159
279.803
279.592
279.716
279.655
279.595
279.1
274.014
274.037
274.206
274.922
278.35
293.419
323.843
324.473
321.819
318.643
314.965
310.145
304.786
299.996
295.624
291.606
288.029
285.11
283.142
282.414
281.782
281.03
280.325
279.759
279.488
279.343
279.405
279.48
279.266
278.884
274.033
274.129
274.644
277.087
288.211
323.749
327.644
325.484
322.172
318.65
314.099
308.879
303.889
299.315
295.037
291.058
287.384
284.588
283.127
282.47
281.805
281.032
280.322
279.771
279.52
279.412
279.446
279.611
279.276
278.885
274.097
274.421
276.094
284.336
319.347
330.805
329.336
325.942
322.378
318.01
312.77
307.563
302.895
298.513
294.276
290.308
286.697
284.439
283.565
282.963
282.278
281.514
280.87
280.429
280.268
280.184
280.229
280.305
279.959
279.644
274.299
275.366
281.212
311.033
334.067
333.304
330
326.29
322.079
316.931
311.531
306.585
302.044
297.665
293.424
289.372
286.2
284.706
284.359
283.928
283.278
282.623
282.078
281.706
281.495
281.369
281.36
281.264
280.873
280.615
274.952
278.693
300.048
336.883
337.283
334.288
330.408
326.282
321.289
315.811
310.609
305.889
301.362
296.919
292.575
288.567
286.039
285.078
284.856
284.641
284.432
284.018
283.71
283.505
283.207
282.861
282.515
282.209
281.74
281.476
277.173
289.661
335.718
340.661
338.663
334.743
330.638
325.789
320.297
314.885
309.922
305.288
300.713
296.223
291.707
288.086
286.085
285.483
285.309
285.262
285.445
285.634
285.865
285.639
285.256
284.639
283.697
282.982
282.452
282.199
284.557
322.424
343.354
342.546
339.22
335.119
330.411
324.947
319.36
314.149
309.274
304.59
299.93
295.397
290.816
287.684
285.821
285.693
285.76
285.865
286.298
286.871
286.985
286.546
286.05
285.401
284.466
283.633
283.088
282.878
309.72
347.717
346.775
343.432
339.691
335.093
329.69
323.981
318.53
313.445
308.532
303.728
298.988
294.333
289.972
286.864
286.16
286.128
286.29
286.712
287.245
287.779
287.589
287.054
286.431
285.732
284.867
284.155
283.669
283.455
356.786
356.591
349.134
343.965
339.882
334.506
328.709
323.059
317.738
312.662
307.703
302.836
298.098
293.261
289.359
286.864
286.743
286.732
286.951
287.58
288.29
288.634
288.193
287.58
286.658
285.955
285.199
284.608
284.276
284.097
423.257
366.813
350.787
343.737
339.524
333.589
327.764
322.249
316.988
311.866
306.941
302.09
297.409
292.604
289.234
287.537
287.493
287.557
287.851
288.649
289.48
289.574
288.97
288.207
287.181
286.239
285.541
284.943
284.786
284.643
476.263
383.721
355.799
344.221
337.974
332.674
327.037
321.653
316.529
311.465
306.604
301.802
297.165
292.541
289.608
288.591
288.541
288.715
289.112
289.946
290.803
290.779
290.074
289.079
287.928
286.903
286.096
285.338
285.316
285.246
481.25
401.713
362.87
345.087
336.637
331.925
326.542
321.33
316.421
311.469
306.679
301.973
297.36
293.035
290.564
290.095
290.127
290.379
291.061
291.79
292.651
292.562
291.749
290.515
289.167
287.964
286.93
285.914
285.637
285.438
480.72
421.358
372.983
348.49
337.136
331.442
326.316
321.253
316.526
311.868
307.239
302.698
298.073
294.026
291.958
292.111
292.391
292.932
293.746
294.584
295.633
295.737
294.793
293.237
291.346
289.923
288.401
286.902
286.084
285.674
478.236
458.563
389.84
353.991
338.483
331.004
326.321
321.366
316.889
312.625
308.254
303.974
299.305
295.617
294.035
294.807
295.783
296.719
297.977
299.286
300.852
301.48
300.558
298.613
295.942
293.611
290.843
288.457
286.699
285.651
471.19
466.972
412.863
362.035
340.671
331.213
326.676
322.001
317.865
313.861
309.815
305.811
301.267
298.252
297.517
299.05
300.964
302.743
304.901
307.032
309.726
311.94
311.452
309.419
305.363
301.18
295.683
290.92
287.736
285.943
463.835
466.464
446.31
373.111
344.675
333.134
327.846
323.491
319.569
315.749
311.969
308.033
303.722
301.236
302.036
304.348
308.705
312.571
316.832
320.677
324.892
330.213
332.439
330.544
324.884
317.974
306.647
295.917
289.256
286.047
459.833
467.952
471.089
389.843
350.709
335.978
329.751
325.601
321.82
318.252
314.716
311.165
307.092
305.996
309.077
313.228
319.293
326.812
335.677
343.288
351.809
362.532
370.031
370.305
365.092
355.114
333.973
307.466
292.346
287.104
457.713
469.613
475.483
419.341
359.631
339.867
331.999
328.079
324.588
321.376
318.366
315.856
313.388
314.328
319.924
326.829
335.956
347.289
361.925
376.05
391.907
411.213
428.639
438.021
438.032
433.117
404.795
339.888
300.356
286.551
457.567
469.672
476.913
452.329
372.767
344.725
334.483
331.113
328.006
325.494
323.702
323.1
322.813
326.267
334.985
345.675
358.71
374.6
395.521
416.369
441.621
473.805
505.299
528.721
533.846
551.635
533.813
435.711
322.401
297.622
459.146
469.523
479.586
483.888
390.597
351.032
338.755
334.743
332.369
331.154
331.15
332.576
335.028
342.034
353.984
368.995
386.771
408.963
436.655
465.727
500.371
543.554
594.389
639.494
649.68
685.919
682.235
627.689
393.874
282.148
461.688
470.248
482.861
495.269
420.92
359.906
343.954
339.391
338.437
338.821
340.561
342.145
345.933
357.983
375.328
397.453
422.471
453.386
487.651
526.725
571.425
615.734
694.571
750.483
782.484
840.759
832.059
826.241
575.846
318.792
274.002
274.002
274.002
274.002
274.002
274.002
274.002
274.002
274.002
274.002
274.002
274.002
274.002
274.002
274.002
274.002
274.002
274.002
274.002
274.002
274.002
274.002
274.002
274.002
274.002
274.002
274.002
274.002
274.002
274.002
274.002
274.002
274.002
274.002
274.002
274.002
274.002
274.002
274.002
274.002
274.002
274.002
274.002
274.002
274.002
274.002
274.002
274.003
274.008
274.107
275.881
304.877
529.251
876.087
1158.94
1210.98
1204.84
1195.69
1188.72
1174.05
1148.66
1120.84
1096.61
1075.65
1056.64
1040.1
1026.71
1017.19
1009.54
1001.65
992.997
983.22
971.756
958.623
944.309
928.608
910.932
892.343
873.299
854.774
837.123
820.462
804.645
789.205
774.062
759.678
746.207
733.11
720.437
708.276
696.768
685.847
675.242
664.687
654.57
644.759
635.164
625.739
616.453
607.361
598.473
589.729
581.091
572.541
564.238
556.274
548.674
541.547
534.971
528.624
522.553
516.784
511.285
506.113
501.214
496.617
492.344
488.397
484.718
480.987
477.208
473.657
470.435
467.419
464.618
274.001
274.001
274.001
274.001
274.001
274.001
274.001
274.001
274.001
274.001
274.001
274.001
274.001
274.001
274.001
274.001
274.001
274.001
274.001
274.001
274.001
274.001
274.001
274.001
274.001
274.001
274.001
274.001
274.001
274.001
274.001
274.001
274.001
274.001
274.001
274.001
274.001
274.001
274.001
274.001
274.001
274.001
274.001
274.001
274.001
274.001
274.001
274.007
274.138
276.836
322.203
556.703
730.826
813.814
890.34
978.816
1049.91
1107.77
1199.21
1248.7
1247.42
1239.09
1232.38
1221.18
1205.36
1182.76
1154.56
1123.38
1094.48
1067.81
1042.42
1018.87
997.202
976.314
956.107
937.023
919.852
903.329
886.803
870.352
854.463
839.158
824.429
809.654
795.515
781.708
768.558
755.573
742.826
730.675
719.071
707.94
696.954
686.128
675.04
664.227
653.817
643.574
633.278
623.199
613.426
604.008
594.913
586.223
578.04
570.356
563.175
556.298
549.835
543.538
537.61
531.941
526.536
521.229
515.884
510.806
505.914
501.069
496.346
492.001
487.71
483.517
479.515
475.809
472.659
274
274
274
274
274
274
274
274
274
274
274
274
274
274
274
274
274
274
274
274
274
274
274
274
274
274
274
274
274
274
274
274
274
274
274
274
274
274
274
274
274
274
274
274
274
274
274.007
274.157
277.822
351.22
631.511
747.177
781.804
803.775
832.963
861.151
888.643
921.926
965.816
1022.36
1080.73
1146.2
1217.33
1304.07
1339.61
1348.95
1351.13
1343.17
1316.33
1265.29
1206.14
1147.75
1093.97
1052.64
1021.05
992.235
966.21
942.963
921.766
902.482
884.225
866.906
850.145
833.905
818.343
803.541
789.487
775.962
763.041
750.823
739.212
728.115
717.153
706.478
695.655
685.057
675.089
665.402
655.853
646.31
636.934
627.775
618.774
610.022
601.697
593.759
586.163
578.683
571.468
564.077
557.078
549.989
542.945
535.835
529.205
522.986
517.168
511.287
505.175
499.669
496.536
493.074
490.11
487.344
485.22
274
274
274
274
274
274
274
274
274
274
274
274
274
274
274
274
274
274
274
274
274
274
274
274
274
274
274
274
274
274
274
274
274
274
274
274
274
274
274
274
274
274
274
274
274
274.005
274.148
278.136
371.105
678.859
767.151
787.184
798.214
806.329
819.007
833.667
853.286
876.319
902.038
932.615
970.42
1016.09
1070.74
1139.13
1222.15
1311.88
1407.44
1497.93
1588.39
1595.07
1569.33
1518.84
1432.52
1323.79
1230.64
1153.43
1092.82
1046.23
1006.82
972.698
943.414
918.12
895.587
874.39
854.911
836.785
820.026
804.357
789.891
776.331
763.546
751.375
739.382
727.834
716.717
706.06
696.031
686.737
677.917
669.334
661.184
653.018
645.06
637.293
629.746
622.457
615.325
608.329
601.586
594.517
587.791
580.735
573.501
565.872
558.366
551.905
546.593
541.053
535.308
528.792
521.769
514.711
507.719
502.191
499.124
274
274
274
274
274
274
274
274
274
274
274
274
274
274
274
274
274
274
274
274
274
274
274
274
274
274
274
274
274
274
274
274
274
274
274
274
274
274
274
274
274
274
274
274
274.003
274.116
277.541
367.572
692.832
780.099
793.894
801.252
806.399
811.001
820.528
833.35
849.51
868.195
888.233
910.959
941.974
981.507
1033.35
1103.36
1192.71
1296.25
1423.54
1573.29
1722.52
1835.95
1924.73
1977.5
1994.99
1902.19
1746.85
1565.88
1414.71
1297.12
1205.7
1135.32
1079.44
1033.39
996.086
962.942
934.271
908.487
885.62
865.178
847.027
830.622
815.672
801.478
787.812
774.905
762.894
751.957
741.992
732.827
724.256
716.057
708.244
700.701
693.13
685.765
678.642
671.557
664.49
657.461
650.445
643.116
635.863
628.201
621.166
613.32
605.744
596.959
586.357
575.517
564.266
553.921
544.512
534.146
519.769
491.903
457.693
274
274
274
274
274
274
274
274
274
274
274
274
274
274
274
274
274
274
274
274
274
274
274
274
274
274
274
274
274
274
274
274
274
274
274
274
274
274
274
274
274
274
274
274.002
274.076
276.468
345.678
681.585
786.307
798.085
803.749
808.509
812.774
819.68
831.532
846.714
864.158
883.314
904
932.608
975.931
1038.94
1130.33
1258.71
1432.91
1623.8
1775.03
1860.09
1903.35
1932.42
1977.59
2032.78
2105.37
2185.44
2285.35
2277.21
2107.41
1882.64
1690.3
1529.79
1400.95
1299.25
1218.22
1152.46
1099.68
1054.98
1016.89
983.462
955.296
931.432
910.914
892.468
875.092
859.048
844.284
830.452
817.867
806.486
796.267
787.093
778.374
769.987
761.986
754.451
747.415
740.51
733.563
726.774
720.224
713.067
706.374
698.864
689.276
677.365
665.027
650.392
634.319
616.614
594.69
558.282
515.558
467.118
419.531
391.107
372.62
274
274
274
274
274
274
274
274
274
274
274
274
274
274
274
274
274
274
274
274
274
274
274
274
274
274
274
274
274
274
274
274
274
274
274
274
274
274
274
274
274
274
274.001
274.042
275.448
317.121
641.14
787.471
800.254
805.798
811.181
815.934
821.193
831.768
847.691
865.528
884.903
907.129
938.969
989.993
1068.11
1186.95
1357.46
1582.37
1791.4
1869.47
1875.37
1864.65
1850.53
1841.16
1844.83
1860.35
1896.23
1948.43
2016.73
2114.93
2262.64
2370.95
2295.57
2127.55
1952.01
1797.41
1663.46
1543.05
1440.17
1353.31
1281.14
1219.74
1169.46
1127.27
1091.87
1061.73
1035.28
1012.26
992.104
973.743
956.671
941.092
927.068
914.495
903.147
893.346
884.493
876.408
868.883
861.672
854.778
847.836
840.397
832.243
822.505
807.651
789.335
764.761
732.919
677.229
614.78
546.046
479.837
439.152
411.226
390.033
373.795
361.135
351.159
274
274
274
274
274
274
274
274
274
274
274
274
274
274
274
274
274
274
274
274
274
274
274
274
274
274
274
274
274
274
274
274
274
274
274
274
274
274
274
274
274
274.001
274.02
274.738
296.222
568.388
783.468
802.029
807.709
813.222
818.458
824.38
832.383
848.363
866.124
885.566
909.255
943.214
999.698
1089.6
1226.58
1428.4
1703.13
1873.9
1902.89
1902.74
1890.36
1866.05
1851.38
1848.83
1856
1874.08
1890.7
1904.71
1923.22
1932.86
1950.01
2017.64
2114.67
2279.08
2343.03
2302.79
2183.82
2051.33
1927.71
1815.33
1714.19
1621.99
1541.72
1471.58
1412.12
1361.53
1317.07
1278.35
1245.23
1216.99
1192
1169.75
1150.15
1133.2
1118.62
1106.18
1095.72
1086.7
1078.48
1070.28
1061.4
1050.55
1036.39
1017.57
988.717
929.259
839.484
738.438
636.795
566.615
513.502
471.671
438.405
413.253
393.256
377.251
364.683
354.249
346.326
274
274
274
274
274
274
274
274
274
274
274
274
274
274
274
274
274
274
274
274
274
274
274
274
274
274
274
274
274
274
274
274
274
274
274
274
274
274
274
274
274
274.008
274.327
284.135
474.14
768.234
803.018
809.814
814.864
820.797
827.189
833.511
847.782
865.827
885.041
908.945
943.455
1002.18
1097.08
1243.69
1458.75
1747.36
1898.05
1919.57
1915.08
1909.41
1914.53
1907.11
1911.07
1932.11
1953.4
1979.51
1994.01
1990.9
1994.95
1979.97
1953.09
1919.64
1905.97
1916.69
1972.74
2058.28
2198.17
2264.6
2274.01
2240.54
2170.32
2080.21
1992.24