/*--------------------------------*- C++ -*----------------------------------*\
| =========                 |                                                 |
| \\      /  F ield         | OpenFOAM: The Open Source CFD Toolbox           |
|  \\    /   O peration     | Version:  2112                                  |
|   \\  /    A nd           | Website:  www.openfoam.com                      |
|    \\/     M anipulation  |                                                 |
\*---------------------------------------------------------------------------*/
FoamFile
{
    version     2.0;
    format      ascii;
    arch        "LSB;label=32;scalar=64";
    class       volScalarField;
    location    "0.00923";
    object      alphat;
}
// * * * * * * * * * * * * * * * * * * * * * * * * * * * * * * * * * * * * * //

dimensions      [1 -1 -1 0 0 0 0];

internalField   nonuniform List<scalar> 
13875
(
0.119861
0.0816027
0.0784507
0.0782906
0.0783227
0.0783854
0.0782843
0.0782906
0.078298
0.0782866
0.0782917
0.078307
0.0783885
0.0784143
0.0783944
0.0782967
0.0782555
0.0782952
0.0783039
0.0783544
0.0783209
0.0782657
0.0784874
0.0814877
0.120909
0.103938
0.0576789
0.057079
0.0571618
0.0566537
0.0566715
0.0570504
0.0571463
0.0571527
0.0571241
0.0571116
0.05712
0.0566605
0.0566157
0.0566682
0.0570967
0.0571182
0.0571522
0.0570735
0.0566793
0.0566745
0.0571392
0.0570689
0.057349
0.104486
0.110619
0.0553257
0.0558756
0.0547229
0.0545855
0.0544884
0.0543291
0.0543902
0.0543699
0.0542748
0.0542169
0.0543433
0.0542486
0.0542772
0.054241
0.0543497
0.054108
0.0542535
0.0542805
0.0544498
0.0545299
0.0546029
0.0557848
0.0550646
0.111256
0.115886
0.0546453
0.0553823
0.0543148
0.0540507
0.053942
0.0537298
0.05362
0.0535383
0.0534426
0.0533909
0.0534708
0.0537008
0.0537402
0.053693
0.0534836
0.0533646
0.0534635
0.0536339
0.0539047
0.0539988
0.054203
0.0551937
0.0542909
0.115913
0.121033
0.0546348
0.0551221
0.0537446
0.053679
0.0535073
0.0532117
0.0531169
0.0530335
0.0529504
0.0529012
0.0529781
0.0532178
0.053264
0.0532154
0.0529951
0.0528769
0.0529554
0.0531092
0.0534735
0.0536069
0.0536124
0.0550185
0.0543273
0.121456
0.12441
0.0547456
0.0551894
0.0536075
0.0533074
0.053103
0.0528239
0.0526758
0.0525995
0.0525209
0.0524632
0.0525263
0.0527727
0.0528478
0.0527663
0.0525397
0.0524479
0.0525459
0.0527326
0.0530514
0.0532375
0.0535051
0.0548808
0.0543921
0.124079
0.128747
0.0564759
0.0557859
0.0534594
0.053283
0.0528995
0.0524372
0.0522929
0.0522147
0.0521331
0.0520724
0.0521394
0.0524043
0.0524748
0.052398
0.0521492
0.0520768
0.0521609
0.052357
0.0528619
0.0531941
0.0533639
0.0556414
0.0563568
0.128943
0.135705
0.0611979
0.0578392
0.0544194
0.0534182
0.05285
0.0522898
0.0520193
0.0519316
0.0518418
0.0517661
0.0518094
0.0521003
0.0521847
0.0520827
0.0518218
0.0518056
0.0519224
0.0522171
0.0527856
0.0533235
0.0542767
0.0575119
0.0610297
0.135513
0.151307
0.0692456
0.0615454
0.0559366
0.0544298
0.0531619
0.0522381
0.0518826
0.0517533
0.0516762
0.0515793
0.0516118
0.051932
0.0520262
0.0519222
0.0516226
0.0516535
0.0517992
0.0521598
0.0530928
0.0542254
0.0556187
0.0610283
0.0684074
0.154151
0.239307
0.0874351
0.0664689
0.0590052
0.0553945
0.0537026
0.0525397
0.0520253
0.0518148
0.051749
0.0516468
0.0516526
0.051996
0.0521082
0.0519981
0.0517109
0.0517627
0.051946
0.052438
0.053606
0.0552581
0.0586517
0.0660075
0.0866818
0.24118
0.365326
0.118403
0.0759815
0.0629577
0.0575822
0.0547681
0.0531314
0.0525991
0.0523164
0.0522284
0.0521207
0.0521006
0.0524343
0.0525668
0.0524894
0.0522603
0.0523112
0.0525488
0.0530324
0.0546167
0.0573277
0.0616285
0.0748331
0.113024
0.365691
0.65817
0.19309
0.10405
0.0744384
0.0613427
0.0572733
0.0551252
0.0541581
0.0536957
0.0535257
0.0533815
0.0533425
0.0536055
0.0537656
0.0537662
0.0536724
0.0537567
0.0541569
0.0551188
0.0568211
0.0618927
0.0733931
0.100187
0.182921
0.643689
0.581965
0.436235
0.176138
0.0922053
0.0767559
0.0648921
0.05964
0.0577986
0.0569225
0.0565945
0.0563989
0.056343
0.0564861
0.0566542
0.0567759
0.056869
0.0571297
0.05793
0.0598443
0.0653125
0.0763348
0.0897208
0.172097
0.433723
0.581388
0.491505
0.400638
0.346958
0.326869
0.115748
0.0802545
0.0734161
0.0675784
0.0651085
0.0643214
0.0638933
0.063709
0.0637399
0.0639025
0.064208
0.0647239
0.0656863
0.0683688
0.0749558
0.0830909
0.13117
0.328384
0.337519
0.401511
0.50024
0.408235
0.349489
0.329268
0.333776
0.301432
0.200208
0.127061
0.0945322
0.0865136
0.0858767
0.0852965
0.0849837
0.0850051
0.0851723
0.0856332
0.0865941
0.0875679
0.0953652
0.134052
0.212978
0.302278
0.330319
0.331363
0.360394
0.421861
0.329691
0.293267
0.282123
0.301092
0.312731
0.321517
0.244335
0.191301
0.171173
0.148533
0.136434
0.132383
0.130941
0.131676
0.13437
0.143236
0.171623
0.195493
0.249601
0.324088
0.307784
0.303903
0.291642
0.298512
0.342014
0.239022
0.227142
0.225284
0.264584
0.318697
0.400368
0.530197
0.564857
0.539426
0.537761
0.557379
0.570587
0.578059
0.574185
0.561035
0.550879
0.539363
0.568042
0.531586
0.396289
0.314156
0.266894
0.230429
0.234583
0.252061
0.140449
0.15254
0.185701
0.226902
0.311642
0.43201
0.563197
0.616918
0.561666
0.512597
0.495052
0.491729
0.494396
0.493284
0.498745
0.530761
0.567043
0.606643
0.565294
0.437583
0.310207
0.22923
0.177478
0.143071
0.131219
0.0685803
0.103242
0.16551
0.250184
0.349984
0.408562
0.473721
0.533641
0.500686
0.453467
0.433449
0.430506
0.432183
0.435276
0.441772
0.463328
0.497271
0.52773
0.488032
0.427327
0.372228
0.265446
0.168494
0.104719
0.0704752
0.0268731
0.0527565
0.113699
0.230239
0.346179
0.362531
0.385004
0.426986
0.42519
0.402972
0.39044
0.384883
0.382489
0.390485
0.398693
0.406398
0.414784
0.414836
0.389637
0.377997
0.363101
0.228542
0.112104
0.0520188
0.0259537
0.0795943
0.0886491
0.115058
0.186709
0.275213
0.285793
0.30731
0.351817
0.370154
0.36173
0.349485
0.338481
0.333304
0.344652
0.356802
0.361924
0.35728
0.338043
0.307556
0.295866
0.282807
0.18594
0.113484
0.0892248
0.0845728
0.125195
0.15371
0.129105
0.156776
0.207475
0.224612
0.252071
0.298281
0.322626
0.320362
0.308251
0.294387
0.28784
0.300454
0.315199
0.320015
0.310537
0.285494
0.248062
0.230403
0.210594
0.153892
0.125605
0.150608
0.125758
0.171023
0.16589
0.133237
0.134502
0.164202
0.180949
0.211654
0.256094
0.281195
0.281097
0.268619
0.253836
0.247118
0.258717
0.273775
0.279055
0.268852
0.245935
0.206003
0.183604
0.16582
0.13443
0.129997
0.161884
0.172345
0.210536
0.197601
0.134677
0.123896
0.138563
0.154697
0.180279
0.220046
0.242559
0.244166
0.232111
0.218231
0.212198
0.222713
0.237089
0.242557
0.23183
0.210784
0.176176
0.155486
0.139539
0.124011
0.133034
0.203481
0.206196
0.231464
0.235186
0.137726
0.119425
0.122762
0.135048
0.156724
0.189058
0.2086
0.210251
0.200045
0.187539
0.182496
0.191818
0.205086
0.209875
0.199811
0.181563
0.153697
0.134428
0.123015
0.121449
0.137506
0.243801
0.228032
0.25416
0.263341
0.138077
0.115972
0.11204
0.121203
0.13866
0.164574
0.180074
0.181891
0.173344
0.162219
0.157565
0.165577
0.17737
0.181417
0.172921
0.157628
0.135971
0.120863
0.112643
0.117419
0.138776
0.270979
0.251177
0.282507
0.278307
0.139152
0.11278
0.105688
0.109898
0.124369
0.143779
0.155926
0.156674
0.149676
0.140296
0.136598
0.143668
0.153694
0.156852
0.149991
0.138032
0.12132
0.108609
0.106567
0.1142
0.141608
0.290763
0.276212
0.311472
0.296706
0.138824
0.108158
0.100579
0.101822
0.112648
0.126925
0.135368
0.135962
0.130216
0.122363
0.119106
0.125141
0.134056
0.137232
0.132084
0.122437
0.110132
0.100897
0.101626
0.109877
0.142056
0.307082
0.305182
0.342283
0.326234
0.143265
0.105814
0.0979577
0.0952696
0.102869
0.112731
0.1192
0.118813
0.113935
0.107196
0.104358
0.109533
0.116625
0.11913
0.115722
0.108945
0.10047
0.0942085
0.0984888
0.106457
0.143883
0.321352
0.336313
0.370442
0.340719
0.143732
0.101772
0.0935835
0.0907287
0.0953521
0.101405
0.104966
0.104314
0.100132
0.094451
0.0920187
0.0964318
0.102887
0.105433
0.10308
0.097983
0.0927382
0.0886492
0.0939248
0.102986
0.145733
0.343908
0.363172
0.385635
0.345848
0.148984
0.100904
0.0912165
0.0863248
0.0890254
0.0909671
0.0932596
0.0919065
0.0884766
0.0837547
0.0815373
0.0856361
0.0908861
0.0929803
0.0920004
0.0889794
0.0868756
0.0848093
0.0906949
0.101092
0.148742
0.348917
0.387812
0.395077
0.345545
0.153007
0.0992305
0.0864368
0.0815037
0.0835098
0.0837073
0.0840849
0.0824814
0.0791784
0.0747082
0.072777
0.0761171
0.0810483
0.083264
0.0830408
0.0812978
0.0815829
0.0794836
0.0858827
0.0994429
0.150873
0.348415
0.401326
0.414313
0.339759
0.158727
0.100611
0.0845341
0.0780277
0.0790845
0.0764271
0.0759638
0.0737604
0.0709274
0.0672423
0.0653444
0.0686429
0.072715
0.0746426
0.0753471
0.0749633
0.0771533
0.0763231
0.0829764
0.0998129
0.158275
0.351841
0.411845
0.421919
0.333474
0.16329
0.100964
0.0808109
0.0741963
0.0736051
0.0708362
0.0691457
0.0669304
0.064219
0.060579
0.059096
0.0617213
0.0658334
0.0680695
0.0691086
0.0694432
0.0723007
0.0721572
0.0798952
0.0999457
0.165483
0.342507
0.421986
0.4285
0.331403
0.163856
0.103998
0.0806858
0.071944
0.0698255
0.0656782
0.0635903
0.0607563
0.0583565
0.0554057
0.0537692
0.0564059
0.0596633
0.0614921
0.0634183
0.0646387
0.068457
0.0701592
0.0785058
0.102155
0.169183
0.341403
0.430989
0.435041
0.322765
0.161899
0.105766
0.0804894
0.06873
0.0653476
0.061059
0.0586341
0.0558991
0.0534649
0.0504019
0.0492335
0.0512985
0.0547599
0.0569818
0.0587912
0.0599109
0.0643801
0.0673913
0.0785445
0.105204
0.16753
0.336171
0.433451
0.440442
0.324605
0.161907
0.110879
0.0823897
0.0673382
0.0625675
0.0567192
0.0543291
0.0512657
0.0491081
0.0466936
0.0453381
0.0475039
0.0502373
0.0520757
0.0546519
0.0561075
0.0617181
0.0658849
0.0801436
0.11001
0.16639
0.332493
0.439788
0.436778
0.323403
0.159798
0.118171
0.083949
0.0655871
0.0590634
0.0531535
0.050495
0.0478527
0.0456098
0.0429665
0.0419641
0.0436538
0.0466637
0.0487166
0.0507581
0.0521489
0.058132
0.0642375
0.0813246
0.117858
0.161507
0.330123
0.439849
0.432846
0.322531
0.156472
0.122276
0.0875594
0.066728
0.0574283
0.0499779
0.0472088
0.0442224
0.0423079
0.0401896
0.0390607
0.0409313
0.0432626
0.0448984
0.0476869
0.049526
0.0562673
0.0650144
0.0855256
0.121962
0.15737
0.332709
0.434562
0.422533
0.323236
0.14954
0.122064
0.0919119
0.0666763
0.0548168
0.0471862
0.0441981
0.0416666
0.0396855
0.0373777
0.0365328
0.0379556
0.0406664
0.0424789
0.0446826
0.0466245
0.0540907
0.065126
0.0891749
0.12189
0.150101
0.328886
0.427817
0.410709
0.323247
0.14512
0.121971
0.100286
0.0695022
0.0551506
0.0454928
0.0420414
0.0388992
0.0371457
0.0352985
0.0343091
0.0358719
0.0379455
0.0393945
0.0425174
0.045098
0.0538867
0.067451
0.0969969
0.12135
0.145979
0.332145
0.417335
0.405568
0.320712
0.139594
0.119878
0.107705
0.0713385
0.0543842
0.0441368
0.0398914
0.0370663
0.035163
0.0331053
0.0323566
0.0335526
0.0360486
0.0377455
0.0403946
0.0435784
0.0536775
0.0696048
0.108673
0.120314
0.142754
0.327918
0.404005
0.396707
0.322107
0.137521
0.11625
0.107384
0.0763732
0.0554637
0.0440816
0.0388423
0.0349877
0.0331727
0.0314607
0.0306178
0.0319879
0.0339041
0.0354195
0.0393989
0.0436286
0.0544772
0.0745514
0.10891
0.11732
0.140247
0.327217
0.397535
0.387947
0.317992
0.136788
0.111017
0.106525
0.0843003
0.0569742
0.0439639
0.0378556
0.0339328
0.0317749
0.0297927
0.0290774
0.0301272
0.0325304
0.034336
0.0381121
0.04338
0.0558033
0.0818738
0.107676
0.112123
0.13859
0.326141
0.389111
0.381587
0.315557
0.135257
0.10634
0.103789
0.093163
0.0612223
0.0446231
0.0380654
0.0327618
0.0303145
0.0285047
0.0277302
0.028995
0.0308714
0.0328546
0.0384397
0.0444477
0.060256
0.0939704
0.105155
0.107882
0.140209
0.322148
0.380196
0.374683
0.314057
0.136093
0.102628
0.0989476
0.0925994
0.0677307
0.0459318
0.0378078
0.0327524
0.0296657
0.0273595
0.026608
0.0276279
0.0303656
0.0328131
0.0380074
0.0455382
0.0669372
0.0936671
0.100603
0.103763
0.138846
0.318516
0.375399
0.362395
0.307129
0.138016
0.100398
0.0945221
0.0915801
0.0788664
0.0500224
0.0389456
0.0324841
0.0290949
0.0267928
0.0257531
0.0271455
0.0294988
0.0324385
0.0389957
0.0492727
0.0773711
0.0923258
0.0956627
0.100828
0.139634
0.316123
0.366546
0.352855
0.302723
0.137113
0.0986405
0.0907842
0.0888534
0.0789117
0.0560535
0.039827
0.0328223
0.0292877
0.0264643
0.0250886
0.0265891
0.0299195
0.0329172
0.0398964
0.0557085
0.0785537
0.0891797
0.0916264
0.099183
0.140337
0.310279
0.354629
0.326693
0.291509
0.136414
0.0973412
0.0876645
0.0845002
0.0780694
0.0655203
0.0437557
0.033233
0.0291907
0.0265671
0.0250829
0.0268193
0.029517
0.0331729
0.043744
0.0654684
0.0781109
0.0850046
0.0882318
0.0979355
0.139192
0.298623
0.328496
0.295682
0.272111
0.132381
0.0960753
0.0855559
0.080624
0.0765885
0.0678324
0.0490792
0.0355205
0.0299206
0.0265385
0.0251386
0.026654
0.0304384
0.0353254
0.0491005
0.0683997
0.0765558
0.0801575
0.0853477
0.0962737
0.134228
0.279872
0.298945
0.128347
0.556512
0.738295
0.795367
0.784834
0.77404
0.74792
0.718027
0.674865
0.62317
0.564083
0.506185
0.447266
0.396572
0.360488
0.339139
0.326081
0.317108
0.309835
0.303037
0.29639
0.28951
0.28202
0.272749
0.260834
0.246146
0.225894
0.196328
0.152277
0.10435
0.121266
0.582364
0.759276
0.812427
0.800812
0.790256
0.765384
0.7347
0.690507
0.635181
0.568061
0.502123
0.441716
0.389496
0.351236
0.328463
0.314512
0.304932
0.297628
0.291256
0.285349
0.279173
0.272141
0.263272
0.251695
0.237314
0.2177
0.189092
0.145838
0.101527
0.13143
0.644221
0.792443
0.833724
0.821994
0.809151
0.786042
0.75747
0.713871
0.658544
0.587453
0.514747
0.451114
0.394985
0.354347
0.329256
0.313492
0.302429
0.294238
0.287272
0.280404
0.273803
0.267094
0.258363
0.246726
0.231799
0.21201
0.183497
0.141406
0.0996032
0.140624
0.675101
0.822472
0.855619
0.84315
0.829183
0.80747
0.781561
0.740573
0.685339
0.611876
0.532675
0.460674
0.399526
0.354769
0.326696
0.309243
0.297421
0.288711
0.281448
0.274349
0.267799
0.261393
0.252844
0.241257
0.22634
0.206508
0.177785
0.136821
0.097303
0.145758
0.702246
0.854502
0.881584
0.866109
0.853202
0.834067
0.810883
0.773023
0.718176
0.643959
0.560524
0.48127
0.413966
0.364298
0.33286
0.31278
0.299076
0.289043
0.280853
0.273259
0.266783
0.260322
0.25153
0.239447
0.224198
0.20432
0.174972
0.134498
0.0964733
0.150073
0.733589
0.88879
0.909677
0.891623
0.879586
0.863793
0.842188
0.808351
0.755449
0.679522
0.592264
0.50971
0.43405
0.378128
0.340904
0.316733
0.300517
0.288773
0.279639
0.271791
0.26598
0.259959
0.250257
0.237591
0.220985
0.200103
0.171328
0.131565
0.0952087
0.155349
0.765377
0.923842
0.940345
0.919254
0.905135
0.890719
0.873077
0.843452
0.794332
0.719195
0.630467
0.543701
0.462046
0.399633
0.355721
0.326545
0.307252
0.293274
0.282685
0.275884
0.268635
0.259079
0.248022
0.235068
0.219102
0.198042
0.169393
0.130103
0.0950265
0.160545
0.797778
0.959802
0.973663
0.942083
0.92561
0.914072
0.900985
0.877758
0.835477
0.764145
0.675884
0.584641
0.497212
0.426939
0.374589
0.338965
0.314912
0.297792
0.285415
0.276864
0.267129
0.256559
0.244607
0.231263
0.215389
0.194439
0.165749
0.127557
0.0940861
0.166185
0.828747
0.995326
1.00122
0.960687
0.942206
0.93395
0.926546
0.909692
0.875935
0.81304
0.727619
0.634954
0.541992
0.461155
0.398493
0.354733
0.325318
0.304698
0.289808
0.277064
0.265998
0.254311
0.241851
0.228206
0.212441
0.191201
0.162508
0.125397
0.0934014
0.170656
0.860188
1.02649
1.02496
0.978253
0.956881
0.951219
0.949302
0.939288
0.915363
0.863521
0.783884
0.692883
0.596913
0.506828
0.432182
0.377826
0.339444
0.312743
0.293179
0.277305
0.265044
0.252283
0.239401
0.225286
0.209027
0.187602
0.159135
0.122918
0.0923941
0.174341
0.886531
1.05264
1.04745
0.995988
0.971048
0.966521
0.969214
0.965882
0.952043
0.908262
0.840134
0.756412
0.65964
0.562643
0.479629
0.412135
0.361419
0.325755
0.299315
0.279535
0.264749
0.25092
0.237705
0.223257
0.206098
0.184462
0.156073
0.120695
0.0917447
0.177856
0.907812
1.07653
1.06923
1.01425
0.985188
0.98012
0.986319
0.987399
0.978049
0.948332
0.895256
0.821796
0.728914
0.628051
0.535287
0.45251
0.38701
0.340329
0.307531
0.283044
0.26429
0.24945
0.235481
0.220284
0.203012
0.181257
0.153006
0.118546
0.0907423
0.180716
0.926969
1.09888
1.09004
1.03164
0.998421
0.991981
1.00001
1.00293
0.995497
0.981833
0.945643
0.885805
0.801087
0.700823
0.600176
0.502803
0.421558
0.361633
0.31891
0.288874
0.266777
0.249847
0.234539
0.218477
0.2005
0.178534
0.150345
0.1168
0.0901883
0.182373
0.946168
1.11876
1.10803
1.04546
1.00868
0.998897
1.0064
1.00972
1.01125
1.00918
0.988714
0.943515
0.871229
0.777685
0.673803
0.564332
0.466807
0.391057
0.336085
0.298713
0.27113
0.25092
0.233756
0.216693
0.198041
0.175847
0.147647
0.114975
0.0894887
0.183674
0.961966
1.13405
1.12209
1.05558
1.01455
1.00006
1.00285
1.01146
1.02162
1.02911
1.0229
0.993208
0.935435
0.855085
0.754532
0.637826
0.525345
0.431767
0.361091
0.312554
0.277992
0.253368
0.234042
0.215644
0.195776
0.172837
0.14444
0.113364
0.0888827
0.184093
0.970833
1.1451
1.13075
1.06294
1.0172
0.997727
0.994024
1.00793
1.02591
1.04071
1.04596
1.03195
0.990129
0.926438
0.837045
0.719796
0.595671
0.483477
0.394741
0.33098
0.287131
0.256944
0.234796
0.213629
0.193099
0.170469
0.142663
0.111261
0.0883438
0.183255
0.971689
1.1533
1.13084
1.06751
1.01677
0.993172
0.98688
1.00204
1.0265
1.04698
1.06038
1.05776
1.0307
0.983696
0.910059
0.801786
0.673617
0.545808
0.436888
0.355994
0.299662
0.262553
0.234923
0.213432
0.192571
0.169134
0.141146
0.109848
0.0874588
0.182646
0.966709
1.15486
1.12434
1.06772
1.01387
0.985355
0.980201
0.99576
1.02287
1.04836
1.06698
1.07105
1.05625
1.02375
0.963141
0.868848
0.748329
0.614105
0.488877
0.388611
0.317083
0.269999
0.237517
0.213939
0.191773
0.167345
0.139046
0.108146
0.0860889
0.179736
0.953033
1.14346
1.11512
1.06199
1.00834
0.978027
0.974113
0.988848
1.01608
1.04674
1.06605
1.07487
1.06999
1.05008
1.00524
0.929295
0.82325
0.688384
0.549771
0.429957
0.340902
0.280554
0.242655
0.214897
0.191109
0.165489
0.136673
0.106002
0.0849595
0.177215
0.936862
1.12154
1.09846
1.05019
0.998973
0.971264
0.968006
0.98306
1.01016
1.03948
1.0607
1.07356
1.07733
1.06908
1.0402
0.981927
0.891651
0.764615
0.619217
0.482403
0.372535
0.29751
0.250344
0.21768
0.191332
0.164311
0.134687
0.104194
0.0842285
0.172801
0.907708
1.08684
1.07444
1.03127
0.987933
0.964421
0.962584
0.977614
1.00514
1.03113
1.05675
1.07317
1.08296
1.08273
1.06574
1.02377
0.948832
0.837192
0.69399
0.544543
0.413431
0.321258
0.262112
0.222603
0.192717
0.164131
0.133547
0.102847
0.083277
0.169023
0.874936
1.0421
1.04375
1.00677
0.974964
0.958046
0.958312
0.973467
1.00122
1.027
1.05553
1.0757
1.08939
1.0925
1.08346
1.05574
0.994267
0.901818
0.768897
0.614404
0.465743
0.352914
0.277942
0.229567
0.194964
0.164124
0.132454
0.101435
0.0826064
0.162438
0.823636
0.978341
0.990542
0.97896
0.960178
0.951753
0.95524
0.970985
0.999194
1.02562
1.05487
1.07842
1.09324
1.09682
1.09196
1.07672
1.02826
0.95544
0.839495
0.687869
0.526715
0.393025
0.298606
0.238824
0.198304
0.164719
0.131631
0.100383
0.0820996
0.159045
0.748058
0.888823
0.925105
0.943944
0.943322
0.945402
0.953493
0.970269
0.999795
1.02841
1.05445
1.07759
1.09197
1.09653
1.09227
1.09011
1.05524
0.997001
0.900889
0.759268
0.593934
0.441333
0.325262
0.25117
0.203169
0.166106
0.131725
0.0997958
0.0818312
0.13945
0.562779
0.722197
0.827856
0.89973
0.923385
0.937744
0.951835
0.973144
1.00008
1.02769
1.05327
1.0724
1.08828
1.09454
1.09297
1.10127
1.07802
1.03095
0.955167
0.828649
0.666369
0.498281
0.359649
0.267847
0.210334
0.168883
0.132676
0.0995838
0.0816253
0.102751
0.149871
0.193781
0.222416
0.241864
0.256321
0.268382
0.277863
0.284914
0.291234
0.297569
0.304063
0.311453
0.320831
0.334695
0.357592
0.393905
0.44586
0.502472
0.561447
0.621864
0.676335
0.718935
0.749129
0.775945
0.788041
0.798706
0.741531
0.555629
0.127472
0.0999891
0.143793
0.186357
0.214309
0.233394
0.24752
0.259093
0.268144
0.274781
0.280519
0.286222
0.292435
0.299823
0.30978
0.324375
0.348736
0.387912
0.439987
0.499936
0.565852
0.634464
0.691006
0.735897
0.7666
0.791138
0.803452
0.815877
0.762363
0.581714
0.120568
0.0981085
0.139436
0.180692
0.208912
0.228623
0.243202
0.254515
0.263047
0.269734
0.275942
0.282243
0.289034
0.29717
0.30839
0.324833
0.351891
0.393417
0.447838
0.513122
0.584335
0.655657
0.713507
0.756999
0.785135
0.807634
0.822745
0.836596
0.795011
0.643198
0.130564
0.0958683
0.135118
0.175418
0.203537
0.223314
0.23824
0.249454
0.257882
0.264717
0.27096
0.277234
0.284171
0.292643
0.304626
0.322658
0.352113
0.39702
0.456158
0.530471
0.609948
0.682235
0.738582
0.7796
0.804954
0.825651
0.84249
0.857483
0.824959
0.674208
0.139733
0.0951537
0.132852
0.172707
0.201195
0.221584
0.237217
0.248733
0.257242
0.264417
0.271198
0.278066
0.285686
0.295328
0.308547
0.328662
0.360518
0.409113
0.475115
0.555793
0.640574
0.71438
0.769451
0.806404
0.829753
0.849709
0.864487
0.882091
0.855792
0.700944
0.1446
0.0940141
0.129998
0.169626
0.198747
0.218767
0.234461
0.246485
0.255303
0.262768
0.270176
0.277897
0.2864
0.297572
0.312946
0.336216
0.372329
0.426391
0.500395
0.586108
0.674697
0.750692
0.802817
0.83617
0.855335
0.875846
0.889617
0.909357
0.888911
0.731593
0.148676
0.094179
0.129164
0.168164
0.197182
0.217814
0.233366
0.246365
0.256175
0.264334
0.272401
0.281301
0.291329
0.304479
0.322588
0.349781
0.391007
0.451503
0.531685
0.621445
0.712216
0.788252
0.837244
0.864943
0.881208
0.900339
0.915522
0.939241
0.923209
0.762599
0.153977
0.0933986
0.1268
0.164803
0.193525
0.215073
0.231064
0.243989
0.255057
0.264328
0.273389
0.283837
0.296188
0.312079
0.334564
0.368026
0.417229
0.485559
0.571165
0.664035
0.753663
0.82727
0.870488
0.891926
0.905108
0.919047
0.93619
0.970699
0.958437
0.794024
0.158797
0.0927669
0.124767
0.161798
0.190274
0.212279
0.229447
0.243532
0.255969
0.266086
0.27638
0.288604
0.303716
0.323846
0.35184
0.393394
0.452762
0.530848
0.622345
0.714332
0.80066
0.866672
0.90127
0.916986
0.925158
0.934196
0.953416
0.995644
0.992346
0.824339
0.164326
0.09169
0.122442
0.15857
0.186741
0.208901
0.226494
0.241324
0.254772
0.26803
0.279438
0.29372
0.312424
0.33798
0.374601
0.426811
0.497654
0.58492
0.679519
0.769575
0.850199
0.905138
0.929496
0.938361
0.941933
0.947698
0.969828
1.01792
1.02157
0.855088
0.168619
0.0910353
0.120353
0.155725
0.183954
0.206043
0.223913
0.239194
0.253302
0.26767
0.283006
0.30126
0.325034
0.358771
0.406815
0.472354
0.55261
0.646234
0.742547
0.827295
0.897223
0.941565
0.955107
0.957395
0.956711
0.960981
0.986773
1.03962
1.04665
0.880346
0.172046
0.090069
0.118332
0.152853
0.181321
0.203129
0.221101
0.236776
0.25166
0.267311
0.286068
0.309143
0.340118
0.383809
0.444867
0.523782
0.616022
0.714353
0.807657
0.882874
0.938092
0.970241
0.976867
0.973864
0.969776
0.974386
1.00445
1.06074
1.0699
0.901372
0.175645
0.0894391
0.116658
0.150409
0.178609
0.200728
0.218183
0.234169
0.250114
0.268008
0.29124
0.320647
0.360046
0.417083
0.494004
0.586921
0.687366
0.786066
0.872037
0.934229
0.972173
0.987584
0.992534
0.987269
0.981449
0.987845
1.02173
1.08093
1.09166
0.92043
0.178456
0.0886943
0.114826
0.148046
0.176057
0.198439
0.216825
0.233549
0.250428
0.270878
0.299627
0.337143
0.388119
0.460745
0.554122
0.659217
0.763544
0.857316
0.930539
0.97784
0.99975
1.00254
1.0009
0.995108
0.990903
0.999019
1.0361
1.09803
1.11059
0.939227
0.180106
0.0880186
0.113262
0.145933
0.174052
0.196614
0.216123
0.234276
0.253378
0.278655
0.312592
0.361129
0.427348
0.517459
0.626187
0.738914
0.841209
0.923508
0.98116
1.00986
1.01912
1.01289
1.0033
0.994325
0.993391
1.00627
1.04699
1.11096
1.1253
0.954796
0.181444
0.0874057
0.11192
0.144014
0.172241
0.194608
0.21547
0.235065
0.25686
0.287376
0.330287
0.393256
0.478251
0.587075
0.708076
0.822275
0.915744
0.981848
1.02253
1.03175
1.02787
1.01635
1.00096
0.987741
0.99073
1.0089
1.05506
1.1207
1.1365
0.963179
0.18198
0.086595
0.110405
0.141946
0.17031
0.193788
0.215321
0.237119
0.262576
0.29948
0.352954
0.434458
0.54015
0.665884
0.793011
0.900636
0.978273
1.02716
1.05257
1.05247
1.03494
1.01447
0.995314
0.980287
0.986545
1.00911
1.0603
1.12359
1.14398
0.964325
0.181238
0.0849643
0.107792
0.138742
0.167616
0.193081
0.215411
0.239307
0.27052
0.316527
0.383609
0.482044
0.607511
0.743265
0.867063
0.960327
1.02154
1.05659
1.07076
1.06458
1.03895
1.01344
0.985475
0.97283
0.980397
1.00733
1.06116
1.11858
1.14656
0.959764
0.180721
0.0835163
0.105366
0.136859
0.166123
0.192494
0.21652
0.243714
0.282049
0.339975
0.424488
0.54014
0.678141
0.815049
0.927787
1.00386
1.0513
1.07371
1.07853
1.06706
1.04067
1.00852
0.981157
0.96536
0.972111
1.00316
1.05629
1.11047
1.1363
0.946351
0.177972
0.0827668
0.103835
0.135117
0.164961
0.192401
0.218846
0.250897
0.298323
0.370876
0.475645
0.608786
0.753469
0.883392
0.980755
1.04056
1.07209
1.08267
1.07874
1.06321
1.03758
1.00271
0.97577
0.961283
0.965023
0.994608
1.04537
1.09466
1.11581
0.930969
0.17562
0.0820669
0.102218
0.133614
0.164432
0.193253
0.222901
0.26135
0.320272
0.410077
0.535523
0.682939
0.827146
0.942202
1.02264
1.06645
1.0867
1.08882
1.07867
1.06081
1.03313
0.998741
0.971131
0.956269
0.958692
0.983895
1.02805
1.06998
1.08292
0.902673
0.171464
0.0814612
0.100638
0.13193
0.163872
0.194431
0.228353
0.275031
0.347769
0.45697
0.602898
0.757582
0.893854
0.990764
1.05612
1.08532
1.09815
1.0963
1.08235
1.06141
1.03015
0.997194
0.967936
0.952801
0.95294
0.971273
1.00389
1.04002
1.03929
0.870651
0.167932
0.0810674
0.0999227
0.131223
0.164313
0.197119
0.236285
0.293501
0.383727
0.51335
0.673093
0.827245
0.949102
1.02809
1.07933
1.09668
1.10494
1.10197
1.08688
1.06192
1.03003
0.996524
0.96653
0.950608
0.947427
0.957194
0.97639
0.989016
0.976267
0.820012
0.16158
0.0808998
0.0997101
0.131784
0.165939
0.201398
0.24707
0.317096
0.427763
0.576336
0.741511
0.887504
0.990409
1.05682
1.09515
1.10138
1.10691
1.10236
1.08697
1.06218
1.03343
1.00137
0.967065
0.949816
0.941906
0.940949
0.941964
0.924144
0.88806
0.745292
0.158188
0.0809695
0.0997389
0.132976
0.168806
0.20805
0.261721
0.34738
0.479736
0.644359
0.808456
0.941186
1.02351
1.08048
1.10829
1.1037
1.10577
1.10069
1.08353
1.06287
1.03583
1.00515
0.970485
0.948786
0.93497
0.921858
0.898549
0.828334
0.724495
0.562746
0.138863
0.507691
0.519881
0.538002
0.55647
0.573805
0.590556
0.600244
0.606567
0.610179
0.61177
0.611941
0.611025
0.609316
0.607667
0.606116
0.604743
0.603628
0.602927
0.602503
0.602215
0.602167
0.602353
0.602798
0.603215
0.60356
0.603763
0.603774
0.603559
0.603105
0.602382
0.601454
0.600373
0.598971
0.597152
0.595214
0.593098
0.590447
0.587551
0.584265
0.580672
0.576756
0.572508
0.567877
0.562831
0.557596
0.552
0.545994
0.539541
0.532617
0.52533
0.517664
0.509601
0.501141
0.492303
0.483158
0.473748
0.464097
0.454227
0.44416
0.433927
0.423602
0.413391
0.403401
0.393467
0.38357
0.373738
0.363927
0.354161
0.344433
0.334793
0.325268
0.315916
0.306754
0.297818
0.289117
0.280641
0.272303
0.264063
0.25578
0.247417
0.238845
0.230026
0.221036
0.211761
0.202227
0.192395
0.18233
0.172083
0.161835
0.151618
0.141737
0.132275
0.123402
0.115352
0.10815
0.101899
0.0967489
0.0923771
0.0887111
0.0858915
0.0836034
0.0818063
0.0805337
0.0796962
0.0791393
0.0787916
0.0786561
0.0785916
0.0784791
0.0784758
0.0787353
0.0790216
0.0793433
0.0795455
0.0798561
0.0802431
0.0808817
0.0809706
0.0810235
0.081006
0.0808567
0.0808224
0.0808874
0.0809004
0.0809909
5.17371
5.2951
5.43976
5.56264
5.65667
5.72104
5.76061
5.75674
5.72843
5.68823
5.64371
5.59912
5.5562
5.51871
5.48703
5.46147
5.44246
5.42843
5.41637
5.40528
5.39927
5.39888
5.4021
5.40591
5.40965
5.41268
5.41455
5.41508
5.41442
5.41394
5.41051
5.40119
5.38587
5.36467
5.33814
5.30637
5.27061
5.23139
5.18939
5.14491
5.09813
5.04954
4.99981
4.94364
4.88694
4.82715
4.76427
4.69832
4.62886
4.55612
4.48058
4.4021
4.32085
4.23705
4.15103
4.06291
3.97267
3.88016
3.78516
3.68732
3.5858
3.47806
3.36348
3.24582
3.12824
3.01334
2.89904
2.78558
2.67231
2.56069
2.45153
2.34524
2.2426
2.14422
2.05063
1.96224
1.87916
1.80121
1.72813
1.65958
1.595
1.53379
1.47487
1.41803
1.36218
1.30539
1.24792
1.18834
1.12585
1.05986
0.990309
0.91755
0.84246
0.766174
0.690718
0.617418
0.54789
0.483083
0.423914
0.370976
0.324433
0.284267
0.250095
0.221597
0.197939
0.178492
0.162691
0.15006
0.139571
0.131217
0.124888
0.11979
0.115843
0.112992
0.111182
0.109991
0.10912
0.107204
0.105444
0.103776
0.102321
0.101468
0.100725
0.10021
0.0999103
7.93953
8.082
8.28171
8.47411
8.63854
8.76355
8.84833
8.89719
8.91562
8.91222
8.89523
8.87126
8.84504
8.82014
8.79857
8.78094
8.76743
8.75786
8.75075
8.74092
8.73232
8.72718
8.72464
8.71938
8.71174
8.70141
8.68747
8.66927
8.64788
8.62114
8.58766
8.54712
8.49914
8.44393
8.38184
8.31301
8.23882
8.15957
8.07621
7.98918
7.89873
7.80511
7.70835
7.60734
7.50227
7.39309
7.2799
7.16291
7.03971
6.91154
6.78159
6.64773
6.5106
6.37028
6.22652
6.08073
5.93253
5.78204
5.6292
5.474
5.31648
5.15641
4.99401
4.82955
4.66182
4.49003
4.31817
4.15022
3.98734
3.82585
3.66559
3.50754
3.35266
3.20169
3.05643
2.91712
2.78362
2.65602
2.53436
2.41822
2.30737
2.20192
2.10145
2.00587
1.91487
1.82752
1.7436
1.66292
1.58313
1.50537
1.42936
1.35465
1.2814
1.20944
1.13861
1.06799
0.997344
0.926604
0.855613
0.785044
0.715171
0.647718
0.583137
0.522879
0.46737
0.417212
0.372505
0.333399
0.298935
0.269507
0.245194
0.22452
0.207257
0.193994
0.183959
0.176153
0.169966
0.162455
0.155818
0.150168
0.145481
0.141679
0.138785
0.136539
0.134605
9.41969
9.54628
9.747
9.94838
10.1298
10.2788
10.3923
10.4732
10.5274
10.5615
10.5818
10.5934
10.6004
10.6055
10.6099
10.6142
10.6189
10.6245
10.6289
10.6248
10.6171
10.609
10.6018
10.5887
10.5696
10.5454
10.5156
10.4791
10.4355
10.3827
10.3216
10.2519
10.174
10.0883
9.99523
9.89552
9.79026
9.68019
9.56574
9.44776
9.32648
9.20206
9.0743
8.94264
8.8072
8.66787
8.52466
8.37764
8.22629
8.07087
7.91194
7.74991
7.58518
7.41711
7.24036
7.06822
6.89298
6.71585
6.53708
6.35618
6.17401
5.99006
5.80479
5.61858
5.43186
5.24478
5.05712
4.86525
4.67126
4.47987
4.29793
4.1219
3.94976
3.78149
3.61607
3.45424
3.29713
3.14505
2.9981
2.85827
2.72571
2.60009
2.48101
2.36825
2.26135
2.16003
2.06435
1.9739
1.88775
1.80594
1.72861
1.6534
1.5817
1.51242
1.44504
1.37887
1.31359
1.24907
1.18482
1.12155
1.05848
0.995915
0.932826
0.869558
0.80633
0.742859
0.680494
0.619556
0.561718
0.50765
0.457663
0.411362
0.370962
0.338411
0.311363
0.287834
0.267944
0.246971
0.228799
0.213627