/*--------------------------------*- C++ -*----------------------------------*\
| =========                 |                                                 |
| \\      /  F ield         | OpenFOAM: The Open Source CFD Toolbox           |
|  \\    /   O peration     | Version:  2112                                  |
|   \\  /    A nd           | Website:  www.openfoam.com                      |
|    \\/     M anipulation  |                                                 |
\*---------------------------------------------------------------------------*/
FoamFile
{
    version     2.0;
    format      ascii;
    arch        "LSB;label=32;scalar=64";
    class       surfaceScalarField;
    location    "0.00486";
    object      phi;
}
// * * * * * * * * * * * * * * * * * * * * * * * * * * * * * * * * * * * * * //

dimensions      [1 0 -1 0 0 0 0];

oriented        oriented;

internalField   nonuniform List<scalar> 
27436
(
-0.533365
8.19274
-0.093186
7.47163
-0.0842405
7.78671
-0.0702783
7.78673
-0.0687113
7.79175
-0.0496042
7.77876
-0.0378744
7.78456
-0.0297973
7.78907
-0.0267119
7.79287
-0.0161019
7.78721
-0.00730476
7.78808
0.00140448
7.78808
0.0143656
7.7839
0.0312382
7.78076
0.0469276
7.78192
0.0546336
7.78879
0.0553502
7.79448
0.0655592
7.78754
0.0738545
7.78695
0.0931519
7.77852
0.0961117
7.79073
0.111449
7.78579
0.123626
7.78275
0.572376
7.4615
8.21214
-0.247263
8.44
-0.0963197
7.32066
-0.0815639
7.77195
-0.0549554
7.76024
-0.0556873
7.79325
-0.0488137
7.77222
-0.050951
7.78703
-0.0294216
7.76879
-0.0188779
7.78374
-0.0104831
7.77891
0.000467293
7.77869
0.0148922
7.77386
0.0148675
7.7839
0.0213458
7.77426
0.0208961
7.78239
0.0380341
7.77162
0.0485654
7.7838
0.0689834
7.76621
0.0732139
7.78785
0.0761978
7.77385
0.0721551
7.79407
0.102973
7.75492
0.114264
7.7716
0.268023
7.30588
8.48181
-0.227236
8.66724
-0.141164
7.23464
-0.120322
7.7512
-0.105946
7.74594
-0.0994268
7.78678
-0.10009
7.77289
-0.097209
7.78388
-0.0778725
7.74738
-0.069303
7.77027
-0.0534081
7.75944
-0.0353642
7.75959
-0.0139657
7.75259
-0.0126417
7.78258
-0.0112374
7.77295
-0.00721879
7.77846
0.0145528
7.74964
0.0277724
7.77035
0.0515938
7.74334
0.0544559
7.78249
0.0548919
7.77295
0.0622686
7.78633
0.0782786
7.73881
0.100321
7.74916
0.192273
7.21468
8.68081
-0.169565
8.83684
-0.139357
7.20449
-0.133756
7.74574
-0.111228
7.72361
-0.106619
7.78203
-0.107135
7.77334
-0.0959873
7.77208
-0.0765187
7.7264
-0.0642688
7.75442
-0.0472399
7.74099
-0.0261461
7.73832
-0.00488897
7.73169
0.00295126
7.77475
0.0050924
7.7709
0.014966
7.76869
0.0380771
7.72675
0.0531514
7.75559
0.0748651
7.72344
0.0878084
7.7664
0.0880832
7.77229
0.0920833
7.78208
0.118013
7.71268
0.111072
7.75571
0.161477
7.16603
8.8438
-0.0735658
8.91043
-0.0362304
7.1672
-0.091474
7.80112
-0.0595585
7.6918
-0.0626914
7.78506
-0.0677207
7.77841
-0.0578444
7.76256
-0.042582
7.70994
-0.0319148
7.73971
-0.018199
7.7264
0.00127603
7.71806
0.0203856
7.71303
0.0268925
7.76821
0.027946
7.76992
0.0365104
7.76024
0.0575721
7.70585
0.0683527
7.74518
0.0870663
7.70599
0.0985914
7.75061
0.0943192
7.77599
0.0934689
7.78259
0.123366
7.68257
0.0895532
7.78915
0.0974196
7.15861
8.93862
0.118572
8.79188
0.044042
7.24177
-0.0488182
7.89411
-0.00902413
7.65213
-0.0256564
7.80157
-0.0361447
7.78882
-0.0301943
7.75567
-0.020025
7.69905
-0.0144294
7.72902
-0.00637401
7.71805
0.0086362
7.70185
0.0234393
7.69863
0.0267455
7.7649
0.0245794
7.77211
0.0296744
7.75533
0.0451307
7.69064
0.0501773
7.7405
0.0629618
7.69421
0.0712949
7.73936
0.0629926
7.78454
0.047936
7.79726
0.0862219
7.64405
-0.0142168
7.88914
-0.0200339
7.16448
8.91407
0.304741
8.48714
0.136494
7.41007
-0.00456737
8.0359
0.0260052
7.62099
-0.0164678
7.84397
-0.0503687
7.82285
-0.0647125
7.77106
-0.0751973
7.70926
-0.0912015
7.74106
-0.103455
7.73038
-0.1085
7.70615
-0.115349
7.70569
-0.127106
7.7767
-0.147219
7.7924
-0.158055
7.7665
-0.162357
7.69527
-0.181485
7.76012
-0.189811
7.70315
-0.201816
7.75511
-0.234969
7.81863
-0.267423
7.82932
-0.287932
7.66441
-0.354866
7.9558
-0.657658
7.46779
8.25278
0.873491
7.61365
0.522205
7.7614
0.413682
8.14455
0.33623
7.69851
0.272313
7.90761
0.220722
7.87386
0.192156
7.80021
0.163143
7.73765
0.133468
7.76798
0.106429
7.75872
0.0859467
7.72649
0.0659913
7.72597
0.0405339
7.80249
0.00655431
7.82686
-0.017984
7.79169
-0.0411963
7.71907
-0.0718323
7.79136
-0.0971736
7.72837
-0.124287
7.79478
-0.171944
7.86681
-0.233181
7.88994
-0.282961
7.71394
-0.40781
8.08041
-0.69376
7.75386
7.5573
0.593572
7.02012
0.410338
7.94477
0.240076
8.31486
0.192509
7.74616
0.133918
7.96607
0.0943297
7.91413
0.0808895
7.81485
0.074847
7.74444
0.0697033
7.77239
0.068
7.76356
0.0715534
7.72328
0.0756203
7.72256
0.0813078
7.79769
0.0782538
7.83099
0.0798734
7.79124
0.0758269
7.72426
0.0714912
7.79667
0.0694872
7.72998
0.061492
7.81485
0.0259814
7.90266
-0.0306662
7.94769
-0.0498631
7.73354
-0.2207
8.25107
-0.372346
7.90554
7.18757
-3.04068
10.0611
-3.37539
8.27922
-2.75313
7.69238
-2.61498
7.60789
-2.30951
7.65999
-1.99053
7.59459
-1.66512
7.49044
-1.38975
7.47248
-1.09044
7.47654
-0.787985
7.46571
-0.499567
7.43562
-0.208513
7.43303
0.100688
7.49029
0.4069
7.52662
0.700656
7.4994
0.972598
7.45426
1.27794
7.49305
1.55764
7.44953
1.87316
7.49921
2.20372
7.57
2.50608
7.64582
2.6352
7.60534
3.21641
7.6705
2.94229
8.17936
10.1327
-4.23537
14.2969
-4.3391
8.38358
-4.12677
7.48005
-3.80957
7.28997
-3.34928
7.19965
-2.84489
7.09045
-2.39948
7.04837
-1.95481
7.03324
-1.49029
7.02026
-1.01998
7.00128
-0.575838
6.99276
-0.122542
6.98267
0.348364
7.0227
0.826205
7.05189
1.27632
7.05246
1.70031
7.03344
2.16144
7.03494
2.60319
7.00772
3.07476
7.02325
3.57797
7.06124
4.06871
7.1545
4.39375
7.28254
4.5755
7.49225
4.52612
8.22766
14.6584
-2.71504
17.0137
-4.88359
10.5496
-4.9344
7.52824
-4.17491
6.53024
-3.71564
6.74074
-3.26106
6.63429
-2.77959
6.57193
-2.27421
6.53495
-1.75471
6.51185
-1.23699
6.4908
-0.744008
6.50354
-0.249236
6.49349
0.26462
6.51522
0.780931
6.54127
1.29304
6.54605
1.76436
6.56759
2.25653
6.54815
2.74936
6.51747
3.25271
6.51935
3.73435
6.57089
4.23343
6.65263
5.04255
6.47951
4.80153
7.73963
2.73943
10.2879
17.398
2.36665
14.6493
0.373257
12.5353
-4.87752
12.7775
-3.83612
5.48997
-3.95802
6.86617
-3.4625
6.14464
-3.00184
6.12659
-2.48767
6.03009
-1.94111
5.97925
-1.39515
5.95808
-0.852707
5.9744
-0.325571
5.98016
0.224601
5.97875
0.780994
5.99762
1.32854
6.01106
1.87619
6.03174
2.39147
6.04493
2.875
6.04417
3.3241
6.08593
3.8577
6.04255
3.85631
6.65453
4.95377
5.38413
-0.258393
12.9552
-2.37669
12.4004
15.0222
2.47825
12.1745
3.39578
11.6157
3.63479
12.5348
-0.692757
9.83226
-3.99843
10.1862
-3.4057
5.55322
-3.17174
5.90304
-2.68213
5.55455
-2.12113
5.4402
-1.5691
5.43437
-1.02575
5.46178
-0.506943
5.49245
0.0103165
5.49244
0.546581
5.48998
1.09188
5.49128
1.6558
5.49228
2.21833
5.50544
2.66354
5.61864
2.81839
5.94271
3.25543
5.5846
-0.237896
10.189
-4.53792
9.69634
-3.98469
12.3979
-2.95534
11.3707
12.0699
1.7704
10.4099
3.63558
9.75302
5.10836
11.0599
5.58034
9.36351
5.03607
10.7001
-0.216383
10.8365
-2.30914
8.08309
-2.23509
5.55191
-1.73714
5.01813
-1.21231
4.99036
-0.665741
5.0053
-0.112778
5.03047
0.44631
5.0061
1.01
5.01074
1.59639
4.99235
2.14687
5.0231
2.67392
5.05442
2.79142
5.57837
1.04754
7.80091
-4.23465
10.9208
-4.75563
10.6346
-4.18202
9.12063
-2.71572
10.93
-1.25149
9.90833
10.8232
0.813991
9.60171
1.84343
8.7326
3.3259
9.57979
3.65478
9.07602
3.64388
10.8288
3.74879
10.8314
2.55463
9.53707
1.66723
6.72343
1.52655
5.50089
1.45448
5.45946
1.11793
5.78407
0.537504
6.08212
-0.0678337
6.10358
-0.636923
6.05704
-1.00071
5.79403
-1.22463
5.63525
-1.35457
5.5353
-2.07498
6.57674
-3.15498
9.16932
-2.94586
10.8168
-2.90387
10.6749
-2.67224
8.92318
-1.45685
9.70955
-0.441498
8.90474
10.3868
1.85092
7.76191
2.56926
8.0354
3.40948
8.80986
3.44432
9.09823
3.65346
10.6972
4.23181
10.298
2.27377
11.4124
0.919113
7.81935
0.38479
5.73949
0.188656
5.31278
0.0751243
5.46409
-0.0168811
5.67851
-0.118522
5.69017
-0.189639
5.62692
-0.262585
5.41864
-0.388884
5.40402
-0.962782
5.81227
-2.43714
7.80884
-4.53008
11.1592
-3.96551
10.2803
-3.88347
10.6744
-3.86616
8.95858
-3.12976
9.01392
-2.4312
8.22314
7.96811
2.2958
5.48567
3.10731
7.25498
2.56339
9.40731
1.84426
9.86775
1.87195
10.6321
1.59504
10.4828
2.35527
10.5272
1.43732
8.61836
0.640559
6.43874
0.18933
5.69955
-0.0723367
5.62637
-0.198549
5.6725
-0.311042
5.66139
-0.460825
5.64586
-0.747483
5.60906
-1.15626
5.75454
-2.02109
6.59867
-3.28402
8.94344
-2.88116
10.6093
-3.17419
10.4678
-3.05045
10.5474
-3.93209
9.89082
-4.16449
9.30748
-2.8462
6.93861
5.1419
3.16538
2.33366
5.83814
4.60218
6.82457
8.44473
6.4616
10.2154
5.95096
11.1063
5.26703
11.1211
4.81338
10.9328
4.06351
9.38766
2.97504
7.57844
2.03018
6.65379
1.26351
6.38981
0.581578
6.36069
-0.100356
6.36469
-0.797922
6.36124
-1.59645
6.40733
-2.53027
6.6979
-3.4798
7.58793
-3.87783
9.34074
-4.18848
10.8385
-4.87514
11.0736
-5.37963
11.0022
-5.86957
10.3598
-5.30156
8.74837
-2.84
4.5022
2.31807
1.34017
1.00008
3.15249
2.80915
4.68584
6.93424
5.30438
9.57678
5.59924
10.7849
5.55072
11.1639
5.12784
11.3438
4.18625
10.3369
3.02893
8.74376
2.00296
7.67312
1.11115
7.26989
0.259363
7.21072
-0.579825
7.21222
-1.42878
7.21345
-2.32421
7.29239
-3.36129
7.72085
-4.55156
8.77785
-5.51433
10.3147
-5.95927
11.2635
-6.07726
11.1715
-5.92657
10.8215
-5.2755
9.70237
-3.20694
6.72455
-1.35097
2.66794
0.974447
0.00160082
1.00279
-0.00114249
2.82854
0.980567
5.96648
2.15302
8.39053
2.94438
9.98276
3.32896
10.7892
3.41868
11.2565
3.00047
10.7528
2.25553
9.47707
1.49343
8.41831
0.774164
7.9709
0.0883582
7.88278
-0.601557
7.89087
-1.29093
7.89076
-2.03498
8.01998
-2.84894
8.51675
-3.6438
9.56077
-4.05493
10.7347
-3.93238
11.1442
-3.47396
10.7173
-2.57927
9.90879
-1.27353
8.38427
-0.176402
5.63651
-0.0765289
2.58105
0.900691
-0.63502
1.63488
-1.09956
3.30504
-0.601276
5.46311
0.33086
7.45364
1.17182
9.14023
1.73918
10.2368
2.0187
10.9797
1.96417
10.797
1.58815
9.83022
1.10013
8.88421
0.626252
8.42567
0.149467
8.342
-0.316534
8.33944
-0.795354
8.35362
-1.26954
8.47868
-1.74614
8.97457
-2.10001
9.89783
-2.11115
10.75
-1.78563
10.8246
-1.15257
10.0965
-0.260378
9.00967
0.702771
7.42105
1.10922
5.22133
0.58151
3.1128
1.47212
-0.633746
2.27248
-1.57292
4.24352
-1.64303
5.52122
-1.08289
6.89016
-0.300022
8.36295
0.30256
9.65063
0.736579
10.5469
0.930436
10.5899
0.895921
9.83767
0.717925
9.0386
0.467056
8.65915
0.218332
8.57469
-0.042928
8.58484
-0.285872
8.58206
-0.525483
8.70541
-0.68145
9.11382
-0.668282
9.86449
-0.423884
10.5022
0.00207194
10.4062
0.647951
9.46923
1.43112
8.22866
1.94843
6.89858
1.72791
5.42753
0.645188
4.17381
2.11183
-0.702681
2.97391
-1.70567
5.23163
-2.15675
5.95905
-2.06702
6.79753
-1.61863
7.92259
-1.01675
9.05788
-0.501784
10.0311
-0.140421
10.2149
0.0287344
9.64137
0.0646431
8.98275
0.038849
8.67065
-0.0369024
8.63799
-0.115089
8.6507
-0.192641
8.64833
-0.218729
8.72058
-0.187073
9.06801
-0.0331536
9.69245
0.343471
10.1184
0.885874
9.8694
1.46815
8.90251
1.95517
7.75062
2.09562
6.7533
1.64905
5.85973
0.694884
5.11221
2.80468
-0.550802
3.52116
-1.47636
6.13463
-1.98776
6.45877
-2.07651
6.87837
-1.83694
7.68869
-1.40609
8.63184
-0.934593
9.55893
-0.524077
9.79356
-0.245326
9.34235
-0.109341
8.82996
-0.0708776
8.62186
-0.0512263
8.60929
-0.0441941
8.63437
-0.0223687
8.61821
0.0183991
8.6718
0.162125
8.91199
0.457434
9.38438
0.885101
9.68387
1.37812
9.38032
1.78706
8.49938
2.04208
7.50502
1.95597
6.82895
1.41951
6.38588
0.567613
5.95191
3.3771
-0.534314
4.05013
-1.36824
6.95426
-1.81066
6.88795
-2.13345
7.1884
-2.01208
7.57174
-1.67336
8.29383
-1.25674
9.14106
-0.807028
9.33318
-0.468516
8.98805
-0.265736
8.61552
-0.107666
8.45708
0.0101922
8.48538
0.126278
8.51094
0.242544
8.49593
0.410613
8.4975
0.646995
8.66603
1.00176
9.01988
1.43808
9.2417
1.84136
8.97969
2.17023
8.17614
2.28251
7.39475
1.9683
7.13623
1.50902
6.82975
0.67566
6.77193
4.05458
-0.747008
4.79362
-1.49759
7.68528
-1.93835
7.31284
-2.26278
7.50588
-2.27516
7.58378
-2.09085
8.10906
-1.70998
8.75846
-1.25161
8.86733
-0.870408
8.59742
-0.589371
8.32571
-0.404091
8.26721
-0.22214
8.2991
-0.0498576
8.33327
0.138733
8.30328
0.332497
8.29979
0.60711
8.38373
0.984021
8.63587
1.42576
8.79508
1.8078
8.59951
2.00229
7.98353
2.00887
7.38943
1.73062
7.40812
1.28026
7.27547
0.492853
7.546
4.54777
-0.47109
5.26466
-1.20302
8.4057
-1.68387
7.78042
-1.93735
7.75013
-2.04193
7.68652
-1.88482
7.94829
-1.55163
8.42251
-1.14353
8.45224
-0.790989
8.23828
-0.528812
8.05871
-0.278061
8.01289
-0.0651589
8.08331
0.153289
8.11114
0.367361
8.08632
0.627091
8.0371
0.916727
8.0892
1.28061
8.26709
1.67692
8.39475
1.98988
8.28839
2.12653
7.84525
2.02454
7.49063
1.79715
7.62929
1.26073
7.79914
0.520591
8.27424
5.07254
-0.428067
5.6936
-1.17544
9.14765
-1.6185
8.209
-1.81441
7.93766
-1.92938
7.79787
-1.87986
7.89354
-1.58447
8.12373
-1.19157
8.05648
-0.833187
7.87792
-0.518246
7.73879
-0.269123
7.76042
-0.0127908
7.82494
0.23089
7.86523
0.491865
7.82354
0.739652
7.78738
1.05044
7.77513
1.42446
7.8898
1.81934
7.99621
2.11417
7.99406
2.15018
7.80903
2.01758
7.62183
1.84427
7.79462
1.37216
8.25545
0.564874
9.06784
5.64328
-0.675846
6.37135
-1.28457
9.75697
-1.85376
8.76153
-2.04418
8.1217
-2.15467
7.90478
-2.10532
7.83821
-1.84195
7.85659
-1.48007
7.69229
-1.13286
7.52939
-0.850996
7.4538
-0.559778
7.46651
-0.295891
7.55978
-0.0177401
7.58602
0.253103
7.55143
0.560248
7.47826
0.860418
7.47382
1.18878
7.56047
1.51968
7.66157
1.77188
7.74086
1.85082
7.72556
1.74911
7.72076
1.58622
7.95008
1.06732
8.75789
0.309865
9.81377
5.96134
-0.42649
6.80178
-1.11121
10.4427
-1.68
9.31801
-1.78634
8.22069
-1.79001
7.90378
-1.75672
7.8001
-1.54821
7.64507
-1.24135
7.38592
-0.92963
7.21825
-0.614845
7.13537
-0.349855
7.19965
-0.0616672
7.27112
0.214171
7.30999
0.501032
7.26394
0.762649
7.21521
1.07145
7.16147
1.40407
7.22833
1.718
7.34591
1.91064
7.54708
1.90191
7.73055
1.86882
7.75345
1.75248
8.06401
1.14255
9.3512
0.538127
10.4176
6.51073
-0.155686
6.96165
-0.670613
10.9633
-1.50979
10.1455
-1.616
8.31892
-1.6511
7.93482
-1.57309
7.71856
-1.37091
7.44042
-1.12382
7.13988
-0.854677
6.9497
-0.613076
6.8919
-0.330602
6.91639
-0.066214
7.00687
0.212413
7.03178
0.471585
7.00462
0.759975
6.92567
1.01913
6.89993
1.28074
6.96707
1.51109
7.11298
1.72231
7.33378
1.8082
7.64033
1.77159
7.78787
1.78506
8.04738
1.01731
10.1054
0.419204
11.0216
6.94513
-0.41417
7.38151
-0.851805
11.4112
-1.76086
11.0341
-1.76804
8.3177
-1.74729
7.91205
-1.67704
7.64551
-1.50459
7.26651
-1.25351
6.89171
-1.01187
6.70923
-0.730581
6.60969
-0.490193
6.67633
-0.215305
6.73293
0.0508437
6.76658
0.332081
6.7239
0.575334
6.68162
0.844407
6.62691
1.10168
6.71008
1.3393
6.87456
1.49385
7.17788
1.5477
7.58169
1.53468
7.79758
1.42478
8.15173
0.578369
10.9392
0.260845
11.344
7.2198
-0.0971752
7.48783
-0.446426
11.7706
-1.11524
11.693
-1.49068
8.68533
-1.53428
7.9534
-1.41855
7.52702
-1.23006
7.07751
-1.00986
6.67325
-0.773861
6.47511
-0.576811
6.41316
-0.31496
6.41545
-0.0648917
6.48419
0.204027
6.49887
0.451127
6.4775
0.71657
6.41601
0.926115
6.41569
1.14352
6.49198
1.35853
6.65775
1.55526
6.98065
1.67106
7.46378
1.63375
7.83386
1.34474
8.43458
0.615453
11.6533
0.371599
11.594
7.60419
0.0101754
7.49074
-0.0762236
11.8677
-0.773335
12.3856
-1.40383
9.3101
-1.33563
7.88411
-1.27234
7.46113
-1.11357
6.91879
-0.937465
6.4999
-0.745054
6.28473
-0.500213
6.16983
-0.302855
6.21961
-0.0649571
6.24793
0.163909
6.27141
0.403363
6.2391
0.596113
6.22364
0.825634
6.1846
1.03755
6.27943
1.2055
6.48962
1.34783
6.83711
1.42037
7.38763
1.58261
7.66759
0.860967
9.15151
0.25469
12.2513
0.18683
11.6678
7.8009
-0.330512
7.83423
-0.342581
11.8886
-0.708946
12.7483
-1.42222
10.0188
-1.43742
7.8972
-1.34948
7.37066
-1.16636
6.73557
-0.976997
6.31177
-0.791772
6.10217
-0.632404
6.01235
-0.403745
5.99282
-0.192655
6.03848
0.039933
6.04021
0.253937
6.0262
0.490865
5.98752
0.660677
6.01507
0.82956
6.11018
1.01265
6.30592
1.19398
6.6546
1.25125
7.32812
1.16835
7.74505
0.3334
9.98325
-0.072139
12.6515
-0.00291407
11.6035
7.80472
-0.157039
8.00209
0.0412639
11.6971
-0.211986
12.9996
-1.03943
10.8447
-1.19314
8.04972
-1.10611
7.28146
-0.980738
6.61017
-0.8134
6.14663
-0.646774
5.93872
-0.433285
5.80123
-0.259061
5.82051
-0.0431788
5.82434
0.159354
5.8389
0.373454
5.81329
0.541937
5.8198
0.747082
5.81088
0.926794
5.93111
1.08194
6.1505
1.18851
6.54708
1.32923
7.18551
1.14478
7.92604
0.34107
10.7853
0.143516
12.8476
0.192362
11.5529
7.99852
0.00995029
7.99954
0.157914
11.5544
0.246816
12.9091
-0.490105
11.5866
-1.11545
8.67252
-0.977996
7.14169
-0.876151
6.50858
-0.728341
6.00072
-0.560978
5.77444
-0.426
5.6685
-0.231813
5.62862
-0.0574576
5.65146
0.139237
5.6434
0.31174
5.64194
0.50958
5.62345
0.646416
5.67532
0.79586
5.7831
0.95562
5.98991
1.0805
6.42117
1.26622
6.99769
0.627987
8.55998
-0.0780315
11.489
-0.0622195
12.8317
0.0288619
11.4592
8.02719
-0.207234
8.21263
-0.19232
11.5431
0.0211888
12.6923
-0.406769
12.0197
-1.023
9.28651
-1.0054
7.12162
-0.916281
6.41864
-0.796198
5.8817
-0.662669
5.64384
-0.471275
5.47959
-0.325071
5.48452
-0.141808
5.46962
0.0232587
5.47921
0.204902
5.46159
0.347618
5.48173
0.537143
5.48752
0.685539
5.63661
0.774516
5.90014
0.803714
6.39084
0.782689
7.01549
0.00416595
9.33471
-0.458755
11.947
-0.126102
12.4943
-0.0643849
11.396
7.96618
-0.0491856
8.26511
0.0255642
11.4699
0.407642
12.3121
0.151922
12.28
-0.640073
10.0765
-0.918574
7.39743
-0.716676
6.21557
-0.631089
5.79842
-0.488687
5.50504
-0.3704
5.3635
-0.195564
5.3117
-0.0413309
5.31655
0.133503
5.3054
0.285703
5.3104
0.463476
5.3056
0.582127
5.37069
0.712403
5.5092
0.826164
5.78588
1.04109
6.17531
0.768645
7.28466
-0.0514238
10.1531
-0.198573
12.0932
0.161026
12.1322
0.147345
11.4108
8.11902
0.063487
8.20352
0.11393
11.4191
0.401815
12.0257
0.584711
12.0998
-0.0861807
10.7479
-0.628302
7.93655
-0.615279
6.20138
-0.548363
5.73226
-0.463791
5.42227
-0.307732
5.20972
-0.186601
5.19226
-0.034193
5.16548
0.104639
5.16732
0.257659
5.15854
0.376539
5.18785
0.541306
5.20788
0.638936
5.4138
0.712556
5.71293
0.737643
6.14956
0.235662
7.78429
-0.432025
10.8201
-0.263618
11.9243
0.0217677
11.8465
0.0385825
11.397
8.16358
-0.103806
8.30804
-0.0895627
11.4028
0.134289
11.8012
0.503072
11.7339
0.0058485
11.2451
-0.577617
8.51624
-0.691114
6.31358
-0.576791
5.62045
-0.476443
5.32534
-0.389579
5.12492
-0.250624
5.05504
-0.122702
5.03863
0.022005
5.02352
0.153783
5.02758
0.298274
5.04481
0.381194
5.12651
0.464453
5.33293
0.576948
5.60075
0.370965
6.35464
-0.351527
8.50363
-0.764955
11.2345
-0.367105
11.5304
-0.185739
11.665
-0.128844
11.3423
8.03887
0.0289529
8.27986
0.0656267
11.3632
0.246342
11.6184
0.630373
11.3566
0.632923
11.2438
-0.0813687
9.22371
-0.477159
6.70844
-0.470491
5.61341
-0.380123
5.23541
-0.257619
5.00416
-0.156658
4.95509
-0.0262512
4.90939
0.0966052
4.90146
0.225505
4.89987
0.3239
4.94764
0.460413
4.99193
0.542364
5.25329
0.551591
5.59234
0.144442
6.76204
-0.562776
9.21166
-0.439901
11.1126
-0.0990011
11.1915
0.0710952
11.4957
0.118239
11.2949
8.15753
0.151623
8.13017
0.273482
11.2377
0.394223
11.4937
0.636652
11.1131
0.909327
10.9702
0.256477
9.87411
-0.203213
7.16666
-0.343147
5.75427
-0.283049
5.1777
-0.227537
4.95115
-0.131798
4.86083
-0.0275186
4.80603
0.0916349
4.78321
0.195371
4.79685
0.296473
4.84781
0.348764
4.94118
0.446916
5.15738
0.320415
5.71805
-0.181394
7.26558
-0.826087
9.85811
-0.463931
10.751
-0.225767
10.9561
-0.116986
11.3845
-0.0363849
11.2106
8.12033
-0.0396105
8.17168
0.0450111
11.1498
0.134119
11.4019
0.387663
10.8586
0.826008
10.5254
0.649091
10.0482
-0.0410836
7.85537
-0.368236
6.08121
-0.341288
5.15156
-0.256541
4.86845
-0.178228
4.78362
-0.0836553
4.71288
0.0132991
4.68716
0.107752
4.70377
0.179859
4.77683
0.248366
4.87439
0.271109
5.13723
-0.08926
6.07904
-0.919084
8.09949
-0.975222
9.9153
-0.591298
10.37
-0.337286
10.7039
-0.276209
11.3195
-0.118198
11.0474
8.00182
0.094022
8.08043
0.283688
10.9581
0.343919
11.3395
0.515427
10.6847
0.81711
10.221
0.970286
9.89274
0.331934
8.49099
-0.0873411
6.50048
-0.198389
5.26672
-0.165895
4.8383
-0.0940667
4.7127
-0.0185115
4.63859
0.0678748
4.602
0.145227
4.62755
0.222597
4.70103
0.256425
4.84214
0.140063
5.25573
-0.371498
6.58991
-0.921347
8.64805
-0.69552
9.69082
-0.398053
10.0734
-0.215949
10.5222
-0.163721
11.263
-0.0139946
10.8911
7.98972
0.145592
7.93787
0.372476
10.7308
0.444897
11.2646
0.57752
10.5523
0.803681
9.99383
1.22954
9.4654
0.938675
8.77947
0.165153
7.2735
-0.0878456
5.51988
-0.100512
4.85285
-0.0509135
4.66398
0.0032655
4.58597
0.0561189
4.55053
0.121416
4.56363
0.17353
4.65001
0.16373
4.85415
-0.0970322
5.51901
-0.866756
7.35728
-1.06499
8.84444
-0.688752
9.31345
-0.445958
9.83115
-0.304254
10.3785
-0.236867
11.1919
-0.0522121
10.7034
7.93958
0.0288934
7.91204
0.228727
10.5318
0.334899
11.1581
0.407398
10.4802
0.614828
9.7856
0.904623
9.17493
0.965594
8.71643
0.540729
7.69717
0.0213429
6.0408
-0.120572
4.99626
-0.0882593
4.63291
-0.0446247
4.5435
-0.00688217
4.5143
0.0373378
4.5205
0.0493777
4.63913
-0.0940359
4.99894
-0.71058
6.13857
-1.15917
7.80574
-1.00021
8.68327
-0.74682
9.05673
-0.564053
9.64559
-0.507337
10.3208
-0.393129
11.0748
-0.148425
10.4583
7.79513
0.0634931
7.85134
0.307519
10.29
0.460746
11.0051
0.550936
10.3901
0.69077
9.6473
0.891851
8.97358
1.24882
8.35769
0.937013
8.00821
0.255614
6.72101
0.0266918
5.2273
-0.00410962
4.66529
0.00836591
4.53296
0.0163994
4.50789
0.0317922
4.5069
-0.0194009
4.6921
-0.273037
5.25484
-0.883039
6.75269
-1.16176
8.08338
-0.795233
8.31345
-0.650667
8.91096
-0.530859
9.52693
-0.439477
10.2287
-0.279963
10.9153
-0.0427709
10.2238
7.75696
0.0956681
7.75844
0.424626
9.96196
0.6295
10.7999
0.636124
10.3851
0.723149
9.55933
0.91313
8.7829
1.12523
8.14542
1.15319
7.97953
0.815112
7.0588
0.178313
5.8657
0.048803
4.79605
0.027612
4.55567
0.015911
4.52121
-0.0058066
4.53027
-0.159702
4.84846
-0.799941
5.8977
-1.13335
7.08781
-1.03392
7.98265
-0.828663
8.1075
-0.646467
8.72574
-0.576036
9.45507
-0.559278
10.2143
-0.361096
10.7177
-0.0502095
9.91619
7.7128
0.0093011
-0.296506
0.0123963
-0.325031
0.013703
-0.342178
0.0127479
-0.347536
0.0114226
-0.367905
0.0100233
-0.443161
-0.00618303
-0.67865
-0.0605879
-1.814
-0.213528
-2.33499
-0.298905
-2.42602
-0.322304
-2.39887
-0.351275
-2.32615
-0.363587
-2.19847
-0.374455
-2.05341
-0.384281
-1.9044
-0.383415
-1.77024
-0.368262
-1.65929
-0.343882
-1.57544
-0.316828
-1.50401
-0.286582
-1.45768
-0.263285
-1.4281
-0.256103
-1.35045
-0.247895
-1.26208
-0.231652
-1.19514
-0.206606
-1.1481
-0.175006
-1.11644
-0.135642
-1.09356
-0.0903527
-1.08363
-0.042313
-1.07648
-1.08709
0.0317819
-0.361852
0.0422265
-0.447459
0.0465651
-0.516552
0.0420281
-0.543645
0.0300821
-0.570098
0.0147655
-0.755345
-0.0365821
-1.6562
-0.0734617
-2.21584
-0.144231
-2.47667
-0.209391
-2.45
-0.25363
-2.35872
-0.287808
-2.26094
-0.305356
-2.10894
-0.316344
-1.93322
-0.324238
-1.76419
-0.324763
-1.63166
-0.313139
-1.53407
-0.294356
-1.46775
-0.273552
-1.40763
-0.24783
-1.3682
-0.224573
-1.35075
-0.221254
-1.29101
-0.21928
-1.201
-0.208036
-1.13777
-0.186184
-1.09477
-0.156837
-1.06675
-0.120988
-1.04817
-0.0808345
-1.0395
-0.0384854
-1.03302
-1.03884
0.0439537
-0.604683
0.0872726
-1.00059
0.112431
-1.29694
0.0896404
-1.52427
0.0199685
-1.38264
-0.0852672
-1.50376
-0.162614
-2.09148
-0.211517
-2.31873
-0.252548
-2.47095
-0.296029
-2.3889
-0.335882
-2.28779
-0.349213
-2.15457
-0.351652
-1.97615
-0.356907
-1.7867
-0.360003
-1.62163
-0.354596
-1.50362
-0.33917
-1.42194
-0.317315
-1.36444
-0.295687
-1.31004
-0.268326
-1.27554
-0.23801
-1.26305
-0.229189
-1.23055
-0.226824
-1.14043
-0.214062
-1.08248
-0.190071
-1.04397
-0.158209
-1.02006
-0.121527
-1.00574
-0.081406
-0.998115
-0.0401833
-0.992996
-0.999064
0.0764114
-1.98525
0.197814
-2.96947
0.278119
-3.15488
0.229773
-3.33897
0.0318908
-3.35992
-0.149723
-2.59662
-0.232507
-2.42061
-0.273354
-2.38232
-0.31494
-2.39839
-0.362377
-2.28738
-0.384942
-2.18043
-0.377703
-1.99314
-0.370686
-1.80488
-0.37575
-1.6394
-0.380008
-1.49471
-0.372894
-1.38225
-0.354738
-1.30741
-0.331982
-1.25833
-0.310416
-1.21372
-0.281067
-1.18479
-0.247577
-1.1748
-0.234524
-1.16733
-0.231849
-1.0885
-0.218352
-1.03412
-0.193237
-1.00033
-0.159604
-0.980081
-0.121954
-0.96742
-0.0809211
-0.960327
-0.0392007
-0.956888
-0.962593
0.169441
-2.68346
0.31127
-3.47653
0.384219
-3.57159
0.299016
-3.68066
0.0776092
-3.6692
-0.0673173
-3.32933
-0.182575
-2.60355
-0.250765
-2.39579
-0.311312
-2.27635
-0.356938
-2.17724
-0.362353
-2.0071
-0.348835
-1.79506
-0.347722
-1.64338
-0.359434
-1.49781
-0.366217
-1.36345
-0.358788
-1.25393
-0.342326
-1.18845
-0.32255
-1.14944
-0.304336
-1.11613
-0.278394
-1.0972
-0.247432
-1.09363
-0.227538
-1.09984
-0.229047
-1.04187
-0.215559
-0.990629
-0.191184
-0.960099
-0.157876
-0.941976
-0.121071
-0.931308
-0.0793293
-0.925754
-0.0373874
-0.922722
-0.924298
0.224544
-2.99606
0.318266
-3.51579
0.355644
-3.56801
0.250175
-3.58801
0.110416
-3.56677
0.0100136
-3.44789
-0.123359
-3.12889
-0.223976
-2.41585
-0.294658
-2.13981
-0.332072
-2.01212
-0.331539
-1.81115
-0.327768
-1.61973
-0.3321
-1.4804
-0.342874
-1.34456
-0.352
-1.22499
-0.345934
-1.12355
-0.331638
-1.0665
-0.313721
-1.03835
-0.295949
-1.01837
-0.27088
-1.01128
-0.24153
-1.01868
-0.217371
-1.03782
-0.222644
-1.00077
-0.210739
-0.950635
-0.187872
-0.922564
-0.156129
-0.906149
-0.1209
-0.896528
-0.0817119
-0.885888
-0.0412971
-0.878616
-0.876966
0.22231
-3.16536
0.26262
-3.40764
0.269215
-3.43886
0.190973
-3.42692
0.145744
-3.42583
0.0994158
-3.4018
-0.051002
-3.27498
-0.18659
-2.50447
-0.266455
-2.08034
-0.301904
-1.85026
-0.309666
-1.64499
-0.311966
-1.44888
-0.318312
-1.3112
-0.330501
-1.19278
-0.342755
-1.08681
-0.340557
-0.996206
-0.32789
-0.94445
-0.31123
-0.925482
-0.294017
-0.917656
-0.269489
-0.92204
-0.23956
-0.938145
-0.210194
-0.961064
-0.215694
-0.944519
-0.205368
-0.900492
-0.184809
-0.87657
-0.155994
-0.861707
-0.123101
-0.851332
-0.0833208
-0.840935
-0.042437
-0.831622
-0.830098
0.174888
-3.24902
0.172702
-3.24639
0.168687
-3.23804
0.160988
-3.2543
0.166725
-3.27056
0.156087
-3.27155
0.0317303
-3.19114
-0.131209
-2.888
-0.229713
-2.02424
-0.268034
-1.70297
-0.283814
-1.48052
-0.29631
-1.28121
-0.307382
-1.14662
-0.323384
-1.05249
-0.338346
-0.955173
-0.342352
-0.874288
-0.330348
-0.826518
-0.315556
-0.813842
-0.299097
-0.815093
-0.276386
-0.830304
-0.247948
-0.852511
-0.212414
-0.877066
-0.214166
-0.87882
-0.203734
-0.843303
-0.183758
-0.824298
-0.155485
-0.812398
-0.122541
-0.802704
-0.0834845
-0.794415
-0.0416962
-0.785482
-0.782733
0.104419
-3.2575
0.0721577
-3.06803
0.080941
-2.8598
0.138212
-2.90225
0.190494
-3.04637
0.194715
-3.0397
0.128855
-2.95069
-0.0448387
-2.79371
-0.174848
-1.97344
-0.224393
-1.47667
-0.249126
-1.32104
-0.273087
-1.08218
-0.29499
-0.968008
-0.316229
-0.932891
-0.334782
-0.830973
-0.344973
-0.7595
-0.335874
-0.717724
-0.322928
-0.706479
-0.3065
-0.715673
-0.285817
-0.738592
-0.256462
-0.765158
-0.219002
-0.791667
-0.215773
-0.807724
-0.20474
-0.782964
-0.184465
-0.769621
-0.156071
-0.761259
-0.122935
-0.753178
-0.0838668
-0.74742
-0.0428345
-0.738901
-0.736933
0.0308781
-3.18141
-0.00491878
-2.86134
0.0567029
-2.68724
0.132304
-2.62404
0.19922
-2.59249
0.231327
-2.63265
0.217255
-2.60474
0.0604833
-2.50235
-0.0950147
-2.07667
-0.168731
-1.39037
-0.205541
-1.12957
-0.245545
-0.961106
-0.280645
-0.879824
-0.306517
-0.840723
-0.329475
-0.693738
-0.345337
-0.65339
-0.34224
-0.619626
-0.330948
-0.605637
-0.317039
-0.623498
-0.2955
-0.648982
-0.264897
-0.678711
-0.227684
-0.707545
-0.218376
-0.734222
-0.206313
-0.722041
-0.185336
-0.714234
-0.156483
-0.709692
-0.12297
-0.703884
-0.0838814
-0.700815
-0.042621
-0.69335
-0.691868
-0.0374168
-3.03276
-0.032389
-2.66281
0.0598093
-2.49147
0.130711
-2.31734
0.184521
-2.13569
0.244199
-2.09385
0.282822
-2.06802
0.199297
-2.13084
0.0126036
-1.94798
-0.0998394
-1.30273
-0.159786
-0.998138
-0.217746
-0.889975
-0.262028
-0.820547
-0.291683
-0.769913
-0.321949
-0.620336
-0.344598
-0.541549
-0.348857
-0.530524
-0.339304
-0.513952
-0.32701
-0.538893
-0.304781
-0.564796
-0.273673
-0.596018
-0.237668
-0.626883
-0.221265
-0.660821
-0.208413
-0.662023
-0.186559
-0.659257
-0.157251
-0.658622
-0.123473
-0.65572
-0.0845575
-0.65558
-0.0434727
-0.649172
-0.649074
-0.0841433
-2.8166
-0.0315514
-2.44509
0.0599602
-2.17704
0.125688
-1.87395
0.178626
-1.63419
0.252851
-1.56707
0.316915
-1.55067
0.317796
-1.66102
0.104513
-1.6512
-0.022599
-1.19786
-0.115279
-0.926369
-0.191747
-0.82435
-0.240037
-0.75673
-0.270042
-0.703669
-0.311026
-0.573001
-0.343076
-0.472676
-0.353994
-0.44976
-0.347466
-0.434723
-0.335673
-0.460983
-0.313502
-0.488048
-0.282513
-0.519618
-0.248117
-0.552263
-0.224807
-0.59068
-0.210635
-0.603525
-0.187602
-0.60634
-0.157681
-0.609741
-0.123562
-0.61041
-0.0850917
-0.613038
-0.0435238
-0.608744
-0.609715
-0.089359
-2.58384
-0.0263429
-2.20867
0.0395839
-1.73375
0.101842
-1.37436
0.169454
-1.15213
0.243784
-1.10159
0.347573
-1.08035
0.39282
-1.17559
0.238858
-1.27288
0.0472816
-1.16413
-0.0733202
-0.840054
-0.168145
-0.77437
-0.216688
-0.685023
-0.244035
-0.63336
-0.296978
-0.527877
-0.341567
-0.430468
-0.358816
-0.377892
-0.356039
-0.367446
-0.343562
-0.391238
-0.321711
-0.419968
-0.291317
-0.451753
-0.258227
-0.485849
-0.230372
-0.52694
-0.213104
-0.547589
-0.188623
-0.557289
-0.158033
-0.565113
-0.123663
-0.570028
-0.0854048
-0.575359
-0.0433454
-0.574177
-0.575727
-0.0662476
-2.36905
-0.0166789
-1.81352
0.017838
-1.23949
0.0620373
-0.950246
0.120102
-0.948549
0.195557
-0.979936
0.295495
-0.906433
0.421082
-0.809493
0.335138
-0.896747
0.125161
-0.960158
-0.0293175
-0.771159
-0.146944
-0.670377
-0.193786
-0.599117
-0.216937
-0.556723
-0.280196
-0.479967
-0.338997
-0.38801
-0.362953
-0.31256
-0.364134
-0.310449
-0.351055
-0.330552
-0.329462
-0.361371
-0.29949
-0.394194
-0.267277
-0.429044
-0.236981
-0.471166
-0.215982
-0.497109
-0.189779
-0.513644
-0.15852
-0.526156
-0.123812
-0.535386
-0.0854552
-0.543052
-0.0433266
-0.544915
-0.546723
-0.0467121
-2.01793
-0.0141937
-1.35683
-0.00240335
-0.859246
0.0306174
-0.890852
0.0956249
-0.994552
0.186673
-1.04936
0.284307
-0.95007
0.359637
-0.682002
0.377256
-0.591551