/*--------------------------------*- C++ -*----------------------------------*\
| =========                 |                                                 |
| \\      /  F ield         | OpenFOAM: The Open Source CFD Toolbox           |
|  \\    /   O peration     | Version:  2112                                  |
|   \\  /    A nd           | Website:  www.openfoam.com                      |
|    \\/     M anipulation  |                                                 |
\*---------------------------------------------------------------------------*/
FoamFile
{
    version     2.0;
    format      ascii;
    arch        "LSB;label=32;scalar=64";
    class       volScalarField;
    location    "0.00535";
    object      T;
}
// * * * * * * * * * * * * * * * * * * * * * * * * * * * * * * * * * * * * * //

dimensions      [0 0 0 1 0 0 0];

internalField   nonuniform List<scalar> 
13875
(
1412.01
1535.59
1482.38
1487.8
1481.94
1484.08
1483.9
1483.89
1484.39
1484.27
1484.16
1484.12
1483.62
1484
1483.75
1484.04
1483.46
1484.43
1484.69
1483.12
1481.86
1487.66
1480.62
1532.7
1397.26
1307.02
1356.18
1318.9
1322.13
1316.53
1318.85
1322.13
1322.96
1323.52
1323.43
1323.32
1323.27
1318.16
1317.71
1318.28
1322.65
1322.98
1323.31
1322.15
1317.85
1316.68
1321.91
1319.61
1356.18
1304.2
1307.24
1340.07
1314.27
1311.83
1305.28
1305.91
1305.76
1305.81
1305.78
1304.59
1304.48
1305.92
1303.84
1304.13
1303.88
1305.75
1303.88
1305.47
1306.06
1305.24
1304.89
1311.05
1311.46
1336.55
1297.87
1317.37
1344.79
1314.62
1308.62
1306.03
1305.82
1305.19
1304.13
1303.89
1303.15
1302.74
1303.54
1303.98
1304.2
1304.08
1303.34
1302.41
1303.28
1304.14
1305.54
1305.38
1307.72
1313.99
1343.81
1311.56
1329.53
1342.11
1315.7
1312.4
1305.01
1306.08
1305.65
1304.15
1303.77
1303.28
1302.8
1303.31
1303.75
1304.37
1303.83
1303.23
1302.57
1303.81
1305.2
1305.33
1304.81
1311.74
1312.09
1338.4
1315.72
1332.21
1351.12
1318.8
1309.83
1308.02
1306.77
1305.31
1304.39
1303.77
1303.48
1302.98
1303.57
1304.22
1304.66
1304.29
1303.39
1302.71
1303.32
1304.23
1306.18
1307.24
1308.37
1319.01
1349.05
1326.15
1338.98
1360.45
1329.03
1317.54
1308.13
1307.72
1306.46
1304.35
1304.39
1303.93
1303.47
1303.53
1304.24
1305.07
1304.1
1303.37
1303.35
1304.53
1306.13
1307.27
1307.87
1317.66
1325.82
1358.26
1321.61
1359.7
1384.64
1344.01
1321.13
1316.48
1310.64
1306.79
1305.01
1305.16
1304.72
1304.07
1304.2
1305.19
1305.86
1305.16
1304.04
1303.94
1304.98
1306.28
1309.51
1314.75
1320.22
1341.39
1381
1350.57
1537.11
1508.42
1387.16
1351.07
1322.26
1316.07
1310.76
1306.95
1306.99
1306.55
1305.7
1305.58
1306.36
1307.33
1306.42
1305.71
1306.01
1307.7
1310.63
1315.22
1321.88
1349.97
1383.08
1506.14
1522.2
1834.56
1574.05
1426.81
1358.18
1338.1
1321.24
1314.27
1310.91
1310.29
1309.69
1308.75
1308.53
1309.34
1310.26
1309.61
1309.03
1309.65
1311.4
1314.82
1320.52
1335.2
1355.85
1423.99
1566.39
1826.79
2506.53
1804.72
1518.78
1410.63
1350.82
1332.39
1326.49
1318.68
1317.64
1316.42
1315.03
1314.45
1315.03
1316.2
1315.98
1315.78
1316.75
1318.96
1326.86
1331.39
1349.73
1414.68
1503.83
1800.88
2432.04
2811.52
2300.02
1736.16
1460.71
1416.09
1362.52
1342.22
1333.89
1332.14
1330.01
1328.31
1327.48
1327.74
1328.89
1329.04
1329.67
1331.57
1334.64
1342.91
1364.17
1405.94
1455
1722.18
2300.17
2837.69
2785.88
2658.91
2352.65
2218.64
1533.67
1421.35
1404.82
1378.72
1372.39
1365.76
1361.56
1359.76
1359.24
1360.54
1361.93
1365.65
1371.95
1380.15
1410.86
1427.74
1572.48
2250.83
2268.5
2683.38
2771.17
2721.39
2659.56
2750.8
2747
2055.1
1830.63
1540.37
1505.35
1486.92
1473.81
1465.72
1462.73
1461.72
1463.16
1465.4
1472.3
1485.22
1506.31
1554.92
1856.34
2104.67
2778.83
2783.42
2701.92
2697.7
2585.61
2642.66
2692.78
2708.66
2636.7
2399.03
2106.75
2013.85
1953.47
1863.27
1810.39
1791.95
1785.35
1788.14
1799.84
1841.8
1929.09
2015.89
2050.83
2418.61
2640.66
2733.65
2695.13
2646.23
2629.07
2497.71
2533.11
2655.08
2726.34
2708.72
2757.2
2940.3
3201.72
3323.91
3393.3
3425.41
3454.58
3460.44
3457.2
3430.95
3367.35
3299.09
3223.07
2987.53
2770.55
2686.98
2732.24
2658.71
2561.04
2530.07
2330.57
2430.21
2469.93
2550.76
2674.49
2813.09
3113.02
3476.6
3636.37
3687.89
3679.69
3664.42
3657.89
3663.87
3681.62
3699.67
3662.44
3524.85
3144.78
2834.2
2697.18
2587.88
2481.72
2411.75
2341.99
2041.24
2169.29
2382.78
2744.98
2837.31
2929.43
3119.56
3463.8
3620.02
3671.15
3661.37
3646.46
3639.66
3646.78
3664.08
3677.31
3629.05
3473.18
3104.84
2923.74
2840.88
2731.42
2312.33
2147.55
2035.59
1860.47
1958.01
2055.54
2436.33
2789.67
2882.56
2939.3
3149.84
3361.1
3471.12
3501.45
3500.1
3497.71
3500.37
3503.76
3483.96
3387.81
3202.85
2983.08
2919.48
2823.39
2422.47
2041.83
1980.59
1862.97
2507.71
2407.15
2141.33
2348.74
2630.64
2682.33
2693.22
2868.75
3111
3293.39
3375.35
3389.95
3385.88
3388.08
3376.25
3302.38
3124.88
2898.64
2708.35
2700.83
2608.59
2324.57
2174.57
2444.8
2532.99
3443.86
3396.36
2534.27
2272.62
2431.66
2495.04
2521.96
2684.98
2925.63
3138.11
3251.4
3277.51
3276.58
3273.33
3243.84
3127.64
2917.04
2683.42
2519.28
2500.94
2405.66
2234.36
2594.53
3363.52
3314.78
3555.89
3342.03
2409.86
2094.53
2260.28
2336.2
2395.27
2545.82
2777.16
2996.54
3125.36
3162.44
3159.81
3154.72
3110.48
2978.1
2762.2
2535.41
2387.5
2332.25
2235.28
2064.41
2420.72
3290.35
3626.14
3511.36
2777.49
2166.49
1941.99
2116.79
2205.37
2298.87
2434.84
2647.82
2861.82
2998.61
3039.31
3040.74
3031.45
2983.73
2844.34
2633.65
2429.82
2292.38
2192.58
2093.61
1918.55
2166.75
2799.42
3535.68
3354.39
2513.45
1984.24
1840.12
2033.22
2120.15
2212.96
2343.53
2542.01
2746.13
2879.13
2924.48
2922.2
2916.7
2866.74
2732.26
2532.37
2336.5
2201.73
2104.42
2005.44
1819.35
1978.12
2521.28
3272.67
3167.05
2314.88
1901.27
1808.42
1979.96
2046.67
2133.44
2256.97
2445.78
2642.93
2770.01
2806.92
2809.15
2800.81
2754.41
2624.73
2433.08
2246.36
2124.08
2035.9
1953.75
1779.96
1912.62
2387.33
3234.63
3142.68
2268.45
1887.01
1814.17
1946.05
1990.73
2065.94
2180.49
2361.54
2545.9
2663.18
2701.15
2699.94
2696.84
2653.14
2532.81
2355.61
2177.14
2056.17
1981.23
1923.47
1784.05
1881.25
2278.2
3147.44
3085.49
2209.6
1884.25
1827.09
1921.76
1936.09
2002.81
2114.51
2288.37
2459.31
2564.75
2594.6
2598.73
2591
2554.95
2446.55
2280.75
2109.28
1994.14
1929.9
1901.35
1801.28
1885.22
2249.78
3096.47
3033.38
2197.35
1893.34
1835.92
1901.43
1892.9
1952.9
2060.84
2225.14
2380.7
2469.68
2502.23
2502.32
2500.33
2462.98
2363.98
2214.06
2057.21
1942.63
1886.59
1873.24
1812.32
1881.31
2256.17
3053.19
3035.89
2228.19
1902
1848.87
1905.54
1850.34
1904.65
2006.87
2157.73
2299.6
2382.79
2409.25
2415.06
2407.3
2379.89
2295.78
2152.07
2008.2
1898.68
1846.62
1884.42
1830.48
1890.37
2187.63
2991.58
3023.66
2245.2
1925.27
1854.32
1874.58
1820.09
1871.14
1966.17
2105.89
2233.28
2302.9
2330.84
2331.01
2328.87
2297.94
2222.7
2102.2
1965.29
1861.82
1814.72
1855.22
1829.75
1900.68
2218.74
2995.3
2972.84
2235.22
1930.77
1871.34
1869.85
1789.84
1841.31
1928.96
2054.13
2167.89
2229.58
2248.89
2254.83
2247.88
2227.65
2162.18
2042.07
1926.23
1834.63
1782.53
1862.43
1849.28
1929.26
2261.99
2976.55
2968.73
2253.69
1953.91
1871.44
1832.19
1763.24
1815.84
1895.28
2009.23
2113.22
2159.35
2181.25
2180.57
2180.51
2157.07
2108.63
2014.93
1897.37
1812.96
1757.23
1817.26
1869.75
1943.52
2257.5
2946.8
2929.95
2235.78
1964.28
1901.63
1829.9
1740.31
1796.32
1861.66
1974.71
2055.49
2097.59
2108.38
2113.54
2107.57
2096.2
2053.41
1964.78
1861.89
1798.98
1734.37
1828.09
1883.18
1966.75
2248.17
2929.2
2873.83
2216.28
2005.71
1907.39
1805
1716.31
1779.2
1844.87
1943.48
2012.83
2033.37
2050.13
2047.57
2049.4
2031.46
2008.51
1944.73
1841.39
1780.94
1711.78
1798.86
1908.15
2007.88
2236.98
2899.75
2849.53
2227.93
2030.95
1920.99
1804.8
1714.8
1767.76
1816.85
1908.41
1950.4
1979.51
1984.98
1988.9
1983.48
1979.38
1950.96
1903.59
1817.77
1779.98
1715.76
1807.34
1910.52
2041.63
2215.8
2844.88
2796.41
2201.7
2035
1946.31
1796.99
1704.08
1750.92
1801.86
1884.45
1917.22
1920.67
1934.74
1931.02
1933.26
1917.73
1914.65
1881.16
1798.5
1752.87
1708.72
1795.15
1951.63
2045.12
2203.17
2815.31
2748.79
2179.27
2036.74
1972.3
1802.56
1717.93
1754.33
1779.09
1845.14
1854
1876.04
1877.23
1880.78
1875.18
1873.74
1853.92
1836.06
1781.62
1759.9
1715.82
1812.86
1977.97
2041.02
2176.12
2760.38
2713.34
2160.55
2036.33
2047.03
1823.63
1726.55
1726.88
1758.57
1813.06
1826.94
1826.39
1834.78
1830.81
1832.92
1822.24
1826.71
1812.71
1754.14
1729.01
1738.5
1816.67
2055.22
2040.19
2156.27
2705.95
2672.51
2150.07
2029.57
2028.77
1832.12
1761.96
1738.91
1739.53
1776
1768.18
1787.99
1785.98
1789.12
1784.45
1784.93
1766.89
1769.03
1742.98
1737.19
1762.27
1849.01
2041.41
2023.56
2142.65
2672.94
2631.21
2128.6
2006.97
2034.35
1879.88
1770.43
1737.24
1722.58
1747.76
1751.8
1748.01
1751.28
1747.19
1749.41
1742.66
1748.71
1746.63
1710.6
1720.35
1772.94
1890.14
2043.47
1997.57
2137.45
2643.99
2609.33
2134.89
1982.35
2017.63
1952.01
1814.74
1747.63
1705.57
1721.86
1700.25
1717.01
1711.44
1713.59
1709.33
1713.85
1696.42
1718.05
1718.29
1750.91
1804.34
1970.5
2030.09
1968.38
2119.31
2612.26
2584.34
2127.49
1962.99
2012.41
1954.65
1830.24
1749.33
1716.97
1706.09
1693.55
1685.18
1685.67
1679.85
1682.49
1681.13
1691.91
1704.03
1704.34
1745.54
1835.77
1971.95
2018.7
1949.73
2113.34
2590.78
2566.73
2112.52
1943.13
1971.73
1946.51
1904.97
1773.69
1724.58
1707.49
1659.27
1664.45
1653.4
1653.73
1650.99
1661.2
1650.07
1695.75
1735.37
1787.78
1913.04
1960.14
1978.56
1929.04
2101.62
2574.6
2553.27
2101.67
1927.96
1945.33
1938.36
1937.45
1796.94
1744.42
1709.02
1671.42
1642.84
1635.04
1627.91
1632.21
1640.53
1670.96
1701.38
1739.77
1804.19
1959.79
1954.88
1956.83
1915.64
2083.98
2551.22
2544.61
2094.01
1918.33
1908.36
1912.32
1922.04
1859.66
1769.35
1723.39
1648.67
1637
1612.91
1610.92
1610.07
1631.59
1639.23
1715
1785.16
1889.44
1943.12
1919.22
1918.17
1909.15
2082.12
2544.19
2526.81
2073.56
1906.98
1896.71
1875.22
1915.2
1953.59
1814.58
1740.5
1684.86
1639.48
1606.73
1596.08
1604.15
1633.46
1683.22
1731.11
1808.43
1967.81
1931.75
1885.45
1907.81
1903.12
2071.14
2530.35
2518.9
2075.44
1904.16
1872.76
1848.95
1896.05
1941.5
1909.89
1768.32
1663.75
1644.87
1605.33
1595.91
1603.41
1636.86
1654.34
1766.36
1907.1
1959.12
1906.71
1854.41
1881.17
1897.77
2062.15
2520.23
2490.74
2057.82
1891.76
1871.98
1825.93
1861.63
1937.04
1981.06
1821.45
1715.15
1658.34
1618.4
1599.6
1616.94
1653.56
1713.16
1831.15
1994.71
1949.19
1871.56
1832.84
1881.97
1888.77
2052.89
2488.2
2457.43
2049.81
1883.69
1852.94
1816.05
1839.38
1923.67
1969.65
1937.41
1713.35
1661.9
1612.6
1605.67
1611.64
1659.4
1698.84
1952.35
1981.4
1932.18
1848.86
1818.4
1856.52
1877.7
2042.91
2458.79
2326.29
2004.68
1859.67
1849.69
1807.01
1813.53
1897.02
1958.63
1992.58
1823.74
1697.09
1634.89
1619.02
1633.61
1695.93
1815.94
1993.84
1967.59
1905.14
1822.88
1810.02
1858.53
1854.05
1995.43
2326.3
366.501
369.194
372.022
373.502
374.268
374.782
375.658
375.13
373.319
372.523
369.527
357.687
343.39
332.907
326.463
322.834
319.552
316.652
314.87
312.755
310.149
307.881
306.47
305.466
303.382
300.608
298.583
297.327
297.645
297.893
373.154
370.804
370.698
370.584
374.098
378.711
381.45
378.521
374.036
373.452
372.531
365.042
346.055
334.098
326.747
321.753
317.901
314.467
312.306
309.831
307.022
304.656
303.502
302.945
301.326
298.637
296.413
294.878
294.557
294.075
370.099
369.642
369.796
371.804
378.451
385.109
384.776
380.718
374.817
372.76
372.361
367.354
350.759
337.038
328.375
322.699
317.22
313.854
311.418
308.72
305.626
303.302
302.213
301.654
300.347
297.796
295.556
293.863
293.362
292.795
371.354
369.611
372.309
379.647
391.484
397.54
394.504
386.268
377.767
373.465
372.95
369.689
357.89
340.282
330.03
323.954
317.709
313.274
310.111
307.127
303.686
301.464
300.344
299.662
298.51
296.069
293.89
292.253
291.699
291.231
371.561
371.231
381.93
399.005
418.539
422.604
414.943
397.772
383.647
375.942
374.028
372.021
365.822
344.78
333.088
325.926
319.292
313.41
309.565
306.089
302.323
300.207
298.946
298.177
297.183
294.928
293.039
291.723
291.385
291.152
374.987
378.447
405.779
437.667
468.298
471.7
455.805
422.14
396.914
382.264
376.922
374.772
369.724
350.038
336.323
328.371
321.289
314.073
309.421
305.251
301.357
299.225
297.851
296.93
295.994
293.873
291.883
290.283
289.63
288.678
379.701
393.922
455.056
512.175
564.479
565.196
534.35
469.33
422.296
394.839
382.886
378.044
372.977
356.718
340.091
331.169
324.121
316.009
309.887
304.865
301.024
298.837
297.268
296.169
295.048
292.879
290.458
287.779
286.276
284.804
387.945
423.207
549.094
656.03
748.075
741.849
683.501
557.573
468.393
417.25
393.271
383.138
377.051
364.528
344.562
334.413
327.292
318.442
310.375
304.41
300.455
297.854
295.939
294.671
292.911
289.966
287.004
284.203
282.668
281.228
402.01
475.428
722.372
931.087
1074.66
1047.17
954.806
721.83
549.688
455.411
410.338
390.799
382.337
372.285
349.151
339.202
330.752
321.156
310.503
303.54
298.811
295.623
292.944
290.781
288.759
286.596
284.374
282.286
281.077
279.923
422.69
563.399
1018.33
1307.92
1298.9
1231.6
1178.69
994.242
686.596
517.318
437.529
402.18
389.029
378.275
355.299
344.007
334.983
324.166
312.074
302.899
297.057
293.59
290.779
288.652
286.901
285.109
283.218
281.326
280.11
278.899
453.197
703.861
1365.71
1416.03
1322.7
1239.06
1206.26
1149.83
886.223
610.652
478.207
419.049
397.504
385.017
362.636
348.234
339.874
328.076
314.206
302.647
296.11
292.431
289.465
287.313
285.656
284.142
282.495
280.775
279.63
278.418
496.007
906.061
1472.17
1416.23
1266.93
1163.73
1147.34
1155.79
1050.87
732.366
534.079
442.903
408.534
392.762
370.618
352.416
345.82
333.212
316.833
303.553
296.032
292.035
288.869
286.695
285.059
283.71
282.168
280.534
279.404
278.114
558.354
1155.73
1484.67
1367.08
1157.89
1038.9
1034.61
1093.85
1088.72
867.069
602.355
472.464
421.903
401.735
379.136
356.932
353.117
339.794
320.57
305.37
296.573
292.08
288.734
286.565
284.915
283.605
282.096
280.502
279.353
278.012
645.046
1362.83
1483.78
1304.07
1088.38
951.21
930.959
1008.19
1073.82
961.415
673.363
504.694
437.09
411.729
388.404
361.941
357.588
349.354
326.074
307.784
297.888
292.538
288.933
286.773
285.107
283.869
282.381
280.787
279.539
278.057
748.158
1444.15
1477.21
1279.74
1057.13
908.986
867.445
934.997
1041.53
986.95
733.743
535.114
452.661
421.838
396.138
367.055
361.707
362.069
334.289
311.754
299.722
293.28
289.484
287.29
285.671
284.423
282.886
281.256
279.854
278.296
849.463
1478.69
1475.47
1268.37
1026.89
876.469
828.651
879.767
1007.32
979.76
757.139
554.138
465.845
431.516
403.375
372.704
365.068
366.963
349.892
317.814
302.106
294.644
290.294
288.002
286.462
285.11
283.444
281.639
280.001
278.258
944.502
1501.63
1477.47
1257.3
992.067
834.158
797.162
835.849
961.648
946.923
751.049
562.389
476.784
441.152
409.848
378.983
369.284
370.65
368.936
328.094
306.141
296.388
291.129
288.696
287.235
285.682
283.752
281.761
279.785
277.849
1031.86
1524.76
1486.23
1252.31
973.72
801.886
760.405
790.434
895.763
894.116
722.253
561.92
486.903
450.778
414.757
385.888
373.77
373.009
373.297
351.33
313.038
298.632
292.13
289.503
287.771
285.989
283.77
281.551
279.29
277.32
1109.72
1546.94
1499.65
1258.08
970.715
787.901
729.559
745.447
821.526
828.822
679.487
557.272
497.682
460.43
418.864
391.884
379.146
376.116
375.983
372.817
325.815
302.977
293.958
290.26
288.128
286.183
283.529
281.173
278.753
276.79
1179.15
1570.86
1513.68
1272.85
982.219
785.097
707.923
700.35
748.001
755.835
638.664
550.269
502.499
467.046
422.373
397.395
385.997
380.281
377.05
376.224
357.53
311.441
296.387
291.123
288.225
286.29
283.314
280.915
278.426
276.442
1251.77
1593.71
1529.75
1302.02
1019.88
801.008
699.482
668.971
688.036
695.155
613.159
542.952
502.543
468.541
427.472
404.407
393.978
385.028
380.534
378.052
374.484
328.211
302.051
293.029
287.768
286.15
283.024
280.678
278.138
276.18
1284.05
1614.31
1557.88
1347.99
1064.51
834.878
702.359
655.767
645.38
649.256
593.925
531.455
498.032
466.827
437.502
414.982
402.705
390.856
384.873
381.048
377.284
364.988
312.751
296.286
288.862
285.116
282.643
280.378
277.929
276.091
1384.6
1641.02
1590.15
1403.12
1128.44
895.878
733.19
654.77
628.832
616.864
578.068
525.457
493.012
468.026
446.195
427.577
413.8
398.588
390.224
385.269
379.855
374.733
334.792
302.448
290.864
285.728
281.907
280.132
277.855
276.116
1396.05
1660.76
1639.22
1477.69
1226.11
981.062
789.939
676.238
627.548
607.542
573.43
527.762
493.878
473.991
455.425
437.421
423.803
409.888
397.957
390.444
384.275
378.158
367.071
313.539
294.62
287.319
282.485
279.528
278.002
276.419
1423.54
1696.79
1689.6
1551.4
1330.58
1080.18
870.63
724.911
644.902
608.616
578.335
538.205
502.995
482.509
465.417
447.861
432.276
420.043
408.383
397.264
389.087
382.393
373.943
337.441
301.309
289.686
283.948
280.194
278.181
276.859
298.517
298.239
297.893
299.08
300.985
303.501
305.332
306.395
307.879
310.2
312.717
314.768
316.651
319.653
322.798
326.674
333.629
344.801
361.242
369.684
372.026
372.707
374.816
375.245
374.285
373.538
372.336
371.012
368.415
366.295
294.757
295.192
295.462
296.906
298.936
301.302
302.664
303.344
304.652
307.12
309.802
312.21
314.478
317.931
322.015
327.129
335.005
347.881
366.239
372.429
372.724
373.861
379.22
382.029
378.933
373.018
369.828
369.73
369.934
372.935
293.474
294.01
294.461
296.051
298.051
300.257
301.345
302.047
303.319
305.8
308.69
311.326
313.9
317.32
323.058
328.95
338.245
352.988
367.949
371.974
372.317
375.316
381.516
385.707
386.225
379.441
371.808
369.182
368.877
369.28
291.829
292.281
292.773
294.297
296.253
298.339
299.294
300.128
301.477
303.902
307.07
310.021
313.393
317.995
324.301
330.758
341.839
361.895
369.969
372.449
373.334
378.605
387.548
396.91
400.351
393.904
380.809
372.398
369.031
370.789
291.728
291.913
292.169
293.355
295.041
296.946
297.772
298.727
300.196
302.594
306.095
309.555
313.498
319.635
326.374
334.088
346.685
366.974
372.169
373.706
376.392
385.638
401.161
420.178
428.398
423.638
402.491
383.392
371.251
371.31
289.207
290.119
290.695
292.147
293.907
295.668
296.495
297.58
299.182
301.638
305.365
309.507
314.427
321.711
328.878
337.478
352.644
370.288
374.651
377.009
383.66
400.666
428.841
465.933
482.898
478.002
444.78
410.282
379.75
374.99
285.333
286.795
288.214
290.761
292.85
294.709
295.731
296.963
298.739
301.214
305.058
310.074
316.453
324.64
331.709
341.324
359.691
373.454
378.014
383.727
397.938
429.137
481.796
553.111
585.589
583.309
526.251
464.42
396.411
379.899
281.77
283.175
284.593
287.226
290
292.64
294.183
295.634
297.726
300.458
304.604
310.537
318.982
327.85
335.018
345.842
367.961
377.554
383.482
395.409
423.167
480.837
580.463
717.625
779.117
783.162
682.793
566.934
428.133
388.705
280.461
281.609
282.731
284.672
286.653
288.633
290.684
292.838
295.566
298.802
303.724
310.864
321.765
331.348
340.019
350.887
373.761
382.973
391.851
414.605
465.733
571.254
762.905
1006.41
1096.22
1125.07
979.265
752.472
484.422
403.784
279.317
280.544
281.673
283.443
285.143
286.781
288.53
290.72
293.597
297.119
303.109
312.583
324.823
335.549
344.326
357.617
379.501
389.808
404.473
445.06
534.64
722.066
1044.26
1192.91
1241.63
1313.01
1337.67
1061.91
578.617
426.017
278.765
279.948
281.022
282.627
284.109
285.516
287.175
289.393
292.437
296.237
302.874
314.747
328.814
340.343
348.427
365.164
386.025
398.72
423.291
490.208
637.185
933.999
1162.26
1205.14
1239.01
1326.47
1422.33
1387.65
727.341
458.16
278.371
279.649
280.713
282.239
283.638
284.894
286.536
288.766
292.023
296.197
303.937
317.458
333.945
346.531
352.659
373.152
393.787
410.332
449.575
551.887
769.183
1075.3
1154.08
1136.43
1156.73
1263.72
1418.74
1477.52
938.35
503.949
278.212
279.561
280.634
282.132
283.514
284.736
286.388
288.611
292.045
296.751
305.84
321.402
340.545
352.793
357.288
382.34
402.954
424.504
481.743
626.28
908.463
1097.16
1083.17
1020.99
1034.93
1161.08
1367.62
1488.2
1188.77
569.763
278.194
279.677
280.86
282.363
283.737
284.904
286.558
288.788
292.466
298.082
308.374
327.082
350.178
356.954
362.314
390.737
413.042
440.399
516.456
702.732
987.667
1076.33
993.23
920.707
954.113
1099.17
1312.21
1487.83
1379.47
661.095
278.394
279.961
281.299
282.837
284.268
285.437
287.046
289.337
293.221
299.935
312.514
335.503
361.309
360.935
367.518
398.283
423.058
456.335
548.331
764.375
1003.58
1040.61
922.94
865.067
914.511
1070.41
1291.82
1482.88
1452.51
765.864
278.349
280.098
281.681
283.383
284.933
286.191
287.744
290.158
294.629
302.416
318.719
351.31
365.754
364.079
373.323
405.31
432.552
469.34
566.068
784.861
992.957
1005.09
871
829.931
880.404
1039.48
1281.24
1482.26
1484.54
866.396
277.908
279.871
281.81
283.711
285.521
286.968
288.475
290.964
296.397
306.601
329.164
368.092
369.42
368.186
379.705
411.591
442.225
480.142
572.239
775.301
958.842
957.62
828.129
796.435
838.361
1004.94
1270.71
1486.63
1506.85
958.425
277.369
279.373
281.597
283.74
285.838
287.521
289.274
292.009
298.72
313.682
352.517
371.939
371.621
372.596
386.433
416.182
452.083
489.696
569.571
740.277
906.092
892.654
785.009
758.984
807.019
988.37
1266.93
1496.53
1530.15
1043.89
276.86
278.838
281.226
283.513
286.036
287.907
289.998
293.849
303.206
326.629
371.65
374.425
374.909
377.98
392.111
420.395
462.158
499.729
562.931
691.577
837.163
820.786
740.865
729.728
793.728
985.379
1273.34
1511.25
1552.94
1117.62
276.534
278.494
280.94
283.322
286.155
288.018
290.994
296.353
311.844
358.157
374.785
375.552
379.11
384.818
397.312
423.742
469.004
504.336
554.814
647.046
760.719
748.683
698.06
709.357
791.61
996.862
1287.53
1526.11
1577.28
1185.16
276.24
278.21
280.706
283.088
286.062
287.691
292.936
302.187
329.242
373.081
376.524
379.102
383.893
392.74
404.299
429.288
470.601
504.382
546.506
621.007
696.825
686.328
668.631
701.723
808.165
1032.75
1316.53
1542.77
1600.43
1257.96
276.053
277.904
280.37
282.633
285.015
288.916
296.415
313.178
364.773
375.76
379.534
383.518
389.886
401.64
415.307
439.214
468.743
498.922
534.775
599.639
650.106
644.115
656.71
707.043
844.043
1077.08
1361.49
1571.91
1620.48
1288.22
275.97
277.736
279.929
281.805
285.709
291.05
302.891
336.688
373.131
378.303
383.713
388.952
397.831
413.62
427.756
447.139
469.057
494.297
528.552
581.262
617.339
628.973
656.711
739.498
907.308
1141.86
1415.63
1600.76
1646.9
1384.03
276.179
277.755
279.32
282.451
287.347
294.982
314.4
366.232
376.598
382.685
388.77
396.675
408.52
423.462
437.957
455.429
474.492
495.126
530.382
575.681
607.89
628.108
680.193
799.034
992.462
1239.34
1489.02
1648.58
1666.39
1395.22
276.63
277.835
280.135
284.04
289.668
301.977
340.059
372.287
380.122
387.355
395.46
406.97
419.471
431.938
448.995
465.376
482.394
504.443
540.879
579.75
608.862
646.69
731.682
881.24
1092.73
1343.87
1561.75
1697.69
1700.71
1422.65
865.251
869.734
866.827
864.824
859.934
853.444
846.352
838.231
829.277
819.006
808.599
797.059
784.053
770.813
758.009
745.318
732.81
721.541
707.538
696.718
685.512
675.736
667.585
658.943
652.178
645.665
639.909
633.993
628.735
624.601
621.133
617.932
615.123
612.202
609.24
607.027
604.998
603.302
602.501
602.322
602.843
602.639
602.762
603.314
604.719
606.78
609.008
611.575
614.369
618.704
626.213
638.187
656.047
672.359
684.486
694.251
704.892
715.207
720.678
718.439
713.409
707.811
700.943
693.942
687.034
680.326
674.244
669.187
664.896
661.054
657.754
655.096
652.624
650.842
649.298
648.073
646.455
643.465
639.427
634.645
629.477
624.408
619.725
614.932
609.542
603.474
596.882
589.759
581.967
573.671
565.16
556.769
548.875
541.67
535.045
528.883
523.408
518.721
514.594
510.892
507.56
504.593
502.079
499.622
496.842
493.167
488.02
478.158
466.404
451.663
433.948
413.633
390.229
362.06
332.476
310.707
298.803
292.16
288.573
286.057
283.674
281.492
279.458
277.75
276.823
864.912
869.576
866.49
865.27
861.227
856.519
851.184
844.311
836.883
827.864
818.486
807.576
796.805
786.961
776.617
767.739
756.488
748
736.757
727.403
719.369
711.519
706.922
702.037
699.945
698.45
697.985
697.823
698.343
700.107
704.059
709.488
715.802
721.854
728.229
733.134
736.259
739.129
743.454
746.869
749.598
750.496
750.772
750.408
750.759
751.439
751.956
751.897
750.621
751.5
758.571
769.32
768.417
760.804
752.119
744.011
737.703
729.609
722.045
716.514
713.867
714.589
716.675
718.763
718.551
716.553
713.089
709.617
705.849
701.875
697.576
692.455
687.118
681.567
675.99
669.618
662.925
656.613
651.018
646.094
641.501
636.45
630.711
624.355
617.525
610.525
603.59
596.8
590.155
583.734
577.874
572.98
568.975
565.554
562.436
559.159
555.295
550.56
545.351
539.638
533.031
525.223
515.951
504.84
492.528
479.668
466.655
452.243
437.121
422.593
408.95
395.988
384.02
374.071
365.015
349.98
322.247
303.391
294.735
289.75
286.223
283.647
281.621
279.81
278.44
884.167
888.421
885.051
883.863
880.51
877.286
873.331
868.096
863.35
856.032
850.162
842.46
835.782
829.055
822.723
819.362
814.147
812.043
808.445
805.741
804.677
803.927
807.288
812.351
822.344
834.924
850.45
866.399
880.725
894.258
910.308
930.087
951.645
971.502
992.309
1009.37
1024.23
1038.85
1054.01
1066.4
1077.23
1084.41
1088.58
1089.71
1088.82
1089.43
1089.51
1087.63
1085.09
1089.82
1099.05
1090.63
1067.96
1029.62
989.141
945.464
896.179
841.657
792.073
757.396
735.948
725.534
721.349
719.333
718.976
718.304
718.296
717.823
716.886
714.983
712.62
711.035
709.092
706.916
703.655
698.687
693.802
688.522
683.07
678.23
673.505
667.508
659.876
651.508
642.949
634.577
626.662
619.426
612.872
606.823
601.113
595.625
589.972
583.808
576.871
569.201
560.742
551.369
541.129
530.201
518.66
506.65
494.508
482.774
471.482
460.345
449.694
438.924
427.571
415.846
404.923
395.373
386.37
379.862
373.766
367.33
360.029
349.437
320.456
302.76
293.925
288.662
285.497
283.282
281.578
908.309
914.701
913.349
913.847
913.342
912.2
910.834
910.173
909.639
908.695
909.805
910.146
914.669
918.434
925.463
937.701
945.017
964.015
975.442
991.762
1009.24
1025.14
1043.99
1063.58
1088.38
1116.84
1150.37
1185.56
1218.15
1249.07
1272.98
1293.2
1314.74
1336.42
1356.4
1373.86
1389.09
1405.53
1423.46
1438.47
1452.13
1465.54
1476.16
1485.97
1494.21
1500.95
1509.4
1517.31
1533.14
1561.09
1586.02
1583.05
1570.34
1531.91
1472.67
1393.26
1282.12
1132.94
992.245
886.053
816.119
775.825
751.852
735.283
724.37
717.839
713.993
711.772
710.566
709.939
710.59
712.913
715.041
717.022
717.659
716.709
714.975
712.007
708.769
704.969
699.571
690.055
680.245
670.111
659.532
648.976
638.825
629.199
619.992
611.173
602.44
593.422
583.894
573.607
562.468
550.776
539.266
528.024
517.103
506.857
497.19
488.189
479.755
471.221
462.842
454.79
446.544
438.738
430.128
421.412
411.567
402.503
394.896
388.604
383.29
378.214
373.137
367.552
360.474
347.805
317.19
301.828
293.601
288.989
286.059
945.781
957.061
958.22
966.13
969.196
977.122
981.608
994.498
1007.67
1022.18
1045.06
1064.42
1094.97
1123.46
1155.73
1193.88
1220.49
1266.17
1298.27
1335.17
1370.43
1400.56
1427.87
1449.65
1467.9
1484.96
1501.74
1516.5
1531.57
1546.46
1558.17
1567.82
1576.99
1585.42
1593.91
1602.2
1611.06
1622.91
1633.39
1643.62
1654.7
1664.15
1674.64
1684.69
1693.75
1703.55
1714.34
1725.85
1745.04
1769.39
1783.54
1784.25
1781.65
1775.8
1768.89
1754.46
1719.77
1614.38
1398.41
1170.93
1004.13
900.468
836.253
792.173
761.619
742.903
731.897
725.966
723.433
723.34
724.473
727.601
733.124
738.628
741.185
740.903
736.762
728.59
720.011
710.884
700.87
690.23
679.235
667.528
655.386
643.316
631.565
620.237
609.405
598.756
588.259
577.872
567.597
557.306
546.824
536.133
525.353
515.279
505.853
497.042
488.893
481.35
474.336
467.569
460.598
453.748
446.885
439.907
433.171
425.411
418.21
411.26
404.231
397.574
391.627
386.309
381.856
377.688
373.133
367.846
360.801
345.398
314.685
301.022
293.842
1006.56
1030.51
1036.44
1059.15
1072.67
1103.3
1127.78
1171.59
1211.31
1264.2
1323.47
1377.41
1442
1501.45
1552.77
1603.01
1627.97
1657.65
1671.19
1680.59
1686.21
1687.83
1692.17
1692.5
1691.18
1689.22
1687.87
1686.16
1684.95
1684.53
1685.38
1687.31
1690.11
1694.17
1699.41
1705.84
1714.45
1722.61
1730.88
1740.25
1748.72
1756.82
1766.85
1776.02
1784.58
1795.67
1806.29
1817.95
1834.44
1854.39
1867.56
1871.75
1872.35
1873.8
1873.26
1869.3
1858.75
1830.89
1764.29
1579.01
1330.43
1139.79
1007.32
914.713
851.868
813.792
792.025
781.767
779.149
779.994
783.303
790.675
800.915
810.021
813.955
813.336
807.12
792.329
775.06
757.602
740.584
723.061
705.51
687.092
668.824
651.747
636.224
622.183
609.178
597.063
585.571
574.654
564.115
554
544.101
534.56
525.107
515.654
506.992
498.73
491.033
483.915
477.196
470.799
464.434
457.75
451.276
444.71
438.338
432.903
427.169
421.265
414.984
408.387
401.761
395.392
390.347
385.971
381.44
377.026
372.54
367.805
361.776
342.38
314.156
1101.33
1164.19
1187.06
1253.74
1295.41
1380.6
1446.35
1553.03
1627.24
1717.89
1778.9
1826.88
1855.68
1870.36
1872.4
1869.59
1860.14
1848.41
1833.51
1822.31
1810.97
1797.71
1786
1775.77
1766.42
1758.53
1753.17
1748.35
1744.39
1742.07
1742.52
1744.96
1749.95
1758.77
1767.12
1776.41
1785.98
1795.23
1805.64
1815.87
1826.4
1837.41
1847.73
1858.12
1869.83
1881.29
1891.49
1903.43
1917
1926.07
1936.76
1937.06
1936.25
1936.08
1935.71
1933.79
1928.37
1915.84
1888.73
1823.15
1657.19
1451.87
1267.47
1118.37
1011.48
942.377
900.493
881.433
878.826
880.903
888.155
903.535
920.202
933.299
938.763
938.285
933.246
916.404
889.651
860.674
833.094
805.508
777.58
748.38
718.92
691.394
667.155
646.202
628.089
612.354
598.295
585.593
574.08
563.37
553.142
543.475
534.039
524.534
515.74
507.478
499.415
491.8
484.574
477.682
471.158
464.623
458.041
452
446.342
440.944
435.481
430.235
424.946
419.447
413.498
407.111
400.865
395.892
391.066
386.3
382.122
378.426
374.304
369.935
364.447
1255.96
1404.28
1463.64
1624.27
1717.55
1878.17
1949
2015.73
2033.96
2039.55
2029.64
2015.19
1997.78
1979.61
1960.51
1941.58
1920.42
1901.87
1887.37
1872.46
1857.61
1842.56
1828.42
1816.71
1807.62
1801.54
1797.66
1796.31
1797.23
1800.12
1805.51
1813.22
1824.14
1836.3
1850.59
1864.91
1880.25
1896.25
1912.42
1928.59
1943.59
1958.81
1971.95
1985.64
1999.09
2011.87
2023.5
2033.53
2041.13
2045.62
2043.86
2036.76
2027.96
2019.24
2010.11
2000.21
1988.81
1975.43
1957.14
1923.76
1837.53
1685.66
1513.84
1352.13
1224.17
1132.49
1068.25