/*--------------------------------*- C++ -*----------------------------------*\
| =========                 |                                                 |
| \\      /  F ield         | OpenFOAM: The Open Source CFD Toolbox           |
|  \\    /   O peration     | Version:  2112                                  |
|   \\  /    A nd           | Website:  www.openfoam.com                      |
|    \\/     M anipulation  |                                                 |
\*---------------------------------------------------------------------------*/
FoamFile
{
    version     2.0;
    format      ascii;
    arch        "LSB;label=32;scalar=64";
    class       volVectorField;
    location    "0.00417";
    object      U;
}
// * * * * * * * * * * * * * * * * * * * * * * * * * * * * * * * * * * * * * //

dimensions      [0 1 -1 0 0 0 0];

internalField   nonuniform List<vector> 
13875
(
(2204.17 109.695 1.81271e-18)
(2142.48 5.60936 -9.38713e-19)
(2170.16 -2.21817 -9.41185e-19)
(2167.95 -1.12413 0)
(2170.8 0.0794078 0)
(2169.56 -0.106216 9.36508e-19)
(2169.66 -0.323373 -9.36855e-19)
(2169.64 -0.774148 -4.68452e-19)
(2169.77 -1.02782 4.6802e-19)
(2169.41 -0.531176 0)
(2169.89 0.179844 -3.87968e-22)
(2169.46 1.20299 -3.88061e-22)
(2169.49 1.00942 0)
(2169.37 -0.0423518 -4.6825e-19)
(2169.37 -0.998768 4.68636e-19)
(2169.76 -1.429 0)
(2170.15 -0.107124 9.3647e-19)
(2169.58 1.3004 -9.37234e-19)
(2170.11 1.15243 3.85692e-22)
(2169.66 0.313717 -3.85351e-22)
(2170.88 -0.282409 -9.35862e-19)
(2167.84 0.325327 9.37017e-19)
(2171.01 2.53786 -1.87807e-18)
(2143.71 -8.63152 1.91635e-18)
(2210.25 -106.643 1.76387e-18)
(2253.38 91.9297 -1.63246e-18)
(2228.46 -1.12907 1.88341e-18)
(2247.29 0.694221 8.71995e-19)
(2245.45 1.28746 -8.6721e-19)
(2248.45 -0.534785 4.16301e-22)
(2248.16 0.486415 5.2029e-22)
(2248.26 0.37517 4.15937e-22)
(2247.97 0.902552 -4.35386e-19)
(2246.93 1.41846 4.33558e-19)
(2245.5 0.541282 2.17482e-19)
(2245.57 -0.278467 -1.62858e-19)
(2245.47 -1.25513 -5.3129e-20)
(2247.59 -1.21394 0)
(2247.82 0.0877168 -4.35001e-19)
(2247.5 1.08011 4.33499e-19)
(2245.77 1.51978 4.35794e-19)
(2245.87 0.111624 -4.35192e-19)
(2245.87 -1.74575 5.18536e-22)
(2247.98 -1.62169 -5.19609e-22)
(2248.18 -0.564337 5.2056e-22)
(2248.81 0.932088 -8.71602e-19)
(2245.56 -0.6054 2.59963e-18)
(2247.22 -1.61986 -1.74258e-18)
(2228.92 3.66842 5.42812e-22)
(2256.34 -97.0721 -1.71385e-18)
(2252.39 78.117 0)
(2236.33 -18.2195 0)
(2249.4 4.43934 0)
(2250.71 -1.90545 0)
(2254.16 -3.19133 -1.65596e-18)
(2254.03 -0.806378 1.6433e-18)
(2254.52 0.0755527 1.63971e-18)
(2254.35 1.19479 -2.45794e-18)
(2254.2 2.21143 8.19683e-19)
(2253.63 1.55076 4.30637e-22)
(2253.82 0.29243 -4.3073e-19)
(2253.15 -2.09269 4.30099e-19)
(2253.93 -2.40378 0)
(2253.88 -0.0207549 0)
(2253.94 2.17075 4.0823e-22)
(2253.38 1.59752 0)
(2254.56 -0.333617 8.38378e-22)
(2253.48 -1.82565 4.29829e-19)
(2254.15 -2.17382 -4.10259e-19)
(2253.8 -0.0586252 0)
(2254.29 2.97447 0)
(2251.01 1.53024 0)
(2250.66 -4.75828 0)
(2237.87 13.8636 0)
(2256.93 -74.6643 0)
(2247.84 51.3533 0)
(2235.03 -28.6144 1.81437e-18)
(2249.18 7.1677 -3.41709e-18)
(2251.64 -4.88067 3.4649e-18)
(2253.8 -4.0091 -1.65895e-18)
(2253.86 -1.15134 0)
(2254.49 -0.0013665 -7.90399e-22)
(2254.3 1.29496 0)
(2254.18 2.17639 0)
(2254.15 1.14179 0)
(2254.66 0.36871 0)
(2253.93 -1.80488 -8.43599e-22)
(2253.91 -2.41833 -5.00825e-20)
(2253.86 -0.0564888 5.12084e-20)
(2253.91 2.15716 0)
(2254.1 1.41527 0)
(2254.87 -0.190267 8.00525e-22)
(2253.98 -1.37132 -8.63714e-19)
(2254.1 -2.12415 8.05087e-19)
(2253.72 0.0742549 -1.61888e-18)
(2254.09 3.48692 1.62383e-18)
(2252.09 4.76019 1.74105e-18)
(2249.76 -8.75684 -1.72019e-18)
(2235.71 31.3462 0)
(2251.78 -58.3233 0)
(2244.87 39.279 1.74902e-18)
(2235.44 -47.8201 0)
(2248.67 10.4098 0)
(2250.45 -8.15807 0)
(2254.19 -5.64794 0)
(2253.98 -1.95993 1.66427e-21)
(2254.46 -0.245966 1.64023e-21)
(2254.19 1.3004 4.28759e-19)
(2254.13 2.12424 -4.24358e-19)
(2254.06 0.968508 2.1408e-19)
(2254.76 0.65202 -2.17286e-19)
(2253.93 -1.37814 0)
(2253.86 -2.39328 0)
(2253.79 -0.110542 -1.68177e-21)
(2253.86 2.06882 0)
(2254.16 0.957834 -1.68566e-21)
(2254.81 -0.157992 8.07483e-19)
(2253.95 -0.907987 -8.58472e-19)
(2254.07 -1.92523 1.67164e-18)
(2253.67 0.497015 -1.67246e-18)
(2254.22 4.74574 1.65955e-21)
(2250.79 6.99571 0)
(2249.99 -11.3415 0)
(2237.26 42.8584 0)
(2250.68 -35.2892 0)
(2241.48 6.74623 0)
(2231.53 -63.5315 9.12484e-19)
(2247.12 12.1482 -8.47621e-19)
(2250.96 -11.7467 0)
(2253.04 -6.5989 8.61904e-19)
(2253.28 -2.51536 -4.32521e-19)
(2254.14 -0.392867 -2.26758e-21)
(2253.94 1.30944 -2.1279e-19)
(2254.05 1.96501 -4.2505e-19)
(2253.94 0.679626 1.63874e-19)
(2254.69 0.779762 1.611e-21)
(2253.87 -0.959833 2.68555e-19)
(2253.73 -2.33267 -2.13712e-19)
(2253.65 -0.210468 3.37792e-21)
(2253.69 2.01913 -4.22026e-19)
(2254.02 0.770281 4.33178e-19)
(2254.69 -0.0342695 1.64321e-21)
(2253.89 -0.373871 -1.68759e-21)
(2253.76 -1.77411 -1.65075e-21)
(2253.13 0.690568 -8.42213e-19)
(2253.3 5.21435 8.49655e-19)
(2251.56 11.454 0)
(2247.4 -14.9042 0)
(2232.45 65.3839 -1.93332e-18)
(2246.12 -19.0017 -1.26514e-19)
(2254.03 2.90266 -4.95247e-20)
(2227.49 -79.302 6.02449e-20)
(2242.98 12.0607 0)
(2248.63 -16.5586 -2.69133e-23)
(2252.74 -8.89767 -2.6245e-23)
(2253.08 -4.01471 0)
(2253.85 -1.02705 0)
(2253.66 0.980237 -8.42298e-19)
(2253.77 1.92028 8.50162e-19)
(2253.68 0.532037 0)
(2254.44 0.926036 1.69622e-18)
(2253.7 -0.399443 4.23788e-21)
(2253.46 -2.18211 -1.72384e-18)
(2253.34 -0.258718 -1.71171e-21)
(2253.47 1.74128 0)
(2253.91 0.289732 3.44195e-18)
(2254.35 -0.0223348 2.12769e-21)
(2253.61 0.124445 -6.9051e-18)
(2253.5 -1.13957 3.41012e-18)
(2252.8 1.92488 2.58361e-23)
(2252.76 7.37687 0)
(2248.63 13.7977 3.52988e-18)
(2244.12 -12.2535 -3.31171e-18)
(2228.87 72.8781 3.81535e-18)
(2247.15 2.83908 -3.18299e-18)
(2218.32 -22.8801 -3.17409e-19)
(2214.7 -87.4125 -7.49802e-18)
(2235.58 3.2943 8.71122e-22)
(2246.13 -23.3936 2.61421e-23)
(2249.15 -11.0458 -8.09873e-22)
(2250.91 -5.15296 0)
(2252.54 -1.45873 -3.36284e-18)
(2252.77 0.835752 3.38323e-18)
(2253.26 1.60878 0)
(2253.19 0.148017 -8.38254e-22)
(2253.92 0.830384 -8.33013e-22)
(2253.27 0.00950956 0)
(2252.92 -1.90692 0)
(2252.74 -0.230754 -1.66443e-21)
(2252.88 1.5724 -8.43553e-22)
(2253.42 0.129865 2.61457e-23)
(2253.77 0.288134 -8.65451e-22)
(2253.08 0.771686 -2.62972e-23)
(2252.5 -0.522594 -1.71991e-18)
(2250.85 2.85724 -1.3121e-20)
(2249.54 9.22684 1.68884e-18)
(2246.42 20.295 8.86878e-22)
(2236.79 -4.32577 3.45974e-18)
(2216.49 81.6007 -3.53676e-18)
(2222.08 18.1744 2.50422e-23)
(2113.1 -37.9581 9.42547e-19)
(2168.78 -98.603 0)
(2217 -20.3527 -8.31596e-22)
(2235.16 -33.1461 -8.65244e-19)
(2245.8 -19.9704 1.70837e-18)
(2248.92 -9.99559 -1.70721e-18)
(2251.01 -3.89754 7.36474e-21)
(2251.54 -0.478752 8.55358e-19)
(2252.03 1.47925 0)
(2252.06 0.0968927 -8.5431e-19)
(2252.76 0.864544 8.57164e-19)
(2252.29 0.739661 0)
(2251.77 -1.47839 0)
(2251.51 -0.38816 2.10393e-21)
(2251.76 1.016 8.39616e-22)
(2252.35 -0.336416 8.54647e-19)
(2252.48 0.479125 -8.56707e-19)
(2251.72 1.60753 0)
(2250.9 1.25922 8.63907e-19)
(2248.92 6.94605 -1.70626e-18)
(2246.15 16.3951 8.46181e-19)
(2236.15 29.6581 -8.3993e-22)
(2218.6 16.9336 0)
(2170.96 94.0038 0)
(2116.41 35.4315 0)
(1872.72 -142.312 -6.57242e-17)
(2125.49 -160.856 8.42806e-17)
(2198.14 -55.1159 0)
(2227.61 -56.6181 -2.97763e-17)
(2238.59 -23.5432 3.08838e-17)
(2244.55 -11.872 0)
(2247.89 -4.91317 -3.01714e-20)
(2248.93 -1.06887 -1.47881e-17)
(2249.59 0.650367 1.46764e-17)
(2249.72 -0.379764 -2.96404e-20)
(2250.36 0.533751 0)
(2249.98 1.01702 -3.72104e-18)
(2249.4 -0.790687 5.57826e-18)
(2249.03 -0.322802 -1.90109e-18)
(2249.32 0.564792 -2.95575e-20)
(2249.93 -0.236198 0)
(2249.98 1.22154 0)
(2249.14 2.99716 -3.00705e-17)
(2247.88 3.4476 2.95874e-17)
(2244.68 8.83667 -2.99676e-17)
(2239.62 21.0554 2.94929e-17)
(2228.16 54.1502 3.22451e-17)
(2199.5 53.7443 -2.92915e-17)
(2128.35 162.921 -8.34135e-17)
(1882.9 138.979 -1.26151e-17)
(1651.62 -216.322 -9.09489e-17)
(2011.06 -308.708 1.3769e-16)
(2157.32 -107.282 0)
(2205.89 -64.7031 6.91194e-17)
(2229.32 -31.0826 -7.14704e-17)
(2237.44 -16.8068 -3.34571e-17)
(2241.95 -6.99318 3.43275e-17)
(2243.5 -2.0012 -3.3416e-17)
(2244.29 0.00716385 3.35032e-17)
(2244.65 -0.220819 3.25775e-20)
(2245.28 0.613566 0)
(2245 1.64529 -2.12445e-18)
(2244.39 0.0278413 2.16554e-18)
(2243.92 -0.435746 3.28205e-20)
(2244.16 -0.318696 3.26428e-20)
(2244.68 -0.670371 3.38127e-20)
(2244.75 0.883243 0)
(2243.74 3.92986 0)
(2241.99 6.42782 -6.9226e-17)
(2238.11 13.234 6.68659e-17)
(2230.31 25.9549 -7.19234e-17)
(2208.9 59.1557 1.47182e-16)
(2162.32 98.026 -7.06091e-17)
(2013.44 298.394 -3.88958e-20)
(1693.52 206.162 8.80039e-20)
(1275.97 -594.936 -1.09056e-16)
(1740.24 -586.491 1.18505e-16)
(2030.16 -176.667 2.19456e-16)
(2163.87 -109.31 -9.44909e-17)
(2201.73 -36.9124 0)
(2217.93 -15.2705 7.43718e-17)
(2227.27 -6.53803 -7.60427e-17)
(2230.43 -2.40293 0)
(2231.85 -1.3316 3.55943e-20)
(2232.58 -1.4468 0)
(2233.2 0.0489986 0)
(2232.98 1.74179 0)
(2232.5 1.1124 4.72275e-18)
(2231.99 0.0980698 -4.71204e-18)
(2232.1 -0.427671 -3.91818e-20)
(2232.29 -0.37146 -3.50317e-20)
(2232.23 1.09992 0)
(2230.82 4.35528 0)
(2227.41 7.61036 0)
(2217.65 12.7771 -7.81368e-17)
(2203.91 34.4414 1.58168e-16)
(2168.04 100.999 -7.36884e-17)
(2046.51 165.243 -1.32642e-16)
(1750.01 591.585 1.00733e-16)
(1278.22 548.493 -6.00226e-20)
(1294.28 -612.327 1.6136e-16)
(1113.78 -1074.25 0)
(1630.27 -499.493 0)
(1892.28 -123.272 -1.12809e-16)
(2121.9 -73.8676 1.13337e-16)
(2169.93 -47.1403 0)
(2184.66 -20.8358 1.29983e-20)
(2192.78 -8.59857 4.24761e-17)
(2195.3 -2.88113 -4.30516e-17)
(2196.59 -0.837743 0)
(2197.35 0.848448 -1.06251e-17)
(2197.26 2.63023 1.06501e-17)
(2197.06 1.99102 -5.35849e-18)
(2196.61 0.274702 5.35543e-18)
(2196.48 -0.904815 3.92327e-20)
(2196.1 -0.961615 -4.24057e-17)
(2195.31 1.12238 8.43216e-17)
(2192.6 7.54261 8.49123e-19)
(2183.56 20.7785 -4.26344e-17)
(2166.84 48.6705 -9.39458e-17)
(2107.7 61.0462 8.84259e-17)
(1883.13 99.73 8.61679e-20)
(1673.79 463.562 2.74542e-20)
(1106.6 1060.76 1.6869e-16)
(1311.51 614.354 7.44817e-18)
(1347.52 -632.155 0)
(1146.28 -1044.04 0)
(1255.35 -732.461 0)
(1148.17 -825.564 0)
(1937.83 -252.693 0)
(1944.66 -29.4884 1.15805e-16)
(2014.51 5.84466 -1.21364e-16)
(2055.51 -3.70417 1.69315e-19)
(2063.84 -6.25209 -1.12108e-20)
(2067.24 -6.01376 2.68578e-17)
(2068.76 -2.15098 -2.70206e-17)
(2069.27 0.316115 -3.35855e-19)
(2069.24 2.60673 -8.34736e-19)
(2068.82 2.97891 9.83706e-19)
(2068.2 2.8794 -2.65799e-17)
(2066.81 4.76499 2.64637e-17)
(2062.99 5.69131 1.53182e-19)
(2052.76 8.18762 0)
(2005.03 0.559547 0)
(1922.5 47.8239 0)
(1900.26 324.395 -2.057e-16)
(1126.31 824.076 -5.72323e-17)
(1269.37 713.019 1.6363e-16)
(1144.73 1008.18 2.05213e-20)
(1357.67 620.916 2.0836e-20)
(1419.31 -618.909 0)
(1254.27 -894.898 4.16239e-20)
(1290.01 -733.658 0)
(1156.95 -823.366 -1.71088e-16)
(1249.55 -679.138 3.3858e-16)
(1144.69 -617.069 -2.26277e-16)
(1512.57 -300.334 0)
(1594.99 -98.5406 -1.40392e-19)
(1565.19 -30.2182 0)
(1569.73 -0.441369 0)
(1569.14 5.09146 -2.5314e-17)
(1572.5 6.9519 2.58462e-17)
(1570.79 1.6895 2.57787e-17)
(1569.99 -1.57018 -2.5835e-17)
(1568.65 -1.2874 0)
(1569 1.38961 -1.02581e-16)
(1564.75 26.1938 1.01052e-16)
(1585.99 90.6735 1.07393e-16)
(1526.27 282.119 -9.29209e-17)
(1122.23 637.504 0)
(1231.12 695.236 0)
(1133.64 824.783 -1.69465e-19)
(1295.23 717.598 -1.71688e-16)
(1250.07 886.534 3.76073e-16)
(1405.38 616.712 -1.72215e-16)
(1490.9 -614.516 -1.73609e-16)
(1378.58 -810.982 1.87671e-16)
(1346.83 -664.281 0)
(1192.65 -674.182 -2.3166e-16)
(1202.47 -542.896 -3.77767e-17)
(971.287 -413.791 3.37824e-16)
(796.633 -212.877 -2.52601e-16)
(595.58 -116.338 1.3438e-16)
(446.278 -54.8101 0)
(431.581 -47.2183 0)
(422.232 -26.9653 -4.38193e-20)
(428.634 -15.8475 1.72516e-19)
(423.253 2.34404 0)
(422.182 16.3197 0)
(420.647 28.5081 6.75837e-17)
(430.113 50.5203 -6.73648e-17)
(446.717 54.1658 -1.35223e-16)
(569.113 125.871 2.71473e-16)
(807.71 210.226 -2.62388e-18)
(917.085 410.406 -1.2421e-16)
(1183.31 547.329 0)
(1172.65 675.202 0)
(1338.81 652.465 -1.83936e-16)
(1337.95 839.32 2.08402e-16)
(1472.8 622.152 -4.57399e-20)
(1601.79 -567.669 1.65304e-16)
(1491.81 -664.523 -9.85261e-20)
(1473.11 -513.592 1.07628e-16)
(1363.52 -417.209 -9.56634e-17)
(1302.29 -344.349 -4.94055e-20)
(1062.1 -343.223 1.13544e-19)
(857.912 -210.629 1.22827e-16)
(639.911 -143.128 -1.94904e-16)
(510.13 -77.0562 6.70617e-17)
(497.228 -57.5569 0)
(488.785 -32.952 -3.3112e-17)
(492.39 -20.6837 3.3186e-17)
(488.089 -1.49046 0)
(488.046 15.3335 6.141e-20)
(488.202 30.289 -3.31949e-17)
(495.872 60.9483 3.30342e-17)
(507.644 78.8048 0)
(615.927 166.39 -1.30954e-16)
(860.747 217.364 1.23411e-16)
(1005.6 330.396 1.10785e-16)
(1278.68 330.894 -2.1273e-16)
(1331.39 431.724 1.16835e-16)
(1464.71 520.699 0)
(1475.34 705.535 1.77215e-16)
(1596.2 584.76 -7.48087e-18)
(1746.66 -447.682 -5.57525e-18)
(1678.07 -332.983 9.17322e-17)
(1532.08 -246.85 -4.17227e-17)
(1365.83 -134.109 -5.64409e-17)
(1364.01 -140.61 7.73302e-17)
(1184.74 -167.004 -5.7107e-17)
(997.425 -143.275 6.11414e-17)
(818.803 -177.737 -6.41987e-17)
(702.138 -142.295 -1.88896e-21)
(662.817 -107.813 3.27071e-17)
(655.74 -63.9377 1.62699e-17)
(653.387 -29.7379 -6.83997e-20)
(652.092 6.81972 -1.63597e-17)
(651.221 41.9664 -6.02566e-20)
(655.92 77.6811 -7.51565e-20)
(671.815 119.361 -2.0374e-18)
(723.497 143.244 -2.78933e-21)
(844.925 177.848 5.96653e-18)
(1043.39 142.849 -3.8359e-18)
(1193.77 167.741 0)
(1345.95 146.497 1.25441e-17)
(1351.8 128.386 -3.80779e-17)
(1526.39 271.33 4.73306e-17)
(1679.18 373.298 -6.45096e-17)
(1746.51 462.752 6.14581e-17)
(1858.9 -373.445 -9.4853e-20)
(1818.94 -70.7936 -1.27949e-19)
(1673.95 64.1921 1.59389e-19)
(1532.74 -19.0991 -6.79831e-21)
(1488.77 -46.4623 -1.69708e-19)
(1387.95 -95.7801 -1.95919e-19)
(1244.32 -101.504 -8.08046e-21)
(1077.38 -139.761 0)
(934.103 -112.341 0)
(864.417 -81.5513 6.50428e-17)
(835.046 -50.3887 -6.46157e-17)
(825.718 -26.4172 -8.49452e-21)
(819.795 1.73573 8.48588e-21)
(824.892 29.9028 -8.33607e-18)
(837.145 54.6737 8.13919e-18)
(869.453 85.5112 0)
(934.542 106.629 0)
(1074.2 142.277 -6.11651e-17)
(1251.22 106.895 5.9074e-17)
(1365.91 108.938 -1.88176e-19)
(1470.16 68.4652 0)
(1514.25 33.4415 0)
(1679.28 -57.6856 -1.62498e-19)
(1822.91 60.329 -1.31756e-19)
(1857.28 391.782 1.42024e-16)
(1826.81 89.1677 -1.59522e-16)
(1804.03 282.602 -2.49012e-16)
(1678.9 352.785 1.29388e-16)
(1645.49 236.646 0)
(1619.06 91.7 2.19281e-19)
(1550.75 7.78664 1.06635e-16)
(1433.86 -14.6625 -2.16514e-16)
(1281.35 -63.4402 1.14227e-16)
(1119.03 -64.747 -1.26615e-16)
(1010.61 -46.7657 1.25916e-16)
(967.357 -30.3687 3.21679e-17)
(950.193 -17.1123 -4.00679e-17)
(945.26 1.27211 -8.05801e-18)
(948.498 19.1146 1.63179e-17)
(967.282 33.9792 0)
(1011.3 50.6728 0)
(1116.73 65.0992 1.22445e-16)
(1281.33 71.8798 -2.37146e-16)
(1435.22 25.8884 1.13843e-16)
(1532.61 7.30838 2.26281e-19)
(1613.14 -76.627 1.87888e-16)
(1650.6 -227.694 -2.82916e-17)
(1699.93 -340.561 -4.55431e-16)
(1802.65 -307.704 6.12397e-16)
(1830.8 -111.599 -2.65125e-16)
(1397.69 487.258 1.37389e-19)
(1449.51 888.443 -2.11905e-16)
(1707.08 612.995 1.22602e-16)
(1718.08 409.799 0)
(1701.05 246.872 0)
(1642.65 143.033 0)
(1546.22 99.4328 0)
(1414.64 29.9532 0)
(1258.42 2.33333 -5.44889e-17)
(1141.55 -7.41621 1.10497e-16)
(1081.6 -6.70315 -8.39391e-17)
(1061.73 -4.75569 3.14702e-17)
(1053.37 2.57799 -3.52858e-18)
(1060.09 9.71538 1.37585e-20)
(1082.06 12.1166 -5.57563e-17)
(1145.46 14.8161 5.62993e-17)
(1265.39 2.391 0)
(1423.12 -22.4838 0)
(1549.58 -93.991 -1.73713e-16)
(1629.64 -134.161 1.87615e-16)
(1703.97 -241.647 -1.68119e-19)
(1724.83 -411.397 6.94492e-20)
(1710.01 -625.198 -9.52932e-20)
(1441.48 -916.751 -7.94628e-20)
(1359.96 -492.726 0)
(1034.69 759.252 -1.9193e-16)
(1510.91 986.999 1.29776e-16)
(1751.86 782.554 -1.32336e-19)
(1754.34 586.156 1.50658e-16)
(1755.86 385.664 -1.28622e-16)
(1701.7 264.165 0)
(1622.2 203.713 -8.32481e-17)
(1509.75 119.301 8.16132e-17)
(1365.23 65.7774 -4.72693e-17)
(1245.69 36.3407 9.61584e-17)
(1185.15 18.8567 -4.81595e-17)
(1159.85 8.05661 1.80537e-19)
(1153.99 2.88835 0)
(1159.16 -3.32656 2.45236e-17)
(1188.48 -13.6475 2.3611e-17)
(1255.16 -31.614 -4.86508e-17)
(1377.88 -65.29 -8.91992e-17)
(1521.1 -119.041 8.91683e-17)
(1622.72 -204.584 -7.336e-17)
(1690.02 -264.392 8.07441e-17)
(1759.23 -392.87 7.8933e-20)
(1754.1 -603.162 -7.62649e-20)
(1749.82 -801.17 0)
(1502.92 -1004.65 6.50365e-20)
(996.59 -746.687 0)
(1060.29 710.246 1.53292e-16)
(1574.89 936.36 -1.35358e-16)
(1766.59 868.488 4.94438e-20)
(1771.36 719.752 0)
(1783.4 530.779 0)
(1730.14 402.388 -7.39345e-21)
(1674.95 302.867 0)
(1583.61 201.156 7.90574e-20)
(1456.43 131.939 0)
(1344.86 78.5462 4.27493e-17)
(1277.92 46.0011 -6.4086e-17)
(1254.53 21.2845 3.20782e-17)
(1245.54 3.08161 -1.07796e-17)
(1254.41 -15.7438 0)
(1281.22 -40.8561 0)
(1352.18 -72.1242 4.09238e-17)
(1466.57 -128.995 -1.18264e-16)
(1590.84 -198.558 7.74949e-17)
(1673.44 -305.417 -6.36145e-17)
(1716.46 -405.066 7.05997e-17)
(1786.74 -533.335 0)
(1775.63 -722.427 0)
(1764.51 -885.319 0)
(1581.44 -926.73 -7.42971e-21)
(1005.83 -683.069 -1.75679e-16)
(1145.99 579.065 -2.94748e-20)
(1658.48 839.048 1.10628e-16)
(1752.16 894.19 -9.62491e-17)
(1789.9 777.757 0)
(1792.54 633.119 0)
(1758.56 497.283 7.67869e-21)
(1716.46 376.695 6.50763e-17)
(1635.34 267.989 -6.28346e-17)
(1522.35 185.255 3.27657e-20)
(1421.06 119.848 3.43569e-20)
(1363.04 71.2589 3.50457e-20)
(1336.37 34.3901 -1.01431e-20)
(1330.52 2.85905 -1.01449e-20)
(1336.21 -29.2964 1.91016e-17)
(1365.82 -65.5302 -1.93755e-17)
(1427.91 -114.673 4.42113e-20)
(1531.79 -182.919 4.22594e-20)
(1643.78 -265.456 0)
(1716.8 -376.819 -5.68616e-17)
(1747.72 -498.119 6.27548e-17)
(1795.61 -636.567 0)
(1794.67 -780.017 -9.78625e-17)
(1751.97 -907.033 1.02231e-16)
(1658.35 -863.423 6.57686e-21)
(1195.03 -584.296 -1.57991e-16)
(1278.18 539.305 3.55564e-20)
(1698.7 787.946 0)
(1750.18 887.378 0)
(1793.49 817.469 -5.34495e-17)
(1800.12 701.514 4.67469e-17)
(1781.38 571.332 0)
(1751.33 441.176 5.97797e-17)
(1680.69 324.31 -5.76324e-17)
(1581.96 229.924 3.38116e-17)
(1492.84 148.831 -3.36234e-17)
(1435.35 93.6149 1.77657e-17)
(1414.71 45.8051 -1.758e-17)
(1406.94 1.90674 0)
(1415.18 -42.6004 -1.74659e-17)
(1439.34 -91.8179 1.7821e-17)
(1501.75 -147.773 -3.61608e-20)
(1594.26 -232.297 -3.45212e-20)
(1689.82 -328.834 5.56788e-20)
(1752.92 -450.011 5.19563e-17)
(1767.94 -578.056 -5.75669e-17)
(1796.75 -712.359 -4.76428e-20)
(1794.31 -824.407 -4.71885e-20)
(1751.34 -897.243 0)
(1685.05 -799.033 -5.36421e-20)
(1245.62 -519.433 3.59515e-20)
(1308.46 433.317 1.32717e-22)
(1699.17 735.166 0)
(1751.66 868.435 8.67755e-23)
(1801.47 828.454 4.40764e-20)
(1806.43 745.644 -8.66558e-23)
(1803.96 618.534 -5.23877e-17)
(1779.26 489.804 4.81385e-17)
(1716.89 373.008 0)
(1630.79 269.929 -6.32775e-20)
(1551.03 182.961 -1.12692e-22)
(1503.77 115.106 -1.14826e-22)
(1482.14 56.139 6.80267e-20)
(1477.95 1.54956 0)
(1482.21 -53.112 0)
(1507.06 -112.659 -1.14455e-22)
(1558.02 -182.034 -1.12276e-22)
(1640.21 -271.233 -2.8806e-17)
(1725.76 -375.019 8.17331e-17)
(1780.74 -493.385 -5.47166e-17)
(1794.3 -618.927 0)
(1804.32 -751.796 -4.41927e-17)
(1802.53 -834.95 4.62599e-17)
(1754.71 -877.792 8.694e-23)
(1699.77 -765.553 4.7112e-20)
(1324.21 -455.243 1.33712e-22)
(1349.63 445.765 2.53752e-18)
(1692.4 716.613 9.49255e-18)
(1754.89 833.67 9.67174e-17)
(1808.5 821.858 -4.28157e-17)
(1818.01 759.766 4.27487e-17)
(1822.09 650.311 -4.81392e-17)
(1802.69 529.676 4.48658e-17)
(1750.24 408.699 -2.69741e-17)
(1675.8 299.54 2.66338e-17)
(1607.45 203.532 1.18346e-22)
(1561.71 131.195 1.20911e-22)
(1547.7 64.4548 -1.21429e-22)
(1541.21 1.95852 7.3718e-18)
(1548.01 -61.6769 7.22668e-18)
(1565.71 -130.233 -1.50065e-17)
(1614.49 -202.859 1.18377e-22)
(1686.34 -301.395 5.31694e-17)
(1759.28 -412.26 -1.03111e-16)
(1807.45 -535.426 5.05688e-17)
(1812.22 -649.262 0)
(1814.25 -766.274 -8.69452e-23)
(1805.69 -830.325 7.93276e-23)
(1756.4 -838.539 -8.35462e-23)
(1694 -736.474 -1.00244e-16)
(1339.08 -458.153 1.23214e-16)
(1343.34 459.385 1.15134e-19)
(1693.05 680.602 0)
(1777.46 775.287 0)
(1812.66 805.347 4.02824e-20)
(1829.36 756.903 8.15211e-20)
(1842.51 658.557 0)
(1824.84 546.16 4.72261e-17)
(1777.19 430.728 -4.62846e-17)
(1711.71 321.125 4.77042e-20)
(1651.83 224.855 -4.95114e-20)
(1617.88 143.341 -1.37989e-17)
(1602.45 67.7917 1.37136e-17)
(1599.87 -1.59642 3.54075e-18)
(1602.82 -72.3301 -3.46141e-18)
(1621.86 -148.741 1.3422e-17)
(1659.74 -231.747 -3.97427e-17)
(1722.41 -331.283 2.65088e-17)
(1787.32 -441.844 -5.03556e-20)
(1827.96 -560.783 4.1571e-20)
(1833.35 -666.485 -4.08744e-17)
(1826.41 -765.033 1.25814e-18)
(1812.14 -816.981 -1.36575e-18)
(1783.83 -786.896 4.14038e-17)
(1699.16 -697.078 4.69264e-20)
(1326.34 -455.983 5.57654e-20)
(1318.63 450.149 1.09726e-16)
(1711.63 642.795 -9.42414e-17)
(1802.01 722.993 0)
(1821.46 779.724 -3.92668e-17)
(1843.28 743.014 1.55124e-19)
(1856.35 666.426 3.95685e-17)
(1842.53 571.134 4.40221e-17)
(1804.93 455.269 -4.34555e-17)
(1749.86 343.121 -4.99294e-20)
(1700.06 240.715 -2.53228e-17)
(1666.19 156.482 1.21417e-17)
(1657.23 76.696 1.25723e-17)
(1651.69 1.82814 -5.33332e-20)
(1657.44 -74.5397 0)
(1668.33 -155.582 0)
(1704.44 -238.901 0)
(1757.94 -343.249 4.98341e-20)
(1813.22 -456.337 1.0485e-20)
(1850.48 -575.177 -5.29343e-20)
(1847.33 -665.518 0)
(1839.91 -745.451 3.88457e-20)
(1818.32 -787.71 9.54702e-21)
(1801.28 -738.328 -4.99858e-20)
(1726.75 -643.964 -9.65123e-17)
(1331.43 -435.047 1.07496e-16)
(1310.1 421.037 5.2592e-17)
(1730.85 563.194 -8.70699e-17)
(1822.39 665.569 8.2994e-17)
(1835.42 745.83 -4.0388e-17)
(1856.86 725.084 -3.77226e-17)
(1873.32 653.404 3.79049e-17)
(1860.53 566.037 2.06059e-17)
(1826.21 459.012 -2.07371e-17)
(1777.9 352.469 1.15038e-17)
(1735.1 253.47 -2.31599e-17)
(1712.48 164.634 1.75125e-17)
(1701.57 78.7161 -7.39943e-18)
(1700.38 -0.940547 1.48164e-18)
(1702.24 -81.3673 -4.39438e-20)
(1715.55 -168.014 2.31094e-17)
(1740.91 -258.319 -2.37415e-17)
(1786.6 -359.188 4.18662e-20)
(1835.85 -465.466 4.14084e-17)
(1868.7 -577.391 -2.26493e-18)
(1867.97 -659.854 -3.88607e-17)
(1851.97 -732.3 0)
(1833.81 -761.828 4.0605e-17)
(1819.19 -687.146 -3.74195e-17)
(1731.7 -558.335 -9.50951e-17)
(1331.98 -398.423 -6.63412e-18)
(1359.91 389.954 -5.23294e-17)
(1750.35 495.241 4.59317e-17)
(1843.87 615.737 1.91483e-20)
(1847.85 706.567 -5.4519e-20)
(1876.49 699.201 1.87006e-20)
(1883.83 640.465 3.71335e-17)
(1874.84 565.5 -1.82968e-17)
(1847.94 462.56 -1.98175e-17)
(1808.82 356.856 4.3839e-20)
(1775.25 255.575 -4.51727e-20)
(1751.71 166.287 2.05506e-20)
(1747.67 79.4477 -2.05413e-20)
(1743.05 -3.05182 0)
(1747.72 -86.4862 4.98795e-21)
(1753.76 -173.603 -1.08722e-17)
(1779.52 -262.475 1.11122e-17)
(1817.29 -366.674 -2.06643e-17)
(1856.6 -473.057 9.92382e-19)
(1885.92 -579.062 1.94244e-17)
(1878.38 -646.585 -5.40374e-20)
(1870.49 -703.229 -3.76817e-17)
(1842.73 -710.126 3.5607e-17)
(1838.44 -610.834 0)
(1738.47 -488.947 -4.55276e-17)
(1349.54 -366.69 5.33571e-17)
(1368.4 350.614 0)
(1762.64 416.764 -3.77162e-17)
(1854.51 536.756 4.37474e-17)
(1863.12 654.638 1.76323e-20)
(1890.09 677.749 1.72942e-20)
(1900.68 624.034 -3.54046e-17)
(1892.15 552.749 3.69468e-17)
(1866.51 458.306 1.98291e-17)
(1832.63 361.045 6.88926e-19)
(1803.89 266.1 -2.03832e-17)
(1790.87 175.785 -2.16062e-20)
(1783.73 84.9286 2.42617e-20)
(1783.39 -0.170903 0)
(1783.42 -85.7897 4.35878e-20)
(1792.68 -177.157 -2.15427e-20)
(1807.41 -268.111 1.01419e-17)
(1838.9 -363.865 -1.02842e-17)
(1873.65 -460.709 -1.98459e-20)
(1903.94 -561.211 -2.07256e-20)
(1898.17 -631.354 1.75952e-20)
(1883.82 -682.988 -3.66412e-17)
(1856.65 -666.161 -5.8601e-18)
(1848.56 -547.311 3.4509e-17)
(1751.88 -411.143 0)
(1377.35 -348.371 5.37141e-17)
(1398.89 332.379 -1.01106e-16)
(1778.96 361.181 4.27982e-17)
(1863.63 473.207 3.32604e-17)
(1880.25 608.838 -3.95329e-17)
(1904.04 639.562 0)
(1912.41 602.604 -2.14515e-21)
(1903.81 543.333 0)
(1884.95 454.849 -2.36191e-21)
(1858.48 356.973 -2.45156e-21)
(1837.92 261.693 0)
(1822.43 172.521 0)
(1822.32 83.5468 -2.55075e-21)
(1818.38 -1.93764 0)
(1821.89 -88.9638 0)
(1824.06 -178.078 -9.7692e-18)
(1841.02 -266.708 9.85747e-18)
(1865.68 -364.607 -2.44508e-21)
(1891.42 -461.736 -1.84313e-17)
(1915.7 -554.208 1.79136e-17)
(1910.65 -606.431 0)
(1897.2 -640.987 3.64622e-17)
(1873.92 -600.853 -7.35692e-17)
(1854.14 -464.22 7.57799e-17)
(1770.22 -362.636 5.20587e-18)
(1390.11 -332.664 -5.10835e-17)
(1425.19 299.52 1.20993e-20)
(1794.51 307.697 -9.77638e-21)
(1851.76 413.487 0)
(1891.63 534.71 0)
(1914.44 603.65 0)
(1928.98 580.885 7.94795e-21)
(1920.65 519.73 0)
(1902.29 435.554 -8.49489e-21)
(1878.08 347.929 0)
(1859.67 260.833 -8.76741e-21)
(1855.03 174.155 0)
(1851.09 83.4266 -2.36562e-18)
(1851.76 -2.73229 2.34175e-18)
(1850.56 -90.2678 0)
(1856.53 -181.586 9.25731e-18)
(1862.64 -268.267 -1.8656e-17)
(1883.87 -355.52 9.25921e-18)
(1908.15 -442.298 0)
(1932.67 -533.943 1.73984e-17)
(1929.89 -591.111 -1.62957e-17)
(1909.42 -607.308 3.60334e-17)
(1889 -534.343 -3.1916e-17)
(1851.27 -397.569 0)
(1783.32 -307.476 0)
(1405.7 -312.39 0)
(1432.95 286.266 -1.21248e-20)
(1793.93 285.316 9.66861e-21)
(1848.19 338.045 0)
(1910.4 457.597 0)
(1925.98 549.666 0)
(1940.28 552.42 -8.04912e-21)
(1931.48 508.19 0)
(1918.58 431.419 8.76404e-21)
(1901.06 343.891 0)
(1890.08 256.339 -8.94295e-18)
(1880.52 170.892 8.9606e-18)
(1883.35 84.079 -8.39849e-21)
(1880.22 -0.432963 9.25088e-21)
(1882.83 -87.0689 8.38948e-21)
(1881.5 -173.919 0)
(1891.83 -258.595 0)
(1906.2 -348.62 8.94331e-21)
(1922.51 -434.115 -1.74043e-17)
(1943.17 -513.603 1.67239e-17)
(1941.24 -555.891 0)
(1918.61 -551.286 7.97108e-21)
(1903.81 -457.984 0)
(1841.63 -325.28 0)
(1798.35 -285.478 0)
(1437.07 -295.321 0)
(1453.49 270.527 -4.64128e-17)
(1803.02 263.874 3.9248e-17)
(1858.35 285.883 0)
(1916.89 358.037 -1.70407e-20)
(1934.94 497.599 0)
(1952.27 523.169 -1.52165e-17)
(1949.1 481.193 3.29063e-17)
(1935.25 408.041 -1.6962e-17)
(1917.89 328.679 -8.53016e-18)
(1905.73 250.56 8.58619e-18)
(1907.51 169.787 4.37885e-21)
(1905.64 82.2097 1.11974e-18)
(1907.46 -1.95946 -1.07419e-18)
(1905.58 -87.9973 8.55226e-18)
(1908.76 -175.898 -8.58327e-18)
(1907.96 -255.964 0)
(1922.98 -334.748 -1.60823e-20)
(1938.84 -412.96 0)
(1960.94 -493.979 0)
(1954.36 -531.605 -1.69764e-17)
(1931.08 -503.674 1.49602e-17)
(1909.71 -355.924 0)
(1852.37 -270.378 3.71711e-17)
(1807.69 -264.649 1.60976e-18)
(1447.01 -275.283 -9.43112e-17)
(1477.43 261.38 4.61537e-17)
(1813.6 248.674 1.86069e-20)
(1868.5 224.863 3.17599e-17)
(1916.34 295.64 -2.3909e-17)
(1941.9 437.168 -1.84813e-17)
(1959.52 476.553 0)
(1957.57 459.184 8.33545e-21)
(1949.25 398.158 1.61654e-17)
(1937.35 320.384 -1.64841e-17)
(1932.97 240.298 0)
(1927.94 159.722 0)
(1932.84 77.9677 -2.58206e-20)
(1930.4 -3.44707 3.22472e-20)
(1932.48 -86.3965 1.67962e-20)
(1928.5 -167.483 4.13998e-18)
(1934.21 -247.146 -4.09426e-18)
(1942.56 -329.161 8.78176e-21)
(1952.55 -403.513 1.6469e-17)
(1969.77 -465.564 -3.2423e-17)
(1963.56 -479.367 1.47795e-17)
(1940.9 -432.106 -1.55053e-20)
(1906.36 -284.508 0)
(1861.43 -219.832 1.76413e-20)
(1820.56 -253.526 3.8766e-17)
(1462.73 -257.688 -9.09662e-17)
(1488.96 239.933 -4.52681e-17)
(1828.72 231.796 -3.67458e-17)
(1874.12 196.216 3.53164e-17)
(1894.97 199.357 1.472e-17)
(1946.71 358.878 -1.92934e-17)
(1965.4 433.248 0)
(1973 429.131 3.99794e-21)
(1965.41 373.767 -1.17592e-20)
(1953.26 304.69 7.91828e-18)
(1944.95 235.171 -1.60315e-17)
(1950.4 160.564 7.98369e-18)
(1950.29 78.587 1.99298e-18)
(1952.72 -1.08101 -1.86321e-18)
(1949.9 -82.3804 1.85661e-18)
(1951.25 -164.191 -1.99382e-18)
(1946 -237.811 0)
(1957.2 -308.888 1.1806e-20)
(1967.62 -375.992 -3.75364e-21)
(1983.22 -441.45 -1.6531e-17)
(1966.67 -442.915 1.44237e-17)
(1947.13 -365.292 0)
(1884.82 -195.118 0)
(1870.32 -191.955 -4.23947e-21)
(1831.86 -231.926 -3.81091e-17)
(1490.74 -230.696 -1.74524e-18)
(1503.46 222.111 -2.11908e-17)
(1838.22 221.879 1.8726e-17)
(1883.88 177.561 4.25989e-21)
(1903.19 144.128 0)
(1951.81 266.057 1.42093e-17)
(1968.77 365.919 -1.74367e-17)
(1977.25 393.627 3.78659e-21)
(1975.88 358.521 3.84505e-21)
(1969.16 295.387 1.46365e-20)
(1969.7 224.035 -1.90823e-18)
(1967.29 148.514 9.76857e-19)
(1973.44 73.1255 1.88666e-18)
(1971.18 -2.8149 -9.66567e-19)
(1972.59 -80.2787 3.85609e-18)
(1967.59 -154.95 -3.85407e-18)
(1970.25 -229.808 0)
(1973.94 -303.274 1.0742e-20)
(1977.3 -363.221 -1.59891e-17)
(1987.01 -397.299 1.48044e-17)
(1974.65 -368.638 3.73818e-21)
(1948.26 -259.53 0)
(1891.22 -134.733 0)
(1878.8 -181.251 4.2878e-21)
(1841.61 -223.802 -3.73494e-17)
(1505.18 -213.534 4.25477e-17)
(1529.37 194.48 2.12829e-20)
(1852.83 200.286 0)
(1901.72 160.224 -7.96735e-21)
(1906.14 71.8277 -1.48803e-17)
(1936.16 191.379 1.84173e-17)
(1971.12 318.09 -1.40589e-17)
(1982.59 351.02 1.66034e-17)
(1988.75 324.094 -7.36386e-18)
(1982.36 273.034 7.68224e-18)
(1978.17 213.442 -3.73891e-18)
(1985.96 145.565 3.75296e-18)
(1986.92 70.5604 -1.83632e-18)
(1989.48 -2.86373 2.09465e-18)
(1986.16 -78.559 -2.48492e-19)
(1986.7 -153.452 3.74884e-18)
(1978.74 -219.929 -7.51836e-18)
(1986.31 -281.637 -3.99863e-18)
(1991.37 -330.278 7.29008e-18)
(1994.19 -362.679 1.47073e-20)
(1974.6 -320.271 -7.63147e-21)
(1933.34 -182.22 0)
(1896.49 -67.609 0)
(1897.86 -164.469 0)
(1849.91 -203.459 -1.83638e-17)
(1527.47 -188.933 2.07114e-17)
(1537.49 175.776 -2.56387e-21)
(1859.04 179.924 0)
(1918.82 153.342 1.01665e-20)
(1914.54 54.6289 -8.0398e-21)
(1910.87 104.661 -7.55094e-21)
(1968.44 209.103 0)
(1981.47 299.088 -7.39461e-21)
(1993.27 301.733 7.1531e-18)
(1994.27 262.309 -7.5921e-18)
(2000.36 203.759 0)
(1999.95 135.512 1.73071e-21)
(2006.5 67.4508 0)
(2004.55 -1.58832 0)
(2005.78 -72.8243 1.81397e-18)
(2000.19 -140.286 -1.8193e-18)
(2000.61 -207.968 -7.25388e-21)
(1998.11 -269.425 -1.75149e-21)
(1991.68 -307.533 7.32465e-21)
(1989.72 -300.09 -8.47585e-18)
(1977.26 -219.742 6.999e-18)
(1900.3 -99.8508 -1.74302e-17)
(1902.7 -49.5934 3.22572e-17)