/*--------------------------------*- C++ -*----------------------------------*\
| =========                 |                                                 |
| \\      /  F ield         | OpenFOAM: The Open Source CFD Toolbox           |
|  \\    /   O peration     | Version:  2112                                  |
|   \\  /    A nd           | Website:  www.openfoam.com                      |
|    \\/     M anipulation  |                                                 |
\*---------------------------------------------------------------------------*/
FoamFile
{
    version     2.0;
    format      ascii;
    arch        "LSB;label=32;scalar=64";
    class       volScalarField;
    location    "0.00776";
    object      nut;
}
// * * * * * * * * * * * * * * * * * * * * * * * * * * * * * * * * * * * * * //

dimensions      [0 2 -1 0 0 0 0];

internalField   nonuniform List<scalar> 
13875
(
0.0511677
0.0366257
0.0343664
0.0343274
0.034304
0.0343397
0.0342904
0.0342573
0.0342974
0.0343186
0.0342935
0.0342891
0.0343204
0.034341
0.0343301
0.0342933
0.0342676
0.0342895
0.0343025
0.0343266
0.034304
0.034334
0.034383
0.0365629
0.0514286
0.0532618
0.0341203
0.0322229
0.0321073
0.0320667
0.0320889
0.0320356
0.0320062
0.0320374
0.0320503
0.0320344
0.0320433
0.0320529
0.0320721
0.0320602
0.032047
0.0320037
0.0320344
0.0320461
0.032076
0.0320637
0.0321023
0.0322287
0.0340462
0.0536445
0.0564568
0.0335622
0.0318034
0.0315948
0.0315723
0.0315841
0.0314759
0.0314284
0.0314506
0.031454
0.031431
0.0314588
0.0315301
0.0315557
0.0315345
0.0314646
0.031408
0.0314452
0.0314781
0.0315677
0.0315644
0.0315801
0.031794
0.0334894
0.0566051
0.0590705
0.033233
0.0314896
0.0312787
0.0312641
0.0312701
0.0311482
0.031095
0.0311193
0.0311196
0.0310878
0.0311104
0.0312139
0.0312399
0.0312183
0.0311168
0.0310729
0.0311025
0.0311465
0.031254
0.0312552
0.0312624
0.031484
0.0331682
0.0591527
0.0611264
0.0330041
0.0312461
0.031004
0.0309863
0.030987
0.0308592
0.0308099
0.0308332
0.0308325
0.0307998
0.0308206
0.0309258
0.0309546
0.0309299
0.0308272
0.0307864
0.0308147
0.0308595
0.0309689
0.0309766
0.0309897
0.0312293
0.032921
0.0612662
0.0628198
0.0328483
0.0310889
0.0307715
0.0307533
0.0307371
0.0305981
0.0305505
0.0305718
0.0305699
0.0305383
0.030556
0.0306636
0.0306949
0.0306678
0.0305626
0.030526
0.0305533
0.0305999
0.03072
0.0307436
0.0307611
0.031058
0.0328249
0.0629729
0.064829
0.0330736
0.0311036
0.0306321
0.0305695
0.0305288
0.0303689
0.0303192
0.0303372
0.0303315
0.0303019
0.0303175
0.030428
0.0304589
0.0304288
0.030322
0.030293
0.0303205
0.0303763
0.0305122
0.03056
0.030633
0.0311129
0.0330717
0.064861
0.0670964
0.0339373
0.031425
0.0306497
0.0304855
0.0303758
0.0301848
0.030122
0.0301302
0.0301205
0.0300943
0.0301043
0.0302193
0.0302523
0.0302194
0.0301081
0.0300891
0.0301206
0.0301899
0.0303573
0.0304671
0.0306293
0.0313922
0.033896
0.0673499
0.0736504
0.0362981
0.0320415
0.0308459
0.030475
0.0302822
0.0300414
0.0299639
0.0299633
0.0299465
0.029924
0.0299297
0.0300489
0.0300838
0.0300503
0.0299355
0.0299231
0.0299581
0.0300441
0.0302596
0.0304501
0.0308018
0.0319352
0.0360005
0.074185
0.0829064
0.0384742
0.0327387
0.0311922
0.0305811
0.030241
0.0299681
0.0298803
0.0298669
0.029843
0.0298251
0.0298296
0.029947
0.0299834
0.0299518
0.0298481
0.0298332
0.029873
0.0299654
0.0302197
0.0305496
0.0310797
0.0326223
0.0381038
0.083542
0.0907275
0.0441475
0.0346539
0.0319989
0.0308173
0.030355
0.0300394
0.0299118
0.0298741
0.0298418
0.0298246
0.0298289
0.0299392
0.0299771
0.0299539
0.0298746
0.0298574
0.0299041
0.0300349
0.0303051
0.0307937
0.0318798
0.0343608
0.0432594
0.0893423
0.095057
0.0545355
0.0403892
0.0334541
0.0318677
0.0308281
0.0303285
0.0301404
0.0300609
0.0300167
0.029995
0.030001
0.030095
0.0301368
0.0301263
0.0300761
0.0300664
0.0301385
0.03032
0.030834
0.0317947
0.0332196
0.0398383
0.0533551
0.0942567
0.0866003
0.0688039
0.0515939
0.041784
0.0343777
0.0319381
0.031278
0.0308255
0.0306426
0.0305528
0.0305099
0.0305087
0.0305798
0.0306252
0.0306364
0.03063
0.0306803
0.030871
0.0313296
0.0320092
0.0347601
0.0415621
0.0509147
0.0687707
0.0866001
0.0795965
0.0659905
0.0581533
0.0656166
0.0416676
0.0371658
0.0336365
0.0324401
0.0320437
0.0319821
0.031946
0.031944
0.032006
0.0320524
0.0320794
0.0321044
0.0321491
0.0325339
0.0340626
0.0382274
0.0431595
0.0656779
0.0578266
0.0661714
0.0816048
0.075322
0.0643257
0.0565609
0.0605571
0.0562378
0.0538011
0.0443003
0.0388177
0.0367291
0.0358935
0.0355143
0.0354004
0.0354219
0.035479
0.0355904
0.0358856
0.0366748
0.0388935
0.0451083
0.0550397
0.0557891
0.0612321
0.0565985
0.0641589
0.0746568
0.0671576
0.0618676
0.0542631
0.0571933
0.0560695
0.0571812
0.0544162
0.0530641
0.050753
0.0483113
0.0474508
0.0471289
0.0470431
0.0471203
0.0472866
0.047783
0.0503932
0.0543096
0.0553861
0.0577177
0.0556244
0.0579842
0.0543048
0.061497
0.0664728
0.0624011
0.0582211
0.0524604
0.0550141
0.0569034
0.0613152
0.0682342
0.073074
0.0700734
0.0706687
0.0730208
0.0745204
0.0752987
0.0749781
0.0734521
0.0726371
0.0700375
0.073008
0.0689276
0.0614895
0.0564511
0.0553255
0.0520038
0.0576035
0.0624453
0.0569953
0.0546663
0.0530176
0.0568474
0.0600457
0.0630751
0.0711401
0.079439
0.0742074
0.0701259
0.0691897
0.0693729
0.069937
0.0696502
0.0697349
0.0724766
0.0737387
0.0770993
0.0712956
0.0642986
0.0610103
0.0577357
0.0528833
0.0542794
0.0567927
0.0513018
0.0540152
0.0556868
0.0617894
0.066965
0.0647293
0.0674924
0.0754333
0.0742547
0.0702344
0.068624
0.0683766
0.0684694
0.0689243
0.0697285
0.071506
0.0727416
0.0734937
0.0679238
0.0663061
0.0697196
0.0634837
0.0563609
0.0543675
0.0521076
0.049197
0.0569676
0.0601432
0.0659826
0.0688081
0.0644458
0.06397
0.0697292
0.0718737
0.0702969
0.0686276
0.0672117
0.0664998
0.0679923
0.0698656
0.0708038
0.0699593
0.0681125
0.0645416
0.0661367
0.0707053
0.066849
0.0609679
0.0574897
0.0487166
0.0768911
0.086645
0.0760986
0.0652966
0.0650435
0.0615313
0.0607643
0.0657474
0.0694452
0.0693333
0.0675415
0.0652046
0.0640473
0.0662877
0.0688746
0.0693935
0.0673505
0.0643646
0.0614221
0.0631486
0.066698
0.0668515
0.0786023
0.089878
0.0810837
0.127983
0.151919
0.08728
0.0617915
0.0609161
0.0585568
0.0581307
0.0627521
0.0670514
0.0677135
0.0657675
0.0627943
0.0613771
0.0640077
0.0670925
0.0675105
0.0649215
0.0616323
0.0587007
0.0599377
0.062248
0.0634565
0.0905909
0.156832
0.133362
0.148691
0.129797
0.0813629
0.0589262
0.0575704
0.0560163
0.0557667
0.060293
0.0647618
0.0656915
0.0635746
0.0602751
0.058663
0.0614227
0.0648648
0.0654355
0.0626358
0.0593496
0.0562524
0.0570827
0.0585875
0.0602642
0.0818299
0.132831
0.149934
0.156425
0.130465
0.0744126
0.0567945
0.0547859
0.053691
0.0537025
0.0580482
0.0625495
0.0635048
0.0611413
0.0576574
0.056082
0.0588833
0.0625408
0.063339
0.0604113
0.0570944
0.0541829
0.0546786
0.055781
0.0581857
0.0757037
0.137667
0.156652
0.161389
0.13175
0.0707368
0.0552977
0.0527129
0.0517058
0.0520242
0.0560709
0.0603675
0.0612366
0.0587837
0.055237
0.0536946
0.0564675
0.0602535
0.0611645
0.0583261
0.055087
0.0524103
0.052614
0.0537158
0.0566811
0.0727203
0.141737
0.162472
0.167834
0.136228
0.0684208
0.0538415
0.0510884
0.0500196
0.0506684
0.054352
0.0582954
0.0590073
0.0565451
0.0530179
0.0515013
0.0541729
0.0579268
0.0589492
0.056389
0.0533149
0.0508513
0.0507645
0.0520293
0.0550543
0.0700909
0.144479
0.171412
0.176453
0.134435
0.065669
0.0524897
0.0498065
0.0486514
0.0495324
0.0528393
0.0562616
0.0567063
0.0543006
0.0509492
0.049518
0.052138
0.0558173
0.0568719
0.054614
0.0517699
0.0495071
0.0492745
0.0507824
0.0537771
0.0678763
0.144538
0.177813
0.182059
0.135349
0.0641807
0.051445
0.0488231
0.0475893
0.0485443
0.051481
0.0544119
0.054624
0.0523027
0.0491015
0.0477111
0.0502167
0.0537417
0.0548598
0.0529798
0.0504157
0.0483751
0.0480907
0.0497038
0.0525975
0.066422
0.146741
0.184795
0.187159
0.138037
0.0633283
0.0505977
0.0480521
0.0468424
0.0476873
0.0502361
0.0526841
0.0526936
0.0504884
0.0474397
0.0460778
0.0484388
0.0517541
0.0529067
0.0514332
0.0491978
0.0473903
0.0471577
0.0487637
0.0516001
0.0649451
0.144085
0.192154
0.194067
0.136014
0.0625656
0.0499329
0.0472903
0.0462677
0.0470339
0.0491208
0.0510201
0.0507784
0.0486861
0.0458711
0.0445946
0.0469002
0.0500722
0.0512121
0.050034
0.048106
0.0465774
0.046425
0.0479185
0.0509325
0.0644549
0.144206
0.196094
0.196459
0.132801
0.0620959
0.0495506
0.0466535
0.0457145
0.0464177
0.0480839
0.049524
0.0491166
0.0471467
0.044494
0.0432601
0.0454395
0.0484181
0.0495584
0.0487272
0.0471488
0.0459113
0.0457631
0.0470896
0.0504197
0.0636391
0.140018
0.2017
0.198927
0.13292
0.0621423
0.049453
0.0460528
0.0451586
0.0458393
0.047165
0.0482082
0.0476462
0.0457602
0.0432484
0.0420519
0.0441025
0.0469295
0.048097
0.047546
0.0462874
0.0452891
0.0451094
0.0463616
0.0501454
0.063173
0.136396
0.204741
0.203048
0.128948
0.0618685
0.049563
0.0455963
0.0446963
0.0452555
0.0462821
0.0469107
0.0462136
0.0444329
0.0420889
0.0409684
0.0429503
0.0456431
0.0467863
0.0464649
0.0455015
0.0446605
0.0445453
0.0458084
0.0501249
0.0630086
0.135135
0.20656
0.204319
0.126993
0.0616772
0.0498787
0.0453381
0.0442715
0.0446252
0.0454687
0.045783
0.0449852
0.0432796
0.041057
0.0399797
0.0418448
0.0444144
0.0455764
0.045464
0.0447869
0.0440426
0.0440504
0.045427
0.0502276
0.0628415
0.132334
0.209096
0.205528
0.126877
0.0613788
0.0503013
0.0454229
0.0438777
0.0440439
0.044683
0.04474
0.0438602
0.0422409
0.0401227
0.0390947
0.0408562
0.0432944
0.044458
0.0445301
0.0440604
0.0434611
0.0436157
0.0453744
0.0505491
0.0624761
0.131289
0.209863
0.207789
0.12534
0.0609888
0.0507454
0.045707
0.0435807
0.0434882
0.0438849
0.0437707
0.0428156
0.0412434
0.0392473
0.0382799
0.039976
0.0423403
0.0434988
0.043682
0.0433403
0.0429323
0.0432628
0.0455654
0.0510006
0.0623972
0.131744
0.210898
0.208247
0.125715
0.0607899
0.0516639
0.0462266
0.0434217
0.0430109
0.0431447
0.0428531
0.0418876
0.040384
0.0384754
0.037547
0.0391437
0.0414059
0.0425645
0.0428511
0.0426678
0.0424734
0.0430365
0.0459482
0.0517205
0.061972
0.129874
0.212469
0.208363
0.128057
0.0605945
0.0524252
0.0469465
0.0434846
0.0425549
0.0424537
0.0420281
0.0410573
0.0396014
0.0377662
0.0368738
0.0383819
0.04057
0.0417213
0.0420718
0.042049
0.0420309
0.0430443
0.0465637
0.0524731
0.0614501
0.129876
0.213066
0.208918
0.128109
0.0600084
0.0525315
0.0478811
0.0437815
0.042232
0.0418249
0.0412228
0.040245
0.0388517
0.037107
0.0362662
0.0377212
0.0398277
0.0409474
0.0413605
0.0414945
0.0416896
0.0432364
0.0474136
0.0528107
0.0609873
0.132317
0.213417
0.208249
0.130016
0.0594732
0.052508
0.0491608
0.0442734
0.0420701
0.0412936
0.0405427
0.0395478
0.0381888
0.0365062
0.0357001
0.0370745
0.0391135
0.0402241
0.0407042
0.0410317
0.0415368
0.0436481
0.0482978
0.0526778
0.0605326
0.134436
0.213614
0.207917
0.13241
0.0592246
0.052344
0.0504586
0.0450611
0.0421117
0.0409265
0.0399422
0.0389062
0.03758
0.0359535
0.0351841
0.0364884
0.0384438
0.039554
0.0401301
0.040691
0.0416057
0.0442595
0.0498522
0.0525837
0.060379
0.138294
0.212118
0.20821
0.134002
0.0588975
0.0518594
0.0508883
0.0459977
0.0423007
0.0407573
0.0394593
0.0383154
0.0369943
0.0354279
0.0346985
0.0359561
0.0378729
0.0389827
0.0396756
0.0405225
0.0417936
0.0451797
0.0509384
0.0524497
0.0612663
0.14124
0.210908
0.207646
0.136046
0.0587942
0.0512854
0.0508162
0.0475878
0.0427406
0.0407426
0.0391285
0.0378237
0.0364831
0.0349562
0.0342535
0.0354446
0.0373029
0.038449
0.0393263
0.0405388
0.0421757
0.0463838
0.0509971
0.0519294
0.0609843
0.143138
0.210512
0.207277
0.138187
0.059627
0.0507794
0.0504121
0.0490598
0.0435533
0.0408447
0.0389949
0.037453
0.0360374
0.0345207
0.0338347
0.0349724
0.0368035
0.0380248
0.0391412
0.0406673
0.0429513
0.0483461
0.0506961
0.0513627
0.0612302
0.144731
0.210031
0.207151
0.139996
0.0595716
0.0502361
0.0497667
0.0495418
0.0448768
0.0411444
0.0389412
0.037199
0.0356608
0.0341279
0.0334614
0.0345699
0.0364095
0.0377482
0.039091
0.0409754
0.0444306
0.0495518
0.0501653
0.0509655
0.0621756
0.146801
0.209827
0.206389
0.141678
0.0605608
0.0499234
0.049046
0.0492163
0.0470716
0.0419389
0.0390382
0.0371383
0.0354519
0.0338353
0.0331498
0.0342434
0.0361512
0.0376339
0.0391458
0.0416471
0.0465798
0.0493252
0.0494973
0.0505056
0.0625597
0.14858
0.209646
0.205476
0.143425
0.0619321
0.049829
0.0484552
0.0487245
0.0483175
0.0436813
0.0393391
0.0371131
0.0353664
0.0336817
0.0329086
0.0340599
0.0360296
0.0375959
0.0393592
0.0432457
0.048036
0.0488548
0.048871
0.0503037
0.0634004
0.149979
0.208787
0.203661
0.144372
0.0625309
0.0497226
0.0479917
0.0481373
0.0480021
0.0460893
0.0402707
0.0371818
0.0353319
0.0336252
0.0327921
0.0339963
0.0359986
0.0376616
0.0402021
0.0456616
0.047909
0.0482092
0.0484087
0.0504186
0.0648535
0.150799
0.20666
0.200384
0.144295
0.063403
0.0497924
0.0476468
0.0474816
0.0475429
0.0475056
0.0422875
0.0375728
0.0353737
0.0336259
0.0327899
0.0339862
0.036006
0.0379377
0.0418993
0.0474404
0.0474916
0.0474764
0.0479807
0.0504614
0.0653559
0.150545
0.203507
0.191926
0.141355
0.0640968
0.0498668
0.0473768
0.0469263
0.0469538
0.047167
0.0448283
0.0388461
0.0356207
0.0336681
0.0328136
0.0340069
0.0361815
0.0389626
0.0445598
0.0474367
0.0469525
0.0468515
0.0476227
0.0504683
0.0655905
0.147254
0.194884
0.203136
0.488448
0.630935
0.656999
0.62539
0.593452
0.583715
0.586145
0.605814
0.641607
0.672687
0.667662
0.624251
0.561931
0.507549
0.484307
0.493524
0.51509
0.538962
0.556662
0.568653
0.573768
0.569424
0.552264
0.527483
0.49398
0.453131
0.396321
0.310862
0.144293
0.2066
0.525893
0.665128
0.669517
0.627887
0.599538
0.592816
0.599831
0.630276
0.67666
0.732044
0.745076
0.687222
0.598752
0.528181
0.497083
0.494426
0.508649
0.5266
0.539577
0.54851
0.550567
0.543337
0.525316
0.500714
0.468588
0.430071
0.376803
0.296764
0.141388
0.229456
0.577436
0.702708
0.682115
0.631604
0.600961
0.590923
0.592641
0.632273
0.689092
0.736192
0.739535
0.663261
0.572596
0.507203
0.482436
0.480263
0.490986
0.504228
0.515451
0.522599
0.523886
0.514233
0.496303
0.472572
0.442462
0.406793
0.357523
0.282373
0.138523
0.250019
0.627966
0.735764
0.690049
0.630427
0.595274
0.580249
0.586881
0.62859
0.682862
0.713077
0.698855
0.61824
0.537622
0.485262
0.469885
0.469282
0.476681
0.486021
0.495102
0.500536
0.499679
0.488688
0.470736
0.44775
0.41981
0.386935
0.341269
0.270109
0.135972
0.263673
0.660321
0.754979
0.694598
0.628346
0.591489
0.576771
0.584004
0.617959
0.658535
0.6685
0.638178
0.569673
0.506138
0.470485
0.46102
0.460441
0.464243
0.470937
0.477701
0.48094
0.47791
0.466007
0.448295
0.426324
0.400478
0.36995
0.327144
0.258602
0.13343
0.274564
0.694465
0.773193
0.701725
0.634252
0.597284
0.583501
0.587462
0.609414
0.631654
0.624626
0.589264
0.536223
0.488515
0.463645
0.455809
0.453221
0.45421
0.459253
0.463101
0.463819
0.458555
0.446022
0.428851
0.408227
0.384135
0.355278
0.314556
0.248252
0.130829
0.283892
0.736823
0.796408
0.714723
0.649896
0.614834
0.602088
0.602934
0.615537
0.620346
0.602295
0.566391
0.522061
0.483895
0.463735
0.453903
0.448541
0.447942
0.44993
0.450623
0.448806
0.441419
0.428575
0.412146
0.392716
0.369803
0.342064
0.302927
0.238437
0.128471
0.294411
0.791071
0.826077
0.740687
0.681064
0.650456
0.638868
0.636101
0.63374
0.626207
0.603153
0.56903
0.529442
0.494933
0.47285
0.456686
0.446954
0.44364
0.442367
0.440103
0.435728
0.426494
0.413546
0.397805
0.379226
0.357159
0.330303
0.292491
0.229908
0.126168
0.304864
0.852487
0.868276
0.787439
0.735522
0.71263
0.703773
0.694573
0.68467
0.669231
0.643722
0.608442
0.565854
0.524313
0.490896
0.465726
0.449801
0.441802
0.436501
0.431273
0.424289
0.413584
0.400562
0.385358
0.367494
0.346205
0.320182
0.283459
0.222596
0.124143
0.317488
0.92223
0.931368
0.854943
0.813792
0.802842
0.801719
0.794993
0.781403
0.761483
0.730577
0.685838
0.629574
0.57229
0.52166
0.482935
0.457346
0.442433
0.432467
0.424039
0.414197
0.402528
0.389484
0.374689
0.357526
0.336924
0.311519
0.275574
0.216075
0.122277
0.331786
0.993525
1.01762
0.949354
0.921593
0.924446
0.933594
0.932306
0.918954
0.896287
0.855916
0.79595
0.720118
0.639654
0.566529
0.508108
0.46997
0.446017
0.430181
0.417923
0.405799
0.393314
0.38019
0.365696
0.349074
0.329002
0.303998
0.268494
0.209902
0.120545
0.347293
1.07952
1.13183
1.07469
1.06325
1.08383
1.10683
1.11405
1.10259
1.07373
1.01793
0.936132
0.834497
0.725886
0.624778
0.54302
0.487737
0.452467
0.429567
0.413057
0.399087
0.38581
0.372468
0.358188
0.341952
0.322217
0.297406
0.262166
0.204301
0.118954
0.36477
1.18098
1.27564
1.23412
1.23923
1.27849
1.31549
1.32972
1.31776
1.27729
1.20125
1.09391
0.963406
0.824847
0.694237
0.586135
0.510337
0.461464
0.430413
0.409667
0.393798
0.379755
0.36621
0.35196
0.335884
0.316236
0.291493
0.256442
0.199234
0.11748
0.383824
1.29693
1.44841
1.42367
1.44022
1.49516
1.5407
1.55477
1.53509
1.47741
1.37978
1.24823
1.09245
0.928221
0.769865
0.635112
0.537098
0.47283
0.43285
0.407623
0.389613
0.374761
0.360987
0.346636
0.330531
0.310836
0.286108
0.251133
0.194508
0.116104
0.403323
1.4286
1.63981
1.62934
1.64722
1.70672
1.74917
1.75472
1.72236
1.6469
1.53065
1.38183
1.21041
1.02727
0.846314
0.687374
0.567024
0.486158
0.436892
0.406695
0.386244
0.370406
0.356362
0.341843
0.325592
0.30581
0.281035
0.246019
0.190016
0.114835
0.422211
1.56261
1.83213
1.83183
1.83784
1.89014
1.92323
1.9173
1.86968
1.77709
1.64735
1.49014
1.31114
1.1175
0.921025
0.74192
0.599606
0.501906
0.442408
0.406734
0.383501
0.366487
0.351995
0.337168
0.320699
0.300894
0.27617
0.241148
0.185752
0.113669
0.439401
1.69013
2.01287
2.01567
2.00244
2.04039
2.06332
2.04584
1.98373
1.87781
1.74113
1.58006
1.39769
1.19867
0.992636
0.798211
0.635095
0.520332
0.449818
0.407872
0.381431
0.363098
0.347788
0.332419
0.315476
0.295654
0.271251
0.236463
0.181763
0.112546
0.455372
1.80718
2.17115
2.1724
2.13973
2.16475
2.17903
2.15283
2.08052
1.96716
1.82616
1.66181
1.47617
1.27344
1.06154
0.855582
0.674803
0.542785
0.459597
0.410138
0.380728
0.360867
0.34496
0.329085
0.311714
0.291568
0.266836
0.232106
0.178334
0.111709
0.47094
1.91103
2.2944
2.29642
2.2524
2.27263
2.28269
2.25085
2.17322
2.05618
1.91175
1.74326
1.55343
1.34694
1.13069
0.915461
0.721175
0.571102
0.472264
0.414537
0.380998
0.359442
0.34263
0.326289
0.308683
0.288279
0.263269
0.228454
0.175312
0.11099
0.485468
1.98951
2.3686
2.38091
2.34491
2.36992
2.38215
2.34885
2.2703
2.15164
2.0043
1.83084
1.63615
1.42518
1.20471
0.981647
0.774673
0.603984
0.487532
0.420582
0.3824
0.358755
0.340829
0.323909
0.306144
0.285504
0.260229
0.225256
0.172621
0.110425
0.496623
2.03948
2.38024
2.42009
2.41819
2.45944
2.4811
2.45314
2.37735
2.25878
2.10878
1.93052
1.73049
1.51365
1.28721
1.05662
0.834986
0.643471
0.508723
0.429508
0.385528
0.35897
0.339672
0.322055
0.304035
0.283119
0.257603
0.222462
0.170178
0.109958
0.507313
2.05991
2.32357
2.41087
2.47095
2.54102
2.58097
2.56516
2.49542
2.37967
2.2272
2.04441
1.83779
1.61301
1.37885
1.13885
0.904047
0.694724
0.538212
0.442723
0.39074
0.360196
0.339139
0.320801
0.302382
0.28113
0.255312
0.219974
0.167866
0.109617
0.523335
1.97048
2.18118
2.35039
2.50115
2.61569
2.68126
2.68253
2.62329
2.51164
2.35698
2.1686
1.95258
1.71813
1.47564
1.22856
0.984004
0.758511
0.57758
0.461307
0.398088
0.362456
0.339206
0.32028
0.301349
0.279587
0.25345
0.217796
0.16569
0.109359
0.530425
1.82541
1.97301
2.26096
2.5164
2.68154
2.77889
2.80314
2.75721
2.65095
2.49361
2.29815
2.07046
1.82646
1.57703
1.3253
1.07362
0.833008
0.627519
0.486591
0.408297
0.366003
0.340019
0.320235
0.300663
0.278452
0.251984
0.215773
0.16379
0.109159
0.521933
1.46436
1.71201
2.15465
2.51532
2.73868
2.87425
2.9238
2.89498
2.79692
2.63779
2.43653
2.19909
1.94634
1.68981
1.43201
1.17238
0.91811
0.689527
0.520863
0.422663
0.371606
0.341719
0.320342
0.299784
0.277036
0.25006
0.213555
0.162329
0.109023
0.144417
0.311815
0.397637
0.454829
0.495745
0.528916
0.553872
0.571409
0.577406
0.571187
0.55765
0.538093
0.512916
0.492159
0.489614
0.519246
0.581585
0.65083
0.695301
0.697929
0.663003
0.624338
0.604116
0.601738
0.608987
0.640821
0.673795
0.647853
0.501196
0.207375
0.141486
0.297608
0.377953
0.43159
0.470073
0.50164
0.526424
0.544967
0.553609
0.550902
0.54058
0.52635
0.5071
0.493276
0.498443
0.534319
0.609317
0.70229
0.759451
0.750584
0.693357
0.643802
0.613181
0.606524
0.617481
0.646335
0.68958
0.687051
0.54387
0.21121
0.138608
0.283091
0.358637
0.408181
0.443845
0.473458
0.497212
0.51548
0.526096
0.525422
0.517242
0.504772
0.4904
0.479265
0.482944
0.512282
0.581325
0.674909
0.747988
0.748062
0.697583
0.639341
0.601018
0.600603
0.614371
0.650061
0.7034
0.72703
0.597259
0.235733
0.136042
0.270739
0.342311
0.38819
0.420924
0.448459
0.471345
0.489462
0.501214
0.50302
0.497176
0.487534
0.47711
0.468674
0.470122
0.489393
0.545829
0.629017
0.707048
0.721478
0.689116
0.634571
0.595304
0.589344
0.606959
0.644917
0.710496
0.759308
0.646836
0.257316
0.133546
0.259134
0.327987
0.371013
0.401344
0.426841
0.448571
0.466315
0.478836
0.482899
0.479686
0.47242
0.465694
0.460522
0.461328
0.473391
0.513862
0.579807
0.647556
0.676514
0.665643
0.62526
0.59367
0.587564
0.603991
0.644
0.715604
0.7769
0.676044
0.270449
0.130879
0.248501
0.315112
0.356121
0.384807
0.408555
0.428927
0.446047
0.45903
0.465324
0.464607
0.460938
0.456016
0.45442
0.456809
0.467036
0.496203
0.546485
0.600313
0.634994
0.64164
0.61942
0.599449
0.596501
0.611531
0.651642
0.723224
0.796053
0.710944
0.280128
0.128514
0.238457
0.30325
0.342709
0.370289
0.392988
0.4121
0.428472
0.441579
0.449895
0.451953
0.451214
0.449872
0.450676
0.456829
0.468233
0.492498
0.53392
0.579915
0.61608
0.634468
0.62968
0.619519
0.618535
0.632263
0.669351
0.737931
0.822544
0.75787
0.289521
0.126213
0.22972
0.292637
0.330814
0.357596
0.379516
0.397786
0.413399
0.42648
0.436337
0.441244
0.443705
0.446086
0.45
0.461881
0.480292
0.506719
0.544889
0.586649
0.621696
0.645115
0.652947
0.655604
0.660533
0.672545
0.704617
0.768068
0.855954
0.815543
0.29991
0.124113
0.222001
0.283347
0.320479
0.346598
0.367813
0.385453
0.400511
0.413535
0.424443
0.432324
0.438044
0.444579
0.45443
0.473287
0.502394
0.541638
0.587913
0.63338
0.670593
0.697064
0.712667
0.722647
0.732273
0.74059
0.764101
0.819125
0.90335
0.88159
0.310863
0.122194
0.215312
0.2753
0.311691
0.33726
0.357928
0.374959
0.389597
0.402584
0.414313
0.424909
0.434271
0.44583
0.46374
0.493428
0.539175
0.596798
0.660141
0.719926
0.767316
0.799937
0.819863
0.832494
0.837203
0.837244
0.848578
0.892483
0.971846
0.955604
0.324193
0.120414
0.209101
0.268134
0.304103
0.329336
0.349603
0.366157
0.380493
0.393555
0.406053
0.418672
0.432434
0.450428
0.478493
0.523646
0.590973
0.67315
0.761067
0.841319
0.903957
0.945871
0.968316
0.980432
0.979239
0.967928
0.964393
0.994755
1.06568
1.03027
0.339015
0.118785
0.203509
0.261762
0.297463
0.322555
0.342556
0.358817
0.37302
0.386304
0.399593
0.414148
0.432303
0.457859
0.498686
0.563078
0.65609
0.768321
0.885923
0.993321
1.07826
1.13542
1.16412
1.17379
1.16352
1.13761
1.11545
1.12935
1.18861
1.11923
0.35577
0.117281
0.198443
0.256006
0.29153
0.316609
0.336504
0.35268
0.366932
0.380551
0.394683
0.411303
0.433906
0.468059
0.523585
0.61015
0.731051
0.874093
1.02285
1.16029
1.27163
1.34956
1.39028
1.40041
1.38299
1.34286
1.30161
1.2999
1.34273
1.22333
0.3741
0.115878
0.193655
0.250651
0.286147
0.311291
0.331221
0.347513
0.361913
0.375906
0.390982
0.409836
0.437199
0.480719
0.552011
0.661703
0.809738
0.980494
1.15459
1.31748
1.45365
1.55431
1.61354
1.63246
1.61608
1.5678
1.51188
1.50053
1.52564
1.34376
0.393219
0.114576
0.189051
0.245517
0.281141
0.306403
0.326472
0.342976
0.357597
0.371981
0.388143
0.409483
0.441959
0.495361
0.583129
0.714997
0.885873
1.0777
1.26944
1.44725
1.60094
1.72135
1.8004
1.83418
1.82797
1.78405
1.72534
1.71563
1.7251
1.47984
0.412804
0.113392
0.184707
0.240672
0.276444
0.301741
0.321904
0.338633
0.35356
0.368445
0.385914
0.410047
0.44804
0.511802
0.616468
0.768783
0.957489
1.16235
1.36296
1.54776
1.71001
1.84461
1.94272
1.99427
2.00183
1.96935
1.92016
1.92547
1.92319
1.61467
0.431612
0.112306
0.180743
0.236091
0.271905
0.297037
0.317119
0.334142
0.34953
0.365285
0.384334
0.411605
0.455648
0.530266
0.651498
0.822683
1.02432
1.23621
1.44052
1.62845
1.79513
1.93765
2.04981
2.11817
2.13977
2.11977
2.08773
2.11521
2.10814
1.7425
0.4483
0.111233
0.176962
0.231534
0.267174
0.292407
0.313173
0.330749
0.346725
0.36312
0.383792
0.414746
0.465809
0.552608
0.690119
0.876324
1.0872
1.30315
1.51017
1.70119
1.87176
2.01989
2.13957
2.21979
2.253
2.24412
2.22699
2.27615
2.26852
1.86018
0.464087
0.110557
0.173964
0.227784
0.263559
0.289166
0.310093
0.32797
0.344407
0.361632
0.384172
0.419428
0.47924
0.580629
0.734786
0.931849
1.14987
1.36907
1.57932
1.7745
1.94978
2.10242
2.22723
2.31276
2.35363
2.35137
2.34115
2.40236
2.39154
1.96365
0.47951
0.110035
0.171506
0.22466
0.260503
0.286365
0.307525
0.325606
0.342539
0.360829
0.385482
0.425348
0.494816
0.612565
0.785595
0.994003
1.2176
1.44004
1.65443
1.85457
2.03548
2.19226
2.32014
2.40725
2.45011
2.44765
2.43489
2.48674
2.46253
2.04087
0.493459
0.10964
0.169245
0.221982
0.257908
0.283949
0.305429
0.323781
0.34139
0.360888
0.388188
0.433334
0.514209
0.649898
0.841474
1.06309
1.2932
1.52088
1.74126
1.94718
2.1338
2.2945
2.42354
2.50947
2.54724
2.53589
2.50801
2.52384
2.47007
2.08975
0.504667
0.109348
0.167161
0.219674
0.255733
0.281975
0.303862
0.322651
0.341088
0.362205
0.393056
0.445675
0.541621
0.698098
0.906295
1.13937
1.37823
1.61333
1.84214
2.05553
2.24774
2.41182
2.53965
2.62065
2.64761
2.61771
2.55847
2.50956
2.41043
2.10731
0.515257
0.109154
0.165288
0.217706
0.254083
0.280629
0.302904
0.322196
0.341539
0.364768
0.400294
0.463542
0.578984
0.758864
0.982591
1.22438
1.47023
1.71384
1.95246
2.17663
2.37508
2.54206
2.66698
2.73898
2.74895
2.69346
2.58856
2.44298
2.26224
2.01882
0.529258
0.109011
0.163686
0.215984
0.252764
0.279623
0.302326
0.322325
0.342695
0.368741
0.410506
0.487947
0.626875
0.830308
1.0684
1.31788
1.56875
1.81948
2.0678
2.30433
2.5106
2.68107
2.80147
2.86126
2.84893
2.76076
2.60338
2.34832
2.04664
1.86886
0.536403
0.108918
0.162411
0.214264
0.251308
0.278567
0.301721
0.32265
0.344476
0.374321
0.424562
0.52072
0.686475
0.911857
1.16333
1.42099
1.67817
1.93631
2.19364
2.44075
2.65405
2.82758
2.94097
2.98447
2.9467
2.81921
2.60188
2.23786
1.77565
1.50664
0.528423
0.262849
0.250232
0.23629
0.222212
0.210208
0.201064
0.194786
0.190631
0.18914
0.190594
0.194617
0.201266
0.210996
0.224756
0.242476
0.264121
0.287823
0.312055
0.335726
0.357226
0.375579
0.391141
0.404418
0.415491
0.424524
0.432003
0.438168
0.443678
0.448472
0.452393
0.455425
0.457682
0.459186
0.459924
0.459884
0.459047
0.457348
0.454742
0.451171
0.446572
0.44089
0.434076
0.426073
0.416854
0.406434
0.394864
0.382298
0.368848
0.354624
0.339741
0.324306
0.308465
0.292444
0.276424
0.26055
0.244994
0.229892
0.215373
0.201535
0.18843
0.176132
0.164737
0.154727
0.146409
0.139185
0.132854
0.12734
0.122558
0.118476
0.114709
0.111311
0.108325
0.10577
0.103646
0.101911
0.100517
0.0994132
0.098563
0.0979381
0.0975084
0.0972315
0.0970639
0.0969767
0.0969501
0.0969823
0.0970727
0.0972199
0.0974224
0.0976846
0.0980161
0.0984225
0.0989022
0.0994423
0.100038
0.100683
0.101344
0.102018
0.102709
0.103407
0.104022
0.104557
0.10503
0.105448
0.10582
0.106116
0.106395
0.106694
0.106905
0.107186
0.107594
0.108067
0.108627
0.10902
0.109287
0.109354
0.109471
0.109727
0.109724
0.10954
0.1093
0.109088
0.109019
0.108895
0.108816
0.108906
2.57662
2.51253
2.38606
2.24072
2.09213
1.9553
1.83773
1.74824
1.69344
1.68314
1.72158
1.81599
1.97258
2.19563
2.48029
2.80199
3.14132
3.47531
3.78455
4.05585
4.28349
4.46086
4.59323
4.68784
4.75214
4.79466
4.82324
4.84101
4.84525
4.83931
4.82757
4.80855
4.78489
4.75596
4.72109
4.68011
4.63234
4.5772
4.51438
4.44349
4.36421
4.27632
4.18026
4.0766
3.9664
3.85046
3.73112
3.60838
3.48258
3.35455
3.22469
3.09396
2.96306
2.83117
2.69748
2.56125
2.42173
2.27886
2.13238
1.98187
1.82812
1.67241
1.51351
1.35164
1.19523
1.04933
0.918894
0.804413
0.705557
0.621283
0.550432
0.49161
0.44337
0.404491
0.372707
0.346719
0.325449
0.307899
0.293259
0.280869
0.270215
0.260908
0.252603
0.244988
0.237939
0.231396
0.225322
0.219688
0.214502
0.209796
0.205617
0.201924
0.198724
0.195933
0.193505
0.19133
0.189399
0.187656
0.185916
0.184047
0.182028
0.179873
0.177672
0.175462
0.173247
0.171014
0.168917
0.166872
0.165048
0.163738
0.162813
0.16289
0.162774
0.161738
0.160685
0.159907
0.160477
0.161259
0.161328
0.160836
0.160224
0.159923
0.159932
0.160356
0.161314
4.34895
4.27863
4.12705
3.94131
3.74978
3.57496
3.43031
3.33029
3.28795
3.31546
3.42283
3.61687
3.90061
4.26484
4.69331
5.15339
5.61142
6.05502
6.46561
6.83195
7.14719
7.40616
7.61353
7.77639
7.90034
7.99192
8.05729
8.10102
8.12503
8.1318
8.12428
8.10363
8.07112
8.027
7.97144
7.90458
7.82629
7.73641
7.63533
7.52313
7.3998
7.26553
7.12077
6.96611
6.80245
6.63083
6.45271
6.26894
6.08012
5.88712
5.69095
5.49272
5.29344
5.0933
4.89263
4.69172
4.49059
4.28922
4.0874
3.88474
3.68095
3.47552
3.26765
3.05713
2.84482
2.63163
2.4131
2.19235
1.97301
1.7595
1.55692
1.37015
1.20287
1.05691
0.932185
0.827371
0.740157
0.667868
0.60793
0.558136
0.516566
0.481557
0.451702
0.426021
0.403662
0.384
0.366578
0.35106
0.337197
0.32481
0.313772
0.303959
0.295296
0.287627
0.280829
0.274728
0.26922
0.26417
0.259394
0.25482
0.250384
0.245986
0.241711
0.237592
0.233688
0.229915
0.226418
0.223111
0.220055
0.217538
0.215637
0.215175
0.215822
0.214823
0.213592
0.212749
0.212539
0.212883
0.21308
0.21232
0.211268
0.210697
0.210605
0.21112
0.212496
6.09156
6.03861
5.90189
5.73152
5.55553
5.40252
5.29532
5.24802
5.27234
5.37913
5.57539
5.86405
6.23872
6.68148
7.16897
7.66655
8.14385
8.59572
9.00931
9.37457
9.68727
9.94764
10.1543
10.318
10.4451
10.5402
10.6077
10.6511
10.6724
10.6736
10.657
10.6246
10.577
10.5162
10.4432
10.3586
10.2626
10.1552
10.038
9.91127
9.77529
9.63029
9.47663
9.31487
9.14564
8.96962
8.78757
8.60057
8.4092
8.21422
8.0166
7.81738
7.6172
7.41637
7.21517
7.01378
6.81186
6.60868
6.40368
6.1959
5.98352
5.76472
5.53795
5.30216
5.05682
4.80219
4.53904
4.26969
3.995
3.71669
3.4372
3.15897
2.88616
2.62305
2.37344
2.14026
1.9254
1.72974
1.55343
1.39625
1.25786
1.13707
1.03204
0.940477
0.860275
0.789812
0.727798
0.673213
0.62518
0.582764
0.545379