/*--------------------------------*- C++ -*----------------------------------*\
| =========                 |                                                 |
| \\      /  F ield         | OpenFOAM: The Open Source CFD Toolbox           |
|  \\    /   O peration     | Version:  2112                                  |
|   \\  /    A nd           | Website:  www.openfoam.com                      |
|    \\/     M anipulation  |                                                 |
\*---------------------------------------------------------------------------*/
FoamFile
{
    version     2.0;
    format      ascii;
    arch        "LSB;label=32;scalar=64";
    class       surfaceScalarField;
    location    "0.00776";
    object      phi;
}
// * * * * * * * * * * * * * * * * * * * * * * * * * * * * * * * * * * * * * //

dimensions      [1 0 -1 0 0 0 0];

oriented        oriented;

internalField   nonuniform List<scalar> 
27436
(
-0.533464
8.19283
-0.0933617
7.47168
-0.0848556
7.78713
-0.0709025
7.78692
-0.0640197
7.78794
-0.048344
7.78126
-0.0397624
7.78902
-0.0341618
7.7917
-0.0258234
7.78879
-0.0164483
7.78711
-0.00845267
7.78955
0.000876989
7.78818
0.0142589
7.78353
0.031095
7.78086
0.0462519
7.78229
0.0549048
7.78826
0.0580207
7.79261
0.065847
7.78972
0.0753473
7.78829
0.089533
7.78253
0.0961935
7.78791
0.111712
7.78556
0.123666
7.78273
0.572747
7.46036
8.21433
-0.247162
8.44002
-0.096047
7.32052
-0.0811155
7.77216
-0.0545732
7.76031
-0.0587359
7.79189
-0.0615675
7.78381
-0.0391826
7.76722
-0.0293051
7.78234
-0.0204385
7.7809
-0.00876188
7.77561
0.00202863
7.77795
0.0155894
7.77461
0.015103
7.78393
0.0215667
7.77439
0.0210471
7.78281
0.0377235
7.77159
0.0466306
7.78371
0.0589542
7.7774
0.0823496
7.76491
0.0776692
7.78721
0.0721819
7.79335
0.102916
7.75486
0.114089
7.77131
0.268325
7.30666
8.48851
-0.2272
8.66723
-0.140916
7.23426
-0.120319
7.75157
-0.106687
7.74691
-0.104721
7.78988
-0.106945
7.78546
-0.0913248
7.74973
-0.0723255
7.76329
-0.0644511
7.77303
-0.0512083
7.76419
-0.0383492
7.76764
-0.0142333
7.75082
-0.0125492
7.78236
-0.0114312
7.77327
-0.00828344
7.77964
0.012696
7.7506
0.0240594
7.77234
0.0473543
7.75406
0.0609355
7.75134
0.0594354
7.78873
0.0638904
7.78891
0.0786871
7.74001
0.100637
7.74912
0.192055
7.21697
8.68187
-0.169489
8.83674
-0.13928
7.20408
-0.134015
7.74626
-0.113003
7.72578
-0.113988
7.79086
-0.109936
7.78073
-0.089104
7.72859
-0.0735419
7.74778
-0.0603475
7.75977
-0.0443335
7.74925
-0.0277763
7.75293
-0.00621128
7.72988
0.00305933
7.77324
0.00482889
7.77149
0.0149171
7.76953
0.035281
7.7302
0.0494156
7.75817
0.0697519
7.73371
0.0885552
7.73255
0.0942633
7.78305
0.0944836
7.78871
0.118981
7.71542
0.111603
7.75648
0.161982
7.16683
8.83908
-0.0736024
8.91041
-0.0364462
7.167
-0.0924916
7.80232
-0.0628799
7.69609
-0.0703851
7.79844
-0.0684789
7.77922
-0.0520851
7.712
-0.0390112
7.73474
-0.0280994
7.74869
-0.0148161
7.73718
0.000335662
7.73997
0.0179337
7.71279
0.0268072
7.76447
0.0275516
7.77072
0.0369788
7.76008
0.0543494
7.71279
0.0644246
7.74806
0.0820688
7.71604
0.0969847
7.71764
0.101114
7.77895
0.0969044
7.79294
0.124885
7.6874
0.0903384
7.79097
0.0979272
7.15865
8.93161
0.11851
8.79198
0.0437512
7.24186
-0.0502451
7.89635
-0.0132008
7.65868
-0.0323981
7.81786
-0.0351797
7.78151
-0.0246204
7.70105
-0.0167238
7.72729
-0.0107406
7.74244
-0.00190728
7.72984
0.00786376
7.73284
0.0210802
7.70016
0.0257125
7.75983
0.0249313
7.77143
0.0296128
7.75536
0.042146
7.70022
0.0463329
7.74383
0.0583892
7.70396
0.0684331
7.70762
0.0691244
7.7783
0.0524508
7.80966
0.0884936
7.65131
-0.0135761
7.89316
-0.0203464
7.16535
8.90998
0.304545
8.48753
0.135991
7.41056
-0.0069516
8.03924
0.0215477
7.62996
-0.0238053
7.86335
-0.0484228
7.80645
-0.0602809
7.7121
-0.0727125
7.73962
-0.0879627
7.7569
-0.0942462
7.73669
-0.108828
7.75031
-0.117485
7.70944
-0.130646
7.77288
-0.146386
7.78708
-0.158098
7.76703
-0.166426
7.70851
-0.185037
7.7624
-0.193083
7.71199
-0.20801
7.72256
-0.228579
7.79888
-0.262728
7.84386
-0.284652
7.67319
-0.354709
7.96347
-0.657883
7.46839
8.25264
0.87328
7.61437
0.521767
7.76227
0.410063
8.15095
0.33131
7.70856
0.266265
7.92853
0.2265
7.84766
0.192914
7.74474
0.164916
7.768
0.136938
7.7839
0.115554
7.75855
0.0876256
7.78071
0.0637131
7.73399
0.038456
7.79793
0.00668483
7.81875
-0.0192758
7.79296
-0.044515
7.73373
-0.0743192
7.79217
-0.10078
7.73844
-0.130691
7.7525
-0.167034
7.83528
-0.228138
7.90505
-0.278864
7.72392
-0.406275
8.09116
-0.693279
7.75528
7.56237
0.59296
7.02162
0.410141
7.94534
0.237485
8.32335
0.186978
7.75859
0.126831
7.98842
0.095791
7.88077
0.0843212
7.75638
0.0774158
7.77427
0.0739835
7.78506
0.0768808
7.7557
0.0771891
7.78283
0.074255
7.73785
0.0778377
7.79398
0.07672
7.8198
0.0769379
7.79273
0.0723128
7.73833
0.0674179
7.79704
0.0628224
7.74303
0.0561982
7.75916
0.0294541
7.86208
-0.0266366
7.96124
-0.0465735
7.74393
-0.219373
8.26437
-0.372159
7.90839
7.19322
-3.0512
10.0739
-3.39138
8.2853
-2.76513
7.69678
-2.62065
7.61484
-2.30384
7.67294
-1.93265
7.51408
-1.65636
7.47933
-1.37122
7.48762
-1.07952
7.49112
-0.785607
7.46134
-0.489053
7.48864
-0.205796
7.45515
0.099224
7.48861
0.403798
7.51525
0.694857
7.5017
0.967205
7.46596
1.2637
7.50054
1.54044
7.4663
1.83491
7.46468
2.19638
7.50063
2.50187
7.65585
2.65978
7.58612
3.23492
7.68957
2.95131
8.19251
10.1447
-4.25666
14.3328
-4.36552
8.39234
-4.20061
7.52911
-3.9084
7.32431
-3.32901
7.09768
-2.80155
6.99067
-2.358
7.03403
-1.9151
7.04061
-1.45853
7.03251
-1.01613
7.01906
-0.55938
7.03477
-0.118571
7.01446
0.343321
7.02663
0.811409
7.04737
1.25922
7.05406
1.6783
7.0469
2.13046
7.04837
2.56753
7.02923
3.02178
7.01046
3.57217
6.95027
4.13015
7.0979
4.44199
7.27443
4.61399
7.51763
4.56516
8.24194
14.7087
-2.7481
17.084
-4.86994
10.51
-4.99329
7.64629
-4.14917
6.48474
-3.62956
6.5841
-3.18488
6.54962
-2.69464
6.54193
-2.20157
6.54231
-1.7037
6.53301
-1.21901
6.53479
-0.722475
6.5409
-0.241238
6.53289
0.261231
6.52441
0.762695
6.5464
1.25766
6.55934
1.71718
6.58738
2.20578
6.55971
2.69445
6.54053
3.18881
6.51613
3.66405
6.4752
4.24609
6.5159
5.09686
6.42373
4.71927
7.8951
2.77993
10.1812
17.488
2.37348
14.714
0.177898
12.7002
-5.0191
12.8366
-3.90072
5.37195
-3.79862
6.49318
-3.30118
6.05692
-2.85778
6.09606
-2.3568
6.0363
-1.84159
6.01672
-1.32689
6.02071
-0.81092
6.0263
-0.304684
6.02586
0.215292
6.00485
0.74287
6.01962
1.26379
6.03869
1.78399
6.06704
2.2788
6.06463
2.75911
6.06007
3.19857
6.0767
3.751
5.92293
3.97128
6.29567
5.10303
5.29162
-0.177593
13.1753
-2.3987
12.4019
15.0894
2.45494
12.2634
3.52722
11.6241
3.43785
12.9193
-0.829984
9.64191
-3.60214
9.27609
-3.19585
5.65728
-2.95529
5.85365
-2.46754
5.54336
-1.94623
5.49438
-1.46348
5.53803
-0.97402
5.53625
-0.471174
5.52266
0.0294369
5.50515
0.536366
5.51395
1.03293
5.54255
1.52211
5.57757
2.02166
5.56446
2.48169
5.59968
2.61458
5.94414
2.96819
5.57028
-0.0886734
9.35298
-4.1605
9.36446
-3.87731
12.8912
-2.95739
11.4812
12.1318
1.87949
10.3882
3.87684
9.6275
5.79463
10.9953
4.97632
10.4546
4.0547
10.2083
-1.25508
10.9609
-2.38427
6.9721
-2.04413
5.20292
-1.63081
5.07991
-1.13824
5.04437
-0.60318
5.00016
-0.0613574
4.98119
0.472944
4.97262
1.01064
4.9784
1.55068
5.0032
2.05956
5.06787
2.44564
5.17701
2.79824
5.24638
1.55103
7.19192
-3.63998
10.7618
-4.24581
9.95966
-4.88238
10.0005
-3.05975
11.0684
-1.33748
9.75826
10.7937
1.09348
9.30007
2.16844
8.55169
3.98159
9.17664
4.94403
9.48688
5.06129
10.0881
5.7766
10.2507
2.71374
10.0317
1.09577
6.81661
-0.0766832
6.25109
-0.387018
5.3546
-0.244947
4.85714
0.0481203
4.68852
0.397821
4.62449
0.720618
4.65696
0.932144
4.79173
0.813139
5.18592
-0.506457
6.4951
-2.31011
7.04939
-5.02639
9.90883
-4.27555
10.0126
-3.96647
9.65011
-3.4975
9.53092
-1.84967
9.42028
-0.749872
8.65823
10.0435
2.02016
7.28923
3.21027
7.36844
4.42171
7.96557
5.96767
7.93472
7.04616
9.00228
6.63184
10.6695
4.63721
12.0341
2.11193
9.34103
0.848358
7.51876
0.142789
6.06413
-0.0437389
5.04935
-0.0752899
4.72712
-0.036886
4.59346
-0.0258418
4.65197
-0.156096
4.92688
-0.784343
5.81735
-2.31911
8.03147
-4.8441
9.57609
-6.74859
11.8168
-7.22622
10.4917
-6.46193
8.8844
-5.01998
8.08843
-3.71971
8.12013
-2.57006
7.50853
7.47337
2.53688
4.75746
4.13947
5.77101
4.67771
7.43357
4.31066
8.30129
4.51519
8.79469
4.23437
10.9439
4.10542
12.1633
2.48079
10.9683
1.32058
8.6797
0.577996
6.80686
0.219045
5.40716
-0.076215
5.02144
-0.379642
4.89571
-0.685774
4.95714
-1.04096
5.2813
-1.88413
6.66017
-3.17366
9.32024
-4.87878
11.2832
-5.89005
12.8322
-6.28791
10.8918
-5.88978
8.48902
-5.89908
8.09776
-4.94094
7.16226
-2.93863
5.50637
4.53489
3.16354
1.59458
6.24545
2.68977
8.45683
5.2221
8.20791
8.54911
6.43041
10.5772
5.92375
11.4513
5.58528
12.4989
4.90717
11.6454
4.15882
9.42537
3.24454
7.71723
1.96914
6.67802
0.801099
6.18499
-0.34255
6.03548
-1.53338
6.14534
-2.8749
6.6207
-3.96664
7.74982
-4.36475
9.7164
-4.72429
11.6431
-4.44416
12.5526
-5.06792
11.5148
-7.33036
10.7509
-7.82427
8.59159
-5.77815
5.11567
-2.95726
2.68539
1.57764
1.19714
0.397302
2.91121
0.975131
4.95655
3.17374
6.51372
6.98609
5.7432
11.3547
5.44775
11.7484
5.43109
12.5146
4.88261
12.1922
3.82389
10.4821
2.66136
8.8767
1.50793
7.82891
0.383095
7.30747
-0.746947
7.16389
-1.89921
7.29673
-3.13654
7.85737
-4.42391
9.03633
-5.44126
10.7327
-5.87765
12.0788
-5.80903
12.4831
-6.03133
11.7359
-6.68633
11.406
-4.93875
6.8462
-2.96887
3.14613
-1.21034
0.926714
0.366906
0.58042
-0.184247
0.856458
0.69841
1.00164
3.02731
1.28113
6.70236
2.2888
10.3504
2.94736
11.0913
3.44599
12.016
3.33867
12.2995
2.65098
11.1685
1.7933
9.73182
0.944568
8.67572
0.10424
8.14674
-0.728336
7.99609
-1.60357
8.17155
-2.5341
8.78716
-3.4711
9.97237
-4.09589
11.3563
-4.07401
12.0556
-3.43784
11.8461
-2.74234
11.039
-1.65013
10.3134
-1.15307
6.34869
-0.894729
2.88782
-0.5909
0.62171
-0.225861
-0.153521
-0.0309989
-0.301338
0.845818
-0.774186
3.5007
-0.712351
6.64048
0.396849
9.24179
1.34015
10.1474
1.92835
11.4271
2.05587
12.1719
1.76128
11.4616
1.27254
10.2176
0.715999
9.23032
0.157536
8.70474
-0.404374
8.55789
-0.967692
8.73427
-1.52399
9.34274
-1.97689
10.4247
-2.17649
11.5551
-1.96767
11.8458
-1.30579
11.1836
-0.306091
10.0382
0.802137
9.20464
0.758788
6.39194
0.36901
3.27764
0.203388
0.786453
-0.0233481
-0.605727
0.574993
-1.45938
1.69988
-1.82715
3.86781
-1.82099
6.63569
-0.916095
8.33392
-0.0455492
9.2753
0.478061
10.9034
0.776354
11.8722
0.853042
11.3827
0.734038
10.3337
0.502408
9.46054
0.217344
8.98972
-0.0697043
8.84493
-0.340672
9.00485
-0.539909
9.54154
-0.598234
10.4829
-0.46134
11.4179
-0.1942
11.5777
0.428891
10.5607
1.28295
9.18243
2.15849
8.32836
2.03266
6.51706
1.57351
3.7359
0.598618
1.76013
0.573884
-0.426507
1.00247
-1.56478
2.83899
-2.47675
4.78006
-2.5743
6.73499
-2.06958
7.82794
-1.59338
8.79863
-1.01966
10.3285
-0.496399
11.3473
-0.144503
11.0287
-0.000861877
10.1882
0.015376
9.44378
-0.0406853
9.04592
-0.132793
8.93708
-0.192884
9.06491
-0.175006
9.52357
-0.00991426
10.3179
0.347256
11.0608
0.844766
11.0799
1.34313
10.0619
1.89365
8.63106
2.4528
7.76863
2.36947
6.59964
1.42699
4.67849
0.391839
2.79383
0.966232
-0.40558
1.40952
-1.4483
3.88261
-2.2402
5.57341
-2.43099
6.92688
-2.19138
7.58715
-1.8932
8.49964
-1.44598
9.88126
-0.919087
10.819
-0.480107
10.5892
-0.216509
9.92438
-0.098208
9.32586
-0.0586508
9.00653
-0.0254509
8.90397
0.025699
9.01391
0.159694
9.3896
0.434327
10.0435
0.867477
10.6279
1.37279
10.5745
1.78359
9.65174
2.09635
8.31721
2.3574
7.50683
2.14133
6.81476
1.32927
5.49005
0.360642
3.76294
1.32562
-0.349481
1.76092
-1.25428
4.79001
-2.07785
6.39906
-2.43396
7.28406
-2.3966
7.55011
-2.16461
8.26804
-1.77267
9.48911
-1.20722
10.2532
-0.703181
10.0853
-0.349199
9.57107
-0.137472
9.11445
0.0220796
8.84708
0.147717
8.7783
0.307283
8.85452
0.53917
9.15771
0.928691
9.65388
1.43784
10.1189
1.96602
10.0464
2.28872
9.32863
2.49617
8.10889
2.52751
7.47462
2.14963
7.19187
1.26933
6.37031
0.367251
4.66463
1.69473
-0.440945
2.20307
-1.40652
5.75838
-2.22109
7.21611
-2.54823
7.61229
-2.58618
7.58691
-2.46361
8.14468
-2.16181
9.18729
-1.65638
9.74809
-1.14818
9.57875
-0.742271
9.16627
-0.446663
8.81915
-0.229835
8.63003
-0.0227695
8.57112
0.194835
8.63703
0.488428
8.86423
0.875229
9.26732
1.35064
9.64373
1.82722
9.56994
2.15521
9.00154
2.28885
7.97515
2.22661
7.53586
1.95898
7.45881
1.22381
7.10528
0.354594
5.53597
2.05283
-0.352156
2.55597
-1.20755
6.61594
-1.95767
7.96692
-2.18952
7.84503
-2.36793
7.76376
-2.28083
8.05835
-1.98954
8.89621
-1.49062
9.25063
-1.00753
9.09664
-0.617885
8.77681
-0.31792
8.51874
-0.0541439
8.36595
0.17927
8.33751
0.442883
8.37353
0.7532
8.55401
1.17666
8.84379
1.65811
9.1623
2.10821
9.11958
2.3448
8.7649
2.41758
7.90222
2.21341
7.73843
1.92948
7.74174
1.15381
7.88007
0.338346
6.35705
2.3929
-0.292748
2.84926
-1.17683
7.50334
-1.91459
8.70488
-2.08897
8.01796
-2.23715
7.90923
-2.17295
7.99313
-1.92064
8.64419
-1.49116
8.82258
-1.04129
8.64785
-0.643149
8.37876
-0.302254
8.17742
-0.0189248
8.08217
0.265289
8.05317
0.554471
8.08442
0.903996
8.20472
1.29903
8.44902
1.73888
8.72245
2.15365
8.70458
2.39217
8.52642
2.43692
7.85752
2.27518
7.89846
2.09296
7.9248
1.35896
8.61555
0.431354
7.28748
2.82536
-0.535094
3.38463
-1.43572
8.40654
-2.06271
9.32986
-2.21236
8.16636
-2.40932
8.10452
-2.45133
8.03578
-2.24627
8.4399
-1.78898
8.36624
-1.33282
8.19126
-0.936641
7.98126
-0.611194
7.85093
-0.294704
7.76536
-0.00251333
7.76079
0.310718
7.77124
0.64523
7.87029
1.05504
8.03911
1.48437
8.29284
1.87713
8.31117
2.07413
8.32899
2.05156
7.88078
1.91127
8.03878
1.70204
8.13338
1.10241
9.22166
0.366771
8.03256
3.19148
-0.455036
3.83961
-1.26627
9.22001
-1.9345
9.99713
-2.00847
8.23931
-2.03458
8.12867
-2.02622
8.02757
-1.82315
8.23686
-1.466
8.00853
-1.0876
7.8114
-0.725963
7.61869
-0.378496
7.50297
-0.0754991
7.46198
0.239505
7.44567
0.549695
7.46097
0.897384
7.52248
1.26081
7.67549
1.64251
7.91055
1.99781
7.95483
2.17641
8.15001
2.14655
7.91025
2.12701
8.05682
1.96737
8.29384
1.36999
9.82125
0.533629
8.86306
3.72466
-0.406048
4.24498
-0.805734
9.61993
-1.53055
10.7213
-1.74071
8.44764
-1.82266
8.20985
-1.78635
7.99258
-1.65545
8.1052
-1.32699
7.67838
-0.981892
7.46447
-0.653683
7.28862
-0.366922
7.21508
-0.0633553
7.15816
0.222631
7.15947
0.523106
7.16031
0.82261
7.2227
1.18117
7.31652
1.52399
7.56715
1.80614
7.67189
1.91429
8.04062
1.96204
7.86342
1.90086
8.11691
1.77929
8.41467
1.08041
10.5149
0.572804
9.37879
4.31983
-0.65577
4.90164
-1.11568
10.0818
-1.80948
11.4147
-1.9698
8.60647
-1.95503
8.19348
-1.88832
7.92544
-1.70675
7.92149
-1.41964
7.38854
-1.12444
7.16692
-0.829093
6.99204
-0.514902
6.90036
-0.232906
6.87575
0.0662868
6.86002
0.355203
6.87113
0.664175
6.91329
0.952621
7.0274
1.24636
7.27252
1.52907
7.38767
1.6861
7.8824
1.73966
7.80882
1.7507
8.1047
1.63721
8.52578
0.806408
11.3529
0.43339
9.76497
4.78046
-0.459216
5.35882
-0.765541
10.3865
-1.35663
12.0057
-1.58966
8.83858
-1.65687
8.25994
-1.6057
7.87339
-1.45508
7.768
-1.19476
7.12511
-0.901183
6.87159
-0.602092
6.69147
-0.343955
6.64144
-0.0586653
6.59014
0.207472
6.59357
0.487172
6.5911
0.753812
6.64632
1.06477
6.71601
1.34839
6.98826
1.58882
7.14699
1.73988
7.73024
1.77982
7.76781
1.72236
8.16146
1.45008
8.79679
1.00662
11.7981
0.441505
10.3408
5.18731
-0.325298
5.68601
-0.466742
10.5255
-0.973241
12.5113
-1.52572
9.38916
-1.56787
8.30056
-1.48115
7.78598
-1.26296
7.54708
-1.05165
6.91095
-0.824217
6.64242
-0.592592
6.45869
-0.321899
6.37022
-0.0827577
6.35059
0.177909
6.33255
0.421948
6.34676
0.681399
6.38641
0.91508
6.48179
1.15246
6.74993
1.37749
6.92035
1.56505
7.54224
1.64082
7.69383
1.67604
8.12648
1.23646
9.23176
0.724162
12.3188
0.299848
10.7525
5.46865
-0.437149
6.12576
-0.675538
10.7576
-0.939795
12.7772
-1.57983
10.0314
-1.55802
8.27887
-1.50869
7.73399
-1.37274
7.40665
-1.13087
6.66658
-0.90606
6.41577
-0.650444
6.20225
-0.435699
6.15485
-0.186386
6.10095
0.0396307
6.10617
0.282272
6.10384
0.513749
6.15473
0.772859
6.22217
0.984598
6.53798
1.20102
6.70292
1.33858
7.40266
1.3742
7.65629
1.32343
8.17727
0.692199
9.86223
0.416043
12.5815
0.248255
10.9149
5.68687
-0.23968
6.36828
-0.330388
10.8463
-0.466237
12.9144
-1.23432
10.7954
-1.37734
8.41891
-1.3351
7.69083
-1.12135
7.1897
-0.900563
6.44453
-0.702792
6.2178
-0.511693
6.01005
-0.272896
5.91562
-0.0638814
5.89156
0.172841
5.86915
0.3895
5.88689
0.61404
5.92987
0.807071
6.0289
1.02694
6.31738
1.26395
6.46519
1.44113
7.22538
1.47424
7.62407
1.38532
8.26821
0.65251
10.5979
0.592821
12.631
0.53227
10.9719
6.24022
-0.0380993
6.40989
-0.0589229
10.8665
-0.0755611
12.9323
-0.763552
11.483
-1.18879
8.8454
-1.12147
7.62343
-1.02268
7.08963
-0.841417
6.26131
-0.654046
6.02829
-0.441007
5.79681
-0.264987
5.73912
-0.0563991
5.68275
0.132452
5.68003
0.339629
5.6795
0.526385
5.74277
0.749626
5.80495
0.924364
6.14197
1.10569
6.28325
1.25618
7.07301
1.33878
7.53937
0.951885
8.65438
0.285349
11.2691
0.2682
12.652
0.280166
10.9301
6.59054
-0.222897
6.63539
-0.382223
11.027
-0.222797
12.773
-0.70511
11.969
-1.31247
9.4536
-1.22123
7.53026
-1.05683
6.92129
-0.86766
6.07078
-0.686801
5.84742
-0.531728
5.64124
-0.336184
5.54336
-0.16152
5.50777
0.0352955
5.483
0.211471
5.50302
0.401618
5.55251
0.56384
5.64246
0.762983
5.94159
0.936147
6.10866
1.03709
6.97018
1.11229
7.46283
0.458832
9.31182
-0.0981779
11.8276
0.0329997
12.5207
0.0686431
10.9411
6.69164
-0.0329915
6.67153
-0.0667453
11.0631
0.126371
12.5822
-0.154698
12.2509
-0.861093
10.1572
-0.943764
7.61272
-0.852006
6.82988
-0.726293
5.94666
-0.575472
5.69749
-0.379132
5.44476
-0.221445
5.3854
-0.0405812
5.32675
0.126965
5.31518
0.306866
5.32286
0.471773
5.38692
0.675975
5.43763
0.815407
5.8013
0.959561
5.96445
1.09768
6.83139
1.00963
7.54938
0.366752
9.95355
0.100799
12.0955
0.226488
12.4176
0.172734
11.0264
6.82968
0.0185294
6.65655
0.0690451
11.0149
0.27568
12.3784
0.269059
12.2628
-0.482165
10.9117
-0.901695
8.03332
-0.730547
6.65851
-0.624102
5.83852
-0.48592
5.55702
-0.365121
5.32406
-0.198762
5.21901
-0.0487779
5.17648
0.115247
5.15093
0.265977
5.17175
0.423576
5.22912
0.556823
5.30398
0.725141
5.63115
0.826967
5.86075
1.02546
6.63134
0.740559
7.83305
-0.0193372
10.7125
-0.140848
12.2225
0.0164631
12.2643
-0.0495565
11.0914
6.7555
-0.126708
6.78738
-0.102309
10.9939
0.0474182
12.2311
0.170429
12.144
-0.287252
11.3705
-0.777011
8.52274
-0.783312
6.66252
-0.666337
5.72165
-0.576586
5.47082
-0.409121
5.15663
-0.275487
5.08506
-0.120614
5.02143
0.0228534
5.00715
0.170927
5.0233
0.311743
5.08762
0.472039
5.14324
0.553083
5.54917
0.629973
5.78298
0.68753
6.57249
0.116603
8.40498
-0.488106
11.3115
-0.345844
12.0821
-0.299272
12.2414
-0.149432
10.9867
6.53905
-0.0367821
6.82904
0.0271344
10.9345
0.179445
12.0808
0.541133
11.784
0.160703
11.7475
-0.458508
9.14418
-0.641618
6.84856
-0.50609
5.58886
-0.408277
5.3722
-0.313913
5.06243
-0.172423
4.94359
-0.0402744
4.88902
0.104781
4.86184
0.24174
4.88597
0.375546
4.95351
0.484887
5.03379
0.620787
5.41205
0.741205
5.66242
0.612321
6.69945
0.0382014
8.97581
-0.326493
11.68
-0.102812
11.8653
0.0161396
12.105
0.107802
10.7799
6.64374
0.0915723
6.74133
0.254853
10.7771
0.301875
12.0355
0.549093
11.5389
0.722528
11.5822
0.0289392
9.84478
-0.440933
7.31988
-0.448775
5.59652
-0.382042
5.30505
-0.262512
4.94351
-0.157509
4.83829
-0.0312645
4.76263
0.0903312
4.73994
0.217582
4.75825
0.331013
4.83952
0.448136
4.91614
0.533877
5.32486
0.585183
5.60974
0.280654
7.00497
-0.517607
9.77369
-0.472926
11.6392
-0.196463
11.5832
-0.135854
12.0119
-0.0229199
10.6514
6.64585
-0.124963
6.87006
-0.0135565
10.6726
0.0858409
11.9381
0.332539
11.2941
0.661474
11.2507
0.114157
10.3938
-0.369503
7.80098
-0.464777
5.69453
-0.375874
5.21719
-0.309194
4.87704
-0.206425
4.73543
-0.098288
4.65415
0.0225744
4.61883
0.13258
4.64788
0.233471
4.73822
0.306858
4.84312
0.387581
5.24318
0.29551
5.7014
-0.18218
7.47779
-0.841411
10.433
-0.566136
11.3659
-0.334176
11.3389
-0.251574
11.933
-0.062928
10.4987
6.60956
0.0474911
6.82506
0.229145
10.4967
0.27453
11.8919
0.459945
11.1084
0.857805
10.8513
0.749806
10.5031
0.0278158
8.52909
-0.303531
6.03155
-0.306629
5.22235
-0.211309
4.78208
-0.12892
4.65284
-0.0287526
4.5538
0.0747556
4.51496
0.177853
4.54424
0.267061
4.6486
0.353081
4.75694
0.377413
5.21784
0.104461
5.97412
-0.558606
8.13933
-0.804681
10.6797
-0.368012
10.9255
-0.133272
11.0979
-0.0838869
11.9156
0.0413046
10.4091
6.67735
0.0643263
6.76236
0.292531
10.2743
0.403139
11.7811
0.575046
10.9374
0.873175
10.5573
0.981279
10.3949
0.352451
9.16035
-0.0703081
6.453
-0.206479
5.35538
-0.163081
4.73827
-0.0927067
4.58266
-0.0184239
4.4793
0.0720552
4.42424
0.150952
4.46504
0.232129
4.56698
0.300084
4.68869
0.212591
5.30372
-0.177059
6.36395
-0.864309
8.82563
-0.706882
10.5222
-0.401349
10.6161
-0.230833
10.9235
-0.156352
11.8546
0.0279764
10.2585
6.72661
-0.0195697
6.78262
0.149928
10.1094
0.268516
11.6616
0.408384
10.7955
0.63078
10.3296
1.02561
9.99978
0.774114
9.41219
0.0735791
7.15485
-0.209368
5.64706
-0.186126
4.71677
-0.127525
4.5243
-0.0566347
4.4085
0.00810937
4.35939
0.0723187
4.40059
0.13337
4.50598
0.162593
4.66001
-0.106161
5.57181
-0.777486
7.03328
-1.22119
9.26498
-0.788283
10.0851
-0.568774
10.3964
-0.434796
10.7867
-0.287034
11.712
-0.0637688
10.0358
6.68055
-0.0133493
6.79521
0.250381
9.84642
0.438828
11.472
0.535375
10.6945
0.736878
10.1261
1.01033
9.72588
0.998736
9.43225
0.437189
7.72357
0.0204242
6.06732
-0.0966679
4.83345
-0.061377
4.48855
-0.0136142
4.36053
0.0352964
4.31038
0.0891241
4.34652
0.13211
4.46266
0.0556926
4.7362
-0.2975
5.92418
-0.8859
7.62019
-1.02692
9.40804
-0.705175
9.77075
-0.477795
10.1732
-0.383742
10.6926
-0.163645
11.4747
0.0863239
9.76453
6.76667
0.0318513
6.76647
0.291614
9.58253
0.55388
11.2076
0.63679
10.6106
0.785578
9.97328
0.959852
9.54959
1.337
9.0512
0.91107
8.14665
0.216012
6.76625
0.00637788
5.0471
-0.0135536
4.50904
0.0110024
4.33619
0.030423
4.2909
0.063076
4.31364
0.0646471
4.46153
-0.116923
4.9183
-0.822646
6.62861
-1.2385
8.0347
-0.966925
9.13395
-0.746138
9.54976
-0.565479
9.99207
-0.460593
10.5823
-0.191407
11.1876
0.0513598
9.50525
6.81364
0.0606798
-0.418165
0.0991096
-0.565949
0.11395
-0.675521
0.138487
-0.879802
0.134866
-1.0214
0.135466
-1.08476
0.134577
-1.10399
0.109821
-0.999905
0.0907076
-0.892519
0.0742887
-0.754118
0.0571664
-0.645746
0.073138
-0.681364
0.0749851
-0.779996
0.107612
-1.07289
0.145769
-1.41012
0.0901976
-1.85862
-0.0179036
-2.22528
-0.127191
-2.40799
-0.172068
-2.47794
-0.183446
-2.47972
-0.22158
-2.50369
-0.29486
-2.6065
-0.293133
-2.73775
-0.265014
-2.80903
-0.22218
-2.87196
-0.175365
-2.9254
-0.121833
-2.95872
-0.0693352
-3.00824
-0.0210317
-3.01906
-3.05253
0.078335
-0.513917
0.12411
-0.682396
0.164939
-0.822861
0.185006
-1.03241
0.183326
-1.16201
0.144745
-1.22938
0.103754
-1.15659
0.072918
-1.05263
0.0527994
-0.942716
0.0282508
-0.81441
0.0356943
-0.725374
0.0599608
-0.808982
0.0745011
-0.926347
0.110934
-1.23108
0.125391
-1.55821
0.060505
-1.99866
-0.0344301
-2.27206
-0.130449
-2.37076
-0.158135
-2.40018
-0.182238
-2.33728
-0.21439
-2.38514
-0.266293
-2.53466
-0.269503
-2.66148
-0.240028
-2.71955
-0.199055
-2.77816
-0.159126
-2.82181
-0.114056
-2.86047
-0.0686817
-2.91214
-0.0226418
-2.92118
-2.93583
0.0708563
-0.653295
0.109882
-0.832932
0.128818
-0.993361
0.118021
-1.19205
0.0953265
-1.37418
0.0541466
-1.32977
0.0204366
-1.1894
-0.00457865
-1.08042
-0.0225623
-0.977281
-0.0324726
-0.865479
-0.0269174
-0.817332
-0.00533793
-0.884919
0.00884745
-1.03393
0.0226267
-1.33325
0.00434402
-1.63465
-0.0578257
-2.04165
-0.133513
-2.24405
-0.199664
-2.29935
-0.215091
-2.30037
-0.242991
-2.27304
-0.273007
-2.273
-0.310757
-2.46248
-0.303309
-2.57047
-0.26717
-2.63121
-0.224255
-2.68193
-0.179184
-2.71983
-0.129631
-2.7594
-0.0876792
-2.80422
-0.0359507
-2.82016
-2.82175
0.0548896
-0.806713
0.0812767
-1.01781
0.0930862
-1.19191
0.0676111
-1.3602
0.0227792
-1.42676
-0.0261398
-1.35787
-0.0630035
-1.20669
-0.0890474
-1.10303
-0.107912
-1.00979
-0.111409
-0.921906
-0.100216
-0.921435
-0.0854337
-0.999761
-0.0720886
-1.18773
-0.0682535
-1.46294
-0.0889638
-1.72473
-0.149448
-2.05956
-0.230895
-2.17682
-0.252724
-2.20403
-0.267666
-2.14151
-0.28811
-2.18005
-0.323287
-2.2394
-0.344805
-2.39201
-0.327429
-2.48148
-0.286245
-2.54423
-0.241538
-2.58438
-0.19278
-2.61834
-0.143773
-2.65465
-0.0961513
-2.69695
-0.0392408
-2.7188
-2.72252
0.0637593
-0.965892
0.0922862
-1.19648
0.0777427
-1.35401
0.0237681
-1.47077
-0.0276168
-1.45932
-0.0693639
-1.37804
-0.101926
-1.25485
-0.127396
-1.16472
-0.146696
-1.08801
-0.151574
-1.03632
-0.144333
-1.06844
-0.132168
-1.16907
-0.118697
-1.3664
-0.125973
-1.59402
-0.154697
-1.87799
-0.226917
-2.04527
-0.263695
-2.10059
-0.264698
-2.03485
-0.2831
-2.05719
-0.301626
-2.11392
-0.344699
-2.19644
-0.353361
-2.31557
-0.324219
-2.38885
-0.286135
-2.44462
-0.239598
-2.48025
-0.190778
-2.51284
-0.141871
-2.54628
-0.0921711
-2.58787
-0.0443639
-2.60473
-2.60398
0.0619612
-1.09058
0.0803107
-1.33527
0.0487462
-1.47096
-0.0155367
-1.54358
-0.0674765
-1.50151
-0.101064
-1.42907
-0.13709
-1.35307
-0.162086
-1.29114
-0.180961
-1.23402
-0.185637
-1.23209
-0.17902
-1.29408
-0.165887
-1.39738
-0.15293
-1.56817
-0.166608
-1.71666
-0.224796
-1.92476
-0.285102
-1.994
-0.275057
-2.00341
-0.281882
-1.93906
-0.298391
-1.97691
-0.314423
-2.02819
-0.357236
-2.1377
-0.351987
-2.22936
-0.319172
-2.28621
-0.280659
-2.33613
-0.233264
-2.3727
-0.185795
-2.41269
-0.136585
-2.44722
-0.0875216
-2.48615
-0.0390525
-2.50102
-2.48104
0.0533253
-1.16929
0.0592472
-1.44537
-0.00118208
-1.53593
-0.0686038
-1.56768
-0.117248
-1.51828
-0.138513
-1.4873
-0.178224
-1.46471
-0.209844
-1.51063
-0.227853
-1.48105
-0.227934
-1.50629
-0.218318
-1.54183
-0.202521
-1.59362
-0.191111
-1.68288
-0.209119
-1.74464
-0.295561
-1.88381
-0.300481
-1.91404
-0.295487
-1.88771
-0.301752
-1.86389
-0.314273
-1.91131
-0.32901
-1.96778
-0.363203
-2.06683
-0.34854
-2.13587
-0.312679
-2.18272
-0.274367
-2.22912
-0.228725
-2.26869
-0.183327
-2.31024
-0.136105
-2.34439
-0.0880362
-2.3814
-0.043728
-2.39356
-2.37
0.0343249
-1.23366
0.0126898
-1.50306
-0.049022
-1.56987
-0.128054
-1.5699
-0.173107
-1.53382
-0.20999
-1.5233
-0.238093
-1.5369
-0.263483
-1.56476
-0.274417
-1.56574
-0.270904
-1.58804
-0.254846
-1.61114
-0.236019
-1.64266
-0.231593
-1.69381
-0.260491
-1.7318
-0.321035
-1.81733
-0.31654
-1.80602
-0.316192
-1.73203
-0.321592
-1.79076
-0.332033
-1.84495
-0.345405
-1.91005
-0.367378
-1.98782
-0.345128
-2.03608
-0.309348
-2.07492
-0.272285
-2.11995
-0.226592
-2.15891
-0.183314
-2.19772
-0.137087
-2.23281
-0.090861
-2.26786
-0.045131
-2.27984
-2.25194
0.0227833
-1.26914
-0.025501
-1.53989
-0.103156
-1.59641
-0.194507
-1.56713
-0.24938
-1.54494
-0.283372
-1.54692
-0.313639
-1.56419
-0.323339
-1.55911
-0.319569
-1.56146
-0.310162
-1.58373
-0.294912
-1.61339
-0.27945
-1.64513
-0.275252
-1.68081
-0.295365
-1.686
-0.326448
-1.7004
-0.327523
-1.69002
-0.331663
-1.66303
-0.338646
-1.71943
-0.348996
-1.77759
-0.372624
-1.84438
-0.368176
-1.89778
-0.341108
-1.93036
-0.305436
-1.96525
-0.270009
-2.00788
-0.226538
-2.04791
-0.182985
-2.08935
-0.137379
-2.12672
-0.0907828
-2.16145
-0.0453072
-2.17161
-2.1416
-0.0081501
-1.28891
-0.068226
-1.57935
-0.165915
-1.59534
-0.262182
-1.52346
-0.323776
-1.49533
-0.362404
-1.50108
-0.378272
-1.52029
-0.390637
-1.52682
-0.380697
-1.53288
-0.369277
-1.56014
-0.347444
-1.58355
-0.322757
-1.59658
-0.310974
-1.60424
-0.320314
-1.59042
-0.335283
-1.59152
-0.335755
-1.57722
-0.343335
-1.58859
-0.352674
-1.64545
-0.363167
-1.70932
-0.384475
-1.76738
-0.366377
-1.79905
-0.335807
-1.82554
-0.302847
-1.86031
-0.26822
-1.9008
-0.227279
-1.94418
-0.182294
-1.98872
-0.135968
-2.0248
-0.0892805
-2.05637
-0.0436547
-2.06277
-2.03191
-0.0314925
-1.29472
-0.107791
-1.58101
-0.224292
-1.54418
-0.326267
-1.43001
-0.388357
-1.3877
-0.424377
-1.38636
-0.44445
-1.40121
-0.449684
-1.41497
-0.437173
-1.41974
-0.414664
-1.45579
-0.384335
-1.47386
-0.355278
-1.4861
-0.337613
-1.49025
-0.337186
-1.45923
-0.340321
-1.47481
-0.342683
-1.43222
-0.354206
-1.51939
-0.366081
-1.58048
-0.383328
-1.63652
-0.383056
-1.67664
-0.364811
-1.70132
-0.333339
-1.72967
-0.301678
-1.76392
-0.266749
-1.80382
-0.226667
-1.84857
-0.18118
-1.89447
-0.135217
-1.927
-0.0911875
-1.95337
-0.046814
-1.96234
-1.93469
-0.0610254
-1.27927
-0.144187
-1.53304
-0.28232
-1.4531
-0.375913
-1.30336
-0.438822
-1.24221
-0.473658
-1.23715
-0.490629
-1.24967
-0.488728
-1.27106
-0.470703
-1.27711
-0.441866
-1.31162
-0.410832
-1.33699
-0.382329
-1.35887
-0.362713
-1.37349
-0.355764
-1.36868
-0.351606
-1.37766
-0.356279
-1.37515
-0.368607
-1.45024
-0.379473
-1.51346
-0.391835
-1.55909
-0.384675
-1.58578
-0.362993
-1.61133
-0.333624
-1.643
-0.301374
-1.67667
-0.26517
-1.71769
-0.225216
-1.76184
-0.180929
-1.80679
-0.136487
-1.83478
-0.0934123
-1.85856
-0.0485363
-1.87389
-1.84705
-0.0965117
-1.24609
-0.177582
-1.43522
-0.324867
-1.33941
-0.432182
-1.14813
-0.477999
-1.09639
-0.501593
-1.08338
-0.509853
-1.09894
-0.508116
-1.12483
-0.492559
-1.14643
-0.468856
-1.18728
-0.441632
-1.22317
-0.415674
-1.25736
-0.395039
-1.28195
-0.383071
-1.29572
-0.374761
-1.31394
-0.378911
-1.32662
-0.390177
-1.38791
-0.395706
-1.44635
-0.394221
-1.47996
-0.384788
-1.50366
-0.364655
-1.53262
-0.33599
-1.56586
-0.302781
-1.60041
-0.265796
-1.64236
-0.225537
-1.68542
-0.18314
-1.72745
-0.13959
-1.752
-0.0941468
-1.77692
-0.0481389
-1.79291
-1.76289
-0.132166
-1.17783
-0.212831
-1.29734
-0.382939
-1.19483
-0.456759
-1.00917
-0.501644
-0.950782
-0.522785
-0.943836
-0.528531
-0.974234
-0.528283
-1.00866
-0.519256
-1.05072
-0.501599
-1.10231
-0.479524
-1.14771
-0.457107
-1.19357
-0.43722
-1.22675
-0.422475
-1.25687
-0.411845
-1.27768
-0.411813
-1.29643
-0.418042
-1.34015
-0.414929
-1.38446
-0.404312
-1.40874
-0.388108
-1.43387
-0.366927
-1.46522
-0.340233
-1.49943
-0.305132
-1.53515
-0.26709
-1.57736
-0.226428
-1.61911
-0.184338
-1.65789
-0.140106
-1.68107
-0.093249
-1.70687
-0.0479429
-1.7187
-1.68781
-0.155334
-1.06492
-0.244137
-1.15612
-0.397077
-1.04983
-0.473555
-0.868047
-0.518029
-0.817428
-0.538964
-0.828807
-0.547145
-0.875377
-0.549743
-0.925674
-0.549404
-0.985379
-0.538649
-1.05044
-0.522242
-1.1067
-0.504233
-1.16264
-0.487503
-1.20883