/*--------------------------------*- C++ -*----------------------------------*\
| =========                 |                                                 |
| \\      /  F ield         | OpenFOAM: The Open Source CFD Toolbox           |
|  \\    /   O peration     | Version:  2112                                  |
|   \\  /    A nd           | Website:  www.openfoam.com                      |
|    \\/     M anipulation  |                                                 |
\*---------------------------------------------------------------------------*/
FoamFile
{
    version     2.0;
    format      ascii;
    arch        "LSB;label=32;scalar=64";
    class       volScalarField;
    location    "6e-05";
    object      alphat;
}
// * * * * * * * * * * * * * * * * * * * * * * * * * * * * * * * * * * * * * //

dimensions      [1 -1 -1 0 0 0 0];

internalField   nonuniform List<scalar> 
13875
(
1.1151
7.92432
10.6188
12.4049
13.4189
13.9635
14.2284
14.3452
14.3922
14.4096
14.4155
14.4174
14.4177
14.4173
14.4156
14.4098
14.3927
14.346
14.2294
13.9648
13.42
12.4055
10.6178
7.91638
1.11662
1.47196
9.23427
11.7176
13.1746
13.985
14.4055
14.603
14.6872
14.7202
14.7321
14.7362
14.7375
14.7377
14.7373
14.7359
14.7316
14.7197
14.6871
14.6035
14.4066
13.987
13.1779
11.7231
9.24523
1.48763
1.43813
8.88336
11.3361
12.6245
13.3242
13.6825
13.8464
13.9135
13.9385
13.947
13.9496
13.9503
13.9504
13.9501
13.9491
13.9462
13.9376
13.9127
13.8459
13.6823
13.3242
12.6253
11.3388
8.88261
1.43642
1.56073
11.3312
15.141
16.8262
17.7179
18.1553
18.3469
18.4228
18.4501
18.4589
18.4612
18.4617
18.4617
18.4615
18.4608
18.4584
18.4497
18.4226
18.3469
18.1555
17.7177
16.8244
15.1366
11.2959
1.55668
1.30071
10.2198
13.3017
14.4159
14.9487
15.1861
15.2823
15.3179
15.33
15.3338
15.3348
15.335
15.3349
15.3348
15.3344
15.3333
15.3294
15.3172
15.2816
15.1855
14.948
14.4165
13.2977
10.2065
1.29661
0.840175
6.2188
7.99754
8.61015
8.86227
8.95957
8.99521
9.00747
9.01146
9.01269
9.01305
9.01307
9.01296
9.01285
9.01267
9.01219
9.0108
9.00663
8.9942
8.9585
8.86124
8.61031
7.99782
6.21795
0.837572
0.346323
1.63893
2.06521
2.20215
2.25219
2.26849
2.27378
2.27545
2.27598
2.27615
2.2762
2.27621
2.27619
2.27616
2.27612
2.27602
2.2758
2.27521
2.27344
2.26805
2.25163
2.20197
2.06394
1.63536
0.344048
0.079821
0.117344
0.137813
0.142289
0.143976
0.14455
0.14475
0.144819
0.144845
0.144857
0.144862
0.144861
0.144859
0.144856
0.144853
0.144845
0.144831
0.1448
0.144722
0.144514
0.143935
0.142282
0.137801
0.117141
0.0794909
0.0488265
0.233554
0.255771
0.252956
0.251232
0.25054
0.250287
0.2502
0.250171
0.25016
0.250157
0.250158
0.25016
0.250161
0.250164
0.250169
0.250182
0.250214
0.250305
0.250562
0.251253
0.25295
0.255773
0.23393
0.048845
0.0451882
0.249378
0.300303
0.30264
0.302677
0.302672
0.302671
0.302671
0.302671
0.302671
0.302671
0.302671
0.302671
0.302671
0.302671
0.302671
0.302671
0.302671
0.302671
0.302673
0.302678
0.302641
0.300319
0.249569
0.045358
0.0398855
0.237568
0.299016
0.302727
0.302811
0.302805
0.302804
0.302804
0.302804
0.302804
0.302804
0.302804
0.302804
0.302804
0.302804
0.302804
0.302804
0.302804
0.302804
0.302805
0.302811
0.30272
0.298802
0.235866
0.0393784
0.0360818
0.226887
0.29747
0.30267
0.302815
0.302805
0.302803
0.302803
0.302803
0.302803
0.302803
0.302803
0.302803
0.302803
0.302803
0.302803
0.302803
0.302803
0.302803
0.302805
0.302814
0.302673
0.297522
0.227131
0.0360091
0.0331722
0.216812
0.295742
0.302585
0.302818
0.302807
0.302804
0.302803
0.302803
0.302803
0.302803
0.302803
0.302803
0.302803
0.302803
0.302803
0.302803
0.302803
0.302804
0.302806
0.302817
0.302598
0.296025
0.21834
0.0333201
0.0310592
0.208923
0.294192
0.302487
0.302819
0.302808
0.302804
0.302803
0.302803
0.302803
0.302803
0.302803
0.302803
0.302803
0.302803
0.302803
0.302803
0.302803
0.302804
0.302807
0.302818
0.302516
0.294746
0.211565
0.0318609
0.0299729
0.202713
0.292849
0.302378
0.302817
0.302809
0.302804
0.302803
0.302803
0.302803
0.302803
0.302803
0.302803
0.302803
0.302803
0.302803
0.302803
0.302803
0.302804
0.30281
0.30282
0.30232
0.291928
0.199172
0.0294629
0.0274612
0.191347
0.289804
0.302117
0.302811
0.302811
0.302804
0.302803
0.302803
0.302803
0.302803
0.302803
0.302803
0.302803
0.302803
0.302803
0.302803
0.302803
0.302805
0.302811
0.302812
0.302071
0.289176
0.18926
0.0269603
0.027192
0.191306
0.289995
0.302072
0.302794
0.302807
0.302804
0.302803
0.302803
0.302803
0.302803
0.302803
0.302803
0.302803
0.302803
0.302803
0.302803
0.302803
0.302804
0.302807
0.302794
0.3021
0.290332
0.192432
0.0272451
0.027104
0.193112
0.290319
0.302012
0.302771
0.302803
0.302803
0.302803
0.302803
0.302803
0.302803
0.302803
0.302803
0.302803
0.302803
0.302803
0.302803
0.302803
0.302803
0.302803
0.302769
0.301998
0.290218
0.192855
0.0271262
0.0257347
0.179766
0.285323
0.301371
0.302702
0.302795
0.302802
0.302803
0.302803
0.302803
0.302803
0.302803
0.302803
0.302803
0.302803
0.302803
0.302803
0.302803
0.302802
0.302796
0.302717
0.301534
0.2866
0.183081
0.0261872
0.0249997
0.16975
0.280476
0.300649
0.302621
0.302785
0.302801
0.302803
0.302803
0.302803
0.302803
0.302803
0.302803
0.302803
0.302803
0.302803
0.302803
0.302803
0.302801
0.302785
0.302617
0.3006
0.280098
0.168805
0.0247039
0.0278287
0.181954
0.285058
0.30124
0.302676
0.302791
0.302802
0.302803
0.302803
0.302803
0.302803
0.302803
0.302803
0.302803
0.302803
0.302803
0.302803
0.302803
0.302801
0.302789
0.302658
0.301063
0.283741
0.178588
0.0272841
0.0308865
0.196521
0.289963
0.30184
0.302733
0.302797
0.302802
0.302803
0.302803
0.302803
0.302803
0.302803
0.302803
0.302803
0.302803
0.302803
0.302803
0.302803
0.302802
0.302796
0.302727
0.301782
0.289526
0.195321
0.0307955
0.0340079
0.209982
0.293587
0.302218
0.302766
0.3028
0.302803
0.302803
0.302803
0.302803
0.302803
0.302803
0.302803
0.302803
0.302803
0.302803
0.302803
0.302803
0.302803
0.3028
0.302768
0.30225
0.293968
0.211732
0.0343597
0.0371396
0.223174
0.296371
0.302461
0.302784
0.302802
0.302803
0.302803
0.302803
0.302803
0.302803
0.302803
0.302803
0.302803
0.302803
0.302803
0.302803
0.302803
0.302803
0.302802
0.302784
0.302462
0.296353
0.222984
0.0370307
0.0391365
0.230364
0.297617
0.302558
0.302791
0.302802
0.302803
0.302803
0.302803
0.302803
0.302803
0.302803
0.302803
0.302803
0.302803
0.302803
0.302803
0.302803
0.302803
0.302802
0.30279
0.302551
0.297525
0.229804
0.0390649
0.0413771
0.236947
0.298581
0.302621
0.302794
0.302803
0.302803
0.302803
0.302803
0.302803
0.302803
0.302803
0.302803
0.302803
0.302803
0.302803
0.302803
0.302803
0.302803
0.302803
0.302795
0.30263
0.298728
0.238032
0.0416051
0.0437782
0.244226
0.299506
0.302676
0.302798
0.302803
0.302803
0.302803
0.302803
0.302803
0.302803
0.302803
0.302803
0.302803
0.302803
0.302803
0.302803
0.302803
0.302803
0.302803
0.302797
0.302669
0.299368
0.243042
0.043446
0.0455501
0.24867
0.300005
0.302703
0.302799
0.302803
0.302803
0.302803
0.302803
0.302803
0.302803
0.302803
0.302803
0.302803
0.302803
0.302803
0.302803
0.302803
0.302803
0.302803
0.302799
0.302702
0.29999
0.248576
0.0456528
0.047519
0.252767
0.300418
0.302724
0.3028
0.302803
0.302803
0.302803
0.302803
0.302803
0.302803
0.302803
0.302803
0.302803
0.302803
0.302803
0.302803
0.302803
0.302803
0.302803
0.3028
0.302731
0.300573
0.25436
0.0478827
0.0499212
0.258761
0.300964
0.302749
0.302801
0.302803
0.302803
0.302803
0.302803
0.302803
0.302803
0.302803
0.302803
0.302803
0.302803
0.302803
0.302803
0.302803
0.302803
0.302803
0.302801
0.302743
0.300842
0.25732
0.0494512
0.0513648
0.261743
0.301208
0.302759
0.302802
0.302803
0.302803
0.302803
0.302803
0.302803
0.302803
0.302803
0.302803
0.302803
0.302803
0.302803
0.302803
0.302803
0.302803
0.302803
0.302802
0.302759
0.301215
0.26186
0.0515399
0.0528277
0.263905
0.301367
0.302765
0.302802
0.302803
0.302803
0.302803
0.302803
0.302803
0.302803
0.302803
0.302803
0.302803
0.302803
0.302803
0.302803
0.302803
0.302803
0.302803
0.302802
0.302768
0.301441
0.264902
0.0530558
0.0547199
0.26776
0.301637
0.302775
0.302802
0.302803
0.302803
0.302803
0.302803
0.302803
0.302803
0.302803
0.302803
0.302803
0.302803
0.302803
0.302803
0.302803
0.302803
0.302803
0.302802
0.302773
0.30158
0.266918
0.0544386
0.0558722
0.269693
0.301759
0.302779
0.302802
0.302803
0.302803
0.302803
0.302803
0.302803
0.302803
0.302803
0.302803
0.302803
0.302803
0.302803
0.302803
0.302803
0.302803
0.302803
0.302802
0.30278
0.301774
0.269928
0.0560412
0.0569966
0.270913
0.301831
0.302782
0.302802
0.302803
0.302803
0.302803
0.302803
0.302803
0.302803
0.302803
0.302803
0.302803
0.302803
0.302803
0.302803
0.302803
0.302803
0.302803
0.302803
0.302783
0.301874
0.271625
0.0571372
0.0584963
0.273582
0.301984
0.302786
0.302803
0.302803
0.302803
0.302803
0.302803
0.302803
0.302803
0.302803
0.302803
0.302803
0.302803
0.302803
0.302803
0.302803
0.302803
0.302803
0.302803
0.302785
0.301939
0.272772
0.0582334
0.0594218
0.274892
0.302054
0.302789
0.302803
0.302803
0.302803
0.302803
0.302803
0.302803
0.302803
0.302803
0.302803
0.302803
0.302803
0.302803
0.302803
0.302803
0.302803
0.302803
0.302803
0.302789
0.302062
0.275031
0.0595498
0.0603084
0.275649
0.302092
0.30279
0.302803
0.302803
0.302803
0.302803
0.302803
0.302803
0.302803
0.302803
0.302803
0.302803
0.302803
0.302803
0.302803
0.302803
0.302803
0.302803
0.302803
0.30279
0.302122
0.276244
0.0604182
0.0614637
0.27757
0.302187
0.302792
0.302803
0.302803
0.302803
0.302803
0.302803
0.302803
0.302803
0.302803
0.302803
0.302803
0.302803
0.302803
0.302803
0.302803
0.302803
0.302803
0.302803
0.302791
0.302153
0.276876
0.0612512
0.062177
0.278475
0.302229
0.302793
0.302803
0.302803
0.302803
0.302803
0.302803
0.302803
0.302803
0.302803
0.302803
0.302803
0.302803
0.302803
0.302803
0.302803
0.302803
0.302803
0.302803
0.302793
0.302234
0.278569
0.0622732
0.0628442
0.278915
0.302249
0.302794
0.302803
0.302803
0.302803
0.302803
0.302803
0.302803
0.302803
0.302803
0.302803
0.302803
0.302803
0.302803
0.302803
0.302803
0.302803
0.302803
0.302803
0.302794
0.302272
0.27944
0.0629329
0.0636973
0.28033
0.302312
0.302795
0.302803
0.302803
0.302803
0.302803
0.302803
0.302803
0.302803
0.302803
0.302803
0.302803
0.302803
0.302803
0.302803
0.302803
0.302803
0.302803
0.302803
0.302795
0.302287
0.27977
0.0635442
0.0642175
0.28096
0.302338
0.302796
0.302803
0.302803
0.302803
0.302803
0.302803
0.302803
0.302803
0.302803
0.302803
0.302803
0.302803
0.302803
0.302803
0.302803
0.302803
0.302803
0.302803
0.302796
0.30234
0.281002
0.0642784
0.06469
0.281188
0.302347
0.302796
0.302803
0.302803
0.302803
0.302803
0.302803
0.302803
0.302803
0.302803
0.302803
0.302803
0.302803
0.302803
0.302803
0.302803
0.302803
0.302803
0.302803
0.302797
0.302365
0.281635
0.0647558
0.0652746
0.282228
0.30239
0.302797
0.302803
0.302803
0.302803
0.302803
0.302803
0.302803
0.302803
0.302803
0.302803
0.302803
0.302803
0.302803
0.302803
0.302803
0.302803
0.302803
0.302803
0.302797
0.302373
0.281815
0.0651811
0.0656223
0.282661
0.302406
0.302798
0.302803
0.302803
0.302803
0.302803
0.302803
0.302803
0.302803
0.302803
0.302803
0.302803
0.302803
0.302803
0.302803
0.302803
0.302803
0.302803
0.302803
0.302798
0.302406
0.282648
0.0656517
0.0659263
0.282745
0.30241
0.302798
0.302803
0.302803
0.302803
0.302803
0.302803
0.302803
0.302803
0.302803
0.302803
0.302803
0.302803
0.302803
0.302803
0.302803
0.302803
0.302803
0.302803
0.302798
0.302424
0.283114
0.0659693
0.0662812
0.283498
0.302439
0.302798
0.302803
0.302803
0.302803
0.302803
0.302803
0.302803
0.302803
0.302803
0.302803
0.302803
0.302803
0.302803
0.302803
0.302803
0.302803
0.302803
0.302803
0.302798
0.302428
0.283214
0.0662291
0.0664829
0.283788
0.302449
0.302799
0.302803
0.302803
0.302803
0.302803
0.302803
0.302803
0.302803
0.302803
0.302803
0.302803
0.302803
0.302803
0.302803
0.302803
0.302803
0.302803
0.302803
0.302799
0.302446
0.28369
0.0664815
0.0666644
0.283951
0.302453
0.302799
0.302803
0.302803
0.302803
0.302803
0.302803
0.302803
0.302803
0.302803
0.302803
0.302803
0.302803
0.302803
0.302803
0.302803
0.302803
0.302803
0.302803
0.302799
0.302458
0.284085
0.0666786
0.138
0.299062
0.302854
0.302876
0.302875
0.302873
0.302872
0.302871
0.30287
0.302869
0.302867
0.302866
0.302865
0.302864
0.302863
0.302862
0.302861
0.30286
0.302859
0.302859
0.302858
0.302857
0.302856
0.302855
0.302854
0.302854
0.302853
0.302848
0.301553
0.15577
0.13048
0.300469
0.302797
0.302805
0.302805
0.302805
0.302805
0.302805
0.302805
0.302805
0.302805
0.302805
0.302805
0.302805
0.302805
0.302804
0.302804
0.302804
0.302804
0.302804
0.302804
0.302804
0.302804
0.302804
0.302804
0.302804
0.302804
0.302799
0.301373
0.154113
0.136513
0.3011
0.302797
0.302803
0.302803
0.302803
0.302803
0.302803
0.302803
0.302803
0.302803
0.302803
0.302803
0.302803
0.302803
0.302803
0.302803
0.302803
0.302803
0.302803
0.302803
0.302803
0.302803
0.302803
0.302803
0.302803
0.302803
0.302798
0.301326
0.152631
0.139888
0.30106
0.302797
0.302803
0.302803
0.302803
0.302803
0.302803
0.302803
0.302803
0.302803
0.302803
0.302803
0.302803
0.302803
0.302803
0.302803
0.302803
0.302803
0.302803
0.302803
0.302803
0.302803
0.302803
0.302803
0.302803
0.302803
0.302798
0.30129
0.151374
0.139668
0.300945
0.302796
0.302803
0.302803
0.302803
0.302803
0.302803
0.302803
0.302803
0.302803
0.302803
0.302803
0.302803
0.302803
0.302803
0.302803
0.302803
0.302803
0.302803
0.302803
0.302803
0.302803
0.302803
0.302803
0.302803
0.302803
0.302798
0.301252
0.150232
0.139341
0.300928
0.302796
0.302803
0.302803
0.302803
0.302803
0.302803
0.302803
0.302803
0.302803
0.302803
0.302803
0.302803
0.302803
0.302803
0.302803
0.302803
0.302803
0.302803
0.302803
0.302803
0.302803
0.302803
0.302803
0.302803
0.302803
0.302797
0.301213
0.149141
0.139336
0.30094
0.302797
0.302803
0.302803
0.302803
0.302803
0.302803
0.302803
0.302803
0.302803
0.302803
0.302803
0.302803
0.302803
0.302803
0.302803
0.302803
0.302803
0.302803
0.302803
0.302803
0.302803
0.302803
0.302803
0.302803
0.302803
0.302797
0.301176
0.148107
0.139696
0.300959
0.302797
0.302803
0.302803
0.302803
0.302803
0.302803
0.302803
0.302803
0.302803
0.302803
0.302803
0.302803
0.302803
0.302803
0.302803
0.302803
0.302803
0.302803
0.302803
0.302803
0.302803
0.302803
0.302803
0.302803
0.302803
0.302797
0.301141
0.147151
0.140059
0.300964
0.302797
0.302803
0.302803
0.302803
0.302803
0.302803
0.302803
0.302803
0.302803
0.302803
0.302803
0.302803
0.302803
0.302803
0.302803
0.302803
0.302803
0.302803
0.302803
0.302803
0.302803
0.302803
0.302803
0.302803
0.302803
0.302797
0.301109
0.146283
0.140281
0.300958
0.302797
0.302803
0.302803
0.302803
0.302803
0.302803
0.302803
0.302803
0.302803
0.302803
0.302803
0.302803
0.302803
0.302803
0.302803
0.302803
0.302803
0.302803
0.302803
0.302803
0.302803
0.302803
0.302803
0.302803
0.302803
0.302797
0.30108
0.145497
0.140343
0.300947
0.302797
0.302803
0.302803
0.302803
0.302803
0.302803
0.302803
0.302803
0.302803
0.302803
0.302803
0.302803
0.302803
0.302803
0.302803
0.302803
0.302803
0.302803
0.302803
0.302803
0.302803
0.302803
0.302803
0.302803
0.302803
0.302797
0.301053
0.144785
0.140305
0.300936
0.302796
0.302803
0.302803
0.302803
0.302803
0.302803
0.302803
0.302803
0.302803
0.302803
0.302803
0.302803
0.302803
0.302803
0.302803
0.302803
0.302803
0.302803
0.302803
0.302803
0.302803
0.302803
0.302803
0.302803
0.302803
0.302796
0.301028
0.144136
0.140244
0.300926
0.302796
0.302803
0.302803
0.302803
0.302803
0.302803
0.302803
0.302803
0.302803
0.302803
0.302803
0.302803
0.302803
0.302803
0.302803
0.302803
0.302803
0.302803
0.302803
0.302803
0.302803
0.302803
0.302803
0.302803
0.302803
0.302796
0.301005
0.143545
0.14014
0.300919
0.302796
0.302803
0.302803
0.302803
0.302803
0.302803
0.302803
0.302803
0.302803
0.302803
0.302803
0.302803
0.302803
0.302803
0.302803
0.302803
0.302803
0.302803
0.302803
0.302803
0.302803
0.302803
0.302803
0.302803
0.302803
0.302796
0.300983
0.143006
0.140124
0.300913
0.302796
0.302803
0.302803
0.302803
0.302803
0.302803
0.302803
0.302803
0.302803
0.302803
0.302803
0.302803
0.302803
0.302803
0.302803
0.302803
0.302803
0.302803
0.302803
0.302803
0.302803
0.302803
0.302803
0.302803
0.302803
0.302796
0.300964
0.14252
0.14003
0.300903
0.302796
0.302803
0.302803
0.302803
0.302803
0.302803
0.302803
0.302803
0.302803
0.302803
0.302803
0.302803
0.302803
0.302803
0.302803
0.302803
0.302803
0.302803
0.302803
0.302803
0.302803
0.302803
0.302803
0.302803
0.302803
0.302796
0.300946
0.142085
0.139974
0.300899
0.302796
0.302803
0.302803
0.302803
0.302803
0.302803
0.302803
0.302803
0.302803
0.302803
0.302803
0.302803
0.302803
0.302803
0.302803
0.302803
0.302803
0.302803
0.302803
0.302803
0.302803
0.302803
0.302803
0.302803
0.302803
0.302796
0.30093
0.141695
0.13995
0.300893
0.302796
0.302803
0.302803
0.302803
0.302803
0.302803
0.302803
0.302803
0.302803
0.302803
0.302803
0.302803
0.302803
0.302803
0.302803
0.302803
0.302803
0.302803
0.302803
0.302803
0.302803
0.302803
0.302803
0.302803
0.302803
0.302796
0.300916
0.141353
0.139894
0.300887
0.302796
0.302803
0.302803
0.302803
0.302803
0.302803
0.302803
0.302803
0.302803
0.302803
0.302803
0.302803
0.302803
0.302803
0.302803
0.302803
0.302803
0.302803
0.302803
0.302803
0.302803
0.302803
0.302803
0.302803
0.302803
0.302796
0.300904
0.141053
0.139882
0.300885
0.302796
0.302803
0.302803
0.302803
0.302803
0.302803
0.302803
0.302803
0.302803
0.302803
0.302803
0.302803
0.302803
0.302803
0.302803
0.302803
0.302803
0.302803
0.302803
0.302803
0.302803
0.302803
0.302803
0.302803
0.302803
0.302796
0.300894
0.140794
0.139878
0.300881
0.302796
0.302803
0.302803
0.302803
0.302803
0.302803
0.302803
0.302803
0.302803
0.302803
0.302803
0.302803
0.302803
0.302803
0.302803
0.302803
0.302803
0.302803
0.302803
0.302803
0.302803
0.302803
0.302803
0.302803
0.302803
0.302796
0.300885
0.140576
0.139869
0.300879
0.302796
0.302803
0.302803
0.302803
0.302803
0.302803
0.302803
0.302803
0.302803
0.302803
0.302803
0.302803
0.302803
0.302803
0.302803
0.302803
0.302803
0.302803
0.302803
0.302803
0.302803
0.302803
0.302803
0.302803
0.302803
0.302795
0.300878
0.140394
0.139904
0.300879
0.302796
0.302803
0.302803
0.302803
0.302803
0.302803
0.302803
0.302803
0.302803
0.302803
0.302803
0.302803
0.302803
0.302803
0.302803
0.302803
0.302803
0.302803
0.302803
0.302803
0.302803
0.302803
0.302803
0.302803
0.302803
0.302795
0.300872
0.140247
0.139936
0.300878
0.302796
0.302803
0.302803
0.302803
0.302803
0.302803
0.302803
0.302803
0.302803
0.302803
0.302803
0.302803
0.302803
0.302803
0.302803
0.302803
0.302803
0.302803
0.302803
0.302803
0.302803
0.302803
0.302803
0.302803
0.302803
0.302795
0.300869
0.140135
0.139972
0.301045
0.302797
0.302803
0.302803
0.302803
0.302803
0.302803
0.302803
0.302803
0.302803
0.302803
0.302803
0.302803
0.302803
0.302803
0.302803
0.302803
0.302803
0.302803
0.302803
0.302803
0.302803
0.302803
0.302803
0.302803
0.302803
0.302795
0.300867
0.140051
0.15577
0.301552
0.302848
0.302853
0.302854
0.302854
0.302855
0.302856
0.302857
0.302858
0.302859
0.302859
0.30286
0.302861
0.302862
0.302863
0.302864
0.302865
0.302866
0.302867
0.302869
0.30287
0.302871
0.302872
0.302873
0.302875
0.302876
0.302854
0.299059
0.137963
0.154112
0.301373
0.302799
0.302804
0.302804
0.302804
0.302804
0.302804
0.302804
0.302804
0.302804
0.302804
0.302804
0.302804
0.302804
0.302805
0.302805
0.302805
0.302805
0.302805
0.302805
0.302805
0.302805
0.302805
0.302805
0.302805
0.302805
0.302797
0.30047
0.130498
0.152628
0.301326
0.302798
0.302803
0.302803
0.302803
0.302803
0.302803
0.302803
0.302803
0.302803
0.302803
0.302803
0.302803
0.302803
0.302803
0.302803
0.302803
0.302803
0.302803
0.302803
0.302803
0.302803
0.302803
0.302803
0.302803
0.302803
0.302797
0.3011
0.136482
0.151373
0.30129
0.302798
0.302803
0.302803
0.302803
0.302803
0.302803
0.302803
0.302803
0.302803
0.302803
0.302803
0.302803
0.302803
0.302803
0.302803
0.302803
0.302803
0.302803
0.302803
0.302803
0.302803
0.302803
0.302803
0.302803
0.302803
0.302797
0.301063
0.139933
0.150233
0.301253
0.302798
0.302803
0.302803
0.302803
0.302803
0.302803
0.302803
0.302803
0.302803
0.302803
0.302803
0.302803
0.302803
0.302803
0.302803
0.302803
0.302803
0.302803
0.302803
0.302803
0.302803
0.302803
0.302803
0.302803
0.302803
0.302796
0.300943
0.139686
0.14914
0.301213
0.302797
0.302803
0.302803
0.302803
0.302803
0.302803
0.302803
0.302803
0.302803
0.302803
0.302803
0.302803
0.302803
0.302803
0.302803
0.302803
0.302803
0.302803
0.302803
0.302803
0.302803
0.302803
0.302803
0.302803
0.302803
0.302796
0.300927
0.139277
0.148108
0.301176
0.302797
0.302803
0.302803
0.302803
0.302803
0.302803
0.302803
0.302803
0.302803
0.302803
0.302803
0.302803
0.302803
0.302803
0.302803
0.302803
0.302803
0.302803
0.302803
0.302803
0.302803
0.302803
0.302803
0.302803
0.302803
0.302797
0.300944
0.139421
0.147152
0.301141
0.302797
0.302803
0.302803
0.302803
0.302803
0.302803
0.302803
0.302803
0.302803
0.302803
0.302803
0.302803
0.302803
0.302803
0.302803
0.302803
0.302803
0.302803
0.302803
0.302803
0.302803
0.302803
0.302803
0.302803
0.302803
0.302797
0.300955
0.13965
0.146282
0.301109
0.302797
0.302803
0.302803
0.302803
0.302803
0.302803
0.302803
0.302803
0.302803
0.302803
0.302803
0.302803
0.302803
0.302803
0.302803
0.302803
0.302803
0.302803
0.302803
0.302803
0.302803
0.302803
0.302803
0.302803
0.302803
0.302797
0.300966
0.140065
0.145498
0.30108
0.302797
0.302803
0.302803
0.302803
0.302803
0.302803
0.302803
0.302803
0.302803
0.302803
0.302803
0.302803
0.302803
0.302803
0.302803
0.302803
0.302803
0.302803
0.302803
0.302803
0.302803
0.302803
0.302803
0.302803
0.302803
0.302797
0.300958
0.140301
0.144785
0.301053
0.302797
0.302803
0.302803
0.302803
0.302803
0.302803
0.302803
0.302803
0.302803
0.302803
0.302803
0.302803
0.302803
0.302803
0.302803
0.302803
0.302803
0.302803
0.302803
0.302803
0.302803
0.302803
0.302803
0.302803
0.302803
0.302797
0.300946
0.140298
0.144136
0.301028
0.302796
0.302803
0.302803
0.302803
0.302803
0.302803
0.302803
0.302803
0.302803
0.302803
0.302803
0.302803
0.302803
0.302803
0.302803
0.302803
0.302803
0.302803
0.302803
0.302803
0.302803
0.302803
0.302803
0.302803
0.302803
0.302797
0.300939
0.140341
0.143546
0.301005
0.302796
0.302803
0.302803
0.302803
0.302803
0.302803
0.302803
0.302803
0.302803
0.302803
0.302803
0.302803
0.302803
0.302803
0.302803
0.302803
0.302803
0.302803
0.302803
0.302803
0.302803
0.302803
0.302803
0.302803
0.302803
0.302796
0.300925
0.140238
0.143006
0.300983
0.302796
0.302803
0.302803
0.302803
0.302803
0.302803
0.302803
0.302803
0.302803
0.302803
0.302803
0.302803
0.302803
0.302803
0.302803
0.302803
0.302803
0.302803
0.302803
0.302803
0.302803
0.302803
0.302803
0.302803
0.302803
0.302796
0.300918
0.140135
0.14252
0.300963
0.302796
0.302803
0.302803
0.302803
0.302803
0.302803
0.302803
0.302803
0.302803
0.302803
0.302803
0.302803
0.302803
0.302803
0.302803
0.302803
0.302803
0.302803
0.302803
0.302803
0.302803
0.302803
0.302803
0.302803
0.302803
0.302796
0.300914
0.14012
0.142085
0.300946
0.302796
0.302803
0.302803
0.302803
0.302803
0.302803
0.302803
0.302803
0.302803
0.302803
0.302803
0.302803
0.302803
0.302803
0.302803
0.302803
0.302803
0.302803
0.302803
0.302803
0.302803
0.302803
0.302803
0.302803
0.302803
0.302796
0.300903
0.140042
0.141695
0.30093
0.302796
0.302803
0.302803
0.302803
0.302803
0.302803
0.302803
0.302803
0.302803
0.302803
0.302803
0.302803
0.302803
0.302803
0.302803
0.302803
0.302803
0.302803
0.302803
0.302803
0.302803
0.302803
0.302803
0.302803
0.302803
0.302796
0.300898
0.139964
0.141352
0.300916
0.302796
0.302803
0.302803
0.302803
0.302803
0.302803
0.302803
0.302803
0.302803
0.302803
0.302803
0.302803
0.302803
0.302803
0.302803
0.302803
0.302803
0.302803
0.302803
0.302803
0.302803
0.302803
0.302803
0.302803
0.302803
0.302796
0.300894
0.139947
0.141054
0.300904
0.302796
0.302803
0.302803
0.302803
0.302803
0.302803
0.302803
0.302803
0.302803
0.302803
0.302803
0.302803
0.302803
0.302803
0.302803
0.302803
0.302803
0.302803
0.302803
0.302803
0.302803
0.302803
0.302803
0.302803
0.302803
0.302796
0.300888
0.139909
0.140795
0.300894
0.302796
0.302803
0.302803
0.302803
0.302803
0.302803
0.302803
0.302803
0.302803
0.302803
0.302803
0.302803
0.302803
0.302803
0.302803
0.302803
0.302803
0.302803
0.302803
0.302803
0.302803
0.302803
0.302803
0.302803
0.302803
0.302796
0.300884
0.13987
0.140576
0.300885
0.302796
0.302803
0.302803
0.302803
0.302803
0.302803
0.302803
0.302803
0.302803
0.302803
0.302803
0.302803
0.302803
0.302803
0.302803
0.302803
0.302803
0.302803
0.302803
0.302803
0.302803
0.302803
0.302803
0.302803
0.302803
0.302796
0.300882
0.139876
0.140395
0.300878
0.302795
0.302803
0.302803
0.302803
0.302803
0.302803
0.302803
0.302803
0.302803
0.302803
0.302803
0.302803
0.302803
0.302803
0.302803
0.302803
0.302803
0.302803
0.302803
0.302803
0.302803
0.302803
0.302803
0.302803
0.302803
0.302796
0.300879
0.139883
0.140248
0.300872
0.302795
0.302803
0.302803
0.302803
0.302803
0.302803
0.302803
0.302803
0.302803
0.302803
0.302803
0.302803
0.302803
0.302803
0.302803
0.302803
0.302803
0.302803
0.302803
0.302803
0.302803
0.302803
0.302803
0.302803
0.302803
0.302796
0.300877
0.139892
0.140134
0.300868
0.302795
0.302803
0.302803
0.302803
0.302803
0.302803
0.302803
0.302803
0.302803
0.302803
0.302803
0.302803
0.302803
0.302803
0.302803
0.302803
0.302803
0.302803
0.302803
0.302803
0.302803
0.302803
0.302803
0.302803
0.302803
0.302796
0.300878
0.139937
0.140051
0.300867
0.302795
0.302803
0.302803
0.302803
0.302803
0.302803
0.302803
0.302803
0.302803
0.302803
0.302803
0.302803
0.302803
0.302803
0.302803
0.302803
0.302803
0.302803
0.302803
0.302803
0.302803
0.302803
0.302803
0.302803
0.302803
0.302797
0.301044
0.139974
0.113957
0.114167
0.114378
0.114588
0.114798
0.115009
0.115219
0.115429
0.115639
0.11585
0.11606
0.11627
0.116481
0.116691
0.116901
0.117112
0.117322
0.117532
0.117742
0.117953
0.118163
0.118373
0.118584
0.118794
0.119004
0.119215
0.119425
0.119635
0.119845
0.120056
0.120266
0.120476
0.120687
0.120897
0.121107
0.121318
0.121528
0.121738
0.121949
0.122159
0.122369
0.122579
0.12279
0.123
0.12321
0.123421
0.123631
0.123841
0.124052
0.124262
0.124472
0.124683
0.124893
0.125103
0.125313
0.125524
0.125734
0.125944
0.126155
0.126365
0.126575
0.126786
0.126996
0.127206
0.127417
0.127627
0.127837
0.128048
0.128258
0.128468
0.128679
0.128889
0.129099
0.12931
0.12952
0.12973
0.129941
0.130151
0.130361
0.130571
0.130782
0.130992
0.131202
0.131413
0.131623
0.131833
0.132044
0.132254
0.132464
0.132675
0.132885
0.133095
0.133306
0.133516
0.133726
0.133937
0.134147
0.134357
0.134568
0.134778
0.134988
0.135199
0.135409
0.135619
0.13583
0.13604
0.13625
0.136461
0.136671
0.136881
0.137092
0.137302
0.137512
0.137723
0.137933
0.138143
0.138354
0.138564
0.138774
0.138985
0.139195
0.139405
0.139616
0.139826
0.140036
0.298951
0.298982
0.299005
0.299027
0.299049
0.29907
0.299092
0.299114
0.299135
0.299156
0.299177
0.299198
0.299219
0.29924
0.29926
0.29928
0.299301
0.299321
0.299341
0.29936
0.29938
0.2994
0.299419
0.299438
0.299457
0.299476
0.299495
0.299514
0.299532
0.299551
0.299569
0.299588
0.299606
0.299624
0.299641
0.299659
0.299677
0.299694
0.299712
0.299729
0.299746
0.299763
0.29978
0.299797
0.299814
0.29983
0.299847
0.299863
0.299879
0.299896
0.299912
0.299928
0.299943
0.299959
0.299975
0.29999
0.300006
0.300021
0.300036
0.300051
0.300066
0.300081
0.300096
0.300111
0.300126
0.30014
0.300155
0.300169
0.300183
0.300197
0.300212
0.300226
0.30024
0.300253
0.300267
0.300281
0.300294
0.300308
0.300321
0.300334
0.300348
0.300361
0.300374
0.300387
0.3004
0.300413
0.300425
0.300438
0.300451
0.300463
0.300475
0.300488
0.3005
0.300512
0.300524
0.300536
0.300548
0.30056
0.300572
0.300584
0.300596
0.300607
0.300619
0.30063
0.300642
0.300653
0.300664
0.300675
0.300686
0.300697
0.300708
0.300719
0.30073
0.300741
0.300752
0.300762
0.300773
0.300783
0.300794
0.300804
0.300815
0.300825
0.300835
0.300845
0.300858
0.30278
0.30278
0.30278
0.30278
0.302781
0.302781
0.302781
0.302781
0.302781
0.302782
0.302782
0.302782
0.302782
0.302782
0.302783
0.302783
0.302783
0.302783
0.302783
0.302784
0.302784
0.302784
0.302784
0.302784
0.302784
0.302785
0.302785
0.302785
0.302785
0.302785
0.302785
0.302786
0.302786
0.302786
0.302786
0.302786
0.302786
0.302787
0.302787
0.302787
0.302787
0.302787
0.302787
0.302787
0.302788
0.302788
0.302788
0.302788
0.302788
0.302788
0.302788
0.302789
0.302789
0.302789
0.302789
0.302789
0.302789
0.302789
0.302789
0.30279
0.30279
0.30279
0.30279
0.30279
0.30279
0.30279
0.30279
0.30279
0.302791
0.302791
0.302791
0.302791
0.302791
0.302791
0.302791
0.302791
0.302791
0.302792
0.302792
0.302792
0.302792
0.302792
0.302792
0.302792
0.302792
0.302792
0.302792
0.302792
0.302793
0.302793
0.302793
0.302793
0.302793
0.302793
0.302793
0.302793
0.302793
0.302793
0.302793
0.302794
0.302794
0.302794
0.302794
0.302794
0.302794
0.302794
0.302794
0.302794
0.302794
0.302794
0.302794
0.302794
0.302795
0.302795
0.302795
0.302795
0.302795
0.302795
0.302795
0.302795
0.302795
0.302795
0.302795
0.302795
0.302795
0.302803
0.302803
0.302803
0.302803
0.302803
0.302803
0.302803
0.302803
0.302803
0.302803
0.302803
0.302803
0.302803
0.302803
0.302803
0.302803
0.302803
0.302803
0.302803
0.302803
0.302803
0.302803
0.302803
0.302803
0.302803
0.302803
0.302803
0.302803
0.302803
0.302803
0.302803
0.302803
0.302803
0.302803
0.302803
0.302803
0.302803
0.302803
0.302803
0.302803
0.302803
0.302803
0.302803
0.302803
0.302803
0.302803
0.302803
0.302803
0.302803
0.302803
0.302803
0.302803
0.302803
0.302803
0.302803
0.302803
0.302803
0.302803
0.302803
0.302803
0.302803
0.302803
0.302803
0.302803
0.302803
0.302803
0.302803
0.302803
0.302803
0.302803
0.302803
0.302803
0.302803
0.302803
0.302803
0.302803
0.302803
0.302803
0.302803
0.302803
0.302803
0.302803
0.302803
0.302803
0.302803
0.302803
0.302803
0.302803
0.302803
0.302803
0.302803
0.302803
0.302803
0.302803
0.302803
0.302803
0.302803
0.302803
0.302803
0.302803
0.302803
0.302803
0.302803
0.302803
0.302803
0.302803
0.302803
0.302803
0.302803
0.302803
0.302803
0.302803
0.302803
0.302803
0.302803
0.302803
0.302803
0.302803
0.302803
0.302803
0.302803
0.302803
0.302803
0.302803
0.302803
0.302803
0.302803
0.302803
0.302803
0.302803
0.302803
0.302803
0.302803
0.302803
0.302803