/*--------------------------------*- C++ -*----------------------------------*\
| =========                 |                                                 |
| \\      /  F ield         | OpenFOAM: The Open Source CFD Toolbox           |
|  \\    /   O peration     | Version:  2112                                  |
|   \\  /    A nd           | Website:  www.openfoam.com                      |
|    \\/     M anipulation  |                                                 |
\*---------------------------------------------------------------------------*/
FoamFile
{
    version     2.0;
    format      ascii;
    arch        "LSB;label=32;scalar=64";
    class       volScalarField;
    location    "6e-05";
    object      epsilon;
}
// * * * * * * * * * * * * * * * * * * * * * * * * * * * * * * * * * * * * * //

dimensions      [0 2 -3 0 0 0 0];

internalField   nonuniform List<scalar> 
13875
(
1.00717e+09
4.22821e+09
5.70719e+09
6.85523e+09
7.52416e+09
7.8824e+09
8.05411e+09
8.12861e+09
8.15797e+09
8.16846e+09
8.17181e+09
8.17273e+09
8.17286e+09
8.17256e+09
8.17158e+09
8.16839e+09
8.15819e+09
8.1291e+09
8.05481e+09
7.88323e+09
7.5249e+09
6.85554e+09
5.70685e+09
4.22596e+09
1.01847e+09
1.96903e+09
3.48259e+09
4.50057e+09
5.25623e+09
5.69767e+09
5.92623e+09
6.03186e+09
6.07595e+09
6.09264e+09
6.09835e+09
6.10007e+09
6.10048e+09
6.10048e+09
6.10029e+09
6.09974e+09
6.098e+09
6.09243e+09
6.07596e+09
6.03214e+09
5.92677e+09
5.69845e+09
5.25724e+09
4.50195e+09
3.48488e+09
1.98517e+09
1.8491e+09
2.56304e+09
3.21106e+09
3.68534e+09
3.95604e+09
4.09244e+09
4.15422e+09
4.17936e+09
4.18863e+09
4.19172e+09
4.19262e+09
4.1928e+09
4.19276e+09
4.19263e+09
4.19231e+09
4.19137e+09
4.18832e+09
4.17915e+09
4.15413e+09
4.09244e+09
3.95599e+09
3.68497e+09
3.20965e+09
2.56231e+09
1.83319e+09
1.12757e+09
1.65317e+09
2.07372e+09
2.39387e+09
2.5706e+09
2.6561e+09
2.69299e+09
2.7074e+09
2.71251e+09
2.71411e+09
2.71452e+09
2.71458e+09
2.71454e+09
2.71447e+09
2.71432e+09
2.71386e+09
2.71224e+09
2.70716e+09
2.69278e+09
2.65591e+09
2.5703e+09
2.39326e+09
2.07216e+09
1.64915e+09
1.12162e+09
5.05806e+08
9.77467e+08
1.2214e+09
1.39224e+09
1.47957e+09
1.51957e+09
1.53586e+09
1.54188e+09
1.5439e+09
1.5445e+09
1.54464e+09
1.54465e+09
1.54462e+09
1.54458e+09
1.54452e+09
1.54434e+09
1.54372e+09
1.54169e+09
1.53568e+09
1.5194e+09
1.47937e+09
1.39203e+09
1.22083e+09
9.76073e+08
5.02775e+08
1.82509e+08
5.15385e+08
6.51841e+08
7.33524e+08
7.71755e+08
7.8811e+08
7.94333e+08
7.96495e+08
7.97181e+08
7.97375e+08
7.97417e+08
7.97411e+08
7.97393e+08
7.97377e+08
7.97354e+08
7.9729e+08
7.97075e+08
7.96372e+08
7.94203e+08
7.87988e+08
7.71643e+08
7.33502e+08
6.51848e+08
5.15244e+08
1.81005e+08
3.5539e+07
1.85742e+08
2.34417e+08
2.60201e+08
2.71435e+08
2.75823e+08
2.77386e+08
2.77901e+08
2.78058e+08
2.78102e+08
2.78112e+08
2.7811e+08
2.78104e+08
2.78099e+08
2.78092e+08
2.78074e+08
2.78021e+08
2.77854e+08
2.77328e+08
2.75756e+08
2.71354e+08
2.60141e+08
2.34316e+08
1.8541e+08
3.52305e+07
2.20267e+06
1.18237e+07
1.53277e+07
1.68328e+07
1.75188e+07
1.77902e+07
1.7889e+07
1.79227e+07
1.79336e+07
1.79373e+07
1.79384e+07
1.79382e+07
1.79376e+07
1.7937e+07
1.79361e+07
1.79342e+07
1.79297e+07
1.79176e+07
1.78823e+07
1.77821e+07
1.751e+07
1.68318e+07
1.53254e+07
1.17899e+07
2.19106e+06
1.39906e+06
344655
319454
323852
326435
327480
327864
327998
328042
328059
328064
328063
328060
328057
328053
328044
328025
327975
327835
327445
326400
323862
319478
344133
1.39948e+06
1.50613e+06
312898
260592
258294
258209
258207
258207
258207
258207
258207
258207
258207
258207
258207
258207
258207
258207
258207
258206
258206
258208
258294
260584
312701
1.50115e+06
1.69162e+06
329038
262026
258232
258044
258033
258032
258032
258032
258032
258032
258032
258032
258032
258032
258032
258032
258032
258032
258033
258045
258247
262252
331444
1.71113e+06
1.84404e+06
344601
263698
258356
258052
258033
258031
258031
258031
258031
258031
258031
258031
258031
258031
258031
258031
258031
258031
258033
258052
258350
263641
344185
1.84722e+06
1.97389e+06
360280
265463
258500
258064
258034
258031
258031
258031
258031
258031
258031
258031
258031
258031
258031
258031
258031
258031
258034
258061
258470
265144
357624
1.96508e+06
2.0742e+06
373168
266948
258629
258074
258035
258032
258031
258031
258031
258031
258031
258031
258031
258031
258031
258031
258031
258031
258035
258070
258578
266361
368534
2.03177e+06
2.12494e+06
383806
268135
258739
258084
258036
258032
258031
258031
258031
258031
258031
258031
258031
258031
258031
258031
258031
258032
258037
258094
258847
269140
390843
2.15581e+06
2.26282e+06
405188
270952
259016
258107
258039
258032
258031
258031
258031
258031
258031
258031
258031
258031
258031
258031
258031
258032
258039
258115
259096
271667
409757
2.29826e+06
2.25717e+06
403377
270173
258903
258091
258036
258032
258031
258031
258031
258031
258031
258031
258031
258031
258031
258031
258031
258032
258036
258088
258867
269843
400996
2.25362e+06
2.22551e+06
397549
268978
258744
258070
258033
258031
258031
258031
258031
258031
258031
258031
258031
258031
258031
258031
258031
258031
258033
258069
258737
268964
397797
2.2179e+06
2.24647e+06
421678
272074
258953
258066
258030
258031
258031
258031
258031
258031
258031
258031
258031
258031
258031
258031
258031
258031
258030
258061
258851
271030
414748
2.22265e+06
2.25961e+06
441430
275593
259268
258072
258027
258030
258031
258031
258031
258031
258031
258031
258031
258031
258031
258031
258031
258030
258027
258074
259301
275920
443776
2.27858e+06
2.08205e+06
413185
271482
258855
258049
258028
258030
258031
258031
258031
258031
258031
258031
258031
258031
258031
258031
258031
258030
258027
258053
258953
272543
420087
2.10999e+06
1.92866e+06
385162
267551
258519
258038
258029
258031
258031
258031
258031
258031
258031
258031
258031
258031
258031
258031
258031
258031
258029
258038
258545
267871
387165
1.93155e+06
1.7972e+06
362655
264777
258321
258033
258030
258031
258031
258031
258031
258031
258031
258031
258031
258031
258031
258031
258031
258031
258030
258033
258303
264488
359939
1.78413e+06
1.68354e+06
343109
262706
258198
258032
258030
258031
258031
258031
258031
258031
258031
258031
258031
258031
258031
258031
258031
258031
258030
258032
258199
262721
343398
1.68733e+06
1.61681e+06
333255
261785
258151
258031
258031
258031
258031
258031
258031
258031
258031
258031
258031
258031
258031
258031
258031
258031
258031
258031
258154
261852
333985
1.61885e+06
1.548e+06
324667
261075
258119
258031
258031
258031
258031
258031
258031
258031
258031
258031
258031
258031
258031
258031
258031
258031
258031
258031
258114
260968
323320
1.54176e+06
1.48151e+06
315725
260402
258092
258031
258031
258031
258031
258031
258031
258031
258031
258031
258031
258031
258031
258031
258031
258031
258031
258031
258095
260500
317127
1.48976e+06
1.43516e+06
310472
260038
258078
258031
258031
258031
258031
258031
258031
258031
258031
258031
258031
258031
258031
258031
258031
258031
258031
258031
258079
260050
310570
1.43264e+06
1.38757e+06
305782
259741
258068
258031
258031
258031
258031
258031
258031
258031
258031
258031
258031
258031
258031
258031
258031
258031
258031
258031
258065
259632
304041
1.38001e+06
1.33537e+06
299250
259356
258057
258031
258031
258031
258031
258031
258031
258031
258031
258031
258031
258031
258031
258031
258031
258031
258031
258031
258059
259440
300781
1.34468e+06
1.30481e+06
296077
259181
258052
258031
258031
258031
258031
258031
258031
258031
258031
258031
258031
258031
258031
258031
258031
258031
258031
258031
258052
259177
295952
1.30135e+06
1.2753e+06
293804
259067
258049
258031
258031
258031
258031
258031
258031
258031
258031
258031
258031
258031
258031
258031
258031
258031
258031
258031
258048
259016
292795
1.27139e+06
1.24032e+06
289892
258879
258045
258031
258031
258031
258031
258031
258031
258031
258031
258031
258031
258031
258031
258031
258031
258031
258031
258031
258046
258917
290728
1.24501e+06
1.21925e+06
287950
258791
258043
258031
258031
258031
258031
258031
258031
258031
258031
258031
258031
258031
258031
258031
258031
258031
258031
258031
258043
258782
287725
1.21663e+06
1.19935e+06
286730
258740
258042
258031
258031
258031
258031
258031
258031
258031
258031
258031
258031
258031
258031
258031
258031
258031
258031
258031
258041
258710
286039
1.19722e+06
1.17474e+06
284139
258633
258039
258031
258031
258031
258031
258031
258031
258031
258031
258031
258031
258031
258031
258031
258031
258031
258031
258031
258040
258664
284909
1.17857e+06
1.15962e+06
282869
258584
258039
258031
258031
258031
258031
258031
258031
258031
258031
258031
258031
258031
258031
258031
258031
258031
258031
258031
258038
258579
282743
1.15782e+06
1.14546e+06
282139
258557
258038
258031
258031
258031
258031
258031
258031
258031
258031
258031
258031
258031
258031
258031
258031
258031
258031
258031
258038
258536
281578
1.14397e+06
1.12828e+06
280330
258491
258037
258031
258031
258031
258031
258031
258031
258031
258031
258031
258031
258031
258031
258031
258031
258031
258031
258031
258037
258514
280973
1.13104e+06
1.11757e+06
279475
258462
258036
258031
258031
258031
258031
258031
258031
258031
258031
258031
258031
258031
258031
258031
258031
258031
258031
258031
258036
258459
279394
1.11634e+06
1.10772e+06
279061
258448
258036
258031
258031
258031
258031
258031
258031
258031
258031
258031
258031
258031
258031
258031
258031
258031
258031
258031
258036
258432
278575
1.10666e+06
1.09601e+06
277758
258405
258036
258031
258031
258031
258031
258031
258031
258031
258031
258031
258031
258031
258031
258031
258031
258031
258031
258031
258036
258422
278267
1.0978e+06
1.08871e+06
277173
258387
258035
258031
258031
258031
258031
258031
258031
258031
258031
258031
258031
258031
258031
258031
258031
258031
258031
258031
258035
258386
277141
1.088e+06
1.08214e+06
276964
258381
258035
258031
258031
258031
258031
258031
258031
258031
258031
258031
258031
258031
258031
258031
258031
258031
258031
258031
258035
258368
276556
1.08146e+06
1.07468e+06
276022
258352
258035
258031
258031
258031
258031
258031
258031
258031
258031
258031
258031
258031
258031
258031
258031
258031
258031
258031
258035
258363
276392
1.07563e+06
1.07007e+06
275624
258341
258035
258031
258031
258031
258031
258031
258031
258031
258031
258031
258031
258031
258031
258031
258031
258031
258031
258031
258035
258341
275642
1.06976e+06
1.06607e+06
275551
258339
258035
258031
258031
258031
258031
258031
258031
258031
258031
258031
258031
258031
258031
258031
258031
258031
258031
258031
258034
258329
275217
1.06571e+06
1.0619e+06
274878
258320
258034
258031
258031
258031
258031
258031
258031
258031
258031
258031
258031
258031
258031
258031
258031
258031
258031
258031
258034
258327
275128
1.06228e+06
1.0594e+06
274612
258313
258034
258031
258031
258031
258031
258031
258031
258031
258031
258031
258031
258031
258031
258031
258031
258031
258031
258031
258034
258315
274702
1.05932e+06
1.05786e+06
274439
258309
258034
258031
258031
258031
258031
258031
258031
258031
258031
258031
258031
258031
258031
258031
258031
258031
258031
258031
258034
258306
274319
1.05781e+06
555014
261709
258331
258296
258292
258287
258284
258280
258276
258272
258269
258265
258262
258258
258255
258252
258249
258246
258243
258240
258237
258234
258232
258229
258227
258224
258222
258222
259281
488657
584880
260193
258055
258035
258035
258035
258035
258035
258035
258035
258034
258034
258034
258034
258034
258034
258034
258034
258034
258034
258034
258034
258033
258033
258033
258033
258033
258037
259214
492806
559699
259593
258045
258031
258031
258031
258031
258031
258031
258031
258031
258031
258031
258031
258031
258031
258031
258031
258031
258031
258031
258031
258031
258031
258031
258031
258031
258035
259251
497302
545750
259598
258043
258031
258031
258031
258031
258031
258031
258031
258031
258031
258031
258031
258031
258031
258031
258031
258031
258031
258031
258031
258031
258031
258031
258031
258031
258035
259280
501184
546201
259691
258043
258031
258031
258031
258031
258031
258031
258031
258031
258031
258031
258031
258031
258031
258031
258031
258031
258031
258031
258031
258031
258031
258031
258031
258031
258035
259312
504766
547150
259699
258043
258031
258031
258031
258031
258031
258031
258031
258031
258031
258031
258031
258031
258031
258031
258031
258031
258031
258031
258031
258031
258031
258031
258031
258031
258036
259344
508238
546832
259679
258042
258031
258031
258031
258031
258031
258031
258031
258031
258031
258031
258031
258031
258031
258031
258031
258031
258031
258031
258031
258031
258031
258031
258031
258031
258036
259375
511569
545077
259651
258041
258031
258031
258031
258031
258031
258031
258031
258031
258031
258031
258031
258031
258031
258031
258031
258031
258031
258031
258031
258031
258031
258031
258031
258031
258036
259404
514690
543302
259635
258041
258031
258031
258031
258031
258031
258031
258031
258031
258031
258031
258031
258031
258031
258031
258031
258031
258031
258031
258031
258031
258031
258031
258031
258031
258036
259431
517559
542088
259630
258040
258031
258031
258031
258031
258031
258031
258031
258031
258031
258031
258031
258031
258031
258031
258031
258031
258031
258031
258031
258031
258031
258031
258031
258031
258036
259455
520181
541515
259632
258040
258031
258031
258031
258031
258031
258031
258031
258031
258031
258031
258031
258031
258031
258031
258031
258031
258031
258031
258031
258031
258031
258031
258031
258031
258036
259477
522580
541353
259634
258040
258031
258031
258031
258031
258031
258031
258031
258031
258031
258031
258031
258031
258031
258031
258031
258031
258031
258031
258031
258031
258031
258031
258031
258031
258036
259498
524786
541294
259636
258039
258031
258031
258031
258031
258031
258031
258031
258031
258031
258031
258031
258031
258031
258031
258031
258031
258031
258031
258031
258031
258031
258031
258031
258031
258037
259517
526814
541413
259637
258039
258031
258031
258031
258031
258031
258031
258031
258031
258031
258031
258031
258031
258031
258031
258031
258031
258031
258031
258031
258031
258031
258031
258031
258031
258037
259536
528675
541196
259636
258039
258031
258031
258031
258031
258031
258031
258031
258031
258031
258031
258031
258031
258031
258031
258031
258031
258031
258031
258031
258031
258031
258031
258031
258031
258037
259552
530363
541302
259639
258039
258031
258031
258031
258031
258031
258031
258031
258031
258031
258031
258031
258031
258031
258031
258031
258031
258031
258031
258031
258031
258031
258031
258031
258031
258037
259566
531887
541266
259638
258039
258031
258031
258031
258031
258031
258031
258031
258031
258031
258031
258031
258031
258031
258031
258031
258031
258031
258031
258031
258031
258031
258031
258031
258031
258037
259580
533257
541118
259638
258038
258031
258031
258031
258031
258031
258031
258031
258031
258031
258031
258031
258031
258031
258031
258031
258031
258031
258031
258031
258031
258031
258031
258031
258031
258037
259591
534467
541117
259639
258038
258031
258031
258031
258031
258031
258031
258031
258031
258031
258031
258031
258031
258031
258031
258031
258031
258031
258031
258031
258031
258031
258031
258031
258031
258037
259601
535530
540949
259637
258038
258031
258031
258031
258031
258031
258031
258031
258031
258031
258031
258031
258031
258031
258031
258031
258031
258031
258031
258031
258031
258031
258031
258031
258031
258037
259610
536451
540763
259637
258038
258031
258031
258031
258031
258031
258031
258031
258031
258031
258031
258031
258031
258031
258031
258031
258031
258031
258031
258031
258031
258031
258031
258031
258031
258037
259617
537231
540623
259635
258038
258031
258031
258031
258031
258031
258031
258031
258031
258031
258031
258031
258031
258031
258031
258031
258031
258031
258031
258031
258031
258031
258031
258031
258031
258037
259623
537883
540309
259632
258038
258031
258031
258031
258031
258031
258031
258031
258031
258031
258031
258031
258031
258031
258031
258031
258031
258031
258031
258031
258031
258031
258031
258031
258031
258037
259627
538410
540031
259630
258038
258031
258031
258031
258031
258031
258031
258031
258031
258031
258031
258031
258031
258031
258031
258031
258031
258031
258031
258031
258031
258031
258031
258031
258031
258037
259631
538815
539794
259480
258036
258031
258031
258031
258031
258031
258031
258031
258031
258031
258031
258031
258031
258031
258031
258031
258031
258031
258031
258031
258031
258031
258031
258031
258031
258037
259632
539115
488660
259281
258222
258222
258224
258227
258229
258232
258234
258237
258240
258243
258246
258249
258252
258255
258258
258262
258265
258269
258272
258276
258280
258284
258288
258292
258296
258331
261712
555161
492809
259214
258037
258033
258033
258033
258033
258033
258034
258034
258034
258034
258034
258034
258034
258034
258034
258034
258034
258034
258035
258035
258035
258035
258035
258035
258035
258055
260192
584804
497308
259251
258035
258031
258031
258031
258031
258031
258031
258031
258031
258031
258031
258031
258031
258031
258031
258031
258031
258031
258031
258031
258031
258031
258031
258031
258031
258045
259594
559823
501186
259280
258035
258031
258031
258031
258031
258031
258031
258031
258031
258031
258031
258031
258031
258031
258031
258031
258031
258031
258031
258031
258031
258031
258031
258031
258031
258043
259595
545575
504764
259312
258035
258031
258031
258031
258031
258031
258031
258031
258031
258031
258031
258031
258031
258031
258031
258031
258031
258031
258031
258031
258031
258031
258031
258031
258031
258043
259693
546131
508241
259344
258036
258031
258031
258031
258031
258031
258031
258031
258031
258031
258031
258031
258031
258031
258031
258031
258031
258031
258031
258031
258031
258031
258031
258031
258031
258043
259700
547397
511567
259375
258036
258031
258031
258031
258031
258031
258031
258031
258031
258031
258031
258031
258031
258031
258031
258031
258031
258031
258031
258031
258031
258031
258031
258031
258031
258042
259675
546504
514687
259404
258036
258031
258031
258031
258031
258031
258031
258031
258031
258031
258031
258031
258031
258031
258031
258031
258031
258031
258031
258031
258031
258031
258031
258031
258031
258041
259654
545255
517560
259431
258036
258031
258031
258031
258031
258031
258031
258031
258031
258031
258031
258031
258031
258031
258031
258031
258031
258031
258031
258031
258031
258031
258031
258031
258031
258041
259633
543279
520178
259455
258036
258031
258031
258031
258031
258031
258031
258031
258031
258031
258031
258031
258031
258031
258031
258031
258031
258031
258031
258031
258031
258031
258031
258031
258031
258040
259631
542012
522582
259477
258036
258031
258031
258031
258031
258031
258031
258031
258031
258031
258031
258031
258031
258031
258031
258031
258031
258031
258031
258031
258031
258031
258031
258031
258031
258040
259633
541693
524788
259498
258036
258031
258031
258031
258031
258031
258031
258031
258031
258031
258031
258031
258031
258031
258031
258031
258031
258031
258031
258031
258031
258031
258031
258031
258031
258040
259632
541208
526811
259517
258037
258031
258031
258031
258031
258031
258031
258031
258031
258031
258031
258031
258031
258031
258031
258031
258031
258031
258031
258031
258031
258031
258031
258031
258031
258039
259638
541317
528674
259536
258037
258031
258031
258031
258031
258031
258031
258031
258031
258031
258031
258031
258031
258031
258031
258031
258031
258031
258031
258031
258031
258031
258031
258031
258031
258039
259637
541432
530364
259552
258037
258031
258031
258031
258031
258031
258031
258031
258031
258031
258031
258031
258031
258031
258031
258031
258031
258031
258031
258031
258031
258031
258031
258031
258031
258039
259635
541210
531886
259566
258037
258031
258031
258031
258031
258031
258031
258031
258031
258031
258031
258031
258031
258031
258031
258031
258031
258031
258031
258031
258031
258031
258031
258031
258031
258039
259639
541253
533256
259580
258037
258031
258031
258031
258031
258031
258031
258031
258031
258031
258031
258031
258031
258031
258031
258031
258031
258031
258031
258031
258031
258031
258031
258031
258031
258039
259639
541310
534469
259591
258037
258031
258031
258031
258031
258031
258031
258031
258031
258031
258031
258031
258031
258031
258031
258031
258031
258031
258031
258031
258031
258031
258031
258031
258031
258038
259637
541130
535528
259601
258037
258031
258031
258031
258031
258031
258031
258031
258031
258031
258031
258031
258031
258031
258031
258031
258031
258031
258031
258031
258031
258031
258031
258031
258031
258038
259639
541055
536450
259610
258037
258031
258031
258031
258031
258031
258031
258031
258031
258031
258031
258031
258031
258031
258031
258031
258031
258031
258031
258031
258031
258031
258031
258031
258031
258038
259638
541000
537233
259617
258037
258031
258031
258031
258031
258031
258031
258031
258031
258031
258031
258031
258031
258031
258031
258031
258031
258031
258031
258031
258031
258031
258031
258031
258031
258038
259636
540772
537881
259623
258037
258031
258031
258031
258031
258031
258031
258031
258031
258031
258031
258031
258031
258031
258031
258031
258031
258031
258031
258031
258031
258031
258031
258031
258031
258038
259635
540561
538408
259627
258037
258031
258031
258031
258031
258031
258031
258031
258031
258031
258031
258031
258031
258031
258031
258031
258031
258031
258031
258031
258031
258031
258031
258031
258031
258038
259634
540363
538817
259631
258037
258031
258031
258031
258031
258031
258031
258031
258031
258031
258031
258031
258031
258031
258031
258031
258031
258031
258031
258031
258031
258031
258031
258031
258031
258038
259629
540028
539116
259632
258037
258031
258031
258031
258031
258031
258031
258031
258031
258031
258031
258031
258031
258031
258031
258031
258031
258031
258031
258031
258031
258031
258031
258031
258031
258036
259480
539786
653026
651916
650810
649707
648608
647513
646422
645334
644250
643169
642092
641019
639949
638883
637821
636762
635706
634654
633605
632560
631519
630480
629445
628414
627386
626361
625340
624322
623307
622295
621287
620282
619280
618282
617287
616295
615306
614320
613337
612358
611382
610409
609438
608471
607507
606547
605589
604634
603682
602733
601787
600844
599904
598967
598033
597102
596174
595248
594326
593406
592489
591575
590664
589755
588850
587947
587047
586149
585255
584363
583474
582587
581703
580822
579944
579068
578195
577324
576456
575591
574728
573868
573011
572156
571303
570453
569606
568761
567919
567079
566241
565406
564574
563744
562916
562091
561268
560448
559630
558814
558001
557190
556382
555576
554772
553970
553171
552374
551580
550787
549997
549210
548424
547641
546860
546081
545304
544530
543758
542988
542220
541454
540691
539929
539170
261235
261209
261190
261172
261153
261135
261117
261098
261081
261063
261045
261027
261010
260993
260975
260958
260941
260924
260908
260891
260875
260858
260842
260826
260810
260794
260778
260762
260747
260731
260716
260700
260685
260670
260655
260640
260626
260611
260596
260582
260568
260553
260539
260525
260511
260497
260483
260470
260456
260442
260429
260416
260402
260389
260376
260363
260350
260337
260325
260312
260299
260287
260275
260262
260250
260238
260226
260214
260202
260190
260178
260166
260155
260143
260132
260120
260109
260098
260087
260076
260065
260054
260043
260032
260021
260010
260000
259989
259979
259968
259958
259948
259937
259927
259917
259907
259897
259887
259877
259868
259858
259848
259839
259829
259820
259810
259801
259791
259782
259773
259764
259755
259746
259737
259728
259719
259710
259701
259693
259684
259675
259667
259658
259650
259640
258050
258050
258050
258050
258049
258049
258049
258049
258049
258049
258048
258048
258048
258048
258048
258048
258047
258047
258047
258047
258047
258047
258047
258046
258046
258046
258046
258046
258046
258046
258045
258045
258045
258045
258045
258045
258045
258045
258044
258044
258044
258044
258044
258044
258044
258044
258043
258043
258043
258043
258043
258043
258043
258043
258043
258043
258042
258042
258042
258042
258042
258042
258042
258042
258042
258042
258041
258041
258041
258041
258041
258041
258041
258041
258041
258041
258041
258040
258040
258040
258040
258040
258040
258040
258040
258040
258040
258040
258040
258040
258039
258039
258039
258039
258039
258039
258039
258039
258039
258039
258039
258039
258039
258039
258039
258038
258038
258038
258038
258038
258038
258038
258038
258038
258038
258038
258038
258038
258038
258038
258038
258038
258037
258037
258037
258031
258031
258031
258031
258031
258031
258031
258031
258031
258031
258031
258031
258031
258031
258031
258031
258031
258031
258031
258031
258031
258031
258031
258031
258031
258031
258031
258031
258031
258031
258031
258031
258031
258031
258031
258031
258031
258031
258031
258031
258031
258031
258031
258031
258031
258031
258031
258031
258031
258031
258031
258031
258031
258031
258031
258031
258031
258031
258031
258031
258031
258031
258031
258031
258031
258031
258031
258031
258031
258031
258031
258031
258031
258031
258031
258031
258031
258031
258031
258031
258031
258031
258031
258031
258031
258031
258031
258031
258031
258031
258031
258031
258031
258031
258031
258031
258031
258031
258031
258031
258031
258031
258031
258031
258031
258031
258031
258031
258031
258031
258031
258031
258031
258031
258031
258031
258031
258031
258031
258031
258031
258031
258031
258031
258031
258031
258031
258031
258031
258031
258031
258031
258031
258031
258031
258031
258031
258031
258031
258031
258031
258031
258031
258031
258031
258031
258031
258031
258031
258031
258031
258031
258031
258031
258031
258031
258031
258031
258031
258031
258031
258031
258031
258031
258031
258031
258031
258031
258031
258031
258031
258031
258031
258031
258031
258031
258031
258031
258031
258031
258031
258031
258031
258031
258031
258031
258031
258031
258031
258031
258031
258031
258031
258031
258031
258031
258031
258031
258031
258031
258031
258031
258031
258031
258031
258031
258031
258031
258031
258031
258031
258031
258031
258031
258031
258031
258031
258031
258031
258031
258031
258031
258031
258031
258031
258031
258031
258031
258031
258031
258031
258031
258031
258031
258031
258031
258031
258031
258031
258031
258031
258031
258031
258031
258031
258031
258031
258031
258031
258031
258031
258031
258031
258031
258031
258031
258031
258031
258031
258031
258031
258031
258031
258031
258031
258031
258031
258031
258031
258031
258031
258031
258031
258031
258031
258031
258031
258031
258031
258031
258031
258031
258031
258031
258031
258031
258031
258031
258031
258031
258031
258031
258031
258031
258031
258031
258031
258031
258031
258031
258031
258031
258031
258031
258031
258031
258031
258031
258031
258031
258031
258031
258031
258031
258031
258031
258031
258031
258031
258031
258031
258031
258031
258031
258031
258031
258031
258031
258031
258031
258031
258031
258031
258031
258031
258031
258031
258031
258031
258031
258031
258031
258031
258031
258031
258031
258031
258031
258031
258031
258031
258031
258031
258031
258031
258031
258031
258031
258031
258031
258031
258031
258031
258031
258031
258031
258031
258031
258031
258031
258031
258031
258031
258031
258031
258031
258031
258031
258031
258031
258031
258031
258031
258031
258031
258031
258031
258031
258031
258031
258031
258031
258031
258031
258031
258031
258031
258031
258031
258031
258031
258031
258031
258031
258031
258031
258031
258031
258031
258031
258031
258031
258031
258031
258031
258031
258031
258031
258031
258031
258031
258031
258031
258031
258031
258031
258031
258031
258031
258031
258031
258031
258031
258031
258031
258031
258031
258031
258031
258031
258031
258031
258031
258031
258031
258031
258031
258031
258031
258031
258031
258031
258031
258031
258031
258031
258031
258031
258031
258031
258031
258031
258031
258031
258031
258031
258031
258031
258031
258031
258031
258031
258031
258031
258031
258031
258031
258031
258031
258031
258031
258031
258031
258031
258031
258031
258031
258031
258031
258031
258031
258031
258031
258031
258031
258031
258031
258031
258031
258031
258031
258031
258031
258031
258031
258031
258031
258031
258031
258031
258031
258031
258031
258031
258031
258031
258031
258031
258031
258031
258031
258031
258031
258031
258031
258031
258031
258031
258031
258031
258031
258031
258031
258031
258031
258031
258031
258031
258031
258031
258031
258031
258031
258031
258031
258031
258031
258031
258031
258031
258031
258031
258031
258031
258031
258031
258031
258031
258031
258031
258031
258031
258031
258031
258031
258031
258031
258031
258031
258031
258031
258031
258031
258031
258031
258031
258031
258031
258031
258031
258031
258031
258031
258031
258031
258031
258031
258031
258031
258031
258031
258031
258031
258031
258031
258031
258031
258031
258031
258031
258031
258031
258031
258031
258031
258031
258031
258031
258031
258031
258031
258031
258031
258031
258031
258031
258031
258031
258031
258031
258031
258031
258031
258031
258031
258031
258031
258031
258031
258031
258031
258031
258031
258031
258031
258031
258031
258031
258031
258031
258031
258031
258031
258031
258031
258031
258031
258031
258031
258031
258031
258031
258031
258031
258031
258031
258031
258031
258031
258031
258031
258031
258031
258031
258031
258031
258031
258031
258031
258031
258031
258031
258031
258031
258031
258031
258031
258031
258031
258031
258031
258031
258031
258031
258031
258031
258031
258031
258031
258031
258031
258031
258031
258031
258031
258031
258031
258031
258031
258031
258031
258031
258031
258031
258031
258031
258031
258031
258031
258031
258031
258031
258031
258031
258031
258031
258031
258031
258031
258031
258031
258031
258031
258031
258031
258031
258031
258031
258031
258031
258031
258031
258031
258031
258031
258031
258031
258031
258031
258031
258031
258031
258031
258031
258031
258031
258031
258031
258031
258031
258031
258031
258031
258031
258031
258031
258031
258031
258031
258031
258031
258031
258031
258031
258031
258031
258031
258031
258031
258031
258031
258031
258031
258031
258031
258031
258031
258031
258031
258031
258031
258031
258031
258031
258031
258031
258031
258031
258031
258031
258031
258031
258031
258031
258031
258031
258031
258031
258031
258031
258031
258031
258031
258031
258031
258031
258031
258031
258031
258031
258031
258031
258031
258031
258031
258031
258031
258031
258031
258031
258031
258031
258031
258031
258031
258031
258031
258031
258031
258031
258031
258031
258031