/*--------------------------------*- C++ -*----------------------------------*\
| =========                 |                                                 |
| \\      /  F ield         | OpenFOAM: The Open Source CFD Toolbox           |
|  \\    /   O peration     | Version:  2112                                  |
|   \\  /    A nd           | Website:  www.openfoam.com                      |
|    \\/     M anipulation  |                                                 |
\*---------------------------------------------------------------------------*/
FoamFile
{
    version     2.0;
    format      ascii;
    arch        "LSB;label=32;scalar=64";
    class       volScalarField;
    location    "6e-05";
    object      k;
}
// * * * * * * * * * * * * * * * * * * * * * * * * * * * * * * * * * * * * * //

dimensions      [0 2 -2 0 0 0 0];

internalField   nonuniform List<scalar> 
13875
(
71769.7
415974
557818
656796
713599
743766
758201
764460
766929
767815
768101
768183
768197
768175
768094
767823
766962
764514
758271
743846
713671
656833
557791
415740
72307.6
115684
422170
547072
627043
672457
695726
706452
710926
712622
713206
713385
713430
713434
713416
713361
713182
712612
710937
706489
695791
672550
627170
547243
422392
116308
114193
370204
470976
531495
564525
580861
588179
591138
592224
592587
592694
592717
592714
592700
592664
592554
592196
591120
588172
580862
564517
531445
470795
369989
113541
83034.1
287750
366407
413807
438462
450055
454976
456877
457546
457756
457811
457819
457815
457806
457787
457727
457516
456849
454950
450027
438413
413698
366118
286975
82708.6
49880.4
197388
250478
279788
293738
299888
302337
303227
303522
303609
303630
303631
303627
303622
303613
303587
303496
303198
302308
299858
293702
279743
250379
197183
49690.9
25740
117683
149491
165024
171778
174542
175566
175915
176025
176056
176062
176061
176058
176056
176052
176042
176007
175894
175543
174519
171755
165017
149498
117692
25603.2
9241.07
45937
57904.4
63105.1
65211.3
65993.1
66263.2
66350.5
66377
66384.5
66386.4
66386.1
66385.1
66384.2
66382.8
66379.6
66370.3
66341.7
66251.9
65979.6
65194.3
63090.4
57879.5
45854
9187.31
1418.68
3974.1
4896.7
5215.63
5352.32
5404.23
5422.85
5429.19
5431.31
5432.06
5432.31
5432.27
5432.13
5432
5431.8
5431.39
5430.46
5428.07
5421.35
5402.37
5350.25
5215.32
4896.03
3965.09
1412.17
918.359
997.226
1004.79
1006.14
1006.7
1006.92
1007
1007.03
1007.04
1007.05
1007.05
1007.05
1007.05
1007.05
1007.05
1007.04
1007.04
1007.03
1007
1006.91
1006.69
1006.15
1004.82
997.263
918.53
914.041
982.394
984.709
984.454
984.395
984.387
984.387
984.387
984.387
984.387
984.387
984.387
984.387
984.387
984.387
984.387
984.386
984.386
984.386
984.387
984.394
984.455
984.716
982.439
914.285
907.024
982.454
985
984.442
984.312
984.293
984.291
984.291
984.291
984.291
984.291
984.291
984.291
984.291
984.291
984.291
984.291
984.291
984.291
984.293
984.313
984.453
985.039
982.419
906.174
899.368
982.079
985.305
984.528
984.325
984.294
984.29
984.289
984.289
984.289
984.289
984.289
984.289
984.289
984.289
984.289
984.289
984.289
984.29
984.293
984.324
984.523
985.294
982.049
899.21
891.725
981.367
985.508
984.607
984.342
984.296
984.29
984.289
984.289
984.289
984.289
984.289
984.289
984.289
984.289
984.289
984.289
984.289
984.29
984.295
984.337
984.586
985.441
981.329
891.954
884.804
980.443
985.558
984.656
984.355
984.299
984.29
984.289
984.289
984.289
984.289
984.289
984.289
984.289
984.289
984.289
984.289
984.289
984.29
984.298
984.349
984.628
985.479
980.591
887.141
880.391
979.531
985.476
984.673
984.363
984.301
984.291
984.289
984.289
984.289
984.289
984.289
984.289
984.289
984.289
984.289
984.289
984.289
984.291
984.303
984.379
984.738
985.629
979.494
878.882
870.365
977.909
985.385
984.726
984.384
984.305
984.291
984.289
984.289
984.289
984.289
984.289
984.289
984.289
984.289
984.289
984.289
984.289
984.292
984.307
984.394
984.771
985.509
977.861
868.718
867.232
976.595
984.722
984.55
984.349
984.299
984.291
984.289
984.289
984.289
984.289
984.289
984.289
984.289
984.289
984.289
984.289
984.289
984.29
984.299
984.345
984.537
984.712
976.658
867.427
863.487
975.261
983.768
984.307
984.301
984.291
984.289
984.289
984.289
984.289
984.289
984.289
984.289
984.289
984.289
984.289
984.289
984.289
984.289
984.291
984.297
984.285
983.653
975.034
862.961
851.821
970.948
982.026
983.904
984.227
984.279
984.287
984.289
984.289
984.289
984.289
984.289
984.289
984.289
984.289
984.289
984.289
984.289
984.288
984.281
984.236
983.952
982.224
971.62
854.161
845.232
967.096
980.739
983.547
984.153
984.267
984.286
984.289
984.289
984.289
984.289
984.289
984.289
984.289
984.289
984.289
984.289
984.289
984.286
984.266
984.151
983.535
980.693
966.957
843.883
856.174
968.813
981.157
983.667
984.182
984.272
984.287
984.289
984.289
984.289
984.289
984.289
984.289
984.289
984.289
984.289
984.289
984.289
984.286
984.27
984.168
983.603
980.926
968.032
853.779
867.373
971.527
981.96
983.883
984.226
984.28
984.288
984.289
984.289
984.289
984.289
984.289
984.289
984.289
984.289
984.289
984.289
984.289
984.288
984.279
984.221
983.855
981.859
971.208
866.893
877.532
973.886
982.606
984.034
984.254
984.285
984.288
984.289
984.289
984.289
984.289
984.289
984.289
984.289
984.289
984.289
984.289
984.289
984.289
984.285
984.256
984.046
982.672
974.182
878.647
886.504
976.017
983.122
984.138
984.27
984.287
984.289
984.289
984.289
984.289
984.289
984.289
984.289
984.289
984.289
984.289
984.289
984.289
984.289
984.287
984.271
984.138
983.122
976.006
886.239
891.435
977.04
983.349
984.18
984.277
984.288
984.289
984.289
984.289
984.289
984.289
984.289
984.289
984.289
984.289
984.289
984.289
984.289
984.289
984.288
984.276
984.177
983.332
976.951
891.229
896.457
977.88
983.52
984.207
984.28
984.288
984.289
984.289
984.289
984.289
984.289
984.289
984.289
984.289
984.289
984.289
984.289
984.289
984.289
984.288
984.281
984.211
983.547
978.034
897.001
901.521
978.805
983.689
984.231
984.283
984.288
984.289
984.289
984.289
984.289
984.289
984.289
984.289
984.289
984.289
984.289
984.289
984.289
984.289
984.288
984.283
984.228
983.661
978.644
900.768
904.853
979.321
983.778
984.243
984.285
984.289
984.289
984.289
984.289
984.289
984.289
984.289
984.289
984.289
984.289
984.289
984.289
984.289
984.289
984.289
984.285
984.242
983.775
979.299
905.042
908.393
979.779
983.854
984.252
984.286
984.289
984.289
984.289
984.289
984.289
984.289
984.289
984.289
984.289
984.289
984.289
984.289
984.289
984.289
984.289
984.286
984.256
983.886
979.99
909.166
912.696
980.495
983.963
984.264
984.287
984.289
984.289
984.289
984.289
984.289
984.289
984.289
984.289
984.289
984.289
984.289
984.289
984.289
984.289
984.289
984.287
984.262
983.937
980.316
911.794
914.955
980.819
984.008
984.269
984.287
984.289
984.289
984.289
984.289
984.289
984.289
984.289
984.289
984.289
984.289
984.289
984.289
984.289
984.289
984.289
984.287
984.269
984.01
980.829
915.235
917.129
981.036
984.038
984.272
984.288
984.289
984.289
984.289
984.289
984.289
984.289
984.289
984.289
984.289
984.289
984.289
984.289
984.289
984.289
984.289
984.288
984.273
984.053
981.159
917.565
920.03
981.463
984.092
984.276
984.288
984.289
984.289
984.289
984.289
984.289
984.289
984.289
984.289
984.289
984.289
984.289
984.289
984.289
984.289
984.289
984.288
984.276
984.08
981.363
919.542
921.596
981.657
984.115
984.279
984.288
984.289
984.289
984.289
984.289
984.289
984.289
984.289
984.289
984.289
984.289
984.289
984.289
984.289
984.289
984.289
984.288
984.279
984.119
981.688
921.892
923.055
981.771
984.128
984.28
984.288
984.289
984.289
984.289
984.289
984.289
984.289
984.289
984.289
984.289
984.289
984.289
984.289
984.289
984.289
984.289
984.288
984.28
984.137
981.851
923.298
925.113
982.052
984.159
984.282
984.288
984.289
984.289
984.289
984.289
984.289
984.289
984.289
984.289
984.289
984.289
984.289
984.289
984.289
984.289
984.289
984.288
984.281
984.149
981.959
924.68
926.261
982.177
984.172
984.283
984.289
984.289
984.289
984.289
984.289
984.289
984.289
984.289
984.289
984.289
984.289
984.289
984.289
984.289
984.289
984.289
984.289
984.283
984.175
982.197
926.465
927.318
982.247
984.18
984.283
984.289
984.289
984.289
984.289
984.289
984.289
984.289
984.289
984.289
984.289
984.289
984.289
984.289
984.289
984.289
984.289
984.289
984.284
984.185
982.31
927.499
928.813
982.446
984.2
984.285
984.289
984.289
984.289
984.289
984.289
984.289
984.289
984.289
984.289
984.289
984.289
984.289
984.289
984.289
984.289
984.289
984.289
984.284
984.192
982.368
928.47
929.645
982.529
984.207
984.285
984.289
984.289
984.289
984.289
984.289
984.289
984.289
984.289
984.289
984.289
984.289
984.289
984.289
984.289
984.289
984.289
984.289
984.285
984.209
982.545
929.794
930.398
982.57
984.212
984.286
984.289
984.289
984.289
984.289
984.289
984.289
984.289
984.289
984.289
984.289
984.289
984.289
984.289
984.289
984.289
984.289
984.289
984.286
984.216
982.624
930.55
931.48
982.717
984.225
984.286
984.289
984.289
984.289
984.289
984.289
984.289
984.289
984.289
984.289
984.289
984.289
984.289
984.289
984.289
984.289
984.289
984.289
984.286
984.22
982.654
931.226
932.072
982.773
984.23
984.287
984.289
984.289
984.289
984.289
984.289
984.289
984.289
984.289
984.289
984.289
984.289
984.289
984.289
984.289
984.289
984.289
984.289
984.287
984.232
982.784
932.168
932.594
982.796
984.233
984.287
984.289
984.289
984.289
984.289
984.289
984.289
984.289
984.289
984.289
984.289
984.289
984.289
984.289
984.289
984.289
984.289
984.289
984.287
984.236
982.841
932.719
933.354
982.905
984.242
984.287
984.289
984.289
984.289
984.289
984.289
984.289
984.289
984.289
984.289
984.289
984.289
984.289
984.289
984.289
984.289
984.289
984.289
984.287
984.238
982.859
933.182
933.757
982.944
984.246
984.288
984.289
984.289
984.289
984.289
984.289
984.289
984.289
984.289
984.289
984.289
984.289
984.289
984.289
984.289
984.289
984.289
984.289
984.288
984.246
982.948
933.805
934.1
982.955
984.247
984.288
984.289
984.289
984.289
984.289
984.289
984.289
984.289
984.289
984.289
984.289
984.289
984.289
984.289
984.289
984.289
984.289
984.289
984.288
984.25
982.991
934.195
934.604
983.036
984.254
984.288
984.289
984.289
984.289
984.289
984.289
984.289
984.289
984.289
984.289
984.289
984.289
984.289
984.289
984.289
984.289
984.289
984.289
984.288
984.251
983.002
934.48
934.861
983.059
984.256
984.288
984.289
984.289
984.289
984.289
984.289
984.289
984.289
984.289
984.289
984.289
984.289
984.289
984.289
984.289
984.289
984.289
984.289
984.288
984.256
983.052
934.834
935.417
983.05
984.256
984.288
984.289
984.289
984.289
984.289
984.289
984.289
984.289
984.289
984.289
984.289
984.289
984.289
984.289
984.289
984.289
984.289
984.289
984.288
984.257
983.063
935.464
971.793
984.971
984.934
984.913
984.902
984.892
984.883
984.873
984.864
984.855
984.847
984.838
984.83
984.822
984.814
984.806
984.799
984.792
984.784
984.777
984.771
984.764
984.758
984.751
984.745
984.739
984.733
984.727
984.638
971.511
969.477
984.412
984.315
984.301
984.3
984.3
984.299
984.299
984.299
984.298
984.298
984.298
984.297
984.297
984.297
984.297
984.297
984.296
984.296
984.296
984.296
984.296
984.295
984.295
984.295
984.295
984.295
984.294
984.21
970.43
970.424
984.362
984.298
984.289
984.289
984.289
984.289
984.289
984.289
984.289
984.289
984.289
984.289
984.289
984.289
984.289
984.289
984.289
984.289
984.289
984.289
984.289
984.289
984.289
984.289
984.289
984.289
984.289
984.203
970.146
970.552
984.328
984.296
984.289
984.289
984.289
984.289
984.289
984.289
984.289
984.289
984.289
984.289
984.289
984.289
984.289
984.289
984.289
984.289
984.289
984.289
984.289
984.289
984.289
984.289
984.289
984.289
984.289
984.201
969.909
970.332
984.319
984.296
984.289
984.289
984.289
984.289
984.289
984.289
984.289
984.289
984.289
984.289
984.289
984.289
984.289
984.289
984.289
984.289
984.289
984.289
984.289
984.289
984.289
984.289
984.289
984.289
984.289
984.199
969.69
970.135
984.31
984.295
984.289
984.289
984.289
984.289
984.289
984.289
984.289
984.289
984.289
984.289
984.289
984.289
984.289
984.289
984.289
984.289
984.289
984.289
984.289
984.289
984.289
984.289
984.289
984.289
984.289
984.197
969.478
969.97
984.3
984.295
984.289
984.289
984.289
984.289
984.289
984.289
984.289
984.289
984.289
984.289
984.289
984.289
984.289
984.289
984.289
984.289
984.289
984.289
984.289
984.289
984.289
984.289
984.289
984.289
984.289
984.194
969.275
969.832
984.287
984.294
984.289
984.289
984.289
984.289
984.289
984.289
984.289
984.289
984.289
984.289
984.289
984.289
984.289
984.289
984.289
984.289
984.289
984.289
984.289
984.289
984.289
984.289
984.289
984.289
984.289
984.192
969.084
969.689
984.275
984.293
984.289
984.289
984.289
984.289
984.289
984.289
984.289
984.289
984.289
984.289
984.289
984.289
984.289
984.289
984.289
984.289
984.289
984.289
984.289
984.289
984.289
984.289
984.289
984.289
984.289
984.19
968.908
969.535
984.264
984.293
984.289
984.289
984.289
984.289
984.289
984.289
984.289
984.289
984.289
984.289
984.289
984.289
984.289
984.289
984.289
984.289
984.289
984.289
984.289
984.289
984.289
984.289
984.289
984.289
984.289
984.189
968.748
969.376
984.255
984.292
984.289
984.289
984.289
984.289
984.289
984.289
984.289
984.289
984.289
984.289
984.289
984.289
984.289
984.289
984.289
984.289
984.289
984.289
984.289
984.289
984.289
984.289
984.289
984.289
984.289
984.187
968.601
969.217
984.247
984.292
984.289
984.289
984.289
984.289
984.289
984.289
984.289
984.289
984.289
984.289
984.289
984.289
984.289
984.289
984.289
984.289
984.289
984.289
984.289
984.289
984.289
984.289
984.289
984.289
984.289
984.186
968.466
969.065
984.239
984.292
984.289
984.289
984.289
984.289
984.289
984.289
984.289
984.289
984.289
984.289
984.289
984.289
984.289
984.289
984.289
984.289
984.289
984.289
984.289
984.289
984.289
984.289
984.289
984.289
984.289
984.184
968.342
968.915
984.233
984.291
984.289
984.289
984.289
984.289
984.289
984.289
984.289
984.289
984.289
984.289
984.289
984.289
984.289
984.289
984.289
984.289
984.289
984.289
984.289
984.289
984.289
984.289
984.289
984.289
984.288
984.183
968.229
968.773
984.226
984.291
984.289
984.289
984.289
984.289
984.289
984.289
984.289
984.289
984.289
984.289
984.289
984.289
984.289
984.289
984.289
984.289
984.289
984.289
984.289
984.289
984.289
984.289
984.289
984.289
984.288
984.182
968.125
968.636
984.22
984.291
984.289
984.289
984.289
984.289
984.289
984.289
984.289
984.289
984.289
984.289
984.289
984.289
984.289
984.289
984.289
984.289
984.289
984.289
984.289
984.289
984.289
984.289
984.289
984.289
984.288
984.181
968.032
968.507
984.214
984.29
984.289
984.289
984.289
984.289
984.289
984.289
984.289
984.289
984.289
984.289
984.289
984.289
984.289
984.289
984.289
984.289
984.289
984.289
984.289
984.289
984.289
984.289
984.289
984.289
984.288
984.18
967.948
968.384
984.209
984.29
984.289
984.289
984.289
984.289
984.289
984.289
984.289
984.289
984.289
984.289
984.289
984.289
984.289
984.289
984.289
984.289
984.289
984.289
984.289
984.289
984.289
984.289
984.289
984.289
984.288
984.179
967.874
968.269
984.204
984.29
984.289
984.289
984.289
984.289
984.289
984.289
984.289
984.289
984.289
984.289
984.289
984.289
984.289
984.289
984.289
984.289
984.289
984.289
984.289
984.289
984.289
984.289
984.289
984.289
984.288
984.178
967.809
968.161
984.199
984.29
984.289
984.289
984.289
984.289
984.289
984.289
984.289
984.289
984.289
984.289
984.289
984.289
984.289
984.289
984.289
984.289
984.289
984.289
984.289
984.289
984.289
984.289
984.289
984.289
984.288
984.178
967.753
968.062
984.195
984.289
984.289
984.289
984.289
984.289
984.289
984.289
984.289
984.289
984.289
984.289
984.289
984.289
984.289
984.289
984.289
984.289
984.289
984.289
984.289
984.289
984.289
984.289
984.289
984.289
984.288
984.177
967.705
967.972
984.192
984.289
984.289
984.289
984.289
984.289
984.289
984.289
984.289
984.289
984.289
984.289
984.289
984.289
984.289
984.289
984.289
984.289
984.289
984.289
984.289
984.289
984.289
984.289
984.289
984.289
984.288
984.177
967.665
967.888
984.188
984.289
984.289
984.289
984.289
984.289
984.289
984.289
984.289
984.289
984.289
984.289
984.289
984.289
984.289
984.289
984.289
984.289
984.289
984.289
984.289
984.289
984.289
984.289
984.289
984.289
984.288
984.176
967.633
967.813
984.184
984.289
984.289
984.289
984.289
984.289
984.289
984.289
984.289
984.289
984.289
984.289
984.289
984.289
984.289
984.289
984.289
984.289
984.289
984.289
984.289
984.289
984.289
984.289
984.289
984.289
984.288
984.176
967.608
967.816
984.182
984.289
984.289
984.289
984.289
984.289
984.289
984.289
984.289
984.289
984.289
984.289
984.289
984.289
984.289
984.289
984.289
984.289
984.289
984.289
984.289
984.289
984.289
984.289
984.289
984.289
984.288
984.176
967.589
971.511
984.638
984.727
984.733
984.739
984.745
984.751
984.758
984.764
984.771
984.778
984.785
984.792
984.799
984.806
984.814
984.822
984.83
984.838
984.847
984.855
984.864
984.873
984.883
984.892
984.902
984.913
984.935
984.971
971.789
970.429
984.21
984.294
984.295
984.295
984.295
984.295
984.295
984.296
984.296
984.296
984.296
984.296
984.297
984.297
984.297
984.297
984.297
984.298
984.298
984.298
984.299
984.299
984.299
984.3
984.3
984.301
984.315
984.412
969.481
970.146
984.203
984.289
984.289
984.289
984.289
984.289
984.289
984.289
984.289
984.289
984.289
984.289
984.289
984.289
984.289
984.289
984.289
984.289
984.289
984.289
984.289
984.289
984.289
984.289
984.289
984.289
984.298
984.362
970.419
969.909
984.201
984.289
984.289
984.289
984.289
984.289
984.289
984.289
984.289
984.289
984.289
984.289
984.289
984.289
984.289
984.289
984.289
984.289
984.289
984.289
984.289
984.289
984.289
984.289
984.289
984.289
984.296
984.328
970.557
969.69
984.199
984.289
984.289
984.289
984.289
984.289
984.289
984.289
984.289
984.289
984.289
984.289
984.289
984.289
984.289
984.289
984.289
984.289
984.289
984.289
984.289
984.289
984.289
984.289
984.289
984.289
984.296
984.319
970.334
969.478
984.197
984.289
984.289
984.289
984.289
984.289
984.289
984.289
984.289
984.289
984.289
984.289
984.289
984.289
984.289
984.289
984.289
984.289
984.289
984.289
984.289
984.289
984.289
984.289
984.289
984.289
984.295
984.311
970.128
969.275
984.194
984.289
984.289
984.289
984.289
984.289
984.289
984.289
984.289
984.289
984.289
984.289
984.289
984.289
984.289
984.289
984.289
984.289
984.289
984.289
984.289
984.289
984.289
984.289
984.289
984.289
984.295
984.299
969.979
969.084
984.192
984.289
984.289
984.289
984.289
984.289
984.289
984.289
984.289
984.289
984.289
984.289
984.289
984.289
984.289
984.289
984.289
984.289
984.289
984.289
984.289
984.289
984.289
984.289
984.289
984.289
984.294
984.287
969.828
968.908
984.19
984.289
984.289
984.289
984.289
984.289
984.289
984.289
984.289
984.289
984.289
984.289
984.289
984.289
984.289
984.289
984.289
984.289
984.289
984.289
984.289
984.289
984.289
984.289
984.289
984.289
984.293
984.275
969.69
968.748
984.189
984.289
984.289
984.289
984.289
984.289
984.289
984.289
984.289
984.289
984.289
984.289
984.289
984.289
984.289
984.289
984.289
984.289
984.289
984.289
984.289
984.289
984.289
984.289
984.289
984.289
984.293
984.264
969.537
968.601
984.187
984.289
984.289
984.289
984.289
984.289
984.289
984.289
984.289
984.289
984.289
984.289
984.289
984.289
984.289
984.289
984.289
984.289
984.289
984.289
984.289
984.289
984.289
984.289
984.289
984.289
984.292
984.255
969.373
968.466
984.186
984.289
984.289
984.289
984.289
984.289
984.289
984.289
984.289
984.289
984.289
984.289
984.289
984.289
984.289
984.289
984.289
984.289
984.289
984.289
984.289
984.289
984.289
984.289
984.289
984.289
984.292
984.247
969.219
968.343
984.184
984.289
984.289
984.289
984.289
984.289
984.289
984.289
984.289
984.289
984.289
984.289
984.289
984.289
984.289
984.289
984.289
984.289
984.289
984.289
984.289
984.289
984.289
984.289
984.289
984.289
984.292
984.239
969.064
968.229
984.183
984.288
984.289
984.289
984.289
984.289
984.289
984.289
984.289
984.289
984.289
984.289
984.289
984.289
984.289
984.289
984.289
984.289
984.289
984.289
984.289
984.289
984.289
984.289
984.289
984.289
984.291
984.233
968.915
968.125
984.182
984.288
984.289
984.289
984.289
984.289
984.289
984.289
984.289
984.289
984.289
984.289
984.289
984.289
984.289
984.289
984.289
984.289
984.289
984.289
984.289
984.289
984.289
984.289
984.289
984.289
984.291
984.226
968.773
968.032
984.181
984.288
984.289
984.289
984.289
984.289
984.289
984.289
984.289
984.289
984.289
984.289
984.289
984.289
984.289
984.289
984.289
984.289
984.289
984.289
984.289
984.289
984.289
984.289
984.289
984.289
984.291
984.22
968.636
967.948
984.18
984.288
984.289
984.289
984.289
984.289
984.289
984.289
984.289
984.289
984.289
984.289
984.289
984.289
984.289
984.289
984.289
984.289
984.289
984.289
984.289
984.289
984.289
984.289
984.289
984.289
984.29
984.214
968.507
967.874
984.179
984.288
984.289
984.289
984.289
984.289
984.289
984.289
984.289
984.289
984.289
984.289
984.289
984.289
984.289
984.289
984.289
984.289
984.289
984.289
984.289
984.289
984.289
984.289
984.289
984.289
984.29
984.209
968.383
967.809
984.178
984.288
984.289
984.289
984.289
984.289
984.289
984.289
984.289
984.289
984.289
984.289
984.289
984.289
984.289
984.289
984.289
984.289
984.289
984.289
984.289
984.289
984.289
984.289
984.289
984.289
984.29
984.204
968.268
967.753
984.178
984.288
984.289
984.289
984.289
984.289
984.289
984.289
984.289
984.289
984.289
984.289
984.289
984.289
984.289
984.289
984.289
984.289
984.289
984.289
984.289
984.289
984.289
984.289
984.289
984.289
984.29
984.2
968.162
967.705
984.177
984.288
984.289
984.289
984.289
984.289
984.289
984.289
984.289
984.289
984.289
984.289
984.289
984.289
984.289
984.289
984.289
984.289
984.289
984.289
984.289
984.289
984.289
984.289
984.289
984.289
984.289
984.195
968.062
967.665
984.177
984.288
984.289
984.289
984.289
984.289
984.289
984.289
984.289
984.289
984.289
984.289
984.289
984.289
984.289
984.289
984.289
984.289
984.289
984.289
984.289
984.289
984.289
984.289
984.289
984.289
984.289
984.191
967.971
967.633
984.176
984.288
984.289
984.289
984.289
984.289
984.289
984.289
984.289
984.289
984.289
984.289
984.289
984.289
984.289
984.289
984.289
984.289
984.289
984.289
984.289
984.289
984.289
984.289
984.289
984.289
984.289
984.188
967.89
967.608
984.176
984.288
984.289
984.289
984.289
984.289
984.289
984.289
984.289
984.289
984.289
984.289
984.289
984.289
984.289
984.289
984.289
984.289
984.289
984.289
984.289
984.289
984.289
984.289
984.289
984.289
984.289
984.184
967.813
967.589
984.176
984.288
984.289
984.289
984.289
984.289
984.289
984.289
984.289
984.289
984.289
984.289
984.289
984.289
984.289
984.289
984.289
984.289
984.289
984.289
984.289
984.289
984.289
984.289
984.289
984.289
984.289
984.182
967.816
960.6
960.668
960.736
960.804
960.872
960.939
961.006
961.073
961.14
961.207
961.273
961.339
961.405
961.47
961.536
961.601
961.666
961.73
961.795
961.859
961.923
961.987
962.051
962.114
962.177
962.24
962.303
962.366
962.428
962.49
962.552
962.614
962.675
962.737
962.798
962.859
962.919
962.98
963.04
963.101
963.16
963.22
963.28
963.339
963.398
963.457
963.516
963.575
963.633
963.691
963.75
963.807
963.865
963.923
963.98
964.037
964.094
964.151
964.207
964.264
964.32
964.376
964.432
964.488
964.543
964.599
964.654
964.709
964.764
964.819
964.873
964.927
964.982
965.036
965.09
965.143
965.197
965.25
965.303
965.356
965.409
965.462
965.514
965.567
965.619
965.671
965.723
965.775
965.826
965.878
965.929
965.98
966.031
966.082
966.133
966.183
966.234
966.284
966.334
966.384
966.434
966.484
966.533
966.582
966.632
966.681
966.73
966.778
966.827
966.875
966.924
966.972
967.02
967.068
967.116
967.164
967.211
967.258
967.306
967.353
967.4
967.447
967.493
967.54
967.586
984.062
984.064
984.065
984.067
984.068
984.069
984.07
984.072
984.073
984.074
984.076
984.077
984.078
984.079
984.08
984.082
984.083
984.084
984.085
984.086
984.088
984.089
984.09
984.091
984.092
984.093
984.095
984.096
984.097
984.098
984.099
984.1
984.101
984.102
984.103
984.104
984.105
984.106
984.107
984.108
984.109
984.111
984.112
984.113
984.114
984.114
984.115
984.116
984.117
984.118
984.119
984.12
984.121
984.122
984.123
984.124
984.125
984.126
984.127
984.128
984.129
984.129
984.13
984.131
984.132
984.133
984.134
984.135
984.135
984.136
984.137
984.138
984.139
984.14
984.14
984.141
984.142
984.143
984.144
984.144
984.145
984.146
984.147
984.148
984.148
984.149
984.15
984.151
984.151
984.152
984.153
984.154
984.154
984.155
984.156
984.156
984.157
984.158
984.159
984.159
984.16
984.161
984.161
984.162
984.163
984.163
984.164
984.165
984.165
984.166
984.167
984.167
984.168
984.169
984.169
984.17
984.17
984.171
984.172
984.172
984.173
984.173
984.174
984.175
984.175
984.287
984.287
984.287
984.287
984.287
984.287
984.287
984.287
984.287
984.288
984.288
984.288
984.288
984.288
984.288
984.288
984.288
984.288
984.288
984.288
984.288
984.288
984.288
984.288
984.288
984.288
984.288
984.288
984.288
984.288
984.288
984.288
984.288
984.288
984.288
984.288
984.288
984.288
984.288
984.288
984.288
984.288
984.288
984.288
984.288
984.288
984.288
984.288
984.288
984.288
984.288
984.288
984.288
984.288
984.288
984.288
984.288
984.288
984.288
984.288
984.288
984.288
984.288
984.288
984.288
984.288
984.288
984.288
984.288
984.288
984.288
984.288
984.288
984.288
984.288
984.288
984.288
984.288
984.288
984.288
984.288
984.288
984.288
984.288
984.288
984.288
984.288
984.288
984.288
984.288
984.288
984.288
984.288
984.288
984.288
984.288
984.288
984.288
984.288
984.288
984.288
984.288
984.288
984.288
984.288
984.288
984.288
984.288
984.288
984.288
984.288
984.288
984.288
984.288
984.288
984.288
984.288
984.288
984.288
984.288
984.288
984.288
984.288
984.288
984.288
984.289
984.289
984.289
984.289
984.289
984.289
984.289
984.289
984.289
984.289
984.289
984.289
984.289
984.289
984.289
984.289
984.289
984.289
984.289
984.289
984.289
984.289
984.289
984.289
984.289
984.289
984.289
984.289
984.289
984.289
984.289
984.289
984.289
984.289
984.289
984.289
984.289
984.289
984.289
984.289
984.289
984.289
984.289
984.289
984.289
984.289
984.289
984.289
984.289
984.289
984.289
984.289
984.289
984.289
984.289
984.289
984.289
984.289
984.289
984.289
984.289
984.289
984.289
984.289
984.289
984.289
984.289
984.289
984.289
984.289
984.289
984.289
984.289
984.289
984.289
984.289
984.289
984.289
984.289
984.289
984.289
984.289
984.289
984.289
984.289
984.289
984.289
984.289
984.289
984.289
984.289
984.289
984.289
984.289
984.289
984.289
984.289
984.289
984.289
984.289
984.289
984.289
984.289
984.289
984.289
984.289
984.289
984.289
984.289
984.289
984.289
984.289
984.289
984.289
984.289
984.289
984.289
984.289
984.289
984.289
984.289
984.289
984.289
984.289
984.289
984.289
984.289
984.289
984.289
984.289
984.289
984.289
984.289
984.289
984.289
984.289
984.289
984.289
984.289
984.289
984.289
984.289
984.289
984.289
984.289
984.289
984.289
984.289
984.289
984.289
984.289
984.289
984.289
984.289
984.289
984.289
984.289
984.289
984.289
984.289
984.289
984.289
984.289
984.289
984.289
984.289
984.289
984.289
984.289
984.289
984.289
984.289
984.289
984.289
984.289
984.289
984.289
984.289
984.289
984.289
984.289
984.289
984.289
984.289
984.289
984.289
984.289
984.289
984.289
984.289
984.289
984.289
984.289
984.289
984.289
984.289
984.289
984.289
984.289
984.289
984.289
984.289
984.289
984.289
984.289
984.289
984.289
984.289
984.289
984.289
984.289
984.289
984.289
984.289
984.289
984.289
984.289
984.289
984.289
984.289
984.289
984.289
984.289
984.289
984.289
984.289
984.289
984.289
984.289
984.289
984.289
984.289
984.289
984.289
984.289
984.289
984.289
984.289
984.289
984.289
984.289
984.289
984.289
984.289
984.289
984.289
984.289
984.289
984.289
984.289
984.289
984.289
984.289
984.289
984.289
984.289
984.289
984.289
984.289
984.289
984.289
984.289
984.289
984.289
984.289
984.289
984.289
984.289
984.289
984.289
984.289
984.289
984.289
984.289
984.289
984.289
984.289
984.289
984.289
984.289
984.289
984.289
984.289
984.289
984.289
984.289
984.289
984.289
984.289
984.289
984.289
984.289
984.289
984.289
984.289
984.289
984.289
984.289
984.289
984.289
984.289
984.289
984.289
984.289
984.289
984.289
984.289
984.289
984.289
984.289
984.289
984.289
984.289
984.289
984.289
984.289
984.289
984.289
984.289
984.289
984.289
984.289
984.289
984.289
984.289
984.289
984.289
984.289
984.289
984.289
984.289
984.289
984.289
984.289
984.289
984.289
984.289
984.289
984.289
984.289
984.289
984.289
984.289
984.289
984.289
984.289
984.289
984.289
984.289
984.289
984.289
984.289
984.289
984.289
984.289
984.289
984.289
984.289
984.289
984.289
984.289
984.289
984.289
984.289
984.289
984.289
984.289
984.289
984.289
984.289
984.289
984.289
984.289
984.289
984.289
984.289
984.289
984.289
984.289
984.289
984.289
984.289
984.289
984.289
984.289
984.289
984.289
984.289
984.289
984.289
984.289
984.289
984.289
984.289
984.289
984.289
984.289
984.289
984.289
984.289
984.289
984.289
984.289
984.289
984.289
984.289
984.289
984.289
984.289
984.289
984.289
984.289
984.289
984.289
984.289
984.289
984.289
984.289
984.289
984.289
984.289
984.289
984.289
984.289
984.289
984.289
984.289
984.289
984.289
984.289
984.289
984.289
984.289
984.289
984.289
984.289
984.289
984.289
984.289
984.289
984.289
984.289
984.289
984.289
984.289
984.289
984.289
984.289
984.289
984.289
984.289
984.289
984.289
984.289
984.289
984.289
984.289
984.289
984.289
984.289
984.289
984.289
984.289
984.289
984.289
984.289
984.289
984.289
984.289
984.289
984.289
984.289
984.289
984.289
984.289
984.289
984.289
984.289
984.289
984.289
984.289
984.289
984.289
984.289
984.289
984.289
984.289
984.289
984.289
984.289
984.289
984.289
984.289
984.289
984.289
984.289
984.289
984.289
984.289
984.289
984.289
984.289
984.289
984.289
984.289
984.289
984.289
984.289
984.289
984.289
984.289
984.289
984.289
984.289
984.289
984.289
984.289
984.289
984.289
984.289
984.289
984.289
984.289
984.289
984.289
984.289
984.289
984.289
984.289
984.289
984.289
984.289
984.289
984.289
984.289
984.289
984.289
984.289
984.289
984.289
984.289
984.289
984.289
984.289
984.289
984.289
984.289