/*--------------------------------*- C++ -*----------------------------------*\
| =========                 |                                                 |
| \\      /  F ield         | OpenFOAM: The Open Source CFD Toolbox           |
|  \\    /   O peration     | Version:  2112                                  |
|   \\  /    A nd           | Website:  www.openfoam.com                      |
|    \\/     M anipulation  |                                                 |
\*---------------------------------------------------------------------------*/
FoamFile
{
    version     2.0;
    format      ascii;
    arch        "LSB;label=32;scalar=64";
    class       volScalarField;
    location    "6e-05";
    object      nut;
}
// * * * * * * * * * * * * * * * * * * * * * * * * * * * * * * * * * * * * * //

dimensions      [0 2 -1 0 0 0 0];

internalField   nonuniform List<scalar> 
13875
(
0.46028
3.68315
4.90687
5.66345
6.09107
6.3162
6.42381
6.47047
6.4889
6.49554
6.49773
6.49838
6.49852
6.49837
6.49778
6.49575
6.48928
6.471
6.42445
6.3169
6.09169
5.66384
4.90669
3.68095
0.462022
0.611703
4.6059
5.98499
6.73229
7.1429
7.3509
7.44658
7.48647
7.50163
7.50688
7.50854
7.509
7.50906
7.50893
7.50845
7.50683
7.50168
7.48669
7.44701
7.3516
7.1439
6.73372
5.9869
4.60772
0.613292
0.634694
4.81248
6.21717
6.89863
7.25017
7.42001
7.49502
7.52507
7.53604
7.5397
7.5408
7.54106
7.54107
7.54095
7.54061
7.53949
7.53587
7.52497
7.49501
7.42004
7.25006
6.89803
6.2151
4.80828
0.632907
0.550316
4.50772
5.82665
6.4378
6.73089
6.86324
6.91807
6.93888
6.94611
6.94837
6.94898
6.94908
6.94906
6.94897
6.94878
6.94813
6.94585
6.93862
6.9178
6.86287
6.73016
6.43606
5.82186
4.49436
0.548908
0.442709
3.58741
4.62302
5.0604
5.24841
5.32648
5.35638
5.36694
5.37037
5.37137
5.37161
5.37163
5.37159
5.37153
5.37143
5.37113
5.37007
5.3666
5.356
5.32603
5.24781
5.05954
4.62149
3.58509
0.442
0.326719
2.41846
3.08554
3.34135
3.44109
3.47901
3.49238
3.49677
3.49811
3.49849
3.49857
3.49856
3.49852
3.49848
3.49844
3.4983
3.49787
3.49646
3.49202
3.47862
3.44068
3.34116
3.08581
2.41949
0.32594
0.216263
1.02249
1.28729
1.37741
1.41001
1.42105
1.42463
1.42574
1.42607
1.42617
1.4262
1.4262
1.42618
1.42617
1.42615
1.4261
1.42598
1.42561
1.42445
1.42081
1.40969
1.37708
1.28674
1.02062
0.215626
0.0822359
0.120217
0.14079
0.145446
0.147171
0.147751
0.147949
0.148016
0.148041
0.148052
0.148056
0.148056
0.148054
0.148052
0.148048
0.148041
0.148027
0.147998
0.147922
0.147716
0.147131
0.145437
0.140773
0.120016
0.0819146
0.0542539
0.259684
0.284437
0.28133
0.279415
0.278645
0.278363
0.278266
0.278233
0.278222
0.278218
0.278219
0.278221
0.278223
0.278226
0.278232
0.278245
0.278281
0.278383
0.278669
0.279439
0.281323
0.284431
0.260097
0.0542578
0.0499243
0.277594
0.334886
0.33769
0.337761
0.337759
0.337758
0.337758
0.337758
0.337758
0.337758
0.337758
0.337758
0.337758
0.337758
0.337758
0.337758
0.337759
0.337759
0.33776
0.337762
0.337691
0.334901
0.277795
0.0501164
0.0437701
0.26401
0.333251
0.337764
0.33792
0.337922
0.337921
0.337921
0.337921
0.337921
0.337921
0.337921
0.337921
0.337921
0.337921
0.337921
0.337921
0.337921
0.337921
0.337922
0.33792
0.337752
0.332989
0.262075
0.04319
0.0394774
0.251895
0.331342
0.33766
0.337918
0.337922
0.337922
0.337921
0.337921
0.337921
0.337921
0.337921
0.337921
0.337921
0.337921
0.337921
0.337921
0.337921
0.337922
0.337922
0.337918
0.337665
0.331406
0.252184
0.0393954
0.0362561
0.240583
0.329275
0.337527
0.337915
0.337922
0.337922
0.337921
0.337921
0.337921
0.337921
0.337921
0.337921
0.337921
0.337921
0.337921
0.337921
0.337921
0.337922
0.337922
0.337915
0.337551
0.329626
0.242351
0.0364374
0.0339692
0.231837
0.327477
0.337392
0.33791
0.337923
0.337922
0.337921
0.337921
0.337921
0.337921
0.337921
0.337921
0.337921
0.337921
0.337921
0.337921
0.337921
0.337922
0.337923
0.337911
0.337439
0.328145
0.234823
0.0348621
0.0328282
0.224992
0.325972
0.33726
0.337904
0.337923
0.337922
0.337921
0.337921
0.337921
0.337921
0.337921
0.337921
0.337921
0.337921
0.337921
0.337921
0.337922
0.337922
0.337923
0.3379
0.337163
0.324856
0.220924
0.0322473
0.0301297
0.212414
0.322524
0.336936
0.337887
0.337923
0.337922
0.337922
0.337921
0.337921
0.337921
0.337921
0.337921
0.337921
0.337921
0.337921
0.337921
0.337922
0.337922
0.337923
0.337884
0.336862
0.321756
0.210024
0.029553
0.0299882
0.212794
0.323019
0.336963
0.337884
0.337922
0.337922
0.337922
0.337921
0.337921
0.337921
0.337921
0.337921
0.337921
0.337921
0.337921
0.337921
0.337921
0.337922
0.337922
0.337885
0.337
0.323407
0.214086
0.0300488
0.0301526
0.215324
0.323825
0.337003
0.337879
0.33792
0.337921
0.337921
0.337921
0.337921
0.337921
0.337921
0.337921
0.337921
0.337921
0.337921
0.337921
0.337921
0.337921
0.33792
0.337878
0.336996
0.323767
0.21509
0.0302191
0.0290695
0.201212
0.319007
0.336455
0.337833
0.337916
0.337921
0.337921
0.337921
0.337921
0.337921
0.337921
0.337921
0.337921
0.337921
0.337921
0.337921
0.337921
0.337921
0.337917
0.337846
0.33662
0.320366
0.204857
0.0295427
0.0284552
0.190687
0.31411
0.335802
0.337774
0.337911
0.337921
0.337921
0.337921
0.337921
0.337921
0.337921
0.337921
0.337921
0.337921
0.337921
0.337921
0.337921
0.337921
0.337911
0.33777
0.335752
0.313709
0.189624
0.0281283
0.0316866
0.204446
0.319137
0.33642
0.337824
0.337915
0.337921
0.337921
0.337921
0.337921
0.337921
0.337921
0.337921
0.337921
0.337921
0.337921
0.337921
0.337921
0.337921
0.337914
0.33781
0.336249
0.317746
0.200762
0.0310923
0.0351073
0.220551
0.324356
0.337005
0.33787
0.337918
0.337921
0.337921
0.337921
0.337921
0.337921
0.337921
0.337921
0.337921
0.337921
0.337921
0.337921
0.337921
0.337921
0.337918
0.337865
0.336952
0.323904
0.219266
0.0350161
0.0385631
0.235377
0.328187
0.337368
0.337894
0.33792
0.337921
0.337921
0.337921
0.337921
0.337921
0.337921
0.337921
0.337921
0.337921
0.337921
0.337921
0.337921
0.337921
0.33792
0.337896
0.337399
0.328589
0.237297
0.0389444
0.0420128
0.249877
0.331121
0.337599
0.337908
0.337921
0.337921
0.337921
0.337921
0.337921
0.337921
0.337921
0.337921
0.337921
0.337921
0.337921
0.337921
0.337921
0.337921
0.337921
0.337908
0.337599
0.331102
0.249661
0.0418933
0.0442348
0.257805
0.33244
0.33769
0.337913
0.337921
0.337921
0.337921
0.337921
0.337921
0.337921
0.337921
0.337921
0.337921
0.337921
0.337921
0.337921
0.337921
0.337921
0.337921
0.337912
0.337684
0.332344
0.257194
0.0441585
0.0467231
0.26508
0.33346
0.33775
0.337916
0.337921
0.337921
0.337921
0.337921
0.337921
0.337921
0.337921
0.337921
0.337921
0.337921
0.337921
0.337921
0.337921
0.337921
0.337921
0.337916
0.337759
0.333615
0.266268
0.0469691
0.0493731
0.273102
0.334436
0.337802
0.337918
0.337921
0.337921
0.337921
0.337921
0.337921
0.337921
0.337921
0.337921
0.337921
0.337921
0.337921
0.337921
0.337921
0.337921
0.337921
0.337917
0.337795
0.334292
0.271806
0.0490175
0.0513451
0.278016
0.334965
0.337828
0.337919
0.337921
0.337921
0.337921
0.337921
0.337921
0.337921
0.337921
0.337921
0.337921
0.337921
0.337921
0.337921
0.337921
0.337921
0.337921
0.337919
0.337827
0.334949
0.277916
0.0514568
0.0535224
0.282544
0.3354
0.337847
0.337919
0.337921
0.337921
0.337921
0.337921
0.337921
0.337921
0.337921
0.337921
0.337921
0.337921
0.337921
0.337921
0.337921
0.337921
0.337921
0.33792
0.337854
0.335562
0.284285
0.0539073
0.0561428
0.289134
0.335973
0.33787
0.33792
0.337921
0.337921
0.337921
0.337921
0.337921
0.337921
0.337921
0.337921
0.337921
0.337921
0.337921
0.337921
0.337921
0.337921
0.337921
0.33792
0.337866
0.335846
0.287557
0.0556437
0.0577425
0.292426
0.33623
0.33788
0.33792
0.337921
0.337921
0.337921
0.337921
0.337921
0.337921
0.337921
0.337921
0.337921
0.337921
0.337921
0.337921
0.337921
0.337921
0.337921
0.33792
0.33788
0.336237
0.292555
0.0579313
0.0593596
0.294819
0.336398
0.337886
0.337921
0.337921
0.337921
0.337921
0.337921
0.337921
0.337921
0.337921
0.337921
0.337921
0.337921
0.337921
0.337921
0.337921
0.337921
0.337921
0.337921
0.337889
0.336475
0.295909
0.0595989
0.0614202
0.299057
0.33668
0.337895
0.337921
0.337921
0.337921
0.337921
0.337921
0.337921
0.337921
0.337921
0.337921
0.337921
0.337921
0.337921
0.337921
0.337921
0.337921
0.337921
0.337921
0.337893
0.336622
0.298137
0.0611243
0.0626946
0.301193
0.33681
0.337899
0.337921
0.337921
0.337921
0.337921
0.337921
0.337921
0.337921
0.337921
0.337921
0.337921
0.337921
0.337921
0.337921
0.337921
0.337921
0.337921
0.337921
0.337899
0.336825
0.301448
0.06287
0.0639368
0.302544
0.336885
0.337901
0.337921
0.337921
0.337921
0.337921
0.337921
0.337921
0.337921
0.337921
0.337921
0.337921
0.337921
0.337921
0.337921
0.337921
0.337921
0.337921
0.337921
0.337902
0.33693
0.303325
0.0640842
0.0655675
0.305479
0.337046
0.337906
0.337921
0.337921
0.337921
0.337921
0.337921
0.337921
0.337921
0.337921
0.337921
0.337921
0.337921
0.337921
0.337921
0.337921
0.337921
0.337921
0.337921
0.337904
0.336999
0.304595
0.0652934
0.0665878
0.306928
0.337119
0.337908
0.337921
0.337921
0.337921
0.337921
0.337921
0.337921
0.337921
0.337921
0.337921
0.337921
0.337921
0.337921
0.337921
0.337921
0.337921
0.337921
0.337921
0.337908
0.337127
0.307078
0.0667205
0.0675647
0.307766
0.337159
0.337909
0.337921
0.337921
0.337921
0.337921
0.337921
0.337921
0.337921
0.337921
0.337921
0.337921
0.337921
0.337921
0.337921
0.337921
0.337921
0.337921
0.337921
0.337909
0.337191
0.308419
0.067679
0.0688149
0.309877
0.337259
0.337911
0.337921
0.337921
0.337921
0.337921
0.337921
0.337921
0.337921
0.337921
0.337921
0.337921
0.337921
0.337921
0.337921
0.337921
0.337921
0.337921
0.337921
0.33791
0.337224
0.309119
0.0685959
0.069599
0.310878
0.337303
0.337912
0.337921
0.337921
0.337921
0.337921
0.337921
0.337921
0.337921
0.337921
0.337921
0.337921
0.337921
0.337921
0.337921
0.337921
0.337921
0.337921
0.337921
0.337912
0.337307
0.310978
0.0696976
0.0703318
0.311366
0.337323
0.337912
0.337921
0.337921
0.337921
0.337921
0.337921
0.337921
0.337921
0.337921
0.337921
0.337921
0.337921
0.337921
0.337921
0.337921
0.337921
0.337921
0.337921
0.337913
0.337348
0.311942
0.0704221
0.0712485
0.312919
0.337388
0.337914
0.337921
0.337921
0.337921
0.337921
0.337921
0.337921
0.337921
0.337921
0.337921
0.337921
0.337921
0.337921
0.337921
0.337921
0.337921
0.337921
0.337921
0.337913
0.337363
0.312307
0.0710936
0.0718176
0.313616
0.337416
0.337914
0.337921
0.337921
0.337921
0.337921
0.337921
0.337921
0.337921
0.337921
0.337921
0.337921
0.337921
0.337921
0.337921
0.337921
0.337921
0.337921
0.337921
0.337914
0.337418
0.313659
0.0718789
0.0723341
0.313868
0.337426
0.337915
0.337921
0.337921
0.337921
0.337921
0.337921
0.337921
0.337921
0.337921
0.337921
0.337921
0.337921
0.337921
0.337921
0.337921
0.337921
0.337921
0.337921
0.337915
0.337444
0.314359
0.0723989
0.0729553
0.315008
0.337469
0.337916
0.337921
0.337921
0.337921
0.337921
0.337921
0.337921
0.337921
0.337921
0.337921
0.337921
0.337921
0.337921
0.337921
0.337921
0.337921
0.337921
0.337921
0.337915
0.337452
0.314557
0.0728639
0.0733325
0.315487
0.337487
0.337916
0.337921
0.337921
0.337921
0.337921
0.337921
0.337921
0.337921
0.337921
0.337921
0.337921
0.337921
0.337921
0.337921
0.337921
0.337921
0.337921
0.337921
0.337916
0.337486
0.31547
0.0733613
0.0736623
0.315579
0.33749
0.337916
0.337921
0.337921
0.337921
0.337921
0.337921
0.337921
0.337921
0.337921
0.337921
0.337921
0.337921
0.337921
0.337921
0.337921
0.337921
0.337921
0.337921
0.337916
0.337505
0.315985
0.0737022
0.0740312
0.316403
0.33752
0.337916
0.337921
0.337921
0.337921
0.337921
0.337921
0.337921
0.337921
0.337921
0.337921
0.337921
0.337921
0.337921
0.337921
0.337921
0.337921
0.337921
0.337921
0.337916
0.337509
0.316095
0.073985
0.0742466
0.316725
0.337531
0.337917
0.337921
0.337921
0.337921
0.337921
0.337921
0.337921
0.337921
0.337921
0.337921
0.337921
0.337921
0.337921
0.337921
0.337921
0.337921
0.337921
0.337921
0.337917
0.337527
0.316616
0.0742481
0.0744432
0.316919
0.337535
0.337917
0.337921
0.337921
0.337921
0.337921
0.337921
0.337921
0.337921
0.337921
0.337921
0.337921
0.337921
0.337921
0.337921
0.337921
0.337921
0.337921
0.337921
0.337917
0.33754
0.317066
0.0744541
0.153139
0.333634
0.337972
0.338003
0.338001
0.338
0.337998
0.337997
0.337996
0.337994
0.337993
0.337992
0.337991
0.33799
0.337989
0.337987
0.337986
0.337985
0.337984
0.337983
0.337982
0.337981
0.33798
0.33798
0.337979
0.337978
0.337977
0.337972
0.336531
0.173834
0.144627
0.335198
0.337907
0.337924
0.337924
0.337924
0.337924
0.337923
0.337923
0.337923
0.337923
0.337923
0.337923
0.337923
0.337923
0.337923
0.337923
0.337923
0.337923
0.337923
0.337923
0.337923
0.337923
0.337923
0.337923
0.337923
0.337923
0.337917
0.336326
0.171987
0.15143
0.335938
0.33791
0.337921
0.337921
0.337921
0.337921
0.337921
0.337921
0.337921
0.337921
0.337921
0.337921
0.337921
0.337921
0.337921
0.337921
0.337921
0.337921
0.337921
0.337921
0.337921
0.337921
0.337921
0.337921
0.337921
0.337921
0.337916
0.336273
0.170332
0.155341
0.335908
0.337911
0.337921
0.337921
0.337921
0.337921
0.337921
0.337921
0.337921
0.337921
0.337921
0.337921
0.337921
0.337921
0.337921
0.337921
0.337921
0.337921
0.337921
0.337921
0.337921
0.337921
0.337921
0.337921
0.337921
0.337921
0.337916
0.336233
0.16893
0.155143
0.335781
0.33791
0.337921
0.337921
0.337921
0.337921
0.337921
0.337921
0.337921
0.337921
0.337921
0.337921
0.337921
0.337921
0.337921
0.337921
0.337921
0.337921
0.337921
0.337921
0.337921
0.337921
0.337921
0.337921
0.337921
0.337921
0.337915
0.336191
0.167656
0.15481
0.335766
0.337911
0.337921
0.337921
0.337921
0.337921
0.337921
0.337921
0.337921
0.337921
0.337921
0.337921
0.337921
0.337921
0.337921
0.337921
0.337921
0.337921
0.337921
0.337921
0.337921
0.337921
0.337921
0.337921
0.337921
0.337921
0.337915
0.336147
0.166438
0.154848
0.335785
0.337911
0.337921
0.337921
0.337921
0.337921
0.337921
0.337921
0.337921
0.337921
0.337921
0.337921
0.337921
0.337921
0.337921
0.337921
0.337921
0.337921
0.337921
0.337921
0.337921
0.337921
0.337921
0.337921
0.337921
0.337921
0.337915
0.336105
0.165284
0.155302
0.335812
0.337911
0.337921
0.337921
0.337921
0.337921
0.337921
0.337921
0.337921
0.337921
0.337921
0.337921
0.337921
0.337921
0.337921
0.337921
0.337921
0.337921
0.337921
0.337921
0.337921
0.337921
0.337921
0.337921
0.337921
0.337921
0.337915
0.336067
0.164218
0.155764
0.335824
0.337912
0.337921
0.337921
0.337921
0.337921
0.337921
0.337921
0.337921
0.337921
0.337921
0.337921
0.337921
0.337921
0.337921
0.337921
0.337921
0.337921
0.337921
0.337921
0.337921
0.337921
0.337921
0.337921
0.337921
0.337921
0.337915
0.336031
0.163248
0.156063
0.335823
0.337912
0.337921
0.337921
0.337921
0.337921
0.337921
0.337921
0.337921
0.337921
0.337921
0.337921
0.337921
0.337921
0.337921
0.337921
0.337921
0.337921
0.337921
0.337921
0.337921
0.337921
0.337921
0.337921
0.337921
0.337921
0.337914
0.335999
0.162372
0.156177
0.335815
0.337912
0.337921
0.337921
0.337921
0.337921
0.337921
0.337921
0.337921
0.337921
0.337921
0.337921
0.337921
0.337921
0.337921
0.337921
0.337921
0.337921
0.337921
0.337921
0.337921
0.337921
0.337921
0.337921
0.337921
0.337921
0.337914
0.335969
0.161577
0.156173
0.335806
0.337912
0.337921
0.337921
0.337921
0.337921
0.337921
0.337921
0.337921
0.337921
0.337921
0.337921
0.337921
0.337921
0.337921
0.337921
0.337921
0.337921
0.337921
0.337921
0.337921
0.337921
0.337921
0.337921
0.337921
0.337921
0.337914
0.33594
0.160853
0.15614
0.335798
0.337912
0.337921
0.337921
0.337921
0.337921
0.337921
0.337921
0.337921
0.337921
0.337921
0.337921
0.337921
0.337921
0.337921
0.337921
0.337921
0.337921
0.337921
0.337921
0.337921
0.337921
0.337921
0.337921
0.337921
0.337921
0.337914
0.335914
0.160193
0.156057
0.335793
0.337913
0.337921
0.337921
0.337921
0.337921
0.337921
0.337921
0.337921
0.337921
0.337921
0.337921
0.337921
0.337921
0.337921
0.337921
0.337921
0.337921
0.337921
0.337921
0.337921
0.337921
0.337921
0.337921
0.337921
0.337921
0.337914
0.33589
0.159591
0.156075
0.33579
0.337913
0.337921
0.337921
0.337921
0.337921
0.337921
0.337921
0.337921
0.337921
0.337921
0.337921
0.337921
0.337921
0.337921
0.337921
0.337921
0.337921
0.337921
0.337921
0.337921
0.337921
0.337921
0.337921
0.337921
0.337921
0.337914
0.335869
0.159049
0.156
0.335781
0.337913
0.337921
0.337921
0.337921
0.337921
0.337921
0.337921
0.337921
0.337921
0.337921
0.337921
0.337921
0.337921
0.337921
0.337921
0.337921
0.337921
0.337921
0.337921
0.337921
0.337921
0.337921
0.337921
0.337921
0.337921
0.337913
0.335849
0.158563
0.155968
0.335779
0.337913
0.337921
0.337921
0.337921
0.337921
0.337921
0.337921
0.337921
0.337921
0.337921
0.337921
0.337921
0.337921
0.337921
0.337921
0.337921
0.337921
0.337921
0.337921
0.337921
0.337921
0.337921
0.337921
0.337921
0.337921
0.337913
0.335831
0.158129
0.155971
0.335775
0.337913
0.337921
0.337921
0.337921
0.337921
0.337921
0.337921
0.337921
0.337921
0.337921
0.337921
0.337921
0.337921
0.337921
0.337921
0.337921
0.337921
0.337921
0.337921
0.337921
0.337921
0.337921
0.337921
0.337921
0.337921
0.337913
0.335816
0.157746
0.155935
0.335771
0.337913
0.337921
0.337921
0.337921
0.337921
0.337921
0.337921
0.337921
0.337921
0.337921
0.337921
0.337921
0.337921
0.337921
0.337921
0.337921
0.337921
0.337921
0.337921
0.337921
0.337921
0.337921
0.337921
0.337921
0.337921
0.337913
0.335802
0.157412
0.155949
0.33577
0.337913
0.337921
0.337921
0.337921
0.337921
0.337921
0.337921
0.337921
0.337921
0.337921
0.337921
0.337921
0.337921
0.337921
0.337921
0.337921
0.337921
0.337921
0.337921
0.337921
0.337921
0.337921
0.337921
0.337921
0.337921
0.337913
0.335791
0.157123
0.15597
0.335768
0.337913
0.337921
0.337921
0.337921
0.337921
0.337921
0.337921
0.337921
0.337921
0.337921
0.337921
0.337921
0.337921
0.337921
0.337921
0.337921
0.337921
0.337921
0.337921
0.337921
0.337921
0.337921
0.337921
0.337921
0.337921
0.337913
0.335781
0.15688
0.155982
0.335767
0.337913
0.337921
0.337921
0.337921
0.337921
0.337921
0.337921
0.337921
0.337921
0.337921
0.337921
0.337921
0.337921
0.337921
0.337921
0.337921
0.337921
0.337921
0.337921
0.337921
0.337921
0.337921
0.337921
0.337921
0.337921
0.337913
0.335773
0.156677
0.156045
0.335768
0.337913
0.337921
0.337921
0.337921
0.337921
0.337921
0.337921
0.337921
0.337921
0.337921
0.337921
0.337921
0.337921
0.337921
0.337921
0.337921
0.337921
0.337921
0.337921
0.337921
0.337921
0.337921
0.337921
0.337921
0.337921
0.337913
0.335767
0.156513
0.156101
0.335769
0.337913
0.337921
0.337921
0.337921
0.337921
0.337921
0.337921
0.337921
0.337921
0.337921
0.337921
0.337921
0.337921
0.337921
0.337921
0.337921
0.337921
0.337921
0.337921
0.337921
0.337921
0.337921
0.337921
0.337921
0.337921
0.337913
0.335763
0.156387
0.156171
0.335961
0.337914
0.337921
0.337921
0.337921
0.337921
0.337921
0.337921
0.337921
0.337921
0.337921
0.337921
0.337921
0.337921
0.337921
0.337921
0.337921
0.337921
0.337921
0.337921
0.337921
0.337921
0.337921
0.337921
0.337921
0.337921
0.337913
0.33576
0.156294
0.173833
0.336531
0.337972
0.337977
0.337978
0.337979
0.33798
0.33798
0.337981
0.337982
0.337983
0.337984
0.337985
0.337986
0.337987
0.337989
0.33799
0.337991
0.337992
0.337993
0.337995
0.337996
0.337997
0.337998
0.338
0.338001
0.338003
0.337972
0.33363
0.153097
0.171986
0.336326
0.337917
0.337923
0.337923
0.337923
0.337923
0.337923
0.337923
0.337923
0.337923
0.337923
0.337923
0.337923
0.337923
0.337923
0.337923
0.337923
0.337923
0.337923
0.337923
0.337923
0.337923
0.337924
0.337924
0.337924
0.337924
0.337907
0.335199
0.144647
0.17033
0.336273
0.337916
0.337921
0.337921
0.337921
0.337921
0.337921
0.337921
0.337921
0.337921
0.337921
0.337921
0.337921
0.337921
0.337921
0.337921
0.337921
0.337921
0.337921
0.337921
0.337921
0.337921
0.337921
0.337921
0.337921
0.337921
0.33791
0.335937
0.151394
0.168929
0.336233
0.337916
0.337921
0.337921
0.337921
0.337921
0.337921
0.337921
0.337921
0.337921
0.337921
0.337921
0.337921
0.337921
0.337921
0.337921
0.337921
0.337921
0.337921
0.337921
0.337921
0.337921
0.337921
0.337921
0.337921
0.337921
0.337911
0.335912
0.155393
0.167656
0.336191
0.337915
0.337921
0.337921
0.337921
0.337921
0.337921
0.337921
0.337921
0.337921
0.337921
0.337921
0.337921
0.337921
0.337921
0.337921
0.337921
0.337921
0.337921
0.337921
0.337921
0.337921
0.337921
0.337921
0.337921
0.337921
0.33791
0.335779
0.155163
0.166437
0.336147
0.337915
0.337921
0.337921
0.337921
0.337921
0.337921
0.337921
0.337921
0.337921
0.337921
0.337921
0.337921
0.337921
0.337921
0.337921
0.337921
0.337921
0.337921
0.337921
0.337921
0.337921
0.337921
0.337921
0.337921
0.337921
0.337911
0.335765
0.154738
0.165285
0.336106
0.337915
0.337921
0.337921
0.337921
0.337921
0.337921
0.337921
0.337921
0.337921
0.337921
0.337921
0.337921
0.337921
0.337921
0.337921
0.337921
0.337921
0.337921
0.337921
0.337921
0.337921
0.337921
0.337921
0.337921
0.337921
0.337911
0.335789
0.154944
0.164218
0.336067
0.337915
0.337921
0.337921
0.337921
0.337921
0.337921
0.337921
0.337921
0.337921
0.337921
0.337921
0.337921
0.337921
0.337921
0.337921
0.337921
0.337921
0.337921
0.337921
0.337921
0.337921
0.337921
0.337921
0.337921
0.337921
0.337911
0.335808
0.15525
0.163248
0.336031
0.337915
0.337921
0.337921
0.337921
0.337921
0.337921
0.337921
0.337921
0.337921
0.337921
0.337921
0.337921
0.337921
0.337921
0.337921
0.337921
0.337921
0.337921
0.337921
0.337921
0.337921
0.337921
0.337921
0.337921
0.337921
0.337912
0.335826
0.15577
0.162372
0.335999
0.337914
0.337921
0.337921
0.337921
0.337921
0.337921
0.337921
0.337921
0.337921
0.337921
0.337921
0.337921
0.337921
0.337921
0.337921
0.337921
0.337921
0.337921
0.337921
0.337921
0.337921
0.337921
0.337921
0.337921
0.337921
0.337912
0.335822
0.156085
0.161576
0.335968
0.337914
0.337921
0.337921
0.337921
0.337921
0.337921
0.337921
0.337921
0.337921
0.337921
0.337921
0.337921
0.337921
0.337921
0.337921
0.337921
0.337921
0.337921
0.337921
0.337921
0.337921
0.337921
0.337921
0.337921
0.337921
0.337912
0.335813
0.156125
0.160853
0.335941
0.337914
0.337921
0.337921
0.337921
0.337921
0.337921
0.337921
0.337921
0.337921
0.337921
0.337921
0.337921
0.337921
0.337921
0.337921
0.337921
0.337921
0.337921
0.337921
0.337921
0.337921
0.337921
0.337921
0.337921
0.337921
0.337912
0.335809
0.156215
0.160194
0.335914
0.337914
0.337921
0.337921
0.337921
0.337921
0.337921
0.337921
0.337921
0.337921
0.337921
0.337921
0.337921
0.337921
0.337921
0.337921
0.337921
0.337921
0.337921
0.337921
0.337921
0.337921
0.337921
0.337921
0.337921
0.337921
0.337912
0.335797
0.156133
0.159592
0.33589
0.337914
0.337921
0.337921
0.337921
0.337921
0.337921
0.337921
0.337921
0.337921
0.337921
0.337921
0.337921
0.337921
0.337921
0.337921
0.337921
0.337921
0.337921
0.337921
0.337921
0.337921
0.337921
0.337921
0.337921
0.337921
0.337913
0.335793
0.156052
0.159049
0.335869
0.337914
0.337921
0.337921
0.337921
0.337921
0.337921
0.337921
0.337921
0.337921
0.337921
0.337921
0.337921
0.337921
0.337921
0.337921
0.337921
0.337921
0.337921
0.337921
0.337921
0.337921
0.337921
0.337921
0.337921
0.337921
0.337913
0.33579
0.15607
0.158564
0.335849
0.337913
0.337921
0.337921
0.337921
0.337921
0.337921
0.337921
0.337921
0.337921
0.337921
0.337921
0.337921
0.337921
0.337921
0.337921
0.337921
0.337921
0.337921
0.337921
0.337921
0.337921
0.337921
0.337921
0.337921
0.337921
0.337913
0.335782
0.156014
0.158129
0.335831
0.337913
0.337921
0.337921
0.337921
0.337921
0.337921
0.337921
0.337921
0.337921
0.337921
0.337921
0.337921
0.337921
0.337921
0.337921
0.337921
0.337921
0.337921
0.337921
0.337921
0.337921
0.337921
0.337921
0.337921
0.337921
0.337913
0.335778
0.155956
0.157746
0.335816
0.337913
0.337921
0.337921
0.337921
0.337921
0.337921
0.337921
0.337921
0.337921
0.337921
0.337921
0.337921
0.337921
0.337921
0.337921
0.337921
0.337921
0.337921
0.337921
0.337921
0.337921
0.337921
0.337921
0.337921
0.337921
0.337913
0.335776
0.155968
0.157413
0.335802
0.337913
0.337921
0.337921
0.337921
0.337921
0.337921
0.337921
0.337921
0.337921
0.337921
0.337921
0.337921
0.337921
0.337921
0.337921
0.337921
0.337921
0.337921
0.337921
0.337921
0.337921
0.337921
0.337921
0.337921
0.337921
0.337913
0.335771
0.155952
0.157124
0.33579
0.337913
0.337921
0.337921
0.337921
0.337921
0.337921
0.337921
0.337921
0.337921
0.337921
0.337921
0.337921
0.337921
0.337921
0.337921
0.337921
0.337921
0.337921
0.337921
0.337921
0.337921
0.337921
0.337921
0.337921
0.337921
0.337913
0.335769
0.155934
0.156879
0.335781
0.337913
0.337921
0.337921
0.337921
0.337921
0.337921
0.337921
0.337921
0.337921
0.337921
0.337921
0.337921
0.337921
0.337921
0.337921
0.337921
0.337921
0.337921
0.337921
0.337921
0.337921
0.337921
0.337921
0.337921
0.337921
0.337913
0.335769
0.155968
0.156677
0.335773
0.337913
0.337921
0.337921
0.337921
0.337921
0.337921
0.337921
0.337921
0.337921
0.337921
0.337921
0.337921
0.337921
0.337921
0.337921
0.337921
0.337921
0.337921
0.337921
0.337921
0.337921
0.337921
0.337921
0.337921
0.337921
0.337913
0.335767
0.155999
0.156514
0.335767
0.337913
0.337921
0.337921
0.337921
0.337921
0.337921
0.337921
0.337921
0.337921
0.337921
0.337921
0.337921
0.337921
0.337921
0.337921
0.337921
0.337921
0.337921
0.337921
0.337921
0.337921
0.337921
0.337921
0.337921
0.337921
0.337913
0.335767
0.15603
0.156387
0.335762
0.337913
0.337921
0.337921
0.337921
0.337921
0.337921
0.337921
0.337921
0.337921
0.337921
0.337921
0.337921
0.337921
0.337921
0.337921
0.337921
0.337921
0.337921
0.337921
0.337921
0.337921
0.337921
0.337921
0.337921
0.337921
0.337913
0.33577
0.156102
0.156294
0.33576
0.337913
0.337921
0.337921
0.337921
0.337921
0.337921
0.337921
0.337921
0.337921
0.337921
0.337921
0.337921
0.337921
0.337921
0.337921
0.337921
0.337921
0.337921
0.337921
0.337921
0.337921
0.337921
0.337921
0.337921
0.337921
0.337914
0.335961
0.156173
0.127174
0.127408
0.127643
0.127878
0.128112
0.128347
0.128582
0.128816
0.129051
0.129286
0.12952
0.129755
0.12999
0.130224
0.130459
0.130694
0.130929
0.131163
0.131398
0.131633
0.131867
0.132102
0.132337
0.132571
0.132806
0.133041
0.133275
0.13351
0.133745
0.13398
0.134214
0.134449
0.134684
0.134918
0.135153
0.135388
0.135622
0.135857
0.136092
0.136327
0.136561
0.136796
0.137031
0.137265
0.1375
0.137735
0.137969
0.138204
0.138439
0.138674
0.138908
0.139143
0.139378
0.139612
0.139847
0.140082
0.140316
0.140551
0.140786
0.141021
0.141255
0.14149
0.141725
0.141959
0.142194
0.142429
0.142664
0.142898
0.143133
0.143368
0.143602
0.143837
0.144072
0.144307
0.144541
0.144776
0.145011
0.145245
0.14548
0.145715
0.14595
0.146184
0.146419
0.146654
0.146888
0.147123
0.147358
0.147593
0.147827
0.148062
0.148297
0.148531
0.148766
0.149001
0.149236
0.14947
0.149705
0.14994
0.150175
0.150409
0.150644
0.150879
0.151113
0.151348
0.151583
0.151818
0.152052
0.152287
0.152522
0.152756
0.152991
0.153226
0.153461
0.153695
0.15393
0.154165
0.1544
0.154634
0.154869
0.155104
0.155338
0.155573
0.155808
0.156043
0.156277
0.333623
0.333657
0.333682
0.333707
0.333732
0.333756
0.33378
0.333804
0.333828
0.333852
0.333875
0.333898
0.333922
0.333945
0.333968
0.33399
0.334013
0.334035
0.334057
0.334079
0.334101
0.334123
0.334145
0.334166
0.334188
0.334209
0.33423
0.334251
0.334272
0.334292
0.334313
0.334333
0.334353
0.334373
0.334393
0.334413
0.334433
0.334452
0.334472
0.334491
0.33451
0.334529
0.334548
0.334567
0.334585
0.334604
0.334622
0.33464
0.334659
0.334677
0.334695
0.334712
0.33473
0.334748
0.334765
0.334782
0.3348
0.334817
0.334834
0.334851
0.334867
0.334884
0.334901
0.334917
0.334933
0.33495
0.334966
0.334982
0.334998
0.335014
0.335029
0.335045
0.335061
0.335076
0.335091
0.335107
0.335122
0.335137
0.335152
0.335167
0.335181
0.335196
0.335211
0.335225
0.335239
0.335254
0.335268
0.335282
0.335296
0.33531
0.335324
0.335338
0.335351
0.335365
0.335379
0.335392
0.335405
0.335419
0.335432
0.335445
0.335458
0.335471
0.335484
0.335496
0.335509
0.335522
0.335534
0.335547
0.335559
0.335572
0.335584
0.335596
0.335608
0.33562
0.335632
0.335644
0.335656
0.335668
0.335679
0.335691
0.335702
0.335714
0.335725
0.335737
0.33575
0.337895
0.337896
0.337896
0.337896
0.337896
0.337897
0.337897
0.337897
0.337897
0.337897
0.337898
0.337898
0.337898
0.337898
0.337899
0.337899
0.337899
0.337899
0.337899
0.3379
0.3379
0.3379
0.3379
0.3379
0.337901
0.337901
0.337901
0.337901
0.337901
0.337902
0.337902
0.337902
0.337902
0.337902
0.337902
0.337903
0.337903
0.337903
0.337903
0.337903
0.337904
0.337904
0.337904
0.337904
0.337904
0.337904
0.337904
0.337905
0.337905
0.337905
0.337905
0.337905
0.337905
0.337906
0.337906
0.337906
0.337906
0.337906
0.337906
0.337906
0.337906
0.337907
0.337907
0.337907
0.337907
0.337907
0.337907
0.337907
0.337908
0.337908
0.337908
0.337908
0.337908
0.337908
0.337908
0.337908
0.337908
0.337909
0.337909
0.337909
0.337909
0.337909
0.337909
0.337909
0.337909
0.337909
0.33791
0.33791
0.33791
0.33791
0.33791
0.33791
0.33791
0.33791
0.33791
0.33791
0.337911
0.337911
0.337911
0.337911
0.337911
0.337911
0.337911
0.337911
0.337911
0.337911
0.337911
0.337911
0.337912
0.337912
0.337912
0.337912
0.337912
0.337912
0.337912
0.337912
0.337912
0.337912
0.337912
0.337912
0.337913
0.337913
0.337913
0.337913
0.337913
0.337921
0.337921
0.337921
0.337921
0.337921
0.337921
0.337921
0.337921
0.337921
0.337921
0.337921
0.337921
0.337921
0.337921
0.337921
0.337921
0.337921
0.337921
0.337921
0.337921
0.337921
0.337921
0.337921
0.337921
0.337921
0.337921
0.337921
0.337921
0.337921
0.337921
0.337921
0.337921
0.337921
0.337921
0.337921
0.337921
0.337921
0.337921
0.337921
0.337921
0.337921
0.337921
0.337921
0.337921
0.337921
0.337921
0.337921
0.337921
0.337921
0.337921
0.337921
0.337921
0.337921
0.337921
0.337921
0.337921
0.337921
0.337921
0.337921
0.337921
0.337921
0.337921
0.337921
0.337921
0.337921
0.337921
0.337921
0.337921
0.337921
0.337921
0.337921
0.337921
0.337921
0.337921
0.337921
0.337921
0.337921
0.337921
0.337921
0.337921
0.337921
0.337921
0.337921
0.337921
0.337921
0.337921
0.337921
0.337921
0.337921
0.337921
0.337921
0.337921
0.337921
0.337921
0.337921
0.337921
0.337921
0.337921
0.337921
0.337921
0.337921
0.337921
0.337921
0.337921
0.337921
0.337921
0.337921
0.337921
0.337921
0.337921
0.337921
0.337921
0.337921
0.337921
0.337921
0.337921
0.337921
0.337921
0.337921
0.337921
0.337921
0.337921
0.337921
0.337921
0.337921
0.337921
0.337921
0.337921
0.337921
0.337921
0.337921
0.337921
0.337921
0.337921
0.337921
0.337921