/*--------------------------------*- C++ -*----------------------------------*\
| =========                 |                                                 |
| \\      /  F ield         | OpenFOAM: The Open Source CFD Toolbox           |
|  \\    /   O peration     | Version:  2112                                  |
|   \\  /    A nd           | Website:  www.openfoam.com                      |
|    \\/     M anipulation  |                                                 |
\*---------------------------------------------------------------------------*/
FoamFile
{
    version     2.0;
    format      ascii;
    arch        "LSB;label=32;scalar=64";
    class       surfaceScalarField;
    location    "6e-05";
    object      phi;
}
// * * * * * * * * * * * * * * * * * * * * * * * * * * * * * * * * * * * * * //

dimensions      [1 0 -1 0 0 0 0];

oriented        oriented;

internalField   nonuniform List<scalar> 
27436
(
-1.03954
8.85677
-0.657508
7.86412
-0.38808
7.84275
-0.241028
7.89694
-0.150647
7.92404
-0.0965941
7.94112
-0.0641618
7.95019
-0.0433767
7.95435
-0.028259
7.9562
-0.0156121
7.95699
-0.00393278
7.95731
0.00739506
7.95743
0.018636
7.95745
0.0299799
7.95741
0.0416768
7.95726
0.0542895
7.95687
0.0692885
7.95609
0.0899342
7.9543
0.12217
7.95023
0.175959
7.94125
0.265983
7.92422
0.41241
7.8971
0.680873
7.843
1.05907
7.86662
8.87608
-0.851147
9.51246
-0.580862
7.117
-0.351127
7.06031
-0.209517
7.23891
-0.127355
7.33383
-0.0804557
7.38932
-0.053438
7.42019
-0.0363765
7.43497
-0.0238698
7.44119
-0.013248
7.44356
-0.00333638
7.44436
0.00632731
7.44464
0.0159337
7.44472
0.0256179
7.44462
0.0355542
7.44434
0.0461665
7.44356
0.0585893
7.4412
0.0755167
7.43499
0.10233
7.42029
0.14895
7.38966
0.230723
7.33456
0.371888
7.24015
0.60241
7.06235
0.877084
7.12616
9.62852
-0.485673
9.06146
-0.396665
7.06013
-0.290506
7.23162
-0.205466
7.50328
-0.149522
7.69739
-0.114563
7.81053
-0.0924333
7.86321
-0.0766479
7.88613
-0.0636416
7.8952
-0.0517641
7.89836
-0.0403308
7.89922
-0.0290336
7.89947
-0.0177565
7.89959
-0.00643268
7.89951
0.00504147
7.89925
0.016927
7.89839
0.0299211
7.89524
0.0456831
7.88618
0.0677631
7.86335
0.102666
7.81092
0.158588
7.69802
0.242655
7.50504
0.344287
7.23603
0.43442
7.05451
9.11188
-0.0522773
9.59244
-0.0574131
8.52438
-0.172039
8.62916
-0.179846
8.6532
-0.156063
8.71556
-0.13114
8.75911
-0.1092
8.78084
-0.0898251
8.79023
-0.0719006
8.79391
-0.0546511
8.79524
-0.0376873
8.79572
-0.0208344
8.7959
-0.00399452
8.79592
0.0128788
8.79588
0.0298626
8.79576
0.0471368
8.79532
0.0650838
8.79397
0.0844373
8.79026
0.106294
8.78088
0.131011
8.75927
0.154312
8.71587
0.145919
8.65419
0.0210257
8.63136
0.0228078
8.51983
9.56312
0.446238
7.81072
0.212464
7.47328
0.00561271
7.63372
-0.054488
7.63718
-0.0653598
7.66778
-0.0590372
7.68786
-0.0482699
7.69788
-0.036839
7.70227
-0.025545
7.70406
-0.0144117
7.70476
-0.00336343
7.70504
0.0076307
7.70513
0.018606
7.70513
0.0295989
7.7051
0.0406424
7.705
0.0517863
7.7047
0.0630919
7.70393
0.0744845
7.70207
0.0851226
7.69767
0.0911538
7.68781
0.0797839
7.66806
0.0166829
7.63913
-0.187782
7.63545
-0.410531
7.47205
7.78172
0.228396
4.59937
0.125758
4.65283
0.0276446
4.65782
-0.00696762
4.63389
-0.0179095
4.61984
-0.0177037
4.61095
-0.0142699
4.60769
-0.0101326
4.60671
-0.00593206
4.60649
-0.00175855
4.60649
0.00239787
4.60651
0.00652423
4.60655
0.0106306
4.60655
0.0147454
4.6065
0.0188837
4.60644
0.0230586
4.60633
0.0272726
4.60623
0.0314117
4.60631
0.0348046
4.60711
0.0348845
4.61025
0.0241914
4.61917
-0.00851692
4.63389
-0.107593
4.65872
-0.205894
4.65507
4.59558
0.0151201
0.917756
0.0155078
0.962288
0.00445106
0.984059
-0.00163027
0.97216
-0.00576052
0.970511
-0.00801454
0.970379
-0.00976749
0.970622
-0.0114321
0.970822
-0.0130999
0.970947
-0.0147758
0.971026
-0.0164548
0.97107
-0.0181423
0.971087
-0.0198362
0.971089
-0.0215252
0.971082
-0.0232088
0.971064
-0.0248835
0.971022
-0.0265435
0.970943
-0.0281992
0.970803
-0.0299487
0.970571
-0.0322181
0.970301
-0.0363693
0.970462
-0.0445999
0.97263
-0.0518759
0.984552
-0.0478637
0.961655
0.910916
0.0032544
0.0515837
0.00467814
0.0558836
0.00480884
0.0576744
0.0043129
0.0575167
0.00385115
0.057557
0.00343866
0.0575955
0.00303243
0.0576195
0.00262386
0.0576315
0.00221285
0.0576372
0.00180096
0.0576402
0.00138873
0.0576415
0.000975828
0.0576412
0.000562576
0.0576404
0.000149529
0.0576395
-0.000263133
0.0576381
-0.000675158
0.0576358
-0.00108587
0.0576318
-0.00149426
0.0576244
-0.00190089
0.05761
-0.00231593
0.0575836
-0.00278615
0.0575439
-0.00326811
0.057518
-0.00312321
0.0576808
-0.00185677
0.0558264
0.0512889
0.00047013
0.0151237
0.000355866
0.0176083
0.00022214
0.0183585
0.000192607
0.0184929
0.000190835
0.0185101
0.000192232
0.0185123
0.000193869
0.0185128
0.000195472
0.0185129
0.000197046
0.018513
0.000198612
0.018513
0.000200174
0.018513
0.000201726
0.018513
0.000203274
0.0185131
0.000204826
0.0185131
0.00020638
0.0185131
0.000207939
0.0185131
0.000209506
0.0185131
0.000211096
0.0185131
0.000212696
0.018513
0.000213969
0.0185126
0.000211436
0.0185105
0.000175559
0.0184934
-1.91299e-05
0.0183619
-0.000169754
0.0176171
0.0151802
-0.00398
0.0142965
-0.00575484
0.0156832
-0.00635413
0.0169694
-0.0059152
0.0172845
-0.00526312
0.0173447
-0.00458101
0.0173512
-0.00389527
0.0173519
-0.00320916
0.0173519
-0.00252302
0.0173519
-0.00183688
0.0173519
-0.00115073
0.0173519
-0.000464587
0.0173519
0.000221556
0.0173519
0.000907699
0.0173519
0.00159384
0.0173519
0.00227998
0.0173519
0.00296611
0.0173519
0.00365221
0.0173519
0.00433793
0.0173518
0.00501999
0.0173511
0.00567194
0.0173438
0.00611081
0.0172775
0.00552487
0.0169206
0.00381653
0.0154851
0.0140372
-0.0048623
0.0136456
-0.00772945
0.0141997
-0.00898912
0.0158666
-0.00845647
0.0162049
-0.00749739
0.0162844
-0.0064716
0.016297
-0.00543716
0.0162985
-0.00440175
0.0162986
-0.00336624
0.0162986
-0.00233072
0.0162986
-0.0012952
0.0162986
-0.000259677
0.0162986
0.000775843
0.0162986
0.00181136
0.0162986
0.00284688
0.0162986
0.0038824
0.0162986
0.00491791
0.0162986
0.00595332
0.0162986
0.00698766
0.0162985
0.00801254
0.016297
0.00896509
0.0162849
0.00946371
0.0162042
0.0080913
0.0158636
0.00502992
0.0141539
0.0137075
-0.00466464
0.0127406
-0.00796672
0.0128111
-0.00972439
0.0146813
-0.00932157
0.0150593
-0.00832724
0.0151635
-0.00722785
0.0151794
-0.0061135
0.0151814
-0.00499734
0.0151817
-0.00388098
0.0151817
-0.00276461
0.0151817
-0.00164823
0.0151817
-0.000531854
0.0151817
0.000584522
0.0151817
0.0017009
0.0151817
0.00281728
0.0151817
0.00393365
0.0151817
0.00505001
0.0151817
0.00616618
0.0151817
0.00728059
0.0151815
0.00838043
0.0151796
0.00937722
0.0151648
0.00978737
0.0150667
0.00803649
0.0147119
0.00473311
0.0128887
0.0129394
-0.00410602
0.0121813
-0.00759646
0.0118009
-0.00970194
0.0135731
-0.00946033
0.0139247
-0.00850104
0.0140351
-0.00740059
0.0140532
-0.00627828
0.0140558
-0.00515307
0.0140561
-0.00402752
0.0140561
-0.00290194
0.0140561
-0.00177636
0.0140561
-0.000650773
0.0140561
0.000474812
0.0140561
0.0016004
0.0140561
0.00272598
0.0140561
0.00385156
0.0140561
0.00497711
0.0140561
0.00610236
0.0140561
0.00722497
0.0140558
0.00832747
0.0140536
0.00929818
0.0140379
0.00958431
0.0139407
0.00758649
0.0136306
0.00419892
0.0119987
0.012566
-0.00351886
0.0119846
-0.00694799
0.0112101
-0.0092124
0.0126142
-0.00914037
0.0128898
-0.0082892
0.0129865
-0.00727174
0.0130035
-0.00622656
0.013006
-0.00517738
0.0130063
-0.00412771
0.0130064
-0.00307799
0.0130064
-0.00202825
0.0130064
-0.000978523
0.0130064
7.12079e-05
0.0130064
0.00112094
0.0130064
0.00217067
0.0130064
0.0032204
0.0130064
0.00427007
0.0130064
0.00531931
0.0130063
0.00636495
0.0130059
0.00738557
0.013003
0.00825461
0.0129833
0.00840072
0.0128746
0.00629075
0.012552
0.00309482
0.0110508
0.0112451
-0.00233246
0.0108588
-0.00535381
0.0104812
-0.00756672
0.0116662
-0.00758087
0.0119228
-0.00682534
0.0120166
-0.00589358
0.0120344
-0.0049305
0.0120373
-0.00396257
0.0120377
-0.00299399
0.0120377
-0.00202534
0.0120377
-0.00105668
0.0120377
-8.80128e-05
0.0120377
0.00088065
0.0120377
0.00184931
0.0120377
0.00281797
0.0120377
0.00378662
0.0120377
0.00475517
0.0120377
0.0057229
0.0120376
0.0066846
0.0120372
0.00760826
0.0120336
0.00832593
0.012012
0.00818834
0.0119013
0.00574971
0.011608
0.00249848
0.0103005
0.0105745
-0.00232114
0.0117995
-0.00521324
0.01053
-0.00740444
0.0110285
-0.00751892
0.0110365
-0.00680911
0.0110628
-0.00588941
0.0110681
-0.0049289
0.011069
-0.00396151
0.0110692
-0.00299312
0.0110692
-0.00202461
0.0110692
-0.00105608
0.0110692
-8.75462e-05
0.0110692
0.000880986
0.0110692
0.00184952
0.0110692
0.00281805
0.0110692
0.00378656
0.0110692
0.00475492
0.0110692
0.00572215
0.0110692
0.00668161
0.0110691
0.0075955
0.0110683
0.00827846
0.0110642
0.00806856
0.0110435
0.0056671
0.0110599
0.00251013
0.0105312
0.0119627
-0.00135536
0.0123635
-0.0033408
0.0108099
-0.00492602
0.0106372
-0.00504967
0.0104956
-0.00461305
0.0104666
-0.00403712
0.0104614
-0.00343403
0.0104606
-0.00282621
0.0104605
-0.00221767
0.0104605
-0.00160904
0.0104605
-0.00100039
0.0104605
-0.000391735
0.0104605
0.000216916
0.0104605
0.000825567
0.0104605
0.00143422
0.0104605
0.00204285
0.0104605
0.0026514
0.0104605
0.00325929
0.0104605
0.0038628
0.0104607
0.0044409
0.0104615
0.00488628
0.0104674
0.0047854
0.0105008
0.00323681
0.0106329
0.00128793
0.0108669
0.0124504
-0.00054118
0.0125774
-0.00109033
0.0107799
-0.00152679
0.0105224
-0.00158655
0.0103814
-0.00149907
0.0103388
-0.00137694
0.0103315
-0.001248
0.0103303
-0.00111785
0.0103302
-0.000987505
0.0103302
-0.000857135
0.0103301
-0.00072676
0.0103301
-0.000596386
0.0103301
-0.000466011
0.0103301
-0.000335636
0.0103301
-0.000205262
0.0103301
-7.48903e-05
0.0103301
5.54615e-05
0.0103301
0.000185674
0.0103302
0.000315003
0.0103302
0.000439369
0.0103308
0.000538912
0.0103342
0.000548354
0.0103533
0.000344655
0.0104567
0.000150492
0.0106087
0.012345
0.00210003
0.0109117
0.00413339
0.010011
0.00569017
0.0107608
0.00576721
0.0108861
0.00529219
0.0109489
0.00468835
0.0109612
0.00405993
0.0109633
0.00342722
0.0109636
0.00279386
0.0109636
0.0021604
0.0109636
0.00152693
0.0109636
0.000893463
0.0109636
0.000259993
0.0109636
-0.000373476
0.0109636
-0.00100694
0.0109636
-0.0016404
0.0109636
-0.00227379
0.0109636
-0.00290665
0.0109636
-0.00353598
0.0109633
-0.00414472
0.0109616
-0.00464256
0.0109513
-0.00465994
0.010898
-0.00334967
0.0108053
-0.00165473
0.010109
0.0112344
0.00230628
0.00973342
0.00555217
0.00986164
0.008305
0.0113671
0.00857951
0.0118371
0.0078314
0.0120018
0.00681699
0.0120348
0.00575003
0.0120403
0.00467405
0.012041
0.00359672
0.0120411
0.00251922
0.0120411
0.00144169
0.0120411
0.000364161
0.0120411
-0.000713368
0.0120411
-0.0017909
0.0120411
-0.00286842
0.0120411
-0.00394593
0.0120411
-0.00502325
0.0120411
-0.00609921
0.012041
-0.00716598
0.0120402
-0.00817933
0.0120344
-0.008922
0.0119999
-0.00862272
0.0118288
-0.00580302
0.0113512
-0.00246468
0.00975913
0.0096853
0.00224991
0.0103391
0.00545507
0.0109638
0.0081014
0.0124881
0.00825605
0.0129266
0.00747797
0.0130618
0.00647702
0.0130864
0.00543499
0.0130902
0.00438641
0.0130907
0.00333694
0.0130907
0.00228735
0.0130907
0.00123775
0.0130907
0.000188154
0.0130907
-0.000861445
0.0130907
-0.00191104
0.0130907
-0.00296064
0.0130907
-0.00401023
0.0130907
-0.00505968
0.0130907
-0.00610809
0.0130907
-0.007149
0.0130901
-0.00814346
0.0130857
-0.00889006
0.0130571
-0.00862377
0.012904
-0.00574474
0.0124121
-0.00232596
0.0107635
0.00998042
0.00286807
0.0117095
0.00585284
0.0122877
0.0080082
0.0135995
0.00792588
0.0139447
0.00713586
0.0140379
0.0061996
0.014053
0.00523897
0.0140551
0.0042748
0.0140554
0.00331019
0.0140554
0.00234552
0.0140554
0.00138086
0.0140554
0.000416188
0.0140554
-0.000548479
0.0140554
-0.00151315
0.0140554
-0.00247781
0.0140554
-0.00344248
0.0140554
-0.00440708
0.0140554
-0.00537119
0.0140554
-0.00633143
0.0140551
-0.00726522
0.0140529
-0.00804275
0.0140369
-0.00808005
0.01394
-0.00583368
0.01358
-0.0027835
0.0122494
0.0115394
0.00329945
0.0129104
0.00593896
0.0135387
0.00759976
0.0145922
0.00736376
0.0148408
0.00661742
0.0148997
0.00577943
0.0149081
0.00492761
0.0149092
0.00407396
0.0149093
0.0032201
0.0149093
0.00236622
0.0149093
0.00151233
0.0149093
0.000658451
0.0149093
-0.000195432
0.0149093
-0.00104931
0.0149093
-0.0019032
0.0149093
-0.00275708
0.0149093
-0.00361094
0.0149093
-0.0044646
0.0149093
-0.00531653
0.0149092
-0.00615536
0.0149082
-0.00690736
0.0149003
-0.00717456
0.0148449
-0.00561779
0.0146129
-0.00312158
0.0136136
0.0131285
0.0033654
0.0143565
0.00552851
0.014646
0.00669632
0.0154658
0.00633833
0.0156321
0.00563626
0.0156684
0.00488034
0.015673
0.00411703
0.0156735
0.00335284
0.0156736
0.00258855
0.0156736
0.00182425
0.0156736
0.00105995
0.0156736
0.000295657
0.0156736
-0.00046864
0.0156736
-0.00123294
0.0156736
-0.00199724
0.0156736
-0.00276153
0.0156736
-0.00352582
0.0156736
-0.00429002
0.0156736
-0.00505333
0.0156735
-0.00580929
0.015673
-0.00651153
0.0156684
-0.00686842
0.0156316
-0.00568521
0.015463
-0.00348525
0.0146307
0.0143272
0.00383085
0.0151084
0.00586443
0.0155046
0.00681179
0.0162619
0.00637001
0.0164038
0.00565236
0.016432
0.00489592
0.0164352
0.00413455
0.0164355
0.00337263
0.0164356
0.00261066
0.0164356
0.00184869
0.0164356
0.00108672
0.0164356
0.000324746
0.0164356
-0.000437227
0.0164356
-0.0011992
0.0164356
-0.00196117
0.0164356
-0.00272315
0.0164356
-0.00348511
0.0164356
-0.00424703
0.0164356
-0.00500837
0.0164355
-0.00576464
0.0164352
-0.00648103
0.0164319
-0.00691523
0.0164036
-0.00594185
0.0162591
-0.00386904
0.0154936
0.0150126
0.00393225
0.0158575
0.00581964
0.0163327
0.0066056
0.0170032
0.00615305
0.0171208
0.00547704
0.0171422
0.00477183
0.0171444
0.00406312
0.0171447
0.00335403
0.0171447
0.00264492
0.0171447
0.0019358
0.0171447
0.00122668
0.0171447
0.000517562
0.0171447
-0.000191556
0.0171447
-0.000900675
0.0171447
-0.00160979
0.0171447
-0.00231891
0.0171447
-0.00302803
0.0171447
-0.00373711
0.0171447
-0.00444585
0.0171447
-0.00515128
0.0171444
-0.00582902
0.0171423
-0.00629344
0.0171216
-0.00555895
0.01701
-0.00376329
0.0163618
0.0160743
0.00378195
0.0168763
0.00538797
0.0171496
0.00595466
0.0177133
0.00547085
0.0178035
0.00481781
0.0178191
0.00414428
0.0178206
0.00346842
0.0178208
0.00279234
0.0178208
0.00211624
0.0178208
0.00144013
0.0178208
0.000764023
0.0178208
8.79173e-05
0.0178208
-0.000588189
0.0178208
-0.00126429
0.0178208
-0.0019404
0.0178208
-0.00261651
0.0178208
-0.00329261
0.0178208
-0.00396869
0.0178208
-0.00464453
0.0178208
-0.00531789
0.0178206
-0.00596945
0.017819
-0.0064416
0.0178022
-0.00581102
0.0177037
-0.00407943
0.0171018
0.0166471
0.00404761
0.0174487
0.00559047
0.0178507
0.00606848
0.0183763
0.00557917
0.018457
0.00494694
0.0184699
0.00429843
0.0184711
0.00364816
0.0184712
0.00299773
0.0184712
0.00234728
0.0184712
0.00169683
0.0184712
0.00104638
0.0184712
0.00039593
0.0184712
-0.00025452
0.0184712
-0.00090497
0.0184712
-0.00155542
0.0184712
-0.00220587
0.0184712
-0.00285632
0.0184712
-0.00350675
0.0184712
-0.00415702
0.0184712
-0.0048055
0.0184711
-0.00543747
0.01847
-0.00592565
0.0184575
-0.00545199
0.0183785
-0.00392423
0.017867
0.0173883
0.00398965
0.0179504
0.00542976
0.0185385
0.00582875
0.0189933
0.00536304
0.0190607
0.00477735
0.0190706
0.00417854
0.0190715
0.00357837
0.0190715
0.00297808
0.0190715
0.00237778
0.0190715
0.00177747
0.0190715
0.00117717
0.0190715
0.000576864
0.0190715
-2.34399e-05
0.0190715
-0.000623744
0.0190715
-0.00122405
0.0190715
-0.00182435
0.0190715
-0.00242466
0.0190715
-0.00302495
0.0190715
-0.00362514
0.0190715
-0.00422411
0.0190715
-0.00481132
0.0190707
-0.0052896
0.0190616
-0.00496216
0.0190018
-0.0036746
0.0185854
0.0183045
0.00336986
0.0189904
0.00446435
0.019232
0.00469269
0.0195659
0.00424128
0.0196111
0.00370445
0.0196176
0.00315877
0.0196181
0.00261222
0.0196182
0.0020656
0.0196182
0.00151897
0.0196182
0.000972335
0.0196182
0.000425704
0.0196182
-0.000120928
0.0196182
-0.00066756
0.0196182
-0.00121419
0.0196182
-0.00176082
0.0196182
-0.00230745
0.0196182
-0.00285409
0.0196182
-0.00340071
0.0196182
-0.00394725
0.0196182
-0.00449281
0.0196181
-0.00502856
0.0196175
-0.00546994
0.0196101
-0.00516999
0.0195572
-0.00390153
0.0191754
0.0186252
0.00357291
0.0194829
0.00463936
0.0197671
0.00484068
0.0200754
0.00441817
0.0201152
0.00392314
0.0201207
0.00342094
0.0201211
0.00291805
0.0201211
0.00241511
0.0201211
0.00191216
0.0201211
0.00140921
0.0201211
0.000906263
0.0201211
0.000403315
0.0201211
-9.96336e-05
0.0201211
-0.000602582
0.0201211
-0.00110553
0.0201211
-0.00160848
0.0201211
-0.00211143
0.0201211
-0.00261437
0.0201211
-0.00311726
0.0201211
-0.00361946
0.0201211
-0.00411453
0.0201207
-0.00453791
0.0201156
-0.00435099
0.0200777
-0.0033297
0.0197853
0.0194789
0.00356305
0.0197527
0.00456951
0.0202871
0.00472843
0.020566
0.00431422
0.0206014
0.00383593
0.0206059
0.00335146
0.0206062
0.0028664
0.0206062
0.0023813
0.0206062
0.00189619
0.0206062
0.00141109
0.0206062
0.000925981
0.0206062
0.000440876
0.0206062
-4.42295e-05
0.0206062
-0.000529335
0.0206062
-0.00101444
0.0206062
-0.00149955
0.0206062
-0.00198465
0.0206062
-0.00246975
0.0206062
-0.00295481
0.0206062
-0.00343935
0.0206062
-0.00391824
0.0206059
-0.00433803
0.0206018
-0.00421736
0.0205703
-0.00330686
0.0203161
0.0200435
0.00289752
0.0206021
0.00367146
0.0208076
0.00375155
0.0210094
0.00337363
0.0210333
0.00294816
0.0210363
0.00251827
0.0210365
0.00208798
0.0210366
0.00165766
0.0210366
0.00122734
0.0210366
0.000797014
0.0210366
0.000366691
0.0210366
-6.36319e-05
0.0210366
-0.000493955
0.0210366
-0.000924278
0.0210366
-0.0013546
0.0210366
-0.00178492
0.0210366
-0.00221525
0.0210366
-0.00264557
0.0210366
-0.00307585
0.0210366
-0.0035057
0.0210365
-0.00393073
0.0210363
-0.00430416
0.0210329
-0.00418567
0.0210053
-0.00330036
0.020777
0.0203484
0.00303287
0.0210037
0.00379291
0.0212198
0.00386738
0.0214067
0.00351861
0.021428
0.00312841
0.0214307
0.00273447
0.0214308
0.0023402
0.0214309
0.0019459
0.0214309
0.0015516
0.0214309
0.00115731
0.0214309
0.000763006
0.0214309
0.000368708
0.0214309
-2.55911e-05
0.0214309
-0.00041989
0.0214309
-0.000814189
0.0214309
-0.00120849
0.0214309
-0.00160279
0.0214309
-0.00199708
0.0214309
-0.00239136
0.0214309
-0.00278531
0.0214308
-0.00317565
0.0214307
-0.00352616
0.0214283
-0.00347229
0.0214089
-0.00277496
0.0212375
0.0210502
0.00305941
0.0211125
0.00377902
0.0216248
0.0038246
0.0218006
0.00347406
0.0218206
0.00308561
0.0218228
0.00269377
0.021823
0.00230163
0.021823
0.00190948
0.021823
0.00151732
0.021823
0.00112516
0.021823
0.000733006
0.021823
0.000340849
0.021823
-5.13089e-05
0.021823
-0.000443466
0.021823
-0.000835624
0.021823
-0.00122778
0.021823
-0.00161994
0.021823
-0.00201209
0.021823
-0.00240423
0.021823
-0.0027961
0.021823
-0.00318485
0.0218229
-0.0035383
0.0218208
-0.00351427
0.021803
-0.00285648
0.021643
0.0214157
0.00239213
0.0218509
0.00293989
0.0220306
0.00294475
0.0221537
0.00263057
0.022167
0.00228765
0.0221685
0.00194223
0.0221686
0.0015966
0.0221687
0.00125096
0.0221687
0.000905315
0.0221687
0.000559671
0.0221687
0.000214027
0.0221687
-0.000131617
0.0221687
-0.00047726
0.0221687
-0.000822904
0.0221687
-0.00116855
0.0221687
-0.00151419
0.0221687
-0.00185984
0.0221687
-0.00220548
0.0221687
-0.0025511
0.0221687
-0.00289649
0.0221686
-0.00323908
0.0221685
-0.00354967
0.0221667
-0.00351075
0.0221503
-0.00285315
0.0220014
0.0215481
0.00249817
0.0221671
0.00304599
0.0223502
0.00306023
0.0224638
0.00277952
0.0224757
0.00247338
0.0224771
0.00216507
0.0224772
0.00185657
0.0224772
0.00154807
0.0224772
0.00123956
0.0224772
0.000931052
0.0224772
0.000622544
0.0224772
0.000314036
0.0224772
5.52865e-06
0.0224772
-0.000302979
0.0224772
-0.000611487
0.0224772
-0.000919995
0.0224772
-0.0012285
0.0224772
-0.00153701
0.0224772
-0.0018455
0.0224772
-0.00215383
0.0224772
-0.00246006
0.0224771
-0.00274181
0.0224759
-0.00274164
0.022465
-0.00224419
0.0223614
0.022197
0.00251091
0.0221946
0.00302783
0.0226617
0.0030237
0.0227711
0.00274273
0.0227827
0.00243817
0.0227838
0.00213159
0.0227839
0.00182486
0.0227839
0.00151811
0.0227839
0.00121137
0.0227839
0.00090462
0.0227839
0.000597874
0.0227839
0.000291127
0.0227839
-1.56196e-05
0.0227839
-0.000322366
0.0227839
-0.000629113
0.0227839
-0.000935859
0.0227839
-0.00124261
0.0227839
-0.00154935
0.0227839
-0.00185609
0.0227839
-0.00216267
0.0227839
-0.00246743
0.0227838
-0.0027503
0.0227828
-0.00277045
0.0227728
-0.00230504
0.0226774
0.0225013
0.0018715
0.0228199
0.00225001
0.0229721
0.00222207
0.0230436
0.00197368
0.0230509
0.00170742
0.0230517
0.00143969
0.0230518
0.00117184
0.0230518
0.000903983
0.0230518
0.000636125
0.0230518
0.000368266
0.0230518
0.000100408
0.0230518
-0.000167451
0.0230518
-0.00043531
0.0230518
-0.000703168
0.0230518
-0.000971027
0.0230518
-0.00123889
0.0230518
-0.00150674
0.0230518
-0.0017746
0.0230518
-0.00204245
0.0230518
-0.00231016
0.0230518
-0.00257617
0.0230517
-0.00282191
0.0230507
-0.00282213
0.023041
-0.00234513
0.0229476
0.0224916
0.00195604
0.0230585
0.00234398
0.0232103
0.00233351
0.0232759
0.00211942
0.0232825
0.00188937
0.0232832
0.00165801
0.0232832
0.00142654
0.0232832
0.00119507
0.0232832
0.000963597
0.0232832
0.000732124
0.0232832
0.00050065
0.0232832
0.000269177
0.0232832
3.77037e-05
0.0232832
-0.00019377
0.0232832
-0.000425243
0.0232832
-0.000656716
0.0232832
-0.00088819
0.0232832
-0.00111966
0.0232832
-0.00135113
0.0232832
-0.0015825
0.0232832
-0.00181262
0.0232832
-0.00202749
0.0232826
-0.00204896
0.0232766
-0.00170507
0.023218
0.0230749
0.00196886
0.02301
0.0023336
0.0234401
0.0023109
0.0235062
0.00209681
0.023513
0.00186775
0.0235136
0.00163746
0.0235136
0.00140708
0.0235136
0.00117668
0.0235136
0.000946292
0.0235136
0.0007159
0.0235136
0.000485508
0.0235136
0.000255116
0.0235136
2.47237e-05
0.0235136
-0.000205669
0.0235136
-0.000436061
0.0235136
-0.000666453
0.0235136
-0.000896845
0.0235136
-0.00112724
0.0235136
-0.00135762
0.0235136
-0.00158792
0.0235136
-0.00181711
0.0235136
-0.00203263
0.0235131
-0.00206899
0.0235077
-0.00175175
0.0234547
0.0233166
0.0013611
0.0235391
0.00161187
0.0236676
0.00157542
0.023706
0.00139072
0.02371
0.00119493
0.0237104
0.000998251
0.0237104
0.000801506
0.0237104
0.000604756
0.0237104
0.000408007
0.0237104
0.000211257
0.0237104
1.45076e-05
0.0237104
-0.000182242
0.0237104
-0.000378992
0.0237104
-0.000575741
0.0237104
-0.000772491
0.0237104
-0.00096924
0.0237104
-0.00116599
0.0237104
-0.00136274
0.0237104
-0.00155948
0.0237104
-0.00175615
0.0237104
-0.00195176
0.0237103
-0.00213451
0.0237098
-0.00214902
0.0237041
-0.00181395
0.0236482
0.0232197
0.00142966
0.0237115
0.00169285
0.0238355
0.00167571
0.0238703
0.00152273
0.0238738
0.00135982
0.0238741
0.00119611
0.0238742
0.00103235
0.0238742
0.000868573
0.0238742
0.000704801
0.0238742
0.000541028
0.0238742
0.000377255
0.0238742
0.000213482
0.0238742
4.97095e-05
0.0238742
-0.000114063
0.0238742
-0.000277836
0.0238742
-0.000441609
0.0238742
-0.000605382
0.0238742
-0.000769154
0.0238742
-0.000932923
0.0238742
-0.00109664
0.0238742
-0.0012596
0.0238741
-0.00141314
0.0238738
-0.00143819
0.0238707
-0.00120975
0.0238396
0.023711
0.00144725
0.023603
0.00169382
0.0239938
0.001669
0.0240322
0.00151685
0.0240361
0.00135533
0.0240365
0.00119305
0.0240365
0.00103072
0.0240365
0.000868389
0.0240365
0.000706056
0.0240365
0.000543722
0.0240365
0.000381388
0.0240365
0.000219055
0.0240365
5.6721e-05
0.0240365
-0.000105613
0.0240365
-0.000267946
0.0240365
-0.00043028
0.0240365
-0.000592614
0.0240365
-0.000754947
0.0240365
-0.000917277
0.0240365
-0.00107956
0.0240365
-0.00124117
0.0240365
-0.00139442
0.0240362
-0.00143104
0.0240335
-0.00122774
0.0240068
0.0238944
0.000887124
0.0240405
0.00104087
0.0241481
0.00100931
0.0241665
0.000884261
0.0241685
0.000752621
0.0241687
0.000620464
0.0241687
0.000488269
0.0241687
0.000356072
0.0241687
0.000223875
0.0241687
9.16773e-05
0.0241687
-4.052e-05
0.0241687
-0.000172717
0.0241687
-0.000304915
0.0241687
-0.000437112
0.0241687
-0.00056931
0.0241687
-0.000701507
0.0241687
-0.000833704
0.0241687
-0.000965901
0.0241687
-0.0010981
0.0241687
-0.00123024
0.0241687
-0.00136176
0.0241687
-0.00148543
0.0241684
-0.00150043
0.0241652
-0.00127963
0.0241341
0.0237756
0.000941117
0.0241557
0.00110523
0.0242562
0.00109008
0.0242724
0.000990865
0.0242741
0.000885801
0.0242742
0.000780274
0.0242742
0.000674714
0.0242742
0.000569152
0.0242742
0.000463589
0.0242742
0.000358027
0.0242742
0.000252464
0.0242742
0.000146902
0.0242742
4.13391e-05
0.0242742
-6.42235e-05
0.0242742
-0.000169786
0.0242742
-0.000275349
0.0242742
-0.000380911
0.0242742
-0.000486474
0.0242742
-0.000592034
0.0242742
-0.000697562
0.0242742
-0.000802658
0.0242742
-0.000902216
0.0242741
-0.000922158
0.0242724
-0.000780852
0.0242571
0.0241374
0.000962655
0.0240053
0.00111598
0.0243522
0.00109727
0.0243741
0.00100076
0.0243765
0.000898765
0.0243767
0.00079633
0.0243767
0.000693863
0.0243767
0.000591394
0.0243767
0.000488924
0.0243767
0.000386455
0.0243767
0.000283985
0.0243767
0.000181516
0.0243767
7.90466e-05
0.0243767
-2.34229e-05
0.0243767
-0.000125892
0.0243767
-0.000228362
0.0243767
-0.000330831
0.0243767
-0.000433301
0.0243767
-0.000535768
0.0243767
-0.000638209
0.0243767
-0.00074028
0.0243767
-0.000837627
0.0243766
-0.00086629
0.0243753
-0.000751124
0.0243639
0.0242767
0.000462453
0.0243555
0.000540123
0.0244449
0.000518597
0.0244518
0.000446252
0.0244527
0.000370481
0.0244528
0.000294447
0.0244528
0.000218394
0.0244528
0.000142339
0.0244528
6.62846e-05
0.0244528
-9.76989e-06
0.0244528
-8.58244e-05
0.0244528
-0.000161879
0.0244528
-0.000237933
0.0244528
-0.000313988
0.0244528
-0.000390042
0.0244528
-0.000466097
0.0244528
-0.000542151
0.0244528
-0.000618206
0.0244528
-0.000694258
0.0244528
-0.000770286
0.0244528
-0.000845964
0.0244528
-0.000917251
0.0244527
-0.000925319
0.024451
-0.000792383
0.0244357
0.024181
0.000501616
0.0244248
0.000582815
0.0245199
0.000571213
0.0245112
0.000515798
0.0245114
0.000457375
0.0245114
0.000398717
0.0245114
0.000340042
0.0245114
0.000281366
0.0245114
0.00022269
0.0245114
0.000164014
0.0245114
0.000105338
0.0245114
4.66617e-05
0.0245114
-1.20144e-05
0.0245114
-7.06905e-05
0.0245114
-0.000129367
0.0245114
-0.000188043
0.0245114
-0.000246719
0.0245114
-0.000305395
0.0245114
-0.00036407
0.0245114
-0.000422727
0.0245114
-0.000481145
0.0245114
-0.000536468
0.0245114
-0.000546345
0.0245108
-0.000463297
0.0245155
0.0243877
0.000473072
0.0244676
0.000589372
0.0246869
0.00058102
0.0245692
0.000529363
0.0245669
0.000474365
0.0245667
0.000419109
0.0245667
0.000363835
0.0245667
0.000308559
0.0245667
0.000253283
0.0245667
0.000198007
0.0245667
0.00014273
0.0245667
8.74544e-05
0.0245667
3.21783e-05
0.0245667
-2.30978e-05
0.0245667
-7.83739e-05
0.0245667
-0.00013365
0.0245667
-0.000188926
0.0245667
-0.000244202
0.0245667
-0.000299477
0.0245667
-0.000354734
0.0245667
-0.000409759
0.0245667
-0.000461718
0.0245669
-0.000474763
0.0245701
-0.000376484
0.0246946
0.02453
-0.0131272
0.0543506
-0.0143451
0.0552712
-0.0140125
0.05594
-0.0135003
0.0559651
-0.0129813
0.0559662
-0.0124621
0.0559662
-0.0119428
0.0559662
-0.0114236
0.0559662
-0.0109043
0.0559662
-0.0103851
0.0559662
-0.00986583
0.0559662
-0.00934658
0.0559662
-0.00882732
0.0559662
-0.00830807
0.0559662
-0.00778881
0.0559662
-0.00726956
0.0559662
-0.00675031
0.0559662
-0.00623105
0.0559662
-0.0057118
0.0559662
-0.00519254
0.0559662
-0.00467329
0.0559662
-0.00415403
0.0559662
-0.00363478
0.0559662
-0.00311553
0.0559662
-0.00259627
0.0559662
-0.00207702
0.0559662
-0.00155768
0.0559662
-0.00103484
0.055966
-0.000414379
0.0559487
0.0559473
-0.0150515
0.0565357
-0.0162331
0.0548453
-0.0158545
0.0553641
-0.0152741
0.055378
-0.0146869
0.0553787
-0.0140994
0.0553788
-0.013512
0.0553788
-0.0129245
0.0553788
-0.012337
0.0553788
-0.0117495
0.0553788
-0.011162
0.0553788
-0.0105746
0.0553788
-0.0099871
0.0553788
-0.00939962
0.0553788
-0.00881214
0.0553788
-0.00822467
0.0553788
-0.00763719
0.0553788
-0.00704972
0.0553788
-0.00646224
0.0553788
-0.00587476
0.0553788
-0.00528729
0.0553788
-0.00469981
0.0553788
-0.00411233
0.0553788
-0.00352486
0.0553788
-0.00293738
0.0553788
-0.0023499
0.0553788
-0.0017624
0.0553788
-0.00117405
0.0553787
-0.000585114
0.0553782
0.0553418
-0.0127563
0.0554533
-0.0136331
0.0544745
-0.0132913
0.0548765
-0.0128029
0.0548858
-0.0123107
0.0548863
-0.0118183
0.0548863
-0.0113258
0.0548863
-0.0108334
0.0548863
-0.010341
0.0548863
-0.00984855
0.0548863
-0.00935613
0.0548863
-0.0088637
0.0548863
-0.00837127
0.0548863
-0.00787884
0.0548863
-0.00738641
0.0548863
-0.00689399
0.0548863
-0.00640156
0.0548863
-0.00590913
0.0548863
-0.0054167
0.0548863
-0.00492428
0.0548863
-0.00443185
0.0548863
-0.00393942
0.0548863
-0.00344699
0.0548863
-0.00295457
0.0548863
-0.00246214
0.0548863
-0.00196971
0.0548863
-0.00147726
0.0548863
-0.000984308
0.0548863
-0.000491279
0.0548862
0.0548486
-0.0108625
0.054521
-0.011566
0.0541074
-0.011267
0.0544594
-0.0108528
0.0544685
-0.0104355
0.0544689
-0.0100181
0.0544689
-0.00960067
0.0544689
-0.00918325
0.0544689
-0.00876583
0.0544689
-0.00834841
0.0544689
-0.00793099
0.0544689
-0.00751357
0.0544689
-0.00709615
0.0544689
-0.00667873
0.0544689
-0.00626131
0.0544689
-0.00584389
0.0544689
-0.00542647
0.0544689
-0.00500905
0.0544689
-0.00459162
0.0544689
-0.0041742
0.0544689
-0.00375678
0.0544689
-0.00333936
0.0544689
-0.00292194
0.0544689
-0.00250452
0.0544689
-0.0020871
0.0544689
-0.00166968
0.0544689
-0.00125224
0.0544689
-0.000834377
0.0544689
-0.000416461
0.0544688
0.0544312
-0.0103417
0.0540804
-0.0110266
0.053748
-0.0107417
0.0540623
-0.0103469
0.0540706
-0.00994905
0.0540709
-0.0095511
0.0540709
-0.00915313
0.0540709
-0.00875517
0.0540709
-0.00835721
0.0540709
-0.00795925
0.0540709
-0.00756128
0.0540709
-0.00716332
0.0540709
-0.00676536
0.0540709
-0.0063674
0.0540709
-0.00596944
0.0540709
-0.00557147
0.0540709
-0.00517351
0.0540709
-0.00477555
0.0540709
-0.00437759
0.0540709
-0.00397962
0.0540709
-0.00358166
0.0540709
-0.0031837
0.0540709
-0.00278574
0.0540709
-0.00238777
0.0540709
-0.00198981
0.0540709
-0.00159185
0.0540709
-0.00119387
0.0540709
-0.000795481
0.0540709
-0.000397061
0.0540709
0.0540332
-0.00990068