/*--------------------------------*- C++ -*----------------------------------*\
| =========                 |                                                 |
| \\      /  F ield         | OpenFOAM: The Open Source CFD Toolbox           |
|  \\    /   O peration     | Version:  2112                                  |
|   \\  /    A nd           | Website:  www.openfoam.com                      |
|    \\/     M anipulation  |                                                 |
\*---------------------------------------------------------------------------*/
FoamFile
{
    version     2.0;
    format      ascii;
    arch        "LSB;label=32;scalar=64";
    class       volVectorField;
    location    "6e-05";
    object      U;
}
// * * * * * * * * * * * * * * * * * * * * * * * * * * * * * * * * * * * * * //

dimensions      [0 1 -1 0 0 0 0];

internalField   nonuniform List<vector> 
13875
(
(2300.44 188.043 1.37279e-18)
(2264.32 117.155 -7.73775e-19)
(2298.96 60.0989 -7.1527e-19)
(2325.42 33.4532 0)
(2339.77 17.0642 0)
(2347.05 8.13474 6.41892e-19)
(2350.44 3.56658 -6.40432e-19)
(2351.86 1.44563 -3.1788e-19)
(2352.4 0.548699 3.17384e-19)
(2352.57 0.199202 0)
(2352.61 0.069522 -3.19648e-22)
(2352.62 0.0201042 -3.19643e-22)
(2352.62 -0.00369647 0)
(2352.62 -0.028794 -3.16992e-19)
(2352.63 -0.0812347 3.17311e-19)
(2352.63 -0.21145 0)
(2352.49 -0.555422 6.35217e-19)
(2351.96 -1.44199 -6.359e-19)
(2350.52 -3.54872 3.21269e-22)
(2347.12 -8.097 -3.23742e-22)
(2339.79 -16.9978 -6.61687e-19)
(2325.37 -33.3465 6.67497e-19)
(2298.74 -59.9449 -1.43142e-18)
(2263.5 -116.77 1.4573e-18)
(2297.81 -187.163 1.40631e-18)
(2249.88 179.272 -1.47353e-18)
(2223.62 106.479 1.71539e-18)
(2240.94 62.1832 8.11995e-19)
(2256.48 33.5691 -8.07832e-19)
(2264.26 16.3596 4.24775e-22)
(2267.7 7.42955 3.71698e-22)
(2269.13 3.1297 4.20853e-22)
(2269.63 1.23515 -3.88543e-19)
(2269.8 0.465364 3.88345e-19)
(2269.84 0.172765 1.9366e-19)
(2269.84 0.0637111 -1.45185e-19)
(2269.83 0.019697 -4.73092e-20)
(2269.83 -0.004003 0)
(2269.83 -0.0296237 -3.88482e-19)
(2269.85 -0.0782193 3.877e-19)
(2269.87 -0.189718 3.88131e-19)
(2269.85 -0.477275 -3.8818e-19)
(2269.7 -1.23305 3.68342e-22)
(2269.21 -3.10349 -3.69441e-22)
(2267.77 -7.3652 3.71645e-22)
(2264.3 -16.2397 -7.95364e-19)
(2256.47 -33.3854 2.41431e-18)
(2240.78 -61.9707 -1.62352e-18)
(2223.18 -106.01 3.97011e-22)
(2254.45 -181.672 -1.53662e-18)
(2153.26 108.703 0)
(2102.16 44.6174 0)
(2093.75 38.6415 0)
(2098.99 22.3854 0)
(2102.86 11.0971 -2.07816e-18)
(2104.84 5.00128 2.0701e-18)
(2105.71 2.07648 2.06342e-18)
(2106.09 0.812475 -3.09002e-18)
(2106.23 0.307121 1.02984e-18)
(2106.26 0.114687 4.58182e-22)
(2106.27 0.0430587 -5.14633e-19)
(2106.26 0.014464 5.14986e-19)
(2106.26 -0.00267045 0)
(2106.26 -0.0224122 0)
(2106.27 -0.0573483 4.58201e-22)
(2106.28 -0.133979 0)
(2106.25 -0.325974 1.25143e-21)
(2106.13 -0.824944 5.15055e-19)
(2105.75 -2.0748 -5.15645e-19)
(2104.88 -4.97401 0)
(2102.87 -11.0241 0)
(2098.94 -22.2244 0)
(2093.63 -38.3431 0)
(2102.17 -43.2568 0)
(2153 -106.44 0)
(1853.2 4.70844 0)
(1746.75 -39.5658 2.23775e-18)
(1722.78 0.275962 -4.32277e-18)
(1726.47 3.64863 4.34573e-18)
(1731.31 3.13528 -2.16251e-18)
(1734.12 1.80407 0)
(1735.38 0.87566 -8.84798e-22)
(1735.89 0.383574 0)
(1736.08 0.158313 0)
(1736.14 0.063503 0)
(1736.16 0.0253859 0)
(1736.17 0.0094663 -8.83887e-22)
(1736.16 -0.000255409 -6.76916e-20)
(1736.16 -0.0112026 6.76916e-20)
(1736.15 -0.0301138 0)
(1736.12 -0.0716161 0)
(1736.05 -0.168973 1.28151e-21)
(1735.86 -0.39323 -1.0846e-18)
(1735.35 -0.875653 1.0838e-18)
(1734.07 -1.77773 -2.16317e-18)
(1731.24 -3.04687 2.17593e-18)
(1726.36 -3.41077 2.1638e-18)
(1722.62 0.15786 -2.18721e-18)
(1746.31 40.1264 0)
(1851.23 -3.80694 0)
(1209.87 -39.924 2.46424e-18)
(1197.09 -66.4281 0)
(1206.39 -16.8157 0)
(1217.38 -5.74055 0)
(1223.23 -1.0343 0)
(1226.01 0.0548993 1.93309e-21)
(1227.14 0.186848 1.93157e-21)
(1227.57 0.127129 5.4533e-19)
(1227.72 0.0687129 -5.41378e-19)
(1227.77 0.035264 2.69756e-19)
(1227.78 0.0173541 -2.73618e-19)
(1227.78 0.00724934 0)
(1227.78 0.00101237 0)
(1227.77 -0.00509331 -1.93116e-21)
(1227.76 -0.0148835 0)
(1227.74 -0.0335148 -1.93107e-21)
(1227.68 -0.0689815 1.08259e-18)
(1227.51 -0.127514 -1.08276e-18)
(1227.08 -0.181146 2.17515e-18)
(1225.93 -0.0312729 -2.17543e-18)
(1223.14 1.1039 1.93694e-21)
(1217.28 5.88004 0)
(1206.36 16.9015 0)
(1196.69 66.1547 0)
(1207.33 39.8965 0)
(735.315 -21.5901 0)
(752.031 -37.0623 1.05063e-18)
(766.653 -9.98053 -1.0334e-18)
(772.37 -4.49071 0)
(775.053 -1.07678 1.01773e-18)
(776.318 -0.163509 -5.11044e-19)
(776.827 0.0400174 -2.16783e-21)
(777.018 0.0532144 -2.56348e-19)
(777.086 0.0368712 -5.10591e-19)
(777.112 0.0229585 1.92849e-19)
(777.12 0.012476 2.20317e-21)
(777.12 0.00515665 3.16428e-19)
(777.116 0.0013048 -2.5421e-19)
(777.112 -0.00179634 3.53783e-21)
(777.106 -0.007022 -5.0841e-19)
(777.091 -0.0163451 5.1062e-19)
(777.059 -0.0317058 2.20433e-21)
(776.98 -0.0499151 -2.20415e-21)
(776.781 -0.0358087 -2.20394e-21)
(776.267 0.175568 -1.01731e-18)
(775.004 1.11736 1.01549e-18)
(772.355 4.55631 0)
(766.786 9.86693 0)
(751.973 36.5908 -2.18184e-18)
(733.08 21.4566 -7.88411e-20)
(343.613 -0.304976 -3.75505e-20)
(356.046 -6.09327 3.71699e-20)
(363.279 -1.54886 0)
(363.848 -1.23433 -1.09103e-23)
(364.342 -0.236557 -1.08842e-23)
(364.621 -0.0127592 0)
(364.755 0.0276344 0)
(364.816 0.0230865 -5.82717e-19)
(364.843 0.0154059 5.82733e-19)
(364.857 0.0100666 0)
(364.864 0.00574193 1.16544e-18)
(364.865 0.00275471 2.23256e-21)
(364.863 0.00165054 -1.16557e-18)
(364.86 0.000666522 -2.23999e-21)
(364.856 -0.00145419 0)
(364.848 -0.00498551 2.33109e-18)
(364.832 -0.0109058 -7.99068e-23)
(364.8 -0.0198132 -4.66215e-18)
(364.733 -0.024702 2.33105e-18)
(364.594 0.0185124 1.08791e-23)
(364.314 0.263423 0)
(363.858 1.2701 2.35607e-18)
(363.332 1.49489 -2.35197e-18)
(355.831 5.66201 2.37494e-18)
(343.067 0.0336513 -2.40545e-18)
(60.6688 0.844037 1.91981e-20)
(64.2265 0.220531 -1.66258e-18)
(65.8938 0.0968558 1.8543e-22)
(65.5756 -0.0394772 1.77519e-23)
(65.5781 0.00267661 -1.67559e-22)
(65.6034 0.00659921 0)
(65.6245 0.00459204 -8.45171e-19)
(65.6364 0.00253476 8.45126e-19)
(65.6426 0.00142889 0)
(65.6462 0.00085252 -1.85281e-22)
(65.648 0.000404129 -1.85279e-22)
(65.6481 0.000110882 0)
(65.6475 2.60575e-05 0)
(65.6469 -3.98297e-05 -3.52869e-22)
(65.6457 -0.000221601 -1.85271e-22)
(65.6435 -0.00055981 1.76773e-23)
(65.6394 -0.00119938 -2.02942e-22)
(65.6319 -0.00245606 -1.76761e-23)
(65.618 -0.00459028 -4.22481e-19)
(65.5949 -0.00639178 4.75611e-23)
(65.5692 -0.000631181 4.22618e-19)
(65.5861 0.0432601 2.02999e-22)
(65.9056 -0.100528 8.42055e-19)
(64.1677 -0.229585 -8.44789e-19)
(60.2483 -0.835078 1.79682e-23)
(10.5312 -0.074048 1.81382e-19)
(11.6021 -0.119947 0)
(11.824 -0.0273485 -1.99519e-22)
(11.8406 -0.0046031 -1.80913e-19)
(11.8451 -0.000369333 3.62034e-19)
(11.8472 7.26062e-05 -3.61838e-19)
(11.8485 6.90448e-05 8.76335e-23)
(11.8491 4.49406e-05 1.80922e-19)
(11.8494 3.29203e-05 0)
(11.8495 2.67242e-05 -1.80637e-19)
(11.8496 2.17637e-05 1.81124e-19)
(11.8496 1.89639e-05 0)
(11.8495 1.85372e-05 0)
(11.8495 1.80845e-05 4.86834e-22)
(11.8494 1.6399e-05 1.99365e-22)
(11.8493 1.32498e-05 1.8093e-19)
(11.8491 7.05081e-06 -1.80732e-19)
(11.8488 -6.31179e-06 0)
(11.8481 -3.08374e-05 1.80933e-19)
(11.8467 -2.516e-05 -3.6178e-19)
(11.8446 0.000519638 1.80735e-19)
(11.8406 0.00579728 -1.99326e-22)
(11.8247 0.0308869 0)
(11.6012 0.155551 0)
(10.5559 0.109578 0)
(8.28226 -0.984534 -1.25763e-17)
(9.4447 -1.12746 1.26387e-17)
(9.9294 -0.217398 0)
(10.0308 -0.0415776 -6.26687e-18)
(10.0481 -0.00520562 6.26625e-18)
(10.0502 -0.000568758 0)
(10.0505 -5.24767e-05 -6.21237e-21)
(10.0505 -3.70097e-06 -3.13126e-18)
(10.0505 2.12424e-07 3.12471e-18)
(10.0505 5.1429e-07 -6.20952e-21)
(10.0505 5.22407e-07 0)
(10.0505 4.77264e-07 -7.82273e-19)
(10.0505 4.74472e-07 1.16706e-18)
(10.0505 4.76588e-07 -3.97177e-19)
(10.0504 4.58781e-07 -6.10741e-21)
(10.0504 4.40724e-07 0)
(10.0504 6.93815e-07 0)
(10.0504 4.75473e-06 -6.25e-18)
(10.0504 5.4338e-05 6.24226e-18)
(10.0501 0.000577197 -6.24672e-18)
(10.048 0.00525509 6.2388e-18)
(10.0305 0.0417803 6.24646e-18)
(9.92833 0.217732 -6.23617e-18)
(9.45176 1.1094 -1.25675e-17)
(8.26615 0.963576 -6.28668e-20)
(8.13814 -1.75866 -1.42185e-17)
(8.80893 -1.98232 1.43726e-17)
(9.7584 -0.394038 0)
(9.95342 -0.0869173 1.42206e-17)
(9.99501 -0.0119771 -1.42241e-17)
(10.0005 -0.00143946 -7.11515e-18)
(10.0011 -0.000149636 7.12627e-18)
(10.0011 -1.36362e-05 -7.12362e-18)
(10.0011 -1.18432e-06 7.12788e-18)
(10.0011 -1.68227e-07 6.96479e-21)
(10.0011 -9.03169e-08 0)
(10.0011 -8.5574e-08 -4.46181e-19)
(10.0011 -8.42352e-08 4.53373e-19)
(10.0011 -8.20929e-08 6.97848e-21)
(10.0011 -7.46236e-08 6.98168e-21)
(10.0011 9.13623e-09 6.98416e-21)
(10.0011 1.12476e-06 0)
(10.0011 1.47609e-05 0)
(10.0011 0.000162818 -1.43132e-17)
(10.0004 0.00155987 1.43256e-17)
(9.99436 0.0128994 -1.43333e-17)
(9.94893 0.0921809 2.86938e-17)
(9.73875 0.413854 -1.43501e-17)
(8.71562 2.05752 -7.02335e-21)
(8.02147 1.82541 7.10117e-21)
(8.22756 -2.22054 -1.56715e-17)
(8.44186 -2.48803 1.87454e-19)
(9.67087 -0.525963 3.13195e-17)
(9.9247 -0.132061 -1.56619e-17)
(9.98933 -0.020247 0)
(9.99875 -0.00266006 1.56401e-17)
(9.99991 -0.00029847 -1.56436e-17)
(10 -2.95553e-05 0)
(10 -2.61048e-06 7.64137e-21)
(10 -2.01154e-07 0)
(10 -4.78537e-09 0)
(10 9.92319e-09 0)
(10 1.11125e-08 9.78647e-19)
(10 1.23121e-08 -9.78712e-19)
(10 2.64219e-08 -7.64621e-21)
(10 2.13709e-07 -7.64604e-21)
(10 2.52113e-06 0)
(10 2.85023e-05 0)
(9.99992 0.000289413 0)
(9.99881 0.00259412 -1.56572e-17)
(9.98976 0.0198671 3.13299e-17)
(9.92698 0.130815 -1.56698e-17)
(9.68155 0.521185 -1.57101e-17)
(8.45812 2.50064 1.56928e-17)
(8.31959 2.24201 -7.72844e-21)
(8.32655 -2.54849 1.71574e-17)
(8.2621 -2.83687 0)
(9.62158 -0.634706 0)
(9.90289 -0.176269 -1.69198e-17)
(9.98497 -0.0294737 1.69244e-17)
(9.99803 -0.0042057 0)
(9.99978 -0.000513157 2.06515e-21)
(9.99998 -5.50372e-05 8.45835e-18)
(10 -5.26063e-06 -8.45563e-18)
(10 -4.64168e-07 0)
(10 -3.78103e-08 -2.11397e-18)
(10 -3.09359e-09 2.11576e-18)
(10 -3.28118e-10 -1.05667e-18)
(10 2.14835e-09 1.05849e-18)
(10 3.28515e-08 8.25106e-21)
(10 4.12085e-07 -8.44664e-18)
(10 4.70726e-06 1.68901e-17)
(9.99998 4.96519e-05 6.10878e-24)
(9.99981 0.000467047 -8.43835e-18)
(9.99825 0.00387218 -1.68714e-17)
(9.98646 0.0274772 1.68539e-17)
(9.91083 0.167564 1.02918e-20)
(9.65324 0.604959 2.0605e-21)
(8.34972 2.77596 1.70907e-17)
(8.48818 2.5049 1.68732e-19)
(8.619 -2.7101 0)
(8.32932 -2.99023 0)
(9.63287 -0.693926 0)
(9.89566 -0.209587 0)
(9.98272 -0.037446 0)
(9.99756 -0.00572043 1.79019e-17)
(9.99971 -0.000749425 -1.78888e-17)
(9.99997 -8.68888e-05 1.74519e-20)
(10 -9.00688e-06 -2.17954e-21)
(10 -8.57657e-07 4.45963e-18)
(10 -7.53092e-08 -4.47288e-18)
(10 -6.1406e-09 -3.69494e-20)
(10 -6.10333e-11 -1.38969e-19)
(10 5.52366e-09 1.54008e-19)
(10 6.80651e-08 -4.43761e-18)
(10 7.7303e-07 4.43276e-18)
(10 8.11695e-06 1.51342e-20)
(9.99997 7.83704e-05 0)
(9.99974 0.000677684 0)
(9.99785 0.00519585 0)
(9.98471 0.0342489 -1.76342e-17)
(9.90695 0.194623 -1.42577e-20)
(9.66507 0.654205 1.75933e-17)
(8.48772 2.86238 2.15535e-21)
(8.69631 2.57922 2.17262e-21)
(8.94191 -2.66263 0)
(8.6444 -2.94651 4.5583e-21)
(9.68717 -0.715339 0)
(9.90592 -0.228163 -1.86018e-17)
(9.98345 -0.043152 3.72435e-17)
(9.99752 -0.00700062 -1.86322e-17)
(9.99968 -0.000979302 0)
(9.99996 -0.000121809 -1.82231e-20)
(10 -1.36104e-05 0)
(10 -1.40232e-06 0)
(10 -1.33483e-07 -2.31501e-18)
(10 -1.16825e-08 2.37152e-18)
(10 3.37598e-10 2.34114e-18)
(10 1.5669e-08 -2.36089e-18)
(10 1.76528e-07 0)
(10 1.83515e-06 -9.38133e-18)
(9.99999 1.75639e-05 9.36831e-18)
(9.99995 0.000154327 9.39639e-18)
(9.99955 0.00121497 -9.39679e-18)
(9.99659 0.00845681 0)
(9.9779 0.0505633 0)
(9.87978 0.255912 -1.83875e-20)
(9.60011 0.794437 -1.8912e-17)
(8.40668 3.07937 3.80315e-17)
(8.56449 2.7589 -1.89492e-17)
(9.21227 -2.77433 -2.01903e-17)
(8.72497 -3.02624 2.03841e-17)
(9.7011 -0.784033 0)
(9.89955 -0.272684 -2.01207e-17)
(9.98088 -0.056457 4.59399e-21)
(9.99692 -0.00994557 3.02381e-17)
(9.99958 -0.00151025 -2.01818e-17)
(9.99995 -0.000204071 1.00995e-17)
(9.99999 -2.47938e-05 0)
(10 -2.78152e-06 0)
(10 -2.89401e-07 -4.94348e-21)
(10 -2.78332e-08 1.4842e-20)
(10 4.4013e-10 0)
(10 3.25416e-08 0)
(10 3.35745e-07 5.07639e-18)
(10 3.20753e-06 -5.07955e-18)
(9.99999 2.83979e-05 -1.01652e-17)
(9.99994 0.000231845 2.03274e-17)
(9.99949 0.0016996 1.77531e-22)
(9.99632 0.0110737 -1.01725e-17)
(9.97749 0.0621406 0)
(9.88381 0.29565 0)
(9.66044 0.840522 -2.04911e-17)
(8.55428 3.21449 2.05109e-17)
(9.09785 2.95778 -5.06429e-21)
(10.6258 -2.12896 2.04149e-17)
(9.62936 -2.25532 -9.92207e-21)
(9.95995 -0.535475 1.00949e-17)
(9.97536 -0.194826 -1.01093e-17)
(9.9955 -0.0392269 -4.92367e-21)
(9.99925 -0.00693047 9.84596e-21)
(9.9999 -0.00107271 1.00806e-17)
(9.99999 -0.000150469 -1.51186e-17)
(10 -1.9197e-05 5.04362e-18)
(10 -2.29125e-06 0)
(10 -2.56107e-07 -2.51355e-18)
(10 -2.6695e-08 2.5131e-18)
(10 -2.83256e-10 0)
(10 2.3859e-08 4.91587e-21)
(10 2.29997e-07 -2.51137e-18)
(10 2.06594e-06 2.51562e-18)
(10 1.74061e-05 0)
(9.99999 0.000137545 -1.00472e-17)
(9.99994 0.00098935 1.00542e-17)
(9.99953 0.00647117 1.0042e-17)
(9.99706 0.0371114 -2.01046e-17)
(9.98253 0.188254 1.00523e-17)
(9.98825 0.511027 0)
(9.69526 2.2378 2.03055e-17)
(10.8819 2.12719 1.1881e-19)
(12.1093 -0.623921 1.2186e-20)
(10.3505 -0.623149 1.00737e-17)
(10.1429 -0.14262 -5.01689e-18)
(10.0286 -0.0530209 -5.00895e-18)
(10.0052 -0.0102646 7.51617e-18)
(10.0008 -0.00181536 -5.00607e-18)
(10.0001 -0.000283982 5.00622e-18)
(10 -4.06202e-05 -5.00459e-18)
(10 -5.32489e-06 -4.88617e-21)
(10 -6.57904e-07 2.5013e-18)
(10 -7.63285e-08 1.24552e-18)
(10 -8.2964e-09 -4.27306e-21)
(10 -2.38242e-10 -1.25063e-18)
(10 5.9908e-09 -4.27165e-21)
(10 5.54729e-08 -5.49095e-21)
(10 4.78014e-07 -1.56154e-19)
(10 3.86601e-06 -6.57868e-27)
(10 2.93854e-05 4.68258e-19)
(10.0001 0.000204656 -3.12104e-19)
(10.0008 0.00129928 0)
(10.005 0.0071651 1.25282e-18)
(10.0281 0.0347692 -3.74887e-18)
(10.1373 0.0912958 4.99542e-18)
(10.3496 0.344147 -7.52232e-18)
(11.9871 0.33724 7.53966e-18)
(11.3928 2.28873 -1.95346e-20)
(9.73342 2.33707 -2.01986e-20)
(10.0207 0.531614 2.01632e-20)
(9.98614 0.19678 -6.3058e-22)
(9.99796 0.0379442 -1.95273e-20)
(9.99967 0.0066012 -2.07763e-20)
(9.99996 0.00101826 -6.29203e-22)
(9.99999 0.000143172 0)
(10 1.84012e-05 0)
(10 2.23284e-06 5.1245e-18)
(10 2.54569e-07 -5.14125e-18)
(10 2.71399e-08 -6.27181e-22)
(10 6.36979e-10 6.26665e-22)
(10 -2.08866e-08 -6.62075e-19)
(10 -1.97741e-07 6.4158e-19)
(10 -1.74608e-06 0)
(10 -1.45325e-05 0)
(10 -0.000114689 -5.11652e-18)
(10 -0.00082944 5.09277e-18)
(10.0002 -0.00549011 -1.99563e-20)
(10.001 -0.0322185 0)
(10.0017 -0.170845 0)
(10.0633 -0.463811 -2.05106e-20)
(9.91342 -2.07172 -2.0516e-20)
(11.5054 -2.0135 2.04543e-17)
(8.84228 3.20776 -2.09342e-17)
(8.32072 3.4881 -2.09989e-17)
(9.56266 0.999259 2.08921e-17)
(9.85065 0.353676 0)
(9.97081 0.0751669 2.04948e-20)
(9.99522 0.0134964 1.05208e-17)
(9.99934 0.00209392 -2.10132e-17)
(9.99992 0.000288072 1.05129e-17)
(9.99999 3.56522e-05 -1.05291e-17)
(10 4.0709e-06 1.05451e-17)
(10 4.30372e-07 2.62234e-18)
(10 4.20297e-08 -3.28224e-18)
(10 -4.83419e-11 -6.58867e-19)
(10 -4.25953e-08 1.32822e-18)
(10 -4.36842e-07 0)
(10 -4.13814e-06 0)
(9.99999 -3.6266e-05 1.05544e-17)
(9.99992 -0.000293203 -2.11147e-17)
(9.99932 -0.00213118 1.05807e-17)
(9.99508 -0.0137371 2.06296e-20)
(9.97008 -0.0764869 2.11267e-17)
(9.84668 -0.360725 -5.11835e-20)
(9.56277 -1.00864 -6.33121e-17)
(8.26635 -3.56989 6.34322e-17)
(8.96078 -3.31067 -2.13855e-17)
(8.19324 2.80367 9.25902e-21)
(8.26915 3.15291 -1.90224e-17)
(9.51457 0.896767 1.89205e-17)
(9.85765 0.287271 0)
(9.97379 0.0571417 0)
(9.99597 0.00958137 0)
(9.99947 0.00138373 0)
(9.99994 0.000176065 0)
(9.99999 2.01099e-05 -4.76067e-18)
(10 2.106e-06 9.53822e-18)
(10 2.02563e-07 -7.16648e-18)
(10 1.78821e-08 2.68021e-18)
(10 -3.31929e-10 -2.99079e-19)
(10 -2.16682e-08 -4.56384e-31)
(10 -2.41994e-07 -4.79055e-18)
(10 -2.48828e-06 4.79359e-18)
(9.99999 -2.35218e-05 0)
(9.99993 -0.000203767 0)
(9.99936 -0.00158303 -1.91984e-17)
(9.99518 -0.0108183 1.92185e-17)
(9.96912 -0.0636067 -1.87767e-20)
(9.83574 -0.313102 9.39272e-21)
(9.44785 -0.96535 -9.39274e-21)
(8.07727 -3.30293 -9.41392e-21)
(7.98171 -2.93179 0)
(8.37609 2.34374 -1.73675e-17)
(8.5782 2.63526 1.70862e-17)
(9.63075 0.677596 -1.68213e-20)
(9.90381 0.193411 1.72418e-17)
(9.98407 0.0341042 -1.72381e-17)
(9.99776 0.00516914 0)
(9.99973 0.000678636 -8.62539e-18)
(9.99997 7.87246e-05 8.61848e-18)
(10 8.22404e-06 -4.31415e-18)
(10 7.90463e-07 8.6464e-18)
(10 6.98341e-08 -4.3069e-18)
(10 5.67296e-09 1.68586e-20)
(10 -6.94636e-11 0)
(10 -6.54369e-09 2.16671e-18)
(10 -7.98302e-08 2.15841e-18)
(10 -8.96298e-07 -4.30859e-18)
(10 -9.24312e-06 -8.64272e-18)
(9.99997 -8.75427e-05 8.64284e-18)
(9.99969 -0.000745991 -8.64273e-18)
(9.99746 -0.00560931 8.63421e-18)
(9.98215 -0.0364896 8.43075e-21)
(9.89426 -0.202868 -8.4275e-21)
(9.59499 -0.706101 0)
(8.48978 -2.67489 8.42086e-21)
(8.18788 -2.36291 0)
(8.66644 1.92233 1.59107e-17)
(8.93198 2.15295 -1.56772e-17)
(9.7486 0.498122 6.74073e-21)
(9.94166 0.127292 0)
(9.9914 0.0198356 0)
(9.9989 0.0027183 -9.63094e-22)
(9.99988 0.000324135 0)
(9.99999 3.42758e-05 7.69969e-21)
(10 3.28076e-06 0)
(10 2.90779e-07 3.93179e-18)
(10 2.37394e-08 -5.90706e-18)
(10 1.79018e-09 2.938e-18)
(10 5.60535e-12 -9.82796e-19)
(10 -1.71212e-09 0)
(10 -2.27078e-08 0)
(10 -2.77834e-07 3.92157e-18)
(10 -3.12929e-06 -1.17788e-17)
(9.99999 -3.26201e-05 7.84591e-18)
(9.99989 -0.000307869 -7.85097e-18)
(9.99896 -0.00258014 7.84547e-18)
(9.99189 -0.0188189 0)
(9.94518 -0.12117 0)
(9.76302 -0.475102 0)
(8.9965 -2.07637 -9.56767e-22)
(8.72996 -1.85134 -1.56401e-17)
(9.11385 1.54818 -2.67041e-21)
(9.28294 1.71728 1.46047e-17)
(9.85165 0.347056 -1.45535e-17)
(9.96879 0.0803857 0)
(9.99593 0.010993 0)
(9.99953 0.00136912 8.90423e-22)
(9.99995 0.000148521 7.29906e-18)
(10 1.43666e-05 -7.293e-18)
(10 1.26455e-06 3.56327e-21)
(10 1.03942e-07 3.56374e-21)
(10 7.8831e-09 3.56418e-21)
(10 5.54378e-10 -8.91149e-22)
(10 5.00673e-13 -8.91247e-22)
(10 -5.46996e-10 1.82189e-18)
(10 -7.7831e-09 -1.8292e-18)
(10 -1.02671e-07 4.4575e-21)
(10 -1.24974e-06 4.45786e-21)
(10 -1.42209e-05 0)
(9.99995 -0.000147289 -7.30029e-18)
(9.99953 -0.00136091 7.30251e-18)
(9.99596 -0.0109543 0)
(9.9689 -0.0805874 -1.46005e-17)
(9.85329 -0.348007 1.46182e-17)
(9.27966 -1.73587 8.91442e-22)
(9.15903 -1.57028 -1.46051e-17)
(9.31276 1.41653 3.38578e-21)
(9.39385 1.55389 0)
(9.88914 0.285973 0)
(9.97825 0.0613447 -6.95342e-18)
(9.99747 0.0075659 6.94661e-18)
(9.99973 0.000873607 0)
(9.99998 8.75465e-05 6.94535e-18)
(10 7.83497e-06 -6.95282e-18)
(10 6.39811e-07 3.47843e-18)
(10 4.91879e-08 -3.47872e-18)
(10 3.48886e-09 1.73441e-18)
(10 2.30222e-10 -1.74472e-18)
(10 -7.22652e-13 0)
(10 -2.3905e-10 -1.73475e-18)
(10 -3.61988e-09 1.74163e-18)
(10 -5.09872e-08 -3.39514e-21)
(10 -6.62688e-07 -3.39527e-21)
(10 -8.10325e-06 6.79076e-21)
(9.99997 -9.04065e-05 6.95051e-18)
(9.99972 -0.000899904 -6.95065e-18)
(9.99735 -0.0077782 -6.79112e-21)
(9.97733 -0.0626673 -6.79103e-21)
(9.884 -0.292147 0)
(9.37324 -1.56914 -6.79478e-21)
(9.2562 -1.42801 3.39078e-21)
(9.33966 1.2537 1.25805e-23)
(9.48255 1.37417 0)
(9.91071 0.238278 1.25748e-23)
(9.98387 0.0475495 6.42491e-21)
(9.99826 0.00545049 -1.25719e-23)
(9.99982 0.000594606 -6.59018e-18)
(9.99998 5.60859e-05 6.58902e-18)
(10 4.72527e-06 0)
(10 3.64182e-07 -6.43224e-21)
(10 2.6537e-08 -1.25606e-23)
(10 1.78242e-09 -1.25581e-23)
(10 1.11832e-10 6.44102e-21)
(10 7.1434e-13 0)
(10 -1.0406e-10 0)
(10 -1.66399e-09 -1.25476e-23)
(10 -2.48172e-08 -1.25448e-23)
(10 -3.41177e-07 -3.28782e-18)
(10 -4.43766e-06 9.85473e-18)
(9.99999 -5.28059e-05 -6.57253e-18)
(9.99984 -0.000562187 0)
(9.99841 -0.00516996 -6.56248e-18)
(9.98516 -0.0454813 6.57423e-18)
(9.9178 -0.228034 1.2522e-23)
(9.518 -1.33636 6.40927e-21)
(9.40338 -1.21962 1.2513e-23)
(9.4941 1.07401 -7.97261e-20)
(9.60311 1.17274 -8.60947e-20)
(9.93716 0.186236 1.25157e-17)
(9.98938 0.0348905 -6.27373e-18)
(9.99894 0.00368007 6.26301e-18)
(9.9999 0.000380297 -6.27131e-18)
(9.99999 3.37182e-05 6.27317e-18)
(10 2.68079e-06 -3.13751e-18)
(10 1.95385e-07 3.13841e-18)
(10 1.35464e-08 1.19755e-23)
(10 8.63891e-10 1.19789e-23)
(10 5.13704e-11 -1.19822e-23)
(10 -6.49209e-14 7.7934e-19)
(10 -5.58184e-11 7.85687e-19)
(10 -9.31541e-10 -1.57792e-18)
(10 -1.457e-08 1.19949e-23)
(10 -2.09714e-07 6.2904e-18)
(10 -2.87189e-06 -1.25778e-17)
(9.99999 -3.60576e-05 6.29351e-18)
(9.99989 -0.000405292 0)
(9.99883 -0.00391082 -1.20096e-23)
(9.98828 -0.0369056 1.2012e-23)
(9.93135 -0.196973 -1.20121e-23)
(9.56676 -1.227 -1.25281e-17)
(9.47134 -1.12591 1.26657e-17)
(9.56672 0.997719 1.17748e-20)
(9.64566 1.08349 0)
(9.94792 0.161828 0)
(9.99162 0.0285967 5.89103e-21)
(9.99922 0.00281947 1.17819e-20)
(9.99993 0.00027894 0)
(9.99999 2.34891e-05 6.02587e-18)
(10 1.77564e-06 -6.03732e-18)
(10 1.23303e-07 5.88973e-21)
(10 8.19569e-09 -5.88937e-21)
(10 4.99618e-10 -1.50758e-18)
(10 2.85356e-11 1.51337e-18)
(10 2.05885e-13 3.88619e-19)
(10 -2.9401e-11 -3.76814e-19)
(10 -5.13102e-10 1.51302e-18)
(10 -8.40178e-09 -4.52103e-18)
(10 -1.26371e-07 3.00787e-18)
(10 -1.81508e-06 -5.88571e-21)
(9.99999 -2.39495e-05 5.88516e-21)
(9.99993 -0.000283347 -6.02579e-18)
(9.99919 -0.00286053 -5.64447e-21)
(9.99141 -0.0287175 2.14457e-21)
(9.94568 -0.162657 6.03078e-18)
(9.64007 -1.07187 5.88445e-21)
(9.48564 -0.983414 5.87379e-21)
(9.51223 0.889877 1.16506e-17)
(9.68563 0.966702 -1.15409e-17)
(9.95491 0.139588 0)
(9.99327 0.0233087 -5.7969e-18)
(9.9994 0.0021948 -5.84202e-21)
(9.99995 0.000209346 5.79522e-18)
(10 1.69205e-05 5.79654e-18)
(10 1.22731e-06 -5.7851e-18)
(10 8.19676e-08 -5.65351e-21)
(10 5.25176e-09 -2.88816e-18)
(10 3.08245e-10 1.44792e-18)
(10 1.67501e-11 1.44187e-18)
(10 3.3071e-13 -5.64727e-21)
(10 -1.4399e-11 0)
(10 -2.67406e-10 0)
(10 -4.57388e-09 0)
(10 -7.16238e-08 5.64079e-21)
(10 -1.07871e-06 1.40978e-21)
(10 -1.49487e-05 -7.04682e-21)
(9.99996 -0.000186704 0)
(9.99951 -0.00196725 5.63405e-21)
(9.99438 -0.021266 1.40807e-21)
(9.96248 -0.127028 -7.03699e-21)
(9.73077 -0.909258 -1.14783e-17)
(9.61749 -0.837587 1.15793e-17)
(9.64714 0.711479 5.56287e-18)
(9.78808 0.772518 -1.10771e-17)
(9.97171 0.102198 1.10955e-17)
(9.99602 0.0163329 -5.54503e-18)
(9.99967 0.00143321 -5.55901e-18)
(9.99997 0.000131457 5.55416e-18)
(10 1.00871e-05 2.77466e-18)
(10 6.99974e-07 -2.78512e-18)
(10 4.47558e-08 1.38489e-18)
(10 2.76376e-09 -2.77617e-18)
(10 1.55896e-10 2.08555e-18)
(10 8.03871e-12 -8.71198e-19)
(10 -1.00184e-13 1.74026e-19)
(10 -8.94794e-12 -5.44014e-21)
(10 -1.76402e-10 2.78627e-18)
(10 -3.11738e-09 -2.79263e-18)
(10 -5.03201e-08 5.44551e-21)
(10 -7.84906e-07 5.58211e-18)
(10 -1.1293e-05 6.81023e-21)
(9.99997 -0.000146401 -5.57616e-18)
(9.9996 -0.00158911 0)
(9.99528 -0.0179975 5.58796e-18)
(9.96703 -0.113174 -5.58614e-18)
(9.7525 -0.840435 -1.11212e-17)
(9.63398 -0.776938 5.18376e-20)
(9.76156 0.66871 -5.41495e-18)
(9.81836 0.719947 5.37651e-18)
(9.97782 0.0892765 2.6354e-21)
(9.99691 0.0136526 -7.90577e-21)
(9.99976 0.00112791 2.63498e-21)
(9.99998 0.000100698 5.39847e-18)
(10 7.41346e-06 -2.69497e-18)
(10 4.95297e-07 -2.69202e-18)
(10 3.05405e-08 5.26751e-21)
(10 1.83529e-09 -5.26686e-21)
(10 9.99873e-11 2.63311e-21)
(10 5.17694e-12 -2.63278e-21)
(10 -1.24946e-13 0)
(10 -5.09364e-12 -3.36189e-35)
(10 -1.00173e-10 -1.34483e-18)
(10 -1.84003e-09 1.35255e-18)
(10 -3.06514e-08 -2.69947e-18)
(10 -4.95758e-07 -2.63068e-21)
(10 -7.40132e-06 2.69084e-18)
(9.99998 -0.000100176 -7.88994e-21)
(9.99975 -0.00112395 -5.38535e-18)
(9.99692 -0.0134604 5.37682e-18)
(9.9772 -0.0879627 0)
(9.81926 -0.699687 -5.36717e-18)
(9.68731 -0.646844 5.40453e-18)
(9.70486 0.615267 0)
(9.83011 0.662451 -5.2624e-18)
(9.97949 0.0808024 5.25135e-18)
(9.99733 0.0118441 2.56672e-21)
(9.9998 0.000950975 2.56638e-21)
(9.99998 8.28613e-05 -5.25742e-18)
(10 5.93098e-06 5.25696e-18)
(10 3.84789e-07 2.62713e-18)
(10 2.30905e-08 3.20608e-22)
(10 1.35232e-09 -2.62601e-18)
(10 7.16329e-11 -2.56407e-21)
(10 3.36706e-12 2.88413e-21)
(10 3.17722e-14 0)
(10 -2.93809e-12 5.12572e-21)
(10 -6.36366e-11 -2.56245e-21)
(10 -1.20511e-09 1.31176e-18)
(10 -2.06158e-08 -1.31123e-18)
(10 -3.45365e-07 -2.5612e-21)
(10 -5.34268e-06 -2.88087e-21)
(9.99999 -7.52921e-05 2.56034e-21)
(9.99983 -0.000866312 -5.24263e-18)
(9.99773 -0.0109677 3.38358e-21)
(9.98282 -0.074365 5.24127e-18)
(9.85317 -0.628943 0)
(9.77656 -0.584599 5.23824e-18)
(9.77204 0.497573 -1.02041e-17)
(9.88368 0.536188 5.07686e-18)
(9.98667 0.0608318 5.09426e-18)
(9.99834 0.00869468 -5.0943e-18)
(9.99988 0.000662679 0)
(9.99999 5.62648e-05 -3.11088e-22)
(10 3.87088e-06 0)
(10 2.43596e-07 -3.11205e-22)
(10 1.41609e-08 -3.11263e-22)
(10 8.08368e-10 0)
(10 4.15206e-11 0)
(10 1.74983e-12 -3.11434e-22)
(10 2.26436e-13 0)
(10 -2.11174e-12 0)
(10 -4.62783e-11 -1.27633e-18)
(10 -8.92537e-10 1.27655e-18)
(10 -1.56039e-08 -3.11714e-22)
(10 -2.67806e-07 -2.55401e-18)
(10 -4.25407e-06 2.55477e-18)
(9.99999 -6.15528e-05 0)
(9.99986 -0.000722414 5.11062e-18)
(9.99807 -0.00942101 -1.02225e-17)
(9.98468 -0.0665046 1.02222e-17)
(9.86656 -0.57611 -2.09736e-20)
(9.75846 -0.536364 -5.13234e-18)
(9.85652 0.471055 1.21931e-21)
(9.90072 0.504128 -1.21917e-21)
(9.98947 0.0543811 0)
(9.99868 0.00751949 0)
(9.99991 0.000547776 0)
(9.99999 4.58383e-05 1.21833e-21)
(10 3.05692e-06 0)
(10 1.87239e-07 -1.21807e-21)
(10 1.06035e-08 0)
(10 5.94836e-10 -1.21781e-21)
(10 2.99384e-11 0)
(10 1.0742e-12 -3.11692e-19)
(10 9.96723e-14 3.10362e-19)
(10 -1.04975e-12 0)
(10 -2.88735e-11 1.24636e-18)
(10 -5.74391e-10 -2.49243e-18)
(10 -1.02593e-08 1.24486e-18)
(10 -1.80912e-07 0)
(10 -2.94879e-06 2.49158e-18)
(9.99999 -4.41397e-05 -2.49129e-18)
(9.99991 -0.000529089 4.98074e-18)
(9.99874 -0.00721595 -4.98143e-18)
(9.98962 -0.0520225 0)
(9.90475 -0.478856 0)
(9.81337 -0.445608 0)
(9.80552 0.441817 -1.19627e-21)
(9.90268 0.472799 1.19645e-21)
(9.98965 0.050801 0)
(9.99878 0.00679709 0)
(9.99992 0.000487173 0)
(9.99999 4.00898e-05 -1.19585e-21)
(10 2.62353e-06 0)
(10 1.57344e-07 1.19564e-21)
(10 8.74356e-09 0)
(10 4.81194e-10 -1.22292e-18)
(10 2.36013e-11 1.22341e-18)
(10 9.94655e-13 -1.19521e-21)
(10 4.93089e-14 1.1948e-21)
(10 -8.26635e-13 1.19473e-21)
(10 -2.12985e-11 0)
(10 -4.33235e-10 0)
(10 -7.87864e-09 1.19466e-21)
(10 -1.42566e-07 -2.44643e-18)
(10 -2.38432e-06 2.4462e-18)
(9.99999 -3.67735e-05 0)
(9.99993 -0.000447203 1.1942e-21)
(9.99898 -0.00635334 0)
(9.99157 -0.0470846 0)
(9.91713 -0.45332 0)
(9.87286 -0.424225 0)
(9.84059 0.35797 -4.79787e-18)
(9.93341 0.383784 4.77156e-18)
(9.99319 0.038598 0)
(9.99923 0.00511098 -2.3374e-21)
(9.99995 0.000351223 0)
(10 2.83465e-05 -2.39428e-18)
(10 1.79573e-06 4.78698e-18)
(10 1.05382e-07 -2.3927e-18)
(10 5.71116e-09 -1.20005e-18)
(10 3.08175e-10 1.1979e-18)
(10 1.48587e-11 5.85005e-22)
(10 7.50424e-13 1.55636e-19)
(10 -9.54852e-14 -1.49743e-19)
(10 -9.03926e-13 1.19254e-18)
(10 -1.69362e-11 -1.19884e-18)
(10 -3.52734e-10 0)
(10 -6.51868e-09 -2.34221e-21)
(10 -1.19838e-07 0)
(10 -2.04169e-06 0)
(10 -3.20095e-05 -2.39952e-18)
(9.99994 -0.000394709 2.40223e-18)
(9.99905 -0.00568321 0)
(9.9917 -0.043587 4.79693e-18)
(9.91959 -0.421614 -1.76158e-20)
(9.8253 -0.394556 -9.61913e-18)
(9.90385 0.339072 4.71397e-18)
(9.944 0.361396 2.30229e-21)
(9.99463 0.0350245 4.71375e-18)
(9.99938 0.00450815 -2.35398e-18)
(9.99996 0.000299592 -2.35643e-18)
(10 2.40234e-05 0)
(10 1.48606e-06 1.15043e-21)
(10 8.54727e-08 2.35475e-18)
(10 4.54381e-09 -2.35342e-18)
(10 2.42642e-10 0)
(10 1.13278e-11 0)
(10 3.85182e-13 -3.44918e-21)
(10 1.59652e-13 4.59843e-21)
(10 -4.97016e-13 2.2996e-21)
(10 -1.09302e-11 5.898e-19)
(10 -2.34126e-10 -5.88602e-19)
(10 -4.39577e-09 1.14952e-21)
(10 -8.2543e-08 2.35403e-18)
(10 -1.43166e-06 -4.70766e-18)
(10 -2.30875e-05 2.35364e-18)
(9.99996 -0.000289285 -2.29828e-21)
(9.9994 -0.00432285 0)
(9.99453 -0.0333788 2.29779e-21)
(9.94488 -0.342448 4.69789e-18)
(9.85942 -0.319838 -9.43196e-18)
(9.85992 0.319135 -4.65197e-18)
(9.94374 0.340024 -4.65171e-18)
(9.99454 0.0330611 4.64652e-18)
(9.9994 0.00414399 2.32414e-18)
(9.99996 0.000273085 -2.32454e-18)
(10 2.16386e-05 0)
(10 1.32213e-06 5.67306e-22)
(10 7.48944e-08 -1.70181e-21)
(10 3.93071e-09 1.16169e-18)
(10 2.06912e-10 -2.32323e-18)
(10 9.45424e-12 1.16154e-18)
(10 2.45478e-13 2.8967e-19)
(10 2.43327e-13 -2.71563e-19)
(10 -1.97058e-13 2.69911e-19)
(10 -8.70706e-12 -2.91439e-19)
(10 -1.85589e-10 0)
(10 -3.52741e-09 1.70077e-21)
(10 -6.75915e-08 -5.66884e-22)
(10 -1.19573e-06 -2.32179e-18)
(10 -1.97613e-05 2.32106e-18)
(9.99997 -0.000249379 0)
(9.99952 -0.00385545 0)
(9.99575 -0.0304056 -5.66669e-22)
(9.95404 -0.324003 -4.63263e-18)
(9.91621 -0.304386 1.12341e-20)
(9.88194 0.25405 -2.29279e-18)
(9.96255 0.271431 2.28136e-18)
(9.99645 0.0248106 5.57861e-22)
(9.99963 0.0031176 0)
(9.99998 0.000198251 2.28618e-18)
(10 1.54715e-05 -2.28367e-18)
(10 9.20062e-07 5.58148e-22)
(10 5.13508e-08 5.58215e-22)
(10 2.64153e-09 2.23312e-21)
(10 1.37269e-10 -2.85874e-19)
(10 6.52791e-12 1.42954e-19)
(10 1.34822e-15 2.80792e-19)
(10 -3.454e-13 -1.43483e-19)
(10 -1.78003e-13 5.74123e-19)
(10 -7.23426e-12 -5.72084e-19)
(10 -1.60882e-10 0)
(10 -3.09466e-09 1.67642e-21)
(10 -5.98914e-08 -2.28634e-18)
(10 -1.0739e-06 2.28716e-18)
(10 -1.79149e-05 5.58999e-22)
(9.99997 -0.000228156 0)
(9.99952 -0.00354001 0)
(9.99551 -0.0288044 5.59174e-22)
(9.95299 -0.304513 -4.57259e-18)
(9.87139 -0.286145 4.59502e-18)
(9.93406 0.240694 2.20811e-21)
(9.96969 0.255739 0)
(9.9973 0.0227487 -1.10328e-21)
(9.99971 0.00278689 -2.25832e-18)
(9.99998 0.000172898 2.26039e-18)
(10 1.34851e-05 -2.26138e-18)
(10 7.87476e-07 2.26015e-18)
(10 4.32928e-08 -1.12946e-18)
(10 2.19592e-09 1.12719e-18)
(10 1.13053e-10 -5.64665e-19)
(10 5.28708e-12 5.64632e-19)
(10 3.12463e-13 -2.77768e-19)
(10 8.29381e-14 3.175e-19)
(10 -1.38315e-13 -3.74723e-20)
(10 -4.99207e-12 5.65605e-19)
(10 -1.07921e-10 -1.12784e-18)