/*--------------------------------*- C++ -*----------------------------------*\
| =========                 |                                                 |
| \\      /  F ield         | OpenFOAM: The Open Source CFD Toolbox           |
|  \\    /   O peration     | Version:  2112                                  |
|   \\  /    A nd           | Website:  www.openfoam.com                      |
|    \\/     M anipulation  |                                                 |
\*---------------------------------------------------------------------------*/
FoamFile
{
    version     2.0;
    format      ascii;
    arch        "LSB;label=32;scalar=64";
    class       volScalarField;
    location    "0.00879";
    object      nut;
}
// * * * * * * * * * * * * * * * * * * * * * * * * * * * * * * * * * * * * * //

dimensions      [0 2 -1 0 0 0 0];

internalField   nonuniform List<scalar> 
13875
(
0.0511675
0.0366253
0.034366
0.0343297
0.0342998
0.0343336
0.0342878
0.0342732
0.034315
0.0343117
0.0342842
0.0342892
0.0343204
0.0343417
0.0343304
0.0342933
0.0342676
0.0342894
0.0343023
0.0343266
0.0343038
0.0343341
0.0343822
0.036558
0.0514337
0.0532618
0.0341199
0.0322224
0.0321068
0.0320622
0.0320806
0.0320299
0.0320094
0.0320509
0.0320647
0.0320301
0.0320425
0.0320527
0.0320725
0.0320604
0.032047
0.0320037
0.032034
0.032046
0.0320759
0.0320635
0.0321024
0.0322282
0.0340462
0.0536485
0.0564568
0.0335618
0.0318029
0.0315927
0.0315672
0.0315733
0.0314655
0.0314247
0.0314588
0.0314701
0.0314379
0.0314602
0.0315298
0.0315559
0.0315347
0.0314644
0.0314078
0.0314446
0.0314779
0.0315677
0.0315643
0.0315802
0.0317938
0.0334916
0.0566064
0.0590704
0.0332328
0.0314894
0.0312762
0.0312598
0.0312606
0.0311404
0.0310972
0.0311236
0.0311203
0.03109
0.0311136
0.0312133
0.03124
0.0312183
0.0311165
0.0310725
0.0311019
0.0311463
0.0312539
0.0312551
0.0312625
0.0314841
0.0331705
0.0591511
0.0611259
0.033004
0.0312462
0.0310022
0.0309826
0.0309781
0.0308527
0.0308107
0.030836
0.0308313
0.0308016
0.030824
0.0309252
0.0309547
0.0309299
0.0308269
0.030786
0.0308143
0.0308592
0.0309687
0.0309766
0.0309898
0.0312296
0.0329221
0.0612602
0.0628186
0.0328482
0.0310891
0.0307706
0.0307499
0.0307291
0.0305928
0.0305511
0.030573
0.0305684
0.0305394
0.0305601
0.0306633
0.030695
0.0306677
0.0305623
0.0305256
0.030553
0.0305997
0.0307199
0.0307436
0.0307612
0.0310586
0.0328246
0.0629675
0.064827
0.0330732
0.0311038
0.0306319
0.0305667
0.0305225
0.0303657
0.0303216
0.0303371
0.0303279
0.0303026
0.0303221
0.030428
0.0304588
0.0304286
0.0303217
0.0302926
0.0303203
0.030376
0.0305121
0.0305601
0.0306332
0.0311134
0.0330714
0.0648575
0.0670935
0.0339364
0.0314247
0.0306494
0.0304832
0.0303708
0.0301833
0.0301231
0.0301274
0.0301152
0.0300945
0.0301095
0.0302198
0.030252
0.030219
0.0301077
0.0300887
0.0301205
0.0301896
0.0303573
0.0304673
0.0306299
0.0313928
0.0338964
0.0673508
0.0736455
0.0362964
0.0320411
0.0308456
0.0304739
0.0302804
0.0300478
0.0299668
0.0299558
0.029936
0.0299241
0.029935
0.0300496
0.0300831
0.0300494
0.0299349
0.0299226
0.0299581
0.0300439
0.0302597
0.0304504
0.0308024
0.0319358
0.0360018
0.0741907
0.0828997
0.0384713
0.0327367
0.0311891
0.0305804
0.0302471
0.0299788
0.0298831
0.0298561
0.0298303
0.029825
0.0298347
0.0299476
0.0299819
0.0299504
0.029847
0.0298324
0.0298727
0.0299652
0.03022
0.0305503
0.0310811
0.0326241
0.0381063
0.0835488
0.090721
0.044144
0.03465
0.0319944
0.0308159
0.0303635
0.0300497
0.0299086
0.0298613
0.0298312
0.0298245
0.0298336
0.0299393
0.0299745
0.0299515
0.0298728
0.0298561
0.0299033
0.0300351
0.0303036
0.0307943
0.0318816
0.0343633
0.0432641
0.0893494
0.0950567
0.0545333
0.0403877
0.0334562
0.0318697
0.0308369
0.0303339
0.0301331
0.0300498
0.0300098
0.0299945
0.0300054
0.0300943
0.0301324
0.0301221
0.0300727
0.0300642
0.0301366
0.0303209
0.0308355
0.031799
0.033229
0.0398484
0.0533654
0.0942631
0.0866022
0.0688266
0.0515636
0.041781
0.0343692
0.0319353
0.031277
0.0308204
0.0306361
0.0305494
0.0305086
0.0305112
0.0305775
0.0306184
0.0306295
0.0306241
0.0306764
0.0308697
0.0313302
0.032004
0.0347658
0.0415816
0.050953
0.0687645
0.0866048
0.0796039
0.0660249
0.0581706
0.0655072
0.041721
0.0371372
0.0336244
0.0324307
0.0320348
0.0319764
0.0319421
0.031939
0.0319976
0.0320395
0.0320659
0.0320914
0.0321397
0.032533
0.0340769
0.0382584
0.0432077
0.0657134
0.0578341
0.0661737
0.081613
0.0753317
0.0643544
0.0565784
0.0605293
0.0562341
0.0537119
0.0442083
0.0388101
0.0367148
0.0358788
0.0355068
0.0353842
0.0354025
0.0354581
0.0355684
0.0358676
0.0366696
0.0389027
0.045167
0.0552242
0.0557428
0.0612463
0.0565977
0.0641527
0.0746641
0.0671743
0.0618914
0.0542814
0.0571713
0.0560755
0.0571629
0.0544093
0.0530613
0.0507623
0.0482908
0.0474638
0.0471238
0.0470344
0.0471161
0.0472775
0.0477814
0.0504356
0.0542689
0.0554441
0.0577167
0.0556144
0.0580068
0.0543087
0.0614956
0.0664792
0.0624107
0.0582135
0.0524259
0.0549458
0.0567968
0.0612013
0.0680595
0.0728592
0.0700802
0.0707045
0.0730366
0.0745307
0.0753061
0.0749895
0.0734711
0.0726685
0.0700699
0.0728534
0.0686637
0.0611787
0.0562952
0.0552983
0.0519615
0.0575752
0.062436
0.0570081
0.0546836
0.0530181
0.0567888
0.0599168
0.0630072
0.0708226
0.0791467
0.0744537
0.0703601
0.0692592
0.06937
0.0699059
0.0696321
0.0698016
0.0727056
0.0739657
0.076718
0.0708133
0.0641595
0.060933
0.0576493
0.0528166
0.0542633
0.0567877
0.0513753
0.0541277
0.055757
0.0616386
0.0668672
0.064849
0.0673321
0.0751934
0.0744365
0.0705038
0.0687256
0.0683562
0.0684517
0.0689406
0.0698592
0.0717826
0.0728942
0.0731054
0.0677133
0.0667172
0.0696288
0.0629744
0.0562286
0.0543968
0.0521512
0.0493458
0.0572601
0.0602221
0.0655996
0.0686699
0.0646
0.0639145
0.0695176
0.0719428
0.0705239
0.0687571
0.0672249
0.0665048
0.0680649
0.0700563
0.0710137
0.0699331
0.0678044
0.0645388
0.0665292
0.0707244
0.0664276
0.0608474
0.0576118
0.0487687
0.0774672
0.0885051
0.0772276
0.065244
0.0649968
0.0616275
0.0606981
0.0655188
0.0694417
0.069553
0.0677182
0.0652398
0.0640644
0.0663809
0.069073
0.0695417
0.0672301
0.0640852
0.0614522
0.0634534
0.0667447
0.0668999
0.0798258
0.0917711
0.0824678
0.128301
0.160179
0.0897332
0.0619838
0.060871
0.058609
0.058038
0.0625327
0.0669999
0.0678889
0.0659499
0.0628397
0.0613968
0.0641051
0.0672788
0.0676139
0.0647501
0.0613627
0.0587138
0.0601986
0.0622962
0.0637768
0.0929906
0.16502
0.134599
0.152151
0.143669
0.0838715
0.0591426
0.0575289
0.0560321
0.0556622
0.060088
0.0646764
0.0658476
0.0637531
0.0603154
0.0586796
0.0615119
0.0650289
0.0655074
0.0624455
0.0590789
0.0562314
0.0572804
0.0586533
0.0606625
0.0836718
0.143461
0.153128
0.160655
0.144187
0.0764657
0.0569843
0.0547326
0.0536765
0.0536134
0.0578557
0.0624271
0.0636365
0.0613109
0.0576877
0.0560949
0.0589657
0.0626894
0.0633986
0.0601956
0.0568279
0.054157
0.0548068
0.0558491
0.0585303
0.0775399
0.150159
0.16041
0.166344
0.14532
0.0724464
0.0554177
0.05266
0.0516827
0.0519486
0.0558904
0.0602335
0.0613478
0.0589353
0.0552567
0.0537033
0.0565413
0.0603892
0.0612084
0.0581067
0.0548236
0.052367
0.0527061
0.0538122
0.0569814
0.0742769
0.15405
0.167151
0.173555
0.149245
0.0697661
0.0539318
0.0510379
0.0499942
0.0505895
0.0541733
0.0581425
0.0590932
0.0566888
0.0530315
0.0515057
0.054242
0.0580548
0.0589989
0.0561821
0.053057
0.0507825
0.0508118
0.052139
0.055307
0.0714088
0.156841
0.176895
0.183225
0.145626
0.0666195
0.0525149
0.0497795
0.0486221
0.0494511
0.0526681
0.0561187
0.056776
0.0544271
0.0509617
0.0495229
0.0522065
0.055945
0.0569208
0.0544321
0.0515179
0.0494151
0.0492971
0.0509058
0.0539777
0.0689576
0.155209
0.184083
0.189033
0.145031
0.0647827
0.051437
0.0488074
0.0475588
0.0484566
0.0513082
0.05427
0.0546838
0.0524279
0.0491163
0.0477178
0.0502866
0.0538718
0.054926
0.0528325
0.0501787
0.0482592
0.0480942
0.0498028
0.0527701
0.0671797
0.155468
0.191786
0.194097
0.147085
0.0636853
0.0505557
0.0480148
0.0468073
0.0475957
0.0500744
0.0525635
0.0527464
0.0506082
0.0474624
0.0460873
0.048513
0.0518902
0.0529823
0.051331
0.0489854
0.047257
0.0471235
0.0488109
0.0517141
0.0652862
0.150628
0.199897
0.201031
0.144328
0.0627456
0.0498503
0.0472306
0.0462103
0.0469369
0.0489686
0.0509185
0.0508371
0.0488119
0.0459011
0.0446084
0.0469799
0.0502191
0.0513083
0.0499676
0.0479171
0.0464317
0.0463536
0.0479041
0.0509429
0.0645734
0.151124
0.203568
0.203224
0.140587
0.0622126
0.0494364
0.0465483
0.045647
0.0463176
0.0479533
0.0494556
0.0491806
0.0472762
0.0445352
0.0432771
0.0455251
0.0485741
0.0496656
0.0487036
0.0470024
0.045769
0.0456755
0.0470182
0.0503315
0.0636742
0.146228
0.208799
0.205651
0.140527
0.0621555
0.049325
0.0459317
0.0450828
0.0457349
0.0470469
0.0481563
0.0477216
0.0459105
0.0433001
0.0420728
0.0441908
0.047095
0.0482247
0.0475541
0.0461762
0.0451396
0.0450003
0.0462408
0.0500075
0.0630804
0.142696
0.211333
0.209802
0.136255
0.061854
0.0493994
0.0454596
0.0446136
0.0451388
0.0461877
0.0468935
0.046307
0.0445903
0.0421514
0.040992
0.0430449
0.0458163
0.0469257
0.046508
0.0454219
0.0445136
0.0444194
0.0456562
0.0499397
0.0630415
0.14172
0.213189
0.210904
0.133787
0.0616859
0.0497003
0.045166
0.0441825
0.0445033
0.0453928
0.0457855
0.045092
0.0434598
0.0411285
0.0400059
0.0419391
0.0445944
0.0457311
0.0455297
0.0447234
0.0439028
0.0438939
0.0452325
0.0500545
0.0631015
0.138553
0.215754
0.211935
0.133266
0.0613916
0.050073
0.0452142
0.0437899
0.0439193
0.0446174
0.0447766
0.0439821
0.0424273
0.0402013
0.0391225
0.0409521
0.0434763
0.0446203
0.0446128
0.0440339
0.0433372
0.043505
0.0451332
0.0503894
0.0628506
0.136894
0.216437
0.214063
0.131373
0.0610015
0.0504572
0.0454741
0.0434839
0.0433722
0.0438467
0.0438216
0.0429538
0.0414444
0.0393276
0.0383082
0.0400698
0.0425276
0.0436693
0.0437738
0.0433425
0.0428191
0.0431486
0.0453408
0.0508815
0.0626802
0.137469
0.217211
0.214407
0.131467
0.0608279
0.0512644
0.0459459
0.0433106
0.0429036
0.0431195
0.0429305
0.0420381
0.0405849
0.0385556
0.0375762
0.0392365
0.041591
0.0427311
0.0429584
0.0426972
0.0423522
0.0429137
0.0457347
0.0516107
0.0622531
0.135829
0.218474
0.214414
0.133808
0.0606921
0.052028
0.0465803
0.0433541
0.0424538
0.0424433
0.0421141
0.0412109
0.0398106
0.0378466
0.0369033
0.0384696
0.0407549
0.0418899
0.0421794
0.0420928
0.0419115
0.0429132
0.0463622
0.0523696
0.0617471
0.136142
0.218303
0.21481
0.133696
0.06014
0.0522259
0.0474497
0.0436202
0.0421295
0.0418374
0.0413305
0.0404057
0.0390522
0.0371838
0.0362963
0.0378074
0.0400109
0.041115
0.0414775
0.0415552
0.0415746
0.0431059
0.047241
0.0526941
0.0612146
0.138135
0.218173
0.213937
0.135608
0.0596501
0.0522246
0.0485827
0.0440649
0.0419611
0.0413183
0.0406493
0.0397032
0.0383941
0.0365808
0.0357304
0.0371564
0.0392959
0.0403914
0.0408119
0.0410973
0.0414266
0.0435189
0.048175
0.0525552
0.0606451
0.139017
0.218323
0.213411
0.138068
0.059457
0.0521157
0.0499466
0.0447647
0.0419969
0.040947
0.0400502
0.0390565
0.0377769
0.0360228
0.0352157
0.0365697
0.0386227
0.0397193
0.0402418
0.0407569
0.0415018
0.0441303
0.0497498
0.0524305
0.0603246
0.141491
0.21718
0.213537
0.139762
0.05916
0.0516972
0.0505641
0.0456416
0.0421668
0.0407752
0.0395584
0.0384629
0.0371879
0.0354916
0.0347313
0.0360357
0.0380525
0.0391464
0.0397768
0.0405731
0.0416733
0.0450695
0.0508475
0.0522449
0.0609752
0.144585
0.216265
0.212803
0.141946
0.0591347
0.0511613
0.0505578
0.0470628
0.0425686
0.0407652
0.0392178
0.0379541
0.0366652
0.0350139
0.0342881
0.0355233
0.0374794
0.038607
0.0394201
0.0405734
0.0420465
0.0462532
0.0508921
0.0517209
0.0609096
0.146661
0.215899
0.212305
0.14424
0.060119
0.0506461
0.0501787
0.0487031
0.0433108
0.0408452
0.0390608
0.0375709
0.036213
0.0345709
0.0338705
0.0350477
0.0369747
0.0381653
0.0392185
0.0406907
0.0427819
0.0481959
0.050602
0.0511861
0.0613938
0.148467
0.21512
0.2121
0.146259
0.0600917
0.0500965
0.0495817
0.0494605
0.0445957
0.0411153
0.0389995
0.037322
0.0358162
0.0341701
0.0334989
0.0346409
0.0365677
0.0378729
0.0391673
0.0409855
0.0441876
0.0494095
0.0500873
0.050847
0.0625324
0.150328
0.214696
0.211203
0.14818
0.0612205
0.0497869
0.0488944
0.0491536
0.046754
0.0418262
0.0390827
0.0372453
0.0355917
0.033864
0.0331853
0.0343008
0.0362925
0.0377536
0.0392105
0.0416025
0.0462242
0.0492368
0.0494136
0.0504037
0.0628247
0.152323
0.214432
0.210161
0.150126
0.0627631
0.0497095
0.0483015
0.0486626
0.0479933
0.0434856
0.0393298
0.0372075
0.035499
0.0337005
0.0329318
0.0341033
0.0361655
0.0377172
0.0393987
0.0431132
0.0478091
0.0487805
0.048778
0.050128
0.0635418
0.154488
0.213481
0.208169
0.151318
0.0634515
0.0496044
0.0478196
0.0480345
0.0477203
0.0457702
0.0401342
0.0372564
0.035462
0.0336368
0.0328068
0.0340321
0.0361368
0.0377736
0.0401487
0.0454726
0.0478394
0.0481356
0.0482518
0.0501511
0.0652555
0.156196
0.211211
0.20477
0.15138
0.064387
0.0496758
0.0474382
0.0473221
0.0472664
0.0472776
0.0419258
0.0375675
0.0354964
0.0336365
0.0328058
0.0340214
0.036145
0.0380202
0.0417688
0.047346
0.0474353
0.0473977
0.0478119
0.0501823
0.0659677
0.156434
0.207896
0.195902
0.148235
0.065154
0.0497707
0.0471413
0.0467293
0.0467193
0.0470697
0.0445189
0.0386957
0.0357096
0.0336731
0.0328314
0.0340387
0.0363037
0.0389643
0.0444178
0.0474701
0.0469069
0.0467936
0.0474848
0.0502513
0.0662966
0.153113
0.19889
0.348557
1.30077
1.64674
1.6546
1.57422
1.464
1.34509
1.19882
1.04486
0.886759
0.735352
0.610906
0.521439
0.465871
0.433961
0.416523
0.405963
0.399052
0.393293
0.386604
0.377916
0.366998
0.354111
0.339306
0.321919
0.301311
0.275324
0.239424
0.183962
0.11385
0.3341
1.37909
1.73518
1.74494
1.65594
1.54088
1.41209
1.25957
1.09634
0.92609
0.766226
0.634728
0.538845
0.477076
0.439306
0.417623
0.404384
0.394779
0.387246
0.379462
0.370196
0.359187
0.346614
0.332135
0.315029
0.294805
0.269226
0.23372
0.17925
0.112169
0.357219
1.52339
1.829
1.82543
1.7232
1.60008
1.46253
1.30973
1.14191
0.967413
0.801398
0.662964
0.560482
0.491087
0.447079
0.420602
0.403684
0.391464
0.38193
0.372785
0.362829
0.351757
0.339452
0.325344
0.308824
0.288967
0.263707
0.228595
0.175104
0.110915
0.378303
1.61064
1.93295
1.92058
1.80374
1.66874
1.52403
1.36914
1.19688
1.01752
0.845207
0.699824
0.588533
0.509663
0.458064
0.425674
0.404578
0.389593
0.377964
0.367432
0.356815
0.345691
0.333671
0.319773
0.303603
0.284045
0.259127
0.224291
0.171543
0.109886
0.38847
1.69101
2.04127
2.01659
1.87997
1.73008
1.57894
1.42104
1.24881
1.0713
0.895151
0.743017
0.621917
0.532481
0.471903
0.432623
0.406771
0.388717
0.374764
0.363016
0.351933
0.340825
0.328893
0.315155
0.299214
0.279891
0.255333
0.220712
0.168632
0.109139
0.397566
1.78491
2.15577
2.11501
1.95601
1.79033
1.62945
1.46668
1.29653
1.12279
0.947089
0.789145
0.658125
0.558418
0.488115
0.44118
0.410336
0.388988
0.372986
0.360106
0.348495
0.337299
0.325306
0.311597
0.295563
0.276146
0.251764
0.217368
0.165903
0.108433
0.408179
1.88216
2.26997
2.21049
2.02869
1.84661
1.67684
1.50997
1.34221
1.17233
0.998361
0.837572
0.697732
0.58716
0.506549
0.451644
0.415293
0.390568
0.372577
0.358927
0.346183
0.334712
0.322464
0.308595
0.292393
0.272699
0.248267
0.214047
0.163217
0.107702
0.419142
1.98296
2.38549
2.30575
2.09965
1.90249
1.72392
1.55433
1.38906
1.22112
1.05008
0.888004
0.740796
0.619263
0.5279
0.464326
0.421983
0.393629
0.374025
0.358105
0.344851
0.332744
0.320193
0.30603
0.289508
0.26964
0.244999
0.210654
0.160513
0.106965
0.430081
2.08077
2.49763
2.4037
2.173
1.96058
1.77478
1.60354
1.43997
1.27255
1.1042
0.94156
0.788292
0.656336
0.553374
0.479991
0.430823
0.398799
0.375973
0.358212
0.344111
0.331142
0.318225
0.30371
0.286875
0.266979
0.242021
0.207276
0.157888
0.106218
0.439341
2.17555
2.61156
2.50455
2.2517
2.02438
1.83229
1.65999
1.49696
1.32952
1.16259
0.99884
0.841297
0.699908
0.584512
0.499979
0.442647
0.405426
0.378965
0.359245
0.343763
0.329824
0.316346
0.30147
0.28449
0.264515
0.239142
0.204295
0.155362
0.105516
0.447548
2.26424
2.72278
2.60694
2.33668
2.09558
1.89861
1.72536
1.56093
1.3936
1.22789
1.06288
0.901261
0.750881
0.623165
0.526145
0.458585
0.413985
0.383452
0.361125
0.343809
0.328972
0.314821
0.299612
0.282601
0.26222
0.236594
0.20134
0.152764
0.104877
0.455584
2.34887
2.83144
2.71126
2.42867
2.17625
1.97508
1.80088
1.63239
1.46629
1.30179
1.13571
0.970282
0.811851
0.671794
0.560388
0.480076
0.426282
0.390147
0.364768
0.34517
0.328921
0.314466
0.298332
0.280923
0.260144
0.234048
0.198443
0.150502
0.104367
0.464502
2.43377
2.93834
2.81794
2.52838
2.26777
2.06309
1.8871
1.71308
1.54794
1.38477
1.21846
1.05027
0.885141
0.732606
0.605203
0.509463
0.44369
0.399893
0.370001
0.347711
0.330391
0.313813
0.297273
0.279392
0.258143
0.231551
0.19585
0.148468
0.103956
0.473237
2.51931
3.04432
2.9266
2.63304
2.36677
2.15954
1.98148
1.80266
1.63798
1.47718
1.31167
1.14173
0.970403
0.806844
0.662886
0.549278
0.468026
0.413557
0.377122
0.351315
0.331386
0.313345
0.296409
0.277954
0.256251
0.229274
0.193279
0.146436
0.103623
0.481023
2.60294
3.14637
3.03427
2.7431
2.47292
2.2637
2.08061
1.89982
1.73773
1.57971
1.41527
1.24423
1.06764
0.894811
0.735025
0.601742
0.501693
0.432836
0.387138
0.356254
0.332851
0.313348
0.295549
0.276714
0.254542
0.227055
0.190698
0.14445
0.103372
0.487321
2.67732
3.23946
3.1395
2.85657
2.58952
2.37872
2.18492
2.00593
1.84787
1.69265
1.52922
1.35722
1.17734
0.996223
0.822584
0.669582
0.547898
0.460304
0.401958
0.36334
0.335924
0.314669
0.2953
0.275718
0.252942
0.224886
0.188273
0.142725
0.103213
0.493452
2.74146
3.32096
3.24019
2.97213
2.71155
2.49974
2.29814
2.12167
1.96786
1.81563
1.6535
1.48016
1.29888
1.11215
0.926713
0.754791
0.609327
0.498977
0.423669
0.374433
0.341524
0.316731
0.29562
0.274626
0.251219
0.222985
0.186237
0.141417
0.103182
0.498397
2.7939
3.39156
3.33328
3.08685
2.83825
2.62514
2.42096
2.24716
2.09704
1.94725
1.7865
1.61342
1.43205
1.24117
1.04592
0.856577
0.687147
0.551244
0.454269
0.390661
0.349612
0.320281
0.296669
0.274294
0.250134
0.221504
0.184658
0.14051
0.103254
0.505555
2.82802
3.44767
3.41453
3.19673
2.96724
2.75681
2.55214
2.38164
2.23487
2.08739
1.9282
1.75646
1.57528
1.38121
1.17822
0.973842
0.781958
0.619261
0.496115
0.413471
0.361026
0.325549
0.298878
0.274923
0.249792
0.220578
0.183738
0.139935
0.103369
0.508063
2.84836
3.48133
3.48177
3.2974
3.09556
2.89323
2.69137
2.52546
2.38168
2.23648
2.07933
1.90929
1.72771
1.53096
1.32136
1.10428
0.892365
0.703074
0.551201
0.444978
0.37709
0.333004
0.301896
0.276015
0.249899
0.220072
0.183256
0.139507
0.10355
0.512842
2.83999
3.47911
3.52474
3.38413
3.22036
3.03315
2.83893
2.67889
2.53807
2.3951
2.24096
2.07291
1.89074
1.69169
1.47539
1.24659
1.0167
0.803
0.621737
0.488205
0.399625
0.34334
0.305838
0.277167
0.249922
0.219629
0.182757
0.13892
0.103772
0.51475
2.81145
3.44021
3.53711
3.45634
3.33923
3.17572
2.99463
2.84174
2.70433
2.56512
2.41407
2.2481
2.06547
1.86329
1.63986
1.39976
1.15424
0.91891
0.70959
0.545903
0.43138
0.358408
0.312031
0.279289
0.250326
0.219219
0.18207
0.138161
0.103999
0.518496
2.73654
3.34636
3.50382
3.50726
3.44871
3.31974
3.15751
3.01401
2.88146
2.74597
2.59824
2.43321
2.24731
2.03866
1.80836
1.55908
1.30192
1.04882
0.815141
0.620154
0.47544
0.380644
0.321919
0.283265
0.251609
0.219256
0.181404
0.137377
0.104195
0.516843
2.56514
3.15265
3.40318
3.52999
3.54643
3.46243
3.32633
3.19521
3.068
2.93419
2.7872
2.62125
2.42723
2.21068
1.97511
1.72118
1.45668
1.19055
0.936442
0.710568
0.533504
0.411698
0.336179
0.289047
0.253658
0.219745
0.180946
0.136728
0.104396
0.504072
2.05463
2.72091
3.19487
3.50598
3.62461
3.59968
3.49796
3.38273
3.26092
3.12605
2.97334
2.80497
2.60621
2.38684
2.14832
1.89178
1.6199
1.34242
1.06948
0.816412
0.60596
0.452611
0.355359
0.296741
0.256501
0.220537
0.180551
0.136089
0.104563
0.113496
0.18318
0.238555
0.27454
0.300312
0.321105
0.338515
0.353297
0.366043
0.376738
0.385046
0.391354
0.397211
0.405405
0.416893
0.436541
0.473436
0.536214
0.634986
0.770369
0.930202
1.09625
1.2592
1.40987
1.53289
1.64685
1.72976
1.7151
1.34495
0.355793
0.111833
0.17853
0.232948
0.268533
0.293959
0.314337
0.331314
0.345795
0.358336
0.369126
0.377968
0.385422
0.393095
0.40351
0.418415
0.442212
0.484232
0.553961
0.658929
0.801339
0.969609
1.14762
1.31892
1.4755
1.6086
1.72833
1.82148
1.80615
1.42542
0.340997
0.110604
0.174474
0.228039
0.263251
0.28829
0.30821
0.324722
0.338988
0.351223
0.362064
0.371587
0.380544
0.390218
0.40316
0.421728
0.450853
0.498993
0.575915
0.687556
0.835279
1.00863
1.18991
1.36385
1.52098
1.6637
1.79352
1.90189
1.90135
1.5732
0.364286
0.1096
0.171049
0.223921
0.2589
0.283729
0.30336
0.319524
0.333245
0.345373
0.356455
0.366769
0.377045
0.388859
0.404593
0.427195
0.46226
0.518139
0.60358
0.723403
0.877405
1.05707
1.2413
1.41688
1.57518
1.72624
1.87089
1.99621
2.00624
1.66146
0.385644
0.10884
0.168215
0.220436
0.255279
0.279997
0.299399
0.315346
0.328631
0.340688
0.351912
0.363202
0.374691
0.388689
0.40738
0.434678
0.476454
0.541001
0.636352
0.764464
0.925074
1.10754
1.28727
1.46086
1.62337
1.78221
1.94287
2.09019
2.11532
1.74196
0.395395
0.108073
0.165514
0.217067
0.251826
0.276551
0.295975
0.311866
0.325212
0.337193
0.34863
0.360659
0.373983
0.38967
0.411474
0.44367
0.492518
0.566118
0.671119
0.808157
0.972738
1.15306
1.328
1.49894
1.66672
1.83627
2.01458
2.18611
2.22999
1.83633
0.403865
0.107265
0.162776
0.213607
0.248357
0.273243
0.293002
0.308981
0.322462
0.334551
0.346296
0.358799
0.373524
0.392273
0.416886
0.454171
0.510499
0.593546
0.708367
0.853222
1.0186
1.19598
1.3672
1.53591
1.70793
1.88771
2.08264
2.27896
2.34304
1.93399
0.414723
0.106627
0.16011
0.210122
0.244978
0.270171
0.29041
0.306568
0.320233
0.33264
0.34486
0.358026
0.374273
0.395607
0.424083
0.466692
0.530895
0.623775
0.748217
0.899095
1.06425
1.23859
1.40788
1.57467
1.74946
1.93861
2.15082
2.37219
2.45563
2.03385
0.424919
0.10591
0.15766
0.206942
0.241889
0.267403
0.287761
0.304474
0.318475
0.331533
0.344328
0.358334
0.376198
0.399811
0.432937
0.481765
0.554936
0.658341
0.791933
0.946884
1.11211
1.28349
1.4533
1.61911
1.795
1.99165
2.2204
2.46824
2.56697
2.13123
0.435849
0.105256
0.15497
0.204315
0.239254
0.264976
0.285421
0.302559
0.317163
0.330541
0.344541
0.359897
0.3793
0.405898
0.444027
0.500663
0.5841
0.698355
0.839944
0.998999
1.16496
1.33414
1.50479
1.67017
1.84766
2.05057
2.29517
2.56617
2.67818
2.22466
0.444951
0.104823
0.152607
0.201313
0.236881
0.262847
0.283464
0.300868
0.316018
0.329754
0.34489
0.362018
0.383862
0.414249
0.458621
0.525005
0.620304
0.746004
0.895454
1.05792
1.22487
1.39236
1.56256
1.73039
1.90905
2.11741
2.37633
2.66523
2.78664
2.31205
0.452702
0.104244
0.150474
0.198642
0.234552
0.260929
0.281833
0.299483
0.314997
0.329708
0.345844
0.365116
0.390363
0.425813
0.478401
0.556563
0.665668
0.803485
0.960731
1.12577
1.29281
1.45932
1.628
1.80078
1.98156
2.19444
2.4652
2.76698
2.89324
2.39607
0.460963
0.103805
0.148542
0.196208
0.232346
0.25917
0.280414
0.298452
0.314674
0.330601
0.34823
0.370051
0.399463
0.442059
0.505646
0.598081
0.722416
0.8727
1.03656
1.20393
1.37076
1.53602
1.70351
1.88186
2.06546
2.28263
2.56312
2.87287
2.9992
2.4802
0.469625
0.103463
0.146679
0.193868
0.23032
0.257684
0.279252
0.297684
0.314942
0.332285
0.352108
0.377162
0.412137
0.464642
0.542565
0.652128
0.792246
0.953782
1.12342
1.2932
1.45948
1.62249
1.78951
1.97347
2.15989
2.38033
2.6666
2.98013
3.10429
2.56552
0.478283
0.103189
0.144843
0.191602
0.228476
0.256565
0.278477
0.297224
0.315246
0.334549
0.357661
0.387069
0.430158
0.4959
0.591717
0.72055
0.876303
1.04736
1.22228
1.39369
1.55934
1.71945
1.88377
2.07216
2.26301
2.48543
2.77559
3.08653
3.20524
2.64847
0.485952
0.103019
0.143297
0.189527
0.226673
0.254989
0.277929
0.29731
0.316402
0.338134
0.364694
0.401469
0.456239
0.53923
0.655949
0.804635
0.974947
1.15365
1.33244
1.50446
1.66903
1.8267
1.98929
2.17521
2.37628
2.60206
2.88808
3.18996
3.29797
2.72178
0.492112
0.103043
0.142171
0.187772
0.224912
0.253452
0.277184
0.298125
0.319153
0.343724
0.375412
0.422101
0.493124
0.597643
0.73768
0.90543
1.0881
1.27336
1.45375
1.62623
1.78904
1.94395
2.10356
2.28739
2.49856
2.72519
3.00416
3.29033
3.37905
2.78444
0.497881
0.103141
0.141493
0.186433
0.223694
0.252509
0.276891
0.299375
0.3229
0.351715
0.391273
0.451467
0.543505
0.673396
0.837657
1.02282
1.21593
1.4057
1.58638
1.75891
1.92011
2.07202
2.22712
2.40881
2.62434
2.85285
3.12155
3.38457
3.44859
2.83546
0.502523
0.1033
0.141279
0.185835
0.223138
0.252471
0.277619
0.301782
0.328353
0.363082
0.413594
0.492289
0.609647
0.766966
0.95429
1.15498
1.35638
1.54913
1.72972
1.90128
2.06081
2.21024
2.36149
2.5398
2.75595
2.98405
3.23436
3.46711
3.50413
2.86768
0.509327
0.103512
0.141216
0.185738
0.223107
0.253129
0.27926
0.30529
0.335898
0.378773
0.444421
0.546376
0.692693
0.877381
1.08534
1.29914
1.50741
1.70274
1.88358
2.05349
2.21077
2.35803
2.50622
2.68017
2.89376
3.11515
3.33791
3.53545
3.53747
2.88683
0.511597
0.103756
0.140832
0.185569
0.223103
0.253664
0.281078
0.309739
0.346475
0.400866
0.486587
0.615902
0.792307
1.00254
1.22883
1.45432
1.66878
1.86677
2.04816
2.21624
2.37067
2.5157
2.66115
2.82956
3.03601
3.24292
3.42733
3.57932
3.5357
2.87862
0.516352
0.103944
0.140002
0.184934
0.222663
0.25401
0.283289
0.315929
0.361457
0.432115
0.543322
0.702962
0.908135
1.14123
1.38416
1.62151
1.84265
2.04293
2.22464
2.39055
2.54266
2.68417
2.82648
2.98776
3.18135
3.36497
3.50184
3.59345
3.49715
2.84968
0.518388
0.104148
0.138821
0.18397
0.222415
0.255028
0.286845
0.325109
0.382651
0.474861
0.616328
0.808006
1.03928
1.29139
1.54771
1.79602
2.02368
2.22855
2.41201
2.57677
2.72559
2.86376
3.00198
3.15435
3.32927
3.47763
3.55505
3.56172
3.40295
2.77421
0.52225
0.104343
0.137944
0.183055
0.222645
0.256856
0.292074
0.338403
0.412178
0.531178
0.705949
0.928912
1.18226
1.44806
1.71282
1.96686
2.20097
2.41427
2.60416
2.76939
2.9168
3.05289
3.18661
3.32752
3.47678
3.57858
3.579
3.46271
3.20874
2.60066
0.520872
0.104557
0.137677
0.182799
0.223218
0.259305
0.29917
0.356629
0.451511
0.601794
0.810579
1.06203
1.33507
1.61235
1.88397
2.1401
2.37823
2.59597
2.79216
2.9602
3.11272
3.24957
3.37821
3.50412
3.61919
3.66034
3.55658
3.25456
2.77637
2.08363
0.508105
0.292098
0.286243
0.281596
0.279163
0.280231
0.286145
0.296092
0.310152
0.327687
0.348352
0.371417
0.396246
0.422121
0.448461
0.474544
0.499817
0.52389
0.546524
0.567572
0.586958
0.604776
0.620893
0.635264
0.648276
0.660284
0.67125
0.681126
0.689898
0.697672
0.704598
0.710721
0.716064
0.720733
0.724675
0.727903
0.730437
0.732261
0.733362
0.733676
0.733173
0.731945
0.729943
0.727074
0.723285
0.718546
0.712826
0.706133
0.698418
0.68961
0.679701
0.668824
0.657068
0.644356
0.630728
0.616276
0.601147
0.585385
0.569071
0.552308
0.535195
0.51781
0.500237
0.482573
0.464887
0.447203
0.429521
0.411832
0.39413
0.376433
0.358774
0.341209
0.323794
0.30659
0.289649
0.273026
0.256771
0.240941
0.225597
0.210816
0.196686
0.183303
0.170761
0.159154
0.148561
0.139062
0.130704
0.123501
0.117428
0.112416
0.108372
0.105183
0.102725
0.100879
0.0995284
0.0985699
0.0979065
0.097465
0.0971956
0.0970647
0.0970719
0.0971765
0.0973236
0.0975238
0.0977667
0.098062
0.0984241
0.0988623
0.0993329
0.0998238
0.100322
0.100803
0.101209
0.101695
0.102187
0.102773
0.103291
0.103676
0.10377
0.103894
0.104089
0.104402
0.104718
0.10486
0.10487
0.104815
2.56862
2.61952
2.69008
2.7869
2.91808
3.08692
3.28884
3.52341
3.78383
4.06275
4.35141
4.64137
4.92473
5.19528
5.44881
5.68234
5.89411
6.08356
6.25107
6.39791
6.5254
6.63399
6.72994
6.81504
6.88906
6.95046
7.00169
7.04415
7.07923
7.10793
7.13082
7.14747
7.15887
7.16543
7.16732
7.16462
7.15751
7.14608
7.13045
7.11081
7.08502
7.05438
7.01857
6.97729
6.93013
6.87658
6.81599
6.74857
6.67272
6.58715
6.4892
6.37723
6.25296
6.11681
5.97061
5.81881
5.66102
5.49825
5.33222
5.16435
4.99448
4.8224
4.6492
4.47568
4.30189
4.12788
3.95402
3.78106
3.60997
3.44174
3.27677
3.11509
2.95675
2.80141
2.64836
2.49691
2.34633
2.19587
2.04502
1.89371
1.74259
1.59279
1.44588
1.3035
1.16728
1.03871
0.919114
0.809664
0.710926
0.623193
0.54625
0.479676
0.42277
0.374607
0.334151
0.300247
0.271988
0.248552
0.229182
0.213136
0.199759
0.188539
0.179218
0.171512
0.165143
0.159721
0.155273
0.151728
0.148962
0.146941
0.145464
0.144016
0.14233
0.141158
0.140366
0.139825
0.13911
0.137878
0.136998
0.136573
0.136661
0.137088
0.137483
0.137717
0.137731
4.88044
4.94967
5.04951
5.18711
5.37214
5.60827
5.89508
6.22887
6.60339
7.01014
7.43775
7.87397
8.30699
8.72637
9.12341
9.49205
9.82882
10.1316
10.4
10.6354
10.8392
11.0145
11.1664
11.2964
11.4053
11.4939
11.5659
11.623
11.6668
11.6986
11.7195
11.7307
11.733
11.7271
11.7134
11.6923
11.664
11.6285
11.5858
11.5356
11.477
11.41
11.3345
11.2499
11.1558
11.0518
10.936
10.8105
10.6738
10.5253
10.3645
10.1915
10.0073
9.81244
9.60686
9.38951
9.1622
8.92674
8.68508
8.43926
8.19038
7.93843
7.6841
7.42771
7.16969
6.90984
6.64832
6.38546
6.12186
5.85838
5.59551
5.3339
5.07421
4.81697
4.56239
4.31109
4.06341
3.81979
3.58092
3.34762
3.12079
2.90141
2.69027
2.48798
2.29472
2.11078
1.93583
1.76982
1.61248
1.46389
1.32406
1.19324
1.07154
0.959335
0.856802
0.764047
0.681023
0.60754
0.54314
0.487346
0.439379
0.398496
0.363835
0.334636
0.309972
0.289024
0.27132
0.256739
0.245095
0.236194
0.228943
0.221947
0.215346
0.209994
0.206007
0.202576
0.198576
0.194708
0.191719
0.189535
0.187919
0.186667
0.185596
0.184468
0.183398
6.90569
6.99112
7.12088
7.29927
7.53303
7.82397
8.16844
8.5619
8.99599
9.46032
9.94291
10.4312
10.9131
11.3779
11.8169
12.2239
12.5946
12.9274
13.2228
13.4817
13.7054
13.899
14.0646
14.2033
14.3166
14.4077
14.4792
14.5331
14.5712
14.5951
14.6062
14.606
14.5955
14.5758
14.5473
14.5105
14.4655
14.4124
14.3507
14.2803
14.2005
14.1114
14.0126
13.9039
13.7852
13.6563
13.5169
13.3671
13.2071
13.0368
12.856
12.6648
12.4637
12.2547
12.0375
11.8121
11.5789
11.3388
11.0927
10.8395
10.5786
10.3109
10.0367
9.75504
9.46983
9.17988
8.88489
8.58527
8.2818
7.97496
7.66518
7.35337
7.04054
6.72741
6.41494
6.10415
5.79628
5.49225
5.19304
4.89964
4.6132
4.33489
4.0656
3.806
3.5565
3.31745
3.08909
2.87116
2.66339
2.46575
2.27817
2.10044
1.93221
1.77327
1.62321
1.48196
1.34902
1.22456
1.10839
1.0009
0.902094
0.812417
0.732188
0.661
0.598246
0.542933
0.494563
0.452613
0.417891
0.390109
0.366475
0.343788
0.322903
0.305135
0.291281
0.279231
0.267564
0.257316