/*--------------------------------*- C++ -*----------------------------------*\
| =========                 |                                                 |
| \\      /  F ield         | OpenFOAM: The Open Source CFD Toolbox           |
|  \\    /   O peration     | Version:  2112                                  |
|   \\  /    A nd           | Website:  www.openfoam.com                      |
|    \\/     M anipulation  |                                                 |
\*---------------------------------------------------------------------------*/
FoamFile
{
    version     2.0;
    format      ascii;
    arch        "LSB;label=32;scalar=64";
    class       volScalarField;
    location    "0.00719";
    object      T;
}
// * * * * * * * * * * * * * * * * * * * * * * * * * * * * * * * * * * * * * //

dimensions      [0 0 0 1 0 0 0];

internalField   nonuniform List<scalar> 
13875
(
1412
1535.53
1482.46
1487.41
1482.02
1483.65
1484.5
1484.02
1484.35
1484.39
1484.6
1484.29
1483.47
1483.91
1483.83
1483.84
1483.43
1484.73
1484.87
1483.12
1481.89
1487.67
1480.54
1533.31
1397.99
1307.02
1356.14
1318.89
1322.05
1316.5
1317.88
1322.08
1323.19
1323.63
1323.82
1324.14
1323.46
1318.02
1317.66
1318.35
1322.75
1322.94
1323.47
1322.31
1317.82
1316.7
1321.86
1319.57
1356.36
1302.14
1307.23
1340.05
1314.38
1311.75
1305.29
1305.64
1305.46
1305
1304.58
1304.88
1305.17
1306.13
1303.74
1304.07
1303.9
1305.76
1303.89
1305.94
1306.03
1305.09
1304.86
1311.05
1311.4
1335.86
1296.82
1317.37
1344.82
1314.76
1308.72
1306.06
1306.22
1304.52
1303.72
1303.47
1303.68
1303.28
1303.51
1303.85
1304.1
1304.05
1303.45
1302.43
1303.5
1304.21
1305.49
1305.35
1307.7
1313.92
1343.65
1312.35
1329.53
1342.16
1315.84
1312.46
1305.18
1305.93
1305.21
1304.03
1303.57
1303.86
1303.35
1303.25
1303.69
1304.24
1303.82
1303.28
1302.52
1304
1305.2
1304.89
1304.76
1311.74
1311.97
1338.56
1316.68
1332.23
1351.19
1318.89
1309.98
1308.14
1307.28
1304.81
1303.91
1303.69
1303.97
1303.43
1303.46
1304.03
1304.51
1304.3
1303.56
1302.64
1303.56
1304.27
1306.55
1307.27
1308.42
1318.97
1349.1
1326.5
1339.04
1360.57
1329.16
1317.76
1308.14
1307.9
1306.01
1304.52
1304.21
1304.35
1303.79
1303.66
1304.19
1304.84
1304.26
1303.58
1303.18
1304.59
1306.2
1306.57
1307.8
1317.6
1325.65
1358.18
1321.48
1359.81
1384.8
1344.23
1321.38
1316.61
1310.36
1306.75
1305.21
1304.87
1304.88
1304.24
1304.35
1304.97
1305.55
1305.24
1304.21
1303.77
1304.97
1306.18
1309.93
1315.27
1320.36
1341.51
1380.98
1349.92
1537.4
1508.65
1387.23
1350.89
1321.85
1316.43
1310.72
1307.52
1307.02
1306.54
1305.65
1305.52
1306.23
1306.9
1306.39
1305.71
1305.67
1307.28
1310.53
1314.25
1321.33
1349.29
1382.73
1505.58
1521.05
1835.24
1574.74
1427.21
1358.03
1338.15
1320.49
1314.52
1310.96
1310.03
1309.25
1308.39
1308.22
1309.01
1309.64
1309.3
1308.72
1308.95
1311.02
1314.14
1320.54
1336.94
1357.01
1424.7
1566.44
1826.84
2507.84
1804.91
1516.92
1405.97
1350.5
1332.07
1325.7
1318.72
1316.82
1315.2
1314.03
1313.57
1314.37
1315.07
1314.92
1314.85
1315.38
1317.84
1326.15
1330.09
1348.71
1419.26
1502.14
1797.66
2429.6
2813.47
2302.56
1736.22
1463.93
1427.91
1360.2
1339.89
1332.51
1329.75
1327.49
1326.07
1325.44
1326
1326.69
1326.78
1327.39
1328.64
1332.04
1340.08
1370.24
1405.18
1456.57
1730.27
2305.76
2837
2787.71
2655.27
2354.84
2206.92
1523.9
1414.96
1397.69
1373.45
1365.03
1358.67
1355.41
1354.21
1354.2
1354.86
1355.68
1358.53
1364.62
1375.16
1400.96
1422.03
1567.5
2237.93
2245.65
2686.37
2766.1
2724.13
2662.38
2745.15
2783.34
2049.21
1807.69
1520.99
1479.69
1461.89
1450.33
1445.54
1443.97
1443.71
1444.4
1445.7
1450.28
1461.74
1481.16
1540.86
1911.65
2102.06
2790.13
2792.5
2702.49
2700.85
2584.15
2638.86
2684.17
2690.91
2582.44
2357.95
2040.89
1967.09
1872.84
1774.08
1737.53
1725.91
1721.93
1723.51
1730.44
1755.09
1848.91
1969.08
1987.75
2410.71
2634.39
2734.11
2678.3
2651.24
2624.94
2501.87
2540.05
2630.67
2691.13
2659.99
2686.71
2882.57
2969.44
2970.61
3066.78
3148.1
3172.17
3182.39
3176.94
3158.57
3092.79
2935.81
2963.74
2905.69
2720.56
2660.37
2709.77
2629.28
2557.77
2532.62
2316.11
2399.14
2473.12
2525.52
2613.26
2744.25
3048.72
3431.05
3602.04
3685.01
3694.97
3687.21
3684.18
3687.85
3697.81
3702.92
3612.72
3445.07
3084.5
2757.51
2622.08
2566.19
2468.37
2405.12
2329.76
2027.82
2155.31
2310.53
2621.96
2781.52
2833.75
2978.79
3334.14
3552.36
3646.59
3672.62
3669.87
3668.98
3671.68
3674.8
3654.28
3525.83
3319.75
2961.56
2817.81
2789.37
2592.37
2276.9
2143.49
2027.03
1811.18
1875.54
2004.09
2268.93
2749.87
2836.18
2882.48
3120.62
3363.7
3495.21
3535.14
3548.22
3551.55
3551.86
3540.88
3506.13
3371.1
3126.61
2916.26
2932.55
2756.09
2243.06
2003.91
1886.36
1814.79
2441.21
2329.19
2076.39
2183.21
2521.67
2680.64
2693.49
2853.3
3086.44
3281.6
3384.76
3423.85
3433.31
3426.42
3389.49
3282.94
3075.79
2856.61
2720.92
2712.37
2512.05
2203.63
2116.69
2342.77
2445.06
3295.35
3375.4
2712.46
2280.66
2395.51
2517.44
2542
2669.52
2898.48
3115.67
3250.87
3303.04
3310.84
3302.27
3245.59
3096.33
2867.93
2662.53
2546.15
2539.98
2365.11
2299.44
2781.95
3438.33
3305.47
3635.32
3556.72
2741.73
2175.75
2216.11
2349.19
2414.61
2530.59
2747.28
2973.29
3119.68
3175.71
3186.22
3171.12
3104.34
2942.13
2711.9
2522.44
2409.04
2360.92
2191.52
2208.85
2819.99
3585.24
3656.33
3454.88
3011.95
2435.09
2007.04
2074.99
2226.02
2306.62
2423.65
2621.53
2839.77
2991.61
3053.4
3062.3
3048.04
2977.18
2811.38
2592.27
2419.48
2294.34
2228.63
2041.58
2019.32
2435.87
3026.06
3484.55
3488.21
2871.66
2181.83
1860.57
1985.33
2123.73
2208.42
2321.17
2515.22
2727.3
2870.61
2929.76
2942.85
2924.27
2855.43
2699.23
2486.49
2318.87
2199.57
2122.05
1950.21
1865.46
2201.33
2895.67
3512.37
3403.43
2698.3
2033.84
1792.75
1948.67
2063.93
2116.49
2238.67
2422
2621.77
2760.59
2818.97
2827.09
2811.85
2743.3
2590.62
2390.96
2230.97
2114.56
2061.76
1905.26
1786.63
2063.6
2760.82
3434.15
3375.82
2673.69
1988.15
1803.07
1917.83
1983.3
2041.7
2154.3
2333.93
2524.35
2653.18
2705.56
2719.18
2700.89
2638.92
2499.37
2307.47
2149.71
2041.88
1992.12
1889.22
1798.98
1996.65
2695.12
3396.02
3304.5
2540.74
1926.98
1808.47
1890.92
1951.14
1975.21
2094.37
2261.65
2436.07
2555
2607.36
2615.41
2601.96
2541.81
2412.28
2236.17
2085.12
1974.62
1956.4
1869.21
1801.72
1936.83
2563.29
3329.02
3280.41
2518.08
1944.22
1840.8
1888.08
1886.4
1917.05
2031.65
2194.83
2358.66
2462.89
2506.43
2520.04
2502.74
2449.7
2333.12
2165.47
2021.32
1917.04
1901.5
1871.03
1825.98
1947.86
2564.98
3320.28
3284.33
2502.68
1925.44
1838.24
1844.39
1861.87
1870.47
1986.35
2133.32
2279.76
2374.99
2421.09
2428.56
2417.99
2368.07
2265.95
2115.88
1978.58
1869.73
1872.55
1842.56
1830.07
1915.27
2480.64
3259.45
3256.12
2520.7
1963.68
1872.9
1854.21
1830.3
1829.03
1938.01
2078.94
2215.28
2298.55
2332.66
2345.42
2330.35
2288.12
2197.29
2055.98
1930.78
1827.06
1848.56
1846.67
1862.27
1945.91
2501.83
3255.19
3177.45
2431.32
1938.44
1882.38
1806.57
1810.92
1797.28
1913.13
2035.99
2153.74
2223.08
2260.91
2265.64
2257.71
2216.63
2138.82
2015.69
1899.42
1792.42
1822.85
1808.41
1868.46
1928.4
2446.63
3208.79
3147.82
2428.08
1989
1912.15
1813.67
1786.63
1773.66
1872.17
1984.91
2094.73
2158.4
2183.43
2194.61
2182.5
2151.61
2083.85
1968.96
1871.11
1772.47
1804.27
1814.72
1895.91
1956.26
2404.43
3131.79
3088.35
2379.01
1996.81
1896.92
1786.43
1759.56
1748.47
1856.46
1953.57
2046.94
2093.68
2124.42
2126.43
2121.54
2089.21
2036.08
1937.47
1846.28
1745.18
1769.55
1787.13
1893.15
1954.22
2359.38
3093.65
3045.29
2350.04
2019.7
1922.33
1807.77
1745.04
1738.63
1829.02
1910.59
1995.39
2041.3
2057.4
2066.85
2056.92
2035.05
1985.87
1894.42
1824.59
1732.65
1758.2
1802.28
1908.21
2009.2
2354.18
3083.81
3012.43
2315.63
2015.78
1921.96
1787.42
1718.93
1710.02
1815.22
1885.07
1955.64
1983.37
2008.99
2009.17
2007.32
1981.9
1949.6
1871.97
1807.28
1704.55
1726.44
1789.12
1915.4
2014.88
2322.87
3033.83
2988.59
2301.71
2019.48
1937.02
1802.03
1726.97
1707.54
1792.27
1849.2
1908.05
1941.54
1951.09
1959.65
1951.42
1935.37
1901.21
1834.37
1793.7
1698.3
1728.45
1805.65
1934.01
2022.69
2321.72
2995.84
2944.16
2261.91
2009.05
1960.52
1793.41
1712.54
1682.51
1780.51
1830.15
1880.37
1891.81
1912.46
1910.71
1911.03
1890.5
1873.88
1812.39
1772.37
1670.22
1711.88
1791.71
1956.37
2007.77
2273.02
2955.34
2929.12
2273.31
2015.61
2003.11
1816.1
1733.11
1687.64
1761.87
1794.98
1832.39
1857.23
1862.47
1869.55
1862.67
1851.93
1828.58
1783.12
1768.3
1674.46
1726.49
1815.34
1995.82
2010.81
2259.6
2909.16
2892.62
2254.58
1994.13
2009.28
1823.87
1720.85
1670.41
1749.63
1775.63
1814.3
1816.06
1832.25
1828.46
1830.59
1814.39
1808.95
1755.75
1743.45
1657.38
1714.68
1813.79
2014.24
1981.01
2232.78
2878.94
2846.72
2247.51
1977.94
2001.07
1855.07
1754.62
1690.85
1742.02
1748.68
1767.32
1786.74
1788.96
1794.08
1788.81
1780.77
1764.41
1734.64
1744.26
1671.25
1741.2
1844.81
2005.79
1963.62
2247.5
2872.65
2821.08
2239.44
1944.73
1998.58
1914.1
1748.97
1682.92
1730.55
1729.58
1756.58
1751.96
1764.31
1759.6
1763.31
1750.67
1752.39
1705.12
1722.46
1673.02
1728.25
1877.21
2003.6
1932.53
2227.51
2815.41
2789.78
2233.48
1933
1979.49
1933.23
1786.48
1720.43
1735.46
1711.18
1711.74
1726.74
1725.92
1730.46
1726.92
1720.53
1712.84
1697.24
1734.67
1706.35
1777.76
1945.7
1989.88
1926.16
2232.23
2785.41
2760.45
2212.55
1908.87
1961.31
1932.44
1816.82
1722.46
1733
1699.05
1712.77
1699.62
1706.95
1701.2
1706.28
1696.51
1706.06
1667.22
1717.71
1705.39
1781.56
1946.72
1978.15
1905.68
2209.12
2756.39
2729.6
2210.51
1908.56
1927.15
1918.79
1887.33
1766.46
1755.48
1694.78
1671.09
1677.68
1673.26
1676.37
1673.78
1671.29
1675.82
1682.83
1750.83
1747.06
1842.47
1931.94
1944.83
1901.35
2189.55
2722.82
2709.28
2197.44
1895.72
1907.71
1904.88
1903.12
1776.09
1749.8
1694.75
1686.78
1659.07
1659.42
1651.79
1658.26
1653.99
1679.41
1660.62
1733.29
1769.75
1921.84
1922.26
1921.06
1889.02
2186.92
2699.71
2671.12
2176.72
1895.11
1881.51
1871.69
1891.35
1841.41
1782.42
1712.73
1654.61
1647.1
1631.52
1632.02
1631.43
1637.84
1657.16
1694.19
1777.04
1835.54
1910.44
1891.09
1892.22
1893.71
2180.96
2667.43
2654.3
2175.34
1886.47
1870.3
1842.6
1873.89
1920.16
1804.56
1714.95
1689.07
1642.96
1628.88
1615.77
1626.54
1636.13
1677.95
1672.1
1784.39
1932.49
1891.93
1864.65
1880
1885.69
2165.58
2643.04
2606.27
2154.19
1884.14
1851.35
1815.36
1858.26
1898.77
1874.99
1745.31
1659.65
1643.46
1611.33
1604.92
1610.52
1631.68
1664.69
1726.1
1860.53
1913.25
1874.52
1837.63
1860.08
1887.41
2149.85
2590.47
2565.42
2136.7
1867.08
1849.32
1798.79
1818.99
1887.05
1961.12
1778.33
1705.49
1648.99
1630.19
1605.8
1626.66
1640.82
1697.53
1722.9
1954.61
1898.96
1830.43
1817.13
1862.81
1867.61
2131.83
2553.79
2397.65
2086.64
1848.76
1829.16
1782.56
1799.25
1862.87
1934.86
1881.82
1687.33
1656.97
1613.23
1608.77
1612.2
1641.21
1703.04
1827.09
1936.23
1875.06
1806.76
1798.96
1837.37
1849.11
2079.11
2383.29
722.755
916.209
996.327
970.477
849.2
709.735
651.078
644.513
654.282
683.101
759.812
782.02
688.801
498.412
400.44
357.202
337.467
328.69
325.114
324.14
324.066
324.747
327.727
336.342
361.332
387.705
394.881
401.159
407.186
424.746
835.073
966.357
985.118
914.739
733.685
634.267
618.949
632.368
651.817
686.384
759.308
772.842
685.617
507.064
411.796
366.536
344.981
334.633
330.039
328.45
328.093
329.993
336.527
354.468
390.16
399.627
405.202
410.712
414.191
433.258
874.152
987.973
969.334
845.539
676.296
609.374
617.118
646.289
671.045
710.333
770.028
771.117
671.545
504.24
414.048
369.748
348.184
337.648
332.739
330.916
331.463
335.445
347.492
382.069
400.662
404.38
407.662
414.214
416.507
434.946
939.606
994.658
947.757
768.907
628.946
596.53
617.572
675.43
701.099
737.189
781.996
772.83
664.213
507.132
422.882
378.744
355.529
343.592
337.82
335.836
337.522
344.856
366.222
401.854
408.953
411.622
417.284
423.85
425.348
436.828
965.292
994.923
908.018
709.377
601.033
591.858
633.823
717.043
740.88
768.198
791.842
768.629
644.087
505.065
427.31
383.799
360.61
348.408
342.291
340.937
344.665
358.821
399.803
411.698
414.814
417.246
422.885
430.113
432.079
437.484
999.806
987.991
855.634
662.79
581.585
590.262
663.928
754.144
780.097
794.27
796.406
756.948
623.364
502.491
431.436
390.613
366.781
354.062
347.917
348.096
356.213
387.333
414.863
419.896
421.476
424.598
429.968
436.44
438.222
440.313
1013.34
969.733
801.659
631.931
568.323
591.379
686.095
767.331
794.602
802.884
793.05
733.211
598.216
494.927
431.157
393.592
371.199
359.098
354.22
357.399
374.836
414.127
423.456
426.229
427.933
431.724
437.192
443.513
445.533
445.9
1026.44
948.136
758.607
605.383
557.839
592.544
690.401
767.989
793.66
799.187
775.812
696.942
572.938
484.017
428.409
394.431
374.934
364.367
362.533
373.001
412.343
426.138
430.707
433.366
435.689
439.232
444.593
450.269
451.222
450.326
1030.29
922.327
728.12
586.551
549.884
584.456
679.256
747.74
771.479
774.63
735.004
647.042
540.686
467.51
422.167
393.708
377.693
370.818
375.784
406.902
428.085
434.239
437.727
440.66
442.551
446.24
451.216
456.517
457.609
454.364
1031.63
900.658
709.279
577.018
538.052
560.602
633.967
692.744
717.338
718.077
666.309
584.936
501.972
447.38
413.657
393.223
382.246
382.974
407.668
430.753
437.257
441.729
445.26
448.112
449.794
453.172
457.57
462.328
463.788
458.628
1031.18
885.071
697.531
570.49
524.433
527.846
564.621
611.166
632.258
629.19
575.083
515.97
462.121
427.537
408.286
395.844
393.817
415.109
434.806
442.228
445.553
449.828
453.429
455.964
457.267
460.533
464.147
468.735
468.48
460.748
1030.37
874.138
692.228
569.46
518.64
503.717
506.699
524.849
534.244
524.315
484.678
459.203
435.642
420.231
411.135
409.112
425.951
440.627
447.61
451.411
454.891
459.162
462.637
464.737
465.739
468.784
471.487
474.523
470.729
463.413
1030.1
866.272
691.72
572.342
518.893
496.384
485.138
480.955
477.084
464.589
448.315
441.167
432.403
431.765
434.541
439.477
446.785
454.312
458.241
461.727
465.704
469.863
472.86
474.287
474.697
476.683
478.598
479.466
474.929
467.012
1030.89
863.681
696.226
582.713
525.883
498.548
482.694
474.836
466.023
454.479
450.635
453.849
455.02
453.529
453.916
457.044
462.965
467.59
471.074
473.936
478.448
481.916
483.796
483.799
483.122
483.929
485.495
484.398
479.955
470.161
1032.61
864.631
707.963
601.789
542.22
510.908
496.058
490.091
481.558
476.03
474.132
473.302
472.723
472.8
474.103
477.993
482.368
484.669
485.83
489.394
492.929
494.819
494.852
492.9
489.896
490.96
492.199
488.695
483.667
472.79
1035.67
871.3
727.751
631.184
572.134
542.32
529.68
520.805
513.239
508.493
506.095
503.796
502.333
502.368
503.242
505.711
506.566
504.747
504.493
506.021
507.486
507.592
504.597
500.613
496.971
498.018
498.182
492.907
486.282
476.573
1040.27
884.105
756.304
672.002
621.468
595.011
577.453
568.79
566.17
562.538
558.703
554.359
549.993
546.468
542.258
539.168
534.519
528.359
524.24
523.074
522.095
519.404
512.986
506.947
504.091
504.833
503.233
497.499
489.993
479.616
1049.34
903.249
795.182
728.104
688.951
659.995
644.763
639.282
639.085
635.637
630.72
623.774
613.57
601.78
587.634
575.581
562.17
551.612
543.516
539.073
535.194
528.872
519.975
511.875
511.121
510.958
507.542
499.799
492.583
481.552
1060.24
928.532
843.385
797.854
761.587
738.412
727.224
724.618
724.953
721.463
715.046
703.804
685.354
662.17
636.052
611.35
589.652
573.616
561.183
552.643
545.422
536.258
525.827
518.89
517.699
515.756
510.391
501.728
493.845
482.57
1072.06
959.724
902.756
867.851
839.024
823.517
818.005
819.213
820.397
815.365
805.243
786.199
757.879
722.805
684.125
646.975
616.515
593.058
575.37
563.533
553.015
541.564
529.691
525.494
523.947
518.991
512.301
503.029
495.368
483.181
1085.32
997.129
970.376
942.03
920.356
913.552
914.811
921.95
923.234
913.831
894.981
865.736
827.301
779.69
728.54
680.012
640.128
609.573
586.685
572.141
558.074
545.206
534.934
531.493
528.383
521.541
513.542
504.52
495.959
483.673
1095.84
1044.16
1036.44
1019.82
1006.89
1006
1013.78
1023.76
1022.76
1008.11
978.949
938.764
888.009
826.461
763.353
705.193
658.674
623.137
597.241
578.46
561.527
548.597
540.443
536.89
531.344
522.908
514.366
504.964
495.954
483.839
1117.37
1096.2
1108.7
1100.55
1091.65
1094.11
1106.98
1116.67
1112.93
1090.36
1050.33
999.978
936.871
863.729
790.492
725.862
674.364
634.782
605.96
583.186
565.102
552.392
545.878
541.056
532.74
523.373
514.616
504.931
495.421
483.526
1103.54
1151.85
1182.28
1178.12
1170.42
1174.13
1186.06
1193.27
1187.29
1159.56
1110.86
1051.81
981.084
899.143
818.071
746.648
688.394
644.123
611.822
588.245
569.643
556.413
550.027
542.878
533.075
523.434
514.313
504.46
494.675
482.763
1136.49
1229.3
1266.35
1255.43
1245.34
1248.05
1256.92
1259.02
1248.78
1217.29
1166.04
1100.67
1025.39
937.521
850.005
770.227
702.975
652.541
616.956
592.313
573.382
559.903
553.524
543.425
533.2
523.007
513.489
503.764
494.087
482.173
423.699
407.959
401.603
394.355
385.926
356.228
334.623
326.939
324.27
323.708
323.843
324.956
328.761
338.132
359.067
405.202
510.007
704.039
783.342
753.792
679.577
653.484
643.572
650.173
710.031
851.836
976.157
1002.89
927.826
739
432.173
414.755
410.687
404.821
398.536
388.248
351.773
335.259
329.369
327.701
328.195
329.92
334.804
345.807
368.525
416.607
517.685
698.695
773.848
754.908
683.614
652.134
632.134
618.595
634.963
736.236
919.175
991.013
975.317
849.133
434.068
417.07
413.757
407.075
403.866
399.408
377.611
345.518
334.497
330.901
330.559
332.624
337.826
349.037
371.715
418.846
513.946
685.6
772.722
767.609
707.555
672.737
646.962
617.043
610.103
678.916
849.379
975.801
995.069
886.648
436.184
425.016
423.479
416.069
411.301
408.105
400.005
363.394
343.558
336.794
335.36
337.602
343.771
356.485
380.817
427.671
516.225
677.625
775.186
780.668
735.172
703.918
677.215
617.265
596.453
631.364
773.21
953.312
1000.68
947.793
436.995
431.42
430.127
422.401
416.949
414.299
410.567
395.339
356.762
343.622
340.28
342.01
348.532
361.627
385.929
432.032
513.381
656.625
773.043
792.191
767.3
744.578
719.406
633.197
591.455
603.609
714.364
913.848
1000.5
971.702
439.74
437.579
437.069
430.036
424.442
421.136
419.063
412.963
383.303
354.649
347.237
347.495
354.112
367.822
392.643
435.953
510.391
635.009
763.361
798.3
795.365
784.357
756.952
662.792
589.722
583.142
668.885
863.318
993.309
1004.91
445.059
445.068
444.49
437.379
431.424
427.467
425.491
422.915
413.665
372.588
356.226
353.578
358.958
372.054
395.326
435.371
502.394
608.875
742.217
796.521
805.29
798.75
770.418
685.494
590.62
569.223
637.161
810.13
975.839
1018.17
449.945
450.981
450.97
445.219
439.276
435.352
432.774
430.71
425.937
409.392
371.285
361.595
364.072
375.511
395.86
432.134
490.982
582.667
708.992
781.366
802.757
797.716
770.977
689.643
591.549
559.043
610.42
768.185
955.496
1031.14
453.845
457.445
457.299
452.386
446.569
442.705
440.362
437.519
433.55
427.747
404.626
374.535
370.298
377.929
394.775
424.947
473.39
549.282
659.904
743.504
779.52
775.864
750.813
678.13
583.027
550.99
591.212
737.82
930.936
1034.89
457.91
463.504
463.015
459.151
453.643
449.946
447.874
444.745
441.08
437.865
430.567
406.276
382.385
382.351
393.921
415.352
451.623
509.194
595.646
676.533
724.014
719.938
693.63
631.466
558.828
539.187
581.157
719.32
910.3
1036.44
460.308
468.565
469.738
466.028
461.195
457.461
455.778
452.855
449.307
446.201
442.564
434.862
415.108
394.197
396.663
409.55
430.083
465.739
523.328
583.907
635.076
632.913
609.707
561.528
526.552
525.629
574.123
706.778
895.316
1036.71
462.406
471.059
475.843
473.501
469.702
465.932
464.6
462.258
458.599
455.242
451.978
448.029
440.885
427.23
411.893
412.88
422.611
438.032
462.539
489.41
529.688
535.733
524.631
506.061
504.009
519.998
573.068
700.759
884.461
1036.91
466.668
475.318
480.441
480.529
477.111
474.99
474.282
472.559
469.23
465.357
462.487
458.859
454.69
447.451
440.851
438.185
436.575
436.754
443.802
451.62
468.553
479.875
482.897
486.199
497.589
520.751
576.279
700.233
876.991
1037.63
470.276
480.465
485.36
487.082
484.305
483.268
483.982
483.808
481.538
477.746
474.696
471.742
468.142
463.735
458.384
455.588
455.289
457.344
457.944
455.851
458.195
468.956
477.076
484.294
500.258
528.682
587.638
704.383
874.138
1039.2
473.506
484.596
489.88
493.835
492.032
490.159
493.033
494.654
494.03
491.765
488.562
486.641
485.689
483.565
479.653
475.677
474.431
474.96
475.683
477.088
480.672
485.651
494.464
499.999
514.216
546.072
607.634
716.091
875.029
1041.59
477.955
487.582
494.262
499.669
499.371
498.262
500.918
504.571
506.722
506.253
505.161
504.224
505.936
508.414
508.191
505.82
505.269
505.844
507.364
510.263
512.908
517.722
524.995
534.626
549.033
578.132
637.761
736.107
881.808
1045.05
481.596
491.366
498.744
504.37
505.883
505.45
506.526
513.266
518.939
520.877
522.078
524.35
529.48
537.429
543.504
547.247
551.858
556.341
560.718
565.303
568.796
572.244
574.976
583.649
601.795
631.172
680.448
765.693
895.227
1050.2
483.569
494.257
501.156
508.098
511.555
512.153
513.316
520.523
529.067
534.337
538.455
544.098
552.862
566.218
582.302
596.31
611.196
624.24
634.305
640.871
645.107
647.558
647.752
653.067
668.575
698.536
739.972
805.762
914.883
1059.38
485.008
495.687
503.089
511.343
516.231
518.274
520.184
526.613
536.762
545.13
552.745
562.275
575.001
594.704
620.259
648.376
676.167
700.829
719.303
729.98
735.351
737.173
736.256
738.344
749.225
772.551
809.406
856.087
941.064
1070.89
485.545
496.964
504.344
512.972
519.26
524.095
526.835
531.759
542.441
553.46
563.841
577.092
596.588
622.842
658.019
699.339
740.515
777.545
806.43
825.334
834.604
837.2
834.779
832.529
837.074
851.664
880.531
918.805
973.255
1083.52
485.676
497.373
505.167
514.032
521.465
528.339
532.845
536.412
546.275
559.016
572.761
589.445
614.42
647.88
692.239
745.101
799.326
849.479
889.241
918.715
936.623
943.181
941.094
932.57
930.039
935.341
955.16
984.037
1012.41
1097.65
485.865
497.213
505.397
514.511
522.464
530.699
537.538
541.038
549.557
562.922
579.033
600.472
628.794
666.976
717.127
779.04
845.476
909.543
962.57
1003.61
1032.45
1044.24
1043.92
1033.26
1024.11
1023.9
1034.14
1050.52
1060.75
1109.3
485.22
496.623
505.309
514.609
522.729
531.606
540.06
545.642
552.946
566.405
585.176
609.522
640.46
682.333
736.627
804.589
880.945
956.12
1021.43
1073.29
1113.54
1134.24
1136.18
1126.26
1112.09
1108.35
1114.92
1123.32
1114.22
1131.72
484.079
495.484
504.714
514.384
522.743
531.747
541.175
549.163
556.292
571.026
590.984
616.128
649.624
695.815
756.433
830.697
914.628
998.05
1070.31
1131.64
1180.33
1206.39
1211.5
1204.63
1191.61
1186.63
1192.16
1196.24
1169.22
1120.31
482.791
494.4
503.952
513.71
522.393
531.724
541.677
551.501
559.456
574.854
595.65
621.131
657.646
710.092
779.188
860.897
950.902
1040.33
1117.15
1184.8
1235.44
1265.83
1275.63
1273.85
1264.26
1260.72
1268.53
1279.41
1245.27
1153.52
812.606
785.461
768.626
755.535
742.065
731.933
721.594
713.414
706.091
699.706
694.064
689.632
686.731
686.486
688.74
694.144
703.397
714.952
731.1
749.349
770.521
793.766
817.702
844.765
870.681
896.871
922.603
945.984
968.81
990.253
1010.28
1028.91
1045.66
1060.26
1072.67
1082.55
1089.62
1093.88
1095.15
1093
1088.34
1080.18
1068.48
1053.17
1034.04
1012.7
990.565
968.071
944.993
920.775
895.943
871.669
847.824
824.47
802.158
781.095
761.243
742.74
725.055
707.998
692.041
677.413
664.452
653.17
643.271
634.603
626.914
620.025
613.723
607.825
602.303
597.028
591.768
586.378
580.981
575.796
570.874
566.19
561.708
557.398
553.189
548.9
544.4
539.577
534.489
529.236
524.016
518.923
514.198
509.664
505.557
501.54
497.73
494.215
490.925
488.074
485.647
483.416
481.77
479.917
478.625
477.169
475.744
474.816
473.954
472.635
471.703
471.29
470.726
470.766
471.269
472.15
473.812
473.204
473.013
473.593
475.677
481.322
481.05
479.825
478.895
478.911
479.244
481.084
482.05
1028.7
983.246
942.108
906.898
875.807
848.977
825.102
805.392
788.684
775.149
764.693
757.107
753.708
754.666
760.453
772.859
793.11
819.057
851.357
888.413
929.634
973.513
1016.82
1060.65
1103.79
1145.48
1185.07
1221.86
1256.09
1287.68
1316.86
1343.79
1368.22
1389.93
1408.74
1424.41
1436.73
1445.54
1450.56
1451.52
1449.64
1444.74
1435.69
1422.55
1404.32
1383.29
1360.11
1334.11
1305.37
1273.86
1239.69
1203.48
1165.99
1127.69
1088.83
1050.59
1013.37
976.974
940.624
903.092
864.253
825.415
789.049
756.334
727.388
701.831
680.046
662.368
648.481
637.23
627.727
619.414
611.939
605.115
598.779
592.834
587.246
581.916
576.664
571.36
565.935
560.392
554.795
549.185
543.637
538.168
532.822
527.532
522.488
517.432
512.635
508.051
503.821
499.986
496.473
493.43
490.806
488.544
486.546
484.741
483.193
481.744
480.301
479.319
478.58
477.721
476.899
476.215
476.266
476.706
477.642
478.642
480.265
480.019
480.112
481.16
483.874
489.421
490.214
489.16
488.703
488.894
489.766
491.883
493.396
1285.07
1242.02
1193.2
1147.68
1105.58
1067.07
1031.45
998.685
969.265
944.594
925.432
911.77
905.072
906.055
914.824
933.099
959.829
994.092
1035.82
1083.08
1133.38
1185.9
1238.03
1288.69
1337.15
1382.68
1424.68
1462.97
1497.7
1529.17
1557.45
1582.7
1605.31
1625.41
1642.74
1657.22
1668.8
1677.25
1682.44
1684.43
1683.96
1681.04
1674.6
1665.62
1653.19
1638.39
1621.52
1602.44
1580.91
1556.93
1530.66
1502.35
1472.35
1440.78
1407.68
1373.62
1338.9
1303.52
1266.57
1225.75
1178.98
1126.6
1070.88
1013.2
953.792
894.136
838.581
790.241
750.101
717.87
692.265
672.539
657.196
644.663
633.745
623.911
615.014
606.901
599.355
592.16
585.201
578.405
571.774
565.354
559.17
553.256
547.581
541.992
536.498
531.17
526.102
521.21
516.408
511.966
507.857
504.178
500.996
498.114
495.674
493.397
491.599
489.782
488.352
487.408
486.521
485.568
484.56
483.783
483.659
484.034
484.808
485.045
485.966
487.028
488.85
490.149
491.558
495.125
499.687
499.561
498.964
499.091
500.024
501.678
503.082
1537.98
1496.6
1445.42
1395.3
1347.97
1303.56
1261.84
1223.27
1188.36
1158.24
1133.98
1116.54
1107.22
1107.33
1116.83
1136.61
1166.28
1204.62
1250.19
1300.59
1352.98
1405.5
1456.49
1504.95
1550.43
1592.29
1630.2
1664.2
1694.56
1721.68
1745.94
1767.6
1786.69
1803.1
1817.26
1829.25
1839.04
1846.34
1851.23
1853.59
1853.9
1851.85
1847.24
1839.84
1830.18
1819.06
1806.34
1792.02
1776.06
1758.53
1739.55
1719.28
1697.89
1675.48
1652.19
1628.22
1603.24
1577.52
1550.39
1520.68
1487.37
1450.47
1410.5
1366.5
1315.25
1253.14
1179.49
1097.32
1014.76
938.995
875.25
824.114
782.749
747.933
718.582
694.679
675.231
659.129
645.659
633.999
623.355
613.339
603.818
594.85
586.536
578.862
571.774
565.071
558.624
552.264
545.926
539.832
534.091
528.868
524.093
519.805
516.098
512.741
509.77
507.008
504.556
502.119
500.183
498.459
496.997
495.505
494.106
493.379
493.27
493.47
493.983
493.965
494.88
496.185
498.175
499.723
500.668
503.318
508.61
509.694
509.351
509.371
509.867
511.284
512.814
1768.35
1728.7
1678.23
1627.29
1578.49
1532.37
1489.55
1449.94
1413.66
1382.47
1357.56
1340.02
1330.84
1330.98
1340.55
1360.07
1388.88
1425.47
1467.96
1513.98
1560.84
1607
1650.67
1691.16
1728.18
1761.72
1791.89
1818.9
1843.01
1864.51
1883.7
1900.84
1916.05
1929.5
1941.07
1950.7
1958.11
1963.83
1967.93
1970.21
1970.64
1969.14
1965.67
1960.28
1953.07
1944.09
1933.71
1922.05
1909.25
1895.5
1880.82
1865.3
1849.05
1832.18
1814.79
1796.99
1778.74
1759.98
1740.41
1719.45
1696.66
1671.89
1644.9
1614.71
1579.52
1537.37
1486.22
1426.92
1359.6
1286.2
1210.38
1135.67
1064.02
997.162
937.801
886.012
841.377
803.383
770.7
741.944
716.564
694.281
674.72
657.473
642.211
628.746
617.034
607.167
598.386
590.407
581.928
573.191
564.706
556.826
549.779
543.609
538.18
533.787
529.43
526.024
522.636
519.585
517
514.738
512.413
510.315
508.29
506.866
505.973
505.715
505.587
505.083
505.267
505.864
507.316
508.509
509.245
511.149
515.618
517.817
517.991
518.403
519.017
520.223
521.697
1965.15
1927.28
1879.39
1830.01
1782.66
1738.05
1696.31
1658.17
1624.25
1594.77
1571.04
1554.4
1545.82
1545.73
1554.66
1572.09
1597.09
1628.08
1663.17
1700.31
1737.73
1774.44
1808.84
1840.22
1868.56
1893.96
1916.64
1936.88
1954.94
1971.11
1985.64
1998.7
2010.31
2020.6
2029.65
2037.29
2043.36
2048
2050.86
2052.22
2052.32
2050.99
2048.07
2043.56
2037.54
2030.14
2021.56
2011.96
2001.43
1989.98
1977.85
1965.15
1952
1938.53
1924.72
1910.7
1896.37
1881.58
1866.07
1849.57
1831.75
1812.45
1791.21
1767.33
1739.89
1707.91
1670.5
1627.32
1578.65
1525.44
1469.32
1411.47
1352.32
1293.1
1233.52
1174.26
1116.41
1061.41
1009.43
961.422
917.294
876.682
839.332
805.221
774.087
746.051
721.277
699.561
680.444
663.771
649.137
635.456
621.803
608.309
595.798
584.315
573.963
564.896
557.095
551.318
546.345
541.694
538.466
535.003
531.48
528.794
525.853
522.925
521.512
520.808
519.356
518.073
518.037
517.916
518.312
519.277
519.972
521.336
523.806
526.524
527.315
527.665
529.11
530.563
531.479
2125.21
2088.43
2043.39
1997.31
1953.11
1911.4
1872.27
1836.95
1805.59
1778.79
1757.28
1741.86
1733.7
1732.96
1739.72
1753.38
1772.86
1796.84
1823.78
1852.06
1880.35
1907.69
1933.66
1957.27
1978.49
1997.42
2014.29
2029.36
2042.83
2054.96
2065.95
2075.9
2084.66
2092.42
2099.26
2105.06
2109.74
2113.24
2115.37
2116.04
2115.7
2114.13
2111.18
2106.89
2101.33
2094.59
2086.82
2078.17
2068.76
2058.73
2048.19
2037.23
2025.95
2014.43
2002.69
1990.7
1978.4
1965.62
1952.2
1937.99
1922.22
1905.15
1886.26
1865.05
1841.07
1813.9
1783.38
1749.38
1712.08
1671.82
1628.99
1584.1
1537.85
1490.7
1442.87
1394.69
1346.62
1298.29
1250.63
1203.61
1157.09
1111.25
1066.01
1021.71
978.873
938.026
899.662
863.645
830.509
800.641
773.484
748.792
726.557
705.894
686.095
666.554
647.6
629.452
612.752
598.466
586.953
576.477
568.055
561.393
554.916
550.379
547.192
542.891
539.586
538.406
536.698
533.832
532.455
531.913
531.826
532.044
532.561
533.562
534.663
535.902
538.183
539.474
540.815
541.83
541.902
2252.9
2213.27
2170.47
2127.82
2087.44
2049.71
2014.47
1982.38
1953.52
1928.98
1908.94
1894.93
1886.98
1884.96
1888.85
1898.48
1912.84
1930.73
1950.91
1972.18
1993.49
2014.03
2033.33
2051.19
2067.32
2081.6
2094.38
2105.94
2116.28
2125.7
2134.3
2142.13
2149.03
2155.14
2160.46
2164.92
2168.42
2171.03
2172.59
2173.04
2172.37
2170.36
2167.1
2162.66
2157.12
2150.58
2143.17
2135.05
2126.36
2117.2
2107.65
2097.79
2087.65
2077.29
2066.71
2055.84
2044.57
2032.7
2020.05
2006.38
1991.41
1975
1956.96
1937.14
1915.43
1891.16
1864.87