/*--------------------------------*- C++ -*----------------------------------*\
| =========                 |                                                 |
| \\      /  F ield         | OpenFOAM: The Open Source CFD Toolbox           |
|  \\    /   O peration     | Version:  2112                                  |
|   \\  /    A nd           | Website:  www.openfoam.com                      |
|    \\/     M anipulation  |                                                 |
\*---------------------------------------------------------------------------*/
FoamFile
{
    version     2.0;
    format      ascii;
    arch        "LSB;label=32;scalar=64";
    class       volScalarField;
    location    "0.00562";
    object      k;
}
// * * * * * * * * * * * * * * * * * * * * * * * * * * * * * * * * * * * * * //

dimensions      [0 2 -2 0 0 0 0];

internalField   nonuniform List<scalar> 
13875
(
812.1
3462.63
3540.44
3539.26
3541.68
3539.83
3541.39
3540.52
3540
3541.94
3542.27
3541.23
3540.25
3540.07
3540.43
3541.35
3541.77
3541.06
3540.65
3540.15
3541.11
3539.04
3540.17
3461.36
820.341
881.794
2936.62
3013.08
3000.61
3001.44
2998.59
2997.88
2996.98
2996.24
2996.53
2996.34
2998.17
2996.28
2996.36
2996.22
2998.58
2996.06
2997.06
2997.08
2998.68
3000.44
2999.29
3011.67
2933.98
894.4
993.359
2710.84
2777.49
2755.34
2759.24
2755.85
2747.44
2743.95
2742.79
2742.08
2740.37
2743.72
2751.2
2752.2
2750.93
2744.64
2740.98
2742.95
2745.66
2755.4
2757.72
2753.16
2774.5
2706.47
998.367
1091.05
2533.67
2581
2561.54
2567.08
2563.54
2553.46
2549.06
2548.33
2548.23
2545.98
2547.51
2559.11
2560.08
2558.9
2548.62
2547.09
2547.91
2551.52
2562.99
2565.52
2559.38
2579.1
2529.37
1093.98
1172.09
2380.44
2413.15
2392.91
2398.3
2394.84
2383.91
2380.15
2380.19
2380.08
2377.89
2378.61
2390.13
2391.52
2389.95
2379.69
2378.98
2379.45
2382.65
2394.19
2396.84
2391.15
2410.42
2375.51
1177.61
1240.99
2237.08
2270.88
2244.92
2251.45
2246.66
2234.07
2231.01
2231.45
2231.19
2229.03
2229.14
2240.73
2242.43
2240.59
2230.17
2230.32
2230.39
2233.36
2245.81
2250.02
2243.68
2267.79
2247.4
1247.36
1320.98
2121.77
2158.28
2120.33
2123.3
2116.65
2101.72
2098.81
2099.36
2098.83
2096.75
2096.3
2108.07
2109.83
2107.66
2097.27
2098.5
2098.24
2101.75
2115.58
2121.92
2119.75
2154
2095.8
1323.37
1409.78
2000.64
2073.46
2019.51
2016.39
2003.82
1985.61
1981.85
1982.16
1981.14
1979.28
1977.95
1990.05
1992.13
1989.56
1978.93
1981.51
1981.23
1985.68
2002.11
2014.06
2017.81
2068.17
1992.79
1420.07
1691.47
2029.45
2022.02
1944.49
1925.18
1906.08
1883.5
1878.86
1879
1877.3
1875.8
1873.64
1886.03
1888.49
1885.65
1874.96
1878.44
1878.15
1883.63
1903.76
1922.81
1942.31
2017.92
2033.55
1716.4
2509
2285.11
2017.77
1900.66
1859.57
1827.5
1802.52
1797.2
1796.22
1793.8
1792.65
1790.19
1802.1
1804.97
1802.14
1792.72
1795.76
1796.43
1802.15
1825
1855.8
1892.46
2011.06
2265.24
2528.54
3877.33
3027.49
2154.77
1917.81
1818.09
1773.77
1746.81
1737.79
1734.47
1731.08
1730.1
1727.6
1738.41
1741.63
1739.74
1732.84
1734.99
1737.28
1746.43
1770.69
1814.59
1908.19
2130.4
2937.06
3858.11
5185.52
6456.88
2854.12
1994.87
1858.33
1761.72
1716.94
1702.09
1694.71
1690.07
1688.88
1686.8
1695.53
1699.07
1698.71
1694.59
1696.55
1702.15
1715.03
1759.91
1847.4
1971.82
2784.85
6322.51
5119.08
5057.04
7615.56
7057.96
3347.94
2051.43
1803.85
1751.33
1709.9
1693.27
1684.37
1681.47
1679.14
1685.3
1689.07
1690.87
1690.94
1697.56
1712.88
1752.78
1815.17
2094.9
3232.43
6753.18
7637.65
5009.53
4825.14
6352.96
7189.43
8830.47
5181.52
2371.86
1922.67
1814.46
1771.18
1761.48
1759.37
1758.22
1763.29
1766.62
1769.14
1769.9
1776.96
1813.59
1949
2472.46
5685.1
8147.46
6959.72
6328.2
4830.17
4606.43
5526.44
6069.36
7074.1
6768.36
6869.18
3623
2489.35
2251.72
2112.75
2072.99
2054.81
2057.18
2062.6
2074.21
2106.8
2210.79
2465.98
3515.96
6878.03
6951.11
6720.27
5966.59
5491.34
4682.65
4307.77
4820.69
5182.78
6004
6088.53
6642.28
5723.38
5006.48
5268.06
4820.63
4692.92
4747.74
4811.96
4785.3
4713.57
4660.68
5351.63
5277.02
5699.87
6770.22
6150.68
5779.74
5093.81
4781.06
4370.92
3766.63
4096.23
4438.44
5239.02
5726.45
6666.88
7733.64
9179.47
7801.29
6574.34
6589.06
6819.79
6913.45
6899.4
6724.69
6513.71
7508.93
9151.19
8192.04
6812.19
5777.54
5133.93
4313.01
3991.33
3744.75
3105.93
3469.37
4137.61
5128.11
5739.59
6424.43
7789.62
9362.27
6760.81
5376.1
5218.52
5307.28
5392.71
5366.58
5293.11
5422.18
6564.47
8707.67
8031.18
6597.98
5913.1
5219.05
4109.33
3394.03
3060.51
2659.39
3260.29
4190.87
5655.68
6237.54
5842.91
6421.53
7556.78
6407.31
5134.88
4666.17
4558.21
4577.81
4607.67
4696.2
5040.49
6072.91
7216.96
6600.61
5935.24
6475.59
5914.34
4259.8
3277.23
2655.04
2544.69
3408.85
4525.21
5798.08
5851.52
5238.98
5390.96
6240.63
5962.15
5007.81
4342.51
4032.14
3976.32
4088.35
4376.57
4903.63
5683.46
6047.45
5498.35
5332.17
5990.28
5930.42
4668.71
3533.58
2553.27
3441.24
6585.43
5288.98
4963.87
5030.58
4598.12
4665.96
5371.72
5447.61
4736.85
4007.63
3584.94
3490.56
3664.8
4068.5
4652.29
5227.25
5257.24
4757.44
4701.78
5142.41
5076.2
5591.71
6620.65
2959.75
8959.28
17616.4
6231.26
4274.31
4362.99
4062.85
4131.56
4740.81
4939.27
4367.81
3651.41
3192.38
3075.01
3272.75
3708.27
4281.87
4753.46
4677.23
4221.97
4155.71
4440.07
4378.8
6860.18
18010.9
8561.08
11177.5
14429.3
5677.8
3797.37
3828.69
3635.5
3699.43
4232.22
4458.9
3971.26
3299.42
2847.61
2717.76
2909.19
3333.05
3873.38
4293.32
4193.68
3781.67
3712.88
3870.6
3870.32
6077.23
17304.9
11895.1
10768.7
12419.6
4882.78
3437.16
3399.87
3274.22
3330.07
3795.17
4018.79
3567.97
2947.13
2534.11
2414.68
2594.6
2987.79
3484.11
3877.83
3763.82
3400.3
3353.38
3444.37
3494.8
5137.08
13251.9
11834.8
10413.6
10763.8
4288.8
3168.36
3064.69
2967.12
3030.26
3423.27
3621.65
3211.41
2644.64
2269.33
2160.15
2324.08
2685.18
3139.14
3498.68
3393.74
3082.75
3042.08
3111.92
3218.02
4472.81
11605.6
11353.8
10051.1
9956.54
3844.86
2937.42
2796.9
2709.48
2779.56
3108.99
3265.61
2891.16
2383.64
2045.07
1944.88
2091.76
2414.88
2818.23
3145.66
3072.81
2814.48
2768.96
2837.77
2979.59
3943.37
10204.5
10769.5
9673.57
9239.43
3483.6
2729.8
2577.05
2491.71
2571.1
2836.35
2937.69
2596.26
2148
1851.2
1762.24
1896.78
2187.75
2547.36
2843.7
2802.06
2589.55
2540.87
2621.06
2777.81
3591.76
9522.13
10383.7
9425.01
8777.48
3234.24
2547.19
2397.34
2315.21
2389.79
2602.13
2656.07
2343.76
1950.51
1687.4
1606.59
1727.98
1986.08
2301.72
2568.73
2562.45
2397.64
2351.15
2435.74
2589.67
3319.23
9008.26
10041.6
9289.78
8441.96
3052.09
2389.91
2243.42
2171.02
2235.18
2396.76
2410.86
2127.66
1780.65
1546.52
1472.77
1580.98
1808.1
2085.9
2325.45
2350.31
2231.85
2193.44
2275.63
2425.76
3100.04
8464.48
9760.35
9061.28
8012.01
2901.79
2248.12
2106.4
2050.68
2100.33
2210.3
2183.45
1925.73
1626.22
1422.37
1357.29
1457.75
1661.18
1906.33
2121.34
2167.94
2088.65
2064.84
2135.48
2286.06
2964.19
8259.24
9628.65
8806.5
7652.91
2807.1
2135.34
1986.81
1940.97
1979.96
2048.84
1995.24
1761.93
1497.42
1315.87
1256.88
1347.66
1527.48
1744.96
1938.52
2004.6
1962.49
1948.4
2009.13
2168.77
2862.81
7965.68
9356.01
8587.12
7327.49
2733.8
2050.61
1887.23
1842.04
1870.88
1906.8
1834.82
1620.99
1386.42
1223.46
1169.51
1251.98
1411.5
1605.28
1780.89
1860.81
1848.68
1843.04
1904.13
2080.02
2789.14
7566.81
9023.54
8282.67
6919.3
2663.08
1989.49
1798.23
1751.39
1769.77
1778.19
1687.41
1494.23
1286.11
1141.03
1092.89
1169.24
1313.18
1488.47
1647.35
1736.1
1745.09
1746.71
1810.4
2015.34
2742.46
7242.15
8734.88
8062.66
6619.29
2652.63
1953.97
1727.12
1671.82
1675.8
1664.98
1564.47
1387.29
1200.64
1069.77
1025.43
1095.18
1223.99
1381.45
1526.53
1622.16
1647.54
1661.8
1731.23
1973.65
2721.85
6858.91
8429.78
7886.9
6362.95
2625.37
1939.86
1681.2
1596.21
1588.81
1564.8
1456.68
1295.33
1125.92
1006.59
965.71
1029.55
1145.99
1289.26
1421.79
1521.26
1557.3
1581.83
1678.81
1955.11
2683.47
6508.62
8207.88
7645.08
6013.48
2533.26
1945.88
1653.38
1532.32
1508.53
1469.54
1359.61
1210.49
1056.95
949.81
912.702
972.448
1078.5
1209.62
1332.1
1431.03
1476.4
1513.16
1642.87
1956.72
2605.27
6290.22
8023.16
7446.86
5744.63
2445.62
1976.59
1642.88
1479.35
1436.68
1384.27
1275.34
1139.53
998.156
899.681
864.956
920.135
1016.75
1137.77
1249.6
1346.48
1403.24
1456.31
1625.84
1972.2
2507.83
5998.65
7756.59
7284.21
5504.59
2388.23
2023.43
1656.34
1441.38
1374.27
1308.66
1202.3
1075.56
945.275
854.682
822.384
873.535
961.919
1073.19
1177.29
1271.85
1339.01
1413.48
1628.13
2026.81
2436.36
5787.07
7529.21
7085.06
5254.52
2276.89
2008.15
1683.71
1417.24
1320.84
1240.18
1135.09
1016.6
896.629
813.594
783.638
832.112
914.286
1017.64
1114.33
1206.39
1285.96
1384.82
1656.5
2043.85
2372.4
5584.42
7341.98
6924.85
5048.2
2170.1
1961.17
1746.42
1407.49
1281.13
1182.88
1077.69
965.235
853.958
777.032
748.934
793.86
869.616
965.404
1057.94
1149.64
1243.92
1371.21
1695.3
1987.62
2247.39
5348.19
7164.34
6808.26
4887.73
2082.62
1893.76
1809.11
1421.17
1253.08
1136.96
1028.38
919.717
815.315
743.802
717.033
759.173
829.414
919.353
1009.24
1103
1214.02
1378.73
1785.74
1917.71
2127.14
5170.85
7020.34
6687.78
4722.27
1981.98
1811.09
1812.71
1459.4
1234.63
1101.44
986.042
878.122
779.528
713.301
688.433
728.467
794.367
879.839
969.344
1070.42
1194.53
1417.4
1823.15
1838.65
2052.99
5045.74
6910.17
6595.56
4576.98
1908.1
1724.8
1753.13
1546.68
1238.2
1076.18
953.215
843.662
748.444
685.779
661.914
699.864
761.801
845.079
937.971
1045.32
1188.39
1492.45
1769.44
1746.14
1959.07
4898.73
6767.98
6523.12
4454.56
1876.49
1645.53
1678.61
1591.9
1277.17
1059.21
929.739
816.094
721.675
661.354
638.288
674.498
733.957
816.611
915.372
1028.72
1214.82
1563.19
1694.62
1661.16
1883.69
4762.34
6659.85
6428.8
4325.59
1804.59
1571.49
1594.57
1557.22
1354.34
1058.46
911.107
795.55
699.299
639.993
617.672
652.921
711.541
796.835
897.708
1029.31
1289.11
1556.36
1608.02
1590.87
1858.5
4634.14
6572.88
6352.41
4202.59
1782.21
1508.98
1511.44
1498.03
1423.39
1105.16
901.783
779.912
683.443
623.363
599.65
635.508
694.906
780.937
886.158
1062.51
1387.76
1500.19
1524.12
1523.78
1810.72
4493.74
6486.17
6277.51
4096.21
1780.51
1459.29
1441.89
1434.16
1409.08
1205.73
914.909
767.611
671.584
611.173
586.288
622.947
682.612
768.038
892.757
1168.52
1419.63
1438.69
1453.46
1469.42
1788.21
4352.56
6397.06
6154.11
3961.51
1746.92
1413.95
1381.9
1368.96
1359.64
1285.54
976.812
761.78
661.189
602.033
577.533
613.851
672.63
762.771
958.199
1264.27
1367.15
1374.72
1393.41
1429.54
1798.18
4204.15
6251.81
5954.56
3808.61
1723.48
1374.94
1330.21
1309.61
1308.15
1277.26
1098.72
787.518
654.878
593.141
569.272
604.481
665.563
782.566
1078.76
1267.56
1311.25
1314.98
1340.78
1391.4
1771.83
4017.19
6038.51
5468.49
3566.4
1690.87
1338.07
1286.3
1259.81
1254.13
1234.88
1174.94
874.588
661.972
588.555
563.439
599.195
668.854
863.162
1164.28
1226.48
1253.41
1264.17
1296.73
1354.77
1728.84
3733.23
5550.93
666.55
935.267
1153.5
1258.13
1317.45
1306.95
1270.73
1233.69
1233.7
1266.75
1316.46
1360
1403.26
1421.92
1359.43
1197.81
1112.73
1054.08
1005.88
985.44
971.374
958.071
946.393
933.105
911.955
876.217
815.278
719.942
586.382
426.22
721.787
986.807
1209.91
1306.46
1379.41
1369.93
1320.54
1264.59
1244.16
1263.85
1307.83
1356.16
1403.01
1433.59
1397.09
1236.2
1133.27
1068.84
1012.7
979.826
963.031
946.53
932.532
917.531
895.353
859.797
798.868
703.746
572.344
421.227
773.707
1049.97
1299.54
1393.8
1476.88
1459.48
1393.82
1313.94
1261.57
1257.07
1289.63
1336.09
1380.11
1410.64
1386.11
1253.3
1144.63
1074.92
1012.42
968.263
949.48
930.704
915.292
898.689
874.843
838.645
777.97
683.913
556.689
416.442
832.526
1119.16
1427.94
1539.93
1647.51
1619.84
1531.07
1406.32
1305.58
1263.28
1273.29
1313.66
1357.35
1391.34
1375.81
1276.32
1163.35
1084.99
1013.87
961.946
934.834
913.815
896.986
878.714
853.214
815.825
755.266
662.415
539.821
409.421
881.888
1194.81
1627.36
1784.78
1956.83
1919.47
1777.74
1570.44
1392.49
1287.95
1259.09
1284.5
1324.88
1359.91
1353.25
1286.22
1178.77
1096.69
1016.49
955.813
917.632
895.198
876.991
856.893
829.729
790.652
730.256
640.078
523.181
402.917
932.035
1299.58
1953.83
2223.6
2504.35
2432.91
2214.49
1860.54
1550.8
1347.81
1258.32
1255.43
1288.83
1323.47
1326.81
1281.02
1191.02
1110.62
1024.18
950.374
903.2
875.878
855.922
833.896
804.96
764.172
704.377
618.561
508.236
398.028
983.328
1458.87
2490.27
2990.99
3466.14
3335.31
2986.65
2360.51
1823.24
1459.91
1279.7
1232.48
1250.24
1281.6
1294.42
1266.88
1188.87
1123.38
1037.16
948.263
890.392
857.306
834.741
811.195
780.756
739.001
679.911
597.246
493.806
394.416
1043.88
1714.79
3340.11
4144.98
4496.84
4288.25
3932.48
3169.96
2262.81
1654.84
1337.12
1222.82
1214.64
1237.88
1255.5
1238.47
1178.11
1137.44
1053.77
953.364
878.54
839.639
815.224
790.404
758.635
715.206
656.768
573.293
472.937
381.441
1122.37
2141.76
4452.81
5010.14
5007.98
4683.09
4409.54
3905.91
2837.14
1933.81
1437.29
1230.6
1184.25
1194.19
1209.97
1204.51
1160.21
1126.54
1075.43
965.373
869.891
822.237
795.982
770.381
737.266
689.539
623.983
539.626
445.932
365.298
1231.08
2813.26
5401.83
5513.13
5113.12
4608.69
4433.71
4174.76
3323.79
2244.06
1574.1
1258.46
1163.12
1155.99
1164.99
1165.79
1136.41
1102.06
1097.18
988.146
867.002
800.662
769.679
739.707
700.905
649.736
585.838
508.129
423.843
353.065
1382.69
3759.98
6267.26
5884.53
5086.04
4411.78
4256.68
4185.8
3505.39
2478.45
1706.65
1298.39
1149.65
1121.5
1121.4
1125.33
1109.57
1072.39
1083.92
1036.44
871.581
780.241
735.664
702.787
663.542
615.175
556.427
485.329
408.209
344.453
1593.53
4940.78
7080.41
6227.13
5087.6
4251.58
4029.22
4143.44
3513.25
2609.88
1789.67
1330.44
1137.99
1088.58
1080.46
1087.19
1084.11
1044.27
1059.68
1073.97
901.729
765.022
708.228
670.852
633.539
587.548
532.02
465.649
394.586
336.698
1882.1
6169.45
7845.41
6552.24
5097.98
4110.75
3765.49
4003.75
3459.41
2629.33
1810.07
1331.63
1119.51
1056.9
1044.26
1054.29
1061.34
1022.38
1036.12
1066.63
980.32
768.674
686.376
644.314
606.964
562.704
509.987
447.957
382.217
329.6
2249.43
7346.68
8618.06
6846.38
5111.46
4020.35
3585.6
3817.09
3366.89
2553.44
1774.5
1298.88
1091.06
1025.5
1013.62
1027.77
1043.18
1007.33
1019.37
1050.27
1059.2
816.475
673.396
622.433
582.173
540.056
490.024
431.95
371.13
323.131
2675.95
8565.35
9385.64
7051.55
5141.01
3992.17
3492.52
3638
3269.43
2422.9
1689.61
1252.62
1060.02
996.929
988.535
1006.64
1031.37
1000.13
1009.68
1038.62
1066.21
945.027
686.782
604.486
561.529
519.414
471.964
417.525
361.29
317.251
3169.73
9862.04
10136.2
7251.97
5190.98
3996.94
3438.39
3432.64
3156.77
2292.52
1593.28
1201.91
1028.12
973.172
971.177
996.081
1030.39
1000.41
1005.72
1031.83
1055.39
1050.55
765.517
597.958
544.186
500.226
455.753
404.663
352.615
311.882
3760.05
11270.5
10877.7
7495.13
5311.44
4021.21
3413.69
3242.76
2906.87
2186.36
1508.57
1156.44
1007.01
961.928
964.713
994.438
1038.36
1009.54
1007.56
1027.94
1045.63
1060.94
945.869
629.688
531.119
484.397
440.922
393.052
344.712
306.843
4499.56
12775.3
11623.6
7815.62
5478.93
4103.49
3450.33
3121.58
2686.74
2066.29
1481.38
1139.75
1008.34
960.09
967.77
1001.67
1043.39
1025.22
1015.86
1027.03
1038.38
1047.48
1032.77
756.412
535.525
471.734
426.489
381.933
337.279
301.865
5319.31
14320.6
12423.5
8257.97
5695.17
4261.31
3559.13
3091.33
2573.97
1971.33
1474.72
1166.77
1030.73
980.069
988.259
1020.04
1053.75
1047.44
1031.99
1029.95
1031.66
1031.48
1030.38
945.291
596.621
466.139
415.832
369.872
329.552
296.185
6208.66
15986.2
13315.9
8816.93
6022.75
4520.35
3743.87
3160.28
2554.72
1920.89
1480.11
1229.1
1082.51
1031.01
1027.27
1044.72
1056.8
1050.28
1050.47
1035
1023.83
1014.63
1006.8
982.317
766.41
486.933
408.614
361.197
320.713
289.627
7630.72
17501.9
14258.5
9559.93
6531.2
4909.08
4042.92
3364.36
2664.8
1975.04
1547.36
1310.16
1167.47
1089.65
1068.71
1070.26
1052.22
1043.44
1046.07
1036.71
1015.32
996.62
982.144
963.169
888.012
571.229
410.978
354.934
314.859
283.241
8707.16
19283
15495.1
10624.2
7293.69
5459.95
4479.81
3737.25
2965.63
2180.65
1680.7
1407.94
1260.61
1150.69
1111.29
1082.01
1046.83
1031.83
1032.7
1022.59
1005.07
978.936
957.691
934.947
895.873
732.634
441.778
351.955
311.007
279.913
9844.76
20242.1
16812.2
12074.5
8383.33
6216.84
5024.58
4239.69
3454.5
2560.29
1902.69
1549.39
1353.08
1222.22
1146.04
1089.51
1045.17
1022.78
1015.36
1003.9
987.107
961.142
935.62
908.428
874.748
802.94
535.005
359.131
307.904
277.716
10616.1
21844.9
18696.4
14191.4
10013
7290.76
5712.29
4829.82
4057.91
3111.73
2260.47
1749.69
1457.9
1291.85
1164.41
1098.31
1047.98
1020.14
1001.27
986.453
966.693
942.731
915.958
887.33
852.088
807.218
675.489
398.232
308.222
275.975
10751.7
21745.8
21965.2
17602.9
12404.8
8793.07
6661.72
5530.62
4731.01
3818.49
2813.33
2057.22
1603.99
1364.6
1202.18
1109.67
1056.11
1024.48
994.812
974.348
951.927
929.476
900.244
869.231
833.517
793.454
722.67
499.995
321.711
275.668
428.014
589
722.549
816.789
876.278
911.268
932.43
945.957
957.806
970.49
984.287
1006.35
1056.36
1117.18
1211.68
1375.82
1416.28
1393.47
1349.69
1302.92
1253.87
1225.14
1230.4
1268.74
1305.08
1313.9
1252.78
1152.67
932.202
670.938
422.924
574.825
706.108
800.092
859.567
894.71
917.086
932.52
946.663
962.178
978.922
1014.6
1072.02
1139.93
1254.26
1400
1424.79
1391.74
1344.19
1294.89
1252.62
1239.41
1267.99
1324.98
1372.17
1378.08
1305.26
1210.16
984.782
725.801
418.053
558.967
686.112
778.989
838.323
874.473
898.308
915.425
931.084
948.889
968.301
1015.05
1078.96
1152.39
1269.83
1385.6
1401.74
1369.18
1324.41
1277.23
1249.15
1261.69
1323.12
1404.19
1470.28
1487.36
1398.02
1304.91
1049.17
778.895
410.904
541.948
664.508
756.207
815.55
853.108
878.433
897.14
914.42
934.765
963.048
1017.48
1090.37
1172.28
1289.42
1372.56
1382.16
1346.34
1301.94
1263.16
1260.71
1313.58
1426.47
1559.64
1653.29
1672.64
1553.49
1441.12
1119.71
838.061
404.155
525.016
641.9
731.116
790.588
829.836
856.75
877.124
895.987
918.144
957.661
1021.32
1103.28
1187.7
1295.07
1349.05
1350.43
1314.94
1274.32
1253.02
1293.99
1413.9
1611.09
1839.5
1977.74
2001.97
1819.96
1653.16
1200.06
888.226
399.019
509.767
620.047
705.114
764.329
805.172
833.889
856.141
876.881
904.793
953.165
1030.36
1117.56
1198.77
1288.96
1322.65
1314.18
1279.51
1248.05
1259.53
1366.44
1594.85
1935.13
2322
2539.12
2593.74
2295.41
1999.1
1312.16
938.344
395.331
495.058
598.516
680.579
739.134
780.856
811.069
834.847
858.101
892.543
952.547
1044.11
1130.72
1197.26
1266.7
1289.87
1273.38
1242.67
1229.66
1291.26
1498.76
1903.71
2495.57
3176.35
3511.18
3625.34
3117.17
2564.61
1483.9
990.654
382.12
474.128
574.695
657.281
715.204
758.382
790.018
815.242
840.474
881.277
959.132
1060.79
1142.26
1186.05
1237.98
1250.02
1231.09
1209.6
1226.4
1363.35
1723.18
2397.46
3381.45
4102.14
4417.1
4628.27
4279.88
3443.84
1757.81
1052.9
365.796
447.122
540.942
624.96
689.697
736.485
769.116
795.288
822.99
873.525
971.978
1081.77
1127.91
1166.87
1202.26
1205.17
1189.61
1182.68
1242.57
1482.66
2035.06
3010.57
4061.77
4512.62
4746.52
5101.04
5115
4556.01
2210.64
1135.28
353.643
425.228
509.677
587.211
650.587
701.264
739.29
769.235
801.929
871.704
994.725
1097.04
1101.99
1141.4
1162.92
1161.47
1153.91
1166.58
1280.61
1638.67
2367.5
3482.39
4284.98
4489.51
4655.54
5200.89
5627.47
5505.79
2911.51
1249.19
344.87
409.43
486.826
558.069
616.592
664.75
703.695
736.536
782.695
877.333
1041.05
1081.05
1071.84
1113.09
1122.58
1119.68
1122.04
1158.41
1331.93
1783.26
2608.93
3623.67
4260.68
4270.45
4485.83
5194.8
6030.43
6387.32
3883.1
1408.21
336.95
395.589
466.894
533.467
588.922
634.855
672.111
709.749
768.632
908.278
1069.55
1055.31
1045.12
1085.83
1085.14
1080.35
1091.55
1151.39
1370.57
1869.27
2734.08
3624.04
4206.67
4043.43
4331.75
5211.37
6407.6
7222.91
5078.42
1631.33
329.73
383.041
448.987
511.239
563.975
608.245
645.699
688.366
773.516
983.795
1058.63
1030.12
1023.28
1060.37
1052
1045.09
1061.62
1135.9
1375.41
1894.18
2739.69
3574.16
4053.96
3795.31
4195.56
5227.68
6760.42
8033.71
6285.37
1938.82
323.185
371.827
432.84
491.129
541.248
583.48
623.921
676.014
821.438
1051.49
1040.85
1012.65
1007.08
1039.99
1024.68
1014.67
1031.04
1107.67
1342.52
1856.94
2656.2
3487.42
3853.52
3628.51
4110
5244.23
7067.72
8845.58
7467.73
2315.59
317.263
361.883
418.271
472.918
520.521
562.847
606.127
689.898
944.087
1054.32
1028.16
1001.59
998.538
1027.57
1003.29
989.286
1002.1
1075.49
1292.01
1766.67
2523.49
3390.79
3662.42
3548.39
4085.45
5276.56
7276.9
9644.35
8700.71
2748.31
311.886
353.125
405.255
456.516
501.244
545.446
599.865
766.932
1039.38
1042.28
1020.28
996.176
997.605
1025.12
991.198
970.438
977.505
1041.21
1233.51
1660.09
2392.37
3257.12
3471.47
3504.29
4098.23
5336.34
7490.42
10427.8
10022.4
3246.37
306.821
345.073
393.493
441.491
485.305
532.397
631.311
939.312
1046.82
1031.96
1015.02
996.747
1006.89
1033.12
988.717
962.34
964.035
1018.76
1180.49
1561.64
2281.11
2993.28
3310
3487.32
4132.32
5465.8
7758.64
11208.8
11455.2
3836.73
301.743
337.31
382.171
426.98
472.543
536.902
754.523
1020.43
1033.09
1024.45
1013.87
1004.99
1024.4
1037.55
994.519
963.595
959.713
1016.4
1159.54
1521.78
2138.72
2766.35
3197.79
3529.02
4216.79
5645.24
8100.91
11997.8
12983.1
4570.6
295.872
329.141
370.073
416.264
466.977
597.121
935.245
1016.86
1017.43
1017.79
1017.6
1022.06
1042.54
1047.32
1012.91
981.808
977.872
1034.02
1186.23
1507.15
2025.13
2646.93
3172.21
3643.24
4374.14
5872.92
8566.12
12840.3
14559.5
5384.98
289.033
320.045
361.452
409.118
487.892
762.289
969.827
993.264
1001.36
1011.15
1027.62
1041.35
1042.95
1053.47
1038.88
1022.87
1029.15
1084.08
1240.79
1508.01
1970.39
2628.11
3245.67
3831.22
4635.18
6204.93
9150.45
13778.2
16269.7
6257.46
282.852
314.603
355.352
411.983
572.058
880.22
951.591
969.37
984.847
1005.86
1029.41
1037.9
1037.08
1049.37
1065.55
1064.92
1090.36
1171.63
1315.62
1568.55
2025.53
2739.3
3444.42
4133.58
5030.6
6723.5
9915.53
14761.4
17823.8
7716.13
279.606
311.232
352.819
443.87
730.46
887.587
924.899
946.331
969.162
997.764
1015.5
1025.68
1027.33
1043.95
1080.77
1106.44
1153.44
1268.56
1419.54
1706.61
2239.68
3044.94
3822.95
4573.66
5597.57
7508.34
11000.3
16032.2
19635.5
8772.69
277.406
308.182
360.579
538.109
796.998
866.685
900.26
925.865
952.308
978.983
995.949
1009.6
1018.57
1041.16
1090.3
1145.96
1219.94
1360.69
1570.05
1944.55
2635.54
3547.98
4342.03
5134.79
6376.42
8630.23
12473.4
17347.7
20633.7
9892.15
275.584
308.303
401.061
675.261
800.37
844.704
879.742
907.878
936.823
961.208
978.705
996.616
1016.3
1044.46
1100.92
1173.8
1291.53
1466.24
1779.31
2325.31
3209.48
4165
4948.91
5854.5
7487.73
10292.9
14632.6
19210.4
22182.1
10648.9
275.236
322.552
505.815
719.136
786.756
826.895
862.357
893.563
924.132
948.317
968.735
989.956
1020.81
1055.21
1118.62
1210.38
1374.84
1623.77
2105.99
2902.55
3932.99
4848.36
5672.27
6829.05
9023.62
12758.9
18123.7
22415.4
22030.8
10761.1
1352.98
1329.59
1290.78
1253.45
1216.18
1178.71
1141.25
1103.98
1068.05
1032.98
999.474
967.132
936.319
906.813
878.97
852.63
828.526
805.936
785.05
765.881
747.921
731.689
716.753
703.195
691.217
680.411
671.119
663.152
658.456
661.893
672.073
690.645
722.911
770.41
833.149
908.978
995.894
1091.99
1194.36
1295.68
1397.16
1488.47
1568.47
1637.48
1699.31
1758.8
1826.29
1884.28
1885.01
1807.16
1700.98
1596.42
1509.53
1436.55
1355.62
1266.91
1174.54
1087.01
1011.04
948.781
903.552
875.477
854.219
837.997
825.265
815.694
807.283
798.917
787.62
778.298
770.671
764.103
758.683
754.776
751.91
749.231
746.478
743.611
740.63
737.876
735.621
733.762
732.078
730.31
727.863
724.117
719.037
713.16
707.1
701.231
695.735
690.751
686.291
682.129
677.888
673.173
667.721
661.496
654.887
648.223
641.596
635.244
629.546
624.203
618.569
613.393
608.675
605.364
605.3
607.861
612.262
617.302
622.743
629.049
636.928
648.544
651.403
650.121
634.245
569.533
490.763
410.373
335.277
295.256
279.598
1087.14
1079.51
1051.82
1032.78
1012.07
992.446
972.947
953.297
934.111
917.74
903.084
890.255
879.195
869.928
862.082
856.178
852.095
850.495
850.223
854.144
862.187
873.636
892.5
915.646
947.259
985.95
1032.92
1090.2
1170.04
1276.15
1417.59
1603.13
1830.76
2089.04
2373.91
2669.22
2978.49
3279.84
3571.83
3834.19
4073.2
4287.82
4475.79
4631.47
4746.44
4825.77
4883.19
4920.41
4916.03
4833.53
4598.3
4289.95
3980.34
3685.72
3365.12
3033.88
2735.85
2464.8
2210
1991.77
1806.23
1648.78
1518.25
1413
1332.75
1275.37
1230.82
1195.22
1166.52
1144.64
1128.62
1116.12
1106.52
1100.6
1097
1093.27
1088.08
1081.08
1071.85
1060.25
1046.94
1032.66
1017.68
1002.45
987.16
971.869
956.592
941.31
925.801
909.983
893.964
877.951
862.088
846.355
830.768
815.714
801.763
789.157
777.787
767.838
759.674
754.343
752.708
754.814
758.83
763.918
769.519
776.36
784.795
799.2
814.532
831.758
846.726
848.906
815.172
777.084
735.569
693.933
657.139
627.844
609.785
595.687
568.373
478.801
372.583
1143.11
1148.68
1131.11
1122.5
1110.97
1101.8
1092.79
1084.5
1075.48
1069.56
1066.04
1063.76
1066.47
1073
1083.84
1101.96
1123.15
1156.68
1190.98
1240.4
1301.17
1373.91
1470.8
1585.43
1731.14
1899.44
2095.64
2335.57
2629.49
2970.49
3337.77
3739.94
4131.21
4501.71
4856.71
5186.35
5491.92
5789.72
6074.07
6337.07
6572.27
6793.84
7002.05
7192.56
7362
7503.07
7595.98
7604.65
7580.56
7539.53
7455.58
7238.66
6914.43
6520.34
6012.78
5392.3
4791.18
4242.7
3732.89
3298.98
2931.04
2618.73
2357.19
2137
1957.22
1807.25
1682.17
1583.44
1509.91
1457.7
1419.44
1390.51
1369.35
1355.01
1344.37
1333.96
1321.21
1306.06
1288.79
1269.39
1247.81
1224.44
1199.84
1174.43
1149.4
1125.6
1103.08
1081.54
1060.89
1040.97
1021.6
1002.65
984.311
967.057
951.536
938.253
927.644
920.419
916.463
914.824
914.43
914.629
915.44
917.98
923.464
932.616
944.488
957.923
967.506
963.59
933.881
893.952
843.139
790.774
743.993
706.961
680.834
662.863
650.001
643.959
639.747
644.651
651.567
648.951
615.671
1284.65
1309.77
1303.51
1308.61
1307.12
1314.28
1321.52
1331.47
1342.86
1363.12
1392.19
1426
1475.45
1531.49
1602.41
1687.81
1780.89
1905.11
2026.78
2182.1
2356.88
2549.03
2762.82
2984.45
3239.61
3547.44
3917.48
4295.8
4645.05
4959.94
5224.68
5444.67
5644.9
5827.7
5995.87
6172.52
6355.68
6551.25
6769.64
7010.67
7265.25
7531.48
7789.42
8046.59
8309.79
8548.24
8759.17
8815.92
8707.99
8520.92
8327.83
8153.82
8026.24
7924.48
7746.99
7390.7
6889.35
6303.89
5604.29
4923.1
4354.6
3874.03
3462.77
3111.34
2817.68
2569.53
2359.28
2191.82
2072.93
1989.42
1928.43
1887.4
1862.92
1849.44
1837.58
1819.24
1790.73
1752.27
1705.81
1654.23
1601.23
1549.11
1498.63
1449.53
1402.8
1358.53
1315.56
1273.59
1233.4
1195.89
1161.51
1130.53
1103.05
1078.96
1058.43
1041.82
1029.39
1020.86
1016.29
1015.57
1017.69
1021.98
1026.17
1024.61
1017.39
1000.27
970.94
932.378
887.667
840.777
797.344
760.778
732.318
711.863
698.031
690.509
686.17
684.708
681.113
678.385
681.703
688.93
699.74
711.847
722.142
1595.48
1672.3
1704.74
1756.58
1783.1
1826.59
1883.41
1952.34
2023.06
2103.38
2199.64
2303.77
2438.71
2576.75
2737.17
2909.54
3091.97
3308.42
3506.39
3708.4
3915.05
4116.6
4316.62
4514.56
4707.76
4877.19
5017.23
5137.69
5225.92
5294.88
5361.24
5433.3
5535.41
5683.04
5895.12
6193.03
6586.04
7073.63
7651.62
8309.37
9017.32
9720.57
10388.1
10985.5
11463.7
11812.5
12009.9
11934.1
11573
10978.7
10273.5
9564.17
8935.53
8431
8049.81
7710.47
7407.95
7139.43
6818
6286.73
5625.11
5030.85
4550.38
4153.54
3826.77
3555.58
3331.29
3158.77
3061.11
3033.06
3055.54
3100.23
3156.15
3199.39
3214.81
3185.54
3110.74
2997.06
2857.38
2701.63
2538.84
2377.98
2225.68
2085.74
1958.37
1842.75
1737.2
1640.21
1551.7
1472.27
1402.62
1342.55
1291.18
1247.75
1212.02
1183.76
1161.96
1144.97
1130.9
1116.81
1098.92
1073.46
1040.01
999.259
952.11
902.892
857.376
817.554
785.074
760.715
742.687
729.922
721.125
716.135
713.221
711.625
713.228
712.792
715.61
720.406
726.475
734.686
745.791
758.617
772.268
2457.77
2640.86
2741.18
2905.66
3027.91
3150.04
3271.87
3433.03
3611.17
3785.6
3932.37
4070.74
4204.63
4314.62
4434.59
4520.08
4608.35
4697.11
4775.82
4831.92
4870.03
4901.62
4937.32
4967.2
4977.49
4982.71
4986.65
4999.48
5035.8
5116.51
5271.33
5539.3
5965.26
6587.45
7432.08
8517.25
9829.95
11332.1
12971.8
14679.9
16382
18019.3
19487.8
20642
21406.4
21860.5
21838.6
21288.9
20214.3
18745.2
17048.7
15294.6
13611.2
12083.5
10758.8
9649.54
8752.58
8041.89
7502.56
7034.71
6508.32
5874.03
5317.36
4866.8
4528.87
4312.52
4206.84
4234.74
4415.98
4745.86
5155.4
5603.57
6014.94
6335.5
6507.31
6496.74
6336.88
6062.31
5689.32
5260.85
4816.31
4375.14
3962.02
3583.17
3237.44
2928.44
2654.26
2409.93
2192.75
2003.44
1841.44
1703.75
1586.79
1486.8
1399.96
1323.6
1255.23
1192.82
1134.31
1077.97
1023.5
972.399
926.062
885.839
851.485
823.299
800.24
781.997
768.409
758.726
751.81
746.912
743.755
741.767
741.539
740.946
742.012
747.008
753.032
759.251
768.409
777.368
787.655
799.446
812.237
5086.08
5538.71
5617.24
5879.33
5993.66
6128.58
6169.33
6174.36
6157.26
6165.54
6129.23
6095.59
6029.09
5898.01
5796.47
5676.3
5556.25
5442.19
5342.02
5252.07
5169.54
5100.52
5047.61
5016.36
5010.52
5035.74
5115.18
5280.15
5592.6
6116.92
6940.13
8141.45
9783.95
11895.6
14470.2
17454.9
20727.4
24151.1
27576
30857.8
33867.6
36506.3
38691.9
40282.6
41196.4
41348.7
40661.7
39127.6
36785.1
33872.6
30661.2
27379.4
24160.6
21102.9
18299.3
15826.5
13723.8
11979.8
10567
9442.46
8527.62
7743.34
7088.96
6563.09
6207.76
6084.63
6227.71
6626.39
7255.78
8060.31
8966.06
9902.28
10770.5
11458.1
11885.9
12001.8
11803.3
11322.6
10608.8
9764.34
8861.04
7960.36
7098.69
6300.56
5575.06
4916.65
4319.6
3785.71
3317.81
2911.87
2562.92
2266.39
2016.29
1805.65
1628.29
1478.45
1352.61
1245.77
1154.67
1078.46
1015.71
964.878
923.667
889.865
862.14
839.245
820.48
805.917
794.838
786.898
781.604
777.765
775.061
772.852
771.477
773.758
778.667
784.538
790.665
797.208
807.068
816.733
826.423
837.096
849.181
10568.6
11205.6
10715.5
10597.7
10205.8
9940.19
9517.08
9147.18
8734.1
8299.98
7852.42
7512.66
7217.9
6936.94
6675.21
6434.56
6213.57
6022.67
5863.83
5736.52
5639.5
5577.26
5568.65
5634.98
5803.79
6145.74
6759.5
7766.85
9323.88
11562.5
14575.9
18386.6
22936.8
28110.2
33707
39595.8
45393.3
50865.4
55827.4
60129.5
63645.6
66278.2
67964.2
68728
68606.2
67546.4
65519.9
62529.9
58671.3
54328.2
49818.9
45323
40892.7
36564.4
32419.5
28577.8
25125.8
22128.1
19599.7
17545.8
15932.2
14745.1
13898.6
13292.8
13049
13349.4
14078.2
15097.5