/*--------------------------------*- C++ -*----------------------------------*\
| =========                 |                                                 |
| \\      /  F ield         | OpenFOAM: The Open Source CFD Toolbox           |
|  \\    /   O peration     | Version:  2112                                  |
|   \\  /    A nd           | Website:  www.openfoam.com                      |
|    \\/     M anipulation  |                                                 |
\*---------------------------------------------------------------------------*/
FoamFile
{
    version     2.0;
    format      ascii;
    arch        "LSB;label=32;scalar=64";
    class       volScalarField;
    location    "0.0001";
    object      epsilon;
}
// * * * * * * * * * * * * * * * * * * * * * * * * * * * * * * * * * * * * * //

dimensions      [0 2 -3 0 0 0 0];

internalField   nonuniform List<scalar> 
13875
(
3.65101e+07
6.42692e+08
1.01458e+09
1.23207e+09
1.35434e+09
1.42911e+09
1.46935e+09
1.49132e+09
1.50154e+09
1.50603e+09
1.50784e+09
1.50852e+09
1.50868e+09
1.50855e+09
1.50787e+09
1.50613e+09
1.50171e+09
1.4914e+09
1.46949e+09
1.42951e+09
1.35453e+09
1.23313e+09
1.01726e+09
6.49914e+08
3.64951e+07
2.98505e+08
9.64265e+08
1.37336e+09
1.65724e+09
1.83738e+09
1.94851e+09
2.00972e+09
2.04194e+09
2.05704e+09
2.06362e+09
2.06625e+09
2.06722e+09
2.06745e+09
2.06726e+09
2.06636e+09
2.06388e+09
2.05742e+09
2.04229e+09
2.01016e+09
1.94924e+09
1.83819e+09
1.65896e+09
1.37705e+09
9.70837e+08
3.01993e+08
8.80289e+08
1.39113e+09
1.82283e+09
2.15286e+09
2.37474e+09
2.5115e+09
2.58803e+09
2.62774e+09
2.64649e+09
2.65462e+09
2.65785e+09
2.65902e+09
2.6593e+09
2.65903e+09
2.65794e+09
2.65486e+09
2.64684e+09
2.62804e+09
2.58832e+09
2.51183e+09
2.37514e+09
2.15338e+09
1.8239e+09
1.39139e+09
8.66746e+08
1.6003e+09
1.83742e+09
2.28022e+09
2.6401e+09
2.88862e+09
3.04291e+09
3.12982e+09
3.17465e+09
3.19615e+09
3.20553e+09
3.20926e+09
3.21061e+09
3.21092e+09
3.2106e+09
3.20933e+09
3.20575e+09
3.19648e+09
3.17495e+09
3.13008e+09
3.04307e+09
2.88884e+09
2.63995e+09
2.27966e+09
1.83283e+09
1.57413e+09
2.03526e+09
2.08897e+09
2.50113e+09
2.85744e+09
3.09876e+09
3.24738e+09
3.33095e+09
3.37385e+09
3.39439e+09
3.40337e+09
3.40695e+09
3.40821e+09
3.4085e+09
3.40819e+09
3.40697e+09
3.40352e+09
3.39464e+09
3.37415e+09
3.33128e+09
3.24776e+09
3.09924e+09
2.85758e+09
2.50129e+09
2.08571e+09
2.01609e+09
1.85278e+09
1.89179e+09
2.25315e+09
2.58086e+09
2.79941e+09
2.93131e+09
3.00422e+09
3.04121e+09
3.05853e+09
3.06595e+09
3.06885e+09
3.06985e+09
3.07006e+09
3.06981e+09
3.06883e+09
3.066e+09
3.05868e+09
3.04146e+09
3.00457e+09
2.93185e+09
2.80036e+09
2.58285e+09
2.2543e+09
1.88901e+09
1.84007e+09
1.43903e+09
1.57291e+09
1.86963e+09
2.13598e+09
2.31026e+09
2.41393e+09
2.46975e+09
2.49743e+09
2.51019e+09
2.51558e+09
2.51765e+09
2.51835e+09
2.51849e+09
2.5183e+09
2.51756e+09
2.51547e+09
2.51002e+09
2.49705e+09
2.46884e+09
2.41199e+09
2.30732e+09
2.13184e+09
1.86226e+09
1.56296e+09
1.41875e+09
9.21376e+08
1.15076e+09
1.40666e+09
1.61391e+09
1.74655e+09
1.82428e+09
1.86515e+09
1.88478e+09
1.89353e+09
1.8971e+09
1.89842e+09
1.89885e+09
1.89892e+09
1.89879e+09
1.89832e+09
1.89697e+09
1.89338e+09
1.88456e+09
1.86472e+09
1.82345e+09
1.74551e+09
1.61256e+09
1.40368e+09
1.14606e+09
9.09269e+08
4.7685e+08
8.31514e+08
1.06123e+09
1.22469e+09
1.32356e+09
1.37968e+09
1.40819e+09
1.42138e+09
1.42706e+09
1.42931e+09
1.43012e+09
1.43036e+09
1.4304e+09
1.43031e+09
1.43001e+09
1.42918e+09
1.42693e+09
1.42125e+09
1.40802e+09
1.37947e+09
1.32348e+09
1.22462e+09
1.06072e+09
8.30453e+08
4.74329e+08
1.72192e+08
4.0921e+08
5.33366e+08
6.17696e+08
6.66702e+08
6.9354e+08
7.06784e+08
7.12773e+08
7.15256e+08
7.16197e+08
7.16517e+08
7.16599e+08
7.16565e+08
7.16453e+08
7.16242e+08
7.15783e+08
7.14685e+08
7.12039e+08
7.05887e+08
6.92462e+08
6.65472e+08
6.1595e+08
5.31718e+08
4.06801e+08
1.6919e+08
1.20454e+07
6.22826e+07
8.57781e+07
9.98337e+07
1.07635e+08
1.12039e+08
1.14328e+08
1.15423e+08
1.15907e+08
1.16113e+08
1.16206e+08
1.16254e+08
1.16265e+08
1.16249e+08
1.16207e+08
1.16111e+08
1.15889e+08
1.15391e+08
1.14285e+08
1.11973e+08
1.07534e+08
9.96165e+07
8.5382e+07
6.15928e+07
1.16595e+07
1.72209e+06
959309
1.14613e+06
1.29104e+06
1.37724e+06
1.42751e+06
1.45474e+06
1.46838e+06
1.47481e+06
1.47782e+06
1.47937e+06
1.48031e+06
1.48076e+06
1.48085e+06
1.48058e+06
1.47955e+06
1.47684e+06
1.47059e+06
1.45706e+06
1.42974e+06
1.37909e+06
1.29189e+06
1.14309e+06
951714
1.72113e+06
1.75708e+06
394409
271544
257882
256494
256355
256366
256386
256398
256404
256406
256407
256407
256406
256405
256401
256394
256381
256358
256341
256462
257762
270886
390918
1.75068e+06
1.83385e+06
408538
271653
255281
253332
253009
252942
252929
252926
252926
252926
252926
252926
252926
252926
252926
252926
252929
252941
253006
253315
255160
270749
403884
1.80149e+06
1.87125e+06
422556
273961
255620
253385
253014
252934
252917
252914
252913
252913
252913
252913
252913
252913
252913
252914
252918
252939
253032
253458
255959
275740
430540
1.89446e+06
1.97376e+06
445120
278430
256266
253474
253035
252940
252919
252914
252913
252913
252913
252913
252913
252913
252913
252914
252919
252943
253045
253515
256481
279597
450051
1.99941e+06
1.96869e+06
442509
277077
255865
253348
253000
252932
252917
252914
252913
252913
252913
252913
252913
252913
252913
252914
252917
252931
252996
253332
255765
276521
439967
1.96609e+06
1.9492e+06
433746
274648
255256
253155
252945
252919
252914
252913
252913
252913
252913
252913
252913
252913
252913
252913
252914
252919
252943
253144
255221
274598
434160
1.94343e+06
1.96877e+06
453475
278358
255384
252973
252872
252900
252910
252913
252913
252913
252913
252913
252913
252913
252913
252913
252910
252901
252874
252955
255141
276748
446539
1.94996e+06
1.97591e+06
470347
282563
255735
252845
252804
252881
252906
252912
252913
252913
252913
252913
252913
252913
252913
252912
252906
252881
252804
252851
255805
283024
472481
1.99138e+06
1.8342e+06
439984
275886
254612
252726
252805
252886
252908
252912
252913
252913
252913
252913
252913
252913
252913
252912
252907
252883
252796
252726
254829
277500
447134
1.85625e+06
1.71114e+06
409087
269519
253819
252747
252845
252898
252910
252913
252913
252913
252913
252913
252913
252913
252913
252913
252910
252896
252838
252734
253860
270004
411245
1.71317e+06
1.60557e+06
384443
265086
253417
252797
252875
252906
252912
252913
252913
252913
252913
252913
252913
252913
252913
252913
252912
252906
252875
252797
253373
264596
381472
1.59466e+06
1.51383e+06
362574
261636
253187
252841
252893
252910
252913
252913
252913
252913
252913
252913
252913
252913
252913
252913
252913
252910
252894
252842
253190
261661
362871
1.5172e+06
1.46052e+06
351198
260039
253108
252864
252901
252911
252913
252913
252913
252913
252913
252913
252913
252913
252913
252913
252913
252911
252901
252864
253115
260160
352059
1.46222e+06
1.40414e+06
341168
258783
253050
252877
252905
252912
252913
252913
252913
252913
252913
252913
252913
252913
252913
252913
252913
252912
252906
252878
253040
258589
339562
1.39872e+06
1.34908e+06
330480
257561
253001
252888
252908
252912
252913
252913
252913
252913
252913
252913
252913
252913
252913
252913
252913
252912
252908
252887
253009
257738
332161
1.35632e+06
1.31106e+06
324083
256886
252980
252894
252910
252913
252913
252913
252913
252913
252913
252913
252913
252913
252913
252913
252913
252913
252909
252893
252980
256911
324212
1.3088e+06
1.27142e+06
318326
256339
252964
252898
252910
252913
252913
252913
252913
252913
252913
252913
252913
252913
252913
252913
252913
252913
252911
252899
252958
256134
316167
1.26482e+06
1.22736e+06
310199
255618
252947
252903
252911
252913
252913
252913
252913
252913
252913
252913
252913
252913
252913
252913
252913
252913
252911
252902
252952
255778
312119
1.23567e+06
1.20214e+06
306158
255284
252942
252905
252912
252913
252913
252913
252913
252913
252913
252913
252913
252913
252913
252913
252913
252913
252912
252905
252941
255278
306011
1.19898e+06
1.17734e+06
303263
255068
252938
252907
252912
252913
252913
252913
252913
252913
252913
252913
252913
252913
252913
252913
252913
252913
252912
252907
252936
254968
301958
1.17391e+06
1.14743e+06
298216
254705
252932
252908
252912
252913
252913
252913
252913
252913
252913
252913
252913
252913
252913
252913
252913
252913
252912
252908
252934
254780
299296
1.15172e+06
1.12983e+06
295660
254531
252930
252909
252913
252913
252913
252913
252913
252913
252913
252913
252913
252913
252913
252913
252913
252913
252913
252909
252930
254516
295388
1.12742e+06
1.11299e+06
294069
254433
252929
252910
252913
252913
252913
252913
252913
252913
252913
252913
252913
252913
252913
252913
252913
252913
252913
252910
252928
254371
293144
1.11111e+06
1.09174e+06
290638
254222
252927
252911
252913
252913
252913
252913
252913
252913
252913
252913
252913
252913
252913
252913
252913
252913
252913
252911
252928
254283
291658
1.09526e+06
1.07901e+06
288934
254122
252926
252911
252913
252913
252913
252913
252913
252913
252913
252913
252913
252913
252913
252913
252913
252913
252913
252911
252926
254116
288781
1.07731e+06
1.06699e+06
287971
254071
252926
252911
252913
252913
252913
252913
252913
252913
252913
252913
252913
252913
252913
252913
252913
252913
252913
252911
252925
254027
287204
1.06564e+06
1.05205e+06
285541
253940
252925
252912
252913
252913
252913
252913
252913
252913
252913
252913
252913
252913
252913
252913
252913
252913
252913
252912
252925
253987
286406
1.05464e+06
1.04303e+06
284376
253880
252924
252912
252913
252913
252913
252913
252913
252913
252913
252913
252913
252913
252913
252913
252913
252913
252913
252912
252924
253877
284280
1.04184e+06
1.03466e+06
283830
253856
252924
252912
252913
252913
252913
252913
252913
252913
252913
252913
252913
252913
252913
252913
252913
252913
252913
252912
252924
253821
283159
1.03368e+06
1.02443e+06
282063
253770
252924
252912
252913
252913
252913
252913
252913
252913
252913
252913
252913
252913
252913
252913
252913
252913
252913
252912
252924
253804
282757
1.02615e+06
1.0183e+06
281260
253733
252924
252913
252913
252913
252913
252913
252913
252913
252913
252913
252913
252913
252913
252913
252913
252913
252913
252913
252924
253732
281227
1.01758e+06
1.01274e+06
280991
253723
252924
252913
252913
252913
252913
252913
252913
252913
252913
252913
252913
252913
252913
252913
252913
252913
252913
252913
252924
253696
280423
1.01209e+06
1.00619e+06
279708
253666
252924
252913
252913
252913
252913
252913
252913
252913
252913
252913
252913
252913
252913
252913
252913
252913
252913
252913
252924
253689
280215
1.00716e+06
1.00236e+06
279161
253644
252924
252913
252913
252913
252913
252913
252913
252913
252913
252913
252913
252913
252913
252913
252913
252913
252913
252913
252924
253646
279194
1.00202e+06
999014
279079
253643
252924
252913
252913
252913
252913
252913
252913
252913
252913
252913
252913
252913
252913
252913
252913
252913
252913
252913
252924
253622
278612
998630
995334
278161
253605
252924
252913
252913
252913
252913
252913
252913
252913
252913
252913
252913
252913
252913
252913
252913
252913
252913
252913
252924
253619
278499
995771
993305
277783
253591
252924
252913
252913
252913
252913
252913
252913
252913
252913
252913
252913
252913
252913
252913
252913
252913
252913
252913
252924
253596
277908
993179
992747
277326
253572
252923
252913
252913
252913
252913
252913
252913
252913
252913
252913
252913
252913
252913
252913
252913
252913
252913
252913
252923
253565
277160
992682
540095
258992
253722
253619
253605
253594
253584
253574
253564
253555
253545
253536
253527
253518
253510
253502
253494
253486
253478
253470
253463
253456
253449
253442
253435
253428
253422
253423
255069
475546
566696
256445
252999
252934
252931
252930
252930
252929
252929
252928
252928
252927
252927
252927
252926
252926
252925
252925
252925
252924
252924
252924
252924
252923
252923
252923
252923
252933
254791
478466
543153
255473
252964
252915
252913
252913
252913
252913
252913
252913
252913
252913
252913
252913
252913
252913
252913
252913
252913
252913
252913
252913
252913
252913
252913
252913
252913
252924
254847
482677
529888
255458
252957
252914
252913
252913
252913
252913
252913
252913
252913
252913
252913
252913
252913
252913
252913
252913
252913
252913
252913
252913
252913
252913
252913
252913
252913
252924
254894
486329
530128
255598
252957
252914
252913
252913
252913
252913
252913
252913
252913
252913
252913
252913
252913
252913
252913
252913
252913
252913
252913
252913
252913
252913
252913
252913
252913
252925
254943
489698
530926
255609
252955
252914
252913
252913
252913
252913
252913
252913
252913
252913
252913
252913
252913
252913
252913
252913
252913
252913
252913
252913
252913
252913
252913
252913
252913
252925
254994
492962
530534
255573
252953
252914
252913
252913
252913
252913
252913
252913
252913
252913
252913
252913
252913
252913
252913
252913
252913
252913
252913
252913
252913
252913
252913
252913
252913
252926
255043
496093
528779
255524
252950
252914
252913
252913
252913
252913
252913
252913
252913
252913
252913
252913
252913
252913
252913
252913
252913
252913
252913
252913
252913
252913
252913
252913
252913
252926
255088
499024
527000
255495
252947
252914
252913
252913
252913
252913
252913
252913
252913
252913
252913
252913
252913
252913
252913
252913
252913
252913
252913
252913
252913
252913
252913
252913
252913
252926
255129
501719
525754
255483
252945
252914
252913
252913
252913
252913
252913
252913
252913
252913
252913
252913
252913
252913
252913
252913
252913
252913
252913
252913
252913
252913
252913
252913
252913
252927
255167
504179
525122
255482
252943
252914
252913
252913
252913
252913
252913
252913
252913
252913
252913
252913
252913
252913
252913
252913
252913
252913
252913
252913
252913
252913
252913
252913
252913
252927
255202
506431
524885
255482
252942
252914
252913
252913
252913
252913
252913
252913
252913
252913
252913
252913
252913
252913
252913
252913
252913
252913
252913
252913
252913
252913
252913
252913
252913
252927
255235
508500
524755
255483
252941
252914
252913
252913
252913
252913
252913
252913
252913
252913
252913
252913
252913
252913
252913
252913
252913
252913
252913
252913
252913
252913
252913
252913
252913
252928
255265
510402
524794
255481
252940
252914
252913
252913
252913
252913
252913
252913
252913
252913
252913
252913
252913
252913
252913
252913
252913
252913
252913
252913
252913
252913
252913
252913
252913
252928
255294
512147
524521
255476
252939
252913
252913
252913
252913
252913
252913
252913
252913
252913
252913
252913
252913
252913
252913
252913
252913
252913
252913
252913
252913
252913
252913
252913
252913
252928
255319
513730
524553
255479
252938
252913
252913
252913
252913
252913
252913
252913
252913
252913
252913
252913
252913
252913
252913
252913
252913
252913
252913
252913
252913
252913
252913
252913
252913
252928
255342
515158
524456
255474
252937
252913
252913
252913
252913
252913
252913
252913
252913
252913
252913
252913
252913
252913
252913
252913
252913
252913
252913
252913
252913
252913
252913
252913
252913
252929
255362
516441
524256
255472
252936
252913
252913
252913
252913
252913
252913
252913
252913
252913
252913
252913
252913
252913
252913
252913
252913
252913
252913
252913
252913
252913
252913
252913
252913
252929
255380
517575
524196
255471
252935
252913
252913
252913
252913
252913
252913
252913
252913
252913
252913
252913
252913
252913
252913
252913
252913
252913
252913
252913
252913
252913
252913
252913
252913
252929
255396
518571
523982
255465
252934
252913
252913
252913
252913
252913
252913
252913
252913
252913
252913
252913
252913
252913
252913
252913
252913
252913
252913
252913
252913
252913
252913
252913
252913
252929
255410
519434
523755
255463
252933
252913
252913
252913
252913
252913
252913
252913
252913
252913
252913
252913
252913
252913
252913
252913
252913
252913
252913
252913
252913
252913
252913
252913
252913
252929
255421
520164
523573
255459
252933
252913
252913
252913
252913
252913
252913
252913
252913
252913
252913
252913
252913
252913
252913
252913
252913
252913
252913
252913
252913
252913
252913
252913
252913
252929
255430
520775
523232
255452
252932
252913
252913
252913
252913
252913
252913
252913
252913
252913
252913
252913
252913
252913
252913
252913
252913
252913
252913
252913
252913
252913
252913
252913
252913
252930
255437
521268
522917
255442
252931
252913
252913
252913
252913
252913
252913
252913
252913
252913
252913
252913
252913
252913
252913
252913
252913
252913
252913
252913
252913
252913
252913
252913
252913
252930
255442
521648
522720
255184
252926
252913
252913
252913
252913
252913
252913
252913
252913
252913
252913
252913
252913
252913
252913
252913
252913
252913
252913
252913
252913
252913
252913
252913
252913
252930
255445
521928
475548
255069
253423
253422
253428
253435
253442
253449
253456
253463
253470
253478
253486
253494
253502
253510
253519
253527
253536
253545
253555
253564
253574
253584
253595
253605
253619
253723
258998
540236
478468
254791
252933
252923
252923
252923
252923
252924
252924
252924
252924
252925
252925
252925
252926
252926
252927
252927
252927
252928
252928
252929
252929
252930
252930
252931
252934
252999
256444
566626
482683
254848
252924
252913
252913
252913
252913
252913
252913
252913
252913
252913
252913
252913
252913
252913
252913
252913
252913
252913
252913
252913
252913
252913
252913
252913
252915
252964
255473
543269
486331
254894
252924
252913
252913
252913
252913
252913
252913
252913
252913
252913
252913
252913
252913
252913
252913
252913
252913
252913
252913
252913
252913
252913
252913
252913
252914
252957
255454
529724
489696
254943
252925
252913
252913
252913
252913
252913
252913
252913
252913
252913
252913
252913
252913
252913
252913
252913
252913
252913
252913
252913
252913
252913
252913
252913
252914
252957
255601
530063
492965
254994
252925
252913
252913
252913
252913
252913
252913
252913
252913
252913
252913
252913
252913
252913
252913
252913
252913
252913
252913
252913
252913
252913
252913
252913
252914
252955
255610
531156
496091
255043
252926
252913
252913
252913
252913
252913
252913
252913
252913
252913
252913
252913
252913
252913
252913
252913
252913
252913
252913
252913
252913
252913
252913
252913
252914
252952
255568
530227
499022
255088
252926
252913
252913
252913
252913
252913
252913
252913
252913
252913
252913
252913
252913
252913
252913
252913
252913
252913
252913
252913
252913
252913
252913
252913
252914
252950
255530
528946
501719
255129
252926
252913
252913
252913
252913
252913
252913
252913
252913
252913
252913
252913
252913
252913
252913
252913
252913
252913
252913
252913
252913
252913
252913
252913
252914
252947
255493
526978
504177
255167
252927
252913
252913
252913
252913
252913
252913
252913
252913
252913
252913
252913
252913
252913
252913
252913
252913
252913
252913
252913
252913
252913
252913
252913
252914
252945
255484
525683
506433
255202
252927
252913
252913
252913
252913
252913
252913
252913
252913
252913
252913
252913
252913
252913
252913
252913
252913
252913
252913
252913
252913
252913
252913
252913
252914
252944
255484
525287
508502
255235
252927
252913
252913
252913
252913
252913
252913
252913
252913
252913
252913
252913
252913
252913
252913
252913
252913
252913
252913
252913
252913
252913
252913
252913
252914
252942
255479
524751
510400
255265
252928
252913
252913
252913
252913
252913
252913
252913
252913
252913
252913
252913
252913
252913
252913
252913
252913
252913
252913
252913
252913
252913
252913
252913
252914
252941
255485
524776
512146
255294
252928
252913
252913
252913
252913
252913
252913
252913
252913
252913
252913
252913
252913
252913
252913
252913
252913
252913
252913
252913
252913
252913
252913
252913
252914
252940
255481
524812
513731
255319
252928
252913
252913
252913
252913
252913
252913
252913
252913
252913
252913
252913
252913
252913
252913
252913
252913
252913
252913
252913
252913
252913
252913
252913
252913
252939
255476
524534
515157
255342
252928
252913
252913
252913
252913
252913
252913
252913
252913
252913
252913
252913
252913
252913
252913
252913
252913
252913
252913
252913
252913
252913
252913
252913
252913
252938
255478
524507
516440
255362
252929
252913
252913
252913
252913
252913
252913
252913
252913
252913
252913
252913
252913
252913
252913
252913
252913
252913
252913
252913
252913
252913
252913
252913
252913
252937
255475
524497
517577
255380
252929
252913
252913
252913
252913
252913
252913
252913
252913
252913
252913
252913
252913
252913
252913
252913
252913
252913
252913
252913
252913
252913
252913
252913
252913
252936
255470
524266
518569
255396
252929
252913
252913
252913
252913
252913
252913
252913
252913
252913
252913
252913
252913
252913
252913
252913
252913
252913
252913
252913
252913
252913
252913
252913
252913
252935
255470
524138
519432
255410
252929
252913
252913
252913
252913
252913
252913
252913
252913
252913
252913
252913
252913
252913
252913
252913
252913
252913
252913
252913
252913
252913
252913
252913
252913
252934
255467
524030
520166
255421
252929
252913
252913
252913
252913
252913
252913
252913
252913
252913
252913
252913
252913
252913
252913
252913
252913
252913
252913
252913
252913
252913
252913
252913
252913
252933
255461
523763
520773
255430
252929
252913
252913
252913
252913
252913
252913
252913
252913
252913
252913
252913
252913
252913
252913
252913
252913
252913
252913
252913
252913
252913
252913
252913
252913
252933
255458
523515
521266
255437
252930
252913
252913
252913
252913
252913
252913
252913
252913
252913
252913
252913
252913
252913
252913
252913
252913
252913
252913
252913
252913
252913
252913
252913
252913
252932
255454
523281
521649
255442
252930
252913
252913
252913
252913
252913
252913
252913
252913
252913
252913
252913
252913
252913
252913
252913
252913
252913
252913
252913
252913
252913
252913
252913
252913
252931
255441
522915
521929
255445
252930
252913
252913
252913
252913
252913
252913
252913
252913
252913
252913
252913
252913
252913
252913
252913
252913
252913
252913
252913
252913
252913
252913
252913
252913
252926
255184
522712
627841
626816
625794
624776
623761
622749
621741
620736
619734
618735
617740
616748
615758
614772
613790
612810
611833
610860
609890
608922
607958
606997
606039
605084
604132
603183
602236
601293
600353
599416
598481
597550
596621
595695
594772
593852
592935
592021
591109
590201
589295
588392
587491
586593
585698
584806
583917
583030
582146
581264
580386
579509
578636
577765
576897
576031
575168
574308
573450
572594
571742
570891
570044
569198
568356
567515
566677
565842
565009
564179
563351
562525
561702
560881
560063
559247
558434
557622
556813
556007
555203
554401
553601
552804
552009
551216
550426
549638
548852
548068
547286
546507
545730
544955
544183
543412
542644
541878
541114
540352
539593
538835
538080
537326
536575
535826
535079
534334
533591
532850
532112
531375
530640
529908
529177
528448
527722
526997
526275
525554
524835
524119
523404
522691
521979
257936
257896
257867
257838
257809
257781
257753
257725
257697
257669
257642
257615
257588
257561
257534
257508
257482
257455
257430
257404
257378
257353
257328
257303
257278
257253
257229
257204
257180
257156
257132
257108
257085
257062
257038
257015
256992
256970
256947
256924
256902
256880
256858
256836
256814
256793
256771
256750
256729
256708
256687
256666
256646
256625
256605
256585
256565
256545
256525
256505
256486
256466
256447
256428
256409
256390
256371
256352
256334
256315
256297
256279
256261
256243
256225
256207
256189
256172
256154
256137
256120
256103
256086
256069
256052
256035
256019
256002
255986
255970
255954
255938
255922
255906
255890
255874
255859
255843
255828
255813
255797
255782
255767
255752
255738
255723
255708
255694
255679
255665
255651
255636
255622
255608
255594
255580
255567
255553
255539
255526
255512
255499
255486
255472
255457
252963
252962
252962
252961
252961
252960
252960
252959
252959
252958
252958
252958
252957
252957
252956
252956
252956
252955
252955
252954
252954
252954
252953
252953
252953
252952
252952
252951
252951
252951
252950
252950
252950
252949
252949
252949
252948
252948
252948
252947
252947
252947
252947
252946
252946
252946
252945
252945
252945
252945
252944
252944
252944
252943
252943
252943
252943
252942
252942
252942
252942
252941
252941
252941
252941
252940
252940
252940
252940
252939
252939
252939
252939
252939
252938
252938
252938
252938
252938
252937
252937
252937
252937
252936
252936
252936
252936
252936
252936
252935
252935
252935
252935
252935
252934
252934
252934
252934
252934
252934
252933
252933
252933
252933
252933
252933
252932
252932
252932
252932
252932
252932
252931
252931
252931
252931
252931
252931
252931
252930
252930
252930
252930
252930
252930
252913
252913
252913
252913
252913
252913
252913
252913
252913
252913
252913
252913
252913
252913
252913
252913
252913
252913
252913
252913
252913
252913
252913
252913
252913
252913
252913
252913
252913
252913
252913
252913
252913
252913
252913
252913
252913
252913
252913
252913
252913
252913
252913
252913
252913
252913
252913
252913
252913
252913
252913
252913
252913
252913
252913
252913
252913
252913
252913
252913
252913
252913
252913
252913
252913
252913
252913
252913
252913
252913
252913
252913
252913
252913
252913
252913
252913
252913
252913
252913
252913
252913
252913
252913
252913
252913
252913
252913
252913
252913
252913
252913
252913
252913
252913
252913
252913
252913
252913
252913
252913
252913
252913
252913
252913
252913
252913
252913
252913
252913
252913
252913
252913
252913
252913
252913
252913
252913
252913
252913
252913
252913
252913
252913
252913
252913
252913
252913
252913
252913
252913
252913
252913
252913
252913
252913
252913
252913
252913
252913
252913
252913
252913
252913
252913
252913
252913
252913
252913
252913
252913
252913
252913
252913
252913
252913
252913
252913
252913
252913
252913
252913
252913
252913
252913
252913
252913
252913
252913
252913
252913
252913
252913
252913
252913
252913
252913
252913
252913
252913
252913
252913
252913
252913
252913
252913
252913
252913
252913
252913
252913
252913
252913
252913
252913
252913
252913
252913
252913
252913
252913
252913
252913
252913
252913
252913
252913
252913
252913
252913
252913
252913
252913
252913
252913
252913
252913
252913
252913
252913
252913
252913
252913
252913
252913
252913
252913
252913
252913
252913
252913
252913
252913
252913
252913
252913
252913
252913
252913
252913
252913
252913
252913
252913
252913
252913
252913
252913
252913
252913
252913
252913
252913
252913
252913
252913
252913
252913
252913
252913
252913
252913
252913
252913
252913
252913
252913
252913
252913
252913
252913
252913
252913
252913
252913
252913
252913
252913
252913
252913
252913
252913
252913
252913
252913
252913
252913
252913
252913
252913
252913
252913
252913
252913
252913
252913
252913
252913
252913
252913
252913
252913
252913
252913
252913
252913
252913
252913
252913
252913
252913
252913
252913
252913
252913
252913
252913
252913
252913
252913
252913
252913
252913
252913
252913
252913
252913
252913
252913
252913
252913
252913
252913
252913
252913
252913
252913
252913
252913
252913
252913
252913
252913
252913
252913
252913
252913
252913
252913
252913
252913
252913
252913
252913
252913
252913
252913
252913
252913
252913
252913
252913
252913
252913
252913
252913
252913
252913
252913
252913
252913
252913
252913
252913
252913
252913
252913
252913
252913
252913
252913
252913
252913
252913
252913
252913
252913
252913
252913
252913
252913
252913
252913
252913
252913
252913
252913
252913
252913
252913
252913
252913
252913
252913
252913
252913
252913
252913
252913
252913
252913
252913
252913
252913
252913
252913
252913
252913
252913
252913
252913
252913
252913
252913
252913
252913
252913
252913
252913
252913
252913
252913
252913
252913
252913
252913
252913
252913
252913
252913
252913
252913
252913
252913
252913
252913
252913
252913
252913
252913
252913
252913
252913
252913
252913
252913
252913
252913
252913
252913
252913
252913
252913
252913
252913
252913
252913
252913
252913
252913
252913
252913
252913
252913
252913
252913
252913
252913
252913
252913
252913
252913
252913
252913
252913
252913
252913
252913
252913
252913
252913
252913
252913
252913
252913
252913
252913
252913
252913
252913
252913
252913
252913
252913
252913
252913
252913
252913
252913
252913
252913
252913
252913
252913
252913
252913
252913
252913
252913
252913
252913
252913
252913
252913
252913
252913
252913
252913
252913
252913
252913
252913
252913
252913
252913
252913
252913
252913
252913
252913
252913
252913
252913
252913
252913
252913
252913
252913
252913
252913
252913
252913
252913
252913
252913
252913
252913
252913
252913
252913
252913
252913
252913
252913
252913
252913
252913
252913
252913
252913
252913
252913
252913
252913
252913
252913
252913
252913
252913
252913
252913
252913
252913
252913
252913
252913
252913
252913
252913
252913
252913
252913
252913
252913
252913
252913
252913
252913
252913
252913
252913
252913
252913
252913
252913
252913
252913
252913
252913
252913
252913
252913
252913
252913
252913
252913
252913
252913
252913
252913
252913
252913
252913
252913
252913
252913
252913
252913
252913
252913
252913
252913
252913
252913
252913
252913
252913
252913
252913
252913
252913
252913
252913
252913
252913
252913
252913
252913
252913
252913
252913
252913
252913
252913
252913
252913
252913
252913
252913
252913
252913
252913
252913
252913
252913
252913
252913
252913
252913
252913
252913
252913
252913
252913
252913
252913
252913
252913
252913
252913
252913
252913
252913
252913
252913
252913
252913
252913
252913
252913
252913
252913
252913
252913
252913
252913
252913
252913
252913
252913
252913
252913
252913
252913
252913
252913
252913
252913
252913
252913
252913
252913
252913
252913
252913
252913
252913
252913
252913
252913
252913
252913
252913
252913
252913
252913
252913
252913
252913
252913
252913
252913
252913
252913
252913
252913
252913
252913
252913
252913
252913
252913
252913
252913
252913
252913
252913
252913
252913
252913
252913
252913
252913
252913
252913
252913
252913
252913
252913
252913
252913
252913
252913
252913
252913
252913
252913
252913
252913
252913
252913
252913
252913