/*--------------------------------*- C++ -*----------------------------------*\
| =========                 |                                                 |
| \\      /  F ield         | OpenFOAM: The Open Source CFD Toolbox           |
|  \\    /   O peration     | Version:  2112                                  |
|   \\  /    A nd           | Website:  www.openfoam.com                      |
|    \\/     M anipulation  |                                                 |
\*---------------------------------------------------------------------------*/
FoamFile
{
    version     2.0;
    format      ascii;
    arch        "LSB;label=32;scalar=64";
    class       volScalarField;
    location    "0.00331";
    object      epsilon;
}
// * * * * * * * * * * * * * * * * * * * * * * * * * * * * * * * * * * * * * //

dimensions      [0 2 -3 0 0 0 0];

internalField   nonuniform List<scalar> 
13875
(
1.15997e+06
2.94637e+07
3.28126e+07
3.28469e+07
3.29656e+07
3.28647e+07
3.2865e+07
3.28835e+07
3.2919e+07
3.29257e+07
3.29282e+07
3.29495e+07
3.28694e+07
3.28197e+07
3.28632e+07
3.29085e+07
3.29813e+07
3.29213e+07
3.2882e+07
3.28335e+07
3.29377e+07
3.28344e+07
3.28005e+07
2.94683e+07
1.17807e+06
1.31388e+06
2.27485e+07
2.53482e+07
2.52439e+07
2.53108e+07
2.52184e+07
2.52092e+07
2.52223e+07
2.52455e+07
2.52273e+07
2.52278e+07
2.52572e+07
2.52136e+07
2.51768e+07
2.52047e+07
2.52455e+07
2.52629e+07
2.52491e+07
2.52298e+07
2.5204e+07
2.52898e+07
2.52203e+07
2.53241e+07
2.27454e+07
1.3427e+06
1.57305e+06
1.97075e+07
2.18241e+07
2.16299e+07
2.17016e+07
2.16302e+07
2.16171e+07
2.16176e+07
2.15537e+07
2.15201e+07
2.15143e+07
2.15632e+07
2.16142e+07
2.15906e+07
2.16033e+07
2.15577e+07
2.15534e+07
2.15627e+07
2.16287e+07
2.1625e+07
2.16935e+07
2.16001e+07
2.17852e+07
1.96848e+07
1.58518e+06
1.81381e+06
1.73859e+07
1.90337e+07
1.88832e+07
1.8967e+07
1.8908e+07
1.88935e+07
1.88922e+07
1.88024e+07
1.87872e+07
1.87782e+07
1.88169e+07
1.88897e+07
1.88723e+07
1.88809e+07
1.88065e+07
1.88197e+07
1.88118e+07
1.89027e+07
1.89019e+07
1.89608e+07
1.88569e+07
1.90099e+07
1.73646e+07
1.821e+06
2.02296e+06
1.54529e+07
1.67685e+07
1.66236e+07
1.66996e+07
1.6651e+07
1.66387e+07
1.66336e+07
1.65441e+07
1.6543e+07
1.65305e+07
1.65569e+07
1.66326e+07
1.66226e+07
1.66263e+07
1.65472e+07
1.65687e+07
1.655e+07
1.66414e+07
1.66477e+07
1.66965e+07
1.66036e+07
1.67405e+07
1.54319e+07
2.0366e+06
2.20677e+06
1.37134e+07
1.49251e+07
1.47408e+07
1.48237e+07
1.47761e+07
1.47609e+07
1.4748e+07
1.46572e+07
1.4668e+07
1.46512e+07
1.46689e+07
1.47468e+07
1.47441e+07
1.4742e+07
1.46566e+07
1.46888e+07
1.46616e+07
1.47566e+07
1.47769e+07
1.4824e+07
1.47288e+07
1.48997e+07
1.38505e+07
2.22263e+06
2.42308e+06
1.22525e+07
1.34752e+07
1.32095e+07
1.32616e+07
1.32061e+07
1.3183e+07
1.3161e+07
1.30705e+07
1.30903e+07
1.30687e+07
1.30817e+07
1.31601e+07
1.31651e+07
1.31562e+07
1.30657e+07
1.31079e+07
1.30759e+07
1.31737e+07
1.32093e+07
1.3262e+07
1.3201e+07
1.34198e+07
1.19538e+07
2.42924e+06
2.66742e+06
1.06199e+07
1.23133e+07
1.19807e+07
1.19952e+07
1.19127e+07
1.18671e+07
1.18305e+07
1.17394e+07
1.17621e+07
1.17345e+07
1.17449e+07
1.18228e+07
1.18364e+07
1.18216e+07
1.17231e+07
1.17796e+07
1.17454e+07
1.18501e+07
1.1913e+07
1.19927e+07
1.1974e+07
1.22619e+07
1.05419e+07
2.69507e+06
3.49925e+06
1.02131e+07
1.14868e+07
1.1042e+07
1.09495e+07
1.08417e+07
1.07737e+07
1.07194e+07
1.06306e+07
1.06522e+07
1.06198e+07
1.06302e+07
1.07061e+07
1.07276e+07
1.0708e+07
1.06046e+07
1.06716e+07
1.06398e+07
1.07467e+07
1.08399e+07
1.09543e+07
1.10316e+07
1.14797e+07
1.03419e+07
3.5786e+06
6.84455e+06
1.22444e+07
1.12135e+07
1.04316e+07
1.02315e+07
1.00481e+07
9.94986e+06
9.87257e+06
9.79629e+06
9.80794e+06
9.77614e+06
9.78672e+06
9.85847e+06
9.88545e+06
9.86472e+06
9.76934e+06
9.8273e+06
9.81082e+06
9.90428e+06
1.00311e+07
1.02173e+07
1.04114e+07
1.11802e+07
1.21386e+07
6.89238e+06
1.49524e+07
1.87159e+07
1.21069e+07
1.04356e+07
9.79709e+06
9.53656e+06
9.39355e+06
9.29199e+06
9.22764e+06
9.22742e+06
9.19898e+06
9.20715e+06
9.27467e+06
9.30435e+06
9.28744e+06
9.21425e+06
9.25367e+06
9.25683e+06
9.34421e+06
9.49651e+06
9.78274e+06
1.03947e+07
1.19827e+07
1.80552e+07
1.50548e+07
2.5436e+07
6.77083e+07
1.88499e+07
1.0989e+07
1.00604e+07
9.43946e+06
9.15586e+06
9.01562e+06
8.94171e+06
8.926e+06
8.89845e+06
8.90206e+06
8.96161e+06
8.99278e+06
8.98294e+06
8.94024e+06
8.97246e+06
9.00491e+06
9.11512e+06
9.39901e+06
9.9969e+06
1.08264e+07
1.81405e+07
6.71487e+07
2.50542e+07
2.66557e+07
7.04373e+07
9.03907e+07
2.81585e+07
1.17117e+07
9.91463e+06
9.53409e+06
9.35132e+06
9.28457e+06
9.25629e+06
9.2301e+06
9.23289e+06
9.28479e+06
9.31163e+06
9.31486e+06
9.30117e+06
9.33888e+06
9.38385e+06
9.52852e+06
9.98667e+06
1.20926e+07
2.62484e+07
8.5159e+07
7.09137e+07
2.61257e+07
2.64459e+07
5.1978e+07
8.10776e+07
1.16215e+08
5.7194e+07
1.6021e+07
1.31185e+07
1.16589e+07
1.12252e+07
1.10625e+07
1.09923e+07
1.09735e+07
1.10241e+07
1.10617e+07
1.10849e+07
1.11301e+07
1.13056e+07
1.1755e+07
1.32682e+07
1.71031e+07
6.47902e+07
1.00301e+08
7.68333e+07
5.17393e+07
2.59512e+07
2.5825e+07
4.1429e+07
5.99333e+07
8.06696e+07
7.17659e+07
5.73225e+07
5.98099e+07
4.44185e+07
4.32949e+07
4.45562e+07
4.59009e+07
4.55669e+07
4.6522e+07
4.61487e+07
4.6117e+07
4.48706e+07
4.35455e+07
4.45237e+07
6.10887e+07
5.97723e+07
7.33411e+07
7.31404e+07
5.81765e+07
4.12866e+07
2.7157e+07
2.62442e+07
3.43552e+07
5.00245e+07
6.70632e+07
7.08021e+07
8.43664e+07
7.07325e+07
5.2635e+07
5.44386e+07
5.89265e+07
5.97632e+07
5.99605e+07
6.05725e+07
6.09429e+07
6.01613e+07
5.96238e+07
5.41811e+07
5.17496e+07
6.79099e+07
8.45872e+07
7.25832e+07
6.22465e+07
4.87156e+07
3.41151e+07
2.74406e+07
2.3696e+07
3.05559e+07
4.42183e+07
6.01802e+07
6.68248e+07
7.88561e+07
5.39505e+07
3.86475e+07
3.7358e+07
3.8088e+07
3.8535e+07
3.86773e+07
3.89451e+07
3.91544e+07
3.89039e+07
3.85072e+07
3.72193e+07
3.87803e+07
5.15181e+07
7.86306e+07
6.81377e+07
5.73657e+07
4.35263e+07
2.9434e+07
2.32942e+07
1.91261e+07
2.89247e+07
4.32529e+07
4.868e+07
5.2273e+07
5.99927e+07
4.33227e+07
3.16741e+07
2.93118e+07
2.84057e+07
2.80483e+07
2.78987e+07
2.80815e+07
2.82263e+07
2.84483e+07
2.87529e+07
2.93826e+07
3.20411e+07
4.22198e+07
5.86465e+07
5.21465e+07
4.69058e+07
4.40839e+07
2.9107e+07
1.85905e+07
1.52873e+07
2.88513e+07
3.87626e+07
3.87271e+07
3.90567e+07
4.40956e+07
3.86045e+07
3.05207e+07
2.60702e+07
2.33017e+07
2.18835e+07
2.13195e+07
2.13318e+07
2.14902e+07
2.20195e+07
2.31671e+07
2.55638e+07
2.98491e+07
3.732e+07
4.30743e+07
3.84647e+07
3.81563e+07
3.99973e+07
3.09969e+07
1.51243e+07
1.39801e+07
3.25678e+07
3.28751e+07
3.13814e+07
3.1104e+07
3.45446e+07
3.39262e+07
2.91263e+07
2.43133e+07
2.0478e+07
1.81682e+07
1.71733e+07
1.7033e+07
1.73127e+07
1.82823e+07
2.03824e+07
2.40052e+07
2.86471e+07
3.29468e+07
3.36535e+07
3.07234e+07
3.12291e+07
3.25904e+07
3.05321e+07
1.42944e+07
1.5811e+07
2.67145e+07
2.70148e+07
2.57412e+07
2.55689e+07
2.8439e+07
2.92226e+07
2.60419e+07
2.17638e+07
1.79116e+07
1.52961e+07
1.4051e+07
1.38253e+07
1.42219e+07
1.55052e+07
1.80225e+07
2.17425e+07
2.58032e+07
2.84912e+07
2.77479e+07
2.53913e+07
2.59009e+07
2.67591e+07
2.4444e+07
1.57499e+07
2.35708e+07
2.76582e+07
2.31166e+07
2.17677e+07
2.16437e+07
2.40565e+07
2.49389e+07
2.26204e+07
1.902e+07
1.54793e+07
1.28997e+07
1.16053e+07
1.13299e+07
1.17621e+07
1.31067e+07
1.56047e+07
1.89983e+07
2.23508e+07
2.42953e+07
2.35985e+07
2.15638e+07
2.19724e+07
2.26906e+07
2.66124e+07
2.31765e+07
2.69981e+07
3.08993e+07
2.03044e+07
1.84456e+07
1.85493e+07
2.04556e+07
2.1128e+07
1.93105e+07
1.63276e+07
1.32486e+07
1.089e+07
9.65744e+06
9.36586e+06
9.7603e+06
1.10103e+07
1.32753e+07
1.61996e+07
1.89593e+07
2.04695e+07
2.00339e+07
1.84355e+07
1.85691e+07
1.9702e+07
3.03239e+07
2.64179e+07
2.60546e+07
2.99928e+07
1.75516e+07
1.58686e+07
1.59357e+07
1.72338e+07
1.78142e+07
1.63543e+07
1.38039e+07
1.11684e+07
9.14186e+06
8.07174e+06
7.81599e+06
8.17534e+06
9.28115e+06
1.12434e+07
1.37299e+07
1.60883e+07
1.7262e+07
1.68363e+07
1.5874e+07
1.60142e+07
1.71135e+07
2.91908e+07
2.5442e+07
2.52808e+07
2.81881e+07
1.53864e+07
1.38756e+07
1.38034e+07
1.46146e+07
1.50845e+07
1.3863e+07
1.17107e+07
9.48102e+06
7.73654e+06
6.8158e+06
6.59738e+06
6.90784e+06
7.86515e+06
9.57124e+06
1.16796e+07
1.36546e+07
1.46279e+07
1.42409e+07
1.37001e+07
1.39921e+07
1.50903e+07
2.80132e+07
2.46188e+07
2.43692e+07
2.65996e+07
1.38286e+07
1.23658e+07
1.20697e+07
1.25315e+07
1.28338e+07
1.17607e+07
9.95184e+06
8.08536e+06
6.60576e+06
5.81525e+06
5.62021e+06
5.88735e+06
6.69984e+06
8.14164e+06
9.89886e+06
1.15451e+07
1.24128e+07
1.21781e+07
1.1894e+07
1.23743e+07
1.35871e+07
2.65879e+07
2.35586e+07
2.3434e+07
2.52719e+07
1.25678e+07
1.1106e+07
1.06615e+07
1.08275e+07
1.09202e+07
9.95338e+06
8.44977e+06
6.90358e+06
5.66342e+06
5.0023e+06
4.83636e+06
5.06851e+06
5.76616e+06
6.99317e+06
8.47007e+06
9.84453e+06
1.06304e+07
1.05583e+07
1.04926e+07
1.11054e+07
1.24519e+07
2.58424e+07
2.31035e+07
2.30815e+07
2.43451e+07
1.16416e+07
1.00272e+07
9.54204e+06
9.49078e+06
9.39147e+06
8.49961e+06
7.23702e+06
5.94857e+06
4.90868e+06
4.34724e+06
4.19905e+06
4.40072e+06
4.99206e+06
6.01622e+06
7.24569e+06
8.40243e+06
9.13978e+06
9.25807e+06
9.37351e+06
9.99738e+06
1.15079e+07
2.45673e+07
2.26367e+07
2.31321e+07
2.30901e+07
1.08207e+07
9.08277e+06
8.5873e+06
8.40055e+06
8.13592e+06
7.31312e+06
6.24788e+06
5.16646e+06
4.28754e+06
3.80822e+06
3.67593e+06
3.84874e+06
4.34378e+06
5.19809e+06
6.22769e+06
7.2069e+06
7.89929e+06
8.18531e+06
8.41686e+06
9.02769e+06
1.06811e+07
2.27266e+07
2.22254e+07
2.23728e+07
2.16657e+07
1.01152e+07
8.25468e+06
7.73014e+06
7.46238e+06
7.06881e+06
6.29717e+06
5.38705e+06
4.48592e+06
3.75888e+06
3.35816e+06
3.2429e+06
3.39831e+06
3.82461e+06
4.54317e+06
5.41195e+06
6.26268e+06
6.92361e+06
7.31145e+06
7.59662e+06
8.21278e+06
1.00084e+07
2.15887e+07
2.24915e+07
2.14577e+07
2.03699e+07
9.57354e+06
7.59133e+06
6.98436e+06
6.66382e+06
6.20854e+06
5.49865e+06
4.71061e+06
3.94303e+06
3.32644e+06
2.98377e+06
2.88151e+06
3.01769e+06
3.37693e+06
3.98095e+06
4.72139e+06
5.46486e+06
6.08632e+06
6.53014e+06
6.85034e+06
7.55185e+06
9.42628e+06
2.03356e+07
2.14504e+07
2.06165e+07
1.929e+07
9.11411e+06
7.10143e+06
6.335e+06
5.97791e+06
5.50451e+06
4.8429e+06
4.15174e+06
3.4906e+06
2.96749e+06
2.67151e+06
2.57829e+06
2.6987e+06
3.00513e+06
3.51354e+06
4.1483e+06
4.80652e+06
5.39602e+06
5.8553e+06
6.21401e+06
7.04264e+06
8.97349e+06
1.91763e+07
2.04087e+07
1.94502e+07
1.79509e+07
8.8202e+06
6.69597e+06
5.78358e+06
5.36257e+06
4.88639e+06
4.28169e+06
3.67543e+06
3.10335e+06
2.65597e+06
2.4033e+06
2.32116e+06
2.42977e+06
2.695e+06
3.13319e+06
3.68847e+06
4.27051e+06
4.81574e+06
5.27146e+06
5.68427e+06
6.63634e+06
8.67888e+06
1.82124e+07
1.97318e+07
1.89049e+07
1.67658e+07
8.58257e+06
6.41664e+06
5.33704e+06
4.85112e+06
4.37126e+06
3.82395e+06
3.2836e+06
2.78337e+06
2.39872e+06
2.17815e+06
2.10249e+06
2.19941e+06
2.42898e+06
2.80327e+06
3.28793e+06
3.80994e+06
4.31286e+06
4.77371e+06
5.25181e+06
6.34428e+06
8.57408e+06
1.70477e+07
1.88859e+07
1.84537e+07
1.57916e+07
8.16258e+06
6.20151e+06
5.00094e+06
4.4171e+06
3.93027e+06
3.43618e+06
2.95788e+06
2.51739e+06
2.17771e+06
1.98433e+06
1.91514e+06
2.00144e+06
2.20132e+06
2.52984e+06
2.95654e+06
3.42073e+06
3.87888e+06
4.34975e+06
4.93336e+06
6.1718e+06
8.30651e+06
1.59022e+07
1.82552e+07
1.76205e+07
1.46254e+07
7.62953e+06
6.02122e+06
4.74757e+06
4.05666e+06
3.55316e+06
3.09536e+06
2.66772e+06
2.2802e+06
1.98641e+06
1.81706e+06
1.75397e+06
1.83343e+06
2.01165e+06
2.29879e+06
2.67603e+06
3.09441e+06
3.52181e+06
4.00903e+06
4.69577e+06
6.06466e+06
7.82359e+06
1.48924e+07
1.76762e+07
1.71015e+07
1.3643e+07
7.14604e+06
5.98496e+06
4.56272e+06
3.77944e+06
3.24128e+06
2.8108e+06
2.42632e+06
2.0833e+06
1.82194e+06
1.671e+06
1.61333e+06
1.68539e+06
1.84204e+06
2.0973e+06
2.43029e+06
2.80686e+06
3.21124e+06
3.73886e+06
4.5226e+06
6.0738e+06
7.27352e+06
1.37552e+07
1.69769e+07
1.67345e+07
1.27276e+07
6.69794e+06
5.86231e+06
4.46593e+06
3.56696e+06
2.99435e+06
2.57269e+06
2.21736e+06
1.90923e+06
1.6792e+06
1.54431e+06
1.49091e+06
1.55734e+06
1.69605e+06
1.91942e+06
2.21817e+06
2.5683e+06
2.97121e+06
3.53754e+06
4.46418e+06
5.96578e+06
6.73774e+06
1.27575e+07
1.65908e+07
1.61761e+07
1.18358e+07
6.15012e+06
5.54721e+06
4.41129e+06
3.4e+06
2.80246e+06
2.36958e+06
2.03382e+06
1.75599e+06
1.55115e+06
1.43075e+06
1.38271e+06
1.44421e+06
1.56857e+06
1.77012e+06
2.04054e+06
2.37158e+06
2.7899e+06
3.38439e+06
4.46039e+06
5.66561e+06
6.19461e+06
1.19263e+07
1.63185e+07
1.58443e+07
1.11224e+07
5.6402e+06
5.22054e+06
4.51541e+06
3.30201e+06
2.6574e+06
2.21157e+06
1.88061e+06
1.62426e+06
1.44064e+06
1.33237e+06
1.28714e+06
1.34368e+06
1.45497e+06
1.63515e+06
1.88473e+06
2.21484e+06
2.64662e+06
3.29272e+06
4.59402e+06
5.31008e+06
5.63383e+06
1.11792e+07
1.58402e+07
1.55829e+07
1.056e+07
5.23365e+06
4.87355e+06
4.4887e+06
3.27301e+06
2.54804e+06
2.09211e+06
1.75542e+06
1.51178e+06
1.34289e+06
1.24395e+06
1.20201e+06
1.25325e+06
1.35443e+06
1.51963e+06
1.7574e+06
2.0933e+06
2.54182e+06
3.3079e+06
4.58918e+06
4.93438e+06
5.17296e+06
1.06063e+07
1.551e+07
1.51628e+07
1.00311e+07
4.83021e+06
4.50086e+06
4.26964e+06
3.32705e+06
2.47039e+06
1.99301e+06
1.6544e+06
1.41502e+06
1.256e+06
1.16547e+06
1.12617e+06
1.1746e+06
1.26735e+06
1.42374e+06
1.65859e+06
1.99947e+06
2.49644e+06
3.45676e+06
4.33173e+06
4.55067e+06
4.86891e+06
1.01412e+07
1.52701e+07
1.4876e+07
9.5796e+06
4.53311e+06
4.14992e+06
4.00235e+06
3.45535e+06
2.46908e+06
1.9179e+06
1.58025e+06
1.33444e+06
1.18131e+06
1.09506e+06
1.05798e+06
1.10317e+06
1.1901e+06
1.34153e+06
1.58202e+06
1.9228e+06
2.5278e+06
3.55093e+06
4.03208e+06
4.18241e+06
4.53182e+06
9.68019e+06
1.4903e+07
1.4652e+07
9.18654e+06
4.34589e+06
3.84798e+06
3.72328e+06
3.41639e+06
2.57854e+06
1.87343e+06
1.51566e+06
1.27271e+06
1.12031e+06
1.03466e+06
997790
1.04154e+06
1.12739e+06
1.27904e+06
1.51733e+06
1.88819e+06
2.69621e+06
3.45274e+06
3.71417e+06
3.86701e+06
4.29886e+06
9.25249e+06
1.46403e+07
1.44184e+07
8.75823e+06
4.11054e+06
3.5787e+06
3.44093e+06
3.22997e+06
2.79105e+06
1.885e+06
1.46498e+06
1.22608e+06
1.07454e+06
984320
946830
990987
1.0799e+06
1.23188e+06
1.47227e+06
1.9518e+06
2.86063e+06
3.24921e+06
3.41461e+06
3.60193e+06
4.1589e+06
8.87995e+06
1.44352e+07
1.42234e+07
8.37382e+06
3.97234e+06
3.35488e+06
3.18588e+06
3.03799e+06
2.84888e+06
2.05619e+06
1.44246e+06
1.18619e+06
1.03906e+06
947263
906188
953361
1.04222e+06
1.19038e+06
1.45622e+06
2.12099e+06
2.81666e+06
3.03467e+06
3.16164e+06
3.3697e+06
3.98628e+06
8.47606e+06
1.42419e+07
1.40494e+07
8.04431e+06
3.87238e+06
3.17571e+06
2.97424e+06
2.83885e+06
2.70285e+06
2.26314e+06
1.50974e+06
1.15718e+06
1.00557e+06
916691
873980
922175
1.00839e+06
1.16051e+06
1.53255e+06
2.30702e+06
2.67263e+06
2.82317e+06
2.95253e+06
3.18344e+06
3.84665e+06
8.10884e+06
1.40339e+07
1.37041e+07
7.63703e+06
3.7166e+06
3.01468e+06
2.7903e+06
2.64735e+06
2.54594e+06
2.30028e+06
1.68863e+06
1.16178e+06
977244
888852
847099
893972
981733
1.18119e+06
1.74581e+06
2.31386e+06
2.52184e+06
2.63851e+06
2.77657e+06
3.03148e+06
3.74915e+06
7.75263e+06
1.36567e+07
1.31617e+07
7.19545e+06
3.57118e+06
2.86985e+06
2.63318e+06
2.48238e+06
2.38029e+06
2.1993e+06
1.8675e+06
1.25132e+06
965414
864228
823477
868504
971764
1.28066e+06
1.89125e+06
2.20914e+06
2.36394e+06
2.47691e+06
2.62605e+06
2.88501e+06
3.59402e+06
7.29481e+06
1.30866e+07
1.16758e+07
6.57057e+06
3.40918e+06
2.72345e+06
2.49258e+06
2.33885e+06
2.22613e+06
2.08514e+06
1.8881e+06
1.44636e+06
1.00619e+06
851474
807688
854302
1.01664e+06
1.46654e+06
1.8701e+06
2.09114e+06
2.21602e+06
2.33765e+06
2.48848e+06
2.73428e+06
3.41425e+06
6.63782e+06
1.16244e+07
152175
111164
104584
103329
102315
102363
102501
103482
105234
107912
111486
115531
119905
124717
130180
136188
142544
149433
157022
165692
176129
188027
202091
218543
235693
229257
184425
170216
170786
286915
123939
96654.5
94643.2
95002.4
94986.6
95901.5
96859.4
98667.4
101164
104473
108440
112919
117406
121877
126705
132278
138022
143866
150089
157342
165599
175205
186422
199441
214600
227213
197669
127572
112890
149049
108043
89311.4
89081.3
90224.8
90789.6
92253.2
93908.7
96479
99748
103802
108316
113002
117517
121867
126367
131241
137057
142646
148714
155262
162391
170750
179885
189807
200304
210833
213255
156978
99247
109997
102756
87048.5
87012.7
88701.2
89685.2
91726.9
94076.6
97385.8
101397
106134
111155
116109
120825
125262
129670
134444
140249
146143
152461
158984
165974
173982
182702
192168
201918
211381
220137
211565
130178
106088
101561
86717.5
86756.7
88797.4
90326.8
93126.4
96242.4
100239
104896
110084
115469
120790
125771
130355
134802
139623
145327
151677
158217
164936
172040
179524
188388
197910
207553
216808
226934
236587
203776
145859
101754
86909.3
87040.2
89282.6
91503.8
94989.8
99124.1
104173
109642
115420
121134
126653
131854
136619
141132
146172
151687
158367
165016
171865
179006
186622
194861
204159
214204
223673
235107
253753
281973
353096
102511
87346.9
87662.6
90089.2
92859.8
97099.6
102326
108529
115166
121736
127917
133776
139180
144115
148890
153778
159211
165799
172547
179387
186525
193934
201937
210839
220488
229288
245520
283885
431742
500624
103609
88159.1
88759.3
91396
94939.5
100240
106735
114159
121837
129355
136295
142571
148222
153414
158284
162250
167495
173599
180442
187064
193954
201220
209075
217668
225708
237804
263159
356013
705890
583617
105350
89341.3
90337.9
93426.5
98178.4
104905
112913
121651
130524
138897
146517
153004
158829
163986
168119
171899
176307
181720
188228
194601
201211
208416
216295
224641
232930
248906
301113
538539
869607
646339
107574
90840.8
92406.3
96450.2
102855
111339
121029
131155
141104
150255
158276
164939
170412
174703
178569
182023
185384
189982
195768
202102
208524
215708
223561
230798
242499
267906
388439
777915
921792
690033
110323
92687.8
95196.3
100757
109319
119782
131273
142772
153549
163169
171315
177619
182400
185715
188833
191695
194273
198070
203124
209534
215842
222920
230599
238272
253793
306653
588177
887403
927835
718101
113179
94970.8
98976.5
106755
117891
130531
143906
156327
167470
177029
184547
189959
193768
196202
198496
200726
202647
205650
210154
216379
222680
229559
236814
246826
271049
396747
831618
920650
918067
740980
116655
98049.1
104208
114836
128844
143778
158228
170682
181559
190235
196719
201196
203924
205459
206924
208585
209977
212178
216197
222049
228411
235108
241811
255676
305838
602985
918788
927914
900266
762289
120368
102261
111329
125360
142241
158748
173162
184956
194742
201906
207138
210584
212116
212721
213475
214350
215401
216890
220527
225964
232558
239240
247668
268357
390836
832511
932333
919306
879639
779133
125876
108305
120830
138456
157528
174299
187828
198013
205860
211179
215089
217270
217556
217362
217311
217461
218200
219069
222331
227517
234505
241653
252801
295764
578115
906938
922275
903995
861344
792428
132179
116606
133013
153906
173792
189501
201088
208791
214143
217458
219838
220385
219448
218846
218161
217757
218023
218487
221243
226360
233896
241200
259313
364956
793214
910668
902645
883931
847188
801881
142319
128121
148368
171096
190026
203455
212316
216676
219192
220164
220739
219820
218098
216852
215368
215067
214868
215290
217549
222700
230867
240259
275811
517341
862155
892405
881749
862407
833510
805761
152513
142738
165942
189127
206114
216413
222085
223467
222678
221005
219833
217628
214967
212713
211456
210748
210013
210315
212083
217263
226051
240165
320189
704806
862860
867050
860210
841645
818005
803249
165884
160756
186589
207295
223309
231220
235130
233988
229580
224514
221055
216838
212272
209254
207875
206347
204899
204927
205953
210972
220046
245419
427695
788400
842174
841460
838737
821393
799873
794543
177596
183334
209308
231159
250207
259476
263846
259152
249339
238081
229724
221260
213653
208906
206310
203725
200979
199851
199554
204317
214761
267106
575555
798426
815444
817076
819049
800426
779337
780994
193691
212137
243639
269952
304555
320042
328037
313640
292687
267982
251549
235817
223754
214731
208063
200431
196240
193914
192706
197478
213089
324162
691445
781000
789384
792718
801179
779949
758724
764084
217119
267721
311972
383604
433263
446436
447895
415956
373837
327734
296180
268868
247584
228760
212364
201559
195050
191190
189307
192161
221458
442600
721963
757972
765558
770439
783225
760153
738155
745261
268027
354823
482302
574952
621331
638988
642854
586174
511163
432602
373179
328241
289031
252542
226772
211262
200184
193138
189168
192007
252976
571386
718357
733913
743798
750852
765498
740489
716863
725204
344784
758228
775649
794912
852926
902431
913524
833208
719572
596949
489595
413645
349034
295272
256278
232400
212747
201212
193402
200375
337547
649363
701765
711451
722317
735220
748594
721275
695791
704227
539131
1.86379e+06
1.3754e+06
1.051e+06
1.09746e+06
1.14745e+06
1.1993e+06
1.13863e+06
1.01279e+06
834001
656147
531907
439140
365193
305146
269036
236001
216557
204676
228395
472769
669195
684409
693236
703609
721317
733377
703535
676535
683506
286910
170769
170091
183764
228022
235518
218401
201917
187843
175906
165442
156737
149238
142355
136024
130049
124606
119823
115471
111442
107880
105219
103479
102506
102373
102331
103342
104602
111195
152322
149026
112789
126770
195487
226746
214346
199140
186107
174868
165280
157051
149845
143581
137751
132039
126560
121740
117295
112834
108372
104423
101124
98641
96844.9
95895.8
94985.4
95013.1
94671.3
96670.9
123948
109916
98749
154781
212462
210475
199906
189402
179491
170368
162028
154909
148414
142355
136824
131024
126114
121655
117343
112866
108219
103734
99694.9
96442.7
93888.4
92246.9
90792.9
90239.8
89108.3
89335
108045
105729
128381
210360
219695
210976
201482
191737
182275
173581
165610
158663
152165
145859
139983
134198
129365
124996
120604
115934
111023
106043
101336
97354.5
94070.5
91739.9
89713.9
88729.9
87044.9
87077.6
102720
143998
201546
235999
226539
216371
207092
197460
187986
179130
171672
164615
157919
151403
145061
139340
134478
130058
125520
120585
115310
109992
104861
100247
96276.4
93187.1
90412.8
88879.1
86828.7
86774.2
101554
348278
280044
253294
234706
223234
213770
203740
194440
186227
178644
171540
164726
158102
151427
145846
140796
136334
131614
126466
120986
115355
109692
104304
99309.6
95160.5
91667.2
89428.2
87161.2
87010.3
101864
498452
429563
283241
245113
228918
220084
210417
201511
193524
186148
179042
172231
165504
158928
153410
148723
144002
139056
133688
127916
121820
115393
108772
102559
97306.7
93052.6
90293.5
87837.8
87504.8
102586
582398
704883
355268
262773
237454
225334
217243
208633
200789
193554
186693
180098
173275
167189
162065
158147
153370
148203
142590
136453
129633
122112
114454
106999
100481
95152
91619.1
88982.9
88373.1
103823
645836
870979
537782
300637
248528
232513
224201
215832
207957
200775
194194
187857
181386
176015
171826
168077
163980
158876
153140
146857
139202
130861
121961
113220
105201
98436.1
93671
90592.7
89605.6
105643
690595
924780
778975
388074
267498
242068
230359
223077
215223
208061
201668
195370
189652
185131
182011
178535
174798
170641
165248
158781
150729
141534
131529
121408
111709
103184
96743.8
92685.5
91141.6
107951
719347
931316
889556
588899
306313
253353
237786
230108
222427
215372
209105
202739
197784
194100
191675
188870
185898
182917
178404
172077
163822
154045
143178
131730
120236
109734
101124
95505.1
93012.9
110783
742626
921731
923186
833433
396865
270620
246339
236322
229070
222217
215970
209799
205439
202612
200728
198769
196718
194441
190804
185174
177597
167962
156839
144343
131069
118423
107216
99339
95302.3
113616
764336
903967
930706
921035
604713
305576
255193
241280
234620
227948
221662
215876
212051
210049
208622
207292
206120
204647
202059
197312
190828
182070
171306
158951
144463
129527
115435
104636
98373
117088
781472
883159
922168
934777
834523
391280
267910
247146
238740
232092
225620
220274
216869
215615
214655
213944
213499
212842
211397
207693
202540
195300
185587
174049
159645
143169
126144
111873
102612
120851
794196
864405
906823
924696
908919
580368
295554
252305
241125
234056
227241
222197
219192
218567
218043
218101
218254
218345
218032
215563
211754
206483
198598
188745
175331
158605
139466
121554
108711
126440
803621
849714
886543
904902
912746
795766
365617
258898
240638
233519
226203
221299
218864
218443
218491
219167
219845
220435
221172
220203
217863
214704
209359
201962
190539
174924
155046
133897
117094
132876
807253
835627
864657
883864
894476
864475
519689
275704
240020
230662
222729
217858
215963
215646
216269
216995
217960
219029
220522
220993
220412
219648
217232
213209
204459
191170
172271
149299
128654
143029
804693
819868
843510
862216
869084
865073
708385
320916
240081
226066
217528
212677
211312
211212
212245
212828
214096
215783
218234
220172
221379
223414
224110
223106
217436
207185
190371
167036
143561
153428
795706
801605
823145
840677
843602
844512
791397
430272
245674
220095
211432
206711
206053
206300
208003
208942
210324
213066
217432
221310
224976
230728
235361
236742
232713
224501
208521
187968
161940
166889
781803
780830
802189
821118
819267
817979
801387
579546
267957
215287
204965
200430
200763
202298
205192
207191
209873
214421
222568
230469
238843
250924
261378
266556
261800
252918
233009
210926
184865
178811
764865
760109
781571
803181
794954
792162
783997
695113
326584
213817
198247
193815
194970
197219
201213
207909
215222
224111
237816
253726
271645
297132
317688
332488
324342
309433
273991
246401
213793
194917
745817
739487
761558
785053
772694
768493
760985
725343
446488
222554
193291
190461
192379
195881
202165
213115
229272
247412
271457
298414
332302
382698
425440
457032
454121
440543
390602
316666
271030
218442
725559
718091
741751
767319
753284
746876
737148
721605
575854
254542
193226
190248
194443
200939
212064
228289
254864
289264
332099
375363
435288
520687
601873
663883
655526
634168
590101
495205
362093
271098
704490
696759
722377
750375
737785
725558
715064
704964
652449
340656
201656
194271
202116
213650
233588
258652
299127
351812
422395
495265
600260
728083
848940
932661
919897
860446
804719
795851
772299
348699
683620
677011
704494
734853
723486
706584
697054
687793
672378
476025
229879
205185
217139
236963
270756
309243
371703
445713
544728
670332
849664
1.03222e+06
1.16233e+06
1.22095e+06
1.16651e+06
1.11003e+06
1.0643e+06
1.38955e+06
1.85216e+06
542912
91481.5
91485.2
91494.8
91504.2
91513.4
91522.7
91531.9
91541.1
91550.4
91559.6
91568.9
91578.2
91587.4
91596.7
91606
91615.3
91624.6
91633.9
91643.3
91652.6
91661.9
91671.3
91680.6
91690
91699.3
91708.7
91718.1
91727.4
91736.8
91746.2
91755.6
91764.9
91774.3
91785.1
91926.2
101341
522239
2.14036e+06
4.05053e+06
5.6254e+06
6.53774e+06
7.19599e+06
7.81336e+06
7.86502e+06
7.67321e+06
7.37938e+06
7.07487e+06
6.79385e+06
6.5358e+06
6.30353e+06
6.08377e+06
5.84928e+06
5.58439e+06
5.2927e+06
4.97625e+06
4.6551e+06
4.34285e+06
4.05191e+06
3.78142e+06
3.52791e+06
3.28837e+06
3.0599e+06
2.83972e+06
2.62789e+06
2.42448e+06
2.23185e+06
2.05832e+06
1.90013e+06
1.75802e+06
1.63103e+06
1.51672e+06
1.41388e+06
1.32094e+06
1.23715e+06
1.1619e+06
1.09421e+06
1.03312e+06
978235
929116
884475
843479
805807
770926
738280
707218
678628
652422
628014
605357
584674
566186
549966
535952
523696
512775
502914
494061
486354
479952
474865
471012
468218
466353
465361
465246
465939
467319
469301
471915
475262
479390
484339
490656
498387
507130
516970
528012
541028
555527
571199
587712
605295
623789
643006
662904
78011.8
78012.6
78015.7
78019
78022.2
78025.3
78028.5
78031.6
78034.7
78037.7
78040.7
78043.7
78046.7
78049.6
78052.5
78055.4
78058.2
78061.1
78063.8
78066.6
78069.3
78072
78074.7
78077.3
78079.9
78082.5
78085.1
78087.6
78090.1
78092.6
78095
78097.5
78099.9
78102.7
78146.9
89699.5
1.26685e+06
7.30011e+06
1.28989e+07
1.43773e+07
1.38466e+07
1.2082e+07
1.02659e+07
8.92555e+06
7.79457e+06
6.92853e+06
6.30596e+06
5.94367e+06
5.68993e+06
5.50811e+06
5.34992e+06
5.20769e+06
5.0934e+06
4.99122e+06
4.89493e+06
4.78074e+06
4.62651e+06
4.43094e+06
4.21123e+06
3.97184e+06
3.71322e+06
3.44364e+06
3.17157e+06
2.90464e+06
2.65614e+06
2.4362e+06
2.24218e+06
2.07774e+06
1.93806e+06
1.81431e+06
1.70348e+06
1.60525e+06
1.51636e+06
1.43542e+06
1.36139e+06
1.2941e+06
1.23211e+06
1.17523e+06
1.12394e+06
1.07641e+06
1.0326e+06
991682
953563
917774
883709
850911
819764
790528
763199
737484
713650
692023
673072
656283
640895
626542
613350
601613
591407
582593
574752
567563
561022
555332
550531
546530
543251
540551
538311
536602
535577
535457
536785
539529
543027
547440
553412
561432
571443
582252
594854
609547
625635
642395
659285
77183.6
77183.7
77184.2
77184.8
77185.4
77186
77186.6
77187.2
77187.7
77188.3
77188.8
77189.4
77189.9
77190.4
77190.9
77191.4
77191.9
77192.3
77192.8
77193.3
77193.7
77194.2
77194.6
77195
77195.4
77195.8
77196.2
77196.6
77197
77197.4
77197.8
77198.1
77198.5
77199.9
77235.8
80572.5
418474
4.85522e+06
1.02291e+07
1.08041e+07
1.02622e+07
1.00825e+07
9.35653e+06
8.35477e+06
7.58849e+06
7.0717e+06
6.65491e+06
6.30157e+06
6.02328e+06
5.83411e+06
5.68519e+06
5.57115e+06
5.45168e+06
5.422e+06
5.48233e+06
5.60036e+06
5.7837e+06
5.94745e+06
6.04373e+06
5.93763e+06
5.61251e+06
5.15995e+06
4.68997e+06
4.23637e+06
3.81171e+06
3.43123e+06
3.10028e+06
2.81028e+06
2.55894e+06
2.34319e+06
2.15582e+06
1.99273e+06
1.85013e+06
1.72609e+06
1.61724e+06
1.52107e+06
1.43574e+06
1.35983e+06
1.29244e+06
1.23185e+06
1.17665e+06
1.12693e+06
1.08148e+06
1.03899e+06
999153
962174
927310
893877
863021
834661
809003
785627
764726
746136
729022
712800
697691
684191
672152
661506
651863
642814
634405
626670
619914
614193
609332
605078
601266
597809
594892
592782
591766
591811
592686
594677
598176
603551
610543
618943
629444
642104
656348
671996
688117
77108.9
77109
77109.3
77109.5
77109.7
77109.9
77110.1
77110.4
77110.6
77110.8
77111
77111.2
77111.4
77111.6
77111.8
77112
77112.1
77112.3
77112.5
77112.7
77112.9
77113.1
77113.2
77113.4
77113.6
77113.7
77113.9
77114.1
77114.2
77114.4
77114.5
77114.7
77115.5
77138.7
79253.4
297248
3.62804e+06
8.1666e+06
7.66582e+06
6.50439e+06