/*--------------------------------*- C++ -*----------------------------------*\
| =========                 |                                                 |
| \\      /  F ield         | OpenFOAM: The Open Source CFD Toolbox           |
|  \\    /   O peration     | Version:  2112                                  |
|   \\  /    A nd           | Website:  www.openfoam.com                      |
|    \\/     M anipulation  |                                                 |
\*---------------------------------------------------------------------------*/
FoamFile
{
    version     2.0;
    format      ascii;
    arch        "LSB;label=32;scalar=64";
    class       volScalarField;
    location    "0.0054";
    object      k;
}
// * * * * * * * * * * * * * * * * * * * * * * * * * * * * * * * * * * * * * //

dimensions      [0 2 -2 0 0 0 0];

internalField   nonuniform List<scalar> 
13875
(
812.102
3462.63
3540.33
3538.91
3541.67
3540.39
3541.68
3541.44
3539.79
3540.13
3541.95
3541.52
3540.73
3540.08
3540.62
3541
3542.13
3540.8
3540.38
3540.14
3541.01
3539.16
3540.09
3460.29
820.505
881.796
2936.63
3013.02
3000.26
3001.43
2998.05
2998.34
2998.75
2997.44
2996.49
2996.86
2998.47
2996.48
2996.34
2996.38
2998.05
2996.29
2996.7
2996.91
2998.74
3000.36
2999.41
3011.58
2933.44
894.618
993.368
2710.86
2777.5
2755.07
2759.17
2754.61
2747.82
2745.98
2744.04
2742.81
2742.09
2744.22
2751.27
2752.18
2751.05
2744.02
2741.17
2742.75
2745.55
2755.56
2757.67
2753.24
2774.39
2706.44
998.551
1091.08
2533.68
2581.05
2561.26
2567.04
2562.22
2554.02
2550.83
2548.79
2548.08
2547.65
2548.19
2559.13
2560.09
2558.99
2548.04
2547.29
2547.95
2551.45
2563.01
2565.46
2559.42
2578.99
2529.65
1094.08
1172.12
2380.46
2413.24
2392.72
2398.33
2393.54
2384.73
2381.57
2380.34
2380.03
2379.51
2379.22
2390.07
2391.57
2389.98
2379.16
2379.18
2379.58
2382.56
2394.26
2396.8
2391.14
2410.35
2375.81
1177.57
1241.01
2237.13
2271.01
2244.86
2251.57
2245.42
2234.92
2231.84
2231.3
2231.36
2230.65
2229.68
2240.64
2242.53
2240.57
2229.73
2230.53
2230.63
2233.26
2245.82
2249.98
2243.62
2267.73
2247.52
1247.18
1320.96
2121.81
2158.43
2120.4
2123.51
2115.43
2102.69
2099.05
2098.98
2099.28
2098.39
2096.8
2107.93
2109.96
2107.59
2096.91
2098.74
2098.58
2101.61
2115.58
2121.95
2119.7
2154
2095.8
1323.17
1409.72
2000.64
2073.61
2019.54
2016.57
2002.65
1986.39
1981.57
1981.57
1982.03
1980.95
1978.47
1989.89
1992.27
1989.46
1978.64
1981.78
1981.68
1985.53
2002.1
2014.01
2017.66
2068.14
1992.68
1419.96
1691.3
2029.33
2022.2
1944.59
1925.46
1905.1
1884.54
1877.94
1877.9
1878.63
1877.46
1874.2
1885.85
1888.65
1885.51
1874.74
1878.71
1878.78
1883.48
1903.76
1923.04
1942.34
2018.05
2033.64
1716.6
2508.45
2284.6
2017.54
1900.47
1859.53
1826.89
1803.18
1796.15
1795.24
1795.61
1794.26
1790.74
1801.92
1805.17
1802.02
1792.6
1796.03
1797.16
1802.25
1825.07
1855.94
1893.3
2011.03
2264.9
2528.25
3876.17
3026.55
2154.2
1917.58
1818.33
1773.46
1746.49
1736.52
1734.17
1733.41
1731.74
1728.29
1738.31
1741.9
1739.82
1732.94
1735.34
1738.08
1746.82
1771.62
1815.14
1908.86
2131.15
2938.21
3858.34
5184.67
6456.75
2851.85
1993.54
1857.46
1760.78
1715.79
1701.39
1695.34
1692.86
1690.82
1687.89
1695.81
1699.52
1699.2
1695.22
1697.34
1703.35
1715.98
1760.75
1847.64
1971.4
2782.54
6328.19
5118.94
5056.8
7630.25
7049.41
3338.94
2050.04
1806.63
1750.37
1710.44
1695.85
1688.26
1684.48
1681.23
1686.66
1690.3
1692.37
1692.85
1699.68
1714.68
1754.2
1818.68
2097.08
3233.81
6746.06
7635.95
5009.73
4822.96
6360.17
7187.09
8806.21
5195.89
2354.07
1921.39
1816.71
1777.47
1767.73
1765.51
1762.98
1767.63
1771.04
1773.62
1774.4
1782.92
1821
1953.06
2467.37
5710.89
8144.64
6952.02
6324.96
4829.59
4605.29
5533.16
6067.82
7068.08
6850.3
6831.86
3524.21
2502.24
2280.86
2149.34
2098.8
2081.86
2081.99
2088.25
2100.52
2133.47
2248.95
2502.08
3508.94
6859.17
6992.28
6725.46
5959.75
5492.82
4682.32
4306.22
4823.12
5182.12
6026.28
6172.09
6699.93
5735.54
5126.4
5357.9
5023.13
4820
4898.83
4941.26
4926.37
4835.84
4859.56
5511.7
5271.67
5711.14
6820.27
6208.93
5804.16
5094.16
4783.37
4373.08
3772.64
4103.69
4485.52
5331.65
5832.91
6803.92
8301.19
9988.4
7865.66
6635.69
6581.09
6752.44
6846.31
6798.15
6672.23
6575.22
7716.59
9778.23
8511.03
6905.89
5860.85
5198.66
4337.71
3997.15
3750.84
3122.65
3511.73
4304.88
5370.74
5870.34
6551.28
8359.77
9781.42
6748.86
5393.3
5180.34
5263.04
5340.79
5303.48
5238.46
5416.26
6667.12
9156.21
8326.2
6683.05
6012.12
5415.47
4237.94
3425.46
3075.14
2685.6
3379.68
4443.32
5926.58
6292.37
5880.75
6720.79
7787.27
6525.24
5205.08
4630.77
4505.88
4516.71
4537.8
4630.66
5075.95
6215.7
7448.22
6757.49
5952.13
6489.62
6157
4487.59
3388.91
2677.89
2596.71
3527.51
4797.96
5899.01
5775.84
5211.71
5560.96
6459.58
6156.41
5110.07
4317.04
3978.83
3919.5
4021.15
4324.74
4961.44
5828.39
6197.78
5574.3
5308.26
5919.29
5966.08
4892.14
3628.49
2595.84
3153.62
6542.06
5415.76
5012.44
4962.39
4564.38
4787.7
5584.82
5667.25
4845.57
3985.89
3533.41
3439.49
3605.88
4031.71
4718.27
5357.91
5363.32
4796.08
4673.49
5099.2
5096.53
5595.85
6875.24
2878.81
8942.97
15316.6
5983.15
4319.72
4319.29
4033.27
4233.28
4943.48
5159.32
4475.95
3632.94
3142.73
3029.35
3223.68
3683.49
4348.13
4869.1
4760.85
4246.4
4130.25
4417.16
4399.94
6372.73
15667.1
8583.9
10583.3
12866.1
5340.87
3828.3
3793.72
3604.62
3794.56
4425.32
4668.87
4071.85
3281.94
2799.58
2677.17
2868.71
3315.94
3938.07
4400.86
4265.79
3802.44
3687.52
3855.08
3885.71
5649
14963.3
10737.2
10306.6
10896.5
4595.76
3450.94
3368.66
3253.8
3424.65
3976.54
4216.81
3657.46
2927.41
2487.88
2379.2
2562.7
2977.95
3547.71
3977.75
3831.31
3421.54
3333.7
3431.87
3513.82
4849.14
11731
10655.9
9984.03
9557.53
4076.75
3170.9
3039.9
2961.52
3122.54
3591.48
3804.06
3289
2625.32
2226.08
2129.02
2298.09
2681.64
3200.97
3592.84
3455.85
3106.82
3030.78
3105.01
3232.87
4292.35
10449.5
10301.1
9631.83
8798.14
3667.11
2939.87
2776.97
2718.68
2870.3
3263.15
3430.7
2958.96
2366.63
2005.95
1916.76
2070.79
2416.14
2876.66
3232.64
3131.82
2842.01
2766.19
2831.91
2992.84
3818.34
9232.61
9832.46
9264.27
8000.45
3335.34
2733.4
2560.37
2514.43
2660.1
2976.91
3081.38
2652.18
2134.01
1816.63
1737.39
1879.57
2192.4
2602.32
2925.11
2856.95
2617.52
2544.24
2615.62
2788.7
3496.92
8613.45
9550.2
9108.08
7655.12
3116.7
2553.21
2386.29
2346.15
2475.34
2728.43
2780.73
2391.87
1939.62
1657.47
1584.53
1714.22
1992.58
2351.09
2643.08
2615.32
2425.95
2358.64
2432.9
2598.38
3251.21
8151.39
9344.35
9069.43
7459.53
2960.47
2398.3
2242.53
2208.3
2315.36
2509.91
2517.17
2168.77
1773.73
1520.93
1453.22
1569.93
1815.76
2129.15
2393.21
2401.24
2260.75
2204.93
2273.98
2433.37
3046.55
7656.5
9140.52
8829.18
7138.31
2838.29
2260
2116.35
2094.87
2176.81
2309.21
2272.12
1961.15
1621.87
1401.34
1340.38
1449.37
1670.36
1945.1
2182.2
2216.82
2118.77
2079.47
2135.39
2292.25
2910.93
7427.39
9037.54
8554.91
6817.23
2760.43
2153.81
2005.24
1987.14
2049.69
2135.52
2070.67
1793.18
1496.38
1298.84
1242.19
1341.43
1537.58
1779.05
1994.18
2051.55
1992.71
1965.56
2013.61
2174.61
2811.62
7169.68
8771.33
8313.13
6508.59
2699.02
2072.19
1908.37
1887.42
1934.61
1982.38
1898.29
1649.34
1388.36
1210.46
1157.32
1247.9
1422.89
1635.55
1830.15
1906.38
1879.57
1862.65
1911.65
2086.62
2748.1
6784.28
8445.86
7997.83
6135.03
2654.4
2011.71
1826.16
1794.84
1825.72
1842.76
1742.37
1519.5
1290.35
1131.63
1082.92
1167.23
1325.81
1516.7
1693.13
1779.17
1775.55
1769.02
1823.77
2022.84
2714.72
6435.87
8179.54
7790.16
5840.61
2626.84
1984.67
1760.95
1707.73
1725.63
1720.87
1610.44
1410.44
1207.68
1063.92
1018.04
1095.12
1238.2
1407.56
1566.19
1664.46
1679.7
1683.52
1755.91
1989.87
2697.84
6056.6
7919.02
7626.71
5624.71
2570.23
1974.27
1714.22
1628.66
1630.81
1611.2
1497.56
1317.27
1135.06
1004.04
960.701
1031.39
1161.06
1314.75
1458.65
1560.8
1589.28
1605.21
1709.64
1988.03
2653.27
5728.12
7723.39
7373.57
5333.9
2472.19
1974.73
1687.56
1561.2
1544.76
1508.22
1393.87
1231.53
1068.78
950.438
910.12
976.441
1095.44
1234.36
1366.18
1469.2
1508.8
1540.33
1681.29
2006.3
2570.06
5486.36
7560.3
7177.03
5127.18
2384.72
2016.56
1675.39
1507.63
1467.45
1416.8
1306.78
1160.09
1011.77
903.139
864.677
925.858
1034.59
1162.48
1282.57
1381.95
1435.33
1488.2
1670.06
2057.44
2466.14
5202.51
7310.05
7015.9
4954.18
2319.79
2030.45
1691.74
1468.76
1403.53
1338.01
1230.47
1096.05
960.887
860.86
824.065
881.007
980.647
1097.62
1209.41
1306.46
1375.06
1451.86
1693.9
2074.24
2369.52
4966.26
7107.87
6813.03
4764.36
2210.72
1982.55
1714.65
1444.18
1349.26
1266.89
1161.1
1036.7
912.934
821.366
786.973
840.511
933.259
1042.11
1146.68
1241.58
1323.81
1428.38
1725.06
2029.23
2270.54
4781.9
6951.75
6642.38
4614.23
2105.47
1921.14
1778.15
1436.93
1310.48
1209.8
1102.45
984.872
870.706
786.201
753.234
803.068
888.339
989.691
1090.25
1186.42
1285.26
1421.46
1796.02
1959.21
2147.27
4590.52
6770.77
6505.72
4501.97
2020.57
1844.16
1804.44
1451.24
1280.04
1166.25
1053.43
939.734
832.006
753.431
722.007
768.429
847.466
943.179
1042.2
1143.39
1259.96
1439.22
1824.57
1875.43
2032.69
4455.82
6617.54
6357.89
4370.27
1924.48
1752.03
1768
1491.39
1259.44
1131.21
1011.45
897.95
795.463
723.206
693.518
737.868
811.19
903.568
1003.5
1111.44
1243.86
1488.77
1784.14
1783.59
1960.91
4351.93
6499.97
6242.66
4255.63
1852.12
1662.15
1698.03
1552.33
1265.73
1104.06
982.078
864.5
763.71
695.562
667.063
708.883
777.611
868.646
974.764
1086.23
1250.99
1561.18
1714.05
1686.47
1876.82
4228.71
6351.77
6148.74
4146.33
1824.74
1585.43
1618.16
1566.64
1307.3
1086.18
956.705
838.188
737.112
671.17
643.375
683.123
748.964
840.255
950.186
1070.25
1302.01
1592.49
1632.67
1604.79
1815.09
4118.77
6246.51
6038.34
4032.41
1762.81
1513.16
1533.95
1512.87
1385.81
1088.12
936.559
818.003
716.473
650.58
622.803
662.064
727.294
820.542
932.686
1081.06
1397.4
1532.29
1547.78
1537.27
1795.95
4023.7
6161.5
5952.12
3924.08
1748.17
1455.16
1453.02
1449.27
1414.75
1143.74
927.672
801.128
701.021
635.548
606.217
646.252
710.099
802.692
923.05
1138.02
1431.49
1463.59
1467.88
1476.5
1762.05
3918.82
6082.13
5867.36
3834.04
1748.83
1408.96
1384.39
1378.94
1361.47
1228.28
954.838
789.429
687.017
623.007
594.04
633.174
695.271
790.013
947.32
1236.45
1377.49
1392.87
1399.98
1425.77
1742.48
3821.34
5991.51
5736.02
3722.15
1722.56
1365.75
1324.34
1311.79
1305.58
1253.87
1031.42
791.988
675.947
613.051
584.705
622.745
684.463
796.466
1034.47
1270.22
1318.42
1325.75
1341.52
1387.82
1744.26
3726.58
5850.7
5531.25
3592.23
1701.35
1329.43
1272.58
1252.67
1246.25
1211.96
1113.95
837.083
672.459
604.555
576.03
613.341
680.08
842.832
1114.99
1226.84
1256.76
1267.76
1290.62
1349.58
1717.66
3593.14
5637.34
5074.32
3380.74
1675.22
1292.6
1228.14
1201.89
1188.31
1166.21
1131.82
935.77
694.692
601.706
570.811
609.016
701.144
939.308
1128.85
1178.76
1197.54
1217.15
1245.84
1310.34
1681.85
3376.11
5181.35
530.485
919.098
1188.1
1317.45
1369.24
1366.43
1346.5
1332.26
1350.38
1401.78
1455.47
1474.44
1367.39
1252.97
1193.82
1161.86
1132.32
1102.7
1083.71
1070.45
1058.52
1047.72
1039.06
1027.95
1003.65
956.946
887.487
785.606
642.321
460.102
595.514
954.083
1204.22
1322.22
1375.03
1373.25
1352.6
1332.69
1346.8
1401.39
1468.81
1497.44
1428.52
1285.43
1209.3
1171.96
1131.12
1098.38
1076.17
1061.26
1047.24
1035.1
1025.96
1014.04
990.625
943.154
871.605
767.922
626.003
455.318
659.321
1008.82
1241.29
1344.13
1397.43
1390.37
1361.41
1331.87
1336.34
1381.28
1445.95
1489.8
1464.27
1309.13
1213.88
1168.7
1125.02
1086.15
1061.92
1046.24
1030.85
1018.62
1008.5
994.571
970.931
923.328
851.093
747.352
608.937
450.851
725.763
1068.45
1290.35
1384.06
1436.88
1423.39
1384.69
1341.97
1328.26
1360.75
1419.25
1477.74
1479.95
1341.57
1223.18
1167.84
1123.05
1074.37
1047.03
1029.71
1013.02
1000.29
988.815
972.813
948.113
900.01
827.62
725.204
591.448
444.728
785.551
1127.83
1362.4
1460.28
1517.6
1500.65
1444.89
1371.89
1326.88
1335.53
1381.69
1442.25
1468.58
1368.68
1230.05
1166.39
1118.31
1065.83
1030.21
1010.21
992.653
979.444
966.615
948.488
922.177
873.694
801.925
702.731
574.773
439.899
846.496
1196.99
1479.26
1600.06
1681.36
1660.56
1568.82
1443.12
1350.78
1320.56
1345.62
1398.5
1440.85
1391.16
1234.5
1165.03
1117.07
1058.67
1014.12
989.835
971.433
957.64
943.657
923.566
895.267
846.59
775.438
678.437
556.649
433.513
905.39
1279.74
1670.1
1849.21
1992.78
1957.37
1799.36
1582.5
1414.8
1325.6
1314.54
1352.41
1401.77
1384.45
1235.65
1160.29
1116.43
1053.34
998.273
969.01
949.659
935.516
920.797
899.27
868.521
818.125
746.72
649.409
532.6
420.249
967.567
1390.31
1988.06
2302.33
2569.61
2478.49
2217.43
1841.12
1546.51
1365.1
1296.25
1309.53
1356.86
1354.5
1230.75
1155.6
1113.36
1050.42
984.213
948.662
927.019
912.332
896.965
874.056
840.322
785.187
709.726
613.576
504.162
403.991
1036.27
1560.63
2533.74
3121.78
3581.3
3396.72
2956.29
2291.92
1783.47
1456.01
1300.11
1273.05
1309.87
1315.98
1220.32
1139.77
1107.35
1046.22
973.365
926.58
899.758
882.204
863.107
836.155
796.88
741.874
670.28
581.588
481.776
392.854
1117.37
1844.19
3456.03
4437.49
4735.02
4440.24
3955.74
3009.94
2162.8
1619.03
1335.61
1247.95
1264.94
1275.12
1202.62
1116.59
1099.69
1042.19
962.021
901.092
868.685
848.001
826.234
797.506
759.004
706.971
639.731
556.833
464.578
383.737
1217.99
2327.81
4797.51
5432.88
5303.98
4937.92
4535.02
3795.2
2659.32
1852.25
1407.28
1239.49
1225.33
1233.27
1179.04
1088.76
1093.45
1041.33
951.801
878.453
838.171
815.051
792.477
763.862
726.431
676.177
612.13
534.195
448.782
375.33
1357.35
3126.65
5943.62
5991.02
5483.22
4924.89
4699.89
4195.46
3120.9
2106.08
1509.98
1246.75
1189.73
1191.16
1153.08
1058.95
1075.79
1046.43
946.956
859.622
810.648
784.866
761.717
733.022
696.178
647.508
586.536
513.288
434.276
367.309
1560.64
4297.72
6891.09
6397.89
5523.35
4742.28
4563.77
4358.23
3380.15
2308.92
1605.99
1257.95
1158.66
1149.36
1121.97
1032.67
1048.18
1063.81
953.193
844.297
786.966
757.349
733.407
704.516
668.065
620.933
562.909
494.131
420.877
359.84
1846.84
5709.12
7738.47
6788.93
5594.12
4626.41
4320.89
4393.14
3446.47
2422.58
1654.69
1262.89
1129.93
1109.28
1088.49
1007.29
1019.49
1069.94
980.815
839.369
766.687
732.807
707.279
678.248
642.117
596.439
541.205
476.601
408.645
352.92
2221.71
7050.16
8583.32
7229.68
5715.72
4591.22
4104.67
4340.92
3444.33
2411.86
1640.04
1244.7
1099.49
1070.4
1056.63
984.858
995.055
1053.32
1045.66
854.864
751.882
711.767
683.194
653.962
618.151
573.9
521.322
460.576
397.598
346.479
2669.62
8370.25
9519.72
7669.78
5849.11
4609.29
3960.06
4168.27
3395.03
2315.56
1576.89
1201.31
1065.82
1035.91
1029.33
967.845
979.98
1037.29
1091.9
911.821
749.622
693.296
660.708
631.323
595.901
552.998
502.879
445.632
387.237
340.01
3193.76
9754.29
10549.5
8121.22
6017.44
4617.46
3870.63
3885
3271.96
2156.5
1485.31
1157.88
1036.3
1011.91
1009.43
957.355
971.118
1025.01
1085.49
1042.87
775.624
679.637
641.475
609.99
574.945
533.329
485.334
431.174
376.9
333.134
3818.49
11260.3
11649.9
8591.55
6199.17
4609.79
3847.32
3666.92
3109.09
2084.38
1421.15
1124.07
1018.4
1003.17
997.811
952.474
968.596
1025.01
1072.44
1119.97
864.957
680.611
624.98
589.274
554.887
514.497
468.367
416.961
366.352
325.768
4524.24
12896.6
12788.4
9156.06
6419.94
4721.03
3900.9
3563.25
2931.95
2047.25
1402.94
1116.83
1024.89
1013.94
992.199
952.583
975.428
1027.74
1064.48
1115.76
1051.74
722.532
613.088
571.088
535.544
496.656
452.149
403.281
356.428
318.535
5315.98
14740.2
13953.7
9841.79
6780.13
4947.47
4029.49
3529.29
2846.73
2003.36
1439.44
1170.13
1070.81
1039.66
999.999
964.836
991.097
1031.7
1064.53
1095.58
1116.91
856.681
622.506
557.02
516.487
479.727
437.215
390.919
347.932
311.956
6530.67
16594.6
15144.5
10716.1
7291.17
5277.83
4265.82
3622.69
2923.84
2059.17
1541.81
1276.44
1135.58
1074.2
1025.23
997.398
1012.24
1036.74
1062.34
1080.56
1099.36
1037.06
686.54
551.87
502.859
462.28
423.068
379.53
340.09
305.788
7683.47
18723.6
16555
11854.9
8042.5
5794
4627.21
3883.87
3118.65
2202.88
1655.89
1359.04
1203.38
1107.41
1055.32
1047.57
1041.36
1045.56
1055.7
1063.53
1069.73
1058.73
846.942
571.674
493.27
449.341
408.433
368.45
332.097
299.85
9076.05
19855.5
17963
13363
9162.25
6534.8
5130.2
4282.92
3424.81
2425.8
1769.93
1435.18
1273.19
1148.34
1090.5
1079.04
1066.83
1062.3
1050.45
1045.28
1041.94
1028.2
970.085
643.258
493.266
440.26
398.167
357.16
324.614
294.434
9986.9
21735.3
19924.9
15554.3
10854.7
7598.36
5766.13
4775.76
3891.51
2801.21
1960.22
1559.71
1346.31
1207.64
1127.17
1098.18
1073.92
1062.73
1048.84
1030.48
1016.79
993.318
971.025
797.192
517.31
435.249
391.182
350.014
317.684
289.495
10286.5
21377.2
23034.3
18986.5
13313.9
9086.31
6644.32
5380.52
4472.13
3362.48
2307.88
1734.01
1426.03
1273.29
1165.35
1111.66
1076.34
1060.45
1045.36
1024.05
1001
969.287
945.507
884.853
591.417
439.564
386.118
345.194
312.641
284.083
462.237
645.473
789.206
890.777
958.982
1003.67
1026.64
1037.93
1046.89
1057.43
1068.63
1081.69
1101.07
1130.14
1161.08
1195.54
1262.19
1387.57
1470.22
1443.98
1385.63
1337.26
1323.38
1337.85
1357.21
1357.8
1304.91
1178.39
913.458
536.915
457.468
629.181
771.551
874.784
944.814
990.123
1012.53
1024.84
1034.45
1046.73
1059.49
1074.38
1097.25
1130.57
1171.54
1211.95
1298.4
1454.45
1494.4
1453.66
1384.81
1336.08
1324.86
1345.96
1366.93
1370.97
1315.44
1195.99
949.604
602.355
452.971
611.997
750.865
854.08
924.714
970.216
993.111
1007.43
1018.2
1030.73
1044.47
1060.15
1084.89
1124.76
1168.73
1218.32
1324.08
1470.95
1482.38
1430.35
1366.59
1326.68
1327.47
1359.46
1389.44
1395.74
1339.94
1235.16
1006.63
666.633
446.711
594.28
728.465
830.398
901.253
947.341
971.525
987.794
1000.05
1013.34
1028.13
1045.49
1074.41
1123.1
1168.5
1230.13
1359.35
1479.88
1466.78
1403.55
1347.44
1321.1
1342.9
1389.35
1428.87
1438.32
1384.26
1288.33
1064.52
731.18
441.696
577.258
705.583
804.348
874.788
921.466
947.428
965.573
979.182
993.334
1009.03
1029.15
1066.7
1118.99
1168.08
1239.03
1390.11
1463.74
1429.14
1367.68
1325.77
1325.14
1380.73
1458.86
1515.2
1531.87
1467.98
1369.34
1125.41
789.304
435.091
558.886
681.056
777.619
847.45
894.673
922.711
942.65
957.394
972.266
989.233
1013.85
1060.21
1118.86
1167.58
1245.62
1406.89
1433.88
1385.58
1333.77
1316.58
1357.33
1461.91
1596.97
1693.8
1712.01
1618.78
1493.19
1196.18
849.415
421.704
534.722
652.027
748.848
818.937
868.067
898.331
919.822
935.172
950.209
969.033
998.566
1056.08
1119.05
1164.07
1249.01
1387.09
1393.29
1341.23
1306.96
1329.77
1433.17
1618.46
1854.4
2017.6
2050.15
1887.84
1696.07
1283.29
908.914
405.307
506.225
616.097
712.13
786.695
840.082
872.843
895.64
911.699
927.265
949.247
986.242
1054.19
1116.27
1159.42
1245.5
1354.41
1348.34
1300.76
1295.01
1381.36
1585.4
1909.49
2313.16
2585.64
2669.96
2377.36
2033.93
1401.46
972.456
394.14
483.995
584.3
672.82
743.532
797.64
836.247
862.598
881.834
899.865
927.593
976.297
1050.53
1109.72
1141.98
1234.73
1315.72
1302.35
1268.18
1308.53
1490.02
1855.02
2409.36
3136.76
3582.11
3763.15
3255.95
2610.8
1585.21
1043.8
384.782
466.471
559.207
642.188
708.86
760.312
798.368
826.508
848.195
869.203
902.472
965.679
1046.73
1101.44
1118.72
1215.93
1274.8
1260.13
1249.15
1357.78
1678.2
2278.85
3215
4115.61
4584.54
4869.95
4585.22
3570.51
1890.47
1128.85
376.115
450.342
536.169
614.266
677.904
727.668
764.73
793.043
815.633
839.288
881.169
956.322
1045.86
1094.46
1091.57
1191.89
1233.77
1223.24
1248.96
1446.45
1939.53
2812.53
3970.49
4658.3
5018.72
5397.99
5537.24
4907.86
2408.76
1235.11
367.886
435.55
514.896
588.352
649.057
697.366
733.913
762.371
785.628
812.203
863.191
952.712
1049.87
1072.75
1064.5
1163.64
1192.54
1190.86
1264.47
1566.21
2213.67
3282.42
4343.88
4765.57
4971.61
5576.52
6096.33
6034.47
3253.1
1383.7
360.245
421.913
495.439
564.446
622.32
669.202
705.41
734.092
758.212
789.011
848.923
959.845
1064.66
1044.27
1039.61
1128.25
1151.33
1163.77
1284.72
1673.17
2429
3516.98
4467.58
4576.8
4804.85
5635.35
6533.85
6994.7
4457.66
1598.12
353.182
409.492
477.681
542.519
597.683
643.199
679.133
708.012
733.894
769.188
845.291
987.307
1063.01
1014.84
1013.88
1093.91
1111.34
1138.58
1295.32
1723.1
2545.14
3579.02
4479.92
4344
4709.79
5729.37
6966.32
7871.63
5860.74
1895.73
346.649
398.296
461.466
522.44
575.008
619.181
654.829
684
712.91
755.063
862.048
1048.01
1043.93
989.268
990.624
1061.3
1072.53
1109.28
1277.73
1710.44
2526.25
3590.01
4417.98
4172.35
4690.91
5868.32
7441.96
8761.75
7186.04
2278.09
340.129
387.84
446.362
503.822
553.981
596.863
632.216
661.634
694.55
753.889
919.079
1081.68
1026.88
972.715
972.272
1033.44
1037.75
1074.76
1230.53
1639.38
2421.6
3545.58
4220.25
4024.71
4717.45
6010.15
7911.87
9746.23
8507.72
2729.26
333.17
377.382
431.754
486.132
534.185
575.82
610.934
642.573
681.426
781.221
1043.21
1071.35
1013.83
962.323
959.278
1012.55
1012.98
1044.15
1183.16
1536.85
2260.24
3414.79
3935.94
3942.71
4733.39
6189.48
8392.37
10824.9
9903.08
3249.84
325.722
366.55
417.386
469.002
515.243
555.686
590.24
626.089
683.433
870.4
1106.13
1056.69
1012.53
958.532
949.824
1001.23
1002.98
1023.75
1143.36
1465.27
2186.69
3224.6
3744.25
3925.01
4737.51
6389.86
8902.01
11977.3
11425.1
3871.45
318.378
356.243
403.582
452.643
497.228
536.167
572.156
614.612
726.872
1046.93
1098.69
1048.87
1013.79
964.341
948.162
995.474
1013.5
1028.18
1128.48
1445.67
2128.89
3031.9
3646.29
3987.53
4846.31
6633.85
9502.39
13173.7
13083.1
4566.28
311.778
347.553
391.227
437.727
480.144
517.21
557.926
625.187
861.809
1100.67
1078.03
1048.39
1016.81
979.165
959.239
1005.48
1038.57
1072.25
1178.68
1471.93
2071.72
2949.59
3621
4126.26
5075.61
6996.17
10213.8
14395.1
14964.9
5343.38
305.63
339.895
379.918
423.678
462.678
503.728
553.387
691.038
1028.55
1081.95
1063.89
1046.13
1022.23
1000.81
992.952
1027.39
1074.45
1138.47
1284.49
1568.13
2121.67
3027.4
3718.62
4365.8
5415.18
7516.49
11095.5
15609.8
16858.1
6600.32
299.516
332.024
368.544
408.839
450.037
494.509
575.109
851.507
1043.58
1053.73
1048.25
1040.48
1032.13
1032.85
1042.57
1055.22
1109.67
1210.53
1370.71
1684.77
2273.57
3212.38
3973.34
4730.49
5944.63
8286.08
12251.1
17058.1
19022.4
7723.62
293.787
324.176
357.126
398.453
441.042
495.367
649.472
961.27
1012.7
1027.53
1031.41
1036.79
1048.95
1061.12
1073.5
1088.07
1155.22
1285.59
1451.99
1807.51
2509.38
3520.46
4368.88
5245.84
6709.75
9437.73
13767.3
18474.1
20239.8
9090.39
288.414
316.603
349.889
391.344
435.925
521.391
802.723
958.587
981.336
1003.91
1017.92
1037.84
1056.86
1068.08
1092.95
1124.65
1210.14
1354.64
1581.48
2011.02
2899.86
3992.85
4876.22
5910.47
7808
11174.9
16005.8
20343.5
22015
9992.91
283.167
311.871
345.125
386.133
440.968
598.904
878.898
933.916
958.801
987.902
1013.86
1037.72
1055.84
1069.11
1108.62
1164.79
1275.11
1432.45
1765.89
2382.68
3480.13
4580.67
5501.44
6824.52
9342.19
13685.8
19459.6
23369
21617.7
10285.3
1599.42
1585.83
1552.32
1522.86
1491.55
1458.24
1422.71
1386.4
1349.14
1311.35
1273.52
1234.32
1194.55
1155.7
1117.86
1081.18
1045.97
1011.97
979.351
948.645
919.701
892.694
867.852
844.838
823.805
804.384
786.568
770.183
755.224
741.846
730.076
719.566
710.201
701.957
697.419
700.366
705.931
716.012
733.635
758.384
785.9
810.874
836.685
865.548
898.938
934.443
971.203
1008.84
1045.73
1094.06
1171.5
1259.41
1330.45
1364.86
1363.22
1341.1
1308.15
1246.56
1151.94
1067.26
996.483
941.456
896.298
860.485
832.675
810.986
795.34
786.023
781.194
779.228
778.383
778.218
779.833
783.381
786.969
789.617
792.018
793.348
792.506
789.322
783.89
776.585
768.854
761.833
755.326
748.497
740.782
731.958
721.912
710.633
698.389
685.664
673.019
661.037
650.107
640.262
631.627
624.495
619.396
617.181
616.905
618.045
620.088
623.056
627.941
633.713
640.517
645.657
647.116
640.88
616.282
588.134
551.789
506.684
451.741
386.134
324.711
292.334
280.14
276.656
275.883
275.941
276.944
278.409
280.376
1200.72
1203.09
1187.72
1180.31
1171.45
1160.96
1147.83
1135.13
1121.01
1103.84
1087.72
1072.84
1060.37
1049.18
1039.28
1030.54
1022.3
1016.32
1010.98
1007.57
1008.04
1011.33
1020.63
1034.88
1056.24
1084.34
1119.34
1160.51
1208.4
1265.22
1331.71
1409.82
1512.68
1631.85
1758.35
1881.14
2001.73
2127.62
2250.04
2364.19
2469.03
2561.41
2636.31
2698.38
2755.92
2808.43
2849.79
2874.16
2881.94
2911.97
2943.75
2923.96
2868.94
2799.34
2700.46
2606.47
2498.24
2369.43
2203.47
2027.72
1872.42
1745.11
1642.19
1547.32
1469.35
1407.93
1356.58
1315.51
1283.05
1258.23
1238.79
1222.34
1208.93
1197.08
1184.26
1170.55
1157.28
1143.54
1127.52
1109.46
1091.11
1072.92
1054.35
1035.22
1015.73
996.121
976.762
957.925
939.671
921.981
904.951
889.224
875.697
864.971
857.604
853.407
850.736
848.993
847.728
846.335
845.517
844.985
843.633
839.039
829.164
811.829
786.917
756.906
724.496
688.645
654.454
626.098
604.034
586.794
574.155
562.033
536.008
456.634
367.987
324.439
308.629
304.439
304.732
306.618
308.96
1194.27
1208.63
1206.48
1214.4
1222.19
1230.75
1237.51
1246.61
1253.63
1256.88
1260.3
1260.9
1263.08
1269.03
1276.62
1291.52
1306.77
1332.71
1362.61
1399.61
1449.55
1507.41
1583.46
1673.9
1787.52
1923.92
2085.64
2268.89
2465.61
2667.2
2884.46
3132.73
3397.84
3680.34
3943.45
4183.79
4403.29
4594.92
4769.15
4923.24
5059.95
5178.83
5272.01
5333.49
5368.18
5385.38
5385.65
5366.15
5327.04
5249.76
5084.16
4860.89
4635.32
4388.48
4170.71
3974.11
3750.17
3468.87
3174.74
2888.42
2624.37
2404.74
2231.5
2087.97
1964.4
1858.29
1771.57
1702.37
1654.23
1618.16
1586.84
1561.88
1544.14
1529.07
1513.57
1494.83
1467.94
1437.46
1406.7
1378.34
1352.91
1329.44
1303.71
1274.13
1242.23
1210.23
1180.02
1152.91
1129.64
1110.45
1094.93
1082.37
1072.13
1063.12
1053.85
1043.46
1032.68
1021.2
1008.02
991.622
970.379
943.233
909.804
871.527
829.934
788.573
750.214
716.096
687.666
664.584
645.919
629.989
618.841
611.129
606.947
609
612.173
607.245
579.524
499.226
400.639
354.918
340.813
339.291
341.439
1244.7
1275.19
1287.96
1313.81
1339.85
1369.78
1399.41
1433.64
1466.93
1501.34
1541.49
1581.95
1634.08
1695.36
1765.44
1854.05
1948.93
2072.5
2206.69
2356.02
2527.01
2705.29
2904.02
3119.11
3352.53
3594.1
3847.96
4122.26
4403.58
4670.89
4890.82
5089.68
5260.09
5421.07
5577.92
5719.01
5842.31
5935.86
6013.72
6076.16
6138.37
6189.42
6243.23
6289.46
6323.56
6343.57
6356.12
6384.61
6453.73
6484.38
6400.55
6271.8
6110.3
5888.99
5645.38
5415.16
5153.32
4762.48
4340.02
3915.86
3511.08
3147.06
2828.75
2560.06
2338.86
2152.32
2016.29
1931.43
1889.27
1872.37
1873.36
1897.1
1929.46
1959.19
1965.34
1945.93
1912.31
1871.05
1824.1
1774.12
1722.1
1669.9
1608.95
1545.24
1481.54
1419.59
1361.54
1309.28
1263.84
1224.81
1190.97
1160.56
1131.66
1102.76
1072.31
1039.4
1003.66
965.988
928.165
890.884
855.242
822.238
792.763
767.307
746.108
727.511
712.048
699.775
689.529
681.879
673.882
665.891
656.695
650.268
648.525
650.776
656.823
664.406
670.202
666.673
636.414
533.144
434.157
394.126
384.917
1341.79
1397.9
1434
1490.92
1552.06
1625.29
1705.36
1799.38
1902.63
2018.99
2150.74
2290.41
2460.94
2655.61
2874.3
3121.93
3375.18
3652.93
3912.45
4162.95
4401.66
4616.48
4802.88
4979.42
5136.14
5276.63
5378.55
5456.6
5520.76
5587.46
5631.2
5655.03
5666.33
5669.47
5674.34
5693.48
5703.11
5718.93
5735.76
5758.03
5795.75
5838.3
5900.45
5963.1
6038.53
6113.38
6182.09
6269.11
6374.75
6443.53
6407.65
6334.29
6258.05
6171.9
6090.61
6034.66
5987.24
5790.73
5428.58
5001.09
4541.52
4095.24
3666.73
3264.6
2907.11
2604.67
2379.16
2236.27
2170.2
2171.25
2227.16
2318.23
2425.69
2518.05
2570.99
2571.15
2522.45
2446.55
2349.99
2239.26
2119.89
1998.6
1880.51
1768.18
1661.25
1559.94
1465.43
1379.44
1303.16
1236.74
1178.35
1125.88
1078.4
1034.95
994.269
956.531
920.77
886.774
856.039
829.834
807.327
788.127
771.926
758.418
747.29
737.821
729.086
721.992
715.99
711.119
706.55
701.757
699.224
697.748
696.793
696.963
700.704
708.477
717.749
727.329
736.914
736.12
695.806
562.227
472.951
1520.54
1632.22
1726.39
1856.29
2004.75
2179.38
2376.47
2605.53
2870.07
3167.68
3486.72
3807.39
4133.83
4429.57
4720.23
4981.08
5199.75
5393.01
5531.99
5632.75
5682.57
5731.63
5736.44
5715.3
5678.78
5652.92
5621.21
5581.7
5537.98
5499.71
5466.32
5436.76
5416.52
5407.08
5418.33
5446.19
5499.58
5578.85
5688.99
5846.37
6037.91
6262.78
6523.03
6792.38
7057
7316.01
7531.34
7686.94
7785.87
7756.28
7550.17
7269.91
6992.75
6755.91
6564.79
6409.55
6288.26
6149.91
5991.46
5679.27
5287.11
4895.01
4499.53
4071.18
3653.21
3291.56
3030.21
2888.13
2866.97
2958.09
3134.32
3359.75
3589.84
3766.48
3854.7
3848.32
3746.95
3576.87
3363.78
3124.59
2876.65
2635.51
2407.66
2194.46
1998.77
1821.4
1663.31
1525.18
1406.54
1305.61
1220.71
1148.69
1087.24
1034.9
990.226
951.488
917.938
889.776
864.793
843.37
825.174
809.175
795.523
784.138
774.576
766.733
759.644
752.996
747.964
742.936
739.841
739.848
740.961
742.674
744.245
744.851
746.143
751.206
759.072
767.853
778.555
792.51
806.542
804.692
745.219
1878.72
2139.25
2392.57
2731.16
3121
3575.52
4064.78
4574.32
5073.2
5539.68
5925.84
6243.03
6469.22
6592.73
6634.5
6609.63
6549.37
6441.81
6337.58
6225.49
6098.27
5992.89
5899.51
5805.23
5719
5646.07
5578.6
5520.34
5471.19
5440.1
5431.32
5454.73
5513.6
5619.95
5790.03
6044.13
6410.59
6895.08
7497.33
8216.67
9012.91
9861.41
10729.7
11551.7
12297.9
12921.4
13347.3
13481.7
13329.8
12830.4
11975.2
10994.1
10055.7
9232.03
8533.44
7939.44
7430.46
6958.51
6550.44
6195.46
5800.26
5441.75
5101.14
4739.56
4397.5
4138.69
4015.13
4070.09
4306.52
4692.77
5169.93
5656.21
6067.63
6346.45
6471.46
6428.67
6228.85
5888.13
5460.11
4985.75
4505.96
4047.38
3619.59
3219.28
2850.72
2519.43
2228.9
1979.94
1770.03
1595.26
1451
1333.21
1236.99
1157.88
1093.21
1039.06
993.83
956.075
924.465
897.036
874.029
854.328
837.336
823.256
811.758
802.332
795.025
788.019
781.714
778.134
776.957
777.421
779.485
782.968
787.216
790.789
793.08
796.037
802.027
809.162
817.821
829.496
844.889
863.815
879.227
2661.73
3318.1
3981.1
4864.21
5736.45
6672.01
7400.74
8019.29
8384.26
8595.45
8615.98
8557.68
8422.64
8232.59
8004.79
7743.51
7495.17
7261.85
7040.56
6838.29
6648.47
6478.19
6332.94
6210.76
6112.6
6032.97
5980.51
5952.54
5972.08
6060.62
6246.25
6567.36
7070.57
7810.65
8843.44
10197.5
11853.8
13786.1
15921.3
18159.3
20430.5
22607.6
24602.9
26327.8
27667.6
28547.2
28866.3
28511.4
27386.9
25501.3
23145.2
20618.6
18171.6
15928.1
13931.5
12203
10731.8
9497.68
8484.37
7657.68
6981.82
6473.07
6093.23
5824.95