/*--------------------------------*- C++ -*----------------------------------*\
| =========                 |                                                 |
| \\      /  F ield         | OpenFOAM: The Open Source CFD Toolbox           |
|  \\    /   O peration     | Version:  2112                                  |
|   \\  /    A nd           | Website:  www.openfoam.com                      |
|    \\/     M anipulation  |                                                 |
\*---------------------------------------------------------------------------*/
FoamFile
{
    version     2.0;
    format      ascii;
    arch        "LSB;label=32;scalar=64";
    class       volVectorField;
    location    "0.00402";
    object      U;
}
// * * * * * * * * * * * * * * * * * * * * * * * * * * * * * * * * * * * * * //

dimensions      [0 1 -1 0 0 0 0];

internalField   nonuniform List<vector> 
13875
(
(2204.17 109.696 1.81271e-18)
(2142.48 5.61319 -9.38705e-19)
(2170.15 -2.22069 -9.41193e-19)
(2167.99 -1.15021 0)
(2170.85 0.0726825 0)
(2169.63 -0.0724818 9.36454e-19)
(2169.61 -0.315669 -9.36838e-19)
(2169.76 -0.501448 -4.68363e-19)
(2170.01 -0.957841 4.6792e-19)
(2169.26 -0.538784 0)
(2169.44 0.161434 -3.88275e-22)
(2169.5 1.03357 -3.88049e-22)
(2169.57 1.00892 0)
(2169.37 -0.0739663 -4.68248e-19)
(2169.37 -1.01601 4.68631e-19)
(2169.79 -1.43918 0)
(2170.12 -0.118196 9.36425e-19)
(2169.76 1.35258 -9.37076e-19)
(2170.03 1.16917 3.85742e-22)
(2169.63 0.32058 -3.85377e-22)
(2170.88 -0.281387 -9.3586e-19)
(2167.84 0.333726 9.3702e-19)
(2171.01 2.54805 -1.87826e-18)
(2143.57 -8.58681 1.91659e-18)
(2209.96 -106.628 1.76513e-18)
(2253.38 91.9281 -1.63245e-18)
(2228.46 -1.13217 1.88341e-18)
(2247.28 0.687104 8.71994e-19)
(2245.46 1.28592 -8.67207e-19)
(2248.47 -0.513864 4.16296e-22)
(2248.13 0.541423 5.20356e-22)
(2248.16 0.360688 4.15958e-22)
(2247.94 0.268126 -4.34502e-19)
(2247.39 1.55733 4.33817e-19)
(2245.57 1.26761 2.17649e-19)
(2245.55 -0.393737 -1.62864e-19)
(2245.55 -1.56049 -5.31612e-20)
(2247.73 -1.2556 0)
(2247.84 0.14602 -4.34996e-19)
(2247.51 1.10954 4.33489e-19)
(2245.8 1.53753 4.35774e-19)
(2245.86 0.0876406 -4.35204e-19)
(2245.96 -1.77851 5.1848e-22)
(2247.9 -1.55948 -5.19671e-22)
(2248.15 -0.604131 5.20591e-22)
(2248.81 0.89567 -8.71588e-19)
(2245.57 -0.618353 2.59965e-18)
(2247.24 -1.6008 -1.74256e-18)
(2228.77 3.67661 5.43022e-22)
(2256.29 -97.3436 -1.71451e-18)
(2252.39 78.116 0)
(2236.33 -18.2149 0)
(2249.39 4.4354 0)
(2250.73 -1.89604 0)
(2254.17 -3.13217 -1.65452e-18)
(2253.97 -0.728194 1.64334e-18)
(2254.31 0.16923 1.64041e-18)
(2254.28 0.888339 -2.45822e-18)
(2254.02 1.92941 8.19515e-19)
(2253.76 1.66987 4.30699e-22)
(2253.87 0.347092 -4.3089e-19)
(2253.22 -1.98776 4.29837e-19)
(2253.97 -2.34432 0)
(2253.86 0.00420946 0)
(2253.94 2.16396 4.08215e-22)
(2253.41 1.58701 0)
(2254.55 -0.350714 8.38499e-22)
(2253.62 -1.72423 4.29776e-19)
(2254.1 -2.11607 -4.10368e-19)
(2253.78 -0.0782908 0)
(2254.28 2.9454 0)
(2251.01 1.50102 0)
(2250.66 -4.74096 0)
(2237.9 13.797 0)
(2257.22 -74.4192 0)
(2247.85 51.3529 0)
(2235.03 -28.609 1.81439e-18)
(2249.17 7.17472 -3.41714e-18)
(2251.65 -4.83954 3.46487e-18)
(2253.81 -3.93486 -1.65673e-18)
(2253.82 -1.06583 0)
(2254.26 0.128739 -7.90237e-22)
(2254.25 1.12249 0)
(2254 1.93702 0)
(2253.94 1.25095 0)
(2254.23 0.432138 0)
(2253.87 -1.77873 -8.43522e-22)
(2253.95 -2.35442 -5.06109e-20)
(2253.84 -0.0419622 5.12043e-20)
(2253.91 2.1418 0)
(2254.12 1.41663 0)
(2254.81 -0.196581 8.0071e-22)
(2254.03 -1.40173 -8.63646e-19)
(2254.05 -2.07035 8.04455e-19)
(2253.69 0.0603835 -1.61929e-18)
(2254.09 3.46081 1.62376e-18)
(2252.09 4.73819 1.741e-18)
(2249.74 -8.75955 -1.72026e-18)
(2235.81 31.2647 0)
(2251.98 -58.3044 0)
(2244.87 39.2806 1.74902e-18)
(2235.44 -47.8058 0)
(2248.66 10.4135 0)
(2250.46 -8.12979 0)
(2254.21 -5.55718 0)
(2253.95 -1.86762 1.66343e-21)
(2254.19 -0.0414414 1.63792e-21)
(2254.13 1.31766 4.33298e-19)
(2253.94 1.95624 -4.15495e-19)
(2253.91 0.971977 2.13969e-19)
(2254.15 0.466189 -2.0726e-19)
(2253.88 -1.57041 0)
(2253.88 -2.37829 0)
(2253.76 -0.121938 -1.68184e-21)
(2253.87 2.03618 0)
(2254.16 0.985956 -1.68566e-21)
(2254.76 -0.15818 8.09651e-19)
(2254.08 -0.85229 -8.58462e-19)
(2254.01 -1.8776 1.66774e-18)
(2253.64 0.497715 -1.67339e-18)
(2254.22 4.72584 1.65962e-21)
(2250.78 6.97561 0)
(2249.98 -11.3561 0)
(2237.28 42.7442 0)
(2250.5 -35.5058 0)
(2241.48 6.74833 0)
(2231.53 -63.5121 9.125e-19)
(2247.11 12.1696 -8.47609e-19)
(2250.96 -11.7141 0)
(2253.06 -6.51343 8.61609e-19)
(2253.26 -2.4114 -4.32456e-19)
(2253.86 -0.130333 -2.14602e-21)
(2253.99 1.57281 -2.17631e-19)
(2253.8 1.92267 -4.22706e-19)
(2253.83 0.765435 1.63988e-19)
(2253.99 0.49085 1.6728e-21)
(2253.78 -1.47305 2.67877e-19)
(2253.73 -2.34716 -2.14683e-19)
(2253.61 -0.221767 3.37943e-21)
(2253.69 1.97269 -4.23543e-19)
(2254.02 0.814149 4.33189e-19)
(2254.63 -0.0443451 1.65257e-21)
(2253.94 -0.477596 -1.6878e-21)
(2253.7 -1.73535 -1.64484e-21)
(2253.09 0.700727 -8.42679e-19)
(2253.29 5.20016 8.49721e-19)
(2251.55 11.4373 0)
(2247.39 -14.9258 0)
(2232.43 65.2907 -1.93298e-18)
(2245.94 -18.951 -1.26349e-19)
(2254.03 2.90497 -4.95252e-20)
(2227.49 -79.2736 6.02451e-20)
(2242.97 12.0941 0)
(2248.63 -16.5292 -2.69137e-23)
(2252.76 -8.82356 -2.62401e-23)
(2253.03 -3.90369 0)
(2253.54 -0.678266 0)
(2253.67 1.61058 -8.55835e-19)
(2253.49 2.02741 8.45444e-19)
(2253.58 0.696236 0)
(2253.71 0.494462 1.72784e-18)
(2253.57 -1.32362 4.30055e-21)
(2253.43 -2.25603 -1.72371e-18)
(2253.3 -0.312343 -1.7124e-21)
(2253.47 1.683 0)
(2253.9 0.365007 3.44261e-18)
(2254.31 -0.0119585 2.17915e-21)
(2253.75 0.12439 -6.90359e-18)
(2253.45 -1.0781 3.39489e-18)
(2252.77 1.95358 2.58412e-23)
(2252.76 7.37327 0)
(2248.63 13.7799 3.52981e-18)
(2244.11 -12.2728 -3.31114e-18)
(2228.87 72.9027 3.81567e-18)
(2247.03 2.88705 -3.18394e-18)
(2218.3 -22.8779 -3.17393e-19)
(2214.69 -87.3886 -7.4981e-18)
(2235.57 3.33516 8.71097e-22)
(2246.13 -23.3706 2.61421e-23)
(2249.17 -10.9839 -8.09914e-22)
(2250.83 -5.02359 0)
(2252.16 -1.05091 -3.34354e-18)
(2252.89 1.70717 3.38989e-18)
(2252.96 1.79577 0)
(2253.09 0.532657 -8.41397e-22)
(2253.17 0.366077 -8.42456e-22)
(2253.07 -1.28743 0)
(2252.86 -2.02448 0)
(2252.69 -0.317006 -1.66524e-21)
(2252.88 1.50055 -8.44685e-22)
(2253.41 0.211736 2.61634e-23)
(2253.72 0.261911 -8.67571e-22)
(2253.11 0.596557 -2.62743e-23)
(2252.4 -0.510848 -1.71387e-18)
(2250.8 2.89127 -1.32028e-20)
(2249.53 9.22182 1.68881e-18)
(2246.42 20.2692 8.86961e-22)
(2236.78 -4.35615 3.45975e-18)
(2216.47 81.6463 -3.5377e-18)
(2222.08 18.186 2.50423e-23)
(2113.05 -37.9578 9.42596e-19)
(2168.75 -98.5841 0)
(2216.99 -20.3079 -8.31571e-22)
(2235.17 -33.1317 -8.6523e-19)
(2245.83 -19.9255 1.70883e-18)
(2248.84 -9.87115 -1.7084e-18)
(2250.53 -3.80636 7.21392e-21)
(2251.58 0.887546 8.5251e-19)
(2251.74 1.77207 0)
(2252 0.468281 -8.54786e-19)
(2252.06 0.398094 8.60027e-19)
(2252.05 -0.917751 0)
(2251.65 -1.73607 0)
(2251.46 -0.537684 2.10499e-21)
(2251.73 0.941665 8.40053e-22)
(2252.32 -0.199899 8.55743e-19)
(2252.44 0.472475 -8.57696e-19)
(2251.82 1.57581 0)
(2250.84 1.36022 8.62644e-19)
(2248.86 7.01351 -1.706e-18)
(2246.14 16.3979 8.46105e-19)
(2236.15 29.6314 -8.39928e-22)
(2218.59 16.9021 0)
(2170.94 94.0469 0)
(2116.48 35.4395 0)
(1872.58 -142.325 -6.57311e-17)
(2125.43 -160.847 8.42876e-17)
(2198.11 -55.0743 0)
(2227.61 -56.6407 -2.97742e-17)
(2238.64 -23.4923 3.08967e-17)
(2244.43 -11.6878 0)
(2247.34 -4.0211 -2.98291e-20)
(2248.86 0.370739 -1.46329e-17)
(2249.37 0.995374 1.46759e-17)
(2249.69 -0.131384 -2.9565e-20)
(2249.74 0.159144 0)
(2249.75 -0.715611 -3.72974e-18)
(2249.2 -1.17975 5.58131e-18)
(2248.95 -0.616011 -1.90287e-18)
(2249.26 0.489384 -2.95851e-20)
(2249.87 -0.163098 0)
(2249.92 1.1564 0)
(2249.18 2.74761 -3.00731e-17)
(2247.75 3.39497 2.95856e-17)
(2244.56 8.87894 -2.99947e-17)
(2239.55 21.0555 2.95024e-17)
(2228.12 54.1185 3.22444e-17)
(2199.47 53.6894 -2.92907e-17)
(2128.31 162.932 -8.3417e-17)
(1882.95 138.975 -1.26114e-17)
(1651.37 -216.319 -9.09662e-17)
(2010.87 -308.734 1.37712e-16)
(2157.26 -107.443 0)
(2205.81 -64.7436 6.91679e-17)
(2229.21 -30.8798 -7.15015e-17)
(2237.11 -16.1482 -3.34938e-17)
(2241.46 -5.87539 3.40718e-17)
(2243.37 -1.27843 -3.32678e-17)
(2244.12 0.0931869 3.33153e-17)
(2244.6 -0.191256 3.21615e-20)
(2244.74 0.130195 0)
(2244.79 0.0182183 -2.13353e-18)
(2244.1 -0.520392 2.16799e-18)
(2243.77 -0.819597 3.28254e-20)
(2244.04 -0.398405 3.26759e-20)
(2244.56 -0.548901 3.38623e-20)
(2244.62 0.934876 0)
(2243.72 3.94132 0)
(2241.83 6.46878 -6.9145e-17)
(2237.88 13.3592 6.68809e-17)
(2230.19 26.0531 -7.19347e-17)
(2208.8 59.0949 1.47178e-16)
(2162.28 98.0164 -7.06075e-17)
(2013.41 298.395 -3.88941e-20)
(1693.52 206.165 8.8021e-20)
(1275.51 -595.018 -1.0909e-16)
(1739.85 -586.992 1.18545e-16)
(2029.43 -176.672 2.19679e-16)
(2163.47 -109.106 -9.45593e-17)
(2201.24 -36.1264 0)
(2217.2 -14.262 7.43971e-17)
(2226.63 -5.52326 -7.58885e-17)
(2230.03 -1.80855 0)
(2231.65 -1.21004 3.52479e-20)
(2232.39 -1.35421 0)
(2232.67 -0.200853 0)
(2232.72 0.475235 0)
(2232.07 0.466973 4.71848e-18)
(2231.65 -0.474878 -4.71217e-18)
(2231.8 -0.655505 -3.92388e-20)
(2232 -0.447963 -3.51285e-20)
(2231.91 1.03195 0)
(2230.56 3.96566 0)
(2227.04 7.34011 0)
(2217.12 12.6501 -7.82021e-17)
(2203.56 34.4431 1.58358e-16)
(2167.75 101.04 -7.37544e-17)
(2046.14 165.117 -1.32673e-16)
(1749.94 591.565 1.0076e-16)
(1278.09 548.516 -6.00303e-20)
(1293.82 -612.573 1.614e-16)
(1112.9 -1073.61 0)
(1628.14 -500.629 0)
(1891.87 -122.798 -1.129e-16)
(2121.29 -73.2048 1.13311e-16)
(2168.38 -46.8666 0)
(2183.12 -21.139 1.30906e-20)
(2191.63 -9.26045 4.26257e-17)
(2194.68 -3.37856 -4.30999e-17)
(2195.97 -1.15254 0)
(2196.46 0.509363 -1.06498e-17)
(2196.52 1.63316 1.06691e-17)
(2196.08 1.3703 -5.36219e-18)
(2195.61 -0.327984 5.36445e-18)
(2195.5 -1.03434 3.88646e-20)
(2195.15 -0.893576 -4.2124e-17)
(2194.27 1.47738 8.47064e-17)
(2191.59 8.31963 8.66981e-19)
(2182.24 21.2981 -4.27173e-17)
(2165.46 49.1361 -9.40545e-17)
(2107 60.9308 8.83378e-17)
(1882.86 99.5219 8.60384e-20)
(1672.43 464.483 2.74649e-20)
(1106.49 1060.45 1.68737e-16)
(1311.31 614.446 7.45329e-18)
(1347.03 -632.086 0)
(1145.3 -1042.84 0)
(1253.84 -732.003 0)
(1148.33 -824.381 0)
(1935.93 -250.845 0)
(1939.13 -27.302 1.18192e-16)
(2008.23 7.78993 -1.2208e-16)
(2050.8 -0.920444 1.71354e-19)
(2060.9 -4.85339 -1.11512e-20)
(2064.37 -5.22318 2.68328e-17)
(2065.7 -1.61605 -2.71312e-17)
(2066.24 0.0909291 -3.37684e-19)
(2065.94 2.3913 -8.36232e-19)
(2065.36 2.29172 9.89827e-19)
(2064.77 2.15645 -2.67115e-17)
(2063.39 3.93558 2.64958e-17)
(2059.22 4.3303 1.54197e-19)
(2048.08 5.40709 0)
(1999.05 -1.20572 0)
(1917.55 45.2713 0)
(1898.52 322.567 -2.06957e-16)
(1125.95 823.162 -5.71451e-17)
(1268.57 712.253 1.63753e-16)
(1144.56 1007.54 2.05267e-20)
(1357.38 620.964 2.0838e-20)
(1418.45 -618.78 0)
(1254.6 -893.582 4.16535e-20)
(1289.03 -732.637 0)
(1155.81 -822.722 -1.70876e-16)
(1245.22 -678.257 3.40017e-16)
(1155.5 -624.883 -2.26615e-16)
(1482.51 -318.382 0)
(1582.27 -111.812 -1.42289e-19)
(1550.98 -37.2516 0)
(1554.91 -3.55421 0)
(1552.87 3.40671 -2.5763e-17)
(1556.43 6.05724 2.63114e-17)
(1553.97 1.31569 2.62536e-17)
(1553.62 -1.07141 -2.62278e-17)
(1552.4 0.557829 0)
(1554.44 3.85238 -1.04497e-16)
(1549.33 31.8514 1.02741e-16)
(1574.22 100.944 1.08757e-16)
(1498.74 295.511 -9.47728e-17)
(1138.81 641.97 0)
(1227.31 694.125 0)
(1132.33 824.047 -1.6949e-19)
(1294.46 716.466 -1.71749e-16)
(1250.13 885.613 3.76265e-16)
(1404.83 616.681 -1.72278e-16)
(1489.51 -614.175 -1.73825e-16)
(1376.62 -808.856 1.87858e-16)
(1345.56 -661.422 0)
(1190.02 -671.007 -2.32529e-16)
(1196.57 -539.044 -3.83461e-17)
(953.113 -407.271 3.43539e-16)
(768.104 -203.588 -2.53286e-16)
(576.315 -112.279 1.34521e-16)
(420.77 -49.644 0)
(403.997 -43.0196 0)
(390.661 -23.9025 -4.37463e-20)
(397.766 -14.2105 1.71371e-19)
(390.63 2.97278 0)
(391.568 14.8094 0)
(390.184 24.9633 6.75493e-17)
(404.179 47.39 -6.74622e-17)
(420.539 48.1446 -1.35179e-16)
(553.577 123.869 2.71728e-16)
(776.228 200.068 -3.14662e-18)
(903.652 403.095 -1.26264e-16)
(1178 543.194 0)
(1170.19 672.753 0)
(1337.85 650.227 -1.84271e-16)
(1336.77 838.169 2.08557e-16)
(1471.93 621.777 -4.57443e-20)
(1599.34 -565.633 1.65599e-16)
(1490.13 -661.644 -9.84713e-20)
(1470.85 -506.836 1.07954e-16)
(1359.78 -411 -9.58452e-17)
(1297.19 -334.554 -4.95859e-20)
(1048.85 -315.031 1.14986e-19)
(828.722 -184.576 1.23623e-16)
(629.99 -131.259 -1.96424e-16)
(503.113 -66.1707 6.72257e-17)
(489.842 -51.3403 0)
(478.636 -28.1067 -3.3176e-17)
(482.995 -18.1129 3.32558e-17)
(477.317 -1.32625 0)
(478.338 14.6868 6.06663e-20)
(478.64 25.8523 -3.3255e-17)
(489.456 55.3419 3.31044e-17)
(499.391 67.7757 0)
(608.343 154.47 -1.32162e-16)
(825.188 192.87 1.25047e-16)
(995.069 299.555 1.11936e-16)
(1272.39 321.374 -2.13615e-16)
(1327.74 423.456 1.17333e-16)
(1461.49 514.339 0)
(1474.14 702.858 1.77517e-16)
(1594.56 583.344 -7.69353e-18)
(1743.45 -441.91 -5.70219e-18)
(1671.23 -322.516 9.21788e-17)
(1526.26 -237.161 -4.19351e-17)
(1360.95 -125.37 -5.65923e-17)
(1358.59 -135.603 7.77184e-17)
(1171.55 -163.949 -5.73118e-17)
(988.588 -143.83 6.13204e-17)
(825.444 -184.522 -6.41616e-17)
(725.029 -150.667 8.4503e-20)
(692.616 -114.722 3.2567e-17)
(686.465 -66.6633 1.61602e-17)
(686.593 -31.2657 -8.277e-20)
(685.007 5.93826 -1.62544e-17)
(684.224 41.8354 -6.09064e-20)
(688.875 79.9706 -7.58664e-20)
(701.077 125.354 -2.03008e-18)
(745.299 146.517 -7.30207e-21)
(852.746 182.262 5.97021e-18)
(1033.67 144.112 -3.84458e-18)
(1181.42 164.939 0)
(1341.31 137.08 1.26044e-17)
(1346.92 116.781 -3.82479e-17)
(1519.91 263.989 4.74685e-17)
(1674.92 363.037 -6.47677e-17)
(1743.85 458.498 6.17747e-17)
(1855.03 -364.639 -9.54815e-20)
(1813.45 -59.2081 -1.28859e-19)
(1664.05 71.3266 1.60454e-19)
(1528.53 -17.0824 -6.82562e-21)
(1488.34 -50.9124 -1.69288e-19)
(1385.48 -101.035 -1.96265e-19)
(1239.06 -108.646 -8.07856e-21)
(1077.43 -146.306 0)
(940.673 -117.003 0)
(874.285 -86.4691 6.49226e-17)
(841.974 -53.1841 -6.4416e-17)
(832.916 -29.0315 -8.38947e-21)
(826.229 0.717673 8.37704e-21)
(831.285 30.1689 -8.31568e-18)
(844.278 55.7319 8.11973e-18)
(877.459 88.9526 0)
(939.866 107.799 0)
(1071.62 147.147 -6.12795e-17)
(1243.65 115.749 5.92799e-17)
(1365.36 115.823 -1.87435e-19)
(1468.62 72.3577 0)
(1506.18 29.4506 0)
(1669.42 -68.0553 -1.63697e-19)
(1817.57 46.8141 -1.32793e-19)
(1853.9 384.573 1.42875e-16)
(1825.35 92.6467 -1.59871e-16)
(1801.35 295.115 -2.48815e-16)
(1672.27 358.929 1.30111e-16)
(1642.68 236.095 0)
(1620.9 84.7945 2.19765e-19)
(1552.07 0.937882 1.06661e-16)
(1429.69 -21.8284 -2.16709e-16)
(1277.07 -67.4838 1.14275e-16)
(1118.8 -66.0221 -1.26827e-16)
(1014.62 -48.7824 1.25722e-16)
(969.216 -31.6739 3.21379e-17)
(950.97 -19.0234 -4.00056e-17)
(944.99 0.775983 -8.05248e-18)
(948.349 18.9717 1.62996e-17)
(968.178 33.5563 0)
(1012.45 51.2832 0)
(1113.73 64.0473 1.22691e-16)
(1274.56 75.0108 -2.37807e-16)
(1430.87 33.4251 1.14114e-16)
(1535.82 15.5328 2.26215e-19)
(1613.98 -69.7462 1.88697e-16)
(1645.34 -229.384 -2.59984e-17)
(1691.83 -350.294 -4.56966e-16)
(1798.44 -321.967 6.12879e-16)
(1826.45 -119.072 -2.66086e-16)
(1414.46 480.523 1.34926e-19)
(1452.87 897.041 -2.09759e-16)
(1707.3 610.285 1.23119e-16)
(1718.48 405.319 0)
(1704.17 238.256 0)
(1644.85 137.073 0)
(1542.17 94.2857 0)
(1408.34 27.1552 0)
(1254.93 2.49146 -5.46075e-17)
(1143.53 -8.44944 1.1052e-16)
(1082.42 -6.88331 -8.38564e-17)
(1061.44 -5.70075 3.14353e-17)
(1052.12 2.48227 -3.5252e-18)
(1059.05 9.53366 1.37172e-20)
(1081.82 11.2781 -5.57346e-17)
(1144.65 15.2042 5.63938e-17)
(1260.77 1.49869 0)
(1416.04 -20.3271 0)
(1546.59 -88.3627 -1.73362e-16)
(1633.99 -127.392 1.87623e-16)
(1706.08 -233.175 -1.68122e-19)
(1723.98 -408.799 6.94517e-20)
(1710.56 -625.995 -9.58042e-20)
(1445.04 -930.467 -7.8469e-20)
(1365.62 -488.912 0)
(1052.77 770.76 -1.90584e-16)
(1516.55 992.949 1.27783e-16)
(1756.2 776.133 -1.32639e-19)
(1756.68 578.631 1.50314e-16)
(1758.39 377.922 -1.28682e-16)
(1702.98 260.835 0)
(1617.84 200.981 -8.3391e-17)
(1502.97 117.513 8.17737e-17)
(1360.91 65.6863 -4.73921e-17)
(1246.53 35.8574 9.62103e-17)
(1185.8 19.1079 -4.81151e-17)
(1159.38 7.39347 1.80401e-19)
(1152.57 3.14999 0)
(1158.24 -3.48564 2.45101e-17)
(1188.31 -14.2563 2.36063e-17)
(1254.34 -31.1943 -4.87248e-17)
(1373.07 -65.7532 -8.94822e-17)
(1514.65 -117.655 8.93747e-17)
(1620.44 -202.334 -7.32718e-17)
(1692.52 -260.643 8.08469e-17)
(1761.41 -383.996 7.89266e-20)
(1756.55 -596.764 -7.64641e-20)
(1755.27 -796.661 0)
(1505.08 -1012.51 6.48331e-20)
(1016.12 -754.783 0)
(1069.18 725.712 1.52433e-16)
(1581.01 938.56 -1.34879e-16)
(1773.24 857.798 4.95694e-20)
(1772.24 714.512 0)
(1784.48 524.034 0)
(1730.32 399.772 -7.41396e-21)
(1670.51 300.633 0)
(1576.56 200.272 7.92752e-20)
(1451.24 132.783 0)
(1345.13 78.0996 4.27941e-17)
(1278.43 46.504 -6.40507e-17)
(1254.12 21.2197 3.20566e-17)
(1244.33 3.33655 -1.07728e-17)
(1253.76 -15.8239 0)
(1281.29 -41.2533 0)
(1351.29 -71.3565 4.09894e-17)
(1462.33 -129.243 -1.18578e-16)
(1585.25 -197.923 7.76347e-17)
(1671.03 -302.944 -6.37182e-17)
(1716.67 -403.292 7.05677e-17)
(1787.89 -526.709 0)
(1777.08 -717.158 0)
(1773.8 -874.62 0)
(1587.05 -931.882 -7.35722e-21)
(1027.83 -699.861 -1.73539e-16)
(1170.83 597.471 -2.90542e-20)
(1665.03 838.045 1.09979e-16)
(1756.76 886.286 -9.64e-17)
(1789.3 774.293 0)
(1793.25 628.216 0)
(1757.98 496.239 7.68601e-21)
(1711.74 374.944 6.51888e-17)
(1628.29 267.298 -6.30229e-17)
(1517.79 185.569 3.28741e-20)
(1421.01 119.755 3.43901e-20)
(1363.36 72.0871 3.50298e-20)
(1335.96 34.4459 -1.01378e-20)
(1329.51 3.34227 -1.01407e-20)
(1335.64 -29.3389 1.90973e-17)
(1365.97 -65.4456 -1.93684e-17)
(1427.92 -113.687 4.42517e-20)
(1528.38 -183.067 4.23503e-20)
(1638.11 -265.081 0)
(1715.06 -374.051 -5.69338e-17)
(1747.23 -498.862 6.27673e-17)
(1794.82 -632.507 0)
(1794.22 -775.191 -9.79765e-17)
(1758.03 -898.279 1.02445e-16)
(1666.47 -857.595 6.57546e-21)
(1205.76 -591.957 -1.57134e-16)
(1292.34 548.322 3.52581e-20)
(1705.85 785.012 0)
(1753.47 880.883 0)
(1792.08 815.712 -5.34602e-17)
(1800.54 697.383 4.68889e-17)
(1779.93 570.716 0)
(1746.48 438.727 5.98841e-17)
(1673.63 323.897 -5.78752e-17)
(1577.44 230.605 3.3921e-17)
(1492.84 149.322 -3.3665e-17)
(1435.59 94.7502 1.77594e-17)
(1414.44 46.0314 -1.75731e-17)
(1406.1 2.3864 0)
(1414.92 -42.1413 -1.7464e-17)
(1439.62 -92.1796 1.78132e-17)
(1501.72 -147.22 -3.61962e-20)
(1591.3 -231.193 -3.45942e-20)
(1684.62 -328.8 5.57681e-20)
(1750.69 -447.19 5.20582e-17)
(1767.7 -578.272 -5.75413e-17)
(1794.84 -708.487 -4.77506e-20)
(1792.35 -821.334 -4.72986e-20)
(1755.05 -890.298 0)
(1695.42 -789.036 -5.36272e-20)
(1257.19 -514.894 3.58892e-20)
(1324.92 445.223 1.31496e-22)
(1708.81 730.094 0)
(1753.58 864.523 8.61443e-23)
(1800.1 827.725 4.40817e-20)
(1806.73 742.697 -8.69184e-23)
(1802.78 618.597 -5.24465e-17)
(1774.45 487.149 4.8289e-17)
(1710.24 372.779 0)
(1626.98 269.672 -6.34977e-20)
(1550.63 183.404 -1.12835e-22)
(1503.88 116.367 -1.14781e-22)
(1481.88 56.5107 6.80052e-20)
(1477.11 2.27305 0)
(1481.96 -52.623 0)
(1507.41 -112.516 -1.14403e-22)
(1558.28 -181.585 -1.12348e-22)
(1637.84 -270.205 -2.88777e-17)
(1720.35 -375.049 8.18701e-17)
(1778.85 -490.101 -5.47683e-17)
(1793.91 -620.389 0)
(1802.04 -748.374 -4.4333e-17)
(1799.1 -831.607 4.64012e-17)
(1756.61 -872.264 8.627e-23)
(1704.1 -754.406 4.69723e-20)
(1333.19 -444.521 1.32454e-22)
(1366.78 444.508 3.13965e-18)
(1700.08 712.632 9.42454e-18)
(1755.71 833.17 9.54271e-17)
(1807.84 821.223 -4.28313e-17)
(1818.39 757.264 4.28773e-17)
(1820.5 650.019 -4.81936e-17)
(1797.79 526.458 4.49928e-17)
(1744.08 408.838 -2.70799e-17)
(1672.39 299.731 2.67452e-17)
(1607.13 204.428 1.18475e-22)
(1561.64 132.323 1.20894e-22)
(1547.26 65.0677 -1.21388e-22)
(1540.41 2.6579 7.36898e-18)
(1547.8 -61.0486 7.22451e-18)
(1566.18 -130.374 -1.49991e-17)
(1614.42 -202.872 1.18464e-22)
(1684.33 -299.482 5.33095e-17)
(1754.29 -412.64 -1.03222e-16)
(1804.34 -531.9 5.06574e-17)
(1812.57 -649.485 0)
(1812.17 -762.729 -8.70147e-23)
(1803.01 -826.736 7.97434e-23)
(1756.8 -834.92 -8.33321e-23)
(1697.81 -727.494 -9.96092e-17)
(1354.36 -455.106 1.22847e-16)
(1360.08 458.232 1.14046e-19)
(1696.2 678.427 0)
(1775.93 777.066 0)
(1811.95 804.235 4.03238e-20)
(1829.61 754.781 8.1774e-20)
(1841.14 658.448 0)
(1819.91 542.905 4.73265e-17)
(1771.65 431.204 -4.64603e-17)
(1709.29 320.381 4.78555e-20)
(1651.23 225.443 -4.95632e-20)
(1617.45 144.413 -1.37941e-17)
(1601.77 68.3236 1.37098e-17)
(1598.99 -0.854162 3.53936e-18)
(1602.43 -71.8512 -3.4605e-18)
(1622.12 -148.18 1.34207e-17)
(1659.7 -231.76 -3.97435e-17)
(1720.87 -329.844 2.6568e-17)
(1782.08 -442.385 -5.04833e-20)
(1824.95 -556.787 4.16157e-20)
(1833.1 -667.538 -4.09573e-17)
(1824.26 -761.709 1.20249e-18)
(1808.68 -812.915 -1.4091e-18)
(1781.59 -782.578 4.14923e-17)
(1699.97 -690.44 4.68273e-20)
(1341.57 -462.045 5.55118e-20)
(1331.92 453.166 1.09474e-16)
(1712.44 642.261 -9.35784e-17)
(1800.84 725.26 0)
(1821.3 779.315 -3.93052e-17)
(1843.84 740.808 1.45325e-19)
(1854.77 665.901 3.96268e-17)
(1837.68 567.862 4.41092e-17)
(1800.28 455.862 -4.36709e-17)
(1747.7 342.685 -5.01004e-20)
(1699.43 241.782 -2.53386e-17)
(1665.54 157.199 1.21445e-17)
(1656.32 77.2706 1.25683e-17)
(1650.64 2.39736 -5.33191e-20)
(1656.87 -74.081 0)
(1668.46 -155.386 0)
(1704.05 -239.461 0)
(1756.6 -340.95 4.99333e-20)
(1808.68 -457.19 1.05065e-20)
(1846.07 -570.97 -5.30448e-20)
(1847.52 -664.842 0)
(1838.45 -743.124 3.89354e-20)
(1816.47 -783.477 9.56579e-21)
(1800.77 -733.536 -5.00083e-20)
(1725.81 -648.794 -9.55416e-17)
(1340.45 -441.902 1.063e-16)
(1321.39 425.849 5.23383e-17)
(1731.12 566.372 -8.68317e-17)
(1821.54 665.481 8.31039e-17)
(1835.11 744.007 -4.0523e-17)
(1857 722.921 -3.77978e-17)
(1871.51 653.124 3.79273e-17)
(1855.76 562.824 2.06526e-17)
(1822.22 459.806 -2.08171e-17)
(1776.6 351.236 1.15331e-17)
(1734.28 254.001 -2.31731e-17)
(1711.49 165.107 1.75092e-17)
(1700.4 79.0702 -7.39727e-18)
(1699.17 -0.403502 1.48106e-18)
(1701.34 -81.1453 -4.39252e-20)
(1715.28 -167.012 2.31096e-17)
(1740.44 -258.82 -2.37335e-17)
(1785.77 -357.572 4.19388e-20)
(1831.22 -466.339 4.1566e-17)
(1864.14 -573.038 -2.23423e-18)
(1867.01 -659.872 -3.89103e-17)
(1850.6 -728.552 0)
(1830.7 -757.577 4.07569e-17)
(1818.14 -682.19 -3.74874e-17)
(1731.46 -563.078 -9.52862e-17)
(1335.22 -415.886 -6.76896e-18)
(1366.32 394.53 -5.206e-17)
(1751.17 496.568 4.59469e-17)
(1843.35 615.435 1.9163e-20)
(1847.58 705.823 -5.4648e-20)
(1876.79 697.078 1.87231e-20)
(1882.07 639.592 3.71325e-17)
(1870.32 562.672 -1.83381e-17)
(1845.07 463.183 -1.99075e-17)
(1807.55 355.622 4.39453e-20)
(1774.32 256.568 -4.51883e-20)
(1750.52 166.382 2.05465e-20)
(1746.3 79.7044 -2.05342e-20)
(1741.59 -2.69236 0)
(1746.67 -86.3147 4.98928e-21)
(1753.3 -173.197 -1.08707e-17)
(1778.57 -263.387 1.11144e-17)
(1816.16 -364.008 -2.07201e-17)
(1853.01 -474.041 9.66793e-19)
(1880.55 -574.301 1.94641e-17)
(1877.76 -645.747 -5.40839e-20)
(1870.56 -701.46 -3.76056e-17)
(1841.52 -706.271 3.5706e-17)
(1838.53 -606.887 0)
(1742.98 -491.6 -4.57122e-17)
(1353.63 -377.519 5.27489e-17)
(1376.64 354.796 0)
(1764.44 418.34 -3.77005e-17)
(1853.58 536.302 4.37314e-17)
(1862.64 652.334 1.76716e-20)
(1889.96 675.121 1.73187e-20)
(1898.36 623.545 -3.53941e-17)
(1887.96 550.006 3.70341e-17)
(1864.18 459.082 1.98832e-17)
(1831.92 359.229 6.81978e-19)
(1802.81 266.242 -2.03904e-17)
(1789.47 175.461 -2.15984e-20)
(1782.17 84.9644 2.42534e-20)
(1781.8 0.0960739 0)
(1782.03 -85.895 4.3569e-20)
(1791.72 -175.749 -2.15331e-20)
(1806.41 -268.989 1.01383e-17)
(1838.22 -361.874 -1.03001e-17)
(1870.11 -461.456 -1.99244e-20)
(1898.88 -556.605 -2.07574e-20)
(1896.31 -630.378 1.76469e-20)
(1882.89 -680.68 -3.66921e-17)
(1855.14 -663.363 -5.68152e-18)
(1848.74 -546.711 3.45541e-17)
(1758.08 -411.569 0)
(1384.34 -354.447 5.35655e-17)
(1403.79 334.406 -1.00675e-16)
(1780 361.844 4.28281e-17)
(1862.76 473.247 3.3313e-17)
(1879.43 607.644 -3.95388e-17)
(1903.62 637.65 0)
(1910.36 601.614 -2.14421e-21)
(1900.08 540.703 0)
(1883.94 454.992 -2.37116e-21)
(1857.73 355.039 -2.45553e-21)
(1836.9 262.17 0)
(1820.91 171.983 0)
(1820.69 83.4228 -2.54987e-21)
(1816.57 -1.81194 0)
(1820.42 -89.0737 0)
(1823.05 -177.377 -9.76827e-18)
(1839.6 -267.59 9.86008e-18)
(1864.6 -361.608 -2.44781e-21)
(1889.28 -462.522 -1.85002e-17)
(1909.88 -550.1 1.79486e-17)
(1909.86 -605.197 0)
(1897.31 -639.893 3.63972e-17)
(1872.87 -600.452 -7.3474e-17)
(1853.42 -466.454 7.55823e-17)
(1776.17 -362.66 5.41029e-18)
(1399.33 -333.328 -5.05375e-17)
(1431.77 300.715 1.20547e-20)
(1795 307.382 -9.76956e-21)
(1850.24 413.62 0)
(1890.55 532.375 0)
(1913.71 600.978 0)
(1926.41 579.899 7.94892e-21)
(1917.09 517.231 0)
(1901.35 435.703 -8.51424e-21)
(1877.56 345.909 0)
(1858.57 260.629 -8.76771e-21)
(1853.4 173.199 0)
(1849.3 83.1297 -2.36456e-18)
(1849.9 -2.66595 2.341e-18)
(1848.81 -90.6114 0)
(1855.13 -179.985 9.25897e-18)
(1861.46 -269.182 -1.86469e-17)
(1882.81 -353.283 9.26755e-18)
(1906.09 -442.816 0)
(1928.12 -528.62 1.74101e-17)
(1928 -589.372 -1.63427e-17)
(1908.98 -605.334 3.60355e-17)
(1888.93 -534.29 -3.19468e-17)
(1851.41 -402.343 0)
(1789.42 -305.576 0)
(1416.28 -309.955 0)
(1440.59 288.841 -1.20771e-20)
(1794.26 285.508 9.65938e-21)
(1846.4 338.445 0)
(1909.15 456.28 0)
(1924.72 548.005 0)
(1938.14 551.153 -8.04551e-21)
(1928.84 505.277 0)
(1918.97 430.962 8.78455e-21)
(1900.49 341.546 0)
(1889.2 256.151 -8.94261e-18)
(1878.9 169.989 8.96129e-18)
(1881.63 83.6134 -8.39689e-21)
(1878.23 -0.442722 9.24676e-21)
(1881.15 -87.4222 8.38742e-21)
(1880.13 -173.124 0)
(1890.3 -259.06 0)
(1905.16 -345.485 8.94743e-21)
(1921.94 -434.328 -1.74456e-17)
(1937.47 -511.335 1.67779e-17)
(1940.22 -554.236 0)
(1919 -550.69 7.97105e-21)
(1903.33 -460.29 0)
(1841.5 -332.853 0)
(1802.08 -284.81 0)
(1447.39 -290.619 0)
(1461.32 272.264 -4.60904e-17)
(1803.95 263.888 3.92576e-17)
(1856.26 286.344 0)
(1915.21 356.918 -1.70462e-20)
(1933.47 495.066 0)
(1949.91 521.225 -1.52179e-17)
(1946.35 478.29 3.29934e-17)
(1935.2 407.675 -1.69965e-17)
(1917.38 326.671 -8.53098e-18)
(1904.93 250 8.58744e-18)
(1905.92 168.63 4.37839e-21)
(1903.85 81.6324 1.11939e-18)
(1905.5 -2.0092 -1.07394e-18)
(1903.69 -88.4321 8.5496e-18)
(1907.17 -174.307 -8.58296e-18)
(1906.84 -256.766 0)
(1921.72 -332.443 -1.60951e-20)
(1938.8 -413.022 0)
(1957.12 -488.376 0)
(1952.63 -529.777 -1.70049e-17)
(1930.91 -502.023 1.49749e-17)
(1910.72 -357.12 0)
(1852.12 -277.428 3.73006e-17)
(1808.23 -263.23 1.56106e-18)
(1456.4 -274.331 -9.39603e-17)
(1484.53 260.59 4.58998e-17)
(1814.44 248.081 1.85829e-20)
(1866.19 225.983 3.18183e-17)
(1914.51 294.901 -2.38396e-17)
(1940.02 435.941 -1.8449e-17)
(1957.18 474.516 0)
(1955.44 456.327 8.34456e-21)
(1950.6 397.488 1.61754e-17)
(1937.07 317.885 -1.64955e-17)
(1932.24 239.445 0)
(1926.39 158.729 0)
(1931.14 77.2823 -2.58123e-20)
(1928.38 -3.47722 3.22424e-20)
(1930.77 -86.8018 1.67942e-20)
(1926.93 -166.655 4.13991e-18)
(1932.89 -247.196 -4.09598e-18)
(1941.58 -326.429 8.78558e-21)
(1953.34 -403.685 1.65074e-17)
(1964.9 -464.79 -3.25141e-17)
(1962.62 -477.617 1.4802e-17)
(1940.63 -432.205 -1.55177e-20)
(1908.09 -287.7 0)
(1861.56 -224.008 1.76135e-20)
(1821.35 -251.7 3.85834e-17)
(1475.21 -257.965 -9.06765e-17)
(1497.19 239.447 -4.50131e-17)
(1828.77 230.958 -3.6672e-17)
(1871.86 197.709 3.53662e-17)
(1892.76 199.544 1.47348e-17)
(1944.74 356.673 -1.92561e-17)
(1962.76 430.618 0)
(1970.83 425.616 4.0065e-21)
(1966.16 372.922 -1.17875e-20)
(1952.96 302.701 7.92454e-18)
(1944.4 234.384 -1.60312e-17)
(1949.02 159.542 7.98481e-18)
(1948.58 77.8874 1.99279e-18)
(1950.8 -1.19993 -1.86305e-18)
(1947.99 -82.7915 1.85657e-18)
(1949.61 -162.762 -1.99398e-18)
(1945.08 -238.473 0)
(1956 -306.714 1.18168e-20)
(1968.73 -376.211 -3.76629e-21)
(1980.89 -435.731 -1.66714e-17)
(1965.19 -440.886 1.44908e-17)
(1947.21 -366.605 0)
(1887.45 -198.36 0)
(1868.63 -195.81 -4.25002e-21)
(1832.08 -230.779 -3.79894e-17)
(1502.15 -233.11 -1.59734e-18)
(1511.03 222.283 -2.11022e-17)
(1837.78 220.857 1.86955e-17)
(1881.4 179.097 4.26123e-21)
(1901.2 144.503 0)
(1949.39 265.332 1.42135e-17)
(1966.23 363.135 -1.74379e-17)
(1975.33 390.469 3.78908e-21)
(1977.78 357.759 3.84538e-21)
(1969.08 292.929 1.46347e-20)
(1969.05 222.833 -1.90864e-18)
(1965.88 147.642 9.77346e-19)
(1971.88 72.3945 1.88664e-18)
(1969.31 -2.77301 -9.6659e-19)
(1970.87 -80.6153 3.85608e-18)
(1965.93 -154.201 -3.85441e-18)
(1969.14 -229.677 0)
(1972.76 -300.88 1.07452e-20)
(1978.95 -363.352 -1.60206e-17)
(1984.73 -397.833 1.48103e-17)
(1970.98 -367.506 3.75589e-21)
(1947.39 -261.167 0)
(1894.11 -137.526 0)
(1877.62 -181.177 4.28752e-21)
(1841.56 -223.783 -3.72919e-17)
(1513.56 -216.638 4.24763e-17)
(1536.92 195.234 2.11919e-20)
(1852.29 199.252 0)
(1898.57 161.269 -7.9786e-21)
(1904.13 72.4147 -1.48925e-17)
(1933.76 190.081 1.8381e-17)
(1968.02 315.278 -1.40809e-17)
(1980.37 347.112 1.66485e-17)
(1989.92 322.917 -7.38282e-18)
(1982.09 270.891 7.69555e-18)
(1977.64 212.591 -3.73943e-18)
(1984.78 144.688 3.75385e-18)
(1985.32 69.8178 -1.8364e-18)
(1987.73 -2.84206 2.09471e-18)
(1984.34 -78.7681 -2.48506e-19)
(1985.17 -152.161 3.74933e-18)
(1977.98 -220.357 -7.51691e-18)
(1985.07 -279.337 -4.00232e-18)
(1992.81 -330.158 7.30832e-18)
(1992.85 -356.848 1.47336e-20)
(1974.31 -319.062 -7.59661e-21)
(1933.52 -188.525 0)
(1899.31 -69.9824 0)
(1896.11 -164.524 0)
(1850.09 -202.095 -1.83669e-17)
(1533.61 -191.598 2.06535e-17)
(1544.68 176.855 -2.55382e-21)
(1858.83 179.494 0)
(1915.74 154.073 1.01791e-20)
(1912.31 54.8463 -8.04221e-21)
(1908.42 105.154 -7.54943e-21)
(1965.18 206.598 0)
(1979.62 295.361 -7.41627e-21)
(1995.58 300.37 7.14797e-18)
(1994.18 259.967 -7.59703e-18)
(1999.77 202.598 0)
(1998.75 134.786 1.73156e-21)
(2005.05 66.7473 0)
(2002.89 -1.43622 0)
(2004.28 -73.0196 1.81421e-18)
(1998.54 -139.516 -1.8199e-18)
(1999.76 -207.698 -7.25736e-21)
(1996.81 -267.055 -1.75296e-21)
(1993.9 -307.46 7.32161e-21)
(1987.3 -303.038 -8.44713e-18)
(1975.23 -220.605 7.02509e-18)
(1901.39 -103.528 -1.74384e-17)
(1903.59 -51.5384 3.22804e-17)