/*--------------------------------*- C++ -*----------------------------------*\
| =========                 |                                                 |
| \\      /  F ield         | OpenFOAM: The Open Source CFD Toolbox           |
|  \\    /   O peration     | Version:  2112                                  |
|   \\  /    A nd           | Website:  www.openfoam.com                      |
|    \\/     M anipulation  |                                                 |
\*---------------------------------------------------------------------------*/
FoamFile
{
    version     2.0;
    format      ascii;
    arch        "LSB;label=32;scalar=64";
    class       volScalarField;
    location    "0.00378";
    object      p;
}
// * * * * * * * * * * * * * * * * * * * * * * * * * * * * * * * * * * * * * //

dimensions      [1 -1 -2 0 0 0 0];

internalField   nonuniform List<scalar> 
13875
(
951596
984283
973631
975785
973373
974422
974560
974315
974888
975089
975066
974988
974734
974844
974878
974620
974480
974424
973912
973952
973093
975614
972398
982625
945195
733817
659564
672299
677326
670292
668564
668604
670331
677735
679041
679176
678117
670433
669370
670454
677761
678614
677056
670251
668208
669253
676969
672288
657413
730615
736908
635543
664390
653458
648176
645872
644995
645581
647733
646621
646392
647108
645816
645571
645421
648550
645167
647777
646066
646200
647614
651835
661911
632192
733340
743555
636187
665269
653604
648451
646060
645134
645633
645474
644597
644393
645171
645917
645681
645488
645692
643695
645599
646154
646407
647895
651954
662659
632791
739035
757393
639192
667812
654285
649300
646620
645541
645858
645590
644720
644627
645276
646174
645979
645726
645766
643877
645687
646461
646972
648703
652537
664946
635420
750255
759091
647847
673567
656220
651123
647811
646391
646395
645941
645091
645273
645644
646692
646582
646254
646029
644404
646021
647160
648146
650456
654407
670536
643142
751790
765131
668356
685785
661116
654889
650251
648103
647569
646754
645954
646325
646580
647750
647763
647334
646687
645553
647026
648725
650635
654323
660081
682108
665855
756023
791382
718401
711754
674594
663118
655482
651651
650105
648681
647900
648396
648590
649906
650143
649555
648351
647912
649366
651964
655605
662255
673091
707237
715472
782304
909089
828022
766896
704871
679941
666011
658817
655388
653041
652170
652669
652841
654386
654953
654107
652261
652729
654505
658567
665465
678234
701566
760792
823640
910883
1.52567e+06
1.02971e+06
835273
742644
701994
681201
670601
665032
662017
661166
661543
661699
663551
664517
663453
661121
662186
664442
669736
680334
700443
739898
831296
1.02667e+06
1.52112e+06
2.91184e+06
1.3944e+06
964487
806775
739699
708073
692555
684463
680821
679774
679810
679849
681975
683450
682550
680270
681314
684154
690764
705263
735250
798684
947535
1.35412e+06
2.87137e+06
5.62489e+06
2.35106e+06
1.3175e+06
969237
825336
767328
740935
728383
723189
721469
720860
720602
722958
724957
724525
723343
724577
728798
739262
763356
818701
955102
1.28132e+06
2.28407e+06
5.59948e+06
5.41723e+06
4.83837e+06
2.43493e+06
1.5043e+06
1.06799e+06
929211
870797
844906
834345
830261
828439
827741
829963
832485
833063
834458
838205
847985
872755
930062
1.06737e+06
1.4746e+06
2.31212e+06
4.88548e+06
5.37132e+06
4.89738e+06
4.69924e+06
4.93693e+06
4.3543e+06
1.8416e+06
1.44882e+06
1.29715e+06
1.22991e+06
1.20444e+06
1.19392e+06
1.18987e+06
1.18883e+06
1.19075e+06
1.19351e+06
1.19702e+06
1.20331e+06
1.21644e+06
1.24644e+06
1.32589e+06
1.5078e+06
1.99309e+06
4.42673e+06
4.91925e+06
4.76105e+06
4.80594e+06
4.13782e+06
4.27985e+06
4.79991e+06
4.76371e+06
4.46526e+06
3.35328e+06
3.07896e+06
2.76499e+06
2.63113e+06
2.57901e+06
2.55715e+06
2.54816e+06
2.54667e+06
2.55151e+06
2.56413e+06
2.59011e+06
2.64667e+06
2.78484e+06
3.14643e+06
3.44634e+06
4.46866e+06
4.7601e+06
4.81843e+06
4.43463e+06
4.3753e+06
3.75985e+06
3.80599e+06
4.43244e+06
5.04349e+06
6.37486e+06
7.51494e+06
8.10808e+06
8.05057e+06
8.15293e+06
8.06042e+06
8.07793e+06
8.01827e+06
8.03908e+06
8.03086e+06
8.07087e+06
8.07499e+06
8.15706e+06
8.07297e+06
8.19836e+06
7.60659e+06
6.4115e+06
5.10347e+06
4.55653e+06
3.96628e+06
3.99461e+06
2.95646e+06
3.32058e+06
4.37851e+06
5.23608e+06
6.42175e+06
7.30175e+06
7.66432e+06
7.57736e+06
7.46914e+06
7.36909e+06
7.31613e+06
7.2865e+06
7.27698e+06
7.28108e+06
7.32103e+06
7.37104e+06
7.48414e+06
7.57038e+06
7.66909e+06
7.3561e+06
6.52787e+06
5.27836e+06
4.44885e+06
3.43517e+06
3.13486e+06
2.24549e+06
2.96091e+06
4.31018e+06
5.15049e+06
5.75136e+06
6.16948e+06
6.26073e+06
6.24199e+06
6.19539e+06
6.19007e+06
6.18532e+06
6.17664e+06
6.17312e+06
6.17455e+06
6.18037e+06
6.17811e+06
6.18888e+06
6.21365e+06
6.21275e+06
6.15757e+06
5.82841e+06
5.25738e+06
4.29126e+06
2.76718e+06
2.05028e+06
1.15073e+06
1.92517e+06
3.63928e+06
4.19616e+06
4.53645e+06
4.81618e+06
5.00225e+06
5.17764e+06
5.3418e+06
5.46571e+06
5.53334e+06
5.56515e+06
5.57567e+06
5.56352e+06
5.53064e+06
5.4569e+06
5.34258e+06
5.18323e+06
5.01461e+06
4.84644e+06
4.59777e+06
4.28574e+06
3.67312e+06
1.93004e+06
1.1267e+06
551416
1.22205e+06
2.70286e+06
3.15958e+06
3.41263e+06
3.77414e+06
4.17123e+06
4.4771e+06
4.70565e+06
4.85495e+06
4.94339e+06
4.99379e+06
5.0134e+06
4.99815e+06
4.95108e+06
4.86354e+06
4.72469e+06
4.50072e+06
4.18635e+06
3.78267e+06
3.43194e+06
3.17983e+06
2.68961e+06
1.22572e+06
546120
641238
1.11342e+06
1.75103e+06
2.23103e+06
2.60201e+06
3.05841e+06
3.52579e+06
3.87687e+06
4.12458e+06
4.28129e+06
4.38014e+06
4.43945e+06
4.46169e+06
4.44492e+06
4.39056e+06
4.29375e+06
4.1418e+06
3.8914e+06
3.51869e+06
3.02889e+06
2.57202e+06
2.19997e+06
1.7067e+06
1.05265e+06
630393
992936
1.03468e+06
1.19995e+06
1.69963e+06
2.05903e+06
2.57306e+06
3.00318e+06
3.33623e+06
3.58234e+06
3.74255e+06
3.8458e+06
3.90627e+06
3.92861e+06
3.90926e+06
3.85103e+06
3.74866e+06
3.59008e+06
3.33991e+06
2.99126e+06
2.54102e+06
2.01118e+06
1.66084e+06
1.1609e+06
1.00542e+06
1.00053e+06
1.35584e+06
1.05148e+06
1.06241e+06
1.36808e+06
1.7029e+06
2.21447e+06
2.57719e+06
2.87098e+06
3.10378e+06
3.25947e+06
3.36014e+06
3.41978e+06
3.44061e+06
3.419e+06
3.35928e+06
3.2574e+06
3.09954e+06
2.86319e+06
2.55887e+06
2.19748e+06
1.65334e+06
1.33332e+06
1.04328e+06
1.03041e+06
1.36332e+06
1.40883e+06
1.07818e+06
1.06904e+06
1.22057e+06
1.49185e+06
1.9022e+06
2.20896e+06
2.48118e+06
2.68699e+06
2.8269e+06
2.92478e+06
2.98229e+06
3.00348e+06
2.98092e+06
2.92243e+06
2.81887e+06
2.67448e+06
2.46458e+06
2.17617e+06
1.87565e+06
1.46359e+06
1.19126e+06
1.04948e+06
1.06124e+06
1.37234e+06
1.40807e+06
1.12406e+06
1.08725e+06
1.15049e+06
1.34852e+06
1.64781e+06
1.90452e+06
2.14886e+06
2.33093e+06
2.45811e+06
2.54823e+06
2.60422e+06
2.6204e+06
2.60223e+06
2.54723e+06
2.44932e+06
2.31829e+06
2.13122e+06
1.87313e+06
1.61639e+06
1.32562e+06
1.12673e+06
1.0682e+06
1.11196e+06
1.3765e+06
1.41421e+06
1.19923e+06
1.12561e+06
1.12095e+06
1.24314e+06
1.44876e+06
1.66214e+06
1.87203e+06
2.02794e+06
2.142e+06
2.22513e+06
2.2694e+06
2.28734e+06
2.26759e+06
2.2201e+06
2.13141e+06
2.01066e+06
1.84973e+06
1.6329e+06
1.4205e+06
1.22793e+06
1.10333e+06
1.10738e+06
1.18783e+06
1.38304e+06
1.43363e+06
1.33225e+06
1.17085e+06
1.12177e+06
1.17009e+06
1.30066e+06
1.47077e+06
1.64183e+06
1.77565e+06
1.87675e+06
1.94809e+06
1.98798e+06
2.00005e+06
1.98517e+06
1.93929e+06
1.86454e+06
1.75712e+06
1.61912e+06
1.44366e+06
1.26976e+06
1.14836e+06
1.10388e+06
1.15393e+06
1.33918e+06
1.40829e+06
1.48523e+06
1.47702e+06
1.20214e+06
1.12069e+06
1.11701e+06
1.18467e+06
1.31112e+06
1.44715e+06
1.55736e+06
1.64581e+06
1.70993e+06
1.74184e+06
1.75538e+06
1.73885e+06
1.70249e+06
1.63629e+06
1.54309e+06
1.42941e+06
1.2916e+06
1.16365e+06
1.09993e+06
1.10353e+06
1.18109e+06
1.45572e+06
1.46807e+06
1.59459e+06
1.53598e+06
1.22679e+06
1.11376e+06
1.08329e+06
1.1038e+06
1.18928e+06
1.2909e+06
1.38125e+06
1.45515e+06
1.50656e+06
1.5376e+06
1.54631e+06
1.53366e+06
1.4998e+06
1.44477e+06
1.36585e+06
1.27254e+06
1.16987e+06
1.08433e+06
1.06624e+06
1.09603e+06
1.2005e+06
1.49148e+06
1.59504e+06
1.81755e+06
1.58799e+06
1.24122e+06
1.09743e+06
1.04698e+06
1.04388e+06
1.08934e+06
1.16038e+06
1.22902e+06
1.28935e+06
1.33547e+06
1.35839e+06
1.36778e+06
1.35338e+06
1.32727e+06
1.27952e+06
1.21462e+06
1.14272e+06
1.07114e+06
1.02569e+06
1.02887e+06
1.07945e+06
1.22733e+06
1.57138e+06
1.75594e+06
1.85576e+06
1.64518e+06
1.26743e+06
1.08219e+06
1.00764e+06
989407
1.00841e+06
1.05551e+06
1.10542e+06
1.15298e+06
1.18758e+06
1.20966e+06
1.2155e+06
1.20625e+06
1.18117e+06
1.1441e+06
1.09415e+06
1.04268e+06
996140
976460
993920
1.06694e+06
1.2493e+06
1.63087e+06
1.85242e+06
1.85404e+06
1.67886e+06
1.3135e+06
1.08031e+06
974819
942932
940765
968588
1.00111e+06
1.03389e+06
1.0636e+06
1.07844e+06
1.08562e+06
1.07643e+06
1.05766e+06
1.02642e+06
989572
956197
928043
929899
960228
1.06326e+06
1.2838e+06
1.66937e+06
1.85173e+06
1.84341e+06
1.68345e+06
1.37188e+06
1.08249e+06
945368
896355
885614
894990
915708
938676
957800
971172
975008
969192
951648
930954
906259
885019
872931
883774
932334
1.06678e+06
1.34744e+06
1.67656e+06
1.84696e+06
1.82152e+06
1.6828e+06
1.49275e+06
1.09503e+06
924690
854929
832893
830388
840654
852822
868071
875689
879989
874160
863195
846965
833013
821911
824373
844638
911937
1.07509e+06
1.44138e+06
1.67269e+06
1.82994e+06
1.77865e+06
1.67919e+06
1.57624e+06
1.12422e+06
918217
821124
785806
776969
778616
784533
792052
798306
799797
796620
787540
779508
772689
769399
776944
811509
907505
1.09979e+06
1.58971e+06
1.66536e+06
1.7949e+06
1.74969e+06
1.6605e+06
1.5741e+06
1.15533e+06
920283
794094
743812
727086
723528
723360
726611
729278
730623
726852
722921
718793
717229
720162
736596
785368
911845
1.14732e+06
1.59332e+06
1.64725e+06
1.72857e+06
1.71267e+06
1.6216e+06
1.569e+06
1.21995e+06
931057
777941
709443
683917
675300
672952
671902
672877
672311
670812
668878
669552
671499
678573
702479
770529
919500
1.21502e+06
1.58304e+06
1.6042e+06
1.6909e+06
1.67154e+06
1.56566e+06
1.55492e+06
1.34936e+06
957253
778237
684530
646751
632137
625501
622812
621124
621075
620135
620908
622870
627886
641284
677539
771244
941737
1.35171e+06
1.56132e+06
1.54617e+06
1.65159e+06
1.64206e+06
1.51682e+06
1.51685e+06
1.35249e+06
989049
781622
669681
617383
596487
587818
581718
579195
578025
578888
579883
584983
593441
612733
664098
779173
988782
1.35904e+06
1.51616e+06
1.49926e+06
1.61549e+06
1.60667e+06
1.47468e+06
1.44105e+06
1.34881e+06
1.05644e+06
795252
670040
595319
565195
550825
544392
540140
539594
540110
543247
549031
561907
591452
664217
791097
1.06364e+06
1.35336e+06
1.42147e+06
1.46137e+06
1.5888e+06
1.56213e+06
1.43495e+06
1.36164e+06
1.3359e+06
1.19172e+06
824414
674016
583883
541686
524263
513332
509248
507122
508645
512086
521931
539882
581284
667786
818430
1.21586e+06
1.33786e+06
1.34251e+06
1.42978e+06
1.55232e+06
1.52815e+06
1.40375e+06
1.29974e+06
1.3013e+06
1.19095e+06
866856
680179
584070
525999
497619
485435
479457
478166
478633
484597
495671
523152
581711
682328
877257
1.21607e+06
1.30341e+06
1.28729e+06
1.40007e+06
1.50752e+06
1.47758e+06
1.37569e+06
1.25198e+06
1.23253e+06
1.1829e+06
956267
698996
587602
520896
483671
463200
456414
453393
455752
461804
481031
517169
584493
707040
981028
1.20083e+06
1.23273e+06
1.24214e+06
1.37063e+06
1.47295e+06
1.42411e+06
1.34557e+06
1.21743e+06
1.16798e+06
1.16063e+06
1.04664e+06
736467
597722
521542
468831
444783
433970
431461
433368
443739
467031
517881
593552
757007
1.0555e+06
1.16662e+06
1.16721e+06
1.21147e+06
1.34417e+06
1.42985e+06
1.384e+06
1.31081e+06
1.19016e+06
1.1165e+06
1.1107e+06
1.04216e+06
801524
615767
523599
468636
435048
419693
413925
418875
433521
467083
522958
617157
863142
1.05035e+06
1.09877e+06
1.11336e+06
1.1884e+06
1.30864e+06
1.37867e+06
1.34208e+06
1.27662e+06
1.17116e+06
1.07274e+06
1.04429e+06
1.02833e+06
936495
655088
532558
470101
434366
409558
402201
408723
431263
468149
534020
658928
930828
1.02887e+06
1.03356e+06
1.07076e+06
1.17077e+06
1.27463e+06
1.34434e+06
1.29497e+06
1.23377e+06
1.15019e+06
1.0464e+06
995955
996245
935640
735493
554032
474884
434986
409029
397068
408548
431775
472046
558759
743516
927630
982935
983907
1.04322e+06
1.15212e+06
1.23835e+06
1.30135e+06
1.25354e+06
1.19807e+06
1.12964e+06
1.02661e+06
956115
939190
923908
844212
595215
485038
436682
409435
397535
409099
434876
483996
613981
842835
916488
928177
947331
1.02564e+06
1.1315e+06
1.20026e+06
1.25253e+06
1.17042e+06
1.14575e+06
1.09985e+06
1.01232e+06
932312
894769
897247
842252
682244
508320
443362
411572
399598
411077
442664
507913
723392
841346
889737
887124
925814
1.01122e+06
1.10205e+06
1.14628e+06
1.16559e+06
1.04187e+06
1.07496e+06
1.05833e+06
990079
912941
856183
849185
831442
765370
558525
461224
417753
405121
417095
461470
558226
764831
829994
845234
851806
909363
990939
1.05791e+06
1.0761e+06
1.03998e+06
75403.5
76039.9
76459.9
76515.9
76605.5
76982
77211.7
77835.8
78188.3
78454.1
78505.6
78515.9
78644.3
78909.1
79232.6
79586.9
79830.2
80238.4
81466.6
83415.2
85714.4
87196.9
89794.9
93906.1
102900
138912
193836
204642
206042
206180
75851.4
76880
77220.9
77163.7
77039.8
77234.4
77458.6
78100
78500.7
78941.4
79249.7
79395.8
79529.4
79738.5
79912.9
79915.9
79910.9
80152.2
80645
81788.1
83756
86297.2
90098.1
96527.6
118420
176563
192345
199274
201654
199828
76465
77736.4
77793.1
77563.5
77412.2
77578.5
77854.6
78484.9
78954.9
79485.5
79822.7
80096.2
80285.7
80347.4
80322.7
80137.9
79976.1
79826.8
79911
80802.7
82731.7
86042.8
90792.8
104324
163079
187000
191774
195105
196311
195528
77021.2
78387.3
78141.3
77930.8
77849.8
78091.3
78407.3
79028.7
79500.1
80017.7
80451.6
80755.2
80927.9
80842.1
80580.3
80248.2
79896.4
79624.5
79537
80310.9
82318.7
86121
94683.9
134319
181479
189348
191161
191072
190358
191241
77736
78832.9
78496.1
78302.7
78374.5
78686.2
79017
79603.1
80052.4
80819.6
81297.5
81458.8
81521.6
81273.5
80874.8
80391.3
79877
79562.7
79413.2
80139.4
82283.8
87782.7
107870
170464
186448
189544
189674
187713
186982
188820
78474.5
79077.2
78825.1
78739.2
78980.3
79345.1
79665.6
80158.4
80721.9
81151.2
81576
81841.7
81902.7
81663.2
81149.2
80590.2
80004.3
79722.5
79410.9
80130.6
82961.8
94153
149213
181084
187158
188793
186379
185134
185320
187461
78997.5
79205.6
79101.7
79204.7
79572.2
79980.6
80257.8
80677.1
81008.7
81260
81648.1
81886.4
81942.7
81851.7
81340.2
80667.5
80260.3
79866.9
79740.2
80614.2
86160.2
117312
171506
183294
186397
185776
183200
182541
183550
185053
79269.3
79330.9
79374.8
79689.1
80129.7
80522.4
80726.5
80952.7
81062.2
81268.6
81639
81874.9
81941.2
81923.9
81490.3
80835.6
80314.9
79951.6
79953.3
82187.9
95966.4
157330
178198
183278
184022
181890
180250
179864
181214
181935
79445.2
79475.7
79668.7
80135.8
80585.6
80825.5
80937.1
81018.6
81044.5
81165.8
81437.8
81777.5
81897
81917.5
81625.8
81047.3
80369
80163.3
80793.5
86772.8
128250
170538
179100
181392
180996
178421
177351
177189
178369
178827
79672.7
79672.6
79980.6
80502.8
80822.7
80980.8
81029.2
80994.3
80930.6
80960.9
81217.4
81584.2
81824.4
81893.8
81848.6
81126.7
80525.5
80491.2
82900
100864
158785
174405
178419
178731
177200
175442
174577
174456
175228
175559
80033.8
79971
80331
80815.4
81016
81084
81062
80914.1
80840.9
80778.6
81086.7
81495.4
81781.8
81914.4
81961.4
81223
80696.5
81431.6
88263.6
134758
168295
174612
175950
175839
173629
172287
171638
171554
172003
172083
80367.1
80450.2
80734
81191
81312.1
81315.2
81104.5
80905
80818.1
80769.6
81020.6
81435.4
81777.5
81928.6
81984.9
81295.7
81173.4
83757.4
103624
156436
170283
173191
173350
172240
170255
169054
168535
168516
168762
168753
80851
81147.8
81307.8
81700.7
81799.8
81736.6
81332.3
81036.8
80930.9
80915.7
80994.8
81413
81750.9
81875.3
81836.6
81384.9
82110.8
89008.2
132445
165526
170278
170762
170495
168390
166823
165791
165342
165320
165529
165460
81656.8
82038.4
82134.1
82339
82363.6
82373.1
81942
81392.7
81085.8
80968
80980.8
81199.9
81533.1
81627.8
81395.2
81560.9
84395.9
104804
159962
171745
170620
168815
167029
164694
163409
162501
162129
162148
162351
162216
82652.7
83096.9
83078.6
83007
82911.2
82911.8
82430.8
81761.2
81194.5
80974.4
80978
81025.3
81021
80860.4
81128.2
82352.6
90412
141462
173826
174700
170286
166494
163249
161282
159992
159221
158922
159030
159182
159005
83817
84234.2
83976
83631.8
83317.1
83163.6
82654.2
81879.6
81205.2
80798
80512.1
80352.9
80386.8
80619.2
81327.3
85208.1
113865
173680
183401
175533
169193
163448
159844
158018
156591
155910
155683
155911
156069
155868
84863.5
85119.2
84639.7
84174.9
83681.1
83284.1
82707.3
81871.6
81108.4
80570.6
80372.4
80316.6
80434.5
80925.6
83212.3
96781.6
166714
187637
186962
175573
167108
160179
156832
154558
153268
152669
152493
152815
152960
152791
85960.5
85862.1
85211.1
84498.7
83864.8
83360.3
82675.6
81773.1
81136.5
80940.4
81022.8
81250.5
81734.8
83551
92324.8
149878
189080
193686
187620
175076
163872
157368
153492
151133
149966
149476
149366
149722
149843
149730
86134
86097.2
84987.3
84355.2
83624.8
83267.5
82444.5
82067.7
82192.8
82896.5
84536.5
86487.1
89233.8
96469.3
143595
186856
195467
195616
187547
172409
160341
154283
149933
147728
146673
146259
146182
146552
146649
146599
87294.8
86499.1
85683.3
84519.9
83917.3
83315.3
83056.6
83682.3
86803.2
92382.1
101578
113558
126980
149696
182067
193760
196291
195707
185019
167128
157045
150345
146291
144278
143344
143014
142962
143299
143366
143345
86079.7
85802
84386.1
84107.2
83465.7
83839.4
86039.6
94096.8
112948
133742
146250
150049
153649
169191
186579
192857
193191
191867
177782
161844
152756
145907
142452
140742
139996
139787
139777
140032
140040
140021
87492.3
86026.3
85853.9
84661.5
84758.3
87887.8
103984
138764
158130
161765
157919
156045
156424
170638
178974
181461
182168
181831
168062
156239
147337
141558
138628
137205
136620
136478
136694
136841
136807
136775
83843.5
84419.4
82772
83499.7
87793.9
110436
151845
164376
166635
165117
157155
152364
150897
160411
165214
166723
167082
167072
156445
148479
141473
136957
134746
133733
133356
133267
133668
133839
133818
133760
90406.8
84100.7
85269.4
87106
106988
151735
164223
166876
166482
160679
148010
143128
142297
145507
147013
148321
149145
149367
143320
139643
135094
132253
130897
130363
130221
130222
130746
130987
130953
130948
66643.2
80276.8
83967.3
93374
141669
160156
164751
165575
162872
153482
145822
138661
132792
130653
129675
129322
131365
132004
130450
129957
128060
127082
126733
126691
126739
127391
127965
128281
128242
128273
206538
206390
204935
193960
138918
102925
93934.2
89824.3
87212.7
85738.2
83443.7
81503
80293.4
79930.4
79691.5
79331.8
79011.2
78748.7
78644.3
78674.5
78727.4
78415.7
78059.2
77418.2
77195.3
76794.6
76681.6
76604.1
76169.5
75470.9
200247
202049
199586
192576
176708
118498
96566.4
90129.1
86321.7
83752.9
81820.8
80660.2
80257.1
80056.1
80100.1
80095.1
79933.9
79768.9
79722.4
79629.6
79300.6
78803.1
78376.3
77734.9
77513.2
77334.7
77453.7
77501.8
77150.1
76025.9
195955
196694
195432
192035
187209
163280
104403
90839.9
86071.9
82771.2
80867.4
79987.1
79943
80111.3
80360.1
80605.6
80684.9
80675.8
80564.8
80298
79888.8
79291.5
78811.5
78174.8
77902.6
77744.6
77909.3
78141.8
78103
76733.3
191664
190738
191402
191449
189570
181659
134530
94768.7
86155.1
82374.1
80396.7
79655.2
79777.8
80095.2
80505
80936.8
81297
81489.1
81358.1
81118.5
80471.5
79881.5
79395.6
78767.5
78450.7
78224.7
78306.9
78514.9
78766.8
77331.3
189114
187265
188002
189927
189765
186616
170627
107991
87841.4
82342.4
80242.9
79557.9
79732.6
80098.3
80693.3
81313.4
81824.5
82225.1
82143
81791.4
81252.1
80466
80008.6
79412.2
79084.4
78782
78702.7
78869.7
79205.5
78030.9
187614
185506
185337
186588
188968
187320
181224
149405
94263
83050.1
80243.7
79572.4
79911.8
80329
81015.2
81659.6
82339.6
82452.7
82338.8
82015.6
81559.4
81152.3
80614.1
80106.1
79784
79417.5
79155.3
79202.8
79434
78797.3
185093
183612
182637
183304
185893
186523
183419
171680
117532
86306.4
80794.2
80012
80215.6
80613.5
81186.4
81984.5
82538.8
82509.6
82372.2
82051.5
81667.8
81469.2
81233.9
80838.8
80467.5
80031.4
79635.3
79471.9
79550.8
79341.5
181872
181174
179855
180253
181929
184105
183394
178371
157610
96208.6
82433.7
80295.9
80346.7
80833.5
81429.6
82209.5
82545.1
82520.8
82341.1
81995.6
81669.8
81540.8
81479.9
81309
81098.5
80612.1
80127.9
79744.7
79659.8
79616.8
178699
178254
177099
177275
178381
181038
181509
179277
170868
128704
87131.9
81267.6
80686.6
80946.1
81822.3
82411.4
82532.3
82487.9
82258.3
81813.9
81588.8
81527.2
81524.5
81459.6
81330.1
81093.2
80575.7
80040.9
79823.8
79802.6
175394
175072
174314
174450
175362
177215
178906
178636
174762
159184
101352
83542.7
81253.9
81337.9
82051.8
82576
82523.3
82372.2
82049.1
81613.5
81428.4
81450.3
81477.3
81481.1
81434.1
81277.9
80935.4
80359.4
80051.8
80060.3
171883
171820
171399
171499
172205
173671
176087
176269
174999
168815
135228
88964
82174.8
81745.9
82201.9
82661.3
82548.1
82300
81931.5
81485.7
81244.8
81301.7
81351.5
81458.2
81482.9
81391.4
81187.2
80731.5
80384.2
80477.4
168535
168571
168375
168416
169012
170364
172533
173865
173779
171204
157650
104658
84694.2
82087.4
82245.6
82684.8
82555.8
82279.7
81861.1
81405.2
81193.2
81246
81325.9
81419.8
81605.6
81603.8
81502.7
81114.4
80878.9
80861.2
165267
165370
165191
165240
165793
167012
168779
171237
171780
171665
167277
134145
90108.1
82924.6
82021
82459.6
82404.7
82183.8
81809.2
81363.6
81168.9
81207.2
81361.8
81559.2
81869.3
82006.3
81942.1
81633
81551.4
81349.9
162046
162205
162039
162062
162546
163663
165181
167857
170190
172099
173792
162348
106499
85170.8
82091
81663.7
81849.6
81802.7
81521.7
81195.7
81174.8
81260.4
81542.4
82092.6
82403.7
82528.7
82532.9
82397
82395.1
82092.3
158874
159059
158935
158944
159338
160302
161846
164150
167972
171780
176559
175734
143691
91214.7
82715.8
81331
80987.6
81097.2
81125.5
81072.8
81167.4
81340.3
81813.4
82595.1
83061.8
83072.9
83212.1
83300.3
83389.1
82996.5
155786
156001
155881
155801
156106
156937
158668
160727
164891
170860
177331
184909
175270
115040
85516.5
81503.5
80843.8
80621.8
80573.6
80620.3
80895.1
81346.3
81882.3
82831.3
83483.9
83597.8
83851.4
84187
84464.7
84095.1
152810
153022
152900
152685
152930
153688
155275
157712
161410
168885
177382
188267
188899
168388
97645.6
83488
81251.5
80734.9
80619.8
80624.1
80763.2
81163.1
81842.6
82883.3
83725.9
84111.1
84505.7
84906.3
85317.7
85091.3
149853
150024
149915
149658
149815
150418
151770
154521
158509
165398
176818
188861
194714
190313
153109
93548.2
84438.3
82502.7
81973.8
81494.8
81205.2
81257.6
81797.4
82824.1
83812.4
84367
84908.6
85506.1
86069.9
86161
146795
146912
146823
146552
146668
147180
148393
150860
155453
161631
173975
188757
196494
196371
188248
147939
100648
91529
88747.5
86257.2
84150
83006
82428.2
82676
83756.5
84188.7
84893.4
85388.1
86322.2
86317.4
143583
143648
143600
143353
143426
143833
144907
147170
151522
158447
168338
186071
196528
197062
194471
183258
152842
132878
120404
108101
96270.1
89815.2
85443.3
83769.7
83502.1
84391.5
85073.9
86273.2
86905
87573.5
140293
140329
140341
140140
140177
140463
141330
143233
147040
154272
162819
178434
192255
193250
192955
186863
168501
154282
151547
149575
141446
120785
98949.5
88360.7
84451
83603.9
84297.3
84764.4
86297.2
86377.2
137037
137074
137134
136996
136910
137069
137701
139226
142357
148666
157104
168525
181703
181731
181082
177991
169156
156137
155926
157904
162753
160516
146830
111559
91162.1
85491.7
84818.4
86100.9
86575.8
88081.2
134000
134067
134123
133975
133600
133686
134109
135236
137679
142648
148894
156478
166208
166146
165637
163766
158686
149673
150470
154768
164956
166975
165501
155941
119333
90192.7
84173.9
83066.6
84788.8
84287.3
131149
131192
131223
130975
130439
130455
130628
131249
132786
135975
139710
142868
148231
147923
146921
145638
144226
140762
142661
148495
158317
166617
167458
165159
154656
114155
87970.6
85537.2
84385.9
90755.5
128455
128454
128475
128158
127534
126936
126920
126976
127339
128325
129522
130148
130968
130178
127960
128371
129351
131929
139420
146737
153495
162097
165902
165542
161552
146144
97188.2
84737.8
80509.7
66887.7
70637
70637
70637
70637
70637
70637
70637
70637
70637
70637
70637
70637
70637.1
70646.9
71356.2
95670.5
399501
997187
1.21457e+06
1.24034e+06
1.23624e+06
1.23727e+06
1.26234e+06
1.35689e+06
1.4393e+06
1.51405e+06
1.61493e+06
1.66017e+06
1.67533e+06
1.67768e+06
1.6705e+06
1.63383e+06
1.60353e+06
1.5588e+06
1.53823e+06
1.52302e+06
1.50515e+06
1.48217e+06
1.46094e+06
1.44293e+06
1.42379e+06
1.40009e+06
1.37154e+06
1.33992e+06
1.30914e+06
1.27961e+06
1.24801e+06
1.20718e+06
1.1537e+06
1.09066e+06
1.01592e+06
935448
856619
781150
710598
647236
593507
548012
508104
472957
442368
416015
392593
371220
351583
333150
315795
299437
284320
270535
258141
246969
236764
227313
218578
210423
202740
195514
188790
182486
176502
170814
165517
160718
156467
152749
149485
146573
143914
141466
139199
137068
135023
133028
131065
129138
127268
125487
123822
122279
120845
119501
118239
117071
116017
115090
114287
113609
113051
112551
112200
112059
112060
112072
112124
112299
112769
113823
115059
116114
117526
119218
121210
123442
125873
70637
70637
70636.9
70636.9
70636.9
70636.9
70636.9
70636.9
70636.9
70636.9
70636.9
70636.9
70637.1
70644.3
71131.9
87158.4
345648
958019
1.20511e+06
1.2429e+06
1.24656e+06
1.28369e+06
1.3529e+06
1.39791e+06
1.47785e+06
1.56889e+06
1.61166e+06
1.62969e+06
1.63629e+06
1.63751e+06
1.63323e+06
1.60854e+06
1.57666e+06
1.53836e+06
1.50942e+06
1.48678e+06
1.46215e+06
1.43434e+06
1.40509e+06
1.3837e+06
1.36663e+06
1.34907e+06
1.32956e+06
1.30658e+06
1.27938e+06
1.25225e+06
1.21883e+06
1.17725e+06
1.12938e+06
1.07334e+06
1.00821e+06
933253
857552
787903
721436
658886
603070
555272
513107
475600
441653
412334
387496
365601
345982
327992
311258
295600
281341
268334
256547
245763
235804
226528
217917
209855
202222
195012
188298
182043
176151
170568
165354
160596
156351
152604
149283
146309
143526
140837
138294
135950
133782
131725
129730
127792
125930
124171
122539
121035
119650
118357
117148
116023
115004
114103
113315
112647
112092
111602
111279
111177
111179
111197
111279
111533
112128
113360
114560
115703
117203
118982
121033
123313
125812
70637
70637
70637
70637
70636.9
70636.9
70636.9
70636.9
70636.9
70636.9
70636.9
70636.9
70637
70640
70836.1
77338.5
242936
831768
1.16592e+06
1.22193e+06
1.21988e+06
1.22285e+06
1.22218e+06
1.2396e+06
1.36725e+06
1.50948e+06
1.58003e+06
1.61301e+06
1.6272e+06
1.63204e+06
1.6331e+06
1.63013e+06
1.60599e+06
1.55346e+06
1.50486e+06
1.47252e+06
1.43775e+06
1.39814e+06
1.34792e+06
1.32574e+06
1.30818e+06
1.29711e+06
1.2892e+06
1.28514e+06
1.27734e+06
1.26269e+06
1.24097e+06
1.20969e+06
1.1711e+06
1.12348e+06
1.05661e+06
988848
909517
826536
750460
683268
624077
570597
522724
480763
445022
414890
388878
366583
346939
328970
312368
296820
282390
269124
257118
246297
236355
227110
218499
210408
202729
195514
188854
182654
176784
171193
165942
161138
156860
153085
149725
146667
143848
141225
138713
136257
133896
131669
129545
127518
125586
123772
122099
120565
119156
117851
116637
115513
114487
113570
112762
112070
111484
110996
110701
110592
110593
110615
110705
110971
111611
112929
114102
115368
116970
118838
120976
123320
125839
70637
70637
70637
70636.9
70636.9
70636.9
70636.9
70636.9
70636.9
70636.9
70636.9
70636.9
70637
70637.8
70682.1
72678.9
140886
611353
1.07939e+06
1.20033e+06
1.21977e+06
1.22314e+06
1.22712e+06
1.30498e+06
1.42471e+06
1.53521e+06
1.59904e+06
1.6288e+06
1.6407e+06
1.64366e+06
1.64409e+06
1.64075e+06
1.62156e+06
1.57554e+06
1.5291e+06
1.48222e+06
1.43099e+06
1.38443e+06
1.33899e+06
1.30986e+06
1.29032e+06
1.27689e+06
1.27053e+06
1.26789e+06
1.26715e+06
1.26733e+06
1.26754e+06
1.25154e+06
1.20174e+06
1.14352e+06
1.05873e+06
961279
882171
816361
743670
676321
618574
568044
523100
481578
445311
414753
388730
366126
347167
329706
313361
298249
284034
270636
258506
247471
237426
228105
219493
211421
203771
196594
190078
183998
178154
172529
167200
162309
157920
154012
150486
147248
144330
141595
138944
136310
133650
131056
128591
126346
124273
122367
120643
119089
117684
116402
115221
114128
113111
112174
111327
110583
109958
109475
109186
109027
109001
109014
109099
109423
110205
111611
112699
114208
116008
118055
120342
122791
125413
70637
70637
70637
70636.9
70636.9
70636.9
70636.9
70636.9
70636.9
70636.9
70636.9
70636.9
70636.9
70637.2
70644.7
71093.3
84840.8
323111
858813
1.2267e+06
1.40419e+06
1.49348e+06
1.5693e+06
1.60066e+06
1.61725e+06
1.63196e+06
1.63673e+06
1.64388e+06
1.64617e+06
1.64625e+06
1.63342e+06
1.61974e+06
1.609e+06
1.59001e+06
1.559e+06
1.50482e+06
1.44807e+06
1.39967e+06
1.35955e+06
1.32188e+06
1.29572e+06
1.28269e+06
1.27441e+06
1.26805e+06
1.26325e+06
1.24683e+06
1.2055e+06
1.17234e+06
1.12085e+06
1.06204e+06
990734
918531
824918
759646
691460
636472
585738
543859
508188
472451
440268
411731
387248
366245
348082
330971
315226
300881
287275
274341
261873
250481
240127
230573
221827
213666
205949
198688
191985
185727
179828
174182
168816
163816
159284
155234
151580
148357
145345
142416
139483
136579
133823
131187
128723
126162
123633
121218
118954
116963
115281
113803
112520
111408
110428
109545
108725
107966
107321
106819
106478
106269
106245
106269
106430
106919
107966
109244
110561
112286
114304
116599
119137
121836
124703
70637
70637
70637
70636.9
70636.9
70636.9
70636.9
70636.9
70636.9
70636.9
70636.9
70636.9
70636.9
70637
70637.6
70664.2
71933
116173
514366
1.33331e+06
1.7018e+06
1.78706e+06
1.7902e+06
1.75337e+06
1.71422e+06
1.70726e+06
1.69687e+06
1.68978e+06
1.67553e+06
1.65023e+06
1.61339e+06
1.57528e+06
1.54857e+06
1.52423e+06
1.49932e+06
1.47497e+06
1.43024e+06
1.38202e+06
1.34178e+06
1.30803e+06
1.28417e+06
1.26194e+06
1.24187e+06
1.22387e+06
1.20531e+06
1.1828e+06
1.15736e+06
1.11868e+06
1.06452e+06
980251
893402
813354
760780
694273
638828
580189
533044
495929
464104
436672
419014
398342
380114
364038
348968
333882
318827
305455
292459
280237
268365
256863
245856
235813
226809
218354
210582
203147
196087
189489
183382
177591
172083
166870
162049
157711
153856
150422
147176
143645
140315
137213
134334
131640
129054
126368
123800
121345
119101
117072