/*--------------------------------*- C++ -*----------------------------------*\
| =========                 |                                                 |
| \\      /  F ield         | OpenFOAM: The Open Source CFD Toolbox           |
|  \\    /   O peration     | Version:  2112                                  |
|   \\  /    A nd           | Website:  www.openfoam.com                      |
|    \\/     M anipulation  |                                                 |
\*---------------------------------------------------------------------------*/
FoamFile
{
    version     2.0;
    format      ascii;
    arch        "LSB;label=32;scalar=64";
    class       volScalarField;
    location    "0.00191";
    object      alphat;
}
// * * * * * * * * * * * * * * * * * * * * * * * * * * * * * * * * * * * * * //

dimensions      [1 -1 -1 0 0 0 0];

internalField   nonuniform List<scalar> 
13875
(
0.119863
0.0816006
0.0784667
0.0782737
0.0782673
0.0783692
0.0783871
0.0783589
0.0782951
0.0782446
0.0782969
0.0783894
0.0783958
0.0783988
0.0783445
0.0782353
0.0782727
0.0783291
0.0783755
0.078373
0.0782727
0.078259
0.0784905
0.0814507
0.120892
0.103919
0.0576499
0.0570896
0.0571363
0.0566675
0.0565698
0.0565658
0.0566616
0.0570523
0.0570677
0.0571055
0.056648
0.0566032
0.0566012
0.0566407
0.0570061
0.057038
0.0566719
0.0565667
0.0565684
0.0566619
0.0571379
0.0570761
0.0573527
0.104611
0.110614
0.0553546
0.0559106
0.0547439
0.0544748
0.0543287
0.0542592
0.0542707
0.0542785
0.0540692
0.0543
0.054252
0.0542456
0.0542103
0.054247
0.0540402
0.0542421
0.0542416
0.0542322
0.0543056
0.0544325
0.0545905
0.0557854
0.0550927
0.111307
0.115886
0.0546524
0.0554154
0.0543064
0.053922
0.0537911
0.0537228
0.053724
0.0535197
0.0533489
0.0535326
0.0537112
0.0537117
0.0536716
0.05371
0.0533852
0.0534674
0.0536934
0.0536947
0.0537694
0.0538902
0.0541832
0.0551996
0.0543107
0.115831
0.121042
0.0546704
0.0551619
0.0537673
0.0535864
0.0533841
0.0532681
0.0532479
0.0530367
0.0528653
0.0530314
0.0532328
0.053241
0.0531986
0.0532337
0.0528996
0.0529747
0.0532163
0.0532353
0.053349
0.0535255
0.0535987
0.0550202
0.0543327
0.121329
0.124463
0.0547728
0.0552406
0.0536058
0.0532004
0.0529879
0.0528797
0.0528292
0.0525898
0.0524502
0.052609
0.0528274
0.0528406
0.0527995
0.0528253
0.0525007
0.0525331
0.0527929
0.0528442
0.0529504
0.0531439
0.0534866
0.0548931
0.0544064
0.124038
0.128889
0.0565621
0.0558773
0.0535051
0.05322
0.0528523
0.0526421
0.0525288
0.0522495
0.0521266
0.0522512
0.0525073
0.0525343
0.0524967
0.0524954
0.0521748
0.0521995
0.0524961
0.0526021
0.0528003
0.0531344
0.05337
0.0556551
0.0563779
0.128979
0.136038
0.0613826
0.0580035
0.0545082
0.0534296
0.052864
0.0525466
0.052359
0.0520375
0.0519441
0.0520366
0.0523316
0.0523781
0.0523513
0.052318
0.0520102
0.0520029
0.0523223
0.0524974
0.052788
0.0533137
0.0543077
0.0575643
0.0610768
0.135695
0.15292
0.0698023
0.0619609
0.0562236
0.0546505
0.0535512
0.0529008
0.0525368
0.0521336
0.0520424
0.0520648
0.0524094
0.0524934
0.0524795
0.0523962
0.0521142
0.0521118
0.0524815
0.0528123
0.0533885
0.0543947
0.0558059
0.0611112
0.0684728
0.154522
0.241671
0.0885172
0.0672572
0.0595811
0.0561377
0.0545911
0.0536806
0.0531244
0.0527347
0.0526451
0.0526255
0.0529971
0.0531179
0.0531179
0.0529879
0.0527593
0.052755
0.0530746
0.0535652
0.0543784
0.0558835
0.0589323
0.0662897
0.0870391
0.241988
0.375609
0.122552
0.0781837
0.0640875
0.0596803
0.0569105
0.0555322
0.0547326
0.0543375
0.0541989
0.0541608
0.0545044
0.0546707
0.0546815
0.0545396
0.0543855
0.0543929
0.0546581
0.055308
0.0564667
0.0589015
0.0628397
0.0755731
0.113536
0.36661
0.665238
0.204033
0.102127
0.0806863
0.0672749
0.0617292
0.0596996
0.0585266
0.0580779
0.0578611
0.0578117
0.0580437
0.0582471
0.0582682
0.0581773
0.0581092
0.0581841
0.0584782
0.0594028
0.0609648
0.0658178
0.0766019
0.104248
0.186989
0.648085
0.594549
0.397626
0.257356
0.111399
0.0894176
0.075495
0.0702302
0.0681242
0.0673079
0.0669219
0.0666971
0.0668374
0.0669908
0.0670486
0.0670632
0.0671447
0.067457
0.0681307
0.0698858
0.0742833
0.0850024
0.097787
0.185968
0.417503
0.584211
0.509301
0.385489
0.376023
0.451688
0.155128
0.110608
0.105049
0.0986616
0.0972239
0.0964448
0.0965184
0.0955555
0.0971067
0.0957676
0.0962352
0.0964006
0.0973658
0.0985801
0.103015
0.112667
0.16752
0.398899
0.368786
0.400438
0.509174
0.414989
0.35657
0.360436
0.437154
0.372721
0.24278
0.221208
0.191252
0.16866
0.158125
0.159236
0.151308
0.156408
0.151081
0.151818
0.155427
0.160408
0.181481
0.216567
0.237022
0.34611
0.404021
0.360253
0.379085
0.439587
0.356832
0.331354
0.355752
0.435616
0.520443
0.654192
0.755445
0.602263
0.610699
0.595102
0.624373
0.622244
0.629814
0.62245
0.625728
0.617169
0.608023
0.582308
0.674808
0.715591
0.571647
0.443692
0.361584
0.346436
0.382692
0.281878
0.318827
0.410049
0.479477
0.544555
0.688166
0.626149
0.476538
0.447417
0.435977
0.436118
0.443828
0.435741
0.439993
0.439626
0.443573
0.448208
0.448639
0.538054
0.717115
0.618018
0.509674
0.422042
0.342678
0.31894
0.237796
0.320588
0.409863
0.440113
0.461
0.543547
0.479996
0.389852
0.361591
0.350528
0.357019
0.35464
0.359799
0.354483
0.356808
0.358795
0.361807
0.370433
0.443178
0.5441
0.51544
0.479057
0.444717
0.329678
0.23594
0.119123
0.254562
0.373311
0.370414
0.365958
0.410254
0.408147
0.368041
0.338965
0.321682
0.320861
0.31665
0.321526
0.316764
0.320237
0.324599
0.330817
0.347438
0.396669
0.426847
0.396424
0.394217
0.392457
0.294711
0.135023
0.0544668
0.176702
0.278585
0.29041
0.288783
0.325018
0.358594
0.350742
0.323274
0.299812
0.292065
0.285394
0.288523
0.285803
0.291684
0.300046
0.314629
0.339297
0.361424
0.339299
0.303126
0.299302
0.290962
0.195374
0.0581622
0.0529994
0.122731
0.189801
0.213773
0.227135
0.267163
0.312772
0.320268
0.298828
0.274872
0.262773
0.25471
0.256167
0.255217
0.262667
0.274063
0.291542
0.314406
0.317529
0.276229
0.233329
0.218362
0.197823
0.125695
0.0585975
0.0867041
0.12033
0.139448
0.166967
0.18558
0.228196
0.271756
0.283771
0.267699
0.246125
0.233497
0.224258
0.224708
0.224611
0.232961
0.244442
0.261107
0.279562
0.276434
0.235018
0.189291
0.169287
0.142851
0.121686
0.0912248
0.149282
0.131197
0.122395
0.138253
0.1571
0.198263
0.236894
0.249396
0.237624
0.217982
0.204854
0.196163
0.195688
0.195949
0.20344
0.214776
0.22967
0.243593
0.23926
0.204368
0.159529
0.139276
0.125915
0.132722
0.151711
0.177055
0.138656
0.120325
0.122143
0.138407
0.172016
0.204412
0.216843
0.20673
0.189667
0.178848
0.170404
0.170085
0.170383
0.177607
0.187007
0.199208
0.210617
0.205535
0.176084
0.142168
0.124881
0.121982
0.14032
0.176275
0.192262
0.146042
0.117114
0.113895
0.125626
0.150916
0.17738
0.188503
0.180231
0.165185
0.155151
0.148354
0.147793
0.148379
0.15424
0.16314
0.174031
0.18308
0.177378
0.153648
0.128426
0.116341
0.119841
0.146113
0.18824
0.205983
0.154708
0.117378
0.108881
0.115938
0.133867
0.154619
0.163266
0.156105
0.143902
0.135715
0.129095
0.128843
0.129087
0.134724
0.14172
0.15025
0.157581
0.153831
0.135783
0.119324
0.111766
0.119864
0.153697
0.205965
0.222882
0.168349
0.11966
0.107463
0.109477
0.121368
0.136425
0.141985
0.135857
0.125522
0.118035
0.113127
0.112437
0.113077
0.117333
0.123978
0.131412
0.137418
0.135084
0.122324
0.111168
0.10904
0.12119
0.165574
0.218147
0.240252
0.190302
0.121196
0.106471
0.104604
0.110615
0.120308
0.123185
0.117663
0.109703
0.103908
0.0991778
0.0987832
0.099027
0.103421
0.10851
0.114403
0.119843
0.119754
0.1118
0.106785
0.108517
0.122709
0.184957
0.235294
0.267255
0.200839
0.123466
0.104679
0.101159
0.103411
0.108553
0.109028
0.103909
0.0968257
0.0912263
0.0878118
0.087065
0.0876216
0.0906469
0.0955325
0.10061
0.105311
0.106931
0.103899
0.102212
0.105857
0.122991
0.193338
0.260838
0.311651
0.20586
0.123732
0.102577
0.0979405
0.0972059
0.0976329
0.0957822
0.0907455
0.0851586
0.0810631
0.077654
0.0772324
0.0774934
0.0808611
0.084474
0.0887441
0.0934271
0.0967593
0.0976528
0.0989554
0.103836
0.125618
0.200382
0.294465
0.33389
0.212296
0.128079
0.100654
0.0939367
0.0914221
0.0893656
0.0860649
0.0811178
0.0761244
0.0718
0.0695451
0.0687933
0.0694091
0.0716027
0.0754647
0.0795109
0.0841864
0.0885784
0.0920211
0.0945097
0.101543
0.126783
0.205759
0.33533
0.34318
0.216637
0.131126
0.100541
0.0905418
0.0863138
0.0820585
0.0776035
0.07248
0.0679213
0.064753
0.0621125
0.0617427
0.0620715
0.0646112
0.0674113
0.0711372
0.0758091
0.0813513
0.0864755
0.0908972
0.101331
0.12961
0.208384
0.346375
0.353976
0.217685
0.138604
0.101701
0.0871824
0.0810201
0.0760707
0.0708825
0.0659429
0.0616788
0.0579728
0.0563274
0.0556187
0.056286
0.0579255
0.0613026
0.0649825
0.0693449
0.0751756
0.081305
0.087263
0.101284
0.135025
0.212144
0.354254
0.359858
0.218298
0.149363
0.102863
0.0846604
0.0765347
0.0702463
0.0645977
0.0597424
0.05575
0.0529597
0.0508672
0.0504766
0.0508721
0.0530054
0.0554483
0.05906
0.0635842
0.0699555
0.076839
0.0852566
0.102774
0.142982
0.211874
0.362389
0.360037
0.219551
0.154144
0.107096
0.0837885
0.0728724
0.0655515
0.0600642
0.055306
0.0514939
0.0481322
0.0467566
0.0460214
0.0467316
0.0481095
0.0512063
0.0546475
0.0587006
0.0646159
0.0730135
0.0840738
0.105308
0.153852
0.213241
0.363274
0.364471
0.21718
0.153561
0.10996
0.0836351
0.0697307
0.0610849
0.0551739
0.0507099
0.0471368
0.0444868
0.0427092
0.0422781
0.0427054
0.0446092
0.04696
0.0503236
0.0545482
0.0606536
0.0699531
0.0844678
0.109873
0.154393
0.213725
0.35656
0.36333
0.213676
0.153142
0.117111
0.0847823
0.0678031
0.0576478
0.0516677
0.0474015
0.0441022
0.0409591
0.0397553
0.0390126
0.0397463
0.0410598
0.0439718
0.047055
0.0507577
0.0568522
0.0681895
0.0850202
0.116232
0.15352
0.209596
0.356439
0.36025
0.210422
0.152019
0.127516
0.0872051
0.0671189
0.0549414
0.0481955
0.0438902
0.0406903
0.0383153
0.0367173
0.0362565
0.0367564
0.0384136
0.0405671
0.0436407
0.0479057
0.0541698
0.0670823
0.0872661
0.126296
0.151595
0.204503
0.355131
0.36043
0.204872
0.147622
0.127355
0.0907164
0.0670441
0.0533494
0.0459313
0.041498
0.0384397
0.035564
0.0345582
0.0338386
0.0345959
0.0357164
0.0384465
0.0413576
0.0452653
0.05265
0.0673989
0.0911943
0.126859
0.147652
0.201276
0.352599
0.359475
0.202455
0.14061
0.127472
0.0976296
0.0680329
0.0526294
0.0439458
0.038921
0.035739
0.0335896
0.0322066
0.0317486
0.0322574
0.033729
0.0357091
0.0388766
0.0439086
0.0521351
0.0679316
0.0980902
0.126811
0.14021
0.197089
0.354513
0.354152
0.199578
0.133917
0.125226
0.108404
0.0708819
0.0527847
0.0432823
0.0375281
0.0343074
0.0314995
0.030608
0.029908
0.0306231
0.0316413
0.0343077
0.0374411
0.0428107
0.0518845
0.0703095
0.108574
0.124076
0.13247
0.194919
0.352559
0.353148
0.197646
0.128191
0.121673
0.108381
0.0759148
0.0531345
0.0428069
0.0361226
0.0322518
0.0300199
0.0287718
0.028299
0.0287615
0.0301715
0.032208
0.0361916
0.0428569
0.0531031
0.0753778
0.108683
0.121084
0.127934
0.194415
0.349104
0.346446
0.19664
0.124186
0.115071
0.107255
0.0844609
0.0551822
0.0431413
0.0360138
0.0317524
0.0285054
0.0275799
0.0268707
0.0275888
0.0286521
0.0317718
0.0358713
0.0426491
0.0552712
0.0833184
0.107087
0.11432
0.123079
0.191684
0.345884
0.340468
0.196938
0.122359
0.109996
0.104583
0.0887655
0.059069
0.0439683
0.035719
0.0303285
0.0275836
0.0261578
0.0256501
0.0261765
0.0277283
0.0302722
0.0357455
0.0433806
0.0598496
0.088333
0.103494
0.108945
0.120311
0.19165
0.341619
0.335181
0.193132
0.120191
0.105114
0.0995807
0.088486
0.0658311
0.0463195
0.0360553
0.0309282
0.0269079
0.0254943
0.0246499
0.0255019
0.0270752
0.0309482
0.0359917
0.0455098
0.0682065
0.0881123
0.0978502
0.104477
0.119554
0.1903
0.33342
0.330412
0.192786
0.119529
0.101668
0.0943794
0.0873763
0.0753286
0.0513286
0.036721
0.0302688
0.0269111
0.0248111
0.0240223
0.0248245
0.0270354
0.0302082
0.0368112
0.0492118
0.0724365
0.0865952
0.0933044
0.101074
0.118337
0.188854
0.331467
0.321561
0.189699
0.119943
0.0996218
0.0900777
0.084848
0.0758924
0.0597272
0.0393847
0.0314133
0.0268698
0.024988
0.0237293
0.0249801
0.0269594
0.0312688
0.0390082
0.0554483
0.0729413
0.0833033
0.0889228
0.0989101
0.118172
0.186618
0.32263
0.315607
0.186829
0.118385
0.097895
0.0875827
0.0813386
0.0746487
0.0640436
0.0439392
0.0316601
0.0270269
0.0247737
0.0237302
0.024768
0.027247
0.0315228
0.0439139
0.0631938
0.0722413
0.0799446
0.0869401
0.0974515
0.117803
0.18562
0.315435
0.295881
0.179707
0.117429
0.0975568
0.0850519
0.0781101
0.0727661
0.064318
0.0511008
0.0351676
0.0274897
0.0251314
0.0238222
0.0251229
0.0277133
0.0349044
0.0512273
0.0636548
0.0708618
0.0770212
0.084506
0.0968294
0.116784
0.178603
0.294462
0.269407
0.170623
0.114079
0.0952329
0.0845303
0.0756271
0.0693468
0.0635731
0.0558871
0.0391351
0.0291972
0.0253085
0.0241482
0.0252288
0.0294093
0.0385644
0.054754
0.0628683
0.0681214
0.0748333
0.0842717
0.094636
0.113386
0.169582
0.269371
0.119826
0.271378
0.299786
0.303577
0.303992
0.303745
0.303555
0.303409
0.303481
0.303458
0.303334
0.30304
0.302645
0.30226
0.301956
0.301745
0.301606
0.30151
0.301437
0.301375
0.301318
0.301262
0.301206
0.30115
0.301086
0.301046
0.300861
0.299744
0.284357
0.132418
0.0943522
0.260037
0.295465
0.300597
0.301123
0.300819
0.300515
0.300247
0.300311
0.300331
0.300284
0.300057
0.299689
0.299286
0.298945
0.298695
0.298524
0.298404
0.298313
0.298235
0.298163
0.298095
0.298027
0.29796
0.297887
0.297827
0.297508
0.294732
0.267408
0.112974
0.093248
0.257316
0.293013
0.297908
0.298502
0.298181
0.297848
0.297543
0.297595
0.297654
0.297705
0.297545
0.297203
0.296795
0.296439
0.296177
0.296
0.295881
0.295794
0.295723
0.295661
0.295602
0.295545
0.29549
0.29543
0.295375
0.295007
0.291474
0.260273
0.107078
0.094768
0.255106
0.291131
0.296208
0.296998
0.296709
0.296235
0.295821
0.2958
0.295821
0.295921
0.295791
0.295466
0.295065
0.294717
0.294469
0.294313
0.29422
0.294162
0.294121
0.294088
0.29406
0.294033
0.294007
0.293978
0.293945
0.293588
0.289827
0.257778
0.105102
0.0946779
0.25372
0.290849
0.296594
0.297765
0.297542
0.296878
0.296126
0.295704
0.295448
0.295377
0.295161
0.29481
0.294398
0.29405
0.29381
0.293666
0.293588
0.293548
0.293526
0.293512
0.293501
0.293492
0.293483
0.293472
0.29345
0.293102
0.289229
0.256852
0.103963
0.0947882
0.25444
0.292841
0.29985
0.302109
0.30239
0.301511
0.299739
0.297872
0.296549
0.295799
0.295207
0.2947
0.294238
0.293875
0.293632
0.29349
0.293417
0.293383
0.293367
0.29336
0.293356
0.293353
0.29335
0.293345
0.293325
0.292975
0.288997
0.256276
0.10299
0.095655
0.258503
0.299432
0.309156
0.314368
0.317127
0.317012
0.313366
0.306914
0.301112
0.297697
0.295904
0.294914
0.294268
0.293853
0.293598
0.293453
0.29338
0.293347
0.293334
0.293329
0.293326
0.293324
0.293323
0.29332
0.293299
0.292941
0.288858
0.255759
0.102086
0.098297
0.269148
0.315294
0.330429
0.34458
0.355939
0.360648
0.355159
0.338103
0.3191
0.305072
0.298318
0.295681
0.29449
0.293905
0.293602
0.293448
0.293374
0.293341
0.293328
0.293323
0.293321
0.29332
0.293319
0.293317
0.293294
0.292927
0.288745
0.255268
0.101252
0.103721
0.29353
0.35121
0.373661
0.387929
0.403749
0.42151
0.436397
0.432262
0.386075
0.335812
0.308591
0.298388
0.295238
0.294095
0.293645
0.293456
0.293374
0.29334
0.293327
0.293322
0.293321
0.29332
0.293319
0.293317
0.293292
0.292916
0.288644
0.254812
0.100495
0.114862
0.323126
0.376333
0.388722
0.398085
0.414492
0.436649
0.462472
0.489592
0.503025
0.452153
0.353088
0.310767
0.297935
0.294763
0.293798
0.293487
0.293379
0.29334
0.293326
0.293322
0.293321
0.29332
0.293319
0.293317
0.293291
0.292906
0.288551
0.254391
0.0998112
0.118297
0.32596
0.37795
0.390948
0.400919
0.417657
0.44211
0.471256
0.503311
0.535975
0.557423
0.51109
0.365395
0.310554
0.297164
0.29434
0.2936
0.293399
0.293343
0.293326
0.293322
0.293321
0.29332
0.29332
0.293317
0.29329
0.292896
0.288465
0.253999
0.0991919
0.117829
0.323336
0.375191
0.38932
0.397308
0.411034
0.436472
0.470512
0.5094
0.546407
0.581614
0.606058
0.549581
0.366907
0.307964
0.296239
0.293997
0.293474
0.293354
0.293327
0.293322
0.293321
0.293321
0.29332
0.293318
0.29329
0.292886
0.288385
0.253634
0.0986283
0.115743
0.317367
0.368459
0.382699
0.390277
0.400293
0.42209
0.455793
0.499716
0.546999
0.589796
0.627208
0.64999
0.559765
0.356202
0.304117
0.295339
0.293737
0.293399
0.293334
0.293322
0.293321
0.293321
0.293321
0.293318
0.293289
0.292878
0.28831
0.253297
0.0981152
0.112955
0.310602
0.360666
0.373541
0.378708
0.385741
0.401639
0.433491
0.476599
0.528162
0.584102
0.631819
0.672641
0.686032
0.532212
0.339137
0.300353
0.294595
0.293556
0.293358
0.293325
0.293321
0.293321
0.293321
0.293319
0.293289
0.292869
0.288241
0.252986
0.0976479
0.109072
0.303383
0.351353
0.360584
0.3606
0.364937
0.375132
0.401637
0.445498
0.495679
0.557292
0.620528
0.672777
0.716962
0.707262
0.468923
0.32198
0.297548
0.29406
0.293444
0.293337
0.293323
0.293321
0.293321
0.293319
0.293289
0.292861
0.288179
0.252706
0.0972266
0.107328
0.300166
0.341977
0.341867
0.334514
0.335854
0.341571
0.362152
0.403883
0.454254
0.515445
0.586937
0.657099
0.71363
0.757561
0.695996
0.401665
0.309066
0.295657
0.293715
0.293379
0.293328
0.293322
0.293321
0.29332
0.293289
0.292855
0.288122
0.252453
0.0968494
0.104954
0.295717
0.323687
0.313107
0.299514
0.29769
0.301417
0.316678
0.352743
0.404103
0.464256
0.536241
0.618144
0.693623
0.75608
0.784911
0.619468
0.350797
0.301186
0.294513
0.293512
0.293346
0.293324
0.293322
0.29332
0.293289
0.292849
0.288071
0.252227
0.0965119
0.106098
0.292501
0.301203
0.276168
0.256869
0.253322
0.257027
0.267947
0.296678
0.345608
0.40498
0.475325
0.560248
0.651541
0.732121
0.802058
0.774003
0.485456
0.321217
0.297024
0.293882
0.293404
0.293331
0.293322
0.293319
0.293289
0.292845
0.288028
0.252031
0.0962136
0.10981
0.278684
0.264905
0.231663
0.211151
0.207758
0.210584
0.217949
0.2393
0.282079
0.340003
0.407982
0.490996
0.589563
0.689437
0.780088
0.822928
0.721208
0.382604
0.305346
0.294953
0.293565
0.293353
0.293324
0.29332
0.293287
0.292839
0.287991
0.251862
0.0959559
0.111536
0.248796
0.224279
0.190604
0.166947
0.162831
0.166293
0.174782
0.189108
0.223023
0.275443
0.337677
0.416659
0.513758
0.625104
0.734271
0.824307
0.819369
0.551076
0.331335
0.298156
0.293991
0.293418
0.293332
0.29332
0.293289
0.292834
0.287958
0.251715
0.0957313
0.11524
0.206433
0.183035
0.147401
0.131107
0.128705
0.131506
0.137605
0.146972
0.171187
0.216649
0.271974
0.344232
0.434406
0.545337
0.668289
0.79051
0.844611
0.762847
0.402119
0.307776
0.295143
0.293575
0.293355
0.293322
0.293288
0.292833
0.287929
0.251591
0.0955402
0.118648
0.170605
0.148885
0.120932
0.106644
0.101659
0.102819
0.107175
0.115053
0.133221
0.170254
0.215468
0.277038
0.357854
0.460995
0.585678
0.725658
0.820222
0.839175
0.573088
0.333977
0.298355
0.293973
0.29341
0.29333
0.293287
0.292831
0.28791
0.251495
0.095384
0.124002
0.140065
0.124754
0.101929
0.0883261
0.0843816
0.0851095
0.0885471
0.0953445
0.107879
0.134063
0.169486
0.220612
0.290472
0.383602
0.50263
0.645548
0.773526
0.845213
0.76412
0.396355
0.307086
0.294957
0.293534
0.293348
0.29329
0.292828
0.287895
0.25142
0.0952566
0.149056
0.125307
0.0926195
0.0778934
0.0735735
0.0781988
0.0785298
0.0794928
0.0820745
0.0879226
0.10743
0.137393
0.178379
0.237228
0.319072
0.42712
0.56195
0.710558
0.811918
0.837336
0.542783
0.327825
0.297433
0.29383
0.293383
0.293294
0.292826
0.28788
0.251359
0.0951567
0.120555
0.110831
0.0770399
0.0747659
0.0702306
0.0721314
0.071498
0.0710284
0.0716013
0.0763259
0.0919988
0.117661
0.150664
0.198542
0.267719
0.363379
0.485763
0.636756
0.76183
0.841067
0.715433
0.367355
0.303492
0.294493
0.293464
0.293302
0.292826
0.287872
0.251315
0.095084
0.132418
0.284358
0.299744
0.300861
0.301046
0.301086
0.301151
0.301207
0.301263
0.301318
0.301376
0.301438
0.301511
0.301607
0.301746
0.301957
0.302262
0.302646
0.303041
0.303335
0.303459
0.303482
0.30341
0.303556
0.303746
0.303994
0.303578
0.299786
0.27137
0.119801
0.112974
0.267407
0.294731
0.297508
0.297827
0.297887
0.29796
0.298027
0.298095
0.298163
0.298235
0.298313
0.298404
0.298524
0.298695
0.298945
0.299286
0.299688
0.300057
0.300284
0.300331
0.300311
0.300246
0.300514
0.300819
0.301123
0.300597
0.295466
0.260038
0.0943664
0.107076
0.260272
0.291474
0.295007
0.295375
0.29543
0.29549
0.295546
0.295602
0.295661
0.295724
0.295794
0.295881
0.296
0.296177
0.296439
0.296795
0.297203
0.297545
0.297705
0.297654
0.297594
0.297542
0.297848
0.298181
0.298502
0.297909
0.293016
0.257323
0.0932262
0.105101
0.257778
0.289827
0.293588
0.293945
0.293978
0.294007
0.294033
0.29406
0.294088
0.294121
0.294162
0.29422
0.294313
0.294469
0.294717
0.295065
0.295466
0.295791
0.29592
0.29582
0.295799
0.295819
0.296233
0.296707
0.296997
0.296208
0.291133
0.255122
0.0948026
0.103963
0.256853
0.289229
0.293102
0.29345
0.293472
0.293483
0.293492
0.293501
0.293512
0.293526
0.293548
0.293588
0.293666
0.29381
0.29405
0.294398
0.29481
0.295161
0.295375
0.295446
0.2957
0.29612
0.296871
0.297537
0.297761
0.296592
0.290844
0.253703
0.0946919
0.102989
0.256275
0.288997
0.292975
0.293325
0.293345
0.29335
0.293353
0.293356
0.29336
0.293367
0.293383
0.293417
0.29349
0.293632
0.293875
0.294238
0.2947
0.295205
0.295795
0.29654
0.297855
0.299713
0.301485
0.302368
0.302095
0.299842
0.292835
0.254439
0.094741
0.102087
0.25576
0.288859
0.292942
0.293299
0.29332
0.293323
0.293324
0.293326
0.293329
0.293334
0.293347
0.29338
0.293453
0.293597
0.293853
0.294267
0.294912
0.295898
0.29768
0.301069
0.306836
0.313269
0.31692
0.317054
0.314321
0.309128
0.299412
0.2585
0.095716
0.101253
0.255269
0.288745
0.292927
0.293294
0.293317
0.293319
0.29332
0.293321
0.293323
0.293328
0.293341
0.293374
0.293448
0.293602
0.293904
0.294487
0.295673
0.298292
0.30499
0.318913
0.337827
0.354798
0.360337
0.355702
0.34442
0.330333
0.315223
0.26909
0.0982529
0.100495
0.254812
0.288644
0.292916
0.293292
0.293317
0.293319
0.29332
0.293321
0.293322
0.293327
0.29334
0.293374
0.293456
0.293645
0.294093
0.29523
0.298354
0.308447
0.335416
0.38522
0.431469
0.435885
0.421141
0.403464
0.387702
0.373447
0.351029
0.293421
0.103702
0.0998118
0.254392
0.288551
0.292906
0.293291
0.293317
0.293319
0.29332
0.293321
0.293322
0.293326
0.29334
0.293379
0.293487
0.293797
0.294755
0.297899
0.310572
0.352453
0.450731
0.502193
0.489025
0.462032
0.436299
0.414204
0.397849
0.3885
0.376144
0.322978
0.114833
0.0991914
0.253998
0.288465
0.292896
0.29329
0.293317
0.29332
0.29332
0.293321
0.293322
0.293326
0.293343
0.293399
0.293598
0.294333
0.29713
0.310342
0.364511
0.509305
0.556522
0.535326
0.502772
0.470811
0.441759
0.417356
0.40067
0.39072
0.377761
0.325816
0.118218
0.098628
0.253635
0.288385
0.292887
0.29329
0.293318
0.29332
0.293321
0.293321
0.293322
0.293327
0.293354
0.293474
0.293992
0.296212
0.307772
0.365894
0.547335
0.604984
0.580884
0.545785
0.508926
0.470136
0.436181
0.410747
0.397041
0.389077
0.375003
0.323264
0.117836
0.0981158
0.253298
0.28831
0.292878
0.293289
0.293318
0.293321
0.293321
0.293321
0.293322
0.293333
0.293399
0.293734
0.29532
0.303981
0.355372
0.55728
0.648827
0.626435
0.589163
0.546554
0.499427
0.455548
0.421913
0.400059
0.39002
0.38245
0.368247
0.317216
0.115701
0.0976481
0.252986
0.288241
0.292869
0.293289
0.293319
0.293321
0.293321
0.293321
0.293325
0.293358
0.293554
0.294583
0.300268
0.338517
0.529552
0.684631
0.671801
0.631169
0.583712
0.527976
0.476523
0.433423
0.401601
0.385604
0.378505
0.373289
0.360433
0.310436
0.112911
0.0972265
0.252706
0.288179
0.292861
0.293289
0.293319
0.293321
0.293321
0.293323
0.293337
0.293443
0.294053
0.2975
0.321583
0.466649
0.705555
0.71604
0.672154
0.620221
0.55725
0.495754
0.445661
0.401781
0.375264
0.364956
0.360497
0.36035
0.351096
0.303161
0.109005
0.0968497
0.252454
0.288122
0.292855
0.293289
0.29332
0.293321
0.293322
0.293328
0.293379
0.293711
0.295633
0.308854
0.400096
0.69363
0.756446
0.713028
0.656853
0.587003
0.51569
0.454551
0.404255
0.36247
0.341846
0.336057
0.33454
0.341705
0.341729
0.29988
0.107254
0.0965121
0.252227
0.288071
0.292849
0.293289
0.29332
0.293322
0.293324
0.293346
0.293511
0.294501
0.301089
0.350055
0.616354
0.783418
0.755444
0.693418
0.618325
0.536642
0.464764
0.404609
0.353301
0.317143
0.301793
0.298074
0.299674
0.313036
0.323393
0.295375
0.104824
0.0962132
0.25203
0.288028
0.292845
0.293289
0.293319
0.293322
0.29333
0.293403
0.293877
0.296981
0.320837
0.483016
0.772208
0.801255
0.731923
0.651815
0.560832
0.476024
0.405751
0.346357
0.297458
0.268607
0.257544
0.253854
0.257212
0.276245
0.301098
0.292213
0.105957
0.0959562
0.251863
0.287991
0.292839
0.293287
0.29332
0.293324
0.293353
0.293563
0.294935
0.305185
0.381262
0.718358
0.821758
0.779843
0.689747
0.590266
0.491853
0.408885
0.340932
0.282912
0.240166
0.218732
0.211297
0.208478
0.211663
0.232
0.265158
0.278525
0.109657
0.0957316
0.251714
0.287958
0.292834
0.293289
0.29332
0.293332
0.293417
0.293984
0.298096
0.33084
0.548215
0.817743
0.823534
0.734542
0.625846
0.514751
0.417701
0.338708
0.27642
0.223796
0.189924
0.17569
0.16714
0.163735
0.167693
0.191244
0.224656
0.248912
0.1114
0.0955398
0.25159
0.287929
0.292833
0.293288
0.293322
0.293355
0.293572
0.295122
0.307573
0.400439
0.760187
0.843674
0.790684
0.669082
0.546406
0.435495
0.345297
0.27296
0.217634
0.171997
0.147816
0.138419
0.132172
0.129539
0.13169
0.147806
0.183452
0.206806
0.115177
0.0953844
0.251496
0.287911
0.292831
0.293287
0.29333
0.293409
0.293966
0.298288
0.333433
0.569908
0.837819
0.820179
0.726453
0.586756
0.461974
0.358838
0.277941
0.216122
0.171007
0.13406
0.115742
0.107861
0.103292
0.101999
0.106985
0.121526
0.149287
0.171235
0.118731
0.0952569
0.251419
0.287895
0.292828
0.29329
0.293347
0.293532
0.294938
0.306892
0.39475
0.761589
0.844833
0.773988
0.646712
0.504007
0.384927
0.291582
0.221551
0.170319
0.134605
0.108467
0.0957315
0.0889737
0.0853405
0.0845363
0.0880747
0.101512
0.125169
0.14071
0.124208
0.0951563
0.251359
0.28788
0.292826
0.293294
0.293382
0.293825
0.297376
0.327365
0.539787
0.836096
0.812081
0.711493
0.56346
0.428542
0.320333
0.238284
0.179211
0.138115
0.108124
0.0885232
0.0823186
0.0797355
0.0787273
0.0786111
0.0738756
0.0781592
0.0925415
0.125884
0.149771
0.0950838
0.251315
0.287872
0.292826
0.293302
0.293463
0.294479
0.303347
0.366435
0.712344
0.840869
0.762548
0.638036
0.487227
0.364623
0.26875
0.199322
0.151286
0.118202
0.0925837
0.0768932
0.0717948
0.0710631
0.0720883
0.0731055
0.0697218
0.0748123
0.0770202
0.109691
0.120747
0.073191
0.0733619
0.0735341
0.0737064
0.0738788
0.0740513
0.0742239
0.0743965
0.0745692
0.074742
0.0749149
0.0750878
0.0752608
0.0754339
0.0756071
0.0757803
0.0759537
0.0761271
0.0763005
0.0764741
0.0766477
0.0768214
0.0769952
0.077169
0.0773429
0.0775169
0.077691
0.0778652
0.0780394
0.0782137
0.078388
0.0785625
0.078737
0.0789116
0.0790862
0.079261
0.0794358
0.0796106
0.0797856
0.0799606
0.0801357
0.0803108
0.0804861
0.0806614
0.0808367
0.0810122
0.0811877
0.0813633
0.0815389
0.0817147
0.0818904
0.0820663
0.0822422
0.0824182
0.0825943
0.0827704
0.0829466
0.0831229
0.0832993
0.0834757
0.0836521
0.0838287
0.0840053
0.084182
0.0843587
0.0845355
0.0847124
0.0848894
0.0850664
0.0852434
0.0854206
0.0855978
0.0857751
0.0859524
0.0861298
0.0863073
0.0864848
0.0866624
0.0868401
0.0870178
0.0871956
0.0873735
0.0875514
0.0877294
0.0879074
0.0880855
0.0882637
0.088442
0.0886203
0.0887986
0.0889771
0.0891555
0.0893341
0.0895127
0.0896914
0.0898701
0.0900489
0.0902278
0.0904067
0.0905857
0.0907648
0.0909439
0.0911231
0.0913024
0.0914818
0.0916612
0.0918407
0.0920203
0.0921998
0.0923794
0.092559
0.0927387
0.0929184
0.0930981
0.0932779
0.0934578
0.0936378
0.0938179
0.093998
0.0941781
0.0943584
0.0945386
0.0947187
0.0948971
0.0950685
0.229807
0.230057
0.23027
0.230477
0.230681
0.230885
0.231089
0.231291
0.231493
0.231695
0.231896
0.232096
0.232296
0.232495
0.232693
0.232891
0.233088
0.233285
0.233481
0.233676
0.233871
0.234066
0.234259
0.234452
0.234645
0.234837
0.235028
0.235219
0.235409
0.235599
0.235788
0.235976
0.236164
0.236351
0.236538
0.236724
0.23691
0.237095
0.237279
0.237463
0.237647
0.237829
0.238011
0.238193
0.238374
0.238555
0.238735
0.238914
0.239093
0.239271
0.239449
0.239626
0.239803
0.239979
0.240154
0.240329
0.240504
0.240678
0.240851
0.241024
0.241196
0.241368
0.241539
0.24171
0.24188
0.24205
0.242219
0.242388
0.242556
0.242723
0.24289
0.243057
0.243223
0.243388
0.243553
0.243717
0.243881
0.244045
0.244207
0.24437
0.244532
0.244693
0.244854
0.245014
0.245174
0.245333
0.245492
0.24565
0.245808
0.245965
0.246122
0.246279
0.246434
0.24659
0.246745
0.246899
0.247053
0.247206
0.247359
0.247512
0.247665
0.247817
0.247971
0.248125
0.248279
0.248432
0.248585
0.248736
0.248885
0.249031
0.249176
0.24932
0.249463
0.249605
0.249747
0.24989
0.250032
0.250175
0.250318
0.25046
0.250602
0.250744
0.250886
0.251035
0.251197
0.28123
0.281328
0.281409
0.281487
0.281563
0.281639
0.281714
0.281789
0.281863
0.281937
0.282011
0.282083
0.282156
0.282228
0.282299
0.28237
0.28244
0.28251
0.28258
0.282649
0.282717
0.282785
0.282853
0.28292
0.282987
0.283053
0.283119
0.283184
0.283249
0.283313
0.283377
0.283441
0.283504
0.283567
0.283629
0.283691
0.283753
0.283814
0.283875
0.283935
0.283995
0.284054
0.284113
0.284172
0.28423
0.284288
0.284346
0.284403
0.28446
0.284516
0.284572
0.284628
0.284683
0.284738
0.284792
0.284846
0.2849
0.284953
0.285007
0.285059
0.285112
0.285164
0.285215
0.285267
0.285317
0.285368
0.285418
0.285468
0.285518
0.285567
0.285616
0.285665
0.285713
0.285761
0.285809
0.285856
0.285903
0.28595
0.285996
0.286042
0.286088
0.286134
0.286179
0.286224
0.286268
0.286313
0.286357
0.2864
0.286444
0.286487
0.28653
0.286572
0.286614
0.286656
0.286698
0.28674
0.286781
0.286824
0.286869
0.286919
0.286977
0.287044
0.287122
0.28721
0.287304
0.287396
0.287478
0.287538
0.287577
0.287595
0.287596
0.287586
0.287575
0.287568
0.287568
0.287576
0.287591
0.287612
0.287637
0.287665
0.287696
0.287729
0.287763
0.287799
0.287839
0.291667
0.291689
0.291706
0.291722
0.291738
0.291754
0.291769
0.291785
0.2918
0.291815
0.29183
0.291844
0.291859
0.291873
0.291887
0.291902
0.291915
0.291929
0.291943
0.291956
0.29197
0.291983
0.291996
0.292009
0.292022
0.292035
0.292047
0.29206
0.292072
0.292084
0.292096
0.292108
0.29212
0.292131
0.292143
0.292154
0.292166
0.292177
0.292188
0.292199
0.29221
0.29222
0.292231
0.292242
0.292252
0.292262
0.292272
0.292283
0.292293
0.292302
0.292312