/*--------------------------------*- C++ -*----------------------------------*\
| =========                 |                                                 |
| \\      /  F ield         | OpenFOAM: The Open Source CFD Toolbox           |
|  \\    /   O peration     | Version:  2112                                  |
|   \\  /    A nd           | Website:  www.openfoam.com                      |
|    \\/     M anipulation  |                                                 |
\*---------------------------------------------------------------------------*/
FoamFile
{
    version     2.0;
    format      ascii;
    arch        "LSB;label=32;scalar=64";
    class       volScalarField;
    location    "0.00191";
    object      epsilon;
}
// * * * * * * * * * * * * * * * * * * * * * * * * * * * * * * * * * * * * * //

dimensions      [0 2 -3 0 0 0 0];

internalField   nonuniform List<scalar> 
13875
(
1.15997e+06
2.94711e+07
3.2808e+07
3.2855e+07
3.29656e+07
3.28671e+07
3.28647e+07
3.28806e+07
3.29192e+07
3.29714e+07
3.29103e+07
3.28679e+07
3.28664e+07
3.28567e+07
3.28884e+07
3.29557e+07
3.29266e+07
3.28999e+07
3.28609e+07
3.28522e+07
3.2951e+07
3.28341e+07
3.27954e+07
2.94718e+07
1.17824e+06
1.31371e+06
2.27573e+07
2.53475e+07
2.52536e+07
2.53128e+07
2.52208e+07
2.5209e+07
2.52208e+07
2.52462e+07
2.52585e+07
2.52413e+07
2.52075e+07
2.52063e+07
2.51951e+07
2.52255e+07
2.52493e+07
2.52485e+07
2.52323e+07
2.5204e+07
2.52076e+07
2.52975e+07
2.52214e+07
2.53218e+07
2.275e+07
1.34277e+06
1.57305e+06
1.97172e+07
2.18266e+07
2.16405e+07
2.17042e+07
2.16328e+07
2.16173e+07
2.1617e+07
2.15541e+07
2.15448e+07
2.15463e+07
2.16068e+07
2.161e+07
2.1597e+07
2.1622e+07
2.15478e+07
2.15512e+07
2.16216e+07
2.16103e+07
2.16204e+07
2.16922e+07
2.16014e+07
2.17843e+07
1.96884e+07
1.58514e+06
1.81399e+06
1.73944e+07
1.90359e+07
1.88917e+07
1.89689e+07
1.891e+07
1.88936e+07
1.88919e+07
1.88027e+07
1.88069e+07
1.87942e+07
1.88838e+07
1.88856e+07
1.88755e+07
1.88954e+07
1.88137e+07
1.87974e+07
1.88951e+07
1.88876e+07
1.88993e+07
1.89592e+07
1.88579e+07
1.90095e+07
1.73661e+07
1.82106e+06
2.02358e+06
1.54606e+07
1.67713e+07
1.66306e+07
1.67012e+07
1.6653e+07
1.66393e+07
1.66334e+07
1.65434e+07
1.65583e+07
1.65381e+07
1.66286e+07
1.66296e+07
1.66224e+07
1.66363e+07
1.65624e+07
1.65385e+07
1.66343e+07
1.66341e+07
1.66437e+07
1.66936e+07
1.66046e+07
1.67404e+07
1.54317e+07
2.03674e+06
2.20825e+06
1.37251e+07
1.49303e+07
1.4748e+07
1.48261e+07
1.47791e+07
1.47629e+07
1.47484e+07
1.46553e+07
1.46794e+07
1.46511e+07
1.47442e+07
1.47459e+07
1.4742e+07
1.47478e+07
1.46807e+07
1.46511e+07
1.47474e+07
1.4758e+07
1.47708e+07
1.48191e+07
1.47295e+07
1.49002e+07
1.38506e+07
2.22325e+06
2.42552e+06
1.22693e+07
1.34838e+07
1.3219e+07
1.32662e+07
1.32112e+07
1.31872e+07
1.31623e+07
1.30683e+07
1.30986e+07
1.30641e+07
1.31595e+07
1.31632e+07
1.31627e+07
1.31587e+07
1.30983e+07
1.30656e+07
1.3161e+07
1.31829e+07
1.32028e+07
1.32562e+07
1.32018e+07
1.34208e+07
1.19551e+07
2.43036e+06
2.67902e+06
1.06517e+07
1.23341e+07
1.19962e+07
1.20058e+07
1.19229e+07
1.1876e+07
1.18345e+07
1.17371e+07
1.17709e+07
1.17283e+07
1.18244e+07
1.18326e+07
1.18368e+07
1.18209e+07
1.17699e+07
1.17347e+07
1.18301e+07
1.18691e+07
1.19084e+07
1.19865e+07
1.19756e+07
1.22646e+07
1.05448e+07
2.69708e+06
3.51956e+06
1.02541e+07
1.15201e+07
1.10708e+07
1.09712e+07
1.08605e+07
1.07901e+07
1.0728e+07
1.06322e+07
1.06677e+07
1.06164e+07
1.07124e+07
1.07263e+07
1.07343e+07
1.07077e+07
1.06668e+07
1.06319e+07
1.07216e+07
1.07807e+07
1.08415e+07
1.09524e+07
1.10345e+07
1.14836e+07
1.03477e+07
3.58215e+06
6.97145e+06
1.24515e+07
1.13154e+07
1.0482e+07
1.02755e+07
1.00834e+07
9.97815e+06
9.89128e+06
9.81131e+06
9.83555e+06
9.78812e+06
9.87478e+06
9.89385e+06
9.90476e+06
9.87206e+06
9.84217e+06
9.81203e+06
9.88201e+06
9.9602e+06
1.00527e+07
1.0227e+07
1.04131e+07
1.11903e+07
1.216e+07
6.90442e+06
1.51884e+07
1.8884e+07
1.20346e+07
1.05984e+07
9.89831e+06
9.59867e+06
9.4493e+06
9.33611e+06
9.27086e+06
9.28014e+06
9.24118e+06
9.31137e+06
9.33509e+06
9.34735e+06
9.31894e+06
9.29978e+06
9.27905e+06
9.32886e+06
9.42571e+06
9.5508e+06
9.81958e+06
1.04226e+07
1.20105e+07
1.80933e+07
1.50895e+07
2.52123e+07
6.25555e+07
2.1729e+07
1.16194e+07
1.02999e+07
9.58336e+06
9.26592e+06
9.11667e+06
9.04213e+06
9.03034e+06
8.99756e+06
9.04433e+06
9.06749e+06
9.08162e+06
9.06554e+06
9.05849e+06
9.05363e+06
9.11004e+06
9.23624e+06
9.50422e+06
1.00622e+07
1.09119e+07
1.84605e+07
6.68828e+07
2.50886e+07
2.64086e+07
6.03228e+07
1.03161e+08
4.61117e+07
1.28405e+07
1.0328e+07
9.83679e+06
9.60074e+06
9.52036e+06
9.52226e+06
9.46597e+06
9.52452e+06
9.52509e+06
9.54499e+06
9.53943e+06
9.54297e+06
9.5538e+06
9.61722e+06
9.78618e+06
1.02673e+07
1.25124e+07
2.78834e+07
8.67441e+07
6.89878e+07
2.61606e+07
2.59619e+07
4.58243e+07
8.08726e+07
1.34304e+08
6.90275e+07
1.88634e+07
1.61444e+07
1.37844e+07
1.32399e+07
1.25994e+07
1.30211e+07
1.22726e+07
1.3059e+07
1.24054e+07
1.25761e+07
1.25638e+07
1.28397e+07
1.34061e+07
1.53447e+07
1.87366e+07
6.98589e+07
1.01569e+08
7.76723e+07
5.08896e+07
2.60364e+07
2.51248e+07
3.71691e+07
5.94625e+07
9.00127e+07
7.98273e+07
5.70178e+07
6.31901e+07
5.81263e+07
5.75581e+07
5.4244e+07
6.3335e+07
5.40064e+07
6.4817e+07
5.83236e+07
5.78006e+07
5.55167e+07
5.42842e+07
5.64389e+07
6.56585e+07
5.75956e+07
7.70472e+07
7.48737e+07
5.9383e+07
4.09338e+07
2.74281e+07
2.5426e+07
3.20045e+07
5.12104e+07
7.22695e+07
7.39235e+07
9.62526e+07
8.53896e+07
5.98311e+07
5.30595e+07
5.65571e+07
5.55245e+07
5.77918e+07
5.73675e+07
5.96791e+07
5.59265e+07
5.71911e+07
5.38242e+07
5.61867e+07
7.00816e+07
1.03433e+08
8.0013e+07
6.489e+07
5.06235e+07
3.48536e+07
2.81765e+07
2.33559e+07
2.9599e+07
4.66203e+07
6.35318e+07
6.54845e+07
9.15277e+07
6.37522e+07
4.12599e+07
3.62372e+07
3.7096e+07
3.68221e+07
3.77765e+07
3.76632e+07
3.85996e+07
3.66607e+07
3.73704e+07
3.63845e+07
3.84417e+07
5.02738e+07
9.37768e+07
7.39693e+07
6.05116e+07
4.80103e+07
3.15014e+07
2.4587e+07
1.91772e+07
2.94498e+07
4.33243e+07
4.90642e+07
5.00753e+07
6.9951e+07
5.10864e+07
3.39024e+07
2.82079e+07
2.75613e+07
2.69305e+07
2.72102e+07
2.71694e+07
2.76125e+07
2.67454e+07
2.76997e+07
2.80497e+07
3.11422e+07
4.35368e+07
6.72e+07
5.49375e+07
4.78744e+07
4.52816e+07
3.24726e+07
2.01184e+07
1.55169e+07
2.92072e+07
3.70909e+07
3.80816e+07
3.76761e+07
4.85123e+07
4.44157e+07
3.3487e+07
2.5823e+07
2.25968e+07
2.11377e+07
2.07637e+07
2.06886e+07
2.09383e+07
2.06963e+07
2.20062e+07
2.4054e+07
2.96246e+07
4.00823e+07
4.78554e+07
3.97646e+07
3.80083e+07
3.84029e+07
3.23775e+07
1.64807e+07
1.40835e+07
2.7399e+07
2.99102e+07
3.03572e+07
3.0028e+07
3.6338e+07
3.77081e+07
3.21515e+07
2.475e+07
1.9977e+07
1.75785e+07
1.67117e+07
1.65276e+07
1.67553e+07
1.71454e+07
1.92296e+07
2.29639e+07
2.93216e+07
3.56096e+07
3.63099e+07
3.10966e+07
3.04213e+07
3.06703e+07
2.80992e+07
1.53513e+07
1.50325e+07
2.18093e+07
2.40516e+07
2.47751e+07
2.4681e+07
2.91577e+07
3.17414e+07
2.86722e+07
2.24796e+07
1.75893e+07
1.4815e+07
1.3668e+07
1.34152e+07
1.36975e+07
1.45354e+07
1.70309e+07
2.11291e+07
2.67488e+07
3.06431e+07
2.93969e+07
2.54526e+07
2.49604e+07
2.44725e+07
2.19615e+07
1.64417e+07
2.00782e+07
2.14732e+07
2.04997e+07
2.102e+07
2.0903e+07
2.43031e+07
2.67174e+07
2.48085e+07
1.9769e+07
1.52613e+07
1.2501e+07
1.12878e+07
1.09944e+07
1.13027e+07
1.22869e+07
1.47809e+07
1.86227e+07
2.32718e+07
2.60231e+07
2.47067e+07
2.15687e+07
2.11916e+07
2.05747e+07
2.1492e+07
2.02908e+07
2.33407e+07
2.43665e+07
1.81028e+07
1.79129e+07
1.7916e+07
2.05235e+07
2.24899e+07
2.11415e+07
1.70188e+07
1.30864e+07
1.05528e+07
9.38967e+06
9.08744e+06
9.37266e+06
1.03268e+07
1.25923e+07
1.59226e+07
1.97373e+07
2.19129e+07
2.09149e+07
1.84451e+07
1.80829e+07
1.79909e+07
2.41191e+07
2.26662e+07
2.25134e+07
2.41188e+07
1.59057e+07
1.54494e+07
1.54528e+07
1.72983e+07
1.8915e+07
1.78958e+07
1.43613e+07
1.10067e+07
8.84688e+06
7.84369e+06
7.5801e+06
7.8472e+06
8.70894e+06
1.06737e+07
1.35056e+07
1.67131e+07
1.84759e+07
1.76332e+07
1.59368e+07
1.57383e+07
1.59144e+07
2.34195e+07
2.19016e+07
2.19197e+07
2.31445e+07
1.40929e+07
1.35253e+07
1.34487e+07
1.47176e+07
1.59958e+07
1.51465e+07
1.21569e+07
9.32178e+06
7.47519e+06
6.62204e+06
6.39556e+06
6.63045e+06
7.38342e+06
9.07876e+06
1.15043e+07
1.41699e+07
1.56114e+07
1.49652e+07
1.38494e+07
1.38413e+07
1.42197e+07
2.25863e+07
2.13099e+07
2.12635e+07
2.24704e+07
1.28232e+07
1.20379e+07
1.18226e+07
1.26743e+07
1.35992e+07
1.28091e+07
1.02988e+07
7.93574e+06
6.37434e+06
5.6477e+06
5.44322e+06
5.64985e+06
6.29437e+06
7.72468e+06
9.7491e+06
1.19558e+07
1.31968e+07
1.28203e+07
1.21215e+07
1.22998e+07
1.28998e+07
2.13965e+07
2.04657e+07
2.06209e+07
2.18657e+07
1.17905e+07
1.08511e+07
1.05032e+07
1.10131e+07
1.15755e+07
1.0793e+07
8.70611e+06
6.76065e+06
5.45834e+06
4.85646e+06
4.68006e+06
4.8611e+06
5.41949e+06
6.64164e+06
8.3472e+06
1.01725e+07
1.12614e+07
1.11173e+07
1.07371e+07
1.11026e+07
1.18781e+07
2.09577e+07
2.01732e+07
2.04551e+07
2.11795e+07
1.09884e+07
9.84045e+06
9.44891e+06
9.69198e+06
9.95345e+06
9.17235e+06
7.42331e+06
5.81678e+06
4.72585e+06
4.21713e+06
4.05922e+06
4.219e+06
4.69649e+06
5.71897e+06
7.13722e+06
8.65841e+06
9.64588e+06
9.73874e+06
9.62553e+06
1.00542e+07
1.10088e+07
2.02297e+07
1.97745e+07
2.06778e+07
2.01039e+07
1.02532e+07
8.94413e+06
8.5541e+06
8.61328e+06
8.62146e+06
7.85182e+06
6.37997e+06
5.04241e+06
4.12322e+06
3.69234e+06
3.55012e+06
3.68874e+06
4.09036e+06
4.94626e+06
6.13096e+06
7.39925e+06
8.30249e+06
8.59599e+06
8.66132e+06
9.11262e+06
1.02733e+07
1.88761e+07
1.94084e+07
2.01138e+07
1.89764e+07
9.63268e+06
8.15433e+06
7.74157e+06
7.68325e+06
7.48765e+06
6.714e+06
5.46979e+06
4.37213e+06
3.6118e+06
3.25337e+06
3.12883e+06
3.25518e+06
3.60384e+06
4.32761e+06
5.32766e+06
6.41408e+06
7.2487e+06
7.66286e+06
7.82448e+06
8.30295e+06
9.64966e+06
1.79578e+07
1.98123e+07
1.94333e+07
1.80101e+07
9.16457e+06
7.52847e+06
7.0235e+06
6.87836e+06
6.5711e+06
5.82651e+06
4.76083e+06
3.83744e+06
3.19369e+06
2.88899e+06
2.77794e+06
2.88982e+06
3.18443e+06
3.79537e+06
4.64494e+06
5.57586e+06
6.34848e+06
6.82793e+06
7.06381e+06
7.64878e+06
9.09462e+06
1.70331e+07
1.90762e+07
1.88243e+07
1.71736e+07
8.78239e+06
7.06311e+06
6.39207e+06
6.17939e+06
5.81742e+06
5.10008e+06
4.17786e+06
3.39411e+06
2.84709e+06
2.58459e+06
2.48323e+06
2.58383e+06
2.83613e+06
3.35172e+06
4.07863e+06
4.88772e+06
5.60625e+06
6.10846e+06
6.41037e+06
7.13015e+06
8.66872e+06
1.61218e+07
1.82263e+07
1.78949e+07
1.60873e+07
8.5784e+06
6.68656e+06
5.85729e+06
5.5522e+06
5.15101e+06
4.47843e+06
3.68226e+06
3.01428e+06
2.54634e+06
2.32368e+06
2.23375e+06
2.32592e+06
2.54447e+06
2.99029e+06
3.6236e+06
4.33073e+06
4.9852e+06
5.48631e+06
5.86446e+06
6.71142e+06
8.36165e+06
1.53532e+07
1.77104e+07
1.7449e+07
1.50223e+07
8.34996e+06
6.43288e+06
5.42585e+06
5.02848e+06
4.59819e+06
3.9756e+06
3.27686e+06
2.70113e+06
2.29887e+06
2.10441e+06
2.02126e+06
2.10511e+06
2.29489e+06
2.67545e+06
3.22515e+06
3.85141e+06
4.44797e+06
4.95569e+06
5.42486e+06
6.40765e+06
8.20662e+06
1.44012e+07
1.70241e+07
1.70767e+07
1.41461e+07
7.90976e+06
6.23092e+06
5.10104e+06
4.57974e+06
4.12413e+06
3.55237e+06
2.94327e+06
2.44106e+06
2.08593e+06
1.91613e+06
1.83986e+06
1.91556e+06
2.0807e+06
2.41504e+06
2.89615e+06
3.44857e+06
3.98761e+06
4.50668e+06
5.09108e+06
6.18856e+06
7.90347e+06
1.349e+07
1.6541e+07
1.63549e+07
1.31092e+07
7.40251e+06
6.06201e+06
4.85095e+06
4.20704e+06
3.71958e+06
3.18274e+06
2.64604e+06
2.20978e+06
1.90245e+06
1.75316e+06
1.68336e+06
1.75449e+06
1.90228e+06
2.19394e+06
2.61824e+06
3.1129e+06
3.61051e+06
4.14508e+06
4.82559e+06
6.04425e+06
7.45531e+06
1.26641e+07
1.60741e+07
1.59251e+07
1.22342e+07
6.93119e+06
6.03911e+06
4.67102e+06
3.91965e+06
3.38301e+06
2.87595e+06
2.40109e+06
2.01777e+06
1.74477e+06
1.6121e+06
1.54772e+06
1.61316e+06
1.74304e+06
2.00126e+06
2.37353e+06
2.8184e+06
3.28275e+06
3.85761e+06
4.6235e+06
5.99876e+06
6.951e+06
1.17333e+07
1.54898e+07
1.56317e+07
1.14296e+07
6.48122e+06
5.89831e+06
4.57337e+06
3.70069e+06
3.11604e+06
2.62178e+06
2.18917e+06
1.84853e+06
1.60834e+06
1.4898e+06
1.42952e+06
1.49082e+06
1.60556e+06
1.83169e+06
2.16415e+06
2.57337e+06
3.02833e+06
3.64043e+06
4.52497e+06
5.85751e+06
6.46225e+06
1.09016e+07
1.5187e+07
1.51531e+07
1.0642e+07
5.95158e+06
5.57261e+06
4.52176e+06
3.52422e+06
2.90564e+06
2.40531e+06
2.00459e+06
1.70011e+06
1.48593e+06
1.38027e+06
1.32547e+06
1.38278e+06
1.4861e+06
1.68946e+06
1.9887e+06
2.37195e+06
2.83923e+06
3.46862e+06
4.48001e+06
5.55328e+06
5.97089e+06
1.01996e+07
1.49858e+07
1.48802e+07
1.00027e+07
5.4571e+06
5.23097e+06
4.61696e+06
3.42424e+06
2.74864e+06
2.24015e+06
1.85109e+06
1.57282e+06
1.3805e+06
1.28501e+06
1.23355e+06
1.2869e+06
1.37931e+06
1.56091e+06
1.83573e+06
2.21182e+06
2.68812e+06
3.35505e+06
4.55247e+06
5.21097e+06
5.45243e+06
9.54106e+06
1.46225e+07
1.46732e+07
9.50056e+06
5.0576e+06
4.87012e+06
4.58146e+06
3.40023e+06
2.62625e+06
2.1145e+06
1.72705e+06
1.46435e+06
1.28697e+06
1.19984e+06
1.15178e+06
1.20052e+06
1.28533e+06
1.45128e+06
1.7106e+06
2.0871e+06
2.57295e+06
3.33421e+06
4.51869e+06
4.85332e+06
5.00312e+06
9.03086e+06
1.44021e+07
1.43121e+07
9.02475e+06
4.67317e+06
4.48834e+06
4.34076e+06
3.47016e+06
2.54082e+06
2.01181e+06
1.62788e+06
1.37119e+06
1.20415e+06
1.12382e+06
1.07888e+06
1.12547e+06
1.20365e+06
1.36132e+06
1.61431e+06
1.98989e+06
2.51533e+06
3.42802e+06
4.26531e+06
4.48131e+06
4.68087e+06
8.63372e+06
1.42624e+07
1.40783e+07
8.62637e+06
4.38109e+06
4.13002e+06
4.05671e+06
3.55743e+06
2.5419e+06
1.93683e+06
1.55527e+06
1.29407e+06
1.13278e+06
1.05582e+06
1.01361e+06
1.0576e+06
1.13189e+06
1.28367e+06
1.53881e+06
1.90731e+06
2.51594e+06
3.50958e+06
3.97533e+06
4.12231e+06
4.35327e+06
8.24004e+06
1.3977e+07
1.38979e+07
8.2868e+06
4.19025e+06
3.82118e+06
3.75508e+06
3.4567e+06
2.64435e+06
1.90035e+06
1.49345e+06
1.23529e+06
1.07454e+06
997487
956110
999014
1.07356e+06
1.22474e+06
1.47522e+06
1.86297e+06
2.65136e+06
3.42751e+06
3.6667e+06
3.81345e+06
4.11155e+06
7.88615e+06
1.3794e+07
1.3699e+07
7.90649e+06
3.95993e+06
3.55055e+06
3.45887e+06
3.2605e+06
2.84657e+06
1.92656e+06
1.44678e+06
1.18916e+06
1.03031e+06
948922
907439
950921
1.02942e+06
1.18031e+06
1.43066e+06
1.90545e+06
2.79765e+06
3.22814e+06
3.37559e+06
3.55092e+06
3.95261e+06
7.60807e+06
1.36583e+07
1.35397e+07
7.57044e+06
3.818e+06
3.32611e+06
3.19909e+06
3.06268e+06
2.88459e+06
2.12976e+06
1.43066e+06
1.15178e+06
996537
913518
868689
915152
994511
1.14181e+06
1.40944e+06
2.0309e+06
2.76407e+06
3.01538e+06
3.12958e+06
3.3235e+06
3.77705e+06
7.28377e+06
1.35291e+07
1.3394e+07
7.29419e+06
3.70756e+06
3.14165e+06
2.98253e+06
2.86112e+06
2.73162e+06
2.31034e+06
1.51744e+06
1.12453e+06
964500
884185
838012
885430
963051
1.11285e+06
1.46629e+06
2.22549e+06
2.62908e+06
2.80801e+06
2.922e+06
3.13365e+06
3.63239e+06
7.0057e+06
1.33724e+07
1.30875e+07
6.92676e+06
3.55314e+06
2.9794e+06
2.79638e+06
2.67073e+06
2.56981e+06
2.30475e+06
1.70238e+06
1.13488e+06
937793
857106
812571
858331
938374
1.12756e+06
1.6591e+06
2.26866e+06
2.48922e+06
2.62365e+06
2.74916e+06
2.9789e+06
3.53076e+06
6.73781e+06
1.30634e+07
1.2578e+07
6.53889e+06
3.40685e+06
2.83334e+06
2.64103e+06
2.50395e+06
2.40045e+06
2.20393e+06
1.8757e+06
1.23108e+06
927648
833428
790036
833992
928931
1.21353e+06
1.81033e+06
2.17152e+06
2.33992e+06
2.46353e+06
2.60346e+06
2.83186e+06
3.38175e+06
6.37218e+06
1.25522e+07
1.11676e+07
5.99328e+06
3.24952e+06
2.68356e+06
2.49782e+06
2.35847e+06
2.2428e+06
2.08899e+06
1.88604e+06
1.42764e+06
969747
821083
775069
820226
968130
1.38709e+06
1.81071e+06
2.06105e+06
2.19765e+06
2.32491e+06
2.46738e+06
2.6837e+06
3.21748e+06
5.83908e+06
1.11861e+07
362570
197232
186356
184697
184532
184111
183729
183385
183209
183120
183048
182887
182599
182206
181755
181283
180808
180339
179875
179417
178964
178517
178073
177634
177199
176766
176344
176162
180176
299039
222096
145827
140812
139837
139803
139510
139260
139040
138965
138930
138874
138725
138470
138143
137789
137438
137102
136780
136470
136169
135875
135589
135309
135035
134764
134504
134240
134363
138357
193663
179211
130015
125742
125140
125153
125007
124864
124747
124732
124735
124727
124642
124481
124283
124088
123914
123763
123630
123509
123396
123288
123184
123084
122986
122890
122804
122726
123055
127297
171438
169923
126245
121674
121231
121288
121201
121053
120936
120924
120930
120955
120911
120806
120673
120552
120458
120391
120341
120302
120269
120240
120212
120186
120161
120136
120117
120116
120522
124918
167530
169747
125807
121002
120701
120858
120805
120608
120393
120263
120191
120173
120115
120017
119899
119797
119725
119680
119654
119639
119629
119622
119615
119609
119604
119598
119597
119619
120050
124517
167069
170438
126282
121558
121614
122134
122281
122027
121464
120845
120424
120199
120033
119893
119764
119662
119593
119552
119531
119521
119516
119514
119512
119511
119509
119508
119510
119539
119982
124499
167163
171525
127894
123759
124817
126636
127961
128121
126721
124091
121914
120771
120227
119944
119762
119645
119573
119533
119512
119503
119499
119497
119496
119496
119496
119495
119497
119528
119982
124548
167323
174214
132614
129941
133393
139048
144428
147645
146384
138950
129564
123388
120989
120171
119826
119659
119574
119530
119509
119500
119496
119495
119494
119494
119494
119494
119496
119529
119991
124603
167475
180720
144324
143812
149575
156062
164534
174463
183379
184450
165094
138752
124972
121046
120049
119715
119586
119532
119509
119500
119496
119495
119494
119494
119494
119494
119496
119530
120000
124656
167608
195180
156984
152687
155537
161972
172563
185958
200958
216522
225823
203409
150089
126171
120930
119914
119631
119542
119511
119500
119496
119495
119494
119494
119494
119494
119496
119531
120009
124705
167727
199698
157968
153274
157644
166588
179931
196479
214668
233667
252492
265918
242695
159497
126294
120694
119792
119575
119517
119501
119496
119495
119494
119494
119494
119494
119496
119532
120017
124750
167834
199607
156420
153083
160192
171938
187945
208119
229950
252425
273409
293004
307359
274604
162121
125210
120397
119692
119539
119504
119496
119495
119494
119494
119494
119494
119496
119533
120025
124793
167932
197902
154264
153370
164365
180697
200061
223399
247577
272382
296451
318036
337006
349032
291498
155925
123521
120109
119616
119517
119498
119495
119494
119494
119494
119494
119496
119534
120033
124832
168021
195986
153075
155991
172559
194526
218261
244058
270436
295748
319930
344060
364823
382913
387745
283418
144616
121958
119876
119563
119505
119496
119494
119494
119494
119494
119496
119534
120040
124869
168102
193452
154150
162382
186552
215381
243833
271236
297394
324096
346206
369504
392633
412009
429457
417139
245991
133571
120879
119713
119530
119499
119495
119494
119494
119494
119496
119535
120046
124901
168173
193962
158621
174787
208775
245513
277598
305140
328936
354992
375677
396126
418532
440831
459117
475064
422540
196891
126173
120221
119610
119511
119496
119495
119494
119495
119497
119536
120051
124930
168236
196717
168930
195046
240710
286703
319417
345352
364143
386283
406394
423992
443452
466237
488076
507041
513030
377169
156141
122374
119853
119550
119502
119495
119495
119495
119497
119536
120056
124956
168292
203366
186381
230208
289825
340447
369326
391385
401964
417121
434927
450629
467498
488564
512845
534431
556376
521988
278481
134001
120704
119660
119518
119497
119495
119494
119497
119537
120061
124978
168337
222211
218584
283395
353609
409372
430848
442208
440719
445027
458279
473509
488429
507364
532074
558218
584015
592138
487204
188587
124448
119993
119565
119504
119495
119495
119497
119537
120065
124998
168380
231422
263452
364581
451140
498481
501452
496529
485081
474319
479126
492330
504057
521811
545295
574670
604608
631673
603965
354116
142683
121148
119692
119522
119498
119495
119497
119537
120068
125014
168414
260614
342883
473662
568559
634037
627864
584115
541479
508979
497141
507475
516583
533296
554741
583723
617493
655683
662008
558986
214688
125934
120058
119568
119504
119495
119497
119538
120070
125026
168439
279074
467308
660047
814416
969202
911176
741494
629491
564277
532846
533815
533098
542948
561558
588440
622626
666557
689997
666293
396102
146671
121253
119687
119520
119498
119497
119539
120073
125039
168463
376174
663133
1.02841e+06
1.50123e+06
1.674e+06
1.50741e+06
1.10415e+06
831324
688752
611958
577629
558428
558071
571178
594866
628235
671886
709380
715679
596430
217265
125736
119999
119557
119503
119498
119538
120074
125047
168479
475178
1.25369e+06
1.90475e+06
2.62733e+06
2.76036e+06
2.74043e+06
1.99226e+06
1.30527e+06
909649
718591
631972
596670
581646
585992
605536
636636
677063
724500
742560
706086
386516
142580
120903
119644
119513
119499
119538
120074
125051
168488
728055
3.34649e+06
4.05827e+06
5.26859e+06
4.50664e+06
4.70127e+06
3.50009e+06
2.11731e+06
1.24139e+06
880007
725114
660774
623923
614296
624434
651063
687214
736943
766563
765267
585909
190733
123800
119850
119537
119501
119538
120074
125055
168496
299041
180177
176164
176346
176769
177202
177638
178078
178522
178970
179424
179882
180346
180817
181292
181765
182217
182610
182899
183061
183134
183223
183400
183745
184128
184550
184716
186377
197263
362729
193663
138357
134363
134240
134504
134764
135035
135309
135589
135875
136169
136469
136780
137102
137438
137789
138143
138470
138725
138874
138929
138965
139040
139259
139509
139802
139836
140812
145826
222076
171439
127298
123055
122727
122804
122891
122987
123084
123184
123288
123396
123510
123631
123763
123914
124088
124284
124482
124642
124728
124736
124733
124747
124865
125008
125154
125141
125743
130016
179249
167530
124918
120522
120116
120117
120136
120161
120186
120212
120240
120269
120302
120341
120391
120458
120552
120673
120806
120911
120955
120930
120923
120936
121053
121201
121288
121231
121673
126242
169887
167069
124516
120050
119619
119597
119598
119604
119609
119615
119622
119629
119639
119654
119680
119725
119797
119899
120016
120115
120173
120190
120262
120391
120606
120804
120857
120700
121001
125809
169733
167163
124500
119982
119539
119510
119508
119509
119511
119512
119514
119516
119521
119531
119552
119593
119662
119764
119893
120033
120198
120421
120839
121455
122018
122274
122129
121612
121556
126281
170500
167323
124547
119982
119528
119497
119495
119496
119496
119496
119497
119499
119503
119512
119533
119573
119645
119762
119943
120225
120765
121899
124060
126678
128080
127929
126617
124806
123751
127886
171443
167474
124603
119991
119529
119496
119494
119494
119494
119494
119495
119496
119500
119509
119530
119574
119659
119825
120168
120981
123355
129470
138799
146204
147497
144320
138977
133351
129911
132596
174249
167609
124656
120000
119530
119496
119494
119494
119494
119494
119495
119496
119500
119509
119532
119586
119714
120046
121034
124907
138518
164620
184025
183092
174260
164388
155957
149487
143737
144260
180682
167726
124705
120009
119531
119496
119494
119494
119494
119494
119495
119496
119500
119511
119542
119631
119912
120918
126076
149666
202562
225249
216106
200641
185722
172391
161855
155443
152607
156910
195093
167834
124751
120018
119532
119496
119494
119494
119494
119494
119495
119496
119501
119517
119574
119790
120683
126187
158871
241505
265150
251882
233161
214265
196180
179712
166447
157545
153199
157902
199700
167932
124793
120025
119533
119496
119494
119494
119494
119494
119495
119496
119504
119538
119690
120388
125115
161373
272979
306304
292142
272645
251791
229436
207736
187660
171753
160079
153005
156346
199524
168020
124832
120033
119534
119496
119494
119494
119494
119494
119495
119498
119517
119615
120103
123458
155285
289573
347743
335907
317014
295552
271624
246935
222918
199687
180445
164223
153281
154198
197853
168102
124869
120040
119534
119496
119494
119494
119494
119494
119496
119505
119562
119872
121923
144155
281227
386096
381535
363508
342866
318868
294823
269624
243431
217748
194171
172364
155884
153001
195927
168173
124901
120046
119535
119496
119494
119494
119494
119495
119499
119530
119710
120862
133308
243961
415078
427814
410447
391170
368155
344957
322989
296393
270429
243140
214877
186272
162247
154065
193368
168236
124930
120051
119536
119497
119495
119494
119495
119496
119511
119609
120213
126054
195421
419879
473091
457330
439125
416918
394593
374212
353678
327695
304094
276670
244793
208369
174609
158515
193825
168292
124956
120056
119536
119497
119495
119495
119495
119501
119550
119849
122330
155461
373996
510614
505027
486162
464417
441695
422288
404717
384762
362629
343989
318181
285670
240108
194762
168781
196552
168338
124978
120061
119537
119497
119494
119495
119497
119518
119658
120688
133720
275832
519080
554049
532325
510862
486661
465619
448784
433078
415424
400178
389645
367642
339010
288994
229859
186184
203186
168380
124998
120065
119537
119497
119495
119495
119504
119565
119988
124361
187122
483492
589390
581705
556097
530081
505399
486450
471520
456202
443128
438696
440253
428760
407478
352504
282937
218293
221935
168414
125014
120068
119537
119497
119495
119498
119522
119690
121124
142228
350614
600673
628883
602321
572575
543304
519808
501991
490154
476635
472056
482836
494424
498939
496305
449896
364041
263172
231303
168439
125027
120070
119538
119497
119495
119504
119568
120051
125809
212595
554744
658868
653161
615302
581648
552661
531171
514290
505091
494297
506191
538067
580118
623518
630774
566396
472686
342510
260538
168463
125038
120072
119539
119497
119498
119520
119685
121224
146089
391838
662648
687190
664223
620488
586244
559373
540576
530107
530674
529695
560104
624093
731994
898609
961164
809326
657866
467379
279490
168479
125047
120074
119538
119498
119503
119556
119993
125612
215038
591876
712458
706635
669625
626231
592997
569136
555707
555552
573222
606855
680370
819979
1.08064e+06
1.48242e+06
1.64553e+06
1.48217e+06
1.02431e+06
662959
376653
168488
125051
120074
119538
119499
119513
119643
120880
142067
382075
701953
739351
721799
674899
634629
603633
583977
579155
593589
627595
711722
892929
1.27669e+06
1.93823e+06
2.71255e+06
2.74654e+06
2.60818e+06
1.89364e+06
1.25289e+06
477033
168496
125055
120074
119538
119501
119536
119845
123716
189209
580531
761571
763419
734277
684945
648909
622256
611883
620979
656789
719384
870870
1.21119e+06
2.05498e+06
3.42329e+06
4.66529e+06
4.4667e+06
5.15216e+06
4.07804e+06
3.30249e+06
726456
172699
172659
172628
172598
172567
172536
172505
172474
172443
172411
172380
172349
172318
172287
172255
172224
172192
172161
172129
172098
172066
172035
172003
171971
171939
171908
171876
171844
171812
171780
171748
171716
171684
171651
171619
171587
171555
171522
171490
171458
171425
171393
171360
171327
171295
171262
171229
171197
171164
171131
171098
171065
171032
170999
170966
170933
170899
170866
170833
170800
170766
170733
170700
170666
170633
170599
170565
170532
170498
170464
170430
170397
170363
170329
170295
170261
170227
170193
170159
170124
170090
170056
170022
169987
169953
169919
169884
169850
169815
169780
169746
169711
169676
169642
169607
169572
169537
169502
169467
169432
169397
169362
169327
169292
169257
169222
169186
169151
169116
169080
169045
169009
168974
168938
168902
168867
168831
168795
168759
168724
168688
168652
168614
168567
168483
127678
127645
127620
127595
127570
127546
127522
127497
127473
127449
127425
127401
127377
127353
127329
127306
127282
127258
127235
127211
127188
127165
127141
127118
127095
127072
127049
127026
127003
126980
126957
126934
126912
126889
126867
126844
126822
126799
126777
126755
126733
126711
126689
126667
126645
126623
126601
126579
126558
126536
126514
126493
126471
126450
126429
126408
126386
126365
126344
126323
126302
126281
126260
126240
126219
126198
126178
126157
126137
126116
126096
126076
126055
126035
126015
125995
125975
125955
125935
125915
125896
125876
125856
125837
125817
125798
125778
125759
125740
125720
125701
125682
125663
125644
125625
125606
125587
125568
125550
125531
125513
125494
125477
125459
125442
125425
125408
125390
125372
125354
125335
125316
125297
125278
125259
125241
125222
125204
125186
125169
125151
125133
125116
125096
125073
120760
120750
120741
120734
120726
120718
120710
120703
120695
120687
120680
120672
120665
120658
120650
120643
120636
120629
120622
120614
120607
120600
120594
120587
120580
120573
120566
120560
120553
120546
120540
120533
120527
120520
120514
120507
120501
120495
120489
120482
120476
120470
120464
120458
120452
120446
120440
120434
120428
120423
120417
120411
120405
120400
120394
120389
120383
120378
120372
120367
120361
120356
120351
120345
120340
120335
120330
120324
120319
120314
120309
120304
120299
120294
120289
120284
120280
120275
120270
120265
120261
120256
120251
120247
120242
120237
120233
120228
120224
120219
120215
120210
120206
120202
120197
120193
120189
120185
120183
120181
120182
120186
120193
120204
120216
120228
120237
120240
120236
120226
120210
120192
120174
120158
120143
120131
120121
120113
120107
120101
120096
120092
120088
120084
120079
119641
119639
119637
119636
119634
119633
119632
119630
119629
119627
119626
119625
119624
119622
119621
119620
119619
119617
119616
119615
119614
119613
119611
119610
119609
119608
119607
119606
119605
119604
119603
119602
119600
119599
119598
119597
119596
119595
119594
119593
119593
119592
119591
119590
119589
119588
119587
119586
119585
119584
119583
119583
119582
119581
119580
119579
119578
119578
119577
119576
119575
119575
119574
119573
119572
119571
119571
119570
119569
119569
119568
119567
119567
119566
119565
119564
119564
119563
119563
119562
119561
119561
119560
119559
119559
119558
119558
119557
119556
119556
119555
119555
119554
119554
119553
119554
119559
119569
119592
119639
119727
119884
120140
120511
120963
121405
121720
121805
121666
121345
120943
120552
120241
120011
119853
119743
119669
119620
119589
119569
119557
119550
119545
119542
119539
119507
119507
119506
119506
119506
119506
119506
119506
119505
119505
119505
119505
119505
119505
119505
119504
119504
119504
119504
119504
119504
119504
119503
119503
119503
119503