/*--------------------------------*- C++ -*----------------------------------*\
| =========                 |                                                 |
| \\      /  F ield         | OpenFOAM: The Open Source CFD Toolbox           |
|  \\    /   O peration     | Version:  2112                                  |
|   \\  /    A nd           | Website:  www.openfoam.com                      |
|    \\/     M anipulation  |                                                 |
\*---------------------------------------------------------------------------*/
FoamFile
{
    version     2.0;
    format      ascii;
    arch        "LSB;label=32;scalar=64";
    class       volScalarField;
    location    "0.00751";
    object      nut;
}
// * * * * * * * * * * * * * * * * * * * * * * * * * * * * * * * * * * * * * //

dimensions      [0 2 -1 0 0 0 0];

internalField   nonuniform List<scalar> 
13875
(
0.0511675
0.0366255
0.0343661
0.0343288
0.0343017
0.0343347
0.0342979
0.0342767
0.0342926
0.0342978
0.0342948
0.0342947
0.0343214
0.0343414
0.0343302
0.0342931
0.0342674
0.0342895
0.0343025
0.0343266
0.0343039
0.0343343
0.034382
0.0365713
0.0514281
0.0532619
0.0341199
0.0322229
0.0321077
0.0320684
0.0320915
0.032047
0.032025
0.0320326
0.0320321
0.0320286
0.0320469
0.0320531
0.0320723
0.0320602
0.0320469
0.0320035
0.0320345
0.0320461
0.032076
0.0320637
0.0321023
0.0322285
0.0340559
0.0536377
0.0564569
0.0335617
0.0318036
0.0315944
0.0315733
0.0315742
0.0314865
0.0314437
0.0314467
0.0314415
0.0314283
0.0314598
0.0315291
0.0315558
0.0315345
0.0314646
0.0314079
0.0314453
0.0314782
0.0315677
0.0315645
0.0315801
0.0317948
0.0334945
0.056595
0.0590704
0.0332328
0.0314903
0.0312786
0.031266
0.0312606
0.0311568
0.0311012
0.0311075
0.0311091
0.0310877
0.0311096
0.0312122
0.03124
0.0312181
0.0311168
0.0310728
0.0311026
0.0311466
0.031254
0.0312553
0.0312624
0.0314852
0.0331683
0.0591442
0.0611257
0.033004
0.0312472
0.0310048
0.0309888
0.0309789
0.0308663
0.0308096
0.0308208
0.0308245
0.0308001
0.0308192
0.0309235
0.0309545
0.0309297
0.0308273
0.0307864
0.0308148
0.0308595
0.0309689
0.0309767
0.0309898
0.0312304
0.0329184
0.0612586
0.0628184
0.032848
0.0310902
0.0307728
0.0307555
0.0307307
0.0306036
0.0305461
0.03056
0.0305649
0.030538
0.030554
0.0306609
0.0306948
0.0306676
0.0305626
0.030526
0.0305534
0.0306
0.0307199
0.0307437
0.0307611
0.0310589
0.0328222
0.0629756
0.0648268
0.0330728
0.0311046
0.0306333
0.0305711
0.0305238
0.0303732
0.0303113
0.0303265
0.0303296
0.0303014
0.0303146
0.0304247
0.0304588
0.0304286
0.0303221
0.030293
0.0303206
0.0303763
0.0305123
0.0305601
0.0306331
0.0311132
0.0330703
0.0648701
0.067093
0.0339361
0.0314253
0.03065
0.0304868
0.0303731
0.0301873
0.030111
0.0301219
0.0301216
0.0300939
0.0301005
0.0302152
0.0302521
0.0302192
0.0301082
0.0300892
0.0301208
0.03019
0.0303573
0.0304671
0.0306293
0.0313922
0.0338956
0.0673622
0.0736439
0.0362954
0.0320404
0.0308448
0.030476
0.0302802
0.0300414
0.0299501
0.0299573
0.0299505
0.0299242
0.0299239
0.0300436
0.0300836
0.0300501
0.0299355
0.0299232
0.0299583
0.0300443
0.0302596
0.0304501
0.0308018
0.031935
0.0359986
0.0741912
0.0828956
0.0384691
0.0327349
0.0311886
0.0305815
0.0302371
0.0299646
0.0298686
0.0298643
0.0298481
0.0298249
0.0298216
0.02994
0.0299829
0.0299512
0.0298477
0.0298333
0.0298733
0.0299659
0.03022
0.0305497
0.0310794
0.0326215
0.0381024
0.0835419
0.0907077
0.0441307
0.0346475
0.0319957
0.0308173
0.0303507
0.0300336
0.0299062
0.0298751
0.0298471
0.0298238
0.029819
0.0299303
0.0299751
0.0299524
0.029874
0.0298576
0.0299048
0.0300356
0.0303064
0.0307941
0.0318797
0.0343598
0.0432594
0.0893402
0.0950393
0.0545176
0.0403605
0.0334466
0.031871
0.0308305
0.0303293
0.0301393
0.0300635
0.0300201
0.0299931
0.0299907
0.0300846
0.0301325
0.0301241
0.0300757
0.0300671
0.0301401
0.0303213
0.0308352
0.0317945
0.0332168
0.0398354
0.0533536
0.0942503
0.086577
0.0688002
0.051567
0.0417472
0.0343811
0.0319357
0.0312887
0.0308304
0.0306446
0.0305532
0.0305065
0.0304996
0.03057
0.0306186
0.030633
0.0306294
0.0306817
0.0308737
0.0313327
0.0320142
0.0347599
0.0415561
0.050902
0.0687724
0.0865951
0.079569
0.0659541
0.0581553
0.0657262
0.0416636
0.0372326
0.0336758
0.0324447
0.0320498
0.0319842
0.0319459
0.0319405
0.0320024
0.0320473
0.0320768
0.0321055
0.0321531
0.0325393
0.0340645
0.0382221
0.0431487
0.0656675
0.0578261
0.0661687
0.0815994
0.0752934
0.0642827
0.0566018
0.0606985
0.0561137
0.0540058
0.044456
0.0388515
0.0367734
0.0359232
0.0355355
0.0354141
0.0354348
0.0354889
0.0355974
0.0358923
0.036679
0.0388923
0.0450885
0.0549783
0.055806
0.0612317
0.0566035
0.0641638
0.0746539
0.0671368
0.0618347
0.0543346
0.0573785
0.0560583
0.0572231
0.0545397
0.0530822
0.0508943
0.0484171
0.0474974
0.0471517
0.0470566
0.0471313
0.0472896
0.0477842
0.0503811
0.0543069
0.0553655
0.0577175
0.055626
0.0579875
0.0543106
0.0614999
0.0664736
0.0624005
0.0582344
0.0525548
0.0552043
0.0569963
0.0614003
0.0684026
0.0734901
0.0703756
0.0707359
0.0730704
0.0745708
0.0753552
0.0750484
0.0735064
0.0726461
0.0701224
0.0731931
0.069081
0.0616081
0.0565315
0.0553481
0.0520283
0.0576212
0.0624535
0.0569963
0.0546867
0.0531403
0.0570209
0.0601634
0.0631782
0.0713756
0.0798931
0.0742971
0.0700079
0.0691859
0.0694227
0.0700035
0.0697152
0.0697334
0.0723334
0.0736523
0.0773691
0.0715724
0.0644226
0.061062
0.0577717
0.0529235
0.0542905
0.0568006
0.0512807
0.0540384
0.0558368
0.0621591
0.0671569
0.0646513
0.067564
0.0757416
0.0743261
0.0701166
0.0685718
0.0683824
0.0685069
0.068975
0.0696925
0.0713462
0.072661
0.0737231
0.0681011
0.066223
0.0698031
0.0637455
0.0564534
0.054372
0.0520944
0.0491891
0.0569774
0.0602871
0.0663307
0.0688833
0.0642914
0.0639582
0.0699623
0.0720043
0.0702229
0.0685306
0.0671717
0.0665096
0.0679916
0.0697961
0.0706988
0.0699969
0.068312
0.0646104
0.0660306
0.0708166
0.0671385
0.0610965
0.0574877
0.0487083
0.076773
0.0863749
0.0758274
0.065354
0.0650394
0.0613961
0.0607461
0.0659433
0.0696009
0.0692854
0.0674335
0.0651532
0.064048
0.0662594
0.0687878
0.0693348
0.0674644
0.0645613
0.0614723
0.0630852
0.0667765
0.0668086
0.0782653
0.0891785
0.0806457
0.127604
0.149068
0.0866232
0.0617419
0.0609063
0.058435
0.0581167
0.0629218
0.0672165
0.0676821
0.065665
0.0627467
0.0613761
0.0639655
0.0669989
0.0674796
0.0650763
0.0618376
0.0587706
0.0598948
0.0623181
0.0633212
0.089805
0.153201
0.13316
0.147365
0.125953
0.0807326
0.0588449
0.0575338
0.0559098
0.0557641
0.0604557
0.0649309
0.0656665
0.0634862
0.0602388
0.0586638
0.0613747
0.0647638
0.0654073
0.0628116
0.059563
0.0563301
0.0570764
0.0586473
0.0601524
0.0811389
0.128007
0.148546
0.154929
0.125987
0.0737946
0.0566811
0.0547514
0.0536185
0.0537159
0.0582099
0.0627162
0.0634765
0.0610681
0.0576334
0.0560833
0.0588293
0.062431
0.063305
0.0605994
0.0573089
0.0542648
0.0546975
0.0558459
0.058105
0.0751198
0.132937
0.155277
0.159727
0.126799
0.0700965
0.0551922
0.0526807
0.0516677
0.052058
0.0562302
0.0605174
0.061206
0.0587251
0.0552204
0.0536934
0.0564082
0.0601345
0.0611223
0.0585119
0.0552991
0.0524925
0.0526506
0.0537834
0.0566529
0.0722038
0.136733
0.160928
0.1659
0.131296
0.0678094
0.0537547
0.051062
0.0500232
0.050723
0.0545012
0.0584216
0.0589742
0.0564944
0.0530014
0.0514985
0.0541069
0.0577975
0.0588957
0.0565563
0.0535198
0.0509453
0.0508096
0.052088
0.0550514
0.0697092
0.1402
0.169351
0.174191
0.129951
0.0651523
0.0524246
0.0497864
0.0486711
0.049598
0.0529708
0.0563556
0.0566712
0.0542542
0.0509295
0.0495099
0.0520668
0.0556796
0.0568081
0.0547612
0.0519676
0.0496085
0.0493279
0.0508329
0.0537894
0.0676335
0.141004
0.175325
0.179713
0.131362
0.063747
0.0513988
0.0488233
0.0476225
0.0486117
0.0515923
0.0544793
0.0545852
0.0522517
0.049075
0.0476997
0.0501421
0.0535973
0.0547841
0.0530985
0.0506
0.0484845
0.0481512
0.0497459
0.0526241
0.0662206
0.14302
0.182668
0.184868
0.134384
0.0630303
0.0505805
0.0480744
0.046875
0.0477495
0.0503258
0.0527278
0.0526518
0.0504304
0.0474049
0.0460636
0.048362
0.0516093
0.0528213
0.0515217
0.049365
0.0475052
0.0472229
0.0487986
0.0516253
0.0648291
0.141272
0.189843
0.191686
0.132786
0.0623726
0.0499514
0.0473285
0.0463092
0.0470876
0.0491885
0.0510421
0.0507289
0.0486176
0.045829
0.0445782
0.0468225
0.0499239
0.0511189
0.0500977
0.0482565
0.0466923
0.0464952
0.0479698
0.0509459
0.0643693
0.141392
0.193929
0.194079
0.129884
0.061973
0.0495859
0.0467069
0.0457588
0.0464661
0.0481333
0.0495294
0.0490614
0.0470657
0.0444432
0.0432417
0.0453622
0.0482716
0.0494601
0.0487642
0.0472784
0.0460244
0.0458357
0.0471624
0.0504106
0.0635195
0.137261
0.19979
0.196573
0.130249
0.0620808
0.0495052
0.0461109
0.0452019
0.045886
0.0472024
0.0482011
0.0475789
0.0456648
0.0431905
0.0420334
0.0440284
0.046785
0.0479934
0.0475598
0.0463949
0.0453975
0.0451822
0.0464367
0.0501465
0.0630615
0.134671
0.202527
0.200728
0.12661
0.061871
0.0496308
0.0456613
0.0447414
0.0453042
0.0463085
0.0468904
0.0461375
0.0443277
0.0420256
0.0409493
0.042878
0.0455012
0.0466802
0.0464618
0.0455881
0.0447683
0.0446197
0.0458882
0.0501617
0.063156
0.134912
0.204184
0.202113
0.124829
0.0616964
0.0499556
0.0454158
0.0443185
0.044674
0.0454896
0.0457528
0.0448973
0.0431613
0.0409904
0.0399619
0.041778
0.0442775
0.0454687
0.0454428
0.0448509
0.0441458
0.0441277
0.0455135
0.0503008
0.0631474
0.131738
0.207005
0.203431
0.124848
0.0614003
0.0504097
0.0455114
0.043925
0.0440915
0.0446915
0.0446988
0.043766
0.0421147
0.0400526
0.0390773
0.0407939
0.0431618
0.0443492
0.0444952
0.0441097
0.0435527
0.0436842
0.0454716
0.0506819
0.0627603
0.129445
0.208088
0.205725
0.12353
0.0610202
0.05089
0.0458117
0.0436309
0.043533
0.0438879
0.0437214
0.0427104
0.0411084
0.039177
0.0382643
0.0399185
0.0422104
0.0433887
0.0436376
0.0433752
0.0430109
0.0433295
0.0456636
0.0511892
0.062529
0.129581
0.209333
0.206252
0.124096
0.0608055
0.051867
0.0463549
0.0434816
0.0430574
0.0431505
0.0427991
0.0417778
0.0402446
0.0384038
0.0375318
0.0390911
0.0412801
0.0424567
0.0427978
0.0426881
0.0425473
0.043104
0.0460628
0.0519564
0.0620425
0.128309
0.211019
0.206477
0.126438
0.0606032
0.052627
0.0471084
0.043558
0.0426006
0.0424501
0.0419659
0.0409408
0.0394576
0.0376949
0.0368597
0.0383343
0.0404479
0.0416143
0.0420116
0.0420537
0.0420943
0.0431138
0.0467017
0.0527292
0.0615738
0.129529
0.211255
0.207136
0.126421
0.0599904
0.0527128
0.0480758
0.0438656
0.0422777
0.041814
0.0411521
0.0401239
0.0387083
0.0370366
0.0362526
0.0376777
0.0397087
0.0408419
0.0412927
0.0414891
0.0417482
0.0433118
0.047612
0.0530746
0.0611361
0.132855
0.211112
0.206606
0.128216
0.059418
0.0526813
0.0494115
0.0443787
0.0421181
0.0412813
0.0404689
0.0394247
0.0380419
0.0364357
0.0356886
0.0370362
0.0389987
0.0401199
0.040632
0.0410141
0.0415853
0.0437379
0.0485452
0.0529545
0.0606378
0.134248
0.211196
0.2064
0.130586
0.0591207
0.0524886
0.0507045
0.0451955
0.0421568
0.0408981
0.0398607
0.0387809
0.037433
0.0358819
0.0351738
0.0364547
0.038334
0.0394522
0.0400511
0.0406624
0.0416456
0.0443638
0.050125
0.0528364
0.0602166
0.13599
0.210136
0.206786
0.132163
0.0587805
0.0519713
0.0510814
0.0461659
0.0423509
0.0407252
0.0393761
0.0381891
0.0368467
0.0353579
0.0346907
0.0359273
0.0377667
0.0388832
0.0395981
0.0404968
0.0418366
0.0453071
0.0512151
0.0526143
0.0605379
0.138286
0.209769
0.206318
0.134228
0.0586614
0.0513875
0.0509963
0.0478171
0.042788
0.0407058
0.0390456
0.0377043
0.036338
0.0348878
0.0342478
0.0354208
0.0372036
0.0383551
0.039251
0.0405131
0.0422209
0.0465356
0.051261
0.0520083
0.0603612
0.140175
0.209856
0.206032
0.136397
0.059484
0.0508865
0.0505789
0.0492459
0.0436388
0.0408093
0.0389171
0.0373332
0.0358925
0.0344553
0.0338324
0.034955
0.0367112
0.0379377
0.03907
0.0406444
0.043025
0.0485396
0.050917
0.0514173
0.0608061
0.142398
0.209354
0.205965
0.138261
0.0594288
0.050348
0.0499174
0.0496355
0.0449618
0.0411153
0.0388607
0.037084
0.0355221
0.0340695
0.0334618
0.0345591
0.0363245
0.0376689
0.0390237
0.0409679
0.044569
0.0497484
0.0503516
0.0511042
0.0622285
0.144345
0.20873
0.20522
0.139987
0.0604167
0.0500427
0.049181
0.0492934
0.0471668
0.0419514
0.0389708
0.0370306
0.0353182
0.0337827
0.0331536
0.0342398
0.0360774
0.0375613
0.0390866
0.0416791
0.0467971
0.0494992
0.0496796
0.0507488
0.0628008
0.145774
0.208344
0.204325
0.141769
0.0617797
0.0499548
0.0485908
0.0487892
0.048375
0.0437338
0.0393097
0.0370102
0.0352438
0.0336367
0.0329206
0.0340648
0.0359668
0.0375296
0.0393194
0.0433732
0.0482181
0.0490077
0.0490816
0.050544
0.0634188
0.147203
0.207387
0.202495
0.142721
0.0623805
0.0498564
0.048127
0.0481996
0.0480619
0.0461717
0.0403249
0.0370893
0.0352123
0.0335886
0.0328107
0.0340089
0.0359406
0.0376058
0.0402161
0.0458624
0.0480015
0.0483343
0.0485919
0.0505689
0.0647545
0.148452
0.205214
0.199328
0.142654
0.0632249
0.0499202
0.0477771
0.0475595
0.0476144
0.0475351
0.0425155
0.0375297
0.0352648
0.0335953
0.0328109
0.0340045
0.0359532
0.0379044
0.0419919
0.0475999
0.0475946
0.0476034
0.048146
0.0505411
0.0652453
0.148672
0.202107
0.190909
0.139709
0.0638948
0.0499864
0.0475215
0.0470321
0.0470365
0.0471889
0.0449971
0.0388874
0.0355338
0.033645
0.032837
0.0340307
0.0361437
0.0389721
0.0447111
0.0475087
0.0470561
0.0469977
0.04778
0.0504911
0.0654315
0.145696
0.193607
0.185253
0.494053
0.668653
0.695743
0.659375
0.614446
0.579119
0.562899
0.568812
0.588115
0.600304
0.579764
0.525769
0.456234
0.40235
0.37131
0.366263
0.380147
0.412935
0.486305
0.594987
0.63963
0.646016
0.637942
0.619025
0.58795
0.541915
0.473111
0.366867
0.152826
0.189384
0.514399
0.677746
0.687584
0.640594
0.594606
0.56395
0.551287
0.559582
0.575416
0.581361
0.56527
0.517296
0.449216
0.394193
0.364547
0.361692
0.382323
0.441877
0.554102
0.605489
0.622413
0.621283
0.608897
0.587938
0.556627
0.5129
0.448587
0.350855
0.150235
0.207607
0.553505
0.696375
0.682632
0.626613
0.5794
0.551623
0.541514
0.553396
0.568458
0.569121
0.552339
0.501541
0.433066
0.381376
0.357802
0.363233
0.404952
0.494939
0.557513
0.581123
0.589034
0.586157
0.572807
0.552876
0.522848
0.482152
0.422991
0.333315
0.147394
0.222948
0.592193
0.708882
0.675018
0.611706
0.565354
0.540036
0.532664
0.546429
0.561625
0.559624
0.54265
0.486
0.419282
0.374488
0.361789
0.387395
0.456422
0.510711
0.541651
0.55606
0.559213
0.554079
0.540327
0.521505
0.492719
0.45475
0.400357
0.317917
0.144808
0.231468
0.619326
0.715155
0.6656
0.598558
0.552985
0.529813
0.525087
0.54186
0.56014
0.559183
0.54169
0.47637
0.416802
0.382949
0.392025
0.43809
0.473674
0.501588
0.521908
0.531873
0.53197
0.524743
0.511366
0.493594
0.465814
0.43069
0.380764
0.303978
0.142374
0.238923
0.649258
0.72069
0.657388
0.587679
0.542855
0.520294
0.519102
0.542512
0.569154
0.570307
0.548498
0.484249
0.435252
0.420338
0.437987
0.453961
0.470107
0.489415
0.504046
0.51
0.507459
0.498131
0.485784
0.468702
0.442503
0.410158
0.36411
0.291779
0.140121
0.246193
0.678662
0.72692
0.651836
0.579892
0.536117
0.517221
0.523212
0.55625
0.591432
0.595954
0.566342
0.514031
0.469539
0.447811
0.447548
0.452799
0.463187
0.478574
0.488292
0.490489
0.485584
0.475422
0.463139
0.447038
0.422447
0.392349
0.349352
0.279911
0.137888
0.254374
0.708691
0.732819
0.65018
0.580827
0.54279
0.529562
0.540185
0.574079
0.607084
0.607192
0.570208
0.517624
0.47035
0.451117
0.446729
0.449408
0.457488
0.468899
0.474299
0.473096
0.465978
0.455717
0.44376
0.428391
0.404997
0.376405
0.335658
0.268513
0.135613
0.263704
0.7348
0.740656
0.659518
0.59625
0.564865
0.551486
0.559259
0.578311
0.590666
0.578679
0.543167
0.501307
0.467809
0.452101
0.44651
0.447708
0.453739
0.460484
0.461707
0.457101
0.447964
0.43865
0.427048
0.412111
0.389363
0.361928
0.323051
0.258221
0.133427
0.274323
0.757897
0.758331
0.68245
0.625301
0.589784
0.573229
0.572668
0.578565
0.575489
0.559274
0.532202
0.500141
0.475282
0.459587
0.451344
0.449126
0.451455
0.4531
0.449805
0.442611
0.433041
0.424226
0.412677
0.397585
0.37582
0.349474
0.312213
0.249531
0.131333
0.286232
0.78931
0.788705
0.714933
0.659579
0.626753
0.610071
0.601156
0.59869
0.591738
0.577575
0.556791
0.529073
0.502498
0.479557
0.463586
0.454745
0.451046
0.446287
0.439032
0.42986
0.421054
0.412191
0.400529
0.385287
0.364453
0.338812
0.30274
0.241782
0.129338
0.300162
0.831861
0.829084
0.758792
0.711799
0.687714
0.675878
0.670159
0.668144
0.66448
0.652046
0.628844
0.59338
0.554275
0.516122
0.486061
0.465889
0.453003
0.440906
0.429936
0.419721
0.411533
0.402305
0.390302
0.374819
0.354663
0.329685
0.294388
0.234608
0.127471
0.316226
0.884404
0.882318
0.822531
0.790484
0.779201
0.77996
0.787401
0.793478
0.791535
0.775729
0.743377
0.693729
0.634392
0.572915
0.521025
0.483682
0.457206
0.437664
0.422823
0.412829
0.404176
0.394149
0.381467
0.365938
0.34625
0.321714
0.286827
0.227877
0.125707
0.33339
0.948961
0.955524
0.912089
0.899747
0.907762
0.929526
0.951845
0.967991
0.969314
0.947582
0.900896
0.829711
0.742587
0.650104
0.568721
0.50797
0.4649
0.437071
0.41966
0.408367
0.398572
0.387135
0.373725
0.358243
0.338768
0.314534
0.28003
0.221749
0.124061
0.351777
1.02887
1.05107
1.02842
1.04221
1.07662
1.12309
1.16421
1.19092
1.19131
1.15808
1.09062
0.991646
0.871149
0.742592
0.627251
0.53808
0.477073
0.44066
0.419109
0.405663
0.393967
0.380951
0.367152
0.351471
0.332033
0.307923
0.273731
0.216032
0.122501
0.371067
1.12565
1.16987
1.17071
1.21374
1.28106
1.35181
1.40647
1.43695
1.43017
1.38008
1.28776
1.15891
1.00541
0.843042
0.693375
0.57534
0.495237
0.447723
0.420615
0.404077
0.389635
0.375648
0.361359
0.345415
0.325911
0.301746
0.267694
0.210429
0.120988
0.391812
1.23673
1.30605
1.33134
1.40408
1.49908
1.58496
1.64426
1.66812
1.64566
1.57625
1.46303
1.31229
1.13333
0.943201
0.76399
0.618589
0.518205
0.457704
0.423877
0.402701
0.385528
0.370788
0.356193
0.339984
0.32031
0.295909
0.261695
0.204801
0.119509
0.413761
1.35569
1.45032
1.49611
1.58826
1.69693
1.78928
1.84468
1.85691
1.82038
1.73589
1.60744
1.44159
1.24685
1.03886
0.837999
0.667945
0.545787
0.470174
0.427626
0.400697
0.381538
0.36637
0.351518
0.335018
0.31507
0.290385
0.255877
0.199382
0.118117
0.435601
1.47451
1.59073
1.64646
1.74629
1.86092
1.95502
2.00607
2.00719
1.95841
1.86196
1.72311
1.54832
1.3456
1.12858
0.913668
0.722302
0.577536
0.483861
0.430709
0.398621
0.377958
0.362409
0.347229
0.330431
0.31019
0.285201
0.250438
0.194444
0.116864
0.456204
1.58658
1.71299
1.76877
1.87621
1.99582
2.08877
2.13653
2.12948
2.07237
1.96711
1.82064
1.63966
1.43286
1.21215
0.988462
0.779434
0.610849
0.498198
0.433733
0.397394
0.375205
0.358929
0.343327
0.3262
0.305605
0.280353
0.245327
0.189917
0.115715
0.47603
1.67881
1.79588
1.85682
1.97876
2.10735
2.20317
2.24936
2.2386
2.17712
2.06586
1.91362
1.72723
1.51701
1.29326
1.0617
0.83671
0.645549
0.514677
0.439282
0.397831
0.373378
0.355936
0.339711
0.322151
0.301235
0.275771
0.240528
0.185636
0.114634
0.495424
1.73716
1.81786
1.90372
2.05452
2.20144
2.3074
2.35738
2.34741
2.28496
2.16993
2.01224
1.81917
1.60323
1.37369
1.13385
0.895813
0.686995
0.537288
0.44816
0.399991
0.372361
0.353309
0.336307
0.318221
0.297038
0.271366
0.235997
0.181587
0.113576
0.515714
1.7087
1.75081
1.90436
2.10495
2.28058
2.40484
2.46599
2.46318
2.4013
2.28348
2.11858
1.91587
1.69112
1.45369
1.2075
0.962032
0.738584
0.566699
0.460493
0.403462
0.371855
0.351097
0.333224
0.314482
0.293099
0.267192
0.231762
0.177719
0.112683
0.528559
1.60328
1.59639
1.85963
2.12985
2.34476
2.49702
2.57787
2.58648
2.5281
2.40825
2.23468
2.02109
1.78695
1.54137
1.28929
1.03684
0.798917
0.603623
0.476736
0.408705
0.372247
0.349364
0.330492
0.311256
0.289669
0.263529
0.227995
0.17449
0.112059
0.522948
1.20023
1.39481
1.78639
2.13022
2.39496
2.58508
2.69198
2.71743
2.66775
2.54898
2.36666
2.14321
1.89862
1.64335
1.38243
1.12004
0.8666
0.648628
0.498347
0.416625
0.374158
0.348575
0.328505
0.309205
0.287157
0.260616
0.224869
0.171671
0.111545
0.152942
0.368665
0.47553
0.544655
0.591341
0.623956
0.642856
0.65016
0.641782
0.59335
0.484268
0.411938
0.37995
0.367252
0.37453
0.40893
0.466924
0.538278
0.591602
0.610545
0.596969
0.576277
0.571048
0.588725
0.625124
0.671993
0.710439
0.683912
0.504438
0.187945
0.150336
0.352369
0.450542
0.515465
0.559632
0.591945
0.613146
0.625482
0.625188
0.606882
0.553792
0.441443
0.38252
0.363029
0.367848
0.400557
0.459386
0.528826
0.575873
0.591763
0.584287
0.566876
0.558998
0.572927
0.604555
0.652564
0.701928
0.693188
0.525641
0.192054
0.147483
0.334802
0.424654
0.484321
0.525122
0.555984
0.576293
0.589753
0.591804
0.583095
0.557032
0.495006
0.406274
0.365437
0.361204
0.387639
0.442835
0.512478
0.563178
0.579939
0.577235
0.560208
0.548616
0.560184
0.588838
0.63818
0.696691
0.712128
0.566303
0.210466
0.144943
0.319268
0.401745
0.456576
0.494603
0.524102
0.543133
0.557024
0.561776
0.557939
0.541228
0.509953
0.457839
0.392019
0.36694
0.381474
0.429755
0.497808
0.555078
0.570849
0.570513
0.553185
0.539466
0.548217
0.574296
0.622822
0.688974
0.724545
0.605701
0.226094
0.142519
0.305201
0.381903
0.432067
0.467354
0.495531
0.513513
0.526434
0.533904
0.533312
0.521812
0.500986
0.473704
0.441882
0.401505
0.393127
0.430202
0.491177
0.557142
0.572247
0.570199
0.549546
0.53223
0.538172
0.562319
0.609904
0.679774
0.730798
0.632645
0.234679
0.14027
0.292987
0.365094
0.411239
0.443687
0.470113
0.487599
0.499842
0.508798
0.510958
0.504056
0.488628
0.469921
0.454215
0.44224
0.432856
0.452055
0.505125
0.568981
0.588495
0.583547
0.553833
0.528633
0.529783
0.552703
0.599224
0.672035
0.737288
0.66298
0.24211
0.138073
0.281036
0.350242
0.393333
0.423425
0.448047
0.464905
0.476979
0.486537
0.491057
0.488131
0.477458
0.462824
0.452319
0.448829
0.453853
0.482915
0.536597
0.59089
0.619802
0.612302
0.573543
0.538236
0.530681
0.547839
0.592462
0.667161
0.744382
0.693451
0.249755
0.135872
0.269637
0.336617
0.377441
0.405923
0.429248
0.445046
0.456902
0.466867
0.473453
0.473998
0.467763
0.457133
0.449022
0.447436
0.454608
0.478181
0.530445
0.586734
0.62516
0.624746
0.590376
0.557057
0.546063
0.559055
0.596318
0.667322
0.751795
0.724603
0.258011
0.133679
0.259036
0.32393
0.362932
0.390345
0.412967
0.428196
0.439686
0.448808
0.457543
0.461462
0.459422
0.453122
0.447887
0.447791
0.455295
0.473816
0.510848
0.553601
0.588964
0.60019
0.58728
0.570146
0.565686
0.581405
0.6151
0.679464
0.761737
0.753775
0.267988
0.131582
0.249957
0.312916
0.350273
0.376661
0.398509
0.41385
0.425193
0.434058
0.443342
0.450132
0.45245
0.450997
0.450254
0.454334
0.464597
0.48257
0.510321
0.543442
0.570817
0.586923
0.589294
0.584795
0.58751
0.606001
0.644321
0.704183
0.782318
0.779342
0.279557
0.129568
0.241935
0.303292
0.33951
0.365176
0.386164
0.401571
0.413223
0.422195
0.431209
0.440159
0.446873
0.451362
0.45742
0.469444
0.48878
0.514643
0.544053
0.573479
0.594791
0.608904
0.614794
0.617781
0.627904
0.645499
0.678973
0.737028
0.814448
0.814041
0.292512
0.12766
0.23456
0.294843
0.330321
0.35529
0.375617
0.391289
0.4035
0.412866
0.421251
0.431996
0.443111
0.454912
0.470863
0.496165
0.531825
0.574479
0.616958
0.654393
0.678483
0.690953
0.693601
0.69449
0.699892
0.711663
0.735724
0.783302
0.855862
0.859116
0.307912
0.125808
0.227673
0.287268
0.322396
0.346937
0.366721
0.382375
0.395604
0.405765
0.414759
0.425639
0.441466
0.462278
0.491715
0.53684
0.597021
0.665152
0.728819
0.780603
0.81346
0.828565
0.829092
0.82103
0.811975
0.809747
0.820591
0.852006
0.9123
0.913894
0.324694
0.124036
0.221304
0.280441
0.31535
0.339773
0.359249
0.374871
0.388576
0.400524
0.410608
0.422611
0.44267
0.473232
0.520483
0.591301
0.683548
0.784948
0.878097
0.951848
0.998881
1.01931
1.01557
0.996991
0.971965
0.947393
0.937298
0.947604
0.990329
0.981903
0.34228
0.122364
0.215282
0.274032
0.308898
0.333433
0.352763
0.368426
0.382556
0.395957
0.40822
0.422702
0.446866
0.488341
0.556241
0.65695
0.785286
0.924378
1.05222
1.15477
1.22287
1.25502
1.2518
1.22156
1.17665
1.12645
1.08846
1.07107
1.09215
1.06638
0.360993
0.120777
0.209461
0.267911
0.302855
0.327552
0.34691
0.36279
0.37725
0.391638
0.406902
0.42503
0.454888
0.508154
0.598179
0.729697
0.893285
1.06686
1.22809
1.36096
1.45445
1.50394
1.50859
1.47458
1.4158
1.34092
1.2686
1.22167
1.21864
1.16843
0.380638
0.119298
0.203848
0.261913
0.297081
0.321982
0.34159
0.357763
0.372488
0.387661
0.405446
0.428795
0.465969
0.533305
0.645232
0.804689
0.997339
1.1981
1.38448
1.53977
1.65484
1.7241
1.74516
1.71912
1.65636
1.56631
1.46708
1.39049
1.36285
1.28488
0.401639
0.117949
0.198548
0.256129
0.291553
0.316634
0.336661
0.353138
0.368133
0.383809
0.403894
0.433044
0.479659
0.562444
0.696864
0.879997
1.09238
1.3092
1.51057
1.6814
1.81307
1.89918
1.9356
1.92239
1.86446
1.7685
1.65673
1.56229
1.51503
1.41036
0.423985
0.116719
0.193664
0.250667
0.286293
0.311646
0.331985
0.348837
0.364129
0.38038
0.402232
0.436479
0.494769
0.594591
0.751079
0.953364
1.17719
1.40097
1.6097
1.79005
1.93365
2.03353
2.08423
2.08376
2.0319
1.93549
1.81877
1.71782
1.66246
1.53484
0.445769
0.115552
0.189142
0.245517
0.281323
0.306956
0.327719
0.344866
0.360581
0.377584
0.401058
0.439891
0.508823
0.626924
0.805254
1.02281
1.25312
1.4793
1.69198
1.87929
2.03189
2.14238
2.20345
2.21343
2.16579
2.07197
1.95156
1.84359
1.78939
1.65096
0.466204
0.114475
0.184975
0.240696
0.276687
0.302527
0.323745
0.341366
0.35761
0.375623
0.401312
0.445243
0.524585
0.660675
0.858419
1.08956
1.32634
1.55501
1.77134
1.96493
2.12445
2.2424
2.30947
2.32476
2.28072
2.18494
2.05493
1.93308
1.87413
1.74486
0.485908
0.113541
0.181195
0.236277
0.272309
0.298379
0.319914
0.338192
0.35519
0.374571
0.403208
0.453479
0.545934
0.700511
0.914019
1.15656
1.40062
1.63479
1.85706
2.05798
2.22391
2.34683
2.41641
2.43126
2.38439
2.27984
2.13204
1.97989
1.89327
1.80125
0.505024
0.112702
0.17765
0.232181
0.268205
0.294433
0.316267
0.335286
0.353231
0.374161
0.40653
0.465131
0.574439
0.750313
0.976819
1.22542
1.4749
1.71686
1.94822
2.15944
2.33372
2.46072
2.53079
2.53943
2.4809
2.35811
2.18357
1.98046
1.81862
1.76515
0.525525
0.111921
0.174247
0.228371
0.264502
0.290769
0.312739
0.332645
0.351771
0.374966
0.412123
0.481075
0.610302
0.808676
1.04812
1.30209
1.55658
1.80665
2.04768
2.27065
2.45526
2.5857
2.65276
2.65079
2.57362
2.42216
2.20741
1.93531
1.6563
1.64717
0.537815
0.111345
0.171336
0.225089
0.261564
0.288182
0.310624
0.33071
0.351079
0.376996
0.419925
0.502613
0.654375
0.873668
1.12731
1.39017
1.65323
1.91292
2.16483
2.39883
2.59417
2.72455
2.7836
2.76483
2.66143
2.47316
2.20779
1.85963
1.44779
1.24448
0.530995
0.242868
0.228697
0.212735
0.196181
0.181371
0.168298
0.157468
0.148709
0.14231
0.137994
0.135539
0.135228
0.137385
0.142355
0.150386
0.16198
0.17749
0.196719
0.219388
0.244334
0.270142
0.295056
0.318104
0.338508
0.355652
0.369817
0.381246
0.390304
0.397474
0.403854
0.40814
0.411823
0.414674
0.416651
0.41774
0.41785
0.416805
0.414438
0.410744
0.405673
0.399238
0.391442
0.382191
0.371511
0.359458
0.346255
0.332141
0.31721
0.301647
0.285618
0.269336
0.253121
0.237246
0.221941
0.207417
0.193842
0.181317
0.169886
0.159548
0.150287
0.142099
0.13494
0.128737
0.123415
0.118901
0.115105
0.111919
0.109239
0.106988
0.105116
0.103588
0.102372
0.101441
0.100754
0.100259
0.0998977
0.0996317
0.099442
0.0993155
0.0992341
0.099179
0.0991401
0.0991217
0.0991376
0.0992029
0.0993262
0.0995089
0.0997437
0.10002
0.100323
0.100637
0.100949
0.101244
0.1015
0.101696
0.101846
0.101994
0.102156
0.102334
0.102534
0.102765
0.10302
0.103324
0.103636
0.103989
0.104442
0.104926
0.105425
0.10594
0.106501
0.107222
0.108167
0.108858
0.109124
0.109348
0.109651
0.110164
0.110387
0.11024
0.110098
0.109995
0.110069
0.11036
0.110692
0.111034
2.2888
2.18759
2.02035
1.82494
1.63699
1.46099
1.30873
1.17998
1.07663
0.997259
0.940814
0.910906
0.912379
0.95126
1.03453
1.1743
1.37937
1.64877
1.97329
2.33382
2.70696
3.06971
3.40515
3.70363
3.96111
4.1779
4.35712
4.50226
4.61546
4.70161
4.76122
4.78948
4.79438
4.77849
4.74337
4.69134
4.62432
4.54377
4.45158
4.34898
4.237
4.11644
3.9877
3.8513
3.70857
3.56106
3.41018
3.25346
3.09235
2.92798
2.76179
2.59457
2.42565
2.25562
2.08554
1.91623
1.74909
1.58559
1.42688
1.27441
1.13037
0.99635
0.874157
0.765583
0.671351
0.591519
0.525061
0.470435
0.426071
0.390533
0.362453
0.34045
0.323244
0.309691
0.298777
0.289687
0.28183
0.274799
0.268286
0.262054
0.255945
0.249896
0.243918
0.238086
0.232482
0.227174
0.222184
0.217496
0.213069
0.208879
0.204897
0.201027
0.197191
0.193385
0.189641
0.185959
0.182393
0.178948
0.175656
0.172547
0.169736
0.167173
0.164897
0.162872
0.161123
0.159823
0.158899
0.15818
0.15763
0.157506
0.157975
0.159755
0.160664
0.160759
0.160706
0.161283
0.163494
0.164453
0.164242
0.163993
0.163953
0.164522
0.165889
0.167632
0.169337
3.99667
3.8552
3.61435
3.33015
3.04288
2.77262
2.53341
2.32989
2.1648
2.03865
1.95436
1.92077
1.94741
2.04725
2.23385
2.51726
2.89651
3.35731
3.8759
4.42133
4.96261
5.4764
5.94576
6.36054
6.71566
7.01248
7.25384
7.44535
7.59398
7.70487
7.78167
7.82571
7.83606
7.822
7.78399
7.7226
7.63944
7.53658
7.41605
7.27936
7.12794
6.96209
6.78232
6.58944
6.3852
6.17112
5.94831
5.71705
5.47906
5.2361
4.98992
4.74208
4.49398
4.24694
4.00229
3.76117
3.52442
3.29232
3.06476
2.84124
2.62144
2.40421
2.1897
1.97949
1.77623
1.58233
1.39993
1.23143
1.07959
0.946647
0.833693
0.740346
0.664655
0.60394
0.555402
0.516394
0.484631
0.458292
0.436038
0.416888
0.40006
0.384944
0.371132
0.358364
0.346515
0.335508
0.325296
0.315816
0.30701
0.298802
0.291097
0.283897
0.277138
0.270682
0.264513
0.258561
0.25284
0.247332
0.242075
0.237058
0.2324
0.228117
0.224238
0.220781
0.217736
0.21518
0.213175
0.211496
0.21016
0.209377
0.209506
0.211241
0.212043
0.211949
0.212036
0.21314
0.215829
0.216657
0.216279
0.215747
0.215514
0.216164
0.217909
0.220317
0.222695
5.71683
5.5596
5.28043
4.94382
4.5946
4.2634
3.96846
3.71949
3.52342
3.38726
3.31927
3.33619
3.45255
3.6788
4.01852
4.46582
5.00358
5.60592
6.24147
6.87708
7.48264
8.0365
8.53037
8.95734
9.31642
9.6105
9.84097
10.0197
10.1541
10.2487
10.3081
10.3363
10.3347
10.3031
10.2499
10.1751
10.0801
9.96587
9.83404
9.68588
9.52168
9.34242
9.14903
8.94235
8.72388
8.4946
8.25584
8.00898
7.75557
7.49769
7.23702
6.9752
6.71379
6.45382
6.19635
5.94194
5.69058
5.44156
5.19369
4.94529
4.69452
4.43995
4.18153
3.9201
3.65707
3.39357
3.13039
2.86832
2.60932
2.35647
2.11509
1.88977
1.68401
1.50013
1.33908
1.20016
1.08126