/*--------------------------------*- C++ -*----------------------------------*\
| =========                 |                                                 |
| \\      /  F ield         | OpenFOAM: The Open Source CFD Toolbox           |
|  \\    /   O peration     | Version:  2112                                  |
|   \\  /    A nd           | Website:  www.openfoam.com                      |
|    \\/     M anipulation  |                                                 |
\*---------------------------------------------------------------------------*/
FoamFile
{
    version     2.0;
    format      ascii;
    arch        "LSB;label=32;scalar=64";
    class       volScalarField;
    location    "0.00717";
    object      k;
}
// * * * * * * * * * * * * * * * * * * * * * * * * * * * * * * * * * * * * * //

dimensions      [0 2 -2 0 0 0 0];

internalField   nonuniform List<scalar> 
13875
(
812.108
3462.75
3540.1
3539.5
3541.92
3541.53
3541.65
3540.85
3541.45
3541.96
3541.04
3540.45
3540.59
3540.08
3540.44
3541.21
3541.91
3541.15
3540.75
3540.24
3541.15
3539.02
3539.96
3461.81
820.478
881.797
2936.74
3012.88
3001.33
3001.49
2998.67
2997.32
2996.13
2996.32
2996.54
2997.39
2998.15
2996.62
2996.38
2996.19
2998.51
2996.23
2997.1
2996.98
2998.61
3000.44
2999.29
3011.58
2935
894.371
993.391
2710.98
2777.47
2756.32
2758.88
2754.52
2746.26
2742.65
2742.45
2741.57
2741.05
2744.04
2751.63
2752.26
2750.9
2744.66
2741.21
2742.72
2745.32
2755.11
2757.67
2753.16
2774.5
2707.38
998.149
1091.14
2533.74
2581
2562.28
2566.6
2561.99
2552.58
2549.2
2549.13
2547.62
2545.99
2547.83
2559.49
2560.1
2558.87
2548.68
2547.33
2547.57
2551.17
2562.93
2565.49
2559.39
2579.16
2529.84
1093.71
1172.24
2380.5
2413.2
2393.46
2397.82
2392.97
2383.45
2380.94
2380.91
2379.37
2377.77
2379.02
2390.51
2391.45
2389.92
2379.76
2379.19
2379.05
2382.36
2393.92
2396.78
2391.16
2410.5
2375.51
1177.21
1241.16
2237.23
2271
2245.39
2251.01
2244.5
2234
2232.04
2232.04
2230.31
2228.85
2229.62
2241.1
2242.34
2240.54
2230.22
2230.49
2229.93
2233.1
2245.68
2249.95
2243.72
2267.92
2247.1
1247.18
1321.18
2122.01
2158.48
2120.76
2122.88
2114.26
2102.02
2099.94
2099.94
2097.96
2096.46
2096.94
2108.47
2109.78
2107.6
2097.26
2098.55
2097.69
2101.56
2115.49
2121.69
2119.75
2154.09
2095.48
1323.41
1410.01
2000.93
2073.8
2020.07
2016.02
2001.05
1986.18
1982.75
1982.46
1980.14
1978.83
1978.97
1990.5
1992.06
1989.53
1978.86
1981.44
1980.55
1985.45
2002.15
2013.93
2017.93
2068.31
1992.72
1420.39
1691.78
2029.79
2022.4
1944.82
1924.65
1903.05
1884.69
1879.55
1878.96
1876
1874.97
1874.99
1886.46
1888.3
1885.57
1874.75
1878.15
1877.22
1883.34
1903.79
1922.36
1942.16
2017.82
2033.53
1716.69
2509.52
2285.92
2018.78
1901.55
1858.1
1824.89
1803.67
1797.25
1795.44
1792.09
1791.48
1791.51
1802.43
1804.51
1801.84
1792.2
1795.1
1795.19
1801.39
1824.64
1855.5
1891.42
2011.21
2265.98
2529.51
3878.24
3029.17
2154.48
1915.68
1813.57
1771.98
1746.99
1736.34
1732.31
1728.52
1728.32
1728.22
1738.25
1740.64
1738.7
1731.51
1733.58
1735.4
1745.06
1768.44
1813.18
1906.98
2129.3
2936.23
3858.28
5188.25
6466.42
2857.02
1994.29
1852.7
1756.51
1714.26
1697.97
1690.3
1686.03
1685.71
1685.46
1693.96
1696.79
1696.02
1691.61
1693.6
1698.56
1712.41
1757.69
1846.46
1972.28
2787.32
6314.48
5119.42
5059.81
7637.83
7062.85
3336.92
2042.72
1799.73
1742.59
1701.55
1685.09
1677.38
1675.07
1673.99
1680.39
1683.65
1684.81
1684.6
1691.2
1707.36
1747.05
1805.03
2088.28
3227.6
6758.02
7647.47
5008.93
4830.05
6373.07
7194.28
8729
5169.73
2318.57
1896.41
1784.91
1749.05
1744.92
1743.42
1742.53
1747.92
1751.22
1753.76
1756.11
1760.58
1793.94
1939.8
2476.91
5625.22
8147.57
6959.22
6329.72
4831.22
4607.44
5526.64
6053.41
6988.9
6879.22
6665.53
3370.37
2385.2
2138.65
2043.48
2004.06
1991.06
1991.78
1996.26
2007.62
2039.08
2127.7
2390.07
3584.23
6875.86
6842.55
6704.79
5969.29
5489.36
4680.29
4296.9
4810.42
5122.29
5889.55
6098.39
6576.83
5569.48
5151.13
4900.94
4251.91
4319.06
4374.13
4419.96
4406.67
4342.11
4241.25
4805.48
5438.68
5663.53
6659.93
6012.34
5709.55
5077.22
4782.39
4365.82
3734.68
4053.71
4352.09
5088.68
5638.19
6551.02
7423.65
7740.41
6791.95
6258.46
6548.51
6785.42
6924.83
6871.69
6629.05
6569.88
6790.49
7708.5
7499.31
6570.68
5493.34
4914.78
4240
3970.12
3724.34
3068.17
3411.52
3963.74
4883.78
5562.52
6152.41
7220.03
7964.73
6496.08
5408.94
5227.66
5267.77
5345.36
5309.81
5288
5718.22
6478.24
7617.26
7235.8
6278.34
5572.03
4832.08
3887.29
3353.1
3031.88
2633.13
3163.51
3877.65
5181.83
6045.23
5756.02
6128.32
6888.75
6121.78
5116.15
4685.52
4575.87
4572.98
4627.3
4779.68
5244.88
5932.83
6594.87
6174.41
5892.76
6283.05
5255.19
3890.33
3156.35
2637.48
2509.47
3366.07
4115.6
5369.15
5812.12
5273.02
5265.31
5810.43
5600.55
4919.46
4397.54
4100.24
4003.31
4174.41
4525.5
4983.81
5383.19
5577.39
5301.25
5411.03
5962.85
5332.69
4161.72
3407.13
2511.25
4904.23
7007.31
5789.85
4871.79
5025.01
4639.49
4591.61
5048.05
5082.62
4600.5
4056.81
3658.95
3522.77
3768.11
4214.71
4646.32
4876.34
4862.75
4624.82
4756.43
5144.56
4902.89
6106.22
7289.51
5432.43
11300.1
21250
7042.29
4238.93
4332.48
4090.42
4069.36
4463.79
4592.23
4228.8
3697.3
3259.58
3107.82
3376.31
3851.31
4253.15
4398.52
4323.55
4093.08
4176.15
4405.37
4295.95
7592.76
21443.4
12072.2
12414
15549.8
6180.85
3769.53
3794.67
3646.4
3630.44
3986.22
4140.45
3839.36
3338.19
2906.83
2749.32
3007.92
3472.33
3849.76
3956.77
3874.13
3646.61
3699.41
3832.6
3813.96
6390.13
15668
12460.8
11755.2
15175.3
5239.53
3419.16
3361.13
3258.86
3252.74
3568.71
3728.81
3459.52
2988.61
2586.16
2445.9
2687.5
3125.02
3479.32
3563.18
3471
3275.1
3307.85
3398.43
3479.75
5462.2
16033.9
11846.7
11336.8
14751.1
4671.65
3155.93
3027.68
2935.01
2944.45
3215.43
3360.04
3117.36
2686.9
2317.29
2190.91
2411.17
2818.46
3144.01
3215.88
3125.93
2961.24
2982.74
3070.82
3221.19
4938.31
16044.8
11484.9
11029.4
14929.3
4289.56
2916.6
2759.81
2663.42
2690.73
2914.77
3034.58
2814.47
2426.09
2089.63
1974.63
2172.08
2541.38
2837.58
2906.16
2827.43
2692.88
2698.57
2799.66
2970.12
4491.71
15891.4
11286.6
10930.5
14147.4
3900.75
2699.95
2538.22
2435.15
2473.96
2653.5
2738.02
2534.92
2191.19
1893.58
1791.66
1972.19
2307.13
2572.75
2641
2576.99
2466.82
2468.54
2586.25
2760.91
4114.35
15285.3
11143.4
10806.8
13758
3649.24
2522.58
2361.15
2251.57
2289.63
2431.08
2486.37
2298.65
1993.74
1727.77
1634.9
1797.19
2096.19
2335.03
2405.9
2359.81
2274.38
2276.5
2402.03
2575.09
3841.82
14988.8
11009.1
10588.6
13616
3475.82
2371.4
2212.17
2104.08
2130.7
2237.06
2266.19
2093.38
1824.2
1586.05
1500.31
1644.89
1909.37
2121.95
2197.16
2169.99
2107.52
2116.33
2241.31
2410.49
3600.39
14130.8
10893.4
10380
12910.8
3322.09
2243.18
2073.24
1978.9
1995.4
2064.76
2066.64
1905
1668.75
1460.17
1383.76
1516.89
1754.95
1944.94
2019.88
2007.73
1967.39
1984
2100.42
2277.34
3451.65
13646.3
10695.9
10075
11986
3192.23
2140.43
1956.86
1868.04
1876.8
1916.18
1897.75
1748.09
1539.41
1353.16
1282.92
1402.46
1613.94
1783.16
1860.75
1865.07
1846.54
1866.18
1972.48
2164.86
3281.73
12595.9
10495
9803.08
11430
3099.5
2065.5
1850.28
1765.97
1771.04
1787.61
1753.89
1613.98
1427.26
1259.76
1194.93
1302.17
1491.67
1645.15
1723.3
1740.61
1738.82
1758.35
1857.96
2079
3142.01
11679.2
10195.3
9578.54
10496.2
2992.68
2008.85
1759.05
1675.62
1672.04
1670.5
1621.47
1490.89
1325.52
1176.52
1118.25
1217
1388.56
1526.22
1604.31
1632.34
1640.83
1664.41
1761.91
2015.41
3062.97
11180.2
9903.87
9346.3
9777.4
2884.02
1968.25
1687.4
1595.69
1579.37
1568.02
1509.88
1387.86
1238.74
1104.03
1050.36
1139.47
1294.66
1420.51
1497.39
1535.02
1549.83
1580.62
1682.85
1967.63
2989.28
10446.9
9634.53
9129.24
9285.11
2766.6
1939
1640.51
1522.38
1496.54
1475.51
1411.3
1296.79
1162.53
1040.06
990.798
1071.69
1212.12
1326.87
1403.14
1446.2
1466.84
1506.63
1628.31
1939.19
2879.48
9721.99
9401.98
8903.23
8731.2
2650.55
1914.47
1608.74
1459.13
1419.74
1388.51
1322.58
1215
1092.38
982.016
937.357
1012.27
1141.79
1247.47
1321.1
1365.26
1393.5
1442.25
1592.18
1920.4
2769.09
9230.78
9176.58
8690
8365.34
2549.53
1923.2
1592.87
1408.1
1353.23
1311.88
1243.51
1143.95
1032.24
931.222
889.949
958.118
1076.48
1173.97
1244.7
1291.5
1327.89
1387.55
1570.35
1921.81
2642.84
8650.18
8963.67
8477.56
8164.08
2454.43
1913.82
1590.79
1372.9
1292.83
1242.77
1173.77
1081.43
978.515
885.49
847.157
909.538
1018.86
1109.19
1176.14
1225.42
1268.27
1349.15
1564.66
1921.37
2520.42
8291.57
8764.09
8250.98
7796.83
2339.64
1864.68
1603
1350.82
1242.26
1180.64
1109.12
1022.89
928.796
843.87
808.876
867.19
968.365
1051.65
1115.2
1167.21
1217.78
1322.88
1575.63
1890.57
2403.92
8148.68
8531.51
8050.06
7567.73
2231.43
1811.88
1636.98
1341.36
1202.93
1127.19
1053.9
972.504
884.881
806.289
773.904
827.442
921.356
998.996
1060.01
1116
1178.24
1309.77
1591.61
1832.19
2293.88
7924.67
8265.45
7889.37
7407.17
2151
1752.56
1666.11
1348.75
1174.95
1083.53
1005.15
926.994
845.223
772.227
742.29
791.765
878.51
951.48
1011.32
1073.46
1151.51
1308.54
1648.16
1777.56
2199.07
7724.21
8033.71
7734.41
7221.24
2065.27
1677.45
1642.98
1365.67
1155.09
1050.96
963.467
885.302
808.134
740.599
713.097
759.503
841.232
910.281
970.771
1041.43
1131.85
1326.03
1668.8
1721.1
2191.69
7530.61
7862.75
7587.87
7077.66
1997.87
1604.36
1596.06
1419.42
1147.82
1026.72
930.623
849.886
775.622
712.234
686.465
729.378
805.812
872.598
936.579
1017.85
1121.67
1360.17
1629.71
1644.51
2104.44
7335.39
7711.13
7466.37
6928.59
2030.2
1541.46
1535.3
1455.4
1161.94
1008.9
907.165
820.659
746.706
686.181
661.794
701.827
774.372
840.583
910.601
1001.25
1132.65
1436.76
1570.77
1571.72
2060.29
7182.03
7577.28
7340.41
6795.39
1969.93
1478.87
1465.51
1437.95
1198.61
1000.05
887.083
797.209
721.581
662.672
639.519
677.707
747.979
815.792
890.709
993.352
1183.08
1466.18
1502.38
1517.03
2097.27
7022.72
7464.43
7215.1
6642.95
2000.28
1432.75
1396.01
1389.46
1277.28
1014.81
874.467
781.128
703.113
643.189
620.022
656.879
727.297
797.328
875.803
1003.78
1267.68
1419.54
1433.18
1463.34
2077.58
6847.74
7349.99
7089.99
6504.27
2049.02
1401.77
1337.57
1335.78
1304.28
1074.67
871.35
766.747
689.422
628.874
603.494
641.429
711.798
782.064
867.994
1062.32
1307.26
1363.62
1371.46
1423.01
2074.66
6671.39
7220.87
6895.74
6332.78
2037.16
1369.87
1287.49
1281.13
1263.12
1162.95
896.862
756.033
677.432
617.881
591.277
630.047
699.279
770.88
890.22
1158.91
1268.28
1303.34
1319.05
1399.95
2114.55
6464.63
7019.32
6640.73
6108.86
2041.02
1349.05
1245.43
1227.67
1218.95
1197.33
975.181
759.319
668.426
608.834
582.645
620.415
688.386
768.328
951.932
1208.6
1224.49
1244.16
1271.79
1375.12
2095.84
6222.84
6759.71
6056.25
5702.67
2025.36
1329.72
1209.03
1181.07
1170.69
1160.41
1060.43
799.132
666.677
601.129
575.047
612.034
683.683
795.551
1053.39
1176.35
1176.78
1192.67
1229.85
1349.87
2055.18
5799.51
6169.64
1176.9
2611.62
3616.19
3595.65
3079.21
2633.38
2330.61
2183.71
2203.92
2273.47
2284.11
2158.8
1702.15
1305.7
1034.8
880.815
806.985
783.423
785.493
800.829
824.024
855.165
905.913
1018.15
1335.35
1732.8
1781.25
1676.79
1434.47
838.05
1375.24
2905.74
3722.43
3506.52
2928.37
2469.37
2174.92
2046.49
2070.41
2130.16
2150.87
2063.59
1675.37
1301.57
1029.27
869.663
793.205
766.945
766.776
780.767
803.553
840.508
913.795
1134.4
1639.75
1757.75
1727.74
1618.22
1406.52
848.347
1545.95
3229.38
3846.08
3400.62
2780.29
2330.99
2054.46
1947.45
1981.01
2040.33
2054.34
1943.05
1583.58
1234.65
986.839
841.831
771.994
747.25
746.831
760.555
786.315
833.573
958.041
1331.34
1668
1648.85
1621.8
1523.08
1343.51
843.045
1762.74
3528.1
3900.13
3271.88
2619.21
2178.73
1938.41
1856.03
1909.82
1965.11
1968.09
1847.61
1527.43
1191.72
956.624
819.225
752.636
728.55
728.422
743.435
774.975
846.588
1079.96
1531.03
1605.35
1563.12
1541.5
1438.96
1279.17
835.286
1981.06
3762.3
3886.45
3132.1
2462.35
2052.22
1847.24
1786.72
1854.55
1904.94
1889.06
1759.43
1454.79
1131.22
914.979
792.178
732.591
711.027
712.437
731.224
775.275
908.282
1298.45
1536.29
1522.66
1486.42
1462.63
1359.56
1216.92
824.267
2211.74
3969.48
3839.23
2989.6
2311.09
1941.21
1778.58
1739.82
1810.57
1860.1
1826.59
1678.21
1374.14
1070.57
876.172
766.684
714.726
696.744
701.245
728.121
804.079
1057.82
1432.87
1475.91
1445.71
1411.61
1377.22
1287.32
1159.51
814.889
2412.93
4165.41
3787.53
2849.4
2177.58
1858.07
1728.73
1705.63
1774.48
1828.98
1782.93
1603.05
1288.45
1006.53
835.893
743.331
700.094
687.348
698.372
742.997
898.666
1283.92
1425.67
1405.12
1375.11
1339
1299.54
1226.09
1109.61
804.354
2615.08
4342.38
3724.54
2711.66
2076.55
1800.88
1687.75
1663.61
1735.22
1798.16
1735.45
1516.28
1190.32
941.578
799.7
725.466
691.455
685.737
710.492
804.032
1099.77
1339.29
1369.24
1338.53
1311.93
1272.19
1236.05
1174.53
1064.86
793.688
2803.32
4476.75
3650.11
2598.5
2017.79
1764.75
1637.36
1611.49
1687.3
1740.47
1650.03
1408.05
1084.32
884.455
773.178
715.331
692.411
699.551
760.098
964.874
1249.77
1313.66
1307.31
1279.27
1253.52
1213.97
1181.91
1126.87
1018.74
779.141
2992.69
4575.39
3579.41
2547.62
1993.54
1725.12
1578.26
1551.58
1616.29
1627.54
1512.34
1267.72
991.743
843.418
760.886
720.17
712.456
752.555
902.082
1170.51
1261.37
1267.62
1250.17
1226.18
1202.93
1163.72
1134.76
1079.28
969.112
761.999
3174.53
4657.7
3554.72
2534.11
1986.27
1700
1538.19
1488.98
1517.33
1483.26
1351.54
1140.44
940.775
830.418
775.348
755.196
782.556
903.626
1123.4
1213.91
1228.85
1220.43
1201.26
1180.08
1157.93
1118.22
1089.1
1030.54
920.107
744.842
3339.52
4758.66
3573.24
2560.28
2010.75
1704.57
1524.03
1444.2
1421.07
1357.23
1226.99
1078.5
944.692
869.492
846.324
864.645
962.82
1119.33
1184.5
1200.95
1193.6
1178.51
1159.4
1138.92
1115.15
1074.89
1043.32
983.672
877.24
729.349
3490.03
4891.26
3639.8
2627.19
2078.36
1753.16
1548.77
1437.62
1384.68
1310.92
1209.07
1130
1056.33
1031.13
1047
1095.66
1157.49
1193
1192.73
1182.21
1164.63
1142.96
1122.79
1100.78
1073.25
1034.16
1001.83
942.074
840.474
715.439
3635.52
5064.67
3759.82
2746.51
2200.57
1878.55
1674.07
1561.2
1507.23
1453.86
1419.94
1420.83
1407.64
1377.76
1323.3
1284.95
1262.91
1234.03
1198.5
1168.03
1141.93
1113.97
1091.36
1064.42
1033.89
998.234
966.383
905.257
808.824
702.798
3786.22
5282.85
3945.44
2929.08
2402.34
2109.97
1971.79
1922.92
1912.49
1933.67
1966.53
1942.9
1862.73
1745.36
1605.63
1479.96
1374.68
1284.6
1211.25
1159.61
1125.69
1091.48
1064.01
1032.13
1000.39
967.774
936.282
873.169
780.35
690.747
3949.83
5561.11
4214.44
3201.86
2711.55
2524.69
2528.29
2544.53
2579.72
2636.64
2662.21
2618.2
2483.69
2277.16
2009.32
1750.59
1525.94
1352.03
1233.08
1164.98
1115.49
1074.93
1039.02
1003.45
969.159
942.903
910.236
844.285
753.225
678.605
4138.13
5930.82
4583.26
3594.51
3216.39
3210.53
3297.72
3382.93
3509.03
3641.26
3676.66
3611.49
3397.73
3044.82
2577.95
2115.91
1725.5
1444.86
1276.66
1178.22
1112.55
1061.9
1017.51
978.93
948.649
923.157
886.09
818.525
727.171
665.936
4362.63
6400.07
5087.4
4181.89
3987.7
4073.21
4285.19
4500.87
4771.09
4982.68
5053.65
4945.42
4592.39
4020.66
3294.22
2571.92
1974.03
1573.72
1335.05
1199.64
1113.14
1049.42
998.606
958.484
933.493
906.974
863.58
793.943
703.197
653.239
4606.37
6992.39
5771.87
5024.3
4909.51
5088.65
5451.9
5857.81
6294.44
6600.85
6688.77
6480.21
5930.66
5098.4
4096.84
3092.09
2275.82
1731.82
1408.36
1225.03
1113.4
1037.94
982.61
940.386
922.173
892.009
842.072
770.635
680.934
640.014
4907.48
7734.66
6643.42
6017.45
5925.22
6199.88
6713.33
7329.31
7911.5
8265.93
8302.29
7944.17
7198.83
6137.21
4892.64
3646.23
2623.28
1914.74
1490.04
1252.86
1115.13
1027.39
968.525
931.018
912.2
875.482
820.648
747.871
659.575
626.323
5385.7
8487.74
7665.32
7055.81
7002.65
7358.11
7989.46
8759.13
9405.59
9708.3
9628
9134.51
8257.28
7034.67
5618.13
4202.03
2992.39
2116.89
1578.44
1284.39
1118.54
1018.33
955.103
924.274
901.468
856.959
798.846
725.427
638.922
613.369
5834.52
9541.52
8753.27
8169.19
8140.06
8537.81
9222.28
10050.2
10651.1
10867.2
10687.2
10081.1
9074.35
7714.2
6201.12
4694.54
3357.79
2335.25
1682.87
1321.44
1123.54
1011.61
948.066
917.827
887.242
837.718
777.282
703.239
619.07
601.461
6317.22
10382.6
9732.56
9350.04
9383.64
9798.11
10494.3
11282
11786.5
11933.4
11614.5
10846.8
9675.48
8207.9
6657.68
5137.3
3733.45
2584.22
1808.69
1363.88
1132.73
1008.45
944.573
910.137
870.986
817.788
756.105
681.736
600.521
589.706
6736.11
11499.9
10851.5
10775.5
10861.2
11266
11937.9
12655.2
13036.7
13065.9
12558.1
11591.6
10244.3
8676.03
7103.19
5584.58
4135.76
2871.14
1958.08
1422.68
1148.89
1009.57
943.161
900.051
853.682
797.119
734.515
661.01
583.436
578.5
6857.26
12427.2
12632.8
12948
12851.7
13123.4
13713.2
14332.7
14619.7
14453.3
13709.5
12513.1
10961.1
9253.82
7609.05
6049.95
4558.37
3196.59
2140.69
1500.73
1176.14
1015.79
941.118
887.301
836.079
776.615
713.62
641.667
567.57
568.365
839.987
1451.38
1699.88
1803.47
1730.99
1300.23
1004.02
902.037
854.242
823.992
801.372
786.728
786.032
813.132
893.363
1059.74
1347.88
1762.6
2215.59
2324.51
2306.63
2232.69
2212.97
2369.97
2686.93
3155.73
3701.07
3718.85
2691.46
1209.35
848.237
1422.21
1637.27
1743.87
1776.78
1608.21
1107.3
906.675
838.715
803.413
781.434
768.353
770.146
800.264
882.973
1054.62
1344.22
1728.06
2111.6
2188.49
2163.38
2098.16
2073.62
2209.84
2518.94
3000.36
3607.25
3832.2
2991.63
1413.68
842.517
1356.81
1537.53
1634.62
1664.42
1671.05
1292.73
944.473
830.126
785.486
761.08
748.554
750.785
779.291
855.112
1011.31
1274.82
1634.28
1991.56
2090.56
2072.14
2007.3
1972.54
2086.89
2377.35
2847.82
3493.68
3958.35
3322.69
1588.45
834.285
1288.66
1450.1
1550.23
1571.93
1615.04
1515.9
1057.33
840.175
773.33
743.666
729.975
732.218
760.084
832.557
980.909
1229.88
1577.4
1895.5
2003.26
1996.14
1936.11
1881.92
1968.51
2220.32
2679.81
3358.17
4008.86
3627.39
1807.24
822.985
1222.1
1368.32
1466.97
1490.94
1528.95
1534.35
1269.13
895.692
771.816
730.448
713.63
714.51
739.777
805.1
938.342
1166.78
1504.2
1807.02
1924.13
1936.89
1881.61
1813.57
1877.01
2090.18
2517.77
3217.04
3992.14
3860.12
2027.83
813.563
1162.7
1294.76
1384.09
1414.76
1448.3
1476.73
1421.89
1036.89
796.818
726.157
701.825
699.854
721.602
778.7
897.561
1103
1422.81
1727.45
1861.52
1893.74
1840.63
1765.93
1805.46
1975.64
2364.06
3077.09
3951.56
4069.83
2259.42
802.791
1111.16
1232.46
1307.31
1342
1375.67
1405.14
1421.82
1265.61
884.946
739.023
698.005
689.635
706.239
754.197
854.681
1037.17
1334.79
1656.47
1816.59
1865.93
1807.42
1732.77
1754.91
1892.27
2227.46
2932.7
3903.84
4272.9
2463.61
792.055
1065.47
1178.88
1242.73
1276.18
1311.62
1337.62
1368.66
1339.12
1080.33
795.595
708.601
687.065
696.369
734.512
816.004
970.831
1233.57
1572.67
1770.18
1838.61
1768.54
1690.14
1714.76
1836.28
2124.73
2792.81
3844.15
4456.44
2668.55
777.807
1019.26
1129.93
1188.85
1218.27
1254.35
1278.22
1308.18
1314.78
1247.03
950.158
755.593
699.946
696.255
723.115
786.018
909.959
1126.3
1459.08
1688.86
1780.13
1718.23
1635.67
1665.31
1799.61
2064.85
2674.86
3774.2
4602.72
2859.33
760.868
969.723
1082.24
1141.73
1168.7
1203.69
1224.71
1251.01
1265.01
1263.19
1168.11
894.719
752.381
716.319
727.629
771.48
862.493
1029.75
1309.73
1552.91
1661.5
1633.87
1568.8
1605.98
1760.42
2041.4
2620.99
3703.69
4716.77
3050.76
743.41
920.364
1033.83
1096.24
1123.98
1159.25
1178
1200.67
1217.19
1231.76
1215.8
1123.4
905.214
789.428
765.877
787.347
846.254
969.08
1177.6
1388.34
1509.77
1523.17
1500.02
1561.3
1735.01
2035.59
2607.14
3675.74
4813.5
3236.8
727.493
877.316
986.626
1050.6
1081.24
1117.75
1136.94
1157.92
1176.65
1197.24
1204.4
1189.08
1125.02
978.303
886.389
868.434
892.287
971.108
1111.08
1260.87
1385.13
1436.5
1458.31
1548
1741.81
2061.89
2633.37
3692.99
4921.71
3412.03
714.212
840.972
944.539
1008.28
1040.51
1077.4
1099.76
1122.64
1143.1
1167.76
1187.38
1200.13
1201.65
1172.75
1132.34
1095.81
1080.41
1105.09
1173.41
1249.75
1348.59
1416.22
1468.5
1583.77
1797.36
2133.9
2702.69
3761.12
5061.49
3571.7
703.172
810.251
908.058
971.397
1002.25
1038.64
1064.92
1092.05
1114.96
1140.94
1176.24
1209.72
1248.59
1286.22
1325.89
1377.59
1443.68
1493.35
1511.11
1495.88
1516.56
1560.88
1611.41
1723.86
1933.02
2265.12
2827.22
3883.99
5240.56
3727.41
692.719
783.099
876.655
940.718
972.566
1003.96
1033.82
1064.98
1092.28
1126.3
1166.64
1228.7
1308.5
1414.62
1544.18
1690.33
1843.07
1969.83
2051.46
2083.94
2045.41
2012.78
2018.04
2058.75
2186.3
2479.9
3020.45
4075.22
5466.73
3888.66
681.774
757.452
848.614
914.787
950.43
975.634
1007.06
1041.4
1076.57
1118.15
1173.04
1251.57
1388.64
1589.6
1852.9
2145.07
2430.51
2647.64
2778.92
2824.49
2791.09
2718.52
2677.9
2663.28
2646.06
2816.39
3309.88
4356.29
5754.69
4061.32
670.421
732.83
823.697
891.452
931.831
957.74
984.111
1021.8
1066.23
1117.42
1189.56
1301.68
1494.34
1818.81
2267.6
2781.75
3276.78
3645.37
3854.76
3912.23
3859.61
3713.88
3566.55
3467.06
3382.1
3375.48
3734.84
4746.35
6137.85
4256.76
658.314
709.372
799.886
869.673
915.81
943.548
963.052
1005.36
1057.34
1121.8
1215.77
1368.71
1638.43
2098.9
2777.37
3573.73
4344.69
4939.39
5290.43
5384.74
5294.6
5054.64
4753.22
4508.64
4279.92
4204.16
4381.04
5282.17
6630.72
4491.51
645.086
687.251
776.91
848.509
900.501
932.42
951.762
991.435
1048.65
1126.8
1247.8
1451.89
1810
2430.14
3344.25
4441.27
5503.27
6366.95
6920.82
7114.83
7006.1
6665.53
6187.15
5741.23
5345.97
5156.5
5300.32
6021.14
7257.64
4750.52
631.392
665.454
754.16
827.26
883.652
922.694
943.658
979.351
1041.32
1133.14
1281.56
1543.85
2018.39
2806.9
3936.85
5279.22
6590.09
7688.3
8444.99
8795.27
8741.33
8355.47
7730.42
7067.64
6514.52
6216.21
6312.27
6965.6
8049.24
5067.84
618.411
644.734
731.872
805.781
865.097
911.107
937.403
970.155
1034.81
1141.03
1319.39
1644.61
2242.99
3206.01
4514.82
6020.11
7501.75
8768.32
9665.8
10149.6
10209.9
9888.9
9209.55
8397.47
7723.86
7341.92
7399.39
8064.28
8863.48
5577.19
606.273
624.649
710.077
784.544
845.496
895.978
930.925
963.416
1030.12
1150.21
1362.44
1760.06
2479.9
3591.19
5007.94
6583.11
8155.3
9567.01
10613.6
11226.6
11392.6
11147.5
10514.4
9662.58
8941.24
8519.18
8549.4
9179.66
9989.66
6056.05
593.832
605.658
688.704
763.326
825.253
879.212
921.294
958.434
1028.07
1161.61
1408.92
1895.37
2739.33
3966.85
5427.84
6998.69
8604.56
10125.1
11359.8
12151
12471.8
12301.3
11764.5
10959.6
10234.9
9793.53
9759.47
10198.4
10898.5
6568.94
581.772
587.906
668.049
742.264
804.784
861.709
908.664
955.007
1028.58
1179.35
1473.7
2051.81
3025.53
4352.31
5842.25
7403.5
9034.28
10666.7
12082.7
13097.2
13620.4
13578.9
13168.3
12433.6
11731.7
11297.7
11207.1
11335.5
12078.7
7021.08
570.694
571.742
648.838
722.236
785.131
843.85
895.436
951.571
1033.16
1206.65
1553.85
2235.43
3339.37
4749.96
6274.82
7874.45
9583.68
11371.6
13003.6
14272.4
15044.9
15191.8
14869.8
14238.6
13613.6
13308.3
13402.8
13174.5
12918
7145.86
3146.79
2703.65
2305.36
1989.52
1739.73
1541.84
1386.05
1267.22
1179.02
1117.56
1077.5
1055.31
1049.97
1062.41
1093.61
1145.39
1219.6
1314.95
1437.1
1583.04
1752.04
1954.26
2201.72
2491.28
2799.1
3125.56
3453.36
3760.79
4060.83
4344.78
4609.63
4851.19
5063.65
5242.19
5382.05
5476.46
5518.26
5502.99
5428.61
5290.21
5104.9
4882.3
4618.46
4318.34
3993.91
3659.37
3331.8
3013.22
2708.84
2424.03
2164.25
1933.56
1732.73
1559.18
1408.46
1278.58
1165.71
1067.42
982.303
908.243
844.22
787.411
738.23
696.262
660
628.139
599.956
575.429
554.33
536.546
521.861
509.612
499.052
489.732
481.705
474.992
469.444
464.836
460.923
457.553
454.52
451.663
448.868
446.086
443.344
440.765
438.522
436.796
435.656
435.154
435.191
435.551
436.127
436.866
437.806
439.011
440.589
442.488
444.727
447.057
449.604
452.105
454.604
457.323
460.422
463.442
466.305
469.307
472.761
476.921
481.987
487.38
491.791
493.135
495.678
500.859
510.527
521.95
524.295
524.916
528.099
534.009
542.263
551.522
560.686
14581.7
12997.2
11209.9
9638.32
8335.15
7254.18
6366.34
5647.95
5060.97
4598.4
4241.57
3977.16
3798.62
3717.39
3728.88
3842.78
4069.25
4404.79
4865.06
5445.2
6162.51
7029.67
7970
8989.32
10060.5
11175
12313.8
13454.7
14588.3
15704.8
16791.7
17839.6
18829
19732.1
20520.2
21163.2
21633.1
21907.9
21972.3
21810
21429.6
20853
20118.5
19200.5
18122.5
16935.7
15688.8
14391.7
13074.1
11761.3
10478.8
9252.36
8105.19
7053.84
6108.48
5274.73
4548.58
3918.4
3375.44
2911.1
2517.91
2187.83
1914.8
1693.53
1515.21
1369.3
1248.28
1147.67
1063.85
993.244
934.017
884.17
841.614
804.351
770.955
740.745
713.234
687.827
663.95
641.306
619.794
599.507
580.513
562.867
546.638
531.829
518.394
506.268
495.466
485.787
477.175
469.668
463.007
457.03
451.699
447.017
443.027
439.653
436.882
434.53
432.59
431.032
429.959
429.403
429.218
428.99
428.974
429.784
432.283
437.984
446.084
452.15
455.439
457.414
460.734
467.021
478.597
494.146
500.497
503.345
508.098
516.441
528.605
542.476
556.707
31407.8
28922.3
25611.8
22493.3
19710
17296.5
15228.2
13484.4
12027.8
10834.6
9884.61
9143.89
8601.09
8255.64
8100.72
8166.29
8454.93
8962.56
9704.15
10682.9
11880.7
13322.8
14989.9
16842.7
18861.7
21018.6
23275.7
25588.1
27916.2
30222.9
32468.5
34603.1
36587.1
38387
39960.2
41254.5
42237.7
42886.9
43174.6
43095
42686.9
41916.3
40793.2
39367.6
37693.1
35823.4
33821.3
31696.7
29473.9
27192.3
24893.1
22615.8
20397.2
18269.2
16257.5
14385.6
12663.5
11091.6
9662.75
8361.87
7181.37
6120.95
5186.4
4377.33
3690.66
3121.82
2663.8
2305.03
2029.24
1817.4
1650.15
1515.65
1405.2
1312.6
1232.45
1161.37
1098
1041.46
990.375
943.294
899.259
857.866
819.143
783.132
749.962
719.793
692.696
668.396
646.634
627.367
610.234
594.592
580.201
566.925
554.737
543.68
533.837
525.132
517.532
510.871
505.036
499.854
495.588
492.162
489.252
486.534
484.325
483.42
484.825
490.258
498.183
503.003
506.239
510.689
517.124
524.118
533.801
551.108
562.204
567.633
574.266
584.172
597.748
613.71
630.919
53231.7
49842.2
45037.9
40260.5
35786.1
31735
28129.6
24989.6
22304.9
20061.5
18226.6
16780.2
15736
15078.5
14805.7
14930.1
15456.5
16398.4
17771.9
19582.7
21796.8
24386.4
27345.2
30620.5
34157.9
37878.2
41692.8
45515.2
49272.7
52901.8
56346.5
59558.1
62481.2
65054.2
67227.7
68993.5
70330
71218
71645.3
71624.5
71162.9
70283.2
68979.1
67207.3
65072.7
62693.7
60158.5
57449.1
54588.9
51616.5
48573.1
45494.4
42411.3
39352.7
36351.1
33429.5
30576.1
27828.4
25187.6
22651.6
20226.2
17922.8
15752
13708.9
11781.5
9974.1
8320.44
6857.53
5631.58
4657.35
3920.45
3375.2
2969.07
2660.61
2418.72
2223.32
2058.96
1916.44
1791.47
1679.32
1575.33
1476.98
1383.9
1296.69
1215.96
1142.29
1075.98
1016.48
963.371
915.543
872.383
833.476
797.993
765.194
735.06
707.701
683.22
661.385
642.068
625.063
610.04
597.019
585.778
576.31
568.268
561.204
555.224
551.205
550.298
554.447
561.572
565.03
567.094
571.856
579.466
586.963
596.019
611.453
627.484
635.181
642.394
652.599
666.786
684.389
703.321
78203.1
74111.6
68108.5
61908.6
55896.1
50249.1
45087.1
40497.5
36496.5
33110.4
30356.5
28216.7
26750.9
25933.5
25779.5
26310.1
27535
29466.4
32097.1
35386.4
39258.2
43548.8
48216.6
53177.7
58308.6
63485.8
68607.4
73587.3
78349.4
82827.9
86968.5
90725.3
94059
96939.3
99347.4
101249
102617
103454
103820
103728
103168
102164
100746
98973.6
96903
94549.7
91901.4
89020.8
85957.2
82758.3
79484.1
76152.2
72773.1
69360.7
65941
62533.8
59138.2
55761.3
52394.4
49028.4
45670.7
42327.2
38993.8
35655.1
32298.1
28919.6
25534
22253.1
19153.3
16306
13773.4
11587.2
9738.13
8222.48
7021.99
6084.16
5352.24
4776.62
4312.83
3927.86
3601.01
3317.7
3065.52
2836.12
2624.84
2428.73
2248.05
2084.99
1937.63
1800.95
1671.59
1547.67
1430.29
1321.17
1220.89
1130.02
1048.96
977.231
914.346
859.842
812.642
772.523
738.347
709.807
685.434
664.85
647.142
633.805
625.496
623.915
627.597
628.521
628.47
631.74
638.577
645.746
653.94
666.546
683.212
694.725
703.904
715.505
730.248
747.778
766.455
104135
99636
92835.6
85603.5
78424.9
71540.4
65100.1
59280
54199.4
49932.9
46514.2
43996.8
42424.3
41821
42259.1
43733.2
46223.6
49682.7
54022.5
59104.7
64769.1
70807.4
76994.5
83280.3
89521.5
95606.4
101438
106938
112046
116722
120938
124673
127900
130613
132820
134534
135735
136442
136676
136425
135777
134763
133414
131772
129875
127753
125429
122926
120276
117508
114621
111643
108586
105446
102230
98993.6
95701.6
92326.9
88839.9
85227.6
81498.8
77661.5
73686.5
69550.8
65241.1
60768.9
56162.7
51482.9
46802.1
42200.4
37752.2
33517.4
29559.1
25934.7
22646.7
19696.4
17094.6
14852.9
12943.1
11340.4
10002.3
8883.34
7944.03
7152.27
6478.6
5898.13
5387.89
4931.12
4514.37
4128.72
3770.65
3436.08
3120.86
2824.36
2547.61
2290.99
2055.48
1842.61
1653.05
1486.35
1340.21
1214.13
1106.77
1016
940.186
877.193
824.925
783.444
753.121
734.386
725.681
717.416
709.503
705.504
707.504
712.046
718.255
728.064
741.571
755.417
766.242
777.953
792.441
809.319
826.924
128745
124119
116873
109114
101236
93538.6
86247.1
79669.2
73969.1
69273.1
65702.6
63342.8
62260.3
62508.3
64116.6
67029.9
71150.1
76320
82354.4
89024.7
96099.1
103355
110545
117466
124128
130447
136353
141795
146738
151166
155078
158476
161336
163674
165517
166899
167829
168320
168433
168174
167574
166690
165536
164156
162590
160866
159005
157024
154941
152770
150518
148184
145766
143251
140622
137877
134997
131953
128707
125226
121432
117455
113225
108719
103943
98928.3
93731.2
88362.8
82853.9
77258
71642.9
66027.2
60458.6
55021.7
49770.7
44753.7
40072.1
35721.5
31746
28138.2
24876.9
21950.4
19339.9
17032.3
15010
13252.8
11739.2
10441
9329.82
8369.44
7536.89
6809.22
6160.67
5574.21
5038.58
4546.42
4091.49
3668.77
3276.87
2916.5
2585.86
2285.55
2018.24
1782.19
1576.1
1400.24
1251.86
1129.56
1033.69
963.271
915.459
880.215
848.161
824.173
810.2
804.316
802.111
803.797
809.741
818.548
830.156
841.959
855.571
869.737
883.262
149592
145224
137853
129953
121821
113830
106259
99448.3
93645.6
89072.9
85956
84396.9
84470.2
86167.4
89404.5
94036.5
99846.2
106576
113959
121732
129649
137500
145097
152257
158846
164921
170466
175483
179959
183895
187290
190174
192560
194471
195936
197006
197717
198106
198204
198052
197638
196970
196105
195089
193963
192756
191485
190163
188792
187368
185877
184296
182602
180771
178780
176611
174232
171605
168690
165443
161838
157894
153609
148976
143987
138604
133055
127260
121226
114986
108659
102249
95787.9
89324.5
82906.2
76560
70255.2
64075.8
58123.5
52487.3
47155.6
42137.8
37481.9
33207.1
29329.8
25848.8
22752.1
20017.7
17622.9
15542.8
13740.4
12182.2
10838.2