/*--------------------------------*- C++ -*----------------------------------*\
| =========                 |                                                 |
| \\      /  F ield         | OpenFOAM: The Open Source CFD Toolbox           |
|  \\    /   O peration     | Version:  2112                                  |
|   \\  /    A nd           | Website:  www.openfoam.com                      |
|    \\/     M anipulation  |                                                 |
\*---------------------------------------------------------------------------*/
FoamFile
{
    version     2.0;
    format      ascii;
    arch        "LSB;label=32;scalar=64";
    class       surfaceScalarField;
    location    "0.00662";
    object      phi;
}
// * * * * * * * * * * * * * * * * * * * * * * * * * * * * * * * * * * * * * //

dimensions      [1 0 -1 0 0 0 0];

oriented        oriented;

internalField   nonuniform List<scalar> 
27436
(
-0.533482
8.19282
-0.0933524
7.47168
-0.0850636
7.78724
-0.070871
7.78665
-0.0645201
7.78791
-0.0482086
7.78137
-0.0394546
7.78781
-0.0342311
7.79143
-0.02448
7.7879
-0.0161041
7.78858
-0.00885192
7.78938
0.000419325
7.78816
0.0142001
7.7833
0.0310687
7.78083
0.0462711
7.78226
0.0548807
7.7883
0.05795
7.79264
0.065864
7.78964
0.0753944
7.78825
0.0895689
7.78255
0.0962494
7.7879
0.111751
7.78558
0.124097
7.78239
0.57444
7.46223
8.21856
-0.247195
8.44003
-0.0961605
7.32063
-0.0812411
7.77228
-0.0542834
7.75951
-0.0585964
7.79208
-0.0609689
7.78312
-0.0392743
7.76685
-0.0295633
7.78195
-0.0208274
7.77913
-0.00972429
7.77677
0.0021476
7.77818
0.0160104
7.77456
0.0151983
7.7841
0.0216258
7.77438
0.0210629
7.7828
0.0377275
7.77164
0.0466057
7.78375
0.0589505
7.77729
0.0823236
7.76489
0.0776561
7.78722
0.0721833
7.7934
0.102957
7.75477
0.114306
7.77115
0.267791
7.3091
8.481
-0.227234
8.66728
-0.141065
7.23447
-0.120355
7.75162
-0.106431
7.74586
-0.104641
7.78994
-0.10676
7.78565
-0.0921791
7.75127
-0.0723882
7.7615
-0.063775
7.769
-0.0501788
7.76288
-0.0387073
7.76814
-0.0143711
7.75008
-0.0126076
7.78229
-0.0114116
7.77319
-0.00825004
7.77961
0.0126958
7.75066
0.0239922
7.77243
0.0474543
7.754
0.0609273
7.75148
0.0594166
7.78877
0.0638297
7.789
0.0786531
7.73995
0.10067
7.74948
0.192567
7.21554
8.66993
-0.169505
8.83677
-0.139328
7.20429
-0.133887
7.74617
-0.112511
7.72465
-0.113948
7.79101
-0.110563
7.78198
-0.0895971
7.72918
-0.0731519
7.74502
-0.0594511
7.75544
-0.0442301
7.74802
-0.0288976
7.75321
-0.00679294
7.72865
0.0029269
7.77256
0.00480717
7.77131
0.0149144
7.76948
0.0352216
7.73036
0.0493388
7.75828
0.0698483
7.73364
0.0886166
7.7328
0.0942515
7.78317
0.0944531
7.78881
0.118925
7.71557
0.111383
7.7572
0.162053
7.16396
8.83496
-0.0735933
8.91037
-0.0364325
7.16713
-0.0923196
7.80208
-0.0624507
7.69487
-0.0704699
7.79878
-0.06876
7.77966
-0.0516311
7.71146
-0.0381956
7.73091
-0.0269966
7.74491
-0.0149026
7.73647
-0.00117064
7.7396
0.0171525
7.71078
0.0267185
7.76288
0.0276384
7.77038
0.0369499
7.76015
0.0542579
7.71303
0.0643412
7.74819
0.082179
7.71591
0.0970951
7.71796
0.101095
7.7792
0.0968965
7.793
0.124785
7.68772
0.0898807
7.79228
0.0967744
7.15734
8.93698
0.118537
8.79186
0.0437919
7.24191
-0.0499624
7.89585
-0.0126959
7.65779
-0.0321109
7.8179
-0.0353086
7.78242
-0.024269
7.69913
-0.0158369
7.72236
-0.00943749
7.73994
-0.00225161
7.73039
0.00611751
7.7315
0.0201147
7.69723
0.0254353
7.75744
0.0247757
7.771
0.0295557
7.75535
0.0420136
7.70057
0.0462183
7.74395
0.0584916
7.70375
0.0685863
7.70799
0.0691161
7.77871
0.0524463
7.80966
0.0884121
7.6518
-0.014021
7.8948
-0.0211014
7.16445
8.91878
0.304583
8.48733
0.136064
7.41047
-0.00674513
8.03868
0.0219774
7.62912
-0.0234402
7.86318
-0.0481808
7.80576
-0.0585815
7.7084
-0.0717804
7.73338
-0.0867213
7.75596
-0.0950521
7.73993
-0.111272
7.74825
-0.118787
7.70554
-0.130808
7.76941
-0.146593
7.78676
-0.158199
7.76697
-0.166673
7.70904
-0.185189
7.76244
-0.192946
7.71161
-0.207791
7.72295
-0.228653
7.79959
-0.262724
7.8437
-0.284764
7.67388
-0.354439
7.96438
-0.65849
7.46839
8.26141
0.873294
7.61413
0.521831
7.76201
0.41068
8.1499
0.331992
7.708
0.267113
7.92834
0.226877
7.84608
0.194086
7.73897
0.165798
7.76025
0.137783
7.78428
0.114437
7.76422
0.0841779
7.77927
0.0625562
7.72761
0.0381458
7.79395
0.00641965
7.81847
-0.0194436
7.79286
-0.0448393
7.73446
-0.074515
7.79208
-0.100659
7.73783
-0.130459
7.75289
-0.166988
7.83608
-0.22813
7.90479
-0.279175
7.72497
-0.405986
8.09105
-0.693673
7.75613
7.56612
0.592989
7.02124
0.410155
7.94489
0.23792
8.32255
0.187903
7.75842
0.128117
7.98815
0.0969949
7.87555
0.085824
7.74918
0.078072
7.76681
0.0742132
7.78737
0.0758239
7.76279
0.0735889
7.78257
0.0724955
7.72946
0.0776385
7.78926
0.0766583
7.81945
0.0767176
7.7928
0.0720429
7.73918
0.0673504
7.79677
0.0630086
7.74227
0.0564023
7.75958
0.0295252
7.86297
-0.0265866
7.9608
-0.04648
7.74481
-0.219095
8.26333
-0.37195
7.90864
7.19076
-3.05156
10.0725
-3.39289
8.28665
-2.76625
7.69636
-2.61928
7.61185
-2.30298
7.67214
-1.9316
7.50277
-1.65386
7.46919
-1.37626
7.48855
-1.08326
7.49393
-0.783977
7.46369
-0.493092
7.49289
-0.207823
7.4452
0.0986087
7.48366
0.403083
7.5147
0.693961
7.50176
0.966524
7.46683
1.26568
7.49768
1.54226
7.46567
1.83622
7.46555
2.19668
7.50234
2.50248
7.65484
2.65931
7.58789
3.23435
7.68793
2.95036
8.19227
10.14
-4.25935
14.3309
-4.36966
8.3977
-4.19499
7.52445
-3.89521
7.31267
-3.31806
7.09384
-2.79927
6.98158
-2.3615
7.0296
-1.924
7.05003
-1.46594
7.03562
-1.02035
7.01839
-0.561843
7.03567
-0.120604
7.00522
0.342556
7.02168
0.811448
7.04564
1.25727
7.05569
1.67837
7.04608
2.13289
7.0433
2.571
7.02761
3.02539
7.0111
3.57516
6.95242
4.1315
7.09831
4.44183
7.27766
4.61079
7.51871
4.56328
8.23908
14.7044
-2.75727
17.0862
-4.87191
10.5165
-4.9767
7.63482
-4.13638
6.47331
-3.62394
6.58332
-3.18821
6.54505
-2.70899
6.5487
-2.2146
6.55496
-1.7117
6.53297
-1.22316
6.53036
-0.723744
6.53732
-0.242846
6.52562
0.260066
6.52023
0.762349
6.54417
1.25817
6.56028
1.71926
6.58525
2.20803
6.55475
2.69836
6.53749
3.19192
6.51755
3.66714
6.47701
4.24728
6.51788
5.09817
6.42664
4.71825
7.8988
2.7768
10.1808
17.4819
2.36543
14.7186
0.191482
12.6957
-4.97874
12.8088
-3.88669
5.38147
-3.81933
6.5082
-3.32399
6.04591
-2.88447
6.10622
-2.37131
6.04273
-1.84772
6.01043
-1.32969
6.01305
-0.81255
6.02098
-0.306775
6.02092
0.214568
6.00044
0.744058
6.01602
1.26842
6.03675
1.79104
6.06297
2.28656
6.05954
2.76651
6.05795
3.19989
6.08438
3.76262
5.91411
3.98309
6.29685
5.08699
5.32246
-0.163961
13.1503
-2.39834
12.4165
15.0837
2.4552
12.2607
3.52754
11.6268
3.51568
12.8336
-0.775231
9.67018
-3.67737
9.41922
-3.22568
5.60429
-2.96238
5.84069
-2.47762
5.55897
-1.95293
5.48723
-1.46505
5.52599
-0.973785
5.5302
-0.473168
5.52104
0.0268681
5.50191
0.53424
5.50999
1.03354
5.5383
1.52689
5.57009
2.0392
5.54772
2.49742
5.60036
2.60294
5.97918
2.97021
5.54702
-0.113323
9.37988
-4.22333
9.43138
-3.90606
12.8332
-2.95569
11.467
12.1282
1.8775
10.3819
3.86783
9.63586
5.70252
11.0128
4.94545
10.4407
4.15669
10.2159
-1.12032
10.8808
-2.3727
7.08675
-2.12493
5.32326
-1.63678
5.00388
-1.15662
5.04742
-0.60717
4.98152
-0.0663414
4.98116
0.476568
4.96071
1.01857
4.96965
1.56896
4.98917
2.08592
5.05407
2.51038
5.12426
2.90795
5.20425
1.49268
7.39468
-3.67689
10.7174
-4.2386
9.94116
-4.78106
9.97544
-3.04242
11.0951
-1.34212
9.7688
10.787
1.05651
9.32382
2.12466
8.56844
3.93346
9.20914
4.90164
9.48319
5.0176
10.102
5.74208
10.1269
2.71513
10.1279
1.11885
6.91629
0.0771775
6.03699
-0.299792
5.42436
-0.195308
4.8769
0.0524528
4.73399
0.375906
4.63817
0.650684
4.69597
0.805299
4.83582
0.567145
5.29379
-0.702154
6.39333
-2.30122
6.80394
-5.10068
10.1941
-4.33013
9.94585
-3.89773
9.51036
-3.4367
9.51516
-1.79612
9.45517
-0.704631
8.67786
10.0833
2.01026
7.31005
3.16283
7.40951
4.35003
8.0217
5.91434
7.92072
6.96773
9.05329
6.57141
10.517
4.86948
11.7719
2.25634
9.52456
0.930012
7.39238
0.143647
6.21782
-0.0477812
5.08163
-0.0850295
4.78278
0.00542292
4.56193
0.0485578
4.66804
-0.0501192
4.94981
-0.698635
5.95714
-2.10669
7.81356
-4.66595
9.37045
-6.73321
12.2678
-7.16569
10.3791
-6.42677
8.77431
-4.98238
8.07334
-3.7044
8.17755
-2.57714
7.55183
7.50689
2.52043
4.7881
4.09179
5.83263
4.5503
7.5571
4.20984
8.25227
4.5247
8.74388
4.06326
11.0073
2.91825
12.9327
1.57673
10.8582
1.08969
7.86474
0.824005
6.4765
0.420071
5.48019
0.0450203
5.1538
-0.394149
4.99995
-0.801817
5.07558
-1.24846
5.39807
-1.69723
6.40851
-2.60476
8.7216
-4.25997
11.0272
-5.26054
13.2706
-6.24612
11.3652
-5.78574
8.32015
-5.7761
8.06756
-4.92727
7.33042
-2.9392
5.56476
4.56835
3.1789
1.60856
6.30781
2.70252
8.47648
5.38287
7.9028
8.80787
5.99118
10.6699
5.37611
11.6322
5.71018
12.6435
5.11365
11.4618
3.97482
8.99201
2.90382
7.53534
1.76069
6.61482
0.711362
6.19336
-0.367048
6.06945
-1.47408
6.17596
-2.70131
6.62003
-3.92517
7.62699
-4.43944
9.22813
-4.80973
11.3919
-4.16449
12.6229
-4.38467
11.5907
-6.82467
10.7684
-7.81868
9.05922
-5.83541
5.34532
-2.9683
2.69747
1.60035
1.19809
0.41048
2.87065
1.02803
4.93055
3.32008
6.43718
7.2812
5.53595
11.5899
5.35404
11.8291
5.49706
12.5066
4.95027
12.0053
3.76818
10.1724
2.58217
8.72043
1.42687
7.76781
0.314571
7.30021
-0.786836
7.16537
-1.91998
7.30501
-3.12456
7.8215
-4.35908
8.85888
-5.45366
10.317
-5.94318
11.875
-5.74073
12.4156
-5.84881
11.6976
-6.63263
11.5587
-4.9369
7.36314
-2.88399
3.29294
-1.19726
1.00934
0.402138
0.588819
-0.179469
0.81294
0.804698
0.922994
3.21235
1.15297
7.03558
2.32951
10.4329
3.03731
11.1333
3.55654
11.9836
3.3927
12.1593
2.64715
10.9171
1.7767
9.59176
0.92325
8.62093
0.0881633
8.13351
-0.737903
7.98944
-1.60177
8.16681
-2.50706
8.72472
-3.41695
9.76653
-4.1183
11.0141
-4.1779
11.9302
-3.53675
11.7729
-2.81594
10.9767
-1.63172
10.3769
-1.00293
6.73973
-0.820096
3.11278
-0.576803
0.764464
-0.175776
-0.181299
0.00669615
-0.337404
0.964106
-0.941706
3.82087
-0.787643
6.87767
0.433691
9.22007
1.45155
10.1207
2.03473
11.3867
2.09529
12.0911
1.75146
11.2591
1.25587
10.0873
0.707851
9.16994
0.161344
8.68101
-0.397768
8.54874
-0.949995
8.71834
-1.49967
9.27339
-1.9679
10.2332
-2.22811
11.2713
-2.07971
11.7794
-1.41004
11.1049
-0.341803
9.906
0.787856
9.24462
0.916658
6.6165
0.358833
3.67425
0.202582
0.921099
0.029993
-0.709028
0.719241
-1.59939
1.8602
-1.89262
4.11643
-1.79782
6.78107
-0.819575
8.24036
0.0643821
9.23257
0.549764
10.8914
0.823752
11.8169
0.860803
11.2203
0.734905
10.2134
0.5095
9.39822
0.228056
8.96473
-0.0568947
8.83436
-0.327909
8.98909
-0.521301
9.46619
-0.58652
10.2971
-0.486719
11.1688
-0.23834
11.5291
0.298098
10.5711
1.16295
9.03827
2.12816
8.27391
2.0435
6.70397
1.678
4.04291
0.724205
1.87986
0.757011
-0.511972
1.23389
-1.67264
3.02867
-2.50068
4.94488
-2.51644
6.79867
-1.98195
7.70793
-1.5223
8.7693
-0.963066
10.3344
-0.463136
11.3174
-0.124125
10.8799
0.0171437
10.0736
0.0288766
9.38971
-0.0257941
9.02099
-0.116618
8.9255
-0.172988
9.04532
-0.165432
9.45807
-0.0237653
10.1538
0.305385
10.8374
0.790554
11.0407
1.29267
10.0716
1.8122
8.51705
2.39005
7.69022
2.38858
6.7112
1.5783
4.85632
0.472
2.98945
1.23137
-0.486982
1.72479
-1.54079
4.08602
-2.2137
5.61949
-2.36971
6.95529
-2.12349
7.46264
-1.85198
8.51158
-1.40555
9.88452
-0.87649
10.7904
-0.452091
10.4548
-0.200672
9.82391
-0.0833689
9.27429
-0.0458627
8.98418
-0.0142358
8.89413
0.0329216
8.99769
0.164191
9.32567
0.430847
9.88515
0.841467
10.4244
1.34912
10.5313
1.74633
9.67442
2.03096
8.23169
2.31544
7.4055
2.11768
6.90206
1.43204
5.54194
0.4486
3.97565
1.68503
-0.392521
2.12072
-1.31289
5.00809
-2.08733
6.39514
-2.39123
7.26405
-2.36776
7.44907
-2.14103
8.28658
-1.7426
9.48539
-1.16925
10.2175
-0.673587
9.95875
-0.331533
9.48301
-0.125601
9.06916
0.033137
8.82568
0.161434
8.76579
0.323904
8.83433
0.546284
9.10127
0.900706
9.52792
1.3999
9.92242
1.93966
9.9887
2.27936
9.33593
2.47363
8.03837
2.50295
7.37808
2.18129
7.21768
1.37176
6.35224
0.447952
4.90097
2.13034
-0.475885
2.59955
-1.44999
5.98584
-2.23572
7.18368
-2.53706
7.57178
-2.56235
7.475
-2.43967
8.15623
-2.12715
9.18079
-1.61159
9.6999
-1.11523
9.46311
-0.721641
9.08999
-0.430593
8.778
-0.217203
8.61193
-0.0133719
8.56117
0.199182
8.6201
0.489863
8.8081
0.8727
9.1421
1.33048
9.46207
1.81014
9.50694
2.13163
9.01363
2.26915
7.90093
2.25492
7.39335
1.98842
7.47921
1.2755
7.06612
0.344717
5.82706
2.47255
-0.361669
2.95776
-1.21917
6.84315
-1.96553
7.92857
-2.196
7.8034
-2.35816
7.63922
-2.2675
8.06439
-1.95907
8.8768
-1.45721
9.19559
-0.981535
8.98802
-0.602413
8.71037
-0.307843
8.48273
-0.0438612
8.34682
0.190954
8.32466
0.454848
8.35407
0.755144
8.50531
1.14634
8.74813
1.62691
8.97877
2.09454
9.03701
2.34634
8.76194
2.40717
7.83614
2.25742
7.54145
1.97346
7.76009
1.22412
7.81712
0.409705
6.64052
2.88871
-0.283079
3.23702
-1.20785
7.76225
-1.91563
8.63467
-2.11504
8.0044
-2.24429
7.76862
-2.15674
7.9836
-1.8893
8.60652
-1.45533
8.76408
-1.01468
8.54453
-0.62683
8.32158
-0.289015
8.14332
-0.00805786
8.06399
0.273796
8.04058
0.553309
8.07242
0.893832
8.16296
1.28952
8.35051
1.71347
8.55344
2.13527
8.61334
2.38332
8.51267
2.43862
7.77928
2.3175
7.65907
2.1507
7.92418
1.44842
8.52097
0.461335
7.63278
3.35682
-0.534266
3.7702
-1.42243
8.6502
-2.06524
9.2754
-2.21366
8.15236
-2.41045
7.96267
-2.43895
8.01359
-2.22069
8.38348
-1.75632
8.29994
-1.30847
8.09296
-0.921122
7.93167
-0.602435
7.82224
-0.28902
7.74866
0.0030588
7.74659
0.320473
7.75343
0.648785
7.83336
1.02917
7.9688
1.46085
8.12005
1.8696
8.20365
2.0881
8.29395
2.08041
7.78468
1.92339
7.81493
1.7753
8.06886
1.1715
9.11665
0.356358
8.44529
3.71728
-0.428416
4.19766
-1.3423
9.56922
-1.89588
9.8253
-2.00076
8.25342
-2.03541
7.99376
-2.01718
7.99739
-1.79885
8.16197
-1.43857
7.93599
-1.06623
7.71847
-0.712432
7.57444
-0.368851
7.47666
-0.0685845
7.44672
0.244589
7.43213
0.545637
7.4513
0.889014
7.48949
1.25505
7.60218
1.61754
7.75678
1.98989
7.8303
2.20005
8.08267
2.15887
7.82552
2.11718
7.85092
1.98171
8.20383
1.41557
9.67703
0.55599
9.31204
4.27353
-0.40226
4.60363
-0.7963
9.97002
-1.6429
10.6653
-1.7449
8.35205
-1.81749
8.06349
-1.79021
7.96849
-1.64532
8.01384
-1.30914
7.59275
-0.967937
7.37691
-0.64777
7.25093
-0.36268
7.18964
-0.0600772
7.14324
0.225973
7.14532
0.531833
7.14504
0.826048
7.19485
1.16058
7.26719
1.51434
7.40197
1.80583
7.53806
1.93526
7.95245
1.96294
7.79808
1.91433
7.89589
1.96397
8.15259
1.23742
10.4065
0.53559
10.0582
4.80167
-0.622467
5.23284
-1.05605
10.4088
-1.90131
11.506
-1.96299
8.41014
-1.96017
8.0567
-1.89355
7.89966
-1.68395
7.80072
-1.39971
7.30446
-1.10925
7.08556
-0.819686
6.95924
-0.506962
6.87613
-0.227516
6.86322
0.0700697
6.84744
0.353167
6.86162
0.669408
6.87868
0.965251
6.9712
1.23055
7.13573
1.52012
7.24667
1.70493
7.76489
1.76677
7.73655
1.75936
7.89985
1.68167
8.23048
0.849421
11.2384
0.305066
10.6306
5.09532
-0.416842
5.65372
-0.690846
10.6894
-1.31611
12.1265
-1.59438
8.68759
-1.65492
8.1144
-1.59412
7.83598
-1.44849
7.6504
-1.1833
7.0383
-0.890426
6.79072
-0.595571
6.66317
-0.341233
6.62102
-0.0564352
6.57835
0.211086
6.57982
0.494719
6.57806
0.746285
6.62661
1.04242
6.67453
1.34051
6.83695
1.59756
6.98833
1.73924
7.6196
1.77638
7.70123
1.73906
7.9346
1.50793
8.45977
0.883216
11.8716
0.525967
11.023
5.62314
-0.253115
5.90977
-0.372662
10.8119
-0.973295
12.7292
-1.49647
9.20599
-1.5851
8.19905
-1.48597
7.73611
-1.2457
7.4059
-1.03807
6.83169
-0.813773
6.56465
-0.587965
6.43675
-0.315389
6.34829
-0.0777102
6.34058
0.180849
6.32122
0.418716
6.33993
0.689949
6.35531
0.916818
6.44661
1.13624
6.6148
1.36093
6.76238
1.59003
7.38523
1.66803
7.62167
1.63987
7.95916
1.14278
8.95975
0.611702
12.398
0.404497
11.2474
6.04357
-0.410755
6.32358
-0.58958
10.9929
-0.946597
13.0883
-1.61127
9.86661
-1.56091
8.14837
-1.48943
7.66301
-1.35769
7.26872
-1.12248
6.59764
-0.898442
6.33841
-0.645052
6.18268
-0.434292
6.13698
-0.185973
6.09205
0.0421956
6.09277
0.290762
6.0911
0.507073
6.13776
0.762054
6.19091
0.987257
6.38808
1.18223
6.56621
1.33665
7.22666
1.40188
7.55727
1.39662
7.96237
0.668295
9.6848
0.178048
12.8855
0.233274
11.1498
6.29649
-0.193193
6.5145
-0.233692
11.0436
-0.422525
13.2805
-1.24634
10.6825
-1.37803
8.27657
-1.33641
7.61986
-1.10938
7.03777
-0.888233
6.37754
-0.698183
6.1482
-0.511978
5.99561
-0.267858
5.89224
-0.0589059
5.88255
0.175312
5.85803
0.384939
5.88063
0.625285
5.89661
0.813707
6.00022
1.00126
6.19654
1.24175
6.32491
1.44927
7.01233
1.50116
7.50202
1.40632
8.05493
0.62956
10.457
0.455063
13.0644
0.41611
11.1844
6.71656
-0.0163008
6.52533
0.0201881
11.0093
-0.00880929
13.314
-0.772713
11.4342
-1.17423
8.67673
-1.10221
7.54491
-1.01138
6.94204
-0.835632
6.20026
-0.65046
5.96182
-0.436634
5.78037
-0.263957
5.71848
-0.0540941
5.67188
0.135941
5.66718
0.347877
5.66785
0.523261
5.71954
0.741746
5.782
0.924048
6.01268
1.08325
6.16559
1.22686
6.86442
1.32178
7.40527
1.04015
8.33088
0.201873
11.2908
0.074269
13.1949
0.107327
11.1692
6.80113
-0.234433
6.75723
-0.364074
11.139
-0.130202
13.0845
-0.720226
12.0303
-1.3309
9.27987
-1.22596
7.43714
-1.05709
6.7706
-0.860599
6.0026
-0.68113
5.78182
-0.530712
5.62915
-0.332504
5.51903
-0.160353
5.49878
0.0376663
5.46827
0.213756
5.49038
0.410346
5.52203
0.56362
5.62612
0.748711
5.82368
0.937691
5.97568
1.04683
6.74974
1.14483
7.30412
0.479036
8.9918
-0.194865
11.9689
-0.0803847
13.0947
-0.0387001
11.1245
6.72129
-0.0813721
6.83831
-0.10099
11.1575
0.196086
12.7921
-0.10125
12.3349
-0.872721
10.0399
-0.903397
7.46451
-0.847567
6.71127
-0.721937
5.87515
-0.573525
5.6312
-0.37684
5.43065
-0.221519
5.36275
-0.0374869
5.31389
0.130697
5.29922
0.314768
5.3051
0.47292
5.3626
0.672077
5.42777
0.817193
5.67721
0.944943
5.84712
1.04672
6.64387
1.04504
7.30374
0.338485
9.69467
-0.0284536
12.3439
0.209264
12.8752
0.13838
11.1768
6.836
-0.0220011
6.86057
0.0235622
11.111
0.360011
12.4619
0.371425
12.3279
-0.528199
10.9164
-0.907285
7.83843
-0.742676
6.54381
-0.620208
5.75026
-0.482973
5.49254
-0.366946
5.31388
-0.19502
5.18998
-0.0447147
5.16275
0.121841
5.13183
0.267705
5.15811
0.435069
5.19423
0.559598
5.30116
0.720259
5.51353
0.839849
5.72718
1.05928
6.41998
0.739516
7.62099
-0.091078
10.5202
-0.255542
12.5069
0.0672242
12.5601
0.0840257
11.1256
6.93547
-0.136893
6.99842
-0.137992
11.1182
0.106022
12.2236
0.283365
12.1582
-0.269668
11.4741
-0.798889
8.36105
-0.763966
6.50548
-0.666631
5.65074
-0.573323
5.3972
-0.406983
5.14609
-0.274903
5.05721
-0.117681
5.0047
0.0247219
4.98867
0.179385
5.00227
0.313291
5.05941
0.472321
5.14216
0.557166
5.42688
0.628489
5.65296
0.710438
6.33307
0.0745304
8.25142
-0.655062
11.2427
-0.368591
12.2168
-0.131963
12.329
-0.0818463
11.0783
6.88389
-0.0479929
7.04977
-0.00797603
11.0885
0.210514
12.0131
0.590169
11.7887
0.147124
11.9207
-0.48577
8.98512
-0.639108
6.65489
-0.503912
5.51356
-0.406473
5.29832
-0.314362
5.05385
-0.168226
4.91072
-0.0368563
4.8727
0.108917
4.84212
0.241481
4.86877
0.38485
4.91521
0.48729
5.03835
0.614112
5.29774
0.743602
5.52166
0.646036
6.42669
-0.0104188
8.90723
-0.479715
11.7073
-0.085823
11.8124
0.126815
12.119
0.157187
11.0709
7.06609
0.0991336
6.95476
0.234132
10.9651
0.310654
11.946
0.607229
11.4999
0.855849
11.6732
0.00448522
9.81965
-0.461783
7.11784
-0.442968
5.49353
-0.374595
5.22837
-0.261817
4.93993
-0.156639
4.80494
-0.0279655
4.74306
0.0932187
4.72013
0.224769
4.73619
0.333815
4.80504
0.449326
4.92226
0.523383
5.22165
0.588947
5.45334
0.274516
6.73566
-0.628704
9.80985
-0.574021
11.6483
-0.176262
11.4134
-0.0147472
11.9603
-0.0053528
11.083
7.07951
-0.110904
7.07138
-0.0160019
10.8791
0.0903857
11.8428
0.35283
11.2418
0.728029
11.3027
0.105475
10.4453
-0.385234
7.6052
-0.472387
5.57888
-0.378935
5.13248
-0.307699
4.86773
-0.202628
4.69884
-0.0953908
4.63505
0.0259353
4.59802
0.134665
4.62653
0.239494
4.6996
0.31134
4.84911
0.410325
5.12099
0.306041
5.55561
-0.193866
7.23332
-0.933931
10.5542
-0.606387
11.3196
-0.33446
11.1393
-0.228172
11.8454
-0.0497895
10.8979
7.03012
0.0599686
7.01544
0.248313
10.6983
0.276593
11.8195
0.481901
11.0404
0.933849
10.8548
0.817512
10.5665
0.0160662
8.40454
-0.318375
5.91233
-0.299605
5.11265
-0.209262
4.77755
-0.126791
4.61637
-0.0255072
4.53263
0.0774137
4.49423
0.180638
4.52229
0.271656
4.60735
0.361203
4.75747
0.398249
5.08113
0.0681276
5.88302
-0.699538
8.00021
-0.874388
10.733
-0.399818
10.8485
-0.173748
10.9156
-0.0995406
11.771
0.0411494
10.7508
7.05917
0.0812965
6.93495
0.33452
10.4504
0.393554
11.7565
0.559635
10.8749
0.86024
10.5582
1.06013
10.3726
0.374823
9.09132
-0.077603
6.36388
-0.208644
5.24061
-0.162805
4.73022
-0.0909825
4.54364
-0.0155884
4.45645
0.0749449
4.40292
0.154035
4.44242
0.23713
4.52387
0.302937
4.69118
0.227942
5.15484
-0.210677
6.32164
-0.968313
8.76164
-0.737416
10.5056
-0.431256
10.5457
-0.260984
10.7516
-0.191988
11.6794
-0.00131959
10.5469
7.03922
-0.00138847
6.93604
0.173284
10.2783
0.271867
11.6559
0.406539
10.7382
0.65057
10.3169
1.07445
9.95413
0.813238
9.35486
0.0714154
7.10658
-0.214755
5.52483
-0.187299
4.70291
-0.126678
4.48253
-0.0546759
4.38348
0.00992386
4.33764
0.0794796
4.37185
0.141946
4.46004
0.16758
4.66387
-0.118436
5.43968
-0.916454
7.12027
-1.31128
9.16175
-0.809732
10.0095
-0.566784
10.3056
-0.445692
10.623
-0.381191
11.6012
-0.11234
10.274
6.91416
0.00107823
6.93248
0.279762
9.99995
0.426017
11.5063
0.510927
10.649
0.735359
10.0901
1.02831
9.65911
1.07851
9.3061
0.507747
7.68014
0.0245355
6.00854
-0.0977464
4.82469
-0.0603517
4.44459
-0.0117064
4.33401
0.0378667
4.28741
0.092826
4.31605
0.140103
4.41233
0.0346564
4.76976
-0.450301
5.92498
-0.989106
7.66343
-1.0505
9.22698
-0.714898
9.67157
-0.471433
10.0539
-0.375136
10.5219
-0.251691
11.4692
0.0132256
10.0113
6.92312
0.0334757
6.89771
0.306846
9.72538
0.567255
11.2419
0.635315
10.5772
0.789295
9.93529
0.977553
9.47615
1.38075
8.90379
0.909276
8.15408
0.220939
6.69763
0.00619282
5.04048
-0.012083
4.46334
0.0117247
4.30946
0.0322927
4.26628
0.0629653
4.28459
0.0733589
4.40092
-0.13686
4.97973
-0.913366
6.70127
-1.36453
8.11403
-0.986034
8.85118
-0.740365
9.42592
-0.543245
9.85671
-0.47088
10.4471
-0.247674
11.2475
0.00892895
9.76645
6.93397
-0.064053
-1.00755
-0.0320651
-0.598557
0.0132054
-0.476497
0.0796035
-0.503089
0.15365
-0.612256
0.215161
-0.711492
0.26097
-0.781666
0.289129
-0.727598
0.303645
-0.581051
0.312643
-0.376183
0.362507
-0.32638
0.411262
-0.514058
0.430496
-0.750865
0.436597
-0.924435
0.44743
-1.01836
0.456965
-1.08017
0.482965
-1.11603
0.500422
-1.1323
0.515853
-1.14825
0.530581
-1.15971
0.539651
-1.17054
0.557196
-1.18423
0.57203
-1.19991
0.535839
-1.20626
0.486371
-1.20121
0.41821
-1.14515
0.112581
-0.954971
0.0260661
-0.326873
0.00242071
-0.200669
-0.156161
0.0183908
-0.921714
0.0310899
-0.522779
0.0707878
-0.502343
0.13999
-0.560319
0.198783
-0.669801
0.26977
-0.78946
0.321167
-0.860442
0.336178
-0.785846
0.306939
-0.590474
0.288081
-0.363599
0.290291
-0.270733
0.359508
-0.402908
0.417975
-0.636598
0.448006
-0.818241
0.460877
-0.941369
0.477582
-1.02431
0.497406
-1.06772
0.516135
-1.10501
0.531842
-1.13977
0.542774
-1.14867
0.552155
-1.16729
0.558099
-1.18774
0.574136
-1.21103
0.579478
-1.21272
0.575441
-1.20107
0.554555
-1.16281
0.404922
-1.05991
0.081172
-0.507114
0.0151205
-0.228179
-0.164813
-0.00759827
-0.800036
0.0245481
-0.482094
0.0693435
-0.537111
0.130978
-0.614752
0.20496
-0.752849
0.274717
-0.871077
0.318755
-0.916391
0.33146
-0.81365
0.291832
-0.579329
0.257218
-0.342668
0.250805
-0.222944
0.311486
-0.298569
0.358425
-0.5196
0.39945
-0.730082
0.427416
-0.874741
0.446307
-0.965184
0.471402
-1.02724
0.494158
-1.06984
0.512493
-1.10211
0.528021
-1.12785
0.542761
-1.15446
0.560262
-1.1763
0.585032
-1.19487
0.600027
-1.20264
0.608464
-1.19702
0.614248
-1.16935
0.569448
-1.1149
0.168395
-0.876734
0.0419332
-0.319968
-0.188514
-0.00379534
-0.689768
0.0293524
-0.49649
0.0734626
-0.57567
0.131714
-0.673825
0.198456
-0.840197
0.260172
-0.956296
0.30057
-0.963581
0.297182
-0.802111
0.271486
-0.548866
0.212263
-0.292486
0.20443
-0.191838
0.265203
-0.246461
0.327048
-0.425449
0.371511
-0.641056
0.403602
-0.806479
0.425758
-0.912293
0.449596
-1.01064
0.475618
-1.03163
0.498304
-1.06704
0.517246
-1.09647
0.535254
-1.12403
0.558311
-1.15054
0.590042
-1.17195
0.611717
-1.1809
0.62698
-1.19245
0.65103
-1.18524
0.651934
-1.15126
0.476646
-0.986202
0.096113
-0.536461
-0.305716
0.0135134
-0.622232
0.0494136
-0.520748
0.0848633
-0.611923
0.138764
-0.739645
0.215252
-0.941032
0.256301
-1.01296
0.266688
-0.96825
0.249917
-0.774037
0.216777
-0.503764
0.175321
-0.248021
0.17754
-0.174341
0.209198
-0.190672
0.265537
-0.35719
0.332992
-0.591699
0.37587
-0.751015
0.406713
-0.863639
0.437086
-0.968255
0.46584
-1.03002
0.491443
-1.03496
0.514359
-1.06837
0.53727
-1.09791
0.563361
-1.12797
0.595613
-1.15472
0.623158
-1.16987
0.642162
-1.18886
0.665518
-1.19904
0.691946
-1.19319
0.646163
-1.13337
0.189798
-0.899461
-0.854477
0.0310728
-0.582363
0.0637897
-0.541135
0.0967361
-0.646983
0.152227
-0.816092
0.209716
-1.02733
0.232106
-1.05017
0.216145
-0.938299
0.189704
-0.719962
0.158623
-0.449963
0.139331
-0.219125
0.133596
-0.149667
0.17411
-0.168218
0.244982
-0.3255
0.3063
-0.543182
0.355031
-0.702359
0.391532
-0.822066
0.426324
-0.916156
0.459416
-0.984441
0.487041
-1.03273
0.513624
-1.04731
0.540824
-1.07247
0.567961
-1.107
0.5988
-1.13844
0.629678
-1.16233
0.651343
-1.18779
0.668579
-1.21224
0.67492
-1.24067
0.626833
-1.28534
0.286887
-1.38825
-2.82906
0.032386
-0.559032
0.0607151
-0.556384
0.0920869
-0.679257
0.142285
-0.892892
0.180209
-1.08647
0.187635
-1.04983
0.158839
-0.88759
0.129653
-0.654407
0.103086
-0.393964
0.100348
-0.201365
0.0991837
-0.128095
0.140327
-0.160557
0.207422
-0.312327
0.272873
-0.509975
0.32579
-0.667474
0.370987
-0.817032
0.408393
-0.874722
0.445621
-0.939639
0.47898
-0.988836
0.509842
-1.04084
0.539984
-1.05206
0.56962
-1.08943
0.600977
-1.1242
0.634414
-1.15795
0.654008
-1.19092
0.649179
-1.23765
0.613416
-1.3153
0.510999
-1.50183
0.367589
-2.36774
-3.29249
0.0282362
-0.54261
0.0468255
-0.566141
0.0752128
-0.711551
0.113918
-0.951603
0.126834
-1.10437
0.121861
-1.02994
0.0878471
-0.825079
0.0614053
-0.58329
0.0475412
-0.345983
0.0521218
-0.18836
0.06537
-0.121937
0.10857
-0.166021
0.174931
-0.314951
0.243765
-0.493636
0.304779
-0.646939
0.351654
-0.768791
0.391046
-0.840709
0.429974
-0.903351
0.46716
-0.953857
0.50299
-1.00389
0.53608
-1.03613
0.568604
-1.07582
0.602566
-1.11407
0.637478
-1.15708
0.655495
-1.20536
0.642648
-1.28806
0.572662
-1.44585
0.414597
-1.86717
0.236967
-3.17281
-3.3017
0.0185073
-0.525721
0.031523
-0.571791
0.0507823
-0.738465
0.0666821
-0.984183
0.0652613
-1.09959
0.049941
-0.996301
0.0212768
-0.756311
-0.000761941
-0.518032
-0.00406058
-0.315075
0.00872117
-0.184963
0.0335431
-0.132889
0.080484
-0.182643
0.147032
-0.332976
0.214915
-0.49799
0.27789
-0.626413
0.327224
-0.734918
0.370018
-0.81279
0.410922
-0.872671
0.452501
-0.925626
0.493844
-0.976688
0.532162
-1.02189
0.567897
-1.06771
0.60332
-1.11279
0.638481
-1.1649
0.65635
-1.2378
0.627438
-1.369
0.513287
-1.65673
0.434015
-3.03164
0.142677
-3.25124
-3.26613
0.0110486
-0.506356
0.01622
-0.571753
0.0227263
-0.756338
0.0146858
-0.989905
0.00356857
-1.08221
-0.0235121
-0.947334
-0.0488356
-0.697766
-0.0620201
-0.479717
-0.0536538
-0.306783
-0.0314219
-0.194542
0.00725482
-0.162424
0.0573576
-0.212133
0.123715
-0.366593
0.190569
-0.501878
0.250628
-0.619236
0.30236
-0.715623
0.348358
-0.790902
0.391385
-0.849679
0.437596
-0.907715
0.483322
-0.955901
0.52707
-1.00909
0.566287
-1.06168
0.603505
-1.11581
0.630392
-1.18425
0.636489
-1.28966
0.579873
-1.48776
0.422961
-1.97735
0.298718
-3.4363
0.125838
-3.21698
-3.22575
0.00349075
-0.479875
-0.00240363
-0.562658
-0.0149453
-0.752626
-0.0390339
-0.976626
-0.0638659
-1.05175
-0.0957759
-0.895631
-0.111077
-0.654527
-0.110004
-0.460767
-0.0955022
-0.31149
-0.0646166
-0.219584
-0.0190287
-0.209572
0.037777
-0.259897
0.102942
-0.40835
0.166842
-0.516078
0.225502
-0.622512
0.276381
-0.713828
0.324765
-0.773925
0.37199
-0.833174
0.423172
-0.886721
0.472031
-0.941627
0.519376
-0.999596
0.562748
-1.06008
0.601593
-1.12764
0.621814
-1.21536
0.608496
-1.36746
0.509965
-1.67063
0.42579
-2.96616
0.234041
-3.42832
0.123197
-3.17106
-3.21282
-0.00660719
-0.448184
-0.0220811
-0.545446
-0.0487561
-0.733384
-0.0885645
-0.943641
-0.127621
-1.00399
-0.159023
-0.851985
-0.158255
-0.642238
-0.149041
-0.471239
-0.127747
-0.338138
-0.0902356
-0.264552
-0.0402769
-0.275846
0.0203985
-0.331295
0.080064
-0.455768
0.142243
-0.545362
0.198253
-0.636792
0.249733
-0.711515
0.300291
-0.765811
0.351703
-0.829678
0.406027
-0.874604
0.459509
-0.934996
0.510761
-0.997904
0.557899
-1.06629
0.599619
-1.14827
0.610571
-1.26396
0.564109
-1.47885
0.425665
-1.96378
0.311492
-3.28625
0.206054
-3.33463
0.123635
-3.11176
-3.16215
-0.0149663
-0.413284
-0.0408681
-0.517339
-0.0780551
-0.70342
-0.131925
-0.89289
-0.187062
-0.938891
-0.203906
-0.834391
-0.199498
-0.658789
-0.182701
-0.51435
-0.155556
-0.396669
-0.113276
-0.33885
-0.0620916
-0.366685
0.00273032
-0.416553
0.0542993
-0.503245
0.113336
-0.576585
0.168796
-0.650074
0.221564
-0.711304
0.275079
-0.764613
0.330316
-0.820887
0.387481
-0.872955
0.445951
-0.935796
0.50179
-1.00324
0.55173
-1.07944
0.5853
-1.18091
0.584942
-1.33878
0.484526
-1.64625
0.409805
-2.94099
0.234695
-3.24833
0.169439
-3.20229
0.0930238
-3.08205
-3.09252
-0.0233363
-0.372614
-0.0578759
-0.480457
-0.107158
-0.659984
-0.17152
-0.829841
-0.231637
-0.863748
-0.244932
-0.821432
-0.244652
-0.68537
-0.224474
-0.583514
-0.189141
-0.480875
-0.141115
-0.445757
-0.0903571
-0.480629
-0.0328681
-0.505673
0.0246351
-0.556801
0.0819998
-0.604584
0.138508
-0.671455
0.193167
-0.715574
0.250156
-0.770717
0.308898
-0.824502
0.370494
-0.879559
0.432632
-0.943954
0.491305
-1.01543
0.541978
-1.10084
0.563444
-1.22575
0.532744
-1.44113
0.408145
-1.88666
0.297384
-3.21493
0.183447
-3.16722
0.137565
-3.16553
0.0752095
-3.08346
-3.08256
-0.0307292
-0.326167
-0.0759588
-0.43275
-0.13541
-0.604466
-0.207528
-0.756758
-0.259065
-0.796597
-0.286355
-0.783926
-0.290586
-0.686629
-0.271194
-0.637141
-0.234792
-0.567013
-0.182674
-0.554031
-0.129418
-0.5663
-0.071235
-0.57692
-0.0085536
-0.606097
0.0497734
-0.631155
0.107699
-0.690816
0.165538
-0.725466
0.227061
-0.783875
0.289875