/*--------------------------------*- C++ -*----------------------------------*\
| =========                 |                                                 |
| \\      /  F ield         | OpenFOAM: The Open Source CFD Toolbox           |
|  \\    /   O peration     | Version:  2112                                  |
|   \\  /    A nd           | Website:  www.openfoam.com                      |
|    \\/     M anipulation  |                                                 |
\*---------------------------------------------------------------------------*/
FoamFile
{
    version     2.0;
    format      ascii;
    arch        "LSB;label=32;scalar=64";
    class       volScalarField;
    location    "0.00277";
    object      k;
}
// * * * * * * * * * * * * * * * * * * * * * * * * * * * * * * * * * * * * * //

dimensions      [0 2 -2 0 0 0 0];

internalField   nonuniform List<scalar> 
13875
(
812.068
3462.74
3540.04
3539.65
3542.39
3540.43
3539.64
3540.34
3542.5
3543.13
3540.25
3538.68
3540.75
3541.56
3540.62
3541.48
3541.13
3541.23
3540.44
3540.18
3542.35
3539.01
3539.98
3461.76
820.244
881.758
2936.83
3012.95
3001.07
3000.89
2997.4
2996
2996.17
2995.7
2997.12
2997.4
2996.65
2997.73
2997.58
2998.62
2999.23
2998.29
2997.25
2996.37
2997.06
3000.48
2999.13
3011.55
2934.24
894.267
993.352
2711.12
2777.51
2755.65
2756.72
2753.83
2752.14
2751.02
2742.56
2743.06
2745.7
2745.98
2745.24
2749.97
2747.04
2746.43
2745.41
2751.95
2752.15
2753.47
2756.29
2752.79
2774.39
2706.57
998.24
1091.1
2533.93
2581.06
2561.76
2564.67
2562.01
2560.25
2559.04
2549.02
2548.85
2552.06
2552.69
2552.38
2557.15
2552.8
2551.15
2550.08
2559.61
2560.04
2561.64
2564.21
2559.08
2579
2529.36
1093.96
1172.22
2380.69
2413.27
2392.98
2395.84
2393.42
2391.84
2390.26
2380.47
2380.13
2383.48
2384.12
2383.7
2388.13
2383.72
2381.86
2381.11
2390.68
2391.56
2393.05
2395.41
2390.84
2410.36
2375.49
1177.63
1241.26
2237.56
2271.19
2245
2248.84
2245.82
2243.82
2241.21
2231.67
2231.04
2234.38
2235.1
2234.75
2238.95
2234.31
2232.14
2232
2241.88
2243.62
2245.53
2248.43
2243.55
2267.73
2247.6
1247.58
1321.41
2122.5
2158.64
2120.55
2120.9
2116.27
2113.13
2109.33
2100.21
2099.2
2102.1
2102.86
2103.06
2107.39
2101.97
2099.42
2100.46
2110.4
2113.26
2115.98
2120.35
2119.68
2154.14
2096.28
1323.85
1411.4
2002.39
2074.8
2020.61
2014.97
2005.97
1999.92
1993.97
1985.12
1983.38
1985.47
1986.17
1986.56
1991.11
1985.19
1982.23
1985.03
1995.34
2000.15
2005.3
2013.67
2019.23
2068.49
1993.19
1420.96
1694.33
2031.45
2024.08
1946.95
1926.11
1912.66
1903.16
1894.84
1886.22
1883.84
1884.87
1885.16
1885.65
1890.28
1883.99
1881.11
1885.7
1896.38
1903.85
1911.85
1925.47
1944.01
2019.18
2035.2
1718.51
2522.95
2295.14
2024.67
1902.63
1869.24
1844.1
1829.77
1819.43
1811.48
1808.52
1808.26
1807.84
1808.24
1812.51
1806.65
1804.67
1809.84
1820.19
1830.85
1843.52
1866.81
1898.97
2015.53
2270.29
2531.39
3889.05
3040.75
2161.95
1937.92
1844.95
1806.23
1785.75
1772.58
1764.99
1761.22
1759.79
1758.6
1758.57
1761.79
1757.54
1757.19
1762.45
1772.47
1786.84
1805.34
1842.86
1928.72
2147.09
2955.09
3873.3
5148.04
6418.3
3015.43
2062
1916.05
1825.96
1784.83
1766.53
1755.84
1750.07
1747.36
1745.43
1744.33
1746.58
1744.55
1746.44
1753.01
1765.45
1785.5
1826.06
1907.68
2025.79
2879.45
6340.63
5128
5040.26
7022.34
7711.73
4017.73
2198.13
1938.14
1879.5
1849.01
1838.98
1831.37
1828.42
1827.51
1824.99
1826.45
1826.74
1830.21
1838.14
1850.86
1880.58
1951.8
2236.36
3627.59
7198.69
7184.01
5020.7
4806.5
5988.74
7406.88
10028.1
5587.54
2784.42
2490.77
2258.92
2188.02
2157.52
2155.82
2145.63
2158.46
2150.21
2160.73
2170.31
2208.58
2283.47
2521.76
2906.35
6018.88
8919.9
7185.96
6114.47
4868.88
4623.45
5335
6284.18
7934.71
7024.95
5895.21
6247.22
5476.34
5092.32
5119.95
5294.18
5194.7
5395.28
5260.79
5299.47
5208.86
5191.41
5478.46
6430.42
5892.78
7027.39
7407.03
6214.99
5441.99
4796.14
4423.25
4873.72
5860.67
7236.62
7349.77
8992.84
8114.12
6512.18
6377.53
6688.3
6774.85
6829.84
6874.08
6885.19
6788.72
6763.69
6403.96
6360.17
7740.39
9114.61
7479.43
6938.64
5761.76
4946.83
4603.19
4157.23
4679.71
5761.82
7128.42
7299.59
9140.43
6997.01
5282.26
5131.22
5190.37
5266.62
5288.68
5323.53
5321.5
5279.71
5247.33
5136.37
5173.66
6510.32
9326.96
7484.06
6861.57
5753.71
4702.07
4214.13
3651.59
4792.23
5861.98
6230.09
6268.48
7720.81
6253.87
4781.67
4470.33
4418.65
4402.07
4388.42
4410.82
4405.37
4419.26
4462.79
4483.26
4718.58
5992.59
7646.69
6328.36
6031.57
5858.29
4886.24
3671.9
3111.97
4889.35
5527.19
5418.75
5269.52
6129.25
5835.77
4875.22
4272.73
3977.8
3830.21
3760.28
3762.79
3763.93
3819.68
3952.15
4173.54
4688.31
5659.86
6123.13
5253.96
5298.7
5469.53
4990.52
3159.59
2898.23
4807.04
4858.9
4757.57
4616.4
5144.99
5324.19
4841.69
4197.9
3727.03
3450.89
3317.68
3297.38
3320.06
3437.82
3689.25
4100.93
4701.91
5224.59
5125.08
4593.3
4687.43
4827.47
4698.57
2922.81
3256.29
4168.99
4254.19
4203.54
4106.7
4517.14
4819.72
4557.9
3982.66
3469.46
3125.52
2946.85
2911.11
2955.95
3127.14
3450.48
3917.86
4464.36
4757.58
4503.87
4096.53
4165.43
4191.15
4049.78
3267.83
4278.19
4255.93
3861.92
3803.7
3720.28
4063.2
4358
4195.24
3698.8
3194.45
2826.95
2626.81
2579.72
2636.53
2830.98
3176.46
3637.91
4112.9
4311.61
4065.02
3718.45
3774.92
3777.61
4145.06
4260.32
4993.87
4701.57
3586.83
3445.66
3391.73
3678.21
3934.95
3817.33
3386.43
2915.48
2552.48
2348.34
2294.92
2352.21
2547.42
2884.41
3312.2
3730.53
3891.24
3682.28
3386.34
3417.62
3492.09
4612.92
4973.66
5145.52
4704.98
3308.8
3144.9
3101.85
3318.36
3546.28
3455.77
3060.13
2626.66
2291.26
2101.11
2051.17
2108.65
2294.47
2607.49
2997.17
3379.69
3512.86
3321.74
3107.55
3137.3
3244.74
4601.68
5086.1
5219.7
4608.41
3073.77
2901.32
2852.6
3010.49
3205.5
3125.08
2768.13
2373.68
2064.52
1890.48
1845.18
1899.29
2071.54
2361.39
2715.53
3058.53
3176.91
3012.57
2860.52
2903.92
3034.31
4572.37
5154.91
5292.85
4542.73
2909.11
2709.81
2641.97
2753.62
2906.43
2822.67
2502.55
2149.56
1869.85
1711.41
1668.58
1718.96
1874.78
2135.75
2449.75
2755.18
2873.76
2753.17
2646.13
2711.27
2876.07
4505.17
5216.64
5367.13
4493.85
2772.24
2550.44
2465.5
2534.2
2636.54
2542.33
2257.5
1945.75
1696.42
1556.75
1518.19
1565.12
1707.24
1943.47
2223.29
2494.12
2614.06
2536.75
2470.93
2559.96
2756.64
4501.9
5305.2
5474.23
4468.87
2673.19
2410.97
2322.07
2352.47
2407.01
2302.21
2047.22
1771.75
1550.1
1425.06
1389.03
1432.43
1559.71
1769.02
2014.89
2256
2382.06
2353.52
2327.06
2420.87
2653.83
4421.56
5404.94
5664.94
4383.17
2578.26
2283.75
2195.43
2197.88
2208.59
2095.67
1866.34
1621.08
1423.3
1311.25
1277.35
1316.7
1428.69
1613.73
1830.94
2045.42
2176.14
2193.81
2198.21
2291.76
2558.65
4260.55
5506.83
5738.23
4269.84
2496.01
2167.94
2075.19
2058.21
2030.21
1906.42
1697.75
1482.14
1309.54
1211.45
1180.4
1217.54
1318.77
1483.2
1675.83
1871.04
2005.69
2056.01
2078.87
2177.81
2483.64
4189.22
5687.06
5700.29
4169.72
2440.58
2075.91
1963.92
1931.6
1879.41
1751.65
1559.67
1366.03
1212.58
1124.83
1095.82
1129.83
1218.71
1364.54
1537.15
1714.83
1850.76
1924.57
1962.77
2083.02
2419.55
4093.71
5677.66
5670.75
4095.35
2396.66
2010.64
1862.25
1816.63
1749.87
1617.72
1439.54
1265.18
1128.8
1049.53
1021.79
1053.18
1131.96
1260.94
1416.24
1579.46
1716.39
1803.84
1858.1
2010.63
2373
3999.52
5605.4
5594.76
3962.9
2384.48
1959.21
1773.79
1707.54
1629.02
1496.48
1331.59
1174.45
1052.66
982.218
956.553
985.975
1056.65
1173.28
1315.46
1465.26
1598.53
1693.72
1767.78
1953.98
2350.53
3932.01
5583.6
5571.71
3838.01
2372.9
1930.97
1701.2
1613.06
1523.44
1392.92
1238.85
1096.83
987.815
923.748
898.987
926.36
989.614
1093.59
1223.21
1362.86
1491.04
1595.51
1692.99
1916.74
2360.16
3820.56
5533.75
5562.42
3747
2320.16
1913.79
1648.31
1528.57
1428.16
1301.44
1159.29
1029.96
929.955
871.624
848.069
873.366
930.143
1025.45
1144.35
1273.1
1394.78
1509.24
1638.17
1902.05
2340.17
3707.06
5488.58
5495.67
3604.25
2242.18
1901.13
1610.49
1456.5
1342.77
1216.78
1085.07
967.885
878.233
825.182
802.861
827.121
879.49
965.917
1075.18
1195.59
1313.28
1438.23
1598.37
1898.87
2275.17
3618.89
5445.78
5456.19
3488.8
2169.37
1921.4
1586.99
1400.79
1269.15
1143.91
1021.78
914.922
832.404
783.656
762.452
785.301
832.516
912.32
1012.44
1124.84
1240.62
1381.6
1571.38
1919.59
2190.84
3481.38
5383.52
5443.2
3385.89
2098.06
1916.91
1583.3
1359.27
1209.26
1081.13
965.01
866.4
791.556
746.679
726.364
748.142
791.149
863.429
956.517
1065.04
1184.23
1340.5
1569.86
1916.35
2104.83
3356.53
5358.17
5396.17
3268.62
1999.18
1863.19
1587.8
1327.08
1162.3
1026.31
913.797
822.529
753.668
712.501
693.686
714.569
754.143
821.535
908.891
1015.18
1142.5
1310.66
1581.85
1871
2011.79
3256.21
5352.45
5370.96
3183.46
1902.48
1804.29
1631.29
1313.51
1127.63
983.903
870.192
783.859
720.243
682.141
664.06
683.992
720.439
782.588
865.909
975.019
1110.17
1295.92
1626.17
1809.31
1905.23
3154.06
5309.87
5355.29
3131.48
1826.31
1736.32
1642.9
1319.66
1102.35
952.064
834.729
750.116
689.808
654.186
637.027
655.736
689.841
748.644
830.817
945.049
1088.08
1309.49
1640.56
1739.12
1813.39
3082.34
5279.42
5308.66
3070.41
1746.06
1656.95
1600.39
1350.86
1087.22
926.267
806.391
720.579
662.167
628.687
612.355
630.68
662.959
720.425
804.283
921.89
1083.48
1359.72
1592.42
1661.34
1754.71
3041.22
5265.57
5271.84
3026.08
1688.95
1579.09
1542.79
1394.83
1096.63
908.927
786.45
695.809
637.994
605.322
589.697
607.462
638.687
696.3
784.04
904.164
1100.7
1395.83
1529.72
1580.83
1684.73
2981.09
5223.12
5245.46
2999.23
1660.4
1512.47
1477.7
1387.17
1139.01
903.625
769.264
677.216
618.236
585.052
569.368
587.183
619.206
678.423
767.137
900.134
1159.09
1380.32
1458.16
1510.02
1637.26
2930.56
5192.88
5219.78
2942.28
1614.9
1451.21
1409.21
1345
1213.19
919.116
757.44
663.566
603.656
568.203
552.097
570.588
604.966
665.46
757.05
928.831
1215.36
1335.14
1387.47
1449.92
1614.11
2896.75
5171.91
5191.87
2898.83
1595.83
1400.44
1347.2
1299.55
1240.56
992.762
756.854
652.592
593.088
556.331
538.531
558.734
594.181
654.11
757.048
991.654
1211.18
1284.24
1326.05
1395.58
1581.58
2840.44
5154.29
5166.19
2866.89
1587.04
1360.84
1295.65
1250.85
1205.97
1065.07
793.084
645.845
583.058
546.943
528.141
549.285
584.523
647.1
790.506
1056.44
1177.9
1231.14
1274.71
1352.64
1558.17
2792.39
5125.81
5099
2801.44
1559.54
1324.41
1250.15
1202.54
1165.99
1077.43
867.385
653.735
574.987
538.351
519.827
540.729
577.464
659.863
869.34
1066.09
1140.73
1183.33
1231.26
1319.07
1548.36
2750.47
5052.67
4973.86
2722.65
1533.97
1291.48
1211.22
1159.78
1121.29
1053.39
936.101
695.726
573.958
530.983
512.626
533.24
577.456
701.396
924.336
1041.27
1099.24
1140.97
1194.09
1285.91
1520.08
2668.51
4927.17
4598.82
2586.8
1503.23
1257.18
1175.78
1121.81
1078.44
1022.94
948.021
776.144
595.266
528.646
508.725
530.46
599.394
773.513
924.907
1009.93
1058.93
1104.5
1159.74
1250.32
1483.91
2527.29
4564.6
581.094
707.471
740.189
744.179
742.239
740.917
742.525
747.872
757.326
771.539
791.269
815.763
844.456
876.992
912.569
948.071
967.319
906.948
832.677
809.438
802.154
799.411
797.719
796.319
795.003
793.681
792.185
789.475
775.749
685.162
423.024
618.598
670.709
682.91
685.534
688.682
694.467
703.951
716.983
734.052
755.721
781.323
810.536
843.18
879.342
918.093
959.893
980.378
855.808
708.678
668.587
660.49
657.761
656.171
654.852
653.615
651.81
646.764
616.493
458.196
377.114
584.124
636.781
651.266
655.386
661.435
670.408
683.214
699.092
718.495
741.919
768.867
798.896
831.03
864.727
899.723
933.991
965.691
963.52
796.398
642.716
607.135
600.997
599.154
598.188
597.446
596.043
590.163
555.036
386.91
368.727
572.078
622.068
637.175
641.879
650.422
662.297
678.661
698.12
720.68
746.497
774.964
806.103
839.751
875.198
910.089
943.15
973.11
998.793
979.79
763.649
612.888
583.97
579.538
578.365
577.857
576.783
570.75
535.127
367.473
367.344
568.692
618.279
634.288
639.602
650.871
665.604
685.595
708.728
734.319
762.367
792.508
824.437
857.199
891.014
926.626
961.526
992.215
1019.42
1042.82
1001.03
732.665
597.303
575.969
572.81
572.035
571.023
564.934
529.392
361.937
367.388
567.628
617.426
633.248
640.253
654.436
672.772
696.736
723.58
751.888
781.119
812.422
845.084
877.857
911.071
944.742
979.593
1013.5
1043.09
1069.98
1089.53
1005.67
695.72
587.35
573.03
570.832
569.566
563.335
527.657
359.515
367.56
567.979
618.003
633.999
643.635
661.239
683.843
712.051
742.588
773.407
803.481
834.582
868.136
900.779
933.428
966.01
999.469
1034.5
1068.04
1096.68
1124.35
1135.37
976.952
658.385
580.641
571.66
569.43
562.888
526.878
357.75
368.287
570.402
620.983
637.911
651.245
672.626
699.25
731.35
765.228
798.177
828.966
860.262
893.155
926.427
958.674
990.689
1022.95
1056.7
1092.11
1125.05
1153.67
1182.79
1175.97
911.443
625.914
576.268
570.082
562.811
526.326
356.191
370.237
574.133
625.847
645.051
663.254
689.85
721.491
757.628
794.051
828.39
859.603
888.744
921.14
954.353
986.711
1018.13
1049.7
1081.97
1116.62
1152.39
1184.76
1215.62
1245.47
1201.14
820.634
601.738
572.761
563.102
525.895
354.78
372.382
578.583
632.883
656.07
680.359
713.163
750.688
791.282
830.209
865.877
896.943
923.232
952.457
983.542
1016.99
1047.6
1078.67
1110.11
1143.17
1179.06
1215.51
1248.78
1283.68
1309.49
1187.5
728.987
585.799
564.503
525.678
353.524
375.022
584.756
642.472
671.89
704.111
744.211
787.781
831.593
871.744
907.546
937.129
961.672
986.033
1014.21
1047.4
1077.87
1108.57
1139.63
1171.69
1206.39
1244.49
1282.67
1319.35
1358.88
1368.23
1096.63
659.097
570.754
526.077
352.483
377.795
592.447
655.014
693.241
736.213
784.439
834.041
878.581
916.87
949.445
976.508
999.017
1019.45
1044.45
1075.24
1106.55
1136.95
1168.06
1200.05
1233.9
1272.06
1313.64
1354.92
1397.39
1441.42
1407.33
945.841
606.763
528.717
351.849
382.677
603.429
672.166
720.059
772.732
827.528
880.726
924.289
959.01
986.83
1010.45
1030.57
1047.53
1069.5
1096.76
1129.02
1159.63
1191.42
1224.45
1258.9
1297.12
1339.92
1386.14
1432.41
1483.1
1525.92
1393.17
781.322
543.258
352.277
387.531
617.913
694.708
750.988
809.292
866.488
918.873
960.174
990.842
1013.71
1032.63
1049.28
1064.02
1083.29
1107.5
1139.87
1172.15
1205.35
1240.51
1277.26
1316.86
1360.56
1410.14
1462.62
1516.12
1575.13
1593.49
1238.59
624.389
356.31
397.139
639.339
723.176
784.323
843.249
898.249
945.588
981.987
1006.8
1023.78
1038.02
1052.48
1066.38
1082
1104.28
1136.74
1172.05
1207.33
1245.4
1285.47
1327.72
1373.53
1425.62
1483.7
1544.14
1607.37
1669.36
1608.36
944.06
376.283
407.3
666.434
754.569
815.657
868.341
914.966
953.741
983.566
1001.68
1014.78
1026.42
1038.51
1051.49
1063.92
1086.06
1119.09
1157.88
1196.22
1237.61
1281.64
1327.3
1376.76
1431.66
1493.29
1561.46
1631.32
1704.79
1756.01
1457.8
461.752
427.004
698.435
784.99
837.898
878.158
914.341
942.476
963.512
974.739
983.725
994.143
1004.93
1016.95
1031.22
1052.94
1087.01
1128.91
1171.22
1216.26
1264.71
1314.49
1368.86
1427.38
1492.52
1565.93
1644.32
1723.28
1805.54
1758.72
767.014
443.644
729.797
807.179
846.734
872.03
893.901
910.372
922.988
928.768
933.364
941.921
953.308
966.925
984.046
1006.71
1042
1086.8
1132.95
1181.39
1234.52
1289.43
1349.4
1412.51
1481.81
1559.95
1645.67
1732.19
1826.96
1891.08
1152.52
470.878
755.731
815.377
837.593
849.062
860.365
869.71
875.367
871.665
871.262
878.363
891.546
906.397
926.695
949.948
984.088
1031.18
1081.5
1133.05
1191.3
1252.36
1317.57
1386.71
1461.32
1543.52
1634.48
1723.18
1842.51
2003.65
1526.28
489.17
777.294
815.988
823.282
830.16
840.198
845.623
835.496
822.896
817.335
821.374
832.353
843.707
859.952
879.477
911.656
963.094
1017.83
1076.01
1137.72
1204.23
1273.98
1348.71
1429.9
1517.17
1610.54
1713.8
1871.83
2167.38
1842.58
522.559
789.082
815.433
826.73
865.757
877.667
866.65
842.203
818.7
795.647
785.336
780.394
783.217
796.467
813.386
844.889
897.376
953.152
1013.7
1077.69
1147.65
1222.19
1301.29
1387.53
1480.91
1576.38
1697.05
1906.71
2379.92
2119.08
556.832
830.698
867.383
944.514
1022.11
1023.38
995.583
943.535
886.311
818.031
778.209
757.723
752.041
757.906
770.025
795.595
843.52
895.549
953.161
1015.91
1086.61
1163.6
1246.72
1335.99
1433.82
1529.63
1672.61
1957.09
2616.52
2332.92
634.811
914.407
1073.69
1246.21
1350.12
1317.22
1270.27
1174.79
1033.38
903.224
829.435
785.637
760.184
749.77
750.498
764.194
801.097
845.139
896.466
955.622
1025.15
1101.9
1187.25
1278.74
1377.2
1483.56
1647.25
2038.94
2836.3
2383.87
735.686
1335.74
1448.71
1639.83
1726.23
1731.14
1706.21
1528.8
1282.94
1077.14
943.936
863.004
807.022
771.748
753.116
744.625
759.442
794.066
839.643
898.539
965.587
1041.54
1126.24
1219.3
1319.73
1435.84
1627.38
2158.6
3008.49
2369.68
1002.16
2258.71
2074.37
2099.27
2156.31
2164.7
2176.68
1983.79
1665.39
1350.37
1121.25
986.486
890.928
821.179
768.013
738.446
736.151
762.301
798.559
849.923
912.65
985.76
1068.19
1160.19
1261.19
1387.66
1611.28
2321.08
3123.8
2318.34
685.163
775.752
789.48
792.191
793.689
795.012
796.33
797.73
799.417
802.135
809.284
831.96
904.88
966.184
947.554
912.162
876.641
844.153
815.504
791.034
771.387
757.22
747.803
742.488
740.905
742.25
744.202
740.188
707.584
581.261
458.195
616.492
646.764
651.81
653.615
654.852
656.169
657.753
660.452
668.372
707.397
851.884
978.453
958.924
917.253
878.587
842.508
809.942
780.806
755.277
733.684
716.679
703.704
694.266
688.515
685.392
682.784
670.607
618.574
423.054
386.908
555.035
590.163
596.044
597.447
598.188
599.149
600.969
606.967
641.508
791.981
960.932
964.213
932.758
898.631
863.752
830.156
798.129
768.197
741.339
717.992
698.666
682.861
670.117
661.187
655.165
651.062
636.601
583.993
377.06
367.471
535.127
570.75
576.783
577.857
578.361
579.515
583.84
611.819
758.824
976.412
996.893
971.499
941.732
908.832
874.076
838.75
805.206
774.16
745.794
720.067
697.603
678.238
661.953
650.134
641.626
636.944
621.866
571.946
368.654
361.937
529.393
564.934
571.023
572.032
572.793
575.874
596.46
728.039
996.639
1040.53
1017.51
990.474
959.968
925.231
889.742
856.034
823.388
791.571
761.552
733.604
708.127
685.107
665.211
650.546
639.324
634.029
618.036
568.498
367.224
359.514
527.656
563.335
569.564
570.82
572.962
586.759
691.563
999.392
1086.72
1067.74
1041.02
1011.63
977.895
943.181
909.631
876.529
843.876
811.323
780.146
751.02
722.847
696.142
672.301
654.057
639.93
632.957
617.155
567.373
367.214
357.75
526.879
562.887
569.422
571.615
580.265
655.14
968.541
1131.84
1121.79
1094.28
1065.86
1032.5
997.604
964.265
931.801
899.263
866.753
833.295
802.321
772.373
741.707
711.331
683.264
660.791
643.294
633.701
617.724
567.748
367.429
356.192
526.326
562.806
570.053
576.054
623.618
901.925
1171.62
1180.04
1151.03
1122.57
1089.84
1054.59
1020.96
988.82
956.921
924.774
891.649
858.757
827.526
796.927
764.164
730.513
698.633
672.182
650.898
637.615
620.672
570.101
368.069
354.78
525.891
563.084
572.638
600.339
811.895
1195.06
1242.41
1212.79
1181.96
1149.84
1114.26
1079.75
1047.61
1016.16
984.869
952.6
919.535
886.953
858.235
827.314
793.136
756.877
720.866
689.372
662.91
644.771
625.577
573.911
370.129
353.524
525.669
564.436
585.069
722.284
1177.87
1306.06
1280.86
1245.89
1212.76
1176.54
1140.81
1107.9
1076.6
1045.65
1015.19
981.826
950.913
921.843
895.778
864.86
829.344
790.575
750.091
712.753
680.078
655.885
632.732
578.467
372.297
352.477
526.039
570.411
655.131
1083.83
1364.17
1356.23
1316.52
1279.8
1241.87
1204
1169.49
1137.62
1106.73
1076.13
1045.86
1012.71
984.681
960.525
936.115
906.609
870.898
831.05
787.383
743.967
704.027
671.906
642.54
584.825
374.961
351.831
528.565
604.661
933.405
1401.69
1439.09
1394.86
1352.08
1310.98
1269.67
1231.75
1198.16
1166.42
1135.52
1105.2
1074.12
1043.35
1018.35
998.013
975.696
948.849
916.017
878.422
834.108
784.692
736.578
693.626
655.395
592.8
377.961
352.215
542.397
771.994
1383.79
1523.6
1481.06
1429.86
1383.56
1337.59
1295.07
1257.12
1222.97
1190.19
1158.68
1128.18
1096.08
1068.83
1046.18
1029.51
1009.64
986.218
959.02
924.574
881.936
828.768
773.922
721.118
672.928
604.031
383.004
356.069
620.114
1224.19
1590.55
1573.67
1514.1
1460.3
1408
1358.65
1315.21
1275.9
1239.44
1204.47
1171.55
1139.45
1107.11
1082.92
1062.84
1047.49
1031.18
1013.22
991.563
960.948
920.398
868.071
810.809
752.416
695.935
618.852
388.099
375.211
931.486
1603.65
1668.6
1606.2
1542.33
1481.87
1423.92
1372.02
1326.45
1284.47
1244.67
1206.77
1171.7
1136.61
1104.08
1081.49
1066.83
1053.26
1039.2
1025.09
1008.44
983.681
947.342
900.117
845.072
786.073
724.899
640.676
397.992
457.689
1446.86
1755.23
1704.53
1630.3
1560.08
1491.89
1430.32
1375.59
1326.34
1280.89
1237.12
1195.94
1157.75
1119.2
1085.93
1064.65
1052.59
1040.48
1028.27
1017.06
1004.37
986.565
955.553
916.908
870.267
817.639
756.505
668.07
408.346
758.027
1756.63
1806.28
1723.38
1643.77
1565.06
1491.54
1426.42
1368.05
1313.92
1264.33
1216.13
1171.36
1129.15
1087.6
1053.46
1033.3
1018.95
1007.31
996.373
986.245
977.604
965.562
943.781
915.356
879.422
839.917
787.141
700.728
428.464
1145.72
1891.44
1828.37
1732.75
1645.63
1559.5
1481.26
1411.97
1349.01
1289.28
1234.62
1181.81
1133.6
1087.48
1043.44
1008.17
986.843
969.627
955.69
944.278
935.776
931.027
924.255
911.214
894.26
872.289
847.984
809.741
732.74
445.313
1522.31
2004.28
1844.03
1724.07
1634.78
1543.36
1461.12
1386.67
1317.71
1252.68
1191.89
1134.07
1082.43
1032.34
985.865
951.971
929.52
909.228
894.48
881.188
873.466
873.382
875.826
869.656
860.69
849.358
838.366
817.458
758.635
472.602
1841.94
2168.09
1872.99
1714.79
1611.09
1517.31
1430.02
1349.1
1274.54
1204.94
1138.58
1076.75
1019.09
964.521
913.8
882.021
862.341
845.535
834.204
823.955
819.889
824.988
836.552
845.674
841.408
832.312
825.612
818.88
780.282
490.735
2122.77
2382.03
1908.2
1698.28
1577.34
1481.72
1388.13
1302.04
1223.03
1148.62
1078.65
1014.56
954.427
898.84
847.256
816.468
799.19
786.035
782.139
786.462
798.273
821.228
844.432
870.666
883.113
871.132
829.669
818.906
792.252
523.96
2338.4
2621.58
1958.98
1674.36
1531.01
1434.75
1337.06
1247.61
1164.48
1087.41
1016.58
953.639
896.342
844.674
797.541
772.797
760.508
754.832
761.012
780.089
822.53
890.509
948.358
1001.95
1031.64
1036.58
953.01
872.889
834.916
558.41
2389.67
2844.36
2041.81
1649.12
1484.97
1378.62
1279.72
1188.08
1102.47
1025.4
955.66
896.656
845.684
801.825
765.128
752.52
751.751
762.679
789.839
832.462
910.613
1043.48
1185.19
1283.34
1323.38
1356.57
1262.24
1088.87
921.568
637.697
2375.39
3019.12
2162.64
1629.55
1437.48
1321.09
1220.26
1126.83
1041.78
965.673
898.446
840.568
795.098
760.037
744.358
753.536
773.334
809.138
868.403
947.249
1085.46
1299.23
1545.35
1720.12
1739.81
1734.55
1658.56
1472.01
1355.27
740.017
2323.44
3136.06
2327.09
1613.78
1389.25
1262.35
1160.83
1068.39
985.878
913.152
850.691
799.144
761.791
737.625
739.133
769.332
823.848
893.382
993.747
1124.49
1360.26
1686.8
2010.87
2188.37
2166.82
2171.35
2127.04
2110.75
2285.16
1014.62
300.524
300.88
301.249
301.617
301.984
302.351
302.718
303.085
303.452
303.818
304.184
304.55
304.915
305.281
305.646
306.011
306.376
306.74
307.105
307.469
307.833
308.196
308.56
308.923
309.286
309.649
310.011
310.374
310.736
311.097
311.459
311.82
312.182
312.543
312.903
313.264
313.624
313.984
314.344
314.704
315.063
315.422
315.781
316.14
316.498
316.856
317.214
317.572
317.93
318.287
318.644
319.001
319.358
319.714
320.07
320.426
320.79
321.281
324.136
378.487
985.972
2543.78
3979.45
4945.86
5643.27
6171.6
6474.37
6405.95
6251.98
6086.65
5903.19
5648
5332.27
5001.85
4693.33
4425.11
4184.67
3965.55
3770.02
3596.37
3440.63
3299.15
3167.46
3043.49
2928.92
2822.35
2721.58
2626.7
2537.54
2454.21
2376.65
2304.07
2235.79
2171.18
2110.23
2053.43
2000.96
1951.72
1909.87
1875.1
1846.7
1822.69
1802.75
1787.47
1776.01
1767.39
1761.2
1757.21
1755.66
1756.06
1758.08
1763.05
1771.62
1784.71
1802.65
1825.29
1852.63
1884.34
1918.95
1956.28
1999.63
2049.11
2099.72
2172.04
2249.47
497.111
497.385
497.632
497.87
498.107
498.342
498.576
498.81
499.043
499.275
499.506
499.737
499.967
500.196
500.424
500.652
500.879
501.105
501.331
501.556
501.78
502.003
502.226
502.448
502.669
502.89
503.11
503.329
503.547
503.765
503.982
504.199
504.414
504.629
504.844
505.057
505.27
505.482
505.694
505.905
506.115
506.325
506.534
506.742
506.95
507.157
507.363
507.568
507.773
507.978
508.181
508.384
508.587
508.788
508.99
509.203
509.667
519.197
730.424
2104.93
3732.51
4362.52
4392.17
4381.49
4400.25
4475.44
4636.69
4877.28
5179.64
5530.51
5914.48
6346.77
6828.19
6941.87
6867.47
6684.05
6396.04
6058.43
5705.38
5364.62
5053.39
4772.57
4523.87
4311.01
4124.98
3959.73
3809.42
3670.77
3543.93
3427.56
3319.05
3216.82
3121.65
3033.75
2951
2872.61
2800.25
2735.69
2678.67
2629.68
2586.29
2546.19
2509.52
2478.08
2452.96
2432.24
2414.43
2398.59
2384.7
2373.56
2366.67
2365.38
2371.58
2387.48
2413.97
2451.73
2505.5
2571.61
2647.68
2733.88
2841.1
2967.99
3111.72
3218.41
3194.57
552.05
552.174
552.283
552.387
552.489
552.591
552.692
552.793
552.893
552.992
553.091
553.189
553.286
553.383
553.48
553.575
553.671
553.765
553.859
553.953
554.046
554.138
554.23
554.321
554.412
554.502
554.592
554.681
554.77
554.858
554.946
555.033
555.119
555.205
555.291
555.376
555.46
555.544
555.628
555.711
555.793
555.875
555.957
556.038
556.118
556.198
556.278
556.357
556.435
556.514
556.591
556.669
556.745
556.822
556.915
557.426
577.83
996.162
2932.27
4281.16
4378.36
4127.92
3877.6
3699.32
3535.43
3424.18
3387.99
3434.02
3557.83
3766.45
4071.76
4498.06
5053.68
5697.27
6404.71
7131.82
7829.36
8386.46
8777.89
8794.99
8605.17
8288.83
7851.96
7277.09
6735.93
6262.84
5860.87
5517.19
5220.2
4963.28
4736.43
4534.52
4354.99
4194.56
4047.67
3912.59
3790.14
3680.81
3584.95
3500.17
3425.15
3360.04
3300.63
3255.02
3221.96
3196.81
3176.68
3159.58
3145.69
3135.01
3128.4
3125.22
3130.3
3149.88
3188.26
3242.59
3304.81
3368.84
3417.16
3411.91
3323.86
3166.94
2952.89
2731.67
2519.6
566.407
566.445
566.478
566.509
566.54
566.57
566.6
566.629
566.658
566.687
566.716
566.744
566.772
566.8
566.828
566.855
566.882
566.909
566.936
566.962
566.988
567.014
567.04
567.065
567.091
567.116
567.14
567.165
567.189
567.213
567.237
567.26
567.284
567.307
567.33
567.353
567.375
567.398
567.42
567.442
567.463
567.485
567.506
567.527
567.548
567.569
567.589
567.61
567.63
567.65
567.67
567.689
567.709
567.748
568.374
601.298
1237.69
3432.3
4496.79
4410.09
4082.24
3782.23
3538.59
3331.92
3159.91
3030.61
2942.18
2882.97
2855.31
2852.87
2881.12
2955.04
3067.72
3220.87
3429.21
3691.41
4003.37
4370.77
4784.49
5228.75
5692.42
6151.16
6576.75
6964.03
7158.28
7181.91
7014.03
6751.91
6399.93
6015.7
5675.59
5375.04
5113.72
4894.49
4707.04
4538.86
4387.16
4250.86
4127.15
4016.78
3915.97
3818.58
3731.14
3658.72
3602.65
3556.28
3516.06
3479.09
3444.18
3409.33
3368.98
3318.38
3238.1
3094.26
2915.2
2709.23
2482.92
2246.05
2013.9
1833.83
1728.48
1664.3
1626.81
1610.42
1606.91
569.365
569.374
569.381
569.388
569.394
569.401
569.407
569.413
569.419
569.425
569.431
569.437
569.443
569.448
569.454
569.46
569.465
569.471
569.476
569.481
569.487
569.492
569.497
569.502
569.507
569.512
569.517
569.521
569.526
569.531
569.535
569.54
569.544
569.549
569.553
569.558
569.562
569.566
569.57
569.574
569.578
569.582
569.586
569.59
569.594
569.598
569.602
569.605
569.609
569.613
569.616
569.62
569.642
570.357
612.949
1414.87
3706.75
4585.54
4412.49
4063.54
3738.49
3476.43
3259.23
3079.86
2933.64
2841.22
2780.6
2749.64
2745.77
2765.66
2799.82
2855.41
2924.19
3003.14
3080.36
3156.58
3230.9
3306.38
3377.81
3469.02
3603.26
3779.21
3992.54
4255.46
4540.74
4832.86
5131.44
5388.83
5650.16
5848.56
5941.64
5931.53
5846.05
5719.89
5583.16
5437.15
5277.3
5106.92
4932.57
4767.95
4612.16
4454.27
4311.12
4172.2
4023.67
3858.96
3670.85
3454.53
3206.74
2931.38
2629.57
2318.27
2024.14
1799.69
1614.85
1465.66
1356.82
1279.32
1230.08
1206.87
1205.41
1222.94
1254.08
1294.77
1341.68
569.843
569.845
569.846
569.847
569.848
569.849
569.85
569.851
569.852
569.853
569.854
569.855
569.856
569.857
569.857
569.858
569.859
569.86
569.861
569.862
569.862
569.863
569.864
569.865
569.865
569.866
569.867
569.868
569.868
569.869
569.87
569.87
569.871
569.872
569.872
569.873
569.874
569.874
569.875
569.875
569.876
569.876
569.877
569.878
569.878
569.879
569.879
569.88
569.88
569.881
569.882
569.898
570.593
615.714
1493.66
3842.87
4620.21
4399.26
4044.17
3712.93
3437.4
3217.98
3043.33
2899.21
2812.97
2768.72
2754.48
2769.91
2809.63
2873.46
2953.28
3051.28
3145.18
3233.67
3299.43
3333.93
3336.96
3323.39
3288.16
3251.61
3215.51
3184.46
3156.51
3148.35
3148.84
3167.18
3198.1
3240.82
3307.62
3388.81
3460.86
3541.03
3620.13
3679.5
3727.74
3764.62
3780.75
3778.52
3743.14
3658.57
3529.93
3357.42
3155.24
2935.37
2714.7
2497.82
2286.87
2083.11
1892.92
1722.16
1572.27
1439.85
1327.76
1233.81
1157.39
1096.68
1052.48
1024.94
1012.36
1014.42
1030.18
1058.86
1098.53
1145.9
1203.96
569.906
569.906
569.906
569.906
569.906
569.906
569.907
569.907
569.907
569.907
569.907
569.907
569.907
569.907
569.907
569.908
569.908
569.908
569.908
569.908
569.908
569.908
569.908
569.908
569.908
569.909
569.909
569.909
569.909
569.909
569.909
569.909
569.909
569.909
569.909
569.909
569.909
569.91
569.91
569.91
569.91
569.91
569.91
569.91
569.91
569.91
569.91
569.91
569.91
569.911
569.922
570.485
609.743
1456.95
3852.73
4635.27
4396.75
4033.68
3699.99
3429.1
3196.83
3019.17
2890.23
2801.59
2772.1
2786.09
2827.33
2900.29
2999.4
3126.08
3278.3
3448.79
3589.11
3697.65
3760.64
3749.46
3670.05
3575.94
3479.67
3389.49
3302.42
3224.28
3140.28
3077.86
3022.54
2974.8
2934.9
2891.15
2848.45
2809.03
2768.86
2736.56
2708.93
2684.21
2661.67
2644.62
2626.48
2602.45
2567.74
2518.36
2453.85
2374.9
2284.2
2185.27
2081.67
1976.58
1872.36
1767.89
1663.33
1559.13
1456.01
1356.52
1264
1179.81
1106.44
1044.29
995.709
961.699
943.277
939.144
948.853
971.312
1005.73
1051.33
1104.43
569.913
569.913
569.913
569.913
569.913
569.913
569.913
569.913
569.913
569.913
569.913
569.913
569.913
569.913
569.913
569.913
569.913
569.913
569.913
569.913
569.913
569.913
569.913
569.913
569.913
569.913
569.913
569.913
569.913
569.913
569.913
569.913
569.913
569.913
569.913
569.913
569.913
569.913
569.913
569.913
569.913
569.913
569.913
569.913
569.913
569.913
569.913
569.913
569.913
569.92
570.301
598.257
1314.29
3737.27
4634.99
4409.99
4043.21
3707.19
3421.58
3185.19
3009.41
2885.92
2807.14
2779.75
2807.93
2878.05