/*--------------------------------*- C++ -*----------------------------------*\
| =========                 |                                                 |
| \\      /  F ield         | OpenFOAM: The Open Source CFD Toolbox           |
|  \\    /   O peration     | Version:  2112                                  |
|   \\  /    A nd           | Website:  www.openfoam.com                      |
|    \\/     M anipulation  |                                                 |
\*---------------------------------------------------------------------------*/
FoamFile
{
    version     2.0;
    format      ascii;
    arch        "LSB;label=32;scalar=64";
    class       volVectorField;
    location    "0.00277";
    object      U;
}
// * * * * * * * * * * * * * * * * * * * * * * * * * * * * * * * * * * * * * //

dimensions      [0 1 -1 0 0 0 0];

internalField   nonuniform List<vector> 
13875
(
(2204.21 109.702 1.81255e-18)
(2142.58 5.62311 -9.3856e-19)
(2170.12 -2.22525 -9.41178e-19)
(2168.29 -1.22729 0)
(2170.82 0.0873956 0)
(2169.59 -0.100444 9.36425e-19)
(2169.55 -0.417114 -9.36833e-19)
(2169.72 -1.4275 -4.68493e-19)
(2169.54 -1.12236 4.68136e-19)
(2169.68 -0.0414169 0)
(2169.43 0.200564 -3.88285e-22)
(2169.32 0.212619 -3.88271e-22)
(2169.22 0.454457 0)
(2169.47 0.0873875 -4.68271e-19)
(2169.28 -0.279051 4.68707e-19)
(2169.62 0.204875 0)
(2169.47 0.720929 9.36649e-19)
(2170.27 0.854684 -9.36545e-19)
(2169.71 0.399265 3.85519e-22)
(2169.59 0.0315918 -3.855e-22)
(2170.97 -0.223884 -9.35748e-19)
(2167.9 0.452164 9.36939e-19)
(2170.99 2.5568 -1.8782e-18)
(2143.65 -8.61479 1.91646e-18)
(2210.11 -106.63 1.76442e-18)
(2253.4 91.9146 -1.63233e-18)
(2228.51 -1.12341 1.88344e-18)
(2247.28 0.635709 8.71845e-19)
(2245.6 1.38469 -8.67242e-19)
(2248.53 -0.441743 4.16352e-22)
(2248.13 0.499895 5.20503e-22)
(2248.06 0.542842 4.16202e-22)
(2247.75 1.88216 -4.36333e-19)
(2245.44 1.42759 4.33351e-19)
(2245.12 -0.0968164 2.17485e-19)
(2245.09 -0.23593 -1.62948e-19)
(2245.12 -0.0167539 -5.31577e-20)
(2245.31 -0.5641 0)
(2246.37 -0.184611 -4.36813e-19)
(2245.35 0.34377 4.34046e-19)
(2245.3 -0.313249 4.35385e-19)
(2245.61 -1.18459 -4.3609e-19)
(2248.09 -1.12167 5.19572e-22)
(2248.22 -0.309298 -5.20334e-22)
(2248.14 -0.44725 5.20188e-22)
(2248.66 0.686585 -8.71027e-19)
(2245.53 -0.738949 2.60014e-18)
(2247.2 -1.60298 -1.74273e-18)
(2228.85 3.68005 5.42915e-22)
(2256.31 -97.1957 -1.71403e-18)
(2252.44 78.1007 0)
(2236.42 -18.221 0)
(2249.35 4.36239 0)
(2250.94 -2.01731 0)
(2254.16 -3.04046 -1.65427e-18)
(2253.91 -0.653853 1.64346e-18)
(2254.18 0.303723 1.63991e-18)
(2254.29 2.14204 -2.45749e-18)
(2253.84 2.36741 8.59936e-19)
(2253.53 0.37074 4.3063e-22)
(2253.05 -0.105496 -4.31083e-19)
(2252.92 -0.382753 4.30655e-19)
(2252.92 -1.21045 0)
(2253.22 0.181141 0)
(2252.72 1.35652 4.30261e-22)
(2252.86 -0.101626 0)
(2253.14 -2.59544 8.38938e-22)
(2254.44 -2.55004 4.09382e-19)
(2254.3 -0.31136 -4.09989e-19)
(2253.98 0.57516 0)
(2254.35 2.97087 0)
(2251 1.38242 0)
(2250.61 -4.77457 0)
(2237.86 13.8204 0)
(2257.06 -74.5134 0)
(2247.87 51.3444 0)
(2235.04 -28.5554 1.8145e-18)
(2249.13 7.14531 -3.41728e-18)
(2251.66 -4.73351 3.46503e-18)
(2253.81 -3.82773 -1.65599e-18)
(2253.76 -0.963099 0)
(2254.16 0.236987 -7.8889e-22)
(2254.27 2.01807 0)
(2254.39 2.18783 0)
(2254.33 0.96904 0)
(2253.83 0.560141 0)
(2253.55 0.0198385 -8.4347e-22)
(2253.07 -1.04772 -5.35089e-20)
(2253.18 0.156797 5.06111e-20)
(2253.16 1.10448 0)
(2253.66 -0.73496 0)
(2253.98 -2.89793 8.39221e-22)
(2254.4 -2.60961 -7.99985e-19)
(2254.25 -0.31904 8.01315e-19)
(2253.86 0.842229 -1.62593e-18)
(2254.1 3.59707 1.63299e-18)
(2252.03 4.68269 1.7411e-18)
(2249.7 -8.8076 -1.7205e-18)
(2235.73 31.2488 0)
(2251.88 -58.3977 0)
(2244.93 39.2992 1.74894e-18)
(2235.51 -47.7604 0)
(2248.61 10.3769 0)
(2250.66 -8.25826 0)
(2254.18 -5.44584 0)
(2253.87 -1.72529 1.66115e-21)
(2254.11 0.00442145 1.6361e-21)
(2254.29 1.65132 4.2617e-19)
(2254.37 1.79128 -4.24768e-19)
(2254.3 1.26043 2.14123e-19)
(2253.9 1.1642 -2.17328e-19)
(2253.62 0.436745 0)
(2253.01 -0.975966 0)
(2253.07 0.156 -1.6464e-21)
(2253.1 0.981082 0)
(2253.68 -1.14159 -1.68707e-21)
(2254.02 -3.08489 8.53898e-19)
(2254.34 -2.58731 -8.17543e-19)
(2254.15 -0.232081 1.65111e-18)
(2253.9 1.54502 -1.68885e-18)
(2254.34 5.03525 1.66536e-21)
(2250.78 6.91982 0)
(2249.94 -11.4185 0)
(2237.24 42.72 0)
(2250.62 -35.3719 0)
(2241.49 6.7798 0)
(2231.52 -63.3875 9.12608e-19)
(2247.05 12.1734 -8.4808e-19)
(2250.94 -11.6067 0)
(2253.02 -6.37541 8.61322e-19)
(2253.2 -2.2415 -4.31557e-19)
(2253.78 -0.136615 -2.22044e-21)
(2254.04 1.41598 -2.16489e-19)
(2254.19 1.59388 -4.32298e-19)
(2254.1 1.81293 1.63437e-19)
(2253.79 1.99802 1.56105e-21)
(2253.55 1.03479 2.68795e-19)
(2252.9 -0.790816 -2.14594e-19)
(2252.92 0.0169742 3.35163e-21)
(2253.1 0.686742 -4.29624e-19)
(2253.63 -1.83244 4.34617e-19)
(2253.85 -3.31876 1.64007e-21)
(2254.11 -2.59342 -1.61954e-21)
(2253.82 -0.252243 -1.62553e-21)
(2253.28 1.87153 -8.50108e-19)
(2253.33 5.64439 8.52439e-19)
(2251.49 11.4485 0)
(2247.33 -15.0111 0)
(2232.41 65.2001 -1.9332e-18)
(2246.02 -19.1179 -1.26398e-19)
(2254.19 2.943 -4.95283e-20)
(2227.51 -79.1729 6.0241e-20)
(2242.9 12.1063 0)
(2248.78 -16.6475 -2.69118e-23)
(2252.66 -8.70026 -2.62318e-23)
(2252.92 -3.73814 0)
(2253.45 -0.801473 0)
(2253.75 0.746928 -8.4734e-19)
(2253.81 1.14579 8.52981e-19)
(2253.7 1.8918 0)
(2253.52 2.29081 1.72754e-18)
(2253.36 1.56096 4.48285e-21)
(2252.68 -0.529204 -1.73051e-18)
(2252.68 -0.00492321 -1.708e-21)
(2252.89 0.269468 0)
(2253.46 -2.25997 3.44693e-18)
(2253.6 -3.23048 -5.40091e-22)
(2253.83 -2.14888 -6.68256e-18)
(2253.45 0.349901 3.35361e-18)
(2252.94 3.33083 2.59119e-23)
(2252.83 8.02491 0)
(2248.62 13.8309 3.53145e-18)
(2244.05 -12.36 -3.3115e-18)
(2228.82 72.7673 3.81565e-18)
(2247.04 2.79535 -3.18422e-18)
(2218.03 -22.8384 -3.17271e-19)
(2214.56 -87.2163 -7.50067e-18)
(2235.3 3.44485 8.72204e-22)
(2245.99 -23.2309 2.61605e-23)
(2248.96 -10.8038 -8.09951e-22)
(2250.63 -4.82184 0)
(2251.99 -1.20584 -3.35247e-18)
(2252.73 0.5938 3.37411e-18)
(2253 1.24976 0)
(2252.91 2.26742 -8.34688e-22)
(2252.84 2.76007 -8.41437e-22)
(2252.94 2.1318 0)
(2252.28 -0.101387 0)
(2252.19 -0.212985 -1.6521e-21)
(2252.52 -0.33156 -8.46595e-22)
(2252.98 -3.02774 2.61353e-23)
(2252.88 -3.33597 -8.48374e-22)
(2252.87 -2.02271 -2.55558e-23)
(2252.11 0.628926 -1.68693e-18)
(2250.83 4.24 -1.34843e-20)
(2249.47 9.89226 1.68967e-18)
(2246.33 20.3147 8.88367e-22)
(2236.64 -4.47832 3.46056e-18)
(2216.36 81.4949 -3.53801e-18)
(2221.88 18.1288 2.50443e-23)
(2111.79 -38.0065 9.42526e-19)
(2168.4 -98.4514 0)
(2216.66 -20.3493 -8.31448e-22)
(2235.17 -33.1205 -8.64899e-19)
(2245.38 -19.9393 1.70598e-18)
(2248.46 -9.83029 -1.70501e-18)
(2250.31 -3.97291 7.65184e-21)
(2251.28 -1.09191 8.47822e-19)
(2251.59 0.37294 0)
(2251.58 1.72425 -8.53111e-19)
(2251.58 2.53684 8.59343e-19)
(2251.77 2.71537 0)
(2251.27 0.540771 0)
(2251.08 -0.161299 2.08791e-21)
(2251.43 -0.836601 8.38349e-22)
(2251.8 -3.09034 8.54353e-19)
(2251.64 -2.52448 -8.47678e-19)
(2251.5 -0.525739 0)
(2250.39 2.81232 8.53283e-19)
(2248.68 8.51587 -1.70493e-18)
(2246.01 17.2298 8.46269e-19)
(2236.15 29.6988 -8.40075e-22)
(2218.4 16.8207 0)
(2170.72 93.9372 0)
(2115.77 35.4461 0)
(1868.09 -142.784 -6.59328e-17)
(2123.77 -160.43 8.45489e-17)
(2196.48 -54.9111 0)
(2226.15 -57.3143 -2.96848e-17)
(2237.45 -23.235 3.08455e-17)
(2243.56 -11.5248 0)
(2246.66 -4.58976 -3.00539e-20)
(2248.17 -0.970997 -1.47807e-17)
(2248.66 0.931474 1.48399e-17)
(2248.75 2.0094 -3.00629e-20)
(2248.89 2.50862 0)
(2249.18 2.98112 -3.72936e-18)
(2248.86 1.19933 5.56232e-18)
(2248.64 -0.354659 -1.89223e-18)
(2248.93 -1.52871 -2.95709e-20)
(2249.15 -3.51644 0)
(2248.86 -2.50161 0)
(2248.36 -0.392548 -2.96932e-17)
(2246.72 3.5477 2.95987e-17)
(2243.66 10.1859 -3.02193e-17)
(2238.8 21.829 2.95598e-17)
(2227.17 54.6015 3.21941e-17)
(2198.68 53.5512 -2.93128e-17)
(2127.48 162.787 -8.35341e-17)
(1880.98 139.197 -1.26455e-17)
(1649.85 -223.943 -9.10013e-17)
(2009.81 -309.637 1.38283e-16)
(2153.48 -111.062 0)
(2201.89 -64.079 6.92195e-17)
(2227.36 -31.6492 -7.15792e-17)
(2235.39 -17.1628 -3.34867e-17)
(2239.82 -7.81429 3.43113e-17)
(2241.81 -3.15288 -3.36948e-17)
(2242.62 -0.321856 3.40213e-17)
(2242.87 0.999263 3.28126e-20)
(2243.12 1.79297 0)
(2243.51 3.00472 -2.12631e-18)
(2243.42 1.7244 2.16125e-18)
(2243.22 -0.079242 3.286e-20)
(2243.37 -1.51845 3.28852e-20)
(2243.41 -2.71894 3.40477e-20)
(2242.99 -1.40675 0)
(2242.14 1.9486 0)
(2240.13 6.23288 -6.89114e-17)
(2235.55 15.1357 6.73491e-17)
(2228.38 27.5375 -7.21483e-17)
(2206.39 58.884 1.47507e-16)
(2160.61 99.5006 -7.07001e-17)
(2011.79 299.409 -3.89248e-20)
(1690.42 206.622 8.82775e-20)
(1239.89 -579.481 -1.15021e-16)
(1744.42 -578.871 1.17934e-16)
(2001.49 -169.023 2.24532e-16)
(2154.98 -114.713 -9.58848e-17)
(2196.43 -37.5267 0)
(2212.52 -15.0072 7.5174e-17)
(2222.38 -5.9119 -7.66358e-17)
(2225.87 -0.514712 0)
(2227.93 1.06507 3.55741e-20)
(2228.68 1.57497 0)
(2229.09 1.78678 0)
(2229.57 2.55838 0)
(2229.74 2.0526 4.71514e-18)
(2229.63 0.0965263 -4.71538e-18)
(2229.56 -1.72142 -4.00057e-20)
(2229.25 -3.10786 -3.5302e-20)
(2228.44 -2.49231 0)
(2226.31 -0.390596 0)
(2222.9 5.24278 0)
(2211.74 12.2408 -7.90534e-17)
(2198.88 35.4304 1.60171e-16)
(2161.92 103.318 -7.45834e-17)
(2035.96 163.198 -1.33234e-16)
(1746.35 590.644 1.01628e-16)
(1272.24 550.727 -6.01396e-20)
(1266.95 -624.278 1.70463e-16)
(1137.54 -1044.54 0)
(1531.92 -566.342 0)
(1866.52 -142.122 -1.1481e-16)
(2108.03 -78.9279 1.17215e-16)
(2153.99 -52.0395 0)
(2168.64 -25.196 1.38473e-20)
(2178.7 -14.1504 4.32495e-17)
(2183.75 -5.95394 -4.37665e-17)
(2185.39 -2.34339 0)
(2185.91 -0.519336 -1.08049e-17)
(2186.53 1.70148 1.08373e-17)
(2186.59 1.55292 -5.43222e-18)
(2186.83 0.885833 5.44186e-18)
(2186.39 -0.0271675 3.90921e-20)
(2185.62 0.679464 -4.29687e-17)
(2183.67 4.3631 8.64448e-17)
(2178.36 13.128 1.07791e-18)
(2168.14 24.7642 -4.33608e-17)
(2151.64 53.1493 -9.58008e-17)
(2094.38 61.4254 8.91165e-17)
(1866.98 99.4618 8.66263e-20)
(1634.21 493.933 2.77381e-20)
(1103.47 1052.94 1.69491e-16)
(1305.13 615.988 7.42747e-18)
(1326.92 -631.66 0)
(1158.29 -1027.24 0)
(1221.46 -735.536 0)
(1107.72 -837.017 0)
(1910.67 -258.778 0)
(1901.64 -16.4416 1.25705e-16)
(1949.18 16.8924 -1.28834e-16)
(1998.39 18.9758 1.90342e-19)
(2020.19 7.81162 -1.13575e-20)
(2026.91 4.11221 2.78016e-17)
(2026.8 3.29338 -2.81437e-17)
(2029.88 0.633676 -3.63238e-19)
(2026.74 1.88191 -8.73587e-19)
(2028.85 -0.411149 1.03922e-18)
(2026.56 -1.22334 -2.80521e-17)
(2024.26 -3.95361 2.79446e-17)
(2014.81 -8.21109 1.7129e-19)
(1990.92 -15.9058 0)
(1936.38 -13.8482 0)
(1888.95 33.634 0)
(1874.53 325.495 -2.15177e-16)
(1099.18 817.831 -5.58918e-17)
(1246.1 701.871 1.67276e-16)
(1136.55 992.502 2.0689e-20)
(1348.73 621.561 2.0901e-20)
(1400.57 -617.662 0)
(1256.4 -891.245 4.14296e-20)
(1261.86 -731.814 0)
(1127.33 -825.118 -1.74728e-16)
(1219.32 -681.111 3.45436e-16)
(1137.46 -609.027 -2.31771e-16)
(1186.34 -416.37 0)
(1454.43 -219.985 -1.54299e-19)
(1412.12 -102.896 0)
(1439.37 -37.2744 0)
(1399.54 -24.2419 -2.90227e-17)
(1426.19 -0.293451 2.9544e-17)
(1391.48 -3.03536 2.96586e-17)
(1418.17 3.76 -2.94508e-17)
(1397.62 15.5664 0)
(1420.26 40.137 -1.17972e-16)
(1388.9 105.782 1.16251e-16)
(1425.54 210.651 1.19808e-16)
(1197.38 425.809 -1.09157e-16)
(1102.52 600.639 0)
(1193.36 687.311 0)
(1104.07 812.127 -1.72575e-19)
(1274.51 696.631 -1.73382e-16)
(1255.3 868.828 3.78709e-16)
(1391.04 615.82 -1.73839e-16)
(1470.56 -612.285 -1.75218e-16)
(1360.45 -808.195 1.89698e-16)
(1316.28 -643.647 0)
(1161.54 -648.87 -2.38625e-16)
(1179.68 -530.906 -4.34882e-17)
(926.543 -405.26 3.54086e-16)
(509.292 -120.431 -2.54193e-16)
(482.933 -106.371 1.35891e-16)
(268.221 -10.3553 0)
(266.709 -18.2263 0)
(163.568 1.21271 -4.30325e-20)
(219.986 -1.87499 1.6068e-19)
(140.605 9.1794 0)
(204.738 -0.690145 0)
(168.392 11.0442 6.67284e-17)
(233.946 15.9832 -6.80707e-17)
(254.892 11.4641 -1.34108e-16)
(456.39 99.6093 2.7586e-16)
(489.534 116.918 -6.53604e-18)
(859.259 351.887 -1.32989e-16)
(1155.19 524.526 0)
(1142.9 651.179 0)
(1312.62 613.744 -1.89085e-16)
(1313.49 810.265 2.15362e-16)
(1450.84 618.377 -4.57686e-20)
(1574.88 -546.321 1.68739e-16)
(1487.09 -625.744 -9.68442e-20)
(1469.05 -451.895 1.07833e-16)
(1307.77 -371.73 -9.93124e-17)
(1232.65 -248.081 -5.13134e-20)
(978.16 -129.206 1.21878e-19)
(632.693 -61.8447 1.2934e-16)
(599.515 -132.137 -1.99827e-16)
(473.988 -74.9361 6.75641e-17)
(469.473 -79.4452 0)
(444.943 -42.5158 -3.29056e-17)
(461.113 -31.5927 3.29705e-17)
(443.495 -4.71941 0)
(456.077 16.0827 5.90591e-20)
(443.985 33.2641 -3.31974e-17)
(454.654 64.5781 3.30573e-17)
(459.961 75.7879 0)
(579.688 121.373 -1.34088e-16)
(601.537 86.0111 1.30868e-16)
(891.141 120.784 1.19202e-16)
(1204.09 255.63 -2.19291e-16)
(1266.21 359.979 1.20796e-16)
(1434.98 445.313 0)
(1464.05 657.063 1.78613e-16)
(1564.45 567.262 -9.90983e-18)
(1710.6 -400.187 -6.29259e-18)
(1612.72 -253.828 9.65586e-17)
(1451.2 -172.747 -4.41408e-17)
(1323.76 -37.4781 -5.77879e-17)
(1305.71 -105.955 7.90744e-17)
(1119.34 -165.336 -5.75549e-17)
(901.699 -178.405 6.28873e-17)
(886.436 -164.986 -6.39003e-17)
(821.932 -126.444 -8.77709e-20)
(777.806 -100.683 3.22615e-17)
(741.588 -51.2819 1.60414e-17)
(749.154 -33.1562 -5.68174e-20)
(724.11 4.4776 -1.60998e-17)
(743.928 32.5555 -6.22269e-20)
(743.674 59.101 -7.71876e-20)
(774.48 101.741 -2.0148e-18)
(827.273 139.533 1.40721e-21)
(895.991 167.838 5.9835e-18)
(921.844 175.346 -3.8811e-18)
(1109.92 155.48 0)
(1287.66 116.09 1.29524e-17)
(1300.4 60.7125 -4.00294e-17)
(1451.61 169.007 4.87675e-17)
(1606.15 276.001 -6.84464e-17)
(1704.56 422.101 6.45176e-17)
(1811.35 -286.237 -1.04439e-19)
(1761.91 38.3636 -1.38105e-19)
(1611.66 108.195 1.62413e-19)
(1471.15 7.54101 -7.14339e-21)
(1466.35 -65.2318 -1.69414e-19)
(1381.98 -123.214 -1.95937e-19)
(1172.35 -156.143 -7.97913e-21)
(1055.66 -145.35 0)
(974.421 -97.9733 0)
(923.86 -83.8612 6.46202e-17)
(871.877 -46.5107 -6.41647e-17)
(869.213 -30.9289 -8.26822e-21)
(844.18 -0.56556 8.25495e-21)
(862.423 27.2484 -8.2969e-18)
(868.424 48.8307 8.06943e-18)
(912.375 79.5431 0)
(968.149 101.469 0)
(1039.41 141.079 -6.20088e-17)
(1141.19 160.414 6.01352e-17)
(1350.98 133.336 -1.88492e-19)
(1441.39 99.0874 0)
(1450.44 17.4573 0)
(1610.08 -96.2189 -1.67561e-19)
(1752.84 -37.7686 -1.42159e-19)
(1805.18 300.907 1.52589e-16)
(1783.76 172.535 -1.68693e-16)
(1711.91 401.729 -2.27331e-16)
(1677.72 372.685 1.38625e-16)
(1620.47 223.832 0)
(1606.06 59.7476 2.22502e-19)
(1552.15 -24.3703 1.06532e-16)
(1395.61 -58.4258 -2.17956e-16)
(1234.19 -72.0785 1.14971e-16)
(1113.2 -54.6304 -1.27242e-16)
(1041.57 -51.8342 1.26413e-16)
(983.139 -30.0718 3.21051e-17)
(967.943 -20.8351 -3.99429e-17)
(946.887 0.73424 -8.04209e-18)
(961.396 20.0599 1.62775e-17)
(978.7 34.2452 0)
(1029.66 50.3304 0)
(1103.7 61.3121 1.24196e-16)
(1214.26 75.4339 -2.41338e-16)
(1371.93 72.4926 1.15512e-16)
(1534.08 41.5862 2.26763e-19)
(1594.35 -34.862 1.93009e-16)
(1618.87 -207.775 -2.16969e-17)
(1695.71 -344.49 -4.71686e-16)
(1713.51 -390.919 5.58802e-16)
(1781.78 -209.152 -2.97829e-16)
(1493.83 530.619 1.14219e-19)
(1515.42 878.633 -1.97852e-16)
(1720.17 601.123 1.25837e-16)
(1712.35 385.71 0)
(1694.46 205.734 0)
(1650.62 112.699 0)
(1518.75 69.1837 0)
(1368 21.3952 0)
(1242.22 5.64472 -5.48466e-17)
(1159.88 -16.277 1.11029e-16)
(1090.05 -7.36867 -8.39672e-17)
(1070.27 -8.85132 3.14741e-17)
(1047.61 2.36154 -3.52659e-18)
(1064.77 11.085 1.3013e-20)
(1086.56 13.9377 -5.59271e-17)
(1152.07 19.1514 5.68061e-17)
(1237.13 4.36189 0)
(1355.49 -15.0376 0)
(1507.22 -55.3727 -1.74651e-16)
(1642.46 -101.892 1.89019e-16)
(1690.31 -188.893 -1.70568e-19)
(1715.86 -380.875 6.99582e-20)
(1718.85 -604.425 -9.32774e-20)
(1550.2 -838.851 -7.28531e-20)
(1483.49 -555.539 0)
(1180.55 836.54 -1.84821e-16)
(1569.57 1003.12 1.18349e-16)
(1779.93 750.171 -1.31351e-19)
(1762.15 540.999 1.50573e-16)
(1748.89 344.782 -1.29924e-16)
(1705.13 241.76 0)
(1597.84 183.362 -8.42208e-17)
(1465.15 111.734 8.26493e-17)
(1342.54 66.6636 -4.76782e-17)
(1258.34 30.0158 9.6744e-17)
(1190.64 19.4513 -4.82272e-17)
(1164.94 5.38079 1.80822e-19)
(1146.7 3.23349 0)
(1161.35 -1.86253 2.45733e-17)
(1191 -11.6878 2.37094e-17)
(1256.97 -26.9746 -4.91905e-17)
(1344.48 -58.5471 -9.10255e-17)
(1460.37 -109.964 9.0375e-17)
(1591.61 -177.164 -7.39364e-17)
(1700.16 -236.722 8.16448e-17)
(1748.32 -340.586 7.96048e-20)
(1765.77 -549.494 -7.81772e-20)
(1764.67 -766.406 0)
(1579.33 -997.52 6.45625e-20)
(1159.14 -854.267 0)
(1149.04 784.993 1.45115e-16)
(1617.23 952.163 -1.31011e-16)
(1800.33 822.03 5.06717e-20)
(1778.08 682.661 0)
(1771.39 495.037 0)
(1731.94 381.063 -7.45385e-21)
(1652.88 288.216 0)
(1544.54 192.815 8.00198e-20)
(1433.59 130.073 0)
(1351.86 70.8811 4.30464e-17)
(1282.44 47.0559 -6.42527e-17)
(1259.34 18.6852 3.21564e-17)
(1238.6 3.59563 -1.07925e-17)
(1256.16 -14.4044 0)
(1282.94 -38.7337 0)
(1351.38 -65.5438 4.14248e-17)
(1435.35 -119.973 -1.20353e-16)
(1537.66 -188.317 7.84159e-17)
(1646.11 -278.57 -6.44014e-17)
(1725.37 -381.359 7.11584e-17)
(1771.38 -489.371 0)
(1786.5 -674.167 0)
(1798.68 -830.049 0)
(1631.47 -928.196 -7.00095e-21)
(1122.03 -766.171 -1.66724e-16)
(1264.21 680.008 -2.77712e-20)
(1704.87 836.906 1.06966e-16)
(1787.14 859.044 -9.88857e-17)
(1786.1 748.07 0)
(1779.71 600.837 0)
(1754.55 481.576 7.68431e-21)
(1693.49 364.935 6.56272e-17)
(1598.21 259.695 -6.38989e-17)
(1499.24 184.624 3.30915e-20)
(1427.79 115.755 3.4619e-20)
(1366.15 73.2749 3.52093e-20)
(1340.59 33.2699 -1.01579e-20)
(1324.13 4.44272 -1.01567e-20)
(1337.59 -27.599 1.91631e-17)
(1367.42 -63.0264 -1.9485e-17)
(1429.13 -109.179 4.47461e-20)
(1503.2 -173.238 4.28916e-20)
(1594.86 -253.873 0)
(1691.12 -353.499 -5.76584e-17)
(1753.1 -479.652 6.34958e-17)
(1780.77 -599.75 0)
(1796.68 -740.118 -1.00044e-16)
(1782.15 -866.678 1.03428e-16)
(1708.25 -835.632 6.40784e-21)
(1276.99 -672.847 -1.50959e-16)
(1361.5 582.247 3.41425e-20)
(1736.29 777.359 0)
(1772.85 859.078 0)
(1784.87 791.183 -5.39768e-17)
(1785.96 677.256 4.75586e-17)
(1777.25 558.674 0)
(1728.89 429.021 6.02564e-17)
(1646.55 313.369 -5.85687e-17)
(1561.35 227.758 3.41277e-17)
(1497.61 146.024 -3.38784e-17)
(1438.65 97.5736 1.7834e-17)
(1419.37 44.2548 -1.76495e-17)
(1400.95 4.06627 0)
(1417.25 -40.0348 -1.75501e-17)
(1441.16 -89.7899 1.79226e-17)
(1501.72 -142.404 -3.6565e-20)
(1569.19 -220.967 -3.501e-20)
(1645.31 -314.273 5.64612e-20)
(1727.17 -424.41 5.27869e-17)
(1775.68 -562.263 -5.79798e-17)
(1779.93 -681.435 -4.86289e-20)
(1792.6 -786.378 -4.79762e-20)
(1773.43 -864.074 0)
(1735.64 -765.844 -5.14769e-20)
(1342.11 -566.713 3.47326e-20)
(1400.9 520.93 1.26181e-22)
(1752.07 713.917 0)
(1769.03 847.58 8.50198e-23)
(1787.48 810.15 4.44615e-20)
(1793.02 723.925 -8.79146e-23)
(1797.74 608.167 -5.26915e-17)
(1756.29 477.518 4.89313e-17)
(1683.71 363.292 0)
(1610.1 269.916 -6.38732e-20)
(1556.93 182.897 -1.13746e-22)
(1506.83 119.066 -1.15478e-22)
(1486.3 56.4045 6.81702e-20)
(1471.82 4.96813 0)
(1483.91 -50.3185 0)
(1509.26 -109.031 -1.15158e-22)
(1560.74 -178.073 -1.13605e-22)
(1617.58 -260.972 -2.92949e-17)
(1683.64 -360.457 8.30174e-17)
(1755.36 -469.397 -5.52439e-17)
(1799.33 -605.264 0)
(1791.37 -725.252 -4.49562e-17)
(1793.56 -805.038 4.77181e-17)
(1770.27 -852.937 8.36797e-23)
(1748.73 -720.569 4.60969e-20)
(1404.11 -504.368 1.26039e-22)
(1440.69 451.633 7.1088e-18)
(1744.21 691.019 1.05577e-17)
(1765.95 826.929 9.01037e-17)
(1791.79 805.208 -4.29933e-17)
(1805.35 745.184 4.32456e-17)
(1818.21 640.8 -4.84024e-17)
(1779.84 516.604 4.55351e-17)
(1719.64 397.746 -2.7263e-17)
(1658.96 298.601 2.69881e-17)
(1612.43 203.337 1.19399e-22)
(1564.68 136.612 1.21506e-22)
(1551.68 65.1585 -1.21835e-22)
(1535.55 5.8853 7.3869e-18)
(1549.99 -58.8502 7.26038e-18)
(1568.09 -127.331 -1.5092e-17)
(1616.88 -198.504 1.19665e-22)
(1667.94 -290.466 5.41045e-17)
(1719.81 -396.886 -1.04434e-16)
(1778.33 -509.375 5.11007e-17)
(1819.59 -635.422 0)
(1801.63 -743.362 -8.83138e-23)
(1796.34 -801.008 8.14971e-23)
(1767.21 -826.627 -8.09183e-23)
(1734.86 -694.127 -9.96747e-17)
(1429.07 -453.72 1.16242e-16)
(1430.14 457.093 1.10711e-19)
(1717.79 663.317 0)
(1770.52 777.17 0)
(1796.16 789.371 4.08245e-20)
(1821.35 742.21 8.23515e-20)
(1836.16 649.393 0)
(1799.8 533.188 4.77935e-17)
(1748.24 422.791 -4.70189e-17)
(1696.61 322.614 4.83096e-20)
(1658.66 226.165 -4.99662e-20)
(1619.97 147.722 -1.38779e-17)
(1605.2 68.9042 1.37483e-17)
(1593.96 2.89931 3.54893e-18)
(1604.51 -69.004 -3.47291e-18)
(1624.24 -143.806 1.35081e-17)
(1664.37 -228.062 -4.01575e-17)
(1705.45 -321.547 2.68707e-17)
(1749.87 -427.761 -5.10392e-20)
(1797.97 -535.839 4.2164e-20)
(1836.32 -653.007 -4.14923e-17)
(1818.4 -745.525 1.17006e-18)
(1799.17 -787.378 -1.48834e-18)
(1777.33 -775.863 4.10944e-17)
(1716.87 -664.52 4.63975e-20)
(1422.8 -464.39 5.43353e-20)
(1399.39 458.901 1.08114e-16)
(1724.04 629.517 -9.20713e-17)
(1794.41 723.538 0)
(1808.9 766.281 -3.9922e-17)
(1834.94 732.807 7.99008e-20)
(1851.59 658.062 3.98618e-17)
(1819.02 558.513 4.45009e-17)
(1779.32 446.321 -4.41208e-17)
(1738.25 342.576 -5.04792e-20)
(1705.51 240.573 -2.55555e-17)
(1667.91 161.691 1.22159e-17)
(1660.19 77.7708 1.26243e-17)
(1645.85 5.90947 -5.34602e-20)
(1659.06 -71.6914 0)
(1670.47 -151.855 0)
(1708.88 -234.692 0)
(1746.25 -332.981 5.05513e-20)
(1778.28 -442.361 1.06179e-20)
(1814.8 -549.271 -5.36618e-20)
(1850.76 -650.315 0)
(1830.68 -728.498 3.9588e-20)
(1810.14 -760.389 9.78504e-21)
(1794.24 -722.233 -5.02581e-20)
(1733.21 -637.182 -9.0695e-17)
(1412.95 -468.48 1.05825e-16)
(1387.75 443.773 5.1781e-17)
(1739.19 566.969 -8.54369e-17)
(1811.8 652.474 8.37972e-17)
(1821.51 727.859 -4.13454e-17)
(1851.37 713.205 -3.7965e-17)
(1865.11 644.71 3.82393e-17)
(1834.55 553.723 2.08841e-17)
(1802.34 452.675 -2.10605e-17)
(1767.4 353.499 1.16254e-17)
(1742.23 254.162 -2.33303e-17)
(1713.62 167.675 1.76139e-17)
(1703.59 79.1932 -7.4193e-18)
(1694.29 3.46033 1.48537e-18)
(1703.23 -78.1988 -4.40674e-20)
(1717.27 -162.096 2.32627e-17)
(1747.09 -254.716 -2.39474e-17)
(1776.44 -350.513 4.24816e-20)
(1804.62 -453.359 4.21087e-17)
(1830.9 -552.09 -2.10297e-18)
(1863.16 -643.632 -3.93194e-17)
(1848.13 -712.714 0)
(1820.24 -729.376 4.19463e-17)
(1811.15 -665.667 -3.7985e-17)
(1736.72 -582.258 -9.18149e-17)
(1394.3 -446.795 -4.2293e-18)
(1413.9 414.908 -5.11167e-17)
(1761.08 496.112 4.55183e-17)
(1832.86 604.631 1.93037e-20)
(1837.17 692.041 -5.51315e-20)
(1869.12 691.469 1.87171e-20)
(1876.38 632.196 3.74333e-17)
(1851.16 553.823 -1.85455e-17)
(1827.88 454.423 -2.00687e-17)
(1802 355.127 4.41847e-20)
(1781.69 254.15 -4.55113e-20)
(1752.68 170.076 2.06784e-20)
(1749.87 79.7372 -2.06142e-20)
(1736.96 0.795975 0)
(1749.15 -83.8642 5.00202e-21)
(1755.21 -169.784 -1.09524e-17)
(1784.9 -258.145 1.1213e-17)
(1810.85 -356.635 -2.10375e-17)
(1827.31 -460.746 9.08806e-19)
(1845.67 -552.648 1.96548e-17)
(1874.36 -629.259 -5.45892e-20)
(1863.32 -689.162 -3.75952e-17)
(1839.5 -684.863 3.60556e-17)
(1833.32 -594.202 0)
(1760.33 -512.557 -4.55854e-17)
(1395.05 -424.773 4.91334e-17)
(1427.13 377.343 0)
(1776.06 424.464 -3.75655e-17)
(1840.65 524.407 4.37189e-17)
(1852.95 636.367 1.79305e-20)
(1882.56 666.14 1.74314e-20)
(1890.89 614.144 -3.56925e-17)
(1866.73 540.153 3.74725e-17)
(1846.99 451.463 2.00284e-17)
(1825.47 360.6 6.71607e-19)
(1812.16 265.419 -2.05199e-17)
(1791.81 177.157 -2.17235e-20)
(1785.66 84.2103 2.4316e-20)
(1777.16 3.55652 0)
(1784.27 -83.202 4.36943e-20)
(1793.64 -170.803 -2.1664e-20)
(1814.31 -264.753 1.0242e-17)
(1834.76 -355.665 -1.04227e-17)
(1850.62 -451.221 -2.01587e-20)
(1861.06 -536.859 -2.10428e-20)
(1886.42 -611.389 1.78684e-20)
(1875.59 -665.485 -3.70423e-17)
(1852.43 -643.923 -5.38945e-18)
(1845.62 -536.597 3.50516e-17)
(1778.45 -428.605 0)
(1435.05 -387.971 5.20833e-17)
(1449.87 351.555 -9.85138e-17)
(1789.86 365.484 4.25966e-17)
(1848.08 464.761 3.37185e-17)
(1869.89 597.574 -3.99297e-17)
(1896.63 630.616 0)
(1903.29 593.42 -2.16087e-21)
(1880.84 531.208 0)
(1868.92 445.991 -2.37655e-21)
(1855.28 354.559 -2.46478e-21)
(1846.32 258.682 0)
(1823.51 174.97 0)
(1824.74 82.8716 -2.55894e-21)
(1812.33 1.27802 0)
(1823.28 -87.0687 0)
(1824.78 -174.196 -9.85102e-18)
(1846.73 -262.162 9.94805e-18)
(1863.99 -354.973 -2.48086e-21)
(1871.45 -451.663 -1.87473e-17)
(1874.16 -530.046 1.8105e-17)
(1900.3 -588.618 0)
(1891.17 -628.856 3.65931e-17)
(1869.12 -591.551 -7.35296e-17)
(1854.02 -462.783 7.61529e-17)
(1794.82 -371.258 6.25427e-18)
(1450.21 -351.45 -4.79902e-17)
(1477.99 317.866 1.18619e-20)
(1801.61 316.185 -9.66505e-21)
(1833.38 406.361 0)
(1882.88 515.739 0)
(1906.6 590.405 0)
(1917.29 569.291 8.02953e-21)
(1895.3 505.884 0)
(1886.46 428.42 -8.57062e-21)
(1875.62 347.741 0)
(1870.23 259.042 -8.82208e-21)
(1856.14 174.822 0)
(1853.38 81.7032 -2.37343e-18)
(1845.75 0.424754 2.35049e-18)
(1851.64 -88.3152 0)
(1857.02 -175.055 9.3318e-18)
(1870.05 -265.012 -1.88115e-17)
(1883.54 -348.391 9.38431e-18)
(1893.45 -434.86 0)
(1889.6 -510.575 1.76685e-17)
(1912.28 -570.19 -1.65304e-17)
(1901.5 -591.663 3.62424e-17)
(1882.68 -530.034 -3.24111e-17)
(1848.84 -403.102 0)
(1806.01 -302.723 0)
(1472.13 -318.541 0)
(1482.25 297.831 -1.18376e-20)
(1802.02 290.878 9.54581e-21)
(1833.92 333.891 0)
(1900.17 444.649 0)
(1916.69 539.633 0)
(1929.04 541.561 -8.10617e-21)
(1908.98 495.986 0)
(1906.15 423.222 8.79826e-21)
(1902.96 341.967 0)
(1900.51 252.249 -9.00843e-18)
(1881.76 172.772 9.03682e-18)
(1886.38 82.6201 -8.43e-21)
(1874.5 2.55256 9.29019e-21)
(1884.36 -85.7191 8.42876e-21)
(1881.67 -170.206 0)
(1897.6 -253.821 0)
(1908.33 -339.305 9.05976e-21)
(1911.37 -426.196 -1.76989e-17)
(1904.16 -493.373 1.69612e-17)
(1924.59 -538.207 0)
(1909.97 -541.117 7.99774e-21)
(1896.43 -459.868 0)
(1830.58 -335.49 0)
(1814.58 -275.717 0)
(1495.08 -287.492 0)
(1504.96 274.446 -4.49374e-17)
(1811.11 263.566 3.93074e-17)
(1843.45 283.179 0)
(1906.12 347.314 -1.71614e-20)
(1924.75 482.345 0)
(1938.69 509.116 -1.53444e-17)
(1923.65 466.993 3.32466e-17)
(1923.22 401.259 -1.71083e-17)
(1920.21 329.227 -8.61722e-18)
(1917.81 248.457 8.63747e-18)
(1908.8 170.474 4.41048e-21)
(1908.63 79.7368 1.12423e-18)
(1901.82 1.04485 -1.07884e-18)
(1906.85 -86.3272 8.59753e-18)
(1908.98 -169.498 -8.64569e-18)
(1915.36 -253.045 0)
(1925.1 -327.586 -1.63161e-20)
(1932.68 -406.81 0)
(1920.28 -472.158 0)
(1933.48 -510.794 -1.71906e-17)
(1918.64 -485.377 1.5138e-17)
(1904.18 -354.605 0)
(1840.66 -279.595 3.77216e-17)
(1816.77 -251.135 1.6683e-18)
(1511.61 -266.967 -9.15828e-17)
(1527.36 257.798 4.53465e-17)
(1820.41 245.623 1.84057e-20)
(1852.41 224.804 3.22866e-17)
(1904.55 287.927 -2.36579e-17)
(1930.43 427.263 -1.84929e-17)
(1945.11 463.515 0)
(1934.82 447.609 8.35432e-21)
(1941.76 391.749 1.62566e-17)
(1944.23 319.859 -1.66163e-17)
(1944.37 236 0)
(1928.73 161.227 0)
(1936.26 75.9458 -2.58902e-20)
(1924.91 -0.00597452 3.24277e-20)
(1934.25 -85.052 1.68752e-20)
(1928.14 -163.67 4.18275e-18)
(1939.77 -242.09 -4.13714e-18)
(1946.67 -320.421 8.89004e-21)
(1948.77 -396.997 1.67936e-17)
(1934.58 -448.005 -3.299e-17)
(1943.64 -462.052 1.49384e-17)
(1927.54 -423.946 -1.55934e-20)
(1900.37 -286.456 0)
(1850.06 -224.377 1.78086e-20)
(1825.35 -241.233 3.81075e-17)
(1528.72 -254.809 -8.88772e-17)
(1541.33 236.745 -4.44879e-17)
(1833.69 227.286 -3.6389e-17)
(1858.8 198.023 3.563e-17)
(1883.64 195.814 1.48701e-17)
(1934.1 343.824 -1.93506e-17)
(1948.89 417.74 0)
(1947.86 414.137 4.04689e-21)
(1957.66 367.294 -1.18868e-20)
(1959.28 306.048 8.01574e-18)
(1957.29 233.1 -1.61336e-17)
(1951.46 161.562 8.0549e-18)
(1953.35 75.6298 2.00251e-18)
(1947.03 2.38377 -1.87353e-18)
(1951.14 -80.2511 1.86735e-18)
(1951.38 -157.859 -2.01095e-18)
(1953.11 -235.641 0)
(1960.94 -301.827 1.19758e-20)
(1967.72 -370.92 -3.83948e-21)
(1946.9 -418.591 -1.71116e-17)
(1943.45 -420.835 1.46639e-17)
(1931.64 -349.641 0)
(1881.51 -197.395 0)
(1858.13 -194.473 -4.30335e-21)
(1838.51 -223.499 -3.74958e-17)
(1552.59 -235.205 -1.3622e-18)
(1551.39 219.898 -2.08858e-17)
(1841 217.126 1.85929e-17)
(1867.72 180.25 4.29402e-21)
(1892.55 142.195 0)
(1938.7 258.133 1.4354e-17)
(1952.6 351.482 -1.75107e-17)
(1955.24 381.158 3.81981e-21)
(1972.39 353.04 3.8779e-21)
(1979.28 296.195 1.47414e-20)
(1981.23 220.37 -1.92215e-18)
(1967.63 150.377 9.87317e-19)
(1976.65 70.9686 1.89558e-18)
(1965.43 1.11804 -9.72664e-19)
(1974.29 -78.9507 3.87815e-18)
(1967.12 -150.918 -3.89375e-18)
(1975.8 -224.448 0)
(1978.7 -294.877 1.08904e-20)
(1979.77 -356.341 -1.62851e-17)
(1957.79 -380.083 1.50421e-17)
(1949.73 -352.161 3.77622e-21)
(1932.18 -256.999 0)
(1887.22 -136.124 0)
(1866.97 -179.982 4.3358e-21)
(1847.93 -219.362 -3.68648e-17)
(1558.46 -220.648 4.17118e-17)
(1574.06 194.448 2.09972e-20)
(1855.5 195.404 0)
(1885.87 161.93 -8.04933e-21)
(1896.49 72.5348 -1.50171e-17)
(1922.92 180.338 1.84395e-17)
(1951.27 303.855 -1.42325e-17)
(1959.12 334.205 1.69189e-17)
(1984.46 318.279 -7.42768e-18)
(1990.87 274.568 7.8011e-18)
(1989.78 211.306 -3.76451e-18)
(1986.37 147.506 3.78937e-18)
(1989.64 67.872 -1.84633e-18)
(1983.48 0.938207 2.10904e-18)
(1987.33 -76.4687 -2.49939e-19)
(1986.67 -147.344 3.78723e-18)
(1985.84 -217.458 -7.57244e-18)
(1990.46 -273.205 -4.07642e-18)
(1993.46 -324.565 7.42784e-18)
(1960.46 -336.617 1.51912e-20)
(1950.31 -299.749 -7.70295e-21)
(1918.39 -177.459 0)
(1894.02 -69.5913 0)
(1887.58 -163.438 0)
(1857.23 -200.68 -1.81785e-17)
(1574.32 -198.243 2.02513e-17)
(1579.22 177.062 -2.53188e-21)
(1861.53 176.058 0)
(1902.86 154.496 1.02582e-20)
(1904.94 55.3152 -8.08607e-21)
(1899 102.293 -7.61855e-21)
(1949.25 197.154 0)
(1960.92 283.806 -7.51317e-21)
(1991.78 295.204 7.19874e-18)
(2006.22 263.458 -7.6872e-18)
(2011.15 201.151 0)
(1999.58 138.2 1.7537e-21)
(2009.57 65.4558 0)
(1998.54 2.74121 0)
(2007.16 -71.419 1.82464e-18)
(1999.19 -136.254 -1.84018e-18)
(2005.77 -202.353 -7.3264e-21)
(2003.05 -259.8 -1.7808e-21)
(1997.97 -296.613 7.36798e-21)
(1965.62 -281.77 -8.64563e-18)
(1949.15 -210.03 7.12356e-18)
(1888.82 -103.872 -1.74508e-17)
(1898.06 -50.9266 3.2569e-17)
(1905.4 -155.13 -1.64555e-17)