/*--------------------------------*- C++ -*----------------------------------*\
| =========                 |                                                 |
| \\      /  F ield         | OpenFOAM: The Open Source CFD Toolbox           |
|  \\    /   O peration     | Version:  2112                                  |
|   \\  /    A nd           | Website:  www.openfoam.com                      |
|    \\/     M anipulation  |                                                 |
\*---------------------------------------------------------------------------*/
FoamFile
{
    version     2.0;
    format      ascii;
    arch        "LSB;label=32;scalar=64";
    class       volScalarField;
    location    "0.00855";
    object      k;
}
// * * * * * * * * * * * * * * * * * * * * * * * * * * * * * * * * * * * * * //

dimensions      [0 2 -2 0 0 0 0];

internalField   nonuniform List<scalar> 
13875
(
812.1
3462.65
3540.31
3539.4
3541.06
3540.32
3540.77
3542.32
3542.04
3540.67
3540.66
3541.1
3540.66
3540.14
3540.47
3541.21
3541.92
3541.13
3540.73
3540.25
3541.15
3539.02
3540.06
3462.13
820.366
881.798
2936.64
3012.96
3000.74
3000.79
2998.47
2996.77
2997.61
2996.9
2996.7
2996.91
2998.42
2996.6
2996.38
2996.19
2998.51
2996.24
2997.07
2996.96
2998.61
3000.45
2999.29
3011.64
2934.9
894.288
993.371
2710.86
2777.4
2755.4
2758.49
2755.16
2746.16
2744.45
2742.12
2740.98
2741.76
2744.45
2751.52
2752.21
2750.89
2744.63
2741.18
2742.69
2745.3
2755.1
2757.66
2753.16
2774.54
2707.09
998.149
1091.08
2533.68
2580.92
2561.46
2566.43
2562.86
2552.65
2550.61
2548.18
2546.45
2546.37
2548.49
2559.34
2560.07
2558.85
2548.64
2547.29
2547.55
2551.15
2562.92
2565.48
2559.39
2579.17
2529.56
1093.77
1172.13
2380.46
2413.11
2392.76
2397.75
2394.02
2383.43
2382.02
2379.8
2378.32
2378.15
2379.52
2390.36
2391.46
2389.9
2379.72
2379.15
2379.04
2382.34
2393.91
2396.77
2391.16
2410.49
2375.37
1177.36
1241.03
2237.14
2270.87
2244.78
2250.95
2245.64
2233.84
2232.95
2230.73
2229.27
2229.34
2230.03
2240.94
2242.35
2240.52
2230.18
2230.44
2229.93
2233.08
2245.69
2249.94
2243.73
2267.9
2247.15
1247.33
1321.01
2121.85
2158.29
2120.23
2122.92
2115.52
2101.69
2100.73
2098.41
2096.69
2097.06
2097.23
2108.29
2109.76
2107.58
2097.22
2098.51
2097.7
2101.54
2115.48
2121.66
2119.76
2154.06
2095.59
1323.5
1409.81
2000.76
2073.55
2019.51
2016.02
2002.52
1985.67
1983.58
1980.72
1978.71
1979.61
1978.95
1990.3
1991.99
1989.49
1978.8
1981.38
1980.56
1985.42
2002.14
2013.93
2017.98
2068.31
1992.82
1420.39
1691.52
2029.53
2022.05
1944.46
1924.67
1904.75
1883.87
1880.5
1877.05
1874.37
1876.05
1874.65
1886.17
1888.12
1885.48
1874.65
1878.05
1877.21
1883.28
1903.8
1922.35
1942.17
2017.81
2033.57
1716.62
2509.34
2285.66
2018.39
1901.3
1858.55
1826.39
1802.84
1797.67
1793.58
1790.62
1792.71
1790.95
1802.03
1804.17
1801.62
1792.01
1794.93
1795.09
1801.27
1824.61
1855.54
1891.48
2011.39
2266.27
2529.66
3877.7
3028.12
2154.19
1915.91
1814.23
1772.64
1746.25
1736.17
1730.8
1727.61
1729.46
1727.56
1737.64
1740.06
1738.25
1731.13
1733.26
1735.17
1744.93
1768.12
1813.17
1907.1
2129.51
2936.62
3858.84
5186.62
6459.87
2857.1
1995.43
1853.28
1756.4
1713.52
1697.62
1689.38
1685.7
1686.44
1684.74
1692.95
1695.77
1695.18
1690.91
1693.02
1698
1712.26
1757.65
1846.89
1973.86
2789.75
6314.6
5120.18
5058.05
7620.19
7066.55
3341.22
2043
1798.26
1741.94
1701.5
1684.55
1677.13
1675.16
1672.9
1678.71
1681.9
1683.28
1683.28
1690.1
1706.6
1746.42
1804.04
2089.04
3233.03
6764.54
7642.81
5009.58
4828.65
6362.28
7193.02
8736.32
5168.45
2320.16
1896.61
1783.18
1747.27
1743.48
1741.79
1739.55
1744.24
1747.47
1750.22
1752.92
1758.01
1792.16
1940.86
2483.35
5619.46
8154.35
6955.23
6327.66
4832.63
4605.9
5518.69
6051
6990.97
6859.63
6667.71
3384.59
2376.79
2127.76
2035.05
1996.62
1982.44
1982.74
1987.28
1998.81
2030.48
2120.22
2387.32
3630.19
6898.4
6817.92
6704.76
5964.26
5484.92
4681.21
4295.47
4804.65
5117.6
5874.6
6076.69
6561.43
5556.45
5169.62
4836.1
4179
4266.39
4318.08
4361.13
4347.4
4285.48
4185.99
4752.14
5439.82
5660.85
6634.43
5997.34
5706
5069.96
4776.85
4364.99
3729.03
4042.42
4337.43
5061.04
5588.24
6488.48
7306.38
7539.62
6682.46
6242.77
6507.57
6741.74
6874.1
6822.13
6577.76
6551.9
6713.41
7556.3
7343.4
6457.66
5431.96
4898.48
4223.12
3959.19
3719.08
3064.12
3407.38
3943.43
4849.82
5501.16
6094.43
7078.59
7757.78
6510.84
5474.64
5210.66
5235.02
5304.88
5271.22
5274.05
5789.05
6520.69
7428.4
7023.58
6206.41
5535.8
4802.9
3856.59
3344.2
3026.37
2639.7
3164.79
3840.56
5038.91
5964.23
5778.23
6073.82
6760.66
6125.76
5174.85
4689.38
4548.85
4537.82
4593.72
4786.08
5321.91
5966.99
6452.41
6057.75
5957.76
6250.18
5084.38
3834.56
3150.37
2642.55
2520.58
3395.7
4070.87
5194.92
5776.11
5314.37
5246.25
5715.22
5567.87
4956.32
4419.29
4090.45
3978.73
4162.58
4553.27
5036.34
5362.87
5469.22
5258.55
5487.23
5954.37
5172.15
4087.14
3420.35
2517.43
5088.11
7602.17
6170.96
4843.45
5011.75
4660.01
4572.58
4964.35
5036.02
4629.43
4088.67
3658.03
3503.81
3767.82
4251.49
4680.71
4829.61
4769.86
4601.01
4809.09
5146.25
4957.54
6639.99
8153.72
5966.96
11527.5
23150
7728.46
4245.66
4313.52
4096.4
4044.98
4392.04
4543.25
4251.92
3732.52
3263.61
3092.53
3381.15
3889.73
4278.08
4343.21
4239.04
4068.05
4213.13
4408.82
4372.19
8320.5
23286.6
12706.3
13506.3
18830.5
6787.22
3783.45
3774.63
3641.06
3605.52
3923.63
4093.18
3862.69
3374.54
2913.23
2736.54
3013.4
3509.71
3873.21
3901.64
3795.7
3621.01
3718.84
3836.77
3883.17
6886.19
18750.7
13437
12783.2
18952.1
5743.34
3436.62
3338.57
3246.93
3231.28
3513.26
3683.94
3484.6
3024.53
2592.86
2434.84
2693.18
3160.76
3502.9
3509.1
3399.6
3250.12
3313.7
3400.15
3536.51
5924.7
19956.8
12843.5
12418.4
18646.4
5117.14
3166.43
3007.68
2922.57
2925.28
3165.03
3321.15
3143.3
2720.86
2323.4
2181.08
2416.35
2851.78
3166.84
3166.24
3060.75
2937.5
2980.28
3072.29
3264.12
5349.77
20135.7
12620.3
12189.7
18610.4
4668.13
2920.68
2742.98
2650.71
2671.02
2868.66
3000.86
2839.72
2458.17
2095.12
1965.8
2176.63
2572.01
2859.99
2863.67
2768.39
2667.05
2690.72
2802.22
3000.56
4870.93
19985.2
12555.5
12212.1
17318.9
4202.82
2699.24
2528.14
2425.06
2453.67
2612.03
2712.1
2559
2219.73
1898.14
1783.82
1976.52
2335.5
2594.14
2605.51
2523.11
2440.42
2457.21
2590.45
2782.75
4454.72
18818.1
12555.5
12064.9
16490.5
3893.03
2518.67
2352.63
2241.2
2268.75
2393.6
2465.69
2321.11
2019.78
1731.7
1627.87
1801.11
2122.22
2356.03
2378.24
2311.59
2247.13
2265.34
2405.3
2591.17
4137.26
18088.5
12399.9
11758.6
16098.5
3670.5
2364.03
2203.13
2095.05
2109.91
2203.94
2251.08
2113.85
1847.37
1589.54
1494.03
1648.65
1932.94
2141.72
2177.23
2128.08
2080.27
2104.05
2241.23
2423.8
3827.11
16604.6
12315.2
11525.1
15048.2
3476.62
2233.39
2064.7
1968.08
1974.8
2036.38
2056.35
1923.75
1689.28
1462.96
1378.16
1520.73
1777.31
1964.2
2005.58
1971.21
1941.25
1970.61
2096.39
2287.63
3640.32
15900
12028.7
11169
13821.6
3319.63
2130.51
1943.72
1855.51
1856.87
1892.28
1891.77
1764.99
1557.89
1355.67
1277.88
1406.34
1634.73
1801.16
1852.28
1835.01
1821.9
1851.86
1962.23
2172.85
3444.75
14512
11730.9
10855.4
13067.8
3207.18
2053.73
1835.9
1752.36
1751.19
1767.47
1750.49
1629.54
1444.58
1262.06
1190.4
1305.84
1511.37
1662.73
1719.05
1716.18
1715.16
1743.35
1845.48
2083.75
3284.61
13324.5
11410.1
10588.9
11904.7
3078.82
1994.8
1743.61
1661.83
1652.77
1654.54
1621.2
1505.4
1341.13
1178.57
1114.1
1220.76
1407.17
1543.17
1603.64
1612.92
1617.88
1648.84
1748.37
2015.68
3170.35
12484.2
11065.9
10290.5
11021.1
2960.54
1953
1669.63
1581.37
1560.83
1555.08
1511.17
1401.15
1253.81
1105.98
1046.54
1142.8
1312.21
1436.87
1499.57
1519.4
1528.12
1563.8
1667.94
1960.97
3057.43
11496.8
10734.7
10010.6
10391.6
2836.65
1916.93
1620.76
1508.75
1479.28
1465.16
1414.42
1309.24
1176.68
1041.95
987.275
1074.79
1228.49
1342.6
1407.18
1434.33
1447.92
1492.11
1610.7
1923.29
2928.46
10710.6
10417.4
9737.98
9701.76
2713.27
1885.74
1586.64
1445.79
1404.17
1380.58
1326.39
1226.66
1106.07
983.732
934.062
1014.95
1157.56
1262.66
1325.74
1356.1
1377.05
1427.87
1573.43
1893.13
2817.28
10225.8
10123.3
9485.71
9217.12
2609.06
1881.6
1566.63
1394.15
1339.31
1305.39
1248.28
1155.03
1045.26
932.884
886.902
960.458
1091.17
1187.95
1250.56
1284.74
1312.2
1373.36
1548.1
1879.82
2690.2
9566.33
9831.81
9225.96
8956.3
2510.1
1872.04
1557.21
1357.82
1279.78
1237.51
1178.69
1091.74
991.293
887.096
844.383
911.373
1032.73
1122.27
1182
1220.69
1253.57
1334.98
1537.43
1875.17
2565.02
9089.42
9573.66
8942.18
8548.33
2392.63
1828.24
1561.78
1334.21
1229.54
1176.9
1114.63
1032.82
940.833
845.355
806.373
868.767
981.419
1063.81
1121.99
1164.19
1203.81
1308.58
1542.41
1845.66
2450.48
8824.54
9329.86
8679.58
8313.65
2286.77
1777.67
1582.47
1321.6
1190.43
1124.36
1059.16
981.772
896.902
807.811
771.596
828.572
933.613
1010.21
1066.38
1114.43
1165.93
1294.3
1551.69
1786.84
2340.03
8555.54
9075.09
8466.75
8128.78
2224.51
1725.7
1613.49
1321.79
1162.77
1081.61
1010.52
935.744
856.83
773.685
740.192
792.631
889.942
961.873
1018.23
1072.81
1140.26
1290.61
1596.39
1733.41
2256.37
8463.59
8784.26
8272.44
7919.12
2140.27
1658.41
1603.27
1332.72
1142.5
1049.56
968.453
893.923
819.492
741.904
711.163
760.05
852.198
919.946
977.167
1040.73
1120.36
1303.97
1610.72
1685.07
2305.09
8311.84
8522.22
8093.44
7742.95
2083.83
1589.62
1561.74
1372.26
1133.3
1025.89
935.077
857.643
786.41
713.394
684.7
729.709
816.05
881.365
942.366
1017.4
1109.38
1331.49
1574.3
1618.17
2230.17
8131.85
8303.01
7946.07
7565.73
2126.05
1529.18
1505.69
1419.86
1139.99
1006.94
910.526
827.652
757.187
687.14
660.149
701.796
783.891
848.121
915.202
1000.07
1115.96
1398.09
1523.3
1554.19
2215.03
7906.15
8127.1
7801.89
7407.94
2062.21
1466.96
1441.31
1422.28
1173.75
996.331
890.105
803.636
731.089
663.312
637.987
677.302
756.596
822.093
895.123
990.608
1154.48
1424.11
1465.2
1504.76
2237.13
7726.75
7998.55
7659.94
7235.17
2093.11
1422.98
1376.32
1376.97
1249.47
1004.42
875.982
786.712
711.756
643.401
618.498
655.886
734.804
802.966
879.227
994.843
1224.04
1383.9
1400.22
1449.08
2195.61
7568.98
7878.42
7518.85
7077.55
2141.34
1394.19
1319.59
1325.52
1279.3
1055.91
868.57
771.747
697.353
628.619
601.692
639.759
718.691
787.565
869.111
1038.64
1269.27
1333.22
1339.41
1407.29
2189.7
7408.7
7739.67
7306.19
6888.59
2125.53
1363.14
1269.73
1270.34
1241.42
1135.86
883.653
759.833
684.924
617.226
589.311
627.866
706.004
775.608
882.127
1120.97
1245.37
1276.95
1288.17
1388.5
2245.73
7190.41
7522.97
7033.43
6640.53
2123.86
1344.3
1227.86
1214.31
1198.84
1178.22
940.346
757.367
675.227
608.054
580.792
618.184
694.889
770.741
930.7
1180.08
1204.14
1219.1
1243.33
1368.74
2215.13
6903.59
7237.71
6408.99
6198.44
2104.83
1328.77
1191.68
1165.71
1153.13
1148.14
1031.73
786.158
671.242
600.024
573.234
609.291
688.671
791.392
1023.44
1164.1
1160.05
1168.6
1204.1
1350.02
2163.96
6418.72
6590.22
4041.75
5885.05
5399
4818.83
4439.07
4102.61
3783.89
3389.28
2889.42
2427.97
2010.42
1632.94
1315.72
1096.55
960.415
880.989
832.757
802.415
782.362
764.876
745.781
723.153
698.58
669.505
639.272
605.543
561.833
510.895
452.786
445.735
4205.96
6224.25
5760.62
5208
4842.94
4502.28
4151.12
3702.02
3112.66
2579.11
2102.23
1689.53
1349.73
1113.94
966.435
877.766
824.874
791.388
767.827
747.929
726.874
703.768
679.062
651.005
621.672
586.519
545.392
496.199
441.198
438.684
4442.17
6641.47
6158.15
5611.18
5275.89
4937.72
4548.44
4032.04
3378.43
2773.26
2231.31
1776.24
1410.95
1153.34
987.703
886.347
823.97
784.705
756.252
733.247
710.46
686.653
661.549
634.15
604.767
570.883
531.708
483.946
431.704
434.17
4788.39
7192.79
6728.38
6168.87
5827.35
5452.46
5006
4426.99
3697.37
3021.76
2416.74
1912.65
1510.96
1219.26
1024.36
904.007
831.004
782.914
749.098
722.666
697.662
672.631
646.87
619.862
591.393
557.782
519.786
473.253
423.8
430.575
5135.11
7823.92
7416.38
6824.68
6437.6
6000.94
5475.98
4845.18
4048.85
3311.11
2654.59
2094.21
1643.15
1307.45
1078.31
933.735
843.85
784.366
742.558
712.618
686.652
661.012
634.27
608.214
579.792
546.371
508.938
463.483
416.283
427.071
5495.35
8577.83
8203.88
7545.83
7060.6
6527.85
5914.5
5227.72
4383.82
3609.05
2917.13
2305.83
1800.85
1415
1146.24
971.993
861.327
787.577
739.169
705.415
677.12
650.44
625.351
598.523
569.983
536.549
499.421
454.947
409.777
423.645
5887.91
9385.8
9071.09
8303.52
7665.3
7001.4
6300.08
5561.04
4689.46
3899.33
3186.13
2534.88
1978.31
1540.59
1227.04
1018.48
883.368
796.617
740.206
700.438
669.331
642.654
617.756
591.121
561.985
528.311
491.661
448.156
404.445
421.472
6288.17
10281.9
10017.6
9092.4
8262.4
7441.23
6629.34
5830.9
4951.27
4167.42
3449.25
2771.55
2170.85
1681.58
1319.82
1073.7
912.236
810.839
744.447
698.399
665.067
637.296
611.622
585.657
556.651
522.208
485.533
442.888
400.432
419.895
6689.84
11213.6
11004.1
9891.69
8835.91
7848
6931.1
6080.42
5194.88
4416.26
3701.72
3012.35
2375.58
1838.29
1426.88
1138.59
949.679
829.633
751.741
699.725
662.77
633.513
607.498
582.164
552.063
518.439
481.089
438.998
397.617
419.845
7062.05
12157.5
12004.8
10706.9
9422.57
8262.75
7254.41
6341.8
5439.79
4660.87
3949.96
3256.71
2593.81
2012
1550.88
1215.55
995.536
854.415
764.265
704.488
662.835
631.638
605.01
578.027
547.164
513.98
478.268
436.139
395.668
420.647
7389.92
13090.4
13045.8
11586.1
10062.6
8738.62
7631.48
6638.47
5699.57
4917.32
4206.94
3509.27
2828.4
2208.52
1695.48
1311.16
1052.69
886.548
781.576
712.29
665.387
632.033
603.793
574.656
543.273
510.118
474.187
433.914
394.285
421.532
7690.2
13981
14155.5
12541.9
10792.9
9306.76
8086.12
6978.25
5992.79
5203.33
4488.49
3781.62
3084.46
2431.6
1866.87
1429.2
1125.4
928.881
804.819
724.359
671.333
633.956
603.353
573.422
541.076
507.214
471.429
431.617
392.993
421.687
8009.04
14893.9
15330.4
13566.9
11624.1
9988.4
8642.47
7379.74
6335.53
5532.8
4803.27
4084.21
3371.07
2686.95
2071.42
1576.77
1219.6
984.831
836.609
742.092
680.327
637.56
603.934
571.918
540.274
505.204
468.723
428.32
391.328
422.363
8374.95
15860.9
16529.9
14637.3
12536.5
10782.1
9294.52
7853.8
6744.2
5912.96
5159.1
4425.26
3696.06
2982.66
2319.62
1761.37
1341.92
1059.88
879.708
766.098
692.78
642.703
604.843
570.493
539.222
503.193
465.622
425.09
388.659
424.51
8706.35
16873.6
17741.8
15748.9
13532.1
11700.2
10047.7
8413.19
7232.37
6355.17
5568.95
4814.46
4066.8
3322.13
2614.98
1991.38
1501.13
1160.14
937.698
797.899
708.339
648.301
604.389
568.732
535.941
500.335
462.408
421.75
386.193
426.373
8991.31
17820.1
18925.3
16882.6
14618.7
12733.8
10918.4
9075.62
7806.16
6862.23
6042.08
5262.12
4489.91
3714.63
2963.06
2273.34
1706.67
1293.74
1015.75
839.981
727.964
654.678
604.233
566.317
532.232
497.014
459.147
418.381
384.282
426.908
9256.98
18669.6
20048.3
18062.9
15813.7
13896.3
11861
9831.03
8486.57
7461.15
6584.3
5764.79
4962.29
4160.3
3364.32
2614.13
1968.18
1470.27
1121.14
896.526
755.016
665.609
607.888
565.825
529.572
493.586
455.785
415.345
383.43
428.111
9480.78
19466.5
21082.4
19233.5
17096.8
15204.4
12912.8
10738.7
9281.1
8152.29
7197.8
6322.66
5483.64
4654.51
3822.28
3018.46
2292.43
1698.96
1261.85
973.892
794.371
684.016
615.903
567.793
528.427
490.655
452.533
412.677
382.204
429.995
9801.39
20072.5
22024.2
20409.5
18443.6
16600.8
14142.3
11807.6
10211
8960.36
7900.57
6948.75
6065.42
5200.05
4336.23
3483.11
2682.55
1986.55
1448.19
1080.68
850.262
711.457
627.789
572.107
528.775
489.323
450.504
410.762
381.865
432.267
9946.54
20617.3
22830.7
21548.8
19862
18125.2
15553.1
13062.5
11311.9
9915.36
8717.31
7663.12
6714.07
5804.53
4903.6
4002.25
3133.74
2337.89
1688.83
1223.98
923.733
749.155
644.555
579.336
531.435
489.742
451.155
409.967
382.19
434.672
10183.6
20807
23287.6
22566.4
21350.5
19789
17144.8
14548.7
12628.5
11048.5
9671.87
8484.17
7447.01
6476.94
5524.18
4571.87
3639.68
2748.04
1986.96
1406.94
1024.44
799.673
667.614
588.184
534.171
489.881
450.766
408.77
382.466
437.372
10279.3
21013
23483.5
23436
22913.6
21628.9
18971.8
16304.1
14197.6
12384.9
10794
9443.26
8292.44
7231.7
6192.75
5172.58
4170.92
3205.97
2335.13
1640.12
1161.09
868.243
697.985
598.126
535.497
488.036
447.472
407.115
381.776
440.181
10469.8
20768.7
23235
24110.1
24514.8
23685.4
21106.6
18370.4
16052.2
13972.4
12118.3
10580.4
9254.59
8032.18
6888.52
5783.17
4711.52
3683.29
2738.2
1936.18
1344.46
963.191
740.072
612.798
538.967
488.06
444.824
405.016
380.409
442.853
10421.9
20236.6
22855.1
24753.6
26209.3
26015.5
23609.2
20797.4
18237.5
15855.2
13725.2
11894.5
10283.5
8838.45
7589.35
6419.6
5292.51
4217.84
3205.69
2301.28
1586.78
1096.28
802.664
638.484
550.354
492.491
444.677
403.723
379.384
445.021
9938
19884.9
22777.9
25678.4
28136
28674.6
26526.5
23646.9
20810.8
18077.7
15599.1
13386.8
11445.4
9771.98
8377.6
7130.59
5944.56
4813.37
3734.68
2737.42
1897.31
1279.99
894.845
679.907
567.7
497.801
445.369
402.688
377.784
445.869
442.674
449.921
507.624
558.708
598.881
633.808
664.406
692.39
718.023
741.198
759.86
778.042
799.474
832.408
885.482
975.206
1126.66
1370.19
1722.31
2141.71
2603.76
3104.43
3628.05
4026.61
4355.91
4697.28
5088.06
5709.86
6214.61
4243.3
435.632
438.518
493.139
542.392
581.878
616.339
646.402
673.708
699.369
722.425
743.133
763.753
788.517
825.224
884.668
984.404
1150.49
1412.76
1787.89
2244.24
2769.71
3351.03
3962.83
4420.78
4777.54
5131.12
5503.73
6094.39
6582.16
4411.57
431.258
429.212
481.206
528.916
567.736
601.3
630.131
657.142
682.588
706.878
729.594
753.06
783.023
825.915
894.259
1008.34
1195.99
1482.31
1881.37
2378.61
2970.16
3629.57
4308.8
4833.89
5229.27
5585.42
5934.85
6505.96
7022.72
4657.66
427.964
421.655
470.87
517.206
555.545
588.624
617.014
643.746
669.165
694.107
719.373
746.788
782.111
832.18
912.786
1047.44
1264.42
1586.01
2023.83
2569.73
3224.8
3955.55
4711.88
5305.47
5760.73
6157.17
6519.55
7103.33
7600.95
5022.9
424.714
414.371
461.497
506.766
544.719
577.691
605.969
632.185
657.853
683.428
709.717
742.033
784.897
847.588
945.459
1104.8
1356.7
1724.82
2212.74
2812.08
3511.47
4300.98
5120.92
5773
6311.47
6778.11
7202.4
7821.47
8255.01
5384.9
421.473
408.141
453.393
497.771
535.517
568.4
596.715
622.72
648.464
675.418
703.115
739.895
792.149
868.498
986.319
1174.46
1465.27
1881.79
2422.46
3068.58
3802.38
4619.95
5489.34
6185.48
6822.71
7404.32
7945.44
8641.02
9035.21
5751.49
419.566
403.17
447.122
490.646
528.252
561.268
589.739
615.747
641.436
669.359
700.284
740.347
802.725
894.081
1035.41
1256.07
1590.03
2055.69
2642.54
3323.47
4073.81
4895.25
5786.01
6537.58
7280.67
8009.02
8722.65
9536.8
9865.53
6153.83
418.34
399.607
442.471
485.344
522.792
556.244
585.039
612.469
638.438
665.762
699.564
745.109
816.589
924.158
1091.34
1347.75
1727.43
2240.45
2868.69
3568.43
4308.9
5120.1
6026.09
6828.62
7694.06
8592.72
9521
10516.1
10775.7
6554.17
418.472
397.279
439.246
481.497
518.547
552.321
581.778
608.718
635.242
663.784
701.597
754.255
834.474
958.554
1152.34
1450.21
1876.54
2434.96
3091.42
3794.61
4521.08
5327.08
6246.44
7100.85
8076.35
9158.82
10327.8
11524.3
11713.9
6955.16
419.027
395.524
436.653
478.392
514.96
548.75
579.289
606.824
633.623
664.253
706.122
766.521
859.043
1003.21
1227
1566.18
2039.26
2635.68
3311.51
4013.54
4734.6
5535.81
6488.52
7403.94
8476.58
9742.2
11164.5
12552.7
12659.3
7323.36
419.144
393.362
433.721
475.412
511.59
545.615
576.822
605.326
633.326
667.019
712.622
782.596
889.264
1056.76
1317.28
1703.38
2223.2
2851.2
3537.87
4241.57
4965.14
5765.5
6765.8
7767.95
8944.48
10384
12063.1
13610.5
13584
7646.83
419.307
390.824
430.218
472.174
508.964
543.613
574.53
604.187
633.522
671.509
724.129
804.226
928.478
1123.61
1426.29
1863.35
2429.73
3085.53
3783.69
4495.92
5226.31
6035.63
7081.5
8212.85
9508.42
11117.4
13031.5
14733
14463.4
7949.46
420.753
389.16
427.293
469.214
507.166
542.219
573.773
603.53
636.942
679.503
740.95
834.103
980.215
1210.08
1561.41
2052.57
2664.16
3347.74
4060.8
4785.54
5532.64
6365.57
7455.94
8761.44
10190
11953.2
14068.8
15921.5
15368.2
8269.48
422.05
388.008
425.199
466.91
505.559
541.16
574.065
605.854
642.665
692.313
764.306
874.949
1049.95
1323.38
1730.78
2278.64
2933.27
3646.68
4376.15
5117.57
5891.32
6762.87
7913.04
9410.38
10985.5
12874.2
15157.5
17137.5
16338.3
8637.5
423.628
386.525
422.944
464.622
503.397
539.302
572.461
607.855
650.416
708.872
795.005
929.456
1142.99
1471.9
1944.54
2552.52
3250.56
3992.89
4742.53
5505.84
6311.52
7233.27
8466.74
10164.6
11911.7
13886.9
16278.2
18354
17347.7
8970.38
425.589
385.157
420.425
461.961
500.464
536.07
570.466
608.743
658.902
729.218
834.853
1001.53
1266.53
1664.09
2211.35
2882.34
3625
4396.45
5172.21
5965.19
6805.96
7798.19
9112.97
11026.2
12956.1
14993.5
17425.8
19524.1
18302.4
9256.47
427.603
384.011
417.48
458.482
496.992
533.859
569.368
611.913
669.678
755.644
889.116
1101.51
1431.54
1910.35
2537.1
3269.33
4052.93
4847.34
5653.57
6487.61
7390.22
8467.6
9875.47
11987.7
14112.1
16191.7
18626.8
20689.5
19158.6
9517.91
429.108
382.981
414.593
455.229
493.887
533.115
571.335
619.496
687.082
792.724
961.969
1234.81
1648.09
2220.22
2925.98
3713.49
4531.82
5355.7
6194.68
7082.02
8060.07
9237.84
10779.7
13068.3
15437
17500.1
19821
21724.3
19964.5
9728.23
430.926
382.451
412.988
453.893
492.878
532.833
576.128
631.957
713.517
845.596
1061.98
1410.96
1924.17
2595.43
3376.88
4216.37
5069.47
5928.88
6810.29
7769.62
8855.3
10156.4
11842.5
14305.1
16883.9
18873.4
20992.4
22647.5
20569.2
10036
433.561
382.958
412.61
454.669
494.242
536.484
583.911
648.734
750.334
919.039
1199.28
1641.23
2263.24
3032.85
3884.54
4778.44
5673.48
6576.8
7521.38
8573.76
9799.15
11250.8
13094.8
15726.3
18446.2
20316
22135.9
23441.2
21119.4
10165.8
436.824
384.323
412.738
455.059
495.822
540.615
593.679
671.151
799.103
1015.46
1379.63
1934.66
2669.66
3531.21
4450.32
5397.33
6348.8
7312.92
8341.73
9522.23
10924.3
12564.6
14592.1
17347.7
20141.4
21819.9
23168.8
23892.4
21298.8
10395.9
439.806
384.902
412.869
454.013
495.523
543.628
605.595
701.957
865.84
1146.48
1601.94
2277.31
3121.27
4070.16
5061.04
6075.94
7103.3
8154.92
9296.37
10641.9
12258.4
14137.4
16371.4
19213.3
22016.3
23401
24048.3
24074.4
21481.5
10487.6
442.248
384.142
411.291
453.413
496.076
548.016
621.712
745.134
959.576
1325.99
1891.82
2676.95
3606.15
4617.24
5681.31
6780.7
7903.19
9100.53
10415.2
11964.8
13845.1
16004.7
18469.4
21394.3
24114.6
25034.5
24724.3
23803.8
21217.9
10683.2
443.682
382.309
409.681
452.47
501.326
557.477
647.208
807.261
1090.44
1564.48
2257.47
3143.39
4141.29
5202.89
6319.96
7467.42
8707.76
10116
11708.7
13542.8
15725.3
18205.3
20930.4
23938.2
26487.3
26763.7
25363.9
23405.3
20649.8
10644.1
446.564
380.905
407.84
452.579
506.084
574.274
687.958
896.992
1269.88
1869.28
2692.25
3675.08
4740.73
5858.59
7024.89
8252.15
9626.61
11258.7
13174.2
15402.3
17939
20791.9
23814.5
26890.6
29185.1
28723.5
26304.7
23276.1
20230.2
10161.1
5600.16
5141.53
4723.48
4403.96
4170.76
4047.64
4031.55
4132.57
4349.27
4689.5
5156.43
5747.99
6459.58
7287.92
8224.38
9242.26
10305.9
11387.5
12466.5
13521.7
14555.4
15555.2
16512.7
17414
18256.2
19048
19786.1
20465.4
21086.3
21651.9
22161.1
22609.4
22995
23312.9
23560.5
23740
23850.9
23893.9
23864
23757
23575.7
23317.9
22982.6
22570.5
22084.3
21522.2
20886.3
20185.7
19449.8
18666.4
17840.6
16982.4
16103.5
15212.5
14315.6
13418.9
12533.3
11665.1
10821.2
10007.7
9227.52
8482.49
7772.49
7095.56
6449.78
5834.75
5251.12
4700.56
4185.01
3705.84
3264.02
2860.03
2493.84
2164.97
1872.76
1616.15
1393.64
1203.23
1042.66
909.169
799.641
710.87
639.748
583.403
539.222
504.849
478.273
457.803
442.092
430.09
420.991
414.18
409.174
405.591
403.163
401.715
401.131
401.284
402.108
403.679
406.204
409.199
412.418
415.746
419.02
422.233
425.76
429.47
433.632
438.158
440.286
442.216
444.485
447.58
452.365
456.75
459.572
461.033
461.192
460.329
458.622
456.297
453.185
450.465
448.737
14841.5
14076
13241.2
12619.5
12202
12081
12258.6
12748.7
13558.6
14708.3
16193.2
18005.3
20120
22489.1
25043.8
27735.9
30518.6
33344.8
36157.2
38903.5
41556.8
44089.2
46479.8
48721.5
50811.7
52747.8
54528.1
56146
57619.2
58948.9
60131.9
61166.7
62051.7
62785
63364.3
63787.9
64047.5
64146.3
64084.1
63855.5
63461
62900
62172.1
61279.7
60228.9
59025.4
57671.5
56164
54499.3
52699.1
50783.2
48781.3
46744.1
44661.9
42543.9
40409.9
38292.9
36207.6
34164.9
32172.3
30235.6
28360.2
26548.9
24799.8
23105.3
21462.6
19871.6
18334
16850.6
15422.9
14052.1
12739
11483.8
10287.8
9153.11
8083.08
7082.03
6155.71
5309.76
4548.74
3872.81
3279.55
2765.87
2327.04
1957.22
1649.13
1395.28
1188.17
1020.43
885.537
777.7
691.974
624.025
570.265
527.68
493.861
466.859
445.191
427.786
413.771
402.706
393.837
386.797
381.011
376.122
372.364
370.095
369.809
370.664
370.757
369.083
366.851
365.723
367.045
371.489
374.732
376.124
377.865
379.444
380.255
380.868
380.763
380.129
379.533
379.761
23461.4
22735.5
21901.5
21301.5
21023.1
21171.5
21751.4
22782.6
24285.2
26263.6
28698.4
31556.6
34785
38311.8
42044.5
45888.7
49784.1
53662.5
57471.8
61163.5
64697.3
68042.1
71178.9
74100.5
76807.6
79300.6
81583.1
83687.6
85605.5
87337.4
88886.2
90252.6
91435.6
92432.2
93238.9
93852
94266.8
94483.1
94497.9
94309.6
93918.6
93326.7
92535.6
91548.7
90362.1
89010.7
87493
85815.5
83981.6
81993.4
79851.2
77567.9
75142.3
72604.8
69976.4
67282.8
64608
61927.9
59235.5
56536.8
53840.7
51164.6
48514.8
45877.9
43258.7
40664.2
38103.5
35587.8
33125.9
30721.5
28384.5
26124.7
23950.8
21869.9
19890.6
18018.8
16258.7
14613.4
13084.7
11671.3
10370.7
9179.04
8090.25
7098.91
6201.39
5393.23
4670.21
4027.73
3461.05
2965.21
2535.23
2166.53
1853.58
1590.4
1370.88
1189.35
1040.41
919.067
820.744
741.359
677.86
626.735
585.469
551.53
523.151
500.384
482.745
470.199
461.514
452.009
441.574
431.341
423.503
419.398
420.29
420.346
417.279
415.24
414.26
413.166
411.088
408.595
406.38
405.201
406.087
33309.6
32753.8
32161.6
31888.4
32079.9
32796.5
34063.9
35911.2
38349.8
41364.2
44909
48918.5
53307.4
57975.8
62814.8
67708.2
72551.9
77295.2
81881.6
86280.4
90455.6
94373.9
98036.8
101427
104560
107457
110140
112607
114869
116934
118805
120480
121957
123230
124293
125142
125773
126185
126376
126348
126106
125653
124998
124145
123103
121883
120490
118926
117192
115288
113193
110955
108574
106039
103352
100498
97462
94303
91041.1
87683
84240.2
80767.6
77290
73778.3
70223
66628.3
63011.6
59411.8
55825.7
52276.3
48784.2
45369.3
42048.9
38837.5
35747.1
32792.1
29980.1
27317.9
24811.7
22469.5
20291.1
18276
16422.7
14727.9
13185.7
11784.5
10515.6
9367.8
8326.01
7381.58
6524.19
5747.91
5047.95
4420.29
3860.71
3363.79
2924.9
2541.62
2210.2
1926.76
1686.49
1483.86
1314.02
1170.99
1049.4
948.597
867.262
802.549
750.656
701.739
655.121
612.934
579.167
554.45
539.997
526.048
510.126
498.35
489.537
480.842
471.938
464.206
458.18
454.543
453.039
44988.8
44743.7
44647.2
45018.5
45961.1
47524.6
49748.3
52651.5
56224.5
60422
65167
70361.4
75892.5
81639.7
87479.2
93290.7
98955.3
104390
109564
114465
119065
123365
127349
131050
134501
137697
140659
143410
145966
148331
150506
152486
154266
155836
157191
158326
159239
159930
160402
160660
160713
160567
160232
159715
159024
158163
157130
155922
154531
152948
151157
149156
146942
144508
141853
138978
135842
132543
129054
125370
121478
117338
113028
108560
103947
99199.3
94350.5
89535
84708.7
79874.6
75060
70310.6
65658.8
61109.5
56692.3
52436.6
48355.8
44460.5
40767.2
37284.9
34019.5
30972.7
28142.8
25525
23115.5
20903.9
18878.4
17027.5
15335.8
13790.8
12378.4
11091.6
9922.27
8862.08
7901.91
7034.3
6252.5
5550.82
4922.14
4360.97
3861.56
3421.99
3033.78
2694.73
2394.04
2131.15
1909.02
1721.94
1561.86
1409.18
1261.38
1125.61
1008.45
915.793
844.927
778.021
715.94
667.886
629.756
596.473
568.244
546.135
529.999
518.932
511.494
58595.9
58830.6
59473.9
60724.4
62641
65267.1
68635.6
72739.7
77536.7
82948.6
88868.1
95171.2
101723
108388
115037
121551
127827
133781
139302
144488
149314
153796
157977
161852
165461
168828
171984
174950
177738
180351
182786
185038
187094
188950
190596
192032
193259
194283
195109
195747
196207
196496
196625
196602
196428
196102
195611
194944
194082
193001
191675
190085
188212
186045
183576
180791
177674
174241
170504
166473
162160
157472
152650
147613
142342
136843
131116
125147
119014
112764
106444
100192
94061.6
88033.8
82144.5
76452.2
70970.7
65715.9
60697.4
55931.7
51431.3
47201.1
43242.4
39556.4
36137.1
32966.9
30029.3
27311.2
24797.2
22476
20340.4
18382.1
16589.7
14952.8
13462
12107.7
10877.9
9762.86
8753.56
7843.8
7026.16
6296.66
5646.03
5065.99
4550.12
4092.35
3696.22
3355.42
3060.57
2784.16
2495.23
2216.79
1965.18
1749.25
1565.95
1388.45
1216.69
1071.87
953.627
852.974
769.93
705.434
657.124
621.353
594.908
73958.7
74833.6
76382.6
78657.8
81687.5
85501.2
90095.6
95427.5
101419
107960
114919
122149
129504
136844
144045
151001
157626
163820
169556
174805
179684
184226
188415
192303
195936
199359
202598
205668
208579
211335
213931
216358
218605
220666
222537
224225
225733
227071
228250
229280
230172
230935
231580
232114
232535
232830
232984
232971
232765
232322
231596
230548
229146
227371
225204
222625
219625
216213
212408
208238
203726
198863
193681
188192
182373
176195
169651
162939
156014
148873
141530
134050
126448
118822
111280
104046
97060.5
90331.4
83905
77791.8
71989.7
66511
61360.4
56523.5
51986.6
47745.3
43788.6
40103.1
36674.9
33489.3
30532.1
27790.4
25254.4
22915.6
20766.9
18797.9
16994.7
15344.9
13841.1
12478.9
11245.4
10132.3
9131.82
8234.28
7431.84
6715.69
6086.22
5538.42
5059.32
4635.84
4224.17
3818.46
3443.53
3109.44
2810.14
2500.25
2186.62
1899.11
1637.11
1402.01
1202.28
1041.97
916.035
817.402
742.642
90717.5
92329.7
94859
98224.9
102427
107447
113233
119703
126746
134225
141988
149877
157746
165465
172932
180056
186713
192874
198563
203825
208609
212982
217034
220786
224297
227600
230727
233702
236539
239240
241802
244216
246472
248566
250503
252289
253934
255452
256856
258161
259374
260511
261588
262617
263593
264495
265295
265956
266433
266656
266553
266079
265196
263892
262144
259932
257249
254106
250530
246556
242202
237467
232353
226841
220910
214545
207750
200583
193082
185245
176951
168648
160223
151669
143024
134354
125786
117436
109526
101988
94816.9
88036.7
81639
75614
69955.4
64651.8
59685.5
55035.7
50678
46600
42786.4
39224.9
35904.6
32813.5
29941.7
27277.5
24809.8
22531.6
20434
18511.1
16753.9
15156
13703.4
12387.8
11201.6
10133
9178.85