/*--------------------------------*- C++ -*----------------------------------*\
| =========                 |                                                 |
| \\      /  F ield         | OpenFOAM: The Open Source CFD Toolbox           |
|  \\    /   O peration     | Version:  2112                                  |
|   \\  /    A nd           | Website:  www.openfoam.com                      |
|    \\/     M anipulation  |                                                 |
\*---------------------------------------------------------------------------*/
FoamFile
{
    version     2.0;
    format      ascii;
    arch        "LSB;label=32;scalar=64";
    class       volVectorField;
    location    "0.01079";
    object      U;
}
// * * * * * * * * * * * * * * * * * * * * * * * * * * * * * * * * * * * * * //

dimensions      [0 1 -1 0 0 0 0];

internalField   nonuniform List<vector> 
13875
(
(2204.17 109.694 1.81271e-18)
(2142.47 5.62785 -9.38746e-19)
(2170.25 -2.17446 -9.41095e-19)
(2167.85 -0.741615 0)
(2170.39 0.108306 0)
(2169.32 -1.31708 9.36833e-19)
(2169.41 -1.20699 -9.37111e-19)
(2169.62 -0.284517 -4.68616e-19)
(2169.39 -0.204995 4.68315e-19)
(2169.43 0.145926 0)
(2169.38 0.506083 -3.8835e-22)
(2169.42 1.09106 -3.88131e-22)
(2169.59 0.937258 0)
(2169.39 -0.0194947 -4.68228e-19)
(2169.45 -0.927395 4.68593e-19)
(2169.6 -1.29188 0)
(2169.87 -0.263174 9.37053e-19)
(2169.22 0.349197 -9.37803e-19)
(2169.14 0.941133 3.87944e-22)
(2169.81 1.18673 -3.85757e-22)
(2170.45 -0.165299 -9.36281e-19)
(2167.85 0.290906 9.37155e-19)
(2171.1 2.46768 -1.87789e-18)
(2143.56 -8.72194 1.91668e-18)
(2210.51 -106.937 1.76334e-18)
(2253.4 91.9354 -1.63245e-18)
(2228.46 -1.16497 1.88336e-18)
(2247.41 0.686575 8.71837e-19)
(2245.5 0.890577 -8.67112e-19)
(2248.49 -0.486933 4.16918e-22)
(2247.59 1.93358 5.20159e-22)
(2245.78 1.3952 4.16213e-22)
(2245.47 0.331681 -4.35734e-19)
(2245.01 0.378561 4.35996e-19)
(2245.08 -0.0123098 2.17622e-19)
(2245.17 -0.62372 -1.63018e-19)
(2245.33 -1.49109 -5.31721e-20)
(2247.68 -1.18459 0)
(2247.85 0.0669338 -4.34999e-19)
(2247.56 1.04309 4.33458e-19)
(2245.6 1.43228 4.36028e-19)
(2245.52 0.497668 -4.35305e-19)
(2245.2 -0.243936 5.18488e-22)
(2245.69 -1.56119 -5.18691e-22)
(2247.84 -1.96973 5.19785e-22)
(2248.39 0.74617 -8.71453e-19)
(2245.58 -0.712304 2.59969e-18)
(2247.25 -1.58151 -1.74256e-18)
(2229.07 3.51762 5.42664e-22)
(2256.82 -96.739 -1.71172e-18)
(2252.4 78.1211 0)
(2236.35 -18.2446 0)
(2249.5 4.41657 0)
(2250.63 -1.85486 0)
(2253.52 -2.54235 -1.63935e-18)
(2253.34 1.66799 1.71752e-18)
(2253.13 2.10726 1.72254e-18)
(2253.23 0.569999 -2.58206e-18)
(2253.4 -0.00180231 8.61764e-19)
(2253.74 0.0709186 4.30692e-22)
(2253.63 0.145095 -4.30983e-19)
(2253.04 -2.27365 4.29828e-19)
(2254.09 -2.57043 0)
(2253.98 0.0102721 0)
(2254.04 2.36108 4.08172e-22)
(2253.18 2.00227 0)
(2254.07 0.224475 8.38103e-22)
(2253.11 -0.290204 4.3055e-19)
(2253.1 -2.51781 -4.30689e-19)
(2253.54 -1.75357 0)
(2253.72 2.35883 0)
(2250.9 1.34121 0)
(2250.68 -4.82748 0)
(2238.16 13.7599 0)
(2257.09 -74.5992 0)
(2247.86 51.352 0)
(2235.05 -28.6925 1.8142e-18)
(2249.3 7.17753 -3.41681e-18)
(2251.64 -4.75934 3.4659e-18)
(2253.29 -3.05717 -1.6355e-18)
(2253.33 1.41867 0)
(2253.54 1.70991 -8.42152e-22)
(2254.13 -0.0770036 0)
(2254.24 -0.389188 0)
(2254.29 -0.233341 0)
(2254.47 0.361477 0)
(2254.17 -1.94893 -8.44281e-22)
(2254.07 -2.47291 -5.09126e-20)
(2253.96 -0.0201467 5.07628e-20)
(2254.01 2.27295 0)
(2254.25 1.80275 0)
(2254.74 0.272166 7.9943e-22)
(2254.16 0.387186 -8.57271e-19)
(2253.81 -1.76057 8.56041e-19)
(2253.43 -1.48884 -1.62401e-18)
(2253.56 2.75268 1.62366e-18)
(2251.98 4.34691 1.74098e-18)
(2249.76 -8.89534 -1.72056e-18)
(2235.7 31.3183 0)
(2251.23 -58.684 0)
(2244.89 39.2771 1.74899e-18)
(2235.45 -47.8844 0)
(2248.74 10.4278 0)
(2250.35 -7.68288 0)
(2253.47 -4.25327 0)
(2253.19 0.973722 1.68868e-21)
(2253.45 1.11514 1.68736e-21)
(2254.23 -0.680018 4.32734e-19)
(2254.24 -0.583094 -4.30286e-19)
(2254.21 -0.297768 2.01403e-19)
(2254.45 0.437522 -2.07231e-19)
(2254.24 -1.44703 0)
(2254.09 -2.24344 0)
(2253.89 -0.0357378 -1.65968e-21)
(2254.06 2.07139 0)
(2254.3 1.35426 -1.68505e-21)
(2254.71 0.283481 8.07538e-19)
(2254 0.720817 -8.50965e-19)
(2253.5 -1.24845 1.71505e-18)
(2253.54 -0.837434 -1.69073e-18)
(2253.61 3.76571 1.65346e-21)
(2250.68 6.47186 0)
(2250.04 -11.5559 0)
(2237.2 42.9043 0)
(2250.34 -35.1556 0)
(2241.5 6.74916 0)
(2231.54 -63.6217 9.12424e-19)
(2247.2 12.2292 -8.47671e-19)
(2250.89 -11.219 0)
(2252.48 -4.9551 8.60365e-19)
(2252.9 0.264121 -4.36986e-19)
(2253.59 0.422612 -2.97379e-21)
(2254.25 -1.09595 -2.18643e-19)
(2254.14 -0.890104 -4.29716e-19)
(2254.09 -0.529088 1.60274e-19)
(2254.37 0.475787 1.64644e-21)
(2254.17 -1.1069 2.68534e-19)
(2253.99 -2.06189 -2.1551e-19)
(2253.77 -0.114625 3.36349e-21)
(2253.89 1.87915 -4.27603e-19)
(2254.21 1.15487 4.33245e-19)
(2254.64 0.342684 1.63761e-21)
(2254.11 1.32577 -1.68396e-21)
(2253.73 -0.371785 -1.67924e-21)
(2252.96 -0.368425 -8.58599e-19)
(2252.77 4.13809 8.46086e-19)
(2251.44 10.6914 0)
(2247.39 -15.1927 0)
(2232.44 65.5846 -1.93356e-18)
(2246.24 -18.7144 -1.26439e-19)
(2254.03 2.89438 -4.95243e-20)
(2227.49 -79.3499 6.02427e-20)
(2243.05 12.2061 0)
(2248.48 -15.6639 -2.69173e-23)
(2252.1 -6.79679 -2.62495e-23)
(2252.45 -0.845463 0)
(2253.23 -0.512913 0)
(2254.29 -1.79103 -8.62975e-19)
(2253.91 -0.884419 8.4718e-19)
(2253.82 -0.516914 0)
(2254.17 0.558257 1.6861e-18)
(2254.12 -0.584813 5.13345e-21)
(2253.9 -1.63603 -1.7231e-18)
(2253.63 -0.108641 -1.71175e-21)
(2253.87 1.44023 0)
(2254.18 0.691223 3.44566e-18)
(2254.42 0.389502 1.78947e-21)
(2253.75 1.71285 -6.90572e-18)
(2253.09 0.276631 3.45077e-18)
(2252.83 0.954366 2.6395e-23)
(2252.28 6.10793 0)
(2248.52 12.9722 3.52724e-18)
(2244.19 -12.5325 -3.30857e-18)
(2228.88 73.0479 3.81514e-18)
(2247.33 2.9043 -3.17851e-18)
(2218.36 -22.8471 -3.17015e-19)
(2214.7 -87.4759 -7.49647e-18)
(2235.64 3.49066 8.70689e-22)
(2246.05 -22.4617 2.6116e-23)
(2248.77 -8.99799 -8.09378e-22)
(2251.22 -2.56387 0)
(2252.97 -1.86744 -3.44578e-18)
(2253.91 -2.26684 3.45232e-18)
(2253.57 -1.18397 0)
(2253.47 -0.858388 -8.29932e-22)
(2253.89 0.363049 -8.21579e-22)
(2253.85 -0.345793 0)
(2253.59 -1.40548 0)
(2253.33 -0.10978 -1.65974e-21)
(2253.48 1.26003 -8.38588e-22)
(2253.93 0.537459 2.60062e-23)
(2254.13 0.698243 -8.56208e-22)
(2253.53 2.44861 -2.62941e-23)
(2252.91 1.72788 -1.73252e-18)
(2251.39 2.38988 -1.62366e-20)
(2249.25 8.06092 1.68867e-18)
(2246.39 19.4001 8.85494e-22)
(2236.72 -4.80886 3.45899e-18)
(2216.54 81.5066 -3.5372e-18)
(2222.43 18.1482 2.50146e-23)
(2113.26 -37.8672 9.42634e-19)
(2168.62 -98.6209 0)
(2217.13 -20.2119 -8.31502e-22)
(2234.92 -32.3757 -8.65932e-19)
(2245.78 -17.5686 1.71065e-18)
(2248.8 -6.56801 -1.7275e-18)
(2251.43 -3.82871 9.07991e-21)
(2253.12 -3.22964 8.59523e-19)
(2252.72 -1.09424 0)
(2252.69 -0.801595 -8.46782e-19)
(2253.19 0.409182 8.45739e-19)
(2253.32 0.251254 0)
(2253.04 -0.865332 0)
(2252.72 -0.214565 2.10361e-21)
(2252.96 0.558329 8.34475e-22)
(2253.3 0.0478016 8.42313e-19)
(2253.33 0.900376 -8.44469e-19)
(2252.55 3.26248 0)
(2251.26 3.363 8.60695e-19)
(2249.49 6.04483 -1.72831e-18)
(2246.23 15.1737 8.44907e-19)
(2236.19 28.8837 -8.40872e-22)
(2219.05 16.6599 0)
(2171.38 93.9375 0)
(2117.13 35.3577 0)
(1873.56 -142.242 -6.5702e-17)
(2125.73 -161.379 8.42532e-17)
(2198.88 -54.7811 0)
(2229.3 -54.1622 -2.99366e-17)
(2239.78 -21.9789 3.07072e-17)
(2246.52 -11.306 0)
(2249.76 -7.90472 -2.95739e-20)
(2251.46 -4.54411 -1.46278e-17)
(2251.32 -1.88723 1.45995e-17)
(2251.39 -1.46254 -2.93929e-20)
(2251.99 -0.208425 0)
(2252.16 0.241749 -3.70276e-18)
(2251.86 -0.513364 5.58714e-18)
(2251.53 -0.212741 -1.89878e-18)
(2251.71 0.427075 -2.9245e-20)
(2252.01 0.373513 0)
(2251.9 1.75935 0)
(2250.96 5.02815 -2.94689e-17)
(2249.44 7.55197 2.90851e-17)
(2246.67 10.2541 -3.05944e-17)
(2240.47 20.4811 2.91777e-17)
(2229.41 52.9926 3.22066e-17)
(2199.89 52.5018 -2.92255e-17)
(2128.74 161.814 -8.33861e-17)
(1884.6 138.376 -1.25851e-17)
(1653.07 -215.597 -9.08337e-17)
(2011.59 -307.666 1.376e-16)
(2159.68 -104.639 0)
(2210.96 -64.957 6.82534e-17)
(2232.88 -29.8336 -7.08268e-17)
(2241.96 -15.6561 -3.40758e-17)
(2245.65 -8.18605 3.39953e-17)
(2248.13 -3.75137 -3.29376e-17)
(2248.35 -1.34391 3.33153e-17)
(2248.8 -0.944566 3.2598e-20)
(2249.58 0.146032 0)
(2249.83 0.826115 -2.11518e-18)
(2249.58 0.15634 2.16668e-18)
(2249.19 -0.290553 3.31693e-20)
(2249.29 -0.433769 3.30543e-20)
(2249.38 -0.405011 3.30742e-20)
(2249.14 0.867009 0)
(2248.03 4.53469 0)
(2245.09 7.60674 -6.7719e-17)
(2242.27 15.41 6.81709e-17)
(2233.7 26.9453 -7.13512e-17)
(2211.56 59.0105 1.47074e-16)
(2166.1 99.4459 -6.9947e-17)
(2016.81 298.583 -3.86831e-20)
(1697.81 206.057 8.75292e-20)
(1281.55 -592.763 -1.08909e-16)
(1742.65 -590.883 1.18944e-16)
(2046.49 -180.871 2.1674e-16)
(2174.02 -107.273 -9.35469e-17)
(2208.47 -36.999 0)
(2230.2 -20.9545 7.42825e-17)
(2238.54 -13.2404 -7.5182e-17)
(2241.8 -6.74118 0)
(2242.58 -3.85733 3.5497e-20)
(2243.59 -2.70589 0)
(2244.54 -1.01709 0)
(2244.8 0.49104 0)
(2244.67 0.548955 4.66901e-18)
(2244.25 -0.0311584 -4.63198e-18)
(2244.22 0.0505784 -3.70757e-20)
(2243.96 0.81859 -3.54149e-20)
(2243.36 2.80466 0)
(2241.74 7.20011 0)
(2238.04 13.9177 0)
(2228.48 19.0589 -7.89329e-17)
(2211.52 37.2548 1.5692e-16)
(2176.43 102.637 -7.23195e-17)
(2052.72 161.806 -1.33643e-16)
(1750.2 592.171 1.00493e-16)
(1286.06 543.597 -5.99343e-20)
(1301.95 -610.338 1.60775e-16)
(1114.19 -1086.64 0)
(1700.61 -455.635 0)
(1927.63 -130.621 -1.08304e-16)
(2150.55 -85.5546 1.09368e-16)
(2201.52 -43.0337 0)
(2215.92 -13.2276 1.12634e-20)
(2224.21 -4.94045 4.03374e-17)
(2227.65 -1.41613 -4.09095e-17)
(2230.48 -0.815035 0)
(2232.04 0.361778 -1.00761e-17)
(2232.45 1.22972 1.01088e-17)
(2232.56 1.25105 -5.07042e-18)
(2232.15 0.239057 5.08407e-18)
(2231.78 -0.606258 3.86327e-20)
(2230.63 -1.06827 -4.06322e-17)
(2228.19 -0.140992 8.05185e-17)
(2223.68 4.24867 1.0474e-18)
(2214.18 13.4806 -4.04051e-17)
(2197.93 45.0707 -9.08568e-17)
(2134.02 72.1359 8.43731e-17)
(1912.43 109.616 8.25598e-20)
(1758.55 455.632 2.60566e-20)
(1103.64 1071.15 1.67441e-16)
(1319.47 612.414 7.17189e-18)
(1358.82 -629.603 0)
(1143.41 -1059.46 0)
(1291.62 -752.821 0)
(1196.34 -816.26 0)
(1954.27 -256.761 0)
(2048.83 -61.3822 1.02017e-16)
(2156.85 -45.527 -1.04233e-16)
(2175.67 -29.228 1.15141e-19)
(2184.56 -18.6349 -1.03164e-20)
(2191.81 -10.4876 2.25902e-17)
(2194.53 -4.79144 -2.28368e-17)
(2195.34 -0.88449 -2.25454e-19)
(2195.65 0.929841 -7.06741e-19)
(2195.24 1.73269 8.02108e-19)
(2194.45 3.61672 -2.26507e-17)
(2192 8.25116 2.2425e-17)
(2185.3 17.4375 9.90946e-20)
(2174.61 31.605 0)
(2149.47 51.6472 0)
(2017.05 86.2517 0)
(1918.55 324.053 -2.11399e-16)
(1168.39 812.958 -6.17751e-17)
(1296.81 702.402 1.64036e-16)
(1135.47 1023.09 2.05597e-20)
(1368.88 619.03 2.08607e-20)
(1436.87 -621.331 0)
(1273.45 -927.31 3.94181e-20)
(1320.79 -785.253 0)
(1234.32 -859.184 -1.68295e-16)
(1334.27 -802.052 3.18754e-16)
(1638.63 -558.388 -2.04408e-16)
(1939.01 -121.805 0)
(1959.44 -13.3547 -1.02519e-19)
(2007.72 15.0442 0)
(2045.23 8.38411 0)
(2057.06 5.79775 -1.40697e-17)
(2060.78 2.84169 1.4397e-17)
(2061.88 2.08185 1.41785e-17)
(2061.36 1.48818 -1.42403e-17)
(2059.02 -0.105693 0)
(2050.36 -3.91575 -5.86074e-17)
(2018.13 -9.79133 5.91088e-17)
(1962.76 17.8622 7.11699e-17)
(1937.52 143.307 -5.96419e-17)
(1595.31 587.823 0)
(1308.67 794.585 0)
(1203.25 850.648 -1.71868e-19)
(1331.25 779.166 -1.70898e-16)
(1266.96 918.189 3.66686e-16)
(1425.22 619.101 -1.6942e-16)
(1519.37 -631.324 -1.69206e-16)
(1387.49 -855.519 1.8695e-16)
(1383.73 -759.597 0)
(1280.27 -818.063 -1.90464e-16)
(1307.11 -783.251 -6.25659e-18)
(1306.62 -745.648 2.77284e-16)
(1258.66 -594.526 -1.99709e-16)
(1321.77 -524.606 1.18196e-16)
(1541.28 -269.6 0)
(1563.65 -120.612 0)
(1549.63 -58.3513 -4.07887e-20)
(1546.07 -21.317 2.72886e-19)
(1543.34 -3.55022 0)
(1545.08 11.8756 0)
(1548.51 41.7686 5.79249e-17)
(1558.86 108.454 -5.5052e-17)
(1574.79 228.967 -1.10489e-16)
(1334.73 526.028 2.24383e-16)
(1246.91 597.368 1.8216e-17)
(1286 746.216 -9.04524e-17)
(1301.27 779.093 0)
(1252.81 823.32 0)
(1382.32 760.964 -1.73787e-16)
(1351.1 887.904 2.0289e-16)
(1502.23 641.03 -4.59538e-20)
(1660.17 -610.08 1.57227e-16)
(1562.27 -749.005 -9.69866e-20)
(1527.37 -687.478 9.49052e-17)
(1466.86 -725.721 -8.49747e-17)
(1398.25 -681.897 -4.4652e-20)
(1339.03 -599.364 8.7655e-20)
(1191.58 -448.444 1.15716e-16)
(869.742 -241.58 -1.80195e-16)
(697.227 -126.503 6.39684e-17)
(533.26 -57.4176 0)
(410.285 -21.7362 -3.37214e-17)
(370.608 -7.67893 3.36758e-17)
(354.269 0.734321 0)
(361.614 9.37468 6.32772e-20)
(391.46 17.6707 -3.3585e-17)
(499.664 50.4466 3.38119e-17)
(739.114 122.96 0)
(873.637 253.528 -1.16462e-16)
(1177.8 439.106 1.16677e-16)
(1327.32 595.261 8.92033e-17)
(1389.23 685.208 -1.8617e-16)
(1433.96 744.744 9.95946e-17)
(1520.16 708.903 0)
(1547.48 776.278 1.68796e-16)
(1650.24 625.071 -3.29815e-18)
(1815.05 -551.95 -3.32066e-18)
(1746.12 -602.338 8.00874e-17)
(1688.17 -549.207 -3.63597e-17)
(1540.01 -422.416 -5.72286e-17)
(1420.15 -358.003 7.33037e-17)
(1386.09 -278.518 -5.12614e-17)
(1292.01 -253.951 5.29135e-17)
(947.347 -198.613 -5.86102e-17)
(736.295 -109.614 -5.06065e-19)
(597.324 -59.0903 3.29998e-17)
(502.91 -30.4001 1.6505e-17)
(471.059 -15.0077 -1.55061e-19)
(458.429 2.03449 -1.66921e-17)
(466.038 22.0947 -6.03752e-20)
(498.229 31.0623 -7.50688e-20)
(591.325 54.9194 -2.06729e-18)
(794.773 103.574 2.19809e-20)
(970.833 194.159 5.37958e-18)
(1282.76 227.61 -3.53824e-18)
(1365.57 305.814 0)
(1409.54 399.965 1.09203e-17)
(1551.46 478.163 -3.45297e-17)
(1689.32 590.782 4.13902e-17)
(1741.73 634.504 -5.64907e-17)
(1810.21 569.752 5.30894e-17)
(1998.73 -510.45 -8.72003e-20)
(1954.22 -330.079 -1.04786e-19)
(1882.42 -318.253 1.21837e-19)
(1789.22 -215.348 -5.49139e-21)
(1529.85 -69.0659 -1.8334e-19)
(1418.11 -27.6598 -2.00506e-19)
(1376.24 -72.136 -7.14756e-21)
(1196.82 -90.2959 0)
(967.04 -104.431 0)
(819.255 -121.787 6.56739e-17)
(734.555 -102.266 -6.71747e-17)
(695.882 -51.0999 -8.84662e-21)
(680.399 1.90728 8.82916e-21)
(686.748 52.2293 -8.64099e-18)
(720.023 114.444 8.37637e-18)
(807.652 147.095 0)
(985.73 127.681 0)
(1175.28 108.575 -5.64927e-17)
(1341.62 72.6229 5.60579e-17)
(1367.91 16.7678 -1.94179e-19)
(1536.21 73.8224 0)
(1801.23 228.073 0)
(1887.28 323.114 -1.24061e-19)
(1953.11 331.737 -1.07523e-19)
(2000.83 523.872 1.23047e-16)
(1492.8 -177.699 -1.88127e-16)
(1738.02 -124.202 -2.39797e-16)
(1847.43 116.042 1.22443e-16)
(1796.72 145.572 0)
(1645.29 187.075 1.99035e-19)
(1518.53 144.621 1.08054e-16)
(1505.02 34.006 -2.08583e-16)
(1404.84 -18.229 1.06223e-16)
(1222.96 -55.9331 -1.21035e-16)
(1061.02 -83.4653 1.25269e-16)
(935.293 -73.6652 3.30061e-17)
(862.236 -28.6349 -4.11171e-17)
(839.969 6.32506 -8.3238e-18)
(856.575 40.6698 1.68385e-17)
(930.668 91.4777 0)
(1069.63 108.783 0)
(1245.86 76.9449 1.16598e-16)
(1391.38 37.1211 -2.2092e-16)
(1485.92 -38.3228 1.09362e-16)
(1497.46 -155.688 2.27507e-19)
(1662.38 -196.807 1.53323e-16)
(1789.49 -155.395 -9.74674e-17)
(1829.76 -137.477 -4.90658e-16)
(1736.9 134.018 6.22696e-16)
(1482.61 188.065 -2.49585e-16)
(-48.1477 -75.0032 1.11938e-19)
(482.172 -108.242 -2.5609e-16)
(1396.3 302.119 1.7432e-16)
(1673.52 495.651 0)
(1671.01 418.041 0)
(1611.6 276.246 0)
(1603.4 138.256 0)
(1529.22 67.179 0)
(1373.15 19.2216 -5.16696e-17)
(1209.64 -20.728 1.08446e-16)
(1077.27 -25.6306 -8.46989e-17)
(1001.02 -6.36804 3.21766e-17)
(977.949 8.95585 -3.62842e-18)
(1001.01 21.2489 1.58498e-20)
(1084.99 44.4211 -5.58529e-17)
(1234.44 40.4813 5.54955e-17)
(1403.11 -1.8919 0)
(1526.92 -53.9272 0)
(1599.14 -139.757 -1.73401e-16)
(1603.15 -294.669 1.85808e-16)
(1677.21 -423.901 -1.61952e-19)
(1651 -502.428 7.30663e-20)
(1353.81 -269.766 -9.51299e-20)
(408.956 154.316 -1.1596e-19)
(-126.793 94.3994 0)
(-266.492 -42.2087 -2.24255e-16)
(380.029 264.374 2.29143e-16)
(1253.2 635.939 -1.71935e-19)
(1627.04 739.821 1.6347e-16)
(1723.44 573.681 -1.21648e-16)
(1687.96 389.228 0)
(1675.77 234.213 -8.18304e-17)
(1611.81 158.673 7.46023e-17)
(1475.09 95.5636 -4.45913e-17)
(1325.63 38.7326 9.34383e-17)
(1195.41 11.2702 -4.81996e-17)
(1119.43 10.8572 1.8343e-19)
(1100.25 7.39349 0)
(1125.06 2.89407 2.49421e-17)
(1213.96 1.48329 2.31302e-17)
(1359.26 -29.4521 -4.73593e-17)
(1505.99 -91.175 -8.14045e-17)
(1609.42 -150.808 8.39569e-17)
(1677.64 -238.856 -7.2184e-17)
(1682.85 -414.434 7.96708e-17)
(1727.22 -591.934 7.98335e-20)
(1588.62 -765.582 -7.60367e-20)
(1191.53 -623.286 0)
(317.153 -269.651 1.12991e-19)
(-266.902 19.9604 0)
(236.621 220.455 1.91548e-16)
(840.462 701.789 -1.89047e-16)
(1396.67 862.072 6.19497e-20)
(1671.46 865.131 0)
(1774.87 673.123 0)
(1737.78 508.478 -7.3103e-21)
(1721.13 352.708 0)
(1668.42 249.764 7.39691e-20)
(1553.6 167.986 0)
(1417.33 96.3839 4.16178e-17)
(1300.12 51.7709 -6.39967e-17)
(1229.48 24.6986 3.26364e-17)
(1208.04 6.26619 -1.10184e-17)
(1234.76 -15.1141 0)
(1315.93 -42.0261 0)
(1445.14 -90.9673 3.88577e-17)
(1575.94 -161.889 -1.09202e-16)
(1662.55 -248.149 7.30679e-17)
(1731.65 -345.792 -6.11315e-17)
(1737.1 -513.672 6.98217e-17)
(1784.62 -679.114 0)
(1662.41 -885.78 0)
(1386.92 -879.705 0)
(870.155 -728.968 -1.17297e-20)
(240.856 -202.059 -2.01748e-16)
(309.612 77.601 -3.58114e-20)
(1079.73 721.646 1.56222e-16)
(1529.88 927.408 -1.20128e-16)
(1735.67 906.185 0)
(1805.7 734.254 0)
(1763.05 595.17 7.58321e-21)
(1758.8 441.675 6.44734e-17)
(1713.73 327.636 -5.70101e-17)
(1613.54 226.416 3.0349e-20)
(1495.09 140.578 3.29566e-20)
(1388.67 77.2825 3.48792e-20)
(1322.98 38.3723 -1.03611e-20)
(1304.81 4.08871 -1.03976e-20)
(1327.72 -31.0277 1.93204e-17)
(1403.72 -71.7941 -1.93433e-17)
(1521.66 -137.68 4.22045e-20)
(1636.04 -223.019 3.88497e-20)
(1706.93 -329.469 0)
(1766.11 -434.68 -5.42301e-17)
(1769.15 -590.863 6.22912e-17)
(1819.04 -739.104 0)
(1735.78 -918.926 -9.92786e-17)
(1523.73 -929.452 1.22349e-16)
(1065.61 -711.781 9.06096e-21)
(320.105 -54.0582 -1.88214e-16)
(486.533 115.353 4.1661e-20)
(1242.92 745.801 0)
(1629.16 926.27 0)
(1780.46 914.146 -4.76211e-17)
(1820.14 776.656 4.5934e-17)
(1781.78 653.099 0)
(1790.51 507.773 5.87324e-17)
(1751.08 388.196 -5.24817e-17)
(1663.98 274.392 3.18066e-17)
(1556.89 179.256 -3.2139e-17)
(1465.2 104.96 1.76958e-17)
(1408.01 47.7485 -1.78041e-17)
(1389.82 1.88235 0)
(1414.17 -46.4674 -1.76323e-17)
(1481.13 -105.79 1.76927e-17)
(1582.85 -184.673 -3.47449e-20)
(1685.18 -274.139 -3.20743e-20)
(1744.97 -397.784 5.17018e-20)
(1794.02 -508.135 4.97764e-17)
(1784.41 -656.491 -5.72745e-17)
(1832.72 -781.303 -4.56478e-20)
(1777.62 -929.806 -4.46554e-20)
(1623.65 -922.257 0)
(1212.47 -732.949 -7.2372e-20)
(459.157 -97.0362 4.21656e-20)
(522.783 133.434 1.59698e-22)
(1317.6 689.461 0)
(1695.18 872.289 9.31457e-23)
(1781.44 909.047 4.04493e-20)
(1824.33 803.582 -8.56721e-23)
(1796.83 700.443 -5.19209e-17)
(1816.73 559.988 4.60112e-17)
(1785.21 438.91 0)
(1708.99 315.296 -5.90675e-20)
(1618.37 213.104 -1.0784e-22)
(1534.14 124.342 -1.13804e-22)
(1481.81 58.9051 6.89748e-20)
(1467.16 0.595571 0)
(1485.92 -58.0779 0)
(1546.71 -125.157 -1.13116e-22)
(1640.03 -216.837 -1.06763e-22)
(1729.76 -315.517 -2.63051e-17)
(1777.66 -445.856 7.52367e-17)
(1817.1 -558.108 -5.32804e-17)
(1798.86 -699.349 0)
(1839.5 -800.133 -4.40161e-17)
(1783.23 -915.055 4.41899e-17)
(1698.32 -868.388 9.29026e-23)
(1314.2 -669.165 6.24763e-20)
(518.936 -132.964 1.60389e-22)
(664.33 216.16 3.02417e-18)
(1448.83 676.03 1.24406e-17)
(1744.77 847.412 9.75787e-17)
(1792.5 895.803 -4.1154e-17)
(1838.27 805.014 4.25575e-17)
(1815.1 716.512 -4.7664e-17)
(1843.03 587.79 4.29021e-17)
(1812.47 472.451 -2.51395e-17)
(1745.85 344.923 2.4642e-17)
(1664.4 240.368 1.14776e-22)
(1595.09 146.07 1.20569e-22)
(1550.91 66.0212 -1.231e-22)
(1535.46 0.371173 7.44253e-18)
(1554.89 -67.1997 7.25091e-18)
(1606.45 -148.959 -1.4852e-17)
(1684.36 -247.99 1.13907e-22)
(1765.88 -342.155 4.89276e-17)
(1807.78 -478.091 -9.50867e-17)
(1845.03 -584.694 4.89124e-17)
(1812.71 -720.898 0)
(1848.82 -802.44 -8.33941e-23)
(1794.22 -899.429 7.91391e-23)
(1739.86 -849.331 -8.43989e-23)
(1438.13 -669.444 -1.21933e-16)
(651.225 -210.998 1.50527e-16)
(718.195 222.822 1.40786e-19)
(1503.74 632.831 0)
(1763.34 801.148 0)
(1798.22 866.805 3.95947e-20)
(1846.2 792.395 8.056e-20)
(1833.47 726.243 0)
(1868.19 606.052 4.49152e-17)
(1839.42 493.379 -4.22464e-17)
(1779.44 363.053 4.43293e-20)
(1712 257.508 -4.75258e-20)
(1648.62 153.103 -1.37323e-17)
(1609.06 70.9064 1.37648e-17)
(1597.89 -3.47951 3.57174e-18)
(1612.96 -78.8978 -3.47618e-18)
(1660.07 -163.179 1.3246e-17)
(1731.36 -272.135 -3.78387e-17)
(1801.66 -373.064 2.46429e-17)
(1832.64 -509.027 -4.63886e-20)
(1865.3 -611.682 3.94687e-20)
(1830.21 -733.365 -4.07122e-17)
(1852.62 -796.393 8.18845e-19)
(1805.93 -864.726 -2.06427e-18)
(1766.65 -788.352 4.12802e-17)
(1472.07 -603.2 5.69433e-20)
(647.435 -209.188 6.93318e-20)
(717.171 205.679 1.34934e-16)
(1539.11 581.167 -1.09657e-16)
(1792.56 761.872 0)
(1817.71 841.786 -3.8202e-17)
(1861.22 782.293 3.02946e-19)
(1853.18 720.791 3.95017e-17)
(1891.56 613.028 4.16835e-17)
(1861.17 511.777 -3.98621e-17)
(1810.36 383.514 -4.67642e-20)
(1749.78 279.013 -2.45537e-17)
(1699.68 173.023 1.19177e-17)
(1666.19 79.794 1.26141e-17)
(1653.29 0.639935 -5.38974e-20)
(1668.41 -80.2984 0)
(1706.79 -174.809 0)
(1763.56 -286.337 0)
(1829.3 -378.212 4.64514e-20)
(1857.55 -515.294 9.64713e-21)
(1891.39 -608.767 -4.97748e-20)
(1850.62 -721.848 0)
(1865.75 -780.427 3.82067e-20)
(1820.44 -838.549 9.41041e-21)
(1795.37 -760.035 -4.88789e-20)
(1553.32 -580.367 -1.06997e-16)
(762.221 -241.572 1.36578e-16)
(765.575 230.915 6.58131e-17)
(1562.91 522.112 -9.69809e-17)
(1809.5 681.685 8.23243e-17)
(1829.48 786.873 -4.10799e-17)
(1872.38 752.736 -3.73671e-17)
(1870.12 707.192 3.77153e-17)
(1911.94 614.519 1.92474e-17)
(1882.28 518.576 -1.89452e-17)
(1837.08 389.623 1.08096e-17)
(1788.83 285.907 -2.23248e-17)
(1742.4 173.262 1.73717e-17)
(1712.51 82.8023 -7.40683e-18)
(1704.14 -2.54154 1.48925e-18)
(1715.09 -88.668 -4.38757e-20)
(1750.94 -179.562 2.28483e-17)
(1803.53 -298.757 -2.28184e-17)
(1859.54 -395.814 3.86825e-20)
(1877.84 -527.757 3.79265e-17)
(1910.66 -613.959 -1.80121e-18)
(1863.61 -710.959 -3.84894e-17)
(1876.35 -756.529 0)
(1836.3 -788.132 4.1021e-17)
(1813.44 -691.44 -3.67639e-17)
(1573.24 -529.88 -1.03605e-16)
(792.904 -265.458 -1.33608e-18)
(889.037 263.093 -6.26981e-17)
(1628.9 479.828 4.84461e-17)
(1835.63 638.627 1.90541e-20)
(1847.15 747.729 -5.38612e-20)
(1892 737.664 1.81583e-20)
(1892.12 684.86 3.60901e-17)
(1934.39 595.029 -1.72637e-17)
(1899.29 512.048 -1.83076e-17)
(1862.3 390.161 4.13263e-20)
(1817.95 291.685 -4.41115e-20)
(1782.85 181.296 2.02842e-20)
(1759.07 83.5631 -2.05473e-20)
(1749.5 -3.87937 0)
(1761.7 -93.1241 5.2372e-21)
(1790.07 -192.008 -1.07049e-17)
(1829.93 -308.74 1.07653e-17)
(1883.23 -394.878 -1.92786e-17)
(1898.82 -526.656 9.61937e-19)
(1932.37 -599.806 1.81075e-17)
(1887.63 -689.801 -5.33603e-20)
(1890.15 -741.911 -3.65869e-17)
(1855.05 -746.019 3.48719e-17)
(1840.73 -639.015 0)
(1627.81 -482.564 -4.8967e-17)
(859.908 -268.305 6.2063e-17)
(922.039 276.027 0)
(1647.56 434.751 -4.27035e-17)
(1841.3 556.202 4.24561e-17)
(1867.51 673.595 1.77119e-20)
(1903.04 698.682 1.71273e-20)
(1910.95 662.753 -3.458e-17)
(1947.28 591.279 3.4101e-17)
(1916.46 514.977 1.82736e-17)
(1885.49 395.342 7.9795e-19)
(1852.41 297.4 -1.96626e-17)
(1818.91 181.901 -2.14691e-20)
(1796.86 89.5213 2.43008e-20)
(1791.17 -1.26148 0)
(1797.72 -92.5984 4.3675e-20)
(1824.51 -183.652 -2.13843e-20)
(1862.57 -307.62 9.74425e-18)
(1907.54 -397.14 -9.62722e-18)
(1913.74 -520.054 -1.82843e-20)
(1946.74 -589.126 -1.91221e-20)
(1905 -664.16 1.75605e-20)
(1902.36 -705.437 -3.62902e-17)
(1872.54 -684.913 -6.37103e-18)
(1850.99 -574.395 3.3781e-17)
(1663.12 -436.101 0)
(937.225 -264.023 6.04086e-17)
(1011.64 281.75 -1.14365e-16)
(1687.03 397.16 4.50961e-17)
(1855.29 499.165 3.25916e-17)
(1890 625.25 -4.06936e-17)
(1919.75 672.416 0)
(1932.95 642.793 -2.07227e-21)
(1967.21 568.447 0)
(1931.26 498.045 -2.19124e-21)
(1907.31 387.002 -2.32333e-21)
(1875.15 296.102 0)
(1851.27 185.531 0)
(1835.15 87.7499 -2.55789e-21)
(1827.89 -2.46152 0)
(1836.91 -95.2442 0)
(1856.82 -193.195 -9.63313e-18)
(1883.2 -310.339 9.6197e-18)
(1928.83 -387.677 -2.30559e-21)
(1933.6 -510.169 -1.71177e-17)
(1965.16 -572.896 1.63305e-17)
(1929.96 -644.705 0)
(1916.8 -679.182 3.57645e-17)
(1892.6 -636.396 -7.28136e-17)
(1863.19 -517.393 7.24936e-17)
(1687.32 -395.905 3.91599e-18)
(1002.9 -268.393 -5.74723e-17)
(1070.19 270.862 1.35822e-20)
(1706.06 366.432 -1.04902e-20)
(1859.58 433.691 0)
(1907.43 545.778 0)
(1928.96 616.384 0)
(1950.41 611.004 7.70818e-21)
(1976.67 556.162 0)
(1944.39 489.04 -7.86826e-21)
(1927.41 381.812 0)
(1904.97 291.691 -8.4951e-21)
(1881.07 176.445 0)
(1864.94 86.8831 -2.36263e-18)
(1861.62 -3.92654 2.34525e-18)
(1865.59 -95.9908 0)
(1886.04 -183.531 9.18853e-18)
(1912.13 -308.098 -1.80158e-17)
(1948.87 -388.473 8.70852e-18)
(1946.01 -497.534 0)
(1977.61 -559.049 1.59209e-17)
(1944.53 -616.055 -1.59468e-17)
(1930.72 -626.857 3.56027e-17)
(1911.35 -559.009 -3.15253e-17)
(1860.14 -448.495 0)
(1710.22 -367.527 0)
(1086.06 -283.727 0)
(1113.68 262.434 -1.31914e-20)
(1726.99 343.917 1.03085e-20)
(1877.28 378.1 0)
(1927.44 469.915 0)
(1947.27 579.599 0)
(1969.8 592.902 -7.64344e-21)
(1997.64 533.585 0)
(1959.06 468.615 8.1969e-21)
(1947.98 369.753 0)
(1924.36 289.663 -8.80276e-18)
(1908.09 182.427 8.83865e-18)
(1897.07 88.4562 -8.3795e-21)
(1891.37 -0.438769 9.26379e-21)
(1898.18 -92.858 8.36447e-21)
(1911.77 -185.036 0)
(1928.11 -299.304 0)
(1968.79 -367.821 8.46713e-21)
(1963.57 -479.609 -1.62322e-17)
(1996.36 -537.996 1.50874e-17)
(1967.6 -594.529 0)
(1941.34 -588.462 7.8531e-21)
(1929.19 -486.976 0)
(1878.86 -397.661 0)
(1732.26 -347.886 0)
(1140.91 -262.83 0)
(1138.13 234.552 -5.09665e-17)
(1737.36 314.026 4.19139e-17)
(1887.51 321.092 0)
(1936.23 390.147 -1.67482e-20)
(1955.88 516.966 0)
(1980.52 548.395 -1.45529e-17)
(2004.63 514.679 3.00955e-17)
(1971.25 457.144 -1.58564e-17)
(1964.41 361.213 -8.13371e-18)
(1949.91 281.474 8.34265e-18)
(1932.84 170.264 4.34684e-21)
(1920.58 85.6375 1.11743e-18)
(1918.84 -3.06011 -1.07383e-18)
(1920.78 -93.1579 8.52224e-18)
(1937.64 -174.449 -8.51715e-18)
(1953.98 -296.124 0)
(1984.57 -365.99 -1.51532e-20)
(1975.11 -463.351 0)
(2006.16 -520.538 0)
(1979.56 -558.649 -1.62457e-17)
(1953.03 -526.191 1.46654e-17)
(1936.91 -404.31 0)
(1886.28 -337.217 3.65318e-17)
(1739.84 -320.74 2.24976e-18)
(1153.61 -239.74 -1.02925e-16)
(1199.04 223.077 5.08694e-17)
(1765.89 291.257 1.941e-20)
(1900.89 273.018 3.0906e-17)
(1939.74 320.451 -2.3241e-17)
(1968.47 476.35 -1.76361e-17)
(1995.59 518.83 0)
(2023.14 488.75 7.516e-21)
(1986.1 430.561 1.51774e-17)
(1983.76 341.158 -1.57861e-17)
(1965.25 270.741 0)
(1954.31 170.464 0)
(1947.35 82.7448 -2.58369e-20)
(1942.79 -2.81783 3.22027e-20)
(1948.65 -92.8366 1.67946e-20)
(1958.19 -176.749 4.08036e-18)
(1967.06 -284.353 -4.03797e-18)
(2004.24 -344.841 8.36682e-21)
(1993.45 -446.601 1.55335e-17)
(2022.82 -496.281 -2.8903e-17)
(1994.15 -524.382 1.40414e-17)
(1966.02 -484.725 -1.48885e-20)
(1943.74 -323.706 0)
(1904.37 -288.987 1.68525e-20)
(1755.98 -299.644 4.06341e-17)
(1155.99 -205.83 -1.01058e-16)
(1208.86 185.03 -4.99187e-17)
(1767.52 259.249 -3.83369e-17)
(1904.64 229.841 3.49379e-17)
(1931.6 249.992 1.45091e-17)
(1977.42 393.268 -1.82294e-17)
(2005.4 459.896 0)
(2028.44 463.062 3.66738e-21)
(1996.7 418.236 -1.10941e-20)
(1998.45 335.452 7.59156e-18)
(1987.86 265.176 -1.56218e-17)
(1976.05 160.729 7.89277e-18)
(1966.19 83.027 1.98633e-18)
(1965.88 -1.71642 -1.85995e-18)
(1965.78 -88.1619 1.84622e-18)
(1980.03 -160.821 -1.97628e-18)
(1989.41 -276.464 0)
(2016.49 -337.082 1.12266e-20)
(2003.52 -421.374 -3.56934e-21)
(2029.5 -473.711 -1.48155e-17)
(2005.23 -474.38 1.36731e-17)
(1973.78 -408.59 0)
(1933.47 -264.014 0)
(1907.73 -236.063 -4.10464e-21)
(1759.91 -263.223 -4.02195e-17)
(1182.42 -181.671 -1.3801e-18)
(1254.25 172.863 -2.34498e-17)
(1784.01 243.143 1.96241e-17)
(1917.09 209.656 4.11173e-21)
(1929.7 182.023 0)
(1986.3 325.664 1.35111e-17)
(2017.46 421.197 -1.61367e-17)
(2039.98 433.646 3.41154e-21)
(2010.34 389.253 3.66603e-21)
(2016.97 313.097 1.39923e-20)
(2000.46 251.924 -1.8898e-18)
(1992.93 159.468 9.56143e-19)
(1988.84 78.9733 1.87723e-18)
(1984.9 -1.96648 -9.63525e-19)
(1989.16 -87.9891 3.82543e-18)
(1996.24 -162.987 -3.81476e-18)
(2000.39 -263.115 0)
(2036.25 -317.281 1.01619e-20)
(2020.67 -404.333 -1.50954e-17)
(2041.18 -442.717 1.32445e-17)
(2016.94 -432.551 3.47066e-21)
(1984.88 -342.858 0)
(1930.24 -182.296 0)
(1926.89 -206.961 4.10616e-21)
(1773.95 -244.12 -3.93917e-17)
(1230.77 -180.741 4.76514e-17)
(1286.68 145.853 2.33549e-20)
(1793.53 212.475 0)
(1930.98 181.439 -7.81073e-21)
(1935.51 128.319 -1.43676e-17)
(1985.34 240.404 1.78052e-17)
(2019.39 351.486 -1.3116e-17)
(2041.12 392.916 1.51892e-17)
(2019.29 367.93 -7.02915e-18)
(2028.67 303.21 7.36314e-18)
(2019.99 243.626 -3.6459e-18)
(2011.69 146.119 3.70148e-18)
(2003.47 75.6898 -1.82762e-18)
(2004.23 -3.06433 2.08814e-18)
(2003.01 -85.4313 -2.47327e-19)
(2015.45 -150.724 3.69704e-18)
(2020.46 -257.911 -7.29839e-18)
(2045.6 -307.522 -3.76458e-18)
(2029.48 -375.201 7.00717e-18)
(2045.65 -409.674 1.34699e-20)
(2022.02 -367.736 -6.98788e-21)
(1983.35 -248.137 0)
(1934.55 -140.843 0)
(1937.18 -177.683 0)
(1793.59 -213.162 -1.9306e-17)
(1274.3 -169.926 2.30418e-17)
(1306.18 140.704 -2.78623e-21)
(1801.33 192.719 0)
(1948.44 167.734 9.85146e-21)
(1942.1 84.6156 -7.92243e-21)
(1974.66 169.127 -7.21124e-21)
(2029.82 300.448 0)
(2049.69 352.381 -6.61539e-21)
(2030.85 338.136 6.86165e-18)
(2045.27 281.239 -7.25053e-18)
(2030.3 231.111 0)
(2025.49 147.278 1.70487e-21)
(2022.9 74.5742 0)
(2019.79 -0.831238 0)
(2022.95 -81.6458 1.79775e-18)
(2027.82 -147.799 -1.8003e-18)
(2028.16 -240.046 -7.24107e-21)
(2062.99 -286.153 -1.65342e-21)
(2042.94 -352.422 6.98647e-21)
(2049.78 -363.616 -7.49843e-18)
(2030.91 -322.089 6.38367e-18)
(1975.97 -188.182 -1.7287e-17)