/*--------------------------------*- C++ -*----------------------------------*\
| =========                 |                                                 |
| \\      /  F ield         | OpenFOAM: The Open Source CFD Toolbox           |
|  \\    /   O peration     | Version:  2112                                  |
|   \\  /    A nd           | Website:  www.openfoam.com                      |
|    \\/     M anipulation  |                                                 |
\*---------------------------------------------------------------------------*/
FoamFile
{
    version     2.0;
    format      ascii;
    arch        "LSB;label=32;scalar=64";
    class       volVectorField;
    location    "0.00944";
    object      U;
}
// * * * * * * * * * * * * * * * * * * * * * * * * * * * * * * * * * * * * * //

dimensions      [0 1 -1 0 0 0 0];

internalField   nonuniform List<vector> 
13875
(
(2204.17 109.693 1.81271e-18)
(2142.47 5.62648 -9.38746e-19)
(2170.26 -2.17675 -9.41092e-19)
(2167.84 -0.744264 0)
(2170.39 0.0623046 0)
(2169.28 -1.30003 9.36822e-19)
(2169.47 -1.15345 -9.37045e-19)
(2169.61 -0.256011 -4.68579e-19)
(2169.43 -0.229761 4.68277e-19)
(2169.44 0.106309 0)
(2169.43 0.512298 -3.88304e-22)
(2169.43 1.11115 -3.88126e-22)
(2169.58 0.941436 0)
(2169.39 -0.0185393 -4.68228e-19)
(2169.45 -0.923501 4.68593e-19)
(2169.6 -1.29069 0)
(2169.87 -0.264442 9.37054e-19)
(2169.22 0.34892 -9.37802e-19)
(2169.14 0.942347 3.87944e-22)
(2169.81 1.18838 -3.85756e-22)
(2170.45 -0.162758 -9.36289e-19)
(2167.84 0.297738 9.37168e-19)
(2171.09 2.50215 -1.87799e-18)
(2143.66 -8.62748 1.91637e-18)
(2210.15 -106.661 1.76435e-18)
(2253.39 91.9357 -1.63246e-18)
(2228.46 -1.16465 1.88337e-18)
(2247.4 0.686202 8.71853e-19)
(2245.49 0.901984 -8.67104e-19)
(2248.49 -0.368265 4.16911e-22)
(2247.48 1.88416 5.20033e-22)
(2245.81 1.28156 4.1623e-22)
(2245.45 0.263922 -4.3572e-19)
(2245.02 0.392228 4.35993e-19)
(2245.1 0.0458683 2.17603e-19)
(2245.23 -0.619014 -1.62994e-19)
(2245.35 -1.47381 -5.31658e-20)
(2247.67 -1.17553 0)
(2247.85 0.0656706 -4.34999e-19)
(2247.56 1.04019 4.33457e-19)
(2245.59 1.43164 4.36029e-19)
(2245.51 0.499507 -4.35306e-19)
(2245.2 -0.243535 5.18488e-22)
(2245.69 -1.5635 -5.18691e-22)
(2247.84 -1.97106 5.19786e-22)
(2248.4 0.747769 -8.71464e-19)
(2245.58 -0.690828 2.59981e-18)
(2247.28 -1.58201 -1.74253e-18)
(2228.87 3.68612 5.42917e-22)
(2256.37 -97.2198 -1.71427e-18)
(2252.4 78.1224 0)
(2236.34 -18.2423 0)
(2249.5 4.42449 0)
(2250.62 -1.85637 0)
(2253.53 -2.48232 -1.63923e-18)
(2253.36 1.68421 1.64249e-18)
(2253.11 2.05843 1.72289e-18)
(2253.17 0.633899 -2.58278e-18)
(2253.28 -0.047923 8.61816e-19)
(2253.73 -0.0671305 4.30627e-22)
(2253.69 0.12827 -4.30959e-19)
(2253.03 -2.21863 4.29821e-19)
(2254.08 -2.5644 0)
(2253.98 0.00776574 0)
(2254.04 2.36092 4.08173e-22)
(2253.18 2.00217 0)
(2254.06 0.221527 8.38102e-22)
(2253.11 -0.291569 4.30551e-19)
(2253.1 -2.51759 -4.30686e-19)
(2253.54 -1.7567 0)
(2253.72 2.35491 0)
(2250.92 1.31637 0)
(2250.71 -4.78722 0)
(2237.94 13.8465 0)
(2257.15 -74.538 0)
(2247.86 51.3541 0)
(2235.05 -28.6857 1.8142e-18)
(2249.3 7.18945 -3.41683e-18)
(2251.62 -4.74672 3.46599e-18)
(2253.29 -3.01218 -1.63585e-18)
(2253.35 1.46035 0)
(2253.51 1.70959 -8.40081e-22)
(2254.06 -0.00555965 0)
(2254.21 -0.447074 0)
(2254.29 -0.366634 0)
(2254.53 0.362787 0)
(2254.18 -1.89718 -8.44257e-22)
(2254.06 -2.46873 -5.09112e-20)
(2253.96 -0.0237341 5.07357e-20)
(2254 2.27317 0)
(2254.25 1.80169 0)
(2254.74 0.267356 7.99426e-22)
(2254.17 0.38663 -8.57227e-19)
(2253.81 -1.7584 8.56095e-19)
(2253.43 -1.49168 -1.6239e-18)
(2253.56 2.748 1.62358e-18)
(2251.98 4.31374 1.74093e-18)
(2249.76 -8.8523 -1.72064e-18)
(2235.77 31.3011 0)
(2251.9 -58.2859 0)
(2244.89 39.2785 1.74898e-18)
(2235.45 -47.8838 0)
(2248.75 10.4392 0)
(2250.36 -7.66742 0)
(2253.48 -4.23224 0)
(2253.21 0.997663 1.68527e-21)
(2253.4 1.17537 1.6831e-21)
(2254.18 -0.684732 4.3277e-19)
(2254.23 -0.650061 -4.30311e-19)
(2254.21 -0.429078 2.01377e-19)
(2254.51 0.445294 -2.07734e-19)
(2254.24 -1.38429 0)
(2254.07 -2.24067 0)
(2253.89 -0.039121 -1.65853e-21)
(2254.05 2.07279 0)
(2254.3 1.35261 -1.68506e-21)
(2254.71 0.278225 8.07454e-19)
(2254.01 0.720186 -8.50893e-19)
(2253.5 -1.24465 1.71523e-18)
(2253.54 -0.839438 -1.69063e-18)
(2253.61 3.76022 1.65342e-21)
(2250.68 6.4429 0)
(2250.04 -11.5287 0)
(2237.3 42.7939 0)
(2250.59 -35.4463 0)
(2241.5 6.74933 0)
(2231.54 -63.6242 9.12422e-19)
(2247.21 12.2321 -8.47649e-19)
(2250.89 -11.2115 0)
(2252.48 -4.93668 8.60343e-19)
(2252.91 0.331712 -4.36957e-19)
(2253.57 0.498196 -2.94465e-21)
(2254.18 -1.11367 -2.18658e-19)
(2254.18 -1.00679 -4.3234e-19)
(2254.09 -0.658529 1.60413e-19)
(2254.44 0.483946 1.64806e-21)
(2254.18 -1.03155 2.68537e-19)
(2253.97 -2.05237 -2.15486e-19)
(2253.77 -0.120648 3.36301e-21)
(2253.89 1.88043 -4.27694e-19)
(2254.21 1.15322 4.33259e-19)
(2254.64 0.337141 1.63736e-21)
(2254.11 1.32509 -1.6839e-21)
(2253.73 -0.366001 -1.67936e-21)
(2252.96 -0.368791 -8.58575e-19)
(2252.77 4.13353 8.46126e-19)
(2251.44 10.6661 0)
(2247.37 -15.1774 0)
(2232.45 65.2879 -1.93322e-18)
(2246.06 -18.9179 -1.26399e-19)
(2254.03 2.89409 -4.95244e-20)
(2227.49 -79.3526 6.02425e-20)
(2243.06 12.2039 0)
(2248.49 -15.6653 -2.69173e-23)
(2252.11 -6.78895 -2.62432e-23)
(2252.51 -0.77886 0)
(2253.19 -0.392175 0)
(2254.24 -1.84074 -8.63158e-19)
(2253.96 -1.03477 8.53821e-19)
(2253.84 -0.650316 0)
(2254.24 0.565571 1.68565e-18)
(2254.14 -0.471459 5.13165e-21)
(2253.88 -1.61349 -1.72291e-18)
(2253.63 -0.114973 -1.71149e-21)
(2253.87 1.4424 0)
(2254.19 0.690078 3.44577e-18)
(2254.42 0.384698 1.7842e-21)
(2253.76 1.71084 -6.90572e-18)
(2253.09 0.28249 3.45091e-18)
(2252.83 0.956874 2.63936e-23)
(2252.28 6.10384 0)
(2248.52 12.9527 3.5273e-18)
(2244.19 -12.5165 -3.30803e-18)
(2228.92 72.8789 3.81537e-18)
(2247.15 2.85614 -3.18265e-18)
(2218.37 -22.849 -3.1699e-19)
(2214.7 -87.4793 -7.49642e-18)
(2235.65 3.48335 8.70693e-22)
(2246.06 -22.4644 2.61167e-23)
(2248.76 -9.00217 -8.09312e-22)
(2251.27 -2.48753 0)
(2252.95 -1.75133 -3.44486e-18)
(2253.89 -2.33859 3.45336e-18)
(2253.62 -1.35179 0)
(2253.5 -0.982816 -8.29144e-22)
(2253.96 0.373688 -8.21626e-22)
(2253.88 -0.208328 0)
(2253.57 -1.36875 0)
(2253.33 -0.115615 -1.6593e-21)
(2253.48 1.26282 -8.38882e-22)
(2253.93 0.536365 2.60061e-23)
(2254.13 0.694174 -8.56237e-22)
(2253.53 2.44733 -2.62935e-23)
(2252.91 1.73394 -1.73252e-18)
(2251.39 2.39202 -1.62163e-20)
(2249.25 8.05425 1.68867e-18)
(2246.4 19.3866 8.85494e-22)
(2236.72 -4.78816 3.45896e-18)
(2216.55 81.5064 -3.53798e-18)
(2222.26 18.146 2.50385e-23)
(2113.27 -37.8695 9.4262e-19)
(2168.63 -98.6229 0)
(2217.14 -20.2212 -8.31511e-22)
(2234.94 -32.375 -8.65879e-19)
(2245.78 -17.6179 1.711e-18)
(2248.87 -6.51104 -1.72693e-18)
(2251.4 -3.6726 9.29053e-21)
(2253.13 -3.32587 8.59284e-19)
(2252.81 -1.26749 0)
(2252.73 -0.924678 -8.45614e-19)
(2253.27 0.411364 8.4641e-19)
(2253.35 0.415336 0)
(2253.03 -0.816735 0)
(2252.73 -0.21468 2.10336e-21)
(2252.96 0.567031 8.34724e-22)
(2253.3 0.0488763 8.42274e-19)
(2253.33 0.899972 -8.44484e-19)
(2252.55 3.26135 0)
(2251.26 3.3686 8.60683e-19)
(2249.48 6.04689 -1.72837e-18)
(2246.23 15.1619 8.449e-19)
(2236.18 28.8768 -8.40853e-22)
(2219.02 16.6781 0)
(2171.34 93.9534 0)
(2117.08 35.3313 0)
(1873.59 -142.241 -6.57007e-17)
(2125.75 -161.377 8.42497e-17)
(2198.89 -54.7993 0)
(2229.29 -54.19 -2.99402e-17)
(2239.76 -21.998 3.07127e-17)
(2246.53 -11.2042 0)
(2249.82 -7.76868 -2.95627e-20)
(2251.48 -4.70242 -1.46194e-17)
(2251.41 -2.02813 1.45898e-17)
(2251.43 -1.57245 -2.93808e-20)
(2252.06 -0.189294 0)
(2252.19 0.409745 -3.70309e-18)
(2251.86 -0.453383 5.58696e-18)
(2251.54 -0.208568 -1.89809e-18)
(2251.71 0.432673 -2.92231e-20)
(2252.02 0.374762 0)
(2251.91 1.76264 0)
(2250.96 5.02911 -2.94708e-17)
(2249.44 7.5571 2.90851e-17)
(2246.67 10.2594 -3.05951e-17)
(2240.46 20.4763 2.91774e-17)
(2229.4 52.9947 3.22059e-17)
(2199.85 52.5093 -2.92253e-17)
(2128.69 161.857 -8.33839e-17)
(1884.69 138.344 -1.2573e-17)
(1653.13 -215.604 -9.08315e-17)
(2011.61 -307.668 1.37593e-16)
(2159.68 -104.594 0)
(2210.94 -64.9374 6.82445e-17)
(2232.86 -29.8224 -7.08272e-17)
(2241.96 -15.6311 -3.40739e-17)
(2245.71 -8.17192 3.40228e-17)
(2248.19 -3.89564 -3.2927e-17)
(2248.43 -1.4416 3.32881e-17)
(2248.83 -1.03865 3.25892e-20)
(2249.65 0.178313 0)
(2249.86 0.999084 -2.11531e-18)
(2249.59 0.206395 2.16658e-18)
(2249.21 -0.259189 3.31702e-20)
(2249.29 -0.427749 3.29997e-20)
(2249.39 -0.402302 3.3019e-20)
(2249.14 0.874619 0)
(2248.03 4.54286 0)
(2245.09 7.61454 -6.77195e-17)
(2242.27 15.4204 6.81702e-17)
(2233.69 26.9514 -7.13511e-17)
(2211.54 59.0205 1.47082e-16)
(2166.08 99.4512 -6.9944e-17)
(2016.74 298.622 -3.86849e-20)
(1697.94 206.019 8.75223e-20)
(1281.61 -592.743 -1.08907e-16)
(1742.61 -590.823 1.18912e-16)
(2046.63 -180.797 2.16713e-16)
(2174.03 -107.155 -9.35468e-17)
(2208.44 -37.0288 0)
(2230.15 -20.9988 7.42896e-17)
(2238.57 -13.3613 -7.51881e-17)
(2241.86 -6.83595 0)
(2242.64 -3.93353 3.54833e-20)
(2243.61 -2.79921 0)
(2244.6 -0.950055 0)
(2244.82 0.651268 0)
(2244.69 0.585405 4.67148e-18)
(2244.28 -0.00226818 -4.63478e-18)
(2244.24 0.0662073 -3.70613e-20)
(2243.98 0.825658 -3.54028e-20)
(2243.37 2.8134 0)
(2241.74 7.21383 0)
(2238.05 13.9313 0)
(2228.48 19.0702 -7.89362e-17)
(2211.51 37.2675 1.56922e-16)
(2176.42 102.654 -7.23225e-17)
(2052.71 161.804 -1.33645e-16)
(1750.16 592.216 1.00495e-16)
(1286.13 543.603 -5.99345e-20)
(1302.02 -610.311 1.60764e-16)
(1114.18 -1086.7 0)
(1701.22 -454.959 0)
(1927.88 -130.515 -1.08267e-16)
(2150.5 -85.5875 1.09386e-16)
(2201.44 -43.272 0)
(2215.94 -13.3903 1.12678e-20)
(2224.2 -4.97086 4.03321e-17)
(2227.67 -1.48514 -4.09083e-17)
(2230.51 -0.915163 0)
(2232.1 0.453745 -1.00641e-17)
(2232.48 1.36427 1.01254e-17)
(2232.6 1.25132 -5.0838e-18)
(2232.19 0.271932 5.08514e-18)
(2231.83 -0.556697 3.86301e-20)
(2230.66 -1.03678 -4.0633e-17)
(2228.21 -0.113707 8.05228e-17)
(2223.69 4.27224 1.04915e-18)
(2214.19 13.5131 -4.04051e-17)
(2197.93 45.1058 -9.08581e-17)
(2134.02 72.1551 8.43728e-17)
(1912.48 109.656 8.25497e-20)
(1758.66 455.617 2.60555e-20)
(1103.68 1071.14 1.67456e-16)
(1319.48 612.445 7.17599e-18)
(1358.9 -629.545 0)
(1143.46 -1059.58 0)
(1291.91 -752.686 0)
(1196.3 -815.726 0)
(1954.49 -256.764 0)
(2048.37 -61.387 1.02121e-16)
(2156.75 -45.4007 -1.04253e-16)
(2175.64 -29.3811 1.1513e-19)
(2184.58 -18.737 -1.0316e-20)
(2191.86 -10.6086 2.25897e-17)
(2194.62 -4.71018 -2.2831e-17)
(2195.41 -0.817769 -2.25445e-19)
(2195.71 0.927935 -7.06891e-19)
(2195.31 1.77717 8.02191e-19)
(2194.51 3.68686 -2.26534e-17)
(2192.06 8.30782 2.24233e-17)
(2185.36 17.4794 9.90743e-20)
(2174.65 31.6552 0)
(2149.47 51.6539 0)
(2016.98 86.2635 0)
(1918.62 324.053 -2.11389e-16)
(1168.11 812.709 -6.18225e-17)
(1296.89 702.325 1.64029e-16)
(1135.51 1023.09 2.05601e-20)
(1368.9 619.047 2.0862e-20)
(1436.95 -621.267 0)
(1273.48 -927.423 3.94189e-20)
(1321.01 -785.151 0)
(1234.61 -859.32 -1.68289e-16)
(1334.5 -801.381 3.1895e-16)
(1637.81 -558.89 -2.0427e-16)
(1939.42 -122.301 0)
(1959.35 -13.5381 -1.02528e-19)
(2007.73 14.9242 0)
(2045.28 8.25166 0)
(2057.17 5.79458 -1.40661e-17)
(2060.85 2.85455 1.43982e-17)
(2061.93 2.11376 1.41785e-17)
(2061.42 1.58175 -1.42384e-17)
(2059.09 0.0202767 0)
(2050.45 -3.78444 -5.8601e-17)
(2018.23 -9.66635 5.90985e-17)
(1962.88 17.9936 7.11686e-17)
(1937.59 143.499 -5.96322e-17)
(1595.22 587.909 0)
(1308.74 794.493 0)
(1203.2 850.721 -1.71957e-19)
(1331.27 779.145 -1.70904e-16)
(1266.97 918.152 3.66695e-16)
(1425.25 619.086 -1.69424e-16)
(1519.43 -631.242 -1.692e-16)
(1387.61 -855.719 1.86921e-16)
(1383.96 -759.576 0)
(1280.34 -818.291 -1.90337e-16)
(1307.18 -782.868 -6.24941e-18)
(1306.03 -745.805 2.77334e-16)
(1259.53 -594.638 -1.99541e-16)
(1322.39 -525.45 1.18158e-16)
(1541.16 -270.255 0)
(1563.95 -121.007 0)
(1549.75 -58.5175 -4.07812e-20)
(1546.07 -21.3605 2.72866e-19)
(1543.29 -3.57882 0)
(1545.09 11.8814 0)
(1548.55 41.7884 5.79187e-17)
(1558.96 108.486 -5.50454e-17)
(1574.88 228.99 -1.10471e-16)
(1335.05 526.159 2.24345e-16)
(1247.14 597.558 1.82174e-17)
(1286.08 746.272 -9.04535e-17)
(1301.31 779.118 0)
(1252.82 823.414 0)
(1382.36 760.97 -1.73792e-16)
(1351.08 887.951 2.02887e-16)
(1502.25 641.02 -4.59557e-20)
(1660.23 -609.973 1.57218e-16)
(1562.27 -748.875 -9.6988e-20)
(1527.43 -687.116 9.49263e-17)
(1466.7 -725.881 -8.4967e-17)
(1398.39 -681.9 -4.46294e-20)
(1338.54 -599.699 8.77051e-20)
(1192.12 -448.488 1.15694e-16)
(871.153 -242.359 -1.80116e-16)
(698.252 -126.694 6.395e-17)
(533.926 -57.563 0)
(410.48 -21.9857 -3.3723e-17)
(370.658 -7.90046 3.36794e-17)
(354.415 0.669911 0)
(361.786 9.39046 6.3289e-20)
(391.629 17.7508 -3.3586e-17)
(499.927 50.6402 3.38133e-17)
(739.409 123.146 0)
(874.124 253.928 -1.16447e-16)
(1178.02 439.34 1.1666e-16)
(1327.3 595.465 8.92038e-17)
(1389.25 685.278 -1.86156e-16)
(1433.93 744.706 9.96004e-17)
(1520.15 708.848 0)
(1547.49 776.232 1.6879e-16)
(1650.26 625.047 -3.2985e-18)
(1815.1 -551.831 -3.3217e-18)
(1746.3 -602.292 8.00668e-17)
(1688.2 -549.313 -3.63616e-17)
(1539.66 -422.866 -5.72297e-17)
(1420.4 -358.541 7.33006e-17)
(1385.84 -278.703 -5.12598e-17)
(1292.44 -253.854 5.28976e-17)
(948.809 -199.223 -5.85874e-17)
(737.134 -109.785 -5.115e-19)
(597.61 -59.3706 3.29964e-17)
(503.026 -30.3682 1.65046e-17)
(471.152 -15.0093 -1.5514e-19)
(458.558 1.87156 -1.6692e-17)
(466.141 22.1052 -6.03642e-20)
(498.328 30.9552 -7.50606e-20)
(591.413 55.1284 -2.06717e-18)
(794.985 103.804 2.21851e-20)
(971.643 194.68 5.37734e-18)
(1283.21 227.953 -3.53696e-18)
(1365.83 305.843 0)
(1409.5 399.879 1.09197e-17)
(1551.92 478.484 -3.45213e-17)
(1689.37 590.919 4.13819e-17)
(1741.68 634.59 -5.64929e-17)
(1810.23 569.754 5.30862e-17)
(1998.9 -510.336 -8.72444e-20)
(1954.11 -329.763 -1.04826e-19)
(1882.63 -318.077 1.21811e-19)
(1789.39 -215.711 -5.48936e-21)
(1530.16 -69.9085 -1.83304e-19)
(1417.52 -27.5582 -2.00586e-19)
(1376.05 -71.7284 -7.14614e-21)
(1197.45 -90.0084 0)
(967.545 -104.104 0)
(819.295 -121.49 6.56707e-17)
(734.336 -102.215 -6.71836e-17)
(695.49 -51.1123 -8.84913e-21)
(680.441 1.94296 8.83024e-21)
(686.717 52.0842 -8.64303e-18)
(719.903 114.4 8.37661e-18)
(807.419 146.924 0)
(985.692 127.56 0)
(1175.44 108.712 -5.64856e-17)
(1341.42 72.6944 5.60679e-17)
(1367.46 17.1202 -1.94327e-19)
(1536.71 74.2976 0)
(1801.36 228.693 0)
(1887.21 323.633 -1.23995e-19)
(1953.22 331.748 -1.07429e-19)
(2000.62 523.828 1.23033e-16)
(1491.92 -177.226 -1.88121e-16)
(1737.69 -124.128 -2.39796e-16)
(1846.91 116.735 1.22324e-16)
(1796.64 145.581 0)
(1645.83 186.515 1.98961e-19)
(1518.14 144.771 1.081e-16)
(1504.53 34.3952 -2.08627e-16)
(1404.99 -17.8755 1.06197e-16)
(1223.41 -55.6914 -1.2101e-16)
(1061.28 -83.342 1.25244e-16)
(935.512 -73.7332 3.29981e-17)
(862.162 -28.9524 -4.11063e-17)
(839.64 6.24948 -8.32418e-18)
(856.399 40.5541 1.68362e-17)
(930.489 91.3776 0)
(1069.46 108.799 0)
(1246.01 77.2032 1.16579e-16)
(1391.66 37.2361 -2.20892e-16)
(1485.72 -38.2648 1.09378e-16)
(1497.69 -155.952 2.27431e-19)
(1662.7 -196.85 1.53203e-16)
(1789.91 -154.665 -9.76375e-17)
(1830.43 -136.596 -4.90405e-16)
(1737.89 134.5 6.22035e-16)
(1484.39 188.739 -2.49451e-16)
(-49.9267 -75.1531 1.11959e-19)
(481.109 -109.279 -2.56125e-16)
(1395.51 301.937 1.74428e-16)
(1673.79 495.041 0)
(1671.35 417.612 0)
(1611.29 276.693 0)
(1602.98 138.591 0)
(1529.22 67.4862 0)
(1373.49 19.3813 -5.16533e-17)
(1209.84 -20.6304 1.08425e-16)
(1077.23 -25.5798 -8.46866e-17)
(1001.09 -6.43341 3.21722e-17)
(977.968 9.07344 -3.62806e-18)
(1001.05 21.186 1.58558e-20)
(1084.94 44.4888 -5.58516e-17)
(1234.49 40.5016 5.54935e-17)
(1403.25 -2.0637 0)
(1526.82 -53.9759 0)
(1598.81 -139.898 -1.73451e-16)
(1602.61 -294.941 1.85831e-16)
(1677.15 -423.445 -1.61929e-19)
(1650.96 -502.214 7.30672e-20)
(1354.71 -269.941 -9.5079e-20)
(410.936 153.812 -1.15958e-19)
(-124.94 94.1759 0)
(-265.842 -41.5348 -2.24508e-16)
(379.104 264.162 2.29195e-16)
(1252.47 634.979 -1.72043e-19)
(1627.15 739.376 1.63545e-16)
(1723.48 573.667 -1.21617e-16)
(1687.7 389.686 0)
(1675.56 234.521 -8.18454e-17)
(1611.77 158.936 7.46028e-17)
(1475.37 95.7403 -4.45782e-17)
(1325.93 38.8752 9.34225e-17)
(1195.52 11.4259 -4.81947e-17)
(1119.69 10.7085 1.83398e-19)
(1100.27 7.22498 0)
(1125.12 2.84722 2.49416e-17)
(1213.9 1.37945 2.31319e-17)
(1359.15 -29.557 -4.73579e-17)
(1505.9 -91.0194 -8.14104e-17)
(1609.44 -150.748 8.39586e-17)
(1677.45 -238.675 -7.22156e-17)
(1683.06 -414.62 7.96252e-17)
(1727.36 -592.503 7.98151e-20)
(1588.07 -766.386 -7.60443e-20)
(1191.86 -624.031 0)
(318.335 -270.109 1.12921e-19)
(-268.606 19.9862 0)
(235.758 219.204 1.91671e-16)
(840.222 701.266 -1.89117e-16)
(1396.5 861.421 6.19701e-20)
(1671.15 864.968 0)
(1774.59 673.087 0)
(1737.4 508.792 -7.31168e-21)
(1720.8 352.829 0)
(1668.2 250.044 7.39621e-20)
(1553.77 168.025 0)
(1417.42 96.4107 4.16046e-17)
(1299.9 51.6659 -6.39853e-17)
(1229.09 24.7929 3.26347e-17)
(1208.13 6.58423 -1.10168e-17)
(1234.74 -15.1587 0)
(1315.81 -41.8715 0)
(1445.16 -90.8004 3.88579e-17)
(1576.13 -162.086 -1.09188e-16)
(1662.31 -248.357 7.30818e-17)
(1731.38 -345.773 -6.11242e-17)
(1736.53 -514.066 6.98449e-17)
(1784.43 -679.07 0)
(1662.55 -886.288 0)
(1387.28 -881.113 0)
(871.894 -731.406 -1.17187e-20)
(243.873 -205.107 -2.01735e-16)
(308.344 75.9035 -3.58086e-20)
(1078.32 719.844 1.56353e-16)
(1529.14 926.754 -1.20229e-16)
(1735.17 906.199 0)
(1805.67 734.444 0)
(1763.01 595.325 7.58346e-21)
(1758.75 441.702 6.44679e-17)
(1713.56 327.751 -5.70057e-17)
(1613.62 226.553 3.03443e-20)
(1495.31 140.785 3.29548e-20)
(1388.94 77.5822 3.48762e-20)
(1323.73 38.1366 -1.03574e-20)
(1304.88 3.67606 -1.03969e-20)
(1327.77 -31.0396 1.93193e-17)
(1403.67 -71.9874 -1.93434e-17)
(1521.61 -137.868 4.22018e-20)
(1636.01 -222.84 3.8859e-20)
(1706.95 -329.436 0)
(1765.97 -434.65 -5.42432e-17)
(1769.56 -591.106 6.22475e-17)
(1818.86 -740.223 0)
(1735.64 -919.619 -9.92201e-17)
(1524.36 -929.997 1.22287e-16)
(1067.18 -713.066 9.0535e-21)
(322.734 -56.964 -1.88187e-16)
(482.316 113.002 4.17052e-20)
(1240.6 744.244 0)
(1628.57 925.778 0)
(1780.01 914.378 -4.77735e-17)
(1820.12 776.617 4.59407e-17)
(1781.66 653.208 0)
(1790.39 507.766 5.87359e-17)
(1750.77 388.41 -5.24777e-17)
(1664.06 274.435 3.17993e-17)
(1556.9 179.089 -3.21295e-17)
(1464.84 104.701 1.76964e-17)
(1407.42 48.1953 -1.78092e-17)
(1390.09 2.46412 0)
(1414.3 -46.5198 -1.76324e-17)
(1481.06 -105.594 1.76916e-17)
(1582.86 -184.569 -3.47501e-20)
(1685.44 -274.415 -3.20683e-20)
(1744.68 -398.142 5.17158e-20)
(1793.64 -508.064 4.97626e-17)
(1783.84 -656.465 -5.73148e-17)
(1832.65 -781.357 -4.56509e-20)
(1777.64 -930.839 -4.46804e-20)
(1623.36 -924.056 0)
(1215.16 -734.707 -7.2292e-20)
(463.679 -99.8364 4.21612e-20)
(524.199 135.849 1.5968e-22)
(1318.32 690.677 0)
(1694.66 872.381 9.31635e-23)
(1781.08 909.089 4.06176e-20)
(1824.61 803.525 -8.56386e-23)
(1796.66 700.603 -5.19144e-17)
(1816.62 559.906 4.60101e-17)
(1784.91 438.984 0)
(1709.04 315.418 -5.90651e-20)
(1618.53 213.43 -1.07848e-22)
(1534.34 124.734 -1.13791e-22)
(1482.65 58.4627 6.89374e-20)
(1467.17 -0.0456091 0)
(1485.85 -58.106 0)
(1546.56 -125.407 -1.13112e-22)
(1640 -217.103 -1.06753e-22)
(1729.63 -315.246 -2.63149e-17)
(1777.78 -445.719 7.5221e-17)
(1817 -558.563 -5.32762e-17)
(1799.18 -700.023 0)
(1839.35 -801.124 -4.39853e-17)
(1783.49 -915.937 4.42187e-17)
(1698.63 -869.75 9.28002e-23)
(1314.78 -670.389 6.24213e-20)
(523.534 -135.322 1.60258e-22)
(660.272 213.294 3.07293e-18)
(1447.6 674.69 1.24547e-17)
(1743.98 848.003 9.75736e-17)
(1792.2 895.773 -4.12023e-17)
(1838.43 804.872 4.25494e-17)
(1815.02 716.717 -4.76592e-17)
(1843.02 587.649 4.29059e-17)
(1812.14 472.533 -2.51393e-17)
(1745.91 344.922 2.46387e-17)
(1664.44 240.257 1.1477e-22)
(1594.76 145.832 1.20607e-22)
(1550.43 66.5964 -1.23168e-22)
(1535.72 1.1442 7.44201e-18)
(1555.1 -67.2254 7.25076e-18)
(1606.47 -148.736 -1.48516e-17)
(1684.37 -247.907 1.1393e-22)
(1766.24 -342.64 4.8909e-17)
(1807.52 -478.479 -9.5129e-17)
(1844.78 -584.134 4.89309e-17)
(1812.04 -720.687 0)
(1848.73 -802.871 -8.34142e-23)
(1794.37 -900.46 7.90507e-23)
(1740.1 -851.14 -8.43572e-23)
(1441.8 -672.935 -1.21635e-16)
(658.687 -213.634 1.50172e-16)
(715.527 220.432 1.40788e-19)
(1503.18 633.679 0)
(1763.37 801.268 0)
(1798.35 866.615 3.95997e-20)
(1846.16 792.331 8.054e-20)
(1833.27 726.329 0)
(1868 605.946 4.49182e-17)
(1839.2 493.562 -4.2246e-17)
(1779.62 363.237 4.43297e-20)
(1712.09 257.792 -4.75367e-20)
(1648.77 153.4 -1.37323e-17)
(1609.69 70.4018 1.37574e-17)
(1597.98 -4.17191 3.57176e-18)
(1612.87 -78.9407 -3.47644e-18)
(1659.95 -163.471 1.32458e-17)
(1731.31 -272.359 -3.78306e-17)
(1801.48 -372.591 2.46585e-17)
(1832.8 -509.089 -4.63665e-20)
(1865.15 -612.819 3.94478e-20)
(1830.74 -734.212 -4.05592e-17)
(1852.65 -796.999 8.5894e-19)
(1806.31 -865.78 -2.02928e-18)
(1767.31 -790.744 4.12576e-17)
(1474.86 -606.34 5.67861e-20)
(652.405 -211.922 6.91835e-20)
(713.266 203.161 1.35378e-16)
(1536.81 579.19 -1.09659e-16)
(1792.31 761.362 0)
(1817.73 841.521 -3.82113e-17)
(1861.28 782.223 3.04754e-19)
(1853.21 720.712 3.95035e-17)
(1891.44 612.966 4.16867e-17)
(1861.02 511.83 -3.98652e-17)
(1810.55 383.558 -4.67699e-20)
(1749.78 278.886 -2.45573e-17)
(1699.42 172.841 1.19226e-17)
(1665.85 80.3908 1.26201e-17)
(1653.36 1.35272 -5.38991e-20)
(1668.5 -80.3619 0)
(1706.71 -174.492 0)
(1763.63 -286.351 0)
(1829.72 -378.86 4.64146e-20)
(1857.37 -515.067 9.65567e-21)
(1891.15 -607.731 -4.98077e-20)
(1850.77 -721.427 0)
(1866.27 -780.921 3.8151e-20)
(1820.63 -840.683 9.39572e-21)
(1796.34 -763.114 -4.86744e-20)
(1561.17 -583.803 -1.0671e-16)
(774.051 -242.561 1.33371e-16)
(763.717 231.841 6.59048e-17)
(1562.53 521.658 -9.67998e-17)
(1809.4 681.402 8.23748e-17)
(1829.24 786.76 -4.11017e-17)
(1872.32 752.865 -3.73649e-17)
(1869.99 707.208 3.77257e-17)
(1912.02 614.571 1.92498e-17)
(1882.34 518.778 -1.89478e-17)
(1837.19 389.817 1.08115e-17)
(1788.8 286.108 -2.23279e-17)
(1742.4 173.414 1.737e-17)
(1712.85 82.289 -7.40357e-18)
(1704.18 -3.08251 1.48936e-18)
(1715.08 -88.6296 -4.3875e-20)
(1750.98 -179.936 2.28452e-17)
(1803.42 -298.743 -2.28176e-17)
(1859.48 -395.29 3.87099e-20)
(1878.12 -528.437 3.78851e-17)
(1910.53 -615.624 -1.83209e-18)
(1863.28 -712.961 -3.84703e-17)
(1876.2 -757.528 0)
(1836.84 -789.407 4.09747e-17)
(1813.02 -691.698 -3.66537e-17)
(1564.97 -526.438 -1.03691e-16)
(766.093 -241.758 -1.22276e-18)
(890.017 264.072 -6.27178e-17)
(1630.04 479.707 4.8388e-17)
(1835.91 638.111 1.90692e-20)
(1847.68 747.531 -5.38131e-20)
(1892.18 737.626 1.81486e-20)
(1892.12 684.878 3.60976e-17)
(1934.37 595.001 -1.72681e-17)
(1899.23 512.168 -1.8312e-17)
(1862.53 390.208 4.13278e-20)
(1817.96 291.531 -4.41231e-20)
(1782.71 181.107 2.02903e-20)
(1758.91 84.0451 -2.05571e-20)
(1749.47 -3.3662 0)
(1761.68 -93.2908 5.23831e-21)
(1789.85 -191.641 -1.07056e-17)
(1830.12 -308.996 1.07643e-17)
(1883.6 -395.438 -1.92625e-17)
(1898.75 -525.715 9.72472e-19)
(1932.51 -598.59 1.81098e-17)
(1888.12 -689.558 -5.32883e-20)
(1890.42 -742.766 -3.66309e-17)
(1854.13 -747.679 3.48487e-17)
(1840.74 -639.41 0)
(1624.76 -480.339 -4.88235e-17)
(857.401 -268.233 6.25508e-17)
(908.659 268.139 0)
(1644.36 432.877 -4.28808e-17)
(1840.21 555.238 4.24785e-17)
(1866.96 672.686 1.77359e-20)
(1902.76 698.438 1.71357e-20)
(1911.02 662.707 -3.45861e-17)
(1947.4 591.313 3.41109e-17)
(1916.46 515.106 1.82752e-17)
(1885.48 395.497 7.97955e-19)
(1852.23 297.55 -1.96638e-17)
(1818.78 181.945 -2.14646e-20)
(1796.97 89.1447 2.42899e-20)
(1791.15 -1.62606 0)
(1797.73 -92.4909 4.36733e-20)
(1824.65 -184.062 -2.13792e-20)
(1862.37 -307.343 9.7454e-18)
(1907.57 -396.975 -9.63047e-18)
(1914.34 -521.644 -1.82657e-20)
(1946.66 -591.009 -1.91254e-20)
(1904.43 -665.917 1.75623e-20)
(1902.49 -706.099 -3.6306e-17)
(1872.88 -684.142 -6.41172e-18)
(1850.99 -569.873 3.37917e-17)
(1657.13 -434.123 0)
(928.526 -264.293 6.05442e-17)
(1013.97 283.668 -1.14335e-16)
(1686.26 397.16 4.50685e-17)
(1855.66 498.092 3.25835e-17)
(1890.23 624.596 -4.06931e-17)
(1919.62 672.199 0)
(1932.82 642.786 -2.07302e-21)
(1967.24 568.446 0)
(1931.47 498.126 -2.19108e-21)
(1907.39 386.906 -2.32315e-21)
(1875.12 295.909 0)
(1851.12 185.33 0)
(1835.07 87.9413 -2.55869e-21)
(1827.74 -2.18379 0)
(1836.82 -95.5332 0)
(1856.55 -192.825 -9.63416e-18)
(1883.48 -310.709 9.61757e-18)
(1929 -388.325 -2.30489e-21)
(1933.65 -508.966 -1.71273e-17)
(1965.42 -571.564 1.63203e-17)
(1930.24 -644.455 0)
(1916.79 -679.535 3.57883e-17)
(1891.51 -637.94 -7.28213e-17)
(1865.43 -509.393 7.26736e-17)
(1688.99 -389.455 4.07186e-18)
(999.828 -270.172 -5.7606e-17)
(1069.14 273.896 1.35988e-20)
(1704.52 366.868 -1.04853e-20)
(1859.95 435.067 0)
(1908.01 545.849 0)
(1929.49 616.21 0)
(1950.9 610.911 7.70557e-21)
(1977.1 555.972 0)
(1944.34 488.913 -7.86898e-21)
(1927.32 381.989 0)
(1904.86 291.845 -8.49531e-21)
(1881.02 176.433 0)
(1865.04 86.6828 -2.362e-18)
(1861.75 -4.13931 2.3454e-18)
(1865.69 -95.8466 0)
(1886.15 -183.94 9.18447e-18)
(1912.04 -307.59 -1.80165e-17)
(1949.22 -388.961 8.72258e-18)
(1946.58 -499.93 0)
(1977.55 -560.62 1.59238e-17)
(1944.15 -617.585 -1.59441e-17)
(1930.77 -626.874 3.56221e-17)
(1911.04 -556.41 -3.15572e-17)
(1858.68 -444.881 0)
(1701.66 -356.681 0)
(1050.47 -270.571 0)
(1121.64 267.571 -1.31779e-20)
(1728.58 347.534 1.03076e-20)
(1877.24 377.301 0)
(1927.26 468.877 0)
(1947.04 579.058 0)
(1969.46 592.697 -7.6536e-21)
(1997.34 533.717 0)
(1959.12 468.629 8.19508e-21)
(1947.89 369.711 0)
(1924.23 289.51 -8.80357e-18)
(1907.92 182.182 8.83953e-18)
(1896.94 88.4531 -8.38064e-21)
(1891.13 -0.431695 9.26439e-21)
(1898.02 -93.1652 8.36461e-21)
(1911.58 -184.83 0)
(1928.39 -300.027 0)
(1968.53 -368.64 8.47989e-21)
(1963.49 -477.949 -1.6236e-17)
(1996.62 -536.747 1.50905e-17)
(1967.68 -594.156 0)
(1940.85 -588.467 7.84843e-21)
(1928.26 -483.931 0)
(1876.31 -386.181 0)
(1731.52 -342.414 0)
(1130.49 -262.929 0)
(1148.88 241.044 -5.07243e-17)
(1740.05 315.999 4.19525e-17)
(1887.04 321.86 0)
(1935.76 388.953 -1.67576e-20)
(1955.69 516.805 0)
(1980.44 548.478 -1.45579e-17)
(2005.08 514.474 3.00744e-17)
(1971.53 457.201 -1.58589e-17)
(1964.4 361.212 -8.13403e-18)
(1949.94 281.434 8.34252e-18)
(1932.76 170.205 4.34621e-21)
(1920.68 85.383 1.11714e-18)
(1918.94 -3.09624 -1.07385e-18)
(1920.96 -93.0723 8.51985e-18)
(1937.71 -174.845 -8.51505e-18)
(1953.93 -295.57 0)
(1985.39 -366.311 -1.51563e-20)
(1975.51 -466.219 0)
(2005.98 -521.708 0)
(1978.91 -559.046 -1.62796e-17)
(1952.82 -524.234 1.46619e-17)
(1936.18 -398.157 0)
(1883.2 -327.247 3.65198e-17)
(1734.75 -314.76 2.06366e-18)
(1132.89 -236.754 -1.0379e-16)
(1205.79 222.398 5.06082e-17)
(1766.11 294.044 1.93739e-20)
(1901.01 274.134 3.09237e-17)
(1940.9 321.579 -2.31657e-17)
(1969.27 476.04 -1.76202e-17)
(1996.08 518.402 0)
(2023.41 488.689 7.51242e-21)
(1985.73 430.698 1.51893e-17)
(1983.56 341.141 -1.57854e-17)
(1965.05 270.833 0)
(1954.26 170.201 0)
(1947.3 82.7261 -2.58411e-20)
(1942.84 -2.9884 3.2199e-20)
(1948.58 -93.1557 1.67963e-20)
(1958.12 -176.697 4.07993e-18)
(1967.3 -285.19 -4.03626e-18)
(2003.62 -345.391 8.38207e-21)
(1993.52 -444.573 1.55472e-17)
(2023.31 -495.239 -2.89005e-17)
(1994.21 -523.203 1.40402e-17)
(1965.41 -483.507 -1.48966e-20)
(1940.55 -318.084 0)
(1900.51 -278.6 1.69516e-20)
(1757.63 -297.859 4.07549e-17)
(1180.17 -226.802 -1.00492e-16)
(1205.93 186.588 -4.98158e-17)
(1766.78 261.512 -3.82938e-17)
(1904.95 232.08 3.49645e-17)
(1930.73 250.167 1.45303e-17)
(1976.17 392.725 -1.82641e-17)
(2004.92 459.438 0)
(2028.01 463.035 3.66795e-21)
(1996.71 418.228 -1.10869e-20)
(1998.46 335.292 7.58933e-18)
(1987.91 265.14 -1.56201e-17)
(1975.92 160.51 7.89241e-18)
(1966.22 82.6844 1.98582e-18)
(1965.69 -1.76757 -1.85992e-18)
(1965.86 -88.0702 1.84557e-18)
(1980.05 -161.192 -1.9758e-18)
(1989.36 -275.921 0)
(2017.77 -337.521 1.12131e-20)
(2003.66 -424.689 -3.56385e-21)
(2029.12 -474.428 -1.48422e-17)
(2004.19 -473.583 1.36852e-17)
(1974.49 -401.394 0)
(1928.82 -255.736 0)
(1906.27 -233.549 -4.10139e-21)
(1769.07 -265.918 -4.02173e-17)
(1205.82 -196.113 -1.70773e-18)
(1248.06 169.853 -2.34554e-17)
(1783.37 241.66 1.96658e-17)
(1919.2 210.814 4.11073e-21)
(1930.31 182.385 0)
(1986.31 323.929 1.35004e-17)
(2017.53 420.601 -1.61484e-17)
(2040.27 433.119 3.41041e-21)
(2010.56 389.043 3.66587e-21)
(2016.87 312.915 1.39947e-20)
(2000.35 251.989 -1.8901e-18)
(1992.88 159.236 9.56095e-19)
(1988.83 78.9812 1.87731e-18)
(1985.22 -2.04067 -9.63385e-19)
(1989.28 -88.4187 3.82464e-18)
(1996.24 -163.011 -3.81454e-18)
(2000.47 -263.946 0)
(2035.56 -317.151 1.01789e-20)
(2020.75 -401.609 -1.5121e-17)
(2041.42 -441.148 1.32345e-17)
(2016.51 -430.63 3.47469e-21)
(1983.36 -335.138 0)
(1928.46 -175.488 0)
(1924.16 -210.517 4.12639e-21)
(1782.13 -243.771 -3.95019e-17)
(1239.12 -175.87 4.71886e-17)
(1283.99 142.828 2.34799e-20)
(1792.19 208.958 0)
(1931 181.471 -7.81491e-21)
(1935.65 130.061 -1.43927e-17)
(1985.28 242.739 1.7723e-17)
(2020.09 350.968 -1.31057e-17)
(2041.47 393.21 1.51831e-17)
(2019.36 368.043 -7.02693e-18)
(2028.54 303.021 7.36342e-18)
(2020.04 243.674 -3.64537e-18)
(2011.59 145.863 3.70158e-18)
(2003.63 75.3255 -1.8272e-18)
(2003.91 -3.34614 2.088e-18)
(2003.03 -85.2261 -2.47298e-19)
(2015.48 -151.009 3.69616e-18)
(2020.43 -257.485 -7.29857e-18)
(2046.87 -308.348 -3.7593e-18)
(2029.53 -378.557 6.99955e-18)
(2045.07 -409.317 1.34791e-20)
(2021.21 -365.053 -7.00485e-21)
(1982.87 -241.13 0)
(1933.95 -133.314 0)
(1934.61 -182.676 0)
(1788.59 -209.599 -1.9332e-17)
(1267.92 -148.947 2.30342e-17)
(1306.63 140.111 -2.78989e-21)
(1801.09 190.516 0)
(1947.71 166.397 9.84033e-21)
(1941.44 86.5399 -7.92188e-21)
(1972.74 168.084 -7.22792e-21)
(2029.08 299.34 0)
(2049.16 351.455 -6.62228e-21)
(2030.64 337.757 6.86273e-18)
(2045.05 281.047 -7.25175e-18)
(2030.23 231.239 0)
(2025.39 147.096 1.7049e-21)
(2022.87 74.7685 0)
(2020.1 -0.610619 0)
(2023.1 -82.2315 1.7973e-18)
(2027.8 -147.837 -1.80013e-18)
(2028.07 -240.696 -7.2394e-21)
(2062.6 -284.775 -1.65476e-21)
(2043.14 -349.1 6.99352e-21)
(2050.13 -361.622 -7.50748e-18)
(2030.75 -318.526 6.37563e-18)
(1973.71 -181.152 -1.73048e-17)