/*--------------------------------*- C++ -*----------------------------------*\
| =========                 |                                                 |
| \\      /  F ield         | OpenFOAM: The Open Source CFD Toolbox           |
|  \\    /   O peration     | Version:  2112                                  |
|   \\  /    A nd           | Website:  www.openfoam.com                      |
|    \\/     M anipulation  |                                                 |
\*---------------------------------------------------------------------------*/
FoamFile
{
    version     2.0;
    format      ascii;
    arch        "LSB;label=32;scalar=64";
    class       volScalarField;
    location    "0.01015";
    object      T;
}
// * * * * * * * * * * * * * * * * * * * * * * * * * * * * * * * * * * * * * //

dimensions      [0 0 0 1 0 0 0];

internalField   nonuniform List<scalar> 
13875
(
1412
1535.58
1482.44
1487.65
1482.06
1483.86
1484.25
1482.95
1484.75
1485.03
1484.18
1484.09
1483.47
1483.9
1483.84
1483.87
1483.44
1484.72
1484.87
1483.11
1481.88
1487.66
1480.53
1532.56
1396.68
1307.02
1356.16
1318.9
1322.16
1316.6
1318.11
1321.98
1322.61
1324.23
1324.36
1323.52
1323.1
1317.96
1317.65
1318.36
1322.77
1322.95
1323.46
1322.31
1317.82
1316.7
1321.9
1319.6
1355.92
1303.35
1307.24
1340.06
1314.29
1311.75
1305.21
1305.43
1305.19
1303.92
1305.76
1307.02
1305.65
1305.93
1303.78
1304.04
1303.89
1305.78
1303.9
1305.92
1306.04
1305.09
1304.86
1311.07
1311.37
1336.25
1298.33
1317.37
1344.81
1314.66
1308.72
1305.98
1305.8
1304.17
1303.32
1304.29
1304.3
1303.11
1303.76
1303.87
1304.08
1304.04
1303.44
1302.42
1303.47
1304.2
1305.49
1305.36
1307.69
1313.95
1343.94
1312.11
1329.52
1342.11
1315.69
1312.39
1304.85
1305.35
1304.8
1303.46
1304.42
1304.43
1303.14
1303.54
1303.8
1304.24
1303.82
1303.29
1302.5
1303.97
1305.2
1304.88
1304.75
1311.75
1312
1338.37
1315.98
1332.2
1351.13
1318.81
1309.85
1307.9
1306.67
1304.36
1303.62
1304.28
1304.38
1303.22
1303.84
1304.11
1304.53
1304.3
1303.55
1302.63
1303.52
1304.25
1306.56
1307.28
1308.43
1319.03
1348.93
1325.79
1338.98
1360.46
1328.99
1317.36
1307.91
1307.11
1305.76
1304.31
1304.91
1304.92
1303.53
1303.92
1304.34
1304.85
1304.23
1303.57
1303.16
1304.56
1306.18
1306.51
1307.79
1317.61
1325.72
1358.11
1321.23
1359.72
1384.69
1344.01
1321.04
1316.37
1310.12
1306.66
1304.92
1305.11
1305.07
1304.15
1304.66
1305.09
1305.53
1305.22
1304.18
1303.75
1304.93
1306.15
1309.98
1315.3
1320.38
1341.54
1380.88
1350.29
1537.23
1508.45
1387.15
1350.42
1322.05
1315.91
1310.79
1307.66
1307.18
1306.37
1305.62
1305.77
1306.36
1306.86
1306.34
1305.66
1305.62
1307.24
1310.52
1314.2
1321.3
1349.23
1382.73
1505.66
1522.06
1834.99
1574.46
1427.16
1358.5
1338.28
1320.28
1313.89
1310.25
1309.54
1309.37
1308.59
1308.49
1309.05
1309.54
1309.19
1308.62
1308.85
1310.94
1314.1
1320.57
1337.04
1357.14
1424.86
1566.57
1827.28
2507.44
1805.02
1517.8
1407.83
1350.43
1331.53
1324.63
1317.92
1316.07
1315.27
1314.1
1313.84
1314.3
1314.9
1314.75
1314.66
1315.21
1317.72
1326.11
1330.02
1348.66
1419.34
1502.13
1797.83
2429.27
2812.87
2302.41
1736.85
1464.17
1426.93
1359.66
1338.18
1332.09
1329.26
1327.47
1325.91
1325.57
1325.72
1326.33
1326.43
1327.01
1328.26
1331.77
1339.71
1371.42
1405.43
1457.24
1731.42
2306.24
2837.22
2787.06
2657.02
2354.37
2199.44
1521.14
1412.45
1395.18
1373.42
1364.21
1357.78
1354.75
1353.77
1353.46
1354.1
1354.93
1357.73
1363.7
1374.9
1399.55
1421.71
1567.44
2234.45
2245.99
2687.18
2766.42
2723.5
2662.79
2744.77
2784.24
2044.7
1815.46
1520.17
1477.86
1459.08
1447.04
1443.37
1441.84
1441.58
1442.25
1443.58
1448.07
1459.14
1479.04
1541.63
1922.44
2101.2
2804.36
2792.53
2703.07
2701.6
2583.33
2640.71
2686.49
2686.75
2583.95
2354.08
2030.68
1963.97
1864.93
1764.94
1731.42
1720.1
1716.72
1718.26
1725.06
1749.42
1841.64
1962.63
1984.27
2421.58
2637.35
2736.1
2678.12
2652.31
2625.97
2500.99
2537.69
2627.19
2683.13
2655.34
2685.24
2878.92
2942.58
2931.1
3032.93
3116
3138.36
3148.87
3142.83
3125.04
3058.65
2905.82
2941.09
2900.78
2717.17
2661.02
2706.48
2624.44
2558.06
2533.32
2314.56
2399.14
2476.53
2531.82
2603.26
2728.79
3035.51
3411.75
3592.94
3683.88
3698.5
3691.6
3689.08
3692.43
3701.29
3702.59
3599.93
3419.18
3053.27
2738.83
2616.1
2565.3
2469.28
2404.29
2329.01
2024.31
2147.56
2300.48
2612.67
2794.1
2831.47
2960.65
3310.69
3531.45
3643.31
3673.78
3673.33
3672.78
3675.14
3676.16
3648.11
3503.14
3290.97
2965.12
2843.21
2809.04
2561.47
2269.56
2140.05
2023.87
1812.52
1878.36
2010.86
2237.42
2710.52
2842.26
2880.73
3106.68
3357.55
3500.57
3545.11
3557.03
3561.27
3560.67
3550.51
3510.94
3360.49
3120.8
2920.07
2922.57
2676.03
2203.2
2007.37
1883.8
1814.27
2457.83
2344.36
2106.01
2195.94
2505.13
2690.46
2701.64
2839.86
3079.29
3278.2
3387.94
3432.55
3441.36
3435.21
3391.9
3277.73
3067.24
2851.09
2729.44
2713.53
2483.37
2221.51
2139.32
2343.26
2450.35
3245.88
3420.74
2748.48
2302.63
2374.75
2533.85
2552.84
2658.43
2881.68
3109.08
3250.67
3305.06
3316.17
3304.52
3245.26
3090.46
2854.44
2656.3
2558.75
2541.18
2358.98
2325.78
2809.03
3479.17
3260.01
3627.16
3569.5
2816.55
2212.8
2212.78
2370.64
2420.36
2523.08
2732.92
2961.12
3117.59
3181.23
3190.16
3176.21
3101.84
2930.29
2700.12
2519.92
2417.08
2368.6
2189.55
2247.91
2897.85
3622.06
3674.73
3494.97
3114.36
2488.54
2060.82
2059.95
2238.07
2312.15
2415.6
2604.47
2830.18
2987.61
3052.24
3065.75
3046.81
2973.09
2804.34
2580.85
2415.14
2298.34
2234.82
2036.24
2055.19
2474.13
3122.93
3529.16
3510.73
2957.48
2250.06
1905.55
1974.07
2141.02
2209.9
2316.69
2500.64
2713.32
2867.44
2934.38
2945.04
2928.5
2852.18
2687.52
2475.89
2317.47
2201.1
2129.48
1942.46
1892.45
2253.41
2978.12
3543.84
3448.14
2785.21
2097.9
1822.78
1929.52
2069.18
2120.66
2230.46
2405.96
2613.38
2756.39
2816.46
2830.59
2809.28
2738.38
2584.21
2380.55
2226.83
2117.67
2063.89
1897.13
1808.81
2111.55
2833.32
3480.94
3422.53
2748.23
2040.51
1827.75
1905.11
2002.57
2042.95
2148.94
2321.64
2511.8
2650.44
2711.32
2720.84
2705.64
2636.02
2488.26
2297.12
2148.21
2043.77
1999.83
1877.57
1817.26
2038.66
2763.41
3454.51
3341.7
2599.71
1966.18
1829.92
1882.49
1956.7
1976.67
2085.05
2248.22
2430.56
2552.5
2604.58
2618.97
2598.91
2537.98
2407
2225.38
2079.67
1977.84
1961.55
1860.08
1823.54
1971.59
2614.9
3367.92
3308.02
2556.6
1970.7
1864.3
1873.6
1908.49
1916.8
2024.94
2186.15
2349.05
2462.04
2513.54
2521.66
2508.3
2447.87
2322.75
2156.05
2018.07
1917.81
1912.44
1854.37
1851.09
1975.15
2608.87
3363.4
3308.92
2540.92
1940.97
1854.06
1842.82
1877.41
1868.6
1976.88
2122.05
2277.25
2374.61
2418.54
2432.76
2414.67
2365.5
2261.75
2104.93
1971.37
1871.82
1883.79
1832.36
1852.97
1935.08
2513.38
3285.48
3269.24
2541.3
1976.25
1890.18
1842.97
1850.74
1827.16
1931.32
2074.52
2208.88
2298.39
2341.53
2347.59
2337.14
2286.43
2188.46
2048.17
1925.52
1827.19
1866.45
1829.86
1873.28
1959.55
2523.29
3265.54
3188.76
2456.8
1945.44
1886.57
1803.92
1827.06
1794.89
1905.17
2027.01
2152.94
2225.22
2258.25
2270.54
2254.29
2215.53
2135.59
2005.34
1890.98
1794.12
1836.19
1804.56
1874.65
1938.27
2460.45
3221.55
3162.55
2458.87
1996.11
1913.56
1810.21
1803.16
1770.44
1867.44
1984.33
2090.73
2158.31
2193.41
2197.03
2191.26
2150.25
2076.74
1963.86
1864.69
1768.31
1820.75
1806.77
1891.51
1969.08
2422.45
3142.83
3089.62
2401.84
1996.28
1897.2
1783.35
1773.66
1745.14
1850.72
1946.2
2045.92
2098.03
2121.02
2131.73
2118.4
2090.54
2033.78
1927.66
1838.38
1742.74
1783.32
1790.25
1887.31
1964.41
2380.53
3080.94
3052.95
2378.53
2027.22
1914.45
1803.73
1757.77
1732.38
1826.35
1911.63
1993.35
2040.41
2068.51
2069.33
2066.86
2033.5
1980.7
1891.39
1818.21
1724.41
1772.59
1797.15
1901.67
2018.07
2376.15
3076.75
3011.64
2340.24
2017.21
1906
1784.82
1728.51
1703.33
1812.04
1876.7
1953.55
1989.21
2005.15
2014.66
2003.73
1985.1
1947.76
1862.58
1803.89
1697.75
1737.48
1796.53
1902
2013.75
2330.74
3040.44
2992.05
2331.51
2023.16
1927.82
1804.57
1733.44
1699.13
1788.9
1848.65
1908.15
1939.97
1963.07
1961.89
1961.85
1933.43
1898.24
1832.02
1789.83
1685.16
1734.25
1808.35
1925.48
2022.95
2349.3
3024.84
2946.51
2291.11
2008.6
1937.95
1790.36
1714.58
1670.89
1777.33
1819.54
1877.63
1898.34
1908.09
1916.03
1906.24
1894.42
1872.65
1802.65
1771.1
1662.21
1720.07
1794.29
1940.76
2004.32
2309.25
2966.97
2938.45
2300.6
2014.5
1976.76
1814.95
1730.99
1674.53
1759.72
1791.84
1834.91
1854.82
1874.39
1871.43
1873.95
1849.68
1827.55
1779.34
1762.92
1661.07
1725.86
1816.85
1978.9
2013.44
2295.81
2942.93
2904.79
2276.57
1991.27
1992.76
1818.03
1717.16
1656.19
1747.76
1763.28
1810.45
1821.59
1826.4
1832.97
1825.88
1818.79
1807.41
1746.77
1742.76
1650.59
1717.05
1812.99
1998.11
1980.1
2271.79
2897.84
2856.89
2266.9
1975.12
1990.23
1840.63
1744.5
1672.37
1738.39
1743.49
1771.92
1783.34
1800.11
1795.83
1800.01
1778.66
1765.14
1727.34
1736.1
1657.81
1736.67
1844.95
1993.6
1965.63
2264.43
2881.52
2829.81
2257.57
1946.59
1982.14
1882.98
1734.37
1665.31
1728.57
1716.26
1752.61
1756.2
1758.48
1763.14
1758.11
1755.15
1753.22
1697.77
1721.52
1668
1726.66
1873.29
1987.44
1937.25
2244.7
2843
2793.29
2250.93
1936.95
1978.19
1931.45
1771.66
1702.52
1730.3
1704.04
1718.1
1722.81
1737.46
1731.83
1737.27
1718.29
1716.08
1687.17
1725.69
1692.22
1767.61
1943.22
1981.82
1939.21
2267.03
2795.52
2763.5
2230.04
1915.47
1956.04
1924.98
1782.53
1700.47
1729.07
1683.5
1707.78
1702.32
1701.15
1703.93
1700.49
1700.79
1709.29
1660.4
1714.6
1699.71
1775.68
1939.3
1966.83
1922.37
2245.07
2763.76
2729.76
2229.38
1914.88
1929.41
1918.69
1841.67
1746.99
1749.92
1688.09
1679.45
1673.41
1684.67
1677.55
1684.5
1667.49
1681.99
1671.06
1736.23
1730.51
1830.04
1930.97
1946.29
1919.97
2226.38
2730.95
2708.86
2215.69
1902.78
1903.72
1905.22
1902.42
1757.04
1742.72
1675.34
1680.38
1660.31
1652.84
1654.06
1653.17
1658.63
1682.88
1653.94
1729.5
1758.18
1904.71
1918.84
1917.97
1906.54
2214.3
2711.68
2670.23
2195.28
1900.56
1878.82
1877.32
1886.57
1818.94
1771.07
1702.77
1666.45
1639.95
1643.4
1633.5
1642.8
1629.54
1665.68
1680.42
1758.11
1811.78
1900.02
1897.64
1895.57
1906.52
2203.66
2684.5
2653.3
2193.8
1894.35
1866.24
1851.44
1878.87
1907.67
1795.86
1689.55
1679.8
1643.78
1620.59
1617.59
1621.25
1643.17
1683.44
1666.48
1776.39
1898.37
1881.8
1867.07
1874.08
1893.01
2189.03
2663.22
2605.75
2174.81
1891.21
1853.76
1825.72
1859.12
1889.36
1847.22
1727.27
1671.78
1632.63
1629.39
1603.68
1626.75
1619.4
1672.64
1710.68
1832.95
1897.9
1869.63
1845.09
1861.04
1897.76
2178.39
2614.52
2565.03
2157.64
1875.66
1840.51
1805.07
1826.36
1877.16
1941.6
1736.21
1698.46
1648.48
1614.34
1604.4
1615
1646.9
1700.04
1714.57
1925.13
1881.14
1827.05
1819.34
1849.03
1877.83
2159.74
2576.43
2396.56
2105.69
1857.85
1835.95
1792.92
1798.21
1858.61
1920.63
1820.01
1708.19
1640.75
1632.5
1606.92
1629.24
1624.26
1708.99
1799.13
1924.75
1864.24
1802.15
1801.53
1837.99
1858.72
2105.06
2405.55
1098.63
1049.21
981.644
888.548
793.822
710.073
644.941
596.132
559.509
535.005
518.881
507.947
499.056
491.564
483.978
475.998
467.935
460.491
452.97
446.104
440.601
434.811
429.567
424.579
419.57
414.269
408.713
403.04
396.958
392.37
1099.26
1049.08
979.997
887.62
795.506
715.663
652.407
604.751
565.076
538.046
520.659
509.16
500.019
493.14
486.215
479.087
471.179
463.514
456.104
448.908
443.398
437.465
432.345
427.453
422.583
417.368
412.006
406.319
400.651
396.591
1099.21
1051.52
982.115
891.328
802.736
725.018
662.592
612.271
571.113
542.529
522.896
510.005
500.376
493.527
486.704
479.946
472.169
464.396
457.019
450.153
443.997
438.321
433.26
428.471
423.604
418.397
413.173
407.545
402.011
397.948
1110.44
1060.43
992.358
904.776
819.819
742.5
679.604
626.676
583.609
551.866
529.344
514.219
503.217
495.455
488.31
481.689
474.202
466.318
458.617
452.088
445.822
440.325
435.24
430.407
425.628
420.527
415.279
409.998
404.889
400.964
1118.98
1071.62
1005.98
922.977
840.801
763.473
698.368
645.045
599.672
565.065
539.363
520.954
507.194
497.855
489.811
482.637
475.18
467.588
459.712
452.774
446.951
441.469
436.25
431.401
426.613
421.561
416.373
411.367
406.501
402.818
1129.63
1082.81
1020.56
942.358
863
786.161
721.302
666.991
619.91
582.395
552.81
530.412
512.864
500.67
490.967
483.043
475.882
468.029
460.732
454.227
448.518
443.298
437.928
433.01
428.361
423.425
418.492
413.887
409.516
406.476
1137.9
1095.29
1037.15
963.767
886.915
812.158
747.455
692.435
643.765
603.048
569.723
543.251
521.865
505.885
493.582
484.227
476.503
468.842
461.669
455.363
449.675
444.358
438.999
433.949
429.477
424.679
420.107
415.708
411.652
408.947
1149.27
1108.75
1055.02
986.585
912.779
840.882
777.455
721.891
671.162
627.606
590.646
559.963
534.484
514.293
498.666
486.836
477.908
470.412
463.671
457.431
451.573
445.999
440.712
435.736
431.377
426.846
422.712
418.676
415.002
412.735
1158.47
1123.1
1074.18
1010.69
941.241
872.707
811.202
755.479
702.069
656.02
615.808
580.874
551.146
526.601
507.054
491.998
481.009
472.826
466.134
459.94
453.504
447.578
442.413
437.468
432.894
428.726
424.921
421.358
417.97
415.695
1169.88
1138.12
1093.92
1036.08
971.714
906.733
847.453
792.336
736.086
687.455
644.606
605.691
571.999
543.165
519.422
500.646
486.775
476.887
469.64
463.149
456.342
450.165
444.87
439.886
435.279
431.387
427.999
424.788
421.917
420.207
1179.01
1152.96
1114.04
1062.5
1003.48
942.623
885.517
830.733
773.3
721.393
676.609
634.354
596.987
564.025
535.953
513.058
495.314
482.399
473.143
465.87
458.945
452.639
447.014
442.084
437.524
433.698
430.903
428.343
425.685
423.712
1188.11
1167.41
1134.42
1089.23
1036.17
979.677
924.844
870.298
812.376
757.881
710.799
666.136
625.481
588.75
556.558
529.297
507.068
490.101
477.849
469.15
461.923
455.516
449.821
444.869
440.386
436.655
434.508
432.441
429.551
427.376
1196.3
1181.48
1154.53
1116.19
1069.26
1017.54
964.867
910.555
852.354
796.79
746.698
700.652
657.172
617
580.642
548.917
521.919
500.304
484.16
472.842
464.878
458.428
452.637
447.381
443.064
439.675
437.796
435.09
433.271
430.732
1205.22
1194.97
1174.43
1142.87
1102.15
1055.21
1005.08
950.844
892.9
837.017
784.695
737.468
691.499
648.09
608.069
572.058
540.592
514.39
493.76
478.693
468.536
461.691
456.108
450.625
446.351
443.233
440.914
438.545
436.839
436.475
1212.73
1207.93
1193.74
1168.91
1134.3
1092.05
1044.81
991.166
932.933
877.915
825.009
775.896
728.235
682.024
638.758
598.56
562.721
531.909
506.419
486.798
473.164
464.744
458.775
453.509
448.564
445.487
443.678
441.78
439.444
439.631
1220.01
1220.2
1211.93
1194.11
1165.3
1127.76
1083.84
1031.13
973.197
919.375
867.438
816.093
767.042
718.558
672.37
628.402
588.536
553.018
522.606
498.107
480.174
468.94
461.906
456.522
451.549
448.21
445.896
444.232
442.706
442.618
1226.33
1231.12
1228.79
1218.04
1194.94
1162.05
1121.92
1070.68
1014.38
961.365
910.226
858.175
807.169
757.115
708.437
661.075
617.525
577.581
542.233
512.617
489.621
474.016
464.747
459.087
454.021
450.199
447.576
445.726
444.584
444.33
1230.52
1241.96
1244.62
1240.12
1223.2
1194.76
1158.75
1109.48
1055.53
1003.78
952.688
901.386
848.807
797.366
746.747
696.579
649.7
605.727
565.699
530.797
502.451
481.523
468.41
461.32
456.442
452.266
449.11
447.17
446.343
446.252
1234.06
1251.43
1258.49
1260.38
1249.56
1225.86
1193.92
1147.36
1096.13
1045.67
995.279
943.957
892.097
838.79
786.702
734.305
684.473
636.775
592.314
552.24
518.437
492.106
473.78
463.63
458.224
453.949
450.326
448.264
447.525
447.47
1235.84
1259.81
1272.85
1279.05
1273.96
1255.23
1227.17
1184.17
1135.74
1086.83
1037.48
987.069
935.088
881.64
827.662
773.728
721.33
670.369
621.757
576.876
537.802
505.888
481.924
467.643
460.442
456.021
451.984
449.765
449.084
449.199
1236.32
1266.9
1285.78
1295.75
1296.39
1282.57
1258.43
1219.58
1174.09
1127.05
1079.07
1029.45
977.435
925.392
869.416
814.304
759.751
705.984
653.573
604.199
560.101
522.538
492.793
473.69
463.363
458.218
453.821
451.072
450.158
450.309
1234.81
1273.13
1297.86
1312.67
1316.85
1307.79
1287.63
1253.31
1210.9
1165.97
1119.49
1070.92
1019.72
967.739
912.194
855.496
799.246
743.208
687.374
633.772
584.788
541.595
506.578
482.09
467.477
460.46
455.79
452.315
451.013
451.105
1234.55
1279.56
1309.7
1328.63
1335.58
1330.84
1314.73
1285.12
1245.96
1203.33
1158.4
1110.9
1060.83
1009.92
954.956
897.113
839.276
781.449
722.623
664.969
611.079
562.654
522.68
492.299
472.365
462.37
457.413
453.539
451.98
452.286
1215.87
1288.03
1322.95
1344.4
1352.68
1351.8
1339.68
1314.83
1279.07
1238.97
1195.79
1149.55
1100.73
1050.9
996.511
939.349
879.552
820.199
759.122
698.126
640.232
587.362
541.824
504.943
479.147
465.481
459.463
455.976
454.257
454.171
1236.37
1318.19
1345.19
1361.45
1369.8
1370.88
1362.51
1342.25
1310.15
1272.87
1231.68
1186.83
1139.15
1090.73
1037.56
980.329
920.338
858.915
796.719
733.522
672.711
615.848
564.565
520.781
488.309
470.02
461.656
457.504
455.42
455.213
390.008
394.954
400.834
406.722
411.805
416.674
422.035
427.049
432.327
439.067
444.069
451.096
458.549
466.613
474.159
481.614
488.825
495.781
504.239
514.685
530.311
554.344
590.352
640.222
706.259
792.032
889.6
984.185
1053.62
1104.8
394.277
398.691
404.442
410.056
415.143
419.949
424.818
429.834
435.572
441.073
447.518
454.077
461.696
469.543
477.171
483.907
490.289
496.71
505.24
516.171
532.995
559.777
598.544
647.324
710.853
793.007
888.425
982.292
1053.17
1105.03
395.892
400.329
405.862
411.465
416.523
421.514
425.958
430.859
436.252
442.017
448.637
454.802
462.312
470.182
478.056
484.495
490.671
497.062
506.155
518.523
537.451
566.032
607.678
657.182
719.993
799.596
891.387
984.016
1055.14
1104.66
399.439
403.413
408.409
413.718
419.016
423.965
428.225
433.004
438.186
444.143
449.849
456.197
463.869
471.228
478.882
485.386
491.984
499.239
509.87
524.577
546.712
578.411
621.953
674.987
737.417
816.071
904.34
994.052
1064
1115.63
401.475
404.925
409.704
414.863
420.17
425.188
429.503
434.168
439.373
444.887
450.71
456.855
464.623
472.269
479.589
486.454
493.744
502.707
515.915
533.846
559.316
594.304
640.442
694.65
759.031
837.057
922.223
1007.55
1075.11
1124.36
405.788
408.223
412.524
417.278
422.19
427.112
431.482
436.024
441.352
446.546
452.202
458.647
465.476
473.099
479.959
487.505
496.346
508.455
525.488
547.542
576.57
614.272
662.437
716.92
781.837
859.411
941.704
1022.02
1086.19
1134.28
408.944
410.777
414.698
419.052
423.538
428.417
432.877
437.381
442.491
447.599
453.317
459.843
466.795
474.319
481.863
491.063
502.441
517.958
538.943
565.345
598.152
638.412
688.144
743.39
807.696
883.544
962.823
1038.32
1098.68
1142.68
412.357
414.324
417.791
421.6
425.663
430.341
435.096
439.508
444.366
449.606
455.473
461.92
468.772
476.469
485.413
496.916
511.869
531.489
556.503
587.151
623.628
666.331
717.691
773.24
836.371
909.516
985.86
1056.68
1112.19
1153.74
414.315
416.985
420.166
423.823
427.601
431.829
436.552
441.415
446.069
451.574
457.971
464.443
471.342
479.835
491.033
505.932
525.031
549.034
578.088
612.732
652.545
697.546
751.194
806.731
867.872
937.703
1009.92
1075.89
1126.69
1162.61
417.588
420.31
423.279
426.489
430.033
433.852
438.664
443.979
448.863
454.631
461.287
468.201
475.746
485.758
499.884
518.589
542.067
570.446
603.353
641.783
684.352
731.455
787.911
842.927
901.819
968.165
1035.28
1095.8
1141.81
1174.05
420.35
422.848
425.8
428.774
432.136
436.015
440.49
445.985
451.587
457.75
464.298
472.081
481.387
494.234
512.053
534.854
562.71
595.253
631.767
673.474
718.031
768.138
826.008
880.963
937.642
999.752
1061.67
1116
1156.8
1183.25
424.573
426.414
429.006
431.733
434.694
438.694
443.388
448.479
454.663
461.257
468.256
476.909
489.063
505.767
527.726
554.717
586.608
622.853
662.652
706.83
753.37
806.461
865.257
919.947
974.463
1032.26
1088.24
1136.38
1171.38
1192.27
428.486
430.129
431.957
434.435
437.161
440.946
445.745
451.211
457.075
463.77
471.884
482.803
498.642
519.793
546.29
577.546
613.432
653.079
695.838
741.437
790.828
845.196
905.233
959.546
1011.87
1065.19
1115.14
1156.46
1185.36
1200.19
434.192
435.349
435.75
437.557
439.973
443.6
448.37
454.234
460.3
467.346
477.064
491.372
511.416
537.006
567.708
603.078
642.421
685.372
730.782
777.631
829.512
884.52
944.619
998.883
1049.11
1097.97
1141.75
1176.29
1198.76
1209.11
438.319
438.373
438.729
440.393
442.728
446.283
451.182
457.339
463.402
471.34
483.903
502.495
527.016
557.023
591.975
631.415
673.919
719.8
767.169
815.971
869.013
923.988
983.297
1037.58
1085.95
1130.22
1167.74
1195.57
1211.47
1216.68
441.802
441.781
442.089
443.628
446
449.633
454.627
460.521
467.066
477.26
493.68
516.783
545.85
580.415
619.396
662.577
708.07
756.385
805.339
856.645
909.188
963.199
1021.7
1075.91
1121.74
1161.4
1192.94
1213.58
1223.83
1224.01
443.189
443.209
444.168
445.998
448.716
452.545
457.56
463.065
471.112
484.945
506.051
533.956
567.716
606.71
649.501
696.284
744.675
794.558
845.562
898.385
950.008
1003.68
1060.25
1113.67
1156.18
1191.21
1216.91
1230.46
1234.73
1230.76
444.872
444.802
446.279
448.06
451.141
455.212
460.015
466.04
477.055
495.542
521.842
554.712
593.085
636.132
682.533
732.425
783.321
834.547
887.646
940.014
991.719
1044.27
1098.61
1150.37
1189.14
1219.71
1239.04
1246.18
1245.4
1235.72
446.016
446.103
447.943
449.657
453.047
457.156
462.118
470.002
485.535
509.34
540.712
578.774
621.712
668.594
718.282
770.755
823.489
876.722
929.887
982.28
1033.43
1084.78
1136.42
1185.74
1220.6
1246.35
1259.52
1260.09
1255.11
1239.69
447.523
447.548
449.213
451.538
455.063
459.13
465.129
476.4
497.204
526.229
562.951
606.068
653.45
703.826
756.36
810.788
865.304
919.562
972.894
1024.64
1074.81
1124.6
1173.5
1219.4
1250.43
1271.07
1278.34
1274.23
1263.61
1241.71
448.392
448.325
450.207
453.442
457.279
461.508
469.452
485.308
511.563
546.237
588.287
636.397
687.96
741.362
796.233
852.063
908.884
961.993
1015.5
1066.64
1115.49
1163.37
1209.41
1251.24
1278.34
1293.96
1295.33
1287.19
1270.78
1242.41
449.02
449.106
451.086
454.991
459.486
464.775
475.949
497.161
528.823
569.25
616.614
669.471
724.844
780.719
837.386
894.722
952.048
1005.15
1057.31
1107.58
1155.1
1200.82
1243.74
1281.11
1304.2
1315
1312.48
1299.39
1276.85
1240.99
451.105
450.481
452.149
456.566
461.2
468.757
484.447
511.711
548.712
594.834
647.424
704.63
763.313
821.136
879.254
938.138
995.297
1047.23
1097.9
1147.08
1193.13
1236.58
1276.23
1308.87
1327.95
1334.2
1328.56
1310.93
1282.83
1241.06
453.01
452.989
454.064
458.735
464
474.505
495.695
529.451
572.626
623.97
681
741.773
802.955
862.151
922.036
980.67
1037.41
1088.39
1137.29
1185.09
1229.45
1270.43
1306.64
1334.56
1349.73
1351.95
1344.49
1323.92
1291.21
1223.26
453.703
454.079
455.954
460.34
467.072
481.698
510.16
551.203
600.773
656.746
717.254
780.588
843.24
903.833
964.66
1022.94
1078.45
1128.09
1175.27
1221.52
1263.92
1302.21
1334.98
1358.34
1369.83
1369.66
1361.56
1346.59
1322.42
1243.16
1220.6
1277.16
1301
1345.39
1375.43
1411.79
1443.52
1474.96
1504.5
1532.27
1558.51
1583.01
1605.97
1627.41
1647.41
1666.11
1683.6
1700
1715.37
1729.73
1743.15
1755.85
1768.14
1779.53
1789.94
1799.63
1808.89
1817.73
1825.96
1833.58
1840.61
1847.04
1852.88
1858.12
1862.73
1866.71
1870.04
1872.66
1874.59
1875.72
1876.18
1875.91
1874.77
1872.83
1870.61
1866.42
1862.03
1856.7
1850.51
1843.52
1835.69
1826.97
1817.5
1807.22
1796.17
1784.3
1771.64
1758.16
1743.8
1728.55
1712.36
1695.23
1677.13
1658.04
1637.94
1616.81
1594.67
1571.54
1547.39
1522.24
1496.08
1469.11
1441.17
1412.25
1382.71
1352.21
1321.08
1289.58
1256.88
1224.21
1191.16
1156.7
1122.83
1088.13
1051.2
1015.36
979.78
942.382
905.806
868.614
831.833
795.884
760.792
727.224
695.549
665.853
638.439
613.522
590.949
570.398
552.341
536.391
522.269
510.042
499.657
490.956
483.523
477.642
472.468
468.086
465.013
462.905
461.033
459.376
458.103
457.413
457.169
456.872
457.069
456.785
456.462
456.54
456.23
455.245
454.264
1349.69
1388.01
1419.32
1452.91
1484.01
1514.83
1543.97
1571.79
1598.14
1622.98
1646.41
1668.44
1689.15
1708.63
1726.94
1744.17
1760.39
1775.66
1790.07
1803.67
1816.57
1828.88
1840.44
1851.23
1861.33
1870.9
1879.99
1888.57
1896.6
1904.09
1911.04
1917.44
1923.3
1928.59
1933.29
1937.38
1940.85
1943.65
1945.77
1947.16
1947.78
1947.75
1946.91
1945.29
1942.91
1939.53
1935.35
1930.32
1924.46
1917.81
1910.57
1902.04
1892.94
1883
1872.23
1860.68
1848.32
1835.2
1821.28
1806.56
1790.92
1774.36
1756.82
1738.3
1718.81
1698.32
1676.84
1654.4
1631.01
1606.74
1581.6
1555.49
1528.51
1500.64
1472.14
1443
1413.21
1382.73
1351.61
1320.01
1287.86
1255.19
1222.1
1188.26
1153.75
1119.47
1085.37
1050.37
1015.7
980.623
945.789
911.476
877.879
845.344
814.091
784.385
756.3
729.888
704.796
680.968
658.431
636.849
616.515
597.112
578.854
562.11
546.296
532.133
519.12
507.282
497.125
488.721
481.586
475.408
470.25
466.324
463.39
461.386
459.95
458.711
457.88
457.553
456.909
456.031
454.947
1440.78
1472.23
1503.25
1533.67
1562.99
1591.29
1618.24
1643.86
1668.22
1691.24
1712.99
1733.57
1753.02
1771.41
1788.82
1805.31
1820.93
1835.75
1849.82
1863.22
1876
1888.1
1899.49
1910.2
1920.33
1929.94
1939.07
1947.68
1955.79
1963.38
1970.48
1977.06
1983.12
1988.64
1993.58
1997.93
2001.65
2004.72
2007.11
2008.81
2009.71
2009.93
2009.4
2008.07
2005.93
2002.9
1999.02
1994.27
1988.67
1982.24
1974.99
1966.84
1957.89
1948.13
1937.65
1926.57
1914.47
1901.66
1888.04
1873.49
1857.95
1841.5
1824.14
1805.82
1786.57
1766.31
1745.05
1722.86
1699.79
1675.9
1651.22
1625.79
1599.66
1572.92
1545.41
1517.16
1488.42
1459.31
1429.78
1399.84
1369.51
1338.85
1307.89
1276.6
1245.05
1213.46
1181.73
1149.65
1117.4
1085.19
1053.37
1021.97
990.928
960.523
930.984
902.252
874.372
847.376
821.113
795.54
770.601
746.213
722.578
699.497
677.179
656.021
635.428
616.14
597.661
579.664
562.417
546.449
531.601
517.695
505.229
494.549
485.565
478.292
472.589
467.644
464.41
462.516
460.738
458.911
457.407
1522.62
1551.04
1580.84
1609.41
1637.03
1663.55
1688.84
1712.93
1735.85
1757.62
1778.24
1797.93
1816.64
1834.45
1851.42
1867.6
1883.04
1897.78
1911.87
1925.37
1938.21
1950.41
1961.95
1972.86
1983.25
1993.12
2002.52
2011.44
2019.87
2027.84
2035.34
2042.36
2048.88
2054.86
2060.28
2065.09
2069.27
2072.79
2075.62
2077.76
2079.13
2079.71
2079.62
2078.71
2076.95
2074.32
2070.79
2066.36
2061.03
2054.79
2047.66
2039.63
2030.76
2021.1
2010.71
1999.62
1987.74
1975.08
1961.6
1947.27
1931.87
1915.42
1898.01
1879.54
1859.93
1839.27
1817.72
1795.35
1772.24
1748.35
1723.71
1698.39
1672.52
1646.15
1619.29
1591.98
1564.09
1535.67
1507.03
1478.2
1449.21
1420.07
1390.8
1361.4
1331.92
1302.47
1273.03
1243.59
1214.15
1184.73
1155.35
1126.11
1097.08
1068.44
1040.41
1013.02
986.157
959.644
933.621
907.975
882.403
857.061
832.065
807.382
783.164
759.722
736.591
714.216
692.252
670.426
648.95
628.206
607.876
587.661
568.423
550.276
532.745
516.519
502.449
490.521
481.413
475.091
470.004
465.366
462.298
1602.28
1629.3
1658.07
1685.22
1711.44
1736.59
1760.64
1783.6
1805.53
1826.48
1846.5
1865.69
1884.07
1901.69
1918.61
1934.84
1950.43
1965.39
1979.76
1993.6
2006.74
2019.28
2031.21
2042.58
2053.43
2063.77
2073.67
2083.14
2092.17
2100.77
2108.94
2116.65
2123.87
2130.57
2136.67
2142.15
2146.96
2151.09
2154.51
2157.22
2159.19
2160.35
2160.76
2160.43
2159.21
2157.07
2154
2149.95
2144.92
2138.89
2131.86
2123.86
2114.97
2105.25
2094.79
2083.62
2071.68
2058.9
2045.19
2030.49
2014.69
1997.79
1979.82
1960.81
1940.94
1919.68
1897.55
1874.54
1850.57
1825.78
1800.47
1774.74
1748.7
1722.29
1695.48
1668.38
1641.05
1613.59
1585.8
1557.67
1529.57
1501.52
1473.53
1445.59
1417.74
1390.05
1362.52
1335.12
1307.85
1280.71
1253.72
1226.85
1200.14
1173.61
1147.23
1121.05
1095.01
1069.06
1043.32
1017.84
992.476
967.157
941.975
917.225
892.403
867.677
843.084
818.81
794.669
770.393
746.021
721.804
697.522
672.716
647.75
623.787
600.653
577.197
554.613
534.237
516.213
501.693
490.177
479.996
472.098
1681.38
1708.13
1736.09
1762.16
1787.32
1811.49
1834.66
1856.9
1878.26
1898.81
1918.61
1937.7
1956.13
1973.92
1991.09
2007.66
2023.64
2039.08
2053.97
2068.21
2081.89
2095
2107.52
2119.5
2130.93
2141.97
2152.46
2162.71
2172.52
2181.95
2190.98
2199.57
2207.65
2215.22
2222.14
2228.37
2233.87
2238.63
2242.68
2246.02
2248.64
2250.56
2251.64
2251.98
2251.48
2250.01
2247.54
2244.03
2239.42
2233.68
2226.8
2218.82
2209.83
2199.92
2189.24
2177.82
2165.61
2152.45
2138.18
2122.71
2106.02
2088.12
2069.02
2048.78
2027.44
2004.96
1981.51
1957.25
1932.48
1906.65
1880.45
1853.8
1826.7
1799.32
1771.89
1744.47
1717.09
1689.71
1662.29
1635.12
1607.93
1580.67
1553.63
1526.88
1500.43
1474.27
1448.35
1422.65
1397.13
1371.75
1346.54
1321.52
1296.64
1271.89
1247.28
1222.75
1198.25
1173.72
1149.1
1124.28
1099.31
1074.16
1048.94
1023.9
998.732
973.392
948.895
923.846
898.439
872.626
846.335
819.669
792.641
764.724
735.987
707.75
679.888
651.268
622.937
595.592
569.484
546.364
527.227
509.183
493.139
1760.23
1787.52
1814.9
1840.19
1864.68
1888.22
1910.9
1932.8
1953.99
1974.52
1994.44
2013.77
2032.52
2050.71
2068.32
2085.38
2101.9
2117.9
2133.35
2148.15
2162.44
2176.16
2189.27
2201.84
2213.89
2225.58
2236.86
2247.76
2258.31
2268.53
2278.41
2287.87
2296.55
2304.96
2312.55
2319.35
2325.33
2330.49
2334.99
2338.86
2342.08
2344.7
2346.7
2347.8
2348.12
2347.54
2345.96
2343.33
2339.49
2334.34
2327.87
2320.14
2311.19
2301.11
2290.21
2278.54
2266.01
2252.41
2237.42
2220.95
2203.05
2183.78
2163.13
2141.16
2117.97
2093.61
2068.22
2041.99
2015.08
1987.54
1959.65
1931.56
1903.62
1875.32
1847.09
1818.85
1790.51
1762.36
1734.59
1707.31
1680.46
1654.12
1628.08
1602.37
1576.89
1551.9
1527.31
1503.04
1479.05
1455.26
1431.64
1408.15
1384.79
1361.53
1338.32
1315.1
1291.83
1268.5
1245.08
1221.49
1197.72
1173.74
1149.52
1124.94
1099.94
1074.68
1049.25
1023.17
997.275
971.008
943.763
915.834
887.155
857.352
826.473
795.235
763.755
731.765
699.563
667.154
634.875
604.4
577.765
552.939
529.804
1838.59
1867.08
1894.1
1918.93
1943.1
1966.36
1988.9
2010.79
2032.11
2052.88
2073.12
2092.83
2111.99
2130.59
2148.64
2166.13
2183.1
2199.55
2215.4
2230.61
2245.27
2259.33
2272.75
2285.58
2297.89
2309.84
2321.36
2332.46
2343.21
2353.68
2363.77
2373.35
2382.31
2390.63
2398.16
2404.81
2410.58
2415.25
2419.54
2423.47
2426.79
2429.59
2432.22
2434
2435.2
2435.75
2435.63
2434.51
2432.03
2428.04
2422.58
2415.78
2407.49
2397.63
2386.99
2375.67
2363.25
2350
2335.2
2318.12
2299.34
2278.95
2256.86
2233.24
2208.33
2182.21
2154.83
2126.48