/*--------------------------------*- C++ -*----------------------------------*\
| =========                 |                                                 |
| \\      /  F ield         | OpenFOAM: The Open Source CFD Toolbox           |
|  \\    /   O peration     | Version:  2112                                  |
|   \\  /    A nd           | Website:  www.openfoam.com                      |
|    \\/     M anipulation  |                                                 |
\*---------------------------------------------------------------------------*/
FoamFile
{
    version     2.0;
    format      ascii;
    arch        "LSB;label=32;scalar=64";
    class       volVectorField;
    location    "0.01015";
    object      U;
}
// * * * * * * * * * * * * * * * * * * * * * * * * * * * * * * * * * * * * * //

dimensions      [0 1 -1 0 0 0 0];

internalField   nonuniform List<vector> 
13875
(
(2204.17 109.693 1.81271e-18)
(2142.47 5.6254 -9.38736e-19)
(2170.24 -2.16799 -9.41112e-19)
(2167.87 -0.766886 0)
(2170.33 0.0583961 0)
(2169.42 -1.48099 9.36806e-19)
(2169.44 -1.46358 -9.37109e-19)
(2170.05 -0.0204323 -4.68343e-19)
(2169.09 0.603954 4.68233e-19)
(2169.02 0.265767 0)
(2169.47 0.10958 -3.883e-22)
(2169.51 0.887516 -3.88067e-22)
(2169.65 0.916507 0)
(2169.41 -0.028809 -4.68217e-19)
(2169.45 -0.917896 4.68586e-19)
(2169.6 -1.28885 0)
(2169.87 -0.270673 9.37056e-19)
(2169.23 0.345701 -9.37799e-19)
(2169.14 0.948677 3.87943e-22)
(2169.81 1.18785 -3.85756e-22)
(2170.45 -0.164641 -9.36286e-19)
(2167.85 0.289792 9.37157e-19)
(2171.1 2.48278 -1.87783e-18)
(2143.71 -8.69283 1.91633e-18)
(2210.48 -106.775 1.76312e-18)
(2253.39 91.9337 -1.63245e-18)
(2228.46 -1.16029 1.88334e-18)
(2247.4 0.663146 8.71804e-19)
(2245.47 0.952926 -8.67179e-19)
(2248.46 -0.48636 4.16902e-22)
(2247.67 2.23658 5.20218e-22)
(2245.8 1.83204 4.15745e-22)
(2245.53 0.226333 -4.35915e-19)
(2244.9 -0.583835 4.35951e-19)
(2244.84 -0.519738 2.17626e-19)
(2245.3 -0.228957 -1.6308e-19)
(2245.43 -1.14295 -5.31667e-20)
(2247.74 -1.14061 0)
(2247.86 0.10089 -4.34969e-19)
(2247.56 1.04357 4.3345e-19)
(2245.59 1.43019 4.3603e-19)
(2245.51 0.505031 -4.35308e-19)
(2245.2 -0.241996 5.18485e-22)
(2245.69 -1.56991 -5.18686e-22)
(2247.84 -1.9671 5.19788e-22)
(2248.4 0.750115 -8.71462e-19)
(2245.58 -0.693417 2.59976e-18)
(2247.26 -1.58658 -1.74255e-18)
(2229.04 3.61683 5.42696e-22)
(2256.58 -96.8587 -1.7128e-18)
(2252.4 78.1221 0)
(2236.33 -18.2445 0)
(2249.49 4.43165 0)
(2250.59 -1.88273 0)
(2253.55 -2.636 -1.63877e-18)
(2253.37 1.47328 1.64234e-18)
(2253.46 1.97992 1.71948e-18)
(2254.1 0.672305 -2.58129e-18)
(2253.17 0.771714 8.60636e-19)
(2252.61 0.122341 4.30603e-22)
(2253.23 -0.354766 -4.30806e-19)
(2253.08 -2.43028 4.30445e-19)
(2254.11 -2.54796 0)
(2253.99 0.0352605 0)
(2254.04 2.37164 4.08174e-22)
(2253.18 2.0082 0)
(2254.06 0.216671 8.38095e-22)
(2253.13 -0.294755 4.30565e-19)
(2253.09 -2.51193 -4.30669e-19)
(2253.54 -1.75602 0)
(2253.72 2.35625 0)
(2250.91 1.33799 0)
(2250.7 -4.81255 0)
(2238.01 13.8573 0)
(2256.94 -74.7327 0)
(2247.86 51.3579 0)
(2235.04 -28.6697 1.81427e-18)
(2249.28 7.21671 -3.41701e-18)
(2251.56 -4.7618 3.46602e-18)
(2253.31 -3.18342 -1.63545e-18)
(2253.25 1.16684 0)
(2253.88 1.30099 -8.41562e-22)
(2254.25 0.431809 0)
(2253.71 0.791392 0)
(2253.81 -0.20647 0)
(2254.38 -0.466916 0)
(2254.12 -2.30759 -8.44059e-22)
(2254.09 -2.49697 -5.06534e-20)
(2253.97 0.000165026 5.07248e-20)
(2254.01 2.28353 0)
(2254.26 1.80618 0)
(2254.74 0.251025 7.99402e-22)
(2254.18 0.390118 -8.57161e-19)
(2253.82 -1.74253 8.56177e-19)
(2253.42 -1.49026 -1.62401e-18)
(2253.56 2.74863 1.6236e-18)
(2251.98 4.32973 1.74097e-18)
(2249.77 -8.87295 -1.72059e-18)
(2235.67 31.3591 0)
(2251.51 -58.4519 0)
(2244.89 39.282 1.74898e-18)
(2235.45 -47.8625 0)
(2248.75 10.5034 0)
(2250.34 -7.71229 0)
(2253.52 -4.43167 0)
(2253.32 0.506008 1.68161e-21)
(2253.64 0.930776 1.6847e-21)
(2254.14 0.401465 4.08625e-19)
(2253.62 0.788111 -4.03018e-19)
(2253.77 -0.354785 2.00429e-19)
(2254.4 -0.533397 -2.15697e-19)
(2254.2 -1.90219 0)
(2254.09 -2.3603 0)
(2253.89 -0.0153829 -1.65703e-21)
(2254.06 2.08203 0)
(2254.3 1.35322 -1.68504e-21)
(2254.71 0.258533 8.07132e-19)
(2254.02 0.725581 -8.50662e-19)
(2253.5 -1.22007 1.71559e-18)
(2253.54 -0.837934 -1.69108e-18)
(2253.61 3.75898 1.65334e-21)
(2250.68 6.45343 0)
(2250.04 -11.5385 0)
(2237.25 42.9062 0)
(2250.62 -35.1969 0)
(2241.5 6.75526 0)
(2231.55 -63.6062 9.12431e-19)
(2247.22 12.299 -8.47556e-19)
(2250.9 -11.2081 0)
(2252.52 -5.18213 8.60714e-19)
(2252.85 -0.270817 -4.37466e-19)
(2253.68 0.1994 -2.99796e-21)
(2253.98 0.225434 -2.13288e-19)
(2253.56 0.667096 -4.19904e-19)
(2253.78 -0.819367 1.60847e-19)
(2254.37 -0.676476 1.66413e-21)
(2254.1 -1.66924 2.68526e-19)
(2253.99 -2.22419 -2.15354e-19)
(2253.76 -0.111058 3.36068e-21)
(2253.89 1.88671 -4.27562e-19)
(2254.22 1.15274 4.33261e-19)
(2254.65 0.311688 1.63622e-21)
(2254.13 1.33592 -1.68353e-21)
(2253.74 -0.331089 -1.67976e-21)
(2252.96 -0.366027 -8.59041e-19)
(2252.77 4.13116 8.46054e-19)
(2251.44 10.6704 0)
(2247.38 -15.1842 0)
(2232.46 65.4491 -1.93359e-18)
(2246.25 -18.8836 -1.26532e-19)
(2254.04 2.89965 -4.95248e-20)
(2227.5 -79.3486 6.02417e-20)
(2243.07 12.2581 0)
(2248.54 -15.687 -2.69152e-23)
(2252.17 -7.10602 -2.62481e-23)
(2252.56 -1.4954 0)
(2253.17 -0.213443 0)
(2253.57 0.239594 -8.48547e-19)
(2253.27 0.516723 8.38994e-19)
(2253.62 -1.18532 0)
(2254.23 -0.695956 1.6743e-18)
(2254.05 -1.21169 4.18995e-21)
(2253.88 -1.86543 -1.72198e-18)
(2253.62 -0.113923 -1.7115e-21)
(2253.87 1.44376 0)
(2254.19 0.68632 3.44595e-18)
(2254.43 0.357709 1.73843e-21)
(2253.76 1.71925 -6.90571e-18)
(2253.09 0.322426 3.45185e-18)
(2252.83 0.953639 2.64097e-23)
(2252.28 6.09987 0)
(2248.52 12.9531 3.52717e-18)
(2244.19 -12.5271 -3.30859e-18)
(2228.9 72.9186 3.81507e-18)
(2247.3 2.84394 -3.18066e-18)
(2218.37 -22.8419 -3.16889e-19)
(2214.7 -87.4777 -7.4963e-18)
(2235.68 3.51853 8.70685e-22)
(2246.11 -22.5007 2.61153e-23)
(2248.81 -9.28484 -8.09716e-22)
(2251.18 -3.08441 0)
(2252.63 -1.2278 -3.43378e-18)
(2253.17 -0.221655 3.40716e-18)
(2253.1 -0.0425749 0)
(2253.53 -1.785 -8.43276e-22)
(2253.93 -0.926862 -8.25328e-22)
(2253.75 -1.03211 0)
(2253.56 -1.66267 0)
(2253.32 -0.122624 -1.65941e-21)
(2253.48 1.25931 -8.38803e-22)
(2253.93 0.531096 2.60064e-23)
(2254.14 0.665713 -8.56058e-22)
(2253.53 2.45825 -2.62929e-23)
(2252.91 1.77917 -1.73296e-18)
(2251.4 2.39839 -1.62484e-20)
(2249.26 8.05233 1.68874e-18)
(2246.4 19.3838 8.85472e-22)
(2236.72 -4.79956 3.45896e-18)
(2216.55 81.4677 -3.53714e-18)
(2222.32 18.1394 2.50303e-23)
(2113.27 -37.8601 9.42625e-19)
(2168.62 -98.6089 0)
(2217.12 -20.1781 -8.31545e-22)
(2234.93 -32.3635 -8.65575e-19)
(2245.77 -17.7707 1.7131e-18)
(2248.72 -7.02848 -1.72934e-18)
(2250.92 -2.92034 9.03114e-21)
(2251.94 -0.729642 8.48592e-19)
(2252.3 -0.341083 0)
(2252.98 -2.11212 -8.5239e-19)
(2253.3 -0.876617 8.52307e-19)
(2253.26 -0.472498 0)
(2252.99 -1.18875 0)
(2252.72 -0.25918 2.10335e-21)
(2252.96 0.548602 8.34422e-22)
(2253.3 0.0419195 8.42277e-19)
(2253.33 0.872867 -8.44323e-19)
(2252.55 3.26945 0)
(2251.27 3.41329 8.60851e-19)
(2249.48 6.04937 -1.72867e-18)
(2246.23 15.1583 8.44928e-19)
(2236.19 28.87 -8.40863e-22)
(2219.04 16.6692 0)
(2171.37 93.9135 0)
(2117.05 35.3365 0)
(1873.56 -142.22 -6.57076e-17)
(2125.72 -161.362 8.42444e-17)
(2198.86 -54.8276 0)
(2229.22 -54.3494 -2.99377e-17)
(2239.79 -22.3651 3.09762e-17)
(2246.48 -11.3339 0)
(2249.18 -5.66608 -2.94548e-20)
(2250.69 -2.4872 -1.44752e-17)
(2251.29 -2.03741 1.44605e-17)
(2251.77 -2.99063 -2.91446e-20)
(2252.06 -1.22913 0)
(2252.09 -0.431719 -3.70086e-18)
(2251.8 -0.85227 5.59012e-18)
(2251.53 -0.290577 -1.90126e-18)
(2251.71 0.41913 -2.92789e-20)
(2252.02 0.371305 0)
(2251.91 1.74323 0)
(2250.95 5.02342 -2.94698e-17)
(2249.44 7.59434 2.90827e-17)
(2246.68 10.2754 -3.05978e-17)
(2240.47 20.4771 2.91757e-17)
(2229.41 52.9782 3.22054e-17)
(2199.86 52.5021 -2.92267e-17)
(2128.71 161.817 -8.33883e-17)
(1884.59 138.355 -1.25808e-17)
(1652.98 -215.529 -9.08573e-17)
(2011.32 -307.538 1.37614e-16)
(2159.48 -104.623 0)
(2210.66 -65.1066 6.83837e-17)
(2232.52 -29.4717 -7.123e-17)
(2241.47 -14.1659 -3.38271e-17)
(2244.85 -6.01074 3.36065e-17)
(2247.5 -3.03802 -3.31877e-17)
(2248.65 -2.33467 3.31693e-17)
(2249.31 -2.51416 3.21422e-20)
(2249.73 -0.589339 0)
(2249.79 0.232932 -2.11512e-18)
(2249.5 -0.255712 2.1689e-18)
(2249.19 -0.440121 3.2962e-20)
(2249.29 -0.437074 3.28596e-20)
(2249.39 -0.407591 3.30753e-20)
(2249.14 0.859452 0)
(2248.03 4.5253 0)
(2245.09 7.62846 -6.7707e-17)
(2242.28 15.4462 6.81867e-17)
(2233.7 26.9648 -7.13513e-17)
(2211.55 59.0081 1.47072e-16)
(2166.07 99.456 -6.99437e-17)
(2016.75 298.615 -3.86851e-20)
(1697.83 206.032 8.75196e-20)
(1281.42 -592.634 -1.08977e-16)
(1741.85 -591.441 1.18828e-16)
(2046.22 -180.817 2.16989e-16)
(2173.63 -106.576 -9.3721e-17)
(2207.9 -35.7946 0)
(2229.55 -19.1692 7.39799e-17)
(2238.19 -12.1471 -7.50266e-17)
(2241.39 -7.2969 0)
(2243.07 -5.35871 3.5484e-20)
(2244.13 -4.04256 0)
(2244.71 -1.30291 0)
(2244.77 0.0374948 0)
(2244.57 0.140287 4.67165e-18)
(2244.25 -0.206774 -4.63538e-18)
(2244.22 -0.00184817 -3.71867e-20)
(2243.97 0.810844 -3.55263e-20)
(2243.37 2.8059 0)
(2241.75 7.19293 0)
(2238.06 13.9288 0)
(2228.49 19.0932 -7.89359e-17)
(2211.51 37.2898 1.56924e-16)
(2176.41 102.682 -7.23185e-17)
(2052.64 161.788 -1.33649e-16)
(1750.1 592.171 1.00499e-16)
(1286.05 543.613 -5.99327e-20)
(1301.79 -610.858 1.60774e-16)
(1112.36 -1085.65 0)
(1701.98 -452.733 0)
(1929.38 -129.863 -1.07872e-16)
(2150.89 -84.0487 1.09032e-16)
(2201.49 -42.1684 0)
(2215.71 -13.5441 1.12655e-20)
(2224.23 -6.26953 4.04887e-17)
(2228.38 -3.0252 -4.08524e-17)
(2231.08 -1.56528 0)
(2232.19 0.385406 -1.00355e-17)
(2232.46 0.962052 1.01295e-17)
(2232.45 0.819511 -5.08668e-18)
(2232.12 -0.0640427 5.08911e-18)
(2231.77 -0.717184 3.85947e-20)
(2230.65 -1.10672 -4.05814e-17)
(2228.23 -0.14125 8.05007e-17)
(2223.73 4.27431 1.04395e-18)
(2214.19 13.489 -4.04011e-17)
(2197.95 45.0901 -9.08577e-17)
(2134.01 72.1959 8.43665e-17)
(1912.48 109.729 8.25395e-20)
(1758.4 455.954 2.60568e-20)
(1103.59 1071.11 1.67454e-16)
(1319.45 612.425 7.17187e-18)
(1358.89 -629.402 0)
(1142.26 -1058.34 0)
(1291.78 -751.881 0)
(1201.86 -809.361 0)
(1955.19 -255.521 0)
(2053.15 -62.3474 1.0153e-16)
(2157.01 -47.7844 -1.0407e-16)
(2175.62 -30.6391 1.1523e-19)
(2185.37 -19.9264 -1.03111e-20)
(2192.37 -10.7233 2.25839e-17)
(2194.57 -4.57007 -2.28469e-17)
(2195.39 -1.06187 -2.25583e-19)
(2195.54 0.587489 -7.07353e-19)
(2195.19 1.3956 8.02145e-19)
(2194.42 3.43494 -2.26523e-17)
(2191.99 8.22106 2.24413e-17)
(2185.32 17.4526 9.91427e-20)
(2174.66 31.6388 0)
(2149.56 51.8052 0)
(2017.29 86.4097 0)
(1918.56 324.194 -2.11418e-16)
(1167.7 812.478 -6.18485e-17)
(1296.85 702.29 1.64032e-16)
(1135.42 1023.04 2.05607e-20)
(1368.85 619.024 2.08618e-20)
(1436.94 -620.958 0)
(1273.37 -925.554 3.94552e-20)
(1321.21 -784.292 0)
(1238.56 -857.773 -1.67173e-16)
(1336.78 -805.824 3.17374e-16)
(1648.22 -551.198 -2.05049e-16)
(1937.77 -117.431 0)
(1959.84 -13.931 -1.02546e-19)
(2008.39 14.3878 0)
(2045.5 8.76669 0)
(2056.87 6.2205 -1.40846e-17)
(2060.77 2.84533 1.43999e-17)
(2061.72 1.87637 1.4227e-17)
(2061.24 1.09768 -1.42899e-17)
(2058.91 -0.521912 0)
(2050.18 -4.39446 -5.86219e-17)
(2017.82 -10.1007 5.91561e-17)
(1962.68 17.7804 7.11755e-17)
(1937.46 143.339 -5.96619e-17)
(1595.78 587.701 0)
(1308.59 794.89 0)
(1203 850.753 -1.72041e-19)
(1331.29 779.197 -1.70893e-16)
(1266.94 918.068 3.66703e-16)
(1425.19 619.075 -1.69431e-16)
(1519.51 -630.936 -1.69273e-16)
(1387.58 -855.103 1.87082e-16)
(1385.13 -759.171 0)
(1283.09 -819.55 -1.89241e-16)
(1309.11 -785.493 -6.21429e-18)
(1307.67 -745.491 2.77163e-16)
(1257.03 -593.511 -2.00114e-16)
(1321.86 -521.928 1.18062e-16)
(1543.33 -270.858 0)
(1564.5 -120.484 0)
(1548.97 -58.9114 -4.08305e-20)
(1545.61 -21.3535 2.7317e-19)
(1542.56 -3.44538 0)
(1544.32 11.9032 0)
(1547.96 41.9297 5.79803e-17)
(1558.26 109.137 -5.51081e-17)
(1573.39 230.449 -1.10545e-16)
(1334.12 526.399 2.24381e-16)
(1246.8 597.682 1.82086e-17)
(1286.39 746.353 -9.04123e-17)
(1301.2 779.403 0)
(1252.81 823.519 0)
(1382.41 761.113 -1.73782e-16)
(1350.94 888.101 2.02889e-16)
(1502.23 641.026 -4.59585e-20)
(1660.44 -609.773 1.573e-16)
(1562.59 -748.727 -9.70373e-20)
(1528.77 -687.428 9.48361e-17)
(1466.15 -728.283 -8.50337e-17)
(1399.97 -683.889 -4.46173e-20)
(1340.28 -599.715 8.76047e-20)
(1190.36 -447.8 1.15641e-16)
(872.31 -241.762 -1.80257e-16)
(696.729 -125.013 6.39235e-17)
(535.447 -56.8658 0)
(409.684 -20.2822 -3.37376e-17)
(369.307 -6.77654 3.36709e-17)
(352.448 0.973644 0)
(359.554 9.31936 6.32574e-20)
(389.556 17.0585 -3.3596e-17)
(497.919 49.2078 3.38288e-17)
(737.431 121.637 0)
(874.187 252.908 -1.1643e-16)
(1178.08 439.722 1.16665e-16)
(1327.8 595.481 8.91641e-17)
(1389.15 685.173 -1.86196e-16)
(1433.99 744.527 9.96571e-17)
(1520.12 708.929 0)
(1547.55 776.237 1.68785e-16)
(1650.28 625.029 -3.3004e-18)
(1815.44 -551.888 -3.30233e-18)
(1746.26 -604.119 8.00201e-17)
(1689.31 -552.21 -3.63237e-17)
(1542.16 -426.575 -5.72499e-17)
(1421.63 -359.712 7.33311e-17)
(1384.53 -279.593 -5.1296e-17)
(1291.32 -254.306 5.29332e-17)
(950.565 -200.107 -5.85411e-17)
(735.201 -107.265 -4.98237e-19)
(599.105 -58.6664 3.30028e-17)
(502.735 -30.0799 1.65093e-17)
(470.252 -15.204 -1.54322e-19)
(457.471 1.89813 -1.66964e-17)
(464.816 21.9045 -6.04575e-20)
(496.828 30.9665 -7.51498e-20)
(589.999 54.2876 -2.06848e-18)
(793.597 102.557 2.19109e-20)
(972.138 193.928 5.37669e-18)
(1282.76 228.185 -3.5407e-18)
(1365.29 305.274 0)
(1408.91 398.151 1.09188e-17)
(1552.64 479.159 -3.45095e-17)
(1689.45 591.191 4.13687e-17)
(1741.54 634.838 -5.64944e-17)
(1810.24 569.756 5.30835e-17)
(1999.19 -510.043 -8.71413e-20)
(1954.9 -328.841 -1.04631e-19)
(1882.54 -320.94 1.21502e-19)
(1791.07 -219.359 -5.47836e-21)
(1534.47 -71.2934 -1.82859e-19)
(1415.98 -26.6598 -2.00791e-19)
(1375.3 -72.2718 -7.15199e-21)
(1199.48 -92.9766 0)
(966.99 -105.012 0)
(819.64 -122.307 6.56607e-17)
(736.048 -102.716 -6.7187e-17)
(696.608 -51.0074 -8.84847e-21)
(680.787 1.81043 8.8319e-21)
(686.6 51.9162 -8.64267e-18)
(719.524 114.404 8.37766e-18)
(807.596 147.18 0)
(985.76 127.626 0)
(1175.24 108.812 -5.64997e-17)
(1341.76 72.7194 5.61135e-17)
(1369.05 17.2651 -1.94138e-19)
(1537.56 76.4433 0)
(1801.54 229.577 0)
(1887.04 324.132 -1.23919e-19)
(1953.26 331.337 -1.0735e-19)
(2000.4 523.648 1.23038e-16)
(1494.39 -179.444 -1.87878e-16)
(1740.35 -124.879 -2.39085e-16)
(1847.5 114.383 1.22319e-16)
(1797.61 142.613 0)
(1648.73 185.49 1.98822e-19)
(1516.97 145.94 1.0814e-16)
(1502.84 34.8363 -2.08797e-16)
(1407.69 -20.814 1.06184e-16)
(1224.47 -57.1913 -1.20969e-16)
(1061.59 -84.1323 1.25259e-16)
(935.85 -74.4013 3.29946e-17)
(862.208 -29.0139 -4.11133e-17)
(839.635 6.0891 -8.32141e-18)
(856.198 40.4897 1.68368e-17)
(929.946 91.476 0)
(1069.4 109.209 0)
(1246.37 77.7532 1.16562e-16)
(1391.97 37.7861 -2.20847e-16)
(1486.59 -37.7642 1.09332e-16)
(1499.07 -155.398 2.27228e-19)
(1662.91 -195.652 1.53162e-16)
(1790.22 -154.819 -9.77568e-17)
(1830.67 -136.056 -4.90342e-16)
(1739.03 134.755 6.21395e-16)
(1486.21 189.639 -2.49347e-16)
(-46.9119 -74.1244 1.11855e-19)
(483.666 -109.65 -2.55694e-16)
(1395.49 298.178 1.7429e-16)
(1671.64 495.449 0)
(1672.5 417.542 0)
(1610.46 277.49 0)
(1601.23 138.598 0)
(1531.49 65.2144 0)
(1374.59 18.4623 -5.16035e-17)
(1210.03 -21.0753 1.08397e-16)
(1077.39 -26.1404 -8.4674e-17)
(1000.87 -6.84966 3.21697e-17)
(977.587 8.66525 -3.62754e-18)
(1000.51 21.1003 1.582e-20)
(1084.59 44.8245 -5.58374e-17)
(1235.04 41.1874 5.54693e-17)
(1404.02 -1.48039 0)
(1527.34 -53.3378 0)
(1599.7 -139.519 -1.73345e-16)
(1603.74 -294.272 1.8581e-16)
(1677.39 -422.972 -1.61978e-19)
(1650.92 -502.169 7.30647e-20)
(1356.08 -268.846 -9.50009e-20)
(412.896 153.162 -1.15898e-19)
(-122.782 94.3771 0)
(-265.222 -39.023 -2.24204e-16)
(379.669 262.662 2.28913e-16)
(1250.05 633.567 -1.72163e-19)
(1624.81 740.473 1.63789e-16)
(1724.34 573.89 -1.21551e-16)
(1686.84 390.274 0)
(1673.54 234.304 -8.1968e-17)
(1613.15 157.609 7.4599e-17)
(1476.46 95.1273 -4.452e-17)
(1326.1 38.3653 9.33655e-17)
(1195.37 10.5882 -4.81813e-17)
(1119.02 10.4583 1.83358e-19)
(1099.92 7.26091 0)
(1125.09 3.08479 2.49307e-17)
(1214.17 1.741 2.31222e-17)
(1359.72 -29.0336 -4.7336e-17)
(1506.52 -90.4623 -8.13605e-17)
(1609.87 -150.048 8.39262e-17)
(1678.4 -238.216 -7.21732e-17)
(1683.7 -414.089 7.96256e-17)
(1727.36 -592.044 7.97959e-20)
(1587.95 -766.285 -7.60153e-20)
(1191.97 -624.273 0)
(318.612 -269.418 1.12973e-19)
(-271.423 21.4035 0)
(236.832 219.071 1.91571e-16)
(838.342 700.276 -1.88835e-16)
(1394.68 861.209 6.19031e-20)
(1669.94 865.843 0)
(1775.2 673.774 0)
(1736.79 508.431 -7.32121e-21)
(1718.68 352.735 0)
(1668.84 249.645 7.39664e-20)
(1554.35 167.913 0)
(1417.66 96.2325 4.15816e-17)
(1300.01 51.3556 -6.3966e-17)
(1229.38 24.3474 3.26223e-17)
(1208.16 6.12572 -1.10134e-17)
(1234.79 -15.1107 0)
(1316.06 -41.4532 0)
(1445.9 -90.0909 3.88293e-17)
(1576.83 -161.507 -1.09108e-16)
(1662.67 -247.613 7.30395e-17)
(1732.11 -345.296 -6.11008e-17)
(1737.16 -513.955 6.98259e-17)
(1784.25 -678.956 0)
(1661.99 -886.375 0)
(1387.94 -880.641 0)
(873.289 -734.18 -1.17141e-20)
(244.891 -204.525 -2.01622e-16)
(309.376 78.0454 -3.58236e-20)
(1078.36 720.632 1.56106e-16)
(1528.4 927.145 -1.2014e-16)
(1734.57 906.902 0)
(1805.72 734.521 0)
(1761.66 594.848 7.59587e-21)
(1755.87 441.859 6.45517e-17)
(1713.54 328.035 -5.69981e-17)
(1614.02 226.363 3.03056e-20)
(1495.32 140.371 3.29329e-20)
(1388.41 76.9581 3.48649e-20)
(1322.8 38.3075 -1.03575e-20)
(1304.99 4.20728 -1.03924e-20)
(1328.27 -30.4903 1.93074e-17)
(1404.41 -71.5186 -1.93334e-17)
(1522.28 -137.296 4.21761e-20)
(1636.52 -222.352 3.88319e-20)
(1707.07 -328.732 0)
(1766.8 -434.121 -5.42156e-17)
(1769.82 -591.029 6.22511e-17)
(1818.66 -739.706 0)
(1735.16 -919.975 -9.9176e-17)
(1524.14 -930.12 1.22272e-16)
(1068.16 -712.693 9.04463e-21)
(322.411 -56.2797 -1.88142e-16)
(486.285 116.007 4.16549e-20)
(1241.72 745.483 0)
(1627.83 926.479 0)
(1779.35 914.451 -4.76053e-17)
(1819.21 776.923 4.59606e-17)
(1779.98 652.56 0)
(1787.77 507.895 5.87586e-17)
(1750.57 388.539 -5.24751e-17)
(1664.11 274.496 3.17851e-17)
(1556.91 179.375 -3.21265e-17)
(1465.03 104.926 1.7692e-17)
(1408.26 47.6952 -1.77985e-17)
(1390.4 2.08021 0)
(1414.72 -46.3787 -1.76231e-17)
(1481.59 -105.165 1.76829e-17)
(1583.49 -183.938 -3.47267e-20)
(1685.97 -273.776 -3.20443e-20)
(1744.6 -397.583 5.16824e-20)
(1794.22 -507.547 4.97538e-17)
(1784.31 -656.648 -5.72836e-17)
(1832.2 -781.112 -4.56715e-20)
(1776.91 -930.892 -4.46399e-20)
(1623.13 -923.327 0)
(1213.91 -733.006 -7.23551e-20)
(462.302 -97.9032 4.21852e-20)
(522.843 132.99 1.59686e-22)
(1318.52 691.64 0)
(1694.11 872.639 9.30866e-23)
(1780.31 909.24 4.04285e-20)
(1823.43 803.632 -8.57177e-23)
(1794.88 699.668 -5.19466e-17)
(1813.88 560.071 4.60448e-17)
(1784.24 439.325 0)
(1708.85 315.466 -5.90507e-20)
(1618.26 213.273 -1.07839e-22)
(1533.87 124.404 -1.13801e-22)
(1481.9 59.2761 6.89684e-20)
(1467.79 0.953522 0)
(1486.79 -57.3851 0)
(1547.58 -124.874 -1.13053e-22)
(1640.53 -216.613 -1.067e-22)
(1730 -314.776 -2.62999e-17)
(1777.62 -445.241 7.51857e-17)
(1817.44 -557.946 -5.32634e-17)
(1799.35 -699.95 0)
(1839.08 -800.513 -4.40069e-17)
(1782.55 -916.133 4.41799e-17)
(1697.66 -869.381 9.28804e-23)
(1314.31 -666.944 6.24549e-20)
(521.048 -133.405 1.60449e-22)
(663.349 215.523 3.05775e-18)
(1447.71 673.82 1.24234e-17)
(1743.29 847.632 9.75291e-17)
(1791.18 895.79 -4.11822e-17)
(1836.94 804.788 4.25834e-17)
(1813.1 716.1 -4.76792e-17)
(1841.16 587.806 4.28985e-17)
(1811.37 472.632 -2.51305e-17)
(1745.52 345.119 2.4659e-17)
(1664.23 240.774 1.14836e-22)
(1594.9 146.455 1.20601e-22)
(1551.29 66.2297 -1.23075e-22)
(1536.1 0.797608 7.44007e-18)
(1555.58 -67.1373 7.2478e-18)
(1607.01 -148.34 -1.4846e-17)
(1684.8 -247.462 1.13876e-22)
(1766.55 -342.03 4.88847e-17)
(1807.19 -478.146 -9.50799e-17)
(1844.93 -583.547 4.89298e-17)
(1812.29 -720.809 0)
(1848.29 -802.452 -8.34387e-23)
(1793.65 -900.391 7.90603e-23)
(1739.1 -850.462 -8.43724e-23)
(1439.08 -673.057 -1.21801e-16)
(653.665 -212.869 1.50335e-16)
(719.046 222.172 1.40662e-19)
(1504.68 635.436 0)
(1762.26 801.574 0)
(1797.13 866.45 3.96042e-20)
(1844.83 792.147 8.06039e-20)
(1832.05 725.701 0)
(1866.23 605.906 4.49109e-17)
(1837.96 493.876 -4.22618e-17)
(1779.1 363.463 4.43735e-20)
(1711.71 257.723 -4.7557e-20)
(1648.35 153.407 -1.37365e-17)
(1609.18 71.6173 1.37652e-17)
(1598.68 -2.965 3.57095e-18)
(1613.88 -78.2306 -3.47515e-18)
(1660.9 -163.045 1.32417e-17)
(1731.6 -272.065 -3.78206e-17)
(1801.6 -372.208 2.46529e-17)
(1832.48 -508.808 -4.63511e-20)
(1865.13 -612.025 3.94513e-20)
(1830.73 -733.909 -4.05693e-17)
(1852.18 -796.552 8.30326e-19)
(1805.46 -865.047 -2.09637e-18)
(1765.85 -789.811 4.12541e-17)
(1474.34 -601.749 5.69624e-20)
(648.298 -210.324 6.92254e-20)
(713.645 203.69 1.35333e-16)
(1537.15 579.832 -1.09642e-16)
(1791.59 761.572 0)
(1816.7 841.252 -3.82203e-17)
(1860.03 781.758 3.19562e-19)
(1852.29 720.226 3.94981e-17)
(1890.21 613.205 4.16582e-17)
(1859.72 512.149 -3.98942e-17)
(1810.06 383.789 -4.68461e-20)
(1749.41 279.241 -2.45735e-17)
(1699.42 173.546 1.1921e-17)
(1666.48 80.1135 1.26115e-17)
(1653.72 1.07946 -5.38956e-20)
(1668.86 -80.381 0)
(1707.15 -174.167 0)
(1763.85 -286.073 0)
(1829.78 -378.339 4.64053e-20)
(1857.01 -515.028 9.65465e-21)
(1890.91 -607.237 -4.98074e-20)
(1850.61 -721.079 0)
(1865.66 -780.383 3.81677e-20)
(1819.97 -839.67 9.40833e-21)
(1795.47 -761.285 -4.87796e-20)
(1554.6 -583.015 -1.07057e-16)
(766.211 -240.379 1.36313e-16)
(768.558 233.516 6.58209e-17)
(1563.53 522.791 -9.67645e-17)
(1808.65 681.515 8.23851e-17)
(1828.46 786.14 -4.11375e-17)
(1871.61 752.178 -3.73947e-17)
(1869.79 707.084 3.76829e-17)
(1910.7 614.678 1.92488e-17)
(1880.74 518.934 -1.89711e-17)
(1836.84 389.975 1.08293e-17)
(1788.48 285.955 -2.23405e-17)
(1741.97 173.636 1.73771e-17)
(1712.44 83.4985 -7.40896e-18)
(1704.72 -2.04034 1.4892e-18)
(1715.82 -87.996 -4.3871e-20)
(1751.61 -179.657 2.28447e-17)
(1803.44 -298.685 -2.282e-17)
(1859.24 -395.014 3.87196e-20)
(1877.78 -528.238 3.78857e-17)
(1910.27 -614.827 -1.82347e-18)
(1862.92 -712.406 -3.84783e-17)
(1875.67 -756.803 0)
(1836.02 -788.431 4.10262e-17)
(1813.12 -689.519 -3.67064e-17)
(1571.04 -527.913 -1.03675e-16)
(790.876 -256.273 -1.22469e-18)
(887.862 262.427 -6.2764e-17)
(1630.46 480.135 4.84106e-17)
(1835.76 637.602 1.90659e-20)
(1847.5 746.863 -5.3851e-20)
(1892.03 737.223 1.81646e-20)
(1892.26 684.83 3.60716e-17)
(1933.47 595.139 -1.72748e-17)
(1897.73 512.337 -1.83349e-17)
(1862.25 390.35 4.1398e-20)
(1817.5 291.729 -4.41359e-20)
(1782.55 181.833 2.02913e-20)
(1759.25 83.6456 -2.05466e-20)
(1749.64 -3.57333 0)
(1761.75 -93.3159 5.23684e-21)
(1789.99 -191.409 -1.07078e-17)
(1830.12 -308.745 1.07651e-17)
(1883.38 -395.046 -1.92673e-17)
(1898.36 -525.904 9.68588e-19)
(1932.1 -598.11 1.81078e-17)
(1887.54 -688.851 -5.33176e-20)
(1889.81 -742.098 -3.66273e-17)
(1854.39 -746.257 3.48639e-17)
(1840.44 -639.127 0)
(1626 -477.293 -4.88235e-17)
(840.108 -255.79 6.2651e-17)
(904.494 264.948 0)
(1644.8 432.647 -4.28864e-17)
(1840.53 554.866 4.24939e-17)
(1867.15 672.008 1.77491e-20)
(1903.03 698.206 1.71363e-20)
(1911.73 663.099 -3.45238e-17)
(1946.55 591.295 3.41419e-17)
(1914.88 515.151 1.83002e-17)
(1885.44 395.365 7.96737e-19)
(1852 297.286 -1.96705e-17)
(1818.49 182.25 -2.14738e-20)
(1796.58 90.087 2.43123e-20)
(1791.33 -0.885923 0)
(1798.1 -91.9816 4.3678e-20)
(1824.98 -183.952 -2.13829e-20)
(1862.14 -307.498 9.75001e-18)
(1906.91 -396.676 -9.63565e-18)
(1914.01 -521.409 -1.82694e-20)
(1946.39 -590.731 -1.91321e-20)
(1904.2 -665.121 1.75671e-20)
(1901.5 -705.81 -3.63475e-17)
(1872.71 -683.731 -6.41357e-18)
(1850.39 -571.81 3.37822e-17)
(1661.9 -440.506 0)
(959.217 -283.394 6.01254e-17)
(1013.63 283.919 -1.14295e-16)
(1686.1 397.03 4.50977e-17)
(1856.18 497.944 3.25737e-17)
(1891.13 624.908 -4.06769e-17)
(1920.71 672.015 0)
(1933.79 643.079 -2.07106e-21)
(1966.41 568.381 0)
(1929.93 498.133 -2.19387e-21)
(1907.49 386.821 -2.32618e-21)
(1874.67 296.095 0)
(1851.04 186.015 0)
(1835.25 87.4939 -2.55771e-21)
(1827.62 -2.40152 0)
(1836.5 -95.64 0)
(1856.28 -192.648 -9.63893e-18)
(1883.31 -310.379 9.61979e-18)
(1928.52 -388.112 -2.30578e-21)
(1933.15 -509.163 -1.71437e-17)
(1965.01 -571.394 1.63198e-17)
(1929.73 -643.719 0)
(1916.4 -678.847 3.57942e-17)
(1891.63 -637.488 -7.2762e-17)
(1866.01 -516.408 7.22689e-17)
(1697.47 -398.231 3.96306e-18)
(1027.1 -288.949 -5.67391e-17)
(1070.15 274.765 1.35861e-20)
(1704.64 366.717 -1.04967e-20)
(1860.21 434.662 0)
(1908.72 544.942 0)
(1930.63 616.496 0)
(1952.11 611.514 7.69035e-21)
(1976.45 555.732 0)
(1943.03 488.767 -7.87515e-21)
(1927.62 381.694 0)
(1904.67 291.67 -8.49354e-21)
(1880.83 176.662 0)
(1864.44 87.3483 -2.36403e-18)
(1861.52 -3.59928 2.34578e-18)
(1865.67 -95.4758 0)
(1886.11 -184.045 9.18705e-18)
(1911.58 -307.849 -1.8028e-17)
(1948.28 -388.625 8.72743e-18)
(1946.24 -499.562 0)
(1977.47 -560.618 1.5929e-17)
(1944.02 -617.199 -1.59454e-17)
(1930.06 -627.005 3.56363e-17)
(1910.81 -558.18 -3.15483e-17)
(1859.48 -452.882 0)
(1706.28 -362.493 0)
(1046.95 -254.715 0)
(1122.19 267.898 -1.31627e-20)
(1729.32 347.763 1.03173e-20)
(1878.05 377.572 0)
(1929.07 469.82 0)
(1948.73 579.35 0)
(1970.69 593.155 -7.64175e-21)
(1996.88 533.116 0)
(1957.79 468.573 8.20274e-21)
(1948.31 369.584 0)
(1923.86 289.754 -8.80246e-18)
(1908.05 182.778 8.84044e-18)
(1897.11 88.0016 -8.37815e-21)
(1890.8 -0.739979 9.26718e-21)
(1897.34 -93.3756 8.36928e-21)
(1910.95 -184.721 0)
(1928.07 -299.752 0)
(1967.94 -368.502 8.48019e-21)
(1962.78 -477.912 -1.6254e-17)
(1996.43 -536.717 1.50938e-17)
(1967.59 -593.719 0)
(1940.98 -588.403 7.84869e-21)
(1928.59 -485.953 0)
(1875.67 -393.954 0)
(1730.93 -341.915 0)
(1098.31 -235.882 0)
(1148.32 241.456 -5.06748e-17)
(1740.3 315.956 4.2006e-17)
(1887.71 322.582 0)
(1937.25 388.53 -1.6749e-20)
(1957.27 517.161 0)
(1981.73 548.86 -1.45332e-17)
(2004.41 514.279 3.01127e-17)
(1970.46 457.118 -1.58606e-17)
(1964.82 360.914 -8.13511e-18)
(1949.75 281.373 8.34069e-18)
(1932.7 170.242 4.34668e-21)
(1919.87 85.9697 1.1179e-18)
(1918.45 -2.68565 -1.07403e-18)
(1920.69 -92.7748 8.52292e-18)
(1937.28 -175.116 -8.51756e-18)
(1953.26 -295.888 0)
(1984.27 -366.133 -1.51706e-20)
(1975.13 -465.915 0)
(2005.89 -522.006 0)
(1978.87 -559.313 -1.62729e-17)
(1952.41 -524.935 1.46775e-17)
(1936.42 -398.299 0)
(1883.75 -335.04 3.66811e-17)
(1725.82 -313.886 2.16666e-18)
(1112.17 -221.383 -1.05009e-16)
(1204.39 222.113 5.05725e-17)
(1765.53 294.196 1.93804e-20)
(1901.94 275.143 3.08894e-17)
(1942.27 322.477 -2.31679e-17)
(1970.49 476.479 -1.76109e-17)
(1996.91 518.987 0)
(2023.16 487.984 7.52209e-21)
(1984.83 430.569 1.5196e-17)
(1983.98 341.086 -1.5784e-17)
(1964.77 271.002 0)
(1954.46 170.616 0)
(1947.37 82.2987 -2.58316e-20)
(1942.33 -3.38993 3.22051e-20)
(1947.68 -93.4293 1.68075e-20)
(1957.27 -176.688 4.08254e-18)
(1966.88 -285.018 -4.03698e-18)
(2002.83 -345.481 8.38382e-21)
(1992.84 -444.381 1.55588e-17)
(2023.36 -495.253 -2.89115e-17)
(1994.49 -523.414 1.40401e-17)
(1965.78 -484.407 -1.48929e-20)
(1941.94 -319.705 0)
(1902.62 -282.513 1.69123e-20)
(1749.68 -298.167 4.06193e-17)
(1183.19 -233.307 -1.00815e-16)
(1204.07 186.956 -4.97861e-17)
(1766.5 262.299 -3.82959e-17)
(1905.74 232.897 3.49613e-17)
(1932.76 250.06 1.4513e-17)
(1977.65 393.447 -1.82379e-17)
(2005.53 459.704 0)
(2027.91 462.458 3.66725e-21)
(1995.98 418.285 -1.10847e-20)
(1998.78 335.035 7.58484e-18)
(1987.81 265.023 -1.56161e-17)
(1975.85 160.33 7.89135e-18)
(1965.26 83.2483 1.98665e-18)
(1965.07 -1.5079 -1.86001e-18)
(1965.48 -87.86 1.84602e-18)
(1979.45 -161.502 -1.97606e-18)
(1988.56 -276.251 0)
(2016.69 -337.523 1.12233e-20)
(2003.05 -424.618 -3.56561e-21)
(2029.04 -474.803 -1.48411e-17)
(2004.56 -474.354 1.36856e-17)
(1974.32 -403.756 0)
(1930.17 -257.545 0)
(1908.33 -231.945 -4.0999e-21)
(1768.78 -269.4 -4.01354e-17)
(1226.66 -212.791 -1.46571e-18)
(1245.82 170.071 -2.3454e-17)
(1783.25 242.298 1.96647e-17)
(1920.09 211.509 4.10686e-21)
(1931.09 183.489 0)
(1986.85 324.721 1.35093e-17)
(2017.99 420.8 -1.61342e-17)
(2040.22 433.131 3.4097e-21)
(2009.79 388.913 3.6664e-21)
(2016.98 312.835 1.39863e-20)
(2000.23 252.102 -1.88959e-18)
(1992.97 159.422 9.55807e-19)
(1988.79 78.5365 1.87643e-18)
(1984.64 -2.57099 -9.63539e-19)
(1988.37 -88.6938 3.82582e-18)
(1995.3 -163.005 -3.81556e-18)
(2000.04 -263.88 0)
(2034.79 -317.335 1.01794e-20)
(2020.22 -401.664 -1.51216e-17)
(2041.44 -441.619 1.32405e-17)
(2016.76 -431.434 3.47457e-21)
(1984.31 -337.835 0)
(1928.71 -178.493 0)
(1926.34 -208.767 4.12048e-21)
(1788.98 -246.348 -3.95379e-17)
(1256.89 -189.557 4.67366e-17)
(1283.46 143.813 2.34872e-20)
(1792.27 209.471 0)
(1931.45 181.989 -7.81157e-21)
(1936.32 129.979 -1.43818e-17)
(1985.44 242.721 1.77466e-17)
(2020.26 350.944 -1.31059e-17)
(2041.44 392.676 1.51767e-17)
(2018.8 367.941 -7.02235e-18)
(2028.51 302.829 7.35736e-18)
(2020.08 243.472 -3.64415e-18)
(2011.39 145.522 3.70004e-18)
(2002.53 75.8005 -1.82763e-18)
(2003.26 -3.29267 2.08779e-18)
(2002.58 -85.1007 -2.47265e-19)
(2014.88 -151.257 3.69589e-18)
(2019.71 -257.77 -7.30117e-18)
(2046.08 -308.531 -3.76042e-18)
(2028.94 -378.584 7.00227e-18)
(2045.33 -409.96 1.34785e-20)
(2021.78 -366.646 -6.99808e-21)
(1983.99 -243.17 0)
(1933.8 -136.697 0)
(1936.26 -181.901 0)
(1796.47 -208.911 -1.94588e-17)
(1268.8 -150.589 2.28074e-17)
(1306.64 141.218 -2.79025e-21)
(1801.29 191.132 0)
(1947.93 166.644 9.83739e-21)
(1941.76 86.9007 -7.92085e-21)
(1972.52 168.273 -7.22162e-21)
(2029.68 299.16 0)
(2049.43 351.982 -6.61466e-21)
(2030.16 337.479 6.85651e-18)
(2044.7 280.917 -7.24701e-18)
(2030.37 231.161 0)
(2025.27 147.016 1.70391e-21)
(2022.76 74.1777 0)
(2019.56 -1.26529 0)
(2022.29 -82.4486 1.79722e-18)
(2027.03 -147.858 -1.80019e-18)
(2027.66 -240.804 -7.23685e-21)
(2061.98 -285.025 -1.65503e-21)
(2042.76 -349.569 6.99465e-21)
(2049.94 -362.523 -7.50705e-18)
(2030.63 -320.537 6.37914e-18)
(1975.56 -183.559 -1.73044e-17)