/*--------------------------------*- C++ -*----------------------------------*\
| =========                 |                                                 |
| \\      /  F ield         | OpenFOAM: The Open Source CFD Toolbox           |
|  \\    /   O peration     | Version:  2112                                  |
|   \\  /    A nd           | Website:  www.openfoam.com                      |
|    \\/     M anipulation  |                                                 |
\*---------------------------------------------------------------------------*/
FoamFile
{
    version     2.0;
    format      ascii;
    arch        "LSB;label=32;scalar=64";
    class       volScalarField;
    location    "0.0103";
    object      alphat;
}
// * * * * * * * * * * * * * * * * * * * * * * * * * * * * * * * * * * * * * //

dimensions      [1 -1 -1 0 0 0 0];

internalField   nonuniform List<scalar> 
13875
(
0.11986
0.0816019
0.0784497
0.0782789
0.0783262
0.0783881
0.0783021
0.0782816
0.0782939
0.0782923
0.0783026
0.0783145
0.0783849
0.0784137
0.0783944
0.078297
0.0782557
0.0782951
0.0783039
0.0783542
0.0783204
0.0782661
0.0784829
0.0814545
0.120933
0.103938
0.0576797
0.0570816
0.0571622
0.0566608
0.0566841
0.0570619
0.0571391
0.0571506
0.057113
0.0571123
0.0571273
0.0566598
0.056615
0.0566683
0.0570972
0.0571184
0.0571524
0.0570736
0.0566793
0.0566741
0.0571391
0.0570625
0.0573818
0.104604
0.110619
0.055325
0.055876
0.0547247
0.0545912
0.0544841
0.0543391
0.05437
0.0543479
0.0542267
0.0541813
0.0543422
0.0542492
0.0542768
0.0542414
0.0543497
0.0541081
0.0542538
0.0542803
0.05445
0.0545304
0.0546017
0.0557852
0.0550907
0.111135
0.115885
0.0546446
0.0553828
0.0543189
0.0540564
0.0539438
0.0537292
0.0535964
0.0535114
0.0534239
0.0533688
0.0534605
0.053703
0.0537401
0.0536935
0.0534839
0.0533648
0.0534637
0.0536336
0.0539049
0.0539995
0.0542022
0.0551981
0.0542828
0.115742
0.121032
0.0546344
0.0551228
0.0537497
0.0536918
0.0535132
0.053207
0.0530961
0.0530084
0.0529347
0.0528764
0.0529678
0.0532203
0.0532652
0.0532161
0.0529951
0.0528771
0.0529556
0.0531091
0.0534737
0.0536076
0.0536125
0.0550228
0.0543155
0.121366
0.124408
0.0547454
0.0551891
0.0536148
0.0533168
0.0531204
0.0528086
0.0526521
0.0525781
0.0524963
0.0524347
0.0525137
0.0527765
0.0528502
0.0527671
0.0525398
0.0524481
0.052546
0.0527325
0.0530516
0.0532385
0.0535047
0.0548886
0.0543876
0.124118
0.128745
0.0564752
0.0557862
0.0534645
0.0532945
0.0529093
0.0524186
0.052264
0.0521895
0.0521107
0.0520468
0.0521256
0.0524073
0.0524772
0.052399
0.0521494
0.0520769
0.0521612
0.0523571
0.0528623
0.0531951
0.0533642
0.0556486
0.0563479
0.129025
0.135701
0.0611963
0.0578377
0.054422
0.0534229
0.0528662
0.0522715
0.0519983
0.0519022
0.0518194
0.0517493
0.0517985
0.0521027
0.0521871
0.0520837
0.0518219
0.0518058
0.0519224
0.0522172
0.0527855
0.0533246
0.0542779
0.0575179
0.0610284
0.13564
0.151301
0.0692438
0.0615413
0.0559306
0.0544238
0.0531806
0.0522281
0.0518883
0.0517355
0.0516537
0.0515744
0.0516011
0.0519338
0.0520286
0.0519231
0.0516227
0.0516535
0.0517993
0.05216
0.0530938
0.0542268
0.0556206
0.061034
0.0684111
0.154197
0.239303
0.0874287
0.0664585
0.0589955
0.0553835
0.0537115
0.0525289
0.0520225
0.0518202
0.0517286
0.0516574
0.0516434
0.0519964
0.0521108
0.0519992
0.051711
0.0517626
0.051946
0.0524383
0.0536059
0.0552586
0.0586534
0.06601
0.086689
0.241125
0.365318
0.118394
0.0759579
0.062932
0.0575691
0.0547732
0.0531389
0.0526198
0.0523248
0.0522073
0.0521392
0.0520913
0.0524328
0.0525698
0.0524913
0.0522607
0.0523114
0.0525493
0.0530326
0.0546167
0.0573271
0.0616309
0.0748303
0.113032
0.365651
0.65817
0.193025
0.103998
0.0743837
0.0613151
0.0572874
0.0551729
0.0542105
0.0537037
0.0535089
0.0533967
0.0533286
0.0536019
0.0537692
0.0537691
0.0536739
0.0537574
0.0541578
0.0551188
0.0568214
0.0618911
0.0733923
0.100184
0.18292
0.643628
0.581958
0.435925
0.176092
0.0921274
0.0767389
0.0649441
0.0597306
0.0578527
0.0569243
0.0565834
0.0564033
0.0563221
0.0564801
0.0566582
0.0567807
0.0568721
0.0571308
0.0579312
0.0598449
0.0653115
0.076332
0.0897153
0.172099
0.433684
0.581345
0.491482
0.400425
0.346756
0.326945
0.115842
0.0803567
0.0735384
0.067619
0.0650975
0.0643085
0.063883
0.0636892
0.0637328
0.0639047
0.0642141
0.0647315
0.0656908
0.0683725
0.0749549
0.0830941
0.131171
0.328463
0.337518
0.401445
0.500155
0.408205
0.349437
0.329154
0.333845
0.301536
0.200439
0.127216
0.0945215
0.0865064
0.0858747
0.0852847
0.0849708
0.0850016
0.0851737
0.0856364
0.0866024
0.0875666
0.0953689
0.134052
0.212946
0.302307
0.330348
0.331374
0.360333
0.421775
0.329689
0.293213
0.282037
0.301208
0.312797
0.321473
0.244266
0.191455
0.171316
0.148603
0.136454
0.132388
0.130934
0.131668
0.134361
0.143213
0.171624
0.195481
0.24962
0.324128
0.307823
0.303919
0.291638
0.298488
0.341958
0.239073
0.227209
0.225425
0.264878
0.318834
0.400488
0.5303
0.565034
0.539387
0.538205
0.557666
0.570775
0.578067
0.574175
0.560912
0.550479
0.539319
0.568123
0.531779
0.396429
0.314226
0.26693
0.230427
0.234573
0.252038
0.140458
0.152564
0.185833
0.227144
0.311882
0.432123
0.563721
0.616537
0.561291
0.512913
0.495235
0.492128
0.494742
0.493591
0.498812
0.530512
0.566728
0.606823
0.565812
0.437959
0.310437
0.229376
0.17752
0.143079
0.131215
0.0685591
0.103195
0.16549
0.250607
0.350179
0.408537
0.474063
0.533515
0.500163
0.453346
0.433393
0.430555
0.432242
0.435357
0.44177
0.46317
0.497144
0.527771
0.488111
0.427024
0.372527
0.265898
0.168547
0.104711
0.0704654
0.0268505
0.0527381
0.113883
0.230946
0.346292
0.362199
0.385037
0.426924
0.424691
0.402859
0.390635
0.38481
0.382417
0.390366
0.398873
0.406409
0.414762
0.414795
0.389394
0.377742
0.363373
0.228949
0.112218
0.0520314
0.0259517
0.0796442
0.0887508
0.115138
0.187027
0.27514
0.285455
0.307434
0.351846
0.369739
0.361322
0.349443
0.338679
0.333262
0.344837
0.356894
0.361909
0.357352
0.337958
0.307331
0.295696
0.28301
0.186169
0.113532
0.0892421
0.0846129
0.125328
0.154282
0.129262
0.156893
0.207401
0.224391
0.252146
0.298282
0.322389
0.320318
0.308329
0.294253
0.287745
0.300258
0.315227
0.320066
0.31054
0.285481
0.247908
0.230233
0.210721
0.154012
0.125575
0.15031
0.125803
0.171279
0.166275
0.133356
0.134518
0.163991
0.180802
0.211755
0.256108
0.280989
0.280857
0.2687
0.254123
0.247083
0.258919
0.273908
0.279082
0.268987
0.245965
0.205902
0.183492
0.165845
0.13456
0.129949
0.162007
0.172418
0.210983
0.197633
0.134767
0.123869
0.138508
0.154645
0.180328
0.22005
0.242553
0.244284
0.232131
0.21802
0.212131
0.222528
0.237083
0.242607
0.231804
0.210809
0.176128
0.155413
0.139517
0.124077
0.132964
0.20397
0.206575
0.232247
0.235029
0.137765
0.119447
0.12271
0.135037
0.156789
0.189062
0.20854
0.210165
0.200228
0.187874
0.182491
0.192024
0.205228
0.209899
0.19994
0.181624
0.153671
0.134418
0.122993
0.121509
0.137581
0.244495
0.228045
0.254661
0.264819
0.138193
0.116004
0.11209
0.12122
0.138658
0.164528
0.180144
0.182035
0.173346
0.162056
0.157547
0.165467
0.177365
0.181467
0.172902
0.157645
0.135963
0.120822
0.112674
0.117459
0.138894
0.271674
0.251352
0.281715
0.279423
0.139249
0.112818
0.105733
0.109876
0.124358
0.143767
0.155969
0.156679
0.149891
0.140627
0.136599
0.143841
0.153824
0.1569
0.150079
0.138084
0.121335
0.108661
0.106558
0.114278
0.141971
0.292054
0.276276
0.310464
0.296569
0.138892
0.108205
0.100578
0.101818
0.112624
0.126909
0.135467
0.136088
0.130255
0.122195
0.11911
0.125053
0.134056
0.137271
0.13209
0.122455
0.110131
0.100878
0.101732
0.109929
0.142561
0.309931
0.306101
0.343478
0.324114
0.143225
0.105907
0.0980008
0.0952448
0.102847
0.112769
0.119319
0.118897
0.114127
0.10748
0.104358
0.109659
0.116701
0.119168
0.115769
0.109002
0.100522
0.0943319
0.0985573
0.106698
0.144786
0.32505
0.335222
0.372625
0.339558
0.143589
0.10177
0.0935333
0.0906863
0.0953363
0.101443
0.105074
0.104422
0.100147
0.0943266
0.0920348
0.0963604
0.102879
0.105445
0.1031
0.0980001
0.0927647
0.0887204
0.0941467
0.103233
0.146553
0.34227
0.359672
0.386605
0.345561
0.148872
0.100844
0.0911924
0.0862982
0.0890439
0.0910567
0.0933943
0.0920063
0.0886055
0.0839395
0.0815496
0.0857247
0.0909304
0.0930114
0.0920325
0.0890572
0.0869735
0.084921
0.0907548
0.10129
0.14928
0.343073
0.383614
0.397054
0.345201
0.152759
0.0992015
0.0864271
0.081467
0.0835424
0.0837699
0.0841812
0.082539
0.0791756
0.0746291
0.0727931
0.0760855
0.081058
0.0832736
0.0830701
0.0813201
0.0816488
0.0796331
0.0858898
0.0995848
0.150587
0.338675
0.400744
0.415308
0.340015
0.158444
0.100447
0.0844875
0.0780084
0.0791356
0.0765385
0.0760645
0.0738186
0.070983
0.0673208
0.065366
0.068697
0.0727396
0.0746716
0.0753784
0.0750425
0.0772023
0.0764001
0.0830082
0.0997566
0.157635
0.345074
0.412655
0.422549
0.334824
0.163476
0.100897
0.0808013
0.0741752
0.07367
0.070894
0.0691874
0.0669321
0.0641995
0.0605545
0.0591138
0.0617257
0.0658508
0.0680657
0.0691231
0.0694781
0.072356
0.0722982
0.0798429
0.100005
0.164158
0.336549
0.418099
0.428964
0.333931
0.164063
0.103912
0.0806583
0.0719376
0.0698876
0.0657272
0.063615
0.0607588
0.058371
0.0554277
0.0537906
0.0564233
0.0596667
0.0615089
0.0634381
0.0646795
0.0684357
0.0701449
0.0784698
0.101791
0.167454
0.337483
0.425113
0.434214
0.325529
0.162136
0.105722
0.0804415
0.0686754
0.0653449
0.0610462
0.0586064
0.055881
0.0534519
0.0504065
0.0492414
0.0513177
0.0547738
0.0569601
0.0587863
0.0599341
0.0644302
0.0675036
0.078421
0.104809
0.165837
0.334413
0.428843
0.438886
0.326814
0.162218
0.110981
0.0824148
0.06736
0.0626007
0.0566981
0.05431
0.0512601
0.0491193
0.0467019
0.0453404
0.0474981
0.0502282
0.0520811
0.0546546
0.0561157
0.0616576
0.0658157
0.080041
0.109334
0.164282
0.330533
0.436795
0.435011
0.324613
0.160154
0.118338
0.083929
0.0655094
0.0589818
0.053095
0.0504532
0.0478326
0.0455968
0.0429498
0.0419603
0.0436594
0.0466692
0.0486987
0.0507297
0.0521447
0.0581469
0.0642099
0.0811128
0.116889
0.159554
0.325023
0.444157
0.431605
0.322817
0.156686
0.122325
0.0875394
0.0666437
0.0573981
0.0499638
0.047192
0.0442196
0.0423127
0.040218
0.0390565
0.0409228
0.0432494
0.0449056
0.0476872
0.0495088
0.0561825
0.0648645
0.0853089
0.121388
0.155781
0.331188
0.444125
0.423037
0.322925
0.149427
0.122259
0.0920526
0.0666476
0.0547709
0.0471309
0.0441659
0.0416407
0.0396666
0.0373357
0.0365225
0.0379517
0.0406588
0.0424512
0.0446422
0.0466021
0.0540626
0.0650477
0.0886347
0.121335
0.149703
0.3313
0.436852
0.412519
0.323552
0.144744
0.121781
0.100146
0.0693507
0.055057
0.045447
0.0420202
0.0388941
0.03715
0.035349
0.034298
0.0358638
0.0379278
0.0394063
0.0425235
0.045068
0.0538079
0.0672197
0.096359
0.120988
0.146849
0.337135
0.427266
0.407818
0.321411
0.1393
0.119808
0.107856
0.071155
0.0543247
0.0441033
0.0398813
0.0370551
0.0351429
0.0330346
0.0323419
0.0335504
0.0360383
0.0377041
0.0403368
0.0435347
0.0536318
0.0694649
0.107842
0.120227
0.144995
0.33186
0.403878
0.398792
0.323262
0.137373
0.116026
0.107637
0.0762361
0.0554027
0.0440455
0.0388262
0.0349702
0.0331802
0.0315333
0.0306061
0.0319756
0.033882
0.0354233
0.0393756
0.0435385
0.0543135
0.0742226
0.108235
0.117628
0.141683
0.327112
0.394434
0.389477
0.318958
0.137092
0.110953
0.106554
0.0840061
0.0568346
0.0439241
0.0378459
0.0339352
0.031762
0.029705
0.0290702
0.030121
0.0325135
0.0342962
0.0380334
0.0432733
0.0556336
0.0814838
0.107212
0.112875
0.139547
0.325547
0.386912
0.382881
0.315914
0.135555
0.106553
0.104009
0.0933212
0.0611767
0.0446089
0.0380775
0.0327502
0.0303393
0.0285915
0.0277282
0.0289759
0.0308495
0.0328613
0.0383987
0.0443577
0.0597935
0.0935661
0.105143
0.108649
0.141406
0.322948
0.379561
0.37568
0.314156
0.136359
0.102837
0.0991722
0.0927775
0.0676857
0.0458732
0.0377855
0.0327542
0.0296804
0.0272929
0.0266088
0.0276326
0.0303496
0.0327747
0.0379256
0.0453375
0.0661067
0.0933244
0.101141
0.104423
0.140507
0.321292
0.375521
0.363305
0.307326
0.137848
0.100445
0.0947201
0.0917213
0.0788193
0.0499723
0.0389794
0.0325011
0.0291226
0.0268816
0.0257555
0.0271389
0.0294823
0.032418
0.0389529
0.0490258
0.0765327
0.0922868
0.0961812
0.101616
0.141956
0.318182
0.36707
0.353496
0.303289
0.137069
0.098878
0.0910613
0.0890634
0.0789305
0.0560002
0.0398255
0.032826
0.0293053
0.0263792
0.0250962
0.0266045
0.0299051
0.0328709
0.0397456
0.0553703
0.0787278
0.0894507
0.0921268
0.0999361
0.142264
0.310949
0.355596
0.327253
0.292343
0.136597
0.0972831
0.087703
0.0846024
0.0780395
0.0654051
0.0437412
0.0332368
0.0292193
0.0266192
0.025089
0.0268246
0.0295047
0.0331386
0.0436664
0.0649272
0.0783116
0.0854701
0.0887798
0.0986947
0.140511
0.297856
0.329119
0.295979
0.273684
0.132619
0.096145
0.0857062
0.080762
0.0766168
0.0678273
0.0491046
0.0355404
0.029946
0.026488
0.0251451
0.0266646
0.0304031
0.0352521
0.0490324
0.0685492
0.0768401
0.0806716
0.085615
0.0965861
0.135042
0.278717
0.298895
0.123586
0.552479
0.813211
0.919265
0.937512
0.944373
0.936387
0.916202
0.868936
0.811251
0.737243
0.657681
0.576841
0.500506
0.433514
0.377439
0.332546
0.297097
0.267867
0.245416
0.226773
0.211267
0.197581
0.184493
0.170702
0.155159
0.136738
0.114488
0.0897804
0.0754843
0.118306
0.586489
0.84195
0.937029
0.948169
0.953342
0.94484
0.928672
0.891273
0.842617
0.776735
0.702006
0.621967
0.542008
0.468529
0.404339
0.351337
0.308935
0.274878
0.248412
0.227289
0.210342
0.19576
0.182084
0.167889
0.152212
0.133795
0.111766
0.087895
0.074304
0.127828
0.64399
0.868938
0.953184
0.964297
0.967295
0.962394
0.953259
0.921635
0.881444
0.823618
0.754381
0.675764
0.592992
0.512954
0.439923
0.377822
0.326938
0.286212
0.254455
0.230009
0.211199
0.195431
0.180995
0.166356
0.150448
0.132062
0.110175
0.0870238
0.0738184
0.135374
0.672489
0.892712
0.972342
0.982514
0.981362
0.978355
0.971561
0.948333
0.918516
0.869317
0.807561
0.733667
0.650896
0.565524
0.484046
0.411914
0.351473
0.302562
0.263462
0.234984
0.213258
0.195921
0.180387
0.165074
0.148795
0.130358
0.108673
0.08612
0.0733377
0.138911
0.695164
0.919739
0.995051
0.999368
0.996783
0.995312
0.990518
0.97387
0.9534
0.913729
0.861158
0.794111
0.713755
0.625549
0.537256
0.455015
0.383295
0.323376
0.278041
0.243749
0.21831
0.198485
0.181571
0.165235
0.148408
0.129552
0.108009
0.0859595
0.073521
0.14195
0.721102
0.949951
1.01852
1.01786
1.01283
1.01087
1.00551
0.995358
0.983209
0.951794
0.908765
0.850113
0.775473
0.687761
0.594623
0.503263
0.420239
0.35213
0.298475
0.256831
0.225654
0.202409
0.183584
0.165843
0.148163
0.128761
0.107347
0.0857903
0.0736037
0.145528
0.748868
0.978943
1.04032
1.03661
1.02847
1.02339
1.01677
1.01253
1.00592
0.980452
0.946151
0.896206
0.829425
0.746634
0.653965
0.558205
0.467794
0.39035
0.326273
0.275471
0.237377
0.209138
0.187235
0.167656
0.148817
0.128905
0.107484
0.0862642
0.0744192
0.149143
0.775904
1.00522
1.06222
1.05596
1.04315
1.03308
1.02593
1.02432
1.02183
1.00179
0.976487
0.936259
0.879374
0.805077
0.71702
0.620679
0.525431
0.437922
0.361551
0.299769
0.25284
0.218427
0.192231
0.170391
0.150005
0.12936
0.107718
0.0865377
0.0750215
0.152667
0.798754
1.02956
1.08433
1.07343
1.05579
1.04151
1.03218
1.0319
1.03344
1.01808
1.00107
0.970513
0.92486
0.861563
0.78182
0.689519
0.59192
0.495186
0.406138
0.331844
0.274509
0.232136
0.200264
0.174975
0.152641
0.130986
0.108573
0.0870793
0.0754227
0.155647
0.818785
1.05327
1.10597
1.08929
1.06678
1.04786
1.03706
1.03669
1.04233
1.03052
1.02066
0.999356
0.96533
0.914322
0.845569
0.760942
0.664154
0.561119
0.460895
0.373542
0.304277
0.250903
0.211327
0.181502
0.156633
0.132767
0.108758
0.0871709
0.0758791
0.158458
0.837921
1.07622
1.12456
1.10269
1.07505
1.05157
1.04083
1.03987
1.04655
1.0392
1.03453
1.02165
0.998736
0.961057
0.905391
0.831232
0.739507
0.634651
0.527424
0.427119
0.342392
0.276402
0.227022
0.191056
0.162084
0.135291
0.109833
0.0876742
0.0769767
0.160369
0.854996
1.09439
1.13955
1.11335
1.08055
1.05337
1.04387
1.04172
1.04626
1.04278
1.04177
1.03834
1.02631
1.00048
0.957039
0.895784
0.813281
0.712306
0.601407
0.490556
0.390429
0.309043
0.247784
0.202909
0.168268
0.138364
0.111531
0.0883893
0.0775794
0.16162
0.868501
1.10806
1.15068
1.12088
1.08343
1.05368
1.04574
1.04059
1.0407
1.041
1.04559
1.04981
1.04721
1.03193
1.00072
0.953067
0.88319
0.790907
0.680563
0.562814
0.44978
0.351943
0.27548
0.218988
0.176869
0.142756
0.113184
0.0888698
0.0779105
0.161835
0.880178
1.11739
1.15762
1.12503
1.08388
1.05276
1.04606
1.03588
1.03131
1.03625
1.04746
1.05741
1.06195
1.05518
1.0362
1.00218
0.945109
0.865116
0.761043
0.641489
0.518064
0.404278
0.311235
0.240567
0.189095
0.148815
0.115497
0.089227
0.0780212
0.161521
0.886865
1.12266
1.15994
1.12558
1.0821
1.05073
1.04387
1.02736
1.02265
1.03055
1.04698
1.06151
1.07147
1.07201
1.06438
1.04287
0.999652
0.932613
0.839678
0.723099
0.594001
0.466058
0.354849
0.268298
0.204764
0.156935
0.118612
0.0897066
0.0782333
0.160374
0.888902
1.12443
1.15867
1.12163
1.07785
1.04685
1.03756
1.01809
1.01571
1.02573
1.04445
1.0632
1.0773
1.08356
1.08548
1.07502
1.0444
0.99113
0.910722
0.803036
0.673898
0.535628
0.406938
0.302452
0.22459
0.167031
0.122384
0.0902003
0.0782785
0.158756
0.881962
1.11973
1.15308
1.11349
1.07087
1.04083
1.02848
1.01013
1.00859
1.02214
1.0419
1.06265
1.08082
1.0912
1.10102
1.10014
1.08081
1.04063
0.974073
0.878428
0.754726
0.611688
0.467907
0.344311
0.249191
0.179739
0.127402
0.091088
0.0783748
0.156587
0.874662
1.11006
1.14185
1.10205
1.06068
1.0326
1.01809
1.00306
1.00378
1.01862
1.03973
1.06067
1.08199
1.0965
1.11226
1.1192
1.10952
1.08106
1.02807
0.945697
0.831918
0.690215
0.536229
0.393858
0.279109
0.195372
0.133746
0.0922972
0.0783761
0.153505
0.859243
1.0898
1.12332
1.0863
1.04656
1.02189
1.00719
0.995534
0.999735
1.01576
1.03776
1.05955
1.08155
1.10066
1.12102
1.13419
1.13254
1.11444
1.07408
1.00519
0.902583
0.76775
0.609092
0.451369
0.315726
0.214954
0.142025
0.094049
0.078439
0.150471
0.841403
1.06609
1.09941
1.06505
1.02924
1.00857
0.996558
0.987866
0.995166
1.01385
1.03723
1.06016
1.08109
1.10415
1.12862
1.14641
1.15109
1.1416
1.11233
1.05605
0.965564
0.838156
0.682691
0.515302
0.359462
0.23925
0.152665
0.0964002
0.0784773
0.146444
0.814932
1.03192
1.06016
1.03725
1.00771
0.992675
0.985133
0.981491
0.991538
1.01202
1.03708
1.06088
1.0829
1.10707
1.13584
1.1569
1.16619
1.16329
1.14313
1.09768
1.01809
0.901801
0.756061
0.583774
0.410692
0.269323
0.166538
0.0997239
0.0788464
0.143002
0.785857
0.988322
1.01654
1.00168
0.981767
0.974007
0.972994
0.974854
0.988222
1.01074
1.03722
1.06273
1.08594
1.11133
1.14237
1.16611
1.17816
1.17934
1.16573
1.1295
1.0623
0.962999
0.827631
0.654876
0.468692
0.30581
0.184334
0.104361
0.0789418
0.138074
0.742933
0.925628
0.95668
0.957455
0.950315
0.951925
0.959109
0.967456
0.984755
1.00954
1.03739
1.066
1.09112
1.11784
1.14837
1.17415
1.18777
1.19115
1.18297
1.15638
1.10381
1.02068
0.89721
0.729659
0.535069
0.351543
0.207305
0.110238
0.0790355
0.135808
0.673135
0.826453
0.871128
0.89277
0.910771
0.925067
0.942116
0.958265
0.980556
1.00833
1.03808
1.0702
1.09785
1.12458
1.15574
1.18095
1.19636
1.2012
1.19814
1.18091
1.14177
1.07368
0.963324
0.804248
0.607194
0.404658
0.235667
0.118454
0.0792566
0.117987
0.494189
0.633329
0.738171
0.808387
0.860974
0.892285
0.920396
0.946138
0.974876
1.00688
1.03952
1.07471
1.10615
1.13343
1.16358
1.18759
1.20429
1.21201
1.21401
1.20487
1.17667
1.1208
1.02365
0.875713
0.682216
0.46448
0.269959
0.129369
0.079723
0.0745656
0.0888991
0.113221
0.135369
0.153848
0.169401
0.184575
0.196867
0.210547
0.22752
0.24634
0.270221
0.298662
0.334465
0.377454
0.430029
0.493403
0.566803
0.645509
0.724027
0.797283
0.855759
0.903778
0.926191
0.934095
0.926834
0.909047
0.802817
0.543792
0.121521
0.0733473
0.0871093
0.110723
0.132638
0.151032
0.166639
0.18177
0.195351
0.210131
0.227267
0.248342
0.276484
0.310109
0.352624
0.403505
0.464518
0.534518
0.611117
0.688787
0.762481
0.827908
0.876908
0.914768
0.935392
0.944297
0.938193
0.92687
0.831373
0.577051
0.11644
0.0730079
0.0863353
0.109471
0.131105
0.149464
0.165386
0.180145
0.195615
0.211453
0.229663
0.253855
0.286788
0.327862
0.3786
0.438808
0.508643
0.5851
0.664457
0.740469
0.808454
0.86567
0.906535
0.938275
0.952281
0.959374
0.955897
0.943377
0.858671
0.635031
0.125843
0.0726053
0.0856508
0.108241
0.12959
0.147978
0.16437
0.179299
0.195441
0.212865
0.234234
0.262496
0.299658
0.350565
0.410724
0.482182
0.56098
0.64293
0.722449
0.793799
0.854282
0.902717
0.932383
0.955145
0.966387
0.974531
0.975388
0.962815
0.882562
0.663805
0.133469
0.0723691
0.085536
0.107722
0.128952
0.147447
0.164179
0.179916
0.197083
0.216761
0.242743
0.275836
0.319009
0.376883
0.448794
0.530323
0.616979
0.702651
0.780521
0.845509
0.896913
0.936976
0.957529
0.972581
0.983495
0.990321
0.993057
0.985754
0.909074
0.686683
0.137018
0.072142
0.085053
0.106917
0.128237
0.14711
0.164191
0.181146
0.200164
0.223249
0.253974
0.294615
0.346117
0.412321
0.493666
0.583383
0.674195
0.759067
0.832026
0.889454
0.932138
0.96526
0.978689
0.987133
0.998852
1.00653
1.01171
1.01003
0.940007
0.712883
0.140095
0.0725739
0.085145
0.106795
0.128313
0.147811
0.16614
0.184347
0.205539
0.233213
0.270921
0.320756
0.382948
0.458441
0.546996
0.640878
0.731478
0.8116
0.877222
0.926509
0.960907
0.988032
0.996145
0.999567
1.0119
1.02201
1.03035
1.03206
0.969093
0.740806
0.143933
0.0728343
0.0851872
0.106704
0.128548
0.148983
0.168811
0.189458
0.213877
0.247135
0.29301
0.353391
0.42849
0.514477
0.608362
0.703711
0.790758
0.863136
0.918997
0.958856
0.984659
1.00601
1.00983
1.01016
1.02269
1.03767
1.04969
1.05394
0.995473
0.768269
0.147478
0.0737346
0.0858079
0.107299
0.12962
0.151325
0.173103
0.196957
0.226787
0.266879
0.322343
0.395007
0.482561
0.578404
0.67545
0.767913
0.847795
0.910461
0.95586
0.986387
1.00401
1.0201
1.02068
1.01765
1.03221
1.05102
1.06837
1.0761
1.01988
0.791647
0.151111
0.0745406
0.0864627
0.108157
0.131255
0.154459
0.178667
0.206721
0.243583
0.29389
0.361683
0.445944
0.544705
0.647528
0.74457
0.830233
0.900389
0.952085
0.986912
1.00848
1.0191
1.03065
1.0273
1.02321
1.03989
1.06256
1.08481
1.09831
1.04339
0.811617
0.154157
0.0757963
0.0876048
0.110338
0.134212
0.159119
0.18653
0.220249
0.265906
0.328413
0.409673
0.508307
0.614915
0.719789
0.81267
0.888763
0.94652
0.986369
1.01114
1.02426
1.02957
1.0369
1.03135
1.02725
1.04497
1.07132
1.09893
1.11773
1.0665
0.830516
0.156871
0.0766289
0.0882492
0.111695
0.13854
0.165247
0.196978
0.237965
0.294869
0.371
0.466917
0.577475
0.688862
0.790972
0.875615
0.939958
0.986068
1.01443
1.0285
1.03335
1.03494
1.03801
1.03393
1.03037
1.04774
1.0773
1.11031
1.13365
1.08571
0.84854
0.158992
0.0771506
0.0885463
0.113323
0.142356
0.173791
0.211377
0.262175
0.332579
0.424985
0.535898
0.653039
0.764121
0.858969
0.932262
0.983615
1.01812
1.03613
1.04071
1.03794
1.03428
1.03392
1.03317
1.03281
1.04877
1.0805
1.11831
1.14549
1.1003
0.862742
0.160218
0.0777939
0.0894785
0.11555
0.147688
0.184435
0.230004
0.293686
0.380028
0.489013
0.610484
0.730256
0.837227
0.920903
0.981226
1.01931
1.0418
1.05136
1.0488
1.04016
1.02984
1.02533
1.02829
1.03418
1.04842
1.08102
1.12254
1.15303
1.11034
0.874202
0.16083
0.0782049
0.0903681
0.118469
0.154679
0.197992
0.25393
0.333254
0.437014
0.560888
0.689348
0.807017
0.905463
0.976354
1.02277
1.04806
1.05884
1.06079
1.05276
1.03971
1.02394
1.01594
1.0192
1.0331
1.04642
1.07888
1.12287
1.15589
1.11702
0.881173
0.160615
0.0784793
0.0910685
0.121799
0.163043
0.214984
0.283871
0.380398
0.502073
0.637961
0.768453
0.87987
0.965749
1.02333
1.05678
1.07029
1.07073
1.06639
1.05411
1.03693
1.01881
1.00824
1.00974
1.02713
1.042
1.07408
1.11903
1.1548
1.11988
0.883503
0.15951
0.0786005
0.0917353
0.125832
0.173429
0.235858
0.320813
0.436044
0.574139
0.717192
0.844697
0.945959
1.01783
1.06236
1.08419
1.08741
1.07889
1.06988
1.05343
1.03375
1.01462
1.00125
1.00152
1.01702
1.03513
1.06658
1.11065
1.15003
1.11586
0.877346
0.157969
0.0785375
0.0924923
0.130702
0.18609
0.261203
0.364806
0.499024
0.649739
0.794271
0.914854
1.00292
1.06088
1.09351
1.10546
1.10031
1.08474
1.0715
1.05145
1.03109
1.01084
0.996197
0.993055
1.00623
1.02622
1.05605
1.09907
1.1393
1.10808
0.870546
0.155765
0.0785937
0.0937399
0.13714
0.202122
0.29248
0.416504
0.568034
0.72624
0.867454
0.977092
1.05199
1.09675
1.11864
1.12225
1.11044
1.08943
1.07151
1.04968
1.02931
1.00799
0.991063
0.985337
0.995374
1.01499
1.04187
1.08303
1.12148
1.08666
0.855388
0.152596
0.0786425
0.0955784
0.145754
0.222366
0.330603
0.475498
0.640876
0.800307
0.933917
1.03215
1.09355
1.12632
1.13907
1.13601
1.11904
1.09378
1.07072
1.04978
1.0282
1.0059
0.987383
0.978929
0.984164
1.00146
1.02449
1.06144
1.09807
1.06379
0.837663
0.149546
0.0787932
0.0982063
0.15722
0.24807
0.376594
0.541316
0.715467
0.869006
0.993199
1.07863
1.12778
1.15035
1.1558
1.14775
1.127
1.09763
1.07191
1.05015
1.02804
1.00467
0.984584
0.973143
0.972715
0.985712
1.00308
1.03316
1.05814
1.02946
0.811541
0.145555
0.0789716
0.101803
0.172383
0.280374
0.430307
0.611968
0.789337
0.934775
1.04316
1.11529
1.15376
1.16853
1.16898
1.1578
1.13421
1.10182
1.07481
1.05228
1.02848
1.0036
0.981558
0.966757
0.961212
0.967469
0.977161
0.997347
1.01431
0.986026
0.782602
0.142148
0.0795672
0.10699
0.191609
0.321303
0.49428
0.688323
0.86299
0.996846
1.08811
1.14562
1.174
1.18241
1.17968
1.16678
1.14057
1.10821
1.07973
1.05536
1.02995
1.00322
0.977812
0.959064
0.9484
0.945994
0.945552
0.95276
0.954098
0.923301
0.739551
0.137196
0.0800559
0.113774
0.216049
0.370214
0.565285
0.766546
0.933853
1.05408
1.12901
1.1725
1.19142
1.19433
1.18954
1.17502
1.14796
1.1152
1.08639
1.06051
1.03146
1.00201
0.973628
0.95035
0.932663
0.919938
0.905895
0.887599
0.868082
0.823913
0.669743
0.134895
0.080472
0.122669
0.246138
0.426387
0.640478
0.841981
0.998203
1.10412
1.16568
1.19775
1.20841
1.20615
1.19893
1.18218
1.1563
1.1241
1.09502
1.06654
1.03346
1.00035
0.968119
0.938957
0.912485
0.887699
0.855739
0.803477
0.736268
0.630665
0.491739
0.117227
0.524387
0.516652
0.521451
0.519904
0.524057
0.524846
0.528054
0.530548
0.533776
0.53714
0.540808
0.544777
0.548974
0.553394
0.558013
0.563004
0.568207
0.573495
0.5787
0.583695
0.588451
0.592881
0.5972
0.601326
0.605148
0.608603
0.611706
0.614438
0.616775
0.618712
0.620236
0.621311
0.621914
0.622036
0.621672
0.620814
0.619455
0.617591
0.615217
0.612344
0.608935
0.604905
0.600371
0.595308
0.589677
0.584161
0.577443
0.571138
0.56418
0.556754
0.548904
0.540485
0.531799
0.522991
0.513921
0.504538
0.494808
0.48488
0.474685
0.464154
0.453243
0.441965
0.430392
0.418542
0.406438
0.394123
0.38168
0.369181
0.356685
0.344234
0.33189
0.319779
0.307933
0.296621
0.285851
0.275594
0.265937
0.25676
0.248078
0.240062
0.23245
0.225342
0.219
0.212955
0.20732
0.202627
0.197973
0.193459
0.190134
0.187755
0.185554
0.18355
0.181895
0.180576
0.179479
0.178487
0.177504
0.176473
0.175133
0.173521
0.171533
0.169034
0.166021
0.162454
0.158486
0.153854
0.148937
0.143415
0.137339
0.131031
0.124645
0.118037
0.111588
0.105701
0.100421
0.0958045
0.09185
0.0886212
0.0861254
0.084408
0.0829986
0.0819956
0.0812722
0.0808279
0.0805831
4.37697
4.30809
4.31001
4.32336
4.34808
4.37357
4.40369
4.43555
4.47019
4.50692
4.54575
4.58649
4.62879
4.67186
4.71424
4.75333
4.7915
4.82871
4.86571
4.90431
4.94282
4.97499
5.00305
5.02908
5.05396
5.07752
5.09827
5.11607
5.13087
5.14251
5.15083
5.15573
5.15716
5.15512
5.1496
5.14058
5.12801
5.1118
5.09184
5.06798
5.04013
5.00795
4.97122
4.92989
4.88396
4.83266
4.77565
4.71426
4.6492
4.5809
4.51092
4.43972
4.35997
4.28261
4.20248
4.12062
4.03634
3.94953
3.85987
3.76722
3.67152
3.57269
3.47178
3.3687
3.26363
3.15699
3.04954
2.94174
2.83399
2.72671
2.62036
2.51464
2.40887
2.30014
2.19059
2.08544
1.98489
1.88879
1.79713
1.71042
1.62857
1.55134
1.4788
1.41045
1.34616
1.28718
1.2337
1.18567
1.14242
1.10085
1.06244
1.02769
0.996718
0.969601
0.946139
0.926139
0.909682
0.896444
0.885878
0.87757
0.870481
0.864117
0.857643
0.85008
0.841579
0.830057
0.815955
0.797337
0.773452
0.744007
0.708679
0.667136
0.619844
0.568145
0.514765
0.460308
0.405892
0.353077
0.304187
0.26134
0.224129
0.192614
0.167325
0.148139
0.133901
7.23432
7.15552
7.14973
7.16912
7.1985
7.23233
7.2707
7.31246
7.35668
7.40377
7.45311
7.50419
7.55631
7.60857
7.65958
7.70768
7.75242
7.7958
7.83886
7.88354
7.92248
7.95284
7.97799
8.00019
8.02073
8.0364
8.04736
8.05389
8.05583
8.05292
8.04505
8.03223
8.01451
7.99199
7.96474
7.93275
7.89598
7.85427
7.80749
7.75545
7.698
7.63502
7.56594
7.49108
7.41059
7.32437
7.23184
7.13418
7.03192
6.92565
6.81624
6.70385
6.58755
6.46766
6.3451
6.22072
6.0865
5.95143
5.81503
5.67489
5.5316
5.38448
5.23473
5.08183
4.92657
4.76957
4.61218
4.45491
4.29814
4.14233
3.98812
3.83589
3.68567
3.53724
3.39096
3.24506
3.10225
2.96715
2.83823
2.71495
2.59714
2.48568
2.38073
2.28194
2.18918
2.10249
2.02148
1.94592
1.8762
1.81126
1.75069
1.69419
1.64157
1.5926
1.5474
1.50496
1.46564
1.4311
1.39968
1.37049
1.34298
1.31707
1.29226
1.26784
1.24402
1.2194
1.19435
1.16722
1.13702
1.10301
1.06441
1.02127
0.973432
0.921993
0.867291
0.809097
0.747291
0.68298
0.616771
0.550743
0.487118
0.425799
0.369913
0.322064
0.281487
8.95595
8.8762
8.86281
8.88256
8.91081
8.94434
8.98209
9.02289
9.06632
9.11211
9.15972
9.20853
9.25744
9.30593
9.35267
9.39657
9.43682
9.47398
9.51004
9.54641
9.57076
9.58657
9.59722
9.60491
9.61092
9.60855
9.60087
9.58794
9.56963
9.54593
9.51697
9.48292
9.44397
9.40033
9.35214
9.29939
9.24197
9.17966
9.11223
9.03946
8.96123
8.87751
8.78809
8.6928
8.59208
8.48595
8.37456
8.25842
8.1379
8.01334
7.88507
7.75305
7.61715
7.47772
7.33505
7.1894
7.03985
6.88587
6.72805
6.5674
6.40469
6.22254
6.05408
5.88178
5.70813
5.53394
5.35928
5.18378
5.00854
4.83427
4.66227
4.49299
4.32656
4.16319
4.00334
3.84717
3.69518
3.54527
3.40111
3.26678
3.13958
3.01822
2.90261
2.79292
2.68913
2.59137
2.4995
2.41304
2.33159
2.25473
2.18192
2.11288
2.04757
1.98574
1.92726
1.8716
1.81877
1.76878
1.72168
1.67659
1.63182
1.58956
1.55106
1.51411
1.47855
1.44387
1.4103
1.37715
1.34371
1.30927
1.27301
1.23475
1.19348
1.14981
1.10361
1.05407
1.00065
0.945258
0.887156
0.824008
0.758019
0.688324
0.616751
0.549356
0.486726
9.98014
9.89566
9.87552
9.89283
9.91608
9.94459
9.97684
10.0117
10.0486
10.0872
10.1268
10.1669
10.2066
10.2451
10.2814
10.315
10.3454
10.3736
10.3991
10.4176
10.423
10.4205
10.4132
10.4031
10.3891
10.3657
10.3364
10.3014