/*--------------------------------*- C++ -*----------------------------------*\
| =========                 |                                                 |
| \\      /  F ield         | OpenFOAM: The Open Source CFD Toolbox           |
|  \\    /   O peration     | Version:  2112                                  |
|   \\  /    A nd           | Website:  www.openfoam.com                      |
|    \\/     M anipulation  |                                                 |
\*---------------------------------------------------------------------------*/
FoamFile
{
    version     2.0;
    format      ascii;
    arch        "LSB;label=32;scalar=64";
    class       volScalarField;
    location    "0.00865";
    object      T;
}
// * * * * * * * * * * * * * * * * * * * * * * * * * * * * * * * * * * * * * //

dimensions      [0 0 0 1 0 0 0];

internalField   nonuniform List<scalar> 
13875
(
1412
1535.58
1482.4
1487.73
1481.98
1483.94
1484.11
1483.84
1484.5
1484.31
1484.08
1484.14
1483.62
1483.93
1483.84
1483.86
1483.43
1484.73
1484.87
1483.12
1481.88
1487.68
1480.54
1533.32
1398.17
1307.02
1356.16
1318.89
1322.14
1316.52
1318.22
1322.08
1323
1323.58
1323.43
1323.17
1323.2
1318.17
1317.69
1318.36
1322.76
1322.95
1323.48
1322.32
1317.82
1316.7
1321.87
1319.57
1356.42
1302.33
1307.23
1340.06
1314.26
1311.77
1305.29
1305.93
1305.96
1305.89
1306.02
1304.75
1304.72
1306.03
1303.87
1304.06
1303.91
1305.77
1303.89
1305.94
1306.03
1305.09
1304.86
1311.05
1311.39
1335.9
1296.68
1317.37
1344.8
1314.64
1308.66
1306.03
1306.12
1305
1304.2
1303.84
1303.07
1302.77
1303.49
1303.95
1304.1
1304.05
1303.45
1302.43
1303.5
1304.21
1305.48
1305.35
1307.7
1313.92
1343.61
1312.22
1329.52
1342.1
1315.68
1312.4
1305.04
1305.96
1305.8
1304.23
1303.96
1303.2
1302.82
1303.4
1303.85
1304.24
1303.83
1303.29
1302.52
1304
1305.19
1304.87
1304.75
1311.75
1311.96
1338.55
1316.62
1332.2
1351.11
1318.8
1309.85
1308.04
1307.08
1305.14
1304.49
1303.8
1303.38
1302.95
1303.6
1304.14
1304.52
1304.31
1303.56
1302.63
1303.55
1304.27
1306.56
1307.27
1308.42
1318.97
1349.12
1326.58
1338.98
1360.44
1328.97
1317.43
1308.12
1307.65
1306.79
1304.7
1304.36
1303.84
1303.48
1303.7
1304.32
1304.85
1304.23
1303.58
1303.17
1304.59
1306.19
1306.49
1307.79
1317.6
1325.64
1358.18
1321.56
1359.71
1384.67
1344.02
1321.09
1316.69
1310.49
1306.86
1305.31
1305.03
1304.54
1304.09
1304.21
1305.04
1305.52
1305.22
1304.18
1303.75
1304.95
1306.17
1309.99
1315.31
1320.38
1341.52
1381.01
1349.98
1537.18
1508.35
1387.06
1350.32
1322.06
1315.8
1311.1
1307
1306.88
1306.29
1305.61
1305.29
1306.19
1306.86
1306.32
1305.64
1305.62
1307.27
1310.54
1314.21
1321.31
1349.21
1382.74
1505.62
1521
1834.85
1574.39
1427.09
1358.49
1338.49
1320.93
1313.86
1310.61
1309.95
1309.19
1308.27
1307.92
1308.78
1309.54
1309.18
1308.57
1308.83
1310.94
1314.08
1320.58
1337.07
1357.2
1424.86
1566.55
1826.88
2507.16
1804.2
1517.33
1406.66
1349.92
1331.55
1325.57
1317.63
1316.5
1315.1
1313.68
1313.19
1313.89
1314.83
1314.71
1314.6
1315.14
1317.7
1326.14
1330.04
1348.72
1419.42
1502.15
1797.71
2429.89
2812.18
2301.26
1735.04
1462.91
1425.93
1361.32
1339.72
1331.15
1329.24
1326.91
1325.24
1324.76
1325.22
1326.15
1326.3
1326.89
1328.18
1331.77
1339.74
1371.51
1405.51
1457.3
1731.36
2306.17
2837.43
2786.43
2654.53
2351.43
2206.64
1524.66
1414.78
1395.75
1372.47
1364.09
1357.29
1353.87
1352.91
1352.87
1353.75
1354.61
1357.5
1363.57
1374.89
1399.55
1421.76
1567.46
2234.64
2245.8
2687.06
2766.41
2722.76
2660.57
2744.22
2785.05
2051.32
1831.59
1520.9
1475.82
1459.06
1446.98
1442.36
1441.1
1440.87
1441.77
1443.03
1447.5
1458.59
1478.74
1541.72
1922.95
2101.22
2803.97
2792.62
2702.89
2701.35
2581.96
2638.3
2686.26
2687.79
2590.5
2366.22
2018.58
1965.02
1865.39
1765.49
1730.6
1719.66
1716
1717.72
1724.35
1748.14
1839.5
1961.44
1984.08
2421.41
2637.51
2735.88
2678.26
2652.16
2625.7
2499.76
2536.42
2629.9
2685.06
2657.64
2685.48
2870.26
2940.71
2933.63
3033
3112.19
3134.38
3144.14
3138.25
3121.21
3054.68
2902.4
2937.73
2900.14
2717.43
2661.07
2706.53
2624.48
2557.88
2533.11
2313.31
2397.67
2477.93
2531.3
2604.24
2728.94
3031.11
3408.56
3592.59
3684.09
3698.16
3691.56
3688.85
3691.91
3700.81
3701.52
3597.49
3417.11
3053.87
2739.54
2615.93
2564.94
2469.89
2404.3
2328.93
2024.03
2147.52
2302.55
2615.41
2789.74
2829.54
2959.34
3313.12
3527.75
3642.87
3672.36
3672.24
3671.78
3673.71
3674.9
3646.13
3499.94
3290.39
2962.82
2839.71
2807.19
2563.07
2269.76
2139.62
2023.85
1812.39
1878.34
2010.13
2241.45
2718.09
2838.19
2878.91
3105.44
3359.61
3499.26
3544.61
3557.68
3561.48
3561.1
3548.9
3509.67
3360.8
3119.17
2918.7
2925.09
2677.49
2203.97
2007.2
1883.82
1814.28
2456.08
2343.31
2102.56
2192.22
2506.2
2689.49
2699.16
2842.28
3079.91
3279.68
3388.23
3430.03
3440.57
3432.75
3392.11
3279.43
3067.8
2851.82
2730.77
2713.61
2483.46
2221.68
2138.96
2341.87
2448.14
3267.94
3428.9
2747.08
2300.46
2376.81
2531.95
2549.24
2660.71
2885.89
3108.8
3251.38
3307.09
3316.3
3306.27
3245.03
3090.03
2855.7
2656.93
2559.15
2541.38
2359.83
2326.08
2808.26
3484.07
3270.87
3643.83
3583.39
2810.72
2210.21
2213.35
2368.54
2417.28
2523.15
2737.33
2964.59
3118.13
3179.02
3190.57
3174.12
3102.35
2933.06
2701.31
2521.39
2418.74
2369.4
2189.47
2247.5
2897.47
3630.97
3683.68
3503.43
3114.63
2484.48
2055.88
2061.48
2235.1
2309.15
2415.33
2608.35
2830.86
2989.54
3055.67
3066.22
3050.24
2974.41
2804.4
2582.67
2416.32
2298.56
2234.57
2036.67
2054.62
2470.89
3115.35
3534.65
3519.08
2959.83
2245.2
1902.09
1974.13
2137.39
2205.89
2316.32
2504.85
2716.7
2867.34
2932.17
2946.59
2926.7
2853.04
2690.67
2477.01
2318.76
2202.7
2130.48
1941.88
1892
2253.4
2982.79
3550.57
3454.95
2786.48
2094.35
1820.18
1928.03
2065.34
2117.98
2231.2
2408.77
2613.19
2758.12
2820.69
2830.93
2813.87
2740.56
2584.43
2382.46
2227.64
2117.81
2063.96
1897.23
1807.84
2110.14
2832.34
3484.53
3424.51
2749.28
2039.3
1825.42
1902.95
1999.21
2039.88
2149.32
2323.92
2513.85
2649.89
2708.23
2722.92
2703.43
2637.11
2491.28
2297.79
2149.73
2044.77
2000.83
1877.17
1816.73
2039.22
2767.75
3457.46
3348.78
2599.58
1963.65
1827.29
1880.43
1953.4
1975.81
2086.34
2248.74
2429.09
2553.78
2609.32
2619.16
2604.27
2539.62
2406.87
2227.42
2079.98
1977.78
1961.47
1859.9
1822.03
1971.06
2612.59
3368.48
3319.34
2562.62
1971.66
1862.4
1871.68
1906.06
1915.47
2024.56
2185.52
2350.23
2461
2509.57
2523.68
2505.28
2448.76
2325.26
2155.89
2019.78
1918.13
1913.04
1855.66
1849.61
1975.23
2612.35
3365.41
3313.94
2539.86
1939.99
1852.13
1841.67
1874.61
1868.19
1977.25
2121.09
2274.84
2375.3
2423.29
2432.25
2420.26
2366.3
2261.65
2106.75
1971.15
1871.86
1882.42
1831.62
1852.01
1934.54
2506.19
3291.25
3278.44
2541.25
1975.54
1888.28
1841.86
1849.49
1826.55
1930.15
2071.53
2209.42
2297.18
2336.06
2348.99
2332.95
2287.67
2189.9
2047.54
1926.78
1827.21
1867.99
1830.88
1871.73
1957.43
2522.56
3274.03
3190.06
2455.51
1944.78
1885.75
1803.68
1825.73
1794.44
1904.37
2025.16
2150.83
2224.65
2263.26
2269.19
2259.93
2215
2135.56
2006.35
1890.6
1794.14
1834.19
1803.9
1874.99
1938.2
2460.44
3212.73
3158.58
2453.64
1996.12
1914.49
1810.7
1803.7
1770.12
1864.91
1979.83
2090.92
2157.45
2186.98
2198
2185.23
2151.36
2077.01
1962.37
1865.32
1769.3
1821.92
1807.19
1890.48
1970.49
2428.27
3159.8
3093.89
2396.54
1994.23
1894.68
1783.38
1773.32
1743.85
1848.93
1944.17
2044.7
2096.46
2126.78
2129.83
2123.82
2088.04
2033.75
1928.4
1837.12
1742.36
1780.95
1789.11
1891.35
1972.63
2397.92
3109.36
3059.06
2372.49
2026.91
1917.42
1806.77
1759.3
1731.89
1823.06
1906.89
1993.38
2040.42
2061.03
2070.01
2059.48
2034.35
1980.17
1889.49
1819.13
1725.38
1772.54
1797.21
1898.33
2025.02
2382.44
3069.49
3017.35
2337.15
2018.09
1908.5
1786.29
1728.74
1700.71
1809.21
1876.02
1953.34
1987.04
2011.32
2012.26
2009.45
1981.18
1948.16
1862.61
1801.19
1697.87
1736.48
1793.94
1902.06
2005.16
2326.4
3010.51
3000.64
2329.29
2021.61
1930.06
1805.94
1734.76
1696.97
1787.07
1845.8
1907.81
1940.48
1954.66
1962.51
1953.99
1934.53
1896.01
1831.68
1789.06
1685.06
1732.1
1809.21
1919.78
2026.19
2330.2
2995.47
2953.2
2285.04
2010.08
1943.19
1792.61
1717.15
1670.46
1775.19
1820.05
1877.93
1895.87
1914.66
1913.47
1912.86
1890.27
1873.39
1801.82
1768.8
1662.96
1718.47
1792.47
1937.57
1996.1
2294.58
2971.36
2943.38
2294.61
2014.19
1985.22
1817.86
1732.59
1672.86
1758.08
1791.42
1834.14
1855.97
1865.91
1872.08
1865.38
1851.44
1824.52
1779.62
1762.61
1660.08
1723.24
1815.5
1970.69
2010
2291
2941.93
2906.15
2271.98
1992.76
1993.53
1816.93
1717.03
1656.75
1747.27
1765.28
1811.45
1819.38
1834.22
1831.18
1832.75
1814.57
1809.03
1745.27
1740.63
1650.79
1715.36
1808.92
1998.11
1983.39
2276.35
2926.71
2858.04
2264.98
1975.87
1994.47
1848.91
1748.8
1675.17
1738.21
1744.17
1769.97
1785.3
1792.46
1796.53
1791.72
1780.47
1762.14
1728.43
1736.63
1656.84
1734.32
1842.34
1989.45
1969.42
2280.35
2891.08
2830.95
2256.44
1946.73
1983.89
1889.96
1735.58
1666.56
1728.52
1718.61
1754.05
1754.9
1766.55
1762.15
1766.01
1751.42
1754.98
1695.03
1718.96
1668.95
1725.5
1873.23
1990.43
1936.83
2235.93
2846.91
2795.33
2250.52
1936.82
1976.72
1927.28
1772.69
1706.54
1732.71
1706.68
1716.59
1724.92
1729.74
1732.76
1730.41
1720.21
1713.52
1689.28
1724.81
1690.31
1764.43
1941.49
1977.39
1926.91
2239.76
2796.81
2765.86
2228.66
1915.66
1956.84
1924.7
1791.01
1705.72
1730.6
1684.99
1708.32
1701.57
1709.3
1703.61
1709.51
1697.85
1711.12
1657.54
1713.65
1702.74
1774.51
1938.25
1966.68
1915.44
2219.72
2772.92
2733.39
2226.93
1915.28
1930.66
1915.24
1849.31
1747.37
1751.34
1690.11
1678.96
1675.51
1677.25
1678.61
1678.03
1671.02
1680.2
1672.94
1733.88
1729.1
1828.31
1930.42
1943.36
1905.15
2218.9
2725.81
2712.79
2213.78
1903.73
1902.75
1900.03
1896.64
1762.13
1747.73
1676.56
1681.66
1659.76
1661.67
1654.07
1662.12
1655.24
1685.93
1652.04
1730.05
1756.82
1902.37
1919.43
1914.93
1909.73
2226.61
2702.79
2674.37
2194.37
1900.35
1883.58
1876.75
1887.62
1824.84
1771.93
1703.38
1665.32
1643.14
1635.42
1634.15
1635.6
1635.64
1660.64
1681.94
1757.45
1811.12
1899.66
1896.94
1895.85
1917.76
2219.85
2679.16
2657.22
2192.67
1894.98
1863.19
1846.16
1870.47
1904.89
1796.22
1690.62
1682.67
1641.68
1630.13
1617.52
1629.46
1636.15
1686.17
1663.3
1772.66
1888.58
1879.56
1870.33
1877.82
1901.13
2194.67
2659.26
2608.54
2171.49
1889.39
1852.97
1824.97
1859.85
1892.47
1853.67
1729.68
1670.16
1636.39
1613.91
1605.65
1612.92
1627.09
1667.66
1714.01
1829.81
1899.86
1869.76
1845.08
1862.29
1895.1
2173.77
2616.85
2568.01
2153.33
1873.13
1841.19
1801.74
1822.86
1873.55
1941.51
1735.27
1700.54
1646.89
1631.1
1606.29
1628.88
1638.92
1702.32
1708.27
1918.58
1880.55
1828.45
1822.4
1850.82
1875.85
2154.98
2582.27
2397.19
2104.38
1853.78
1829.83
1787.91
1798.76
1858.19
1922.84
1823.38
1707.57
1647.21
1615.75
1608.7
1614.02
1632.82
1701.2
1800.71
1928.66
1862.48
1804.47
1800.77
1833.43
1856.91
2102.47
2413.19
861.554
799.325
774.136
731.74
708.916
671.016
640.764
601.762
557.142
515.713
484.857
461.724
442.501
428.238
417.762
410.656
406.831
404.386
403.634
402.976
402.29
401.89
401.632
400.284
399.177
397.692
393.644
389.01
383.3
377.159
865.761
838.98
834.216
806.972
792.412
751.36
711.691
659.297
599.477
540.201
496.183
466.757
445.563
432.28
423.33
418.53
416.194
415.942
414.993
414.56
414.311
413.622
412.079
410.537
409.159
406.181
401.469
395.836
388.836
381.976
887.816
863.699
864.716
843.341
829.38
788.792
748.552
693.808
632.005
568.514
517.389
480.867
456.751
442.435
434.162
429.088
426.208
424.351
422.418
421.307
420.15
418.878
416.982
415.189
413.274
409.992
405.031
399.11
392.261
385.533
917.151
904.79
918.803
908.828
894.947
850.971
805.032
745.692
675.019
602.34
543.415
501.89
474.022
457.405
447.825
441.678
438.746
436.593
434.43
432.713
430.531
428.319
425.917
423.827
421.119
417.266
412.302
405.89
398.371
391.766
953.246
944.313
964.913
957.961
937.424
890.589
839.147
779.107
710.564
635.744
574.242
528.738
496.956
477.042
464.673
456.396
451.217
447.667
444.492
441.478
438.137
434.805
431.62
429.553
426.278
422.359
417.536
411.255
404.085
395.91
975.146
985.035
1009.38
1003.22
973.91
918.409
858.457
794.336
727.749
659.072
600.08
553.882
519.722
496.57
481.302
471.188
464.383
459.914
455.666
451.522
447.089
442.838
439.382
436.729
433.538
429.071
423.727
417.31
410.076
402.87
1003.86
1023.82
1049.15
1040.61
999.816
934.964
867.437
800.109
734.538
669.237
617.493
574.583
540.309
514.909
497.501
484.997
476.538
470.312
464.554
459.162
453.911
449.013
445.141
441.857
438.688
434.734
429.216
422.751
415.493
407.613
1030.9
1061.24
1084.8
1072.94
1022.44
947.715
872.616
802.872
737.245
672.768
625.131
586.652
554.843
529.367
510.817
497.308
487.644
480.008
473.41
466.957
461.173
455.728
451.468
447.746
444.425
440.363
435.089
428.424
421.017
414.413
1053.76
1095.31
1118.2
1102.99
1042.53
957.838
879.187
806.532
738.665
674.177
628.287
592.309
563.774
540.046
521.293
506.98
496.225
487.082
479.277
472.117
466.069
460.628
456.042
452.009
448.328
444.062
439.13
433.276
426.355
419.584
1078.99
1129.23
1150.54
1131.15
1061.51
972.823
890.308
813.821
740.691
675.406
629.775
594.791
567.71
546.02
528.497
514.124
502.683
492.928
484.758
477.447
471.448
466.082
461.342
457.132
453.12
448.336
443.549
438.485
432.242
425.453
1100.92
1158.29
1181.49
1156.23
1082.28
992.075
906.758
825.655
745.594
678.348
630.995
596.11
569.502
548.983
532.621
518.415
506.934
496.848
488.388
481.415
475.571
470.211
465.374
461.051
456.861
451.855
447.499
442.971
437.28
431.629
1123.57
1186.01
1209.14
1180.39
1106.04
1015.45
926.697
841.806
754.675
685.01
634.532
597.994
570.803
550.52
534.664
521.456
510.332
500.318
491.983
485.312
479.538
474.829
470.39
465.572
460.843
456.401
451.939
447.107
441.465
435.833
1142.7
1211.23
1234.34
1206.2
1133.43
1043.15
951.68
859.049
769.295
697.421
641.739
601.851
572.442
551.697
535.779
523.294
513.011
503.269
495.091
488.53
483.437
478.477
473.587
468.809
464.034
459.993
455.371
450.262
444.518
439.503
1160.44
1234.4
1259
1234.05
1163.96
1074.92
981.375
880.705
789.774
715.475
654.003
609.467
576.22
553.239
536.645
524.768
515.144
506.209
498.476
492.03
487.068
481.813
477.022
472.355
467.789
464.002
459.574
454.483
449.081
444.028
1177.62
1255.42
1283.48
1262.7
1196.1
1109.71
1015.28
908.134
815.795
739.06
672.063
622.023
583.655
556.81
538.235
526.057
516.877
509.271
502.301
495.624
489.894
484.383
479.614
475.17
470.697
466.931
462.863
457.503
452.405
447.206
1190.31
1276.15
1306.16
1290.31
1229.23
1146.68
1052.52
942.119
846.818
767.856
696.63
640.345
595.98
563.68
541.566
527.777
518.744
512.346
506.295
498.571
492.082
486.886
482.113
477.954
473.924
470.171
466.746
460.845
455.371
450.759
1202.19
1295.83
1326.71
1317.39
1262.58
1184.71
1091.51
980.811
883.38
801.52
726.755
663.724
613.504
575.188
548.208
531.018
521.152
515.273
509.28
501.025
493.937
489.067
484.463
480.331
476.646
472.647
468.955
463.99
458.975
454.024
1212.98
1314.69
1347.62
1343.91
1295.98
1223.24
1132.5
1023.1
924.433
839.717
762.578
693.079
636.86
592.134
559.068
537.084
524.445
517.996
511.756
503.421
496.712
491.347
486.851
482.838
479.308
475.733
471.395
467.269
461.378
456.522
1223.67
1331.83
1368.53
1369.92
1329.56
1262.86
1174.47
1069.06
969.999
882.991
803.686
728.925
666.529
614.977
575.094
546.529
529.223
520.336
513.945
506.928
499.827
493.398
488.976
484.929
482.842
479.124
474.677
468.974
463.2
458.471
1228.2
1347.06
1389.06
1394.75
1362.81
1303.84
1217.49
1118.04
1022.07
931.338
849.417
771.528
703.435
644.775
597.174
560.751
536.868
524.02
516.361
509.459
502.481
495.565
491.049
487.747
484.737
481.342
476.384
470.589
464.91
461.032
1238.35
1360.33
1407.22
1417.67
1394.19
1343.46
1261.69
1168.59
1076.81
985.437
899.068
820.197
747.427
681.785
626.114
581.271
549.402
530.094
519.107
511.574
504.911
498.041
494.192
490.217
486.623
482.992
478.162
472.491
467.059
463.212
1238.97
1371.56
1424.17
1438.5
1423.62
1381.25
1306.4
1220.33
1132.79
1042.72
952.241
873.156
797.154
725.631
661.962
608.479
566.821
538.792
522.526
513.601
507.621
501.491
496.497
492.214
488.551
484.545
479.748
474.062
469.02
465.019
1242.87
1382.68
1439.67
1458.08
1451.37
1416.44
1350.64
1271.67
1187.41
1100.55
1009.44
928.099
849.966
774.371
703.292
640.607
589.037
552.18
529.441
517.201
510.523
505.367
499.035
494.838
490.459
486.152
481.302
475.789
470.801
466.991
1231.97
1393.48
1454.13
1476.45
1476.68
1448.66
1393.17
1321.38
1241.65
1157.03
1069.75
982.607
900.431
822.374
747.872
678.069
618.906
572.744
541.395
523.284
514.119
508.95
502.837
497.549
492.971
488.247
483.137
477.812
472.696
468.833
1237.59
1421.15
1471.71
1495.51
1498.93
1479.74
1432.78
1369.36
1294.38
1212.03
1126.42
1037.56
949.001
870.661
795.635
721.43
655.303
600.006
559.164
532.817
519.211
512.699
506.843
500.555
495.332
489.619
483.874
478.665
474.009
470.451
375.426
381.601
387.141
391.513
394.532
395.975
397.101
398.02
398.922
399.555
400.451
401.375
402.761
404.795
408.855
416.224
427.212
442.627
462.953
488.778
524.665
571.625
619.962
660.796
692.846
731.53
751.675
791.781
814.431
875.527
380.065
387.037
393.928
399.356
403.461
405.735
407.442
408.562
410.53
411.444
411.851
412.233
413.328
414.469
416.568
422.161
431.95
446.887
469.833
503.97
555.631
622.112
684.79
738.123
778.298
818.505
830.866
853.999
856.438
880.225
383.955
390.636
397.274
403.002
407.479
410.107
412.097
414.401
416.336
417.852
418.805
419.658
421.75
424.173
427.177
433.018
442.73
458.933
486.365
527.684
586.237
655.96
719.501
774.726
815.618
855.579
868.293
885.587
881.428
902.554
390.121
396.656
403.958
410.218
415.055
418.111
420.372
423.379
425.75
427.901
429.921
431.378
433.503
435.923
439.659
446.546
457.881
477.043
508.687
555.27
620.942
699.794
771.007
830.323
876.948
920.971
934.763
941.139
923.703
932.418
394.458
402.47
409.377
415.563
420.202
423.509
426.234
429.049
432.305
435.44
438.363
440.915
443.847
448.408
454.615
463.687
477.821
500.714
536.464
586.688
654.564
729.029
796.027
858.223
911.854
960.041
981.759
986.901
963.637
968.71
401.444
408.568
415.572
421.853
426.724
430.444
433.577
436.598
440.309
444.548
448.415
452.216
456.248
461.266
468.745
480.333
497.618
523.707
561.936
612.158
670.815
739.105
804.056
870.472
935.846
993.323
1024.9
1030.32
1003.93
990.195
406.413
414.153
421.281
427.455
432.246
436.012
439.126
442.843
446.402
451.267
456.243
461.275
466.645
473.201
482.416
496.108
515.578
543.853
581.267
624.385
675.865
741.517
806.215
875.574
947.88
1015.83
1059.57
1069
1042.44
1019.91
413.014
419.728
427.108
433.224
438.066
441.853
445.181
448.739
452.9
458.11
463.933
470.166
476.711
484.573
495.063
509.554
530.049
557.928
589.79
628.015
676.587
741.786
807.007
878.997
957.698
1035.49
1089.66
1103.07
1079.02
1045.75
418.055
424.742
431.74
437.647
442.258
446.179
449.709
453.049
457.435
462.671
468.939
476.075
483.793
493.134
504.659
520.127
540.509
564.442
592.749
628.536
675.451
740.675
808.889
883.468
965.983
1054.03
1117.79
1134.23
1112.55
1068.48
423.526
429.828
436.285
442.078
446.653
451.09
454.9
458.173
462.356
467.621
474.065
481.425
489.722
499.613
511.574
527.138
545.09
566.676
593.509
628.512
674.825
740.434
814.502
893.052
979.567
1071.61
1144.19
1165.81
1144.44
1093.82
428.702
434.412
440.216
445.586
450.061
454.582
458.184
461.597
465.921
471.068
477.533
484.904
493.405
503.669
515.966
530.246
546.658
567.175
593.818
628.794
675.815
743.062
824.429
908.239
997.848
1091.18
1167.65
1195.3
1172.38
1115.07
433.587
439.053
444.758
449.949
454.332
459.02
462.076
465.527
470.014
475.155
481.2
488.221
496.527
506.902
518.597
531.654
547.297
567.495
594.379
630.497
681.146
750.655
839.459
928.106
1020.36
1113.95
1191.14
1221.64
1199.05
1138.01
437.944
443.073
448.55
453.545
457.784
462.571
465.519
469.627
473.989
478.944
484.971
491.307
499.381
509.338
519.991
532.337
547.728
568.059
596.797
636.168
692.862
764.485
856.39
952.073
1046.79
1140.45
1216.33
1245.71
1223.26
1155.71
442.848
447.763
452.931
457.846
461.889
465.706
469.253
473.29
477.766
482.225
488.024
494.798
502.54
511.424
521.077
532.923
548.609
570.598
603.061
647.254
709.773
784.478
876.966
980.856
1077.29
1170.03
1243.45
1269.23
1245.58
1173.13
447.311
451.791
456.234
461.059
464.858
468.175
472.295
476.411
481.057
485.173
490.708
498.615
505.662
513.329
522.169
533.887
551.44
577.08
614.554
664.25
731.905
810.318
903.944
1013.72
1112.06
1202.15
1271.4
1292.75
1266.53
1189.63
449.687
454.923
459.738
464.235
468.028
471.166
475.262
479.247
483.481
487.753
493.457
501.638
509.195
515.289
523.741
536.528
557.399
588.471
631.964
687.979
760.114
840.831
937.441
1049.77
1149.04
1235.37
1298.24
1314.05
1286.49
1201.99
452.638
457.45
463.195
466.658
470.363
473.76
477.857
481.556
485.575
490.537
496.361
504.666
511.216
517.711
526.786
542.399
567.854
605.214
654.993
717.895
793.647
877.07
976.187
1089.31
1187.36
1268.45
1324.73
1333.27
1305.03
1213.76
455.331
459.891
465.526
470.577
473.809
476.891
480.512
484.208
488.167
493.083
500.374
507.618
513.653
520.763
532.523
552.934
583.888
627.808
683.713
753.2
831.539
917.794
1018.76
1131.15
1225.65
1300.78
1350.18
1353.2
1323.02
1224.52
458.511
462.577
467.873
473.543
477.804
479.884
484.022
486.613
490.757
496.321
503.343
510.474
516.842
525.527
541.653
568.539
606.487
657.193
719.507
794.317
874.721
963.005
1064.5
1173.52
1264.41
1333.08
1375.06
1373.45
1339.92
1235.87
461.023
465.267
470.48
476.173
480.687
483.715
486.394
489.019
493.124
499.661
506.175
512.803
520.584
533.052
555.415
590.125
636.143
693.937
762.291
840.587
923.062
1015.38
1114.03
1216.69
1304.05
1365.47
1399.14
1393.59
1354.78
1240.32
462.919
467.277
472.57
478.058
482.721
486.006
488.642
491.582
495.816
502.724
508.951
516.11
526.299
544.847
575.396
618.84
673.156
738.126
811.443
891.018
977.16
1070.44
1165.12
1260.66
1343.49
1396.62
1422.2
1411.8
1367.99
1250.35
464.782
469.043
474.207
479.959
484.471
487.882
491.103
495.273
499.241
505.686
511.691
519.84
535.706
562.86
602.941
655.166
717.633
788.811
865.42
945.209
1035.59
1127.36
1217.41
1305.75
1381.25
1426.37
1443.48
1428.65
1379.04
1250.77
466.948
470.769
475.812
481.295
485.908
489.951
493.92
498.422
503.704
509.327
515.49
526.814
548.645
585.165
635.703
697.529
767.818
843.239
921.381
1003.2
1095.07
1183.55
1269.62
1350.27
1416.92
1454.44
1463.36
1444.24
1389.8
1254.01
468.976
472.471
477.2
482.6
487.291
492.103
496.632
501.923
508.041
513.186
521.91
538.968
569.471
615.065
674.044
742.703
817.057
895.448
976.488
1063.28
1152.76
1238.78
1320.09
1393.14
1450.13
1480.27
1481.04
1459.1
1400.65
1242.9
471.125
474.318
478.223
483.124
488.198
494.165
499.815
506.037
512.102
518.503
531.69
557.197
597.235
651.941
717.577
790.216
866.315
945.132
1031.61
1121.03
1207.74
1291.62
1368.41
1433.89
1482.12
1502.6
1499.84
1476.5
1428.31
1247.46
874.329
833.589
814.467
796.355
783.882
781.575
784.51
793.88
810.362
834.686
866.245
903.963
946.86
993.531
1042.06
1090.86
1138.63
1184.66
1228.34
1268.96
1306.34
1340.28
1370.99
1398.39
1422.31
1443.32
1461.9
1478.09
1492.21
1504.68
1515.46
1524.68
1532.46
1538.88
1544.02
1547.84
1550.27
1551.34
1550.87
1549.2
1546.02
1541.3
1534.89
1526.76
1516.88
1505.14
1491.24
1475.01
1456.38
1435.47
1412.31
1386.9
1359.47
1330.09
1298.98
1266.27
1232.21
1197.18
1161.4
1125.26
1089.08
1053.2
1017.99
983.548
949.781
916.681
884.179
852.269
821.024
790.555
761.122
733.031
706.602
681.946
659.18
638.17
618.999
601.559
585.923
572.11
560.039
549.618
540.676
532.793
525.991
519.899
514.553
509.799
505.445
501.557
497.874
494.441
491.245
488.243
485.34
482.851
480.203
477.983
475.925
473.955
472.51
471.646
470.891
470.408
469.792
469.5
469.476
469.502
469.641
469.955
470.706
471.535
471.519
471.748
472.363
473.442
476.663
477.068
476.887
476.474
476.496
476.396
475.651
474.115
472.797
971.833
945.216
923.234
905.53
896.673
896.798
904.43
920.289
944.333
976.239
1014.81
1058.56
1106.21
1156.37
1207.33
1257.48
1305.6
1350.9
1392.9
1431.29
1466.01
1497.16
1524.95
1548.72
1569.45
1587.7
1603.74
1617.6
1629.62
1640.02
1648.94
1656.5
1662.78
1667.85
1671.75
1674.51
1676.1
1676.53
1675.57
1673.5
1670.18
1665.54
1659.5
1652.01
1643.03
1632.49
1620.33
1606.47
1590.94
1573.64
1554.53
1533.68
1511.16
1487.12
1461.89
1435.43
1407.91
1379.55
1350.49
1320.88
1290.95
1260.95
1231.05
1201.31
1171.61
1141.89
1112.06
1082.06
1051.82
1021.23
990.312
959.162
927.845
896.356
864.609
832.652
800.506
768.316
736.483
705.656
676.568
649.859
625.909
604.686
586.047
569.69
555.601
543.486
533.231
524.59
517.237
510.952
505.439
500.675
496.223
492.382
488.93
485.738
482.92
480.559
478.331
476.945
475.83
475.024
474.16
473.473
473.045
472.619
472.668
472.96
473.368
473.408
473.278
473.565
474.456
475.933
478.326
478.97
478.976
478.84
478.855
479.06
478.568
477.064
475.772
1070.46
1051.61
1032.36
1018.71
1014.22
1017.02
1027.95
1047.01
1073.87
1107.86
1147.83
1192.46
1239.9
1288.59
1337.25
1384.74
1429.98
1472.27
1511.18
1546.51
1578.25
1606.59
1631.25
1652.69
1671.45
1687.96
1702.33
1714.75
1725.51
1734.81
1742.78
1749.52
1755.11
1759.61
1763.06
1765.49
1766.85
1767.17
1766.42
1764.61
1761.69
1757.63
1752.37
1745.88
1738.17
1729.03
1718.63
1706.88
1693.76
1679.31
1663.56
1646.61
1628.58
1609.54
1589.39
1568.21
1546.07
1523.16
1499.79
1475.99
1451.8
1427.29
1402.54
1377.5
1352.11
1326.32
1300.02
1273.28
1246.06
1218.29
1189.72
1160.3
1130
1098.81
1066.79
1033.96
1000.38
966.155
931.44
896.406
861.447
826.798
792.637
759.185
727.032
696.702
668.335
642.279
618.854
598.163
580.124
564.422
550.672
538.813
528.459
519.7
512.051
505.606
500.034
495.545
491.376
488.597
486.275
484.425
483.09
481.619
480.937
480.069
479.881
479.587
479.257
478.517
478.134
478.423
479.433
480.842
482.338
482.799
482.953
482.981
483.3
483.346
482.621
480.827
479.345
1168.95
1154.53
1140.28
1133.11
1132.76
1139.86
1154.77
1177.21
1206.63
1242.1
1282.4
1326.18
1371.9
1418.01
1463.37
1507.08
1548.46
1586.98
1622.31
1654.28
1682.94
1708.3
1730.41
1749.76
1766.81
1781.82
1794.83
1806.17
1816.04
1824.62
1832.01
1838.33
1843.63
1847.96
1851.38
1853.89
1855.48
1856.1
1855.84
1854.65
1852.49
1849.33
1845.15
1839.94
1833.67
1826.32
1817.92
1808.45
1797.94
1786.41
1773.93
1760.38
1745.99
1730.72
1714.59
1697.68
1680.1
1661.95
1643.12
1623.76
1603.89
1583.43
1562.55
1541.15
1519.16
1496.49
1473.15
1449.08
1424.1
1398.09
1371.11
1343.22
1314.42
1284.7
1253.87
1221.96
1189.11
1155.29
1120.5
1084.99
1048.9
1012.39
975.659
939.036
902.954
867.683
833.421
800.103
768.524
738.161
708.777
680.791
654.486
630.156
607.917
587.922
570.166
554.898
541.601
530.386
520.714
513.253
507.225
502.342
498.436
495.01
492.973
491.045
489.969
488.98
487.893
487.087
485.999
486.168
487.149
487.564
488.223
488.325
488.257
488.286
488.467
488.231
487.045
485.087
483.807
1269.26
1259.4
1251.72
1249.75
1254.1
1265.65
1284.32
1309.65
1340.87
1376.97
1416.7
1458.72
1501.86
1544.91
1586.65
1626.42
1663.73
1698.28
1729.93
1758.65
1784.34
1806.96
1826.94
1844.62
1860.25
1874
1886.08
1896.72
1906.04
1914.26
1921.44
1927.7
1933.09
1937.65
1941.4
1944.36
1946.52
1947.84
1948.31
1948
1946.84
1944.81
1941.91
1938.14
1933.51
1928.01
1921.65
1914.45
1906.39
1897.48
1887.75
1877.18
1865.81
1853.66
1840.75
1827.12
1812.84
1797.78
1782.09
1765.73
1748.71
1731.06
1712.71
1693.61
1673.69
1652.92
1631.21
1608.6
1584.97
1560.22
1534.39
1507.51
1479.64
1450.7
1420.77
1389.96
1358.16
1325.36
1291.51
1256.76
1221.19
1185.03
1148.59
1112
1075.44
1039.09
1003.15
967.645
932.846
898.35
864.229
831.179
798.978
767.812
737.916
709.334
682.037
656.05
631.545
609.044
588.431
570.265
554.762
541.803
531.525
523.086
516.883
512.045
507.965
504.284
500.749
498.245
496.165
496.377
497.807
498.051
497.744
497.14
496.243
495.83
495.236
494.084
492.557
490.774
489.181
1370.85
1365.99
1364.05
1366.85
1375.9
1391.46
1413.26
1440.67
1472.88
1508.75
1547.16
1586.94
1627.03
1666.53
1704.72
1740.79
1774.36
1805.38
1833.81
1859.54
1882.56
1903.07
1921.37
1937.7
1952.24
1965.14
1976.61
1986.84
1995.99
2004.2
2011.47
2018.05
2023.88
2028.99
2033.41
2037.12
2040.1
2042.36
2043.85
2044.52
2044.52
2043.75
2042.25
2040.03
2037.08
2033.42
2029.03
2023.9
2017.98
2011.27
2003.76
1995.45
1986.35
1976.45
1965.76
1954.29
1942.06
1929.03
1915.24
1900.71
1885.44
1869.5
1852.5
1834.58
1815.65
1795.63
1774.45
1752.32
1729.08
1704.74
1679.25
1652.64
1625.06
1596.49
1566.95
1536.53
1505.3
1473.27
1440.49
1407.1
1373.14
1338.61
1303.51
1268.11
1232.58
1196.99
1161.36
1125.92
1090.76
1055.64
1020.69
986.063
951.961
917.834
884.493
851.587
818.95
786.907
755.748
725.84
697.331
670.685
646.03
623.002
602.598
584.828
569.86
558.132
547.683
538.543
529.285
521.861
516.269
512.436
512.153
511.031
509.744
508.248
507.41
506.457
504.3
502.284
500.452
498.434
496.217
1472.22
1472.11
1474.88
1482.4
1495.58
1514.44
1538.63
1567.34
1599.72
1634.78
1671.45
1708.77
1745.86
1782
1816.65
1849.44
1880.07
1908.31
1933.96
1957.16
1978.07
1996.97
2014.12
2029.46
2043.2
2055.54
2066.68
2076.78
2086.01
2094.47
2102.24
2109.42
2115.89
2121.81
2127.14
2131.75
2135.72
2139
2141.57
2143.47
2144.7
2145.22
2145.23
2144.58
2143.31
2141.41
2138.81
2135.45
2131.26
2126.23
2120.35
2113.62
2106.03
2097.56
2088.2
2077.96
2066.84
2054.85
2042.04
2028.42
2013.95
1998.53
1981.94
1964.19
1945.32
1925.37
1903.89
1881.48
1857.88
1833.07
1807.13
1780.31
1752.58
1724
1694.51
1664.14
1633.14
1601.56
1569.42
1536.85
1503.9
1470.68
1437.29
1403.8
1370.22
1336.61
1302.96
1269.13
1235.42
1201.45
1167.23
1132.67
1097.77
1062.73
1027.99
993.509
959.302
925.163
891.383
858.011
825.282
793.582
763.098
733.822
706.322
680.885
657.571
637.795
619.488
603.948
588.247
573.13
560.458
549.722
543.225
536.925
529.386
523.672
520.15
516.783
513.533
511.3
509.232
506.456
503.232
1571.71
1575.87
1583.05
1594.7
1611.35
1632.82
1658.61
1687.98
1720.07
1753.99
1788.83
1823.8
1858.2
1891.49
1923.27
1953.24
1981.3
2007.2
2030.77
2052.19
2071.68
2089.5
2105.63
2120.22
2133.42
2145.44
2156.46
2166.64
2176.13
2185.02
2193.4
2201.29
2208.65
2215.49
2221.74
2227.1
2232.1
2236.4
2240.04
2243.11
2245.66
2247.64
2249.08
2249.94
2250.24
2249.94
2248.88
2246.97
2244.14
2240.37
2235.67
2230.02
2223.39
2215.73
2207.03
2197.3
2186.59
2174.92
2162.39
2149.03
2134.68
2119.12
2102.18
2083.92
2064.37
2043.53