/*--------------------------------*- C++ -*----------------------------------*\
| =========                 |                                                 |
| \\      /  F ield         | OpenFOAM: The Open Source CFD Toolbox           |
|  \\    /   O peration     | Version:  2112                                  |
|   \\  /    A nd           | Website:  www.openfoam.com                      |
|    \\/     M anipulation  |                                                 |
\*---------------------------------------------------------------------------*/
FoamFile
{
    version     2.0;
    format      ascii;
    arch        "LSB;label=32;scalar=64";
    class       volVectorField;
    location    "0.00061";
    object      U;
}
// * * * * * * * * * * * * * * * * * * * * * * * * * * * * * * * * * * * * * //

dimensions      [0 1 -1 0 0 0 0];

internalField   nonuniform List<vector> 
13875
(
(2208.52 110.419 1.80363e-18)
(2141.95 8.36065 -9.33865e-19)
(2169.14 -1.86485 -9.42248e-19)
(2171.5 -2.30094 0)
(2169.84 0.425445 0)
(2169.44 0.545108 9.36421e-19)
(2169.62 -0.155198 -9.36936e-19)
(2169.99 -1.34448 -4.68327e-19)
(2169.73 -0.53873 4.67975e-19)
(2169.94 0.595798 0)
(2169.48 0.442696 -3.86383e-22)
(2169.74 0.234005 -3.85824e-22)
(2169.8 -0.00118787 0)
(2169.39 -0.328819 -4.68156e-19)
(2169.44 -0.970039 4.68497e-19)
(2169.82 -0.592147 0)
(2169.51 0.154811 9.36694e-19)
(2170.07 0.194412 -9.36834e-19)
(2169.76 0.343044 3.87511e-22)
(2169.2 0.551171 -3.88153e-22)
(2168.86 0.811975 -9.36402e-19)
(2171.6 2.65615 9.34745e-19)
(2169.59 2.58098 -1.88371e-18)
(2140.34 -8.88237 1.9232e-18)
(2205.03 -107.836 1.78053e-18)
(2256.23 93.3478 -1.62869e-18)
(2227.39 -1.92888 1.88467e-18)
(2246.65 -0.820396 8.71148e-19)
(2247.45 2.82035 -8.67023e-19)
(2246.57 0.45784 4.16982e-22)
(2247.58 -0.696407 5.1983e-22)
(2248.15 -0.212476 4.16552e-22)
(2248.02 1.76083 -4.36037e-19)
(2246.07 0.874865 4.33249e-19)
(2247.23 -0.464862 2.16619e-19)
(2247.3 -0.517663 -1.62726e-19)
(2247.96 -0.550959 -5.29833e-20)
(2248.1 0.0737846 0)
(2247.67 0.664947 -4.3584e-19)
(2247.22 0.805041 4.33404e-19)
(2245.88 0.386198 4.35905e-19)
(2245.36 -0.298983 -4.35534e-19)
(2245.42 -0.403452 5.18061e-22)
(2245.46 -0.164712 -5.18489e-22)
(2245.46 -0.327077 5.18424e-22)
(2245.71 -1.89824 -8.68655e-19)
(2247.4 -3.56231 2.60433e-18)
(2247.28 0.478394 -1.74123e-18)
(2228.2 5.63143 5.42582e-22)
(2255.72 -94.2836 -1.69714e-18)
(2255.84 79.6226 0)
(2235.53 -16.2851 0)
(2248.52 3.49493 0)
(2252.72 -0.87653 0)
(2252.67 -1.39093 -1.64177e-18)
(2253.53 -2.05118 1.67902e-18)
(2253.56 -0.389124 1.64041e-18)
(2254.04 1.61408 -2.45963e-18)
(2253.97 0.544085 8.60171e-19)
(2254.39 -1.37295 4.08722e-22)
(2254.34 -0.808917 -4.29781e-19)
(2254.51 -0.553352 4.09908e-19)
(2254.61 0.134907 0)
(2254.4 0.73352 0)
(2254.44 1.8858 4.27629e-22)
(2253.57 1.79763 0)
(2253.17 0.57071 8.4054e-22)
(2252.63 0.0234097 4.31078e-19)
(2252.21 0.387512 -4.10928e-19)
(2251.76 0.0565392 0)
(2251.32 -0.693825 0)
(2251.91 -0.055782 0)
(2247.92 -2.35118 0)
(2233.65 14.1479 0)
(2253.53 -73.3692 0)
(2250.67 53.3877 0)
(2233.01 -27.5301 1.82154e-18)
(2248.47 6.29547 -3.42019e-18)
(2251.74 -2.66231 3.40774e-18)
(2252.44 -2.17374 -1.64738e-18)
(2253.43 -2.53994 0)
(2253.4 -0.398437 -7.96723e-22)
(2253.88 1.46001 0)
(2254.03 0.302237 0)
(2254.36 -1.54379 0)
(2254.34 -0.934693 0)
(2254.49 -0.553766 -7.80993e-22)
(2254.61 0.160879 -5.01209e-20)
(2254.4 0.783657 5.2335e-20)
(2254.39 2.33263 0)
(2253.75 2.50834 0)
(2253.23 1.0348 8.41998e-22)
(2252.66 0.564978 -8.66288e-19)
(2252.12 0.646536 8.12561e-19)
(2251.82 0.79514 -1.73236e-18)
(2251.45 0.162416 1.72542e-18)
(2250.82 1.8603 1.71668e-18)
(2247.11 -6.9981 -1.72739e-18)
(2234.06 30.2617 0)
(2251.2 -61.7083 0)
(2248.35 41.8377 1.74119e-18)
(2234.02 -45.1636 0)
(2247.9 9.98841 0)
(2252.27 -5.92633 0)
(2252.68 -3.75134 0)
(2253.22 -3.29839 1.68984e-21)
(2253.18 -0.610111 1.66198e-21)
(2253.88 1.01451 4.23679e-19)
(2254.1 -0.261314 -4.268e-19)
(2254.28 -1.98452 2.11333e-19)
(2254.31 -1.05331 -2.14183e-19)
(2254.41 -0.517956 0)
(2254.54 0.23316 0)
(2254.33 0.810005 -1.61282e-21)
(2254.29 2.72679 0)
(2253.75 3.33524 -1.68755e-21)
(2253.44 1.81315 8.61504e-19)
(2252.78 1.29307 -8.60954e-19)
(2252.31 1.23333 1.71176e-18)
(2251.84 1.69122 -1.73132e-18)
(2251.3 1.62225 1.69605e-21)
(2251.8 5.06517 0)
(2246.43 -9.38426 0)
(2232.14 39.8973 0)
(2246.56 -34.7057 0)
(2244.24 9.73876 0)
(2229.8 -61.6172 9.15751e-19)
(2246.34 12.0105 -8.47213e-19)
(2251.48 -8.62147 0)
(2252.01 -4.85204 8.65268e-19)
(2252.59 -3.5032 -4.36144e-19)
(2252.66 -0.58706 -2.41261e-21)
(2253.39 0.704684 -2.14122e-19)
(2253.68 -0.605771 -4.30916e-19)
(2254.12 -2.2479 1.6352e-19)
(2254.12 -1.32949 1.66919e-21)
(2254.22 -0.586329 2.60175e-19)
(2254.36 0.254091 -2.12369e-19)
(2254.17 0.962861 3.28892e-21)
(2254.01 3.04922 -4.31439e-19)
(2253.86 3.78476 4.33797e-19)
(2253.32 2.23488 1.68135e-21)
(2252.75 1.65743 -1.68001e-21)
(2252.16 1.69963 -1.67697e-21)
(2251.54 2.41306 -8.62783e-19)
(2251.09 3.08234 8.64699e-19)
(2249.37 8.05727 0)
(2243.27 -13.111 0)
(2228.96 61.5696 -1.92836e-18)
(2244.12 -27.2339 -1.20218e-19)
(2258.74 6.43512 -4.93258e-20)
(2225.59 -76.6709 6.04825e-20)
(2241.47 12.6439 0)
(2249.04 -13.5793 -2.69425e-23)
(2251.58 -7.20724 -2.6458e-23)
(2251.94 -4.46486 0)
(2252.16 -1.17768 0)
(2253.18 -0.345659 -8.46271e-19)
(2253.49 -1.60721 8.5459e-19)
(2253.7 -2.69722 0)
(2253.72 -1.24795 1.68248e-18)
(2253.81 -0.446311 1.79733e-21)
(2253.95 0.351184 -1.71411e-18)
(2253.76 0.971216 -1.68543e-21)
(2253.57 2.95799 0)
(2253.72 4.31827 3.44299e-18)
(2253.28 3.13048 6.65523e-21)
(2252.63 2.49428 -6.78844e-18)
(2252.01 2.94924 3.38322e-18)
(2251.39 4.33456 2.60587e-23)
(2250.11 5.71164 0)
(2248.39 14.1786 3.545e-18)
(2236.85 -10.1365 -3.37918e-18)
(2219.13 67.7536 3.86356e-18)
(2236.56 -0.545938 -3.23684e-18)
(2217.69 -20.1715 -3.3132e-19)
(2211.46 -85.5447 -7.55511e-18)
(2233.39 3.81394 8.77011e-22)
(2246.21 -21.6506 2.61009e-23)
(2247.95 -9.58291 -8.19396e-22)
(2249.42 -4.96785 0)
(2250.5 -1.36285 -3.36299e-18)
(2251.91 -0.772864 3.40048e-18)
(2252.52 -1.88224 0)
(2252.84 -2.71526 -8.46288e-22)
(2252.85 -1.59506 -8.31469e-22)
(2252.97 -0.740618 0)
(2253.08 0.324863 0)
(2252.92 1.25214 -1.65015e-21)
(2252.66 3.12283 -8.38852e-22)
(2252.98 4.72023 2.59263e-23)
(2252.48 3.49595 -8.66605e-22)
(2251.7 2.76908 -2.56788e-23)
(2250.45 3.56965 -1.69542e-18)
(2248.87 5.85014 -2.12081e-20)
(2247.01 10.1892 1.7167e-18)
(2241.31 21.9216 9.08269e-22)
(2224.93 2.41619 3.57692e-18)
(2196.54 85.173 -3.59207e-18)
(2179.54 14.9 2.56613e-23)
(2104.16 -36.8066 9.42848e-19)
(2161.1 -97.002 0)
(2211.26 -19.7397 -8.34741e-22)
(2233.48 -32.4632 -8.64626e-19)
(2243.35 -18.1814 1.73753e-18)
(2246.71 -9.67509 -1.69664e-18)
(2248.45 -3.97076 7.67821e-21)
(2250.23 -3.01338 8.54618e-19)
(2250.89 -3.34332 0)
(2251.06 -2.59641 -8.59371e-19)
(2251.08 -1.15766 8.55579e-19)
(2251.17 -0.417754 0)
(2251.26 0.404169 0)
(2251.14 1.00801 2.09122e-21)
(2250.94 2.48626 8.33388e-22)
(2251.3 4.44315 8.51203e-19)
(2250.91 4.72906 -8.54587e-19)
(2250.1 4.43328 0)
(2248.56 6.81186 8.5634e-19)
(2246.39 11.8234 -1.72193e-18)
(2240.05 20.5208 8.58242e-19)
(2225.22 39.9326 -8.49448e-22)
(2190.4 35.5894 0)
(2108.81 114.845 0)
(1964.61 50.7086 0)
(1843.29 -145.207 -6.75919e-17)
(2107.84 -163.681 8.69419e-17)
(2187.54 -57.6491 0)
(2223.01 -58.6736 -2.99267e-17)
(2235.19 -24.9978 3.1309e-17)
(2240.6 -10.7391 0)
(2243.65 -4.72631 -2.97629e-20)
(2246.2 -3.70212 -1.46839e-17)
(2247.13 -3.80719 1.48557e-17)
(2247.31 -2.89791 -3.0339e-20)
(2247.34 -1.62561 0)
(2247.43 -0.962817 -3.7379e-18)
(2247.45 0.282447 5.59685e-18)
(2247.41 1.41108 -1.90132e-18)
(2247.23 2.62319 -2.98413e-20)
(2247.59 5.17142 0)
(2247.25 5.24644 0)
(2246.16 5.09401 -2.95046e-17)
(2243.75 7.99103 2.92573e-17)
(2240.01 15.9632 -3.08742e-17)
(2231.49 34.9455 2.95833e-17)
(2215.05 77.211 3.46562e-17)
(2156.84 108.295 -3.03068e-17)
(2003.25 258.15 -1.07534e-16)
(1551.71 191.204 -2.42826e-17)
(1620.66 -226.936 -9.368e-17)
(1981.92 -315.699 1.37669e-16)
(2123.59 -122.737 0)
(2194.37 -70.6906 6.88645e-17)
(2216.8 -28.7537 -7.30507e-17)
(2230.71 -17.253 -3.36988e-17)
(2234.47 -11.0123 3.42282e-17)
(2237.82 -7.80581 -3.39356e-17)
(2238.95 -5.20123 3.42284e-17)
(2239.23 -1.7535 3.26163e-20)
(2239.33 -0.408193 0)
(2239.36 -0.12906 -2.14299e-18)
(2239.28 0.440201 2.18131e-18)
(2239.35 0.854823 3.2909e-20)
(2239.28 1.33268 3.27299e-20)
(2239.7 3.50924 3.48769e-20)
(2239.23 6.79587 0)
(2238.03 8.64166 0)
(2234.81 13.3906 -6.88142e-17)
(2229.85 22.5005 6.85709e-17)
(2211.35 39.7335 -7.61792e-17)
(2182.45 99.2452 1.56704e-16)
(2065.82 190.892 -7.45434e-17)
(1800.43 532.483 -4.48125e-20)
(1212.87 540.068 7.5249e-20)
(1207.13 -561.091 -1.17341e-16)
(1628.46 -660.465 1.15945e-16)
(1841.86 -154.62 2.61482e-16)
(2112.24 -121.951 -1.07868e-16)
(2173.3 -54.4775 0)
(2202.57 -23.4686 7.57743e-17)
(2208.36 -7.23829 -7.72304e-17)
(2216.35 -5.10235 0)
(2218.51 -3.18559 3.57355e-20)
(2219.07 -2.42743 0)
(2219.21 -1.82976 0)
(2219.03 -1.30276 0)
(2218.8 0.109897 4.79806e-18)
(2219.11 1.49575 -4.80037e-18)
(2219.43 2.36551 -4.18082e-20)
(2219.98 3.75776 -3.59758e-20)
(2219.36 5.09616 0)
(2217.13 6.56612 0)
(2209.07 9.76707 0)
(2202.49 32.386 -8.24347e-17)
(2165.92 74.5623 1.68112e-16)
(2091.79 172.504 -8.00921e-17)
(1773.5 351.262 -1.9561e-16)
(1262.12 941.107 1.07473e-16)
(1151.38 601.548 -8.34144e-20)
(1177.9 -687.826 1.72958e-16)
(1160.78 -871.83 0)
(1153.92 -724.941 0)
(1883.29 -316.892 -1.09819e-16)
(1923.47 -75.7351 1.52318e-16)
(2113.18 -49.2715 0)
(2135.38 -46.6756 1.52105e-20)
(2149.01 -23.1579 4.54681e-17)
(2154.72 -10.0041 -4.56888e-17)
(2155.36 -0.891946 0)
(2154.14 2.23701 -1.13511e-17)
(2152.62 2.67227 1.14063e-17)
(2151.55 0.803137 -5.71473e-18)
(2153.09 -1.39983 5.73323e-18)
(2155.75 -2.10244 4.01105e-20)
(2157.85 1.29052 -4.50249e-17)
(2157.41 10.3867 9.07226e-17)
(2151.66 23.1098 1.11732e-18)
(2138.78 48.4439 -4.47759e-17)
(2101.89 45.6339 -1.07751e-16)
(1901.42 80.065 1.12567e-16)
(1830.15 419.392 7.82481e-20)
(1202.2 860.986 1.95677e-20)
(1263.57 934.97 1.60285e-16)
(1148.62 640.359 6.93684e-18)
(1233.07 -711.992 0)
(1173.4 -899.191 0)
(1090.36 -847.192 0)
(1268.16 -671.071 0)
(1156.97 -724.165 0)
(1889.63 -159.651 1.34181e-16)
(1861.98 11.353 -1.50378e-16)
(1900.35 31.925 2.18568e-19)
(1922.75 13.7538 -1.23611e-20)
(1920.99 -2.43171 3.19504e-17)
(1912.12 -6.67921 -3.23912e-17)
(1905.28 -6.0861 -4.59278e-19)
(1899.49 -2.22616 -1.01379e-18)
(1907.01 1.74934 1.22885e-18)
(1919.37 5.82504 -3.17658e-17)
(1930.24 3.14684 3.1558e-17)
(1931.76 -9.05651 1.98868e-19)
(1906.91 -24.8535 0)
(1871.53 5.43855 0)
(1886.82 243.434 0)
(1229.44 761.022 -1.89189e-16)
(1328.22 700.002 -1.87365e-17)
(1219.16 845.391 1.60784e-16)
(1257.05 873.994 2.10192e-20)
(1178.09 623.354 2.22431e-20)
(1326.53 -687.005 0)
(1238.94 -832.98 4.11516e-20)
(1132.12 -807.757 0)
(1169.64 -692.572 -1.8523e-16)
(998.303 -753.352 3.6728e-16)
(1097.92 -596.49 -1.96655e-16)
(1051.53 -521.957 0)
(1017.97 -290.188 -1.57718e-19)
(1073.46 -112.979 0)
(1015.28 0.434683 0)
(983.875 45.8847 -3.05561e-17)
(950.368 48.5943 3.02925e-17)
(900.891 0.0957775 3.00249e-17)
(942.576 -56.0829 -3.06349e-17)
(1014.44 -66.2745 0)
(1059.17 -13.6219 -1.22472e-16)
(1118.32 93.4006 1.21401e-16)
(1094.11 276.683 1.16683e-16)
(1034.09 491.079 -1.06649e-16)
(1157.27 597.832 0)
(1096.11 764.892 0)
(1276.18 700.6 -1.71548e-19)
(1285.29 794.318 -1.69618e-16)
(1307.79 781.982 3.82839e-16)
(1219.47 602.01 -1.87005e-16)
(1430.02 -660.846 -1.77977e-16)
(1351.59 -793.181 1.88448e-16)
(1234.17 -711.116 0)
(1206.62 -588.704 -2.21643e-16)
(1016.14 -546.863 -4.78802e-17)
(1026.62 -412.5 3.2637e-16)
(722.834 -214.687 -2.50263e-16)
(448.625 -23.8389 1.26791e-16)
(333.791 5.80369 0)
(189.601 50.4147 0)
(97.8526 45.9571 -4.5627e-20)
(16.6388 22.4006 1.56362e-19)
(-45.6296 -13.1682 0)
(-4.53581 -42.6641 0)
(91.5176 -69.504 6.66634e-17)
(177.885 -71.0932 -6.71454e-17)
(310.247 -44.9128 -1.32618e-16)
(433.642 -11.1329 2.6271e-16)
(692.895 129.831 -1.23106e-17)
(1076.77 414.556 -1.23924e-16)
(1113.98 560.069 0)
(1292.54 601.124 0)
(1338.86 663.224 -1.89957e-16)
(1350.94 729.977 2.14577e-16)
(1297.77 587.772 -4.93561e-20)
(1555.41 -582.739 1.69448e-16)
(1487.83 -598.991 -1.00539e-19)
(1440.62 -504.953 1.09233e-16)
(1374.88 -393.853 -9.14357e-17)
(1191.19 -302.834 -5.35643e-20)
(1112.87 -119.136 1.14327e-19)
(837.982 -81.3712 1.23488e-16)
(609.945 -41.3242 -1.92549e-16)
(537.448 -89.8751 6.71865e-17)
(487.285 -79.1421 0)
(472.883 -83.8372 -3.24206e-17)
(475.137 -73.4835 3.31137e-17)
(480.192 -34.8235 0)
(470.658 22.0163 6.0185e-20)
(463.082 42.5763 -3.34433e-17)
(470.833 53.6203 3.24515e-17)
(510.839 64.6995 0)
(576.512 38.4046 -1.31181e-16)
(781.948 72.2019 1.22888e-16)
(1139.67 146.701 1.05579e-16)
(1246.69 266.071 -2.24382e-16)
(1414.11 399.209 1.10339e-16)
(1483.3 485.484 0)
(1477.55 611.518 1.77204e-16)
(1434.04 511.752 -1.06001e-17)
(1693.57 -435.028 -6.4219e-18)
(1614.33 -312.136 9.64213e-17)
(1436.32 -135.777 -4.30165e-17)
(1325.08 -104.208 -5.88349e-17)
(1251.07 -29.4312 8.01631e-17)
(1213.78 -92.7912 -5.48082e-17)
(1072.95 -175.642 5.89431e-17)
(942.708 -184.807 -6.07773e-17)
(855.876 -160.563 1.16186e-19)
(787.834 -118.875 3.17736e-17)
(730.247 -83.9727 1.60413e-17)
(691.574 -48.3314 2.67872e-20)
(679.981 -13.56 -1.60818e-17)
(693.964 25.2268 -6.03322e-20)
(734.705 58.274 -7.62273e-20)
(792.536 94.9358 -1.99035e-18)
(863.019 131.789 1.07247e-21)
(955.984 154.489 5.69502e-18)
(1118.19 151.822 -3.56265e-18)
(1256.18 79.4312 0)
(1279.02 26.1703 1.28839e-17)
(1355.68 111.169 -3.9109e-17)
(1496.9 146.158 4.87463e-17)
(1575.23 286.255 -6.89859e-17)
(1589.49 354.843 6.87118e-17)
(1795.62 -281.969 -1.22581e-19)
(1748.38 65.1046 -1.41843e-19)
(1570.95 153.863 1.59181e-19)
(1497.77 32.7016 -6.8164e-21)
(1403.8 17.6253 -1.74324e-19)
(1392.92 -55.1369 -1.92544e-19)
(1319.58 -141.722 -7.62006e-21)
(1199.18 -183.64 0)
(1072.14 -157.527 0)
(960.568 -112.795 6.22259e-17)
(870.278 -72.805 -6.2591e-17)
(813.596 -38.8506 -8.11852e-21)
(795.037 -12.1414 8.12268e-21)
(808.507 14.5294 -8.15482e-18)
(856.065 46.0407 7.94374e-18)
(938.612 88.7772 0)
(1055.16 139.708 0)
(1200.31 174.329 -5.66188e-17)
(1337.11 152.951 5.46734e-17)
(1400.54 74.9159 -1.83932e-19)
(1408.22 -10.5708 0)
(1495.84 -66.3218 0)
(1615.57 -111.218 -1.62018e-19)
(1659.21 -102.54 -1.53179e-19)
(1698.4 184.95 1.7062e-16)
(1614 165.109 -1.95627e-16)
(1611.06 497.797 -2.46205e-16)
(1591.23 463.191 1.46061e-16)
(1594.98 260.874 0)
(1536.45 169.682 2.30404e-19)
(1506.62 62.3319 1.05641e-16)
(1463.53 -30.4957 -2.10772e-16)
(1373.63 -95.0602 1.06468e-16)
(1249.05 -96.1065 -1.17744e-16)
(1124.58 -79.8866 1.16923e-16)
(1015.76 -57.7386 3.08147e-17)
(942.611 -33.0836 -3.8611e-17)
(916.231 -9.01623 -7.78622e-18)
(934.632 16.1506 1.57425e-17)
(999.708 43.0837 0)
(1107.77 71.9407 0)
(1244 96.8506 1.11578e-16)
(1383 97.7522 -2.19368e-16)
(1473.89 42.198 1.08626e-16)
(1510.27 -55.4064 2.29817e-19)
(1551.39 -163.701 1.93431e-16)
(1591.54 -278.521 -3.23074e-17)
(1623.96 -446.436 -5.17399e-16)
(1561.6 -543.759 6.12606e-16)
(1528.41 -309.755 -2.93204e-16)
(969.271 655.883 1.3449e-19)
(1436.05 895.279 -1.84388e-16)
(1640.72 680.54 1.39393e-16)
(1654.95 459.291 0)
(1623.76 308.797 0)
(1578.32 188.81 0)
(1546.62 87.324 0)
(1473.22 14.8276 0)
(1367.38 -12.7702 -5.05409e-17)
(1254.31 -27.8319 1.01866e-16)
(1147.01 -29.7702 -7.87944e-17)
(1069.33 -20.8754 2.9975e-17)
(1040.44 -4.62583 -3.36927e-18)
(1064.28 12.9714 1.29467e-20)
(1138.86 25.1893 -5.24015e-17)
(1249.08 28.0381 5.22204e-17)
(1372.49 19.2341 0)
(1487.31 -11.2013 0)
(1556.84 -80.7278 -1.73228e-16)
(1586.42 -190.351 1.85772e-16)
(1644.4 -304.56 -1.73106e-19)
(1651.27 -476.567 7.22978e-20)
(1642.55 -686.584 -9.52116e-20)
(1428.9 -911.201 -7.97267e-20)
(921.699 -635.537 0)
(845.592 541.439 -1.83252e-16)
(1469.46 850.318 1.60136e-16)
(1664.37 806.456 -1.36964e-19)
(1679.68 626.78 1.577e-16)
(1667.17 452.427 -1.329e-16)
(1632.36 299.757 0)
(1600.22 195.907 -8.28772e-17)
(1538.61 117.958 7.69318e-17)
(1456.4 65.6833 -4.37416e-17)
(1361.83 25.9876 8.79003e-17)
(1264.73 2.85678 -4.46499e-17)
(1190.42 -5.28005 1.69398e-19)
(1162.98 -2.40291 0)
(1189.13 0.887317 2.30032e-17)
(1262.9 -6.3362 2.17777e-17)
(1362.06 -28.4835 -4.46959e-17)
(1461.52 -65.5624 -8.07346e-17)
(1550.11 -119.389 8.50192e-17)
(1609 -197.275 -7.32763e-17)
(1644.92 -310.731 8.05412e-17)
(1683.33 -465.869 8.07253e-20)
(1678.08 -649.386 -8.07738e-20)
(1655.68 -817.674 0)
(1456.36 -865.866 6.95519e-20)
(793.301 -505.387 0)
(856.855 386.13 1.70402e-16)
(1486.35 759.079 -1.54755e-16)
(1641.1 828.385 5.05783e-20)
(1701.15 720.961 0)
(1700.58 563.846 0)
(1667.76 420.097 -7.58005e-21)
(1633.56 306.094 0)
(1586.44 211.045 7.54806e-20)
(1526.63 138.388 0)
(1451.23 79.3969 3.91623e-17)
(1369.3 37.8096 -5.89528e-17)
(1303.3 12.1393 2.98747e-17)
(1277.76 -1.22687 -1.00558e-17)
(1301.23 -14.4106 0)
(1366.44 -39.5856 0)
(1450.32 -80.9875 3.69921e-17)
(1528.85 -138.671 -1.08193e-16)
(1593.44 -212.582 7.41721e-17)
(1642.33 -310.159 -6.30718e-17)
(1682.97 -424.761 7.11267e-17)
(1716.67 -569.35 0)
(1708.57 -728.883 0)
(1636.55 -839.152 0)
(1476.61 -775.931 -8.78536e-21)
(810.485 -349.792 -1.85766e-16)
(929.775 324.382 -3.16086e-20)
(1482.68 706.828 1.25027e-16)
(1644.1 807.683 -1.15194e-16)
(1714.17 743.043 0)
(1708.93 629.364 0)
(1693.55 503.623 7.80217e-21)
(1662.76 390.571 6.51853e-17)
(1629.7 287.062 -6.00137e-17)
(1586.75 201.678 2.98969e-20)
(1527.19 127.161 3.09701e-20)
(1459.91 68.2645 3.19303e-20)
(1404.26 28.0627 -9.38279e-21)
(1382.51 -0.61938 -9.39779e-21)
(1402.39 -29.0499 1.75112e-17)
(1457.53 -68.7505 -1.77368e-17)
(1526.11 -127.521 3.98188e-20)
(1588.72 -202.12 3.84114e-20)
(1635.1 -289.577 0)
(1671.11 -396.065 -5.69001e-17)
(1708.52 -502.612 6.35682e-17)
(1726.32 -642.059 0)
(1723.82 -749.424 -1.07485e-16)
(1640.86 -818.694 1.07619e-16)
(1478.29 -727.064 7.59856e-21)
(927.439 -358.24 -1.70301e-16)
(1001.94 375.066 3.87576e-20)
(1485.58 672.303 0)
(1652.81 761.219 0)
(1711.81 740.6 -5.04648e-17)
(1713.65 667.79 5.24624e-17)
(1707.68 555.524 0)
(1686.9 452.187 5.97272e-17)
(1669.21 344.749 -5.5494e-17)
(1640.5 253.166 3.1224e-17)
(1595.43 168.132 -3.01836e-17)
(1540.84 97.0235 1.61519e-17)
(1495.25 42.932 -1.60582e-17)
(1478.22 -0.557963 0)
(1495.27 -44.895 -1.58961e-17)
(1541.03 -99.4539 1.61695e-17)
(1596.09 -171.902 -3.27705e-20)
(1642.79 -258.663 -3.17213e-20)
(1673.03 -351.606 5.29976e-20)
(1693.33 -462.519 5.30444e-17)
(1719.03 -560.97 -5.81847e-17)
(1731.43 -680.606 -4.85809e-20)
(1722.16 -747.026 -4.8173e-20)
(1649.02 -771.981 0)
(1474.26 -672.178 -6.21243e-20)
(960.026 -371.895 3.86855e-20)
(1031.41 401.227 1.42226e-22)
(1502.22 617.936 0)
(1662.78 702.802 1.01047e-22)
(1708.74 727.592 4.71812e-20)
(1716.68 669.609 -9.22774e-23)
(1719.21 588.877 -5.31063e-17)
(1711.47 495.222 4.99195e-17)
(1705.06 390.482 0)
(1687.45 294.438 -5.79608e-20)
(1655.32 203.011 -1.01059e-22)
(1613.29 122.705 -1.03387e-22)
(1577.4 56.3985 6.19507e-20)
(1563.45 -0.668481 0)
(1576.49 -57.7931 0)
(1611.77 -123.664 -1.02788e-22)
(1654.51 -204.111 -1.00371e-22)
(1688.15 -295.71 -2.6157e-17)
(1708.72 -391.637 7.82215e-17)
(1717.13 -498.887 -5.37847e-17)
(1732.54 -589.942 0)
(1733.15 -678.837 -4.67345e-17)
(1719.79 -733.473 4.76605e-17)
(1671.12 -700.667 9.9951e-23)
(1507.17 -623.824 5.72938e-20)
(1041.21 -407.432 1.40219e-22)
(1105.33 411.337 2.76858e-18)
(1528.52 568.798 1.01783e-17)
(1667.17 648.087 1.07971e-16)
(1702.74 698.553 -4.64668e-17)
(1720.44 659.367 4.76336e-17)
(1734.4 596.555 -4.8833e-17)
(1738.48 519.777 4.73171e-17)
(1741.76 422.013 -2.55755e-17)
(1731.72 326.755 2.44339e-17)
(1708.46 230.352 1.06918e-22)
(1676.32 143.044 1.09129e-22)
(1649.7 67.5549 -1.10142e-22)
(1639.32 0.279332 6.62242e-18)
(1649.96 -67.6195 6.46614e-18)
(1676.88 -143.178 -1.34501e-17)
(1709.47 -230.287 1.06274e-22)
(1733.46 -327.113 4.85367e-17)
(1746.17 -422.654 -9.83881e-17)
(1744.76 -523.825 4.97781e-17)
(1747.35 -600.484 0)
(1737.01 -669.245 -8.93404e-23)
(1711.19 -706.492 8.95336e-23)
(1673.77 -654.514 -9.36943e-23)
(1532.82 -555.44 -1.15744e-16)
(1096.14 -395.469 1.34447e-16)
(1157.38 414.846 1.28127e-19)
(1531.38 513.559 0)
(1660.11 587.224 0)
(1703.37 640.778 4.56366e-20)
(1727.54 640.097 9.01397e-20)
(1744.38 590.093 0)
(1760.84 525.517 4.65701e-17)
(1771.55 439.6 -4.5441e-17)
(1770.38 347.053 4.37443e-20)
(1756.03 250.161 -4.44219e-20)
(1733.05 157.263 -1.23842e-17)
(1713.51 73.635 1.22336e-17)
(1705.72 -3.10137 3.16617e-18)
(1713.72 -80.4535 -3.08908e-18)
(1733.28 -164.176 1.19957e-17)
(1756.45 -256.354 -3.56301e-17)
(1771.31 -352.958 2.40829e-17)
(1774.72 -445.661 -4.75025e-20)
(1766.32 -532.151 4.29808e-20)
(1757.51 -597.76 -4.55209e-17)
(1742.58 -648.862 -2.1738e-18)
(1716.42 -647.201 -4.7222e-18)
(1668.73 -592.394 4.59854e-17)
(1523.01 -513.985 5.42928e-20)
(1131.66 -411.612 6.29018e-20)
(1161.23 405.574 1.20839e-16)
(1520.72 462.151 -1.1006e-16)
(1640.17 510.609 0)
(1704.89 574.102 -4.34687e-17)
(1725.3 608.27 3.62874e-18)
(1760.41 578.906 4.47271e-17)
(1778.19 525.411 4.35108e-17)
(1795.82 451.19 -4.30814e-17)
(1801.35 364.493 -4.55723e-20)
(1795.36 268.447 -2.27132e-17)
(1781.53 173.138 1.08234e-17)
(1768.81 84.2982 1.12067e-17)
(1763.26 0.792532 -4.75445e-20)
(1768.49 -83.1744 0)
(1781.16 -171.777 0)
(1795.74 -265.998 0)
(1803.55 -361.766 4.51908e-20)
(1800.62 -449.51 1.01302e-20)
(1785.44 -526.891 -5.33926e-20)
(1771.27 -581.433 0)
(1735.83 -614.362 4.29212e-20)
(1713.16 -592.897 1.12593e-20)
(1643.88 -515.776 -5.81447e-20)
(1521.85 -440.165 -1.0903e-16)
(1173.75 -393.488 1.17674e-16)
(1175.38 384.377 5.58902e-17)
(1511.29 409.103 -1.05649e-16)
(1610.91 430.603 9.44009e-17)
(1704.07 482.228 -5.01336e-17)
(1727.72 546.118 -4.13237e-17)
(1770.12 551.809 4.36569e-17)
(1794.89 515.098 2.04882e-17)
(1817.49 447.847 -2.05805e-17)
(1831.08 367.622 1.03889e-17)
(1831.52 275.666 -2.07447e-17)
(1823.65 179.19 1.55972e-17)
(1815.84 87.1192 -6.54235e-18)
(1812.65 -0.833746 1.31162e-18)
(1816.34 -89.4869 -3.88822e-20)
(1824.39 -182.168 2.06079e-17)
(1832.43 -278.334 -2.10756e-17)
(1833.17 -369.957 3.86323e-20)
(1821.58 -450.708 4.11061e-17)
(1801.73 -517.836 8.79329e-19)
(1780.71 -557.719 -4.07498e-17)
(1736.05 -557.687 0)
(1712.86 -486.548 5.10273e-17)
(1603.35 -425.264 -4.43206e-17)
(1503.45 -407.239 -1.08002e-16)
(1173.4 -368.955 -2.85134e-18)
(1193.65 341.053 -5.20971e-17)
(1502.01 350.502 5.36349e-17)
(1588.75 332.985 2.40337e-20)
(1678.3 377.185 -6.62791e-20)
(1725.06 493.861 1.9614e-20)
(1770.24 519.989 3.89249e-17)
(1805.79 493.489 -2.16964e-17)
(1831.55 436.718 -1.97671e-17)
(1849.84 362.442 3.98678e-20)
(1858.75 277.356 -4.02918e-20)
(1858.73 183.39 1.83133e-20)
(1855.82 88.9418 -1.82951e-20)
(1853.93 -3.58262 0)
(1855.43 -96.3306 4.05003e-21)
(1858.31 -190.19 -9.68044e-18)
(1858.71 -283.146 9.9014e-18)
(1850.73 -367.757 -1.95694e-17)
(1834.28 -441.908 -2.42741e-19)
(1810.9 -498.841 1.94716e-17)
(1780.29 -522.105 -5.90665e-20)
(1733.19 -493.409 -4.66699e-17)
(1676.17 -377.8 4.12205e-17)
(1584.17 -334.471 0)
(1485.41 -361.081 -5.33757e-17)
(1171.81 -343.341 5.11214e-17)
(1179.18 286.051 0)
(1479.22 304.029 -5.01744e-17)
(1571.63 287.234 4.75893e-17)
(1629.8 282.08 2.1013e-20)
(1723.97 389.05 1.99634e-20)
(1773.38 465.774 -3.72161e-17)
(1819.38 470.326 4.00361e-17)
(1847.19 427.979 1.83294e-17)
(1867.55 357.564 -1.61161e-19)
(1880.14 276.636 -1.8451e-17)
(1886.28 186.55 -1.88939e-20)
(1887.71 93.5454 2.11216e-20)
(1887.92 1.07192 0)
(1887.96 -92.42 3.78402e-20)
(1886.39 -186.438 -1.88311e-20)
(1880.48 -276.673 9.19757e-18)
(1868.48 -358.076 -9.16441e-18)
(1849.59 -430.147 -1.85158e-20)
(1823.05 -474.896 -2.08473e-20)
(1779.63 -471.087 1.91494e-20)
(1736.33 -393.358 -4.84281e-17)
(1633.52 -277.17 -7.01429e-18)
(1570.87 -291.322 4.60868e-17)
(1477.95 -312.835 0)
(1175.5 -292.403 5.23162e-17)
(1171.12 248.478 -9.9723e-17)
(1460.64 271.025 5.08961e-17)
(1556.24 269.209 4.57926e-17)
(1608.78 197.895 -4.47922e-17)
(1703.01 272.86 0)
(1774.97 399.37 -2.3156e-21)
(1824.98 431.541 0)
(1861.74 407.396 -2.20731e-21)
(1885.41 347.924 -2.19033e-21)
(1900.83 269.988 0)
(1909.53 182.14 0)
(1912.68 90.6268 -2.20368e-21)
(1913.25 -2.32234 0)
(1912.21 -94.921 0)
(1909.14 -185.932 -8.66084e-18)
(1900.63 -273.107 8.64024e-18)
(1885.68 -351.07 -2.19126e-21)
(1862.93 -410.938 -1.84735e-17)
(1826.82 -438.197 1.74529e-17)
(1773.72 -406.038 0)
(1702.9 -274.313 4.7559e-17)
(1616.08 -194.94 -8.52055e-17)
(1554.61 -271.747 9.18849e-17)
(1451.24 -276.826 2.94215e-18)
(1147.78 -236.424 -4.79506e-17)
(1140.97 205.546 1.21667e-20)
(1419.79 213.008 -1.1881e-20)
(1539.5 230.612 0)
(1602.42 145.111 0)
(1656.5 165.416 0)
(1769.11 307.673 9.74545e-21)
(1820.54 388.018 0)
(1865.96 383.12 -8.30023e-21)
(1893.74 333.953 0)
(1912.41 263.199 -7.9508e-21)
(1924.17 179.872 0)
(1931.1 91.1241 -2.05636e-18)
(1932.92 -1.58062 2.04133e-18)
(1930.65 -95.558 0)
(1923.06 -184.766 8.26132e-18)
(1910.98 -267.466 -1.66436e-17)
(1892.7 -338.125 8.27423e-18)
(1865.2 -386.412 0)
(1822.95 -387.682 1.96278e-17)
(1770.67 -304.992 -1.73122e-17)
(1647.47 -166.742 4.43585e-17)
(1596.7 -141.842 -4.14447e-17)
(1529.35 -227.883 0)
(1397.85 -216.437 0)
(1123.78 -205.459 0)
(1059.05 164.715 -1.0617e-20)
(1343.9 147.506 1.09697e-20)
(1503.16 162.203 0)
(1584.78 104.765 0)
(1633.18 77.6221 0)
(1729.52 182.827 -8.90529e-21)
(1815.27 325.284 0)
(1865.34 354.679 7.92122e-21)
(1897.89 322.269 0)
(1919.17 257.64 -7.78087e-18)
(1933.9 177.188 7.8871e-18)
(1942.15 89.3358 -7.42822e-21)
(1944.59 -0.349408 7.53821e-21)
(1941.63 -89.4157 7.42972e-21)
(1933.24 -177.762 0)
(1918.47 -258.418 0)
(1897.3 -323.354 7.79777e-21)
(1864.58 -359.077 -1.75077e-17)
(1815.23 -336.257 1.60905e-17)
(1733.82 -187.212 0)
(1629.63 -71.6546 9.74029e-21)
(1581.72 -103.375 0)
(1502.6 -158.85 0)
(1346.92 -145.228 0)
(1063.3 -159.124 0)
(993.828 131.464 -3.69788e-17)
(1312.7 102.679 4.39003e-17)
(1483.82 108.065 0)
(1579.86 65.4131 -2.01256e-20)
(1634.91 22.2089 0)
(1703.1 80.5141 -1.62036e-17)
(1808.37 240.423 3.62375e-17)
(1858.75 314.645 -1.73678e-17)
(1895.24 298.344 -7.38983e-18)
(1920.29 243.413 7.61389e-18)
(1935.01 167.725 3.65865e-21)
(1942.15 83.8464 9.37215e-19)
(1944.37 -1.46981 -8.54506e-19)
(1941.53 -87.2046 7.20683e-18)
(1934.2 -170.857 -7.26854e-18)
(1919.17 -246.211 0)
(1893.71 -300.104 -1.48554e-20)
(1857.01 -318.265 0)
(1801.08 -240.41 0)
(1695.22 -78.1914 -2.09433e-17)
(1636.14 -22.0785 1.86059e-17)
(1575.18 -64.9668 0)
(1476.92 -108.715 4.38333e-17)
(1299.97 -101 1.88506e-18)
(975.28 -126.198 -7.55486e-17)
(958.445 119.535 3.44858e-17)
(1299.7 81.8685 1.97116e-20)
(1474.85 80.3459 4.01967e-17)
(1579.11 39.8802 -2.11425e-17)
(1645.8 -9.50971 -1.9641e-17)
(1697.06 11.0699 0)
(1788.65 158.8 7.24763e-21)
(1845.06 274.106 1.46201e-17)
(1883.84 275.966 -1.57367e-17)
(1907.74 227.285 0)
(1925.62 158.649 0)
(1935.41 80.2794 -2.06925e-20)
(1938.44 -1.82352 2.65086e-20)
(1934.88 -84.4896 1.39304e-20)
(1924.83 -162.961 3.61476e-18)
(1906.81 -230.935 -3.561e-18)
(1882.67 -278.134 7.19249e-21)
(1845.82 -271.306 1.77462e-17)
(1790.21 -155.587 -3.57977e-17)
(1697.71 -11.6758 1.60221e-17)
(1646.87 9.68609 -1.88825e-20)
(1577.02 -39.6498 0)
(1470.13 -83.859 1.99675e-20)
(1291.01 -85.278 4.0848e-17)
(946.956 -119.91 -6.73225e-17)
(918.591 116.571 -3.06808e-17)
(1279.53 79.8514 -3.76159e-17)
(1464.44 73.6262 4.04061e-17)
(1575.17 30.9752 1.9196e-17)
(1647.99 -23.3933 -1.91806e-17)
(1699.96 -30.3018 0)
(1767.21 76.8801 3.62513e-21)
(1829.33 221.361 -1.11164e-20)
(1866.2 252.997 6.98701e-18)
(1891.72 214.728 -1.42944e-17)
(1909.01 151.782 7.13254e-18)
(1919.72 78.331 1.72251e-18)
(1923.84 0.0745608 -1.61349e-18)
(1919.81 -78.5416 1.62198e-18)
(1908.59 -152.344 -1.74126e-18)
(1890.97 -215.615 0)
(1865.22 -255.911 1.05686e-20)
(1827.77 -228.479 -3.78885e-21)
(1767.81 -89.2128 -2.02305e-17)
(1700.2 28.5066 1.58904e-17)
(1645.38 23.5303 0)
(1575.93 -31.592 0)
(1466.46 -76.6074 -4.82731e-21)
(1284.87 -78.6138 -3.88253e-17)
(925.728 -118.058 -4.59441e-19)
(907.525 113.797 -1.40321e-17)
(1275.63 71.9547 1.8707e-17)
(1461.27 72.4116 4.69503e-21)
(1573.75 28.4614 0)
(1644.28 -25.7711 1.77647e-17)
(1694.49 -51.8458 -1.84172e-17)
(1751.31 36.3992 3.99023e-21)
(1805.52 176.854 3.57808e-21)
(1842.21 223.783 1.38221e-20)
(1868.16 196.834 -1.67641e-18)
(1885.68 140.32 8.86059e-19)
(1896.54 71.7985 1.65769e-18)
(1900.31 -1.72435 -8.45544e-19)
(1896.2 -75.4529 3.40731e-18)
(1884.64 -143.984 -3.3537e-18)
(1866.69 -200.15 0)
(1841.04 -226.786 1.04329e-20)
(1803.02 -175.626 -1.81106e-17)
(1745.94 -34.7843 1.43411e-17)
(1690.05 47.7599 4.37891e-21)
(1640.7 23.001 0)
(1572.05 -32.1824 0)
(1457.29 -75.6323 4.68911e-21)
(1267.83 -73.4619 -3.72073e-17)
(897.56 -112.588 2.7919e-17)
(897.216 108.194 1.32563e-20)
(1258.84 59.9501 0)
(1452.57 69.5282 -9.17382e-21)
(1567.67 29.3649 -1.79536e-17)
(1635.03 -18.2732 1.78057e-17)
(1671.2 -60.9964 -1.60337e-17)
(1717.28 -6.91234 1.89807e-17)
(1775.67 140.843 -6.75084e-18)
(1812.92 198.794 7.60931e-18)
(1838.2 179.607 -3.24215e-18)
(1854.19 129.196 3.32885e-18)
(1863.83 66.1307 -1.58791e-18)
(1867.05 -1.72209 1.82207e-18)
(1863.45 -69.6462 -2.14254e-19)
(1853.34 -132.496 3.33257e-18)
(1837.33 -182.373 -6.69456e-18)
(1812.36 -201.299 -4.32579e-18)
(1776.81 -142.181 6.7301e-18)
(1719 6.83319 1.60264e-20)
(1668.53 60.9983 -8.7206e-21)
(1630.76 15.1623 0)
(1565.62 -33.8613 0)
(1448.72 -72.7788 0)
(1252.28 -60.6785 -1.80876e-17)
(891.214 -106.688 1.32287e-17)
(897.251 110.649 -1.62164e-21)
(1208.53 49.8439 0)
(1425.82 61.5019 1.12576e-20)
(1548.34 27.0616 -8.82664e-21)
(1607.55 -14.2527 -8.62215e-21)
(1642.05 -60.3147 0)
(1667.86 -44.2059 -7.83856e-21)
(1739.01 86.1715 6.77841e-18)
(1779.93 176.251 -7.76866e-18)
(1807.25 169.418 0)
(1823.24 123.74 1.59865e-21)
(1832.05 64.0991 0)
(1834.87 -0.347845 0)
(1831.83 -65.0695 1.60355e-18)
(1822.74 -125.37 -1.59069e-18)
(1806.45 -172.498 -6.31114e-21)
(1777.98 -181.757 -1.74981e-21)
(1737.16 -93.1131 7.10166e-21)
(1663.78 42.6485 -9.02801e-18)
(1637.83 62.3548 8.11058e-18)
(1603.48 12.5131 -1.78654e-17)