/*--------------------------------*- C++ -*----------------------------------*\
| =========                 |                                                 |
| \\      /  F ield         | OpenFOAM: The Open Source CFD Toolbox           |
|  \\    /   O peration     | Version:  2112                                  |
|   \\  /    A nd           | Website:  www.openfoam.com                      |
|    \\/     M anipulation  |                                                 |
\*---------------------------------------------------------------------------*/
FoamFile
{
    version     2.0;
    format      ascii;
    arch        "LSB;label=32;scalar=64";
    class       volScalarField;
    location    "0.0083";
    object      epsilon;
}
// * * * * * * * * * * * * * * * * * * * * * * * * * * * * * * * * * * * * * //

dimensions      [0 2 -3 0 0 0 0];

internalField   nonuniform List<scalar> 
13875
(
1.16003e+06
2.94631e+07
3.28261e+07
3.28396e+07
3.29044e+07
3.28514e+07
3.28977e+07
3.29154e+07
3.29107e+07
3.2919e+07
3.29086e+07
3.29035e+07
3.28714e+07
3.28443e+07
3.28613e+07
3.29108e+07
3.29485e+07
3.29128e+07
3.28931e+07
3.28608e+07
3.28992e+07
3.28305e+07
3.28021e+07
2.94755e+07
1.17839e+06
1.31389e+06
2.27477e+07
2.53569e+07
2.52386e+07
2.5277e+07
2.52259e+07
2.52317e+07
2.52438e+07
2.52242e+07
2.52226e+07
2.52253e+07
2.52446e+07
2.5212e+07
2.51944e+07
2.52009e+07
2.52503e+07
2.52462e+07
2.52363e+07
2.5225e+07
2.52291e+07
2.52695e+07
2.52198e+07
2.53268e+07
2.27546e+07
1.34276e+06
1.57303e+06
1.97065e+07
2.18307e+07
2.16263e+07
2.16943e+07
2.16454e+07
2.15682e+07
2.15549e+07
2.15211e+07
2.1506e+07
2.15024e+07
2.15409e+07
2.161e+07
2.16035e+07
2.15975e+07
2.15474e+07
2.15319e+07
2.15303e+07
2.15484e+07
2.16409e+07
2.16832e+07
2.16019e+07
2.17887e+07
1.96926e+07
1.58499e+06
1.81372e+06
1.7385e+07
1.90384e+07
1.8879e+07
1.89629e+07
1.89164e+07
1.88295e+07
1.88144e+07
1.87875e+07
1.87668e+07
1.87589e+07
1.87814e+07
1.88869e+07
1.88813e+07
1.88768e+07
1.87877e+07
1.87942e+07
1.87801e+07
1.88064e+07
1.89151e+07
1.8952e+07
1.88579e+07
1.90134e+07
1.73689e+07
1.82065e+06
2.02279e+06
1.54521e+07
1.67721e+07
1.662e+07
1.67e+07
1.66585e+07
1.65692e+07
1.65655e+07
1.65419e+07
1.65197e+07
1.65176e+07
1.65282e+07
1.66285e+07
1.6628e+07
1.66199e+07
1.65337e+07
1.65476e+07
1.65307e+07
1.65526e+07
1.66547e+07
1.66901e+07
1.6605e+07
1.67436e+07
1.54327e+07
2.03602e+06
2.20649e+06
1.37119e+07
1.49278e+07
1.47376e+07
1.48289e+07
1.47759e+07
1.46794e+07
1.46828e+07
1.46615e+07
1.4638e+07
1.46409e+07
1.4642e+07
1.47391e+07
1.47429e+07
1.47321e+07
1.46467e+07
1.46677e+07
1.46476e+07
1.46668e+07
1.47748e+07
1.48194e+07
1.47291e+07
1.49034e+07
1.38485e+07
2.2223e+06
2.42261e+06
1.22511e+07
1.34774e+07
1.32065e+07
1.32685e+07
1.32022e+07
1.30915e+07
1.30963e+07
1.30765e+07
1.3051e+07
1.30576e+07
1.30509e+07
1.3146e+07
1.3152e+07
1.31381e+07
1.30551e+07
1.30837e+07
1.30613e+07
1.30854e+07
1.32005e+07
1.3257e+07
1.32013e+07
1.34218e+07
1.19508e+07
2.42887e+06
2.66605e+06
1.06157e+07
1.23126e+07
1.19743e+07
1.19983e+07
1.18876e+07
1.17578e+07
1.17554e+07
1.17334e+07
1.17054e+07
1.17165e+07
1.17013e+07
1.17955e+07
1.18046e+07
1.17882e+07
1.17051e+07
1.1743e+07
1.17205e+07
1.17514e+07
1.18843e+07
1.19813e+07
1.19655e+07
1.22649e+07
1.05428e+07
2.69462e+06
3.49649e+06
1.02129e+07
1.14825e+07
1.10288e+07
1.09379e+07
1.07863e+07
1.06302e+07
1.06226e+07
1.05984e+07
1.05663e+07
1.05826e+07
1.056e+07
1.06529e+07
1.0665e+07
1.06475e+07
1.0566e+07
1.06087e+07
1.05863e+07
1.06248e+07
1.07802e+07
1.09225e+07
1.10214e+07
1.14752e+07
1.03374e+07
3.57504e+06
6.83598e+06
1.22212e+07
1.11977e+07
1.04271e+07
1.01635e+07
9.92635e+06
9.75812e+06
9.73755e+06
9.70875e+06
9.6766e+06
9.69472e+06
9.66854e+06
9.75597e+06
9.77035e+06
9.75343e+06
9.6833e+06
9.71968e+06
9.70816e+06
9.74522e+06
9.91511e+06
1.01432e+07
1.03599e+07
1.11618e+07
1.21305e+07
6.8947e+06
1.49143e+07
1.86807e+07
1.20477e+07
1.03192e+07
9.613e+06
9.31792e+06
9.13556e+06
9.07878e+06
9.03738e+06
9.00569e+06
9.02199e+06
8.99495e+06
9.07325e+06
9.09013e+06
9.07883e+06
9.02868e+06
9.05614e+06
9.06166e+06
9.12384e+06
9.28524e+06
9.60858e+06
1.02672e+07
1.18774e+07
1.79391e+07
1.49998e+07
2.54621e+07
6.87063e+07
1.81643e+07
1.07018e+07
9.70156e+06
9.01158e+06
8.71927e+06
8.61733e+06
8.55282e+06
8.52033e+06
8.52946e+06
8.50504e+06
8.56798e+06
8.5876e+06
8.58513e+06
8.55651e+06
8.58069e+06
8.61075e+06
8.70258e+06
9.01707e+06
9.65374e+06
1.05516e+07
1.75752e+07
6.72491e+07
2.50338e+07
2.65769e+07
7.57444e+07
8.69111e+07
2.41298e+07
1.09463e+07
9.1271e+06
8.74387e+06
8.46281e+06
8.33819e+06
8.28287e+06
8.27251e+06
8.24782e+06
8.29151e+06
8.313e+06
8.3242e+06
8.32626e+06
8.38041e+06
8.4918e+06
8.76225e+06
9.15372e+06
1.12974e+07
2.26201e+07
8.08248e+07
7.64607e+07
2.6081e+07
2.6345e+07
5.50198e+07
7.97765e+07
1.04835e+08
5.80841e+07
1.31181e+07
9.65643e+06
8.83178e+06
8.5791e+06
8.55201e+06
8.54103e+06
8.52217e+06
8.55519e+06
8.57515e+06
8.59533e+06
8.616e+06
8.65457e+06
8.88625e+06
9.94847e+06
1.44994e+07
6.58063e+07
9.10546e+07
7.52855e+07
5.44602e+07
2.57534e+07
2.53282e+07
4.24697e+07
5.80798e+07
7.26103e+07
7.5444e+07
7.5112e+07
2.35405e+07
1.31145e+07
1.10976e+07
1.03845e+07
1.00969e+07
9.99264e+06
9.99239e+06
1.00219e+07
1.01064e+07
1.03423e+07
1.10309e+07
1.31834e+07
2.61983e+07
7.7514e+07
7.51023e+07
6.60494e+07
5.65666e+07
4.22051e+07
2.64121e+07
2.4702e+07
3.34779e+07
4.33443e+07
5.43486e+07
5.93731e+07
6.79745e+07
5.11827e+07
4.55091e+07
4.14817e+07
3.25492e+07
3.45086e+07
3.56071e+07
3.63927e+07
3.61075e+07
3.49644e+07
3.30077e+07
4.02773e+07
4.91243e+07
5.20094e+07
6.86692e+07
5.82301e+07
5.0508e+07
4.25983e+07
3.33941e+07
2.57914e+07
2.00411e+07
2.52161e+07
3.22585e+07
4.19964e+07
4.95876e+07
6.20016e+07
7.07342e+07
7.04218e+07
5.73762e+07
4.95801e+07
5.21851e+07
5.49136e+07
5.6504e+07
5.58817e+07
5.30194e+07
5.32048e+07
5.78859e+07
7.0554e+07
7.07065e+07
6.13711e+07
4.72145e+07
3.90588e+07
3.08975e+07
2.45048e+07
1.9938e+07
1.48131e+07
1.9083e+07
2.64001e+07
3.73182e+07
4.54635e+07
5.30412e+07
6.38438e+07
6.86204e+07
5.12601e+07
3.82956e+07
3.52779e+07
3.55664e+07
3.62348e+07
3.59128e+07
3.58605e+07
4.14904e+07
5.17108e+07
6.47176e+07
6.27389e+07
5.40384e+07
4.52755e+07
3.602e+07
2.53471e+07
1.85491e+07
1.45152e+07
1.21883e+07
1.66298e+07
2.38232e+07
3.71542e+07
4.7818e+07
4.62524e+07
4.93831e+07
5.4817e+07
4.54014e+07
3.41543e+07
2.87792e+07
2.7246e+07
2.70799e+07
2.75555e+07
2.95098e+07
3.5495e+07
4.39169e+07
5.12639e+07
4.88283e+07
4.78347e+07
5.04309e+07
3.69973e+07
2.35309e+07
1.64107e+07
1.20434e+07
1.1559e+07
1.80689e+07
2.4783e+07
3.70786e+07
4.36531e+07
3.92749e+07
3.87958e+07
4.23612e+07
3.8807e+07
3.13348e+07
2.55512e+07
2.24031e+07
2.14325e+07
2.29162e+07
2.66224e+07
3.21204e+07
3.69884e+07
3.97234e+07
3.85902e+07
4.0678e+07
4.50733e+07
3.63221e+07
2.47073e+07
1.82337e+07
1.16814e+07
2.9987e+07
5.78315e+07
4.38046e+07
3.22511e+07
3.47171e+07
3.16658e+07
3.10347e+07
3.39111e+07
3.28849e+07
2.77154e+07
2.22063e+07
1.84644e+07
1.72562e+07
1.92478e+07
2.35307e+07
2.83235e+07
3.12096e+07
3.19789e+07
3.10188e+07
3.2754e+07
3.56893e+07
3.30179e+07
4.90086e+07
6.42726e+07
3.83892e+07
9.31167e+07
3.04234e+08
5.90634e+07
2.60692e+07
2.74652e+07
2.57401e+07
2.54027e+07
2.78064e+07
2.77331e+07
2.39514e+07
1.9002e+07
1.52578e+07
1.40262e+07
1.60452e+07
2.02123e+07
2.43288e+07
2.62111e+07
2.63811e+07
2.53792e+07
2.65061e+07
2.80653e+07
2.69199e+07
6.59491e+07
2.9626e+08
1.07318e+08
1.06755e+08
2.19845e+08
4.86501e+07
2.17121e+07
2.22596e+07
2.1278e+07
2.1047e+07
2.30933e+07
2.3312e+07
2.03721e+07
1.60642e+07
1.26651e+07
1.14906e+07
1.328e+07
1.70218e+07
2.05798e+07
2.19319e+07
2.19729e+07
2.09998e+07
2.17058e+07
2.25729e+07
2.2314e+07
5.02426e+07
2.17927e+08
1.05053e+08
9.0364e+07
2.2072e+08
3.81986e+07
1.86135e+07
1.8315e+07
1.76728e+07
1.75516e+07
1.92274e+07
1.95593e+07
1.71527e+07
1.34166e+07
1.0489e+07
9.51517e+06
1.10647e+07
1.43184e+07
1.73916e+07
1.84061e+07
1.83239e+07
1.75651e+07
1.80208e+07
1.86164e+07
1.91781e+07
4.01216e+07
2.35448e+08
9.16633e+07
8.21803e+07
2.12019e+08
3.20334e+07
1.62703e+07
1.54594e+07
1.48767e+07
1.4846e+07
1.61521e+07
1.64725e+07
1.44756e+07
1.12949e+07
8.7929e+06
7.97494e+06
9.28889e+06
1.20997e+07
1.47236e+07
1.55248e+07
1.53982e+07
1.48407e+07
1.51575e+07
1.57711e+07
1.67905e+07
3.41864e+07
2.33448e+08
8.45876e+07
7.5808e+07
2.05634e+08
2.77369e+07
1.42362e+07
1.32724e+07
1.26559e+07
1.27103e+07
1.3688e+07
1.39328e+07
1.22654e+07
9.58412e+06
7.45042e+06
6.75478e+06
7.85721e+06
1.02394e+07
1.24597e+07
1.31359e+07
1.30154e+07
1.26168e+07
1.28207e+07
1.35388e+07
1.4622e+07
2.94641e+07
2.24648e+08
7.88911e+07
7.18872e+07
1.83294e+08
2.35933e+07
1.24954e+07
1.15627e+07
1.0894e+07
1.09723e+07
1.16716e+07
1.17906e+07
1.03665e+07
8.14091e+06
6.36467e+06
5.78459e+06
6.73166e+06
8.76205e+06
1.06263e+07
1.12247e+07
1.11352e+07
1.08574e+07
1.10233e+07
1.18491e+07
1.28932e+07
2.55698e+07
2.02244e+08
7.57095e+07
6.80685e+07
1.67144e+08
2.08711e+07
1.11096e+07
1.02145e+07
9.51426e+06
9.57268e+06
1.00601e+07
1.00787e+07
8.85617e+06
6.99818e+06
5.4973e+06
4.99951e+06
5.80352e+06
7.51498e+06
9.08493e+06
9.63567e+06
9.59553e+06
9.42629e+06
9.60248e+06
1.04444e+07
1.14359e+07
2.27054e+07
1.87343e+08
7.0933e+07
6.30239e+07
1.56962e+08
1.88927e+07
9.95916e+06
9.10647e+06
8.4481e+06
8.4287e+06
8.73869e+06
8.67273e+06
7.61554e+06
6.06653e+06
4.79406e+06
4.36018e+06
5.04042e+06
6.47307e+06
7.78416e+06
8.31215e+06
8.32969e+06
8.25169e+06
8.45976e+06
9.25779e+06
1.02164e+07
2.00801e+07
1.63462e+08
6.69344e+07
5.85191e+07
1.39739e+08
1.72174e+07
9.01524e+06
8.13042e+06
7.5515e+06
7.48675e+06
7.62798e+06
7.47183e+06
6.54627e+06
5.2606e+06
4.19963e+06
3.83291e+06
4.42842e+06
5.65571e+06
6.76149e+06
7.24615e+06
7.30723e+06
7.3153e+06
7.54502e+06
8.25656e+06
9.24255e+06
1.83638e+07
1.48141e+08
6.30221e+07
5.43985e+07
1.20978e+08
1.58462e+07
8.27285e+06
7.31241e+06
6.79477e+06
6.70638e+06
6.72521e+06
6.51036e+06
5.69723e+06
4.62094e+06
3.71748e+06
3.39673e+06
3.90824e+06
4.94689e+06
5.87466e+06
6.34083e+06
6.45389e+06
6.53563e+06
6.76224e+06
7.37052e+06
8.44068e+06
1.66487e+07
1.27638e+08
5.87449e+07
5.07695e+07
1.08273e+08
1.48085e+07
7.70456e+06
6.61208e+06
6.13703e+06
6.04116e+06
5.97971e+06
5.72582e+06
5.00674e+06
4.09211e+06
3.31392e+06
3.03184e+06
3.47133e+06
4.36158e+06
5.1561e+06
5.59384e+06
5.74542e+06
5.87329e+06
6.08383e+06
6.63091e+06
7.81213e+06
1.52713e+07
1.10542e+08
5.45833e+07
4.73505e+07
9.27323e+07
1.37115e+07
7.25696e+06
6.02547e+06
5.57632e+06
5.451e+06
5.33646e+06
5.04366e+06
4.40442e+06
3.63227e+06
2.96895e+06
2.72557e+06
3.11436e+06
3.88642e+06
4.56474e+06
4.97641e+06
5.1576e+06
5.29908e+06
5.51346e+06
6.02755e+06
7.32166e+06
1.42509e+07
9.85374e+07
5.07017e+07
4.45008e+07
8.08022e+07
1.2712e+07
6.91129e+06
5.56183e+06
5.09937e+06
4.93086e+06
4.79663e+06
4.48941e+06
3.91988e+06
3.25734e+06
2.67931e+06
2.46423e+06
2.80135e+06
3.47227e+06
4.06074e+06
4.44509e+06
4.64982e+06
4.79256e+06
5.02125e+06
5.53816e+06
6.92127e+06
1.32911e+07
8.54743e+07
4.71246e+07
4.19245e+07
7.20568e+07
1.17246e+07
6.61063e+06
5.23504e+06
4.68118e+06
4.48701e+06
4.33193e+06
4.02186e+06
3.50946e+06
2.93899e+06
2.4328e+06
2.24245e+06
2.53744e+06
3.12169e+06
3.63372e+06
3.99459e+06
4.20677e+06
4.35909e+06
4.60844e+06
5.17822e+06
6.61244e+06
1.22207e+07
7.48698e+07
4.4297e+07
3.92684e+07
6.38528e+07
1.08041e+07
6.34682e+06
4.98781e+06
4.32925e+06
4.09427e+06
3.91424e+06
3.61449e+06
3.15513e+06
2.65824e+06
2.21632e+06
2.04978e+06
2.31262e+06
2.83325e+06
3.28369e+06
3.61347e+06
3.81926e+06
3.98896e+06
4.25596e+06
4.92005e+06
6.35239e+06
1.13088e+07
6.72904e+07
4.18198e+07
3.72264e+07
5.77596e+07
1.00207e+07
6.21959e+06
4.81345e+06
4.04159e+06
3.76502e+06
3.55852e+06
3.26799e+06
2.85849e+06
2.42404e+06
2.03281e+06
1.88394e+06
2.11476e+06
2.57433e+06
2.97071e+06
3.27587e+06
3.47948e+06
3.66292e+06
3.95858e+06
4.72373e+06
6.17951e+06
1.03592e+07
5.93745e+07
3.93245e+07
3.52317e+07
5.37016e+07
9.30682e+06
6.06885e+06
4.69326e+06
3.83057e+06
3.47377e+06
3.24899e+06
2.97044e+06
2.60526e+06
2.22207e+06
1.87221e+06
1.73862e+06
1.94213e+06
2.353e+06
2.70449e+06
2.98113e+06
3.18625e+06
3.37844e+06
3.74105e+06
4.59824e+06
6.0515e+06
9.51015e+06
5.41698e+07
3.74127e+07
3.30446e+07
4.89664e+07
8.5337e+06
5.77189e+06
4.64241e+06
3.67719e+06
3.23158e+06
2.98103e+06
2.70633e+06
2.37753e+06
2.0401e+06
1.73027e+06
1.61202e+06
1.79559e+06
2.16445e+06
2.4758e+06
2.7308e+06
2.93491e+06
3.14102e+06
3.57827e+06
4.54144e+06
5.82478e+06
8.78586e+06
5.12375e+07
3.54361e+07
3.12701e+07
4.56016e+07
7.85914e+06
5.4579e+06
4.66308e+06
3.57276e+06
3.04168e+06
2.75455e+06
2.48452e+06
2.18644e+06
1.88536e+06
1.60572e+06
1.49921e+06
1.66188e+06
1.99416e+06
2.27258e+06
2.50726e+06
2.71921e+06
2.9568e+06
3.46833e+06
4.50661e+06
5.48143e+06
8.12776e+06
4.84366e+07
3.31051e+07
2.98335e+07
4.27986e+07
7.45474e+06
5.15096e+06
4.70997e+06
3.52476e+06
2.89978e+06
2.5725e+06
2.29531e+06
2.01902e+06
1.74844e+06
1.49557e+06
1.3997e+06
1.54516e+06
1.84348e+06
2.09506e+06
2.31838e+06
2.54136e+06
2.82307e+06
3.40007e+06
4.62755e+06
5.18178e+06
7.6372e+06
4.56323e+07
3.12496e+07
2.84656e+07
4.01095e+07
6.93327e+06
4.79156e+06
4.57471e+06
3.51386e+06
2.7882e+06
2.43244e+06
2.13443e+06
1.87067e+06
1.62439e+06
1.39561e+06
1.30999e+06
1.4418e+06
1.71561e+06
1.94464e+06
2.16078e+06
2.40278e+06
2.71389e+06
3.40041e+06
4.61649e+06
4.90785e+06
7.7538e+06
4.24696e+07
2.97556e+07
2.73452e+07
3.77698e+07
6.56634e+06
4.44755e+06
4.33876e+06
3.62031e+06
2.71955e+06
2.32416e+06
2.0074e+06
1.745e+06
1.51706e+06
1.30792e+06
1.22999e+06
1.34815e+06
1.59718e+06
1.80973e+06
2.02744e+06
2.29661e+06
2.63855e+06
3.45575e+06
4.39905e+06
4.54823e+06
7.15149e+06
3.97377e+07
2.84177e+07
2.64277e+07
3.54883e+07
6.71149e+06
4.15259e+06
4.06262e+06
3.73549e+06
2.70877e+06
2.23457e+06
1.91095e+06
1.64148e+06
1.42381e+06
1.22893e+06
1.15744e+06
1.26394e+06
1.49392e+06
1.6957e+06
1.92265e+06
2.2126e+06
2.62566e+06
3.6536e+06
4.13472e+06
4.21615e+06
6.83874e+06
3.75363e+07
2.7395e+07
2.55131e+07
3.35782e+07
6.31022e+06
3.86266e+06
3.76782e+06
3.67862e+06
2.78747e+06
2.1742e+06
1.82918e+06
1.55769e+06
1.34211e+06
1.15863e+06
1.09304e+06
1.19117e+06
1.40744e+06
1.60564e+06
1.84158e+06
2.15478e+06
2.72448e+06
3.69639e+06
3.85209e+06
3.96341e+06
6.95906e+06
3.54098e+07
2.6545e+07
2.47069e+07
3.16348e+07
6.37385e+06
3.65174e+06
3.48278e+06
3.46723e+06
3.01171e+06
2.17638e+06
1.76796e+06
1.49572e+06
1.2801e+06
1.10004e+06
1.03702e+06
1.1283e+06
1.33759e+06
1.5366e+06
1.77497e+06
2.143e+06
2.93132e+06
3.49863e+06
3.56678e+06
3.71033e+06
6.79699e+06
3.34673e+07
2.57668e+07
2.39352e+07
2.98946e+07
6.50589e+06
3.51019e+06
3.23929e+06
3.24583e+06
3.07387e+06
2.31257e+06
1.7276e+06
1.44075e+06
1.23205e+06
1.05528e+06
989031
1.07989e+06
1.28396e+06
1.47936e+06
1.72662e+06
2.25421e+06
3.04195e+06
3.27732e+06
3.30806e+06
3.53953e+06
6.7924e+06
3.14764e+07
2.49719e+07
2.28325e+07
2.81065e+07
6.33422e+06
3.35962e+06
3.03187e+06
3.02132e+06
2.91028e+06
2.54395e+06
1.75462e+06
1.3948e+06
1.18959e+06
1.01935e+06
952335
1.04239e+06
1.24015e+06
1.43253e+06
1.74763e+06
2.48902e+06
2.91973e+06
3.04609e+06
3.09739e+06
3.46159e+06
6.87831e+06
2.92289e+07
2.38062e+07
2.15137e+07
2.61192e+07
6.23182e+06
3.26133e+06
2.85644e+06
2.80251e+06
2.73841e+06
2.6461e+06
1.90631e+06
1.37506e+06
1.15496e+06
989279
924996
1.0108e+06
1.20109e+06
1.40498e+06
1.87035e+06
2.6501e+06
2.75199e+06
2.81833e+06
2.90902e+06
3.36356e+06
6.60421e+06
2.70408e+07
2.24158e+07
1.86789e+07
2.32305e+07
6.0744e+06
3.17461e+06
2.70656e+06
2.6153e+06
2.56406e+06
2.52043e+06
2.1569e+06
1.44106e+06
1.13449e+06
962345
900324
981554
1.17484e+06
1.44596e+06
2.1249e+06
2.5706e+06
2.58156e+06
2.62315e+06
2.74471e+06
3.25551e+06
6.29449e+06
2.40399e+07
1.94581e+07
3.49636e+06
2.28206e+06
1.5301e+06
1.16918e+06
978435
880396
812229
741003
682585
629717
553110
467012
373565
294414
240629
206935
186055
173946
167054
161677
156485
150687
144769
139020
133591
127790
121878
115274
115877
179370
3.96691e+06
2.35977e+06
1.58343e+06
1.23658e+06
1.08126e+06
1.00398e+06
905076
796587
710925
637261
544454
446139
352406
279316
230578
199555
180538
169110
162109
156547
151115
145228
139288
133588
128231
122519
116729
110591
112045
174759
4.19285e+06
2.39967e+06
1.6475e+06
1.34256e+06
1.22284e+06
1.16503e+06
1.03816e+06
907687
796179
691389
574410
458883
356554
279630
228612
196787
176824
164810
156993
150881
145120
139165
132979
127415
122551
117011
111444
105912
108205
171514
4.53108e+06
2.54402e+06
1.79278e+06
1.5255e+06
1.42906e+06
1.37167e+06
1.2052e+06
1.04403e+06
904164
770252
628206
493050
378879
292510
234248
197980
175637
161913
152851
146002
139500
133435
128033
123087
118088
112707
107320
102207
105266
168612
5.04228e+06
2.7732e+06
2.0111e+06
1.76818e+06
1.69989e+06
1.63076e+06
1.4161e+06
1.22062e+06
1.05356e+06
886764
715587
553763
420159
318371
248856
204343
177148
160471
149644
141491
135013
129369
124375
119568
114469
109079
103745
98962.3
102647
166592
5.64213e+06
3.06442e+06
2.29509e+06
2.06983e+06
2.02363e+06
1.9404e+06
1.67046e+06
1.43875e+06
1.23827e+06
1.03448e+06
828452
635400
475440
353794
269151
214400
180803
160457
147533
138721
131856
126230
121368
116549
111365
105950
100643
96153.7
100497
164376
6.30452e+06
3.43127e+06
2.65036e+06
2.43565e+06
2.40442e+06
2.29292e+06
1.96053e+06
1.68493e+06
1.45076e+06
1.20733e+06
962590
734748
545240
398151
295071
228098
186780
162323
147064
136989
129675
123813
118772
113786
108691
103232
97909.5
93687.6
98579.3
162446
7.04099e+06
3.8568e+06
3.08685e+06
2.86452e+06
2.82713e+06
2.67289e+06
2.26631e+06
1.93748e+06
1.66657e+06
1.38823e+06
1.10903e+06
848861
626225
451669
327212
245595
195460
165873
147837
136269
128256
122020
116672
111586
106404
100844
95498.2
91535.3
96937.2
160547
7.87127e+06
4.38746e+06
3.60874e+06
3.35907e+06
3.28053e+06
3.04632e+06
2.5509e+06
2.16598e+06
1.86005e+06
1.55681e+06
1.2546e+06
968496
715994
513605
366108
267424
206974
171040
149589
136278
127373
120673
115083
109773
104389
98707.8
93382.7
89702
95568.4
158960
8.77146e+06
5.00746e+06
4.20016e+06
3.88975e+06
3.71918e+06
3.38134e+06
2.78583e+06
2.34705e+06
2.01392e+06
1.69763e+06
1.38591e+06
1.0854e+06
811918
583588
412189
293562
221342
177832
152356
137076
127185
120022
113903
108368
102871
97037.7
91764.7
88310.5
94424
157955
9.69465e+06
5.7175e+06
4.84934e+06
4.43257e+06
4.13952e+06
3.67581e+06
2.97872e+06
2.48922e+06
2.13319e+06
1.81052e+06
1.4983e+06
1.19555e+06
910937
660477
465338
325266
238648
186599
156185
138537
127283
119408
113139
107694
102264
95954.7
90663.4
87365.4
93675.2
157474
1.06093e+07
6.43313e+06
5.51259e+06
5.00617e+06
4.56865e+06
3.97283e+06
3.16246e+06
2.61826e+06
2.23651e+06
1.91052e+06
1.60035e+06
1.30064e+06
1.01076e+06
745131
526510
364722
260079
197572
161697
140695
127852
119306
113008
107263
101594
95571.6
89932.2
86729.5
93268.8
157379
1.14986e+07
7.14283e+06
6.25516e+06
5.64787e+06
5.05915e+06
4.31643e+06
3.37649e+06
2.76459e+06
2.35236e+06
2.01817e+06
1.70601e+06
1.40715e+06
1.11454e+06
838115
598013
412754
288010
211536
168882
143957
129153
119727
113169
106914
101014
95213.2
89585.6
86422
93256.8
157764
1.23998e+07
7.90667e+06
7.11321e+06
6.38328e+06
5.63639e+06
4.73895e+06
3.64627e+06
2.95151e+06
2.50165e+06
2.14834e+06
1.82636e+06
1.52236e+06
1.22465e+06
938522
680543
471232
322775
230548
178618
148637
131423
120995
113619
107076
100877
94796.3
89497.2
86336.4
93398.9
158681
1.33777e+07
8.81751e+06
8.07154e+06
7.19781e+06
6.30704e+06
5.24823e+06
3.98736e+06
3.19328e+06
2.69367e+06
2.31186e+06
1.97099e+06
1.65509e+06
1.34785e+06
1.05141e+06
775716
542432
367661
256187
191665
155151
134812
122665
114245
107257
100981
94702.8
89483.9
86399.3
93609.7
160112
1.43275e+07
9.81163e+06
9.08375e+06
8.06571e+06
7.06566e+06
5.86175e+06
4.41387e+06
3.50828e+06
2.94299e+06
2.51813e+06
2.14777e+06
1.81247e+06
1.49089e+06
1.18231e+06
888077
630162
427027
291176
209760
164197
139123
124405
114324
106670
100480
94539.9
89219.9
86245.4
93755.3
162537
1.5097e+07
1.0821e+07
1.01096e+07
8.9874e+06
7.92912e+06
6.59024e+06
4.94039e+06
3.90829e+06
3.2613e+06
2.77427e+06
2.36182e+06
1.99833e+06
1.65775e+06
1.33417e+06
1.02043e+06
737300
503377
337910
234666
176606
144164
126091
113790
105891
99720.7
93894.1
88510.4
85683.1
93552.6
163317
1.57447e+07
1.17793e+07
1.11283e+07
9.95972e+06
8.91645e+06
7.44944e+06
5.59176e+06
4.41401e+06
3.66185e+06
3.09002e+06
2.61861e+06
2.21516e+06
1.8501e+06
1.50692e+06
1.17353e+06
866245
599688
399114
268297
192860
150923
127942
114183
105566
98985.8
92865.4
87719.7
85299.8
93202
164363
1.64295e+07
1.27291e+07
1.21244e+07
1.09753e+07
1.00382e+07
8.4566e+06
6.40263e+06
5.05515e+06
4.16433e+06
3.47716e+06
2.92345e+06
2.46388e+06
2.0672e+06
1.69905e+06
1.34729e+06
1.01838e+06
719307
478846
313635
214466
160391
131388
115601
105733
98298.9
91863
87149.5
85148.9
93582.8
165785
1.70649e+07
1.36328e+07
1.30961e+07
1.20452e+07
1.13103e+07
9.65043e+06
7.40316e+06
5.86118e+06
4.79401e+06
3.95817e+06
3.29122e+06
2.75418e+06
2.31025e+06
1.9122e+06
1.54326e+06
1.1934e+06
862303
579619
372258
243349
173220
136936
117951
106441
98139.6
91611.8
87178.8
84954.7
94223.4
167745
1.79028e+07
1.42459e+07
1.39144e+07
1.31494e+07
1.27462e+07
1.10628e+07
8.64678e+06
6.87844e+06
5.59226e+06
4.56704e+06
3.74721e+06
3.10428e+06
2.59099e+06
2.15178e+06
1.76106e+06
1.3849e+06
1.02187e+06
696892
445749
281975
191607
144791
121132
107606
98758.2
92110
86984.4
84735.2
94537.2
169559
1.81878e+07
1.49527e+07
1.46383e+07
1.4358e+07
1.44165e+07
1.27881e+07
1.0178e+07
8.16456e+06
6.61262e+06
5.34572e+06
4.32598e+06
3.53792e+06
2.92622e+06
2.42235e+06
1.99256e+06
1.58254e+06
1.1901e+06
829847
537803
334966
217641
156612
125891
109610
99804.6
92107.8
86664.4
84271.5
94699.9
171310
1.88416e+07
1.52119e+07
1.51136e+07
1.56609e+07
1.63686e+07
1.48964e+07
1.21148e+07
9.80743e+06
7.92491e+06
6.34447e+06
5.07017e+06
4.08148e+06
3.32199e+06
2.7222e+06
2.22546e+06
1.78025e+06
1.36604e+06
980972
652541
406856
254609
172988
132525
111906
99965.9
91313.7
85752.2
83304.5
94102.8
172841
1.86937e+07
1.5583e+07
1.58902e+07
1.74331e+07
1.88699e+07
1.75653e+07
1.45852e+07
1.19096e+07
9.61076e+06
7.63415e+06
6.01055e+06
4.74487e+06
3.77539e+06
3.04948e+06
2.47185e+06
1.98547e+06
1.55656e+06
1.15294e+06
791882
500973
305029
195589
141335
114514
99721.1
90528.4
84535.3
82268
93136.9
174212
1.75043e+07
1.85724e+07
1.83213e+07
2.03022e+07
2.22785e+07
2.10428e+07
1.77724e+07
1.46083e+07
1.17676e+07
9.27337e+06
7.19309e+06
5.55567e+06
4.31185e+06
3.43436e+06
2.76891e+06
2.22998e+06
1.77161e+06
1.34832e+06
954982
619324
373348
227484
154015
118303
100553
90164.3
83732.6
81481.9
92328
175711
178054
115085
114315
120936
126829
132522
138020
143785
149877
155803
161090
166544
173624
186248
208751
245691
305312
394221
494307
586280
668803
725695
791832
872232
945647
1.04707e+06
1.24679e+06
1.62931e+06
2.42883e+06
3.72605e+06
173476
111321
109668
115800
121588
127221
132713
138358
144346
150328
155849
161601
168924
181061
201862
236544
292385
375037
476672
581880
682793
764346
861711
980947
1.08282e+06
1.15866e+06
1.32318e+06
1.68664e+06
2.51106e+06
4.22332e+06
169965
107482
105046
110606
116091
121387
127059
132587
138401
144422
150255
156678
165045
178157
200330
236794
296014
382822
495362
623282
750016
865506
988023
1.13012e+06
1.25889e+06
1.314e+06
1.43961e+06
1.75485e+06
2.55455e+06
4.46428e+06
167069
104629
101435
106564
111881
117138
122000
127453
133118
139294
145626
152876
162720
177916
203013
244732
311531
409866
537070
686219
841244
987510
1.14045e+06
1.31561e+06
1.48528e+06
1.53679e+06
1.6349e+06
1.91349e+06
2.71386e+06
4.82545e+06
165086
102068
98276
103084
108376
113825
118438
123278
128511
134638
141671
150029
161802
180240
210726
261258
340638
455463
604888
783368
970955
1.15194e+06
1.33568e+06
1.54761e+06
1.76613e+06
1.82719e+06
1.89324e+06
2.14986e+06
2.96701e+06
5.37749e+06
162894
99977.9
95561.9
100085
105384
111008
115567
120182
125417
131269
138624
148277
162313
184679
221905
283864
379060
515607
692754
905458
1.13088e+06
1.35196e+06
1.56692e+06
1.8215e+06
2.09661e+06
2.17398e+06
2.21235e+06
2.45673e+06
3.28469e+06
6.02357e+06
160948
98125.7
93190.4
97445.3
102786
108532
113221
117920
123237
129263
136812
147774
164425
191316
236338
311364
426050
588602
797847
1.04538e+06
1.3112e+06
1.57268e+06
1.82439e+06
2.12472e+06
2.46328e+06
2.57514e+06
2.59682e+06
2.83601e+06
3.67936e+06
6.72686e+06
159061
96501.5
91135.9
95139.6
100508
106169
111429
116260
121738
128132
136399
148679
168275
200443
254807
344237
481330
671732
913798
1.19248e+06
1.48979e+06
1.78529e+06
2.07754e+06
2.43942e+06
2.85289e+06
3.01492e+06
3.04449e+06
3.30133e+06
4.14057e+06
7.51624e+06
157510
95148.8
89400.2
93139.3
98498.3
104320
109772
114858
120666
127512
136781
150576
173551
212314
277440
383783
543155
760398
1.02947e+06
1.33037e+06
1.64595e+06
1.96305e+06
2.29241e+06
2.71556e+06
3.22065e+06
3.47575e+06
3.5516e+06
3.85428e+06
4.70898e+06
8.39852e+06
156621
94089.5
88109.6
91632.1
96978
102829
108338
113626
119719
127235
137710
153801
180940
226730
304377
429381
611136
852036
1.13789e+06
1.44911e+06
1.76947e+06
2.09681e+06
2.4545e+06
2.93687e+06
3.54422e+06
3.91734e+06
4.09193e+06
4.48053e+06
5.36478e+06
9.352e+06
156275
93427.3
87260.8
90642.2
95989.9
101755
107354
112939
119358
127330
139055
158120
189933
243930
335971
480907
683849
944111
1.2369e+06
1.54516e+06
1.86243e+06
2.19485e+06
2.57788e+06
3.11623e+06
3.82792e+06
4.33924e+06
4.64897e+06
5.12929e+06
6.11498e+06
1.03234e+07
156289
93126.4
86746.8
90104.4
95474.1
101388
106866
112685
119433
128057
141090
162968
200287
264525
372531
538570
761521
1.03439e+06
1.32769e+06
1.63043e+06
1.94535e+06
2.28202e+06
2.69487e+06
3.29202e+06
4.11939e+06
4.76976e+06
5.23963e+06
5.80891e+06
6.84078e+06
1.12673e+07
157048
93340.4
86639.8
89930.7
95326.1
101515
107178
113178
119717
129300
144359
169740
213004
289794
416181
604711
844613
1.12669e+06
1.42017e+06
1.72205e+06
2.03999e+06
2.38844e+06
2.83498e+06
3.5041e+06
4.46251e+06
5.26854e+06
5.90123e+06
6.58108e+06
7.57249e+06
1.21801e+07
158955
93912.6
86793.7
89948.1
95432
101706
107578
113614
120682
131584
149166
179165
230700
321869
469101
679365
937478
1.22439e+06
1.52216e+06
1.82954e+06
2.15867e+06
2.5284e+06
3.01595e+06
3.77623e+06
4.89652e+06
5.85808e+06
6.65479e+06
7.47116e+06
8.37451e+06
1.31215e+07
160069
94184.8
87070
90174.3
95720
101600
107901
114375
122796
135057
155818
192062
255115
363858
535495
765962
1.04114e+06
1.33503e+06
1.64237e+06
1.96252e+06
2.31212e+06
2.71391e+06
3.25677e+06
4.12774e+06
5.42466e+06
6.53925e+06
7.47869e+06
8.45796e+06
9.32287e+06
1.41345e+07
160894
93983.6
87030.8
89979.3
95347.1
101414
107894
115194
125028
139627
164575
208998
288160
419477
617674
870795
1.1626e+06
1.46744e+06
1.78943e+06
2.1301e+06
2.51068e+06
2.95848e+06
3.5706e+06
4.56653e+06
6.0708e+06
7.30367e+06
8.35197e+06
9.49131e+06
1.03523e+07
1.50933e+07
161944
93840.5
86492.5
89352.1
94712.1
100818
107320
115526
127212
145125
176129
231925
331660
490994
718419
995406
1.30549e+06
1.62615e+06
1.96779e+06
2.33772e+06
2.76243e+06
3.27619e+06
3.97589e+06
5.10582e+06
6.8353e+06
8.16951e+06
9.2827e+06
1.0548e+07
1.13855e+07
1.58514e+07
163155
93618.5
85777.6
88468.3
93763.2
100013
106743
115720
129409
151454
191669
263213
388746
581727
840680
1.14105e+06
1.47099e+06
1.81233e+06
2.17937e+06
2.59013e+06
3.07651e+06
3.67989e+06
4.48993e+06
5.77498e+06
7.72444e+06
9.16546e+06
1.02797e+07
1.1591e+07
1.23548e+07
1.64964e+07
164531
93470.2
85237
87800.5
92857.5
99330.5
106811
116919
132480
160057
210923
305157
462374
695447
986095
1.3097e+06
1.65893e+06
2.02567e+06
2.42539e+06
2.89305e+06
3.46493e+06
4.1889e+06
5.14319e+06
6.60852e+06
8.76055e+06
1.03126e+07
1.13202e+07
1.26028e+07
1.33064e+07
1.71652e+07
166087
93636.1
85052.1
87459.3
92399.5
99228.9
107525
119264
137794
172370
237635
359802
556372
832099
1.15551e+06
1.50157e+06
1.86982e+06
2.26636e+06
2.71376e+06
3.25992e+06
3.94894e+06
4.82726e+06
5.96645e+06
7.63665e+06
9.99139e+06
1.16189e+07
1.24139e+07
1.35783e+07
1.41898e+07
1.78169e+07
168103
94201.8
85060.1
87460.6
92465.3
99617.9
108641
122173
145286
189240
274541
429399
670340
988160
1.34703e+06
1.71769e+06
2.10613e+06
2.54239e+06
3.05945e+06
3.71333e+06
4.56004e+06
5.63584e+06
7.00474e+06
8.91189e+06
1.14447e+07
1.30961e+07
1.35406e+07
1.43998e+07
1.47724e+07
1.86262e+07
170698
94529
84933.6
87374
92639
100251
110253
126557
156060
214010
324575
516712
799971
1.15583e+06
1.54199e+06
1.94631e+06
2.36944e+06
2.86706e+06
3.48198e+06
4.28245e+06
5.33793e+06
6.66632e+06
8.31673e+06
1.04819e+07
1.32151e+07
1.48065e+07
1.4765e+07
1.51044e+07
1.54589e+07
1.88958e+07
172542
94218.4
84241.2
86644.7
92216.8
100660
112457
132817
171477
248803
393037
626858
945025
1.32261e+06
1.73087e+06
2.16807e+06
2.65454e+06
3.24562e+06
4.00492e+06
5.00477e+06
6.32845e+06
7.98629e+06
9.98884e+06
1.24631e+07
1.53809e+07
1.68026e+07
1.6081e+07
1.55634e+07
1.56926e+07
1.95591e+07
174227
93362.8
83180
85525.8
91442.5
100862
115281
141572
193517
297322
483733
761674
1.11229e+06
1.50552e+06
1.9291e+06
2.39989e+06
2.96404e+06
3.6826e+06
4.6421e+06
5.92218e+06
7.59422e+06
9.67181e+06
1.21152e+07
1.49867e+07
1.81242e+07
1.93383e+07
1.7834e+07
1.62926e+07
1.60621e+07
1.94233e+07
175640
92475.2
82245.3
84672.1
91059.1
101627
119412
154121
224729
363687
599148
922380
1.30534e+06
1.71607e+06
2.16059e+06
2.68445e+06
3.3348e+06
4.19839e+06
5.42585e+06
7.07668e+06
9.21525e+06
1.18212e+07
1.48312e+07
1.82206e+07
2.16679e+07
2.28006e+07
2.06759e+07
1.86412e+07
1.89533e+07
1.82248e+07
1.17762e+07
1.02315e+07
8.65276e+06
7.47248e+06
6.52343e+06
5.88756e+06
5.48324e+06
5.342e+06
5.45096e+06
5.81441e+06
6.45444e+06
7.38532e+06
8.6149e+06
1.01367e+07
1.19073e+07
1.38576e+07
1.59114e+07
1.80131e+07
2.01173e+07
2.21898e+07
2.42653e+07
2.63291e+07
2.83286e+07
3.03506e+07
3.23684e+07
3.43693e+07
3.63407e+07
3.82635e+07
4.0128e+07
4.19128e+07
4.35858e+07
4.5125e+07
4.65101e+07
4.77124e+07
4.87058e+07
4.94728e+07
5.00099e+07
5.0262e+07
5.02006e+07
4.98398e+07
4.91764e+07
4.82596e+07
4.70506e+07
4.5533e+07
4.37318e+07