/*--------------------------------*- C++ -*----------------------------------*\
| =========                 |                                                 |
| \\      /  F ield         | OpenFOAM: The Open Source CFD Toolbox           |
|  \\    /   O peration     | Version:  2112                                  |
|   \\  /    A nd           | Website:  www.openfoam.com                      |
|    \\/     M anipulation  |                                                 |
\*---------------------------------------------------------------------------*/
FoamFile
{
    version     2.0;
    format      ascii;
    arch        "LSB;label=32;scalar=64";
    class       volScalarField;
    location    "0.0098";
    object      epsilon;
}
// * * * * * * * * * * * * * * * * * * * * * * * * * * * * * * * * * * * * * //

dimensions      [0 2 -3 0 0 0 0];

internalField   nonuniform List<scalar> 
13875
(
1.16004e+06
2.9463e+07
3.28262e+07
3.28453e+07
3.29099e+07
3.28481e+07
3.29092e+07
3.29445e+07
3.28795e+07
3.28828e+07
3.29249e+07
3.29136e+07
3.28768e+07
3.28442e+07
3.28605e+07
3.29103e+07
3.29483e+07
3.29134e+07
3.28936e+07
3.28606e+07
3.28997e+07
3.28306e+07
3.28043e+07
2.94975e+07
1.17779e+06
1.31389e+06
2.27475e+07
2.53571e+07
2.52413e+07
2.52848e+07
2.52243e+07
2.52435e+07
2.52754e+07
2.52317e+07
2.5229e+07
2.52446e+07
2.52481e+07
2.52138e+07
2.5194e+07
2.52003e+07
2.52501e+07
2.52461e+07
2.52364e+07
2.52254e+07
2.52289e+07
2.52699e+07
2.52197e+07
2.53284e+07
2.27637e+07
1.34194e+06
1.57303e+06
1.97063e+07
2.1831e+07
2.16272e+07
2.17025e+07
2.16425e+07
2.15763e+07
2.15774e+07
2.1537e+07
2.15321e+07
2.15414e+07
2.15425e+07
2.16095e+07
2.16027e+07
2.15969e+07
2.15473e+07
2.1532e+07
2.153e+07
2.15487e+07
2.16407e+07
2.16835e+07
2.16018e+07
2.17904e+07
1.96918e+07
1.58435e+06
1.81373e+06
1.73848e+07
1.90387e+07
1.88782e+07
1.8969e+07
1.89149e+07
1.88365e+07
1.88204e+07
1.87842e+07
1.87825e+07
1.87903e+07
1.87839e+07
1.88856e+07
1.88807e+07
1.88763e+07
1.87876e+07
1.87942e+07
1.87798e+07
1.88066e+07
1.89149e+07
1.89522e+07
1.88578e+07
1.9015e+07
1.73627e+07
1.82042e+06
2.02282e+06
1.5452e+07
1.67726e+07
1.66181e+07
1.67049e+07
1.66547e+07
1.65779e+07
1.65589e+07
1.65348e+07
1.65376e+07
1.65421e+07
1.65303e+07
1.66267e+07
1.66275e+07
1.66194e+07
1.65336e+07
1.65476e+07
1.65305e+07
1.65526e+07
1.66546e+07
1.66903e+07
1.66051e+07
1.67447e+07
1.54265e+07
2.03649e+06
2.20651e+06
1.37121e+07
1.49285e+07
1.4736e+07
1.48331e+07
1.47734e+07
1.46873e+07
1.46671e+07
1.4652e+07
1.46579e+07
1.46599e+07
1.46443e+07
1.4737e+07
1.47424e+07
1.47317e+07
1.46466e+07
1.46677e+07
1.46474e+07
1.46668e+07
1.47748e+07
1.48194e+07
1.47293e+07
1.4904e+07
1.38463e+07
2.22342e+06
2.4226e+06
1.22513e+07
1.34786e+07
1.32054e+07
1.32711e+07
1.31991e+07
1.31005e+07
1.30739e+07
1.30654e+07
1.30734e+07
1.30724e+07
1.30534e+07
1.31436e+07
1.31516e+07
1.31376e+07
1.3055e+07
1.30836e+07
1.30612e+07
1.30854e+07
1.32006e+07
1.3257e+07
1.32015e+07
1.34218e+07
1.19512e+07
2.4302e+06
2.66603e+06
1.06161e+07
1.23138e+07
1.1975e+07
1.20021e+07
1.18852e+07
1.17642e+07
1.17274e+07
1.17221e+07
1.1731e+07
1.17282e+07
1.17042e+07
1.17926e+07
1.18041e+07
1.17876e+07
1.17047e+07
1.17428e+07
1.17202e+07
1.17514e+07
1.18844e+07
1.19813e+07
1.19656e+07
1.22644e+07
1.05446e+07
2.6955e+06
3.49634e+06
1.02132e+07
1.14844e+07
1.10294e+07
1.09425e+07
1.07845e+07
1.06382e+07
1.05891e+07
1.05829e+07
1.05943e+07
1.05922e+07
1.05628e+07
1.06489e+07
1.06641e+07
1.06465e+07
1.05651e+07
1.06084e+07
1.0586e+07
1.06252e+07
1.07805e+07
1.09226e+07
1.10215e+07
1.14745e+07
1.03387e+07
3.57463e+06
6.83541e+06
1.22206e+07
1.11982e+07
1.04295e+07
1.01689e+07
9.92596e+06
9.75887e+06
9.70671e+06
9.69621e+06
9.70487e+06
9.70179e+06
9.67e+06
9.7506e+06
9.76892e+06
9.75197e+06
9.68173e+06
9.71887e+06
9.70767e+06
9.74555e+06
9.91567e+06
1.01436e+07
1.03602e+07
1.11613e+07
1.21306e+07
6.89351e+06
1.49144e+07
1.86831e+07
1.20495e+07
1.0325e+07
9.61804e+06
9.31098e+06
9.12283e+06
9.04816e+06
9.0315e+06
9.03226e+06
9.02658e+06
8.99484e+06
9.06619e+06
9.08685e+06
9.07692e+06
9.02705e+06
9.05463e+06
9.06043e+06
9.12392e+06
9.28555e+06
9.60922e+06
1.0268e+07
1.18777e+07
1.79394e+07
1.49992e+07
2.54758e+07
6.88253e+07
1.81425e+07
1.07026e+07
9.70379e+06
9.00171e+06
8.69725e+06
8.58944e+06
8.55278e+06
8.54178e+06
8.53119e+06
8.50308e+06
8.55909e+06
8.58074e+06
8.58192e+06
8.55501e+06
8.57865e+06
8.60876e+06
8.70214e+06
9.01779e+06
9.65544e+06
1.05543e+07
1.75767e+07
6.72504e+07
2.50326e+07
2.6594e+07
7.62308e+07
8.67575e+07
2.3915e+07
1.09136e+07
9.08939e+06
8.71833e+06
8.44587e+06
8.34316e+06
8.29866e+06
8.27257e+06
8.24334e+06
8.2807e+06
8.30228e+06
8.31812e+06
8.32361e+06
8.37821e+06
8.49003e+06
8.76145e+06
9.15286e+06
1.12976e+07
2.2614e+07
8.08079e+07
7.6487e+07
2.60826e+07
2.63617e+07
5.52917e+07
7.97929e+07
1.04505e+08
5.74372e+07
1.31181e+07
9.64326e+06
8.8211e+06
8.58747e+06
8.56199e+06
8.54046e+06
8.51387e+06
8.54264e+06
8.56206e+06
8.58546e+06
8.61003e+06
8.6523e+06
8.88542e+06
9.94942e+06
1.45025e+07
6.57439e+07
9.1028e+07
7.52692e+07
5.44797e+07
2.57577e+07
2.53405e+07
4.26169e+07
5.81291e+07
7.25146e+07
7.46457e+07
7.51868e+07
2.39339e+07
1.31181e+07
1.1134e+07
1.04084e+07
1.01061e+07
9.98926e+06
9.98603e+06
1.00161e+07
1.01018e+07
1.03401e+07
1.10306e+07
1.31847e+07
2.62529e+07
7.74979e+07
7.50393e+07
6.60396e+07
5.65673e+07
4.22218e+07
2.6419e+07
2.47159e+07
3.3559e+07
4.33823e+07
5.42929e+07
5.89554e+07
6.78176e+07
5.13083e+07
4.51123e+07
4.15677e+07
3.27673e+07
3.45648e+07
3.56714e+07
3.64612e+07
3.61796e+07
3.50412e+07
3.30506e+07
4.01768e+07
4.90458e+07
5.20222e+07
6.86269e+07
5.82014e+07
5.05153e+07
4.26018e+07
3.34081e+07
2.58002e+07
2.00542e+07
2.52619e+07
3.22756e+07
4.19135e+07
4.92787e+07
6.1804e+07
7.03635e+07
7.05783e+07
5.76382e+07
4.97116e+07
5.21765e+07
5.48763e+07
5.64926e+07
5.58598e+07
5.30147e+07
5.33065e+07
5.78997e+07
7.04796e+07
7.05719e+07
6.13057e+07
4.7149e+07
3.90512e+07
3.09024e+07
2.45146e+07
1.99433e+07
1.48302e+07
1.91242e+07
2.64616e+07
3.72918e+07
4.53581e+07
5.29748e+07
6.31664e+07
6.87964e+07
5.16991e+07
3.8387e+07
3.52664e+07
3.55264e+07
3.61972e+07
3.58701e+07
3.57976e+07
4.15519e+07
5.1844e+07
6.46611e+07
6.25607e+07
5.39949e+07
4.51836e+07
3.59969e+07
2.53714e+07
1.8565e+07
1.45228e+07
1.22329e+07
1.67251e+07
2.39614e+07
3.72195e+07
4.792e+07
4.62735e+07
4.89323e+07
5.47666e+07
4.56627e+07
3.42858e+07
2.87936e+07
2.71881e+07
2.7029e+07
2.74818e+07
2.94955e+07
3.55511e+07
4.39736e+07
5.12082e+07
4.87499e+07
4.7899e+07
5.03711e+07
3.68783e+07
2.356e+07
1.64505e+07
1.20648e+07
1.16506e+07
1.82501e+07
2.48902e+07
3.68189e+07
4.35462e+07
3.92614e+07
3.85338e+07
4.22812e+07
3.89403e+07
3.14204e+07
2.55712e+07
2.237e+07
2.13891e+07
2.2883e+07
2.6615e+07
3.21211e+07
3.69947e+07
3.96793e+07
3.85672e+07
4.07394e+07
4.50484e+07
3.61736e+07
2.47395e+07
1.83359e+07
1.17181e+07
3.01038e+07
5.97752e+07
4.50941e+07
3.21092e+07
3.46581e+07
3.16283e+07
3.08566e+07
3.38338e+07
3.29404e+07
2.77672e+07
2.2194e+07
1.84165e+07
1.72216e+07
1.9206e+07
2.34988e+07
2.83166e+07
3.11941e+07
3.19315e+07
3.10086e+07
3.28152e+07
3.56926e+07
3.3024e+07
5.00356e+07
6.54312e+07
3.86073e+07
9.37424e+07
2.97834e+08
6.15883e+07
2.60655e+07
2.74266e+07
2.5697e+07
2.52761e+07
2.7746e+07
2.77386e+07
2.3955e+07
1.89834e+07
1.5218e+07
1.39994e+07
1.60228e+07
2.0191e+07
2.43041e+07
2.61825e+07
2.6342e+07
2.53748e+07
2.65567e+07
2.80802e+07
2.69823e+07
6.77247e+07
2.94703e+08
1.0813e+08
1.11167e+08
2.34127e+08
5.10196e+07
2.17181e+07
2.22134e+07
2.12293e+07
2.09467e+07
2.3049e+07
2.32938e+07
2.03494e+07
1.60245e+07
1.26223e+07
1.14704e+07
1.32572e+07
1.69873e+07
2.05503e+07
2.19061e+07
2.19349e+07
2.09904e+07
2.17436e+07
2.25944e+07
2.24055e+07
5.16752e+07
2.24161e+08
1.07774e+08
9.47827e+07
2.35915e+08
3.99347e+07
1.85944e+07
1.82654e+07
1.76246e+07
1.7482e+07
1.91988e+07
1.95263e+07
1.71183e+07
1.3381e+07
1.04539e+07
9.50172e+06
1.10526e+07
1.42954e+07
1.73621e+07
1.83808e+07
1.82913e+07
1.756e+07
1.80503e+07
1.86367e+07
1.92565e+07
4.12464e+07
2.41391e+08
9.41549e+07
8.67666e+07
2.26121e+08
3.33411e+07
1.6227e+07
1.54065e+07
1.48312e+07
1.48006e+07
1.61367e+07
1.64338e+07
1.44284e+07
1.12564e+07
8.76639e+06
7.96475e+06
9.28001e+06
1.20771e+07
1.46947e+07
1.55037e+07
1.53679e+07
1.48313e+07
1.51812e+07
1.57967e+07
1.68535e+07
3.50476e+07
2.39085e+08
8.74524e+07
8.02565e+07
2.17926e+08
2.86847e+07
1.41976e+07
1.32253e+07
1.26191e+07
1.26852e+07
1.36804e+07
1.3892e+07
1.22216e+07
9.55496e+06
7.43133e+06
6.74712e+06
7.85144e+06
1.02278e+07
1.24409e+07
1.31197e+07
1.29922e+07
1.26062e+07
1.28365e+07
1.3567e+07
1.46758e+07
3.00662e+07
2.29843e+08
8.19532e+07
7.62576e+07
1.93266e+08
2.42674e+07
1.24566e+07
1.15285e+07
1.08695e+07
1.09617e+07
1.16669e+07
1.17519e+07
1.03229e+07
8.11668e+06
6.35165e+06
5.77817e+06
6.72781e+06
8.75188e+06
1.06096e+07
1.12124e+07
1.11156e+07
1.08449e+07
1.10336e+07
1.18757e+07
1.2935e+07
2.59459e+07
2.05645e+08
7.86318e+07
7.22254e+07
1.75707e+08
2.13577e+07
1.10774e+07
1.01907e+07
9.50564e+06
9.57264e+06
1.00571e+07
1.00444e+07
8.82373e+06
6.98186e+06
5.48925e+06
4.99616e+06
5.80165e+06
7.5109e+06
9.07663e+06
9.62799e+06
9.58191e+06
9.41415e+06
9.60692e+06
1.04615e+07
1.14604e+07
2.28989e+07
1.89597e+08
7.37769e+07
6.68559e+07
1.64754e+08
1.92733e+07
9.92986e+06
9.08864e+06
8.4471e+06
8.43397e+06
8.73528e+06
8.64381e+06
7.58647e+06
6.05568e+06
4.79096e+06
4.35728e+06
5.03998e+06
6.47029e+06
7.77726e+06
8.3066e+06
8.31954e+06
8.23893e+06
8.45555e+06
9.26643e+06
1.02258e+07
2.01627e+07
1.65594e+08
6.98095e+07
6.19995e+07
1.466e+08
1.75218e+07
8.98664e+06
8.11939e+06
7.55679e+06
7.49458e+06
7.62447e+06
7.44931e+06
6.52861e+06
5.25637e+06
4.1991e+06
3.83204e+06
4.42962e+06
5.65745e+06
6.76084e+06
7.244e+06
7.30046e+06
7.30221e+06
7.53628e+06
8.25547e+06
9.23956e+06
1.84208e+07
1.51208e+08
6.53876e+07
5.75782e+07
1.26773e+08
1.61103e+07
8.24555e+06
7.30022e+06
6.80308e+06
6.71496e+06
6.72212e+06
6.49436e+06
5.6836e+06
4.62078e+06
3.71946e+06
3.39518e+06
3.91053e+06
4.94917e+06
5.87562e+06
6.34097e+06
6.44969e+06
6.52494e+06
6.7518e+06
7.37067e+06
8.42669e+06
1.67633e+07
1.32046e+08
6.04419e+07
5.36547e+07
1.13302e+08
1.50257e+07
7.68324e+06
6.60305e+06
6.14609e+06
6.04889e+06
5.97827e+06
5.7154e+06
5.00067e+06
4.09652e+06
3.31671e+06
3.03153e+06
3.47392e+06
4.36688e+06
5.16119e+06
5.59614e+06
5.7437e+06
5.86453e+06
6.07416e+06
6.625e+06
7.79903e+06
1.54224e+07
1.15833e+08
5.6243e+07
4.99271e+07
9.72185e+07
1.39209e+07
7.23446e+06
6.01945e+06
5.5861e+06
5.45698e+06
5.33723e+06
5.03875e+06
4.40165e+06
3.63879e+06
2.97334e+06
2.7245e+06
3.11712e+06
3.89099e+06
4.57012e+06
4.97902e+06
5.15708e+06
5.29259e+06
5.50431e+06
6.02061e+06
7.30704e+06
1.44413e+07
1.02643e+08
5.25883e+07
4.68098e+07
8.4691e+07
1.29211e+07
6.89287e+06
5.55184e+06
5.10567e+06
4.93547e+06
4.79954e+06
4.48887e+06
3.92206e+06
3.26623e+06
2.68367e+06
2.46426e+06
2.80381e+06
3.47853e+06
4.06773e+06
4.44809e+06
4.65061e+06
4.78732e+06
5.01144e+06
5.52659e+06
6.91543e+06
1.35492e+07
8.87885e+07
4.90109e+07
4.40156e+07
7.55206e+07
1.19262e+07
6.58938e+06
5.22091e+06
4.68911e+06
4.4901e+06
4.333e+06
4.02417e+06
3.51311e+06
2.94833e+06
2.43823e+06
2.24174e+06
2.53971e+06
3.12631e+06
3.64e+06
3.99896e+06
4.2079e+06
4.35632e+06
4.60587e+06
5.16625e+06
6.62529e+06
1.2506e+07
7.81223e+07
4.60442e+07
4.11653e+07
6.69129e+07
1.09906e+07
6.32318e+06
4.97332e+06
4.3338e+06
4.09753e+06
3.91828e+06
3.61891e+06
3.1618e+06
2.66874e+06
2.22075e+06
2.05004e+06
2.31462e+06
2.83881e+06
3.29046e+06
3.61878e+06
3.82189e+06
3.98671e+06
4.2537e+06
4.9162e+06
6.39272e+06
1.15959e+07
7.10303e+07
4.33535e+07
3.8979e+07
6.03708e+07
1.02012e+07
6.1891e+06
4.79318e+06
4.04373e+06
3.76582e+06
3.56376e+06
3.27355e+06
2.86494e+06
2.43345e+06
2.03725e+06
1.88364e+06
2.11756e+06
2.57819e+06
2.97685e+06
3.28041e+06
3.4832e+06
3.66114e+06
3.95973e+06
4.72826e+06
6.25741e+06
1.06728e+07
6.34327e+07
4.05945e+07
3.69082e+07
5.59586e+07
9.48393e+06
6.04406e+06
4.66539e+06
3.83092e+06
3.47439e+06
3.25588e+06
2.97662e+06
2.61302e+06
2.23186e+06
1.8751e+06
1.73862e+06
1.94507e+06
2.35837e+06
2.71148e+06
2.98597e+06
3.19083e+06
3.37769e+06
3.74546e+06
4.61788e+06
6.12296e+06
9.81268e+06
5.79112e+07
3.83654e+07
3.46309e+07
5.08479e+07
8.69705e+06
5.76084e+06
4.60909e+06
3.67344e+06
3.22945e+06
2.98761e+06
2.71311e+06
2.38465e+06
2.04798e+06
1.73241e+06
1.61176e+06
1.79819e+06
2.16861e+06
2.48227e+06
2.7354e+06
2.93979e+06
3.14124e+06
3.58419e+06
4.57764e+06
5.8795e+06
9.02148e+06
5.37589e+07
3.63078e+07
3.27881e+07
4.73099e+07
7.99758e+06
5.45048e+06
4.61418e+06
3.56524e+06
3.03817e+06
2.7616e+06
2.49051e+06
2.19308e+06
1.89313e+06
1.6074e+06
1.49921e+06
1.66418e+06
1.99966e+06
2.27929e+06
2.5123e+06
2.72443e+06
2.95794e+06
3.47783e+06
4.56111e+06
5.52998e+06
8.28739e+06
4.95441e+07
3.4233e+07
3.12839e+07
4.44504e+07
7.56886e+06
5.15152e+06
4.68432e+06
3.50324e+06
2.89495e+06
2.57736e+06
2.30048e+06
2.02457e+06
1.75468e+06
1.49692e+06
1.3995e+06
1.5467e+06
1.84799e+06
2.10156e+06
2.32323e+06
2.54675e+06
2.82465e+06
3.41523e+06
4.6958e+06
5.21694e+06
7.67564e+06
4.63311e+07
3.2439e+07
2.98391e+07
4.17244e+07
7.04131e+06
4.79683e+06
4.58685e+06
3.48801e+06
2.78075e+06
2.43611e+06
2.13838e+06
1.87555e+06
1.63047e+06
1.39634e+06
1.31001e+06
1.44344e+06
1.72083e+06
1.95095e+06
2.16577e+06
2.41e+06
2.71755e+06
3.4223e+06
4.68863e+06
4.93035e+06
7.69763e+06
4.34944e+07
3.09559e+07
2.86449e+07
3.93496e+07
6.69028e+06
4.45557e+06
4.35585e+06
3.56866e+06
2.70655e+06
2.32698e+06
2.00931e+06
1.74873e+06
1.52201e+06
1.30802e+06
1.22986e+06
1.34981e+06
1.60211e+06
1.81607e+06
2.03242e+06
2.30482e+06
2.64424e+06
3.48393e+06
4.46057e+06
4.56874e+06
7.20572e+06
4.09371e+07
2.95934e+07
2.76606e+07
3.7025e+07
6.87481e+06
4.16489e+06
4.07719e+06
3.71923e+06
2.68971e+06
2.23537e+06
1.91135e+06
1.64432e+06
1.42837e+06
1.2286e+06
1.15756e+06
1.26599e+06
1.49858e+06
1.70195e+06
1.92896e+06
2.22143e+06
2.63705e+06
3.69233e+06
4.18192e+06
4.24639e+06
7.01908e+06
3.85111e+07
2.84958e+07
2.66915e+07
3.50798e+07
6.47309e+06
3.87561e+06
3.77738e+06
3.70514e+06
2.76715e+06
2.17142e+06
1.82888e+06
1.55978e+06
1.34616e+06
1.15816e+06
1.09328e+06
1.19341e+06
1.41355e+06
1.61241e+06
1.8472e+06
2.16516e+06
2.74939e+06
3.73483e+06
3.88297e+06
4.00816e+06
7.1375e+06
3.62971e+07
2.76244e+07
2.58327e+07
3.30904e+07
6.55862e+06
3.67001e+06
3.49429e+06
3.49067e+06
2.99299e+06
2.1651e+06
1.76673e+06
1.49688e+06
1.28244e+06
1.10007e+06
1.03752e+06
1.13138e+06
1.34319e+06
1.54332e+06
1.78049e+06
2.15842e+06
2.96945e+06
3.52965e+06
3.58875e+06
3.75659e+06
6.8786e+06
3.43721e+07
2.67943e+07
2.50139e+07
3.13251e+07
6.71447e+06
3.53369e+06
3.25049e+06
3.26494e+06
3.05824e+06
2.29795e+06
1.72489e+06
1.44096e+06
1.23366e+06
1.05422e+06
988250
1.08239e+06
1.28883e+06
1.4859e+06
1.73316e+06
2.2805e+06
3.06743e+06
3.29948e+06
3.32744e+06
3.56461e+06
6.71029e+06
3.26301e+07
2.59519e+07
2.38543e+07
2.95033e+07
6.55428e+06
3.38658e+06
3.03993e+06
3.03047e+06
2.89744e+06
2.52184e+06
1.74755e+06
1.39469e+06
1.19135e+06
1.01822e+06
950713
1.04487e+06
1.24435e+06
1.43996e+06
1.75707e+06
2.52806e+06
2.9265e+06
3.06114e+06
3.10751e+06
3.45169e+06
6.80642e+06
3.06447e+07
2.47588e+07
2.24525e+07
2.74526e+07
6.44853e+06
3.29081e+06
2.86192e+06
2.80741e+06
2.72729e+06
2.63111e+06
1.89045e+06
1.37299e+06
1.15759e+06
987508
922822
1.01251e+06
1.20628e+06
1.41322e+06
1.8874e+06
2.67086e+06
2.75676e+06
2.82918e+06
2.91489e+06
3.33191e+06
6.58459e+06
2.8531e+07
2.32874e+07
1.94822e+07
2.44253e+07
6.28059e+06
3.20644e+06
2.71287e+06
2.61769e+06
2.55291e+06
2.51432e+06
2.14177e+06
1.43389e+06
1.13702e+06
961362
897548
984489
1.17958e+06
1.4592e+06
2.14419e+06
2.57021e+06
2.58364e+06
2.63402e+06
2.74891e+06
3.22253e+06
6.3051e+06
2.53837e+07
2.02236e+07
9.15841e+06
5.25918e+06
3.62261e+06
2.45642e+06
1.69002e+06
1.27083e+06
1.03412e+06
881215
756363
635515
515721
401643
304161
231274
179993
144586
120754
104520
92744.3
83763.4
76717.5
70961.2
65770.6
60833.6
56310.9
52331.7
49255.1
48137.6
53982.7
103452
1.01996e+07
5.56955e+06
3.79827e+06
2.55838e+06
1.75437e+06
1.32109e+06
1.07708e+06
919409
794294
675011
556963
443467
341776
260647
199924
157799
129029
109102
94725.2
84127.9
76392.6
70305.1
64893.2
60019.3
55571.3
51746.3
48916.4
48101.1
54350.7
103778
1.0445e+07
5.70888e+06
3.95318e+06
2.66416e+06
1.82881e+06
1.38309e+06
1.13367e+06
971194
843746
723450
603765
487705
380069
289863
220673
172484
138090
113910
96389.5
84314
75869.1
69317.1
63801.8
59030.9
54753.8
51159.5
48672.7
48093.4
54909.3
104036
1.10027e+07
6.08347e+06
4.22902e+06
2.8423e+06
1.95195e+06
1.47766e+06
1.21383e+06
1.04291e+06
911588
789091
666451
544847
428842
329044
251146
193095
151481
121644
100547
86264.4
76445
69137.3
63281
58449.8
54294.4
50858.9
48482.8
48191
55605.2
104387
1.16947e+07
6.5389e+06
4.57247e+06
3.07657e+06
2.11468e+06
1.59643e+06
1.31277e+06
1.13377e+06
995631
868114
740140
612605
486236
378691
289395
220352
169266
132398
106860
89605
77828.6
69414.3
63113.1
58093.6
53953.4
50719.3
48272.1
48406
56369
105015
1.24287e+07
7.03693e+06
4.95019e+06
3.35332e+06
2.30059e+06
1.73421e+06
1.42913e+06
1.2367e+06
1.08957e+06
956082
823405
689630
557312
438807
336865
254985
192764
147519
116152
94646.3
80288.7
70319.2
63328.8
57933.2
53736.6
50571.1
48307.8
48712.3
57163.6
105816
1.32466e+07
7.55138e+06
5.36033e+06
3.66553e+06
2.51673e+06
1.89812e+06
1.56432e+06
1.35449e+06
1.19553e+06
1.05502e+06
918892
780337
641209
511416
395868
298123
223362
168018
128975
102070
84129.9
72023.3
63850.7
57948.2
53621.7
50216.3
48303
48946.3
57953.8
106731
1.40406e+07
8.10152e+06
5.83012e+06
4.01793e+06
2.77493e+06
2.09198e+06
1.72357e+06
1.49111e+06
1.31786e+06
1.16981e+06
1.02854e+06
884448
739215
597764
468031
354511
264062
195737
146614
112700
90019.2
74832.9
64835.7
58256.3
53626.6
50023
48253.2
49225.5
58747.9
107838
1.48533e+07
8.68412e+06
6.34503e+06
4.42113e+06
3.08566e+06
2.32601e+06
1.91322e+06
1.65241e+06
1.45971e+06
1.30179e+06
1.15404e+06
1.00347e+06
851258
699079
555316
424896
316338
232270
170519
127691
98559.5
79028.1
66710.3
58883.1
53570.7
49917
48200.3
49510.6
59543.1
109077
1.55924e+07
9.27986e+06
6.90769e+06
4.8853e+06
3.45283e+06
2.60988e+06
2.14055e+06
1.84323e+06
1.62459e+06
1.45367e+06
1.29619e+06
1.13706e+06
977374
815589
657985
510472
382328
280023
202959
148446
110562
85254.1
69610.4
60045.5
53879.7
49903.9
48234.5
49903
60356.4
110483
1.63526e+07
9.87808e+06
7.51611e+06
5.41042e+06
3.87714e+06
2.94725e+06
2.40922e+06
2.06561e+06
1.81446e+06
1.62614e+06
1.45498e+06
1.28599e+06
1.11772e+06
946501
775761
611901
464041
341305
246006
176195
126847
94054.5
74021.3
62116.2
54485.5
50085.5
48433.8
50486.5
61364
112133
1.72171e+07
1.05192e+07
8.17557e+06
5.98945e+06
4.36028e+06
3.34067e+06
2.72468e+06
2.32378e+06
2.03552e+06
1.8216e+06
1.63189e+06
1.45054e+06
1.27284e+06
1.09112e+06
907842
729562
563026
418446
301527
212531
148691
106422
80552.1
64932.7
55618.1
50540.7
48841.2
50993
62619.6
114088
1.81547e+07
1.12031e+07
8.87311e+06
6.6199e+06
4.90586e+06
3.79668e+06
3.09441e+06
2.62569e+06
2.29076e+06
2.04265e+06
1.83017e+06
1.63424e+06
1.44325e+06
1.24991e+06
1.0556e+06
863915
679667
512531
371129
259557
178139
123619
89652.3
69091.6
57392
51383.2
49436.2
51633.1
63553.8
116539
1.89991e+07
1.19035e+07
9.5753e+06
7.29587e+06
5.5208e+06
4.32219e+06
3.52761e+06
2.97936e+06
2.58707e+06
2.29353e+06
2.05136e+06
1.83495e+06
1.62879e+06
1.42476e+06
1.22023e+06
1.01542e+06
813620
624102
456971
320273
217523
146986
102120
75024.2
60037.8
52655
50168.6
52415.8
64669.6
119877
1.97441e+07
1.25906e+07
1.02809e+07
8.01278e+06
6.20575e+06
4.92576e+06
4.03511e+06
3.39448e+06
2.93216e+06
2.5797e+06
2.29986e+06
2.05737e+06
1.83237e+06
1.61668e+06
1.40009e+06
1.18183e+06
964066
753573
561217
397667
269599
178497
119530
83693.8
64006.2
54394.7
50999.4
53244.4
65982.3
122500
2.03696e+07
1.32507e+07
1.09997e+07
8.76689e+06
6.96165e+06
5.61797e+06
4.63696e+06
3.88662e+06
3.3299e+06
2.9104e+06
2.58623e+06
2.31116e+06
2.06051e+06
1.82614e+06
1.59399e+06
1.36113e+06
1.12827e+06
899496
684266
493791
337573
221404
143777
96072.1
69629.2
56798.9
52097.4
54116.1
67315.3
125349
2.11046e+07
1.38071e+07
1.17078e+07
9.56149e+06
7.78276e+06
6.41004e+06
5.34353e+06
4.45776e+06
3.79644e+06
3.30849e+06
2.9271e+06
2.60643e+06
2.3182e+06
2.05673e+06
1.80285e+06
1.55321e+06
1.30483e+06
1.05902e+06
823593
607286
422367
277534
176438
113177
77676
60267.6
53554.5
55092.7
68587
128490
2.16155e+07
1.43234e+07
1.24004e+07
1.03793e+07
8.67285e+06
7.3147e+06
6.1597e+06
5.1294e+06
4.35979e+06
3.79284e+06
3.33787e+06
2.9533e+06
2.61401e+06
2.31539e+06
2.03213e+06
1.76136e+06
1.4954e+06
1.2321e+06
977338
736281
523304
348120
219225
136183
88476.2
64630.4
55301.4
56079
69637.5
131934
2.20828e+07
1.46726e+07
1.29784e+07
1.12016e+07
9.62282e+06
8.33172e+06
7.10072e+06
5.93078e+06
5.0481e+06
4.38367e+06
3.83421e+06
3.36362e+06
2.95857e+06
2.60941e+06
2.28854e+06
1.9909e+06
1.70302e+06
1.42007e+06
1.14509e+06
881184
639815
434004
274090
166620
102923
70349.6
57368.7
56868
70315.4
135214
2.22112e+07
1.50259e+07
1.34431e+07
1.1948e+07
1.06178e+07
9.46776e+06
8.19588e+06
6.89762e+06
5.88802e+06
5.10084e+06
4.43294e+06
3.85432e+06
3.36519e+06
2.95106e+06
2.58153e+06
2.24715e+06
1.93185e+06
1.62564e+06
1.32818e+06
1.04201e+06
773395
535982
342531
206457
122137
77761
59767.4
57465.6
70571.3
138106
2.24456e+07
1.51749e+07
1.37223e+07
1.25887e+07
1.16485e+07
1.07374e+07
9.48492e+06
8.06416e+06
6.91025e+06
5.97208e+06
5.15613e+06
4.44744e+06
3.85213e+06
3.35491e+06
2.92196e+06
2.53829e+06
2.18445e+06
1.8505e+06
1.52789e+06
1.21877e+06
923609
653814
426876
258190
147828
87835.2
62960.4
58193.1
70639.3
140871
2.24636e+07
1.5364e+07
1.38757e+07
1.31315e+07
1.27152e+07
1.21631e+07
1.10066e+07
9.47636e+06
8.15631e+06
7.03183e+06
6.03497e+06
5.16807e+06
4.44219e+06
3.83801e+06
3.32213e+06
2.87281e+06
2.46814e+06
2.0968e+06
1.74489e+06
1.40949e+06
1.08757e+06
787770
528112
324069
182569
102239
67716.1
59491.1
70934.9
143816
2.26864e+07
1.53509e+07
1.39017e+07
1.36245e+07
1.3866e+07
1.38053e+07
1.28087e+07
1.11946e+07
9.67455e+06
8.32547e+06
7.10717e+06
6.04521e+06
5.15879e+06
4.42139e+06
3.79629e+06
3.26077e+06
2.78895e+06
2.36754e+06
1.97708e+06
1.61e+06
1.26123e+06
934130
645318
405263
228110
122037
74419.9
61412.1
71707
146983
2.21619e+07
1.59186e+07
1.43897e+07
1.44718e+07
1.53268e+07
1.57824e+07
1.49753e+07
1.32772e+07
1.15357e+07
9.9128e+06
8.42079e+06
7.11542e+06
6.03271e+06
5.12643e+06
4.36149e+06
3.71331e+06
3.15418e+06
2.66606e+06
2.22433e+06
1.81871e+06
1.44047e+06
1.08977e+06
773755
499274
284962
148069
83501.5
63969.1
72814.8
150407
2.0502e+07
2.08668e+07
1.76772e+07
1.6724e+07
1.75854e+07
1.83003e+07
1.76339e+07
1.58201e+07
1.38119e+07
1.18583e+07
1.00316e+07
8.42764e+06
7.09271e+06
5.97607e+06
5.03435e+06
4.24112e+06
3.57163e+06
2.99908e+06
2.49291e+06
2.04059e+06
1.63054e+06
1.25522e+06
910834
603474
352608
181273
95317.6
67099.2
73368.9
152519
102356
53945.1
48121.8
49497.9
52569.8
56778.8
61487.9
66346.7
71569.6
77470.6
84294.1
93406
105404
121232
143937
178135
227854
299591
395358
505980
625123
747146
873079
1.02866e+06
1.27494e+06
1.71458e+06
2.51045e+06
3.69573e+06
5.32142e+06
9.23198e+06
102739
54342.5
48084.1
48989.9
52187.8
55956.9
60403.5
65418.3
70692.9
77009.3
84701.7
95337.9
109746
129290
156766
197598
256035
334606
433540
543369
660764
780237
907126
1.0682e+06
1.32254e+06
1.77575e+06
2.61009e+06
3.87052e+06
5.62581e+06
1.02706e+07
103138
54830.2
48026.2
48639.3
51446
55196.2
59317.3
64155.3
69438.3
76112.1
84622.7
96104
113322
137370
170526
216603
283784
370961
475333
587740
705793
826254
955642
1.12197e+06
1.38269e+06
1.84849e+06
2.7146e+06
4.02722e+06
5.7674e+06
1.05297e+07
103436
55340.8
48073.7
48535.4
51008
54698.1
58821
63638.4
69211.5
76359.8
86070.3
99781.1
119981
148581
188750
244886
319311
418600
530756
648413
768772
891007
1.02452e+06
1.20039e+06
1.47463e+06
1.96916e+06
2.89368e+06
4.30665e+06
6.14346e+06
1.1091e+07
103874
56002.3
48307.1
48391.3
50822
54341.8
58455.3
63384.6
69426
77530.1
88885.8
105768
130170
165155
213560
281012
367297
474530
597689
722584
847418
973925
1.11284e+06
1.29929e+06
1.59332e+06
2.12923e+06
3.12977e+06
4.65917e+06
6.60748e+06
1.178e+07
104778
56790.2
48621.8
48410.9
50615.4
54130.5
58298.4
63472.7
70258.2
79899
93964.7
114603
144512
187938
246515
326289
425879
542492
673169
804999
935868
1.0678e+06
1.21532e+06
1.4142e+06
1.73018e+06
2.31581e+06
3.40573e+06
5.04579e+06
7.11511e+06
1.25219e+07
105764
57532
48923.6
48388.3
50394
53871.4
58269.4
64027.2
71860
83578.9
101106
126972
164181
218019
289527
383729
496955
625096
760387
897553
1.03333e+06
1.17292e+06
1.33207e+06
1.54831e+06
1.89057e+06
2.52963e+06
3.72167e+06
5.46303e+06
7.64106e+06
1.33499e+07
106911
58280.4
49213.9
48352
50219.2
53694.6
58460.3
65042.1
74502
89039.6
111112
143819
190870
257170
344864
455375
583588
722415
864333
1.00663e+06
1.14704e+06
1.29463e+06
1.4672e+06
1.70531e+06
2.08172e+06
2.78205e+06
4.07538e+06
5.93255e+06
8.20257e+06
1.41591e+07
108213
59036.7
49504.9
48341.9
50089.7
53664.1
58974.8
66750.4
78552.7
97036.6
125285
166706
226099
308083
413978
542199
685131
834858
984865
1.13268e+06
1.27926e+06
1.43634e+06
1.62625e+06
1.89155e+06
2.31042e+06
3.08376e+06
4.4753e+06
6.46354e+06
8.80586e+06
1.5002e+07
109662
59854.3
49863.1
48400.4
50122.3
53907.6
60003.7
69463.1
84514.1
108408
144969
197865
272293
372491
498359
644499
801604
961773
1.12103e+06
1.27637e+06
1.43126e+06
1.60074e+06
1.8146e+06
2.1151e+06
2.58774e+06
3.44314e+06
4.93571e+06
7.0384e+06
9.43755e+06
1.57956e+07
111322
60776.8
50310.8
48592.6
50475.7
54544.8
61789.2
73482.2
92876.4
123949
171350
239261
332055
452639
599036
762367
932868
1.10392e+06
1.27242e+06
1.43745e+06
1.60457e+06
1.79074e+06
2.03511e+06
2.38051e+06
2.91899e+06
3.86141e+06
5.46e+06
7.65957e+06
1.00698e+07
1.65634e+07
113232
61847.6
50976.2
48999.3
50943.4
55742
64376.9
79379.9
104391
144779
205984
292833
407616
550259
716149
895277
1.07935e+06
1.26118e+06
1.4393e+06
1.61609e+06
1.79983e+06
2.01018e+06
2.29039e+06
2.69209e+06
3.30585e+06
4.33815e+06
6.04198e+06
8.32696e+06
1.07263e+07
1.73806e+07
115491
63272.5
51841.3
49638.9
51610.7
57597.3
68131.7
87626.7
120036
172365
250935
360152
499908
665615
849644
1.04315e+06
1.24035e+06
1.43317e+06
1.62282e+06
1.81473e+06
2.01987e+06
2.26221e+06
2.58851e+06
3.05782e+06
3.75455e+06
4.87757e+06
6.67524e+06
9.04242e+06
1.1431e+07
1.83647e+07
117935
64510
52455.9
50360.6
52727.3
59933.1
73494.6
98689.7
141277
208937
308548
442793
608638
797420
999130
1.20554e+06
1.41365e+06
1.61819e+06
1.823e+06
2.0353e+06
2.26874e+06
2.55298e+06
2.93561e+06
3.48452e+06
4.27218e+06
5.4826e+06
7.35547e+06
9.7674e+06
1.21585e+07
1.92785e+07
120741
65658.9
53268.3
51206.1
54281.9
63181
80956.4
113831
169500
256542
380947
542057
733375
944123
1.16255e+06
1.38223e+06
1.60066e+06
1.81798e+06
2.0419e+06
2.28109e+06
2.55195e+06
2.8912e+06
3.34098e+06
3.98393e+06
4.86741e+06
6.15608e+06
8.07476e+06
1.04881e+07
1.2869e+07
2.01141e+07
123999
67131.4
54383.9
52520
56345.4
67662.5
91226.7
134533
207308
318096
470325
658763
873553
1.1032e+06
1.33734e+06
1.57171e+06
1.80427e+06
2.03909e+06
2.28792e+06
2.56106e+06
2.87785e+06
3.28241e+06
3.82098e+06
4.57217e+06
5.55105e+06
6.90308e+06
8.82947e+06
1.12162e+07
1.35563e+07
2.07868e+07
127733
68431
55274.7
53657
59086
73925.5
105288
162376
256746
395280
576302
790804
1.02656e+06
1.27277e+06
1.52252e+06
1.77359e+06
2.0266e+06
2.28899e+06
2.57375e+06
2.89239e+06
3.2664e+06
3.74107e+06
4.38576e+06
5.25959e+06
6.33353e+06
7.71882e+06
9.6202e+06
1.1937e+07
1.41459e+07
2.15525e+07
130706
69212.9
55896.7
55066.7
62622.8
82565.4
124287
199014
319229
487758
696273
935459
1.19076e+06
1.45416e+06
1.72121e+06
1.99293e+06
2.27454e+06
2.57501e+06
2.90847e+06
3.2903e+06
3.73888e+06
4.29378e+06
5.04361e+06
6.05885e+06
7.22939e+06
8.6051e+06
1.0437e+07
1.26405e+07
1.46847e+07
2.21474e+07
133169
69390.3
56256
56575.4
67094.5
94113
149598
246249
395662
594183
829619
1.09208e+06
1.36723e+06
1.64997e+06
1.93887e+06
2.23852e+06
2.55801e+06
2.90722e+06
3.30475e+06
3.77078e+06
4.31395e+06
4.96793e+06
5.83092e+06
6.98292e+06
8.24191e+06
9.562e+06
1.12549e+07
1.32432e+07
1.50647e+07
2.26407e+07
135371
69527.7
56720.4
58343.7
72924.8
109578
182984
305825
487047
715142
977649
1.26117e+06
1.55744e+06
1.86395e+06
2.18217e+06
2.51922e+06
2.88829e+06
3.30039e+06
3.78038e+06
4.35188e+06
5.01223e+06
5.7885e+06
6.77779e+06
8.06322e+06
9.37356e+06
1.05719e+07
1.20193e+07
1.37112e+07
1.54375e+07
2.28351e+07
138034
70082.9
57719.8
60990.6
80936.5
130388
226176
379833
593690
851842
1.14033e+06
1.44529e+06
1.76535e+06
2.10089e+06
2.45794e+06
2.84507e+06
3.27919e+06
3.77281e+06
4.35787e+06
5.05607e+06
5.86116e+06
6.7884e+06
7.92363e+06
9.33246e+06
1.06391e+07
1.16207e+07
1.26896e+07
1.40219e+07
1.56067e+07
2.31122e+07
141420
70813.2
59069.6
64989.8
92333.5
158344
281835
469542
714081
1.00208e+06
1.31624e+06
1.64626e+06
1.99554e+06
2.36832e+06
2.77709e+06
3.23028e+06
3.74821e+06
4.34736e+06
5.06196e+06
5.91433e+06
6.89519e+06
8.0086e+06
9.31563e+06
1.08373e+07
1.20684e+07
1.27183e+07
1.32614e+07
1.41832e+07
1.5823e+07
2.31681e+07
144952
71696.1
60835
70416
107745
195307
351217
573708
846996
1.16184e+06
1.50088e+06
1.86284e+06
2.25244e+06
2.67402e+06
3.14962e+06
3.68902e+06
4.31501e+06
5.04855e+06
5.92212e+06
6.96283e+06
8.1577e+06
9.49723e+06
1.10062e+07
1.26336e+07
1.37207e+07
1.39032e+07
1.37933e+07
1.4226e+07
1.58208e+07
2.34499e+07
147962
72518.2
62977.6
77420.3
128116
242314
433525
690082
990873
1.33008e+06
1.69744e+06
2.09748e+06
2.53762e+06
3.02441e+06
3.5858e+06
4.23727e+06
5.00219e+06
5.90693e+06
6.9736e+06
8.24517e+06
9.70425e+06
1.1319e+07
1.30639e+07
1.48034e+07
1.57198e+07
1.54081e+07
1.46868e+07
1.47469e+07
1.64081e+07
2.29602e+07
150455
73027.4
65314.2
86285.5
154418
299914
527112
816597
1.14666e+06
1.51199e+06
1.91376e+06
2.35995e+06
2.86163e+06
3.43112e+06
4.09928e+06
4.8932e+06
5.8351e+06
6.95509e+06
8.26009e+06
9.82153e+06
1.16081e+07
1.3557e+07
1.55846e+07
1.74673e+07
1.82773e+07
1.77019e+07
1.70075e+07
1.80839e+07