/*--------------------------------*- C++ -*----------------------------------*\
| =========                 |                                                 |
| \\      /  F ield         | OpenFOAM: The Open Source CFD Toolbox           |
|  \\    /   O peration     | Version:  2112                                  |
|   \\  /    A nd           | Website:  www.openfoam.com                      |
|    \\/     M anipulation  |                                                 |
\*---------------------------------------------------------------------------*/
FoamFile
{
    version     2.0;
    format      ascii;
    arch        "LSB;label=32;scalar=64";
    class       volScalarField;
    location    "0.00034";
    object      k;
}
// * * * * * * * * * * * * * * * * * * * * * * * * * * * * * * * * * * * * * //

dimensions      [0 2 -2 0 0 0 0];

internalField   nonuniform List<scalar> 
13875
(
822.467
3456.71
3538.18
3529.13
3532.9
3545.29
3546.69
3544.71
3546.09
3545.57
3543.96
3543.04
3543.62
3542.95
3543.04
3542.84
3543.43
3541.32
3543.21
3538.94
3531.83
3529.95
3531.23
3449.71
820.884
893.44
2943.57
3016.8
3008.22
3007.75
3012.13
3010.89
3008.3
3009.01
3009.44
3008.13
3008.16
3008.02
3008.5
3008.29
3008.11
3008.08
3007.75
3010.23
3009.75
3008.34
3009.28
3012.36
2929.4
892.002
1011.46
2728.1
2791.49
2785.12
2782.58
2780.4
2777.75
2775.13
2775.04
2775.93
2775.57
2775.73
2775.67
2776.02
2775.89
2775.78
2775.62
2776.35
2779.19
2781.58
2783.89
2786.8
2788.65
2710.03
993.452
1112.56
2550.6
2600.56
2593.54
2590.94
2586.95
2584.91
2582.94
2582.61
2583.41
2583.59
2583.78
2583.73
2584.01
2583.93
2583.74
2583.36
2584.27
2586.56
2588.91
2592.13
2594.78
2599.15
2535.58
1089.9
1201.94
2400.06
2442.34
2430.01
2425.43
2420.46
2418.39
2416.28
2415.47
2415.66
2416.09
2416.56
2416.69
2416.7
2416.28
2416.11
2416.16
2417.59
2420.3
2422.84
2426.68
2431.37
2441.65
2390.37
1178.61
1304.45
2275.21
2312.48
2290.58
2285.5
2278.06
2274.1
2270.92
2268.6
2267.65
2267.41
2267.65
2268.03
2268.01
2267.42
2267.6
2268.78
2271.51
2275.79
2280.46
2286.96
2292.78
2313.36
2284.49
1269.05
1417.61
2189.71
2228.67
2184.32
2168.75
2157.59
2150.71
2145.07
2139.95
2136.68
2134.58
2134.14
2134.6
2134.83
2135.25
2137.11
2140.38
2145.38
2152.46
2160.62
2171.49
2189.27
2228.7
2165.06
1369.03
1567.06
2147.67
2200.1
2126.03
2095.13
2071.81
2052.95
2042.73
2032.83
2025.33
2020.58
2018.7
2019.06
2019.33
2021.46
2026.17
2032.47
2041.76
2053.75
2073.47
2098.31
2132.31
2202.39
2149.4
1554.13
2039.67
2444.99
2339.19
2178.25
2091.4
2041.61
2004.83
1981.15
1962.22
1945.95
1936.43
1932.74
1932.74
1933.5
1937.84
1947.83
1961.99
1979.8
2004.84
2042.94
2095.84
2190.52
2357.92
2503.47
2068.98
5862.57
4529.81
2979.06
2518.41
2275.23
2148.16
2053.65
2002.09
1963.78
1933.68
1915.13
1906.83
1904.85
1907.83
1916.74
1935.56
1963.36
2000.03
2052.84
2149.14
2285.97
2551
3100.43
5138.68
6313.72
15806.4
21133.6
10962.4
6678.33
3647.34
2760.62
2404.92
2223.86
2122.81
2044.92
2001.72
1983.12
1977.47
1984.96
2004.55
2047.05
2122.43
2215.65
2389.19
2724.53
3594.55
6712.89
11557.9
23738.7
16032.7
20864.9
38764.7
44251.6
57079.1
31663.9
15079.2
7452.13
3902.43
2903.74
2554.53
2386.82
2317.12
2293.34
2321.21
2393.52
2561.14
2897.56
3860
7372.95
14586.4
31632.3
57436.4
44163.5
41002.6
20948.8
24789.3
45437.2
57933.3
77836.9
80595.1
86517.8
79852.3
40403.3
18459
7784.94
4523.28
3700.83
3543.69
3762.32
4808.16
8380.64
18535.8
40652.2
79203.6
83711.1
78684.2
76461.1
57861
47615.8
25151.8
27854.8
51051.9
66393
83692.7
93972.8
105914
118407
116313
116324
91646.7
42468.8
19687.9
15867.2
22007.1
52304.7
93385.9
112520
114531
116243
103450
92078.1
82367.3
66304
52595.4
28596.2
29878.2
55020.7
72720.3
88995.7
101893
114342
126231
133542
140257
142108
136274
132752
136955
134251
137342
139970
137287
131738
124944
113251
101233
89121.2
73693.3
56850.4
30796.7
30597.5
58131.1
77187.4
93710.5
107853
120684
132511
142688
153706
167006
184140
210461
230171
212550
184844
165721
152065
141809
132292
120882
108417
94875.8
79046.4
60766.2
31577.2
29160
56482.5
76963.6
94428
109799
124118
138278
153167
171513
191507
208986
224759
233871
225628
209199
190759
170398
152112
137536
123816
109868
94748.8
77417.5
56743.7
29399.1
25370.9
49617.5
71491
89906.4
106762
123418
141226
161197
182371
201184
215303
224876
228807
225211
215674
200888
181058
159612
139724
122101
105614
88949.7
70822.3
49340.4
25500.8
21126.7
40758.9
60893.9
78610.9
95960.3
114374
134905
157473
179485
197428
209722
217157
219798
217825
210757
198504
180397
158023
135211
114588
96100.8
78652.5
60850.4
40859.3
21470
19147.6
36841.6
53262.8
68553.2
85117.2
103842
125273
148702
170975
188619
200449
207304
209597
207334
200605
188775
171153
148817
125262
103679
84775.7
68021.1
52684.3
36384.2
19405.7
20375.4
35196.2
48890.6
63311.1
78381.8
95832.7
116546
139551
161487
178740
190148
196995
199077
196669
189842
178310
160983
138993
115937
95150
77590.7
62422.9
47991.1
34203.4
20301.3
27441.5
37242.9
49605
61741.6
75477.7
91113.7
110104
131759
152441
168706
179767
186045
188091
185964
179605
168447
152137
131349
109585
90524.8
74833.5
60880.3
48678.1
36899.6
27793.6
36833.7
49960.9
51522
62254
74750
88840.7
106071
125725
144669
159266
169090
174754
176661
174733
169031
159238
144789
125783
105957
88608.7
74478.4
61453.6
51220.7
50379
37873.8
35520
64787.1
57505.9
65284.7
75547
88069
103119
120373
136803
149601
158406
163429
165183
163444
158398
149619
136802
120262
102989
87956.3
75357.3
64862.5
57325.8
65486.5
35375.7
27362.2
72166.5
65990.1
70191.7
78787.5
88623.6
100672
114717
128685
140003
147983
152607
154264
152663
148094
140115
128754
114727
100593
88606
78816.8
70000.9
66178.8
72524.7
27593.5
25249.6
65482.3
72710.4
76112.6
82298.3
90094.9
99153.2
110279
122024
131733
138519
142512
143948
142456
138420
131607
121941
110293
99286.3
90179.5
82558.8
76540.6
73032.4
66111.1
25759.9
25741.7
55307.9
71652.6
78782.1
86324.4
92947.6
99570
107307
116832
125374
130966
134080
135015
134034
130854
125126
116632
107188
99646.4
93006.4
86508.4
78917.2
71743
55070.3
25454
23854.1
43598
62470.4
75748.9
84872.3
91698.9
98639.6
105596
113252
120617
125689
128190
128938
128188
125588
120440
113148
105748
98833.8
91990.2
84978.7
75789.1
62394.6
43413.7
23711.3
14386.8
31328.2
46752
61327.9
74786
86403.3
95621.4
103374
110536
117690
123009
125552
126429
125621
123065
117750
110700
103463
95763.3
86546.6
74808.1
61361.3
46767.9
31170.7
14145.2
2000.88
9805.32
26148.8
42186.4
57133.6
71147.9
84119.2
95752.4
105762
114494
121174
125236
126767
125235
120969
114174
105575
95613.3
83990.4
70978
56914.7
41950.2
25677.2
9479.66
1912.59
667.323
1081.69
3647.62
12937
27712.5
43549.9
59065.2
73618.2
85646.1
96652.7
105667
110674
111983
110643
105544
96562.8
85663.8
73677.2
58990.1
43311.5
27379.5
12559.8
3433.01
1064.84
667.172
665.028
874.947
930.752
1213.36
2972.22
9075.93
18286.7
27809.2
35525.9
43796.2
52248.2
58825.3
61397.4
58796.9
52260.1
43852.8
35606.7
27824.3
18128.9
8896.38
2873.13
1190.37
928.539
875.514
666.047
672.404
876.959
907.19
913.004
928.293
1023.03
1364.78
2038.34
2802.97
4114.85
6250.92
8787.28
10049.6
8787.56
6282.47
4141.84
2821.82
2038.98
1353.32
1018.52
927.198
912.81
907.116
876.63
671.352
676.931
878.987
907.825
911.932
913.316
915.159
917.827
921.843
926.087
933.966
950.379
978.024
995.732
978.133
950.774
934.202
926.22
921.848
917.767
915.139
913.325
911.938
907.812
878.963
677.434
680.899
880.27
908.363
912.414
913.66
914.964
915.87
916.457
916.742
916.868
916.95
917.049
917.111
917.05
916.952
916.87
916.745
916.464
915.882
914.982
913.688
912.45
908.481
880.745
681.546
686.26
882.317
909.053
912.88
914.055
915.234
916.026
916.51
916.729
916.807
916.829
916.835
916.836
916.835
916.83
916.808
916.73
916.511
916.028
915.238
914.057
912.891
908.992
881.961
685.308
689.568
883.809
909.623
913.296
914.383
915.461
916.16
916.572
916.752
916.813
916.829
916.833
916.833
916.833
916.829
916.813
916.751
916.571
916.159
915.462
914.389
913.296
909.613
883.753
689.924
692.438
884.714
910.037
913.654
914.67
915.642
916.265
916.619
916.769
916.818
916.83
916.833
916.833
916.833
916.83
916.818
916.769
916.621
916.269
915.654
914.678
913.666
910.133
885.124
692.946
696.311
886.243
910.581
913.986
914.935
915.815
916.356
916.658
916.782
916.821
916.831
916.833
916.833
916.833
916.831
916.822
916.782
916.658
916.355
915.806
914.931
913.996
910.515
885.927
695.556
698.702
887.369
911.034
914.305
915.168
915.953
916.432
916.69
916.792
916.824
916.832
916.833
916.833
916.833
916.832
916.824
916.792
916.688
916.43
915.955
915.165
914.291
911.015
887.285
698.945
700.722
887.999
911.367
914.581
915.37
916.071
916.492
916.714
916.8
916.826
916.832
916.833
916.833
916.833
916.832
916.826
916.8
916.715
916.495
916.077
915.375
914.58
911.446
888.359
701.128
703.472
889.157
911.811
914.827
915.562
916.187
916.547
916.734
916.806
916.827
916.832
916.833
916.833
916.833
916.832
916.828
916.807
916.735
916.546
916.179
915.558
914.842
911.753
888.907
702.925
705.147
890.014
912.178
915.076
915.73
916.277
916.592
916.752
916.812
916.829
916.833
916.833
916.833
916.833
916.833
916.829
916.811
916.751
916.591
916.279
915.73
915.063
912.159
889.914
705.284
706.5
890.435
912.442
915.29
915.88
916.357
916.63
916.766
916.816
916.83
916.833
916.833
916.833
916.833
916.833
916.83
916.816
916.766
916.631
916.362
915.883
915.286
912.51
890.738
706.809
708.336
891.271
912.792
915.47
916.02
916.437
916.664
916.778
916.819
916.83
916.833
916.833
916.833
916.833
916.833
916.83
916.819
916.778
916.664
916.431
916.017
915.484
912.743
891.095
707.985
709.336
891.822
913.04
915.633
916.135
916.496
916.693
916.788
916.822
916.831
916.833
916.833
916.833
916.833
916.833
916.831
916.822
916.787
916.692
916.496
916.134
915.62
913.014
891.706
709.395
710.039
891.908
913.112
915.698
916.211
916.538
916.714
916.795
916.824
916.831
916.833
916.833
916.833
916.833
916.833
916.831
916.824
916.795
916.713
916.539
916.209
915.692
913.167
892.148
710.273
711.195
892.341
913.209
915.703
916.238
916.553
916.722
916.798
916.825
916.832
916.833
916.833
916.833
916.833
916.833
916.832
916.825
916.798
916.721
916.549
916.232
915.698
913.198
892.301
710.987
711.971
892.83
913.333
915.678
916.237
916.547
916.72
916.798
916.824
916.832
916.833
916.833
916.833
916.833
916.833
916.832
916.824
916.797
916.719
916.543
916.233
915.686
913.299
892.693
711.943
718.216
894.244
913.611
915.682
916.231
916.525
916.712
916.794
916.824
916.831
916.833
916.833
916.833
916.833
916.833
916.831
916.823
916.793
916.712
916.526
916.231
915.687
913.615
894.286
718.252
868.752
931.335
934.323
932.994
932.328
931.962
931.719
931.513
931.317
931.125
930.938
930.754
930.574
930.398
930.225
930.056
929.89
929.727
929.567
929.411
929.258
929.107
928.96
928.815
928.673
928.533
928.391
928.224
926.405
870.65
834.361
918.392
920.721
919.083
918.495
918.275
918.193
918.147
918.109
918.073
918.038
918.005
917.973
917.942
917.912
917.883
917.856
917.829
917.803
917.778
917.754
917.73
917.708
917.686
917.665
917.644
917.62
917.553
915.391
850.46
838.615
917.953
919.491
917.69
917.149
916.973
916.931
916.921
916.917
916.914
916.91
916.907
916.904
916.901
916.899
916.896
916.894
916.891
916.889
916.887
916.885
916.883
916.881
916.88
916.878
916.876
916.871
916.817
914.614
848.25
842.991
917.81
919.423
917.559
917.042
916.876
916.843
916.838
916.838
916.837
916.837
916.837
916.837
916.837
916.837
916.836
916.836
916.836
916.836
916.836
916.836
916.836
916.836
916.835
916.835
916.835
916.833
916.777
914.541
847.114
843.554
917.466
919.383
917.51
917.014
916.865
916.838
916.834
916.834
916.834
916.834
916.834
916.834
916.834
916.834
916.834
916.833
916.833
916.833
916.833
916.833
916.833
916.833
916.833
916.833
916.833
916.832
916.778
914.492
846.115
843.326
917.048
919.263
917.435
916.995
916.862
916.837
916.834
916.833
916.833
916.833
916.833
916.833
916.833
916.833
916.833
916.833
916.833
916.833
916.833
916.833
916.833
916.833
916.833
916.833
916.833
916.832
916.777
914.438
845.161
842.993
916.752
919.008
917.381
916.981
916.859
916.837
916.834
916.833
916.833
916.833
916.833
916.833
916.833
916.833
916.833
916.833
916.833
916.833
916.833
916.833
916.833
916.833
916.833
916.833
916.833
916.832
916.776
914.383
844.249
842.531
916.569
918.824
917.339
916.97
916.857
916.836
916.834
916.833
916.833
916.833
916.833
916.833
916.833
916.833
916.833
916.833
916.833
916.833
916.833
916.833
916.833
916.833
916.833
916.833
916.833
916.832
916.774
914.332
843.395
842.404
916.416
918.657
917.302
916.958
916.854
916.836
916.834
916.833
916.833
916.833
916.833
916.833
916.833
916.833
916.833
916.833
916.833
916.833
916.833
916.833
916.833
916.833
916.833
916.833
916.833
916.832
916.772
914.286
842.61
842.197
916.242
918.494
917.261
916.944
916.851
916.835
916.834
916.833
916.833
916.833
916.833
916.833
916.833
916.833
916.833
916.833
916.833
916.833
916.833
916.833
916.833
916.833
916.833
916.833
916.833
916.832
916.771
914.244
841.893
841.824
916.032
918.342
917.219
916.933
916.849
916.835
916.834
916.833
916.833
916.833
916.833
916.833
916.833
916.833
916.833
916.833
916.833
916.833
916.833
916.833
916.833
916.833
916.833
916.833
916.833
916.832
916.769
914.204
841.237
841.355
915.847
918.202
917.185
916.924
916.847
916.835
916.834
916.833
916.833
916.833
916.833
916.833
916.833
916.833
916.833
916.833
916.833
916.833
916.833
916.833
916.833
916.833
916.833
916.833
916.833
916.832
916.768
914.168
840.636
840.881
915.675
918.072
917.153
916.916
916.846
916.835
916.834
916.833
916.833
916.833
916.833
916.833
916.833
916.833
916.833
916.833
916.833
916.833
916.833
916.833
916.833
916.833
916.833
916.833
916.833
916.832
916.767
914.134
840.083
840.412
915.515
917.951
917.123
916.908
916.844
916.835
916.833
916.833
916.833
916.833
916.833
916.833
916.833
916.833
916.833
916.833
916.833
916.833
916.833
916.833
916.833
916.833
916.833
916.833
916.833
916.832
916.766
914.102
839.577
840.032
915.361
917.836
917.094
916.9
916.843
916.834
916.833
916.833
916.833
916.833
916.833
916.833
916.833
916.833
916.833
916.833
916.833
916.833
916.833
916.833
916.833
916.833
916.833
916.833
916.833
916.832
916.765
914.074
839.117
839.622
915.208
917.726
917.066
916.893
916.842
916.834
916.833
916.833
916.833
916.833
916.833
916.833
916.833
916.833
916.833
916.833
916.833
916.833
916.833
916.833
916.833
916.833
916.833
916.833
916.833
916.832
916.764
914.048
838.702
839.252
915.066
917.619
917.039
916.886
916.841
916.834
916.833
916.833
916.833
916.833
916.833
916.833
916.833
916.833
916.833
916.833
916.833
916.833
916.833
916.833
916.833
916.833
916.833
916.833
916.833
916.832
916.763
914.025
838.33
838.921
914.926
917.518
917.014
916.879
916.84
916.834
916.833
916.833
916.833
916.833
916.833
916.833
916.833
916.833
916.833
916.833
916.833
916.833
916.833
916.833
916.833
916.833
916.833
916.833
916.833
916.832
916.762
914.005
838.001
838.587
914.792
917.42
916.989
916.873
916.839
916.834
916.833
916.833
916.833
916.833
916.833
916.833
916.833
916.833
916.833
916.833
916.833
916.833
916.833
916.833
916.833
916.833
916.833
916.833
916.833
916.832
916.762
913.988
837.711
838.295
914.665
917.326
916.965
916.867
916.838
916.834
916.833
916.833
916.833
916.833
916.833
916.833
916.833
916.833
916.833
916.833
916.833
916.833
916.833
916.833
916.833
916.833
916.833
916.833
916.833
916.832
916.761
913.972
837.461
838.015
914.529
917.232
916.942
916.861
916.837
916.834
916.833
916.833
916.833
916.833
916.833
916.833
916.833
916.833
916.833
916.833
916.833
916.833
916.833
916.833
916.833
916.833
916.833
916.833
916.833
916.832
916.761
913.96
837.248
837.708
914.354
917.128
916.916
916.855
916.836
916.834
916.833
916.833
916.833
916.833
916.833
916.833
916.833
916.833
916.833
916.833
916.833
916.833
916.833
916.833
916.833
916.833
916.833
916.833
916.833
916.832
916.76
913.949
837.071
837.4
914.114
917.001
916.879
916.847
916.835
916.834
916.833
916.833
916.833
916.833
916.833
916.833
916.833
916.833
916.833
916.833
916.833
916.833
916.833
916.833
916.833
916.833
916.833
916.833
916.833
916.832
916.76
913.941
836.927
837.285
913.853
916.857
916.827
916.835
916.833
916.833
916.833
916.833
916.833
916.833
916.833
916.833
916.833
916.833
916.833
916.833
916.833
916.833
916.833
916.833
916.833
916.833
916.833
916.833
916.833
916.832
916.76
913.935
836.816
839.555
913.904
916.765
916.771
916.821
916.831
916.833
916.833
916.833
916.833
916.833
916.833
916.833
916.833
916.833
916.833
916.833
916.833
916.833
916.833
916.833
916.833
916.833
916.833
916.833
916.833
916.832
916.76
913.932
836.735
870.65
926.406
928.224
928.392
928.533
928.674
928.816
928.961
929.109
929.259
929.413
929.57
929.73
929.893
930.059
930.229
930.402
930.578
930.759
930.943
931.13
931.322
931.519
931.726
931.969
932.335
933.002
934.331
931.339
868.741
850.46
915.391
917.553
917.62
917.644
917.665
917.686
917.708
917.73
917.754
917.778
917.803
917.829
917.856
917.883
917.912
917.942
917.973
918.005
918.039
918.073
918.109
918.147
918.193
918.275
918.495
919.083
920.721
918.391
834.375
848.249
914.613
916.817
916.871
916.876
916.878
916.88
916.881
916.883
916.885
916.887
916.889
916.891
916.894
916.896
916.899
916.901
916.904
916.907
916.91
916.914
916.917
916.921
916.931
916.973
917.149
917.689
919.491
917.952
838.589
847.114
914.541
916.777
916.833
916.835
916.835
916.835
916.836
916.836
916.836
916.836
916.836
916.836
916.836
916.836
916.837
916.837
916.837
916.837
916.837
916.837
916.838
916.838
916.843
916.876
917.042
917.558
919.422
917.811
843.028
846.116
914.492
916.778
916.832
916.833
916.833
916.833
916.833
916.833
916.833
916.833
916.833
916.833
916.833
916.834
916.834
916.834
916.834
916.834
916.834
916.834
916.834
916.834
916.838
916.865
917.014
917.509
919.383
917.463
843.572
845.161
914.437
916.777
916.832
916.833
916.833
916.833
916.833
916.833
916.833
916.833
916.833
916.833
916.833
916.833
916.833
916.833
916.833
916.833
916.833
916.833
916.833
916.834
916.837
916.862
916.995
917.434
919.262
917.047
843.275
844.25
914.383
916.776
916.832
916.833
916.833
916.833
916.833
916.833
916.833
916.833
916.833
916.833
916.833
916.833
916.833
916.833
916.833
916.833
916.833
916.833
916.833
916.834
916.837
916.859
916.981
917.381
919.007
916.755
843.056
843.396
914.332
916.774
916.832
916.833
916.833
916.833
916.833
916.833
916.833
916.833
916.833
916.833
916.833
916.833
916.833
916.833
916.833
916.833
916.833
916.833
916.833
916.834
916.836
916.857
916.97
917.339
918.824
916.567
842.502
842.61
914.286
916.772
916.832
916.833
916.833
916.833
916.833
916.833
916.833
916.833
916.833
916.833
916.833
916.833
916.833
916.833
916.833
916.833
916.833
916.833
916.833
916.834
916.836
916.854
916.958
917.302
918.657
916.418
842.406
841.894
914.244
916.771
916.832
916.833
916.833
916.833
916.833
916.833
916.833
916.833
916.833
916.833
916.833
916.833
916.833
916.833
916.833
916.833
916.833
916.833
916.833
916.834
916.835
916.851
916.944
917.261
918.494
916.24
842.208
841.237
914.204
916.769
916.832
916.833
916.833
916.833
916.833
916.833
916.833
916.833
916.833
916.833
916.833
916.833
916.833
916.833
916.833
916.833
916.833
916.833
916.833
916.834
916.835
916.849
916.933
917.219
918.341
916.033
841.791
840.635
914.168
916.768
916.832
916.833
916.833
916.833
916.833
916.833
916.833
916.833
916.833
916.833
916.833
916.833
916.833
916.833
916.833
916.833
916.833
916.833
916.833
916.834
916.835
916.847
916.924
917.185
918.202
915.849
841.381
840.084
914.134
916.767
916.832
916.833
916.833
916.833
916.833
916.833
916.833
916.833
916.833
916.833
916.833
916.833
916.833
916.833
916.833
916.833
916.833
916.833
916.833
916.834
916.835
916.846
916.916
917.154
918.072
915.673
840.879
839.577
914.102
916.766
916.832
916.833
916.833
916.833
916.833
916.833
916.833
916.833
916.833
916.833
916.833
916.833
916.833
916.833
916.833
916.833
916.833
916.833
916.833
916.833
916.835
916.844
916.908
917.123
917.951
915.516
840.408
839.117
914.074
916.765
916.832
916.833
916.833
916.833
916.833
916.833
916.833
916.833
916.833
916.833
916.833
916.833
916.833
916.833
916.833
916.833
916.833
916.833
916.833
916.833
916.834
916.843
916.9
917.094
917.836
915.361
840.029
838.703
914.049
916.764
916.832
916.833
916.833
916.833
916.833
916.833
916.833
916.833
916.833
916.833
916.833
916.833
916.833
916.833
916.833
916.833
916.833
916.833
916.833
916.833
916.834
916.842
916.893
917.066
917.726
915.208
839.63
838.33
914.025
916.763
916.832
916.833
916.833
916.833
916.833
916.833
916.833
916.833
916.833
916.833
916.833
916.833
916.833
916.833
916.833
916.833
916.833
916.833
916.833
916.833
916.834
916.841
916.886
917.039
917.619
915.065
839.245
838
914.005
916.762
916.832
916.833
916.833
916.833
916.833
916.833
916.833
916.833
916.833
916.833
916.833
916.833
916.833
916.833
916.833
916.833
916.833
916.833
916.833
916.833
916.834
916.84
916.879
917.013
917.518
914.927
838.919
837.712
913.988
916.762
916.832
916.833
916.833
916.833
916.833
916.833
916.833
916.833
916.833
916.833
916.833
916.833
916.833
916.833
916.833
916.833
916.833
916.833
916.833
916.833
916.834
916.839
916.873
916.989
917.42
914.792
838.596
837.461
913.972
916.761
916.832
916.833
916.833
916.833
916.833
916.833
916.833
916.833
916.833
916.833
916.833
916.833
916.833
916.833
916.833
916.833
916.833
916.833
916.833
916.833
916.834
916.838
916.867
916.965
917.325
914.664
838.287
837.248
913.96
916.761
916.832
916.833
916.833
916.833
916.833
916.833
916.833
916.833
916.833
916.833
916.833
916.833
916.833
916.833
916.833
916.833
916.833
916.833
916.833
916.833
916.834
916.837
916.861
916.942
917.232
914.53
838.014
837.071
913.95
916.76
916.832
916.833
916.833
916.833
916.833
916.833
916.833
916.833
916.833
916.833
916.833
916.833
916.833
916.833
916.833
916.833
916.833
916.833
916.833
916.833
916.834
916.836
916.855
916.916
917.129
914.354
837.718
836.927
913.941
916.76
916.832
916.833
916.833
916.833
916.833
916.833
916.833
916.833
916.833
916.833
916.833
916.833
916.833
916.833
916.833
916.833
916.833
916.833
916.833
916.833
916.834
916.835
916.847
916.879
917.001
914.113
837.392
836.815
913.935
916.76
916.832
916.833
916.833
916.833
916.833
916.833
916.833
916.833
916.833
916.833
916.833
916.833
916.833
916.833
916.833
916.833
916.833
916.833
916.833
916.833
916.833
916.833
916.835
916.827
916.857
913.853
837.282
836.734
913.932
916.76
916.832
916.833
916.833
916.833
916.833
916.833
916.833
916.833
916.833
916.833
916.833
916.833
916.833
916.833
916.833
916.833
916.833
916.833
916.833
916.833
916.833
916.831
916.821
916.771
916.765
913.904
839.556
806.854
807.134
807.417
807.699
807.98
808.26
808.54
808.818
809.096
809.374
809.65
809.926
810.201
810.475
810.748
811.02
811.292
811.563
811.833
812.103
812.372
812.64
812.907
813.173
813.439
813.704
813.968
814.232
814.495
814.757
815.018
815.279
815.539
815.798
816.056
816.314
816.571
816.828
817.083
817.338
817.592
817.846
818.099
818.351
818.603
818.854
819.104
819.353
819.602
819.85
820.098
820.344
820.591
820.836
821.081
821.325
821.569
821.812
822.054
822.295
822.536
822.777
823.016
823.255
823.494
823.732
823.969
824.205
824.441
824.676
824.911
825.145
825.379
825.611
825.844
826.075
826.306
826.537
826.766
826.996
827.224
827.452
827.68
827.907
828.133
828.359
828.584
828.808
829.032
829.255
829.478
829.7
829.922
830.143
830.364
830.584
830.803
831.022
831.24
831.458
831.675
831.892
832.108
832.324
832.539
832.753
832.967
833.18
833.393
833.606
833.817
834.029
834.239
834.45
834.659
834.868
835.077
835.285
835.493
835.7
835.907
836.113
836.318
836.523
836.716
911.287
911.327
911.357
911.387
911.417
911.446
911.475
911.504
911.533
911.562
911.59
911.618
911.646
911.674
911.702
911.73
911.757
911.784
911.811
911.838
911.865
911.891
911.918
911.944
911.97
911.996
912.022
912.047
912.073
912.098
912.123
912.148
912.173
912.197
912.222
912.246
912.27
912.294
912.318
912.342
912.365
912.389
912.412
912.435
912.458
912.481
912.504
912.526
912.549
912.571
912.593
912.615
912.637
912.659
912.68
912.702
912.723
912.745
912.766
912.787
912.808
912.828
912.849
912.869
912.89
912.91
912.93
912.95
912.97
912.99
913.009
913.029
913.048
913.068
913.087
913.106
913.125
913.144
913.163
913.181
913.2
913.218
913.236
913.255
913.273
913.291
913.309
913.326
913.344
913.362
913.379
913.397
913.414
913.431
913.448
913.465
913.482
913.499
913.515
913.532
913.548
913.565
913.581
913.597
913.614
913.63
913.645
913.661
913.677
913.693
913.708
913.724
913.739
913.755
913.77
913.785
913.8
913.815
913.83
913.845
913.859
913.874
913.889
913.903
913.92
916.623
916.626
916.627
916.629
916.631
916.633
916.635
916.636
916.638
916.64
916.642
916.643
916.645
916.647
916.648
916.65
916.651
916.653
916.655
916.656
916.658
916.659
916.661
916.662
916.664
916.665
916.667
916.668
916.669
916.671
916.672
916.674
916.675
916.676
916.678
916.679
916.68
916.682
916.683
916.684
916.686
916.687
916.688
916.689
916.69
916.692
916.693
916.694
916.695
916.696
916.698
916.699
916.7
916.701
916.702
916.703
916.704
916.705
916.706
916.707
916.709
916.71
916.711
916.712
916.713
916.714
916.715
916.716
916.717
916.717
916.718
916.719
916.72
916.721
916.722
916.723
916.724
916.725
916.726
916.727
916.728
916.728
916.729
916.73
916.731
916.732
916.733
916.733
916.734
916.735
916.736
916.737
916.737
916.738
916.739
916.74
916.74
916.741
916.742
916.743
916.743
916.744
916.745
916.745
916.746
916.747
916.748
916.748
916.749
916.75
916.75
916.751
916.752
916.752
916.753
916.753
916.754
916.755
916.755
916.756
916.757
916.757
916.758
916.758
916.759
916.828
916.828
916.828
916.828
916.828
916.828
916.828
916.828
916.828
916.828
916.828
916.829
916.829
916.829
916.829
916.829
916.829
916.829
916.829
916.829
916.829
916.829
916.829
916.829
916.829
916.829
916.829
916.829
916.829
916.829
916.83
916.83
916.83
916.83
916.83
916.83
916.83
916.83
916.83
916.83
916.83
916.83
916.83
916.83
916.83
916.83
916.83
916.83
916.83
916.83
916.83
916.83
916.83
916.83
916.83
916.831
916.831
916.831
916.831
916.831
916.831
916.831
916.831
916.831
916.831
916.831
916.831
916.831
916.831
916.831
916.831
916.831
916.831
916.831
916.831
916.831
916.831
916.831
916.831
916.831
916.831
916.831
916.831
916.831
916.831
916.831
916.831
916.831
916.831
916.831
916.831
916.831
916.831
916.832
916.832
916.832
916.832
916.832
916.832
916.832
916.832
916.832
916.832
916.832
916.832
916.832
916.832
916.832
916.832
916.832
916.832
916.832
916.832
916.832
916.832
916.832
916.832
916.832
916.832
916.832
916.832
916.832
916.832
916.832
916.832
916.833
916.833
916.833
916.833
916.833
916.833
916.833
916.833
916.833
916.833
916.833
916.833
916.833
916.833
916.833
916.833
916.833
916.833
916.833
916.833
916.833
916.833
916.833
916.833
916.833
916.833
916.833
916.833
916.833
916.833
916.833
916.833
916.833
916.833
916.833
916.833
916.833
916.833
916.833
916.833
916.833
916.833
916.833
916.833
916.833
916.833
916.833
916.833
916.833
916.833
916.833
916.833
916.833
916.833
916.833
916.833
916.833
916.833
916.833
916.833
916.833
916.833
916.833
916.833
916.833
916.833
916.833
916.833
916.833
916.833
916.833
916.833
916.833
916.833
916.833
916.833
916.833
916.833
916.833
916.833
916.833
916.833
916.833
916.833
916.833
916.833
916.833
916.833
916.833
916.833
916.833
916.833
916.833
916.833
916.833
916.833
916.833
916.833
916.833
916.833
916.833
916.833
916.833
916.833
916.833
916.833
916.833
916.833
916.833
916.833
916.833
916.833
916.833
916.833
916.833
916.833
916.833
916.833
916.833
916.833
916.833
916.833
916.833
916.833
916.833
916.833
916.833
916.833
916.833
916.833
916.833
916.833
916.833
916.833
916.833
916.833
916.833
916.833
916.833
916.833
916.833
916.833
916.833
916.833
916.833
916.833
916.833
916.833
916.833
916.833
916.833
916.833
916.833
916.833
916.833
916.833
916.833
916.833
916.833
916.833
916.833
916.833
916.833
916.833
916.833
916.833
916.833
916.833
916.833
916.833
916.833
916.833
916.833
916.833
916.833
916.833
916.833
916.833
916.833
916.833
916.833
916.833
916.833
916.833
916.833
916.833
916.833
916.833
916.833
916.833
916.833
916.833
916.833
916.833
916.833
916.833
916.833
916.833
916.833
916.833
916.833
916.833
916.833
916.833
916.833
916.833
916.833
916.833
916.833
916.833
916.833
916.833
916.833
916.833
916.833
916.833
916.833
916.833
916.833
916.833
916.833
916.833
916.833
916.833
916.833
916.833
916.833
916.833
916.833
916.833
916.833
916.833
916.833
916.833
916.833
916.833
916.833
916.833
916.833
916.833
916.833
916.833
916.833
916.833
916.833
916.833
916.833
916.833
916.833
916.833
916.833
916.833
916.833
916.833
916.833
916.833
916.833
916.833
916.833
916.833
916.833
916.833
916.833
916.833
916.833
916.833
916.833
916.833
916.833
916.833
916.833
916.833
916.833
916.833
916.833
916.833
916.833
916.833
916.833
916.833
916.833
916.833
916.833
916.833
916.833
916.833
916.833
916.833
916.833
916.833
916.833
916.833
916.833
916.833
916.833
916.833
916.833
916.833
916.833
916.833
916.833
916.833
916.833
916.833
916.833
916.833
916.833
916.833
916.833
916.833
916.833
916.833
916.833
916.833
916.833
916.833
916.833
916.833
916.833
916.833
916.833
916.833
916.833
916.833
916.833
916.833
916.833
916.833
916.833
916.833
916.833
916.833
916.833
916.833
916.833
916.833
916.833
916.833
916.833
916.833
916.833
916.833
916.833
916.833
916.833
916.833
916.833
916.833
916.833
916.833
916.833
916.833
916.833
916.833
916.833
916.833
916.833
916.833
916.833
916.833
916.833
916.833
916.833
916.833
916.833
916.833
916.833
916.833
916.833
916.833
916.833
916.833
916.833
916.833
916.833
916.833
916.833
916.833
916.833
916.833
916.833
916.833
916.833
916.833
916.833
916.833
916.833
916.833
916.833
916.833
916.833
916.833
916.833
916.833
916.833
916.833
916.833
916.833
916.833
916.833
916.833
916.833
916.833
916.833
916.833
916.833
916.833
916.833
916.833
916.833
916.833
916.833
916.833
916.833
916.833
916.833
916.833
916.833
916.833
916.833
916.833
916.833
916.833
916.833
916.833
916.833
916.833
916.833
916.833
916.833
916.833
916.833
916.833
916.833
916.833
916.833
916.833
916.833
916.833
916.833
916.833
916.833
916.833
916.833
916.833
916.833
916.833
916.833