/*--------------------------------*- C++ -*----------------------------------*\
| =========                 |                                                 |
| \\      /  F ield         | OpenFOAM: The Open Source CFD Toolbox           |
|  \\    /   O peration     | Version:  2112                                  |
|   \\  /    A nd           | Website:  www.openfoam.com                      |
|    \\/     M anipulation  |                                                 |
\*---------------------------------------------------------------------------*/
FoamFile
{
    version     2.0;
    format      ascii;
    arch        "LSB;label=32;scalar=64";
    class       volScalarField;
    location    "0.00321";
    object      epsilon;
}
// * * * * * * * * * * * * * * * * * * * * * * * * * * * * * * * * * * * * * //

dimensions      [0 2 -3 0 0 0 0];

internalField   nonuniform List<scalar> 
13875
(
1.15997e+06
2.94639e+07
3.28126e+07
3.2848e+07
3.29645e+07
3.2865e+07
3.28616e+07
3.28865e+07
3.2919e+07
3.295e+07
3.29313e+07
3.29007e+07
3.28681e+07
3.28341e+07
3.28684e+07
3.29195e+07
3.29792e+07
3.29196e+07
3.28867e+07
3.28313e+07
3.29391e+07
3.28339e+07
3.27998e+07
2.94956e+07
1.17799e+06
1.31388e+06
2.27487e+07
2.53483e+07
2.5245e+07
2.531e+07
2.5219e+07
2.52064e+07
2.52209e+07
2.52335e+07
2.52455e+07
2.52552e+07
2.52377e+07
2.5209e+07
2.51868e+07
2.52134e+07
2.52498e+07
2.52566e+07
2.52394e+07
2.52323e+07
2.52033e+07
2.52907e+07
2.52204e+07
2.53255e+07
2.27667e+07
1.34198e+06
1.57305e+06
1.97076e+07
2.18243e+07
2.16309e+07
2.17009e+07
2.16303e+07
2.16137e+07
2.16134e+07
2.15435e+07
2.15388e+07
2.15609e+07
2.15527e+07
2.16088e+07
2.15965e+07
2.16129e+07
2.15639e+07
2.15392e+07
2.15483e+07
2.16292e+07
2.16248e+07
2.16939e+07
2.16007e+07
2.17881e+07
1.9696e+07
1.58403e+06
1.81381e+06
1.73861e+07
1.90338e+07
1.8884e+07
1.89663e+07
1.89077e+07
1.88904e+07
1.88882e+07
1.88015e+07
1.88037e+07
1.88118e+07
1.88037e+07
1.88842e+07
1.88738e+07
1.88887e+07
1.8815e+07
1.88021e+07
1.88012e+07
1.89031e+07
1.89022e+07
1.89604e+07
1.88574e+07
1.9013e+07
1.73661e+07
1.82008e+06
2.02296e+06
1.54531e+07
1.67686e+07
1.66242e+07
1.66991e+07
1.66505e+07
1.66359e+07
1.6629e+07
1.65472e+07
1.65549e+07
1.65563e+07
1.65492e+07
1.66285e+07
1.66205e+07
1.66332e+07
1.65561e+07
1.65513e+07
1.65446e+07
1.66415e+07
1.66475e+07
1.66955e+07
1.66042e+07
1.67435e+07
1.54278e+07
2.0359e+06
2.2068e+06
1.37136e+07
1.49252e+07
1.47414e+07
1.48235e+07
1.47757e+07
1.47588e+07
1.4743e+07
1.4663e+07
1.4675e+07
1.46701e+07
1.46641e+07
1.4744e+07
1.474e+07
1.47482e+07
1.46668e+07
1.46718e+07
1.4661e+07
1.47572e+07
1.47767e+07
1.48227e+07
1.47296e+07
1.49027e+07
1.38463e+07
2.22322e+06
2.42317e+06
1.22529e+07
1.34753e+07
1.321e+07
1.32614e+07
1.32058e+07
1.31813e+07
1.3156e+07
1.30785e+07
1.30932e+07
1.30816e+07
1.30783e+07
1.31593e+07
1.31599e+07
1.31609e+07
1.30766e+07
1.30917e+07
1.30799e+07
1.31748e+07
1.3209e+07
1.32606e+07
1.32022e+07
1.34223e+07
1.19519e+07
2.43082e+06
2.66764e+06
1.06207e+07
1.23137e+07
1.19811e+07
1.1995e+07
1.19124e+07
1.18668e+07
1.1825e+07
1.17491e+07
1.17624e+07
1.17444e+07
1.17405e+07
1.18237e+07
1.18309e+07
1.18245e+07
1.17362e+07
1.17634e+07
1.17542e+07
1.18512e+07
1.19127e+07
1.19913e+07
1.19755e+07
1.22642e+07
1.05434e+07
2.69742e+06
3.49994e+06
1.02141e+07
1.14871e+07
1.10421e+07
1.09491e+07
1.08419e+07
1.07738e+07
1.07154e+07
1.06445e+07
1.06534e+07
1.06282e+07
1.06215e+07
1.07082e+07
1.07228e+07
1.07089e+07
1.062e+07
1.06548e+07
1.06542e+07
1.07492e+07
1.08396e+07
1.09517e+07
1.10337e+07
1.14819e+07
1.0347e+07
3.58089e+06
6.84807e+06
1.22501e+07
1.12147e+07
1.04313e+07
1.0231e+07
1.00471e+07
9.94818e+06
9.87319e+06
9.81301e+06
9.81217e+06
9.78346e+06
9.77406e+06
9.86095e+06
9.88191e+06
9.86302e+06
9.78397e+06
9.81389e+06
9.82739e+06
9.9097e+06
1.00282e+07
1.02143e+07
1.04142e+07
1.11848e+07
1.21493e+07
6.8974e+06
1.49609e+07
1.87189e+07
1.21077e+07
1.04356e+07
9.79685e+06
9.53654e+06
9.39429e+06
9.2998e+06
9.24616e+06
9.23373e+06
9.20627e+06
9.19438e+06
9.27653e+06
9.30195e+06
9.28381e+06
9.22566e+06
9.24605e+06
9.27075e+06
9.35217e+06
9.49631e+06
9.78299e+06
1.03988e+07
1.19903e+07
1.8072e+07
1.50685e+07
2.54384e+07
6.75868e+07
1.8917e+07
1.09962e+07
1.00668e+07
9.44689e+06
9.16647e+06
9.03276e+06
8.96038e+06
8.93189e+06
8.90695e+06
8.89546e+06
8.9635e+06
8.99104e+06
8.98115e+06
8.95022e+06
8.96973e+06
9.01771e+06
9.13203e+06
9.41144e+06
1.00065e+07
1.0844e+07
1.82076e+07
6.71177e+07
2.50691e+07
2.66548e+07
6.99053e+07
9.05879e+07
2.86705e+07
1.17534e+07
9.93526e+06
9.55486e+06
9.37432e+06
9.30638e+06
9.26631e+06
9.24704e+06
9.24187e+06
9.29563e+06
9.31816e+06
9.32195e+06
9.31604e+06
9.34464e+06
9.39728e+06
9.55258e+06
1.00264e+07
1.21691e+07
2.66225e+07
8.54244e+07
7.04777e+07
2.61386e+07
2.64452e+07
5.16967e+07
8.10144e+07
1.17153e+08
5.80162e+07
1.61442e+07
1.32528e+07
1.17371e+07
1.13016e+07
1.11268e+07
1.10662e+07
1.10466e+07
1.11007e+07
1.11302e+07
1.11565e+07
1.12096e+07
1.13961e+07
1.18821e+07
1.35431e+07
1.73638e+07
6.59628e+07
1.00583e+08
7.69223e+07
5.15351e+07
2.59672e+07
2.58573e+07
4.12719e+07
5.99124e+07
8.09475e+07
7.24176e+07
5.74908e+07
6.06534e+07
4.53759e+07
4.39446e+07
4.52937e+07
4.68636e+07
4.65661e+07
4.76468e+07
4.71544e+07
4.71918e+07
4.58589e+07
4.44187e+07
4.62712e+07
6.3615e+07
5.84029e+07
7.37365e+07
7.33517e+07
5.82793e+07
4.11929e+07
2.72031e+07
2.62754e+07
3.43641e+07
5.02188e+07
6.7182e+07
7.15473e+07
8.68324e+07
7.15288e+07
5.31745e+07
5.45487e+07
5.88041e+07
5.95745e+07
6.00563e+07
6.06735e+07
6.08105e+07
6.01994e+07
5.96194e+07
5.41737e+07
5.24913e+07
7.01483e+07
8.62024e+07
7.26582e+07
6.24259e+07
4.8863e+07
3.41334e+07
2.75314e+07
2.38099e+07
3.05775e+07
4.41105e+07
6.05184e+07
6.80628e+07
8.08636e+07
5.43975e+07
3.86093e+07
3.7423e+07
3.8044e+07
3.8456e+07
3.86985e+07
3.89737e+07
3.91034e+07
3.88948e+07
3.84849e+07
3.72702e+07
3.86791e+07
5.23229e+07
8.10457e+07
6.79285e+07
5.74336e+07
4.39128e+07
2.95677e+07
2.34312e+07
1.92418e+07
2.95886e+07
4.32395e+07
4.86662e+07
5.31105e+07
6.12778e+07
4.37437e+07
3.15247e+07
2.92734e+07
2.84272e+07
2.80249e+07
2.7907e+07
2.80818e+07
2.8191e+07
2.84454e+07
2.88198e+07
2.93201e+07
3.18179e+07
4.30728e+07
6.03185e+07
5.1857e+07
4.67459e+07
4.39121e+07
2.92998e+07
1.87243e+07
1.54056e+07
2.98824e+07
3.90101e+07
3.86921e+07
3.93614e+07
4.49134e+07
3.91727e+07
3.04842e+07
2.59306e+07
2.32851e+07
2.18775e+07
2.13267e+07
2.13308e+07
2.14778e+07
2.20322e+07
2.32002e+07
2.53808e+07
2.97918e+07
3.81577e+07
4.39433e+07
3.82495e+07
3.78709e+07
3.94438e+07
3.09229e+07
1.52154e+07
1.4056e+07
3.36576e+07
3.3025e+07
3.13468e+07
3.12132e+07
3.50012e+07
3.44017e+07
2.92191e+07
2.41794e+07
2.04178e+07
1.81583e+07
1.71793e+07
1.70309e+07
1.731e+07
1.82865e+07
2.03466e+07
2.38503e+07
2.88121e+07
3.36062e+07
3.40526e+07
3.0502e+07
3.09038e+07
3.21121e+07
2.98397e+07
1.43102e+07
1.55573e+07
2.76651e+07
2.71111e+07
2.57191e+07
2.55997e+07
2.86805e+07
2.95746e+07
2.61748e+07
2.16633e+07
1.78404e+07
1.52856e+07
1.40604e+07
1.38244e+07
1.42223e+07
1.54969e+07
1.79568e+07
2.16437e+07
2.60416e+07
2.90007e+07
2.79509e+07
2.5183e+07
2.55797e+07
2.6142e+07
2.38244e+07
1.56432e+07
2.28502e+07
2.76438e+07
2.31671e+07
2.1747e+07
2.16221e+07
2.41818e+07
2.5225e+07
2.27652e+07
1.89487e+07
1.54176e+07
1.28958e+07
1.16185e+07
1.13307e+07
1.17636e+07
1.30923e+07
1.55307e+07
1.89273e+07
2.25889e+07
2.47172e+07
2.37158e+07
2.1379e+07
2.16967e+07
2.21235e+07
2.52837e+07
2.25649e+07
2.62758e+07
3.03417e+07
2.02269e+07
1.84105e+07
1.84961e+07
2.0546e+07
2.13773e+07
1.9446e+07
1.62782e+07
1.32023e+07
1.08936e+07
9.67387e+06
9.36866e+06
9.76372e+06
1.09963e+07
1.32025e+07
1.61366e+07
1.91698e+07
2.08406e+07
2.01356e+07
1.82769e+07
1.83522e+07
1.92297e+07
2.88432e+07
2.5738e+07
2.51255e+07
2.9216e+07
1.73601e+07
1.58141e+07
1.58963e+07
1.7326e+07
1.80332e+07
1.64708e+07
1.37606e+07
1.11372e+07
9.15164e+06
8.08982e+06
7.81921e+06
8.17961e+06
9.27052e+06
1.11781e+07
1.36679e+07
1.62657e+07
1.75823e+07
1.69451e+07
1.57671e+07
1.58494e+07
1.67505e+07
2.78917e+07
2.47769e+07
2.42535e+07
2.7294e+07
1.5137e+07
1.3821e+07
1.37844e+07
1.47037e+07
1.52665e+07
1.3961e+07
1.16805e+07
9.46128e+06
7.7488e+06
6.83268e+06
6.60002e+06
6.91293e+06
7.85824e+06
9.5141e+06
1.16218e+07
1.38027e+07
1.48971e+07
1.43576e+07
1.36414e+07
1.38662e+07
1.47914e+07
2.69097e+07
2.39909e+07
2.33506e+07
2.5728e+07
1.35774e+07
1.23117e+07
1.20649e+07
1.26143e+07
1.29806e+07
1.18398e+07
9.93193e+06
8.07397e+06
6.61811e+06
5.82968e+06
5.62243e+06
5.89235e+06
6.69583e+06
8.09531e+06
9.84847e+06
1.16612e+07
1.26318e+07
1.22957e+07
1.18766e+07
1.22842e+07
1.33533e+07
2.56629e+07
2.29891e+07
2.24976e+07
2.44434e+07
1.23346e+07
1.10597e+07
1.06651e+07
1.09019e+07
1.10349e+07
1.00168e+07
8.43866e+06
6.8981e+06
5.67419e+06
5.01396e+06
4.83797e+06
5.07309e+06
5.76413e+06
6.95665e+06
8.42773e+06
9.93542e+06
1.0811e+07
1.06705e+07
1.04967e+07
1.10486e+07
1.22707e+07
2.50558e+07
2.25851e+07
2.21963e+07
2.34859e+07
1.14237e+07
9.99145e+06
9.55246e+06
9.55608e+06
9.48169e+06
8.55022e+06
7.23134e+06
5.94686e+06
4.91783e+06
4.35647e+06
4.19997e+06
4.40464e+06
4.99148e+06
5.98948e+06
7.21232e+06
8.47027e+06
9.28484e+06
9.36162e+06
9.39481e+06
9.96481e+06
1.13643e+07
2.38944e+07
2.21658e+07
2.23428e+07
2.22505e+07
1.06127e+07
9.05621e+06
8.60414e+06
8.4576e+06
8.20756e+06
7.35528e+06
6.2468e+06
5.16698e+06
4.29472e+06
3.81551e+06
3.67619e+06
3.85187e+06
4.34387e+06
5.1797e+06
6.20278e+06
7.2566e+06
8.01537e+06
8.27949e+06
8.45088e+06
9.01253e+06
1.05675e+07
2.21687e+07
2.17888e+07
2.17077e+07
2.09429e+07
9.93261e+06
8.23539e+06
7.75032e+06
7.51179e+06
7.12645e+06
6.33097e+06
5.38885e+06
4.48813e+06
3.76465e+06
3.3637e+06
3.2426e+06
3.40054e+06
3.82499e+06
4.53098e+06
5.39482e+06
6.30088e+06
7.01629e+06
7.39593e+06
7.63614e+06
8.20819e+06
9.9172e+06
2.11217e+07
2.21055e+07
2.09425e+07
1.98045e+07
9.42473e+06
7.579e+06
7.00443e+06
6.70725e+06
6.25655e+06
5.52834e+06
4.71514e+06
3.946e+06
3.33084e+06
2.98803e+06
2.88073e+06
3.01909e+06
3.37697e+06
3.9736e+06
4.71079e+06
5.49385e+06
6.16092e+06
6.60498e+06
6.89178e+06
7.55469e+06
9.35339e+06
1.99488e+07
2.11214e+07
2.02168e+07
1.88542e+07
8.99873e+06
7.09364e+06
6.35553e+06
6.01665e+06
5.54628e+06
4.86944e+06
4.15782e+06
3.4943e+06
2.97104e+06
2.67461e+06
2.57682e+06
2.69927e+06
3.00473e+06
3.50939e+06
4.14295e+06
4.82881e+06
5.4551e+06
5.92099e+06
6.2554e+06
7.05013e+06
8.9161e+06
1.88516e+07
2.01162e+07
1.91388e+07
1.76151e+07
8.73977e+06
6.6941e+06
5.8055e+06
5.39822e+06
4.9232e+06
4.30586e+06
3.68256e+06
3.10717e+06
2.6586e+06
2.40533e+06
2.31916e+06
2.42953e+06
2.69383e+06
3.13084e+06
3.6867e+06
4.28959e+06
4.86407e+06
5.32784e+06
5.72333e+06
6.64512e+06
8.63087e+06
1.79297e+07
1.94635e+07
1.86337e+07
1.64727e+07
8.52026e+06
6.42063e+06
5.3604e+06
4.88326e+06
4.40615e+06
3.8461e+06
3.29076e+06
2.7873e+06
2.40101e+06
2.17945e+06
2.09987e+06
2.19835e+06
2.42689e+06
2.8017e+06
3.28822e+06
3.82632e+06
4.35231e+06
4.82213e+06
5.2884e+06
6.35306e+06
8.52922e+06
1.67992e+07
1.86399e+07
1.82019e+07
1.55236e+07
8.11529e+06
6.21208e+06
5.02424e+06
4.44766e+06
3.96245e+06
3.4572e+06
2.96548e+06
2.52123e+06
2.17953e+06
1.98503e+06
1.91214e+06
1.99958e+06
2.19823e+06
2.5284e+06
2.95805e+06
3.43525e+06
3.91154e+06
4.39173e+06
4.96648e+06
6.17814e+06
8.26011e+06
1.56869e+07
1.80287e+07
1.73915e+07
1.43878e+07
7.59022e+06
6.03677e+06
4.77111e+06
4.08656e+06
3.58462e+06
3.11513e+06
2.67529e+06
2.28405e+06
1.98795e+06
1.81721e+06
1.75044e+06
1.83086e+06
2.00767e+06
2.29706e+06
2.67802e+06
3.10721e+06
3.54947e+06
4.045e+06
4.72478e+06
6.06812e+06
7.77937e+06
1.47052e+07
1.74661e+07
1.68899e+07
1.34293e+07
7.1124e+06
6.00952e+06
4.58678e+06
3.8086e+06
3.27039e+06
2.82902e+06
2.43412e+06
2.08741e+06
1.82329e+06
1.67074e+06
1.60956e+06
1.68226e+06
1.83708e+06
2.09511e+06
2.43226e+06
2.8185e+06
3.23465e+06
3.7697e+06
4.54761e+06
6.07222e+06
7.236e+06
1.35898e+07
1.67805e+07
1.65355e+07
1.2531e+07
6.66753e+06
5.88809e+06
4.49144e+06
3.59549e+06
3.02204e+06
2.58977e+06
2.22474e+06
1.91341e+06
1.68048e+06
1.54388e+06
1.48703e+06
1.55368e+06
1.69039e+06
1.91664e+06
2.21949e+06
2.57846e+06
2.99128e+06
3.56502e+06
4.48408e+06
5.96147e+06
6.70576e+06
1.261e+07
1.64024e+07
1.59957e+07
1.16475e+07
6.12649e+06
5.57204e+06
4.43773e+06
3.42709e+06
2.82835e+06
2.3854e+06
2.04104e+06
1.76014e+06
1.55226e+06
1.43009e+06
1.37884e+06
1.44021e+06
1.56247e+06
1.76672e+06
2.04131e+06
2.3805e+06
2.80799e+06
3.40772e+06
4.47498e+06
5.66094e+06
6.16814e+06
1.17926e+07
1.61329e+07
1.5687e+07
1.09356e+07
5.62087e+06
5.24199e+06
4.54209e+06
3.32917e+06
2.68109e+06
2.22642e+06
1.88729e+06
1.62819e+06
1.44165e+06
1.33159e+06
1.28325e+06
1.33952e+06
1.4486e+06
1.63125e+06
1.88466e+06
2.22239e+06
2.66236e+06
3.31051e+06
4.60219e+06
5.30753e+06
5.61356e+06
1.10559e+07
1.56599e+07
1.54492e+07
1.03753e+07
5.21324e+06
4.89048e+06
4.51404e+06
3.30081e+06
2.56944e+06
2.10625e+06
1.76177e+06
1.5154e+06
1.34366e+06
1.24304e+06
1.19819e+06
1.24898e+06
1.34794e+06
1.51541e+06
1.75689e+06
2.10017e+06
2.55534e+06
3.31846e+06
4.5929e+06
4.93605e+06
5.15534e+06
1.04911e+07
1.53343e+07
1.50479e+07
9.84983e+06
4.81142e+06
4.51408e+06
4.2908e+06
3.35883e+06
2.49025e+06
2.00557e+06
1.66057e+06
1.41817e+06
1.25653e+06
1.16441e+06
1.12241e+06
1.1704e+06
1.26093e+06
1.41929e+06
1.65754e+06
2.00493e+06
2.50613e+06
3.45558e+06
4.3354e+06
4.55268e+06
4.85036e+06
1.00305e+07
1.51007e+07
1.47795e+07
9.40724e+06
4.51372e+06
4.16004e+06
4.01918e+06
3.4778e+06
2.48918e+06
1.92961e+06
1.58595e+06
1.33675e+06
1.18149e+06
1.09395e+06
1.05436e+06
1.09914e+06
1.1839e+06
1.33713e+06
1.58048e+06
1.92713e+06
2.53201e+06
3.55258e+06
4.03562e+06
4.18228e+06
4.51401e+06
9.57078e+06
1.47393e+07
1.45721e+07
9.02723e+06
4.32536e+06
3.85524e+06
3.73563e+06
3.42592e+06
2.59692e+06
1.88604e+06
1.5204e+06
1.27429e+06
1.12005e+06
1.03339e+06
994316
1.03769e+06
1.12146e+06
1.27467e+06
1.5155e+06
1.89052e+06
2.69587e+06
3.46213e+06
3.71841e+06
3.86623e+06
4.27814e+06
9.14465e+06
1.44851e+07
1.43515e+07
8.61073e+06
4.09112e+06
3.58435e+06
3.45037e+06
3.23767e+06
2.80683e+06
1.90038e+06
1.46966e+06
1.22682e+06
1.07384e+06
982915
943502
987411
1.07439e+06
1.22763e+06
1.47017e+06
1.95138e+06
2.86174e+06
3.25682e+06
3.41841e+06
3.60029e+06
4.13477e+06
8.77472e+06
1.42882e+07
1.41674e+07
8.24324e+06
3.95426e+06
3.35852e+06
3.19329e+06
3.04468e+06
2.86033e+06
2.08085e+06
1.44785e+06
1.18644e+06
1.03794e+06
945928
903052
950072
1.03702e+06
1.18621e+06
1.45352e+06
2.1184e+06
2.8222e+06
3.04196e+06
3.16505e+06
3.36669e+06
3.96171e+06
8.37369e+06
1.41054e+07
1.40032e+07
7.93048e+06
3.85499e+06
3.1783e+06
2.98071e+06
2.84573e+06
2.71207e+06
2.27707e+06
1.52023e+06
1.15703e+06
1.00411e+06
915347
870949
919186
1.00352e+06
1.15645e+06
1.52909e+06
2.30643e+06
2.67796e+06
2.82972e+06
2.95491e+06
3.17918e+06
3.82342e+06
8.01058e+06
1.39095e+07
1.36634e+07
7.54144e+06
3.7021e+06
3.01727e+06
2.79666e+06
2.65467e+06
2.55368e+06
2.29837e+06
1.70043e+06
1.16323e+06
975488
887537
844295
891321
977310
1.17704e+06
1.74319e+06
2.31751e+06
2.52688e+06
2.64308e+06
2.77752e+06
3.02653e+06
3.72653e+06
7.65964e+06
1.35449e+07
1.31245e+07
7.11733e+06
3.55843e+06
2.87216e+06
2.63953e+06
2.48967e+06
2.3867e+06
2.1978e+06
1.87375e+06
1.25495e+06
963621
862910
820805
866214
967792
1.27668e+06
1.88955e+06
2.21223e+06
2.36811e+06
2.47987e+06
2.62591e+06
2.88041e+06
3.57323e+06
7.20872e+06
1.2988e+07
1.16395e+07
6.50933e+06
3.39858e+06
2.72562e+06
2.49873e+06
2.34587e+06
2.23114e+06
2.08393e+06
1.88777e+06
1.44968e+06
1.00495e+06
850153
805117
852210
1.01272e+06
1.46263e+06
1.86937e+06
2.09327e+06
2.21907e+06
2.33947e+06
2.48769e+06
2.72996e+06
3.39469e+06
6.56208e+06
1.15434e+07
165036
117747
109903
108495
107270
107065
107188
108224
110180
113038
116643
120823
125624
131149
137310
143982
151370
159581
169020
179643
192172
206828
223384
235713
205932
175589
169146
167750
170665
287060
130411
100707
98091.3
98484.8
98328.6
99024.2
99950.6
101768
104395
107914
112099
116595
121216
126341
132259
138174
144403
151131
158849
167862
177908
189538
202846
217776
221270
158397
118195
111545
111925
150170
111459
92321
91658.2
92836.3
93233.9
94495.3
96101.8
98683.3
102058
106267
110940
115698
120350
125092
130379
136537
142507
149025
155991
163971
172485
181760
191610
201842
211791
199413
124388
93922.6
90794.8
110708
104982
89713.6
89297.3
91040.4
91787.5
93630.5
95899.2
99235.6
103369
108254
113422
118540
123411
128164
133349
139475
145791
152492
159539
166874
175453
184315
193698
203196
212852
219061
191334
107482
86187.2
100659
103680
89286.7
88978.6
90998.9
92151.9
94587.5
97554.3
101614
106452
111956
117644
123203
128365
133273
138560
144493
151340
158278
165500
172967
180825
189942
199370
208745
218228
227574
230480
176834
97409.1
100176
103979
89412.4
89270.2
91396.1
93269.3
96482.5
100406
105349
110908
116972
123155
129120
134584
139633
145141
151067
158223
165338
172635
180109
187990
196370
205702
215599
225309
235105
244421
239977
151805
108715
104941
89864.9
89957.4
92248
95043.3
99309.2
104400
110423
116944
123622
130205
136420
142224
147696
152904
158984
166119
173370
180618
187990
195487
203439
212377
222429
233032
243385
254175
266262
241854
156847
106473
90717.4
91113.9
93771.5
97512.7
102820
109292
116666
124375
131846
138875
145383
151480
156895
161759
167848
174407
181706
188665
195719
203005
210771
219500
229545
240749
252020
264359
283474
309491
390536
108669
91985.4
92803.7
95991.3
100799
107568
115611
124403
133197
141707
149340
156019
161888
167051
171891
177011
182805
189669
196397
203230
210487
218339
227105
237107
248477
259179
275760
308131
430376
616319
111173
93555
94946.1
98993.4
105419
113970
123780
134068
144081
153364
161497
167753
173178
178159
182526
186161
191247
197359
204120
210796
218031
226043
234980
245016
255881
267182
290631
359777
676789
724666
114050
95397
97654.3
103150
111693
122309
133997
145731
156784
166513
174509
180249
185228
189554
192876
195943
199853
205206
211836
218440
225596
233708
242780
252855
261975
278303
317640
477785
965315
794498
116864
97569.4
101232
108895
120037
132883
146403
159297
170958
180609
187977
193340
197411
200364
202923
205473
208338
213006
219219
225889
232955
241043
250085
260049
270810
292644
372761
739827
1.06863e+06
838268
120224
100444
106209
116742
130830
145903
160973
174544
186062
194919
201438
205584
208456
210319
212065
214063
216108
220068
225758
232618
239573
247540
256468
265255
280272
315331
483600
969400
1.07264e+06
857542
123623
104377
113115
127226
144369
161296
177172
189996
200470
207814
213213
216153
217740
218589
219601
221082
222457
225710
230963
237910
244814
252622
261524
270870
290354
358816
710530
1.05102e+06
1.05292e+06
871972
128788
110246
122635
140607
160375
178262
193162
204495
213054
218524
222617
224176
224462
224419
224786
225724
226539
229140
234219
241174
248220
256001
265058
276675
305587
452602
955382
1.06362e+06
1.02431e+06
883448
134632
118529
135159
156742
177973
195079
207920
216868
222895
226308
228893
228928
228025
227262
227202
227308
227791
229667
234637
241715
249198
257304
266596
281916
334379
642600
1.02936e+06
1.05147e+06
993419
889965
144691
130259
151193
174911
195727
210705
220766
226570
229811
230925
231702
229992
228068
226815
225952
225356
225752
227085
231871
239272
247537
256232
265922
288517
401981
888852
1.02924e+06
1.02764e+06
966042
895528
154417
145181
169995
194555
213246
225039
231899
234320
234712
233034
231828
228545
225571
223671
222772
221517
221441
222091
226616
234259
243369
252807
265439
302895
548698
975820
1.00937e+06
1.0007e+06
943464
897679
168212
163828
191795
214536
231656
241160
246203
245854
242017
236798
232709
227394
223084
220627
219334
217356
216392
216303
220334
227714
237359
247607
264319
340275
749224
979488
982703
970656
922146
895058
179702
187443
216511
240006
259162
269988
275320
270992
260552
248541
239413
230758
224254
220024
217321
213710
211283
210347
213487
220560
230377
241038
266498
427937
880014
959418
956604
940714
899791
886958
196581
217502
252087
280540
316081
331521
338616
324707
303155
277102
260032
244849
233171
223661
214939
208845
205503
204610
206146
213172
223036
234845
280263
578291
908384
933722
932390
914480
879414
874123
219751
273253
321662
395552
448443
461744
461579
430301
385531
336692
304501
276769
254353
233552
218869
209911
203884
201154
200284
206627
216234
231452
317993
729677
897811
908187
908669
890645
858163
857092
269989
361689
492694
595936
652510
669756
670782
612064
528619
444422
381908
332512
289607
255448
233031
219283
208589
202501
198253
202241
211216
233713
410309
809652
876438
884363
886643
868753
836353
837260
344503
755414
795811
845370
914093
958986
966537
876936
750022
612592
496371
410902
345813
296051
260869
239029
220921
209387
200826
201250
208001
249555
544354
825239
852813
861535
868705
848358
814677
815928
538093
1.87605e+06
1.42781e+06
1.12369e+06
1.18192e+06
1.22502e+06
1.28318e+06
1.22295e+06
1.06969e+06
859220
658463
524464
434335
364314
307797
273479
242666
223579
209334
203408
209996
289237
673837
816331
831982
840553
853956
829214
793221
792786
287061
170664
167743
169099
175273
204676
235212
223238
206636
191981
179445
168825
159396
151199
143827
137173
131027
125524
120743
116579
112996
110152
108209
107179
107062
107268
108510
109921
117793
165189
150169
111918
111507
117856
156587
220233
217424
202511
189210
177577
167551
158553
150853
144147
137945
132047
126156
121079
116487
112007
107837
104341
101731
99923.6
99002.9
98313.8
98468
98076.7
100700
130420
110702
90771.4
93703.3
122873
197821
211227
201382
191154
181336
172083
163571
155639
148662
142171
136262
130137
124884
120175
115554
110826
106177
101986
98631.1
96064.6
94470.8
93216.9
92811
91646.3
92299.1
111448
100634
86055.9
106347
189097
218354
212344
202679
193201
183844
175019
166479
159147
152168
145493
139170
133098
127920
123201
118367
113285
108147
103283
99172.1
95854.5
93600.5
91768.1
91027.9
89296.4
89704.8
104933
100073
96682.4
174262
229685
227085
217696
208194
198845
189476
180385
172565
165141
157947
151032
144195
138253
132996
128123
123003
117484
111830
106352
101546
97518.3
94571.8
92151.3
90999.3
88989.5
89290.7
103641
108252
149463
238831
243984
234611
224750
215049
205197
195895
187549
179705
172265
164999
157911
150769
144749
139290
134283
128861
122958
116845
110821
105306
100406
96512.6
93322.1
91447.3
89320.8
89449.9
104007
154359
239637
265738
253741
242875
232495
221912
211879
202963
195045
187591
180259
173040
165816
158681
152528
147285
141898
136156
129966
123495
116919
110485
104508
99433.4
95181.3
92367.9
90055.4
89947.5
104952
384565
307962
283065
263908
251549
240263
229057
219011
210295
202559
195312
188301
181372
174093
167530
161547
156700
151232
145187
138770
131836
124552
116890
109517
103014
97695.2
93964.4
91267.8
90856.4
106598
613924
428460
307594
275424
258799
248033
236630
226610
217852
210030
202805
196003
189304
182447
176422
171861
166974
161786
155912
149372
141938
133487
124709
115884
107818
101024
96234.1
93023.6
92191.8
108869
723641
675146
359085
290268
266806
255462
244531
234470
225534
217548
210344
203698
196969
190865
185947
182386
178201
173207
167826
161670
153705
144467
134455
124122
114293
105703
99274.8
95218.2
93824.1
111469
794350
967131
477074
317197
277911
261524
252353
242249
233178
225092
217966
211402
204825
199507
195830
192837
189637
185399
180485
174944
166962
157219
146196
134442
122719
112058
103482
97962
95717.3
114495
839240
1.07251e+06
740373
372379
292219
270339
259538
249547
240505
232442
225415
218792
212663
208080
205463
202935
200479
197961
193929
188830
181312
171487
159760
146917
133392
120510
109310
101573
97927.4
117384
859292
1.07717e+06
971557
483685
314920
279804
264798
255945
247021
239078
232163
225359
219791
215966
214168
212112
210513
209105
206402
202300
195502
186578
174972
161478
146482
131426
117256
106614
100821
120730
874210
1.05756e+06
1.05406e+06
712394
358580
289890
270338
261026
252129
244344
237492
230604
225536
222434
221192
219782
219040
218413
217047
214023
208491
201045
190601
177744
161973
145106
127882
113623
104774
124131
886246
1.02885e+06
1.06709e+06
958021
453056
305142
276167
264558
255511
247759
240793
233910
229079
226641
225945
225208
225047
225178
225056
223339
219166
213704
205148
193915
179208
161371
141487
123296
110656
129329
893376
997682
1.05504e+06
1.03214e+06
645049
334200
281423
265973
256803
248737
241391
234422
229723
228106
227807
227907
228117
228842
229816
229553
226834
223516
217558
208768
196108
179101
157921
136001
118969
135214
897789
969725
1.03107e+06
1.03214e+06
892134
402701
288057
265422
255750
247115
239049
231840
227277
226332
226068
227125
227978
229074
230988
232263
231302
230292
227328
221717
211825
197039
176282
152086
130750
145192
899506
946632
1.00401e+06
1.01235e+06
978435
551251
302714
265049
252408
243079
234195
226804
222530
222261
222754
224360
225177
226714
229509
232284
233291
235224
235335
233244
226381
214657
195938
171106
146055
155248
896567
924880
973680
985565
982076
753619
340840
264033
247323
237256
227856
220707
217163
217418
218811
221001
222214
224292
228526
233268
237043
242839
247037
247844
242861
233341
215981
193230
165031
169164
888412
901667
943008
959180
962211
883786
430559
266466
240751
230439
220939
214069
211181
212166
214983
218396
221291
225374
232325
240843
250289
262692
273359
278303
272622
262500
242287
218185
188993
180990
875294
881105
916498
934705
936424
911783
583179
280812
235005
223234
213719
207017
205771
206699
210060
216376
224614
233919
246599
261506
280076
307530
329693
344859
336387
321184
284169
254918
219384
197972
858111
860127
892732
910947
910816
900793
735623
319756
231824
216615
207475
201579
202514
205431
211415
220442
234853
254481
279152
305877
340296
393017
440257
473511
470958
456828
402786
326179
276822
221401
837791
837855
870387
888676
886882
879192
813864
414626
234525
211721
203353
199444
203967
210328
220868
234803
257911
290597
336521
383464
446614
537072
623331
687388
684092
665421
611962
506645
368738
273009
816259
816119
849611
870612
863401
855459
828981
550133
251065
208803
202456
201969
210910
222538
240819
262873
299435
348359
419052
502428
618232
761915
892447
977287
968860
916245
853117
814462
769734
348444
793517
794459
830225
855928
843117
834975
819746
679941
291869
211162
204701
210379
224942
244565
275348
310770
368801
438365
534425
667114
871483
1.09027e+06
1.25121e+06
1.30749e+06
1.23957e+06
1.18797e+06
1.1412e+06
1.45279e+06
1.88384e+06
543169
95144
95146.9
95155.8
95164.5
95173.1
95181.7
95190.3
95198.9
95207.4
95216
95224.6
95233.2
95241.8
95250.4
95259
95267.7
95276.3
95284.9
95293.5
95302.2
95310.8
95319.4
95328.1
95336.7
95345.3
95354
95362.6
95371.2
95379.9
95388.5
95397.2
95405.8
95414.4
95423.1
95431.7
95440.3
95448.9
95457.7
95487.8
98132
355431
2.51128e+06
5.86562e+06
7.65023e+06
8.21359e+06
8.32245e+06
8.12106e+06
7.74984e+06
7.44736e+06
7.17843e+06
6.96042e+06
6.75227e+06
6.54163e+06
6.34126e+06
6.15022e+06
5.95484e+06
5.74777e+06
5.51924e+06
5.26697e+06
4.99244e+06
4.69331e+06
4.36658e+06
4.03648e+06
3.71681e+06
3.41883e+06
3.14462e+06
2.89229e+06
2.6601e+06
2.44799e+06
2.25608e+06
2.08381e+06
1.93008e+06
1.79334e+06
1.67186e+06
1.56355e+06
1.46626e+06
1.37864e+06
1.29967e+06
1.22807e+06
1.16312e+06
1.10419e+06
1.04999e+06
999408
951972
907748
866943
829001
792968
759927
729984
703412
680137
660044
642461
626896
613031
600710
589958
580825
573261
567242
562668
559460
557515
556648
556595
557241
558634
560920
564284
568814
574606
581638
590064
599952
611225
623827
638001
653576
670421
688426
707381
727385
748045
769856
80589.4
80589
80591.1
80593.3
80595.5
80597.6
80599.7
80601.8
80603.9
80605.9
80607.9
80609.9
80611.9
80613.8
80615.7
80617.6
80619.4
80621.2
80623
80624.8
80626.5
80628.2
80629.9
80631.6
80633.2
80634.8
80636.4
80637.9
80639.4
80640.9
80642.4
80643.9
80645.3
80646.7
80648.1
80649.4
80650.8
80652.3
80659.9
80916.1
114295
1.60273e+06
7.96751e+06
1.26881e+07
1.42815e+07
1.34101e+07
1.19303e+07
1.04939e+07
9.34275e+06
8.3622e+06
7.50052e+06
6.8375e+06
6.38165e+06
6.06051e+06
5.80544e+06
5.59455e+06
5.41435e+06
5.25919e+06
5.10245e+06
4.93564e+06
4.76e+06
4.56408e+06
4.33101e+06
4.08762e+06
3.83532e+06
3.57243e+06
3.29845e+06
3.02659e+06
2.78143e+06
2.56672e+06
2.38277e+06
2.2225e+06
2.07888e+06
1.95023e+06
1.83519e+06
1.73177e+06
1.63788e+06
1.5538e+06
1.47926e+06
1.40983e+06
1.34556e+06
1.2857e+06
1.22999e+06
1.17814e+06
1.12964e+06
1.08421e+06
1.04155e+06
1.0014e+06
963051
926980
893814
863755
837363
813943
792561
772787
754737
738703
724569
712089
700750
690344
681061
673042
666096
659945
654569
649898
645924
642857
640799
640036
640869
643263
647114
651982
658621
667336
678152
691050
705741
721655
738437
755218
773871
79494.4
79493.8
79493.9
79494
79494.1
79494.1
79494.2
79494.3
79494.3
79494.4
79494.4
79494.5
79494.5
79494.5
79494.6
79494.6
79494.6
79494.6
79494.6
79494.6
79494.5
79494.5
79494.5
79494.5
79494.4
79494.4
79494.3
79494.3
79494.2
79494.2
79494.1
79494
79493.9
79493.9
79493.8
79493.7
79493.7
79498.5
79721.8
107639
1.27701e+06
6.49295e+06
9.05983e+06
8.07013e+06
7.37794e+06
7.24492e+06
7.68856e+06
9.02058e+06
9.50467e+06
9.37239e+06
9.0861e+06
8.80675e+06
8.45232e+06
8.02258e+06
7.60427e+06
7.24579e+06
6.94261e+06
6.68798e+06
6.46867e+06
6.30481e+06
6.19204e+06
6.10285e+06
5.99899e+06
5.82039e+06
5.55046e+06
5.19374e+06
4.81439e+06
4.43684e+06
4.03865e+06
3.65531e+06
3.3109e+06
3.00953e+06
2.7482e+06
2.52245e+06
2.32688e+06
2.15672e+06
2.00972e+06
1.88279e+06
1.77186e+06
1.6742e+06
1.58627e+06
1.50722e+06
1.4355e+06
1.36987e+06
1.30964e+06
1.25439e+06
1.20295e+06
1.15485e+06
1.11033e+06
1.06936e+06
1.03188e+06
997996
967521
940629
916155
893138
871691
852378
834935
819349
805143
791904
779807
768912
759407
751074
743687
737023
730925
725440
720878
717311
715083
714074
714283
715760
718985
724644
731898
741655
753120
765859
780117
795164
812309
79349.4
79349.3
79349.4
79349.4
79349.5
79349.6
79349.6
79349.7
79349.7
79349.8
79349.8
79349.9
79349.9
79350
79350
79350.1
79350.1
79350.2