/*--------------------------------*- C++ -*----------------------------------*\
| =========                 |                                                 |
| \\      /  F ield         | OpenFOAM: The Open Source CFD Toolbox           |
|  \\    /   O peration     | Version:  2112                                  |
|   \\  /    A nd           | Website:  www.openfoam.com                      |
|    \\/     M anipulation  |                                                 |
\*---------------------------------------------------------------------------*/
FoamFile
{
    version     2.0;
    format      ascii;
    arch        "LSB;label=32;scalar=64";
    class       volScalarField;
    location    "0.00521";
    object      alphat;
}
// * * * * * * * * * * * * * * * * * * * * * * * * * * * * * * * * * * * * * //

dimensions      [1 -1 -1 0 0 0 0];

internalField   nonuniform List<scalar> 
13875
(
0.11986
0.081604
0.0784483
0.0782856
0.0783174
0.0783951
0.0782904
0.0782734
0.078302
0.0783089
0.0782937
0.0783034
0.0783752
0.0784121
0.0783741
0.078271
0.0782766
0.078281
0.0782868
0.0783901
0.0783102
0.0782497
0.0784836
0.0814945
0.12092
0.103939
0.0576791
0.0570784
0.0571648
0.0566609
0.0566801
0.0570215
0.0571303
0.0572237
0.0572174
0.0571807
0.0571143
0.0566475
0.0566127
0.0566726
0.0570722
0.0571309
0.0571683
0.0570683
0.0567009
0.056669
0.057134
0.0570771
0.05737
0.10447
0.11062
0.055325
0.0558725
0.0547358
0.0545681
0.0544407
0.0542153
0.0541788
0.0543083
0.0544203
0.0543202
0.0543602
0.054254
0.0542696
0.0542477
0.0542339
0.0541637
0.0543272
0.054324
0.0544733
0.0545324
0.0546041
0.0557896
0.055064
0.111205
0.115887
0.0546438
0.0553788
0.054324
0.0540313
0.053897
0.0536298
0.0535401
0.0535645
0.0535624
0.0534229
0.0535082
0.0537096
0.0537343
0.0537011
0.0534404
0.0533854
0.0534982
0.0536666
0.0539208
0.0540019
0.0542076
0.0552094
0.054292
0.115895
0.121034
0.054633
0.055118
0.0537526
0.0536701
0.0534715
0.0531264
0.053053
0.0530753
0.0530641
0.0529294
0.0530271
0.0532295
0.0532632
0.0532093
0.0529446
0.0528908
0.0529907
0.0531397
0.0534746
0.0536075
0.0536253
0.0550295
0.0543265
0.121469
0.12441
0.0547433
0.0551845
0.0536079
0.0532894
0.0530516
0.0527227
0.0526298
0.0526622
0.0526186
0.0524811
0.0525679
0.0527975
0.0528494
0.0527649
0.0525119
0.0524654
0.0525771
0.052752
0.0530551
0.0532418
0.0535189
0.0549042
0.0544006
0.124119
0.128748
0.056473
0.0557796
0.0534536
0.0532648
0.0528587
0.0523776
0.0522663
0.052303
0.052232
0.0520978
0.0521947
0.0524382
0.0524821
0.0523972
0.0521179
0.0520903
0.0521957
0.0523904
0.0528626
0.0531973
0.0533725
0.0556507
0.0563639
0.129002
0.135705
0.0611941
0.0578372
0.0544071
0.0534072
0.0528155
0.0522355
0.0520413
0.0520399
0.0519389
0.0518062
0.0518687
0.0521518
0.0521961
0.0521015
0.0518274
0.0518241
0.0519598
0.0522481
0.0527797
0.0533336
0.0542968
0.0575454
0.0610501
0.135598
0.151308
0.069237
0.0615377
0.0559152
0.054419
0.0531616
0.0522482
0.0519378
0.0518771
0.051765
0.0516592
0.0516948
0.0520167
0.0520599
0.0519332
0.0516894
0.051701
0.0518499
0.0521957
0.0530949
0.0542225
0.0556313
0.0610007
0.0683788
0.154151
0.239277
0.0874249
0.0664711
0.0590068
0.055461
0.0537777
0.0526402
0.0521856
0.0519751
0.0518435
0.0517835
0.0517916
0.0521389
0.0521889
0.0520618
0.0518665
0.0518733
0.052049
0.0525006
0.053609
0.0553057
0.058782
0.0661142
0.0868406
0.241374
0.365281
0.118358
0.0759061
0.0628152
0.0577078
0.0549703
0.0533968
0.052831
0.0525102
0.0524063
0.0523699
0.0523501
0.0526854
0.052753
0.0526592
0.052541
0.0525577
0.052772
0.0531974
0.0546851
0.0572927
0.0622879
0.0745605
0.112678
0.364975
0.658157
0.193381
0.103958
0.074675
0.0621181
0.0577592
0.0556047
0.0545403
0.0540288
0.053902
0.0538404
0.0538077
0.0540776
0.0541999
0.0541928
0.0541709
0.0542684
0.0546336
0.0554804
0.0572045
0.0618821
0.0736141
0.101281
0.18394
0.644218
0.582132
0.436902
0.176023
0.092202
0.0772822
0.0657817
0.0604105
0.0586423
0.0577263
0.057456
0.0573116
0.0572848
0.0574453
0.0576241
0.0577375
0.0578534
0.0581296
0.0589146
0.0605465
0.0658455
0.0764485
0.0886291
0.168027
0.433161
0.579905
0.49208
0.401938
0.347125
0.331096
0.118606
0.0826157
0.0753126
0.0695506
0.0672602
0.0664359
0.0660064
0.0658932
0.065938
0.0661891
0.0665123
0.0669887
0.0678918
0.0703773
0.0768125
0.0857216
0.133871
0.336198
0.33854
0.400087
0.501664
0.406012
0.349417
0.332178
0.341663
0.30549
0.200584
0.12996
0.104583
0.095691
0.0936126
0.092734
0.0925973
0.0927269
0.0929493
0.093203
0.0938892
0.0960196
0.10402
0.137398
0.211433
0.309272
0.336549
0.328312
0.358844
0.41922
0.333128
0.29913
0.285482
0.313018
0.333604
0.343386
0.261685
0.20374
0.187361
0.165091
0.150842
0.144705
0.142967
0.144112
0.14806
0.159426
0.183782
0.203217
0.262577
0.347138
0.32692
0.311965
0.289124
0.302188
0.345088
0.242483
0.229917
0.242149
0.297953
0.363529
0.457332
0.667834
0.807416
0.72468
0.643634
0.650364
0.656851
0.66097
0.662201
0.656507
0.637629
0.704123
0.793666
0.670192
0.464551
0.362606
0.292268
0.23807
0.23646
0.254269
0.152179
0.167472
0.206025
0.302529
0.389474
0.500172
0.682832
0.761854
0.600534
0.501476
0.482505
0.481327
0.485719
0.486553
0.488401
0.504517
0.593034
0.740925
0.677641
0.514492
0.411934
0.304322
0.197856
0.153815
0.139525
0.069843
0.113707
0.213856
0.348792
0.419292
0.445102
0.506276
0.554655
0.493941
0.42491
0.39666
0.389566
0.392449
0.394868
0.399069
0.419838
0.480393
0.543228
0.514365
0.465186
0.444607
0.362913
0.221685
0.116092
0.0721815
0.0256551
0.0567274
0.151995
0.322847
0.371066
0.359226
0.384585
0.437021
0.439261
0.397278
0.365029
0.348502
0.346938
0.353332
0.365705
0.389461
0.424488
0.427182
0.38894
0.369928
0.386156
0.330725
0.155115
0.0574121
0.0260917
0.0436428
0.0694434
0.12197
0.22955
0.276606
0.278249
0.305069
0.361532
0.389303
0.366376
0.332936
0.311718
0.307182
0.316806
0.334092
0.358898
0.374793
0.351403
0.305041
0.282839
0.281973
0.232248
0.129342
0.0782509
0.0498256
0.0965558
0.142164
0.131096
0.170544
0.211105
0.219167
0.251853
0.30893
0.342193
0.326831
0.296693
0.274266
0.268494
0.278767
0.297596
0.320143
0.329585
0.300762
0.249789
0.21987
0.211446
0.172673
0.137223
0.145978
0.0960991
0.135386
0.176752
0.137517
0.144019
0.166434
0.178153
0.214759
0.267544
0.298503
0.28802
0.260628
0.239907
0.233314
0.243064
0.260182
0.280793
0.287086
0.260287
0.21162
0.176954
0.165207
0.14525
0.140747
0.160682
0.14187
0.184766
0.180288
0.139104
0.13368
0.140221
0.15268
0.18519
0.229548
0.25735
0.248769
0.226083
0.20792
0.202596
0.210961
0.226134
0.242627
0.247636
0.222776
0.181891
0.151761
0.138696
0.133476
0.139395
0.162261
0.202706
0.224414
0.188886
0.137472
0.125709
0.124235
0.135853
0.161339
0.19699
0.220574
0.21503
0.196114
0.181123
0.176327
0.184023
0.196585
0.210975
0.213704
0.191655
0.158398
0.134412
0.123255
0.125727
0.137212
0.170009
0.234986
0.246958
0.193697
0.135784
0.121419
0.114125
0.122226
0.142853
0.170059
0.189322
0.185149
0.170841
0.15753
0.15377
0.159826
0.170834
0.181338
0.183
0.16547
0.140259
0.121175
0.113443
0.121441
0.135392
0.175172
0.25795
0.268739
0.201995
0.133387
0.11626
0.107291
0.113095
0.127534
0.148843
0.162975
0.160435
0.148402
0.137794
0.134373
0.139944
0.148856
0.158186
0.15869
0.144951
0.125369
0.11193
0.107006
0.116467
0.133717
0.190078
0.269847
0.291056
0.216782
0.132696
0.112534
0.102045
0.104234
0.115512
0.130572
0.140955
0.138646
0.129616
0.120308
0.11784
0.122084
0.130219
0.137343
0.138146
0.128119
0.113765
0.103579
0.102503
0.113641
0.133966
0.20744
0.285345
0.318812
0.237843
0.134717
0.108302
0.0973691
0.0990438
0.105173
0.116567
0.12382
0.122062
0.113227
0.105925
0.103528
0.107238
0.113454
0.120262
0.121111
0.114368
0.104373
0.0985539
0.0973819
0.109082
0.133709
0.220591
0.311716
0.353205
0.253356
0.135041
0.10546
0.0936695
0.0943925
0.097636
0.104434
0.108553
0.106015
0.0992233
0.0928744
0.091313
0.0940378
0.0997857
0.105091
0.106845
0.102577
0.0965551
0.0939591
0.0942356
0.106699
0.136564
0.240684
0.340399
0.366962
0.263124
0.140178
0.103417
0.0896261
0.0906732
0.0908419
0.0945796
0.0964066
0.0937061
0.0870181
0.0822912
0.0807227
0.0832425
0.0873665
0.0929154
0.0952385
0.09389
0.090268
0.0902801
0.0893341
0.103628
0.139211
0.251344
0.367494
0.371974
0.263989
0.147668
0.102767
0.0876476
0.0856418
0.0851279
0.0864494
0.0861558
0.0824847
0.0771478
0.0727682
0.0717486
0.0735214
0.0772833
0.0814899
0.0844655
0.085115
0.0843498
0.0854936
0.0876286
0.102409
0.144931
0.257689
0.379462
0.380631
0.260087
0.157401
0.103342
0.0842987
0.0819754
0.0799524
0.0792378
0.0773213
0.0736044
0.0683216
0.0651251
0.0640116
0.0657864
0.0684242
0.0730383
0.0762816
0.0780775
0.079604
0.0808004
0.0834517
0.102535
0.155592
0.259287
0.385022
0.386258
0.257265
0.164223
0.104944
0.0838367
0.0782227
0.0744842
0.0724122
0.0693523
0.0653418
0.0612321
0.0582344
0.0574964
0.0587498
0.0613999
0.0648918
0.0682601
0.0712424
0.0744715
0.0778156
0.0829486
0.103161
0.162464
0.25622
0.390819
0.387575
0.254049
0.163781
0.110047
0.083871
0.0745004
0.0696705
0.0667212
0.062969
0.059422
0.0550854
0.0528359
0.0519017
0.0533005
0.0551189
0.0589749
0.0622455
0.0652708
0.0688798
0.0731676
0.0826163
0.106399
0.165819
0.253886
0.394675
0.389737
0.246603
0.161193
0.115044
0.0854684
0.0716211
0.0652863
0.0610405
0.0571487
0.0534829
0.0500109
0.0478557
0.0472139
0.048225
0.0501989
0.0532364
0.0564724
0.0599961
0.0649049
0.0709384
0.0845211
0.111421
0.164358
0.249484
0.392791
0.384079
0.243726
0.158419
0.123392
0.0870757
0.068768
0.0610665
0.0564522
0.0523156
0.0493061
0.0456821
0.0440523
0.0431643
0.0443992
0.0457773
0.0490942
0.0520805
0.0555139
0.0601954
0.0682122
0.085482
0.119751
0.161519
0.243484
0.388473
0.371236
0.240291
0.15433
0.128212
0.0907264
0.0686286
0.0583128
0.0523995
0.0482484
0.0449121
0.0420905
0.0404356
0.039793
0.0407357
0.0422611
0.0448135
0.047702
0.0518374
0.0578019
0.0678861
0.0892264
0.131392
0.156804
0.239145
0.377964
0.365819
0.235097
0.146711
0.128136
0.094386
0.0678905
0.0558057
0.0492831
0.0447817
0.0419384
0.0389225
0.0376938
0.0368698
0.0379963
0.0391048
0.0419848
0.0447535
0.0486879
0.0547181
0.0675016
0.0937153
0.132216
0.150614
0.236413
0.367776
0.361319
0.233601
0.138469
0.125959
0.102224
0.0695439
0.0551984
0.0468286
0.042015
0.0386183
0.0363363
0.0349427
0.0343599
0.0352319
0.0365445
0.0386622
0.0416428
0.0467491
0.0545609
0.0687899
0.101709
0.128929
0.141556
0.233269
0.364968
0.354335
0.231528
0.133052
0.123964
0.111444
0.0718359
0.0546204
0.0453819
0.0398468
0.0367826
0.0341029
0.0329462
0.0321757
0.0332037
0.0342742
0.0368945
0.0398118
0.0449353
0.0533369
0.0714766
0.113336
0.124646
0.134186
0.233654
0.359251
0.352644
0.229692
0.127782
0.118153
0.110635
0.0769324
0.0551299
0.0450002
0.0383897
0.0343261
0.0321757
0.03085
0.0302929
0.031078
0.0323809
0.0344192
0.0380509
0.0449815
0.0549501
0.0772689
0.112506
0.117052
0.129483
0.233221
0.352466
0.346184
0.228835
0.124579
0.111669
0.108713
0.0850595
0.0565188
0.0447788
0.037635
0.0335429
0.0307235
0.0294102
0.0286528
0.0296309
0.0308392
0.0337771
0.0375945
0.0443577
0.0558903
0.0862948
0.109799
0.110909
0.125289
0.230899
0.347888
0.340525
0.227892
0.123633
0.105513
0.105068
0.0908992
0.0606675
0.0455358
0.0376829
0.0321185
0.0293458
0.0277999
0.0272409
0.0280202
0.0295084
0.0320259
0.037306
0.045408
0.0602202
0.090153
0.104804
0.104683
0.123433
0.230081
0.341849
0.335677
0.223505
0.121377
0.101181
0.0990908
0.0903772
0.0670113
0.04696
0.0373602
0.0325026
0.0287931
0.0269514
0.0261346
0.0271638
0.0288454
0.0326472
0.0374712
0.0466485
0.0673734
0.0896875
0.0975061
0.10133
0.123405
0.225998
0.333796
0.330781
0.221981
0.121599
0.0972946
0.0933291
0.0886289
0.0770393
0.0507765
0.038278
0.0319997
0.0285555
0.0261248
0.0253229
0.0263242
0.028521
0.0319305
0.0381104
0.0508453
0.0773902
0.0875131
0.0916943
0.0972874
0.122697
0.222431
0.33068
0.322046
0.216795
0.12177
0.0962122
0.0893024
0.0855363
0.0772795
0.0573906
0.0399712
0.0327488
0.0285422
0.0261513
0.0249023
0.0263755
0.0284701
0.0328531
0.0400167
0.0570488
0.0772199
0.0835453
0.0875633
0.0962521
0.122191
0.218599
0.322836
0.315279
0.213426
0.12138
0.0943272
0.0860382
0.0811309
0.0760058
0.0669185
0.0443393
0.0330531
0.0285191
0.0259002
0.0248698
0.026122
0.0285475
0.0331919
0.0447147
0.0671487
0.0758949
0.0798275
0.0847578
0.0942612
0.122478
0.215258
0.315062
0.295181
0.2051
0.12003
0.0943429
0.0838066
0.0773764
0.0735821
0.0673088
0.0508289
0.0360577
0.0290152
0.0261411
0.0249248
0.0263737
0.0290997
0.0366524
0.0517132
0.0674131
0.0731294
0.0769093
0.0830858
0.0943105
0.120793
0.206633
0.29464
0.266799
0.194026
0.118133
0.0925123
0.0822805
0.0748643
0.0701295
0.0663552
0.0595045
0.0407882
0.0304617
0.0262942
0.0251862
0.0264823
0.0306407
0.0409224
0.0589213
0.0663005
0.0698768
0.0744553
0.0816531
0.0919909
0.117806
0.195108
0.267154
0.156628
0.520035
0.743503
0.907337
1.03615
1.1036
1.10655
1.1035
1.10055
1.03741
0.905228
0.820822
0.791091
0.779238
0.763056
0.73688
0.703809
0.679978
0.662205
0.646335
0.631013
0.620238
0.611452
0.588321
0.550414
0.504583
0.44848
0.372648
0.266971
0.118931
0.152347
0.509513
0.730977
0.901409
1.0102
1.04187
1.03436
1.0394
1.0591
1.02823
0.91104
0.830475
0.778293
0.760879
0.744453
0.718743
0.683816
0.658554
0.640796
0.625709
0.610354
0.600274
0.592002
0.571992
0.534573
0.487806
0.431415
0.355942
0.253724
0.115881
0.169148
0.517538
0.729641
0.880272
0.941465
0.947936
0.943759
0.95806
0.994612
1.00065
0.908769
0.83077
0.763611
0.735509
0.71814
0.693811
0.658444
0.632633
0.615288
0.600697
0.586043
0.577057
0.568464
0.551101
0.513863
0.466429
0.410212
0.3365
0.239161
0.112019
0.182237
0.521959
0.713688
0.830003
0.855934
0.839653
0.838123
0.859711
0.912227
0.954705
0.917914
0.825267
0.751376
0.707442
0.690632
0.667546
0.633393
0.606359
0.58929
0.574879
0.561758
0.552774
0.543759
0.528565
0.491948
0.444456
0.388966
0.318162
0.226173
0.108788
0.192949
0.523013
0.685771
0.7567
0.751764
0.733102
0.738632
0.769079
0.820297
0.887141
0.899362
0.810907
0.734621
0.685369
0.664356
0.638207
0.607327
0.578903
0.562287
0.548687
0.536588
0.527635
0.518479
0.504726
0.469133
0.422042
0.367206
0.297991
0.211406
0.104412
0.204366
0.526368
0.64719
0.670731
0.649046
0.635292
0.647205
0.682207
0.733028
0.809724
0.852588
0.798885
0.713446
0.662109
0.641097
0.61558
0.580134
0.551323
0.534871
0.522289
0.511432
0.502802
0.493381
0.480105
0.445268
0.39821
0.343286
0.276099
0.194875
0.0984884
0.215992
0.527223
0.594713
0.579988
0.548179
0.541684
0.556987
0.594928
0.646822
0.725512
0.789798
0.801023
0.693122
0.63617
0.617242
0.594311
0.550162
0.523402
0.505554
0.493859
0.48375
0.474932
0.464832
0.450982
0.416469
0.369597
0.315365
0.251002
0.176907
0.0917989
0.229257
0.519492
0.525619
0.489155
0.457384
0.452414
0.467622
0.511775
0.561696
0.638239
0.717849
0.758958
0.675525
0.610167
0.591887
0.572675
0.527785
0.495641
0.474366
0.461719
0.450121
0.439355
0.427673
0.411201
0.378904
0.336613
0.287064
0.229551
0.163531
0.0877125
0.243891
0.493372
0.450494
0.405818
0.373518
0.371429
0.384685
0.431611
0.482574
0.553366
0.638584
0.70052
0.655754
0.585089
0.566572
0.550222
0.508429
0.467838
0.444323
0.429436
0.416491
0.405136
0.393283
0.377413
0.348977
0.310718
0.265673
0.213308
0.153061
0.0842728
0.257482
0.452495
0.376586
0.33034
0.301793
0.301819
0.308698
0.356956
0.410728
0.47431
0.558668
0.63595
0.635973
0.562119
0.543909
0.528259
0.489774
0.445637
0.417251
0.399544
0.386601
0.375633
0.364219
0.349029
0.323359
0.288334
0.246835
0.198822
0.143897
0.0812864
0.259972
0.402844
0.313519
0.277462
0.289459
0.291468
0.277202
0.290917
0.346548
0.404732
0.484269
0.568884
0.608196
0.541558
0.517022
0.508914
0.473195
0.428014
0.392972
0.372913
0.360437
0.3499
0.338786
0.323863
0.300158
0.267969
0.229746
0.185601
0.135489
0.0784226
0.255908
0.354613
0.274402
0.304281
0.336833
0.336094
0.312924
0.271278
0.293607
0.346003
0.417325
0.503515
0.561137
0.513123
0.488305
0.491057
0.460949
0.411854
0.370752
0.349561
0.337163
0.326947
0.316024
0.301224
0.278956
0.249283
0.214149
0.173653
0.127957
0.0758168
0.247125
0.319611
0.300211
0.349152
0.377709
0.375054
0.34735
0.300783
0.261052
0.299643
0.361618
0.443774
0.510682
0.485858
0.459424
0.476281
0.452285
0.398444
0.35341
0.329331
0.316367
0.306334
0.295475
0.280753
0.259633
0.232224
0.199914
0.162798
0.121118
0.0734111
0.234711
0.306502
0.350626
0.385341
0.418475
0.411702
0.384187
0.327413
0.259654
0.263748
0.317667
0.392567
0.463692
0.456428
0.431136
0.45803
0.446016
0.389055
0.338431
0.311583
0.297699
0.28772
0.276756
0.262142
0.242013
0.216588
0.186804
0.152816
0.114787
0.0711436
0.220029
0.319275
0.391815
0.418901
0.443507
0.438447
0.416437
0.349963
0.271304
0.24011
0.28412
0.353545
0.424581
0.424954
0.405622
0.433596
0.442562
0.384472
0.325482
0.296041
0.280986
0.270687
0.259485
0.245057
0.22577
0.202057
0.174472
0.14333
0.108685
0.0687764
0.205642
0.357301
0.423938
0.437337
0.453384
0.453237
0.422614
0.371171
0.279298
0.231516
0.261048
0.327493
0.393781
0.396534
0.38377
0.408455
0.453648
0.386336
0.316983
0.283038
0.266139
0.254938
0.243334
0.229153
0.210539
0.188299
0.162624
0.134141
0.102723
0.0663041
0.196048
0.397799
0.452268
0.451243
0.458514
0.448038
0.409582
0.373442
0.283021
0.230139
0.250176
0.31148
0.372543
0.37267
0.365847
0.388169
0.451931
0.399741
0.314524
0.27219
0.252445
0.240215
0.22833
0.214338
0.196228
0.175272
0.151357
0.125414
0.0969995
0.0638098
0.191393
0.434796
0.478776
0.461759
0.463324
0.44951
0.408457
0.377306
0.289529
0.231815
0.249093
0.309167
0.359427
0.352328
0.352205
0.371558
0.432557
0.443487
0.322873
0.264635
0.240602
0.22627
0.214249
0.200164
0.182699
0.163027
0.140947
0.11743
0.0917259
0.061466
0.189408
0.468024
0.500774
0.466635
0.462152
0.453906
0.422693
0.387418
0.307596
0.244687
0.260945
0.319096
0.348205
0.337999
0.342846
0.36191
0.409272
0.461366
0.35153
0.264018
0.230182
0.212933
0.200904
0.186588
0.170044
0.151705
0.131488
0.110278
0.0870597
0.0593081
0.191552
0.500394
0.516465
0.470146
0.464439
0.46144
0.441412
0.409068
0.336687
0.275602
0.292786
0.336085
0.342569
0.330733
0.33903
0.358508
0.38975
0.444962
0.425544
0.276158
0.223064
0.201524
0.188091
0.173774
0.158269
0.141179
0.122739
0.103669
0.0827491
0.0572294
0.195011
0.523185
0.526036
0.473059
0.459791
0.467624
0.467529
0.446616
0.382607
0.318489
0.326759
0.35536
0.347169
0.330528
0.339451
0.357596
0.378254
0.421304
0.446951
0.315678
0.22454
0.192244
0.175168
0.161787
0.147478
0.13157
0.114838
0.0976216
0.0786832
0.0552316
0.206571
0.547284
0.52952
0.472711
0.453199
0.469275
0.494161
0.486654
0.439924
0.362018
0.356396
0.376572
0.363033
0.33978
0.342608
0.355088
0.369859
0.394217
0.428987
0.399221
0.240737
0.187632
0.165621
0.149838
0.13749
0.122956
0.107925
0.0922572
0.0750648
0.0534094
0.201573
0.533364
0.519653
0.466333
0.453203
0.472304
0.508007
0.523806
0.488314
0.404706
0.37965
0.392464
0.381117
0.359798
0.350307
0.355762
0.364265
0.378414
0.398766
0.41114
0.2849
0.190841
0.158685
0.141099
0.128194
0.115549
0.102016
0.0877016
0.0719859
0.0518508
0.206245
0.525639
0.497205
0.466142
0.45675
0.470347
0.511922
0.549674
0.524479
0.443978
0.401023
0.404111
0.397941
0.381497
0.370154
0.362521
0.359363
0.366171
0.374523
0.391129
0.355067
0.207283
0.156636
0.134788
0.120674
0.108978
0.0969116
0.0837993
0.0693195
0.0504686
0.182224
0.429911
0.469016
0.474626
0.4674
0.470257
0.507711
0.562892
0.563297
0.483237
0.421504
0.413451
0.407023
0.393667
0.382858
0.375415
0.360589
0.357072
0.35793
0.363431
0.360507
0.249908
0.160493
0.131031
0.115427
0.102945
0.0922815
0.0803666
0.0669928
0.0492035
0.119665
0.269369
0.375819
0.452079
0.508159
0.553366
0.589054
0.610269
0.619726
0.630799
0.64568
0.661037
0.678873
0.703014
0.736111
0.761611
0.776901
0.787248
0.824514
0.916042
1.05105
1.09395
1.09024
1.09002
1.08623
1.02092
0.896009
0.732868
0.512009
0.15641
0.116648
0.256146
0.359161
0.434987
0.491278
0.537158
0.572052
0.590706
0.59949
0.610334
0.625051
0.639553
0.657471
0.683127
0.7178
0.742752
0.758647
0.779497
0.836196
0.920282
1.03346
1.04723
1.02308
1.01565
1.02231
0.987654
0.884824
0.719157
0.501022
0.153044
0.112765
0.241458
0.339559
0.413649
0.469738
0.516087
0.550526
0.56698
0.575917
0.585824
0.600166
0.613966
0.631524
0.657861
0.692586
0.716257
0.732794
0.766445
0.839329
0.92922
0.99921
0.977465
0.936033
0.921417
0.925794
0.924215
0.86055
0.716793
0.509299
0.168869
0.109502
0.228281
0.320914
0.392066
0.447435
0.493738
0.527439
0.542092
0.5515
0.561318
0.574762
0.588045
0.605318
0.633113
0.666209
0.688546
0.706755
0.754987
0.83436
0.930257
0.94454
0.890361
0.839758
0.81633
0.817888
0.835081
0.811921
0.699839
0.513915
0.182026
0.105049
0.213314
0.300622
0.369993
0.424582
0.470415
0.503223
0.516587
0.526421
0.536268
0.5486
0.561158
0.578084
0.607273
0.637949
0.663336
0.686124
0.739564
0.820387
0.895586
0.869905
0.798798
0.751601
0.718779
0.712128
0.730219
0.736124
0.671219
0.514692
0.192647
0.099116
0.196723
0.27857
0.34592
0.400523
0.446234
0.478441
0.491512
0.501486
0.510985
0.522209
0.533882
0.550819
0.579896
0.615897
0.640586
0.66324
0.719103
0.820258
0.841813
0.789871
0.712503
0.663306
0.627475
0.615373
0.627732
0.650355
0.632875
0.517732
0.204169
0.0923921
0.178607
0.253324
0.317976
0.371994
0.41758
0.449381
0.463185
0.473527
0.483051
0.493535
0.50462
0.523194
0.550834
0.594858
0.616954
0.637723
0.700612
0.802466
0.77632
0.70468
0.626934
0.577386
0.538738
0.524108
0.530492
0.560465
0.577858
0.518013
0.216097
0.0882806
0.165189
0.231877
0.289598
0.338638
0.379778
0.410514
0.426707
0.438405
0.449554
0.461262
0.473597
0.49556
0.529405
0.573294
0.591628
0.612304
0.684986
0.752378
0.700882
0.617839
0.543487
0.495733
0.452396
0.437934
0.442489
0.475093
0.509408
0.509216
0.228819
0.0847403
0.154455
0.215275
0.267884
0.312634
0.349894
0.377008
0.392904
0.404718
0.41636
0.429191
0.443909
0.46757
0.510417
0.550846
0.56755
0.587902
0.665105
0.690301
0.619895
0.534213
0.467471
0.417751
0.371129
0.358972
0.362393
0.394214
0.436286
0.482771
0.244102
0.0816729
0.145062
0.200468
0.248662
0.28986
0.324025
0.348745
0.364048
0.375488
0.386748
0.399692
0.417217
0.446803
0.491927
0.528895
0.542925
0.56661
0.648762
0.623805
0.541109
0.457731
0.398023
0.344069
0.299068
0.295294
0.295187
0.322524
0.366351
0.442232
0.255034
0.0787299
0.136458
0.186966
0.231234
0.269192
0.300672
0.323744
0.33876
0.349895
0.360682
0.373359
0.393082
0.429637
0.47583
0.509471
0.515893
0.545258
0.607314
0.555373
0.467898
0.390973
0.335759
0.282253
0.282598
0.298545
0.295171
0.275381
0.30688
0.394084
0.25647
0.0760563
0.128742
0.17475
0.215338
0.250267
0.279398
0.301231
0.316098
0.327072
0.337452
0.350149
0.371656
0.413835
0.463868
0.491379
0.487175
0.518631
0.556258
0.490178
0.403516
0.335412
0.285572
0.276614
0.321199
0.343968
0.343655
0.309769
0.273849
0.34791
0.251773
0.0735815
0.121745
0.16368
0.200871
0.233014
0.260028
0.280826
0.295566
0.306518
0.316671
0.330033
0.354965
0.401115
0.455101
0.47669
0.458375
0.492652
0.504865
0.431094
0.350123
0.291324
0.259206
0.307419
0.354985
0.381258
0.384198
0.354379
0.305318
0.316396
0.242816
0.0712561
0.115285
0.153527
0.187582
0.217234
0.242362
0.26226
0.276845
0.287918
0.298032
0.31237
0.340294
0.392462
0.448317
0.45443
0.430638
0.460635
0.458058
0.382106
0.308234
0.257537
0.264976
0.334901
0.3917
0.414617
0.422625
0.391079
0.356782
0.306204
0.230182
0.0688356
0.109068
0.143903
0.175121
0.202595
0.226078
0.245201
0.259557
0.270869
0.281358
0.296984
0.327831
0.388437
0.444009
0.429474
0.405823
0.428622
0.419463
0.345403
0.276231
0.237273
0.276868
0.357905
0.421746
0.441161
0.443853
0.423304
0.397424
0.323087
0.215712
0.0663001
0.102987
0.134572
0.163165
0.18875
0.210809
0.229294
0.243391
0.255049
0.266527
0.284155
0.3198
0.390655
0.454057
0.404664
0.384158
0.399903
0.389085
0.320205
0.254414
0.232436
0.28633
0.381157
0.425009
0.455639
0.452133
0.441575
0.429525
0.362057
0.201989
0.0637477
0.097144
0.125697
0.151781
0.175646
0.196441
0.21443
0.228374
0.240244
0.25279
0.273487
0.317983
0.403723
0.445695
0.384621
0.365925
0.376094
0.369152
0.304929
0.245044
0.231459
0.28986
0.379905
0.411417
0.452266
0.457888
0.455567
0.458366
0.402497
0.193373
0.0613739
0.0917733
0.117597
0.14126
0.163365
0.182913
0.200289
0.214328
0.226272
0.241038
0.266351
0.327108
0.445957
0.425685
0.368054
0.351755
0.354592
0.357647
0.303193
0.243468
0.232521
0.296362
0.381856
0.41135
0.452982
0.463036
0.466097
0.485009
0.439333
0.189565
0.0592163
0.0870406
0.110425
0.131805
0.152039
0.170271
0.186757
0.201045
0.213126
0.230702
0.266412
0.356755
0.454595
0.401535
0.358595
0.341665
0.33965
0.34957
0.314544
0.255573
0.245523
0.314928
0.392335
0.426549
0.455767
0.461272
0.471518
0.506203
0.472768
0.188596
0.0571687
0.0827406
0.103851
0.123091
0.141543
0.158548
0.174003
0.188291
0.202024
0.22415
0.279588
0.427614
0.43658
0.383902
0.355162
0.337315
0.331409
0.344653
0.33385
0.287456
0.276722
0.343686
0.415448
0.444239
0.462287
0.462286
0.475793
0.521455
0.505366
0.19126
0.0551508
0.0786813
0.0977622
0.115126
0.131947
0.147826
0.16206
0.175531
0.192833
0.226349
0.321453
0.439924
0.411603
0.372883
0.353449
0.337062
0.330627
0.34995
0.353725
0.324297
0.32159
0.39085
0.452481
0.470009
0.467567
0.459873
0.478376
0.530157
0.527712
0.194963
0.0532708
0.0749926
0.0923104
0.108049
0.123247
0.137831
0.150176
0.166169
0.18868
0.243495
0.398417
0.420797
0.38671
0.365083
0.350806
0.33986
0.340457
0.367283
0.375254
0.355537
0.367608
0.450437
0.490667
0.495685
0.468869
0.454974
0.478268
0.533752
0.551467
0.20588
0.0516771
0.0718596
0.0876338
0.101977
0.11565
0.128267
0.14146
0.159397
0.19254
0.290572
0.404769
0.390423
0.372084
0.359076
0.352274
0.348594
0.362763
0.384878
0.392324
0.380687
0.412468
0.496647
0.52635
0.507759
0.472323
0.455384
0.471854
0.524861
0.538128
0.200227
0.0503082
0.0691907
0.0836942
0.0967892
0.108804
0.120779
0.13517
0.157655
0.210128
0.354244
0.384242
0.36774
0.360676
0.354955
0.36046
0.371388
0.383508
0.401078
0.404929
0.403334
0.452889
0.531476
0.549528
0.510326
0.472568
0.460257
0.472059
0.503503
0.529289
0.204505
0.0490517
0.0668363
0.0802602
0.0920696
0.103016
0.11555
0.131513
0.162221
0.256016
0.355885
0.356174
0.352033
0.352498
0.358174
0.375214
0.38427
0.395674
0.4088
0.415175
0.426233
0.493574
0.569707
0.561337
0.505748
0.473052
0.471266
0.479996
0.474508
0.434103
0.181026
0.580991
0.573694
0.568248
0.5633
0.557886
0.552215
0.546562
0.539949
0.531081
0.521255
0.509117
0.495709
0.480277
0.46537
0.448491
0.431091
0.41341
0.39362
0.37509
0.355444
0.336911
0.318659
0.301029
0.284603
0.269225
0.254942
0.241841
0.230182
0.219836
0.210314
0.201506
0.19346
0.186064
0.17924
0.173056
0.167244
0.161957
0.156813
0.151802
0.147378
0.14368
0.141732
0.139692
0.137439
0.135893
0.135386
0.135906
0.137078
0.138184
0.13969
0.141374
0.143897
0.147643
0.153246
0.160448
0.171787
0.188705
0.209912
0.234808
0.258856
0.273749
0.282586
0.289009
0.295416
0.300891
0.302639
0.300172
0.296894
0.292237
0.288186
0.284757
0.280244
0.276198
0.272315
0.266338
0.259306
0.253427
0.248932
0.245159
0.242435
0.239585
0.235419
0.229797
0.22311
0.215723
0.207935
0.200088
0.192768
0.186643
0.182153
0.179483
0.177869
0.176679
0.17576
0.175101
0.174667
0.174309
0.173783
0.172593
0.170421
0.167112
0.162652
0.157707
0.15124
0.142175
0.13016
0.115846
0.100649
0.0843388
0.0677427
0.0541243
0.047192
0.0435614
0.0417896
0.0411207
0.0409235
0.0411369
0.0416622
0.042249
0.0428546
0.0435991
0.0445347
0.0455798
0.0467365
0.0478875
0.838425
0.834318
0.831873
0.829766
0.825993
0.822126
0.818489
0.8125
0.805516
0.797087
0.78629
0.773881
0.759679
0.744079
0.725431
0.70657
0.683693
0.660085
0.637239
0.61202
0.588077
0.562516
0.538117
0.515662
0.495835
0.478352
0.463016
0.450022
0.439176
0.429568
0.420796
0.413646
0.408683
0.404612
0.401331
0.399081
0.397585
0.396682
0.394782
0.394295
0.392705
0.390508
0.38854
0.38573
0.382602
0.380325
0.37844
0.375981
0.373306
0.371174
0.369885
0.371294
0.37941
0.397993
0.427467
0.44917
0.457456
0.461329
0.464533
0.469099
0.475378
0.480147
0.487922
0.495822
0.510465
0.526613
0.542006
0.557172
0.570502
0.583166
0.593325
0.60159
0.604923
0.607097
0.606164
0.603151
0.594593
0.579463
0.562022
0.542622
0.523899
0.506167
0.489163
0.472939
0.457538
0.44286
0.429034
0.416395
0.405081
0.394353
0.382964
0.371225
0.359203
0.346462
0.332665
0.317597
0.301208
0.283543
0.265207
0.247199
0.230633
0.215533
0.200332
0.186421
0.174302
0.163465
0.153479
0.144064
0.136158
0.128515
0.116739
0.095235
0.0742402
0.0619502
0.0568123
0.0547547
0.0543495
0.0551529
0.0562237
0.0570687
0.0579168
0.0592114
0.0608464
0.0627626
0.0647181
0.89533
0.897799
0.902088
0.907218
0.910269
0.914449
0.916358
0.915809
0.912578
0.907455
0.899939
0.889069
0.874611
0.856883
0.836076
0.811719
0.785509
0.759099
0.731579
0.703994
0.678414
0.655962
0.635562
0.617041
0.598971
0.582788
0.568951
0.558027
0.551579
0.548144
0.544137
0.538273
0.530219
0.524122
0.516183
0.511627
0.505577
0.498581
0.493677
0.491235
0.490217
0.491056
0.494055
0.498723
0.503996
0.50786
0.513098
0.517858
0.52396
0.529515
0.538973
0.552921
0.582553
0.62013
0.622257
0.619014
0.613304
0.601428
0.592353
0.577675
0.563597
0.551151
0.54418
0.540102
0.540255
0.543125
0.547236
0.555013
0.561969
0.569799
0.576881
0.580837
0.58556
0.592933
0.598558
0.601221
0.602665
0.600891
0.593513
0.574395
0.558113
0.541149
0.524219
0.507409
0.491192
0.475431
0.459767
0.443513
0.426503
0.408897
0.390174
0.370898
0.351771
0.332807
0.314045
0.295566
0.277848
0.26145
0.24617
0.231823
0.21923
0.208339
0.198259
0.18837
0.178331
0.169564
0.162354
0.156104
0.15175
0.148944
0.145967
0.14261
0.134879
0.117218
0.0883298
0.0739452
0.0676684
0.0660946
0.0667289
0.0677323
0.0688387
0.0701192
0.0717883
0.0740214
0.0771515
0.907871
0.910797
0.917632
0.925904
0.932982
0.940045
0.943666
0.945563
0.943405
0.937248
0.925384
0.910077
0.888718
0.864255
0.838324
0.808444
0.780796
0.750551
0.724258
0.700171
0.679808
0.663768
0.649787
0.638265
0.626595
0.614204
0.601258
0.587738
0.573742
0.561923
0.551246
0.546334
0.537392
0.527607
0.519181
0.511333
0.50325
0.49379
0.485165
0.478783
0.47491
0.473561
0.474919
0.479014
0.483333
0.486861
0.491719
0.498748
0.505064
0.515661
0.534496
0.565102
0.614669
0.63388
0.641467
0.657302
0.679215