/*--------------------------------*- C++ -*----------------------------------*\
| =========                 |                                                 |
| \\      /  F ield         | OpenFOAM: The Open Source CFD Toolbox           |
|  \\    /   O peration     | Version:  2112                                  |
|   \\  /    A nd           | Website:  www.openfoam.com                      |
|    \\/     M anipulation  |                                                 |
\*---------------------------------------------------------------------------*/
FoamFile
{
    version     2.0;
    format      ascii;
    arch        "LSB;label=32;scalar=64";
    class       volScalarField;
    location    "0.00065";
    object      k;
}
// * * * * * * * * * * * * * * * * * * * * * * * * * * * * * * * * * * * * * //

dimensions      [0 2 -2 0 0 0 0];

internalField   nonuniform List<scalar> 
13875
(
814.966
3468.5
3541.04
3539.31
3541.77
3543.92
3539.84
3539.75
3541.33
3542.17
3541.98
3540.58
3538.7
3541.5
3543.5
3541.38
3541.26
3540.84
3539.22
3541.55
3544.15
3542.04
3537.68
3458.69
819.49
885.775
2941.86
3013.57
3004.82
3000.06
2999.53
2996.32
2995.95
2996.2
2996.72
2996.59
2995.66
2994.71
2996.18
2998.97
2998.82
2998.11
2997.73
2998.33
2999.75
3001.75
3010.09
3016.77
2935.26
890.757
999.993
2716.14
2778.57
2761.83
2756.17
2753.75
2752.27
2750.73
2743.6
2749.51
2749.48
2750.44
2749.87
2749.81
2748.95
2748.25
2747.61
2750.68
2754.94
2755.46
2757
2769.23
2787.03
2711.8
992.358
1099.58
2538.3
2581.77
2568.38
2563.66
2561.31
2559.93
2558.3
2550.25
2557.18
2557.54
2558.49
2558.24
2557.8
2556.99
2554.56
2554.12
2557.34
2561.44
2560.99
2562.34
2574.34
2591.56
2534.21
1089.48
1183.3
2384.47
2414.12
2400.07
2394.39
2392.56
2391.14
2389.05
2381.53
2388.16
2388.62
2389.95
2390.05
2389.43
2388.55
2385.25
2384.46
2387.56
2391.36
2390.5
2393.12
2405.17
2425.59
2382.83
1176.4
1255.07
2243.26
2272.59
2252.55
2247
2244.74
2242.76
2239.98
2233.14
2239.01
2239.52
2241.41
2241.85
2241.13
2240.04
2235.92
2235.15
2238.04
2242.01
2242.19
2246.2
2259.76
2287.25
2264.02
1258.42
1338.9
2131
2162.15
2129.24
2119.41
2115.24
2111.95
2108.39
2102.15
2107.14
2107.94
2110.44
2111.13
2110.46
2108.7
2103.91
2103.27
2106.14
2110.45
2112.33
2121.01
2141.72
2183.94
2130.6
1352.66
1437.14
2017.05
2081.7
2031.13
2013.93
2005.27
1999.06
1993.93
1987.81
1991.97
1992.96
1995.99
1996.83
1996.22
1994.09
1988.29
1987.64
1990.83
1996.89
2003.39
2017.82
2048.85
2119.49
2070.3
1508.68
1728.77
2053.61
2037.82
1960.8
1928.99
1912.88
1903.42
1896.33
1890.53
1894.38
1895.63
1898.91
1899.7
1899.09
1896.82
1890.09
1888.82
1892.66
1900.83
1912.72
1938.09
1996.62
2120.67
2209.14
1805.16
2589.24
2361.35
2055.99
1927.22
1873.39
1849.62
1833.58
1824.48
1819.84
1823.38
1824.81
1827.68
1828.23
1827.46
1825.4
1818.96
1816.56
1819.97
1829.93
1849.14
1884.87
1978.52
2201.09
2972.04
3000.35
4030.74
3169.97
2188.73
1979.95
1869.18
1818.97
1796.56
1785.31
1781.27
1784.13
1785.74
1787.85
1788.37
1787.44
1785.77
1780.44
1777.31
1780.28
1791.23
1821.25
1890.93
2062.68
2663.95
5801.54
4618.82
5173.49
6203.82
3627.28
2221.58
1925.73
1866.03
1813.86
1794.79
1788.85
1789.47
1790.53
1791.31
1791.74
1790.81
1789.8
1786.41
1784.6
1788.7
1810.25
1863.45
1942.76
2480.79
6009.45
8026.37
4698.78
5041.19
6328.46
9723.06
5245.39
2579.82
2029.73
1945.67
1921.92
1913.8
1911.43
1910.58
1911.7
1912.64
1911.01
1908.35
1907.24
1907.83
1911.85
1941.23
2106.03
2846.23
5459.6
9336.79
7013.25
4657.51
4740.24
5509.11
7994.27
7489.31
7392.34
4019.04
3003.88
2796.92
2708.27
2710.52
2723.87
2756.61
2819.85
2772.44
2691.72
2655.56
2640.2
2701.16
2889.15
4664.34
7438.64
6556.55
7784.94
6152.89
4567.85
4485.14
4983.54
6609.5
6644.9
7526.84
6607.59
6114.08
6439.7
6508.79
6918.92
7404.64
7927.11
8443.69
8109.81
7450.7
6856.97
6388.9
6400.18
5939.38
6630.69
7013.44
6165.82
6665.63
5547.42
4516.4
4239.78
4657.96
6226.97
6410.43
7363.04
8014.42
8862.46
7592.78
7336.09
7945.93
8852.4
9797.5
10363.5
10042.1
9255.26
8357.24
7671.24
7645.86
9560.6
8949.09
7378.49
6132.39
6101.81
4975.06
4364.99
3976.67
4580.53
6104.39
6594.66
7612.06
7457.35
7928.17
6466.57
6178.68
6920.44
8097.32
9920.55
12106.7
11138.3
8872.02
7483.52
6563.02
6599.19
8895.49
8580.78
7734.18
6388.11
5735.45
4493.98
4024.36
3555.14
5070.06
6377.48
5982.98
6386.42
6165.72
6561.52
5946.57
5816.35
6697.19
8314.77
10851.8
13235.7
11857.2
9057.34
7229.21
6236.08
6333.1
7410.16
6934.09
6477.69
5881.8
5511.69
4556.06
3572.15
3187.45
5556.88
6033.46
5441.53
5307.01
5188.03
5529.11
5553.26
5716.4
6598.9
8455.71
11405
14009.9
12715.8
9473.55
7289.53
6267.06
6099.11
6124.54
5575.97
5285.67
5075.44
4900.31
4558.27
3248.89
3216.54
5227.86
5251.95
4876.67
4664.51
4567.14
4839.22
5097.29
5501
6495.63
8597.41
11947.3
14707.8
13002.5
9495.95
7153.27
6023.81
5542.63
5184.77
4713.38
4494.23
4401.55
4245.42
4106.87
3260.29
4293.35
5023.42
4725.08
4392.62
4169.24
4100.26
4344.3
4689.52
5243.84
6406.23
8819.07
12523.1
15280.9
13199.1
9478.44
6941.67
5656.92
4994.81
4533.84
4135.01
3964.37
3942.63
3863.42
4131.99
3852.83
5551.22
6449.41
4367.26
4007.92
3781.62
3756.5
3988.31
4373.19
5031.01
6379.63
9082.7
12990
15685.4
13476.2
9604.54
6823.08
5353.9
4574.97
4084.33
3737.59
3583.43
3601.71
3610.3
5660.35
4999.76
6267.06
7819.62
4060.02
3667.51
3486.35
3515.29
3748.44
4175.86
4942.32
6488.08
9418.71
13365.4
15949
13849
9934.82
6900.55
5221.1
4318.76
3791.9
3465.4
3300.05
3331.53
3455.21
7206.83
5991.43
6950.79
8982.78
3878.09
3482.12
3325.25
3387.73
3649.58
4130.89
5036.07
6814.28
9933.46
13802.7
16127.9
14153.2
10337.9
7139.74
5263.55
4224.14
3655.41
3327.11
3169.29
3220.04
3416.04
8448.04
6886.28
7908.88
10123.7
3926.98
3461.19
3340.11
3436.37
3733.65
4280.28
5300.56
7254.02
10489
14186.1
16236.7
14444.3
10821.3
7524.05
5473.71
4337.87
3717.28
3370.14
3202.71
3251.71
3580.87
9764.46
8005.21
9191.81
11071.1
4207.22
3634.09
3565.42
3691.88
4026.44
4642.45
5771.36
7840.59
11045.4
14517.3
16301.9
14726.1
11377.1
8121.57
5946.69
4701.06
4005.45
3625.89
3437.35
3451.35
3937.63
10682
9404.05
10631.1
11846.1
4747.88
4060.43
4045.6
4202.04
4571.75
5259.37
6493.33
8631.03
11711.3
14844.4
16378.8
14971.7
11904.5
8794.94
6583.02
5266.27
4511.25
4104.83
3901.95
3882.13
4582.26
11948.2
10778.3
12129.1
13039.5
5722.44
4842.57
4790.24
4962.42
5352.3
6078.47
7359.03
9478.98
12357.8
15158
16497.5
15260.2
12533
9642
7449.84
6085.73
5283.17
4853.76
4636.34
4652.64
5612.41
13416.5
12319.4
13823.3
14791.4
7262.83
6135.09
5866.86
6002.28
6397.4
7122.93
8393.9
10422.9
13048
15516
16680.5
15612.2
13232.4
10611.4
8511.83
7148.91
6332.52
5881.44
5702.91
5940.26
7233.12
15064.4
14014.6
15628.1
16866.6
9503.78
8105.39
7463.51
7410.2
7739.01
8456.77
9671.44
11548.8
13868.7
15973.4
16955.4
16022.7
13945.1
11623.1
9695.67
8410.96
7609.38
7221.58
7260.45
7973.67
9681.84
17324
15749.8
17080.5
19652.2
12637.2
11076.7
9797.78
9264.75
9327.27
9946.02
11061.1
12733.2
14723.2
16504.6
17341.9
16557.6
14807.4
12815.5
11100.3
9908.02
9196.83
9027.15
9567.78
10997.9
12880.5
20168.2
17495.4
18284.6
22862.7
16299.3
15147.7
13249.5
11722.8
11295.5
11617.7
12577.4
14012.9
15688.5
17167.4
17874.8
17226.3
15786
14108.3
12634
11598.4
11163.2
11449.8
13064.1
15074.3
16505.4
23510
18879.3
19717.7
26378.5
20336.4
19818.9
18160
15111
13782.7
13628.8
14280.2
15455
16822.9
18010.5
18582.3
18052.2
16883.6
15508
14295.9
13574.3
13641.4
14870.2
18092.1
19803.3
20606
27355.5
19976.4
20730.4
30505
24999.1
24361.5
24218.9
20129
16923.3
16037.9
16167.7
16992.7
18066.3
19015.3
19484.1
19067.6
18138.8
17058.3
16199
15986.4
16756
19877.6
24256
24450.3
25426.7
31615.4
21057.3
21691.4
34600.4
30461.3
29306
29776.3
27063.8
21251.3
18885.4
18345.4
18750.6
19509.3
20238.6
20619.2
20294.1
19590.1
18828.5
18392.9
18853.9
21121.2
27109.6
30089.2
29522.5
31085.7
35898.7
21921.9
22022.5
38610
36183.5
34562.1
34828.7
34587
27311.8
22322
21022.7
20884.4
21250.2
21737.9
22000
21768.6
21295.5
20921
21060.6
22391.2
27569.6
34845.8
35122.7
34921.1
36915.8
39332.6
22182.8
22156.9
41296.4
41320.1
39663.6
39516.4
39810.9
35275.3
26952.4
24039.5
23407.3
23446.4
23659.1
23804.9
23711.1
23498.3
23433.4
24023.6
27068.9
35420.2
40037.1
39814.5
40086.4
42044.4
42119.7
22258.3
22189
43551.9
45232.7
44143.8
43718.2
44027
42560.9
33208.4
27492.1
26119.2
25889.8
25960.8
26039.6
26022.4
25975.3
26155.9
27495.2
33299.7
42839.9
44245.4
44058.7
44548.7
45956.8
44493.1
22334.3
22207.5
46509.4
48578.8
47781.6
47395.8
47686.5
47199
39950.3
31609.2
29185.1
28724.8
28661.1
28694.6
28718.1
28793.2
29221.5
31774.4
40337.4
47086.9
47809.2
47716.3
48169.1
49142.7
46754.8
22266
22112.5
48897.4
51270.4
50712.7
50358.6
50665.1
50639.5
46712.7
36695.9
32606.5
31824.1
31648.8
31630.8
31691.1
31865.1
32603.7
36557.5
46573.2
50703
50878
50666.1
51102.3
51847
49591.9
22211.5
21903.3
50282.4
53250.3
52941
52753
53184.1
53635.5
52270.1
42316.4
36403.2
35098.9
34813.9
34757.6
34853.3
35150.9
36399.1
42072.1
52406.8
53661.8
53391.2
52994.8
53338.7
53881.4
51233.8
21975
21770.5
51014.7
54620.3
54547.9
54678
55500.2
56397.8
57182.5
48841.1
40753
38693.6
38232
38124.8
38253.2
38739
40880.5
49261
57140
56421.1
55624.8
54823.8
54915.7
55019.9
50896.4
21721.3
21784.1
49014.8
54626.6
55427.4
55958.2
57127.4
58596.9
59936.7
56765.4
47185
43406.4
42411.3
42177.5
42410.2
43406.4
47169.3
57000.3
60066.5
58705.7
57347.2
56109.9
55734.1
54938.7
49038.7
21788
21966.1
45269.8
52751.1
55197.9
56403.6
58205.3
59964.4
61574.7
61786.7
54974.8
50264.3
48518.4
48188.4
48529
50266.5
54974.7
61963
61802.8
60119.6
58335.1
56550.5
55372.6
53053
45348.4
22158.1
22788.3
41284.5
50163.6
53918.4
56025.5
58284.1
60442.9
62549.2
62882.1
59624.7
55939.9
54545.5
54362.4
54573.4
55945.7
59643.2
62933.3
62533
60473.1
58285
56049.2
53971.4
50319
41296.7
22670.7
23406.5
37925.6
47045.8
51751.8
54750.4
57563.8
60062.3
62117.8
61884.4
59978.7
58129.3
57289.1
56973.4
57273.7
58119.2
59986.3
61916.8
62064.3
60092.8
57585.3
54764.1
51795.3
47168.2
37986.4
23568.4
23927.5
35628.5
44251.7
49376.6
53068.3
56310.4
58794.1
60381.4
59583.4
57516.5
56414.1
55951.8
55844.3
55957.9
56409.3
57526.9
59614
60404.7
58907.6
56418.1
53172.7
49496.6
44229.1
35826.4
24031.4
24436.3
34539.9
41842
47258.7
50874.4
54254.5
56582.2
57495.3
56013.7
54051.8
52999.3
52715.6
52666.8
52724.2
53012.2
54061.2
56022.5
57553
56642
54322
50957.7
47308.9
41844.1
34380.7
24246
23827.7
33154.2
39568.2
44793.7
47989
50937
53021.2
53398.1
51491.2
50026.4
49272.7
49138.4
49139.2
49144.5
49276.9
49978.3
51473.7
53411.8
53062.8
51007.4
48076
44856.4
39622.3
33101.1
23699.4
21982.1
31229.3
37006.1
41616.3
44393.3
46668.8
48149.6
47318.7
45952.1
45210.6
45069.6
45141.6
45214.7
45140.7
45063
45178.6
45921.1
47217.1
48176.4
46729.4
44487.5
41703.1
37095.2
31245.3
21955.3
800.764
887.289
898.296
897.948
897.014
895.889
895.049
894.398
893.851
893.355
892.882
892.423
891.971
891.527
891.091
890.661
890.238
889.822
889.413
889.011
888.614
888.225
887.841
887.463
887.089
886.72
886.347
885.866
881.345
801.031
718.3
851.655
863.316
862.164
860.985
859.819
859.136
858.733
858.474
858.279
858.11
857.953
857.801
857.654
857.512
857.375
857.241
857.112
856.987
856.866
856.748
856.634
856.523
856.415
856.309
856.203
856.089
855.775
849.547
746.916
717.113
848.443
857.611
856.057
854.829
853.646
853.055
852.782
852.66
852.603
852.567
852.538
852.511
852.486
852.462
852.439
852.417
852.396
852.376
852.356
852.338
852.32
852.303
852.286
852.268
852.249
852.221
851.959
845.501
740.241
721.526
848.133
857.021
855.32
854.103
852.856
852.278
852.031
851.938
851.907
851.898
851.893
851.89
851.887
851.884
851.881
851.879
851.876
851.874
851.872
851.87
851.868
851.866
851.864
851.86
851.854
851.843
851.573
845.007
738.253
721.986
848.096
857.084
855.227
854.05
852.768
852.196
851.953
851.864
851.839
851.834
851.832
851.832
851.832
851.831
851.831
851.831
851.831
851.831
851.83
851.83
851.83
851.83
851.829
851.827
851.824
851.815
851.53
844.839
736.731
721.825
848.276
857.139
855.144
854.019
852.739
852.177
851.938
851.854
851.833
851.828
851.828
851.828
851.827
851.827
851.827
851.827
851.827
851.827
851.827
851.827
851.827
851.827
851.827
851.826
851.824
851.813
851.516
844.687
735.287
722.101
848.438
857.109
854.984
853.956
852.692
852.152
851.923
851.85
851.832
851.828
851.827
851.827
851.827
851.827
851.827
851.827
851.827
851.827
851.827
851.827
851.827
851.827
851.827
851.826
851.825
851.813
851.504
844.537
733.907
723.218
848.522
857.037
854.73
853.858
852.615
852.114
851.913
851.848
851.831
851.828
851.827
851.827
851.827
851.827
851.827
851.827
851.827
851.827
851.827
851.827
851.827
851.827
851.827
851.827
851.826
851.815
851.492
844.397
732.619
724.095
848.264
856.855
854.411
853.676
852.536
852.089
851.905
851.845
851.831
851.828
851.827
851.827
851.827
851.827
851.827
851.827
851.827
851.827
851.827
851.827
851.827
851.827
851.827
851.827
851.826
851.816
851.487
844.269
731.437
724.647
847.702
856.447
854.162
853.524
852.481
852.069
851.898
851.843
851.83
851.828
851.827
851.827
851.827
851.827
851.827
851.827
851.827
851.827
851.827
851.827
851.827
851.827
851.827
851.827
851.827
851.816
851.48
844.15
730.361
724.942
847.23
856.008
853.975
853.389
852.432
852.05
851.891
851.842
851.83
851.828
851.827
851.827
851.827
851.827
851.827
851.827
851.827
851.827
851.827
851.827
851.827
851.827
851.827
851.827
851.827
851.816
851.473
844.04
729.378
724.852
846.872
855.598
853.812
853.261
852.384
852.031
851.885
851.84
851.829
851.828
851.827
851.827
851.827
851.827
851.827
851.827
851.827
851.827
851.827
851.827
851.827
851.827
851.827
851.827
851.827
851.816
851.466
843.937
728.477
724.492
846.569
855.214
853.647
853.136
852.336
852.013
851.879
851.839
851.829
851.827
851.827
851.827
851.827
851.827
851.827
851.827
851.827
851.827
851.827
851.827
851.827
851.827
851.827
851.827
851.827
851.815
851.459
843.843
727.651
724.236
846.276
854.849
853.482
853.017
852.29
851.996
851.874
851.837
851.829
851.827
851.827
851.827
851.827
851.827
851.827
851.827
851.827
851.827
851.827
851.827
851.827
851.827
851.827
851.827
851.827
851.815
851.453
843.755
726.894
724.072
845.971
854.504
853.322
852.903
852.247
851.98
851.869
851.836
851.829
851.827
851.827
851.827
851.827
851.827
851.827
851.827
851.827
851.827
851.827
851.827
851.827
851.827
851.827
851.827
851.827
851.815
851.447
843.676
726.207
723.833
845.684
854.176
853.169
852.794
852.204
851.965
851.865
851.835
851.828
851.827
851.827
851.827
851.827
851.827
851.827
851.827
851.827
851.827
851.827
851.827
851.827
851.827
851.827
851.827
851.827
851.815
851.442
843.604
725.588
723.634
845.414
853.865
853.019
852.69
852.163
851.95
851.86
851.834
851.828
851.827
851.827
851.827
851.827
851.827
851.827
851.827
851.827
851.827
851.827
851.827
851.827
851.827
851.827
851.827
851.827
851.815
851.437
843.54
725.032
723.466
845.128
853.56
852.869
852.586
852.122
851.935
851.856
851.833
851.828
851.827
851.827
851.827
851.827
851.827
851.827
851.827
851.827
851.827
851.827
851.827
851.827
851.827
851.827
851.827
851.827
851.814
851.433
843.484
724.541
723.262
844.826
853.246
852.709
852.48
852.08
851.92
851.852
851.832
851.828
851.827
851.827
851.827
851.827
851.827
851.827
851.827
851.827
851.827
851.827
851.827
851.827
851.827
851.827
851.827
851.827
851.814
851.43
843.435
724.11
723.115
844.51
852.924
852.533
852.367
852.036
851.904
851.847
851.831
851.828
851.827
851.827
851.827
851.827
851.827
851.827
851.827
851.827
851.827
851.827
851.827
851.827
851.827
851.827
851.827
851.827
851.814
851.427
843.393
723.736
723.053
844.23
852.624
852.346
852.246
851.987
851.887
851.843
851.83
851.828
851.827
851.827
851.827
851.827
851.827
851.827
851.827
851.827
851.827
851.827
851.827
851.827
851.827
851.827
851.827
851.827
851.814
851.424
843.358
723.418
723.034
844.02
852.393
852.169
852.127
851.934
851.867
851.837
851.829
851.827
851.827
851.827
851.827
851.827
851.827
851.827
851.827
851.827
851.827
851.827
851.827
851.827
851.827
851.827
851.827
851.827
851.814
851.422
843.329
723.153
723.067
843.838
852.208
852.014
852.025
851.882
851.847
851.832
851.828
851.827
851.827
851.827
851.827
851.827
851.827
851.827
851.827
851.827
851.827
851.827
851.827
851.827
851.827
851.827
851.827
851.827
851.814
851.421
843.307
722.938
726.985
843.83
852.053
851.879
851.942
851.838
851.829
851.826
851.827
851.827
851.827
851.827
851.827
851.827
851.827
851.827
851.827
851.827
851.827
851.827
851.827
851.827
851.827
851.827
851.827
851.827
851.814
851.42
843.29
722.771
736.383
852.14
852.132
851.775
851.874
851.804
851.816
851.822
851.826
851.827
851.827
851.827
851.827
851.827
851.827
851.827
851.827
851.827
851.827
851.827
851.827
851.827
851.827
851.827
851.827
851.827
851.814
851.419
843.28
722.649
801.031
881.346
885.867
886.349
886.722
887.092
887.466
887.845
888.229
888.619
889.016
889.419
889.829
890.246
890.669
891.099
891.537
891.982
892.434
892.895
893.368
893.865
894.413
895.065
895.905
897.031
897.964
898.314
887.304
800.773
746.915
849.547
855.775
856.089
856.203
856.309
856.415
856.523
856.634
856.748
856.866
856.987
857.112
857.241
857.375
857.512
857.654
857.801
857.953
858.11
858.279
858.474
858.733
859.136
859.819
860.985
862.163
863.316
851.655
718.315
740.239
845.501
851.959
852.221
852.249
852.268
852.286
852.303
852.32
852.338
852.356
852.376
852.396
852.417
852.439
852.462
852.486
852.511
852.538
852.567
852.603
852.661
852.782
853.055
853.646
854.828
856.056
857.611
848.445
717.083
738.252
845.007
851.573
851.843
851.854
851.86
851.864
851.866
851.868
851.87
851.872
851.874
851.876
851.879
851.881
851.884
851.887
851.89
851.893
851.898
851.907
851.938
852.031
852.278
852.855
854.103
855.318
857.021
848.139
721.578
736.731
844.84
851.53
851.815
851.824
851.827
851.829
851.83
851.83
851.83
851.83
851.831
851.831
851.831
851.831
851.831
851.832
851.832
851.832
851.834
851.839
851.864
851.953
852.196
852.767
854.049
855.226
857.085
848.088
722.007
735.286
844.687
851.516
851.813
851.824
851.826
851.827
851.827
851.827
851.827
851.827
851.827
851.827
851.827
851.827
851.827
851.827
851.828
851.828
851.828
851.833
851.854
851.938
852.177
852.738
854.018
855.144
857.14
848.28
721.76
733.908
844.538
851.504
851.813
851.825
851.826
851.827
851.827
851.827
851.827
851.827
851.827
851.827
851.827
851.827
851.827
851.827
851.827
851.827
851.828
851.832
851.85
851.923
852.152
852.693
853.957
854.985
857.11
848.438
722.188
732.62
844.397
851.492
851.815
851.826
851.827
851.827
851.827
851.827
851.827
851.827
851.827
851.827
851.827
851.827
851.827
851.827
851.827
851.827
851.828
851.831
851.848
851.913
852.114
852.615
853.859
854.729
857.035
848.517
723.178
731.437
844.269
851.487
851.816
851.826
851.827
851.827
851.827
851.827
851.827
851.827
851.827
851.827
851.827
851.827
851.827
851.827
851.827
851.827
851.828
851.831
851.845
851.905
852.089
852.536
853.676
854.411
856.855
848.267
724.096
730.362
844.15
851.48
851.816
851.827
851.827
851.827
851.827
851.827
851.827
851.827
851.827
851.827
851.827
851.827
851.827
851.827
851.827
851.827
851.828
851.83
851.843
851.898
852.069
852.481
853.524
854.162
856.447
847.696
724.666
729.377
844.039
851.473
851.816
851.827
851.827
851.827
851.827
851.827
851.827
851.827
851.827
851.827
851.827
851.827
851.827
851.827
851.827
851.827
851.828
851.83
851.842
851.891
852.05
852.432
853.389
853.976
856.008
847.235
724.896
728.476
843.938
851.466
851.816
851.827
851.827
851.827
851.827
851.827
851.827
851.827
851.827
851.827
851.827
851.827
851.827
851.827
851.827
851.827
851.828
851.829
851.84
851.885
852.031
852.384
853.261
853.812
855.598
846.873
724.888
727.651
843.843
851.459
851.815
851.827
851.827
851.827
851.827
851.827
851.827
851.827
851.827
851.827
851.827
851.827
851.827
851.827
851.827
851.827
851.827
851.829
851.839
851.879
852.013
852.336
853.136
853.647
855.214
846.565
724.489
726.894
843.755
851.453
851.815
851.827
851.827
851.827
851.827
851.827
851.827
851.827
851.827
851.827
851.827
851.827
851.827
851.827
851.827
851.827
851.827
851.829
851.837
851.874
851.996
852.29
853.017
853.482
854.849
846.276
724.23
726.207
843.676
851.447
851.815
851.827
851.827
851.827
851.827
851.827
851.827
851.827
851.827
851.827
851.827
851.827
851.827
851.827
851.827
851.827
851.827
851.829
851.836
851.869
851.98
852.246
852.903
853.322
854.504
845.974
724.068
725.589
843.605
851.442
851.815
851.827
851.827
851.827
851.827
851.827
851.827
851.827
851.827
851.827
851.827
851.827
851.827
851.827
851.827
851.827
851.827
851.828
851.835
851.865
851.965
852.204
852.794
853.169
854.177
845.681
723.845
725.033
843.54
851.437
851.815
851.827
851.827
851.827
851.827
851.827
851.827
851.827
851.827
851.827
851.827
851.827
851.827
851.827
851.827
851.827
851.827
851.828
851.834
851.86
851.95
852.163
852.689
853.019
853.865
845.414
723.623
724.54
843.484
851.433
851.814
851.827
851.827
851.827
851.827
851.827
851.827
851.827
851.827
851.827
851.827
851.827
851.827
851.827
851.827
851.827
851.827
851.828
851.833
851.856
851.935
852.122
852.586
852.869
853.56
845.131
723.464
724.11
843.435
851.43
851.814
851.827
851.827
851.827
851.827
851.827
851.827
851.827
851.827
851.827
851.827
851.827
851.827
851.827
851.827
851.827
851.827
851.828
851.832
851.852
851.92
852.08
852.48
852.709
853.247
844.822
723.276
723.736
843.393
851.427
851.814
851.827
851.827
851.827
851.827
851.827
851.827
851.827
851.827
851.827
851.827
851.827
851.827
851.827
851.827
851.827
851.827
851.828
851.831
851.847
851.904
852.036
852.367
852.533
852.924
844.51
723.102
723.418
843.358
851.424
851.814
851.827
851.827
851.827
851.827
851.827
851.827
851.827
851.827
851.827
851.827
851.827
851.827
851.827
851.827
851.827
851.827
851.828
851.83
851.843
851.887
851.987
852.246
852.346
852.624
844.233
723.051
723.153
843.329
851.422
851.814
851.827
851.827
851.827
851.827
851.827
851.827
851.827
851.827
851.827
851.827
851.827
851.827
851.827
851.827
851.827
851.827
851.827
851.829
851.837
851.867
851.934
852.127
852.168
852.392
844.015
723.05
722.938
843.306
851.421
851.814
851.827
851.827
851.827
851.827
851.827
851.827
851.827
851.827
851.827
851.827
851.827
851.827
851.827
851.827
851.827
851.827
851.827
851.828
851.832
851.847
851.882
852.025
852.014
852.208
843.839
723.058
722.77
843.29
851.42
851.814
851.827
851.827
851.827
851.827
851.827
851.827
851.827
851.827
851.827
851.827
851.827
851.827
851.827
851.827
851.827
851.827
851.827
851.827
851.826
851.829
851.838
851.942
851.879
852.053
843.835
727.047
722.649
843.28
851.419
851.814
851.827
851.827
851.827
851.827
851.827
851.827
851.827
851.827
851.827
851.827
851.827
851.827
851.827
851.827
851.827
851.827
851.827
851.826
851.822
851.816
851.804
851.874
851.775
852.137
852.305
736.468
679.611
680
680.397
680.793
681.188
681.582
681.975
682.367
682.758
683.149
683.538
683.927
684.315
684.701
685.087
685.472
685.856
686.239
686.622
687.003
687.384
687.763
688.142
688.52
688.897
689.273
689.649
690.023
690.397
690.769
691.141
691.512
691.882
692.252
692.62
692.988
693.355
693.721
694.086
694.45
694.814
695.176
695.538
695.899
696.259
696.619
696.977
697.335
697.692
698.048
698.404
698.758
699.112
699.465
699.817
700.169
700.519
700.869
701.218
701.567
701.914
702.261
702.607
702.952
703.296
703.64
703.983
704.325
704.667
705.007
705.347
705.686
706.025
706.362
706.699
707.036
707.371
707.706
708.04
708.373
708.706
709.037
709.369
709.699
710.029
710.357
710.686
711.013
711.34
711.666
711.991
712.316
712.64
712.963
713.286
713.608
713.929
714.25
714.569
714.889
715.207
715.525
715.842
716.158
716.474
716.789
717.104
717.417
717.73
718.043
718.354
718.666
718.976
719.286
719.595
719.903
720.211
720.518
720.825
721.131
721.436
721.741
722.045
722.345
722.616
836.211
836.311
836.39
836.467
836.544
836.62
836.696
836.771
836.846
836.921
836.995
837.069
837.142
837.215
837.287
837.359
837.431
837.502
837.573
837.643
837.713
837.783
837.852
837.921
837.989
838.057
838.125
838.192
838.259
838.325
838.392
838.457
838.523
838.588
838.652
838.717
838.781
838.844
838.908
838.97
839.033
839.095
839.157
839.219
839.28
839.341
839.401
839.461
839.521
839.581
839.64
839.699
839.757
839.815
839.873
839.931
839.988
840.045
840.102
840.158
840.214
840.27
840.325
840.38
840.435
840.489
840.544
840.597
840.651
840.704
840.757
840.81
840.863
840.915
840.967
841.018
841.07
841.121
841.172
841.222
841.272
841.322
841.372
841.422
841.471
841.52
841.568
841.617
841.665
841.713
841.761
841.808
841.855
841.902
841.949
841.995
842.041
842.087
842.133
842.178
842.223
842.268
842.313
842.358
842.402
842.446
842.49
842.533
842.576
842.62
842.662
842.705
842.748
842.79
842.832
842.874
842.915
842.956
842.998
843.039
843.079
843.12
843.16
843.201
843.247
850.726
850.738
850.748
850.757
850.766
850.775
850.783
850.792
850.801
850.809
850.817
850.826
850.834
850.842
850.85
850.858
850.866
850.874
850.882
850.89
850.897
850.905
850.913
850.92
850.927
850.935
850.942
850.949
850.956
850.963
850.97
850.977
850.984
850.991
850.998
851.004
851.011
851.018
851.024
851.031
851.037
851.043
851.05
851.056
851.062
851.068
851.074
851.08
851.086
851.092
851.098
851.104
851.109
851.115
851.121
851.126
851.132
851.137
851.143
851.148
851.154
851.159
851.164
851.169
851.175
851.18
851.185
851.19
851.195
851.2
851.205
851.209
851.214
851.219
851.224
851.228
851.233
851.238
851.242
851.247
851.251
851.256
851.26
851.265
851.269
851.273
851.277
851.282
851.286
851.29
851.294
851.298
851.302
851.306
851.31
851.314
851.318
851.322
851.326
851.33
851.333
851.337
851.341
851.345
851.348
851.352
851.355
851.359
851.363
851.366
851.37
851.373
851.376
851.38
851.383
851.387
851.39
851.393
851.396
851.4
851.403
851.406
851.409
851.413
851.416
851.772
851.773
851.774
851.775
851.775
851.776
851.777
851.777
851.778
851.778
851.779
851.779
851.78
851.781
851.781
851.782
851.782
851.783
851.783
851.784
851.784
851.785
851.785
851.786
851.786
851.787
851.787
851.788
851.788
851.789
851.789
851.789
851.79
851.79
851.791
851.791
851.792
851.792
851.792
851.793
851.793
851.794
851.794
851.794
851.795
851.795
851.795
851.796
851.796
851.797
851.797
851.797
851.798
851.798
851.798
851.799
851.799
851.799
851.8
851.8
851.8
851.8
851.801
851.801
851.801
851.802
851.802
851.802
851.802
851.803
851.803
851.803
851.804
851.804
851.804
851.804
851.805
851.805
851.805
851.805
851.806
851.806
851.806
851.806
851.806
851.807
851.807
851.807
851.807
851.808
851.808
851.808
851.808
851.808
851.809
851.809
851.809
851.809
851.809
851.81
851.81
851.81
851.81
851.81
851.81
851.811
851.811
851.811
851.811
851.811
851.812
851.812
851.812
851.812
851.812
851.812
851.813
851.813
851.813
851.813
851.813
851.813
851.814
851.814
851.814
851.825
851.825
851.825
851.825
851.825
851.825
851.826
851.826
851.826
851.826
851.826
851.826
851.826
851.826
851.826
851.826
851.826
851.826
851.826
851.826
851.826
851.826
851.826
851.826
851.826
851.826
851.826
851.826
851.826
851.826
851.826
851.826
851.826
851.826
851.826
851.826
851.826
851.826
851.826
851.826
851.826
851.826
851.826
851.826
851.826
851.826
851.826
851.826
851.826
851.826
851.826
851.826
851.826
851.826
851.826
851.826
851.826
851.826
851.826
851.826
851.826
851.826
851.826
851.826
851.827
851.827
851.827
851.827
851.827
851.827
851.827
851.827
851.827
851.827
851.827
851.827
851.827
851.827
851.827
851.827
851.827
851.827
851.827
851.827
851.827
851.827
851.827
851.827
851.827
851.827
851.827
851.827
851.827
851.827
851.827
851.827
851.827
851.827
851.827
851.827
851.827
851.827
851.827
851.827
851.827
851.827
851.827
851.827
851.827
851.827
851.827
851.827
851.827
851.827
851.827
851.827
851.827
851.827
851.827
851.827
851.827
851.827
851.827
851.827
851.827
851.827
851.827
851.827
851.827
851.827
851.827
851.827
851.827
851.827
851.827
851.827
851.827
851.827
851.827
851.827
851.827
851.827
851.827
851.827
851.827
851.827
851.827
851.827
851.827
851.827
851.827
851.827
851.827
851.827
851.827
851.827
851.827
851.827
851.827
851.827
851.827
851.827
851.827
851.827
851.827
851.827
851.827
851.827
851.827
851.827
851.827
851.827
851.827
851.827
851.827
851.827
851.827
851.827
851.827
851.827
851.827
851.827
851.827
851.827
851.827
851.827
851.827
851.827
851.827
851.827
851.827
851.827
851.827
851.827
851.827
851.827
851.827
851.827
851.827
851.827
851.827
851.827
851.827
851.827
851.827
851.827
851.827
851.827
851.827
851.827
851.827
851.827
851.827
851.827
851.827
851.827
851.827
851.827
851.827
851.827
851.827
851.827
851.827
851.827
851.827
851.827
851.827
851.827
851.827
851.827
851.827
851.827
851.827
851.827
851.827
851.827
851.827
851.827
851.827
851.827
851.827
851.827
851.827
851.827
851.827
851.827
851.827
851.827
851.827
851.827
851.827
851.827
851.827
851.827
851.827
851.827
851.827
851.827
851.827
851.827
851.827
851.827
851.827
851.827
851.827
851.827
851.827
851.827
851.827
851.827
851.827
851.827
851.827
851.827
851.827
851.827
851.827
851.827
851.827
851.827
851.827
851.827
851.827
851.827
851.827
851.827
851.827
851.827
851.827
851.827
851.827
851.827
851.827
851.827
851.827
851.827
851.827
851.827
851.827
851.827
851.827
851.827
851.827
851.827
851.827
851.827
851.827
851.827
851.827
851.827
851.827
851.827
851.827
851.827
851.827
851.827
851.827
851.827
851.827
851.827
851.827
851.827
851.827
851.827
851.827
851.827
851.827
851.827
851.827
851.827
851.827
851.827
851.827
851.827
851.827
851.827
851.827
851.827
851.827
851.827
851.827
851.827
851.827
851.827
851.827
851.827
851.827
851.827
851.827
851.827
851.827
851.827
851.827
851.827
851.827
851.827
851.827
851.827
851.827
851.827
851.827
851.827
851.827
851.827
851.827
851.827
851.827
851.827
851.827
851.827
851.827
851.827
851.827
851.827
851.827
851.827
851.827
851.827
851.827
851.827
851.827
851.827
851.827
851.827
851.827
851.827
851.827
851.827
851.827
851.827
851.827
851.827
851.827
851.827
851.827
851.827
851.827
851.827
851.827
851.827
851.827
851.827
851.827
851.827
851.827
851.827
851.827
851.827
851.827
851.827
851.827
851.827
851.827
851.827
851.827
851.827
851.827
851.827
851.827
851.827
851.827
851.827
851.827
851.827
851.827
851.827
851.827
851.827
851.827
851.827
851.827