/*--------------------------------*- C++ -*----------------------------------*\
| =========                 |                                                 |
| \\      /  F ield         | OpenFOAM: The Open Source CFD Toolbox           |
|  \\    /   O peration     | Version:  2112                                  |
|   \\  /    A nd           | Website:  www.openfoam.com                      |
|    \\/     M anipulation  |                                                 |
\*---------------------------------------------------------------------------*/
FoamFile
{
    version     2.0;
    format      ascii;
    arch        "LSB;label=32;scalar=64";
    class       volVectorField;
    location    "0.00065";
    object      U;
}
// * * * * * * * * * * * * * * * * * * * * * * * * * * * * * * * * * * * * * //

dimensions      [0 1 -1 0 0 0 0];

internalField   nonuniform List<vector> 
13875
(
(2205.99 109.971 1.80831e-18)
(2143.14 6.75926 -9.35642e-19)
(2169.29 -1.9899 -9.41623e-19)
(2170.37 -1.81969 0)
(2170.18 -0.411228 0)
(2169.94 -0.0638517 9.36002e-19)
(2169.4 0.0869199 -9.36673e-19)
(2169.74 -1.29475 -4.68381e-19)
(2169.79 -0.548832 4.67978e-19)
(2170.11 0.445169 0)
(2169.48 0.459491 -3.86638e-22)
(2169.68 0.475434 -3.85849e-22)
(2169.55 -0.164946 0)
(2169.56 -0.97348 -4.6805e-19)
(2169.5 -0.777092 4.68398e-19)
(2169.57 0.0709619 0)
(2169.56 0.365385 9.37086e-19)
(2169.89 0.960974 -9.37263e-19)
(2170.1 0.786151 3.86103e-22)
(2170.79 -0.0939836 -3.85644e-22)
(2170.47 0.440268 -9.34968e-19)
(2171.3 2.49596 9.34395e-19)
(2169.81 2.56671 -1.88337e-18)
(2140.27 -8.78423 1.92322e-18)
(2205 -107.744 1.78055e-18)
(2254.9 92.4832 -1.63015e-18)
(2228.65 -0.957643 1.8844e-18)
(2247.06 0.123591 8.71724e-19)
(2247.18 1.7153 -8.66638e-19)
(2247.68 1.09713 4.17231e-22)
(2247.35 0.551279 5.19759e-22)
(2247.75 -0.0939118 4.16444e-22)
(2247.86 1.49291 -4.36129e-19)
(2245.97 0.517234 4.33292e-19)
(2247.39 -0.497196 2.16765e-19)
(2247.06 -0.384452 -1.62548e-19)
(2247.97 -0.671546 -5.3021e-20)
(2247.9 0.346111 0)
(2247.34 1.51693 -4.36833e-19)
(2245.87 0.955593 4.33171e-19)
(2245.64 -0.33526 4.35738e-19)
(2245.34 -0.766924 -4.35865e-19)
(2246.06 -2.00071 5.19055e-22)
(2247.45 -1.78718 -5.19616e-22)
(2247.39 0.119178 5.19279e-22)
(2246.51 -0.316203 -8.68725e-19)
(2247.4 -2.77905 2.60084e-18)
(2247.17 0.486034 -1.74105e-18)
(2228.15 5.54976 5.42489e-22)
(2255.58 -94.3562 -1.69774e-18)
(2254.75 78.7477 0)
(2236.48 -16.8326 0)
(2248.71 3.99531 0)
(2252.5 -1.01612 0)
(2252.9 -1.2944 -1.64013e-18)
(2253.6 -1.05564 1.65424e-18)
(2253.78 -0.684903 1.64034e-18)
(2254.16 1.51313 -2.45915e-18)
(2254.12 0.47094 8.60072e-19)
(2254.39 -1.05635 4.08379e-22)
(2254.33 -0.758379 -4.29655e-19)
(2254.5 -0.715995 4.0991e-19)
(2254.46 0.431138 0)
(2254.21 1.78413 0)
(2254.07 1.68744 4.30144e-22)
(2253.34 0.570106 0)
(2252.8 -0.329522 8.41486e-22)
(2252.67 -1.20827 4.10994e-19)
(2252.3 -0.436629 -4.1066e-19)
(2251.71 1.40461 0)
(2251.16 0.831949 0)
(2251.96 0.21227 0)
(2247.88 -2.46578 0)
(2233.77 14.1883 0)
(2253.48 -73.3507 0)
(2250.26 52.3273 0)
(2234.82 -27.9634 1.81579e-18)
(2248.48 6.90269 -3.42042e-18)
(2253.27 -3.64237 3.45397e-18)
(2252.53 -1.93568 -1.63555e-18)
(2253.47 -1.56464 0)
(2253.76 -0.820362 -7.92849e-22)
(2254.11 1.39183 0)
(2254.3 0.371144 0)
(2254.37 -1.08911 0)
(2254.34 -0.938556 0)
(2254.48 -0.730221 -7.77793e-22)
(2254.46 0.454415 -4.97501e-20)
(2254.2 1.82938 4.90352e-20)
(2254.28 2.37231 0)
(2253.67 1.36343 0)
(2252.93 0.160781 8.4313e-22)
(2252.62 -0.840412 -8.14287e-19)
(2252.03 -0.0826054 8.18118e-19)
(2251.47 1.69714 -1.64821e-18)
(2250.94 1.17235 1.61914e-18)
(2251.12 2.73616 1.74501e-18)
(2247.27 -6.96234 -1.72712e-18)
(2234.14 30.3055 0)
(2251.06 -61.6391 0)
(2247.67 40.7121 1.74264e-18)
(2235.03 -46.0212 0)
(2247.73 10.4172 0)
(2251.54 -5.86959 0)
(2252.69 -3.45753 0)
(2253.58 -2.86574 1.66975e-21)
(2253.66 -1.18844 1.64784e-21)
(2254.09 1.03739 4.2238e-19)
(2254.23 0.231668 -4.03606e-19)
(2254.3 -1.17374 2.08522e-19)
(2254.29 -1.07716 -2.15067e-19)
(2254.4 -0.684862 0)
(2254.4 0.488587 0)
(2254.15 1.80853 -1.57762e-21)
(2254.34 2.74358 0)
(2253.73 2.13371 -1.68764e-21)
(2253.18 1.12545 8.61984e-19)
(2252.68 0.174745 -8.48606e-19)
(2251.98 0.754415 1.72188e-18)
(2251.43 2.32974 -1.71618e-18)
(2251.01 2.17364 1.666e-21)
(2250.7 4.74562 0)
(2246.96 -9.43793 0)
(2232.5 39.9582 0)
(2246.6 -34.558 0)
(2243.78 8.66362 0)
(2230.2 -61.6684 9.1528e-19)
(2246.2 12.438 -8.48084e-19)
(2251.96 -9.58081 0)
(2251.43 -4.52003 8.63988e-19)
(2252.92 -3.68412 -4.36032e-19)
(2253.21 -1.27922 -2.42722e-21)
(2253.72 0.882126 -2.13291e-19)
(2253.93 0.174295 -4.20094e-19)
(2254.16 -1.40674 1.60976e-19)
(2254.1 -1.39379 1.66474e-21)
(2254.18 -0.724205 2.59249e-19)
(2254.23 0.461529 -2.09587e-19)
(2253.98 1.77814 3.26892e-21)
(2254.29 3.44731 -4.32866e-19)
(2253.54 3.22119 4.33947e-19)
(2253 1.74001 1.69129e-21)
(2252.24 0.872241 -1.68863e-21)
(2251.44 1.28966 -1.68065e-21)
(2250.74 2.69145 -8.55239e-19)
(2250.17 3.00145 8.6398e-19)
(2250.91 9.44783 0)
(2244.03 -13.1483 0)
(2229.38 61.5029 -1.92813e-18)
(2244.27 -26.8909 -1.20479e-19)
(2257.67 5.18901 -4.93568e-20)
(2225.94 -77.1195 6.04341e-20)
(2241.6 12.9112 0)
(2249.47 -13.6537 -2.69114e-23)
(2251.12 -7.00639 -2.64754e-23)
(2252.52 -5.69493 0)
(2252.68 -1.96804 0)
(2253.37 0.152925 -8.43399e-19)
(2253.59 -0.345485 8.46857e-19)
(2253.74 -1.52556 0)
(2253.7 -1.33 1.6851e-18)
(2253.77 -0.434369 2.4095e-21)
(2253.86 0.606778 -1.70314e-18)
(2253.61 1.59101 -1.67778e-21)
(2253.89 3.62884 0)
(2253.35 3.78889 3.4523e-18)
(2252.88 2.7634 9.15302e-21)
(2252.26 2.29594 -6.92214e-18)
(2251.36 2.6905 3.41566e-18)
(2250.42 4.11283 2.59597e-23)
(2249.23 5.27926 0)
(2246.38 12.4693 3.52697e-18)
(2238.24 -10.1857 -3.36028e-18)
(2219.88 67.6131 3.8597e-18)
(2237.06 -0.302128 -3.23445e-18)
(2218.27 -20.9064 -3.25559e-19)
(2212.2 -85.7583 -7.54094e-18)
(2233.67 4.23191 8.75644e-22)
(2246.05 -20.2372 2.61098e-23)
(2247.73 -9.4267 -8.22314e-22)
(2249.92 -6.58746 0)
(2250.93 -2.14776 -3.35982e-18)
(2252.13 -0.0511974 3.38595e-18)
(2252.64 -0.457532 0)
(2252.99 -2.16239 -8.32809e-22)
(2252.85 -1.69316 -8.30971e-22)
(2252.91 -0.6169 0)
(2253.05 0.57858 0)
(2252.79 1.68001 -1.64993e-21)
(2252.95 4.12757 -8.34362e-22)
(2252.66 4.84242 2.60487e-23)
(2252.25 3.38349 -8.73876e-22)
(2251.27 3.01783 -2.62226e-23)
(2249.81 3.61365 -1.71025e-18)
(2248.09 5.51581 -1.93911e-20)
(2246.13 9.08355 1.71212e-18)
(2242.58 21.9651 8.96346e-22)
(2226.41 1.42808 3.56257e-18)
(2197.94 84.314 -3.59089e-18)
(2181.68 14.958 2.56067e-23)
(2107.21 -36.9188 9.40893e-19)
(2163.29 -97.1062 0)
(2212.61 -19.4194 -8.33774e-22)
(2234 -30.6797 -8.64629e-19)
(2243.61 -17.4458 1.73869e-18)
(2247.08 -11.9638 -1.69725e-18)
(2248.72 -4.91407 7.58419e-21)
(2250.35 -1.93051 8.53187e-19)
(2250.98 -1.45036 0)
(2251.32 -2.05182 -8.51009e-19)
(2251.14 -1.26764 8.55742e-19)
(2251.18 -0.0878315 0)
(2251.34 0.795147 0)
(2251.09 1.27685 2.09206e-21)
(2251.25 3.59031 8.31364e-22)
(2251.08 4.79676 8.54156e-19)
(2250.78 4.4515 -8.59253e-19)
(2249.83 5.21971 0)
(2248.26 7.0995 8.62905e-19)
(2245.77 10.8494 -1.72613e-18)
(2239.78 18.7584 8.54912e-19)
(2225.72 38.1839 -8.45615e-22)
(2193.97 33.9846 0)
(2113.91 113.989 0)
(1973.9 50.0581 0)
(1851.44 -143.819 -6.70372e-17)
(2111.49 -161.791 8.64856e-17)
(2190.02 -55.7319 0)
(2224.79 -56.3992 -2.98176e-17)
(2236.2 -24.8218 3.132e-17)
(2240.84 -12.3227 0)
(2244.13 -4.98159 -2.98342e-20)
(2246.4 -2.3777 -1.47184e-17)
(2247.36 -2.21665 1.48389e-17)
(2247.77 -2.93221 -2.99882e-20)
(2247.53 -1.72 0)
(2247.57 -0.545947 -3.73765e-18)
(2247.74 0.760621 5.59158e-18)
(2247.51 1.45351 -1.90011e-18)
(2247.57 3.8029 -2.97526e-20)
(2247.64 5.67203 0)
(2247.38 5.31991 0)
(2246.3 6.14361 -2.97194e-17)
(2243.96 9.00537 2.96138e-17)
(2240.27 15.8882 -3.09082e-17)
(2232.07 32.5296 2.9518e-17)
(2215.96 74.9918 3.42207e-17)
(2161.05 102.492 -3.01906e-17)
(2012.51 250.455 -1.06333e-16)
(1571.47 189.77 -2.38485e-17)
(1634.7 -228.442 -9.28867e-17)
(1990.57 -317.373 1.36883e-16)
(2132.51 -120.563 0)
(2197.87 -67.7252 6.8732e-17)
(2220 -30.2652 -7.33853e-17)
(2231.13 -18.7226 -3.35221e-17)
(2235.5 -9.4505 3.42432e-17)
(2238.42 -5.74953 -3.39571e-17)
(2239.56 -3.73753 3.43453e-17)
(2240.09 -2.22721 3.2821e-20)
(2239.93 -0.484808 0)
(2239.89 0.417969 -2.1407e-18)
(2240 1.01148 2.17187e-18)
(2239.84 0.850893 3.26457e-20)
(2239.88 2.0369 3.27219e-20)
(2240.25 4.41457 3.49303e-20)
(2239.9 6.03443 0)
(2238.74 8.65476 0)
(2235.49 14.0758 -6.92015e-17)
(2231.02 22.83 6.86979e-17)
(2214.32 38.3537 -7.5687e-17)
(2183.89 92.1863 1.55854e-16)
(2076.17 185.427 -7.40344e-17)
(1822.68 516.403 -4.33293e-20)
(1250.4 528.079 7.5549e-20)
(1229.51 -550.557 -1.16779e-16)
(1647.59 -632.719 1.17676e-16)
(1877.2 -155.587 2.59759e-16)
(2126.42 -119.836 -1.03837e-16)
(2181.59 -48.0252 0)
(2201.39 -16.6312 7.57613e-17)
(2212.19 -6.74984 -7.76459e-17)
(2217.83 -3.88844 0)
(2220.17 -3.36854 3.58398e-20)
(2221.04 -2.85475 0)
(2221.09 -1.39782 0)
(2220.9 -0.592549 0)
(2220.88 0.773625 4.78474e-18)
(2220.91 1.43082 -4.78639e-18)
(2221.03 2.56131 -4.14993e-20)
(2221.64 4.77338 -3.59193e-20)
(2221.04 5.16113 0)
(2218.93 6.61873 0)
(2211.64 10.4832 0)
(2205.6 30.8639 -8.21949e-17)
(2172.74 69.3471 1.66565e-16)
(2108.6 168.929 -7.86113e-17)
(1786.23 331.648 -1.95978e-16)
(1298.03 926.454 1.09638e-16)
(1167.31 594.136 -8.13993e-20)
(1211.98 -658.525 1.72082e-16)
(1148.42 -921.52 0)
(1244.52 -689.318 0)
(1869.97 -280.599 -1.08581e-16)
(2026.79 -79.3747 1.36716e-16)
(2123.63 -67.2826 0)
(2140.98 -35.0636 1.51678e-20)
(2153.79 -21.4262 4.5093e-17)
(2159.5 -9.01983 -4.55699e-17)
(2160.92 -1.75399 0)
(2161.02 1.63909 -1.11711e-17)
(2160.34 2.57499 1.12383e-17)
(2159.46 1.34143 -5.64998e-18)
(2160.33 -0.955024 5.66415e-18)
(2161.8 -1.29569 3.97999e-20)
(2162.94 2.24071 -4.46313e-17)
(2162.1 10.2761 9.02457e-17)
(2156.01 22.053 1.1074e-18)
(2144.52 44.2146 -4.49572e-17)
(2118.63 47.1833 -1.06797e-16)
(1946.83 75.7882 1.08559e-16)
(1865.29 365.574 7.67974e-20)
(1221.38 844.761 1.95288e-20)
(1273.38 931.902 1.6739e-16)
(1162.78 644.961 8.17718e-18)
(1265.1 -688.932 0)
(1161.8 -936.135 0)
(1121.25 -826.996 0)
(1191.94 -797.408 0)
(1556.48 -479.861 0)
(1847.73 -55.2543 1.34449e-16)
(1868.51 13.9545 -1.46113e-16)
(1913.53 24.9046 2.18214e-19)
(1937.34 8.76598 -1.21809e-20)
(1940.59 -1.33193 3.0744e-17)
(1940.07 -4.76327 -3.11919e-17)
(1937.73 -4.64997 -4.32706e-19)
(1931.93 -0.952779 -9.77517e-19)
(1936.7 2.74753 1.17865e-18)
(1944.22 5.94662 -3.09961e-17)
(1948.18 2.45362 3.06577e-17)
(1945.26 -8.19277 1.94395e-19)
(1915.06 -26.245 0)
(1875.6 1.61012 0)
(1895.97 177.819 0)
(1367.24 705.104 -1.96445e-16)
(1355.2 728.469 -2.6365e-17)
(1233.68 842.913 1.5729e-16)
(1269.48 884.233 2.08585e-20)
(1189.87 636.013 2.22629e-20)
(1351.09 -684.981 0)
(1246.44 -844.535 4.1665e-20)
(1169.17 -793.968 0)
(1163 -729.932 -1.92482e-16)
(1046.74 -702.471 3.75994e-16)
(1011.94 -581.368 -2.17806e-16)
(951.624 -503.447 0)
(1080.86 -301.32 -1.59001e-19)
(1120.12 -116.838 0)
(1088.88 -33.5008 0)
(1088.83 10.7444 -3.0024e-17)
(1080.33 31.3227 3.01177e-17)
(1027.51 5.32488 2.97267e-17)
(1057.22 -36.4597 -3.0238e-17)
(1113.16 -34.0967 0)
(1133.14 14.6745 -1.23325e-16)
(1169.12 110.548 1.21799e-16)
(1150.33 294.301 1.19059e-16)
(1035.76 491.447 -1.10862e-16)
(1143.67 571.18 0)
(1090.77 762.083 0)
(1285.05 711.442 -1.68991e-19)
(1284.3 799.253 -1.66827e-16)
(1320 796.601 3.79595e-16)
(1228.69 619.113 -1.87062e-16)
(1434.62 -674.938 -1.76558e-16)
(1359.93 -776.458 1.89533e-16)
(1240.71 -666.65 0)
(1182.83 -556.484 -2.41271e-16)
(1039.38 -541.377 -4.36268e-17)
(949.166 -396.623 3.36492e-16)
(655.886 -139.509 -2.47641e-16)
(387.023 -26.8523 1.28208e-16)
(293.963 -4.10607 0)
(170.212 33.3894 0)
(117.128 28.1733 -4.44516e-20)
(59.9115 17.9623 1.53943e-19)
(-11.1315 -9.99559 0)
(24.4545 -35.3675 0)
(113.513 -54.317 6.6071e-17)
(169.754 -54.7512 -6.64432e-17)
(283.333 -30.5686 -1.33447e-16)
(381.961 2.42497 2.66155e-16)
(555.075 72.0799 -9.34423e-18)
(1020.4 359.24 -1.25016e-16)
(1107.33 553.996 0)
(1287.47 589.065 0)
(1327.3 665.128 -1.87295e-16)
(1370.2 719.178 2.19299e-16)
(1300.21 606.317 -4.89452e-20)
(1553.92 -591.285 1.69339e-16)
(1506.79 -564.875 -9.89429e-20)
(1420.81 -438.604 1.12765e-16)
(1366.54 -348.447 -9.5615e-17)
(1125.69 -206.09 -5.43028e-20)
(1044.59 -63.0551 1.17634e-19)
(757.863 -83.4988 1.23609e-16)
(564.565 -62.7228 -1.94904e-16)
(525.555 -100.712 6.68719e-17)
(482.023 -89.1381 0)
(476.047 -83.0597 -3.24033e-17)
(477.334 -69.5842 3.31704e-17)
(480.28 -33.5333 0)
(473.315 24.656 5.95782e-20)
(468.712 44.3694 -3.32469e-17)
(469.703 60.0253 3.22601e-17)
(505.313 68.3408 0)
(543.336 55.5781 -1.32904e-16)
(657.295 50.5174 1.25624e-16)
(1084.45 90.513 1.08771e-16)
(1184.86 165.113 -2.29649e-16)
(1407.65 367.625 1.10948e-16)
(1470.79 457.371 0)
(1484 571.638 1.80645e-16)
(1425.55 532.27 -1.17868e-17)
(1691.63 -419.682 -7.82885e-18)
(1609.99 -252.62 9.68171e-17)
(1430.99 -84.8003 -4.41495e-17)
(1330.55 -61.8364 -5.84401e-17)
(1191.49 -26.5346 8.13091e-17)
(1183.62 -96.4073 -5.58074e-17)
(1029.68 -185.552 5.9771e-17)
(897.502 -138.276 -6.14827e-17)
(846.19 -134.537 -1.47122e-19)
(789.531 -103.296 3.19071e-17)
(745.328 -79.6186 1.60912e-17)
(714.193 -50.66 1.9255e-20)
(702.596 -17.5223 -1.61324e-17)
(713.418 23.7987 -6.09069e-20)
(747.492 51.1413 -7.66983e-20)
(792.273 78.115 -2.00086e-18)
(845.222 100.939 -9.63624e-23)
(896.655 116.93 5.82833e-18)
(1034.63 143.259 -3.66339e-18)
(1247.73 110.502 0)
(1247.69 23.0757 1.31148e-17)
(1398.62 86.0088 -3.85415e-17)
(1486.41 82.2089 4.95024e-17)
(1585.7 242.591 -6.84209e-17)
(1581.17 346.845 7.14681e-17)
(1795.74 -256.319 -1.21333e-19)
(1763.5 88.5353 -1.40803e-19)
(1570.59 149.037 1.61104e-19)
(1510.24 23.2454 -6.92598e-21)
(1396.93 -10.993 -1.73855e-19)
(1390.1 -82.6416 -1.90994e-19)
(1295.69 -162.318 -7.63626e-21)
(1139.73 -155.687 0)
(1020.51 -130.638 0)
(927.327 -89.4253 6.32552e-17)
(860.33 -59.3192 -6.33775e-17)
(819.786 -34.2039 -8.24902e-21)
(806.828 -15.005 8.24431e-21)
(815.66 6.65988 -8.25034e-18)
(847.568 27.406 8.05098e-18)
(902.054 57.7207 0)
(986.737 99.3799 0)
(1116.9 150.104 -5.83905e-17)
(1306.74 170.035 5.58254e-17)
(1420.17 119.24 -1.79667e-19)
(1412.44 7.82699 0)
(1541.57 -44.6026 0)
(1614.72 -120.16 -1.59732e-19)
(1647.92 -130.055 -1.51177e-19)
(1678.18 155.806 1.75064e-16)
(1620.25 221.595 -1.97228e-16)
(1655.6 489.739 -2.35044e-16)
(1623.77 434.08 1.47845e-16)
(1640.76 226.948 0)
(1548.76 112.121 2.27226e-19)
(1531.19 18.3813 1.04248e-16)
(1467.24 -61.0955 -2.10214e-16)
(1337.64 -90.1541 1.06823e-16)
(1201.13 -87.6253 -1.19755e-16)
(1080.66 -63.2033 1.19731e-16)
(986.943 -44.2272 3.14233e-17)
(928.117 -26.3535 -3.93166e-17)
(907.697 -11.6071 -7.93777e-18)
(919.169 4.7654 1.60366e-17)
(966.406 22.5473 0)
(1054.52 48.068 0)
(1183.55 78.8396 1.15762e-16)
(1340.24 95.7051 -2.23976e-16)
(1492.65 75.9185 1.10149e-16)
(1559.88 0.774291 2.26977e-19)
(1562.65 -133.643 1.92037e-16)
(1658.84 -234.045 -2.90974e-17)
(1638.75 -432.536 -5.13975e-16)
(1586.96 -525.069 5.97777e-16)
(1553 -348.415 -2.93e-16)
(1048.95 691.088 1.2828e-19)
(1512.74 890.33 -1.80651e-16)
(1665.97 656.218 1.37092e-16)
(1709.07 406.05 0)
(1641.75 262.597 0)
(1619.72 141.652 0)
(1566.33 55.838 0)
(1462.47 2.42821 0)
(1336.19 -16.4946 -5.14183e-17)
(1214.6 -20.2111 1.04396e-16)
(1110.19 -21.8615 -8.07512e-17)
(1039.18 -15.1266 3.0612e-17)
(1013.12 -5.92305 -3.43754e-18)
(1030.86 4.98263 1.25684e-20)
(1095.89 14.2659 -5.41269e-17)
(1204.54 18.5893 5.37346e-17)
(1341.29 18.2329 0)
(1481.18 2.97528 0)
(1592.7 -50.6652 -1.70704e-16)
(1642.76 -138.742 1.85197e-16)
(1659.79 -280.91 -1.72998e-19)
(1712.23 -430.364 7.04272e-20)
(1658.77 -667.306 -9.65834e-20)
(1492.96 -873.42 -7.65098e-20)
(1044.67 -659.362 0)
(927.667 593.427 -1.82237e-16)
(1519.63 865.437 1.48766e-16)
(1709.54 790.751 -1.35421e-19)
(1731.76 577.472 1.50167e-16)
(1699.96 396.313 -1.33544e-16)
(1675.51 263.935 0)
(1628.56 170.5 -8.2297e-17)
(1546.04 99.8445 7.70012e-17)
(1439.22 57.2005 -4.43097e-17)
(1328.69 25.3371 8.97953e-17)
(1224.04 4.09797 -4.57022e-17)
(1148.96 -2.17938 1.73635e-19)
(1121.76 -1.65014 0)
(1145.12 -0.374402 2.36187e-17)
(1218.63 -5.45853 2.25814e-17)
(1329.28 -24.7015 -4.57278e-17)
(1453.28 -56.6575 -8.24775e-17)
(1566.04 -102 8.53078e-17)
(1648.18 -172.634 -7.22895e-17)
(1689.85 -274.991 8.07128e-17)
(1716.39 -417.682 8.16458e-20)
(1728.9 -602.017 -7.72197e-20)
(1697.03 -794.073 0)
(1503.75 -859.18 6.74118e-20)
(910.607 -560.866 0)
(939.553 484.408 1.62824e-16)
(1551.25 781.46 -1.46312e-16)
(1686.94 806.434 5.01897e-20)
(1743.13 670.447 0)
(1727.66 530.539 0)
(1700.25 387.933 -7.49571e-21)
(1665.64 282.982 0)
(1604.88 195.003 7.54856e-20)
(1519.83 127.948 0)
(1425.18 72.851 3.97743e-17)
(1329 35.2473 -6.01715e-17)
(1256.51 12.9038 3.05329e-17)
(1229.62 0.790894 -1.02723e-17)
(1253.9 -11.005 0)
(1325.72 -32.5047 0)
(1426.72 -70.0867 3.79583e-17)
(1531.51 -124.771 -1.09654e-16)
(1622.06 -195.761 7.435e-17)
(1680.22 -286.519 -6.2853e-17)
(1712.24 -398.384 7.09483e-17)
(1746.53 -530.114 0)
(1744.25 -681.017 0)
(1688 -804.924 0)
(1543.87 -775.974 -8.17626e-21)
(899.426 -436.014 -1.80746e-16)
(977.256 308.982 -3.08724e-20)
(1549.26 690.286 1.21232e-16)
(1680.5 788.369 -1.10275e-16)
(1742.68 709.812 0)
(1737.71 603.155 0)
(1715.17 480.216 7.70168e-21)
(1694.14 369.082 6.48212e-17)
(1648.18 272.497 -5.99719e-17)
(1581.99 186.485 3.02914e-20)
(1502.9 114.085 3.15366e-20)
(1419.46 62.0013 3.26705e-20)
(1354.81 25.6879 -9.56292e-21)
(1330.4 0.488647 -9.59363e-21)
(1353.4 -23.8898 1.80166e-17)
(1418.46 -58.4705 -1.81435e-17)
(1506.57 -109.172 4.07259e-20)
(1592.34 -181.976 3.89398e-20)
(1666.02 -273.304 0)
(1707.01 -371.214 -5.63974e-17)
(1729.43 -488.918 6.32472e-17)
(1755.49 -598.037 0)
(1749.37 -717.211 -1.11733e-16)
(1686.93 -788.17 1.05471e-16)
(1552.79 -701.267 7.39983e-21)
(974.265 -291.599 -1.64956e-16)
(992.819 294.471 3.89889e-20)
(1524 633.474 0)
(1681.72 745.092 0)
(1734.38 714.29 -5.18325e-17)
(1738.39 649.889 5.13696e-17)
(1734.24 540.626 0)
(1718.65 437.009 5.93632e-17)
(1688.05 331.66 -5.52766e-17)
(1637.34 235.371 3.12939e-17)
(1571.62 151.206 -3.06171e-17)
(1500.28 86.2096 1.64309e-17)
(1444.07 36.947 -1.64039e-17)
(1423.74 -0.773763 0)
(1445.37 -38.1086 -1.63358e-17)
(1503.03 -86.4587 1.64895e-17)
(1578.27 -150.626 -3.32184e-20)
(1647.48 -237.742 -3.19317e-20)
(1703.2 -338.669 5.30101e-20)
(1728.92 -446.587 5.24045e-17)
(1746.46 -553.144 -5.7863e-17)
(1756.84 -654.044 -4.99429e-20)
(1746.84 -720.502 -4.91634e-20)
(1689.32 -744.648 0)
(1513.92 -632.46 -6.15081e-20)
(956.499 -289.682 3.80642e-20)
(1005.99 353.993 1.41821e-22)
(1528.51 595.252 0)
(1696.21 680.571 9.89612e-23)
(1732.11 707.084 4.58731e-20)
(1742.19 657.976 -8.9153e-23)
(1741.76 580.076 -5.31353e-17)
(1738.93 484.413 4.92285e-17)
(1721.62 378.384 0)
(1687.09 279.177 -5.81485e-20)
(1635.42 187.044 -1.02136e-22)
(1576.39 111.035 -1.05218e-22)
(1528.21 49.0873 6.29681e-20)
(1510.37 -2.03085 0)
(1527.92 -51.2973 0)
(1576.86 -111.377 -1.0493e-22)
(1639.27 -186.307 -1.01853e-22)
(1694.82 -279.927 -2.64246e-17)
(1733.14 -381.251 7.82412e-17)
(1748.76 -489.057 -5.39712e-17)
(1754.36 -586.005 0)
(1761.18 -665.423 -4.67352e-17)
(1745.53 -713.26 4.64653e-17)
(1708.85 -681.701 9.81534e-23)
(1540.11 -608.576 5.60663e-20)
(1019.72 -372.902 1.40103e-22)
(1054.77 387.604 1.93783e-19)
(1557.83 561.787 8.40099e-18)
(1705 633.513 1.06198e-16)
(1731.75 690.113 -4.5693e-17)
(1743.46 651.28 4.50929e-17)
(1753.45 591.52 -4.86335e-17)
(1754.73 506.448 4.64837e-17)
(1749.83 406.731 -2.55325e-17)
(1727.09 308.993 2.45371e-17)
(1688.7 213.631 1.077e-22)
(1641.72 130.73 1.10683e-22)
(1603.25 59.194 -1.12084e-22)
(1588.44 -2.13399 6.76759e-18)
(1602.77 -62.6112 6.63833e-18)
(1642.57 -132.478 -1.36816e-17)
(1691.82 -213.943 1.07858e-22)
(1733.22 -310.877 4.89481e-17)
(1758.51 -408.808 -9.82219e-17)
(1763.48 -513.499 4.97298e-17)
(1762.88 -597.672 0)
(1761.52 -660.811 -8.58677e-23)
(1742.29 -695.782 8.73404e-23)
(1713.29 -635.643 -9.20639e-23)
(1559.38 -550.2 -1.12773e-16)
(1057.14 -372.812 1.36383e-16)
(1108.48 393.774 1.27471e-19)
(1575.19 528.768 0)
(1703.14 603.185 0)
(1730.81 655.864 4.40813e-20)
(1752.29 635.563 8.65671e-20)
(1765.87 587.136 0)
(1777.82 516.374 4.61875e-17)
(1781.66 422.888 -4.4745e-17)
(1768.47 328.418 4.35171e-20)
(1739.41 230.823 -4.46291e-20)
(1701.88 142.695 -1.25558e-17)
(1671.15 64.6006 1.24582e-17)
(1659.28 -4.47321 3.22838e-18)
(1670.94 -73.8303 -3.14287e-18)
(1702.1 -151.521 1.21859e-17)
(1740.64 -238.479 -3.58971e-17)
(1771.19 -337.396 2.40022e-17)
(1785.66 -430.503 -4.72254e-20)
(1783.04 -526.276 4.21359e-20)
(1774.23 -595.089 -4.44343e-17)
(1768.23 -646.057 -1.50938e-18)
(1747.94 -657.311 -3.95269e-18)
(1713.72 -591.8 4.47734e-17)
(1569.96 -518.772 5.23671e-20)
(1085.67 -379.078 6.26797e-20)
(1116.65 379.997 1.21555e-16)
(1564.06 485.006 -1.06169e-16)
(1693.65 544.209 0)
(1733.7 601.373 -4.20375e-17)
(1754.24 613.107 2.7096e-18)
(1776.8 574.197 4.34937e-17)
(1793.95 512.837 4.32578e-17)
(1807.99 435.73 -4.2543e-17)
(1805.33 347.306 -4.56868e-20)
(1786.64 251.153 -2.28786e-17)
(1758.41 159.689 1.09847e-17)
(1734.08 75.2967 1.14109e-17)
(1723.78 -1.25835 -4.84483e-20)
(1732.28 -77.7456 0)
(1756.13 -161.025 0)
(1785.48 -250.405 0)
(1806.34 -346.866 4.54563e-20)
(1811.75 -433.959 1.00288e-20)
(1799.3 -515.18 -5.28969e-20)
(1785.37 -577.07 0)
(1770.18 -623.187 4.16147e-20)
(1741.44 -617.357 1.07593e-20)
(1710.61 -551.677 -5.50998e-20)
(1577.78 -471.829 -1.03614e-16)
(1137.04 -381.474 1.18965e-16)
(1143.15 364.747 5.71055e-17)
(1551.48 433.778 -9.97614e-17)
(1684.33 494.297 8.86934e-17)
(1737.9 534.811 -4.66341e-17)
(1759.58 564.014 -4.00077e-17)
(1789.71 549.394 4.21953e-17)
(1810.04 504.788 2.0138e-17)
(1829.01 429.834 -2.03175e-17)
(1833.13 349.155 1.04157e-17)
(1822.97 257.135 -2.09978e-17)
(1803.65 165.689 1.5877e-17)
(1786.72 79.1509 -6.66981e-18)
(1779.68 -2.02675 1.33706e-18)
(1786.33 -84.4484 -3.9515e-20)
(1802.78 -171.52 2.09469e-17)
(1822.04 -261.664 -2.1294e-17)
(1833.14 -353.788 3.85171e-20)
(1830.92 -433.043 4.03961e-17)
(1814.04 -508.943 3.7889e-19)
(1798.65 -553.577 -4.01124e-17)
(1773.91 -574.403 0)
(1748.53 -542.154 4.71666e-17)
(1679.65 -501.126 -4.13197e-17)
(1546.06 -434.518 -1.0318e-16)
(1140.55 -366.095 -3.07541e-18)
(1185.4 349.253 -5.51428e-17)
(1542.72 388.26 5.07923e-17)
(1658.52 407.554 2.26456e-20)
(1732.31 452.115 -6.19684e-20)
(1750.54 518.848 1.94266e-20)
(1798.1 521.465 3.82379e-17)
(1831.88 486.262 -2.08487e-17)
(1853.59 421.681 -1.94676e-17)
(1863.33 345.709 3.9818e-20)
(1858.86 257.866 -4.05958e-20)
(1846.22 167.751 1.849e-20)
(1833.98 79.5171 -1.85121e-20)
(1828.78 -4.2078 0)
(1833.28 -88.2007 4.4134e-21)
(1845.15 -176.058 -9.81144e-18)
(1857.58 -264.781 9.93639e-18)
(1862.66 -351.88 -1.93679e-17)
(1854.6 -426.421 -1.02944e-19)
(1834.57 -492.374 1.912e-17)
(1808.36 -525.538 -5.74137e-20)
(1762.17 -522.797 -4.39013e-17)
(1745.43 -453.098 3.89717e-17)
(1657.69 -408.931 0)
(1531.14 -396.756 -5.08354e-17)
(1157.87 -348.231 5.50775e-17)
(1193.12 311.698 0)
(1524.97 341.917 -4.84703e-17)
(1623.49 330.805 4.64948e-17)
(1686.51 352.428 2.0188e-20)
(1750.51 439.686 1.95136e-20)
(1804.53 465.796 -3.69289e-17)
(1839.49 453.556 3.99602e-17)
(1870.2 410.606 1.85846e-17)
(1885.05 341.321 -1.33305e-19)
(1887.63 260.014 -1.88259e-17)
(1882.12 172.606 -1.9413e-20)
(1874.78 85.4763 2.16738e-20)
(1871.37 -0.323475 0)
(1874.19 -87.5585 3.88629e-20)
(1880.96 -175.086 -1.93237e-20)
(1886.34 -261.254 9.36018e-18)
(1884.45 -342.393 -9.32344e-18)
(1871.35 -411.699 -1.87377e-20)
(1842.72 -457.114 -2.09745e-20)
(1813.58 -470.394 1.87286e-20)
(1763.77 -446.249 -4.46312e-17)
(1692.03 -353.8 -7.22859e-18)
(1630.97 -332.128 4.21398e-17)
(1519.64 -351.033 0)
(1187.15 -312.965 5.37121e-17)
(1205.23 277.826 -1.00722e-16)
(1505.44 297.193 4.96861e-17)
(1600.34 289.955 4.38154e-17)
(1646.26 246.821 -4.4682e-17)
(1732.44 328.721 0)
(1789.94 412.14 -2.33137e-21)
(1843.73 418.673 0)
(1878.76 389.114 -2.24537e-21)
(1897.94 329.594 -2.25395e-21)
(1905.5 253.019 0)
(1906.79 169.478 0)
(1905.37 83.8571 -2.28181e-21)
(1904.52 -2.22673 0)
(1905.43 -88.7069 0)
(1906.13 -174.381 -8.90755e-18)
(1904.6 -257.002 8.89311e-18)
(1897.61 -333.474 -2.24832e-21)
(1880.29 -392.942 -1.87687e-17)
(1847.43 -427.362 1.7495e-17)
(1796.52 -419.627 0)
(1742.95 -326.024 4.56988e-17)
(1655.61 -247.055 -8.37033e-17)
(1606.56 -289.65 9.00221e-17)
(1502.62 -296.393 2.52485e-18)
(1183.84 -270.384 -5.00329e-17)
(1198.7 226.314 1.20416e-20)
(1491.8 255.085 -1.17605e-20)
(1586.3 264.817 0)
(1636.93 185.695 0)
(1683.79 219.923 0)
(1796.24 323.248 9.65193e-21)
(1845.5 364.838 0)
(1886.89 357.471 -8.49323e-21)
(1915.21 313.833 0)
(1927.15 243.659 -7.97991e-21)
(1930.54 162.517 0)
(1930.27 79.1552 -2.10164e-18)
(1929.56 -3.12178 2.0977e-18)
(1929.63 -85.5036 0)
(1929.6 -168.463 8.44859e-18)
(1926.2 -248.817 -1.68946e-17)
(1914.7 -318.209 8.36679e-18)
(1887.9 -362.465 0)
(1847.25 -368.649 1.9542e-17)
(1799.38 -325.147 -1.74392e-17)
(1687.75 -225.508 4.40009e-17)
(1641.23 -187.653 -4.02459e-17)
(1585.78 -267.677 0)
(1479.45 -256.906 0)
(1182.26 -225.757 0)
(1153.1 193.366 -1.15723e-20)
(1441.65 214.667 1.13589e-20)
(1565.56 232.972 0)
(1624.53 160.201 0)
(1660.86 124.548 0)
(1753.95 201.794 -9.04117e-21)
(1834.13 307.879 0)
(1890.18 318.851 8.32781e-21)
(1923.45 289.124 0)
(1940.92 235.005 -8.09071e-18)
(1948.25 161.738 8.16903e-18)
(1950.44 82.6279 -7.64579e-21)
(1950.73 0.0425766 8.14931e-21)
(1950.05 -83.4752 7.63384e-21)
(1947.22 -163.106 0)
(1939.99 -236.287 0)
(1923.12 -291.853 8.2711e-21)
(1891.32 -322.342 -1.83176e-17)
(1840.24 -313.936 1.66608e-17)
(1757.4 -204.443 0)
(1658.55 -123.293 9.60998e-21)
(1625.22 -162.94 0)
(1561.61 -233.464 0)
(1440.81 -211.853 0)
(1155.36 -189.295 0)
(1122.28 179.096 -4.49115e-17)
(1386.5 163.099 4.58263e-17)
(1524.99 172.477 0)
(1602.38 126.521 -2.01637e-20)
(1642.99 75.2332 0)
(1693.22 93.1411 -1.69123e-17)
(1828.43 202.39 3.7194e-17)
(1885.52 266.716 -1.84515e-17)
(1923.63 264.39 -7.71605e-18)
(1947.44 221.82 8.1667e-18)
(1960.46 155.197 3.8972e-21)
(1967.49 78.5804 9.9866e-19)
(1969.51 -2.05128 -9.63159e-19)
(1967.05 -82.5521 7.72815e-18)
(1959.72 -159.242 -7.7184e-18)
(1946.41 -225.86 0)
(1923.26 -268.67 -1.56212e-20)
(1883.6 -276.485 0)
(1823 -201.574 0)
(1688.73 -88.3319 -2.06682e-17)
(1637.21 -75.8689 1.92472e-17)
(1595.7 -127.836 0)
(1514.29 -170.894 4.49207e-17)
(1373.42 -158.132 1.39139e-18)
(1096.41 -161.513 -9.01147e-17)
(1066.81 144.161 4.05131e-17)
(1340.51 108.688 2.15137e-20)
(1489.92 107.059 4.10454e-17)
(1578.16 77.1171 -2.21878e-17)
(1629.36 36.6525 -1.99303e-17)
(1676.67 0.210336 0)
(1771.57 83.5717 7.16009e-21)
(1874.49 215.162 1.52928e-17)
(1920.99 232.459 -1.68593e-17)
(1950.11 200.869 0)
(1966.04 144.014 0)
(1971.53 72.558 -2.17967e-20)
(1973.24 -1.59705 2.76989e-20)
(1971.44 -76.7895 1.47527e-20)
(1965 -148.634 3.76874e-18)
(1949.6 -205.371 -3.64275e-18)
(1920.28 -233.947 7.52446e-21)
(1873.37 -210.369 1.8951e-17)
(1767.26 -77.9815 -3.69718e-17)
(1673.34 -0.0630443 1.69378e-17)
(1626.76 -37.6941 -1.91666e-20)
(1571.24 -78.6459 0)
(1479.83 -107.829 2.05477e-20)
(1319.51 -105.771 4.38055e-17)
(1046.47 -136.33 -7.86486e-17)
(979.383 115.757 -3.56671e-17)
(1284.42 72.9672 -3.98766e-17)
(1458.81 60.2786 4.21118e-17)
(1558.09 34.41 1.94579e-17)
(1624.21 -1.81162 -1.96597e-17)
(1672.54 -42.9303 0)
(1725.94 -16.0893 3.66839e-21)
(1847.68 108.306 -1.20176e-20)
(1910.25 192.378 7.21289e-18)
(1941.08 179.812 -1.49372e-17)
(1958.93 133.574 7.43371e-18)
(1968.07 69.5863 1.70713e-18)
(1970.12 -0.638748 -1.57764e-18)
(1967.42 -70.7575 1.65306e-18)
(1957.89 -135.993 -1.76934e-18)
(1940.48 -183.07 0)
(1908.82 -194.766 1.1213e-20)
(1847.38 -116.019 -4.28827e-21)
(1727.14 19.9618 -1.94828e-17)
(1674.96 47.3361 1.78243e-17)
(1627.45 3.19184 0)
(1561.27 -33.5058 0)
(1461.54 -59.4227 -5.04824e-21)
(1288.45 -68.2062 -4.08011e-17)
(990.983 -114.383 -1.45036e-19)
(945.343 104.588 -1.57729e-17)
(1269.42 56.2745 1.90012e-17)
(1447.6 35.3915 4.81534e-21)
(1555.02 3.94648 0)
(1626.61 -34.046 1.82765e-17)
(1678.71 -75.012 -1.85223e-17)
(1726.72 -83.279 4.26111e-21)
(1816.9 14.7597 3.85323e-21)
(1896.13 143.141 1.50599e-20)
(1929.6 159.946 -1.7301e-18)
(1947.28 122.034 9.53255e-19)
(1957.14 64.1097 1.69638e-18)
(1960.56 -1.36846 -8.57488e-19)
(1956.02 -67.0747 3.52155e-18)
(1946.25 -126.183 -3.44797e-18)
(1928.01 -164.012 0)
(1890.93 -140.903 1.15221e-20)
(1810.5 -11.8857 -1.95186e-17)
(1724.52 82.4301 1.56726e-17)
(1679.4 74.2044 4.43433e-21)
(1626.58 30.352 0)
(1553.98 -5.89578 0)
(1443.64 -36.1054 4.82888e-21)
(1261.28 -56.2967 -3.78645e-17)
(935.149 -104.132 3.13655e-17)
(927.005 98.0173 1.43513e-20)
(1260.18 47.4876 0)
(1441.51 27.46 -9.28473e-21)
(1553.03 -10.9673 -1.84034e-17)
(1624.61 -49.3545 1.87755e-17)
(1678.24 -95.1496 -1.73105e-17)
(1725.3 -121.871 1.7966e-17)
(1781.01 -61.7913 -7.11079e-18)
(1871.09 79.8713 9.1624e-18)
(1911.79 138.608 -3.38927e-18)
(1933.03 112.573 3.5746e-18)
(1943.7 59.503 -1.65934e-18)
(1947.33 -1.91364 1.91058e-18)
(1943.35 -63.5682 -2.23925e-19)
(1932.57 -116.457 3.57834e-18)
(1911.3 -138.654 -7.25065e-18)
(1872.19 -76.932 -5.67608e-18)
(1788.78 62.236 7.10032e-18)
(1725.61 119.599 1.68139e-20)
(1680.41 93.1438 -8.73076e-21)
(1624.49 45.9722 0)
(1552.26 7.43394 0)
(1438.62 -30.779 0)
(1255.63 -50.5617 -1.81458e-17)
(921.859 -99.5847 1.42402e-17)
(904.862 94.9682 -1.64864e-21)
(1240.91 44.4099 0)
(1430.07 26.8716 1.1391e-20)
(1546.79 -14.3275 -9.03866e-21)
(1619.59 -51.4037 -8.56831e-21)
(1670.71 -99.3148 0)
(1716.71 -137.56 -8.32059e-21)
(1756.81 -111.922 7.07896e-18)
(1834 6.05896 -9.28324e-18)
(1884.12 101 0)
(1906.89 98.7936 1.65039e-21)
(1918.62 55.1771 0)
(1922.55 -0.533118 0)
(1918.55 -56.8106 1.68275e-18)
(1906.48 -101.636 -1.64242e-18)
(1882.61 -106.81 -6.66109e-21)
(1836.21 -22.7259 -1.93832e-21)
(1759.82 111.625 7.87435e-21)
(1717.24 140.669 -8.78225e-18)
(1673.34 98.1077 8.47674e-18)
(1620.45 49.2483 -1.80936e-17)
(1548.34 12.0489 3.67549e-17)
(1431.73 -26.7021 -1.81717e-17)
(1243.68 -42.5544 1.75683e-17)