/*--------------------------------*- C++ -*----------------------------------*\
| =========                 |                                                 |
| \\      /  F ield         | OpenFOAM: The Open Source CFD Toolbox           |
|  \\    /   O peration     | Version:  2112                                  |
|   \\  /    A nd           | Website:  www.openfoam.com                      |
|    \\/     M anipulation  |                                                 |
\*---------------------------------------------------------------------------*/
FoamFile
{
    version     2.0;
    format      ascii;
    arch        "LSB;label=32;scalar=64";
    class       volScalarField;
    location    "0.00534";
    object      nut;
}
// * * * * * * * * * * * * * * * * * * * * * * * * * * * * * * * * * * * * * //

dimensions      [0 2 -1 0 0 0 0];

internalField   nonuniform List<scalar> 
13875
(
0.0511677
0.0366254
0.0343673
0.0343309
0.0343015
0.0343343
0.0342967
0.034274
0.0342934
0.0342986
0.0342941
0.0342947
0.0343215
0.0343466
0.0343286
0.034287
0.0342728
0.034294
0.0343026
0.0343284
0.0343023
0.0343315
0.0343846
0.0365713
0.0514258
0.053262
0.0341198
0.0322238
0.0321086
0.0320653
0.0320862
0.0320435
0.0320201
0.0320327
0.0320336
0.032028
0.0320466
0.0320533
0.0320776
0.0320577
0.0320402
0.03201
0.0320339
0.0320461
0.0320778
0.032062
0.0320993
0.0322304
0.0340515
0.0536406
0.056457
0.0335615
0.0318043
0.0315944
0.0315711
0.0315803
0.0314846
0.0314386
0.0314472
0.0314423
0.0314279
0.0314588
0.0315296
0.0315614
0.0315308
0.0314562
0.0314138
0.0314411
0.0314771
0.0315702
0.0315629
0.0315771
0.031796
0.0334915
0.0566022
0.0590705
0.0332326
0.0314909
0.0312782
0.0312632
0.0312656
0.0311557
0.0310978
0.0311084
0.0311091
0.0310878
0.031108
0.031213
0.0312464
0.0312133
0.031107
0.0310778
0.0311004
0.0311453
0.0312562
0.0312538
0.0312595
0.031486
0.0331688
0.0591519
0.0611258
0.0330038
0.0312475
0.0310039
0.0309858
0.0309841
0.0308646
0.0308079
0.0308223
0.0308236
0.0308004
0.0308177
0.0309242
0.0309622
0.0309245
0.0308165
0.0307917
0.0308138
0.030858
0.0309725
0.0309758
0.0309875
0.0312314
0.0329215
0.0612689
0.0628185
0.0328479
0.0310902
0.0307714
0.0307532
0.0307358
0.0306021
0.0305462
0.0305618
0.0305636
0.0305387
0.0305529
0.0306619
0.0307034
0.0306625
0.0305517
0.0305316
0.0305535
0.0305989
0.0307229
0.0307432
0.0307589
0.0310595
0.0328264
0.0629802
0.0648269
0.0330728
0.0311046
0.0306321
0.03057
0.0305281
0.0303725
0.0303137
0.0303281
0.0303287
0.0303033
0.0303143
0.0304264
0.030468
0.0304239
0.0303119
0.0302998
0.0303222
0.0303755
0.0305152
0.0305621
0.0306319
0.0311147
0.0330745
0.0648711
0.0670931
0.0339353
0.0314248
0.0306466
0.0304861
0.030376
0.0301897
0.0301164
0.0301246
0.0301222
0.0300975
0.030101
0.0302182
0.030263
0.0302149
0.0300999
0.0300982
0.0301247
0.0301908
0.0303604
0.0304676
0.0306264
0.0313925
0.0338982
0.0673572
0.0736435
0.0362947
0.0320416
0.0308452
0.0304789
0.0302854
0.0300471
0.0299593
0.0299628
0.0299551
0.029931
0.029928
0.0300504
0.0300983
0.030048
0.0299315
0.0299358
0.0299687
0.0300495
0.0302641
0.0304581
0.0308028
0.0319385
0.0360061
0.0741914
0.0828877
0.0384628
0.0327285
0.0311807
0.0305891
0.0302506
0.0299776
0.0298841
0.0298756
0.0298603
0.0298383
0.0298338
0.0299538
0.0300048
0.0299559
0.0298519
0.0298527
0.0298931
0.0299808
0.0302333
0.0305573
0.0310969
0.0326219
0.0381015
0.0835159
0.0907038
0.0441338
0.0346517
0.032014
0.03086
0.0303778
0.0300609
0.0299339
0.0299005
0.0298741
0.0298515
0.0298471
0.0299587
0.0300112
0.0299745
0.0298948
0.0298907
0.0299381
0.0300615
0.0303481
0.0308158
0.031898
0.034378
0.043283
0.0893426
0.095026
0.0545325
0.0403687
0.0334505
0.03192
0.030893
0.03038
0.0302005
0.0301196
0.030078
0.0300528
0.0300514
0.0301447
0.0301995
0.0301816
0.0301292
0.0301307
0.0302073
0.0303717
0.0308805
0.0318123
0.0332065
0.0398233
0.0533094
0.0942423
0.0865747
0.0687699
0.051622
0.0418003
0.0344803
0.0320772
0.0313967
0.0309421
0.0307687
0.0306763
0.0306345
0.0306266
0.0306966
0.030753
0.0307622
0.0307547
0.0308133
0.0309843
0.0314271
0.0321683
0.0348578
0.0415979
0.050734
0.0686003
0.0866046
0.0795314
0.0659242
0.0582293
0.066106
0.0418663
0.0374388
0.0339303
0.032839
0.0323978
0.03228
0.0322502
0.0322447
0.0323074
0.0323638
0.0323814
0.0323804
0.0324725
0.0328882
0.0342495
0.0382373
0.0432836
0.0656751
0.0577694
0.066022
0.081589
0.0753041
0.0644326
0.0567909
0.0611422
0.0564429
0.0543428
0.0451412
0.0400854
0.0382388
0.0371107
0.0366442
0.0364993
0.0365079
0.0365829
0.036686
0.0369822
0.0379826
0.0399868
0.0453164
0.0543668
0.0565052
0.0613663
0.05651
0.0640875
0.0746783
0.0672303
0.0619718
0.0547908
0.0584586
0.0571148
0.0581783
0.0556434
0.0538772
0.0543371
0.0510254
0.0491594
0.0485356
0.0482406
0.0483649
0.0486715
0.0498543
0.0537965
0.0545769
0.0556508
0.0585486
0.056851
0.0587157
0.0543268
0.0613605
0.0665454
0.0627522
0.0588075
0.05375
0.0574678
0.0593914
0.0642283
0.075156
0.088864
0.080242
0.0721735
0.0718491
0.0724158
0.0729154
0.0727905
0.0721281
0.0714049
0.0783195
0.0880453
0.0755883
0.0643724
0.0596094
0.0577875
0.0527901
0.0577934
0.0626949
0.057562
0.0559303
0.0564671
0.0615965
0.0638968
0.0672761
0.0808287
0.0944008
0.0793631
0.0689436
0.0670652
0.0676978
0.0683272
0.0680865
0.0674202
0.0685027
0.0772777
0.0907593
0.0794603
0.0681807
0.0657158
0.0631023
0.0561098
0.055062
0.0572456
0.0519266
0.0566671
0.0611038
0.0690489
0.0703548
0.0662028
0.0728042
0.0843115
0.0801883
0.0714686
0.066906
0.0657335
0.0658294
0.0660505
0.0667164
0.0699016
0.0771621
0.0818459
0.0724898
0.0671896
0.0730319
0.0713821
0.0619306
0.0570208
0.052589
0.0503088
0.0589422
0.0659162
0.0715198
0.0695434
0.0642244
0.0667998
0.0766316
0.0790355
0.0731774
0.0671444
0.063979
0.0633841
0.0644439
0.0669473
0.0712782
0.0756969
0.0743845
0.0667692
0.0655835
0.071583
0.0724277
0.0671796
0.0598642
0.0496921
0.0647606
0.0797523
0.0722398
0.0667751
0.0653531
0.061276
0.0628712
0.071776
0.0769944
0.0731161
0.0664224
0.0619562
0.0609457
0.0627903
0.0664901
0.0711449
0.0735385
0.0696726
0.0629894
0.0627899
0.0672105
0.0676082
0.0748341
0.0793956
0.0593725
0.108974
0.112507
0.0763708
0.0625933
0.0618522
0.0585972
0.0601108
0.068407
0.0746418
0.0717617
0.0648642
0.0596936
0.0583678
0.0606932
0.0649845
0.0697137
0.07128
0.0666045
0.0603185
0.0599193
0.0633006
0.0634239
0.0809359
0.111543
0.112635
0.137352
0.0974014
0.0720491
0.0598427
0.0588265
0.0562882
0.0578779
0.0657939
0.0722458
0.0697145
0.062793
0.0573242
0.0557612
0.0582583
0.0628191
0.0676418
0.0690889
0.0642079
0.0580771
0.0574272
0.0597169
0.0603429
0.0753316
0.105285
0.138262
0.146008
0.0885736
0.067291
0.0577754
0.0561921
0.0543648
0.0560425
0.0634929
0.0698877
0.0671831
0.0602189
0.0547906
0.0532858
0.0558759
0.0604834
0.0653252
0.0669268
0.0619307
0.0560785
0.0554356
0.057001
0.0582162
0.0696771
0.0935512
0.146091
0.149966
0.0840354
0.0644128
0.0563174
0.0541141
0.0527295
0.0545925
0.0614301
0.0673648
0.0645638
0.0577806
0.0524734
0.0510137
0.0535908
0.0581981
0.0629848
0.0646797
0.0599025
0.0544755
0.0536679
0.0549226
0.0568145
0.0662265
0.0900217
0.150577
0.155018
0.0839072
0.0622236
0.0550734
0.0524768
0.0514032
0.0534229
0.059616
0.0648018
0.0619384
0.0555219
0.0503976
0.0489389
0.0514544
0.0559019
0.0604549
0.0622851
0.0581466
0.0532054
0.052105
0.0531918
0.0555673
0.0633685
0.0874503
0.155966
0.159932
0.08279
0.0603983
0.0538533
0.0511618
0.0503594
0.0525583
0.0580101
0.0621451
0.0592039
0.0532703
0.0484866
0.0470842
0.0495668
0.0538618
0.0581692
0.0601008
0.0566033
0.0521307
0.0508318
0.051923
0.0545152
0.0617463
0.0872169
0.159749
0.163946
0.0834029
0.059482
0.0528155
0.0501978
0.0495639
0.0517372
0.0564838
0.0597099
0.0567629
0.0513209
0.046817
0.0454224
0.04782
0.051872
0.0558648
0.057875
0.0551877
0.05127
0.0498518
0.0508725
0.0534575
0.0605955
0.0864653
0.16512
0.169274
0.085108
0.0590694
0.0519889
0.0494747
0.04902
0.0510475
0.0550596
0.0574576
0.0545667
0.049584
0.0453308
0.0439359
0.0462094
0.049984
0.0536692
0.0557386
0.0538423
0.0505514
0.0491563
0.0500111
0.0525592
0.0597444
0.0858239
0.170887
0.174277
0.085907
0.058809
0.0512529
0.0488736
0.0486929
0.0505047
0.0536759
0.0551755
0.0523283
0.0478462
0.0439526
0.0426133
0.0448477
0.0484092
0.051789
0.0538367
0.0525829
0.0499012
0.0486648
0.0493031
0.0518795
0.0597635
0.0870985
0.175064
0.175968
0.0869155
0.0589821
0.0508275
0.0483564
0.0482561
0.0499094
0.0523873
0.0532288
0.0504919
0.046396
0.0427494
0.0414293
0.0435483
0.0468652
0.0499886
0.0520362
0.0513866
0.0493301
0.048218
0.0487069
0.0514299
0.0599015
0.0879069
0.178902
0.177917
0.0881509
0.0594284
0.0506779
0.0479519
0.0478114
0.0492886
0.0511615
0.051488
0.0488661
0.0450991
0.0416808
0.0403836
0.0423856
0.0454783
0.0483795
0.0503733
0.0502395
0.0487347
0.0477699
0.0482645
0.0512392
0.0602858
0.0878191
0.180478
0.180075
0.0882237
0.059903
0.0508082
0.0476767
0.0473971
0.0486269
0.0499812
0.049811
0.0473216
0.0438478
0.0406787
0.0394446
0.0413703
0.0442939
0.0470437
0.0489729
0.0491761
0.0480981
0.0473051
0.0479391
0.0513617
0.0610113
0.0885778
0.18194
0.18086
0.0888482
0.0605423
0.0514052
0.0476252
0.046931
0.0479216
0.0488761
0.0483621
0.0460007
0.0427796
0.039805
0.0386114
0.040417
0.0431645
0.0457463
0.0476283
0.0481541
0.0474645
0.0468379
0.0478821
0.0518674
0.0617989
0.0884971
0.183451
0.181904
0.0903361
0.0607207
0.0521779
0.0478196
0.0465171
0.047195
0.0478272
0.0471118
0.0448423
0.0417916
0.0389997
0.0378524
0.0395479
0.0421274
0.0446177
0.0464793
0.0471715
0.0467766
0.0464226
0.0480615
0.0527087
0.0621356
0.0887113
0.183857
0.18308
0.090863
0.0605331
0.0531191
0.0482626
0.0462438
0.046536
0.0467931
0.0458962
0.0436957
0.0408195
0.0382378
0.0371649
0.0387881
0.0412239
0.0436115
0.0454473
0.0462876
0.0461624
0.046156
0.048485
0.0538138
0.0619684
0.0898187
0.184627
0.183012
0.0921563
0.0603896
0.0545455
0.0489853
0.046116
0.0459415
0.0458437
0.0448451
0.0427182
0.0399589
0.0375425
0.0365217
0.0380406
0.040316
0.0426471
0.0444706
0.0454135
0.0456185
0.0460308
0.0491246
0.055406
0.0615829
0.0902452
0.185067
0.183032
0.0935967
0.060291
0.0555878
0.050091
0.0462192
0.0455012
0.0450054
0.0438611
0.0417542
0.0391459
0.0368951
0.0359221
0.0373567
0.0394694
0.0416913
0.0435447
0.0446343
0.0452124
0.0461803
0.0503251
0.0565278
0.0611406
0.0912665
0.184744
0.183395
0.094336
0.0597244
0.0555383
0.0512955
0.0465507
0.0451884
0.044241
0.0429257
0.0408481
0.0383332
0.0362597
0.0353544
0.0367229
0.0386881
0.0408719
0.0427339
0.0439528
0.0449197
0.0465288
0.051694
0.0565937
0.0605869
0.0927274
0.184887
0.183044
0.0955855
0.0591002
0.055308
0.0531299
0.0473123
0.045113
0.0436524
0.0421016
0.0399911
0.0376048
0.0356808
0.0348176
0.0361022
0.0379081
0.0399981
0.041931
0.0434198
0.044838
0.0472692
0.0537102
0.0562647
0.0597385
0.0935305
0.185242
0.182897
0.0971152
0.0587569
0.0548158
0.054265
0.0484302
0.0451334
0.0432578
0.041414
0.0392643
0.0369198
0.0351263
0.0343038
0.0355008
0.0371732
0.0392321
0.0412324
0.0430385
0.0448848
0.0485008
0.055095
0.0556249
0.0590031
0.0946766
0.184997
0.183055
0.0978536
0.0580889
0.0539775
0.0541671
0.0501441
0.0453435
0.0430178
0.0408389
0.0385468
0.036259
0.0345975
0.033821
0.0349657
0.0365166
0.0385567
0.0406984
0.0428348
0.0452283
0.0504804
0.0549828
0.0548443
0.0588356
0.0963916
0.18511
0.182772
0.0988184
0.0578269
0.0531034
0.0535281
0.0516574
0.0460852
0.0429232
0.0404935
0.0379761
0.0356746
0.0340977
0.0333506
0.034432
0.0358915
0.0379498
0.0403096
0.042699
0.0460138
0.0520812
0.0543136
0.0539004
0.0583442
0.0974498
0.185149
0.182756
0.100361
0.0582703
0.0524017
0.0525887
0.0519465
0.0474078
0.0430712
0.0402187
0.0375716
0.0351991
0.0336514
0.0329152
0.0339541
0.035376
0.0374984
0.0400183
0.0428109
0.0475713
0.0525817
0.0532642
0.0531118
0.0583322
0.098757
0.184941
0.182957
0.101228
0.0581294
0.0516758
0.0515559
0.0513939
0.0494453
0.0437236
0.0400618
0.0373112
0.0348507
0.0332862
0.0325362
0.0335734
0.0349989
0.0372476
0.0398882
0.0436104
0.0496483
0.0519562
0.0521486
0.0525102
0.0588883
0.100483
0.184898
0.182651
0.102559
0.0586354
0.0511761
0.0505764
0.0506225
0.0503738
0.0455934
0.0402089
0.0371062
0.0346479
0.0330718
0.0322452
0.0333328
0.0347487
0.0370078
0.0399837
0.0452858
0.0504959
0.0510702
0.0511292
0.0519354
0.0590938
0.101558
0.184992
0.182301
0.104289
0.0593781
0.050909
0.0498004
0.0497468
0.0497206
0.047669
0.0412864
0.0370223
0.0344434
0.03291
0.0320317
0.0331555
0.0345313
0.0369087
0.0409666
0.0475912
0.0498797
0.0501328
0.0503119
0.0515546
0.0594569
0.10288
0.184573
0.181298
0.104987
0.059567
0.0506339
0.0491667
0.0489017
0.0489699
0.0483066
0.0433668
0.0373275
0.0342902
0.0327682
0.0318817
0.0330081
0.0343991
0.0373342
0.0433044
0.0484741
0.0491608
0.0493091
0.0496798
0.0513834
0.0602861
0.10451
0.183167
0.17876
0.105278
0.0598676
0.0504472
0.0486539
0.0481865
0.0481061
0.0477163
0.0455963
0.0387104
0.034366
0.0326417
0.0317315
0.0328654
0.034466
0.0387365
0.045527
0.0478878
0.0483275
0.0485926
0.0491521
0.0511566
0.0605395
0.104893
0.180558
0.171729
0.10374
0.0601595
0.050265
0.0482503
0.0475706
0.0472572
0.047026
0.0461902
0.0413272
0.0351459
0.0326529
0.0316719
0.0328475
0.0352303
0.0412991
0.046025
0.0471691
0.0475285
0.0479762
0.0487143
0.0508924
0.0607094
0.103413
0.173579
0.109368
0.286707
0.406824
0.470855
0.500952
0.510858
0.517229
0.532038
0.556775
0.584094
0.604347
0.599021
0.583037
0.57238
0.569776
0.569254
0.5645
0.558963
0.55587
0.553367
0.550151
0.546115
0.54042
0.530737
0.511587
0.480156
0.433848
0.365453
0.264373
0.120981
0.109745
0.287502
0.40023
0.45453
0.47772
0.482738
0.488343
0.504844
0.5344
0.570085
0.598149
0.605425
0.5864
0.57244
0.567971
0.565059
0.559998
0.553727
0.5501
0.547225
0.54353
0.538825
0.532677
0.522635
0.503109
0.470704
0.423285
0.35448
0.255109
0.11916
0.120765
0.297956
0.396381
0.43592
0.447909
0.448989
0.454286
0.472527
0.50484
0.54502
0.580174
0.597908
0.584978
0.568372
0.561715
0.558054
0.55145
0.54553
0.541646
0.538618
0.534465
0.529403
0.522711
0.511629
0.491505
0.45837
0.410318
0.341842
0.245434
0.117511
0.130142
0.304652
0.386055
0.411631
0.416011
0.413298
0.418428
0.438255
0.471875
0.515386
0.556004
0.584374
0.582567
0.563655
0.554475
0.550793
0.543307
0.536466
0.531995
0.528712
0.52407
0.518721
0.511346
0.499165
0.478322
0.444598
0.396399
0.328966
0.236157
0.115849
0.136469
0.307689
0.37132
0.387214
0.388009
0.385257
0.389447
0.405356
0.436008
0.480371
0.524777
0.561191
0.57668
0.556066
0.545218
0.541458
0.53443
0.526091
0.520796
0.517194
0.512235
0.506678
0.498593
0.485322
0.463733
0.429618
0.381698
0.315882
0.226877
0.114311
0.142335
0.310927
0.358346
0.369667
0.371546
0.370729
0.372054
0.380285
0.403625
0.444138
0.490073
0.532259
0.55846
0.5453
0.533708
0.531177
0.525024
0.514909
0.508802
0.504642
0.499464
0.493687
0.484932
0.47063
0.44833
0.413972
0.366323
0.302112
0.217384
0.112471
0.148154
0.312691
0.352086
0.366057
0.373375
0.37476
0.370082
0.366676
0.37809
0.409818
0.454054
0.499204
0.533365
0.532138
0.519999
0.518912
0.515076
0.504209
0.496239
0.491183
0.485902
0.479772
0.470382
0.455204
0.432036
0.397354
0.349857
0.286935
0.206732
0.109875
0.153902
0.313097
0.359308
0.38532
0.403662
0.404593
0.389497
0.369063
0.363261
0.380949
0.419076
0.464904
0.504679
0.515686
0.504866
0.504889
0.503902
0.493526
0.483247
0.476888
0.471291
0.464468
0.454448
0.438534
0.414085
0.378532
0.331487
0.27102
0.19607
0.107205
0.1598
0.316884
0.390485
0.442257
0.4793
0.474443
0.442145
0.39454
0.363762
0.361024
0.38751
0.431052
0.474298
0.496163
0.487406
0.490441
0.49167
0.482126
0.469107
0.461412
0.454615
0.4467
0.435389
0.418052
0.393075
0.358742
0.313987
0.257319
0.187506
0.105273
0.165913
0.331153
0.458818
0.557774
0.614827
0.597005
0.546635
0.45208
0.384881
0.353902
0.362358
0.399274
0.44376
0.472562
0.469013
0.474756
0.4794
0.470319
0.455849
0.445299
0.436956
0.428296
0.416339
0.39886
0.374522
0.341477
0.298799
0.245237
0.180095
0.103539
0.172814
0.364481
0.579035
0.703423
0.726462
0.695551
0.646486
0.545187
0.428556
0.36223
0.34629
0.371572
0.414472
0.447584
0.449931
0.456629
0.466852
0.459045
0.442826
0.428988
0.419506
0.410409
0.398167
0.380769
0.356995
0.325143
0.284481
0.233951
0.173198
0.101924
0.181153
0.428505
0.722721
0.796246
0.776532
0.733013
0.696334
0.619011
0.484496
0.383252
0.34029
0.349858
0.387734
0.422675
0.430374
0.437703
0.453777
0.448844
0.430001
0.413584
0.402747
0.393172
0.380719
0.363416
0.340177
0.309555
0.270955
0.223433
0.166906
0.100399
0.192561
0.532151
0.833286
0.846373
0.786676
0.729634
0.706429
0.656686
0.532687
0.407854
0.342107
0.334132
0.364008
0.398788
0.411014
0.418893
0.441524
0.439931
0.418411
0.399159
0.386795
0.376616
0.363918
0.346751
0.324084
0.294745
0.258207
0.213644
0.161019
0.098981
0.207886
0.666596
0.918389
0.875989
0.786363
0.717059
0.694227
0.674637
0.557566
0.427999
0.345928
0.323281
0.344344
0.377321
0.393123
0.401227
0.425194
0.433343
0.409319
0.385631
0.371746
0.360747
0.347792
0.330838
0.308792
0.280742
0.246232
0.204532
0.155553
0.0976604
0.22727
0.79747
0.985023
0.900323
0.78749
0.707315
0.674797
0.679663
0.566819
0.437145
0.346089
0.316109
0.329524
0.359067
0.376368
0.385076
0.408658
0.430563
0.404531
0.374382
0.357633
0.345539
0.332382
0.315681
0.294294
0.267529
0.234989
0.196022
0.150514
0.0964165
0.249072
0.91095
1.04596
0.924553
0.789511
0.701002
0.652428
0.664015
0.566952
0.433783
0.343043
0.31018
0.319124
0.344737
0.361733
0.371287
0.393745
0.419078
0.407339
0.367088
0.344548
0.331298
0.317696
0.301248
0.280556
0.255045
0.224394
0.188014
0.145824
0.0951745
0.27293
1.01448
1.10773
0.948348
0.794707
0.693839
0.634842
0.634133
0.555298
0.421183
0.337151
0.306626
0.312746
0.334629
0.34985
0.360282
0.381958
0.40499
0.417436
0.367615
0.333908
0.318049
0.303711
0.287511
0.267507
0.243224
0.214366
0.180444
0.141327
0.0938941
0.298843
1.11388
1.17013
0.971685
0.800545
0.68632
0.624751
0.606691
0.538301
0.413424
0.334833
0.306396
0.310238
0.328272
0.340742
0.352208
0.372266
0.392472
0.410128
0.3817
0.328402
0.305758
0.290396
0.274434
0.255087
0.232006
0.204884
0.173293
0.137007
0.0926004
0.325994
1.21132
1.23041
0.999364
0.810559
0.689563
0.624216
0.590827
0.519794
0.416412
0.338792
0.311407
0.313077
0.326207
0.334306
0.346041
0.364349
0.382281
0.397009
0.400677
0.334052
0.296197
0.27838
0.261952
0.243364
0.221491
0.196014
0.166625
0.133075
0.0913596
0.35441
1.3099
1.28848
1.03286
0.828415
0.704036
0.632154
0.584187
0.506749
0.414357
0.34945
0.322697
0.320576
0.327621
0.331241
0.341969
0.358781
0.374393
0.38387
0.393927
0.358271
0.29365
0.267697
0.250242
0.232417
0.211787
0.187894
0.160553
0.129601
0.0902164
0.392739
1.40196
1.34143
1.07327
0.858132
0.726225
0.649273
0.589167
0.510424
0.419418
0.366142
0.341219
0.331929
0.33198
0.332233
0.340971
0.354806
0.366646
0.373953
0.379472
0.375438
0.304623
0.260786
0.240356
0.222003
0.202828
0.180455
0.155009
0.126406
0.0891446
0.427991
1.49257
1.3966
1.12511
0.900924
0.761271
0.67839
0.611361
0.530195
0.434254
0.382001
0.355875
0.344148
0.337303
0.338842
0.343863
0.35185
0.359123
0.364354
0.365686
0.365755
0.332442
0.261765
0.232299
0.213297
0.194252
0.173678
0.149942
0.123373
0.0881329
0.468155
1.53507
1.43534
1.19053
0.963781
0.8118
0.719984
0.646817
0.557692
0.454083
0.39324
0.366164
0.354278
0.345284
0.345108
0.349518
0.351064
0.352918
0.354658
0.353913
0.350875
0.340248
0.275011
0.22804
0.20609
0.187315
0.167502
0.145446
0.120666
0.0872327
0.4928
1.56207
1.4721
1.27794
1.05621
0.883917
0.772513
0.692525
0.600911
0.486525
0.408098
0.379231
0.365026
0.355044
0.350628
0.351412
0.35013
0.349352
0.346328
0.343241
0.337998
0.329977
0.300972
0.231247
0.200893
0.181801
0.162534
0.14137
0.118363
0.0864403
0.502066
1.40436
1.50286
1.40486
1.18503
0.98028
0.841191
0.749919
0.660373
0.540631
0.437993
0.393558
0.374293
0.364375
0.355517
0.351964
0.347723
0.345812
0.340799
0.334563
0.32765
0.3187
0.304063
0.245688
0.199153
0.177396
0.158574
0.138143
0.116408
0.0857318
0.121258
0.26577
0.367124
0.435461
0.481436
0.512203
0.53065
0.540263
0.545883
0.549824
0.552796
0.555144
0.55827
0.563862
0.568274
0.569001
0.572522
0.584973
0.602692
0.60072
0.577763
0.548953
0.524288
0.509437
0.503613
0.494349
0.4649
0.402092
0.283982
0.109989
0.119443
0.256522
0.356198
0.424933
0.471946
0.503613
0.52248
0.532527
0.538691
0.543308
0.546687
0.549429
0.553118
0.559373
0.564481
0.567463
0.572929
0.588702
0.605667
0.593472
0.562157
0.525666
0.496671
0.480063
0.474919
0.46967
0.44798
0.395216
0.284833
0.110434
0.117788
0.246803
0.343555
0.411964
0.459576
0.491966
0.511503
0.52258
0.529322
0.534376
0.538081
0.540986
0.544968
0.550687
0.557506
0.561349
0.569273
0.587115
0.595685
0.573767
0.536439
0.496096
0.464197
0.446097
0.441238
0.440934
0.429058
0.390975
0.295216
0.121371
0.116104
0.237455
0.330624
0.398006
0.445788
0.478786
0.499087
0.511267
0.518736
0.524108
0.528201
0.531354
0.536013
0.542932
0.550211
0.55427
0.565112
0.5861
0.580048
0.548344
0.506308
0.462866
0.430021
0.411361
0.407143
0.410078
0.405683
0.380655
0.301981
0.130756
0.114554
0.228107
0.317467
0.383227
0.430792
0.46423
0.485309
0.49855
0.506739
0.512388
0.516793
0.520227
0.525683
0.534151
0.540949
0.545321
0.557808
0.576104
0.555642
0.516416
0.47108
0.427509
0.398904
0.38461
0.381009
0.383835
0.382512
0.366527
0.305021
0.137016
0.112683
0.218534
0.303652
0.367833
0.415134
0.448867
0.470715
0.484918
0.493744
0.499726
0.504426
0.508431
0.514773
0.524905
0.530723
0.534031
0.547309
0.55543
0.525635
0.481453
0.435372
0.396568
0.375977
0.369707
0.369307
0.369921
0.3672
0.355152
0.308412
0.142713
0.110075
0.207852
0.28848
0.351421
0.398514
0.432628
0.455367
0.470396
0.47981
0.486172
0.491145
0.496114
0.504445
0.515177
0.518505
0.520464
0.533741
0.529104
0.492097
0.445712
0.402385
0.373242
0.36525
0.371189
0.377017
0.375522
0.366821
0.351333
0.310466
0.148545
0.107404
0.197166
0.272534
0.333027
0.379829
0.414858
0.438719
0.45448
0.464513
0.471441
0.476969
0.483272
0.493979
0.504112
0.504544
0.505316
0.516942
0.499678
0.457725
0.411483
0.37558
0.361616
0.371649
0.395725
0.412776
0.411704
0.390649
0.362031
0.31164
0.154077
0.105454
0.188553
0.258809
0.315576
0.360096
0.394079
0.418768
0.43573
0.446919
0.454814
0.461634
0.469388
0.482769
0.491947
0.490336
0.488037
0.495514
0.469048
0.424162
0.381427
0.358674
0.366617
0.403134
0.457076
0.492379
0.496834
0.453898
0.397606
0.317199
0.160116
0.10369
0.181026
0.246581
0.300277
0.342803
0.375568
0.399658
0.416872
0.428711
0.437313
0.44571
0.456516
0.471137
0.47961
0.47385
0.470081
0.470688
0.438492
0.39313
0.358572
0.355529
0.393751
0.469625
0.570125
0.619517
0.637727
0.579231
0.471471
0.334237
0.166479
0.102042
0.174009
0.235145
0.285834
0.326398
0.358029
0.381603
0.398805
0.410956
0.420024
0.429576
0.443701
0.460062
0.46679
0.455683
0.451082
0.445353
0.409608
0.366789
0.345494
0.368551
0.444088
0.569318
0.665621
0.711627
0.743547
0.722081
0.597663
0.371705
0.173558
0.100489
0.167615
0.224486
0.272186
0.310739
0.341198
0.364273
0.381412
0.393799
0.403399
0.414474
0.431146
0.449962
0.45362
0.436834
0.431404
0.420207
0.383374
0.346802
0.343033
0.393837
0.504215
0.639453
0.710671
0.743946
0.788909
0.811874
0.739422
0.441381
0.182546
0.0990477
0.161647
0.214583
0.259332
0.295865
0.325094
0.347621
0.364644
0.377303
0.38754
0.40027
0.41995
0.440974
0.440375
0.418187
0.41235
0.396436
0.360399
0.333025
0.347892
0.421936
0.552857
0.67466
0.714723
0.738866
0.799577
0.86144
0.849575
0.550592
0.194617
0.0977061
0.156111
0.205377
0.247267
0.281803
0.309783
0.331714
0.34855
0.361461
0.372606
0.386957
0.411224
0.434
0.423475
0.40056
0.394134
0.375197
0.341657
0.324152
0.353396
0.444124
0.576292
0.68908
0.699689
0.72719
0.800775
0.893144
0.934965
0.687258
0.210781
0.0964461
0.151003
0.196782
0.235941
0.268532
0.295261
0.316557
0.333176
0.346267
0.358591
0.376018
0.406574
0.429637
0.406927
0.384412
0.377016
0.357185
0.327725
0.3182
0.354482
0.453019
0.585435
0.691701
0.68212
0.718745
0.803644
0.920495
1.00351
0.81655
0.230791
0.0951918
0.146251
0.188681
0.225264
0.255988
0.28149
0.30213
0.318523
0.332087
0.345632
0.369083
0.409139
0.416775
0.391846
0.370599
0.362353
0.343211
0.31795
0.31258
0.351324
0.448775
0.586236
0.67361
0.661697
0.71364
0.806646
0.946851
1.0675
0.929319
0.252899
0.0938945
0.141681
0.181013
0.215151
0.244105
0.268401
0.288396
0.304532
0.318863
0.335223
0.369841
0.416499
0.402598
0.379939
0.359504
0.350424
0.333582
0.312028
0.308822
0.344453
0.435501
0.573594
0.642766
0.64513
0.707784
0.812556
0.972505
1.13256
1.03299
0.276532
0.0925876
0.13725
0.173777
0.205587
0.232834
0.255946
0.275314
0.291236
0.306649
0.330065
0.383594
0.407403
0.390022
0.370042
0.351105
0.340991
0.327674
0.309633
0.308318
0.340762
0.427729
0.553791
0.617349
0.635577
0.70047
0.81947
0.998274
1.19806
1.13303
0.302307
0.0913389
0.133199
0.16707
0.196657
0.222253
0.244175
0.262788
0.279248
0.297332
0.335952
0.39935
0.39416
0.379908
0.361989
0.344599
0.334494
0.325993
0.31238
0.312715
0.344106
0.428465
0.533716
0.602899
0.635911
0.703632
0.830376
1.02878
1.2618
1.23166
0.32888
0.0901978
0.129672
0.160982
0.188512
0.212487
0.233172
0.25107
0.26857
0.295177
0.359703
0.391241
0.38107
0.371831
0.35641
0.340276
0.330779
0.327936
0.319959
0.32359
0.35369
0.423778
0.520214
0.596451
0.644389
0.718322
0.849039
1.0643
1.32341
1.3321
0.35641
0.0891253
0.126531
0.155434
0.181055
0.203479
0.222731
0.241143
0.261872
0.30645
0.373901
0.376707
0.371282
0.364032
0.352444
0.339364
0.331841
0.332445
0.332142
0.341814
0.369851
0.427686
0.523789
0.60187
0.661782
0.740869
0.879078
1.10587
1.37881
1.42668
0.395308
0.0880834
0.123517
0.150304
0.174167
0.194802
0.214042
0.233173
0.263352
0.333674
0.363423
0.363198
0.361848
0.356766
0.349707
0.34277
0.338779
0.337941
0.345202
0.357125
0.385956
0.443207
0.543015
0.623718
0.690998
0.776674
0.92255
1.15846
1.43748
1.52036
0.429458
0.0871432
0.120741
0.145665
0.16778
0.187807
0.206802
0.229187
0.277319
0.338931
0.348601
0.351679
0.352391
0.350948
0.349827
0.348737
0.344644
0.345831
0.35564
0.368134
0.397984
0.464432
0.570601
0.658678
0.732959
0.828293
0.986542
1.22366
1.47762
1.56689
0.468412
0.0863214
0.118328
0.141434
0.162783
0.182243
0.201587
0.232904
0.301907
0.328216
0.33618
0.341243
0.344322
0.347371
0.348821
0.350645
0.350072
0.355156
0.365979
0.381621
0.413947
0.498368
0.614263
0.705022
0.786649
0.901885
1.08081
1.31283
1.51402
1.59216
0.492193
0.0856027
0.116256
0.138288
0.158821
0.177772
0.200085
0.24845
0.303128
0.316828
0.326046
0.332682
0.338913
0.34445
0.346553
0.351348
0.355299
0.364289
0.374875
0.39697
0.446236
0.554475
0.674228
0.763894
0.857573
1.0005
1.21177
1.44103
1.54174
1.43158
0.501427
0.166817
0.16656
0.165296
0.164229
0.163052
0.161728
0.160245
0.158662
0.156978
0.15521
0.153395
0.151476
0.14947
0.147406
0.145305
0.143202
0.141098
0.139002
0.136936
0.134936
0.132994
0.131147
0.129416
0.127796
0.126303
0.124909
0.123617
0.122435
0.121363
0.120394
0.11953
0.118763
0.118062
0.117388
0.116775
0.116511
0.116419
0.11646
0.116861
0.11769
0.118965
0.119895
0.120838
0.122077
0.123659
0.125511
0.127456
0.129403
0.131168
0.133142
0.135827
0.139974
0.146232
0.151265
0.154059
0.154958
0.154934
0.153873
0.151548
0.148184
0.144754
0.141705
0.138766
0.136286
0.134309
0.132693
0.131439
0.13054
0.129959
0.129575
0.129352
0.129303
0.129482
0.129911
0.130476
0.131087
0.131543
0.131727
0.131669
0.131422
0.131044
0.130667
0.130378
0.130099
0.129719
0.129184
0.128494
0.127657
0.126681
0.125614
0.124512
0.123441
0.12249
0.121719
0.121126
0.120726
0.120567
0.120628
0.120798
0.121082
0.121473
0.121947
0.122539
0.123178
0.12379
0.124175
0.124006
0.123009
0.121536
0.119247
0.115973
0.11177
0.10641
0.0992149
0.09124
0.0858765
0.0834003
0.0825821
0.0826429
0.0829025
0.0831646
0.0834605
0.0838274
0.0842573
0.0849244
0.251438
0.253131
0.252752
0.253114
0.253412
0.253787
0.253989
0.25409
0.254285
0.253925
0.253461
0.252778
0.251548
0.250909
0.249318
0.249419
0.247636
0.247345
0.246304
0.244827
0.244796
0.244474
0.246084
0.248406
0.25215
0.256878
0.262495
0.268975
0.276381
0.284879
0.294795
0.306128
0.319155
0.333466
0.348256
0.361558
0.373786
0.385547
0.396813
0.40594
0.41372
0.420037
0.424421
0.427156
0.429243
0.43043
0.430546
0.429288
0.425842
0.422132
0.42148
0.425925
0.424585
0.417792
0.407026
0.395496
0.382753
0.368641
0.353961
0.34075
0.330047
0.322599
0.317908
0.314187
0.310991
0.308158
0.305218
0.302601
0.300706
0.299571
0.298689
0.297698
0.297264
0.296943
0.295814
0.293793
0.291361
0.288764
0.285938
0.282983
0.279978
0.276821
0.273537
0.270144
0.266634
0.263052
0.259471
0.255931
0.252454
0.24907
0.24593
0.243217
0.24097
0.23915
0.237692
0.236323
0.234842
0.233311
0.231907
0.230438
0.228686
0.226442
0.223493
0.219547
0.214435
0.208727
0.202657
0.195951
0.189364
0.183424
0.178142
0.173305
0.168968
0.164654
0.158511
0.144914
0.126719
0.11531
0.11144
0.110816
0.11089
0.111285
0.112114
0.113178
0.114492
0.280692
0.284541
0.286334
0.289215
0.292133
0.295257
0.298192
0.301286
0.304418
0.306937
0.309414
0.311326
0.313036
0.31457
0.315816
0.318129
0.32002
0.323286
0.326774
0.330585
0.33601
0.341972
0.35019
0.360002
0.372513
0.387578
0.405523
0.42581
0.447813
0.470115
0.4928
0.517058
0.543141
0.568815
0.5941
0.616493
0.636472
0.654276
0.671078
0.686415
0.699372
0.710498
0.719205
0.725361
0.728969
0.730666
0.730394
0.727732
0.72179
0.71371
0.703791
0.684729
0.659159
0.632498
0.606404
0.579618
0.549754
0.516327
0.482383
0.451302
0.424313
0.403909
0.389493
0.379507
0.373499
0.369762
0.367696
0.366788
0.366717
0.366498
0.365785
0.365027
0.364522
0.364099
0.362718
0.360411
0.357974
0.355234
0.352158
0.349074
0.34586
0.341928
0.337052
0.331647
0.326053
0.320579
0.315489
0.310943
0.306974
0.303477
0.300283
0.297252
0.294191
0.290915
0.287318
0.283395
0.279039
0.274147
0.268687
0.262623
0.255964
0.248769
0.241303
0.233957
0.226865
0.220225
0.214344
0.209052
0.204211
0.199668
0.195814
0.192571
0.189652
0.187743
0.18602
0.183707
0.178519
0.166217
0.146021
0.135115
0.131254
0.130925
0.132048
0.133759
0.135832
0.292951
0.298571
0.301973
0.306651
0.311102
0.315564
0.319826
0.324525
0.32908
0.333695
0.338882
0.344389
0.35082
0.357981
0.365965
0.376149
0.387372
0.401548
0.417539
0.43469