/*--------------------------------*- C++ -*----------------------------------*\
| =========                 |                                                 |
| \\      /  F ield         | OpenFOAM: The Open Source CFD Toolbox           |
|  \\    /   O peration     | Version:  2112                                  |
|   \\  /    A nd           | Website:  www.openfoam.com                      |
|    \\/     M anipulation  |                                                 |
\*---------------------------------------------------------------------------*/
FoamFile
{
    version     2.0;
    format      ascii;
    arch        "LSB;label=32;scalar=64";
    class       volScalarField;
    location    "0.00286";
    object      p;
}
// * * * * * * * * * * * * * * * * * * * * * * * * * * * * * * * * * * * * * //

dimensions      [1 -1 -2 0 0 0 0];

internalField   nonuniform List<scalar> 
13875
(
951559
984208
973648
975547
973379
974417
974542
974481
974986
974844
975093
975082
974916
974868
975001
974767
974794
973880
974329
974228
973043
975579
972398
982410
944853
733768
659461
672225
677054
670222
668547
668643
670290
677581
679091
678997
678275
671479
670708
677908
679111
677876
672378
668803
668329
669846
677052
672306
657343
730517
736857
635524
664439
653535
648252
645947
645092
645423
647496
649439
649866
649404
648652
648168
649116
649708
648659
645521
644933
645641
647594
652023
662074
632207
733310
743501
636172
665325
653688
648535
646143
645234
645488
645256
646587
647640
648459
648858
648326
648104
646685
645514
645557
645073
645831
647865
652144
662827
632811
739127
757334
639189
667889
654387
649407
646725
645652
645741
645345
646660
647718
648556
649427
648744
648207
646756
645583
645749
645489
646382
648660
652729
665128
635456
750582
759079
647875
673688
656363
651281
647969
646536
646326
645707
646921
647987
648878
650232
649544
648548
647016
645889
646275
646369
647567
650400
654606
670744
643210
752029
765217
668460
686005
661352
655156
650522
648344
647599
646713
647660
648727
649740
651195
650918
649350
647671
646786
647529
648213
650156
654305
660322
682366
666006
756346
791668
718700
712195
675034
663622
656002
652147
650384
649060
649445
650448
651628
653160
653203
651256
649397
648977
650242
651940
655403
662397
673446
707628
715818
782765
910161
828855
767910
705818
680996
667089
659927
656294
654166
653659
654425
655784
657365
657846
655509
653535
653852
655960
659473
665947
678866
702274
761574
824462
911912
1.52943e+06
1.03204e+06
837858
745127
704362
683531
673022
667319
664331
663030
663332
664838
666385
667264
664868
662940
663872
666788
672498
682415
702343
741794
833148
1.02875e+06
1.52479e+06
2.92768e+06
1.40023e+06
973209
813227
745147
713278
697701
689298
685011
682965
682582
683988
685458
686454
684744
683263
684479
688186
696191
710874
740691
803917
953013
1.36005e+06
2.88242e+06
5.70062e+06
2.35639e+06
1.35009e+06
988717
838841
779467
752103
738394
731651
728576
727466
728160
729563
730298
729660
729672
731690
737444
750097
776265
832895
970693
1.30022e+06
2.30086e+06
5.62887e+06
5.49004e+06
4.80974e+06
2.63123e+06
1.58815e+06
1.10393e+06
960662
899403
870026
856117
850064
847695
847083
848375
848804
849768
852490
858741
872512
901605
962548
1.10446e+06
1.52901e+06
2.38365e+06
4.91813e+06
5.40271e+06
4.96337e+06
4.69471e+06
5.0029e+06
4.60804e+06
1.92957e+06
1.54203e+06
1.39859e+06
1.3156e+06
1.28091e+06
1.26694e+06
1.26252e+06
1.26102e+06
1.2638e+06
1.26343e+06
1.26734e+06
1.27536e+06
1.29461e+06
1.33645e+06
1.4298e+06
1.61369e+06
2.10034e+06
4.60674e+06
5.05899e+06
4.80821e+06
4.84327e+06
4.18365e+06
4.337e+06
4.88462e+06
4.88231e+06
4.67992e+06
3.53994e+06
3.40576e+06
3.08704e+06
2.93731e+06
2.86916e+06
2.84573e+06
2.83073e+06
2.84005e+06
2.83944e+06
2.85414e+06
2.88819e+06
2.97146e+06
3.14806e+06
3.47325e+06
3.67031e+06
4.71562e+06
4.93924e+06
4.97982e+06
4.53339e+06
4.46388e+06
3.81274e+06
3.86731e+06
4.584e+06
5.21006e+06
6.58871e+06
7.93242e+06
8.97116e+06
8.89089e+06
9.21743e+06
9.10857e+06
9.25194e+06
9.15014e+06
9.25504e+06
9.16593e+06
9.25943e+06
9.15141e+06
9.23123e+06
8.96051e+06
9.01584e+06
8.07582e+06
6.74985e+06
5.35623e+06
4.78709e+06
4.10749e+06
4.12137e+06
3.0334e+06
3.48526e+06
4.64013e+06
5.4856e+06
6.7802e+06
7.65672e+06
7.80545e+06
7.74439e+06
7.55974e+06
7.40593e+06
7.29353e+06
7.26025e+06
7.19241e+06
7.24037e+06
7.26496e+06
7.36235e+06
7.51071e+06
7.7021e+06
7.73629e+06
7.71642e+06
6.9111e+06
5.65943e+06
4.82935e+06
3.71388e+06
3.33091e+06
2.44812e+06
3.24651e+06
4.66319e+06
5.36777e+06
6.08403e+06
6.22951e+06
6.00583e+06
5.98549e+06
5.97812e+06
5.98608e+06
5.99331e+06
5.99114e+06
5.99057e+06
5.99151e+06
5.99494e+06
5.9845e+06
5.97062e+06
5.97167e+06
5.99805e+06
6.1797e+06
6.12313e+06
5.49952e+06
4.81881e+06
3.14319e+06
2.32156e+06
1.30278e+06
2.27194e+06
3.93086e+06
4.34993e+06
4.56775e+06
4.75694e+06
4.90097e+06
5.08437e+06
5.24768e+06
5.34987e+06
5.40809e+06
5.43615e+06
5.44694e+06
5.43676e+06
5.41108e+06
5.35467e+06
5.25317e+06
5.09714e+06
4.92847e+06
4.80112e+06
4.62613e+06
4.40861e+06
3.94768e+06
2.3875e+06
1.34578e+06
667274
1.5403e+06
2.74774e+06
3.19764e+06
3.42189e+06
3.72376e+06
4.11248e+06
4.44432e+06
4.6617e+06
4.79051e+06
4.87309e+06
4.91921e+06
4.93794e+06
4.92438e+06
4.88238e+06
4.80649e+06
4.68412e+06
4.47526e+06
4.15138e+06
3.76339e+06
3.4614e+06
3.23415e+06
2.73351e+06
1.59749e+06
657199
720445
1.19815e+06
1.80103e+06
2.25638e+06
2.59894e+06
3.01879e+06
3.50111e+06
3.865e+06
4.09237e+06
4.23867e+06
4.33825e+06
4.39521e+06
4.4174e+06
4.40142e+06
4.34914e+06
4.25653e+06
4.11676e+06
3.89365e+06
3.52141e+06
3.02159e+06
2.59474e+06
2.25086e+06
1.80045e+06
1.12688e+06
683735
954987
1.05025e+06
1.24506e+06
1.7037e+06
2.0608e+06
2.54784e+06
2.99505e+06
3.32911e+06
3.55414e+06
3.71051e+06
3.81618e+06
3.87632e+06
3.89973e+06
3.88133e+06
3.82461e+06
3.72479e+06
3.57308e+06
3.34971e+06
3.00847e+06
2.54471e+06
2.03994e+06
1.68126e+06
1.23208e+06
999327
902541
1.36504e+06
1.05837e+06
1.07223e+06
1.38096e+06
1.71354e+06
2.20261e+06
2.58057e+06
2.86671e+06
3.0825e+06
3.23712e+06
3.3397e+06
3.39812e+06
3.4211e+06
3.40048e+06
3.3427e+06
3.24258e+06
3.08899e+06
2.87178e+06
2.58433e+06
2.20687e+06
1.68678e+06
1.35889e+06
1.06176e+06
1.02193e+06
1.37538e+06
1.42838e+06
1.08116e+06
1.07609e+06
1.22887e+06
1.50009e+06
1.90237e+06
2.21663e+06
2.47408e+06
2.66776e+06
2.80982e+06
2.91163e+06
2.96695e+06
2.99081e+06
2.96897e+06
2.91237e+06
2.81108e+06
2.66749e+06
2.47122e+06
2.20579e+06
1.89062e+06
1.4901e+06
1.20913e+06
1.06308e+06
1.05197e+06
1.40543e+06
1.42812e+06
1.1197e+06
1.08919e+06
1.15901e+06
1.35713e+06
1.6553e+06
1.91389e+06
2.145e+06
2.31852e+06
2.44732e+06
2.54014e+06
2.59298e+06
2.61239e+06
2.59386e+06
2.54081e+06
2.44649e+06
2.31458e+06
2.13802e+06
1.89983e+06
1.63523e+06
1.34751e+06
1.143e+06
1.0748e+06
1.10015e+06
1.40511e+06
1.43355e+06
1.17809e+06
1.11806e+06
1.12387e+06
1.25e+06
1.45579e+06
1.66773e+06
1.8684e+06
2.01923e+06
2.1346e+06
2.21915e+06
2.26296e+06
2.28316e+06
2.26326e+06
2.21684e+06
2.13076e+06
2.01098e+06
1.85647e+06
1.65328e+06
1.43663e+06
1.24509e+06
1.11068e+06
1.103e+06
1.16671e+06
1.40545e+06
1.44646e+06
1.27375e+06
1.16272e+06
1.1242e+06
1.17502e+06
1.30809e+06
1.47672e+06
1.64205e+06
1.77212e+06
1.8728e+06
1.94473e+06
1.98376e+06
1.99762e+06
1.98257e+06
1.93817e+06
1.86526e+06
1.75995e+06
1.6263e+06
1.46011e+06
1.28484e+06
1.16052e+06
1.10962e+06
1.15176e+06
1.29698e+06
1.4201e+06
1.48834e+06
1.46735e+06
1.20541e+06
1.12252e+06
1.11972e+06
1.1895e+06
1.31398e+06
1.44709e+06
1.5555e+06
1.64367e+06
1.70794e+06
1.74019e+06
1.75495e+06
1.73849e+06
1.70303e+06
1.63795e+06
1.54732e+06
1.43635e+06
1.30415e+06
1.17422e+06
1.10779e+06
1.10963e+06
1.18683e+06
1.45204e+06
1.46223e+06
1.58176e+06
1.5504e+06
1.23108e+06
1.11443e+06
1.08477e+06
1.10769e+06
1.19367e+06
1.29357e+06
1.38176e+06
1.45459e+06
1.50641e+06
1.53634e+06
1.5468e+06
1.53394e+06
1.50133e+06
1.44746e+06
1.3711e+06
1.27939e+06
1.18051e+06
1.09349e+06
1.07333e+06
1.10298e+06
1.21141e+06
1.50502e+06
1.55714e+06
1.77877e+06
1.59937e+06
1.24627e+06
1.09999e+06
1.05035e+06
1.04678e+06
1.09188e+06
1.1612e+06
1.22928e+06
1.28959e+06
1.33599e+06
1.35894e+06
1.3691e+06
1.35532e+06
1.33021e+06
1.28266e+06
1.22034e+06
1.1494e+06
1.07959e+06
1.03403e+06
1.0381e+06
1.0881e+06
1.2362e+06
1.57596e+06
1.71269e+06
1.84364e+06
1.63978e+06
1.27206e+06
1.08628e+06
1.01151e+06
992171
1.0126e+06
1.05802e+06
1.10747e+06
1.15391e+06
1.18896e+06
1.21052e+06
1.21738e+06
1.20796e+06
1.18423e+06
1.14775e+06
1.10023e+06
1.0498e+06
1.00431e+06
984534
1.00282e+06
1.0748e+06
1.25462e+06
1.61451e+06
1.85686e+06
1.84312e+06
1.66126e+06
1.31734e+06
1.08518e+06
978213
945422
943110
969570
1.00197e+06
1.03525e+06
1.06552e+06
1.0802e+06
1.08839e+06
1.07906e+06
1.06166e+06
1.03056e+06
995806
962050
934644
936615
967062
1.06859e+06
1.28377e+06
1.64154e+06
1.85586e+06
1.83507e+06
1.66449e+06
1.37582e+06
1.0873e+06
948793
899050
888537
897910
919023
940308
959959
973229
977947
971631
955492
935112
912574
890403
880948
891294
938684
1.07149e+06
1.33738e+06
1.64935e+06
1.85081e+06
1.81863e+06
1.66406e+06
1.49709e+06
1.0999e+06
928337
857604
835161
832291
842395
855002
870742
877897
883294
877129
867849
851364
838461
827578
830710
851383
917927
1.07888e+06
1.42136e+06
1.64676e+06
1.83239e+06
1.78645e+06
1.66082e+06
1.56818e+06
1.12872e+06
922849
824398
788987
780650
781828
787268
794945
800762
802892
799512
791536
783436
778029
775778
784692
818498
913871
1.10231e+06
1.5768e+06
1.64178e+06
1.79512e+06
1.75882e+06
1.64214e+06
1.56585e+06
1.15951e+06
925097
798039
747047
729708
725634
726169
729913
731354
733871
729913
727616
723006
722237
725769
743143
792231
918280
1.1475e+06
1.58075e+06
1.62819e+06
1.72333e+06
1.71498e+06
1.60326e+06
1.56089e+06
1.22344e+06
936196
783420
713872
687989
678996
676026
674903
675133
675308
673946
673262
673702
676056
684139
710437
778376
925858
1.21134e+06
1.57163e+06
1.59333e+06
1.68245e+06
1.66728e+06
1.55547e+06
1.54735e+06
1.35148e+06
962394
783952
688993
649931
634242
628299
626212
623810
624567
623381
625149
627317
632588
646485
684405
779204
947172
1.34009e+06
1.55167e+06
1.53915e+06
1.64107e+06
1.63443e+06
1.51102e+06
1.51084e+06
1.35176e+06
993999
787853
674646
621428
599849
590350
584593
582233
581728
582014
583591
588830
598123
618637
672248
787594
991954
1.34756e+06
1.50957e+06
1.49211e+06
1.60351e+06
1.59889e+06
1.47117e+06
1.43812e+06
1.34795e+06
1.06097e+06
802544
675223
599169
567027
553283
547922
543399
543538
543576
547468
553039
566520
597833
672647
799731
1.06282e+06
1.34237e+06
1.42062e+06
1.45279e+06
1.57799e+06
1.55667e+06
1.4324e+06
1.36095e+06
1.33492e+06
1.1951e+06
833893
679926
589127
545058
526762
516312
512493
511170
512207
515745
525502
544743
588997
676909
827074
1.20649e+06
1.32754e+06
1.34078e+06
1.41997e+06
1.54397e+06
1.5249e+06
1.40213e+06
1.29976e+06
1.30042e+06
1.19408e+06
881156
686598
589608
528858
500354
488702
482895
482120
482065
488778
499945
528805
589884
692000
885939
1.20626e+06
1.29414e+06
1.28476e+06
1.38992e+06
1.50176e+06
1.47701e+06
1.37509e+06
1.25244e+06
1.23207e+06
1.18535e+06
980416
705559
594313
524847
486724
466106
459622
457338
459244
465618
485423
524226
593028
716975
990567
1.19072e+06
1.22512e+06
1.238e+06
1.36012e+06
1.46838e+06
1.42537e+06
1.34612e+06
1.21855e+06
1.16899e+06
1.16136e+06
1.04361e+06
742978
606909
525744
471628
447884
437100
435264
436887
448103
473016
525097
602862
767156
1.04267e+06
1.15624e+06
1.16154e+06
1.20628e+06
1.33413e+06
1.42671e+06
1.38657e+06
1.31153e+06
1.19114e+06
1.11606e+06
1.10798e+06
1.03899e+06
808069
629770
528181
471629
437917
422792
417653
422440
438247
473142
530522
627769
873050
1.03768e+06
1.08824e+06
1.10799e+06
1.1817e+06
1.2996e+06
1.37546e+06
1.34544e+06
1.27733e+06
1.17173e+06
1.07284e+06
1.04036e+06
1.02507e+06
942540
679499
538525
473509
437301
412876
405988
412425
436773
474276
541916
672261
925186
1.01729e+06
1.02595e+06
1.06603e+06
1.16309e+06
1.26706e+06
1.34144e+06
1.29845e+06
1.2344e+06
1.15045e+06
1.04528e+06
992243
993346
941440
781498
562713
478999
437968
412762
400946
412321
437328
478263
566559
762426
922044
974011
978911
1.03755e+06
1.14403e+06
1.23139e+06
1.2977e+06
1.25699e+06
1.19799e+06
1.12923e+06
1.0269e+06
953760
940713
928980
847326
608847
490015
439823
413198
401442
412998
440583
490190
621069
839333
910763
921547
943496
1.01976e+06
1.12372e+06
1.19439e+06
1.24902e+06
1.17379e+06
1.14514e+06
1.09943e+06
1.013e+06
931706
898812
900837
845188
706283
514225
446894
415458
403557
415147
448531
513800
729057
837811
883987
881346
922072
1.00434e+06
1.0947e+06
1.14071e+06
1.16257e+06
1.04491e+06
1.07397e+06
1.05775e+06
992661
914007
861261
852698
833673
767720
565297
465463
421979
409204
421380
467387
562957
762401
826078
840818
848112
905710
984922
1.05174e+06
1.07029e+06
1.03731e+06
79059.8
81420.1
80889.9
81411.5
81707.4
82084.9
82579.7
83091.9
83685.1
84457.9
85706.4
87525.2
89934.3
92810.3
96046.2
99557.1
102602
103681
96338.8
79286.9
73441.9
71408.9
70849.7
70691.7
70645.2
70642.5
70621.5
70648.2
70594.2
70670.8
78054.8
80012.7
79310.8
79733.8
79874.3
80229.3
80764.9
81342.3
81935.2
82616.5
83770.6
85580.8
88137.8
91318.1
95039.4
99119.4
103364
107136
109818
105122
81682.3
73741.7
71410.8
70838.1
70679
70650.5
70624.7
70647
70612.3
70655.2
77694.9
78805.3
78053.9
78475.1
78472.4
78854.2
79418.9
80034.8
80625.3
81221.6
82246.4
83983.6
86644.9
90221.2
94493.6
99011.4
103776
108437
112626
114673
104913
80248.1
73157.5
71248.9
70780.7
70673.9
70632.5
70644.6
70624
70645.8
77436.4
77576.8
77068
77226.3
76994.4
77468.1
78029.7
78715.9
79353.3
79933.7
80883.5
82626
85307.6
88782.5
93174.3
98411.8
103759
108707
113207
116882
117773
102679
78723.5
72582.4
71085.2
70746
70649.6
70646.4
70629
70641.8
77240.3
76972.9
76680
76534.6
76311.9
76610.8
77080.8
77792.7
78508.5
79140.8
79939.9
81542.5
84223
87669.1
91812.1
96601.7
102267
108245
113184
117108
120688
120420
98455.1
77080.8
72058.4
70962.9
70700.6
70655
70633.3
70639.5
77172.6
76890.8
76660.4
76423.3
76209.5
76383.9
76679.8
77312.5
78053.3
78719.3
79376.3
80604.5
83081.7
86398.5
90362.7
94884.3
100070
106023
112082
117018
121120
124680
122279
92302
75441.2
71651.2
70850.1
70686.3
70640.3
70639.7
77195.7
77092.4
76954.6
76672.4
76463.8
76498.4
76656.9
77110.3
77647.6
78151.7
78616
79482.2
81543.7
84778
88667.7
93034.1
97917.8
103538
110018
116241
121127
125590
128586
122544
86330.7
74011
71318.8
70781.3
70661.5
70643.3
77376.4
77386.7
77417.2
77179.5
76950.5
76876
76892.2
77208
77615.3
77949.3
78143.6
78391.2
80056.9
82923.1
86901.8
91242.1
96058.4
101404
107635
114541
120745
125689
130421
132013
118034
81396
72872.8
71084.4
70722.1
70656.3
77579.8
77688.8
77906.9
77783.2
77512.1
77396.4
77357.8
77524.7
77827.2
77999.4
78077
78083.9
78862.6
81208.7
85218.4
89609.6
94448.4
99679
105547
112374
119491
125580
130767
135409
134818
108241
78024.4
72059.1
70912.3
70696
77773.1
78024.2
78361.7
78440.4
78265.4
78192.5
78174.7
78187.3
78226.2
78221.5
78141.9
78072.5
78292.5
79985.5
83614
88163.6
93041.9
98253.7
103903
110329
117621
124801
130788
136269
140455
136307
96377.5
75421.8
71514.8
70821.7
78008.4
78328.6
78752.4
79117.8
79409.1
79582.2
79658.6
79438.9
79049.3
78612.6
78238.6
78070
78008.1
79218.2
82223.7
86815.9
91740.1
96974.1
102545
108626
115644
123292
130408
136380
142082
144932
134413
86383.2
73544.9
71218.2
78324.7
78618.3
79055
79620.8
80068.4
80406.7
80515.6
80306.9
79606.4
78737.1
78227.9
77976.7
77843.3
78651.9
81060.2
85331.6
90357.3
95605.4
101192
107124
113819
121359
129218
136239
142327
147948
147977
121817
79998.3
72501.8
78692
78921
79297.1
79720.5
80125.3
80462.5
80589.2
80470.6
79764.7
78758.7
77975.4
77632.2
77573
77911.1
79858.3
83630.6
88771.3
93974.5
99596.3
105554
112095
119332
127345
135360
142316
148621
153461
148553
103335
76780.5
79092.7
79280.7
79493.6
79702.5
79975.4
80267.4
80364
80440.1
79809.8
78843.7
78012.7
77441.5
77033.5
76897.9
78665.9
81985.7
87013.2
92194.7
97815.2
103815
110295
117332
125216
133678
141773
148700
155046
158501
143598
89887.1
79579
79632.9
79583
79567.2
79587
79884.4
80233.3
80418.9
79923.8
79043.2
78091.4
77297.8
76810.1
76662.5
77649.3
80622.7
85324.3
90523.9
96063.8
102033
108409
115370
123049
131492
140346
148476
155144
162619
165175
133249
79951.5
79976.9
79604.3
79424.9
79397.5
79813.2
80269.9
80500.3
80154.8
79149.1
78111.8
77289.4
76807.8
76643.1
76971
79527
83837.3
89097.3
94503.6
100405
106628
113556
121019
129226
138231
147453
154562
164113
180385
197708
80322.1
80224.2
79646.2
79459.9
79428.2
79941.5
80420.5
80584.1
80324.6
79210.6
78125.1
77270.2
76851.4
76713.6
76650.3
78642.1
82637.8
87977.4
93174.6
98940.1
105041
111862
119105
127099
135924
145644
153145
165776
195000
283841
80535.5
80419.1
79897.4
79701.8
79678.6
80046.6
80540.4
80738
80423.6
79220.4
78067.4
77303.4
76981.5
76664.3
76503.4
77936.6
81809
87114.9
92107.9
97706.2
103689
110235
117267
125127
133677
142998
152650
172451
216385
414168
80652.2
80599.6
80193
80009.3
79936.2
79952.9
80671.8
81004.2
80480.5
78930.5
78052.7
77483.3
77130.5
76696.4
76451.5
77170.1
80910.9
86224.4
91178.3
96636.5
102445
108679
115529
123366
131737
139279
152612
180794
244035
483629
80653.8
80870.9
80831.3
80235
79966.8
80272.9
80802.4
81132.3
80145.8
78814.9
78081.5
77592.3
77137.6
75543.4
74984.5
75241.3
79042.9
84599.6
90324.5
95686.2
101376
107463
114049
121673
130121
138302
154540
192380
273349
499279
80468
80788
80315.1
79896
79722.4
80354.5
80664.7
80582
79985.1
78830.2
78077.7
76934.9
75624.5
74645.6
74274.1
74330.5
77740.6
83367.1
89205.6
94719.4
100372
106422
112919
120184
128510
138257
158868
210503
310664
496868
80778.4
80709.4
80904.8
80134.7
80039.9
80245
80324.1
80405
79636.1
78466.1
76871.2
75429.3
74655.7
74216.8
74000.2
73998.9
77006.7
82498
88163.1
93624.3
99413.6
105320
111910
118932
126640
138739
165033
238758
376466
476656
78698.8
79942.9
79409.6
79331.9
78937.1
78924.6
78793.2
78977
79013.6
76673.4
75353.2
74511.9
74146.6
74002.9
73903.3
73964.5
76673.5
81821.6
87227.4
92366.4
98201.5
104171
110712
117713
124844
139736
173053
274664
423488
449177
83448.9
79766.6
81094.1
79688
79106.2
78341.3
78081.6
77671.4
77051.3
75781.1
74627.3
74051.3
73843.4
73895.3
73838.1
73913.6
74115.2
78463.1
84408.5
90752.6
96548.3
102773
109371
116408
124509
141307
183223
322360
428887
426345
62689.2
76940.5
78443.6
79520.9
78093.1
77290.1
76994.1
76573.1
75670.5
74710.2
74162.9
73191
72888.4
72884
72126.4
71473.4
70224.3
75626.3
81801.3
88508.5
95006.4
101407
107997
115128
124431
144377
198141
377426
425388
411671
70670.8
70594.2
70648.2
70621.5
70642.4
70645
70690.8
70845.8
71394.7
73385.7
79128.5
96003.9
103548
102528
99507
96004.2
92773.7
89901.7
87494.5
85676.1
84426.6
83653.3
83060.2
82548.9
82055
81678.5
81382.9
80864.3
81392.5
79039
70655.2
70612.3
70647
70624.6
70650.4
70678.1
70834.2
71395.4
73674.2
81437.2
104708
109706
107064
103307
99075.9
95002.8
91286
88108.2
85551
83739.3
82582.2
81900.2
81307.6
80730.9
80195.2
79839.6
79698.1
79275.8
79978.2
78029.3
70645.8
70624
70644.6
70632.4
70673.2
70777.7
71236.2
73098.9
80042.1
104360
114508
112540
108373
103726
98970.2
94461.1
90194.4
86618.2
83953.4
82213.2
81184.1
80587
79997
79381.8
78815.9
78432.8
78432.9
78014
78764.6
77662.3
70641.8
70628.9
70646.3
70649.2
70743.7
71075.2
72533.7
78534.6
102020
117569
116767
113120
108645
103713
98378.5
93146.1
88753.1
85277.2
82592.4
80847
79892
79311.5
78675
77990.4
77424
76948.9
77179.7
77018.9
77529.1
77399.1
70639.5
70633.2
70654.7
70699
70955.4
72022.2
76916.2
97725.5
120167
120554
116999
113097
108184
102223
96562.8
91774
87631
84185.7
81500
79893.3
79090.6
78458.8
77742.9
77028
76561.8
76262
76480.8
76621.6
76912
77185.5
70639.6
70640.1
70685.1
70844.7
71624.7
75306.6
91614.7
121940
124529
121003
116914
112007
105969
100022
94840.6
90321.9
86358.5
83042.7
80551.3
79317.3
78658.3
77988.1
77254.8
76633.9
76339
76160.1
76368.2
76599.1
76825.7
77105.2
70643.1
70660.8
70777.7
71300.2
73909.9
85797.4
121987
128393
125478
121015
116157
109958
103483
97864.7
92983.9
88621.9
84732.8
81498.2
79378.8
78529.2
78101
77614.5
77080.9
76622.6
76460.8
76419.9
76619.9
76890.7
77028.2
77146
70655.8
70719.8
71071.9
72802.6
81069.9
117067
131779
130313
125586
120653
114481
107588
101357
96011.6
91197.7
86863.2
82883.1
80013.8
78366.8
78146.2
77952.4
77616.4
77201.4
76875.9
76852.5
76922.8
77139.2
77365.2
77336.2
77342.3
70694.4
70904.3
72015.3
77795.9
107124
134538
135308
130687
125491
119437
112345
105518
99650.4
94423.2
89586.8
85205.3
81191.6
78866.3
78127.6
78122.7
78029
77851.2
77551.9
77370.6
77407.3
77512.9
77772.8
77891.2
77672.8
77561.1
70816.4
71487.9
75266.5
95464.3
135924
140349
136214
130715
124756
117612
110328
103900
98256.4
93049.8
88170.9
83636.3
80004.7
78336.8
78139.6
78234.6
78265.9
78275.5
78244.6
78243
78257
78325.3
78488.7
78408.8
78062.5
77780.3
71200.7
73449.2
85754
133635
144777
142047
136334
130372
123306
115684
108667
102589
97024.9
91797.7
86873.3
82294.9
79282.5
78056
78131.2
78279.9
78667.2
79036.6
79440.2
79837.4
79758.1
79572.8
79257
78880.6
78441.6
78085
72442.2
79711.3
120588
147768
147926
142316
136214
129240
121427
113897
107198
101271
95689.1
90449
85422.6
81152.2
78721.8
77770.4
77850.6
78186.6
78884.4
79809.2
80501.6
80854.9
80744.1
80384.1
79903
79280.1
78819.1
78478.6
76590.5
102371
148240
153443
148653
142316
135392
127426
119437
112199
105654
99695.8
94069
88873.9
83735.1
79932.1
77809.3
77565.9
77756.6
78161.5
79026.3
80154.9
80941.1
80965.3
80831.4
80478.5
80060.6
79621.4
79215.6
78934
89249.4
142660
158395
155104
148738
141823
133782
125343
117457
110410
103922
97916.4
92280.3
87099.2
82068.8
78630.1
77095.3
77236.1
77722.4
78268.6
79186
80377.8
81018.5
80825.6
80682.6
80364.8
80066
79888
79666.3
79418.3
131842
164902
162645
155214
148544
140460
131634
123181
115490
108515
102122
96144.1
90592
85381.8
80689
77597.4
76950.4
77166.6
77709.5
78464.2
79543.6
80597.1
81026.1
80776.1
80276.6
79998.1
79967.4
79994.9
80090
80016.4
196115
180173
164209
154680
147579
138382
129374
121140
113656
106715
100477
94573.5
89160
83888.6
79627.6
77181.5
77016
77165.6
77739.6
78589.9
79805.4
80813.4
81086.8
80817
80195
79746.5
79799.7
80030.8
80474.4
80472
282450
194797
165830
153288
145812
136075
127237
119215
111956
105125
99010.7
93248.3
88048.7
82708.9
78818.8
77009.3
77095.8
77321.5
77785.8
78712.2
79978
81006.2
81109.6
80882.9
80277.8
79745.1
79793.6
80057.6
80799.7
80846.5
414032
216210
172509
152811
143206
133814
125248
117372
110330
103774
97781.5
92182.8
87195.7
81893.5
78227.7
76938.6
77119.3
77549.3
77983.3
78782.8
80047.3
81124.1
81106.1
80878
80345.4
79960.8
80009.8
80292.7
80993
81030
484312
243964
180855
152778
139461
131888
123467
115630
108775
102530
96699.1
91237.4
86307.3
81061.5
77389
76815.7
77180.9
77668
78228.5
78896.1
79788.1
81181
81333.2
81006.7
80252.7
80377.9
80471.6
80657.1
81083.4
80994.6
500146
273409
192477
154668
138453
130286
121767
114134
107541
101441
95736.8
90346.5
84761
79285.4
75713.7
75626.5
76122.1
77665.4
78341.9
78942.2
79657
80805.2
81569.1
81297.3
80722.2
80565.5
80862.8
81559.8
81293.2
81005.6
497777
310975
210652
158992
138394
128641
120274
112982
106468
100383
94724.2
89195.3
83561.3
78001.9
74910.9
75063.5
75460.8
76496.3
77797.5
78772.6
79604
80584.7
81002.9
81236.1
80991.3
80335.8
80505.6
80928.3
81206.6
80754
477495
377724
239084
165194
138817
126740
118982
111920
105282
99330.8
93578.1
88166.8
82726
77443.8
74672.9
74887.9
75163.2
75626.8
76337
77713.9
79209.4
80211.2
80723.3
80766.9
80867.4
80842
80789.7
81381.9
81187.3
81110.4
449897
424357
275155
173207
139846
124849
117688
110632
104049
98077.4
92294.8
87225.5
81994.5
77172
74713.2
74857.7
75016.9
75127.6
75427.9
76154.9
77316.5
79546.9
79543.4
79377
79475.4
79425.9
79696.2
79863.6
80462
79041.6
427189
429434
323246
183431
141260
124387
116290
109188
102597
96489.2
90771.9
84792.9
78717.5
74626.1
74687.6
74670.7
74894.3
74820.1
74920.5
75292.1
76181.8
77449.5
78357.4
78690.8
78905
79603.3
79938.8
81068.6
80139.6
83869
412992
425558
378670
198380
144268
124253
114895
107731
101218
95003.5
88793.2
82210.6
76503.4
71053.7
72405.4
73151.4
73987.2
73845.9
74075.1
74804
75170.9
76028.6
76714.1
76880.2
77227.3
78214.6
79537.2
78530.4
77136.4
63113.5
70637
70637
70637
70637
70637
70637
70637
70637
70637
70637
70637
70637
70637
70637
70637
70637
70637
70637
70637
70637
70637
70637
70637
70637
70637
70637
70637
70637
70637
70637
70637
70637
70637
70637
70637
70637
70637
70637
70637
70637
70637
70637
70637
70637
70637
70637
70637
70637
70637
70637
70637
70637
70638.3
70660.5
71020.8
75339.6
117632
352092
804848
1.40591e+06
2.3461e+06
2.89163e+06
3.06895e+06
3.10161e+06
3.10028e+06
3.03502e+06
2.8624e+06
2.62401e+06
2.4025e+06
2.21547e+06
2.05552e+06
1.91792e+06
1.79796e+06
1.69524e+06
1.60588e+06
1.52832e+06
1.45829e+06
1.39137e+06
1.32765e+06
1.26604e+06
1.20615e+06
1.14833e+06
1.09295e+06
1.03951e+06
989327
942837
899525
858843
820818
785457
752684
722205
693723
666894
641177
615508
592080
571439
553157
536453
520381
504969
490790
477966
466500
456320
447351
439367
432141
425437
419497
414301
409803
406118
402937
399845
397042
394792
393486
393025
392948
393088
393773
396006
401639
70637
70637
70637
70637
70637
70636.9
70636.9
70636.9
70636.9
70636.9
70636.9
70636.9
70636.9
70636.9
70636.9
70636.9
70636.9
70636.9
70636.9
70636.9
70636.9
70636.9
70636.9
70636.9
70636.9
70636.9
70636.9
70636.9
70636.9
70636.9
70636.9
70636.9
70636.9
70636.9
70636.9
70636.9
70636.9
70636.9
70636.9
70636.9
70636.9
70636.9
70636.9
70636.9
70636.9
70636.9
70636.9
70636.9
70636.9
70636.9
70637
70638.5
70668.4
71240.2
79122.2
166776
431780
649652
789349
918114
1.07596e+06
1.23258e+06
1.39526e+06
1.58585e+06
1.79676e+06
2.12258e+06
2.529e+06
2.64483e+06
2.65308e+06
2.62239e+06
2.53986e+06
2.4169e+06
2.25747e+06
2.07209e+06
1.87943e+06
1.69903e+06
1.54989e+06
1.42678e+06
1.32291e+06
1.23392e+06
1.15732e+06
1.09011e+06
1.02993e+06
975669
926879
882613
842181
805424
771806
740597
711235
683531
657417
632953
609999
588348
567571
549196
533285
518975
505381
492529
480890
470378
460972
452623
445249
438644
432623
427135
422474
418516
415103
412055
409596
408075
407363
407306
407412
407926
409789
413703
419884
424217
425964
70637
70637
70637
70637
70637
70637
70637
70637
70637
70636.9
70636.9
70636.9
70636.9
70636.9
70636.9
70636.9
70636.9
70636.9
70636.9
70636.9
70636.9
70636.9
70636.9
70636.9
70636.9
70636.9
70636.9
70636.9
70636.9
70636.9
70636.9
70636.9
70636.9
70636.9
70636.9
70636.9
70636.9
70636.9
70636.9
70636.9
70636.9
70636.9
70636.9
70636.9
70637
70637
70637
70637
70637
70637
70638.5
70674.5
71472.8
84081.2
233791
542870
674667
729330
764439
811118
860654
913007
967362
1.0089e+06
1.05628e+06
1.11654e+06
1.20346e+06
1.31686e+06
1.46784e+06
1.65838e+06
1.87895e+06
2.15224e+06
2.26635e+06
2.2851e+06
2.26656e+06
2.19448e+06
2.00838e+06
1.79165e+06
1.59875e+06
1.43234e+06
1.29051e+06
1.17479e+06
1.08378e+06
1.01271e+06
954187
902540
856024
813632
775372
740910
709439
680225
653105
628189
605351
584360
564978
546876
531083
517169
504110
491779
480420
470193
461353
454121
448380
443803
439992
436499
433383
431317
430929
433153
438170
443212
448104
451614
453500
454536
456531
459352
458944
451699
428604
70637
70637
70637
70637
70637
70637
70637
70637
70637
70637
70636.9
70636.9
70636.9
70636.9
70636.9
70636.9
70636.9
70636.9
70636.9
70636.9
70636.9
70636.9
70636.9
70636.9
70637
70637
70637
70637
70637
70637
70637
70637
70637
70637
70637
70637
70637
70637
70637
70637
70637
70637
70637
70637
70637
70637
70637
70637
70637
70638.3
70675.7
71611.2
87957.7
286715
604897
711574
736419
746204
757434
778838
793343
808171
816293
822649
830520
838538
851581
871109
892603
916570
932824
958083
997071
1.05683e+06
1.15624e+06
1.28621e+06
1.48839e+06
1.63057e+06
1.64087e+06
1.61366e+06
1.49712e+06
1.35552e+06
1.23302e+06
1.12825e+06
1.03562e+06
955698
888693
832763
786677
747662
713440
682721
654831
629379
606139
584944
565614
547797
532062
517955
504925
493121
482602
473466
466176
461040
458276
457624
457962
459874
463023
465226
465234
463059
460527
458053
455960
453534
449652
440576
408648
359784
309529
260468
220161
70637
70637
70637
70637
70637
70637
70637
70637
70637
70637
70637
70637
70636.9
70636.9
70636.9
70636.9
70636.9
70636.9
70636.9
70636.9
70637
70637
70637
70637
70637
70637
70637
70637
70637
70637
70637
70637
70637
70637
70637
70637
70637
70637
70637
70637
70637
70637
70637
70637
70637
70637
70637
70637
70638
70671.5
71591.2
88816.9
302897
629197
733864
750415
749639
752609
757931
767534
770954
771927
767374
764697
759503
751641
744008
735255
724345
708501
689055
667060
646073
621861
611927
615350
638827
697537
775770
870340
1.01165e+06
1.14614e+06
1.19206e+06
1.15627e+06
1.07574e+06
997817
930085
873500
825393
781423
741006
703980
670571
641105
615449
593075
573484
556021
539811
525503
512873
503239
495379
488920
484046
480264
476955
474032
471284
468590
466680
465215
462558
456604
445676
416477
372760
324609
275253
229365
198735
180431
166592
155918
148775
70637
70637
70637
70637
70637
70637
70637
70637
70637
70637
70637
70637
70637
70637
70637
70637
70637
70637
70637
70637
70637
70637
70637
70637
70637
70637
70637
70637
70637
70637
70637
70637
70637
70637
70637
70637
70637
70637
70637
70637
70637
70637
70637
70637
70637
70637
70637
70637.7
70663.5
71437.3
86741.8
293433
633251
744003
763675
760581
754503
758284
761142
763180
763555
759520
754448
748855
738565
725469
709759
687658
665055
632485
594171
557102
522347
486777
456991
431271
412774
403416
400676
402968
422251
456883
503413
582917
684594
763482
814118
827299
800996
765372
730475
697417
666890
639179
614578
592841
573672
556507
540496
525642
512302
501221
491501
482820
475419
469022
463157
456723
447272
429421
393542
349714
303653
258084
215067
185858
167974
154340
143978
136718
131942
128859
126652
125375
124523
70637
70637
70637
70637
70637
70637
70637
70637
70637
70637
70637
70637
70637
70637
70637
70637
70637
70637
70637
70637
70637
70637
70637
70637
70637
70637
70637
70637
70637
70637
70637
70637
70637
70637
70637
70637
70637
70637
70637
70637
70637
70637