/*--------------------------------*- C++ -*----------------------------------*\
| =========                 |                                                 |
| \\      /  F ield         | OpenFOAM: The Open Source CFD Toolbox           |
|  \\    /   O peration     | Version:  2112                                  |
|   \\  /    A nd           | Website:  www.openfoam.com                      |
|    \\/     M anipulation  |                                                 |
\*---------------------------------------------------------------------------*/
FoamFile
{
    version     2.0;
    format      ascii;
    arch        "LSB;label=32;scalar=64";
    class       volScalarField;
    location    "0.00286";
    object      T;
}
// * * * * * * * * * * * * * * * * * * * * * * * * * * * * * * * * * * * * * //

dimensions      [0 0 0 1 0 0 0];

internalField   nonuniform List<scalar> 
13875
(
1411.94
1535.36
1482.67
1486.78
1481.06
1483.48
1483.46
1483.18
1484.08
1483.95
1484.35
1484.08
1484.18
1484.24
1484.33
1483.64
1484.22
1482.51
1483.24
1483.43
1480.87
1487.54
1480.74
1532.8
1396.71
1307.02
1356.13
1319.18
1322.08
1316.54
1317.14
1317.08
1317.82
1322.47
1323.02
1323.41
1322.7
1319.01
1318.76
1322.75
1322.86
1322.87
1318.67
1317.07
1317.03
1316.18
1321.99
1319.7
1355.87
1302.55
1307.2
1339.89
1314.53
1311.03
1303.82
1304.23
1303.62
1303.56
1305.05
1306.22
1306.84
1306.28
1306.02
1305.97
1306.25
1306.07
1305.91
1303.23
1303.49
1304.1
1303.49
1310.89
1311.62
1336.19
1298.36
1317.33
1344.83
1314.98
1308.58
1304.97
1304.68
1303.8
1303.66
1303.97
1304.64
1305.61
1305.86
1306.14
1305.71
1305.66
1304.27
1304.24
1303.25
1303.63
1304.48
1304.31
1307.63
1314.07
1344.02
1312.63
1329.49
1341.97
1315.98
1311.64
1303.36
1304.02
1303.88
1303.73
1303.69
1304.49
1305.91
1305.65
1306.36
1306.05
1306.02
1304.48
1304.15
1303.36
1303.78
1304.01
1303.14
1311.52
1312.27
1338.6
1316.43
1332.21
1351.19
1319.16
1309.79
1306.86
1306.05
1304.77
1304.32
1304.25
1304.78
1305.76
1306.06
1306.86
1306.39
1305.94
1304.58
1304.53
1303.92
1304.66
1305.9
1306.14
1308.35
1319.11
1349.02
1325.85
1339.03
1360.41
1329.22
1316.77
1306.82
1306.22
1305.36
1304.82
1304.78
1305.03
1306.43
1306.75
1307.32
1307.06
1306.61
1305.13
1305.06
1304.42
1305.27
1306.19
1306.6
1317.28
1326.12
1358.38
1321.27
1360.19
1384.99
1344.8
1321.36
1316.18
1311.92
1308.9
1307.23
1306.56
1306.47
1307.28
1307.86
1308.54
1308.3
1307.54
1306.3
1306.66
1306.67
1308.5
1311.45
1314.99
1320.71
1341.67
1381.16
1350.53
1536.42
1507.87
1387.46
1350.8
1323.06
1316.31
1312.61
1310.39
1309.27
1309.07
1309.8
1310.43
1311.26
1311.22
1310.21
1309.05
1309.37
1309.62
1312.1
1315.68
1321.91
1348.31
1384.46
1508.04
1523.97
1840.09
1578.03
1431.93
1364.83
1344.22
1328.05
1321.33
1317.76
1315.7
1315.1
1315.47
1316.18
1317.06
1317.2
1316.2
1315.14
1315.74
1316.77
1320.39
1327.59
1340.36
1363.56
1427.67
1568.21
1831.76
2508.04
1803.38
1526.56
1441.13
1363.05
1345.92
1336.64
1331.65
1329.18
1328.28
1328.33
1328.93
1329.86
1330.1
1329.36
1328.53
1329.46
1330.98
1335.33
1344.88
1360.79
1428.25
1515.37
1809.88
2446.71
2869.15
2277.36
1838.07
1504.03
1438.83
1400.72
1376.13
1367.47
1362.06
1360.09
1359.61
1359.88
1360.84
1361.06
1360.86
1360.76
1362.73
1367.66
1374.86
1402.59
1429.35
1489.24
1759.42
2307.54
2848.79
2829.6
2680.6
2516.21
2343.44
1605.19
1517.54
1494.51
1474.45
1464.98
1461.86
1461.17
1461.37
1462.94
1462.65
1463.04
1463.46
1467.07
1477.1
1495.7
1526.96
1633.8
2344.08
2418.63
2715.28
2787.62
2728.84
2674.16
2854.24
2830.06
2138.22
2143.72
1950.46
1858.52
1799.1
1784.5
1779.77
1777.11
1781.63
1781.01
1783.47
1789.08
1809.46
1874.99
1987.97
2167.08
2160.45
2846.27
2859.87
2728.72
2710.01
2660.89
2699.02
2827.31
2812.82
2817.89
2980.95
3341.92
3279.47
3446.71
3429.28
3494.65
3467.08
3512.88
3479.11
3499.06
3449.66
3469.47
3327.31
3370.65
3078.79
2859.15
2845.67
2843.14
2705.15
2671.86
2529.12
2607.98
2833.48
2957.65
2995.98
3329.07
3600.45
3702.09
3685.96
3674.08
3643.03
3645.15
3629.21
3646.97
3641.75
3668.34
3689.57
3719.81
3630.68
3379.55
3029.83
2954.2
2858.08
2653.99
2577.14
2462.81
2570.46
2704.12
2884.44
2992.51
3303.97
3575.8
3678.19
3666.25
3654.66
3620
3623.23
3609.54
3625.1
3619.78
3650.81
3675.26
3700.59
3618.45
3406.77
3019.98
2940.96
2755.7
2600.42
2488.12
2262.66
2512.98
2831.18
2959.16
2963.23
3196.41
3386.11
3479.25
3492.28
3506.61
3498.22
3501.68
3497.84
3504.82
3502.88
3510.29
3501.39
3481.26
3387.87
3197.57
2973.4
2965.44
2816.07
2501.92
2275.95
2182.79
2266.26
2584.64
2760.02
2741.33
2879.35
3114.84
3306.7
3378.22
3401.14
3404.24
3409.05
3408.45
3413.42
3406.64
3404.35
3395.9
3343.09
3152.38
2900.16
2757.92
2776.46
2612.56
2281.45
2198.92
2280.14
2226.99
2363.98
2505.86
2539.91
2626.15
2842.78
3091.27
3241.82
3302.18
3310.44
3319.08
3319.28
3321.78
3313.16
3311.59
3269.35
3123.19
2859.49
2643.12
2561.46
2532.32
2323.81
2215.95
2295.14
2911.82
2272.07
2173.38
2307.89
2379.95
2464.41
2665.73
2910.85
3089.96
3182.62
3210.74
3219.12
3221.58
3222.46
3215.24
3194.19
3111.03
2923.31
2666.97
2475.96
2397.08
2313.91
2149.76
2255.38
2940.21
2907.4
2051.69
1971.02
2154.46
2249.78
2351.76
2529.4
2762.56
2956.14
3066.04
3098.62
3113.76
3114.98
3116.42
3101.19
3073.13
2967.04
2762.92
2527.97
2365.77
2261.15
2154.38
1962.17
2039.1
2892.12
2905.26
2061.75
1881.95
2038.5
2149.65
2265.37
2412.96
2627.51
2820.75
2945.75
2991.43
3003.2
3007.61
3005.7
2994.25
2954.01
2833.33
2631.26
2416.99
2281.36
2161.45
2039.83
1852.56
2049.45
2971.57
2825.93
2038.45
1870.48
1982.56
2075.26
2181.4
2322.48
2527.44
2713.87
2834
2878.13
2897.53
2899.48
2899.8
2879.89
2841.65
2726.53
2530.12
2322.05
2190.73
2083.5
1985.23
1855.47
2017.39
2832.89
2756.65
2034.88
1897.37
1948.79
2013.78
2102.1
2233.25
2433.12
2608.51
2729.52
2777.76
2790.35
2796.02
2793
2780.41
2735.44
2615.98
2429.8
2230.1
2107.28
2030.52
1954.99
1876.87
2032.07
2804.62
2733.03
2054.46
1916.49
1933.76
1968.18
2034.81
2165.86
2354.85
2521.16
2630.29
2672.2
2692.07
2694.38
2694.66
2673.97
2636.72
2531.9
2355.96
2164.21
2037.3
1975.86
1945.88
1896.72
2040.83
2745.91
2704.48
2082.3
1940.58
1927.09
1926.36
1978.23
2101.05
2282.05
2434.31
2539.21
2583.66
2593.27
2599.28
2595.07
2584.84
2544.05
2443.18
2281.08
2100.01
1980.21
1936.49
1938.64
1934.75
2084.39
2729.76
2705.48
2150.65
1979.4
1928.66
1899.63
1936.59
2060.43
2227.75
2366.97
2453.36
2488.45
2505.62
2507.77
2507.98
2488.25
2457.27
2372.21
2222.65
2054.16
1935.77
1903.78
1939.03
1964.34
2138.74
2731.34
2733.55
2160.12
1976.48
1920.7
1882.17
1904.18
2011.46
2164.85
2287.62
2371.88
2411.71
2417.25
2423.76
2417.74
2412.46
2377.17
2300.96
2168.04
2012.85
1908.49
1891.99
1931.71
1984.59
2124.04
2724.97
2775.45
2173.74
1996.71
1926.67
1867.9
1884.32
1992.39
2126.99
2235.07
2300.96
2327.54
2341.97
2342.59
2341.9
2324.91
2302.48
2242.11
2125.83
1986.36
1885.5
1873.61
1933.61
1989.82
2159.02
2769.19
2746.09
2171.27
1981.92
1920.09
1848.42
1875.44
1963.82
2080.56
2170.89
2229.12
2264.01
2262.13
2269.66
2262.73
2261.43
2231.46
2179.56
2080.65
1956.87
1872.85
1858.41
1926.22
1994.05
2156.97
2762.02
2737.92
2178.17
2015.95
1931.04
1841.29
1859.27
1946.95
2050.92
2128.59
2171.82
2188.24
2198.52
2199
2198.49
2184.23
2171.21
2135.42
2055.88
1944.27
1858.58
1850.22
1927.3
2000.7
2168.81
2731.79
2715.65
2176.85
2029.1
1914.84
1833.11
1853.66
1926.94
2012.59
2075.63
2107.77
2136.87
2128.51
2136.51
2128.74
2132.11
2107.83
2079.54
2015.08
1923.12
1848.62
1840.18
1922.98
2024.49
2162.45
2723.36
2688.63
2170.84
2077.59
1941.94
1840.15
1841.22
1917.04
1993.27
2042.58
2063.2
2070.74
2075.22
2075.61
2075.72
2065.09
2060.58
2043.79
1994.7
1913.02
1833.94
1842.07
1934.53
2056.29
2167.28
2695.77
2685.37
2179.84
2103.86
1930.32
1847.69
1835.42
1897.88
1957.59
1991.01
2005.06
2029.31
2014.93
2022.83
2014.84
2024.15
2004.75
1994.17
1962.49
1900.8
1828.56
1852.98
1937.42
2116.42
2160.72
2671.93
2662.11
2171.71
2099.13
1962.8
1864.83
1831.83
1884.5
1939
1964.45
1972.44
1972.27
1972.38
1971.54
1972.12
1966.67
1969.16
1964.66
1940.83
1889.07
1822.07
1865.41
1963.2
2114.65
2168.45
2643.61
2632.64
2159.92
2096.76
1978.84
1877.18
1838.54
1876.98
1904.78
1917.2
1919.12
1939.53
1919.71
1927.94
1920.11
1935.6
1920.18
1918.97
1909.17
1882.39
1825.13
1875.17
1990.21
2112.1
2154.9
2617.51
2610.34
2144.57
2089.19
2042.74
1903.35
1851.42
1864.29
1885.04
1893.32
1894.88
1890.39
1886.85
1885.14
1887.25
1886.33
1892.46
1895.78
1888.69
1879.56
1847.65
1896.58
2046.85
2102.63
2138.79
2587.61
2590.93
2135.04
2077.62
2030.92
1917.16
1865.35
1863.68
1857.49
1853.01
1845.31
1863.96
1840.9
1849.57
1842.12
1860.77
1847.8
1855.64
1863.83
1879.72
1865
1923.15
2046.68
2089.63
2121.26
2577.45
2560.91
2114.31
2048.59
2032.91
1964.44
1886.32
1872.7
1845.76
1835.89
1830.85
1822.55
1815.26
1813.85
1816.79
1818.54
1828.04
1839.46
1849.74
1894.03
1888.34
1965.83
2041.26
2053.6
2113.37
2556.85
2551.63
2108.65
2019.18
2017.28
2019.02
1913.05
1889.58
1831.74
1806.8
1785.12
1800.91
1775.68
1784.29
1776.72
1798.29
1787.57
1810.06
1840.29
1914.13
1915.98
2033.8
2034.05
2022.13
2094.78
2537.53
2526.58
2097.6
1992.95
2007.94
2023.54
1941.37
1890.24
1846.3
1799.77
1782.63
1766.61
1756.45
1754.5
1756.99
1762.85
1781.02
1804.48
1847.48
1925.58
1962.56
2033.43
2019.27
1996.61
2091.56
2515.74
2510.1
2088.08
1973.94
1971.33
2006.41
2003.39
1917.64
1852
1788.61
1741.59
1750.18
1721.54
1730.09
1722.84
1747.97
1744.83
1791.03
1853.63
1951.96
2026.1
2013.48
1985.35
1979.13
2085.14
2500.51
2481.74
2082.14
1957.7
1945.45
1998.41
2037.72
1937.57
1871.15
1797.02
1761.08
1725.82
1708.29
1705.47
1709.41
1721.78
1760.76
1798.96
1865.41
1988.67
2050.96
2001.92
1957.2
1962.08
2068.89
2469.51
2469.39
2078.94
1950.88
1913.25
1960.21
2021.72
1997.54
1887.51
1797.98
1722.54
1719.8
1680.77
1687.07
1682.4
1718.11
1730.22
1806.15
1887.95
2064.59
2037.18
1954.69
1926.82
1956.27
2068.72
2454.7
2440.35
2057.78
1937.54
1896.23
1930.67
2009.75
2077.38
1941.46
1811.74
1766.92
1716.3
1682.73
1672.97
1683.13
1710
1765.51
1818.97
1928.44
2087.86
2011.36
1927
1906.13
1944.39
2053.74
2424.82
2427.41
2056.21
1935.33
1876.63
1893.39
1982.42
2059.37
2023.18
1836.28
1732.19
1721.19
1666.99
1668.17
1668.6
1717.35
1736.25
1844.67
2013.24
2072.76
1979.24
1892.14
1890.99
1941.11
2045.17
2413.99
2390.07
2035.1
1920.89
1870.71
1877.93
1942.33
2044.37
2067.49
1881.54
1784.61
1721.24
1683.94
1669.4
1686.01
1715.05
1785.14
1900.48
2058.43
2052.63
1932.67
1877.6
1880.63
1928.08
2029.78
2369.89
2358.98
2023.98
1913.15
1857.27
1855.85
1913.84
2016.16
2051.2
1987.83
1764.92
1734.98
1668.62
1672.48
1670.68
1731.87
1768.67
2009.51
2047.49
2025.05
1903.32
1856.11
1871.29
1920.81
2017.74
2343.73
2217.92
1975.86
1887.33
1851.81
1852.33
1879.21
1976
2036.43
2013.74
1867.01
1753.16
1696.57
1680.33
1697.98
1748.26
1863.54
2010.89
2030.94
1984.17
1872.25
1850.64
1860.98
1896.02
1968.55
2201.89
283.215
285.449
285.168
285.706
286.007
286.442
286.982
287.6
288.289
289.18
290.539
292.422
294.802
297.551
300.582
303.836
306.75
308.455
303.525
284.507
277.271
274.889
274.244
274.063
274.013
274.004
273.997
274.001
273.996
274
282.037
283.46
283.08
283.531
283.698
284.14
284.737
285.402
286.054
286.818
288.039
289.89
292.434
295.51
298.966
302.604
306.29
309.553
312.327
311.018
286.927
277.616
274.905
274.235
274.052
274.013
273.995
274.002
273.99
274.01
281.828
282.584
282.089
282.471
282.503
282.962
283.612
284.348
285.042
285.772
286.901
288.711
291.377
294.852
298.875
302.999
307.22
311.238
314.819
317.18
311.639
285.242
276.94
274.713
274.169
274.041
274
274.002
273.992
274.009
281.464
281.399
281.117
281.195
281.006
281.556
282.228
283.052
283.814
284.545
285.612
287.457
290.187
293.617
297.79
302.584
307.312
311.569
315.338
318.39
320.07
310.1
283.477
276.273
274.524
274.125
274.018
274.007
273.995
274.006
281.338
280.833
280.756
280.497
280.358
280.731
281.325
282.191
283.063
283.876
284.805
286.541
289.317
292.783
296.799
301.257
306.301
311.417
315.521
318.697
321.623
322.867
306.335
281.556
275.665
274.378
274.077
274.018
273.999
274.004
281.286
280.79
280.745
280.405
280.292
280.563
281.002
281.804
282.737
283.613
284.431
285.822
288.433
291.83
295.735
300.018
304.723
309.883
314.921
318.908
322.11
325.064
325.492
299.915
279.632
275.185
274.25
274.056
274.006
274.004
281.318
281.057
281.082
280.721
280.638
280.797
281.127
281.778
282.525
283.247
283.885
284.938
287.179
290.546
294.445
298.654
303.164
308.118
313.569
318.597
322.446
325.837
328.516
327.34
292.956
277.952
274.798
274.167
274.03
274.009
281.509
281.415
281.588
281.319
281.247
281.343
281.564
282.113
282.755
283.326
283.705
284.128
285.985
289.028
293.079
297.333
301.854
306.649
311.968
317.595
322.463
326.235
329.81
331.809
325.383
286.891
276.622
274.521
274.1
274.024
281.733
281.78
282.121
282.021
281.964
282.072
282.285
282.719
283.271
283.692
283.97
284.186
285.107
287.664
291.802
296.172
300.776
305.536
310.618
316.245
321.851
326.504
330.338
333.898
335.146
317.64
282.797
275.666
274.321
274.069
281.929
282.157
282.606
282.787
282.916
283.139
283.421
283.734
284.031
284.277
284.407
284.569
284.939
286.832
290.63
295.218
299.915
304.713
309.66
315.022
320.815
326.287
330.74
334.711
338.105
338.334
305.559
279.662
275.024
274.212
282.193
282.515
283.051
283.613
284.323
284.878
285.319
285.43
285.287
285.078
284.933
285.005
285.106
286.529
289.71
294.386
299.186
304.056
308.989
314.126
319.76
325.616
330.868
335.171
339.285
342.126
339.758
293.515
277.412
274.665
282.505
282.834
283.406
284.29
285.239
286.03
286.553
286.72
286.287
285.683
285.417
285.397
285.455
286.468
289.066
293.468
298.428
303.371
308.386
313.465
318.9
324.709
330.495
335.539
339.806
343.938
345.648
331.751
285.318
276.135
282.918
283.226
283.78
284.651
285.652
286.518
287.09
287.381
286.972
286.27
285.728
285.603
285.762
286.275
288.441
292.403
297.539
302.517
307.643
312.804
318.163
323.777
329.698
335.404
340.304
344.693
348.372
348.682
313.964
281.118
283.296
283.63
284.116
284.977
285.959
286.859
287.436
287.96
287.66
287.043
286.473
286.118
285.898
285.933
287.913
291.451
296.551
301.582
306.767
312.019
317.375
322.874
328.744
334.789
340.442
345.258
349.631
352.775
348.946
296.859
283.878
284.135
284.498
285.35
286.171
287.175
288.074
288.736
288.649
288.151
287.48
286.909
286.608
286.655
287.806
291.018
295.808
300.897
305.995
311.238
316.571
322.081
327.87
333.946
340.112
345.716
350.309
355.305
359.741
341.444
284.165
284.571
284.862
285.82
286.818
288.104
289.265
290.069
290.26
289.655
288.902
288.294
287.976
288.009
288.427
291.199
295.639
300.777
305.763
310.93
316.113
321.627
327.259
333.217
339.502
345.761
350.556
356.802
368.393
384.656
284.702
285.118
285.526
286.883
288.28
290.061
291.626
292.612
293.013
292.193
291.289
290.5
290.105
290.025
289.937
292.027
296.059
301.257
306.03
311.052
316.113
321.528
326.956
332.691
338.808
345.444
350.512
358.731
378.045
427.035
284.834
285.594
286.665
288.904
291.49
293.948
296.315
297.615
298.022
296.725
295.324
294.225
293.449
292.869
292.326
293.58
297.376
302.44
306.894
311.675
316.573
321.659
326.919
332.564
338.414
344.603
351.147
364.245
393.959
481.094
285.181
286.563
288.908
293.39
298.337
302.069
305.617
307.422
307.151
304.357
302.178
300.402
298.742
297.359
296.259
296.257
299.584
304.325
308.509
312.939
317.539
322.205
327.172
332.772
338.476
343.415
352.338
370.859
411.884
500.997
285.164
287.951
293.528
302.955
313.281
319.668
324.307
326.025
323.243
318.146
314.18
310.836
307.547
303.461
300.842
299.395
302.119
306.625
311.126
315.135
319.339
323.706
328.235
333.491
339.148
344.542
355.556
379.703
427.028
505.435
286.012
290.842
303.775
327.43
347.129
356.927
360.732
360.48
353.02
342.659
334.932
327.412
319.56
313.415
308.857
305.576
306.723
310.511
314.507
318.212
321.943
325.983
330.235
334.957
340.345
346.727
360.958
392.786
445.025
506.454
285.15
297.821
331.774
391.591
420.864
426.992
423.873
416.282
399.234
379.405
364.202
350.45
338.282
328.856
321.211
315.584
314.336
316.524
319.186
321.97
325.242
328.7
332.699
336.962
341.682
349.826
368.4
411.531
476.369
502.172
295.161
316.732
415.555
516.445
539.3
522.318
510.578
490.581
459.515
425.277
402.013
382.043
364.388
350.142
338.572
329.734
325.653
325.276
325.805
326.818
329.174
332.048
335.591
339.455
343.436
353.667
377.606
433.941
494.509
495.919
278.888
380.205
602.58
668.442
675.531
635.271
623.353
578.538
525.945
483.346
450.241
421.387
396.867
376.4
360.106
347.323
337.26
333.899
333.202
333.31
334.084
336.088
338.997
342.448
346.995
358.563
388.734
461.299
496.328
491.21
313.303
556.988
813.202
820.764
829.159
777.945
738.421
680.866
599.717
554.028
509.544
468.789
436.887
408.188
384.224
365.177
349.195
344.886
342.453
341.728
341.155
341.607
343.22
345.992
351.203
365.204
403.134
488.843
497.35
489.688
274
273.996
274.001
273.997
274.004
274.013
274.062
274.24
274.873
277.202
284.3
303.204
308.353
306.686
303.788
300.54
297.513
294.767
292.388
290.507
289.146
288.254
287.566
286.949
286.41
285.976
285.676
285.141
285.421
283.192
274.01
273.99
274.002
273.995
274.013
274.051
274.23
274.887
277.537
286.63
310.673
312.247
309.488
306.235
302.558
298.926
295.475
292.401
289.857
288.004
286.781
286.016
285.365
284.701
284.103
283.661
283.492
283.043
283.424
282.009
274.009
273.992
274.002
274
274.04
274.166
274.698
276.871
284.995
311.141
317.058
314.743
311.177
307.17
302.955
298.838
294.821
291.345
288.676
286.862
285.731
285
284.307
283.572
282.921
282.461
282.427
282.046
282.542
281.792
274.006
273.995
274.007
274.018
274.122
274.512
276.216
283.251
309.462
319.931
318.292
315.258
311.507
307.263
302.546
297.756
293.582
290.15
287.417
285.569
284.498
283.767
283.007
282.185
281.508
280.957
281.145
281.064
281.35
281.423
274.004
273.999
274.018
274.075
274.37
275.622
281.359
305.565
322.706
321.509
318.596
315.438
311.355
306.252
301.212
296.754
292.738
289.272
286.49
284.751
283.818
283.007
282.135
281.267
280.678
280.304
280.44
280.694
280.769
281.28
274.004
274.006
274.054
274.244
275.154
279.471
299.111
325.281
324.94
322.002
318.811
314.846
309.824
304.669
299.967
295.685
291.781
288.384
285.757
284.359
283.541
282.661
281.74
280.951
280.513
280.238
280.345
280.68
280.722
281.215
274.009
274.029
274.163
274.776
277.833
292.289
326.963
328.367
325.731
322.338
318.511
313.503
308.056
303.102
298.595
294.39
290.491
287.123
284.817
283.786
283.189
282.485
281.743
281.087
280.755
280.59
280.665
281.014
280.99
281.262
274.023
274.097
274.507
276.54
286.482
324.59
331.646
329.704
326.127
322.366
317.525
311.908
306.589
301.794
297.275
293.026
288.974
285.925
284.096
283.699
283.321
282.749
282.1
281.543
281.316
281.217
281.277
281.534
281.364
281.473
274.067
274.312
275.615
282.517
316.534
334.994
333.802
330.247
326.407
321.782
316.198
310.572
305.491
300.735
296.134
291.774
287.631
285.099
284.221
284.005
283.712
283.287
282.74
282.293
282.081
281.963
282.01
282.106
281.765
281.712
274.206
274.993
279.474
304.482
338.154
338.015
334.636
330.647
326.219
320.776
314.994
309.632
304.691
299.902
295.207
290.635
286.837
284.969
284.624
284.488
284.31
284.07
283.785
283.488
283.204
282.978
282.838
282.657
282.198
281.936
274.645
277.299
292.695
339.275
342.023
339.226
335.093
330.803
325.591
319.76
314.131
309
304.076
299.217
294.42
289.761
286.576
285.133
285.05
284.955
285.116
285.257
285.416
285.499
285.061
284.493
283.759
283.185
282.634
282.274
276.067
284.954
330.695
345.56
343.894
339.753
335.476
330.47
324.724
318.93
313.497
308.423
303.416
298.485
293.533
289.135
286.515
285.352
285.24
285.352
285.819
286.487
286.913
286.893
286.373
285.562
284.581
283.64
283.043
282.663
280.894
312.896
348.579
348.347
344.672
340.251
335.376
329.711
323.816
318.213
312.855
307.694
302.568
297.602
292.476
288.488
286.13
285.733
285.718
285.91
286.532
287.361
287.859
287.461
286.887
286.008
284.998
284.115
283.531
283.168
296.08
348.354
352.727
349.633
345.233
340.423
334.811
328.79
322.928
317.43
312.073
306.821
301.627
296.603
291.503
287.83
286.129
286.081
286.388
286.72
287.392
288.234
288.544
287.906
287.277
286.353
285.35
284.519
284.028
283.631
340.271
359.643
355.299
350.31
345.708
340.132
333.992
327.92
322.131
316.616
311.271
306.027
300.926
295.832
291.053
287.729
286.935
286.96
287.314
287.848
288.657
289.329
289.352
288.629
287.572
286.591
285.765
284.922
284.602
284.324
383.786
368.271
356.825
350.584
345.781
339.542
333.264
327.295
321.652
316.135
310.945
305.781
300.794
295.647
291.26
288.614
288.369
288.329
288.733
289.377
290.316
290.938
290.676
289.833
288.502
287.181
286.213
285.306
285.081
284.698
426.502
377.87
358.709
350.542
345.483
338.841
332.722
326.975
321.543
316.123
311.055
306.037
301.266
296.071
292.158
290.265
290.38
290.557
291.006
291.886
292.987
293.721
293.171
292.148
290.437
288.631
287.246
285.954
285.702
285.233
481.221
393.803
364.221
351.187
344.674
338.441
332.585
326.934
321.674
316.576
311.672
306.891
302.448
297.395
293.816
292.737
293.295
293.987
294.914
296.077
297.612
298.806
298.089
296.786
294.36
291.873
289.292
287.103
286.172
285.337
501.295
411.844
370.841
352.379
343.469
338.516
332.781
327.179
322.207
317.535
312.917
308.474
304.321
299.643
296.412
296.585
297.843
299.306
301.237
303.157
305.412
308.094
307.998
306.327
302.672
299.07
294.073
289.477
287.065
285.534
505.731
427.079
379.702
355.563
344.575
339.2
333.486
328.212
323.681
319.301
315.08
311.043
306.664
302.251
299.791
301.434
304.076
308.051
311.801
315.284
319.463
324.433
327.08
325.687
321
314.655
304.159
294.479
288.421
285.511
506.763
445.175
392.801
360.958
346.748
340.361
334.921
330.184
325.91
321.835
318.088
314.367
310.575
306.857
306.108
309.678
314.357
320.606
328.708
336.044
344.472
354.634
362.093
363.328
359.466
349.832
329.758
305.166
291.426
286.351
502.48
476.923
411.635
368.399
349.782
341.659
336.902
332.597
328.548
325.03
321.778
319.02
316.579
314.647
316.208
322.218
330.109
339.735
352.367
365.607
382.105
401.594
418.752
427.761
431.187
425.842
396.856
334.473
298.767
285.489
496.235
494.83
434.138
377.628
353.657
343.323
339.318
335.399
331.801
328.887
326.539
325.568
325.18
325.984
330.424
339.784
351.735
366.08
384.852
403.541
428.809
463.378
494.059
516.233
526.398
547.152
524.811
423.07
318.868
295.894
491.678
496.544
461.659
388.777
358.411
346.772
342.218
338.691
335.749
333.782
333.067
333.265
333.816
337.624
348.212
361.376
378.347
398.963
425.026
451.958
486.099
532.449
584.533
629.135
641.957
684.71
678.236
614.922
385.934
279.882
490.088
497.481
489.323
403.197
365.007
350.919
345.644
342.793
341.194
340.854
341.666
342.621
345.638
350.107
366.412
386.081
410.785
439.633
473.278
512.421
555.974
605.96
689.586
741.564
781.96
842.01
834.343
826.678
565.573
315.217
274.002
274.002
274.002
274.002
274.002
274.002
274.002
274.002
274.002
274.002
274.002
274.002
274.002
274.002
274.002
274.002
274.002
274.002
274.002
274.002
274.002
274.002
274.002
274.002
274.002
274.002
274.002
274.002
274.002
274.002
274.002
274.002
274.002
274.002
274.002
274.002
274.002
274.002
274.002
274.002
274.002
274.002
274.002
274.002
274.002
274.002
274.002
274.002
274.002
274.002
274.002
274.002
274.004
274.029
274.45
280.758
353.535
602.393
815.606
966.162
1133.57
1183.53
1193.3
1194
1193.98
1186.67
1165.13
1134.17
1104.66
1078.78
1055.6
1034.32
1014.31
995.929
978.913
963.212
948.247
933.347
918.256
902.795
887.481
872.482
857.609
842.42
827.145
812.427
798.39
784.367
770.465
756.976
744.181
732.046
720.368
708.984
697.575
685.783
674.322
663.384
652.894
642.695
632.537
622.43
612.579
603.011
593.827
585.042
576.682
568.911
561.689
554.616
547.926
541.595
535.636
530.241
525.156
520.239
515.538
511.125
507.11
503.43
499.901
496.528
493.42
490.937
489.655
274.001
274.001
274.001
274.001
274.001
274.001
274.001
274.001
274.001
274.001
274.001
274.001
274.001
274.001
274.001
274.001
274.001
274.001
274.001
274.001
274.001
274.001
274.001
274.001
274.001
274.001
274.001
274.001
274.001
274.001
274.001
274.001
274.001
274.001
274.001
274.001
274.001
274.001
274.001
274.001
274.001
274.001
274.001
274.001
274.001
274.001
274.001
274.001
274.001
274.001
274.001
274.002
274.037
274.737
287.785
432.992
675.511
773.735
815.498
856.33
918.341
985.239
1043.91
1091.71
1131.28
1188.07
1241.28
1241.91
1232.91
1222.03
1205.55
1183.88
1157.45
1126.03
1091.05
1056
1025.46
998.538
974.152
951.775
931.4
912.501
894.674
877.419
861.463
846.125
831.565
817.578
803.948
790.736
777.819
765.2
752.611
740.301
727.978
715.511
702.941
690.807
679.153
667.998
657.118
646.575
636.544
627.098
618.227
609.797
601.738
593.81
586.081
578.329
571.086
564.089
557.353
550.854
544.616
538.856
533.365
528.13
523.051
518.194
513.809
510.209
507.678
504.597
501.114
274
274
274
274
274
274
274
274
274
274
274
274
274
274
274
274
274
274
274
274
274
274
274
274
274
274
274
274
274
274
274
274
274
274
274
274
274
274
274
274
274
274
274
274
274
274
274
274
274
274
274.002
274.044
275.047
297.22
522.261
746.964
782.237
790.958
798.928
816.765
841.441
869.637
898.009
925.501
957.475
993.737
1038.6
1085.6
1136.29
1188.59
1239.55
1294.13
1303.95
1297.17
1285.03
1260.92
1213.27
1158.6
1108.1
1062.89
1021.92
986.561
957.425
933.261
911.929
892.281
873.807
856.172
839.656
824.318
809.901
796.131
782.692
769.925
757.403
745.407
733.745
722.233
711.476
701.099
690.776
680.496
670.4
660.621
651.34
642.52
634.087
625.768
617.51
608.822
600.51
592.147
584.475
577.576
571.904
566.362
560.649
554.411
547.723
541.115
535.45
531.09
526.872
521.505
511.245
274
274
274
274
274
274
274
274
274
274
274
274
274
274
274
274
274
274
274
274
274
274
274
274
274
274
274
274
274
274
274
274
274
274
274
274
274
274
274
274
274
274
274
274
274
274
274
274
274
274.002
274.046
275.235
304.643
581.837
778.46
793.658
793.291
794.691
800.498
814.412
830.19
847.7
866.453
886.758
907.858
931.454
960.934
997.955
1043.16
1094.56
1147.93
1208.38
1264.65
1306.08
1338.22
1364.11
1397.64
1397.24
1358.73
1313.76
1248.22
1180.85
1124.67
1076.76
1034.33
996.806
964.325
935.844
911.534
890.363
871.442
854.088
837.644
822.268
807.804
794.414
782.052
770.418
759.86
749.979
740.229
730.483
721.114
712.082
703.498
695.476
688.166
681.281
674.167
666.826
659.87
651.443
642
631.113
620.39
609.747
599.512
589.951
580.812
570.42
550.902
522.558
490.689
455.605
422.809
274
274
274
274
274
274
274
274
274
274
274
274
274
274
274
274
274
274
274
274
274
274
274
274
274
274
274
274
274
274
274
274
274
274
274
274
274
274
274
274
274
274
274
274
274
274
274
274
274.001
274.041
275.21
306.307
598.457
789.514
801.632
798.703
798.291
803.139
813.206
828.781
843.052
857.337
870.764
884.916
900.977
922.758
952.12
990.777
1039.01
1089.85
1142.83
1195.6
1247.38
1288.36
1326.45
1362.27
1394.27
1428.17
1450.89
1464.44
1483.63
1481.59
1441.19
1372.87
1294.7
1225.11
1166.52
1117.32
1076.13
1040.17
1008.5
980.073
954.126
931.226
911.222
893.602
878.207
864.53
852.153
840.776
830.205
821.001
812.36
804.243
796.594
788.764
780.456
771.321
761.022
749.648
737.981
724.928
710.807
694.779
677.79
650.832
615.104
574.976
529.869
482.53
445.641
420.31
400.205
384.779
373.424
274
274
274
274
274
274
274
274
274
274
274
274
274
274
274
274
274
274
274
274
274
274
274
274
274
274
274
274
274
274
274
274
274
274
274
274
274
274
274
274
274
274
274
274
274
274
274
274.001
274.032
275.006
302.41
589.739
793.096
806.878
805.023
804.203
807.337
817.39
831.561
846.427
860.667
874.674
891.116
913.228
942.736
986.553
1046.86
1126.39
1227.94
1331.34
1435.02
1532.89
1602.22
1624.31
1629.76
1627.14
1612.46
1602.43
1574.67
1542.09
1524.31
1515.18
1508.86
1525.47
1537.38
1522.25
1488.42
1436.38
1370.21
1307.27
1251.9
1204.35
1162.28
1126.27
1096.04
1070.19
1047.63
1028.11
1010.7
995.418
981.658
969.81
959.294
949.324
939.634
929.351
917.832
903.818
885.217
859.52
819.096
768.402
712.054
650.327
585.893
531.852
492.867
460.948
434.812
413.965
397.537
383.916
372.159
362.973
356.105
274
274
274
274
274
274
274
274
274
274
274
274
274
274
274
274
274
274
274
274
274
274
274
274
274
274
274
274
274
274
274
274
274
274
274
274
274
274
274
274
274
274
274
274
274
274
274.001
274.021
274.716
295.176
559.41
794.052
811.055
810.076
810.17
812.916
822.496
836.378
851.194
865.679
880.536
899.226
927.314
968.739
1031.95
1118.56
1234.74
1381.32
1548.64
1672.63
1727.81
1744.73
1744.85
1734
1723.44
1708.58
1693.72
1670.7
1650.76
1626.59
1603.84
1576.51
1549.67
1526.14
1503.03
1485.82
1473.32
1468.51
1484
1485.61
1472.53
1453.54
1428.5
1401.86
1375.43
1350.42
1325.11
1300.77
1276.69
1253.02
1229.55
1205.7
1180.11
1150.4
1114.09
1069.09
1013.73
946.204
866.67
783.104
715.954
656.901
604.538
559.174
522.09
488.811
460.808
436.787
416.224
399.607
385.901
374.458
364.52
356.353
350.139
274
274
274
274
274
274
274
274
274
274
274
274
274
274
274
274
274
274
274
274
274
274
274
274
274
274
274
274
274
274
274
274
274
274
274
274
274
274
274
274
274
274
274
274
274
274
274.012
274.437
287.529
508.488
789.462
814.373
813.791
813.973
818.101
828.421
841.697
856.624
871.454
886.046
905.978
939.933
991.894
1071.66
1189.7
1351.4
1559.26
1736.79
1803.51
1816.28
1807.4
1792.83
1779.2
1765.19
1753.3
1738.68
1723.83
1691
1665.7
1647.19
1631.73
1616.11
1605.82
1589.25
1565.82
1540.23
1512.29
1483.07
1453.56
1428.55
1407.33
1389.14
1369.55
1349.91
1330.8
1314.97
1300.8
1285.27
1266.31
1244.62
1217.86
1186.06
1151.51
1114.49
1074.58
1030.01
978.627
920.591
858.127
795.837
735.585
678.523
626.722
580.176
540.736
503.557
471.986
445.079
422.369
403.792
388.383
375.607
365.239
356.361
348.741
274
274
274
274
274
274
274
274
274
274
274
274
274
274
274
274
274
274
274
274
274
274
274
274
274
274
274
274
274
274
274
274
274
274
274
274
274
274
274
274
274
274
274
274
274
274.006
274.231
281.476
445.574
772.377
816.42
817.264
817.747
821.076
831.589
845.238
860.221
875.299
891.416
912.75
949.413
1007.88
1100.13
1238
1436.39
1695.38
1840.08
1863.61
1852.69
1836.1
1823.11
1813.22
1813
1825.21
1835.49
1826.47
1788.44
1761.9
1732.65
1707.96
1679.85
1647.98
1634.97
1621
1609.52
1595.01
1579.47
1556.28
1530.06
1504.62
1475.98
1451.96
1426.82
1398.87
1369.76
1344.18
1321.54
1297.69
1272.97
1248.26
1223.9
1198.57
1171.91
1145