/*--------------------------------*- C++ -*----------------------------------*\
| =========                 |                                                 |
| \\      /  F ield         | OpenFOAM: The Open Source CFD Toolbox           |
|  \\    /   O peration     | Version:  2112                                  |
|   \\  /    A nd           | Website:  www.openfoam.com                      |
|    \\/     M anipulation  |                                                 |
\*---------------------------------------------------------------------------*/
FoamFile
{
    version     2.0;
    format      ascii;
    arch        "LSB;label=32;scalar=64";
    class       volScalarField;
    location    "0.00414";
    object      T;
}
// * * * * * * * * * * * * * * * * * * * * * * * * * * * * * * * * * * * * * //

dimensions      [0 0 0 1 0 0 0];

internalField   nonuniform List<scalar> 
13875
(
1412.01
1535.56
1482.59
1487.46
1481.14
1483.09
1482.77
1483.37
1483.58
1484.31
1483.4
1484.07
1483.81
1484.03
1484.03
1483.53
1482.88
1483.79
1482.6
1483.35
1481.03
1487.7
1480.73
1533.54
1398.62
1307.05
1356.2
1319.15
1322.25
1316.66
1317.1
1316.7
1317.64
1319.77
1322.95
1322.58
1322.9
1318.25
1317.76
1318.48
1322.41
1322.21
1322.12
1317.56
1316.98
1315.87
1321.9
1319.64
1356.54
1302.44
1307.26
1340.06
1314.45
1311.5
1303.85
1304.12
1302.81
1303.28
1303.77
1305.17
1303.62
1305.77
1304.15
1304.28
1304.14
1305.32
1302.82
1305.06
1303.81
1304.5
1303.63
1310.83
1311.51
1335.94
1296.41
1317.39
1344.83
1314.87
1308.53
1305.01
1304.62
1302.97
1303.4
1303.79
1303.9
1302.43
1304.17
1304.21
1304.31
1304.24
1303.84
1302.23
1304.06
1303.99
1304.78
1304.27
1307.44
1313.91
1343.52
1312.21
1329.55
1342.13
1315.88
1312.1
1303.38
1303.85
1302.84
1303.53
1303.9
1303.93
1302.5
1304.04
1304.34
1304.46
1304.3
1303.64
1302.36
1304.1
1303.99
1304.71
1303.4
1311.52
1312.1
1338.65
1316.75
1332.25
1351.17
1319.03
1309.7
1306.8
1305.79
1303.78
1304.04
1304.08
1303.95
1302.75
1304.37
1304.64
1304.79
1304.72
1304.05
1302.63
1304.28
1304.78
1306.2
1306.17
1308.16
1318.86
1349.18
1326.84
1339.03
1360.47
1329.2
1317.17
1306.65
1305.69
1304.21
1304.6
1304.7
1304.49
1303.3
1304.76
1305.24
1305.46
1305.17
1304.24
1303.4
1304.88
1305.2
1306.55
1306.76
1317.25
1325.86
1358.33
1321.77
1359.85
1384.76
1344.25
1321.02
1315.78
1311.14
1307.52
1306.6
1305.93
1305.57
1304.47
1305.81
1306.48
1306.83
1306.51
1305.37
1304.66
1306.13
1307.62
1311.41
1314.72
1320.43
1341.22
1381.04
1350.16
1537.11
1507.91
1387.24
1350.77
1322.18
1315.07
1310.83
1309.28
1308.89
1308.07
1307.1
1308.11
1309.08
1309.57
1309.03
1307.83
1307.58
1309.19
1311.1
1315.28
1321.66
1348.24
1384.07
1507.44
1521.96
1836.02
1575.22
1428.59
1361.81
1341.47
1325.42
1318.04
1315.36
1314.32
1313.39
1312.58
1313.37
1314.5
1315.19
1314.6
1313.41
1313.27
1315.16
1318.04
1325.55
1338.01
1361.23
1425.59
1566.3
1828.56
2511.23
1803.4
1522.44
1430.98
1358.95
1341.46
1331.7
1327.73
1326.27
1325.21
1324.35
1324.9
1326.12
1326.99
1326.51
1325.59
1325.36
1327.76
1331.7
1339.7
1356.88
1421.5
1512.62
1807.67
2442.33
2816.2
2302.64
1775.68
1485.68
1427.6
1389.55
1365.87
1357.66
1354.47
1352.99
1352.18
1352.45
1353.39
1354.32
1354.12
1353.96
1354.13
1357.78
1365.7
1391.05
1418.49
1473.98
1737.96
2295.39
2842.62
2793.91
2677.37
2439.47
2295.41
1588.12
1488.15
1461.26
1445.41
1440.92
1438.78
1437.73
1437.59
1438.11
1438.86
1439.14
1440.02
1441.86
1447.62
1465.58
1493.32
1625.98
2325.75
2387.01
2702.21
2782.06
2709.68
2665.41
2815.54
2804.73
2052.87
2010.62
1854.27
1742.79
1717.15
1709.44
1705.61
1704.19
1704.05
1705.06
1706.31
1710.09
1719.82
1748.89
1869.99
2117.31
2045.39
2821.66
2822.71
2704.13
2700.01
2641.18
2703.35
2787.56
2789.2
2795.29
3002.67
2920.08
2965.24
3080.04
3072.06
3077.82
3066.85
3072.14
3073.2
3074.94
3069.02
3076.25
3001.03
2924.91
3015.91
2821.33
2813.38
2812.22
2698.35
2654.1
2515.68
2578.17
2774.48
2910.21
2952.22
3295
3545.67
3673.79
3687.44
3676.5
3670.05
3666.49
3666.94
3667.3
3668.62
3671.9
3682.71
3682.93
3544.04
3339.69
2974.63
2921.98
2773.81
2601.21
2561.54
2422.82
2556.67
2684.03
2809.22
2919.31
3192.5
3407.14
3572.3
3653.76
3648.22
3647.14
3643.39
3644.04
3644.26
3642.88
3642.42
3648.73
3598.97
3445.65
3265.23
2955.87
2845.83
2713.16
2562.03
2428.43
2204.13
2376.42
2692.26
2897.81
2868.45
3148.2
3363.05
3496.41
3544.49
3558.57
3557.02
3559.85
3560.31
3560.15
3555.34
3553.61
3535.67
3483.13
3333.87
3127.27
2894.03
2919.49
2673.18
2358.89
2204.84
2063.02
2191.27
2497.24
2676.74
2715.84
2858.92
3084.01
3281.4
3383.26
3421.6
3436.07
3439.34
3441.91
3438.02
3431.51
3412.05
3380.12
3296.87
3101.03
2881.87
2745.13
2710.7
2501.85
2188.82
2070.17
2195.53
2051.29
2384.96
2479.25
2525.83
2622.55
2819.43
3048.62
3220.25
3299.04
3319.58
3330.85
3332.38
3330.25
3316.44
3295.61
3228.85
3067.12
2830.12
2636.13
2537.17
2462.16
2331.85
2057.55
2198.89
3142.79
2339.76
2173.62
2298.9
2371.35
2469.7
2639.42
2868.93
3064.37
3171.72
3210.19
3218.76
3223.7
3218.19
3208.38
3169.34
3066.69
2872.74
2638.56
2476.99
2372.59
2280.9
2166.82
2336.68
3214.2
3109.7
2139.57
1982.42
2150.05
2237.28
2350.38
2501.05
2718.89
2927.59
3049.06
3092.25
3110.98
3112.79
3110.51
3089.4
3043.72
2924.48
2716.32
2497.73
2355.5
2235.68
2128.27
1978.94
2147.58
3181.42
3047.73
2128.7
1886.59
2033.83
2126.16
2259.07
2387.88
2591.62
2793.64
2926.14
2982.41
2995.83
3002.93
2994.36
2979.66
2923.66
2792.87
2592.05
2386.26
2267.15
2125.29
2018.48
1878.75
2141.1
3119.45
3002.63
2106.66
1891.13
1965.67
2049.48
2166.53
2293.82
2491.86
2689.06
2814.2
2866.64
2891.39
2893.69
2890.34
2864.23
2811.73
2689.32
2492.58
2289.47
2168.24
2049.25
1944.08
1881.73
2091.43
2967.74
2868.18
2075.46
1906.16
1929.15
1986.95
2087.09
2208.85
2402.75
2585.22
2709.21
2766.52
2781.55
2789.36
2779.77
2763.49
2705.07
2580.12
2396.53
2198.42
2089.34
1992.99
1917.86
1895.1
2113.18
2935.4
2859.49
2114.69
1929.06
1906.18
1940.99
2017.82
2139.85
2324.32
2498.72
2611.18
2660.84
2685.67
2687.13
2684.55
2657.75
2607.93
2498.01
2323.48
2133.65
2013.84
1944.46
1890.97
1914.1
2085.46
2853.8
2812.03
2140.02
1966.56
1891.94
1903.79
1965.35
2079.64
2255.41
2413
2520.31
2573.3
2584.11
2592.1
2582.24
2568.28
2515.66
2408.46
2251.81
2071.21
1962.95
1908.74
1889.48
1961.6
2123.02
2818.16
2797.06
2171.85
1983.81
1895.56
1883.56
1923.38
2035.69
2199.74
2345.93
2437.58
2477.47
2499.47
2500.14
2498.22
2472.27
2431.19
2339.92
2193.09
2026.16
1912.11
1881.31
1883.32
1958.14
2149.41
2830.82
2820.84
2165.9
1979.6
1894.75
1866.71
1893.24
1989.93
2140.63
2269.98
2354.86
2400.52
2408.14
2416.31
2406.15
2396.25
2351.43
2267.09
2141.61
1986.67
1892.27
1865.93
1890.58
1970.45
2139.11
2826.01
2868.28
2186.48
1981.33
1887.62
1857.84
1871.48
1965.88
2102.23
2217.12
2286.51
2315.51
2335.31
2334.77
2333.17
2309.65
2279.45
2210.61
2096.96
1959.14
1859.99
1857.08
1875.5
1967.97
2192.72
2850.93
2808.7
2193.29
1964.62
1892.71
1838.33
1861.23
1940.95
2060.72
2155.23
2212.61
2250.09
2253.78
2261.76
2251.78
2245.4
2207.83
2146.41
2054.84
1933.09
1854.71
1838.76
1898.52
1979.41
2216.72
2839.58
2805.85
2211.18
1993.33
1900.62
1827.66
1843.13
1921.18
2029.66
2109.94
2156.62
2174.7
2191.54
2190.57
2190.83
2169.65
2151.01
2104.81
2026.27
1916.54
1835.84
1827.47
1898.64
1991.25
2222.65
2814.06
2772.29
2206.13
2004.98
1893.11
1823.53
1836.65
1905
1994.96
2058.37
2090.91
2120.83
2120.29
2127.97
2119.24
2115.96
2086.08
2048.74
1990.14
1900.83
1831.62
1827.22
1907.75
2017.58
2216.24
2801.67
2751.14
2197.19
2053.49
1919.05
1826.18
1820.64
1891.82
1971.18
2021.52
2049.17
2055.85
2068.56
2066.58
2068.29
2050.47
2043.58
2015.77
1963.14
1885.31
1810.55
1825.83
1912
2052.3
2214.37
2772.27
2734.65
2207.39
2087.16
1913.04
1837.57
1816.61
1876.68
1938.43
1975.1
1988.64
2011.86
2007.2
2013.85
2006.59
2007.68
1984.66
1968.69
1936.56
1876.45
1812.02
1846.75
1921.37
2095.55
2197.06
2734.66
2707.79
2197.48
2083.26
1945.42
1847.99
1808.82
1860.26
1917.65
1943.09
1959.79
1956.8
1966.03
1962.04
1964.83
1951.6
1955.53
1939.17
1909.15
1856.05
1801.18
1847.31
1952.9
2094.42
2195.14
2713.81
2674.85
2182.79
2079.27
1963.42
1866.01
1818.85
1854.99
1887.31
1903.28
1905.4
1921.52
1913.22
1918.34
1912.07
1918.15
1901.92
1897.55
1885.98
1853.99
1812.92
1869.94
1978.82
2087.11
2174.27
2688.37
2658.72
2163.7
2075.23
2030.88
1886.95
1827.03
1840.05
1867.93
1872.94
1883.41
1875.16
1880.23
1874.69
1879.76
1870.76
1881.14
1871.79
1859.16
1836.95
1831.95
1881.61
2046.73
2081.91
2156.41
2659.03
2639.77
2149.36
2060.68
2022.11
1904.31
1854.1
1845.59
1843.12
1840.27
1833.93
1845.82
1834.09
1838.63
1834.2
1843.34
1831.9
1835
1845.9
1849.55
1854.45
1915.89
2042.21
2070.3
2141.13
2650.21
2609.76
2128.56
2031.1
2026.27
1952.81
1866.62
1849.01
1832.84
1815.93
1820.99
1806.79
1808.33
1802.02
1808.61
1802.21
1818.65
1815.54
1821.57
1836.64
1877.73
1959.87
2036.17
2028.05
2135.64
2629.8
2596.06
2122.65
1999.9
2007.95
2011.96
1903.12
1871.08
1821.07
1793.5
1775.52
1782.14
1768.37
1771.94
1768.31
1780.1
1773.12
1787.61
1824.72
1874.19
1900.73
2036.25
2022.69
1995.93
2120.94
2609.38
2567.46
2111.8
1975
2000.25
2017.79
1923.35
1871.57
1821.89
1778.95
1772.66
1749.96
1748.81
1741.53
1748.34
1745.65
1771.68
1777.65
1813.35
1869.43
1951.31
2033.09
2002.08
1971.68
2122.87
2576.36
2543.88
2102.63
1955.99
1961
1999.04
1982.52
1903.11
1834.28
1777.07
1731.73
1730.37
1713.75
1716.5
1713.8
1728.15
1728.11
1766.9
1834.5
1907.98
2012.94
2010.84
1962.76
1955.71
2115.48
2554.68
2508.51
2096.57
1940.36
1936.46
1989.77
2041.41
1921.95
1838.74
1772.64
1748.86
1707.61
1700.13
1691.31
1699.9
1703.59
1748.25
1768.03
1828.85
1934.96
2056.22
1993.8
1937.1
1938.59
2096.41
2517.77
2491.63
2093.41
1934.06
1901.77
1953.53
2021.72
1983.59
1859.2
1785.13
1713.21
1698.3
1672.15
1672.27
1672.48
1695.02
1708.25
1781.16
1864.02
2013.7
2032.76
1944.16
1904.74
1935.38
2092.88
2495.35
2458.39
2070.58
1920.91
1888.37
1923.58
2010.09
2070.29
1884.66
1787.58
1751.8
1696.09
1672.33
1657.39
1671.24
1689.24
1752.38
1784.87
1880.88
2067.66
2012.09
1915.07
1889.95
1923.34
2074.83
2469.46
2444.11
2069.43
1921.16
1864.93
1886.28
1978.35
2046.5
1958.98
1817.72
1719.83
1697.47
1657.1
1651.5
1657.63
1691.48
1712.47
1816.55
1962.11
2047.13
1977.57
1879.2
1873.04
1920.99
2064.67
2454.9
2410.75
2047.01
1906.14
1863.23
1868.12
1935.35
2030.65
2051.71
1853.59
1767.69
1699.87
1673.92
1652.5
1673.69
1694.95
1771.66
1869.52
2049.87
2030.78
1935.23
1863.79
1868.62
1907.16
2048.64
2418.83
2377.59
2037.08
1901.18
1845.51
1844.51
1900.44
2006.72
2030.39
1954.99
1748.36
1708.7
1659.04
1655.24
1659.47
1704.93
1743.61
1978.72
2032.32
2009.42
1903.58
1842.9
1854.46
1901.29
2039.63
2390.67
2255.59
1988.49
1874.95
1844.22
1839
1865.33
1962.84
2017.88
2010.29
1851.25
1729.97
1686.01
1662.42
1685.51
1726.32
1850.82
2010.73
2020.58
1967.48
1870.54
1837.93
1848.68
1874.78
1989.79
2267.75
280.604
280.886
281.255
281.612
282.067
282.235
282.481
282.795
283.193
283.779
284.355
284.927
285.379
285.889
286.438
286.523
286.487
286.768
288.381
298.148
340.801
349.281
350.149
351.213
351.411
351.322
351.79
352.487
355.268
366.44
281.045
281.286
281.712
282.191
282.699
282.971
283.333
283.72
284.113
284.572
284.969
285.434
286.007
286.557
286.915
287.063
287.442
288.691
295.334
330.753
346.318
351.478
352.542
352.409
351.436
350.421
350.059
350.297
353.135
360.83
281.484
281.886
282.342
282.962
283.49
283.84
284.294
284.588
284.859
285.214
285.618
286.178
286.756
287.207
287.458
287.887
288.792
292.438
314.279
344.834
349.115
350.441
350.136
349.256
348.468
348.173
348.416
349.347
352.416
358.652
282.149
282.58
283.067
283.751
284.259
284.61
284.843
285.031
285.309
285.688
286.109
286.651
287.164
287.526
287.771
288.605
290.643
300.759
341.659
349.393
350.479
350.352
348.797
347.53
346.999
346.885
347.203
347.821
350.534
354.568
282.872
283.301
283.842
284.46
284.867
285.04
285.199
285.365
285.71
286.161
286.475
286.979
287.467
287.701
288.137
289.622
294.748
323.299
349.618
352.512
351.498
350.221
348.051
346.646
345.917
345.679
345.769
346.244
349.427
352.746
283.623
284.174
284.693
285.085
285.306
285.43
285.661
285.983
286.295
286.54
286.818
287.282
287.531
287.686
288.865
291.915
306.107
348.508
354.868
354.811
352.366
350.105
347.851
346.285
345.354
344.959
344.977
345.509
348.61
350.209
284.48
285.173
285.489
285.654
285.831
286.112
286.464
286.632
286.741
286.909
287.064
287.116
287.237
288.136
290.047
297.975
338.152
358.507
358.891
356.401
353.37
350.243
347.869
346.257
345.138
344.621
344.565
344.983
347.697
348.476
285.372
286.154
286.173
286.211
286.54
286.714
286.959
287.091
287.117
287.053
286.928
287.081
287.585
288.843
293.418
320.346
361.077
363.588
361.737
357.906
354.398
350.445
348.052
346.268
345.057
344.381
344.242
344.484
346.822
347.125
286.255
286.986
286.836
286.838
286.963
287.136
287.351
287.457
287.321
287.17
287.267
287.507
288.172
290.895
306.383
361.1
368.576
367.032
363.855
359.689
355.429
351.022
348.182
346.308
344.901
343.994
343.744
343.934
346.032
346.008
287.111
287.716
287.467
287.365
287.328
287.494
287.706
287.871
287.84
287.701
287.811
288.126
289.683
299.928
353.07
372.846
373.238
369.362
366.009
361.911
356.329
351.718
348.513
346.248
344.586
343.353
342.927
343.064
345.072
344.787
287.851
288.083
287.748
287.688
287.702
287.926
288.271
288.44
288.459
288.464
288.772
289.81
297.362
344.088
376.833
379.148
376.765
371.875
368.584
364.574
357.354
352.497
348.878
346.25
344.126
342.528
341.941
342.099
344.119
343.738
288.096
288.236
287.954
288
288.203
288.604
289.071
289.482
290.038
290.882
292.559
298.845
340.321
380.055
384.555
383.854
379.905
375.004
371.815
367.224
358.78
353.306
349.233
346.275
343.67
341.77
341.087
341.347
343.214
342.554
288.181
288.334
288.11
288.359
288.931
289.804
291.256
293.629
297.221
301.66
310.096
344.898
381.871
389.318
389.728
388.138
383.792
378.195
374.727
369.57
360.2
354.038
349.553
346.237
343.258
341.144
340.423
340.789
342.34
341.456
288.202
288.202
288.318
289.116
290.773
294.326
301.197
312.028
331.462
346.759
361.292
380.73
391.934
395.388
395.487
393.578
387.128
380.187
376.811
372.128
361.591
354.673
349.878
346.163
342.785
340.596
339.888
340.351
341.547
340.569
288.077
288.12
288.967
291.644
298.886
315.09
346.366
366.459
373.189
376.833
382.337
393.338
400.486
403.68
403.263
398.456
389.164
382.415
379.354
374.264
363.039
355.332
350.261
346.122
342.327
340.127
339.458
339.908
340.735
339.553
287.877
288.492
291.666
303.499
339.935
375.126
389.001
396.677
399.72
400.979
404.909
411.202
413.04
413.775
410.695
402.623
391.611
385.03
381.516
375.843
364.318
356.058
350.629
346.02
341.952
339.736
339.091
339.498
339.946
338.58
288.111
290.631
304.621
357.927
393.592
416.075
434.393
442.726
444.457
443.137
443.293
438.38
431.027
426.449
419.132
406.716
394.21
387.241
382.632
376.444
365.326
356.69
350.768
345.799
341.556
339.4
338.793
339.103
339.272
337.733
289.951
302.321
363.026
408.685
448.302
490.087
519.041
527.878
526.049
515.683
501.354
478.428
456.324
440.725
427.333
409.561
396.653
388.455
382.839
376.313
365.633
356.953
350.718
345.431
341.133
339.122
338.574
338.736
338.718
336.964
297.544
351.872
415.62
484.134
562.901
634.335
668.737
673.284
659.041
630.532
585.277
533.899
487.654
455.23
434.149
412.886
398.062
389.079
382.571
375.397
365.443
356.732
350.52
344.901
340.753
338.923
338.439
338.457
338.225
336.181
333.679
410.549
504.681
650.481
781.432
866.109
890.825
887.674
859.263
790.919
691.04
598.534
522.758
471.625
441.138
417.772
400.115
389.776
382.225
374.214
364.694
356.299
349.931
344.401
340.431
338.785
338.308
338.165
337.668
335.307
403.65
497.144
720.493
943.014
1073.86
1145.54
1181.2
1170.28
1106.89
985.088
817.99
669.667
563.234
488.021
449.926
422.951
401.47
390.253
381.477
372.749
363.467
355.806
349.089
343.845
340.145
338.676
338.112
337.799
337.025
334.422
476.281
706.406
1098.3
1217.71
1361.84
1419.36
1394.61
1308.16
1211.28
1094.81
940.126
741.576
603.455
507.672
461.628
426.894
401.99
390.078
379.954
371.773
361.692
354.811
348.113
343.295
339.989
338.628
337.905
337.418
336.358
333.504
611.893
1142.51
1371.43
1460.8
1567.37
1530.48
1428.71
1312.85
1212.41
1107.42
975.031
806.341
638.145
527.171
471.6
429.722
403.212
390.529
378.875
371.612
359.546
354.302
347.482
343.036
339.853
338.54
337.708
337.091
335.789
332.692
676.413
1456.84
1484.99
1642.99
1633.52
1535.32
1396.86
1264.61
1156.82
1080.52
973.844
830.671
675.469
541.129
476.056
431.027
403.483
389.814
378.493
370.785
359.05
354.099
347.443
343.366
339.9
338.412
337.459
336.746
335.363
332.128
902.253
1585.91
1526.21
1692.53
1661.3
1545.08
1388.33
1229.06
1103.85
1025.21
943.429
831.545
701.607
548.123
476.968
431.67
404.185
389.695
379.033
369.625
359.08
354.414
347.734
343.492
339.82
338.246
337.316
336.377
334.942
331.741
366.643
355.347
352.558
351.851
351.371
351.445
351.236
350.139
349.207
340.24
298.032
288.592
287.048
286.841
287.016
286.916
286.247
285.751
285.228
284.65
284.128
283.553
283.162
282.828
282.563
282.358
281.878
281.484
281.108
280.777
361.015
353.166
350.312
350.049
350.414
351.446
352.418
352.539
351.486
346.322
329.747
295.53
289.079
287.93
287.616
287.451
286.994
286.31
285.705
285.216
284.932
284.546
284.2
283.877
283.378
283.016
282.465
281.942
281.507
281.212
358.827
352.45
349.358
348.408
348.163
348.461
349.264
350.228
350.643
349.503
345.177
313.992
292.849
289.359
288.464
287.997
287.689
287.142
286.501
285.945
285.604
285.303
285.04
284.752
284.407
283.863
283.254
282.579
282.115
281.668
354.702
350.557
347.844
347.203
346.88
347.004
347.606
348.977
350.565
351.053
350.406
342.142
301.177
291.278
289.249
288.287
288.016
287.566
287.005
286.512
286.138
285.752
285.462
285.173
284.937
284.693
284.088
283.33
282.843
282.384
352.86
349.473
346.275
345.775
345.67
345.935
346.756
348.34
350.613
352.109
353.622
350.819
324.057
295.484
290.274
288.647
288.21
287.881
287.351
286.899
286.581
286.191
285.784
285.516
285.282
285.17
284.83
284.173
283.616
283.156
350.298
348.646
345.548
345.012
344.994
345.424
346.449
348.179
350.648
353.068
355.742
356.294
350.369
307.25
292.524
289.359
288.09
287.96
287.668
287.252
286.929
286.634
286.299
285.948
285.694
285.569
285.423
285.072
284.556
283.958
348.552
347.774
345.026
344.623
344.693
345.269
346.516
348.284
350.923
354.159
357.291
359.85
359.473
339.785
298.707
290.512
288.534
287.551
287.448
287.431
287.26
287.007
286.882
286.679
286.289
286.069
285.98
285.871
285.602
284.878
347.203
346.904
344.563
344.324
344.491
345.246
346.598
348.491
351.141
355.279
358.85
362.505
364.336
361.815
321.591
293.984
289.241
287.861
287.369
287.19
287.242
287.3
287.296
287.15
286.996
286.671
286.461
286.527
286.595
285.777
346.085
346.126
344.041
343.876
344.164
345.167
346.682
348.689
351.661
356.399
360.617
364.567
367.647
369.241
362.157
307.504
291.356
288.452
287.778
287.548
287.45
287.545
287.659
287.541
287.415
287.318
286.972
287.081
287.375
286.612
344.872
345.178
343.204
343.124
343.603
344.911
346.684
349.085
352.413
357.337
362.854
366.739
369.943
373.836
373.537
354.977
300.931
290.066
288.426
288.113
287.985
288.088
288.117
287.942
287.793
287.687
287.517
287.644
287.981
287.353
343.884
344.273
342.278
342.193
342.841
344.527
346.746
349.512
353.244
358.304
365.469
369.314
372.476
377.281
379.704
377.635
347.25
298.501
290.35
289.191
288.826
288.76
288.725
288.529
288.218
288.073
287.999
287.977
288.256
287.969
342.803
343.439
341.573
341.397
342.133
344.164
346.807
349.903
354.089
359.702
367.912
372.433
375.624
380.423
384.406
385.201
381.045
344.704
300.603
293.748
291.749
290.682
289.932
289.393
288.911
288.548
288.344
288.192
288.4
288.249
341.757
342.616
341.067
340.785
341.568
343.805
346.802
350.248
354.866
361.195
370.089
375.046
378.712
384.371
388.827
390.398
389.94
382.713
349.358
316.57
304.553
299.526
295.156
292.171
290.351
289.326
288.723
288.397
288.509
288.333
340.902
341.876
340.678
340.278
341.051
343.348
346.761
350.601
355.512
362.533
372.63
377.031
380.532
387.642
394.327
396.266
396.029
392.163
380.836
363.771
353.246
339.648
320.299
304.494
296.075
291.6
289.58
288.667
288.446
288.36
339.95
341.117
340.277
339.843
340.575
342.9
346.727
350.966
356.119
363.983
374.662
379.577
382.715
389.611
399.094
404.044
404.461
400.897
393.911
383.262
378.686
375.818
370.865
355.433
324.131
301.787
292.736
289.439
288.482
288.287
338.983
340.358
339.893
339.486
340.173
342.481
346.678
351.299
356.797
365.241
375.994
381.645
385.195
392.001
403.301
411.46
414.532
413.72
413.202
406.947
403.695
402.957
400.6
393.398
380.163
350.286
307.393
292.924
288.975
288.248
338.138
339.688
339.505
339.181
339.835
342.087
346.461
351.421
357.351
366.008
376.459
382.531
387.209
394.468
407.355
419.874
427.45
432.393
442.346
447.755
448.687
450.866
449.191
441.179
422.512
398.85
367.757
309.044
291.849
288.584
337.361
339.133
339.159
338.967
339.554
341.651
346.08
351.356
357.523
366.104
376.195
382.613
388.178
396.72
410.168
428.142
442.014
458.698
485.149
509.689
525.504
537.968
539.953
531.461
502.672
458.19
415.529
373.516
306.508
291.075
336.609
338.669
338.91
338.836
339.344
341.239
345.503
351.138
357.272
365.648
375.158
382.265
388.67
397.981
413.547
434.812
457.514
490.786
543.82
599.48
646.935
678.37
692.089
688.872
656.638
583.598
499.334
424.093
362.445
300.83
335.77
338.162
338.647
338.703
339.167
340.873
344.923
350.595
356.792
364.52
373.898
381.9
389.33
400.116
418.542
441.598
475.303
527.476
610.214
713.143
816.041
888.398
916.521
916.997
894.585
816.648
682.331
523.333
419.171
343.777
334.909
337.529
338.292
338.536
339.037
340.553
344.313
349.634
356.387
363.076
372.228
381.134
389.679
401.444
423.734
450.297
493.128
569.893
682.595
847.214
1017.94
1137.3
1204.4
1215.21
1175.35
1112.5
988.868
760.504
516.582
416.645
333.992
336.822
337.874
338.299
338.925
340.274
343.632
348.571
355.228
361.546
371.402
379.44
389.388
401.878
427.946
462.154
513.611
612.457
757.716
960.873
1112.35
1222.32
1317.38
1405.92
1437.84
1391.47
1254.03
1144.79
751.56
492.477
333.122
336.189
337.483
338.061
338.824
340.131
343.328
347.807
354.516
359.667
371.347
378.356
389.966
403.12
431.457
472.056
531.764
648.103
818.109
987.707
1121.04
1220.83
1315.31
1427.85
1535.5
1580.82
1489.11
1401.52
1207.09
638.642
332.472
335.72
337.085
337.775
338.636
340.083
343.47
347.689
354.297
359.142
370.853
377.933
389.393
403.406
432.377
477.073
544.374
686.359
834.365
981.823
1089.84
1158.68
1266.16
1398.11
1542.26
1641.03
1649.22
1506.59
1496.17
699.413
332.045
335.275
336.675
337.583
338.437
339.967
343.455
347.973
354.503
359.221
369.693
378.289
389.312
404.012
432.266
478.851
551.959
711.881
834.647
948.487
1030.97
1107.84
1235.63
1390.88
1547.15
1662.53
1699.42
1547.13
1607.02
918.504
297.406
634.452
1081.31
1147.05
1153
1166.98
1178.57
1180.35
1167.46
1118.5
1098.22
1090.32
1076.74
1053.57
1018.96
989.154
979.119
976.963
975.647
971.846
968.139
966.29
958.694
952.504
946.58
938.264
930.509
923.356
915.517
907.053
899.471
892.646
885.144
878.752
874.058
870.408
867.039
865.193
863.41
860.19
856.513
852.799
849.509
844.511
836.826
826.807
813.083
795.64
777.153
759.223
741.578
724.921
709.568
692.883
678.068
664.402
651.011
638.373
625.879
613.574
602.184
591.417
581.167
571.424
562.621
554.534
547.304
540.622
534.282
528.264
522.27
516.054
509.543
502.974
496.491
490.151
483.978
477.989
472.026
466.253
460.777
455.549
450.553
445.649
440.659
435.623
430.734
425.962
421.314
416.821
412.539
408.54
404.811
401.321
398.028
394.865
391.77
388.691
385.592
382.437
379.237
376.013
372.825
369.735
366.762
363.818
360.939
358.089
355.15
352.248
349.474
346.873
344.457
342.103
339.823
337.787
336.029
334.83
334.05
332.944
332.224
331.815
331.617
331.646
331.775
294.101
615.938
1070.7
1132.23
1127.74
1135.92
1153.37
1158.63
1122.87
1068.39
1029.31
1005.48
986.455
954.717
936.714
933.893
935.861
942.583
951.311
954.412
954.387
955.603
954.378
949.841
944.871
939.453
933.807
928.313
922.468
916.653
912.113
907.965
903.132
899.441
898.211
898.27
899.128
900.061
902.386
908.691
917.909
929.743
940.556
943.87
942.966
934.601
914.618
884.924
851.579
817.197
786.902
760.893
740.551
718.506
699.609
681.725
665.007
649.467
635.256
621.966
609.845
599.001
588.757
579.394
570.822
562.926
555.844
549.371
543.259
537.373
531.405
525.165
518.518
511.761
505.094
498.48
491.991
485.635
479.358
473.318
467.576
462.134
456.913
451.749
446.579
441.388
436.366
431.463
426.676
422.033
417.586
413.381
409.433
405.706
402.177
398.81
395.506
392.233
388.943
385.57
382.15
378.725
375.314
371.954
368.717
365.568
362.556
359.627
356.676
353.799
351.072
348.538
346.195
343.931
341.849
339.99
338.411
337.55
336.688
335.787
335.159
334.818
334.678
334.748
334.937
285.252
538.583
1022.47
1128.38
1136.9
1151.71
1167.13
1166.37
1101.8
1034.84
990.935
963.245
936.556
915.156
910.741
914.309
923.001
937.316
955.845
971.765
978.361
979.953
978.694
972.642
964.785
957.566
951.217
945.714
940.815
936.387
934.645
934.247
934.18
935.292
939.134
945.66
956.516
975.017
1000.58
1034.99
1085.5
1156.75
1237.93
1292.32
1305.81
1295.55
1246.34
1166.41
1069.54
980.885
906.37
847.473
803.117
765.863
734.276
707.674
684.758
666.847
651.693
637.607
624.474
612.44
600.626
589.664
580.562
572.495
565.163
558.074
551.033
544.435
538.216
531.852
524.99
518.103
511.389
504.823
498.333
491.94
485.615
479.475
473.72
468.201
462.849
457.608
452.446
447.255
442.161
437.177
432.325
427.637
423.101
418.92
415.152
411.672
408.364
405.135
401.855
398.514
395.119
391.629
387.958
384.175
380.451
376.843
373.401
370.035
366.795
363.716
360.72
357.889
355.174
352.588
350.063
347.655
345.218
343.07
341.126
340.204
338.982
337.827
337.1
336.664
336.37
336.3
336.414
278.505
431.463
926.823
1102.39
1119.88
1140.54
1165.39
1166.46
1104.67
1046.16
996.005
951.847
918.524
905.606
907.935
920.872
944.063
971.946
980.924
980.404
978.269
981.668
982.387
982.031
981.502
977.946
973.094
971.787
971.287
971.028
972.265
975.903
983.201
993.681
1010.44
1039.11
1086.15
1162.05
1279.42
1454.41
1674.19
1898.73
2069.66
2136.9
2149.91
2131.14
2068.23
1943.91
1764.42
1543.86
1315.96
1107.32
962.937
870.14
807.453
760.487
722.536
693.212
670.815
654.758
641.511
629.396
617.229
605.588
595.36
585.796
577.173
570.099
563.881
557.543
550.535
543.173
535.838
528.55
521.326
514.149
507.241
500.679
494.331
488.184
482.155
476.412
470.855
465.298
459.754
454.314
449.129
444.198
439.466
434.912
430.669
426.718
422.96
419.302
415.761
412.241
408.698
405.098
401.421
397.702
393.92
390.143
386.401
382.699
379.089
375.482
371.955
368.498
365.076
361.848
358.896
356.12
353.464
350.902
348.544
346.4
344.329
343.19
341.637
340.274
339.329
338.564
338.05
337.655
337.535
275.351
335.291
772.278
1070.76
1099.83
1120.16
1153.87
1158.63
1117.37
1065.23
996.141
929.543
902.467
897.393
907.054
935.081
969.071
972.216
972.25
973.958
980.041
986.797
990.618
996.564
1004.3
1011.78
1015.01
1016.65
1020.76
1029.88
1040.77
1052.24
1072.37
1108.27
1169.08
1271.94
1442.77
1708.96
2067.46
2328.31
2402.03
2409.46
2402.39
2385.07
2362.47
2332.23
2289.15
2273.63
2203.39
2084.4
1910.66
1685.64
1420.43
1198.28
1029.07
898.524
811.01
752.478
711.816
682.667
661.703
645.642
632.481
622.002
612.483
603.422
595.444
588.27
582.141
576.434
570.808
564.608
557.498
550.095
542.308
534.006
526.101
518.435
510.58
503.12
496.247
489.838
483.737
477.753
471.846
465.893
459.998
454.186
448.672
443.594
438.776
434.273
429.903
425.749
421.815
418.119
414.467
410.849
407.192
403.474
399.64
395.653
391.646
387.589
383.609
379.758
376.221
372.876
369.648
366.538
363.411
360.262
357.194
354.239
351.773
349.053
346.607
344.942
343.195
341.778
340.695
339.833
339.145
338.624
338.418
274.363
289.63
573.34
1006.74
1088.13
1121.05
1147.54
1140.48
1106.06
1049.75
957.996
898.999
889.788
895.705
937.215
964.601
967.493
968.197
976.359
987.657
995.946
1002.13
1013.1
1021.07
1029.82
1042.26
1059.13
1073.44
1087.49
1107.33
1132.53
1171.28
1239.91
1357.18
1561.66
1880.72
2265.77
2424.88
2454.47
2459.6
2445.23
2423.54
2402.52
2371.6
2337.93
2292.98
2255.7
2239.29
2233.89
2200.62
2130.32
2002.87
1810.05
1592.32
1374.7
1181.35
1016.37
891.226
798.35
738.392
702.309
677.848
658.182
641.409
629.075
619.539
611.797
605.783
599.961
595.524
591.894
588.403
583.851
578.079
571.892
565.274
557.8
549.58
541.048
532.566
524.005
515.41
507.009
498.88
491.106
483.568
476.155
468.866
461.899
455.377
449.335
443.875
439.09
434.852
430.796
426.694
422.568
418.279
413.878
409.407
405.037
400.836
396.852
392.998
389.139
385.326
381.754
378.25
374.834
371.59
368.419
365.243
362.129
358.887
356.001
353.347
350.97
348.66
346.566
344.893
343.564
342.498
341.543
340.709
340.186
274.102
278.917
436.576
915.216
1092.13
1131.12
1132.84
1106.42
1069.97
996.913
907.248
883.585
889.381
926.458
950.892
958.983
964.606
977.137
989.184
1005.22
1021.46
1032.97
1039.54
1054.19
1079.41
1107.26
1136.8
1171.75
1212.16
1255.75
1323.55
1438.04
1634.91
1924.9
2266.21
2420.37
2462.04
2466.56
2448.66
2437.77
2436.47
2434.61
2422.13
2388.4
2348.32
2299.47
2251.75
2214.18
2194.44
2179.31
2148.21
2090.25
1992.59
1849.66
1678.18
1490.56
1307.41
1133.78
978.968
856.051
782.562
742.874
711.541
681.287
663.308
652.314
641.748
631.86
626.304
624.706
623.555
621.023
618.545
615.236
610.749
606.05
600.373
593.587
585.985
577.449
567.988
558.009
547.439
536.458
525.368
514.459
503.939
493.556
483.563
474.624
466.643
459.551
452.919
446.797
441.202
435.756
430.583
425.717
421.133
416.866
412.678
408.327
403.781
399.246
394.961
391.031
387.544
384.18
381.056
377.909
374.621
371.433
368.196
364.856
361.776
358.928
355.835
353.245
350.817
348.739
346.876
345.838
344.962
344.149
343.68
274.021
275.228
329.677
755.504
1080.75
1136.72
1115.02
1081.99
1013.49
917.146
894.541
902.393
930.318
946.2
965.26
976.973
982.686
992.2
1008.72
1022.01
1033.9
1052.34
1074.19
1103.09
1144.25
1201.43
1267.08
1340.76
1424.02
1520.68
1657.35
1863.2
2127.17
2348.91
2426.52
2440.34
2431.73
2415.64
2414.65
2424.1
2437.14
2441.04
2432.92
2408.65
2381
2360.5
2320.07
2269.05
2223.99
2188.85
2152.11
2103.81
2046.7
1961.67
1853.47
1714.23
1559.6
1400.26
1227.66
1058.06
938.94