/*--------------------------------*- C++ -*----------------------------------*\
| =========                 |                                                 |
| \\      /  F ield         | OpenFOAM: The Open Source CFD Toolbox           |
|  \\    /   O peration     | Version:  2112                                  |
|   \\  /    A nd           | Website:  www.openfoam.com                      |
|    \\/     M anipulation  |                                                 |
\*---------------------------------------------------------------------------*/
FoamFile
{
    version     2.0;
    format      ascii;
    arch        "LSB;label=32;scalar=64";
    class       volScalarField;
    location    "0.00167";
    object      k;
}
// * * * * * * * * * * * * * * * * * * * * * * * * * * * * * * * * * * * * * //

dimensions      [0 2 -2 0 0 0 0];

internalField   nonuniform List<scalar> 
13875
(
812.077
3462.91
3539.98
3539.54
3542.56
3540.49
3540.68
3540.75
3541.41
3542.47
3540.77
3540.63
3540.39
3540.85
3540.91
3541.77
3542.36
3540.4
3539.74
3540.01
3542.36
3539.08
3540.02
3461.72
820.415
881.704
2937.23
3013.09
3001.2
3001.11
2997.6
2996.88
2996.93
2997.33
2996.12
2996.81
2996.38
2996.2
2996.47
2996.5
2997.89
2996.29
2995.19
2995.57
2997.19
3000.83
2999.34
3011.63
2934.75
894.329
993.368
2711.72
2777.86
2755.97
2756.94
2754.13
2752.87
2751.83
2744.59
2741.36
2743.46
2751.36
2751.76
2751.81
2751.17
2744.63
2743.72
2748.9
2751.01
2753.72
2757.01
2753.08
2774.51
2707.16
998.134
1091.18
2534.49
2581.41
2562.07
2564.83
2562.27
2560.71
2559.56
2549.76
2547.65
2548.76
2559.18
2559.67
2559.75
2558.96
2549.4
2550.12
2556.36
2558.93
2561.83
2564.91
2559.35
2579.11
2529.76
1093.79
1172.44
2381.26
2413.67
2393.32
2395.99
2393.66
2392.13
2390.59
2380.51
2379.48
2379.84
2390.45
2391.07
2391.21
2390.18
2380.21
2381.36
2387
2390.37
2393.25
2396.15
2391.03
2410.45
2375.58
1177.38
1241.75
2238.55
2271.77
2245.45
2249.08
2246.13
2244.12
2241.73
2231.08
2231.09
2230.56
2241.54
2242.42
2242.65
2241.19
2230.61
2232.49
2237.65
2242.36
2245.82
2249.24
2243.76
2267.84
2247.44
1247.47
1322.23
2124.1
2159.71
2121.32
2121.41
2116.74
2113.59
2110
2098.9
2099.84
2098.45
2109.92
2111.18
2111.44
2109.29
2098.13
2101.18
2105.73
2111.86
2116.44
2121.28
2119.88
2154.25
2096.1
1323.93
1414.81
2006.2
2077.11
2022.17
2016.15
2006.96
2000.75
1995.11
1983.26
1984.78
1982.14
1994.01
1996.09
1996.37
1993.49
1981.52
1986.15
1990.17
1998.62
2005.92
2014.79
2019.48
2068.7
1993.18
1421.34
1699.42
2036.84
2028.25
1950.2
1928.69
1914.44
1904.77
1896.35
1884.36
1886.22
1882.2
1894.41
1897.45
1897.66
1894.02
1881.68
1887.57
1891.27
1901.86
1912.75
1926.86
1944.44
2019.48
2035.49
1719.26
2545.83
2320.4
2036.41
1910.62
1873.95
1848.03
1833.09
1821.24
1810.93
1811.96
1808.02
1819.42
1823.24
1823.3
1819.31
1808.06
1813.05
1816.74
1828.33
1844.13
1868.21
1899.72
2016.25
2271.86
2532.84
3931.31
3050.13
2154.56
1956.68
1856.03
1813.45
1791.94
1776.43
1767.72
1767.44
1764.28
1773.68
1778.06
1778.04
1774.3
1765.81
1768.87
1772.85
1785.93
1806.1
1844.58
1930.64
2149.15
2957.13
3875.97
5150.88
6173.53
3245.98
2132.15
1941.15
1841.34
1796.42
1775.62
1765.45
1762.95
1760.41
1766.57
1770.84
1770.74
1768.15
1763.2
1765.92
1772.32
1789.01
1827.99
1906.59
2026.65
2891.6
6341.09
5129.78
5033.88
6480.44
8465.26
4923.56
2310.78
1977.7
1908.99
1877.21
1865.33
1866.19
1859.35
1867.6
1868.1
1869.15
1867.46
1865.68
1869.34
1877.49
1899.27
1965.31
2254.32
3677.66
7252.25
7124.65
5021.75
4771.61
5629.52
7462.61
10631.5
6085.05
3027.26
2748.09
2484.54
2434.17
2343.63
2411.09
2299.02
2412.51
2321.95
2351.33
2344.5
2380.25
2443.63
2652.81
3003.43
6189.25
8939.67
7211.14
6085.53
4871.21
4564.3
5085.1
6318.57
8309.01
7318.87
5927.21
6432.75
6019.63
6024.57
5647.01
6230.2
5592.02
6255.94
5845.07
5871.25
5749.3
5730.68
5882.84
6527.1
6054.98
7204.52
7472.38
6267.73
5422.72
4806.54
4365.78
4762.34
5991.42
7443.35
7389.87
9199.01
9004.16
6800.13
6268.52
6461.98
6301.24
6550.96
6432.28
6620.62
6377.44
6516.67
6288.81
6466.45
7644.18
9896.79
8016.49
7082.37
5867.82
4999.63
4640.2
4131.36
4685.81
5939.04
7173.39
7143.83
9349.89
7702.27
5475.5
5058.28
5035.85
5043.61
5085.25
5104.85
5138.43
5015.45
5095.32
5024.56
5175.13
6363.88
9701.55
8001.3
7132.79
6024.2
4854.83
4295.21
3647.98
4839.65
5847.1
6172.5
6092.16
7927.15
6712.1
5015.89
4434.08
4265.76
4229.07
4207.64
4242.04
4244.13
4199.34
4307.5
4367.09
4681.82
5935.53
7841.49
6656.96
6246.84
6038.83
5107.78
3782.99
3107.68
4829.32
5441.12
5362.53
5160.51
6196.46
6086.93
5086.2
4301.97
3875.79
3695.42
3607.76
3626.29
3622.79
3633.16
3800.18
4064.92
4676.45
5711.36
6273.25
5467.83
5452.16
5564.4
5147.05
3273.3
2880.33
4605.37
4779.47
4701.53
4536.37
5144.88
5456.76
5008.85
4250.55
3659.84
3342.19
3186.87
3180.31
3189.75
3275.46
3555.44
4028.66
4737.53
5323.91
5257.01
4731.13
4764.06
4847.09
4668.49
3030.11
3207.39
3975.67
4148.84
4146.6
4041.11
4492.31
4891.75
4687.48
4043.67
3426.15
3038.16
2834.97
2809.11
2838.24
2988.17
3344.28
3880.44
4515.24
4854.83
4616.49
4198.02
4209.38
4187.12
3973.38
3368.2
4091.52
3966.86
3753.62
3753.37
3665.2
4028.1
4399.63
4299.65
3755.25
3161.02
2752.63
2530.18
2491.43
2531.83
2710.26
3087.53
3612.75
4160.87
4399.87
4163.25
3807.02
3808.31
3755.47
3956.81
4132.32
4769.97
4382.49
3488.82
3406.34
3343.34
3640.74
3963.36
3907.13
3439.45
2890.43
2489.36
2263.59
2217.82
2259.8
2441.94
2810.16
3296.65
3770.99
3966.91
3769.26
3466.73
3457.79
3469.9
4335.64
4734.64
4918.81
4405.48
3234.45
3111.48
3059.33
3286.55
3570.57
3535.46
3104.93
2601.58
2235.57
2025.94
1983.45
2026.69
2201.42
2543.27
2984.58
3409.66
3576.22
3401.11
3179.16
3183.78
3235.75
4321.64
4845.68
4991.33
4328.86
3012.88
2870.49
2816.63
2986.96
3229.25
3197.1
2806.19
2350.37
2014.61
1823.88
1785.54
1826.2
1989
2304.56
2709.21
3084.84
3228.52
3083.12
2924.7
2951.26
3038.91
4280.5
4923.43
5064.94
4292.38
2855.61
2679.59
2612.24
2737.46
2930.3
2884.92
2532.14
2127.98
1825.55
1651.99
1614.84
1653.13
1801.8
2085.6
2444.48
2776.15
2914.22
2813.16
2705.24
2757.05
2882.86
4174.12
4984.39
5138.36
4259.91
2724.97
2523.78
2441.27
2525.97
2662.45
2596.68
2279.88
1925.05
1655.96
1503.55
1469.91
1505.53
1642.11
1899.92
2221.36
2513.67
2647.34
2587.12
2522.9
2600.57
2760.85
4168.93
5072.49
5239.43
4227.83
2625.01
2388.11
2301.99
2349
2432.98
2347.45
2062.12
1752.21
1513.74
1376.95
1344.69
1378.18
1502.28
1730.69
2013.36
2273.24
2409.53
2395.19
2372.18
2459.18
2651.29
4119.21
5162.4
5419.38
4135.84
2532.15
2263.2
2179.77
2198.69
2233.98
2133.11
1875.79
1602.5
1389.59
1267.57
1237.08
1267.82
1377.58
1579.98
1830.67
2062.09
2200.15
2228.78
2235.55
2325.05
2555.73
3974.35
5242.66
5492.6
4020
2451.98
2148.96
2063.1
2062.31
2053.53
1934.55
1700.98
1464.25
1278.52
1171.61
1143.07
1172.77
1273.86
1453.88
1676.61
1887.55
2027.57
2085.95
2110.55
2207.84
2477.01
3886.01
5433.73
5468.73
3930.74
2397.91
2058.12
1954.78
1936.96
1899.82
1772.48
1559.4
1349.33
1183.47
1088.28
1061.68
1089.4
1178.96
1339.02
1539.04
1731.4
1871.98
1950.57
1990.48
2109.44
2405.49
3797.22
5457.68
5452.43
3868.51
2357.32
1993.53
1854.75
1821.99
1766.72
1632.44
1436.78
1249.44
1101.69
1015.8
989.998
1016.31
1097.01
1238.76
1418.89
1596.42
1737.47
1827.77
1883.29
2031.89
2354.03
3715.39
5398.05
5388.95
3753.95
2343.55
1942.52
1767.63
1712.79
1642.47
1506.36
1327.41
1159.65
1026.98
950.937
927.129
952.387
1025.76
1154.33
1319.14
1482.81
1619.47
1716.05
1791.23
1970.59
2320.8
3659.18
5389.3
5375.47
3638.51
2334.68
1915.65
1696.32
1617.67
1534.13
1399.66
1233.92
1082.78
963.724
894.534
871.476
895.656
962.263
1077.09
1227.04
1380.26
1512.77
1617.11
1715.36
1930.44
2322.4
3570.05
5355.29
5373.06
3550.92
2283.45
1897.7
1643.8
1532.53
1436.74
1306.44
1154.36
1016.83
907.103
844.363
822.358
845.148
905.672
1010.85
1148.56
1290.74
1417.29
1529.76
1658.42
1909.91
2300.37
3476.54
5323.63
5308.56
3414.02
2207.52
1885.13
1605.61
1460.07
1350.05
1220.77
1080.15
955.193
856.399
799.525
778.591
800.982
857.199
952.831
1079.73
1213.25
1336.61
1458.47
1616.68
1903.06
2239.89
3399.93
5291.85
5267.67
3304.41
2134.94
1902.17
1582.64
1404.29
1276.03
1147.41
1017.1
902.905
811.696
759.63
739.59
760.895
812.063
900.466
1016.85
1142.03
1263.62
1401.9
1587.59
1914
2162.24
3281.12
5237.63
5250.57
3208.47
2062.51
1896.44
1577.66
1363.03
1216.12
1084.5
960.724
855.247
772.082
724.04
704.682
725.282
772.103
852.516
960.793
1081.38
1205.9
1361.25
1583.09
1910.14
2085.92
3171.72
5220.48
5203.82
3097.11
1965.74
1842.61
1581.49
1331.24
1168.98
1029.61
910.094
812.148
735.203
691.344
673.124
693.1
736.412
811.551
913.043
1030.77
1163.22
1331.03
1590.02
1867.23
2005.87
3088.21
5219.02
5181.33
3008.7
1870.18
1785.04
1622.55
1317.08
1134.56
987.417
867.218
774.558
702.908
662.108
644.467
663.707
703.754
773.293
869.543
988.848
1129.44
1311.82
1627.99
1810.73
1906.31
2996.97
5192
5171.72
2949.99
1792.51
1718.19
1633.28
1321.99
1108.72
955.93
832.518
741.899
673.754
635.467
618.476
636.728
674.243
739.957
833.966
957.435
1105.45
1315.95
1641.35
1745.81
1816.06
2931.6
5181.06
5132.67
2884.45
1713.73
1641.36
1591.89
1350.13
1092.97
930.634
804.195
713.113
647.069
611.048
594.723
612.631
648.267
712.6
806.436
933.408
1095.02
1347.81
1601.45
1673.29
1756.59
2899.8
5186.87
5109.09
2836.03
1655.79
1564.48
1534.85
1392.6
1101.07
913.213
784.509
689.437
624.139
589.081
573.065
590.544
625.269
688.626
785.268
913.409
1102.06
1399.87
1546.06
1596.75
1686.96
2851.78
5156.51
5092.49
2811.12
1624.28
1496.74
1470.36
1386.89
1141.86
907.34
767.815
671.631
605.284
569.685
553.575
570.99
606.056
670.997
768.167
904.603
1150.41
1415.18
1482.56
1526.94
1639.12
2816.98
5133.29
5076.8
2755.79
1577.88
1435.48
1401.64
1344.12
1213.78
921.416
755.899
658.247
591.329
553.84
537.018
555.299
592.269
658.511
757.724
923.975
1222.49
1369.72
1416.23
1467.6
1613.19
2799.83
5113.93
5057.07
2716.94
1555.88
1384.18
1338.49
1297.49
1240.21
990.317
754.9
647.714
581.362
542.585
524.074
543.905
581.962
647.955
755.904
978.507
1240.99
1317.62
1354.34
1413.57
1579.69
2756.33
5095.94
5038.05
2695.02
1544.56
1344.15
1285.47
1247.18
1204.85
1063.42
789.273
641.233
572.074
533.821
514.191
535.19
572.86
641.246
785.463
1061.67
1208.11
1263.92
1301.83
1370.74
1558.14
2720.78
5064.43
4975.85
2636.49
1516.9
1306.43
1239.14
1197.12
1164.26
1078.33
861.814
648.516
564.498
525.754
506.369
527.155
566.441
652.776
869.926
1094.63
1171.71
1214.53
1257.3
1335.11
1548.43
2686.02
4993.58
4855.12
2567.01
1490.79
1273.06
1199.69
1153.21
1120.13
1053.91
932.749
689.507
563.939
518.978
499.739
520.379
566.731
695.736
938.791
1070.74
1130.33
1170.78
1218.13
1301.18
1522.17
2609.94
4871.19
4492.2
2443.45
1458.88
1238.12
1163.92
1114.56
1076.48
1023.84
947.654
770.106
585.378
517.153
496.392
518.358
589.047
776.341
950.651
1040.44
1088.94
1132.67
1183.51
1265.79
1484.95
2477.71
4516.52
735.812
820.041
837.273
838.781
838.348
837.426
836.982
836.81
836.827
836.58
835.939
834.968
833.839
832.681
831.552
830.455
829.383
828.329
827.289
826.262
825.246
824.239
823.242
822.253
821.269
820.296
819.255
817.469
806.461
708.866
529.896
705.389
735.421
738.393
738.251
737.513
737.293
737.283
737.363
737.09
736.425
735.473
734.437
733.444
732.536
731.696
730.904
730.143
729.405
728.688
727.988
727.304
726.633
725.976
725.327
724.697
723.883
721.438
700.814
547.684
486.527
672.382
700.657
703.524
703.39
702.94
702.937
703.143
703.367
703.228
702.737
702.033
701.325
700.725
700.247
699.854
699.513
699.203
698.912
698.636
698.37
698.114
697.866
697.625
697.387
697.16
696.732
694.271
671.679
512.056
481.92
663.417
690.474
693.392
693.258
692.937
693.04
693.406
693.813
693.783
693.42
692.857
692.32
691.915
691.644
691.464
691.336
691.235
691.149
691.072
691
690.932
690.866
690.803
690.739
690.677
690.416
687.974
665.089
504.389
481.727
660.608
687.924
691.013
690.834
690.523
690.677
691.117
691.675
691.681
691.355
690.822
690.327
689.973
689.761
689.643
689.578
689.54
689.514
689.495
689.48
689.466
689.452
689.438
689.424
689.404
689.187
686.707
663.587
501.64
481.76
659.874
687.482
690.683
690.473
690.124
690.259
690.76
691.356
691.335
690.997
690.454
689.96
689.613
689.411
689.306
689.256
689.232
689.22
689.215
689.212
689.211
689.208
689.206
689.202
689.189
688.979
686.431
662.995
499.658
482.112
660.065
687.772
690.977
690.819
690.444
690.443
690.959
691.444
691.339
690.963
690.399
689.9
689.554
689.354
689.252
689.204
689.183
689.174
689.172
689.171
689.172
689.172
689.172
689.17
689.157
688.944
686.323
662.539
497.85
483.005
660.977
688.847
692.302
692.369
691.906
691.513
691.676
691.792
691.443
690.979
690.39
689.888
689.543
689.344
689.243
689.197
689.176
689.168
689.166
689.166
689.167
689.168
689.168
689.166
689.153
688.934
686.244
662.119
496.169
484.422
662.954
691.691
696.539
697.68
697.14
695.522
693.932
692.795
691.796
691.082
690.4
689.884
689.539
689.341
689.241
689.195
689.175
689.167
689.165
689.165
689.166
689.168
689.168
689.167
689.152
688.928
686.174
661.73
494.627
486.979
668.716
700.737
711.232
717.537
718.527
712.965
703.41
696.489
693.04
691.462
690.488
689.893
689.535
689.338
689.239
689.194
689.174
689.167
689.165
689.165
689.166
689.167
689.168
689.167
689.152
688.922
686.111
661.371
493.223
493.261
686.114
727.087
753.018
778.912
793.631
785.397
753.348
716.858
698.606
692.926
690.859
689.976
689.543
689.334
689.236
689.191
689.174
689.167
689.165
689.165
689.166
689.167
689.168
689.167
689.152
688.916
686.052
661.038
491.945
507.551
729.056
785.842
826.636
872.249
921.058
958.162
940.643
829.451
735.775
700.156
692.363
690.316
689.612
689.341
689.232
689.189
689.173
689.167
689.165
689.165
689.166
689.167
689.168
689.168
689.152
688.911
685.997
660.728
490.778
537.452
774.06
822.31
859.633
918.765
984.902
1055.6
1118.62
1126.37
939.827
752.923
700.004
691.684
689.884
689.389
689.238
689.189
689.173
689.168
689.166
689.165
689.165
689.167
689.168
689.168
689.152
688.906
685.946
660.441
489.71
545.454
779.362
832.803
886.917
960.26
1039.77
1123.37
1202.87
1275.89
1289.79
1029.72
756.802
698.226
690.963
689.59
689.271
689.194
689.173
689.168
689.166
689.165
689.165
689.166
689.168
689.168
689.152
688.901
685.899
660.176
488.732
544.778
781.725
847.484
918.19
999.342
1087.86
1184.04
1273.36
1355.38
1428.83
1425.78
1051.5
744.562
695.655
690.341
689.402
689.213
689.176
689.168
689.167
689.166
689.165
689.166
689.167
689.167
689.152
688.897
685.857
659.938
487.847
541.076
789.277
870.677
957.381
1044.13
1129.45
1229.19
1322.12
1417.4
1499.24
1570.73
1518.63
995.132
724.953
693.264
689.867
689.288
689.186
689.169
689.167
689.166
689.166
689.165
689.167
689.167
689.151
688.892
685.819
659.723
487.054
533.568
808.758
906.179
999.437
1086.88
1160.81
1256.63
1345.87
1445.29
1544.42
1628.31
1693.46
1521.32
890.364
708.332
691.479
689.546
689.224
689.174
689.168
689.167
689.166
689.166
689.167
689.167
689.151
688.889
685.783
659.528
486.336
533.986
838.83
951.777
1040.99
1117.62
1174.21
1254.34
1345.01
1438.91
1547.09
1654.07
1745.86
1784.47
1393.44
795.953
698.27
690.356
689.351
689.191
689.169
689.167
689.167
689.166
689.166
689.167
689.149
688.886
685.753
659.359
485.704
534.171
884.846
993.016
1067.45
1128.76
1168.54
1223.91
1309.54
1402.89
1510.63
1634.9
1752.66
1859.37
1796.33
1134.56
734.257
693.207
689.726
689.246
689.176
689.168
689.167
689.167
689.166
689.166
689.15
688.881
685.73
659.215
485.154
546.391
927.077
1046.54
1101.59
1137.35
1156.45
1181.7
1252.44
1344.1
1445.89
1573.96
1716.25
1853.23
1932.73
1684.5
891.604
705.421
690.862
689.407
689.197
689.17
689.167
689.167
689.166
689.165
689.15
688.879
685.705
659.087
484.67
596.892
989.88
1068.02
1125.04
1198.13
1194.34
1168.69
1193.39
1272.57
1362.72
1484.68
1635.13
1798.69
1954.64
1949.61
1333.3
761.987
694.75
689.834
689.259
689.177
689.168
689.167
689.167
689.165
689.147
688.876
685.683
658.978
484.259
621.126
1063.77
1191.89
1285.74
1409.57
1320.97
1212
1170.39
1217.01
1279.9
1383.6
1523.9
1699.02
1892.21
2008
1818.31
955.986
710.018
691.045
689.41
689.197
689.17
689.167
689.167
689.166
689.147
688.873
685.667
658.89
483.916
796.211
1198.22
1465.82
1789.05
1936.17
1746.23
1441.39
1258.32
1213.8
1216.52
1285.84
1408.59
1576.53
1784.05
1959.57
1998.41
1392.58
769.11
694.795
689.783
689.247
689.176
689.168
689.167
689.166
689.148
688.872
685.657
658.824
483.638
946.809
1692.79
2274.24
2799.05
2990.36
2741.95
2027.61
1448.59
1257.28
1206.46
1224.39
1314.21
1465.85
1663.6
1874.62
2006.64
1796.13
927.822
707.245
690.711
689.355
689.19
689.169
689.167
689.166
689.148
688.872
685.649
658.773
483.42
1495.15
3556.45
4496.71
4933.69
4351.2
3980.69
2822.27
1769.3
1398.79
1275.05
1231.41
1276.01
1388.02
1561.83
1779.26
1952.95
1966.19
1269.47
746.097
693.085
689.597
689.219
689.172
689.168
689.166
689.149
688.872
685.644
658.735
483.261
708.867
806.463
817.472
819.26
820.302
821.276
822.261
823.252
824.251
825.259
826.276
827.305
828.347
829.402
830.476
831.574
832.705
833.864
834.996
835.968
836.61
836.859
836.843
837.017
837.463
838.387
838.822
837.317
820.088
735.886
547.683
700.814
721.438
723.883
724.697
725.327
725.976
726.633
727.304
727.988
728.688
729.405
730.143
730.904
731.696
732.536
733.444
734.437
735.473
736.424
737.089
737.362
737.281
737.292
737.512
738.25
738.393
735.421
705.388
529.909
512.054
671.678
694.271
696.732
697.161
697.388
697.626
697.867
698.115
698.371
698.636
698.913
699.204
699.514
699.855
700.248
700.727
701.327
702.035
702.739
703.23
703.368
703.145
702.939
702.942
703.393
703.527
700.662
672.392
486.516
504.387
665.089
687.974
690.416
690.677
690.739
690.803
690.867
690.932
691
691.072
691.149
691.235
691.336
691.464
691.644
691.915
692.32
692.857
693.42
693.783
693.812
693.406
693.04
692.937
693.258
693.393
690.476
663.429
481.959
501.64
663.588
686.707
689.188
689.404
689.424
689.438
689.452
689.466
689.48
689.495
689.514
689.54
689.578
689.643
689.761
689.973
690.327
690.822
691.354
691.68
691.674
691.116
690.676
690.523
690.833
691.012
687.923
660.596
481.745
499.657
662.994
686.431
688.979
689.189
689.202
689.206
689.208
689.211
689.212
689.215
689.22
689.232
689.256
689.306
689.411
689.613
689.96
690.454
690.997
691.335
691.356
690.76
690.258
690.123
690.473
690.683
687.483
659.88
481.724
497.85
662.54
686.323
688.944
689.157
689.17
689.172
689.172
689.172
689.171
689.172
689.174
689.183
689.204
689.252
689.354
689.554
689.9
690.399
690.962
691.338
691.444
690.959
690.441
690.443
690.818
690.977
687.773
660.069
482.165
496.17
662.119
686.244
688.934
689.153
689.166
689.168
689.168
689.167
689.166
689.166
689.168
689.176
689.197
689.243
689.344
689.543
689.888
690.39
690.979
691.443
691.791
691.675
691.511
691.903
692.366
692.301
688.845
660.968
482.984
494.627
661.729
686.174
688.928
689.152
689.167
689.168
689.168
689.166
689.165
689.165
689.167
689.175
689.195
689.241
689.341
689.539
689.884
690.399
691.081
691.795
692.791
693.923
695.508
697.124
697.668
696.533
691.688
662.955
484.42
493.224
661.372
686.111
688.922
689.152
689.167
689.168
689.167
689.166
689.165
689.165
689.167
689.174
689.194
689.239
689.338
689.535
689.893
690.487
691.46
693.033
696.468
703.355
712.874
718.439
717.474
711.205
700.718
668.691
486.984
491.945
661.037
686.052
688.916
689.152
689.167
689.168
689.167
689.166
689.165
689.165
689.167
689.174
689.191
689.236
689.334
689.543
689.976
690.857
692.915
698.559
716.679
752.969
784.934
793.22
778.637
752.884
727.004
686.067
493.205
490.777
660.728
685.998
688.911
689.152
689.168
689.168
689.167
689.166
689.165
689.165
689.167
689.173
689.189
689.232
689.341
689.611
690.314
692.351
700.079
735.34
828.282
939.188
957.086
920.328
871.786
826.351
785.619
728.9
507.522
489.71
660.442
685.946
688.906
689.152
689.168
689.168
689.167
689.165
689.165
689.166
689.168
689.173
689.189
689.238
689.389
689.882
691.673
699.915
752.224
937.468
1124.14
1117.03
1054.39
983.996
918.17
859.266
822.021
773.824
537.331
488.733
660.176
685.899
688.901
689.152
689.168
689.168
689.166
689.165
689.165
689.166
689.168
689.173
689.193
689.271
689.589
690.953
698.144
755.954
1026.18
1286.77
1273.58
1201
1121.9
1038.62
959.519
886.478
832.515
779.161
545.367
487.847
659.938
685.857
688.897
689.152
689.167
689.167
689.166
689.165
689.166
689.167
689.168
689.176
689.213
689.401
690.334
695.598
743.828
1047.28
1421.95
1425.88
1352.89
1271.3
1182.43
1086.55
998.439
917.651
847.158
781.517
544.712
487.055
659.723
685.819
688.892
689.151
689.167
689.167
689.165
689.166
689.166
689.167
689.169
689.186
689.288
689.863
693.231
724.487
991.384
1513.96
1567.29
1496.27
1414.95
1320.09
1227.6
1128.05
1043.05
956.741
870.287
789.046
541.044
486.337
659.528
685.783
688.889
689.151
689.167
689.167
689.166
689.166
689.167
689.168
689.174
689.224
689.544
691.462
708.11
887.789
1515.71
1689.63
1625.09
1541.7
1443.15
1344.06
1255.31
1159.45
1085.64
998.681
905.69
808.476
533.464
485.704
659.358
685.753
688.886
689.149
689.167
689.166
689.166
689.167
689.167
689.169
689.191
689.35
690.348
698.178
794.583
1387.32
1780.02
1742.45
1651.21
1544.86
1437.18
1343.48
1253.35
1172.94
1116.2
1040.07
951.252
838.555
533.861
485.154
659.216
685.73
688.881
689.15
689.166
689.166
689.167
689.167
689.168
689.176
689.246
689.723
693.175
733.703
1129.91
1791.51
1855.84
1749.82
1632.72
1508.88
1401.41
1308.1
1223.02
1167.3
1127.28
1066.36
992.092
884.311
534.204
484.671
659.087
685.704
688.879
689.15
689.165
689.166
689.167
689.167
689.17
689.197
689.406
690.851
705.256
889.314
1678.67
1928.91
1850.43
1714.14
1572.37
1444.48
1342.69
1250.64
1180
1154.23
1135.07
1100.17
1045.47
926.402
546.303
484.258
658.977
685.683
688.876
689.147
689.165
689.167
689.167
689.168
689.177
689.258
689.831
694.704
761.132
1327.76
1945.2
1951.85
1796.87
1633.84
1483.42
1361.27
1270.81
1190.72
1164.94
1189.28
1193.79
1122.97
1066.36
988.685
596.516
483.917
658.891
685.667
688.873
689.147
689.166
689.167
689.167
689.17
689.197
689.409
691.033
709.799
952.844
1813.01
2005.35
1890.63
1698.14
1522.95
1382.26
1277.73
1213.65
1165.87
1205.24
1309.85
1400.02
1281.54
1189.99
1062.83
621.053
483.638
658.823
685.657
688.872
689.148
689.166
689.167
689.168
689.176
689.247
689.78
694.751
768.275
1387.53
1995.11
1957.96
1783.16
1575.89
1407.47
1284.12
1213.08
1208.06
1248.62
1426.3
1724.31
1913.88
1777.2
1461.33
1196.4
795.862
483.419
658.773
685.649
688.872
689.148
689.166
689.167
689.169
689.19
689.354
690.702
707.065
925.214
1790.79
2004.25
1873.39
1662.85
1464.59
1312.19
1220.75
1200.52
1248.29
1430.43
1988.43
2720.58
2971.83
2772.33
2254.8
1687.63
946.708
483.26
658.735
685.644
688.872
689.149
689.166
689.168
689.172
689.219
689.595
693.055
745.476
1264.61
1962.49
1951.15
1778.09
1560.51
1385.77
1272.31
1225.55
1265.63
1384.04
1740.31
2754.69
3956.38
4330.87
4813.75
4455.54
3490.24
1478.61
432.342
432.772
433.215
433.658
434.1
434.542
434.983
435.423
435.863
436.302
436.741
437.179
437.617
438.054
438.491
438.927
439.362
439.797
440.231
440.665
441.098
441.531
441.963
442.395
442.826
443.257
443.687
444.116
444.545
444.973
445.401
445.828
446.255
446.681
447.107
447.532
447.957
448.381
448.804
449.227
449.65
450.072
450.493
450.914
451.334
451.754
452.173
452.592
453.01
453.428
453.845
454.262
454.678
455.094
455.509
455.923
456.337
456.751
457.164
457.576
457.988
458.4
458.81
459.221
459.631
460.04
460.449
460.857
461.265
461.672
462.079
462.485
462.891
463.296
463.701
464.105
464.509
464.912
465.315
465.717
466.119
466.52
466.921
467.321
467.721
468.12
468.518
468.917
469.314
469.712
470.108
470.504
470.9
471.295
471.69
472.084
472.478
472.871
473.264
473.656
474.048
474.439
474.83
475.22
475.61
475.999
476.388
476.776
477.164
477.551
477.938
478.325
478.711
479.096
479.481
479.865
480.249
480.633
481.016
481.398
481.78
482.162
482.541
482.906
483.207
639.404
639.64
639.844
640.041
640.236
640.43
640.624
640.816
641.008
641.199
641.389
641.579
641.767
641.955
642.142
642.328
642.514
642.698
642.882
643.065
643.248
643.429
643.61
643.79
643.97
644.148
644.326
644.503
644.679
644.855
645.03
645.204
645.378
645.55
645.722
645.894
646.064
646.234
646.403
646.572
646.74
646.907
647.073
647.239
647.404
647.568
647.732
647.895
648.057
648.219
648.38
648.54
648.699
648.858
649.017
649.174
649.331
649.488
649.643
649.798
649.953
650.107
650.26
650.412
650.564
650.715
650.866
651.016
651.165
651.314
651.462
651.61
651.757
651.903
652.049
652.194
652.339
652.483
652.626
652.769
652.911
653.053
653.194
653.334
653.474
653.613
653.752
653.89
654.028
654.165
654.301
654.437
654.572
654.707
654.841
654.975
655.108
655.241
655.373
655.505
655.636
655.766
655.896
656.025
656.154
656.283
656.41
656.538
656.665
656.791
656.917
657.042
657.167
657.291
657.415
657.538
657.661
657.783
657.904
658.026
658.146
658.266
658.386
658.509
658.64
680.971
681.043
681.102
681.158
681.213
681.268
681.322
681.376
681.43
681.483
681.536
681.589
681.641
681.693
681.744
681.795
681.845
681.896
681.945
681.995
682.044
682.093
682.141
682.189
682.237
682.284
682.331
682.378
682.424
682.47
682.516
682.561
682.606
682.651
682.695
682.739
682.783
682.826
682.869
682.912
682.954
682.996
683.038
683.079
683.121
683.161
683.202
683.242
683.282
683.322
683.362
683.401
683.439
683.478
683.516
683.554
683.592
683.63
683.667
683.704
683.74
683.777
683.813
683.849
683.884
683.92
683.955
683.99
684.024
684.059
684.093
684.127
684.16
684.194
684.227
684.26
684.292
684.325
684.357
684.389
684.421
684.452
684.484
684.515
684.545
684.576
684.606
684.637
684.667
684.696
684.726
684.755
684.784
684.813
684.842
684.871
684.899
684.927
684.955
684.983
685.01
685.038
685.065
685.092
685.118
685.145
685.171
685.198
685.224
685.249
685.275
685.301
685.326
685.351
685.376
685.401
685.425
685.45
685.474
685.498
685.522
685.546
685.57
685.595
685.622
688.145
688.159
688.17
688.18
688.19
688.2
688.21
688.22
688.23
688.239
688.249
688.258
688.268
688.277
688.286
688.295
688.304
688.312
688.321
688.33
688.338
688.347
688.355
688.363
688.371
688.379
688.387
688.395
688.403
688.41
688.418
688.426
688.433
688.44
688.448
688.455
688.462
688.469
688.476
688.483
688.49
688.497
688.503
688.51
688.516
688.523
688.529
688.536
688.542
688.548
688.554
688.56
688.566
688.572
688.578
688.584
688.59
688.595
688.601
688.606
688.612
688.617
688.623
688.628
688.633
688.639
688.644
688.649
688.654
688.659
688.664
688.669
688.674
688.679
688.683
688.688
688.693
688.697
688.702
688.706
688.711
688.715
688.72
688.724
688.728
688.732
688.737
688.741
688.745
688.749
688.753
688.757
688.761
688.765
688.769
688.772
688.776
688.78
688.784
688.787
688.791
688.795
688.798
688.802
688.805
688.809
688.812
688.815
688.819
688.822
688.825
688.829
688.832
688.835
688.838
688.841
688.844
688.847
688.85
688.853
688.856
688.859
688.862
688.865
688.869
689.068
689.07
689.072
689.073
689.074
689.076
689.077
689.078
689.079
689.081
689.082
689.083
689.084
689.085
689.086
689.087
689.089
689.09
689.091
689.092
689.093
689.094
689.095
689.096
689.097
689.098
689.099
689.099
689.1
689.101
689.102
689.103
689.104
689.105
689.106
689.106
689.107
689.108
689.109
689.11
689.11
689.111
689.112
689.113
689.113
689.114
689.115
689.115
689.116
689.117
689.117
689.118
689.119
689.119
689.12
689.121
689.121
689.122
689.122
689.123
689.123
689.124
689.125
689.125
689.126
689.126
689.127
689.127
689.128
689.128
689.129
689.129
689.13
689.13
689.131
689.131
689.132
689.132
689.133
689.133
689.133
689.134
689.134
689.135
689.135
689.136
689.136
689.136
689.137
689.137
689.138
689.138
689.138
689.139
689.139
689.139
689.14
689.14
689.14
689.141
689.141
689.141
689.142
689.142
689.142
689.143
689.143
689.143
689.144
689.144
689.144
689.145
689.145
689.145
689.146
689.146
689.146
689.146
689.147
689.147
689.147
689.147
689.148
689.148
689.148
689.159
689.16
689.16
689.16
689.16
689.16
689.16
689.16
689.16
689.161
689.161
689.161
689.161
689.161
689.161
689.161
689.161
689.161
689.161
689.162
689.162
689.162
689.162
689.162
689.162
689.162
689.162
689.162
689.162
689.162
689.163
689.163
689.163
689.163
689.163
689.163
689.163
689.163
689.163
689.163
689.163
689.163
689.163
689.163
689.163
689.164
689.164
689.164
689.164
689.164
689.164
689.164
689.164
689.164
689.164
689.164
689.164
689.164
689.164
689.164
689.164
689.164
689.164
689.164
689.164
689.165
689.165
689.165
689.165
689.165
689.165
689.165
689.165
689.165
689.165
689.165
689.165
689.165
689.165
689.165
689.165
689.165
689.165
689.165
689.165
689.165
689.165
689.165
689.165
689.165
689.165
689.165
689.165
689.165
689.165
689.166
689.166
689.166
689.166
689.166
689.166
689.166
689.166
689.166
689.166
689.166
689.166
689.167
689.168
689.168
689.169
689.17
689.17
689.17
689.17
689.169
689.169
689.168
689.168
689.167
689.167
689.167
689.167
689.166
689.166
689.167
689.167
689.167
689.167
689.167
689.167
689.167
689.167
689.167
689.167
689.167
689.167
689.167
689.167
689.167
689.167
689.167
689.167
689.167
689.167
689.167
689.167
689.167
689.167
689.167
689.167
689.167
689.167
689.167
689.167
689.167
689.167
689.167
689.167
689.167
689.167
689.167
689.167
689.167
689.167
689.167
689.167
689.167
689.167
689.167
689.167
689.167
689.167
689.167
689.167
689.167
689.167
689.167
689.167
689.167
689.167
689.167
689.167
689.167
689.167
689.167
689.167
689.167
689.167
689.167
689.167
689.167
689.167
689.167
689.167
689.167
689.167
689.167
689.167
689.167
689.167
689.167
689.167
689.167
689.167
689.167
689.167
689.167
689.167
689.167
689.167
689.167
689.167
689.167
689.167
689.167
689.167
689.167
689.167
689.167
689.167
689.167
689.167
689.167
689.167
689.167
689.167
689.167
689.168
689.171
689.177
689.187
689.2
689.215
689.229
689.239
689.243
689.243
689.239
689.231
689.221
689.211
689.201
689.192
689.184
689.178
689.174
689.171
689.169
689.168
689.167
689.167
689.167
689.167
689.167
689.167
689.167
689.167
689.167
689.167
689.167
689.167
689.167
689.167
689.167
689.167
689.167
689.167
689.167
689.167
689.167
689.167
689.167
689.167
689.167
689.167
689.167
689.167
689.167
689.167
689.167
689.167
689.167
689.167
689.167
689.167
689.167
689.167
689.167
689.167
689.167
689.167
689.167
689.167
689.167
689.167
689.167
689.167
689.167
689.167
689.167
689.167
689.167
689.167
689.167