/*--------------------------------*- C++ -*----------------------------------*\
| =========                 |                                                 |
| \\      /  F ield         | OpenFOAM: The Open Source CFD Toolbox           |
|  \\    /   O peration     | Version:  2112                                  |
|   \\  /    A nd           | Website:  www.openfoam.com                      |
|    \\/     M anipulation  |                                                 |
\*---------------------------------------------------------------------------*/
FoamFile
{
    version     2.0;
    format      ascii;
    arch        "LSB;label=32;scalar=64";
    class       volScalarField;
    location    "0.0106";
    object      T;
}
// * * * * * * * * * * * * * * * * * * * * * * * * * * * * * * * * * * * * * //

dimensions      [0 0 0 1 0 0 0];

internalField   nonuniform List<scalar> 
13875
(
1412.01
1535.59
1482.39
1487.58
1481.9
1483.78
1484.33
1483.53
1484.54
1484.54
1483.99
1484.31
1483.52
1483.91
1483.85
1483.86
1483.44
1484.72
1484.87
1483.12
1481.88
1487.68
1480.55
1533.4
1398.55
1307.02
1356.17
1318.89
1322.13
1316.44
1317.97
1321.87
1322.87
1323.72
1323.53
1323.03
1323.16
1318.05
1317.67
1318.37
1322.76
1322.95
1323.47
1322.31
1317.82
1316.7
1321.87
1319.57
1356.5
1302.51
1307.24
1340.07
1314.27
1311.85
1305.22
1305.74
1305.79
1306.1
1306.96
1306.19
1305.08
1305.98
1303.82
1304.04
1303.9
1305.78
1303.89
1305.93
1306.03
1305.09
1304.86
1311.05
1311.39
1335.89
1296.39
1317.37
1344.82
1314.66
1308.76
1305.9
1306.14
1304.66
1304.51
1304.56
1303.77
1302.94
1303.58
1303.92
1304.08
1304.04
1303.45
1302.42
1303.49
1304.2
1305.49
1305.35
1307.71
1313.93
1343.53
1312.11
1329.53
1342.14
1315.72
1312.52
1305.06
1305.74
1305.45
1304.65
1304.66
1303.81
1302.96
1303.49
1303.82
1304.22
1303.82
1303.29
1302.51
1303.98
1305.19
1304.87
1304.75
1311.75
1311.96
1338.55
1316.66
1332.22
1351.16
1318.8
1310.01
1307.97
1307.27
1304.75
1304.59
1304.52
1303.69
1303.07
1303.71
1304.18
1304.51
1304.3
1303.55
1302.63
1303.53
1304.26
1306.56
1307.27
1308.42
1318.97
1349.17
1326.8
1339
1360.49
1329.04
1317.57
1308.06
1307.34
1306.55
1305.16
1305.03
1304.09
1303.42
1303.81
1304.38
1304.83
1304.23
1303.58
1303.16
1304.59
1306.19
1306.51
1307.79
1317.6
1325.63
1358.21
1321.7
1359.74
1384.7
1344.04
1321.21
1316.67
1310.63
1306.86
1305.48
1305.18
1304.63
1304.03
1304.57
1305.13
1305.51
1305.21
1304.18
1303.75
1304.94
1306.16
1309.98
1315.31
1320.39
1341.51
1381.03
1350.01
1537.19
1508.4
1387.15
1350.37
1321.78
1315.96
1311.55
1308.16
1306.85
1306.21
1305.61
1305.55
1306.34
1306.85
1306.3
1305.64
1305.62
1307.28
1310.55
1314.22
1321.32
1349.21
1382.73
1505.61
1520.78
1834.88
1574.37
1427.05
1358.5
1338.43
1320.96
1313.96
1310.7
1310.11
1309.21
1308.39
1308.22
1308.95
1309.52
1309.16
1308.56
1308.81
1310.92
1314.08
1320.57
1337.07
1357.22
1424.87
1566.55
1826.76
2507.13
1804.36
1517.49
1406.93
1350.27
1331.71
1325.58
1317.72
1316.53
1315.06
1313.85
1313.49
1314.07
1314.82
1314.68
1314.58
1315.12
1317.69
1326.12
1330.03
1348.71
1419.45
1502.18
1797.72
2430.06
2812.3
2301.4
1735.28
1463.06
1425.91
1361.46
1339.72
1331.68
1329.35
1326.96
1325.57
1325.09
1325.37
1326.14
1326.26
1326.86
1328.16
1331.76
1339.71
1371.47
1405.49
1457.29
1731.4
2306.26
2837.63
2786.5
2655.65
2350.7
2203
1523.59
1414.45
1396.11
1372.77
1364.14
1357.47
1354.38
1353.22
1352.98
1353.76
1354.59
1357.48
1363.53
1374.88
1399.58
1421.73
1567.4
2234.33
2245.75
2687.17
2766.56
2722.81
2661.15
2743.91
2786.73
2050.03
1830.38
1521.26
1476.25
1459.06
1447.23
1442.86
1441.33
1441.05
1441.89
1443.14
1447.59
1458.61
1478.78
1541.67
1922.84
2101.05
2804.17
2792.52
2703.02
2701.45
2582.12
2639.14
2686.03
2688.01
2590.51
2364.82
2022.3
1963.68
1865.26
1766.38
1731.31
1720.15
1716.62
1718.32
1725.01
1749.01
1840.05
1961.65
1984.06
2420.93
2637.2
2735.69
2678.45
2652.3
2625.82
2499.83
2536.02
2627.47
2684.27
2657.7
2687.03
2870.72
2940.66
2936.11
3033.67
3114.73
3138.03
3148.41
3142.37
3125.6
3058.36
2905.6
2938.29
2899.95
2717.33
2660.93
2706.5
2624.11
2557.89
2533.25
2313.41
2398.44
2479.51
2530.24
2603.88
2728.01
3028.32
3407.91
3592.9
3683.02
3697.56
3691.61
3689.16
3692.94
3702.07
3703.22
3599.66
3418.26
3054.83
2739.44
2615.65
2564.76
2469.99
2404.59
2329.08
2023.68
2145.66
2302.35
2616.08
2790.45
2830.24
2956.83
3308.87
3528.61
3642.25
3672.65
3672.79
3672.4
3674.73
3676.06
3647.83
3501.7
3290.5
2963.54
2840.81
2807.77
2563.68
2269.65
2139.62
2024.02
1813.03
1879.2
2010.23
2240.49
2715.93
2840.74
2878.55
3104.18
3356.4
3499.03
3543.72
3555.41
3559.86
3558.98
3549.16
3509.96
3360.12
3119.64
2918.62
2922.9
2676.54
2203.46
2007.41
1885.04
1814.79
2461.13
2347.58
2108.51
2196.24
2506.02
2689.81
2699.78
2841.6
3079.89
3278.18
3387.69
3431.53
3440.08
3433.67
3390.61
3277.17
3067.45
2851.18
2730.27
2715.32
2483.64
2222.82
2140.56
2347.08
2452.42
3249.43
3422.82
2751.7
2300.16
2375.39
2533.59
2551.04
2660.42
2884.84
3110.37
3251.23
3304.65
3315.28
3303.51
3244.48
3090.52
2855.13
2656.84
2559.91
2541.98
2359
2325.78
2810.54
3481.34
3257.68
3628.87
3571.34
2811.58
2209.83
2213.75
2370.49
2419.45
2524.45
2737.44
2963.7
3118.76
3181.13
3189.73
3175.63
3101.35
2930.54
2700.39
2521.08
2418.36
2370.05
2190.43
2248.51
2899.89
3620.24
3675.39
3497.28
3117.05
2488.95
2056.92
2062.37
2238.3
2311.67
2416.21
2608.73
2833.09
2989.01
3052.71
3065.84
3046.76
2973.19
2805.13
2582.34
2416.01
2299.75
2235.52
2036.9
2055.81
2476.3
3126.03
3530.47
3511.34
2962.36
2248.79
1903.87
1977.54
2140.62
2208.56
2317.31
2505
2715.8
2868.46
2934.75
2945.47
2928.92
2852.57
2688.37
2476.51
2318.54
2202.47
2131.01
1943.2
1893.54
2255.16
2981.76
3544.6
3446.41
2787.12
2097.48
1823.24
1931.74
2068.7
2119.56
2231.11
2409.28
2615.13
2757.2
2817.22
2831.33
2809.85
2739.05
2585.37
2382.24
2227.59
2118.86
2064.78
1897.68
1809.77
2112.07
2832.3
3480.69
3417.14
2748.18
2040.7
1828.08
1907.13
2001.37
2040.86
2149.18
2324.2
2512.51
2650.8
2711.88
2721.6
2706.66
2636.89
2489.38
2297.93
2149.34
2045
2001.74
1877.65
1817.52
2038.67
2761.61
3455.31
3340.89
2600.25
1965.29
1830.53
1881.84
1954.51
1975.46
2085.53
2249.56
2430.69
2552.77
2605.19
2619.78
2599.67
2538.86
2408.21
2227.34
2080.22
1978.22
1962.54
1860.97
1824.15
1972.38
2619.28
3372.44
3315.55
2559.85
1970.69
1864.52
1872.46
1906.75
1915
2024.65
2186.35
2348.5
2462.07
2513.95
2522.31
2509.45
2448.87
2323.97
2156.71
2019.76
1918.68
1914.3
1854.27
1850.4
1975.18
2610.63
3360.66
3311.66
2542.44
1941.19
1853.1
1840.2
1874.74
1867.4
1976.86
2121.69
2276.49
2374.51
2418.77
2433.33
2415.29
2366.36
2262.75
2106.95
1971.44
1871.61
1885.69
1833.54
1853.32
1936.98
2518.67
3290
3269.27
2539.98
1975.64
1888.26
1840.33
1849.87
1826.27
1930.76
2072.86
2207.97
2298.01
2341.58
2347.98
2338.04
2287.21
2189.29
2048.5
1928.06
1827.47
1867.14
1829.2
1872.71
1958.18
2522.86
3256.16
3187.48
2456.87
1944.77
1885.51
1801.95
1825.73
1794.12
1904.16
2025.37
2151.87
2224.76
2258.08
2270.74
2254.5
2216.03
2136.43
2006.68
1890.32
1794.46
1837.5
1805.16
1874.59
1937.74
2457.67
3206.73
3152.96
2457.14
1994.25
1909.59
1808.38
1804.29
1770.23
1866.68
1981.32
2089.89
2157.57
2192.99
2196.92
2191.7
2150.71
2076.76
1963.51
1867.62
1768.01
1820.96
1806
1891.3
1969.8
2425.69
3163.27
3082.77
2401.13
1996.93
1897.06
1783.71
1774.45
1744.2
1848.41
1943.41
2044.83
2097.24
2120.61
2131.5
2118.07
2090.45
2034.44
1928.2
1837.29
1743.78
1784.3
1790.62
1887.39
1970.72
2397.89
3116.77
3050
2375.2
2025.09
1913.5
1804.21
1760.33
1731
1824.63
1908.25
1992.83
2039.52
2067.81
2068.86
2066.91
2033.6
1980.06
1890.64
1820.27
1723.61
1772.59
1796.67
1899.97
2022.5
2374.15
3052.51
3010.18
2337.44
2015.58
1906.2
1785.53
1730.21
1701.09
1809.18
1873.89
1952.74
1988.36
2004.71
2014.23
2002.94
1984.48
1948.39
1862.13
1802.71
1697.62
1737.75
1796.2
1899.79
2005.49
2332.76
2999.41
3000.16
2332.82
2021.77
1928.57
1806.18
1737.01
1696.78
1786.67
1846.13
1907.99
1939.26
1962.37
1961.28
1961.73
1933.23
1896.86
1831.83
1790.28
1685.62
1732.96
1807.27
1922.4
2021.32
2325.38
2983.12
2953.48
2290.54
2009.91
1939.38
1790.78
1717
1667.94
1774.27
1817.62
1877.29
1897.8
1907.86
1915.65
1905.42
1893.67
1872.97
1801.23
1768.75
1661.22
1718.34
1793.12
1934.83
1997.59
2298.35
2990.66
2942.19
2300.3
2015.98
1976.73
1816.39
1732.37
1672.03
1757.98
1791.18
1835.26
1854.5
1873.88
1870.9
1873.82
1849.39
1826.41
1779.62
1763.96
1660.53
1722.86
1814.07
1970.56
2010.86
2307.11
2957.89
2904.52
2277.5
1995.76
1994.91
1819.93
1718.81
1655.03
1745.71
1762.96
1810.31
1821.45
1826.5
1832.75
1825.45
1818.03
1807.72
1744.4
1739.93
1649.7
1714.79
1809.49
1992.7
1975.29
2283.01
2925.39
2856.18
2266.35
1978
1990.17
1842.14
1745.05
1671.24
1737.61
1744.56
1772.68
1783.53
1799.87
1795.48
1799.92
1778.44
1764.56
1728.44
1736.21
1656.89
1734.07
1843.44
1990.71
1964.89
2261.19
2893.2
2830.12
2256.55
1947.66
1984.07
1886.24
1735.57
1665.33
1728.42
1717.08
1752.8
1756.44
1758.9
1763.21
1758.09
1754.59
1753.3
1694.83
1719.07
1666.73
1723.74
1867.97
1983.28
1930.34
2221.2
2826.12
2794.06
2250.83
1937.28
1978.8
1932.47
1773.06
1703.67
1731
1706.32
1718.98
1723.46
1737.41
1731.79
1737.36
1718.23
1716.18
1688.69
1724.96
1690.35
1763.87
1940.71
1979.73
1928.73
2234.06
2770.47
2763.84
2230.8
1915.63
1956.38
1925.12
1783.23
1701.64
1730.44
1684.64
1708.04
1702.86
1701.78
1704.27
1700.68
1700.56
1709.41
1658.12
1712.53
1699.68
1773.85
1934.25
1965.58
1912.84
2220.25
2760.18
2729.74
2230.43
1914.88
1930.3
1918.83
1843.3
1749.55
1751.34
1690.13
1680.26
1674.26
1684.97
1678.08
1685.05
1667.8
1682.06
1672.07
1735.26
1727.3
1825.42
1929.61
1945.31
1916.32
2241.27
2719.95
2707.98
2218.28
1904.48
1903.52
1906.05
1904.47
1759.9
1744.61
1675.8
1680
1660.97
1653.72
1654.66
1653.63
1658.57
1682.45
1651.64
1728.44
1754.61
1900.63
1918.17
1920.28
1923.87
2245.53
2709.06
2669.15
2197.01
1899.67
1878.04
1876.04
1887.96
1822.13
1773.23
1704.15
1668.13
1640.89
1643.4
1632.74
1643.09
1629.77
1665.39
1681.86
1756.04
1806.89
1896.6
1900.59
1903.34
1924.88
2221.05
2687.95
2652.04
2193.96
1894.73
1866.63
1851.76
1881.05
1910.24
1797.5
1690.13
1680.6
1644.17
1621.91
1616.08
1619.73
1642.29
1683.35
1663.44
1773.98
1882.28
1877.29
1871.33
1880.73
1902.12
2190.98
2671.76
2604.34
2174.55
1890.19
1851.57
1822.93
1859.02
1892.07
1849.72
1727.72
1673.03
1633.12
1628.61
1607.88
1627.53
1619
1671.71
1712.81
1826.33
1898.64
1869.91
1848.69
1866.72
1890.82
2178.26
2629.33
2563.49
2157.56
1873.93
1839.63
1804.04
1826.32
1879.33
1942.36
1736.88
1699.8
1648.94
1616.88
1607.98
1613.09
1646.14
1699.33
1711.87
1915.73
1879.42
1831.07
1823.52
1849.83
1877.23
2162.18
2590.23
2394.36
2105.17
1856.73
1833.51
1790.13
1797.09
1858.96
1922.61
1820.23
1709.19
1640.78
1631.23
1610.48
1630.63
1623.52
1705.68
1797.27
1929.75
1863.93
1805.93
1802.29
1836.97
1855.91
2109.68
2416.4
1084.14
1020.94
954.854
874.922
794.808
722.802
663.251
614.352
575.99
545.192
522.545
505.734
492.938
483.963
476.454
469.955
463.423
457.087
450.598
444.894
439.138
433.93
429.252
425.073
421.266
417.694
413.636
410.753
406.588
402.655
1084.27
1021.69
956.865
880.516
806.119
739.264
683.107
635.52
596.418
562.95
537.214
516.778
500.789
489.46
480.475
473.114
466.441
459.932
453.425
447.409
441.864
436.768
432.21
428.213
424.598
421.581
417.731
414.746
412.064
409.278
1084.37
1025.54
963.904
890.606
819.491
753.83
697.998
651.15
611.233
576.317
548.643
525.698
507.25
493.626
482.945
474.587
467.656
460.995
454.451
448.176
442.962
437.842
433.324
429.365
425.854
422.463
419.317
416.067
413.289
410.505
1092.96
1034.73
975.584
907.023
840.2
777.308
723.085
676.288
634.709
597.953
567.654
541.221
519.57
502.734
489.349
478.997
471.063
463.929
456.938
450.54
445.6
440.7
436.28
432.131
428.674
425.207
422.55
419.324
416.71
415.12
1100.13
1046.27
990.43
927.022
863.372
802.64
749.475
702.695
659.99
621.649
588.834
559.121
534.218
513.791
497.24
484.264
474.385
466.273
458.834
452.853
447.702
442.739
438.356
434.104
430.443
427.02
424.078
420.86
418.233
417.257
1108.46
1056.94
1005.48
946.715
886.813
829.378
778.292
731.422
687.761
648.504
613.814
581.117
553.116
529.208
509.239
493.094
480.253
470.092
462.245
456.53
450.909
445.843
441.425
437.198
433.274
429.826
426.872
423.83
421.186
419.663
1115.34
1068.17
1021.59
967.086
911.614
857.736
808.556
761.967
717.641
677.74
641.197
605.637
574.61
547.003
523.254
503.326
487.127
474.695
466.023
459.368
453.488
448.311
443.653
439.359
435.256
431.759
428.75
425.868
423.035
420.893
1124.16
1080.51
1038.45
988.502
937.726
887.284
839.874
794.249
749.746
709.299
670.782
632.715
598.749
567.551
540.086
516.421
496.897
481.781
470.808
462.892
456.669
451.378
446.635
442.212
438.036
434.484
431.616
428.894
425.94
423.829
1131.15
1093.58
1055.8
1011.21
965.049
917.936
872.406
828.024
783.839
742.805
702.412
662.061
625.44
590.981
559.967
532.644
509.508
490.83
476.635
466.454
459.31
453.694
448.811
444.337
440.155
436.498
433.55
430.557
427.658
425.958
1138.68
1106.37
1073.31
1034.67
992.999
949.334
905.965
862.937
819.14
777.883
736.337
693.726
654.582
617.379
583.266
552.518
525.552
503.053
485.212
471.875
463.006
456.581
451.479
446.884
442.738
439.021
435.955
432.948
430.38
429.022
1145.08
1118.54
1091.24
1058.28
1021.17
981.123
940.046
898.591
855.301
814.692
772.108
727.554
686.291
646.949
610.027
576.04
545.305
518.931
496.912
479.741
467.448
459.51
454.112
449.385
444.803
440.876
437.67
434.499
432.176
431.442
1153.31
1130.7
1109.13
1081.65
1049.23
1012.98
974.444
934.951
893.304
852.586
808.941
763.234
720.391
679.385
640.096
602.861
568.609
538.384
512.197
490.951
474.468
463.516
456.885
452.07
447.306
443.064
439.526
436.595
434.641
433.664
1159.09
1142.48
1126.57
1104.59
1076.96
1044.63
1008.86
971.444
931.686
890.974
845.985
800.886
756.939
714.347
672.851
632.474
595.077
561.072
530.649
504.916
484.442
469.418
460.112
454.291
449.141
444.686
440.778
437.799
435.819
434.901
1165.32
1153.81
1143.17
1127.12
1104.21
1075.8
1042.94
1007.64
969.862
928.822
884.125
839.869
795.469
751.047
707.555
664.726
624.529
586.893
552.264
522.083
497.239
478.033
465.123
457.091
451.397
446.627
442.482
439.406
437.59
436.787
1170.31
1164.56
1158.98
1148.64
1131.09
1106.23
1076.39
1043.31
1007.44
966.117
922.866
879.45
834.948
789.594
743.716
699.188
656.461
615.44
576.839
542.22
512.351
488.442
471.368
460.33
453.468
448.309
443.753
440.574
438.767
438.093
1175.22
1174.21
1173.98
1169.05
1156.97
1135.72
1109.01
1078.19
1044.11
1004.05
961.808
919.052
874.869
829.384
781.389
735.56
690.729
646.66
604.408
565.55
530.938
501.962
479.894
464.894
456.035
450.41
445.579
442.159
440.338
439.875
1179.29
1184.12
1188.03
1188.24
1181.27
1164.13
1140.42
1111.87
1079.56
1041.05
1000.36
958.181
914.828
869.569
820.552
773.265
726.791
680.026
634.451
591.635
552.555
518.596
491.255
471.23
458.844
452.068
446.999
443.224
441.196
440.809
1182.26
1192.33
1200.92
1205.89
1203.89
1191.17
1170.43
1144.15
1113.63
1077.07
1038.09
997.221
954.453
909.828
861.07
812.232
764.478
715.482
666.94
620.332
576.78
537.811
504.963
479.807
462.974
453.877
448.679
444.676
442.515
442.22
1184.11
1199.97
1213.43
1222.63
1224.8
1216.49
1198.95
1174.91
1146.47
1112
1074.74
1035.08
993.536
949.952
901.853
852.582
803.293
752.639
701.533
651.394
603.482
559.442
520.984
489.953
468.279
456.152
449.994
445.494
443.3
443.067
1185.87
1206.56
1224.53
1237.78
1243.87
1239.88
1225.88
1204.04
1177.77
1145.61
1110.22
1072.16
1032.44
988.827
942.294
893.744
842.999
791.101
737.949
684.755
632.828
583.827
539.568
502.488
475.753
459.561
451.504
446.847
444.701
444.519
1186.33
1212.65
1234.91
1252.62
1261.44
1261.37
1250.92
1231.41
1207.52
1177.81
1144.4
1108.07
1069.99
1027.88
981.681
934.595
883.487
830.273
775.555
719.837
664.308
610.736
561.2
518.72
486.03
464.344
453.05
447.672
445.483
445.035
1185.53
1218.32
1244.62
1266.11
1277.76
1280.8
1273.8
1257.15
1235.69
1208.37
1176.96
1142.69
1106.12
1065.43
1020.36
974.187
924.216
869.611
813.59
756.004
697.579
640.336
586.51
538.984
500.104
471.817
455.907
448.82
446.066
445.564
1186.27
1223.9
1254.46
1278.86
1293.18
1298.35
1294.54
1281.2
1262.15
1237.23
1207.95
1175.73
1140.58
1101.54
1057.94
1011.96
963.699
909.025
851.374
792.615
732.051
671.959
614.424
562.019
517.209
482.325
460.555
450.376
446.724
446.206
1166.2
1232.17
1266.16
1291.52
1307.61
1314.4
1313.45
1303.27
1286.81
1264.43
1237.39
1207.04
1173.35
1135.94
1093.87
1049.29
1001.46
947.859
888.763
829.252
767.159
704.664
643.639
586.711
536.317
495.054
467.12
453.313
448.055
447.102
1193.7
1266.34
1289.36
1306.26
1321.57
1329.03
1330.65
1323.39
1309.68
1289.96
1265.19
1236.61
1204.47
1168.67
1128.12
1084.41
1037.46
984.695
925.637
865.433
802.471
738.079
673.944
612.502
556.678
509.738
475.165
456.666
449.413
447.807
398.437
402.581
407.017
411.221
415.094
418.914
422.809
427.038
432.433
437.843
443.074
449.226
455.566
461.618
467.842
474.185
481.462
490.29
502.815
519.487
541.758
572.86
612.167
661.3
721.238
793.714
874.441
955.507
1022.41
1086.58
404.793
407.759
411.865
415.602
418.836
422.421
426.381
430.565
435.469
440.658
446.086
452.281
458.895
465.181
471.465
478.659
487.32
498.504
514.232
534.612
560.218
593.639
633.737
681.432
737.833
804.552
879.09
956.887
1022.86
1086.32
408.566
410.557
414.337
418.033
420.817
423.965
427.757
432.022
436.381
441.473
447.044
453.552
460.172
466.718
473.313
481.565
492.029
505.478
523.663
546.517
574.193
608.851
649.234
696.451
752.852
818.123
888.724
963.303
1026.2
1086.1
414.091
415.194
417.804
421.218
425.098
428.145
430.738
434.994
439.414
443.888
449.545
455.927
463.367
470.701
478.364
488.63
501.796
518.459
539.932
566.248
596.584
632.838
674.927
721.746
776.076
838.901
904.92
974.702
1035.33
1094.64
416.009
417.437
419.786
423.001
426.455
429.791
432.814
436.979
441.5
446.207
451.612
457.748
465.493
474.189
484.074
496.963
513.418
533.745
558.376
587.987
620.87
658.496
701.481
748.476
801.439
862.03
924.807
989.391
1046.86
1101.87
418.791
420.935
423.318
426.267
429.248
432.5
435.964
440.226
444.605
449.546
455.148
461.101
468.25
478.629
491.899
508.166
528.283
552.213
580.007
612.565
647.425
686.075
729.734
776.99
827.811
885.085
944.365
1004.15
1057.81
1110.19
420.131
422.683
425.543
428.55
431.171
434.554
438.513
442.592
447.276
452.613
458.302
464.809
473.335
485.386
501.323
521.044
544.805
572.396
603.336
638.79
675.7
715.263
759.159
806.526
855.589
909.302
964.426
1020.01
1068.93
1116.94
423.211
425.637
428.417
431.411
434.086
437.583
441.685
445.749
450.269
455.705
461.639
469.307
480.042
494.693
513.614
536.757
563.901
594.87
628.761
666.697
705.77
746.225
790.149
836.95
884.521
934.774
985.418
1036.79
1081.18
1125.86
424.924
427.255
430.181
433.458
436.011
439.748
443.969
448.314
452.709
458.06
464.976
474.493
488.185
506.339
528.891
555.54
585.985
619.95
656.354
696.387
737.519
778.843
822.546
868.47
914.413
961.426
1007.54
1054.05
1094.17
1133.07
428.209
429.815
432.695
435.854
438.48
442.261
446.48
450.934
455.444
461.181
469.672
481.832
498.82
520.673
546.963
577.173
610.774
647.561
686.304
728.675
771.072
812.761
856.237
901.111
945.176
988.981
1030.63
1071.47
1107.18
1140.64
431.333
432.005
434.461
437.127
440.484
444.457
448.541
453.023
457.92
465.007
475.843
491.688
512.538
538.077
568.107
601.628
638.258
677.456
718.509
762.936
806.48
847.763
890.887
934.327
976.328
1016.86
1054
1089.17
1119.36
1146.83
433.885
434.434
436.562
439.17
442.671
446.844
451.159
455.86
461.484
470.468
484.839
504.691
529.527
558.75
592.345
629.136
668.355
709.586
752.623
798.55
843.188
884.128
926.933
968.078
1007.61
1044.67
1077.16
1106.91
1131.58
1154.98
434.951
435.684
437.479
440.362
444.202
448.584
453.2
458.201
465.65
478.123
496.957
520.854
549.774
582.711
619.517
659.617
701.206
744.19
788.774
834.75
880.534
921.721
963.366
1002.15
1038.88
1072.16
1099.83
1124.26
1143.38
1160.8
436.696
437.3
438.982
441.918
446.011
450.533
455.363
461.553
472.219
489.135
512.238
540.368
573.351
609.956
649.607
692.468
736.205
781.222
826.601
872.013
917.867
959.833
999.566
1036.11
1069.82
1099.09
1121.96
1140.77
1154.64
1166.63
438.008
438.7
440.152
443.155
447.523
452.142
457.638
466.541
481.421
502.971
530.307
563.037
600.145
640.297
682.601
727.389
773.417
819.903
865.509
910.217
954.681
997.485
1035.26
1069.56
1100.15
1125.37
1143.45
1156.46
1165.07
1171.95
439.743
440.127
441.662
444.873
449.405
454.239
461.275
473.843
493.388
519.606
551.903
589.131
630.208
673.674
718.264
764.301
812.699
859.526
904.931
948.982
992.646
1034.35
1070.18
1102.14
1129.53
1150.95
1163.95
1171.5
1174.56
1177.26
440.468
440.749
442.516
446.171
450.876
456.51
466.211
483.194
507.914
539.513
576.789
618.414
663.17
709.581
756.025
803.143
853.015
899.75
944.269
987.765
1029.94
1070.05
1104
1133.53
1157.75
1175.32
1183.44
1185.87
1184.5
1181.36
441.368
441.655
443.653
447.624
452.367
459.329
473.117
495.603
525.997
562.965
605.078
650.882
698.929
747.768
795.503
843.919
893.923
940.02
983.641
1025.9
1066.32
1104.52
1136.56
1163.64
1184.79
1198.3
1201.59
1198.66
1192.85
1184.12
442.347
442.438
444.486
448.683
454.099
463.735
482.48
510.769
547.167
589.667
636.468
686.113
736.985
787.649
836.51
885.732
934.949
980.156
1022.35
1063.15
1101.74
1137.73
1167.72
1192.36
1210.45
1219.72
1218.6
1211.56
1200.51
1186.18
443.496
443.667
445.663
450.031
456.887
470.456
494.64
529.298
571.834
619.677
670.821
723.757
776.818
828.634
878.819
927.507
974.932
1020.16
1060.39
1099.48
1136.09
1169.55
1197.09
1219.51
1234.37
1239.4
1234.22
1222.95
1207.23
1188.1
443.956
444.358
446.569
451.452
460.892
479.906
510.439
551.338
599.668
652.435
707.375
762.971
817.604
870.36
921.337
968.459
1014.88
1058.88
1097.48
1134.49
1169.04
1199.92
1224.8
1244.84
1256.49
1257.6
1249.43
1233.6
1213.4
1188.8
444.486
444.894
447.614
453.805
467.359
493.168
530.473
577.002
630.324
687.248
745.306
802.884
858.568
912.556
962.757
1008.22
1053.87
1096.22
1133.3
1167.92
1200.32
1228.7
1251.13
1268.05
1276.69
1274.67
1263.39
1243.58
1219.12
1188.2
445.256
445.731
449.057
458.082
477.336
510.167
553.966
605.849
663.294
723.407
783.772
842.625
899.283
954.073
1002.22
1047.36
1091.41
1131.83
1167.38
1199.77
1229.96
1255.81
1275.61
1289.36
1295.02
1290.1
1276.54
1253.76
1224.92
1189.09
446.19
447.079
451.732
463.849
489.596
529.365
579.393
636.277
697.482
760.167
822.169
881.67
939.599
993.61
1040.54
1084.41
1127.13
1165.62
1199.63
1229.98
1257.9
1281.14
1298.27
1308.99
1311.87
1305.36
1289.67
1266.03
1233.58
1169.64
446.685
448.169
454.638
471.183
503.77
549.802
605.551
667.362
732.081
796.892
859.947
919.836
978.028
1030.85
1076.86
1119.84
1161
1197.7
1230.07
1258.52
1284.12
1304.73
1319.19
1327.08
1327.32
1319.94
1304.64
1289.87
1268.22
1195.84
1460.7
1511.93
1530.41
1564.08
1582.98
1610.37
1628.25
1650.78
1667.86
1686.39
1702.45
1718.28
1733.01
1747.08
1760.43
1773.06
1785.09
1796.59
1807.67
1817.99
1828.15
1838.14
1847.55
1856.34
1864.9
1873.09
1881.02
1888.67
1895.98
1902.96
1909.59
1915.86
1921.77
1927.33
1932.53
1937.35
1941.8
1945.85
1949.49
1952.69
1955.46
1957.75
1959.51
1960.7
1961.31
1961.38
1960.59
1959.2
1957.53
1954.01
1950.08
1945.32
1939.67
1933.16
1925.55
1917.1
1907.69
1897.35
1886.05
1873.76
1860.47
1846.16
1830.82
1814.46
1797.15
1778.89
1759.74
1739.73
1718.95
1697.39
1675.14
1652.32
1628.87
1604.89
1580.51
1555.52
1530.27
1504.74
1478.45
1451.98
1425.73
1398.31
1370.73
1343.69
1315.38
1285.87
1257.4
1228.21
1195.82
1163.29
1132.37
1099.08
1063.59
1027.61
990.319
951.523
911.545
871.167
830.466
790.335
751.113
714.344
679.715
648.141
619.771
594.134
571.579
552.03
534.674
519.499
506.563
495.466
485.852
477.405
470.362
465.078
460.913
457.45
454.68
452.478
451.091
449.875
448.299
447.277
446.822
1557.83
1593.51
1616.8
1641.49
1663.27
1684.7
1704.11
1722.93
1740.25
1756.88
1772.46
1787.32
1801.44
1814.92
1827.78
1840.08
1851.86
1863.15
1874.05
1884.66
1895.01
1904.94
1914.36
1923.36
1932.1
1940.52
1948.63
1956.43
1963.92
1971.08
1977.89
1984.38
1990.52
1996.32
2001.78
2006.86
2011.56
2015.84
2019.67
2023.04
2025.93
2028.3
2030.13
2031.35
2031.92
2031.96
2031.26
2029.86
2027.7
2024.61
2020.73
2016.03
2010.48
2004.14
1996.94
1988.47
1979.09
1968.69
1957.21
1944.6
1930.97
1916.32
1900.72
1884.09
1866.49
1847.87
1828.34
1807.96
1786.79
1764.88
1742.3
1719.11
1695.38
1671.21
1646.62
1621.65
1596.33
1570.65
1544.67
1518.53
1492.23
1465.59
1438.76
1411.68
1384.09
1356.14
1327.89
1298.76
1268.68
1238.32
1207.44
1175.23
1141.82
1107.63
1072.04
1035.49
998.272
960.589
922.747
885.324
848.603
813.631
780.351
749.366
720.479
693.618
668.894
645.988
624.401
604.07
584.985
566.944
549.872
533.704
518.819
505.475
493.7
483.59
474.982
467.679
461.865
457.281
453.381
450.404
448.935
1628.33
1656.56
1680.41
1702.68
1723.64
1743.56
1762.26
1779.98
1796.72
1812.74
1827.93
1842.44
1856.35
1869.71
1882.54
1894.89
1906.78
1918.3
1929.6
1940.65
1951.31
1961.48
1971.17
1980.56
1989.72
1998.56
2007.06
2015.23
2023.07
2030.58
2037.76
2044.61
2051.14
2057.32
2063.13
2068.54
2073.51
2078.03
2082.05
2085.57
2088.54
2090.95
2092.75
2093.89
2094.37
2094.27
2093.43
2091.85
2089.48
2086.27
2082.25
2077.4
2071.71
2065.15
2057.65
2049.11
2039.55
2028.98
2017.56
2004.57
1990.65
1975.65
1959.46
1942.02
1923.61
1904.29
1884.1
1863.1
1841.33
1818.8
1795.65
1771.96
1747.8
1723.23
1698.33
1673.14
1647.76
1622.26
1596.61
1570.73
1544.72
1518.64
1492.48
1466.15
1439.57
1412.73
1385.55
1357.84
1329.64
1301.06
1271.99
1242.17
1211.54
1180
1147.51
1114.2
1080.27
1045.9
1011.85
978.462
945.258
912.98
881.745
851.853
823.284
796.008
770.041
745.111
720.941
697.447
674.58
652.385
630.881
609.938
590.066
571.175
552.912
535.76
520.171
505.437
492.203
480.862
471.182
463.143
457.944
1692.67
1717.78
1741.21
1762.39
1782.56
1801.71
1819.86
1837.14
1853.63
1869.42
1884.56
1899.04
1913.08
1926.65
1939.76
1952.45
1964.78
1976.84
1988.74
2000.46
2011.68
2022.35
2032.59
2042.56
2052.37
2061.81
2070.89
2079.63
2088.03
2096.11
2103.87
2111.33
2118.46
2125.24
2131.62
2137.56
2143
2147.92
2152.29
2156.07
2159.24
2161.76
2163.6
2164.69
2165.1
2164.9
2163.9
2162.11
2159.48
2156.01
2151.72
2146.58
2140.58
2133.66
2125.75
2116.8
2106.76
2095.63
2083.38
2069.9
2055.25
2039.49
2022.71
2004.42
1985.16
1964.92
1943.63
1921.24
1898.11
1874.43
1850.3
1825.81
1800.93
1775.69
1750.21
1724.58
1698.85
1673.09
1647.32
1621.62
1595.87
1570.07
1544.3
1518.54
1492.73
1466.8
1440.67
1414.25
1387.51
1360.44
1332.95
1304.94
1276.33
1247.08
1217.28
1187.07
1156.51
1125.64
1094.59
1063.6
1032.9
1002.91
973.641
945.405
918.152
891.327
865.159
839.61
814.477
789.643
765.045
740.73
716.757
692.969
669.767
647.2
624.747
603.006
582.67
562.94
543.811
525.593
508.333
492.56
480.246
1756.65
1780.75
1803.82
1824.39
1844.08
1862.86
1880.77
1897.93
1914.41
1930.3
1945.64
1960.48
1974.89
1988.91
2002.55
2015.85
2028.83
2041.68
2054.43
2066.89
2078.81
2090.21
2101.22
2111.98
2122.55
2132.74
2142.53
2151.98
2161.09
2169.91
2178.45
2186.71
2194.66
2202.24
2209.38
2216.03
2222.11
2227.61
2232.49
2236.68
2240.17
2242.9
2244.88
2246.03
2246.46
2246.25
2245.16
2243.17
2240.26
2236.45
2231.79
2226.24
2219.73
2212.24
2203.7
2194.04
2183.21
2171.19
2157.94
2143.42
2127.62
2110.57
2092.31
2072.74
2052.02
2030.25
2007.54
1984.01
1959.56
1934.58
1909.09
1882.93
1856.53
1830.1
1803.72
1777.38
1751.06
1724.76
1698.65
1672.77
1647.11
1621.67
1596.33
1571.03
1545.86
1520.7
1495.51
1470.2
1444.76
1419.12
1393.23
1367.01
1340.4
1313.39
1285.99
1258.29
1230.33
1202.23
1174.14
1146.11
1118.13
1090.22
1062.62
1035.55
1008.99
982.624
957.108
932.137
906.895
881.638
856.348
831.036
805.75
780.364
755.033
729.999
704.827
679.824
655.709
631.848
607.98
584.455
561.748
539.558
520.002
1821.87
1846.32
1869.19
1889.48
1909.03
1927.73
1945.68
1962.98
1979.71
1995.94
2011.7
2027.05
2042.02
2056.66
2070.98
2085.05
2098.94
2112.7
2126.29
2139.55
2152.23
2164.45
2176.32
2187.93
2199.25
2210.19
2220.57
2230.74
2240.58
2250.15
2259.5
2268.6
2277.38
2285.8
2293.76
2301.17
2307.97
2314.13
2319.62
2324.32
2328.21
2331.25
2333.5
2334.92
2335.53
2335.5
2334.47
2332.39
2329.25
2325.13
2320.14
2314.07
2306.9
2298.76
2289.39
2278.79
2266.97
2253.86
2239.44
2223.64
2206.43
2187.83
2167.88
2146.54
2123.9
2100.1
2075.32
2049.68
2023.33
1996.52
1969.4
1942.01
1914.37
1886.72
1859
1831.1
1803.46
1776.24
1749.55
1723.32
1697.49
1672.08
1647.11
1622.55
1598.15
1573.79
1549.56
1525.4
1501.23
1477
1452.62
1428.04
1403.22
1378.17
1352.91
1327.48
1301.89
1276.22
1250.51
1224.76
1199.01
1173.39
1147.95
1122.72
1097.41
1071.99
1046.81
1021.46
996.081
971.385
946.048
920.472
894.652
868.497
842.007
815.399
788.448
761.276
734.367
707.399
679.974
652.416
625.388
598.067
572.441
1888.65
1914.33
1937.17
1957.47
1977.16
1996.01
2014.2
2031.82
2048.95
2065.62
2081.88
2097.77
2113.33
2128.61
2143.64
2158.47
2173.15
2187.69
2202
2215.83
2229.18
2242.13
2254.7
2266.93
2278.69
2289.99
2300.79
2311.21
2321.35
2331.29
2341.07
2350.68
2359.76
2368.58
2377.06
2384.9
2392.15
2398.73
2404.7
2409.79
2414.01
2417.37
2420
2421.96
2423.04
2423.34
2422.62
2420.65
2417.54
2413.56
2408.52
2401.72
2394.01
2385.87
2375.77
2364.28
2351.7
2337.82
2322.58
2305.87
2287.48
2267.53
2246.18
2223.14
2198.55
2172.64
2145.65
2117.73
2089.15
2060.1
2030.75
2001.29
1971.86
1942.6
1913.74
1884.6
1856.06
1827.79
1799.98
1772.75
1746.34
1720.78
1696.03
1671.88
1648.2
1624.97
1601.97
1579.09
1556.11
1533.23
1510.37
1487.41
1464.33
1441.11
1417.71
1394.16
1370.48
1346.69
1322.83
1298.95
1275.08
1251.24
1227.44
1203.64
1179.74
1155.8
1131.85
1107.63
1082.96
1058
1032.16
1006.32
980.629
954.215
927.344
899.964
871.954
843.473
814.707
785.57
755.724
725.206
694.739
663.833
633.806
1956.51
1984.12
2006.98
2027.49
2047.5
2066.6
2085.09
2103.03
2120.48
2137.48
2154.08
2170.32
2186.23
2201.87
2217.29
2232.51
2247.52
2262.28
2276.67
2290.58
2304.1
2317.17
2329.75
2341.83
2353.21
2364.06
2374.25
2383.89
2393.17
2402.19
2410.95
2419.27
2427.02
2434.23
2440.98
2447.34
2453.4
2458.6
2463.77
2467.95
2471.34
2474.28
2476.88
2478.94
2480.07
2480.3
2479.64
2477.88
2475.3
2471.82
2467.84
2463.36
2457.18
2449.28
2440.51
2429.94
2418.66
2405.86
2391.93
2376.87
2359.77
2340.98
2319.7
2296.14
2270.52
2243.3