/*--------------------------------*- C++ -*----------------------------------*\
| =========                 |                                                 |
| \\      /  F ield         | OpenFOAM: The Open Source CFD Toolbox           |
|  \\    /   O peration     | Version:  2112                                  |
|   \\  /    A nd           | Website:  www.openfoam.com                      |
|    \\/     M anipulation  |                                                 |
\*---------------------------------------------------------------------------*/
FoamFile
{
    version     2.0;
    format      ascii;
    arch        "LSB;label=32;scalar=64";
    class       volScalarField;
    location    "0.00494";
    object      p;
}
// * * * * * * * * * * * * * * * * * * * * * * * * * * * * * * * * * * * * * //

dimensions      [1 -1 -2 0 0 0 0];

internalField   nonuniform List<scalar> 
13875
(
951610
984302
973576
975841
973521
974301
974362
975017
974758
975150
975242
975066
974649
974767
974874
974595
974656
975324
975386
974529
973306
975732
972422
982440
945039
733819
659602
672265
677272
669504
668383
670741
677682
679194
679776
680054
679079
670228
669148
670375
677909
678968
678999
677262
670353
670277
677129
672366
657301
730767
736908
635483
664232
653226
648287
646595
646204
647044
646708
646607
647235
647433
645491
645411
645395
649008
647336
646534
647166
647493
648593
652233
662071
632184
733547
743548
636122
665108
653374
648578
646796
646298
645095
644205
644022
643728
643923
645535
645525
645436
644768
643760
643911
645967
647655
648877
652356
662823
632789
739313
757375
639119
667647
654062
649441
647340
646569
645210
644334
644127
643837
644007
645688
645829
645584
644797
643808
644037
646079
648112
649677
652944
665115
635431
750666
759036
647757
673392
656005
651275
648474
647143
645554
644704
644432
644125
644334
646035
646445
645898
644928
644013
644426
646477
649081
651381
654807
670699
643163
751998
765005
668235
685591
660898
655027
650760
648349
646329
645461
645096
644717
645170
646806
647187
646511
645266
644618
645377
647636
651247
655088
660416
682228
665874
756111
791117
718212
711508
674316
663098
655614
651125
648155
647036
646534
645990
646619
648340
648684
647832
646213
646080
647343
650171
655611
662643
673271
707255
715441
782098
908466
827671
766495
704324
679353
665187
656989
652119
650289
649544
648741
649540
651441
651732
650643
648644
649294
651368
655546
664311
677753
701298
760558
823427
910121
1.52401e+06
1.02918e+06
834266
740903
699600
677761
665750
659158
656595
655515
654550
655572
657555
657833
656641
654451
655680
658530
664234
676287
697776
738112
830384
1.02621e+06
1.51908e+06
2.9073e+06
1.39308e+06
961028
801627
732006
698375
681480
672875
669203
667542
666462
667465
669167
669678
668815
667020
668426
672034
679628
695345
727354
793362
944209
1.35266e+06
2.86601e+06
5.61247e+06
2.34906e+06
1.30233e+06
951655
804517
742935
715181
702091
696049
693140
691748
692225
693001
694084
694150
694076
696081
701570
713923
740349
799716
939345
1.26777e+06
2.27904e+06
5.58624e+06
5.40291e+06
4.84603e+06
2.36947e+06
1.44554e+06
1.01512e+06
862981
799518
772608
760090
753810
750784
749721
748867
750818
753193
756638
762367
774527
801984
867984
1.02338e+06
1.43045e+06
2.25684e+06
4.88133e+06
5.35687e+06
4.87468e+06
4.68107e+06
4.81874e+06
4.14579e+06
1.72281e+06
1.2387e+06
1.05227e+06
976262
941771
923279
913439
907831
905193
908734
916183
929067
950748
989566
1.07725e+06
1.30826e+06
1.91859e+06
4.25556e+06
4.81435e+06
4.73655e+06
4.78605e+06
4.06527e+06
4.1955e+06
4.64983e+06
4.54843e+06
4.24706e+06
2.85799e+06
2.03526e+06
1.6738e+06
1.56025e+06
1.50734e+06
1.47483e+06
1.45406e+06
1.44736e+06
1.45309e+06
1.47067e+06
1.50822e+06
1.57616e+06
1.69811e+06
2.05189e+06
3.04713e+06
4.33623e+06
4.56569e+06
4.68223e+06
4.3554e+06
4.30943e+06
3.63979e+06
3.64199e+06
4.1616e+06
4.45713e+06
5.02398e+06
5.306e+06
4.77008e+06
3.79328e+06
3.72104e+06
3.66596e+06
3.55044e+06
3.49014e+06
3.47591e+06
3.49479e+06
3.54124e+06
3.65405e+06
3.74486e+06
3.84562e+06
4.77317e+06
5.33533e+06
4.97919e+06
4.49589e+06
4.30694e+06
3.79164e+06
3.87727e+06
2.73967e+06
2.94075e+06
3.58122e+06
4.26519e+06
5.12644e+06
6.00245e+06
7.48336e+06
8.74243e+06
9.30926e+06
9.55679e+06
9.72349e+06
9.80245e+06
9.82998e+06
9.82009e+06
9.75843e+06
9.58328e+06
9.28586e+06
8.88334e+06
7.63436e+06
6.10801e+06
5.14383e+06
4.29656e+06
3.65064e+06
3.09092e+06
2.92324e+06
1.82372e+06
2.27313e+06
3.24359e+06
4.28869e+06
5.19486e+06
6.26815e+06
7.2831e+06
7.64384e+06
7.58706e+06
7.60551e+06
7.68764e+06
7.75376e+06
7.77783e+06
7.76925e+06
7.73375e+06
7.67938e+06
7.66875e+06
7.76768e+06
7.37218e+06
6.27541e+06
5.20941e+06
4.33852e+06
3.14685e+06
2.15054e+06
1.70054e+06
849810
1.44449e+06
2.81993e+06
3.91745e+06
4.83663e+06
5.47229e+06
5.85837e+06
5.84803e+06
5.82045e+06
5.85056e+06
5.88139e+06
5.89396e+06
5.90272e+06
5.90389e+06
5.90028e+06
5.87799e+06
5.84729e+06
5.88258e+06
5.95039e+06
5.60532e+06
4.9065e+06
4.00608e+06
2.8251e+06
1.45108e+06
849354
404516
861240
2.02095e+06
3.12049e+06
3.84158e+06
4.28093e+06
4.57914e+06
4.77442e+06
4.9357e+06
5.0538e+06
5.11632e+06
5.1351e+06
5.1433e+06
5.1348e+06
5.11277e+06
5.04737e+06
4.93585e+06
4.7832e+06
4.58501e+06
4.31922e+06
3.90502e+06
3.15875e+06
1.9678e+06
844464
401111
560044
887283
1.47301e+06
2.28662e+06
2.90199e+06
3.35679e+06
3.68476e+06
3.99064e+06
4.25777e+06
4.42799e+06
4.5179e+06
4.56043e+06
4.57404e+06
4.55555e+06
4.50752e+06
4.40855e+06
4.23291e+06
3.96988e+06
3.64744e+06
3.33268e+06
2.9106e+06
2.26846e+06
1.40546e+06
849762
543900
1.07339e+06
957401
1.19432e+06
1.69499e+06
2.2396e+06
2.68829e+06
3.05404e+06
3.38279e+06
3.67097e+06
3.85146e+06
3.95473e+06
4.00849e+06
4.02537e+06
4.00025e+06
3.93809e+06
3.82576e+06
3.63638e+06
3.35054e+06
3.01095e+06
2.63449e+06
2.21955e+06
1.66805e+06
1.162e+06
946965
1.08935e+06
1.37817e+06
1.09292e+06
1.13718e+06
1.36652e+06
1.77032e+06
2.19335e+06
2.56988e+06
2.90252e+06
3.16787e+06
3.33638e+06
3.43894e+06
3.49619e+06
3.51401e+06
3.48592e+06
3.42081e+06
3.31031e+06
3.13126e+06
2.8624e+06
2.54038e+06
2.13224e+06
1.74186e+06
1.34645e+06
1.12984e+06
1.13226e+06
1.37826e+06
1.4458e+06
1.19519e+06
1.14624e+06
1.2165e+06
1.50297e+06
1.84492e+06
2.18088e+06
2.49599e+06
2.73223e+06
2.8794e+06
2.97829e+06
3.0339e+06
3.05316e+06
3.02461e+06
2.96012e+06
2.85447e+06
2.69691e+06
2.44719e+06
2.14229e+06
1.80216e+06
1.47103e+06
1.19319e+06
1.13638e+06
1.19404e+06
1.39309e+06
1.46658e+06
1.26887e+06
1.16015e+06
1.15574e+06
1.33622e+06
1.59e+06
1.87511e+06
2.147e+06
2.35175e+06
2.49245e+06
2.58293e+06
2.63645e+06
2.65181e+06
2.6299e+06
2.56802e+06
2.47111e+06
2.327e+06
2.10958e+06
1.84061e+06
1.55694e+06
1.30479e+06
1.13629e+06
1.14633e+06
1.28436e+06
1.43785e+06
1.51855e+06
1.40727e+06
1.17941e+06
1.14173e+06
1.2277e+06
1.40578e+06
1.63704e+06
1.86213e+06
2.0361e+06
2.16017e+06
2.2449e+06
2.28895e+06
2.30532e+06
2.28345e+06
2.23182e+06
2.13721e+06
2.00971e+06
1.82877e+06
1.60463e+06
1.38291e+06
1.20635e+06
1.12079e+06
1.15558e+06
1.34878e+06
1.50116e+06
1.57813e+06
1.44881e+06
1.19501e+06
1.1402e+06
1.16048e+06
1.2714e+06
1.44874e+06
1.62573e+06
1.77323e+06
1.88335e+06
1.95832e+06
1.99854e+06
2.00996e+06
1.99295e+06
1.94503e+06
1.86238e+06
1.75123e+06
1.59882e+06
1.42093e+06
1.24565e+06
1.13785e+06
1.11745e+06
1.17203e+06
1.41862e+06
1.54298e+06
1.61437e+06
1.50372e+06
1.22018e+06
1.13394e+06
1.11762e+06
1.16975e+06
1.29317e+06
1.43121e+06
1.55181e+06
1.64365e+06
1.71235e+06
1.74611e+06
1.7592e+06
1.74189e+06
1.7038e+06
1.6291e+06
1.53583e+06
1.41192e+06
1.27185e+06
1.15128e+06
1.09839e+06
1.11088e+06
1.19074e+06
1.47393e+06
1.6262e+06
1.69031e+06
1.56325e+06
1.24572e+06
1.11707e+06
1.08201e+06
1.09471e+06
1.17232e+06
1.27434e+06
1.3724e+06
1.45038e+06
1.50545e+06
1.53717e+06
1.5465e+06
1.53293e+06
1.49834e+06
1.43641e+06
1.35768e+06
1.25747e+06
1.15513e+06
1.07506e+06
1.06237e+06
1.09258e+06
1.20853e+06
1.52226e+06
1.67112e+06
1.81541e+06
1.64871e+06
1.26105e+06
1.10104e+06
1.0457e+06
1.04039e+06
1.07657e+06
1.14691e+06
1.22054e+06
1.28123e+06
1.33084e+06
1.35523e+06
1.36506e+06
1.34997e+06
1.32353e+06
1.26947e+06
1.20715e+06
1.12979e+06
1.0591e+06
1.02127e+06
1.02503e+06
1.07793e+06
1.24223e+06
1.62778e+06
1.73302e+06
1.81547e+06
1.6884e+06
1.28876e+06
1.08697e+06
1.00528e+06
985009
996555
1.04151e+06
1.09493e+06
1.14442e+06
1.18183e+06
1.20416e+06
1.21092e+06
1.20089e+06
1.17668e+06
1.13519e+06
1.08651e+06
1.03111e+06
985760
971313
989892
1.07112e+06
1.27178e+06
1.69764e+06
1.79209e+06
1.81359e+06
1.69776e+06
1.33663e+06
1.08707e+06
974060
937039
931612
957696
992384
1.02486e+06
1.0561e+06
1.07189e+06
1.07953e+06
1.06995e+06
1.05196e+06
1.01644e+06
981902
946414
919581
925452
960608
1.07164e+06
1.317e+06
1.71941e+06
1.8029e+06
1.80532e+06
1.69493e+06
1.39834e+06
1.08943e+06
942480
887928
875640
883283
906542
930199
950602
963746
968213
961469
946006
922898
899446
875987
864594
877304
931738
1.07696e+06
1.39565e+06
1.71888e+06
1.80191e+06
1.78888e+06
1.6925e+06
1.52599e+06
1.1029e+06
923304
848732
823766
820269
830593
845341
860278
868025
872717
866613
857234
839927
824579
813414
816175
840959
913715
1.08676e+06
1.49083e+06
1.705e+06
1.79701e+06
1.75687e+06
1.68502e+06
1.5734e+06
1.13267e+06
916962
814906
776351
766946
768112
776415
785026
790602
792454
789100
782411
772425
763458
761017
768311
806135
911310
1.11222e+06
1.59168e+06
1.67866e+06
1.78616e+06
1.73489e+06
1.65975e+06
1.57e+06
1.16495e+06
919064
789199
735514
718235
714329
714773
718826
721357
723353
719510
716733
711269
708529
712615
729420
782660
915734
1.16166e+06
1.59173e+06
1.62591e+06
1.76367e+06
1.70658e+06
1.60785e+06
1.56451e+06
1.23205e+06
929951
770569
699998
674301
666175
664753
664212
664880
665000
663464
662390
662487
663799
671231
694813
765778
923388
1.23376e+06
1.57761e+06
1.57899e+06
1.72544e+06
1.67004e+06
1.55202e+06
1.54975e+06
1.36681e+06
957029
770758
675816
638366
623283
616797
614673
613712
614189
612861
613649
615261
620094
634800
671915
766418
946061
1.38017e+06
1.55105e+06
1.53425e+06
1.67001e+06
1.64233e+06
1.50814e+06
1.51167e+06
1.36645e+06
990112
773850
658350
607969
587286
579105
574008
572172
571571
571468
572592
577550
585597
604939
653151
774064
994408
1.38386e+06
1.49804e+06
1.49785e+06
1.61559e+06
1.60461e+06
1.47156e+06
1.43606e+06
1.36186e+06
1.06024e+06
787917
658365
585612
555654
541841
536209
533469
533242
533210
535657
540732
553266
583344
650423
785430
1.0708e+06
1.37297e+06
1.40846e+06
1.46835e+06
1.58039e+06
1.55774e+06
1.43804e+06
1.35963e+06
1.34705e+06
1.20165e+06
818455
661736
572285
531464
514958
505733
502369
500944
501872
504665
513758
530032
569780
653462
812377
1.22643e+06
1.34844e+06
1.33658e+06
1.44338e+06
1.53809e+06
1.52272e+06
1.41221e+06
1.29979e+06
1.30972e+06
1.20093e+06
862940
667428
572329
514698
487884
477573
472859
471844
471954
476754
486636
511662
569990
666499
870658
1.22591e+06
1.29798e+06
1.28412e+06
1.41436e+06
1.49192e+06
1.47449e+06
1.38816e+06
1.25386e+06
1.23596e+06
1.19261e+06
956988
686343
575472
507043
472594
455408
449549
447002
448664
454326
472311
504749
572207
688144
972808
1.20865e+06
1.22848e+06
1.24106e+06
1.38452e+06
1.45873e+06
1.42417e+06
1.35922e+06
1.22093e+06
1.16939e+06
1.16959e+06
1.05482e+06
724847
584560
507584
458529
436399
427011
424789
426311
435440
456414
505103
580018
731289
1.05724e+06
1.17107e+06
1.16233e+06
1.2115e+06
1.35592e+06
1.41975e+06
1.38785e+06
1.32554e+06
1.19542e+06
1.11687e+06
1.11807e+06
1.05008e+06
791735
600219
509478
458200
426196
411599
406924
410648
424663
456433
509073
600941
822902
1.05178e+06
1.09678e+06
1.11062e+06
1.18924e+06
1.31687e+06
1.37502e+06
1.34858e+06
1.29152e+06
1.17837e+06
1.07425e+06
1.05283e+06
1.03561e+06
931676
634247
517937
459297
424410
400801
394393
399864
421029
457349
518295
637181
935349
1.02999e+06
1.03074e+06
1.06799e+06
1.17222e+06
1.28123e+06
1.34363e+06
1.30464e+06
1.24752e+06
1.15854e+06
1.04955e+06
1.00175e+06
1.0019e+06
931153
703837
538516
463551
424939
399300
387416
398780
421450
460867
540653
710171
931843
983556
981527
1.04464e+06
1.15355e+06
1.24358e+06
1.30356e+06
1.26379e+06
1.21137e+06
1.13927e+06
1.03076e+06
961472
942147
919909
836477
577954
473348
426434
399635
387783
399238
424322
472362
591817
844598
920515
929162
944915
1.02569e+06
1.13278e+06
1.20478e+06
1.25541e+06
1.18199e+06
1.15814e+06
1.10923e+06
1.01722e+06
934879
893044
893956
835356
661470
496649
432736
401556
389614
400976
431675
496197
692808
842644
892962
888577
922886
1.01208e+06
1.10245e+06
1.15092e+06
1.17275e+06
1.04909e+06
1.08587e+06
1.06779e+06
995743
916361
853762
845848
826104
761265
548005
450078
407303
394700
406508
450002
547660
761767
830630
845741
850962
906071
988247
1.05895e+06
1.08004e+06
1.04276e+06
80719.8
85869.4
90107.6
93379.2
94959.6
97561
118187
159279
178464
181488
180252
174810
166710
158288
150109
143011
137347
132774
128267
124206
121188
117302
111697
106646
102730
100022
98100.1
96930.9
96427.8
96070.3
90874.9
128697
153488
167403
174660
174142
171039
174708
178520
179698
178321
172120
163600
154794
146442
139542
134188
129930
125605
121491
118680
115936
110363
105025
100783
97851.2
95791.7
94439.9
93792.1
93427.9
143944
182671
191744
203826
209109
206788
197497
182437
179052
177830
173530
165204
157533
150291
142800
136160
131013
126924
122866
118881
116230
114440
109144
103503
98990.2
95833.4
93477.1
91959.7
91311.2
90858.1
173993
197200
201240
212884
216596
215556
211980
188916
180148
175630
167822
158339
151555
145452
138666
131936
126959
123307
119779
116100
113735
112487
107964
101922
97185.7
93757.4
91025.8
89152.9
88309.3
87552.2
181437
200033
202578
214057
217418
217691
217295
200277
181176
171893
161848
152773
146409
140480
133978
127118
122329
119046
116002
112763
110801
109768
106126
99726
94832.3
91192.5
88357.7
86113.1
84844.4
83694.9
183471
200547
202395
212287
216739
218048
218801
211398
183408
167763
157893
148107
141385
135574
129271
122281
117296
114113
111231
108237
106562
105699
102752
96349.4
91550.2
87989.6
85044.4
82453.9
81051.6
80009.7
184331
200588
202542
209177
212407
217995
219060
215004
189092
167039
154214
142980
136585
131366
124982
117858
112303
109036
106040
102998
101076
99874.2
97710.7
91860.8
87476.4
84182.5
81477.7
79514.8
78521.1
77720.7
187216
200751
202345
207992
211365
216011
218655
215654
198240
167104
149562
138539
132352
127930
120986
113788
107735
104261
101136
98197.3
96351.8
95157.4
93871.2
88593.1
84538.2
81498.8
79130.8
77503.7
76600.2
75922.8
191292
200746
202426
207856
209679
212352
215718
215388
201069
167758
148474
137257
130413
125417
116815
110035
103820
99885.3
96732.9
93990.2
92321.5
91308
90572.5
86024.6
82248.3
79419.2
77251
75758.4
74923.8
74244.9
193208
200767
202856
208034
207819
210605
211539
211486
201746
170039
148586
137188
129484
123984
114972
106181
100481
95934.8
92866.2
90260
88754.9
87921.5
87473.2
83722.5
80206.3
77585.6
75573.2
74177
73359.3
72716.7
194325
202210
203201
208377
205751
207618
208898
207838
201244
179616
149430
137519
129015
123077
114427
104447
97613.8
92561
89409.4
86963.8
85557.3
84858.1
84506.2
81513.7
78291.3
75890.8
74015.9
72701.7
71919.4
71280.5
194952
202570
203742
208500
204586
205211
204333
203797
199860
183654
152054
139073
128583
121916
114377
104045
95253.1
89775.8
86297.2
84038.4
82717.9
82079.4
81691.7
79307.1
76443.2
74261.7
72501.2
71268.9
70501.7
69877
195147
203741
205048
208527
203596
202693
201241
198323
196177
184485
159196
141940
128081
120226
114528
104064
93216.2
87539.1
83583.9
81459.2
80202.6
79550.1
79045.9
77078.4
74586.7
72605.4
70918.4
69739.4
68978.1
68344.9
196066
204526
205449
207152
203064
199700
195702
189259
189435
184140
164968
143753
127652
119654
115489
104584
92347.2
85641
81370.5
79257.5
77957.2
77252.1
76568.4
74849.5
72645
70799.7
69121
67972
67196.3
66553.6
197415
205179
204949
207504
203086
197747
188285
182101
182211
182121
166727
144406
126981
119667
117419
106032
92280.1
84106.1
79622.3
77394.5
75985.4
75158.8
74269.1
72642.7
70599.7
68805.3
67112.5
65998.8
65224.3
64594.1
198819
206164
205815
207507
198720
187884
178261
175043
174407
176640
166848
144679
126778
120511
120306
108341
92585.4
83059.7
78199.7
75768.7
74183.7
73220.8
72182.9
70505.4
68503
66721.1
65055.7
64018.5
63272.4
62683.9
201402
206511
206031
205752
193561
180965
173358
171420
170101
172224
165121
143048
126975
122152
123611
111351
93568.9
82601.1
77037.4
74304.8
72556.8
71441
70221.2
68424.2
66426.9
64673.4
63087.2
62155.5
61454.5
60916.1
203318
205697
206035
202831
188333
177885
171901
169972
166378
167815
159455
139907
127970
124344
124665
115172
95418.5
82594.3
76170
73026.3
71103.1
69784.5
68331.7
66429.5
64434.3
62722
61236.6
60415.7
59755.7
59269.3
204036
205269
205809
200583
185840
176704
171776
169754
165508
165695
152820
138600
129009
125536
125072
121316
98168.3
82973.7
75450.6
71830.2
69733.9
68178.1
66510.9
64552
62575.6
60897
59482.3
58766.4
58131.9
57697.6
206474
205522
204714
197040
182970
176298
173628
169634
165851
162171
150420
137733
129522
126303
125856
132343
102427
83983.7
75025.8
70696.7
68423
66631.8
64784.3
62753.1
60807.1
59137.4
57839.5
57201.4
56547.3
56178.2
206541
203953
201851
191574
180289
176094
174070
169644
166111
160464
150299
137451
130165
127517
127903
135196
110238
86452.8
75005.1
69588.2
67047.7
65086.3
63023.9
60965.1
59112.7
57503.1
56358.1
55789
55111.2
54808.8
205903
202651
197734
186359
178764
175470
174276
170818
166523
161175
150921
138198
131915
129511
128816
134636
129314
91320.7
75800.6
68884.5
65490.9
63400.5
61299.4
59259
57543.3
56048.1
55028.7
54515.1
53878.1
53601.3
199891
195734
190240
181454
177676
175138
174477
171573
166307
162227
153230
142079
135580
131652
130218
135059
140042
100631
78569
68707.2
63952.9
61750
59734.3
57748.2
56119
54707.6
53778.6
53305.6
52730.5
52481.7
196822
189940
181598
177849
177108
174995
174533
172734
166276
162931
155944
146427
137320
133655
132890
134632
140520
120287
83561
69437.7
63127.2
60005.9
58195.3
56346.6
54776.4
53440
52620.5
52161.9
51613.3
51388.4
174848
177187
174289
173415
174434
173861
174118
173808
171270
166040
160513
148865
140580
136022
134437
134230
138676
136886
93218.1
72308.4
62968.5
58618.1
56353.3
54989.3
53520.2
52301.1
51583.7
51127.8
50613.6
50405.3
96437.6
96822.6
97390.9
98658.9
100643
103435
107425
112387
117579
121286
124430
128487
132920
137546
143245
150440
158761
167173
175251
180628
181715
178662
161145
121034
106585
105613
102076
95381.8
88315.8
81405.7
93830.5
94228
94933.3
96367.9
98494.4
101504
105793
110956
115974
118752
121703
125769
130037
134364
139733
146690
155112
163840
172419
178744
180101
179217
176395
177657
185779
186661
180638
168098
143961
95845.3
91269.3
91760.1
92445.5
94054.9
96462.8
99694.6
104236
109598
114280
116290
119079
122990
126961
131120
136304
143029
150525
157569
165255
173763
178085
179768
183961
203433
209980
211101
205765
194227
186246
155520
87985
88767.2
89666.2
91611.6
94348
97843.8
102605
108222
112185
113729
116259
119840
123274
126985
132001
138800
145569
151493
158313
167952
175763
181097
191398
213891
215719
215725
211351
200577
197040
176182
84152.4
85358.1
86663.3
88930.3
91790.6
95484.9
100404
106274
109338
110650
112835
115982
118938
122282
127129
134016
140438
146202
152745
162046
170961
182766
206092
217968
216926
216107
212010
201417
199201
181110
80521.6
81594.9
83030.5
85664.6
88592.6
92182.8
96953.5
102877
105138
106243
108153
111090
113907
117156
122251
129226
135412
141037
147985
158166
168933
185795
213498
218790
217060
213979
209205
201210
199653
182526
78210.1
79040.6
80076.9
82090.6
84767.3
88056.3
92368.1
97681.5
99466.5
100739
102844
105855
108777
112116
117807
124898
131172
136304
142650
153898
168673
195314
215870
218864
216909
211237
207737
201223
199694
183418
76378.7
77078.9
78009
79676.6
82045.1
85076.7
89071.9
93756
94816.6
96045.2
98042.2
100963
103994
107572
113712
120844
127769
132428
138826
150191
169029
201288
216263
218044
214845
210114
206989
201086
199845
188070
74665.5
75361.8
76210.8
77731.4
79900.2
82706.8
86412.4
90341.7
90990.5
92041.3
93838.4
96590.6
99643.6
103716
109889
116758
125448
130445
137804
149606
170137
203249
215490
214240
210391
208178
206787
201013
199878
189817
73101.5
73756.5
74581.3
75991
77999.2
80580.6
83983.3
87163
87635
88516.3
90120.7
92737.5
95758.9
100421
106174
115146
124187
129493
137823
149934
176062
203235
210763
210238
208338
205791
207291
201706
200159
191217
71624.4
72273.9
73059
74375.3
76236
78580.3
81624.7
84162.9
84604.1
85348.2
86836.3
89336.6
92455.4
97574.7
104810
114689
123099
128973
138374
151204
183868
202027
206589
207355
205939
204789
207647
202250
200840
192799
70174.1
70809.4
71582
72808.7
74546.2
76647.8
79301.5
81361.2
81861
82546.3
83953.1
86274
89716.1
95195.3
104539
114648
121602
128485
140251
155068
185987
199782
202134
203368
204737
203828
207716
203015
201149
193399
68588.4
69235.3
70008.1
71177.3
72833.3
74714.3
77018.6
78741.9
79364.2
80058.3
81432.1
83590.6
87514.3
93230
104584
114814
119854
127984
143491
164012
185747
195218
196999
198732
200453
202718
207849
204132
202251
193834
66733.3
67392.6
68192.6
69333.3
70983.5
72718.4
74773.2
76304.5
77087.4
77865.8
79240.4
81362.2
85666.5
92610.8
105215
115837
119436
127616
145084
167747
185028
187250
186760
194086
198114
202255
206591
204402
202923
194863
64705
65351.5
66159.7
67271.4
68953.2
70636.4
72557.5
74057.2
74984.4
75883.6
77363
79632.3
84218.4
92615.6
106766
117801
119565
126881
145876
168530
180909
180719
181640
185600
195776
202189
206918
204044
203452
195996
62730.2
63332.8
64114.7
65156.7
66831.4
68517.4
70414
72015
73051.4
74067.8
75684.8
78215.9
83289.2
93079.9
109153
120819
120515
126860
146284
168454
175043
173285
174485
176829
186210
197960
206703
204798
204427
197861
60912.6
61463.6
62197.4
63139.8
64752.2
66440.7
68348.1
70080
71297.4
72446.7
74226.6
77084
82934
94316.2
112127
122982
122266
127186
143999
165236
170644
169037
170422
172657
180195
192478
204392
205035
204736
201087
59227.5
59728.3
60414.8
61257.2
62765.8
64448.2
66367.6
68218
69662.3
71011.9
72970.1
76256.7
82972.7
96364.2
115963
123619
124160
128190
140571
160017
166854
165735
168797
171395
177469
187166
201335
204960
203797
203362
57619.5
58068.4
58731.7
59480.5
60911.4
62586.4
64487.6
66398.1
68072.2
69658.5
71796.5
75563
83420.8
99264.2
122802
123886
124955
128769
138887
154118
165108
165436
168575
171308
176328
184427
198435
204374
203375
204256
56057.2
56441.9
57119.9
57789.2
59131.4
60812.8
62692.4
64672.5
66518.6
68330.9
70677.1
75229.8
84596.7
103772
131567
125095
125698
129172
138086
151370
163111
165938
168476
172698
175793
181848
194853
203175
203500
206312
54638.8
54971.4
55668.7
56260.1
57446.4
59085.4
60915.7
62949.5
64971.9
66954.4
69609.6
75257.5
87308
112205
133012
126662
127082
129894
137961
150829
161914
166154
168495
173394
175509
179799
189389
200055
202151
206321
53431.2
53722.6
54384.5
54913
55953.2
57464.8
59200.7
61240
63310.2
65429.7
68993.2
76283.2
92536
131626
132617
127591
128795
131768
138299
151230
162179
166122
168812
173686
174872
177852
184296
195750
200513
205073
52352.2
52617.9
53204.5
53683.5
54610.6
56015
57660.9
59680.1
61671.3
63936.6
68890.7
79264.7
102246
138317
133111
129153
130486
134791
142161
153305
161971
165578
170176
173749
174391
176326
179890
187880
193847
199059
51304.3
51542.4
52095.2
52543.1
53354.2
54670.9
56262.5
58195
59941
63222.6
69791.8
84620
123408
138137
132662
131985
132847
136768
146052
156160
162684
165913
171746
173604
173993
175374
175983
179868
188026
195790
50332.5
50557.7
51086.1
51525.1
52231
53419.7
54916.5
56347.5
58676.8
63173.6
72808.6
94609
135749
135894
132427
133024
134941
139971
149060
160906
166323
170737
172655
173099
172330
172870
171632
172592
175780
173765
900979
865010
835076
820197
808932
802991
795206
789396
786238
783998
781319
779708
774317
768985
760901
751785
740993
727893
713361
697404
680045
660570
639651
617683
594563
570847
547226
523578
500003
476871
454155
431719
410159
389612
370182
351722
334063
317257
301443
287193
274300
262176
250825
240774
234503
228397
221735
215511
210136
205492
201437
197892
194943
192570
190726
189450
189056
189574
190284
191840
194710
199249
206141
215638
226720
240923
256723
272851
285338
294905
302640
309886
313569
313776
312872
309556
302971
292487
283256
274617
266350
259385
253432
248604
245072
241416
236115
229441
221890
213698
204887
195384
185146
174210
162685
150669
138041
123909
107209
89765.5
74529.7
65207.1
59138.9
54955.5
52097.1
50110.5
48679.6
47602.5
46781
46159.6
45687.1
45333.6
45049.3
44871.5
44718.1
44720.8
44765
44924.1
45270.9
45729.3
46295.4
46999.1
47698.6
48535.6
49419.2
892511
865594
835106
819864
811441
805018
798732
793667
790815
787288
784486
782013
778021
772801
765333
756241
744831
731206
715960
698897
680219
659426
637027
613540
589101
564185
538823
512656
486318
461010
437561
415705
395147
376023
358475
343235
329719
316552
303267
290148
277464
264690
254308
244783
236624
229693
223313
217311
211964
207550
204010
201212
198807
196568
194696
193606
194140
194763
196111
199729
205416
215332
231454
249809
262089
269645
273751
277651
279485
279160
278933
277568
274654
271607
269369
266674
262597
257011
250678
243808
236655
229455
222382
215621
209101
202236
194681
186644
178567
170699
163095
155714
148596
141783
135246
128895
122864
117270
112082
106593
99478.5
87326.5
73760.8
62424
56376.3
52568.5
50051.5
48418.1
47291.8
46492.8
45918.5
45505.6
45184.8
44986.5
44816.9
44818.9
44865.4
45033.1
45397.3
45852.3
46452.4
47165.5
47873.5
48725.9
49624.2
884524
858170
836566
823665
817335
810327
805476
801198
797465
792385
787086
782947
779265
773782
767839
760833
750960
738723
723533
704783
682879
659358
635322
610212
583777
556703
529689
503641
478972
454854
431268
408629
387474
368716
351372
334709
319036
303313
292389
282765
272439
262260
252999
245147
238107
232118
226849
221896
217211
213108
210006
207723
206526
206421
207163
208080
209800
212866
217298
226264
243672
266615
275612
275632
276311
277102
276832
276431
275662
274213
272018
267598
262364
257105
253047
248903
243961
238509
232669
226538
220037
213193
206261
199481
192852
186282
179781
173233
166437
159458
152734
146332
140215
134440
129109
124245
119589
115533
112460
109358
105936
102643
98979.4
93403.9
79899.4
66686.1
58298.3
53684.3
50668.7
48810
47583
46752.3
46168
45795.1
45471.7
45451.6
45483.1
45613.7
45904.9
46372.9
46987.5
47661.7
48381
49248.3
50149.8
874825
853729
836789
828376
822807
816287
812555
809085
804132
800168
795887
792585
789654
784866
779178
771235
759921
745753
728112
706719
683115
656797
628665
600068
572372
545216
518185
490857
465706
443388
423057
404009
386072
367893
351978
338751
322923
307503
294202
282782
272169
262264
253365
245808
239372
233989
229411
225473
222141
220263
218945
218173
218593
219643
221367
224973
230406
238128
252715
276643
293818
292464
290864
286926
284295
281991
279379
277027
275026
272998
270873
265849
259560
253029
247711
242590
237288
231493
225416
219152
212738
206174
199540
192912
186304
179786
173512
167578
161967
156410
150477
144547
138856
133439
128323
123684
119801
116445
113497
110886
108547
106283
104068
101926
99487.8
95107.3
85655.4
69340.2
59516.6
54436
51240.4
49296.8
47995.5
47123.8
46579.3
46363.4
46372.4
46458.4
46664.8
47080.8
47619.4
48234.7
48922.7
49730.6
50599.4
868823
852252
839473
832979
828578
823436
819491
815586
811559
806882
803128
800961
799161
795199
789494
780211
766714
749215
727439
702703
675598
648209
621139
591334
561468
533747
507328
482182
458372
436922
416882
396137
380164
364040
348343
334263
321283
307808
294979
283538
273182
263822
255509
248311
242302
237390
233533
230486
228164
227690
227851
228697
230786
234439
241582
255215
269194
287533
310248
312719
310640
304301
298776
295614
292768
290260
287411
284762
282014
279023
274418
266871
259067
252479
246746
241074
234727
228406
222221
215903
209548
203200
196905
190660
184429
178226
172142
166248
160612
155367
150663
146240
141963
137764
133637
129549
125555
121629
117759
114103
110887
108293
106319
104710
103268
102101
100413
97179.5
90752.7
73782.1
61981
55865.6
52262.9
50113.6
48745.2
47868.3
47562.7
47570
47654.3
47892.8
48376.8
49013.5
49675.1
50446.3
51284
862416
851819
842419
837689
834327
830980
828064
825606
823649
820862
818932
817435
815375
810058
801615
789435
772250
749956
724533
698997
669492
637904
606816
578877
552508
525220
496950
470441
446464
423687
406010
388138
371136
355153
340429
327466
315982
305471
295181
284961
275501
267127
259850
253509
248076
243643
240541
238668
239131
239517
240170
241888
246194
253145
266622
292794
316987
328460
330245
327256
319126
313288
311558
309512
305319
301014
297326
293899
290318
286837
281578
272736
263965
256067
247929
240370
233591
227251
221097
214868
208553
202202
195883
189653
183519
177553
171915
166742
162010
157612
153479
149626
146013
142516
139032
135510
131924
128203
124206
120061
116086
112491
109378
106845
105014
103797
102893
102227
101379
99594.9
95230.8
80756.4
65109.5
57960.6
53894.9
51444.7
50160.2
49637.2
49594.4
49576.6
49621.7
49874.3
50566.4
51400.5
52325.1
859091
854086
849778
844840
842094
840626
838883
838319
837813
837488
837232
836025
833285
825099
813448
797316
775338
749627
720464
687258
656398
628741
598168
566236
535824
506326
477655
450307
432110
414485
396801
380668
366522
353641
339778
326181
314057
303592
294246
286081
278421
271295
264948
259457
254876
251519
250239
250420
251109
252067
254005
257692
265478
279996
306828
332427
335996
337466
337703
336265
332068
326874
325793
322693
317468
312306
307246
302506
297976
292632
285207
275461
266199
257752
250439
243737
237127
230368
223804
217805
211844
205773
199416
193104
186965
180986
175238
169898
165072
160618
156403
152415
148695
145263
142030
138851
135744
132747
129844
126779
123024
118729
114836
111391
108429
106071
104478
103604
103175
102943
102746
102156
99745.1
88226.2
68825.4
60571.8
56211.4
54137.2
52890.7
52063.1
51901.9
51878.2
52041.5
52499
53481.3
866760
858355
852472
849211
846699
845051
844380
844257
844476
844619
844694
844683