/*--------------------------------*- C++ -*----------------------------------*\
| =========                 |                                                 |
| \\      /  F ield         | OpenFOAM: The Open Source CFD Toolbox           |
|  \\    /   O peration     | Version:  2112                                  |
|   \\  /    A nd           | Website:  www.openfoam.com                      |
|    \\/     M anipulation  |                                                 |
\*---------------------------------------------------------------------------*/
FoamFile
{
    version     2.0;
    format      ascii;
    arch        "LSB;label=32;scalar=64";
    class       volScalarField;
    location    "0.00032";
    object      epsilon;
}
// * * * * * * * * * * * * * * * * * * * * * * * * * * * * * * * * * * * * * //

dimensions      [0 2 -3 0 0 0 0];

internalField   nonuniform List<scalar> 
13875
(
1.18012e+06
2.93717e+07
3.25727e+07
3.26042e+07
3.25244e+07
3.25764e+07
3.26137e+07
3.26277e+07
3.26448e+07
3.26545e+07
3.26481e+07
3.26484e+07
3.26459e+07
3.26545e+07
3.26496e+07
3.26397e+07
3.26254e+07
3.26057e+07
3.25968e+07
3.25339e+07
3.25087e+07
3.26706e+07
3.23942e+07
2.91689e+07
1.17966e+06
1.34031e+06
2.27237e+07
2.5261e+07
2.52849e+07
2.52153e+07
2.52156e+07
2.52099e+07
2.52143e+07
2.52178e+07
2.52276e+07
2.52239e+07
2.52256e+07
2.52274e+07
2.52318e+07
2.52273e+07
2.52263e+07
2.52166e+07
2.521e+07
2.52244e+07
2.52199e+07
2.52133e+07
2.53477e+07
2.51387e+07
2.26498e+07
1.33598e+06
1.62183e+06
1.97359e+07
2.1885e+07
2.19291e+07
2.18698e+07
2.18543e+07
2.18141e+07
2.18038e+07
2.1805e+07
2.18143e+07
2.18177e+07
2.18199e+07
2.18206e+07
2.18224e+07
2.18182e+07
2.18198e+07
2.18172e+07
2.18146e+07
2.18472e+07
2.18635e+07
2.18699e+07
2.19728e+07
2.18004e+07
1.9747e+07
1.57746e+06
1.87707e+06
1.73865e+07
1.91552e+07
1.91968e+07
1.91398e+07
1.91221e+07
1.9084e+07
1.9073e+07
1.90721e+07
1.90796e+07
1.90851e+07
1.90868e+07
1.90875e+07
1.90877e+07
1.90841e+07
1.90857e+07
1.90859e+07
1.90858e+07
1.9115e+07
1.91288e+07
1.91404e+07
1.92174e+07
1.91088e+07
1.74724e+07
1.81662e+06
2.11159e+06
1.5485e+07
1.69603e+07
1.69444e+07
1.68763e+07
1.68512e+07
1.68142e+07
1.67985e+07
1.67922e+07
1.67931e+07
1.67985e+07
1.67996e+07
1.68007e+07
1.68003e+07
1.67975e+07
1.67996e+07
1.68036e+07
1.68129e+07
1.68428e+07
1.68583e+07
1.6881e+07
1.69552e+07
1.69455e+07
1.56037e+07
2.04416e+06
2.38739e+06
1.39271e+07
1.5186e+07
1.50866e+07
1.5016e+07
1.49691e+07
1.49228e+07
1.48923e+07
1.48735e+07
1.48619e+07
1.48601e+07
1.4862e+07
1.48639e+07
1.48615e+07
1.48569e+07
1.4863e+07
1.48771e+07
1.49031e+07
1.49449e+07
1.4974e+07
1.50228e+07
1.50892e+07
1.5201e+07
1.41822e+07
2.28564e+06
2.7175e+06
1.27079e+07
1.39521e+07
1.36719e+07
1.35088e+07
1.3431e+07
1.33651e+07
1.33093e+07
1.32676e+07
1.32386e+07
1.32237e+07
1.32172e+07
1.32176e+07
1.32181e+07
1.32206e+07
1.32386e+07
1.32679e+07
1.33143e+07
1.33805e+07
1.34425e+07
1.35302e+07
1.36931e+07
1.39479e+07
1.24782e+07
2.56925e+06
3.24977e+06
1.16543e+07
1.32835e+07
1.28283e+07
1.2552e+07
1.23605e+07
1.22041e+07
1.20935e+07
1.20087e+07
1.19537e+07
1.19173e+07
1.18996e+07
1.18955e+07
1.19015e+07
1.19168e+07
1.19488e+07
1.20022e+07
1.2083e+07
1.22029e+07
1.23624e+07
1.25737e+07
1.28584e+07
1.33125e+07
1.16789e+07
3.20098e+06
5.60948e+06
1.38501e+07
1.44586e+07
1.33684e+07
1.24853e+07
1.20329e+07
1.16809e+07
1.14424e+07
1.12731e+07
1.11558e+07
1.10785e+07
1.10439e+07
1.1037e+07
1.10493e+07
1.10859e+07
1.11573e+07
1.12697e+07
1.14243e+07
1.16722e+07
1.20362e+07
1.25201e+07
1.34593e+07
1.4713e+07
1.45398e+07
5.81429e+06
4.62708e+07
5.33125e+07
2.52123e+07
1.85394e+07
1.50482e+07
1.34169e+07
1.23958e+07
1.1819e+07
1.14489e+07
1.11907e+07
1.1027e+07
1.09516e+07
1.09294e+07
1.09569e+07
1.10396e+07
1.11985e+07
1.14456e+07
1.17955e+07
1.23886e+07
1.34334e+07
1.51797e+07
1.90567e+07
2.76382e+07
6.69342e+07
5.16288e+07
2.04367e+08
4.69286e+08
2.27262e+08
1.20173e+08
4.78873e+07
2.51005e+07
1.76225e+07
1.47489e+07
1.35008e+07
1.27054e+07
1.22766e+07
1.2078e+07
1.20161e+07
1.20871e+07
1.22947e+07
1.27189e+07
1.34954e+07
1.46623e+07
1.74528e+07
2.45102e+07
4.67923e+07
1.20318e+08
2.54375e+08
5.27099e+08
2.11558e+08
3.36979e+08
6.66516e+08
6.64594e+08
9.16035e+08
7.92242e+08
3.30244e+08
1.31087e+08
4.57466e+07
2.4548e+07
1.91968e+07
1.71701e+07
1.63173e+07
1.60265e+07
1.63584e+07
1.72347e+07
1.92961e+07
2.45189e+07
4.50247e+07
1.31648e+08
3.23256e+08
7.88554e+08
9.1294e+08
6.84707e+08
6.98551e+08
3.41389e+08
4.62404e+08
6.37932e+08
7.20641e+08
9.38794e+08
1.15242e+09
1.14293e+09
1.30167e+09
8.15072e+08
2.58648e+08
8.37885e+07
4.22343e+07
3.26514e+07
3.08836e+07
3.31503e+07
4.48526e+07
9.06409e+07
2.63173e+08
8.17705e+08
1.27771e+09
1.11346e+09
1.13583e+09
9.29842e+08
7.3019e+08
6.57403e+08
4.67263e+08
5.65835e+08
6.13528e+08
7.01301e+08
8.51743e+08
1.02433e+09
1.12521e+09
1.33957e+09
1.35351e+09
1.33784e+09
1.03975e+09
4.00332e+08
1.61831e+08
1.23963e+08
1.75149e+08
4.9112e+08
1.03961e+09
1.26676e+09
1.32087e+09
1.30607e+09
1.10482e+09
1.00772e+09
8.43422e+08
7.07315e+08
6.23811e+08
5.63365e+08
6.20364e+08
5.78194e+08
6.59327e+08
7.71343e+08
9.00207e+08
9.9631e+08
1.11483e+09
1.17348e+09
1.22437e+09
1.19984e+09
1.07838e+09
8.96879e+08
7.50968e+08
9.02626e+08
1.08532e+09
1.17447e+09
1.18359e+09
1.15424e+09
1.10291e+09
9.90655e+08
8.97882e+08
7.73654e+08
6.66226e+08
5.88629e+08
6.51975e+08
6.73721e+08
5.42345e+08
6.07894e+08
6.97717e+08
7.95174e+08
8.78017e+08
9.59075e+08
1.01689e+09
1.06555e+09
1.10166e+09
1.15896e+09
1.24802e+09
1.33179e+09
1.26647e+09
1.16618e+09
1.09198e+09
1.04852e+09
1.00894e+09
9.5817e+08
8.80724e+08
7.99839e+08
7.03315e+08
6.15271e+08
5.50056e+08
7.24871e+08
6.09545e+08
4.93229e+08
5.40378e+08
6.13637e+08
6.92526e+08
7.67323e+08
8.38279e+08
9.01035e+08
9.69863e+08
1.05886e+09
1.17719e+09
1.32361e+09
1.42641e+09
1.33282e+09
1.18448e+09
1.0603e+09
9.64354e+08
8.95643e+08
8.361e+08
7.67332e+08
6.9371e+08
6.1588e+08
5.43928e+08
4.97514e+08
6.17009e+08
4.73071e+08
4.21065e+08
4.70751e+08
5.29919e+08
5.95027e+08
6.62652e+08
7.32506e+08
8.08533e+08
9.02828e+08
1.01848e+09
1.1488e+09
1.26578e+09
1.322e+09
1.26577e+09
1.15014e+09
1.01857e+09
8.9983e+08
8.04588e+08
7.28962e+08
6.59532e+08
5.92414e+08
5.28834e+08
4.73245e+08
4.29254e+08
4.75491e+08
3.60854e+08
3.54238e+08
4.00312e+08
4.45898e+08
4.98594e+08
5.59664e+08
6.29713e+08
7.13162e+08
8.17696e+08
9.42522e+08
1.07017e+09
1.16872e+09
1.21052e+09
1.17301e+09
1.07505e+09
9.47462e+08
8.21099e+08
7.14762e+08
6.30299e+08
5.59976e+08
4.98578e+08
4.45405e+08
3.99574e+08
3.55408e+08
3.64321e+08
3.04787e+08
3.27214e+08
3.59222e+08
3.88831e+08
4.30672e+08
4.82982e+08
5.47094e+08
6.2864e+08
7.34379e+08
8.58665e+08
9.79626e+08
1.07348e+09
1.11239e+09
1.07458e+09
9.81208e+08
8.6026e+08
7.35941e+08
6.29406e+08
5.47033e+08
4.82624e+08
4.30083e+08
3.88113e+08
3.58363e+08
3.26521e+08
3.15067e+08
2.98586e+08
3.05678e+08
3.10359e+08
3.46609e+08
3.85709e+08
4.31669e+08
4.88559e+08
5.64079e+08
6.63526e+08
7.79325e+08
8.89398e+08
9.73895e+08
1.01055e+09
9.74285e+08
8.89423e+08
7.78355e+08
6.62732e+08
5.63396e+08
4.87731e+08
4.30786e+08
3.84719e+08
3.45403e+08
3.08433e+08
2.99874e+08
3.03138e+08
4.42583e+08
3.0008e+08
2.96843e+08
3.22702e+08
3.56923e+08
3.98475e+08
4.48957e+08
5.15625e+08
6.04277e+08
7.05539e+08
7.9967e+08
8.73083e+08
9.04969e+08
8.735e+08
8.0089e+08
7.05919e+08
6.04542e+08
5.15769e+08
4.48859e+08
3.98223e+08
3.56154e+08
3.20969e+08
2.93992e+08
2.99149e+08
4.53258e+08
5.39806e+08
3.84039e+08
3.01137e+08
3.09767e+08
3.42842e+08
3.77314e+08
4.2127e+08
4.77225e+08
5.51968e+08
6.38939e+08
7.19558e+08
7.82516e+08
8.08289e+08
7.82344e+08
7.22137e+08
6.3939e+08
5.52424e+08
4.77836e+08
4.21762e+08
3.77694e+08
3.42995e+08
3.07423e+08
2.99666e+08
3.85424e+08
5.58547e+08
3.5868e+08
4.62584e+08
3.33247e+08
3.3089e+08
3.46907e+08
3.69956e+08
4.04785e+08
4.50572e+08
5.11293e+08
5.83605e+08
6.52112e+08
7.04673e+08
7.26655e+08
7.04184e+08
6.51881e+08
5.82561e+08
5.10753e+08
4.50652e+08
4.05484e+08
3.70427e+08
3.47045e+08
3.30235e+08
3.33933e+08
4.69024e+08
3.64995e+08
2.73322e+08
4.27234e+08
3.95748e+08
3.72778e+08
3.77366e+08
3.86443e+08
4.04039e+08
4.38575e+08
4.87721e+08
5.48124e+08
6.04603e+08
6.45634e+08
6.63608e+08
6.44997e+08
6.03214e+08
5.47216e+08
4.8745e+08
4.38849e+08
4.04535e+08
3.86962e+08
3.77865e+08
3.73737e+08
3.97782e+08
4.30184e+08
2.748e+08
2.1946e+08
3.55062e+08
4.21342e+08
4.18868e+08
4.26905e+08
4.33026e+08
4.33549e+08
4.50533e+08
4.88735e+08
5.38549e+08
5.85908e+08
6.17229e+08
6.30335e+08
6.16309e+08
5.84377e+08
5.37661e+08
4.88737e+08
4.50923e+08
4.3365e+08
4.33974e+08
4.2836e+08
4.22127e+08
4.23824e+08
3.54735e+08
2.22207e+08
1.58953e+08
2.66589e+08
3.72073e+08
4.34877e+08
4.67717e+08
4.76656e+08
4.78896e+08
4.93458e+08
5.23522e+08
5.63025e+08
6.02493e+08
6.26927e+08
6.36389e+08
6.25273e+08
6e+08
5.6106e+08
5.22515e+08
4.93192e+08
4.79077e+08
4.76894e+08
4.6814e+08
4.34272e+08
3.70591e+08
2.65075e+08
1.57814e+08
3.07552e+07
1.67335e+08
2.74904e+08
3.55634e+08
4.28943e+08
4.82075e+08
5.21344e+08
5.46765e+08
5.76657e+08
6.15231e+08
6.56265e+08
6.79002e+08
6.86072e+08
6.77427e+08
6.53535e+08
6.13247e+08
5.75321e+08
5.46187e+08
5.21307e+08
4.82146e+08
4.28524e+08
3.54366e+08
2.72993e+08
1.65001e+08
2.93328e+07
1.14891e+06
2.34561e+07
1.07696e+08
2.17944e+08
3.1883e+08
4.06177e+08
4.78855e+08
5.32362e+08
5.83194e+08
6.26633e+08
6.59791e+08
6.88491e+08
7.0227e+08
6.8888e+08
6.60333e+08
6.27318e+08
5.8355e+08
5.3297e+08
4.78882e+08
4.06296e+08
3.17904e+08
2.15881e+08
1.04735e+08
2.21221e+07
1.12445e+06
834826
477884
4.05887e+06
3.14885e+07
9.30284e+07
1.74207e+08
2.49555e+08
2.9766e+08
3.26776e+08
3.61117e+08
4.03695e+08
4.52107e+08
4.74817e+08
4.52623e+08
4.04726e+08
3.62377e+08
3.28316e+08
2.98299e+08
2.48944e+08
1.72458e+08
9.16094e+07
3.01357e+07
3.77735e+06
460779
838273
823179
308813
246531
474189
2.31422e+06
8.96536e+06
2.20972e+07
3.35954e+07
4.25666e+07
5.43856e+07
7.2796e+07
9.84164e+07
1.11719e+08
9.91172e+07
7.39264e+07
5.5158e+07
4.30483e+07
3.36391e+07
2.179e+07
8.71314e+06
2.22618e+06
454380
245524
309127
821551
811755
305429
235614
226905
231465
259163
333422
421409
509848
640021
908994
1.42248e+06
1.76256e+06
1.44502e+06
933306
651645
515094
421489
331324
258141
231233
226846
235341
304153
810469
798327
300063
234510
226498
226096
226624
227155
227576
227877
228184
228761
229860
230612
229913
228815
228209
227889
227576
227151
226625
226098
226525
234661
300813
800156
790284
296470
233829
226566
226235
226660
226974
227161
227243
227271
227280
227284
227286
227284
227280
227271
227243
227161
226975
226662
226239
226567
233841
296522
789062
782075
294410
233482
226661
226367
226750
227027
227184
227250
227271
227276
227277
227277
227277
227276
227271
227250
227186
227031
226757
226371
226640
233293
293413
781427
772098
290747
232852
226696
226477
226831
227072
227203
227256
227272
227276
227277
227277
227277
227276
227273
227256
227203
227072
226830
226483
226729
232995
291511
773624
765994
288236
232460
226767
226577
226895
227107
227218
227261
227274
227277
227277
227277
227277
227277
227274
227261
227218
227106
226896
226577
226767
232494
288406
765129
759876
286950
232295
226850
226663
226948
227134
227229
227264
227275
227277
227277
227277
227277
227277
227275
227265
227229
227135
226950
226663
226830
232151
286107
759448
752665
284370
231917
226885
226739
226997
227158
227238
227267
227275
227277
227277
227277
227277
227277
227275
227267
227238
227158
226995
226740
226910
232025
285011
753766
748196
282595
231689
226950
226807
227036
227178
227245
227269
227276
227277
227277
227277
227277
227277
227276
227269
227245
227177
227036
226807
226946
231722
282796
747571
743796
281858
231631
227020
226868
227070
227193
227251
227271
227276
227277
227277
227277
227277
227277
227276
227271
227251
227194
227071
226868
227003
231514
281114
743507
738797
280042
231406
227054
226922
227101
227207
227256
227272
227276
227277
227277
227277
227277
227277
227276
227272
227256
227207
227100
226923
227073
231481
280530
739491
735697
278786
231274
227109
226971
227127
227218
227260
227273
227277
227277
227277
227277
227277
227277
227277
227273
227259
227218
227127
226971
227107
231309
279018
735311
732686
278432
231278
227168
227017
227149
227228
227263
227274
227277
227277
227277
227277
227277
227277
227277
227274
227263
227228
227150
227015
227155
231186
277810
732531
729475
277183
231147
227197
227056
227170
227236
227265
227275
227277
227277
227277
227277
227277
227277
227277
227275
227265
227236
227170
227056
227210
231192
277499
729810
727412
276283
231066
227237
227090
227187
227243
227268
227275
227277
227277
227277
227277
227277
227277
227277
227275
227267
227243
227187
227089
227235
231098
276526
727226
725296
276117
231066
227259
227116
227200
227249
227269
227276
227277
227277
227277
227277
227277
227277
227277
227276
227269
227249
227200
227113
227248
230993
275610
725273
723475
275205
230929
227237
227122
227205
227251
227270
227276
227277
227277
227277
227277
227277
227277
227277
227276
227270
227251
227204
227121
227241
230954
275370
723599
722602
274485
230833
227215
227120
227203
227250
227270
227276
227277
227277
227277
227277
227277
227277
227277
227276
227270
227250
227202
227120
227221
230864
274727
722535
729609
272841
230647
227184
227113
227194
227248
227269
227276
227277
227277
227277
227277
227277
227277
227277
227275
227269
227248
227194
227113
227182
230630
272710
729565
473870
245408
234173
233321
233091
232967
232879
232802
232727
232655
232583
232514
232446
232379
232314
232250
232187
232126
232066
232007
231949
231893
231837
231783
231730
231677
231625
231634
235339
418619
474420
237010
228701
227967
227785
227722
227699
227685
227674
227663
227652
227642
227632
227622
227613
227604
227596
227588
227580
227572
227565
227557
227550
227544
227537
227531
227525
227597
232092
409756
456925
234524
228245
227527
227361
227312
227302
227300
227299
227298
227297
227296
227296
227295
227294
227294
227293
227292
227292
227291
227291
227290
227290
227289
227289
227288
227288
227371
232049
412222
448763
234363
228230
227491
227332
227287
227279
227278
227278
227278
227278
227278
227278
227278
227278
227278
227278
227278
227278
227278
227278
227278
227278
227278
227278
227278
227279
227364
232154
414806
449623
234583
228229
227475
227324
227285
227278
227277
227277
227277
227277
227277
227277
227277
227277
227277
227277
227277
227277
227277
227277
227277
227277
227277
227277
227277
227278
227368
232270
417213
450327
234508
228172
227453
227320
227284
227278
227277
227277
227277
227277
227277
227277
227277
227277
227277
227277
227277
227277
227277
227277
227277
227277
227277
227277
227277
227278
227372
232388
419547
449698
234357
228096
227438
227316
227283
227278
227277
227277
227277
227277
227277
227277
227277
227277
227277
227277
227277
227277
227277
227277
227277
227277
227277
227277
227277
227279
227375
232503
421782
448028
234211
228037
227426
227313
227283
227278
227277
227277
227277
227277
227277
227277
227277
227277
227277
227277
227277
227277
227277
227277
227277
227277
227277
227277
227277
227279
227378
232608
423870
446562
234116
227983
227415
227310
227282
227278
227277
227277
227277
227277
227277
227277
227277
227277
227277
227277
227277
227277
227277
227277
227277
227277
227277
227277
227277
227279
227381
232703
425784
445482
234049
227932
227402
227306
227281
227278
227277
227277
227277
227277
227277
227277
227277
227277
227277
227277
227277
227277
227277
227277
227277
227277
227277
227277
227277
227279
227384
232791
427529
444812
233998
227885
227390
227303
227281
227278
227277
227277
227277
227277
227277
227277
227277
227277
227277
227277
227277
227277
227277
227277
227277
227277
227277
227277
227277
227279
227386
232872
429124
444412
233959
227843
227380
227301
227281
227278
227277
227277
227277
227277
227277
227277
227277
227277
227277
227277
227277
227277
227277
227277
227277
227277
227277
227277
227277
227279
227388
232948
430587
444094
233923
227804
227371
227298
227280
227278
227277
227277
227277
227277
227277
227277
227277
227277
227277
227277
227277
227277
227277
227277
227277
227277
227277
227277
227277
227279
227390
233018
431929
443926
233883
227767
227363
227296
227280
227278
227277
227277
227277
227277
227277
227277
227277
227277
227277
227277
227277
227277
227277
227277
227277
227277
227277
227277
227277
227279
227392
233083
433160
443545
233839
227732
227354
227294
227280
227278
227277
227277
227277
227277
227277
227277
227277
227277
227277
227277
227277
227277
227277
227277
227277
227277
227277
227277
227277
227279
227394
233142
434274
443399
233809
227699
227346
227292
227279
227278
227277
227277
227277
227277
227277
227277
227277
227277
227277
227277
227277
227277
227277
227277
227277
227277
227277
227277
227277
227279
227396
233195
435279
443165
233766
227666
227338
227291
227279
227278
227277
227277
227277
227277
227277
227277
227277
227277
227277
227277
227277
227277
227277
227277
227277
227277
227277
227277
227277
227279
227397
233242
436181
442865
233729
227635
227331
227289
227279
227278
227277
227277
227277
227277
227277
227277
227277
227277
227277
227277
227277
227277
227277
227277
227277
227277
227277
227277
227277
227279
227399
233283
436977
442676
233695
227605
227324
227287
227279
227277
227277
227277
227277
227277
227277
227277
227277
227277
227277
227277
227277
227277
227277
227277
227277
227277
227277
227277
227277
227279
227400
233320
437675
442380
233653
227576
227317
227286
227278
227277
227277
227277
227277
227277
227277
227277
227277
227277
227277
227277
227277
227277
227277
227277
227277
227277
227277
227277
227277
227279
227401
233350
438280
442076
233615
227548
227310
227284
227278
227277
227277
227277
227277
227277
227277
227277
227277
227277
227277
227277
227277
227277
227277
227277
227277
227277
227277
227277
227277
227279
227402
233376
438791
441787
233560
227517
227303
227283
227278
227277
227277
227277
227277
227277
227277
227277
227277
227277
227277
227277
227277
227277
227277
227277
227277
227277
227277
227277
227277
227279
227402
233397
439218
441340
233473
227479
227293
227281
227278
227277
227277
227277
227277
227277
227277
227277
227277
227277
227277
227277
227277
227277
227277
227277
227277
227277
227277
227277
227277
227279
227403
233413
439563
441022
233350
227430
227278
227278
227277
227277
227277
227277
227277
227277
227277
227277
227277
227277
227277
227277
227277
227277
227277
227277
227277
227277
227277
227277
227277
227279
227403
233425
439828
442446
232638
227371
227260
227274
227277
227277
227277
227277
227277
227277
227277
227277
227277
227277
227277
227277
227277
227277
227277
227277
227277
227277
227277
227277
227277
227279
227403
233431
440025
418621
235339
231634
231626
231677
231730
231783
231838
231893
231950
232008
232067
232127
232188
232251
232315
232380
232447
232515
232585
232656
232729
232804
232881
232969
233094
233324
234177
245419
473989
409758
232092
227597
227525
227531
227537
227544
227550
227557
227565
227572
227580
227588
227596
227604
227613
227622
227632
227642
227652
227663
227674
227685
227699
227722
227785
227967
228701
237007
474369
412226
232049
227371
227288
227288
227289
227289
227290
227290
227291
227291
227292
227292
227293
227294
227294
227295
227296
227296
227297
227298
227299
227300
227302
227312
227361
227527
228245
234523
457010
414807
232154
227364
227279
227278
227278
227278
227278
227278
227278
227278
227278
227278
227278
227278
227278
227278
227278
227278
227278
227278
227278
227278
227279
227287
227332
227491
228230
234354
448643
417212
232269
227368
227278
227277
227277
227277
227277
227277
227277
227277
227277
227277
227277
227277
227277
227277
227277
227277
227277
227277
227277
227277
227278
227285
227324
227474
228229
234589
449577
419549
232389
227372
227278
227277
227277
227277
227277
227277
227277
227277
227277
227277
227277
227277
227277
227277
227277
227277
227277
227277
227277
227277
227278
227284
227320
227453
228172
234510
450495
421781
232502
227375
227279
227277
227277
227277
227277
227277
227277
227277
227277
227277
227277
227277
227277
227277
227277
227277
227277
227277
227277
227277
227278
227283
227316
227438
228095
234347
449471
423868
232608
227378
227279
227277
227277
227277
227277
227277
227277
227277
227277
227277
227277
227277
227277
227277
227277
227277
227277
227277
227277
227277
227278
227283
227313
227426
228038
234222
448155
425785
232704
227381
227279
227277
227277
227277
227277
227277
227277
227277
227277
227277
227277
227277
227277
227277
227277
227277
227277
227277
227277
227277
227278
227282
227310
227415
227983
234111
446544
427527
232791
227384
227279
227277
227277
227277
227277
227277
227277
227277
227277
227277
227277
227277
227277
227277
227277
227277
227277
227277
227277
227277
227278
227281
227306
227402
227932
234051
445428
429125
232873
227386
227279
227277
227277
227277
227277
227277
227277
227277
227277
227277
227277
227277
227277
227277
227277
227277
227277
227277
227277
227277
227278
227281
227303
227390
227885
234002
444934
430588
232948
227388
227279
227277
227277
227277
227277
227277
227277
227277
227277
227277
227277
227277
227277
227277
227277
227277
227277
227277
227277
227277
227278
227281
227301
227380
227843
233952
444312
431927
233018
227390
227279
227277
227277
227277
227277
227277
227277
227277
227277
227277
227277
227277
227277
227277
227277
227277
227277
227277
227277
227277
227278
227280
227298
227371
227804
233927
444113
433159
233084
227392
227279
227277
227277
227277
227277
227277
227277
227277
227277
227277
227277
227277
227277
227277
227277
227277
227277
227277
227277
227277
227278
227280
227296
227363
227767
233884
443938
434275
233142
227394
227279
227277
227277
227277
227277
227277
227277
227277
227277
227277
227277
227277
227277
227277
227277
227277
227277
227277
227277
227277
227278
227280
227294
227354
227732
233837
443554
435278
233194
227396
227279
227277
227277
227277
227277
227277
227277
227277
227277
227277
227277
227277
227277
227277
227277
227277
227277
227277
227277
227277
227278
227279
227292
227346
227699
233809
443366
436180
233242
227397
227279
227277
227277
227277
227277
227277
227277
227277
227277
227277
227277
227277
227277
227277
227277
227277
227277
227277
227277
227277
227278
227279
227291
227338
227666
233769
443195
436978
233283
227399
227279
227277
227277
227277
227277
227277
227277
227277
227277
227277
227277
227277
227277
227277
227277
227277
227277
227277
227277
227277
227278
227279
227289
227331
227635
233726
442873
437674
233319
227400
227279
227277
227277
227277
227277
227277
227277
227277
227277
227277
227277
227277
227277
227277
227277
227277
227277
227277
227277
227277
227277
227279
227287
227324
227605
233695
442634
438279
233351
227401
227279
227277
227277
227277
227277
227277
227277
227277
227277
227277
227277
227277
227277
227277
227277
227277
227277
227277
227277
227277
227277
227278
227286
227317
227576
233657
442414
438792
233376
227402
227279
227277
227277
227277
227277
227277
227277
227277
227277
227277
227277
227277
227277
227277
227277
227277
227277
227277
227277
227277
227277
227278
227284
227310
227548
233611
442083
439217
233397
227402
227279
227277
227277
227277
227277
227277
227277
227277
227277
227277
227277
227277
227277
227277
227277
227277
227277
227277
227277
227277
227277
227278
227283
227303
227517
233560
441745
439562
233413
227403
227279
227277
227277
227277
227277
227277
227277
227277
227277
227277
227277
227277
227277
227277
227277
227277
227277
227277
227277
227277
227277
227278
227281
227293
227479
233477
441376
439829
233425
227403
227279
227277
227277
227277
227277
227277
227277
227277
227277
227277
227277
227277
227277
227277
227277
227277
227277
227277
227277
227277
227277
227277
227278
227278
227430
233347
441017
440025
233431
227403
227279
227277
227277
227277
227277
227277
227277
227277
227277
227277
227277
227277
227277
227277
227277
227277
227277
227277
227277
227277
227277
227277
227274
227260
227371
232638
442440
511623
510951
510285
509620
508957
508295
507636
506978
506321
505667
505014
504362
503712
503064
502418
501773
501130
500488
499848
499210
498573
497938
497304
496672
496042
495413
494786
494160
493536
492913
492292
491672
491054
490438
489823
489209
488597
487987
487378
486770
486164
485560
484957
484355
483755
483157
482559
481964
481369
480776
480185
479595
479006
478419
477834
477249
476666
476085
475505
474926
474348
473772
473198
472625
472053
471482
470913
470345
469779
469214
468650
468087
467526
466966
466408
465851
465295
464740
464187
463635
463084
462535
461987
461440
460894
460350
459807
459265
458724
458185
457647
457110
456575
456040
455507
454975
454445
453915
453387
452860
452334
451810
451286
450764
450243
449723
449204
448687
448171
447655
447141
446629
446117
445606
445097
444589
444082
443576
443071
442567
442065
441563
441063
440564
440057
238975
238890
238827
238765
238703
238641
238580
238519
238459
238399
238340
238281
238222
238163
238105
238048
237990
237933
237877
237821
237765
237709
237654
237599
237545
237491
237437
237383
237330
237277
237225
237173
237121
237069
237018
236967
236917
236866
236816
236767
236717
236668
236620
236571
236523
236475
236428
236380
236333
236287
236240
236194
236148
236103
236057
236012
235968
235923
235879
235835
235791
235748
235705
235662
235619
235577
235534
235493
235451
235409
235368
235327
235287
235246
235206
235166
235126
235087
235048
235008
234970
234931
234893
234855
234817
234779
234741
234704
234667
234630
234594
234557
234521
234485
234449
234414
234378
234343
234308
234273
234239
234205
234170
234136
234103
234069
234036
234002
233969
233936
233904
233871
233839
233807
233775
233743
233712
233680
233649
233618
233587
233556
233526
233495
233459
227638
227633
227630
227627
227624
227621
227617
227614
227611
227608
227606
227603
227600
227597
227594
227591
227589
227586
227583
227580
227578
227575
227573
227570
227568
227565
227563
227560
227558
227555
227553
227550
227548
227546
227543
227541
227539
227537
227534
227532
227530
227528
227526
227524
227522
227519
227517
227515
227513
227511
227509
227507
227506
227504
227502
227500
227498
227496
227494
227492
227491
227489
227487
227485
227484
227482
227480
227479
227477
227475
227474
227472
227470
227469
227467
227466
227464
227463
227461
227460
227458
227457
227455
227454
227452
227451
227449
227448
227447
227445
227444
227443
227441
227440
227439
227437
227436
227435
227434
227432
227431
227430
227429
227427
227426
227425
227424
227423
227422
227420
227419
227418
227417
227416
227415
227414
227413
227412
227411
227410
227408
227407
227406
227405
227404
227285
227285
227285
227285
227285
227284
227284
227284
227284
227284
227284
227284
227284
227284
227284
227284
227284
227283
227283
227283
227283
227283
227283
227283
227283
227283
227283
227283
227283
227283
227283
227283
227282
227282
227282
227282
227282
227282
227282
227282
227282
227282
227282
227282
227282
227282
227282
227282
227282
227282
227281
227281
227281
227281
227281
227281
227281
227281
227281
227281
227281
227281
227281
227281
227281
227281
227281
227281
227281
227281
227281
227281
227281
227281
227280
227280
227280
227280
227280
227280
227280
227280
227280
227280
227280
227280
227280
227280
227280
227280
227280
227280
227280
227280
227280
227280
227280
227280
227280
227280
227280
227280
227280
227280
227280
227280
227280
227280
227279
227279
227279
227279
227279
227279
227279
227279
227279
227279
227279
227279
227279
227279
227279
227279
227279
227277
227277
227277
227277
227277
227277
227277
227277
227277
227277
227277
227277
227277
227277
227277
227277
227277
227277
227277
227277
227277
227277
227277
227277
227277
227277
227277
227277
227277
227277
227277
227277
227277
227277
227277
227277
227277
227277
227277
227277
227277
227277
227277
227277
227277
227277
227277
227277
227277
227277
227277
227277
227277
227277
227277
227277
227277
227277
227277
227277
227277
227277
227277
227277
227277
227277
227277
227277
227277
227277
227277
227277
227277
227277
227277
227277
227277
227277
227277
227277
227277
227277
227277
227277
227277
227277
227277
227277
227277
227277
227277
227277
227277
227277
227277
227277
227277
227277
227277
227277
227277
227277
227277
227277
227277
227277
227277
227277
227277
227277
227277
227277
227277
227277
227277
227277
227277
227277
227277
227277
227277
227277
227277
227277
227277
227277
227277
227277
227277
227277
227277
227277
227277
227277
227277
227277
227277
227277
227277
227277
227277
227277
227277
227277
227277
227277
227277
227277
227277
227277
227277
227277
227277
227277
227277
227277
227277
227277
227277
227277
227277
227277
227277
227277
227277
227277
227277
227277
227277
227277
227277
227277
227277
227277
227277
227277
227277
227277
227277
227277
227277
227277
227277
227277
227277
227277
227277
227277
227277
227277
227277
227277
227277
227277
227277
227277
227277
227277
227277
227277
227277
227277
227277
227277
227277
227277
227277
227277
227277
227277
227277
227277
227277
227277
227277
227277
227277
227277
227277
227277
227277
227277
227277
227277
227277
227277
227277
227277
227277
227277
227277
227277
227277
227277
227277
227277
227277
227277
227277
227277
227277
227277
227277
227277
227277
227277
227277
227277
227277
227277
227277
227277
227277
227277
227277
227277
227277
227277
227277
227277
227277
227277
227277
227277
227277
227277
227277
227277
227277
227277
227277
227277
227277
227277
227277
227277
227277
227277
227277
227277
227277
227277
227277
227277
227277
227277
227277
227277
227277
227277
227277
227277
227277
227277
227277
227277
227277
227277
227277
227277
227277
227277
227277
227277
227277
227277
227277
227277
227277
227277
227277
227277
227277
227277
227277
227277
227277
227277
227277
227277
227277
227277
227277
227277
227277
227277
227277
227277
227277
227277
227277
227277
227277
227277
227277
227277
227277
227277
227277
227277
227277
227277
227277
227277
227277
227277
227277
227277
227277
227277
227277
227277
227277
227277
227277
227277
227277
227277
227277
227277
227277
227277
227277
227277
227277
227277
227277
227277
227277