/*--------------------------------*- C++ -*----------------------------------*\
| =========                 |                                                 |
| \\      /  F ield         | OpenFOAM: The Open Source CFD Toolbox           |
|  \\    /   O peration     | Version:  2112                                  |
|   \\  /    A nd           | Website:  www.openfoam.com                      |
|    \\/     M anipulation  |                                                 |
\*---------------------------------------------------------------------------*/
FoamFile
{
    version     2.0;
    format      ascii;
    arch        "LSB;label=32;scalar=64";
    class       volScalarField;
    location    "0.0087";
    object      nut;
}
// * * * * * * * * * * * * * * * * * * * * * * * * * * * * * * * * * * * * * //

dimensions      [0 2 -1 0 0 0 0];

internalField   nonuniform List<scalar> 
13875
(
0.0511677
0.0366259
0.0343662
0.0343328
0.034296
0.0343353
0.0342874
0.034286
0.0343032
0.0342888
0.034281
0.0342948
0.0343251
0.0343415
0.0343303
0.0342931
0.0342674
0.0342897
0.0343024
0.0343265
0.0343037
0.0343344
0.0343815
0.0365655
0.0514328
0.0532618
0.0341202
0.0322224
0.0321093
0.0320606
0.0320858
0.0320363
0.0320427
0.0320572
0.0320387
0.0320247
0.0320468
0.0320566
0.0320726
0.0320603
0.0320469
0.0320035
0.0320344
0.032046
0.0320757
0.0320635
0.0321025
0.0322281
0.0340545
0.0536424
0.0564568
0.0335619
0.0318028
0.0315945
0.0315681
0.0315816
0.0314776
0.031468
0.0314738
0.0314511
0.0314347
0.0314616
0.0315328
0.0315561
0.0315346
0.0314644
0.0314078
0.031445
0.0314781
0.0315675
0.0315643
0.0315803
0.0317945
0.0334958
0.0565971
0.0590705
0.0332327
0.0314892
0.0312773
0.0312608
0.0312668
0.0311529
0.0311284
0.0311271
0.0311053
0.031092
0.0311141
0.0312159
0.0312402
0.0312183
0.0311165
0.0310726
0.0311024
0.0311465
0.0312537
0.0312552
0.0312625
0.031485
0.0331703
0.0591439
0.061126
0.0330039
0.0312461
0.0310026
0.0309839
0.0309826
0.0308673
0.0308377
0.0308374
0.0308185
0.0308046
0.0308247
0.0309269
0.0309546
0.0309298
0.0308269
0.0307861
0.0308147
0.0308594
0.0309685
0.0309767
0.0309898
0.0312305
0.0329198
0.0612546
0.0628188
0.032848
0.0310892
0.0307707
0.0307524
0.0307331
0.0306073
0.0305728
0.0305737
0.0305573
0.0305422
0.0305605
0.0306641
0.0306947
0.0306676
0.0305623
0.0305257
0.0305533
0.0305999
0.0307198
0.0307437
0.0307612
0.0310593
0.0328224
0.0629703
0.0648271
0.033073
0.0311041
0.030632
0.0305688
0.0305256
0.0303802
0.0303352
0.0303364
0.0303221
0.0303058
0.0303219
0.0304275
0.0304585
0.0304283
0.0303216
0.0302927
0.0303205
0.0303761
0.0305121
0.0305601
0.0306333
0.0311137
0.0330701
0.0648656
0.0670935
0.0339362
0.0314252
0.0306504
0.0304865
0.0303741
0.0301952
0.0301313
0.0301289
0.0301165
0.0300974
0.0301083
0.0302177
0.0302515
0.0302186
0.0301074
0.0300887
0.0301206
0.0301897
0.0303573
0.0304674
0.0306299
0.0313927
0.0338961
0.0673612
0.0736448
0.0362957
0.0320415
0.0308455
0.0304766
0.0302822
0.0300539
0.0299643
0.029956
0.0299477
0.0299274
0.0299321
0.0300455
0.0300824
0.0300486
0.029934
0.0299224
0.029958
0.0300443
0.0302599
0.0304505
0.0308025
0.0319356
0.0360002
0.0741956
0.0828982
0.03847
0.0327367
0.0311907
0.0305839
0.0302443
0.0299772
0.0298787
0.0298575
0.0298473
0.0298286
0.0298284
0.0299408
0.029981
0.029949
0.0298452
0.0298317
0.0298726
0.0299656
0.0302205
0.0305507
0.0310812
0.0326236
0.0381053
0.0835487
0.0907165
0.0441379
0.0346504
0.0319989
0.0308222
0.0303544
0.0300377
0.0299044
0.0298674
0.0298475
0.0298278
0.0298233
0.0299292
0.0299717
0.0299495
0.0298707
0.0298547
0.0299024
0.0300352
0.0303043
0.030795
0.0318819
0.0343629
0.0432642
0.0893478
0.0950584
0.0545322
0.0403644
0.0334506
0.0318736
0.0308292
0.0303216
0.0301274
0.0300542
0.0300186
0.0299952
0.0299903
0.0300799
0.030125
0.0301184
0.0300708
0.0300624
0.030135
0.0303206
0.0308361
0.0317999
0.0332292
0.0398473
0.0533647
0.0942584
0.0865998
0.068897
0.0514839
0.0417292
0.0343607
0.0319136
0.0312713
0.0308161
0.030634
0.0305479
0.030503
0.0304917
0.030559
0.0306049
0.0306212
0.0306201
0.0306747
0.0308689
0.03133
0.0320043
0.034765
0.0415782
0.0509411
0.0687707
0.086602
0.0795946
0.0660189
0.0581022
0.0655979
0.0416573
0.0371986
0.0336508
0.0324247
0.0320313
0.0319671
0.0319283
0.0319175
0.0319771
0.0320222
0.0320518
0.0320824
0.0321379
0.0325329
0.034078
0.0382571
0.0432045
0.0657007
0.0578268
0.066176
0.0816115
0.0753161
0.0643142
0.0565536
0.0605993
0.0560458
0.0540453
0.0444074
0.038808
0.0367352
0.0358828
0.035497
0.0353696
0.0353909
0.0354484
0.0355593
0.0358583
0.0366607
0.0388965
0.0451626
0.0552174
0.0557395
0.0612428
0.0565955
0.0641555
0.0746645
0.067156
0.0618535
0.0542923
0.0572657
0.0559964
0.0572213
0.0545554
0.0530055
0.0508013
0.0483618
0.0474747
0.0471367
0.047059
0.0471407
0.0473044
0.0477945
0.0503867
0.0542704
0.0554499
0.0577179
0.0556122
0.0580075
0.0543092
0.0614988
0.0664814
0.0623972
0.0582043
0.0524622
0.0550421
0.0567812
0.0611708
0.0680134
0.0728905
0.0700736
0.070738
0.0730068
0.0744908
0.0752794
0.0749489
0.0734214
0.0726333
0.0699797
0.0727635
0.0686343
0.0612028
0.0562935
0.0552948
0.0519651
0.0575795
0.0624395
0.0569987
0.054691
0.0530917
0.0568619
0.0599262
0.0629865
0.0707158
0.0791487
0.0744591
0.0703843
0.0692207
0.0693365
0.0698688
0.069589
0.0697501
0.0726672
0.0739119
0.0766788
0.0708152
0.0641479
0.0609007
0.0576284
0.0528234
0.0542687
0.0567921
0.0513696
0.0541592
0.0558487
0.0617781
0.0669203
0.0648058
0.0672659
0.0751745
0.0743924
0.0705044
0.0686848
0.0683137
0.0684171
0.0688855
0.0697805
0.0717091
0.0728458
0.0731079
0.0677234
0.0666912
0.0696216
0.0629984
0.0562422
0.0544099
0.0521581
0.0493627
0.0573164
0.0603045
0.0656953
0.0686988
0.0645412
0.0638709
0.0695285
0.0718808
0.0704731
0.0686958
0.0671643
0.066464
0.0679968
0.0699514
0.0709241
0.0698875
0.0678146
0.0645571
0.0665407
0.0707151
0.0664266
0.0608492
0.0576315
0.0487804
0.0776964
0.0885766
0.0772571
0.0652409
0.0650153
0.0615646
0.0606747
0.0655516
0.0693613
0.0694626
0.0676353
0.0651723
0.0640248
0.0663125
0.0689622
0.0694485
0.0671924
0.0640993
0.0614765
0.063473
0.0667542
0.0669146
0.0798263
0.0918633
0.0825496
0.12877
0.159964
0.0896967
0.061963
0.0608822
0.0585353
0.0580234
0.0625741
0.0669188
0.067779
0.0658564
0.0627761
0.0613643
0.0640466
0.0671783
0.0675324
0.0647203
0.0613764
0.0587382
0.0602219
0.06231
0.0637729
0.0929213
0.164829
0.134671
0.152316
0.143339
0.0837115
0.0591144
0.0575193
0.0559501
0.0556494
0.0601325
0.0646019
0.0657356
0.0636667
0.0602679
0.058658
0.0614705
0.0649495
0.0654414
0.0624269
0.0590909
0.0562549
0.0573083
0.0586686
0.0606559
0.0836042
0.143137
0.153054
0.160583
0.143776
0.076339
0.0569422
0.0546987
0.0535959
0.0536056
0.0579086
0.0623595
0.063526
0.0612447
0.0576625
0.0560859
0.0589416
0.0626367
0.0633536
0.0601887
0.0568387
0.0541757
0.0548349
0.0558713
0.0585322
0.0774937
0.149846
0.160317
0.166179
0.144995
0.0723615
0.0553666
0.0526148
0.0516126
0.0519516
0.055946
0.060176
0.0612492
0.0588903
0.055256
0.0537035
0.0565323
0.0603619
0.0611845
0.0581131
0.0548342
0.0523795
0.0527316
0.0538425
0.0569897
0.0742596
0.153881
0.16707
0.17337
0.148922
0.0697027
0.0538845
0.0509891
0.0499423
0.0506068
0.0542275
0.0580956
0.0590136
0.0566677
0.0530509
0.0515118
0.0542447
0.0580493
0.0589932
0.0561983
0.0530725
0.0507917
0.0508277
0.052163
0.0553251
0.0714445
0.156942
0.176737
0.182954
0.14538
0.0665799
0.0524734
0.0497375
0.0485957
0.0494784
0.0527117
0.0560806
0.0567225
0.0544292
0.0509936
0.0495325
0.0522175
0.0559561
0.0569313
0.0544572
0.0515355
0.0494226
0.0493063
0.0509288
0.0540008
0.0689961
0.155141
0.184087
0.188717
0.144858
0.0647565
0.0514047
0.0487795
0.047554
0.0484876
0.0513435
0.0542444
0.0546567
0.0524495
0.0491562
0.0477288
0.0503015
0.0538939
0.054948
0.0528635
0.0502029
0.0482703
0.0481062
0.0498249
0.0528004
0.067227
0.155513
0.191559
0.193737
0.147024
0.063694
0.050535
0.0479975
0.0468197
0.047629
0.0501013
0.0525503
0.0527441
0.0506441
0.0475057
0.0460985
0.04853
0.0519187
0.0530131
0.051365
0.0490113
0.0472712
0.0471298
0.0488208
0.0517375
0.0653358
0.150608
0.199393
0.20067
0.144259
0.0627714
0.0498457
0.0472305
0.0462335
0.0469674
0.0489898
0.0509225
0.0508582
0.0488568
0.045943
0.0446182
0.0469974
0.0502511
0.0513436
0.0500041
0.047947
0.0464499
0.0463609
0.047911
0.0509631
0.0646139
0.150924
0.203262
0.202842
0.140553
0.0622538
0.0494463
0.0465599
0.0456743
0.0463451
0.0479728
0.0494741
0.0492186
0.0473259
0.0445736
0.0432854
0.0455415
0.0486066
0.049703
0.0487393
0.0470297
0.0457867
0.0456817
0.0470247
0.050347
0.0636577
0.145664
0.208811
0.20528
0.140335
0.0622097
0.0493417
0.0459491
0.0451091
0.0457582
0.0470685
0.0481906
0.047773
0.04596
0.043333
0.0420794
0.0442047
0.0471253
0.0482614
0.0475897
0.0462034
0.0451591
0.0450092
0.046251
0.0500188
0.0631004
0.142847
0.211248
0.209433
0.135813
0.0619067
0.0494252
0.0454834
0.0446398
0.0451642
0.0462158
0.0469388
0.0463631
0.0446363
0.0421768
0.0409966
0.043056
0.0458441
0.04696
0.0465383
0.0454459
0.0445315
0.0444272
0.045664
0.0499563
0.0630744
0.14211
0.212893
0.210522
0.133331
0.0617295
0.0497259
0.0451951
0.0442071
0.0445303
0.0454263
0.0458395
0.0451499
0.0434987
0.041146
0.0400085
0.041947
0.0446168
0.0457612
0.0455573
0.044746
0.0439188
0.0439028
0.0452464
0.0500741
0.0631013
0.138187
0.215398
0.211539
0.132762
0.0614312
0.050103
0.0452435
0.0438139
0.0439468
0.0446534
0.0448308
0.0440366
0.0424589
0.040211
0.0391235
0.040957
0.0434946
0.0446458
0.0446349
0.0440516
0.0433472
0.0435066
0.0451385
0.0503784
0.0626688
0.135711
0.216176
0.213704
0.13077
0.0610253
0.0504927
0.0455039
0.0435069
0.0434006
0.0438847
0.0438737
0.0430012
0.0414653
0.03933
0.0383078
0.0400724
0.04254
0.0436887
0.0437907
0.0433527
0.0428293
0.0431495
0.0453285
0.0508093
0.0624195
0.135656
0.217103
0.214067
0.130813
0.0608455
0.0513163
0.0459789
0.0433335
0.0429267
0.043158
0.0429749
0.0420765
0.0405967
0.0385523
0.0375747
0.0392369
0.0415995
0.0427455
0.0429709
0.0427016
0.0423563
0.0429081
0.0456994
0.0514639
0.0619144
0.133644
0.218583
0.214062
0.133165
0.0606961
0.0520658
0.0466315
0.0433818
0.0424721
0.0424786
0.0421499
0.0412398
0.0398122
0.037838
0.0369013
0.0384687
0.0407585
0.0418976
0.0421862
0.0420907
0.0419086
0.0428989
0.0463048
0.0522265
0.0614702
0.134418
0.218762
0.214438
0.133126
0.0601364
0.0522395
0.0475142
0.043649
0.0421435
0.0418672
0.0413556
0.0404231
0.0390456
0.0371717
0.0362943
0.0378053
0.0400115
0.0411174
0.0414799
0.0415476
0.0415668
0.0430838
0.0471624
0.052602
0.0610983
0.137726
0.218519
0.213575
0.135123
0.059622
0.0522268
0.0486844
0.0441021
0.041973
0.0413416
0.0406634
0.0397101
0.0383791
0.036566
0.035729
0.037154
0.0392932
0.0403878
0.0408109
0.0410853
0.0414174
0.0434891
0.0480822
0.052507
0.06068
0.139771
0.21794
0.213103
0.137641
0.0594213
0.0521006
0.050012
0.0448073
0.0420054
0.0409605
0.0400542
0.0390535
0.0377562
0.0360065
0.0352148
0.0365672
0.0386179
0.0397114
0.040235
0.0407444
0.0414888
0.0440963
0.0496712
0.0524417
0.060407
0.142331
0.216691
0.213286
0.139431
0.0591185
0.0516687
0.050564
0.0456791
0.0421763
0.040781
0.039552
0.0384507
0.0371625
0.0354751
0.0347313
0.0360333
0.0380459
0.0391332
0.0397637
0.0405577
0.0416562
0.0450384
0.0508026
0.0522975
0.0609635
0.144546
0.215992
0.212587
0.141698
0.0590968
0.0511196
0.0505394
0.0470859
0.0425783
0.0407613
0.0392033
0.0379341
0.0366375
0.0349982
0.0342888
0.0355217
0.0374722
0.038593
0.0394079
0.040559
0.0420315
0.0462542
0.0508704
0.0517576
0.0606552
0.146246
0.215749
0.21208
0.144077
0.0601098
0.050615
0.0501566
0.0487056
0.0433169
0.0408323
0.0390413
0.0375447
0.0361847
0.0345571
0.0338719
0.0350466
0.0369669
0.0381473
0.0392025
0.040675
0.0427763
0.0482102
0.0505889
0.0511679
0.0609138
0.148603
0.215081
0.211847
0.146141
0.0601065
0.0500746
0.0495484
0.0494238
0.0445949
0.0410991
0.0389736
0.0372883
0.0357896
0.0341585
0.0334999
0.0346404
0.0365597
0.0378553
0.0391501
0.04097
0.0442149
0.0494327
0.0500659
0.0507692
0.0622504
0.151123
0.214508
0.210926
0.148035
0.0612564
0.0497786
0.0488572
0.0491115
0.0467434
0.0418036
0.0390515
0.037209
0.0355669
0.0338556
0.0331871
0.0343013
0.0362841
0.0377354
0.0391942
0.0415938
0.0462946
0.0492347
0.0494037
0.0503227
0.0630604
0.153019
0.214111
0.209861
0.149952
0.0627832
0.0496983
0.0482745
0.048619
0.0479773
0.0434615
0.0392941
0.037172
0.0354774
0.0336944
0.0329405
0.0341047
0.0361589
0.0377014
0.0393889
0.0431319
0.0478587
0.0487723
0.0487639
0.0501414
0.064144
0.154423
0.213039
0.207855
0.15108
0.063456
0.0496068
0.0478021
0.0479975
0.0477039
0.0457469
0.0400922
0.0372241
0.0354446
0.0336344
0.0328213
0.0340341
0.0361312
0.0377592
0.0401539
0.0454783
0.0478497
0.0481285
0.0482689
0.050295
0.0656564
0.155241
0.210654
0.204455
0.151087
0.064354
0.0496748
0.0474248
0.047293
0.0472546
0.0472717
0.0418742
0.0375382
0.0354845
0.0336379
0.0328229
0.0340245
0.0361399
0.0380083
0.0417749
0.0473702
0.0474403
0.0473831
0.0478188
0.0503518
0.0661114
0.155109
0.207307
0.195593
0.147885
0.0650804
0.0497627
0.0471338
0.0467039
0.0467073
0.0470658
0.0444806
0.0386702
0.0357026
0.0336781
0.0328509
0.0340395
0.0362976
0.038956
0.0444192
0.0474876
0.0469073
0.0467553
0.047448
0.0503116
0.0662985
0.151844
0.198388
0.336452
1.21612
1.51888
1.51922
1.45389
1.35965
1.26077
1.13321
0.998791
0.853097
0.714606
0.601196
0.517522
0.46466
0.434601
0.419015
0.410604
0.405268
0.400705
0.395074
0.38698
0.376188
0.363001
0.347481
0.329636
0.308415
0.282057
0.245507
0.188814
0.115059
0.322887
1.29368
1.60633
1.61134
1.54435
1.44752
1.33816
1.20088
1.05345
0.893143
0.744728
0.62399
0.533392
0.474197
0.438874
0.419604
0.407946
0.400479
0.394028
0.386993
0.378247
0.367273
0.354336
0.339337
0.32195
0.301291
0.275232
0.239185
0.183596
0.113191
0.345845
1.43194
1.70464
1.69997
1.62378
1.52536
1.40822
1.26614
1.10923
0.938154
0.779996
0.651517
0.55425
0.487786
0.446504
0.422183
0.40684
0.396314
0.387935
0.37961
0.370057
0.358825
0.346201
0.331801
0.314733
0.294508
0.269038
0.233496
0.178954
0.111724
0.368116
1.51964
1.81292
1.80693
1.72117
1.61352
1.48784
1.33963
1.17262
0.992995
0.826202
0.688948
0.582355
0.506642
0.457338
0.426758
0.407372
0.393917
0.38324
0.373532
0.363236
0.351841
0.339415
0.325506
0.308876
0.288959
0.263994
0.228739
0.174953
0.110527
0.379555
1.60451
1.92744
1.91632
1.81605
1.69667
1.56227
1.40855
1.23753
1.05296
0.880809
0.734201
0.616746
0.530043
0.471448
0.433729
0.409492
0.392656
0.379608
0.368318
0.357339
0.345994
0.334042
0.320327
0.304163
0.284584
0.259891
0.224823
0.171787
0.109688
0.389788
1.70177
2.04876
2.02713
1.90714
1.7733
1.62831
1.46778
1.29576
1.11173
0.936537
0.782596
0.654643
0.556647
0.48806
0.442513
0.41275
0.392458
0.377096
0.364415
0.35286
0.341488
0.329587
0.315996
0.300139
0.280831
0.256177
0.22122
0.168835
0.108878
0.401327
1.80301
2.17115
2.13454
1.99233
1.84137
1.68479
1.52033
1.34873
1.16707
0.992153
0.832909
0.69553
0.586313
0.506915
0.452944
0.417422
0.39348
0.375787
0.361805
0.34973
0.338277
0.326288
0.312591
0.296624
0.277249
0.252666
0.217908
0.166157
0.108143
0.413271
1.90675
2.2938
2.23961
2.07441
1.90477
1.73727
1.56934
1.3985
1.2195
1.04643
0.8846
0.738804
0.618614
0.528172
0.465185
0.423577
0.395766
0.375821
0.360445
0.347685
0.336039
0.323681
0.309688
0.293466
0.273794
0.249279
0.214806
0.163688
0.107449
0.42494
2.00722
2.41284
2.34467
2.15432
1.96676
1.79028
1.61924
1.44801
1.27175
1.10106
0.937841
0.785447
0.654619
0.55277
0.480036
0.431579
0.39956
0.377129
0.360191
0.346635
0.334293
0.321466
0.307176
0.290725
0.27077
0.24615
0.211833
0.161332
0.106847
0.434825
2.10439
2.53147
2.45256
2.23629
2.03208
1.84767
1.67359
1.49992
1.32666
1.15841
0.994135
0.836376
0.695729
0.581906
0.498387
0.442117
0.40512
0.37967
0.360846
0.345982
0.332618
0.319572
0.305036
0.288361
0.268239
0.243431
0.208815
0.158992
0.106311
0.443149
2.19531
2.65114
2.56117
2.32315
2.10313
1.91177
1.73499
1.55756
1.3871
1.22058
1.05555
0.893337
0.743524
0.617287
0.521768
0.455947
0.412761
0.383531
0.36242
0.345751
0.33141
0.318117
0.303134
0.286042
0.266055
0.240777
0.205753
0.156594
0.105676
0.45087
2.28086
2.76804
2.67043
2.41565
2.18247
1.9843
1.80493
1.62376
1.45543
1.28983
1.12362
0.957818
0.799571
0.660964
0.552019
0.474462
0.423222
0.389307
0.365783
0.346977
0.331335
0.316995
0.301635
0.284316
0.264017
0.238258
0.202948
0.154335
0.105197
0.45936
2.36733
2.88179
2.77949
2.51358
2.26884
2.0634
1.88398
1.70012
1.53249
1.36786
1.20057
1.03134
0.865914
0.714828
0.590992
0.49952
0.437949
0.398038
0.369973
0.348892
0.33208
0.316439
0.30033
0.282762
0.262085
0.236133
0.200569
0.152448
0.104938
0.468266
2.45436
2.99138
2.88882
2.6171
2.3646
2.15275
1.96815
1.78293
1.61818
1.4554
1.28761
1.11533
0.943209
0.78086
0.641427
0.533541
0.459017
0.40952
0.375933
0.35177
0.332877
0.315742
0.299011
0.281233
0.260306
0.234078
0.198335
0.150765
0.104582
0.476205
2.54001
3.09511
2.99637
2.72569
2.46874
2.25429
2.05941
1.87549
1.71291
1.55226
1.38487
1.21067
1.03319
0.86064
0.705349
0.579182
0.488049
0.425229
0.383835
0.35547
0.333766
0.31514
0.297755
0.279741
0.258418
0.23176
0.196239
0.148658
0.104276
0.482771
2.61687
3.18884
3.10155
2.83671
2.57959
2.36346
2.16115
1.97823
1.81728
1.659
1.49239
1.3177
1.1354
0.95416
0.784159
0.638763
0.526338
0.447437
0.395517
0.360878
0.335618
0.315403
0.297021
0.27837
0.256564
0.22964
0.193636
0.146676
0.10406
0.489179
2.68471
3.27164
3.20054
2.94796
2.69641
2.47825
2.27048
2.08906
1.93105
1.7753
1.61013
1.4351
1.24961
1.06122
0.878536
0.713776
0.57818
0.478642
0.412336
0.368969
0.339383
0.316929
0.297397
0.277666
0.255188
0.227765
0.191245
0.14496
0.103915
0.494434
2.74208
3.34196
3.2913
3.05706
2.81725
2.59845
2.38774
2.20932
2.0544
1.90068
1.73686
1.56166
1.37508
1.18176
0.988403
0.805495
0.646199
0.522336
0.436495
0.38144
0.345624
0.319975
0.298091
0.277218
0.254128
0.226137
0.189228
0.143643
0.103903
0.503244
2.77961
3.39603
3.3689
3.16002
2.94031
2.72538
2.51305
2.33877
2.1873
2.03543
1.87264
1.69749
1.51091
1.31405
1.11209
0.913047
0.730395
0.580268
0.470811
0.399698
0.354917
0.323817
0.299839
0.277533
0.253522
0.224987
0.187914
0.142761
0.103941
0.505994
2.80159
3.42888
3.4313
3.25399
3.06287
2.85679
2.64709
2.47818
2.3299
2.17968
2.01751
1.84283
1.65608
1.45684
1.24756
1.03444
0.830705
0.654066
0.517173
0.425125
0.367373
0.3296
0.302449
0.278411
0.253424
0.224195
0.187112
0.142232
0.10412
0.511248
2.7947
3.42575
3.47007
3.33572
3.1819
2.99168
2.79117
2.62821
2.48247
2.33346
2.17257
1.99934
1.81218
1.6108
1.39432
1.16872
0.946143
0.743856
0.57779
0.460195
0.384923
0.337651
0.305353
0.279191
0.25329
0.223651
0.18662
0.141756
0.104321
0.513334
2.76716
3.38648
3.47862
3.40377
3.2949
3.13
2.94441
2.78842
2.64525
2.49867
2.34038
2.1691
1.98074
1.77516
1.55044
1.31407
1.07455
0.849117
0.654609
0.508089
0.409982
0.34914
0.309598
0.280397
0.253347
0.223124
0.18606
0.141108
0.10455
0.517262
2.69351
3.2916
3.44434
3.45253
3.40096
3.26925
3.10434
2.95806
2.81906
2.67521
2.52076
2.35025
2.15807
1.94355
1.70944
1.46392
1.21193
0.968859
0.748951
0.57182
0.44578
0.36619
0.316804
0.283203
0.254273
0.223023
0.185477
0.140373
0.104789
0.515705
2.5257
3.1018
3.34466
3.47362
3.49668
3.40774
3.27003
3.1364
3.00281
2.86041
2.70541
2.52981
2.33373
2.11143
1.87222
1.61975
1.35978
1.10252
0.860869
0.652983
0.495005
0.391265
0.328015
0.287881
0.255896
0.223331
0.185018
0.139758
0.105018
0.502436
2.03075
2.69283
3.14736
3.45036
3.57295
3.54265
3.43939
3.32215
3.19505
3.0527
2.89119
2.70548
2.50505
2.28528
2.04419
1.78704
1.51922
1.24871
0.987768
0.751088
0.559305
0.425985
0.34399
0.294273
0.258044
0.223834
0.18455
0.13914
0.105248
0.114683
0.187969
0.244567
0.281218
0.307469
0.328729
0.346526
0.362508
0.37532
0.385906
0.393806
0.39926
0.40384
0.409843
0.419758
0.437498
0.471761
0.531924
0.625322
0.749684
0.89883
1.05289
1.19414
1.32642
1.42801
1.52416
1.59094
1.58596
1.26265
0.34425
0.112823
0.1828
0.238329
0.274457
0.300252
0.320995
0.338436
0.353379
0.366405
0.377075
0.385406
0.392259
0.39876
0.40754
0.420809
0.442772
0.482175
0.548527
0.64909
0.780575
0.939735
1.10829
1.26368
1.40516
1.51803
1.61711
1.68669
1.67644
1.34228
0.330323
0.111378
0.178232
0.232797
0.2685
0.293846
0.314102
0.331032
0.345294
0.358027
0.369021
0.378205
0.386362
0.395008
0.406567
0.423577
0.450918
0.497049
0.570621
0.677717
0.816392
0.984292
1.16209
1.32641
1.47161
1.59428
1.69647
1.77686
1.7772
1.48474
0.353583
0.110226
0.174374
0.228224
0.263667
0.288723
0.308501
0.324971
0.338812
0.351351
0.362634
0.372631
0.382162
0.393093
0.407278
0.428754
0.462149
0.516351
0.599538
0.715324
0.862409
1.03751
1.22349
1.39693
1.54875
1.68016
1.79283
1.88484
1.88791
1.57354
0.376213
0.10944
0.171368
0.22451
0.259731
0.284637
0.304146
0.320091
0.333847
0.345906
0.357337
0.368108
0.379101
0.392308
0.410047
0.436612
0.477041
0.540185
0.633825
0.759321
0.914375
1.09503
1.28386
1.45837
1.61684
1.75818
1.88575
1.99443
2.00347
1.65779
0.387404
0.108659
0.168573
0.221081
0.25615
0.281013
0.300488
0.316358
0.329734
0.34169
0.353196
0.364652
0.377111
0.392773
0.413965
0.445637
0.493925
0.566898
0.670926
0.805835
0.967357
1.14889
1.33542
1.51059
1.67519
1.82831
1.97428
2.10456
2.12512
1.75517
0.397061
0.107885
0.165948
0.217806
0.252757
0.277601
0.29713
0.313109
0.326395
0.338463
0.350066
0.362209
0.376311
0.394225
0.418998
0.456188
0.512521
0.595734
0.710154
0.853948
1.01863
1.19748
1.38133
1.55535
1.72486
1.88987
2.05642
2.2104
2.24681
1.85583
0.40889
0.10712
0.163374
0.214554
0.249502
0.274394
0.294135
0.31032
0.323771
0.336047
0.347927
0.360997
0.376702
0.396979
0.425487
0.468413
0.533038
0.626381
0.751172
0.90218
1.06761
1.24309
1.42482
1.59765
1.77139
1.94852
2.13328
2.31441
2.36809
1.95797
0.420025
0.106407
0.160794
0.211316
0.246359
0.27147
0.291554
0.307967
0.321695
0.334208
0.346586
0.360613
0.37807
0.400996
0.433591
0.482778
0.556322
0.660228
0.794387
0.950434
1.11632
1.2892
1.46824
1.64118
1.81859
2.00562
2.20969
2.41898
2.48748
2.05772
0.431545
0.105808
0.158349
0.208209
0.243411
0.268871
0.289399
0.305874
0.319997
0.332888
0.346075
0.36153
0.380479
0.406457
0.443862
0.50034
0.583869
0.698484
0.84082
1.00086
1.16773
1.3382
1.51394
1.68937
1.87038
2.0661
2.28852
2.52456
2.60535
2.15348
0.441081
0.10537
0.15617
0.205464
0.240833
0.26659
0.287379
0.304125
0.318584
0.33201
0.346659
0.36328
0.384363
0.413659
0.456903
0.522221
0.616976
0.742861
0.892999
1.05611
1.22327
1.39268
1.56543
1.74491
1.92921
2.13286
2.37205
2.63062
2.72182
2.24331
0.448746
0.105198
0.154399
0.203088
0.238656
0.264677
0.285493
0.302761
0.317657
0.33227
0.347487
0.36585
0.3905
0.423556
0.47399
0.549939
0.657206
0.794374
0.952057
1.11842
1.28634
1.45446
1.62594
1.80974
1.99673
2.20786
2.46139
2.73669
2.83599
2.32868
0.456599
0.10475
0.152713
0.200947
0.23663
0.262992
0.283901
0.301589
0.317216
0.332597
0.349475
0.370185
0.398079
0.437945
0.49716
0.585853
0.706944
0.855529
1.0204
1.18979
1.35841
1.52554
1.69698
1.88582
2.07226
2.29229
2.55794
2.84356
2.94704
2.41444
0.464827
0.104404
0.150791
0.199116
0.234661
0.26136
0.282419
0.300445
0.317033
0.333825
0.352833
0.376249
0.408648
0.457416
0.528961
0.632955
0.76891
0.928702
1.09957
1.27171
1.44081
1.60673
1.77714
1.96714
2.15771
2.38512
2.66025
2.95151
3.055
2.50119
0.473612
0.104122
0.148861
0.1967
0.232743
0.259704
0.280979
0.299446
0.316834
0.3353
0.356736
0.384553
0.423189
0.483186
0.571524
0.693385
0.844736
1.01469
1.19085
1.36501
1.53413
1.69832
1.86673
2.05491
2.25602
2.48694
2.76754
3.05805
3.15731
2.58637
0.481449
0.103957
0.147024
0.194394
0.230988
0.258223
0.279835
0.299095
0.317273
0.337387
0.362022
0.395267
0.443981
0.518813
0.62701
0.768377
0.934673
1.1133
1.29449
1.46962
1.63796
1.79961
1.96644
2.15386
2.36455
2.5966
2.87826
3.16203
3.2502
2.66252
0.487923
0.103825
0.145467
0.192347
0.229508
0.257242
0.279562
0.2993
0.319047
0.341307
0.370022
0.410993
0.473951
0.568179
0.698292
0.859027
1.03902
1.22489
1.40934
1.585
1.75191
1.91125
2.07527
2.26357
2.47938
2.71337
2.99006
3.26087
3.33143
2.72933
0.494121
0.103734
0.144393
0.190777
0.228068
0.25632
0.279503
0.300184
0.322005
0.347663
0.382185
0.434236
0.515746
0.63371
0.787419
0.966196
1.15749
1.34895
1.53435
1.71042
1.87565
2.03281
2.1937
2.38034
2.59997
2.83507
3.10025
3.35196
3.40086
2.78562
0.499333
0.103897
0.143861
0.189729
0.227211
0.255953
0.280026
0.302414
0.326804
0.356682
0.399932
0.467077
0.571375
0.715651
0.893064
1.08854
1.28929
1.48477
1.67014
1.84547
2.00955
2.16487
2.32237
2.50554
2.72801
2.9598
3.20477
3.43005
3.45466
2.82207
0.50804
0.104046
0.143738
0.189315
0.226839
0.256283
0.281295
0.305457
0.332476
0.369009
0.424892
0.512221
0.643423
0.81465
1.01385
1.22404
1.4326
1.631
1.81663
1.9908
2.15413
2.3078
2.46242
2.64046
2.86094
3.08485
3.30049
3.49261
3.48716
2.84349
0.510823
0.10428
0.143586
0.189214
0.226828
0.256813
0.282852
0.308963
0.34064
0.386437
0.458892
0.571513
0.732264
0.929975
1.14849
1.37146
1.58707
1.78811
1.97463
2.14733
2.3097
2.46188
2.61335
2.78567
2.99855
3.20663
3.38383
3.53195
3.48405
2.83682
0.516246
0.104536
0.143065
0.188941
0.226674
0.257235
0.284615
0.313715
0.352384
0.411277
0.505764
0.647219
0.837242
1.05929
1.29546
1.52963
1.75258
1.95748
2.14588
2.31736
2.47684
2.62669
2.77571
2.94145
3.13994
3.32292
3.45367
3.54219
3.44478
2.80838
0.518517
0.104785
0.142136
0.188328
0.226461
0.258067
0.287432
0.320778
0.369238
0.446301
0.568461
0.741009
0.957526
1.1986
1.44896
1.69309
1.92495
2.13727
2.32893
2.49995
2.65561
2.80296
2.94877
3.10543
3.28362
3.43236
3.50454
3.50939
3.35061
2.73363
0.522442
0.105021
0.141155
0.187427
0.226381
0.259307
0.291528
0.331211
0.393113
0.494154
0.648447
0.852777
1.09228
1.34809
1.60714
1.85839
2.0964
2.31721
2.51384
2.68753
2.8431
2.98952
3.13087
3.27566
3.42745
3.53167
3.52799
3.41059
3.16256
2.5626
0.520945
0.105251
0.140659
0.186891
0.226723
0.261073
0.297203
0.346249
0.426392
0.556752
0.745385
0.979907
1.2397
1.50902
1.77571
2.0316
2.27232
2.49124
2.69204
2.87557
3.03736
3.18488
3.32056
3.4498
3.56738
3.61338
3.50791
3.21354
2.75329
2.05827
0.50779
0.29455
0.286522
0.278993
0.273161
0.270159
0.271366
0.276259
0.285021
0.298045
0.315049
0.335344
0.358262
0.383053
0.408922
0.435036
0.460735
0.485567
0.50926
0.531637
0.552528
0.571934
0.589892
0.606308
0.62107
0.634443
0.646759
0.657975
0.668052
0.67705
0.685012
0.692108
0.698304
0.703644
0.708141
0.711793
0.714596
0.716545
0.717627
0.717773
0.717065
0.715517
0.713063
0.709654
0.705246
0.699783
0.693223
0.6856
0.676854
0.667085
0.656264
0.644491
0.631894
0.6184
0.604142
0.589192
0.573544
0.557272
0.540525
0.523411
0.506029
0.488473
0.470829
0.453174
0.435548
0.417945
0.400349
0.382748
0.365155
0.347602
0.330134
0.312801
0.295659
0.278773
0.26221
0.24604
0.230331
0.21517
0.200654
0.18689
0.173982
0.162023
0.151106
0.141305
0.132662
0.125194
0.118868
0.113622
0.109363
0.105977
0.10334
0.101328
0.0998214
0.0987162
0.0979298
0.097391
0.0970521
0.0968479
0.0967538
0.0967658
0.0969019
0.097123
0.097376
0.0976845
0.0980567
0.0985103
0.0989993
0.0994994
0.100014
0.100557
0.101107
0.101617
0.102238
0.102698
0.103154
0.103664
0.104195
0.104458
0.104867
0.105133
0.105327
0.105538
0.105729
0.105793
0.105682
0.10553
2.48451
2.50434
2.51489
2.54178
2.60197
2.71387
2.8649
3.057
3.28046
3.5342
3.81159
4.10544
4.40599
4.70338
4.98992
5.26016
5.51064
5.73937
5.94574
6.13012
6.29315
6.43516
6.55637
6.66211
6.75503
6.83553
6.90278
6.95888
7.00489
7.04196
7.07109
7.09306
7.10833
7.1173
7.12029
7.11757
7.10936
7.09578
7.07714
7.05188
7.02161
6.98594
6.94472
6.8977
6.84455
6.78484
6.71897
6.64509
6.56018
6.46233
6.35011
6.22424
6.08808
5.94141
5.78758
5.6294
5.46579
5.29902
5.13067
4.96051
4.78889
4.61671
4.44489
4.27359
4.1028
3.9326
3.7634
3.59588
3.43073
3.26802
3.10734
2.94854
2.79117
2.63452
2.47796
2.32095
2.16295
2.00399
1.84459
1.68592
1.52978
1.37821
1.23329
1.09658
0.969553
0.853377
0.748731
0.655909
0.574667
0.504516
0.444588
0.393891
0.351266
0.315605
0.285883
0.261177
0.240629
0.223527
0.209303
0.197482
0.187585
0.179262
0.172355
0.166651
0.161897
0.157826
0.154528
0.151818
0.149779
0.14836
0.147125
0.145909
0.144373
0.143331
0.142531
0.142046
0.141324
0.140696
0.140234
0.139985
0.140172
0.140613
0.14089
0.140829
0.140658
4.73309
4.74831
4.76681
4.81566
4.91515
5.07343
5.29018
5.56566
5.89449
6.26891
6.68043
7.11676
7.56554
8.01414
8.45042
8.86501
9.25144
9.60565
9.92552
10.2106
10.4619
10.6798
10.8676
11.0292
11.1667
11.2812
11.3744
11.4492
11.5077
11.5516
11.5824
11.6012
11.6091
11.6067
11.5947
11.5734
11.5433
11.5045
11.4571
11.4008
11.336
11.2627
11.1806
11.0895
10.9888
10.8777
10.7561
10.6239
10.4796
10.3227
10.1533
9.97178
9.77955
9.57609
9.36076
9.13347
8.89711
8.65383
8.40788
8.15918
7.90808
7.65525
7.4017
7.14733
6.89157
6.6343
6.37569
6.11618
5.8562
5.59617
5.33657
5.07774
4.81994
4.56344
4.30866
4.05643
3.80759
3.5632
3.32435
3.09225
2.86792
2.65227
2.44595
2.24929
2.06238
1.88472
1.71639
1.5575
1.40823
1.26885
1.13951
1.02034
0.911475
0.81299
0.724712
0.646547
0.57799
0.518422
0.467109
0.423362
0.386237
0.354904
0.328564
0.306268
0.287463
0.271367
0.258083
0.247206
0.238772
0.232246
0.225903
0.219831
0.214025
0.209531
0.206273
0.203336
0.199858
0.197136
0.194999
0.193167
0.191732
0.190614
0.189439
0.188131
0.187144
6.6766
6.70105
6.74504
6.83132
6.97621
7.18651
7.46371
7.80545
8.20504
8.65018
9.1286
9.62767
10.1335
10.6334
11.1162
11.5727
11.9965
12.3832
12.7309
13.0394
13.3089
13.5409
13.74
13.9084
14.0477
14.1601
14.2492
14.3178
14.3682
14.4025
14.4222
14.4287
14.423
14.406
14.3784
14.3406
14.2931
14.2363
14.1702
14.0949
14.0108
13.9177
13.8154
13.7037
13.5822
13.4506
13.3086
13.1563
12.9935
12.8202
12.6362
12.4408
12.2368
12.0243
11.8027
11.5724
11.3345
11.0904
10.8385
10.5799
10.3155
10.0456
9.77072
9.4919
9.20793
8.91854
8.62427
8.32614
8.02432
7.71874
7.4099
7.09881
6.78641
6.47355
6.16133
5.85024
5.54176
5.23725
4.93787
4.64471
4.3593
4.08271
3.81576
3.55906
3.31314
3.07812
2.85423
2.64136
2.43959
2.2491
2.06939
1.90004
1.74052
1.5904
1.44931
1.31734
1.19431
1.0803
0.975171
0.879543
0.793227
0.716445
0.649125
0.589599
0.537632
0.491908
0.452199
0.418757
0.391622
0.369174
0.347737
0.327363
0.309188
0.294415
0.283206
0.273163
0.262915
0.254933