/*--------------------------------*- C++ -*----------------------------------*\
| =========                 |                                                 |
| \\      /  F ield         | OpenFOAM: The Open Source CFD Toolbox           |
|  \\    /   O peration     | Version:  2112                                  |
|   \\  /    A nd           | Website:  www.openfoam.com                      |
|    \\/     M anipulation  |                                                 |
\*---------------------------------------------------------------------------*/
FoamFile
{
    version     2.0;
    format      ascii;
    arch        "LSB;label=32;scalar=64";
    class       volScalarField;
    location    "0.0066";
    object      k;
}
// * * * * * * * * * * * * * * * * * * * * * * * * * * * * * * * * * * * * * //

dimensions      [0 2 -2 0 0 0 0];

internalField   nonuniform List<scalar> 
13875
(
812.103
3462.66
3540.46
3539.25
3541.09
3540.47
3540.18
3539.87
3541.61
3542.12
3541.08
3540.86
3540.55
3540.13
3540.44
3541.22
3541.96
3541.04
3540.71
3540.26
3541.17
3539.02
3540.12
3461.97
820.32
881.794
2936.65
3013.09
3000.64
3000.74
2998.92
2996.57
2996.56
2996.56
2996.29
2996.13
2998.21
2996.49
2996.37
2996.18
2998.52
2996.27
2997.09
2996.96
2998.64
3000.47
2999.29
3011.66
2934.54
894.297
993.36
2710.86
2777.47
2755.33
2758.47
2755.81
2746.17
2743.9
2742.3
2740.72
2740.42
2744.16
2751.36
2752.18
2750.86
2744.67
2741.25
2742.75
2745.32
2755.14
2757.69
2753.17
2774.53
2706.77
998.23
1091.06
2533.67
2580.94
2561.46
2566.44
2563.33
2552.56
2549.88
2548.63
2546.59
2545.82
2548.13
2559.23
2560.04
2558.83
2548.71
2547.38
2547.55
2551.16
2562.95
2565.49
2559.41
2579.14
2529.39
1093.87
1172.11
2380.43
2413.08
2392.78
2397.75
2394.51
2383.37
2381.51
2380.42
2378.4
2377.79
2379.2
2390.21
2391.41
2389.88
2379.79
2379.23
2379.03
2382.36
2393.94
2396.78
2391.18
2410.46
2375.36
1177.49
1241.02
2237.1
2270.81
2244.74
2250.95
2246.12
2233.94
2232.57
2231.39
2229.43
2229.18
2229.69
2240.79
2242.29
2240.5
2230.24
2230.52
2229.91
2233.09
2245.72
2249.95
2243.75
2267.85
2247.24
1247.39
1321
2121.82
2158.18
2120.13
2122.89
2115.99
2101.87
2100.4
2099.08
2096.98
2097.14
2096.85
2108.12
2109.68
2107.56
2097.29
2098.59
2097.69
2101.57
2115.51
2121.68
2119.77
2154.03
2095.7
1323.49
1409.82
2000.76
2073.43
2019.31
2015.95
2003.01
1986.07
1983.4
1981.42
1979.06
1979.83
1978.52
1990.11
1991.93
1989.46
1978.89
1981.49
1980.59
1985.47
2002.21
2013.96
2018.02
2068.24
1992.83
1420.28
1691.57
2029.52
2021.85
1944.22
1924.62
1905.43
1884.15
1880.44
1877.82
1874.87
1876.38
1874.23
1886.06
1888.16
1885.48
1874.77
1878.21
1877.3
1883.39
1903.93
1922.46
1942.23
2017.85
2033.58
1716.51
2509.58
2285.7
2018.12
1900.8
1858.86
1827.15
1802.98
1797.86
1794.52
1791.31
1793.08
1790.59
1802.02
1804.4
1801.76
1792.25
1795.2
1795.35
1801.5
1824.84
1855.71
1891.9
2011.34
2265.97
2529.3
3877.86
3027.18
2154.04
1916.45
1816.29
1773.79
1746.71
1736.96
1732.05
1728.59
1729.91
1727.45
1737.92
1740.62
1738.78
1731.68
1733.82
1735.73
1745.43
1768.62
1813.6
1907.63
2130.1
2937.05
3858.73
5185.68
6452.53
2857.12
1995.99
1856.01
1759.13
1715.05
1699.48
1691.22
1687.05
1687.35
1685.3
1693.88
1697.02
1696.49
1692.15
1694.23
1699.25
1713.29
1758.64
1847.72
1972.78
2786.76
6319.33
5120.54
5057.15
7596.02
7071.92
3356.84
2050.12
1802.76
1745.75
1704.33
1687.31
1679.29
1677.26
1674.86
1680.93
1684.48
1686.04
1685.95
1692.64
1708.98
1748.99
1805.07
2089.81
3228.15
6754.26
7651.33
5010.4
4827.06
6344.07
7186.9
8791.23
5177.05
2344.41
1907.55
1798.08
1757.57
1750.19
1748.55
1746.53
1751.4
1754.71
1757.54
1759.59
1764.09
1798.88
1945.3
2492.48
5626.35
8152.13
6962.69
6335.14
4832.86
4605.44
5509.3
6050.34
7027.87
6807.48
6734.16
3512.9
2413.2
2160.2
2056.25
2020.22
2005.14
2006.54
2011.3
2022.8
2055.79
2148.92
2407.66
3625.81
6953.06
6815.65
6711.31
5975.46
5494.14
4683.57
4298.15
4802.94
5129.54
5919.44
6069.84
6582.32
5614.6
5088.53
4931.12
4370.69
4422.65
4465.16
4527.29
4500.58
4440.98
4340.76
4963.41
5354.6
5702.12
6677.42
6003.2
5730.1
5090.93
4789.8
4371.05
3740.12
4055.03
4360.62
5098.21
5632.76
6552.2
7353.61
8049.85
7080.95
6324.07
6564.84
6812.92
6971.94
6922.02
6689.55
6584.68
7010.44
8023.05
7649.57
6622.49
5529.4
4947.03
4259.45
3983.8
3735.64
3074.63
3417.58
3975.67
4851.49
5548.79
6252.93
7407.58
8426.85
6445.48
5342.08
5236.22
5293.93
5391.9
5357.1
5314.06
5636.67
6502.25
7908.37
7427.96
6368.86
5616.43
4858.28
3932
3366.18
3043.5
2636.41
3167.15
3883.63
5220.42
6107.7
5828.59
6268.49
7060.74
6080.17
5073.5
4713.55
4588.93
4603.14
4661.19
4789.16
5177.42
5941.91
6761.37
6262.73
5897.64
6372.14
5396.96
3949.92
3178.29
2641.24
2510.55
3348.67
4118.39
5443.91
5882.63
5314.02
5338.06
5915.84
5633.5
4925.08
4417.38
4091.8
4019.49
4188.07
4515.01
4949.27
5438.95
5689.41
5334
5394
6006.5
5443.12
4219.68
3407.74
2515.76
4698.21
6809.12
5578.09
4877.44
5070.08
4662.98
4636.61
5134.41
5153.61
4633.92
4072.94
3646.94
3536.44
3775
4199.12
4636.28
4954.76
4954.64
4644.76
4749.18
5170.48
4855.34
5718.39
6628.5
4678.06
10827.2
20084.8
6714.9
4228.06
4359.45
4102.36
4104.79
4546.31
4677.16
4268.32
3708.9
3249.42
3119.46
3378.75
3832.56
4253.53
4484.63
4406.39
4113.36
4177.45
4434.74
4251.95
7166.67
20019.9
10830.1
11945.9
14687.7
5954.34
3764.8
3814.38
3658.04
3666.39
4065.95
4225.02
3874.97
3348.05
2899.9
2758.83
3008.24
3450.68
3847.22
4041.53
3950.08
3668
3714.19
3861.16
3789.9
6132.13
14566
11884.6
11416.1
14299.7
5094.24
3423.89
3381.64
3276.44
3289.78
3643.19
3806.63
3488.77
2996.92
2581.79
2453.35
2685.46
3100.66
3471.56
3644.04
3542.1
3294.16
3330.24
3430.69
3462.78
5231.29
14496.7
11386.8
11009.7
13725.5
4571.19
3170.81
3051.63
2957.27
2981.81
3282
3429.57
3141.56
2694.15
2314.04
2196.57
2408.38
2792.28
3132.16
3287.16
3191.52
2980.52
3004.48
3104.4
3211.76
4728.38
14229.2
11065.7
10700.6
13735
4198.83
2936.22
2785.42
2687.18
2726.96
2973.85
3095.55
2834.69
2432.16
2086.92
1979.21
2168.62
2513.99
2822.17
2965.61
2888.13
2714
2716.63
2829.62
2972.24
4284.35
13880
10869.8
10543.5
12969.4
3819.6
2719.89
2562.81
2458.43
2509.49
2706.1
2789.67
2550.79
2195.91
1891.24
1794.97
1968.4
2280.05
2555.13
2689.03
2632.35
2489.19
2483.34
2611.87
2765.99
3924.23
13261.3
10692.2
10424.4
12544
3566.87
2540.26
2383.07
2273.05
2323.74
2477.78
2530.27
2310.78
1996.9
1725.62
1637.43
1793.44
2069.96
2316.05
2443.17
2409.48
2298.16
2288.05
2421.74
2582.78
3647.07
12737.5
10555.7
10280.2
12369.4
3387.46
2384.68
2228.87
2125.3
2163.08
2278.73
2302.68
2101.9
1826.2
1583.91
1502.24
1641.28
1885.17
2102.86
2224.22
2213.28
2132.02
2126.82
2255.35
2418.61
3407.97
11956.8
10404.6
10078.2
11833.8
3239.04
2250.08
2087.42
2000.04
2025.91
2101.34
2096.08
1910.79
1669.52
1458.26
1385.23
1513.69
1731.73
1925.89
2040.02
2045.51
1991.01
1995.19
2109.53
2280.46
3257.35
11582.7
10215.2
9780.15
11025
3116.69
2143.17
1969.86
1889.33
1905.13
1948.74
1921.51
1751.61
1539.5
1351.2
1283.98
1399.61
1592.64
1764.92
1873.99
1897.23
1869.48
1879.15
1981.49
2162.33
3114.89
10908.6
9927.66
9511.25
10551.6
3020.56
2065.72
1862.66
1786.53
1797.74
1816.36
1773.36
1615.97
1426.71
1257.84
1195.65
1299.86
1471.68
1627.15
1731.85
1767.82
1761.06
1772.55
1869.23
2073.41
3003.15
10244.9
9637.31
9262.42
9783.91
2939.25
2007.77
1770.43
1695.95
1697.52
1695.43
1636.89
1491.73
1324.63
1174.6
1118.53
1214.88
1369.94
1509.1
1608.99
1655.08
1663.11
1679.03
1772.19
2008.33
2945.82
9751.94
9348.5
9026.32
9154.71
2864.18
1970.55
1697.67
1616.49
1603.8
1589.91
1522.42
1388.19
1237.54
1102.14
1050.3
1137.88
1277.22
1404.32
1498.75
1553.35
1571.16
1595.35
1691.65
1963.33
2886.12
9066.06
9080.27
8806.63
8721.45
2756.12
1945.61
1650.98
1541.57
1518.7
1494.82
1421.56
1296.7
1161.21
1038.12
990.281
1070.21
1195.96
1311.62
1401.69
1461.26
1485.91
1519.84
1636.78
1936.95
2788.65
8468.84
8848.93
8569.52
8207.47
2643.94
1925.89
1619.17
1477.08
1440.73
1405.87
1331.21
1214.64
1090.88
980.064
936.488
1011.07
1125.93
1232.89
1318.45
1378.77
1410.21
1453.91
1600.78
1921.73
2685.74
8136.38
8640.34
8335.05
7836.86
2546.31
1934.77
1603.62
1423.85
1372.82
1327.2
1250.96
1143.38
1030.68
929.161
888.643
956.921
1061.46
1160.18
1240.49
1302.6
1342.24
1397.15
1579.35
1917.87
2575.97
7703.65
8402.58
8128.22
7598.83
2460.28
1941.67
1598.98
1385.16
1311.1
1256.17
1180.27
1080.82
976.916
883.392
845.484
908.201
1004.29
1096.28
1171.05
1233.84
1280.92
1356.36
1572.12
1947.08
2481
7496.3
8174.33
7923.24
7229.91
2346.57
1906.84
1611.98
1360.62
1258.07
1192.05
1114.65
1022.2
927.186
841.699
806.75
865.669
954.098
1039.35
1109.34
1173.42
1229.14
1329.81
1591.59
1952.08
2407.31
7290.26
7969.68
7746.39
6988.55
2230.53
1856.62
1638.12
1347.84
1215.87
1137.28
1058.81
971.846
883.233
804.058
771.36
825.95
907.072
987.319
1053.52
1119.8
1188.2
1317.25
1615.63
1894.02
2289.58
7005.32
7774.04
7601.25
6824.66
2132.2
1797
1695.37
1349.9
1186.48
1091.7
1009.39
926.132
843.575
769.941
739.364
790.087
864.539
940.12
1004.01
1075.22
1160.03
1318.54
1685.09
1834.56
2176.6
6785.14
7610.45
7452.63
6642.13
2039.75
1721.06
1701.25
1366.36
1165.55
1057.46
966.617
884.629
806.437
738.309
709.934
757.778
827.088
899.23
962.802
1040.88
1139.33
1340.3
1713.15
1767.99
2117.71
6642.6
7483.19
7313.29
6503.98
1963.86
1644.18
1656.31
1415.29
1155.72
1032.72
932.934
848.779
773.843
709.959
683.062
727.579
792.012
861.808
928.095
1015.33
1127.74
1382.6
1676.12
1684.01
2032.39
6475.24
7342.92
7200.19
6365.26
1978.06
1575.65
1591.44
1479.53
1164.6
1013.99
909.025
819.613
744.833
683.947
658.204
699.91
760.731
830.006
902.174
997.886
1138.47
1471.92
1616.87
1606.39
1970.16
6333.93
7222.27
7079.64
6229.35
1919.32
1509.91
1516.35
1489.08
1206.54
1004.21
888.77
796.631
719.575
660.412
635.758
675.732
734.539
805.428
882.22
990.357
1195.94
1510.47
1548.99
1548.48
1988.07
6198.64
7118.52
6965.77
6075.33
1945.05
1459.12
1443.05
1438.46
1297.76
1018.24
875.932
780.6
700.824
640.882
616.178
654.873
714.116
787.108
867.284
1004.02
1292.38
1460.82
1477.59
1492.84
1961.14
6057.05
7010.33
6853.12
5931.28
1990.65
1423.18
1381.09
1381.57
1334.04
1082.32
871.266
766.148
686.938
626.447
599.811
639.29
698.848
771.804
860.29
1070.72
1339.23
1401.71
1412.24
1448.65
1959.78
5922.05
6890.92
6674.59
5759.83
1975.51
1387.95
1327.11
1322.42
1292.5
1178.58
895.417
755.087
674.913
615.319
587.726
627.84
686.499
760.801
885.986
1181.05
1298.86
1337.97
1355.84
1419.72
2008.74
5760.42
6698.2
6437.84
5543.35
1973.44
1362.64
1281.07
1264.65
1246.27
1219.88
973.493
756.827
665.761
606.328
579.161
618.245
675.878
759.276
959.363
1233.64
1253.31
1276
1306.14
1391.17
1998.65
5557.74
6455.33
5878.98
5170.25
1948.65
1339.27
1240.72
1213.85
1195.84
1182.44
1070.57
795.299
663.683
598.442
571.852
609.818
672.446
789.973
1071.19
1198.71
1203.78
1222.91
1261.54
1363.27
1957.93
5184.1
5902.19
941.297
1740.06
3210.42
3972.07
4137.61
3733.67
3394.64
3255.88
3126.9
2763.19
2103.89
1533.48
1191.84
1034.3
974.444
961.603
970.668
987.645
1009.93
1037.69
1071.17
1110.73
1151.69
1187.24
1203.41
1136.45
806.04
555.437
426.537
308.827
997.404
2153.16
3810.32
4374.01
4191.82
3678.92
3314.31
3197.77
3150.04
3026.45
2487.89
1741.21
1285.18
1066.03
975.459
948.778
951.19
966.487
988.564
1016.22
1050.6
1092.45
1142.77
1193.45
1235.18
1241.48
1077.15
626.593
426.004
303.523
1088.84
2608.65
4223.83
4487.55
4025.49
3492.81
3142.96
3048.59
3033.06
2920.1
2449.11
1760.8
1314.46
1076.03
968.008
931.051
927.654
941.733
964.166
991.058
1024.79
1065.95
1116
1170.3
1219.22
1240.6
1175.12
800.228
441.816
301.832
1218.59
3163.38
4575.33
4551.61
3885.78
3336.13
2971.15
2881.86
2915.93
2846.67
2508.04
1845.25
1368.28
1095.06
963.275
913.441
904.008
915.866
936.762
963.672
997.171
1036.53
1085.25
1138.24
1191.05
1225.38
1208.95
1012.21
516.894
304.114
1370.17
3636.84
4870.88
4514.33
3732
3153.71
2769.55
2695.41
2742.33
2694.93
2438.54
1854.59
1384.8
1097.94
953.326
894.468
880.779
889.278
909.066
935.517
967.468
1005.98
1051.22
1101.29
1151.67
1191.41
1199.05
1108.8
700.999
332.429
1574.87
4095.2
5083.79
4400.4
3536.88
2934.5
2582.93
2539.71
2620.98
2561.24
2341.63
1813.41
1378.11
1092.18
938.403
874.441
858.127
864.225
882.503
908.539
939.112
975.214
1016.53
1061.93
1106.3
1143.83
1161.46
1131.82
896.979
472.345
1808.53
4598.01
5283.64
4292.08
3326.96
2699.32
2392.84
2388.02
2501.59
2434.06
2227.62
1749.11
1351.95
1070.8
917.307
853.141
834.019
840.641
858.798
883.41
912.615
945.544
982.187
1022.19
1059.85
1093.97
1116.67
1126.26
1077.27
658.412
2071.25
5128.71
5429.23
4155.43
3120.26
2522.05
2257.83
2267.42
2389.85
2319.77
2110.68
1688.09
1307.92
1038.1
894.515
833.13
811.859
817.363
836.418
862.275
889.368
919.072
950.862
985.407
1019.34
1053.45
1087.66
1162.29
1311.68
726.28
2350.86
5634.65
5499.7
4005.6
2938.94
2390.23
2167.16
2185.19
2306.5
2233.61
2011.47
1627.07
1253.75
1001.4
869.399
811.835
792.896
798.226
817.503
843.183
870.571
897.963
925.94
955.798
987.911
1026.87
1092.8
1277.5
1405.65
762.107
2647.48
6092.4
5509.68
3854.02
2803.21
2301.04
2112.12
2129.51
2247.95
2180.54
1950.67
1553.49
1188.79
960.044
845.241
793.069
777.95
784.095
804.012
829.316
856.349
882.212
907.662
934.303
967.263
1019.06
1150.37
1441.09
1393.5
781.352
2976.41
6495.32
5465.94
3718.71
2726.55
2254.94
2068.97
2067.4
2182.23
2128.29
1906.62
1459.46
1117.99
917.61
824.35
780.339
768.972
777.261
797.589
821.682
847.4
871.805
894.927
920.525
957.449
1036.36
1253.4
1478.79
1366.32
794.226
3354.08
6804.47
5404.86
3647.32
2698.01
2231.58
2024.55
1992.25
2088.09
2035.24
1785.83
1344.88
1043.54
884.256
809.86
774.89
767.095
776.996
796.851
820.383
843.839
865.854
887.242
913.548
960.913
1091.56
1400.61
1471.49
1330.98
795.422
3751.57
7057.71
5383.88
3624.22
2692.74
2222.74
1986.86
1908.98
1944.78
1868.13
1585.73
1229.85
982.464
863.839
806.563
778.133
773.823
784.965
802.735
823.801
844.425
863.64
883.266
912.939
983.867
1185.72
1442.69
1437.51
1262.02
782.154
4121.94
7322.9
5416.97
3648.41
2727.69
2242.91
1971.93
1825.73
1788.04
1664.03
1391.68
1141.08
950.592
860.453
816.1
791.332
788.664
797.937
812.223
829.022
845.862
861.548
880.357
917.783
1037.15
1317.47
1419.34
1360.87
1174.17
763.445
4465.95
7591.65
5506.27
3729.1
2810.12
2296.28
1985.18
1778.14
1661.02
1499.85
1272.03
1099.6
955.516
875.278
836.978
812.846
809.782
814.355
822.455
833.695
845.676
857.72
877.628
934.004
1117.54
1333.03
1360.23
1274.85
1094.49
747.465
4797.28
7898.18
5671.9
3875.28
2943.08
2408.54
2058.52
1785.19
1598.07
1417.27
1238.64
1108.46
987.59
906.062
866.08
840.99
834.965
832.155
832.542
837.012
843.517
853.124
878.62
975.052
1223.11
1297.02
1290.02
1193.84
1034.19
736.79
5150.29
8266.98
5918.47
4096.46
3140.07
2592.6
2225.45
1906.64
1664.88
1467.64
1303.44
1172.24
1045.56
957.728
904.171
878.483
863.248
851.057
842.567
839.749
840.927
850.816
892.861
1047.84
1250.44
1248.7
1220.62
1129.14
990.771
728.519
5504.26
8688.82
6265.65
4402.98
3413.23
2856.08
2495.07
2156.26
1875.04
1647.32
1460.36
1297.74
1146.63
1039.39
960.863
926.306
895.526
872.183
854.172
844.18
841.489
856.622
933.099
1149.03
1224.56
1202
1161.54
1081.87
958.295
723.155
5822.4
9192.89
6730.08
4808.68
3777.48
3211.9
2865.39
2525.72
2215.89
1947.88
1716
1504.97
1311.56
1165.48
1046.46
987.432
934.461
897.429
870.324
853.489
850.176
879.089
1008.61
1193.11
1189.28
1157.55
1116.1
1047.05
931.544
723.081
6163.74
9805.59
7314.42
5324.19
4246.83
3674.87
3336.44
3014.13
2692.52
2390.45
2104.93
1833.03
1571
1357.59
1171.89
1067.04
985.154
932.22
895.283
871.771
871.917
931.102
1118.6
1187.13
1160.9
1119.32
1081.67
1020.12
907.233
722.287
6742.29
10353.3
7987.62
5956.45
4829.15
4242.58
3895.28
3603.42
3295.4
2984.18
2648.37
2305.56
1952.95
1645.35
1353.45
1180.04
1060.67
986.2
934.287
904.241
915.868
1024.97
1180.52
1169.26
1135.54
1089.64
1056.91
996.736
885.018
722.182
7164.79
11129.4
8781.49
6738.41
5554.38
4917.35
4524.47
4247.84
3979.41
3688.93
3325.76
2916.68
2496.05
2062.69
1629.15
1356.1
1180.18
1068.81
993.877
959.066
997.741
1157.08
1194.43
1154.39
1109.41
1069.05
1038.25
976.66
862.658
719.681
7578.15
11656.1
9538.63
7698.16
6467.88
5731.03
5239.75
4909.27
4677.75
4429.2
4082.29
3674.21
3204.64
2646.38
2059.7
1628.01
1361.54
1191.65
1084.16
1049.95
1131.65
1224.8
1193.74
1137.7
1087.2
1054.76
1022.5
957.315
841.233
717.182
7869.25
12271
10660.7
9095.99
7730.47
6800.16
6124.17
5664
5385.9
5156.67
4869.03
4518.88
4047.63
3407.28
2696.75
2037.77
1633.31
1378
1227.87
1202.98
1285.12
1254.72
1189.73
1112.91
1071.96
1043.15
1007.11
938.073
821.281
712.474
7845.41
13371.3
12901.1
11369
9575.59
8270.18
7288.98
6635.78
6214.8
5919.07
5677.34
5396.1
4961.45
4324.14
3544.01
2664.31
2054.35
1676.81
1471.63
1431.75
1366.32
1269.26
1176.17
1093.2
1058.83
1032.32
991.236
917.604
800.795
708.222
308.314
426.672
556.232
800.928
1119.83
1188.83
1175.49
1143.23
1104.29
1065.35
1031.47
1003.76
982.325
966.954
960.228
976.647
1045.9
1222.64
1597.99
2205.43
2869.64
3199.84
3308.9
3449.69
3818.04
4236.37
4093.5
3322.55
1796.6
960.588
302.91
426.073
624.932
1064.11
1226.11
1222.42
1183.4
1134.24
1086.19
1044.87
1010.42
982.982
962.284
948.966
948.399
980.423
1082.52
1325.14
1820.61
2600.65
3094.95
3203.82
3243.87
3368.46
3760.27
4292.84
4494.53
3927.62
2227.91
1020.14
301.195
441.336
793.627
1165.22
1231.33
1211.17
1164.1
1112.73
1062.21
1019.46
986.066
960.369
939.758
927.653
932.124
974.768
1094.54
1354.91
1833.01
2555.51
2987.73
3083.39
3093.08
3203.25
3579.82
4132.36
4621.16
4361.43
2703.93
1113.89
303.085
513.539
1006.27
1202.98
1220.65
1186.96
1135.3
1082.59
1035.13
995.924
962.194
935.547
914.17
904.817
916.762
972.713
1117.02
1413.7
1919.95
2594.07
2904.18
2950.89
2920.25
3029.48
3414.2
3991.41
4685.62
4717.22
3259.67
1247
327.788
695.778
1106.57
1197.89
1189.52
1149.11
1098.68
1048.99
1004.74
967.15
934.507
908.364
888.502
881.938
899.676
964.89
1122.49
1431.85
1926.15
2512.86
2747.3
2779.57
2731.42
2822.6
3222.08
3828.89
4644.99
5011.43
3729.95
1404.09
445.753
892.848
1133.13
1162.76
1142.64
1103.78
1059.68
1014.5
973.956
938.63
908.115
882.263
863.634
859.936
881.033
952.049
1118.85
1424.7
1881.38
2406.33
2610.44
2657.2
2569.32
2627.01
2995.36
3622.75
4528.32
5235.22
4198.22
1614.61
656.217
1064.63
1126.48
1117.26
1092.96
1058.05
1020.33
980.581
944.31
911.659
882.282
857.235
839.647
836.402
860.395
931.963
1097.57
1397.26
1810.37
2285.2
2482.11
2538.69
2413.92
2429.5
2754.49
3407.51
4418.91
5447.89
4721.15
1852.37
727.732
1303.82
1157.45
1086.64
1052.26
1017.37
983.409
949.088
917.425
887.441
859.177
834.588
817.714
814.26
838.919
908.139
1064.73
1352.92
1745.96
2166.18
2369.88
2430.82
2294.76
2294.66
2575.76
3197.06
4279.14
5597.22
5265.88
2118.51
764.754
1413.75
1268.4
1087.91
1023.8
984.505
952.335
922.727
894.942
867.356
840.328
815.903
798.83
795.162
818.238
882.653
1027.05
1299.07
1682.71
2069.08
2287.05
2351.02
2215.24
2203.7
2440.88
3011.77
4125.92
5670.71
5789.31
2401.5
785.565
1400.14
1431.61
1140.68
1013.32
962.115
929.553
903.269
878.36
852.89
826.794
802.12
784.388
780.39
800.198
858.327
982.77
1233.1
1609.99
2011.05
2234.17
2287.66
2161.36
2148.61
2349.21
2874.29
3973.22
5684.59
6257.76
2702.39
800.364
1370.22
1474.49
1241.24
1027.82
951.481
915.204
889.764
866.99
843.433
818.639
794.8
776.77
770.975
786.544
836.916
937.425
1156.68
1517.5
1964.78
2178.08
2213.98
2098.67
2106.7
2305.53
2797.84
3836.37
5643.98
6672.58
3037.4
802.84
1333.98
1466.74
1387.41
1080.96
953.981
907.379
881.003
860.01
838.725
816.343
794.731
776.753
769.011
779.669
819.761
900.899
1074.78
1403.21
1840.21
2078.46
2111.78
2020.87
2063.49
2284.76
2767.7
3762.36
5583.13
6994.45
3424.24
789.226
1267.59
1432.83
1434.7
1174.12
975.038
905.877
876.086
856.454
837.932
818.478
799.679
783.576
775.064
781.811
813.388
875.646
1004.78
1277.22
1635.34
1903.17
1966.87
1936.51
2027.34
2277.07
2763.6
3741.16
5568.25
7257.53
3828.92
769.674
1183.21
1359.09
1410.23
1306.97
1026.09
910.548
873.29
854.026
838.732
823.119
808.315
796.217
789.411
794.133
820.889
867.831
966.355
1171.66
1428.6
1690.43
1807.65
1853.79
2013.56
2298.15
2800.1
3766.47
5604.72
7533.13
4206.8
754.028
1104.32
1273.79
1350.06
1328.73
1105.66
925.669
871.448
851.19
838.926
827.861
818.285
812.18
810.25
815.089
840.378
880.24
966.313
1118.61
1297.23
1521.89
1680.6
1808.18
2028.23
2353.59
2885.75
3849.86
5703.99
7816.64
4554.22
742.869
1042
1194.24
1283.47
1292.09
1210.48
962.828
872.465
847.717
837.853
831.706
828.522
829.918
835.292
843.929
868.746
910.66
995.652
1120.78
1256.48
1437.11
1619.88
1818.99
2105.07
2469.18
3022.06
4000.15
5881.6
8141.36
4889.6
734.38
995.365
1130.24
1220.06
1243.15
1246.11
1031.67
884.896
845.895
836.556
835.473
839.431
849.431
863.971
882.751
908.42
963.618
1053.5
1182.42
1319.4
1486.71
1690.13
1945.45
2276.79
2657.89
3223.63
4226.29
6142.55
8532.55
5247.45
727.664
960.279
1083.15
1161.07
1196.19
1222.99
1129.74
920.662
851.074
837.622
841.301
852.747
872.379
897.884
933.192
968.19
1047.85
1158.33
1312.25
1481
1672.12
1905.86
2199.94
2549.86
2925.64
3501.39
4537.85
6501.92
8980.83
5609.15
725.256
934.41
1048.66
1117.54
1158.34
1187.92
1187.16
992.404
871.585
846.477
852.577
871.551
901.188
941.413
999.491
1059.95
1180.32
1331.31
1528.82
1748.07
1985.9
2257.74
2576.77
2926.16
3287.38
3874.17
4952.51
6982.48
9507.73
5932.57
724.99
913.097
1022.65
1083.26
1120.96
1157.73
1187.41
1100.31
919.911
868.441
873.04
899.99
940.527
999.046
1088.48
1196.47
1385.06
1605.35
1870.89
2154.64
2448.4
2752.63
3079.4
3410.12
3761.02
4354.38
5475.4
7585.88
10156
6276.64
726.435
891.909
1000.12
1059.13
1093.95
1137.99
1172.35
1178.16
1010.92
911.251
907.021
942.859
999.738
1083.23
1214.41
1398.16
1695.43
2013.26
2353.71
2720.32
3066.79
3380.88
3688.19
3986.28
4345.33
4953.74
6110.62
8271.6
10731.8
6872.89
725.991
870.773
980.541
1041.06
1073.87
1118.61
1159.35
1199.02
1146.11
990.717
962.949
1007.26
1090.69
1214.93
1409.51
1705.94
2148.36
2592.45
3009.83
3423.55
3796.65
4094.42
4355.28
4634.22
5038.03
5697.48
6909.28
9071.54
11528
7315.6
722.907
849.818
962.112
1026.35
1060.03
1097.69
1146.4
1202.58
1231.66
1123.47
1056.78
1105.57
1227.87
1417.51
1713.39
2183.97
2779.08
3348.53
3816.57
4215.64
4563.34
4825.18
5045.11
5372.18
5874.32
6637.05
7898.17
9831.92
12049.8
7761.77
718.965
830.716
944.176
1012.67
1049.51
1080.26
1124.64
1202.15
1269.05
1297.16
1216.18
1261.91
1436.54
1724.02
2176.6
2881.53
3596.2
4237.92
4702.09
5044.85
5322.26
5564.27
5831.58
6282.22
6971.45
7932.45
9326.76
10966.4
12678.9
8049.96
714.426
810.155
925.694
998.243
1040.15
1068.17
1104.17
1193.44
1289.93
1393.3
1462.92
1524.68
1769.47
2198.95
2881.08
3796.1
4577.12
5202.49
5626.86
5890
6115.87
6419.88
6840.23
7479.22
8475.47
9822.08
11642.5
13229.7
13775.7
8020.2
1317.09
1290.1
1239.61
1218.63
1188.06
1163.1
1135.5
1109.83
1085.16
1071.03
1078.91
1103.89
1141.93
1183.38
1234.02
1293.21
1369.71
1467.05
1590.47
1741.67
1923.05
2129.65
2341.67
2552.54
2747.61
2915.2
3046.48
3134.71
3183.76
3192.91
3167.07
3105.12
3014.86
2911.67
2803.04
2693.05
2583.28
2472.5
2357.37
2236.82
2113.16
1989.33
1869.78
1756.71
1652.93
1564.62
1486
1412.62
1339.39
1266.48
1194.7
1125.03
1058.29
993.9
933.136
876.483
823.513
774.128
727.721
685.472
648.493
617.106
590.494
568.383
549.695
533.953
521.192
510.955
502.641
495.633
489.521
484.174
479.591
475.669
472.233
469.212
466.643
464.632
463.244
462.497
462.366
462.771
463.683
465.135
467.069
469.291
471.541
473.612
475.414
476.954
478.281
479.442
480.517
481.629
482.827
484.043
485.259
486.49
487.896
489.833
491.811
494.8
498.292
502.168
506.516
511.332
517.578
524.077
531.859
541.449
552.277
563.764
576.417
589.995
603.079
614.418
627.019
641.647
659.536
676.653
686.819
692.714
698.806
704.291
709.557
4538.36
4388.3
4111.98
4003.32
3901.66
3808.13
3714.36
3603.8
3482.78
3410.68
3430.18
3498.83
3592.69
3722.15
3894.23
4098.09
4389.83
4799.31
5361.23
6098.81
6978.07
7994.28
9052.63
10130.2
11122.4
11963.9
12614.6
13057.4
13300.7
13362.6
13284.6
13076.8
12772.9
12410
12011.1
11581.7
11123.5
10636.4
10119.1
9572.29
9008.81
8442.58
7891.67
7365.3
6871.76
6413.27
5969.36
5542.3
5126.43
4712.06
4310.49
3922.2
3548.76
3189.1
2851.24
2539.38
2258.07
2005.95
1785.11
1594.77
1432.79
1297.97
1184.5
1088.37
1008.87
944.232
892.768
851.526
817.529
788.216
761.854
737.724
715.686
695.786
677.876
661.788
647.376
634.559
623.29
613.499
604.872
597.302
590.608
584.676
579.393
574.549
569.883
565.182
560.336
555.354
550.295
545.244
540.303
535.648
531.357
527.405
523.723
520.224
517.096
514.655
512.418
511.291
511.015
511.742
513.712
516.474
520.417
524.852
530.723
538.573
548.248
559.958
572.939
586.194
601.472
619.609
639.967
661.681
684.111
705.122
723.604
741.141
757.827
773.934
791.235
15588.4
15321.1
14681.1
14441.5
14333.4
14176.6
14001.7
13706.2
13334.5
12945.7
12547.8
12207.6
11894.8
11622.1
11490.3
11438.8
11565.4
11919.8
12560
13573.6
14905.5
16519.3
18204.6
19841.3
21313.4
22514
23418.9
24037.8
24377.6
24466.1
24357.1
24076.1
23656.4
23130
22535.2
21884
21177
20413.7
19587.6
18696.3
17752.8
16775.5
15784.4
14795.6
13822.2
12871.9
11935.4
11014.9
10118.1
9252.86
8425.05
7652.4
6932.23
6257.99
5631.76
5043.96
4490.97
3973.17
3494.98
3059.48
2673.68
2343.85
2069.38
1843.64
1660.02
1512
1394.57
1299.61
1219.72
1150.37
1089.18
1034.93
987.182
945.87
910.317
879.833
853.863
831.749
812.641
795.566
780.15
766.136
753.363
741.573
730.469
719.75
709.096
698.266
687.197
676.003
664.856
653.939
643.473
633.704
624.817
616.702
609.187
602.05
595.776
590.53
586.194
583.602
582.581
582.841
584.576
588.128
593.251
600.678
609.72
620.972
634.924
650.791
667.574
684.97
704.129
724.592
746.038
766.513
784.524
801.885
820.586
839.037
862.834
884.256
905.738
42035.1
41881.4
41069.8
40815.9
40712.4
40465.3
39977.3
39168.2
37892.9
35979.7
33983.4
32041.2
30136.9
28324.3
26800.4
25652.8
24992
24905.7
25464.3
26718.4
28571.2
30818.5
33169.8
35401.2
37334.6
38863.9
39965
40671.7
41041.5
41133.8
41012.3
40718.3
40289.8
39758.4
39139.1
38431.2
37626.2
36710.7
35664.5
34479
33165.1
31741.7
30229.4
28642.7
26988.6
25265.8
23475.4
21635.7
19774.3
17922.7
16115.1
14388.9
12772.6
11289
9953.41
8765.69
7713.99
6784.1
5968.89
5259.5
4637.08
4078.19
3575.06
3136.99
2767.02
2459.21
2211.07
2015.81
1858.87
1727.57
1614.28
1515.8
1431.19
1358.94
1297.29
1244.99
1201.58
1166.25
1136.41
1110.18
1085.99
1062.64
1039.6
1016.57
993.236
969.3
944.58
919.046
892.875
866.54
840.668
815.82
792.471
770.918
751.366
733.82
718.037
703.808
691.35
680.833
672.358
665.879
661.781
659.582
659.329
661.332
665.995
673.851
684.041
696.798
711.926
727.3
742.673
758.535
775.892
795.3
816.656
838.943
859.851
878.216
900.195
922.694
944.928
965.447
983.096
79904.3
80380.5
80105
80112.7
79969.9
79444.8
78396.4
76774.5
74573.9
71815.5
68317.4
64378.5
60401.5
56863.2
53890.3
51621.7
50197.4
49752.5
50294.3
51708.1
53737.9
56032.3
58265.7
60247.6
61857.2
63058.7
63876.3
64372.4
64620.1
64680.7
64609.2
64439.5
64189.2
63859.5
63433.9
62897.8
62207.6
61315.2
60193.3
58833.3
57247.8
55458.6
53486
51337.8
49010.4
46496.9
43799.2
40937.5
37947
34873.1
31768.5
28691.2
25695.8
22831.8
20144.8
17666.5
15409.5
13380.2
11588.8
10033.4
8692.9
7535.53
6527.49
5646.57
4884.04
4250.18
3744.41
3353.98
3057.86
2837.16
2661.97
2519.13
2402.85
2307.8
2229.08
2162.99
2105.24
2051.6
2001.95
1955.42
1910.16
1863.88
1814.47
1760.32
1700.36
1634.36
1562.56
1486.03
1406.71
1326.69
1248.29
1173.7
1104.62
1042.17
986.941
938.874
897.268
861.265
830.389
804.668
783.365
767.095
754.764
745.875
740.376
738.26
740.365
745.658
754.328
765.202
776.742
789.053
803.443
820.321
839.59
860.556
882.297
904.031
925.963
949.117
971.971
991.662
1007.52
1019.98
1030.7
115234
116466
116916
117177
116922
115958
114244
111821
108764
105201
101298
97302.4
93332.8
89477.9
86218.6
83615.5
81985.7
81478.3
81969
83233.3
84929.3
86698.3
88268.1
89565.5
90577.4
91334.3
91891.2
92312.5
92649
92943.2
93213.8
93456.3
93644.8
93734.9
93680.2
93429.4
92921.7
92107.9
90961.1
89482.8
87696.5
85635.5
83326.2
80777.3
77983.3
74941.5
71681.2
68209.2
64543.1
60724.8
56806.9
52845.8
48896.4
45029.1
41301.8
37741.8
34353.9
31143.7
28123.2
25293.9
22637
20121.3
17718.3
15426.3
13290.9
11414.1
9815.32
8500.79
7450.08
6615.91
5984.54
5522.35
5192.46
4958.72
4785.65
4644.8
4517.2
4394.07
4270.68
4145.08
4015.76
3881.85
3742.69
3597.59
3444.37
3280.38
3105.4
2918.97
2722.32
2520.02
2315.98
2115.94
1925.01
1747.89
1587.61
1445.48
1321.82
1216.35
1127.76
1054.4
994.605
947.509
910.795
882.681
862.216
848.628
841.198
838.722
841.547
845.76
852.184
861.455
874.099
890.41
909.934
930.918
952.333
973.926
995.754
1016.17
1031.99
1041.29
1046.32
1051.65
1059.26
142945
144424
144913
144944
144165
142429
140030
136780
132845
128475
123977
119757
116192
113546
112039
110607
109922
110134
111189
112691
114264
115673
116853
117841
118693
119474
120237
121025
121856
122724
123601
124433
125149
125670
125899
125813
125362
124514
123266
121642
119692
117472
115028
112387
109586
106613
103403
99981.9
96402.2
92719.1
88983.9
85238.9
81508.3
77856.4
74342.8
70925.2
67578.9
64280.8
61009.6
57737.2
54455
51102.1
47628.9
44010.9
40259
36425.9
32641.7
29019.8
25651.3
22621.1
20093.1
17971.6
16191.8
14706.1
13460.1
12403.2
11494.5
10701.5
9998.81
9366.15
8788
8254.21
7756.58
7287.26
6841.88
6414.84
5998.37
5589.01
5183.41
4785.98
4395.52
4012.03
3639.21
3281.63
2945.29
2633.36
2346.23
2086.69
1858.47
1662.53
1497.5
1362.79
1255.06
1169.04
1103.19
1054.87
1020.05
996.402
979.33
968.302
962.648
962.524
967.981
978.615
993.213
1010.4
1029.04
1045.31
1056.84
1061.16
1060.21
1059.92
1063.56
1073.37
1089.71
162087
163466
163548
163005
161584
159123
155645
151458
146669
141674
136936
132900
130009
128479
128502
129002
130371
132383
134586
136711
138567
140137
141531
142867
144216
145625
147114
148676
150279
151869
153374
154702
155767
156498
156843
156726
156205
155257
153906
152226
150307
148228
146061
143839
141445
138873
136173
133387
130572
127779
125051
122407
119854
117385
114968
112559
110108
107566
104876
101928
98805.8
95410.8
91684.7
87599.4
83150.8
78428.7
73453.7
68287.2
63012.8
57734.4
52495
47412.8
42651.9
38467.3
34768.8
31473.5
28501.6
25822.3
23412.6
21246.2
19294.3
17536.9
15957.8