/*--------------------------------*- C++ -*----------------------------------*\
| =========                 |                                                 |
| \\      /  F ield         | OpenFOAM: The Open Source CFD Toolbox           |
|  \\    /   O peration     | Version:  2112                                  |
|   \\  /    A nd           | Website:  www.openfoam.com                      |
|    \\/     M anipulation  |                                                 |
\*---------------------------------------------------------------------------*/
FoamFile
{
    version     2.0;
    format      ascii;
    arch        "LSB;label=32;scalar=64";
    class       volScalarField;
    location    "0.00435";
    object      nut;
}
// * * * * * * * * * * * * * * * * * * * * * * * * * * * * * * * * * * * * * //

dimensions      [0 2 -1 0 0 0 0];

internalField   nonuniform List<scalar> 
13875
(
0.051167
0.0366265
0.0343729
0.0343285
0.0342655
0.0343211
0.0342989
0.0343206
0.0343156
0.0342875
0.0342699
0.0342885
0.0343229
0.0343438
0.0343343
0.0342856
0.0342476
0.0342935
0.0343117
0.0343452
0.0342797
0.0343312
0.034384
0.0365576
0.0514327
0.0532623
0.0341211
0.0322294
0.032104
0.0320243
0.0320584
0.0320291
0.0320481
0.0320439
0.0320126
0.0320207
0.0320436
0.0320576
0.0320769
0.0320651
0.0320382
0.0319786
0.0320386
0.0320528
0.0320867
0.0320359
0.0320969
0.0322289
0.0340456
0.0536494
0.0564578
0.0335631
0.0318093
0.0315865
0.0315148
0.031546
0.0315121
0.0315266
0.0315148
0.0314262
0.031433
0.0314693
0.0315377
0.0315629
0.0315408
0.0314638
0.0313888
0.0314698
0.0315349
0.031582
0.0315325
0.0315718
0.0317933
0.0334916
0.0566074
0.0590721
0.0332342
0.0314956
0.0312696
0.0312082
0.0312348
0.0311987
0.0312099
0.0311952
0.0310992
0.0310895
0.0311294
0.0312214
0.031247
0.0312247
0.0311239
0.031062
0.0311361
0.0312188
0.0312685
0.0312248
0.031254
0.0314832
0.0331713
0.0591515
0.0611279
0.0330054
0.0312521
0.0309949
0.0309312
0.0309527
0.0309167
0.0309236
0.0309052
0.0308128
0.0308012
0.0308406
0.0309351
0.0309617
0.0309383
0.0308344
0.0307772
0.0308466
0.030933
0.0309861
0.0309477
0.0309811
0.0312288
0.0329234
0.0612598
0.0628208
0.0328494
0.0310943
0.0307623
0.0306975
0.0307081
0.0306681
0.0306675
0.0306438
0.0305555
0.0305397
0.0305777
0.0306776
0.0307057
0.0306812
0.0305716
0.0305213
0.0305855
0.0306796
0.0307436
0.0307161
0.0307534
0.0310572
0.0328259
0.0629661
0.064829
0.0330737
0.0311084
0.0306233
0.0305151
0.0305043
0.0304535
0.0304432
0.030413
0.0303293
0.030307
0.0303438
0.0304512
0.0304806
0.0304524
0.0303372
0.0302981
0.030359
0.0304638
0.0305387
0.0305369
0.0306267
0.0311136
0.0330734
0.0648573
0.0670981
0.0339388
0.03143
0.0306437
0.0304382
0.0303721
0.030295
0.0302646
0.0302238
0.0301426
0.0301116
0.0301429
0.0302615
0.0302957
0.0302641
0.0301395
0.0301141
0.0301739
0.030294
0.0304014
0.0304533
0.0306334
0.0313913
0.0338943
0.0673503
0.0736477
0.0362949
0.0320482
0.0308479
0.0304483
0.0303189
0.0302074
0.0301497
0.030093
0.0300111
0.0299731
0.0299984
0.0301296
0.0301702
0.030136
0.030003
0.0299878
0.0300466
0.0301853
0.0303402
0.0304678
0.030812
0.0319434
0.0360116
0.0742028
0.0828862
0.0384801
0.0327422
0.0311701
0.0306305
0.0303795
0.0302266
0.0301366
0.0300607
0.0299805
0.0299426
0.0299621
0.0301014
0.0301488
0.0301148
0.0299898
0.029972
0.0300284
0.0301697
0.0303767
0.0306324
0.0311393
0.0326415
0.0381144
0.0835057
0.0907093
0.0441614
0.0346974
0.0321061
0.0310439
0.0306475
0.0304287
0.0302961
0.0301996
0.0301208
0.0300853
0.0300988
0.0302401
0.0302932
0.0302674
0.0301677
0.0301408
0.0301936
0.0303419
0.0305911
0.0310208
0.0320426
0.0344843
0.0433531
0.0893996
0.0949282
0.0548349
0.0407268
0.0337576
0.032318
0.0314377
0.0310102
0.0308011
0.0306698
0.0305881
0.0305549
0.0305677
0.0306948
0.0307547
0.0307438
0.0306807
0.0306592
0.0307278
0.0309172
0.0313687
0.032192
0.0335051
0.0401744
0.0536439
0.0942349
0.0865947
0.0676607
0.0537832
0.0427317
0.0354044
0.0331131
0.0324193
0.0321803
0.0320081
0.031915
0.031885
0.0319034
0.0320052
0.0320665
0.0320747
0.0320517
0.0320658
0.0321874
0.032423
0.0330717
0.0357654
0.0425563
0.0524083
0.067229
0.086613
0.0795737
0.0655132
0.0595321
0.0698105
0.0451645
0.0402414
0.0371284
0.0358249
0.0353432
0.0351625
0.0350964
0.0351167
0.0351954
0.0352615
0.0352935
0.0353333
0.0354658
0.0359321
0.0373349
0.0410174
0.0468174
0.0688471
0.0586568
0.0655684
0.0817368
0.0755891
0.0646932
0.058237
0.0645949
0.0572633
0.0557588
0.0525486
0.0478722
0.0472217
0.047015
0.046914
0.0468997
0.046997
0.0470882
0.0471348
0.0471722
0.0473035
0.0478943
0.0529189
0.0573538
0.0571755
0.0645574
0.0576417
0.0643617
0.0751276
0.0681463
0.0633607
0.0584395
0.0647054
0.0633986
0.0675434
0.0649441
0.0645864
0.0682457
0.0707491
0.0711728
0.0712298
0.0714812
0.0718151
0.0715471
0.071031
0.0681214
0.0643851
0.0640914
0.0685074
0.0635631
0.0651092
0.0578147
0.0626434
0.0675485
0.0650625
0.0633741
0.0608674
0.0664694
0.065867
0.0703792
0.0697081
0.0685569
0.0662985
0.0663274
0.0666576
0.0667421
0.0669932
0.0672285
0.0670944
0.0667256
0.0666713
0.0686531
0.0680605
0.070814
0.0666715
0.0674029
0.0602855
0.0622745
0.0649586
0.0607314
0.0642108
0.065838
0.066333
0.0640456
0.0701887
0.0703378
0.069524
0.0667747
0.0646908
0.0640854
0.0638956
0.0641422
0.0643892
0.0646182
0.0651758
0.0670405
0.0692704
0.0682891
0.0691969
0.0646508
0.0677558
0.0663347
0.0636423
0.0603585
0.054083
0.0657162
0.0686014
0.0665372
0.0629027
0.0655959
0.0674568
0.0687889
0.0675073
0.0646676
0.0626659
0.0617338
0.0617719
0.0621234
0.0629218
0.0645503
0.0671998
0.0681835
0.0658462
0.0650367
0.0632961
0.0674376
0.0690223
0.0662524
0.0547357
0.0513394
0.0694495
0.0685937
0.0651237
0.0614731
0.0623544
0.0645632
0.0670497
0.0673121
0.0645146
0.0614715
0.0597774
0.0595697
0.060198
0.0617283
0.0643149
0.0667795
0.0662086
0.0634365
0.0622748
0.0622893
0.0660725
0.068744
0.0693935
0.0506864
0.0622764
0.0671771
0.0648704
0.0622345
0.0593149
0.059842
0.0620013
0.0649797
0.0661108
0.0635653
0.0599796
0.0577254
0.0573423
0.0582537
0.0603784
0.063447
0.065481
0.0640628
0.0612077
0.0601367
0.0603959
0.06328
0.065214
0.0670009
0.0607827
0.081797
0.0737881
0.0623644
0.0596756
0.0572404
0.0578238
0.059727
0.0628724
0.064477
0.0620921
0.058214
0.0556167
0.0550619
0.0561389
0.0586063
0.0619607
0.0637841
0.061933
0.0590912
0.058283
0.058401
0.0606926
0.0627787
0.0752501
0.0821692
0.0954161
0.0794278
0.0606199
0.0571022
0.0552875
0.0558544
0.0575761
0.0608393
0.0626302
0.0603132
0.0562748
0.0534866
0.0527993
0.0538893
0.0565198
0.0600966
0.061928
0.0599152
0.0568868
0.0562194
0.0563451
0.0579697
0.0608391
0.080919
0.096962
0.10518
0.0810885
0.0586989
0.0549827
0.0534032
0.0537475
0.0555495
0.0589323
0.0607275
0.0582015
0.0540836
0.0513187
0.0506278
0.0517334
0.054383
0.0580664
0.0600653
0.058007
0.0548039
0.0540716
0.0544191
0.0559459
0.0592123
0.0813029
0.105402
0.111244
0.0822977
0.0574236
0.0535035
0.0517541
0.0519352
0.0538144
0.0570835
0.0587304
0.0561266
0.0519876
0.0492747
0.0486077
0.0496744
0.0522996
0.0560749
0.058145
0.0561795
0.053041
0.0521223
0.0526174
0.0544174
0.0580568
0.083121
0.111916
0.118002
0.0842067
0.0567171
0.0524527
0.0503968
0.0504831
0.0523189
0.0553049
0.0566811
0.0540549
0.0500271
0.0473917
0.0467361
0.0477448
0.0502584
0.053935
0.056063
0.0544076
0.0515334
0.0504826
0.0509986
0.0531824
0.0571604
0.0834768
0.119781
0.125171
0.0839933
0.0562322
0.0514948
0.0493415
0.049288
0.050988
0.053571
0.0545415
0.0519208
0.0480934
0.0456373
0.0450325
0.0459942
0.0484133
0.0519892
0.05414
0.0527998
0.0502002
0.0491572
0.0497812
0.0521911
0.0567977
0.0842722
0.126472
0.131415
0.084201
0.0560538
0.0506709
0.0486118
0.048384
0.0498053
0.0519611
0.0525473
0.049959
0.0463662
0.0440637
0.0434771
0.0443868
0.0466557
0.0500091
0.0521744
0.0512549
0.0490421
0.0481205
0.0488777
0.0512305
0.0564962
0.0847838
0.13422
0.139099
0.0850726
0.0558891
0.0499789
0.0479801
0.0476773
0.0487627
0.0504767
0.0506968
0.0481621
0.0447875
0.0426277
0.0420595
0.0429016
0.0449858
0.048114
0.050283
0.0498022
0.048004
0.0472802
0.0480759
0.0503817
0.0562227
0.0849625
0.141025
0.145966
0.0858973
0.0558162
0.0493146
0.0473536
0.0470652
0.047832
0.0490128
0.0487886
0.0463212
0.0432625
0.0413022
0.0407715
0.0415953
0.0435523
0.0464535
0.0485917
0.0484951
0.0471249
0.0466254
0.0473682
0.049724
0.0564069
0.0868053
0.146158
0.149164
0.0866375
0.0561182
0.0489019
0.046793
0.0464438
0.0469618
0.0477231
0.047162
0.0447602
0.0419239
0.0401052
0.0395968
0.0403769
0.0421621
0.0448456
0.0469644
0.0472647
0.0463119
0.0459864
0.0467368
0.0492387
0.0566754
0.0880651
0.151309
0.152743
0.0880269
0.0566242
0.0488679
0.0462669
0.0458377
0.0461631
0.0465303
0.0456822
0.0433384
0.0407271
0.0390301
0.0385321
0.0392776
0.0409167
0.0433694
0.0454542
0.0461116
0.0455713
0.0453832
0.0461609
0.0491161
0.0573214
0.0885767
0.154619
0.156654
0.0881785
0.0574509
0.0490037
0.0458534
0.045218
0.0453504
0.0453586
0.0442774
0.0420078
0.0395903
0.0380319
0.0375595
0.0382869
0.0398127
0.0421167
0.0441728
0.0450493
0.0448376
0.0447821
0.0457056
0.0492758
0.0582788
0.0894739
0.157949
0.159158
0.0887225
0.0585076
0.0495127
0.0456059
0.0446696
0.0445643
0.0443095
0.0430429
0.0408404
0.038609
0.0371476
0.0366802
0.0373794
0.0387942
0.0409096
0.0429183
0.0440288
0.0441221
0.0442702
0.0454602
0.0497199
0.0593465
0.0896518
0.16138
0.161731
0.090018
0.0589411
0.0501994
0.0456191
0.0441627
0.0437839
0.0433277
0.0419559
0.0398315
0.0377153
0.0363409
0.0358794
0.0365494
0.0378678
0.0398719
0.0418185
0.0430605
0.0433801
0.0437928
0.0455218
0.0504782
0.0600065
0.0900149
0.163707
0.164585
0.0899632
0.0588276
0.0509454
0.0458949
0.0437696
0.0430656
0.0423635
0.0408947
0.0388419
0.0368888
0.0356057
0.0351568
0.0358217
0.0370726
0.0389447
0.0408353
0.0421915
0.0427302
0.0434551
0.0458424
0.051477
0.0602002
0.0907906
0.166189
0.166272
0.0904993
0.0588012
0.0522344
0.0463975
0.0435696
0.0424253
0.04149
0.0399728
0.0380153
0.0361553
0.0349335
0.0344924
0.0351389
0.0363137
0.0380942
0.0399026
0.0413231
0.0421432
0.0432822
0.0463776
0.0529127
0.0598687
0.0909261
0.168361
0.168274
0.0909882
0.0587912
0.0532594
0.0472741
0.0435843
0.0419518
0.0407358
0.0391357
0.0372297
0.0354883
0.0343274
0.0338927
0.0345283
0.0356315
0.0372876
0.0390534
0.0405716
0.0416786
0.0433776
0.0474175
0.0539938
0.0594964
0.0914003
0.169667
0.170249
0.0909512
0.058143
0.0533108
0.0482362
0.0437878
0.0416389
0.0400519
0.0383488
0.036506
0.034854
0.0337545
0.0333374
0.0339667
0.0350151
0.036606
0.0383186
0.0399244
0.0414067
0.0436612
0.0486313
0.0542374
0.0589547
0.0923678
0.17119
0.171393
0.0915836
0.0573934
0.0532829
0.0499263
0.0442953
0.0415474
0.0395417
0.0376855
0.0358619
0.034293
0.0332468
0.0328298
0.0334457
0.0344347
0.0359406
0.0376505
0.039442
0.0413355
0.0442809
0.0504575
0.0540256
0.0580662
0.0926609
0.172772
0.172643
0.0928072
0.0569739
0.0529866
0.0510745
0.0451318
0.0415863
0.0392564
0.0371612
0.0353132
0.0337827
0.0327718
0.0323591
0.0329543
0.0339062
0.0353728
0.0371137
0.0391496
0.0414098
0.0454212
0.0517537
0.0535335
0.0573792
0.093481
0.173729
0.173848
0.0936169
0.0563786
0.0523392
0.051167
0.0463736
0.0417935
0.0390907
0.036767
0.0348319
0.0333116
0.0323375
0.031928
0.0325251
0.0334452
0.0349194
0.0367552
0.0390339
0.0418339
0.0472908
0.0517086
0.0529062
0.0573668
0.0952336
0.174934
0.174365
0.094847
0.0562092
0.0516544
0.0508289
0.048171
0.0424928
0.0390691
0.0365891
0.0344734
0.0329142
0.0319378
0.0315274
0.032119
0.0330343
0.0345418
0.0365764
0.0390149
0.0427505
0.0489104
0.0512345
0.0521759
0.0569785
0.0961109
0.176014
0.174978
0.0967023
0.0567512
0.0511459
0.0502722
0.049067
0.0439173
0.0392591
0.0364909
0.0342659
0.032621
0.0315987
0.0311729
0.0317726
0.0327308
0.034328
0.0364937
0.0393086
0.0445434
0.049412
0.0504663
0.0515849
0.0571124
0.0973012
0.17668
0.175865
0.0974913
0.0567373
0.0506309
0.0495698
0.0487856
0.0460851
0.0398863
0.0364992
0.0342113
0.0324782
0.0313516
0.030892
0.0315277
0.0325752
0.0342868
0.0365897
0.0403445
0.0465665
0.0490274
0.0496495
0.0511774
0.0578739
0.0988811
0.17736
0.176192
0.098734
0.0574964
0.050356
0.048903
0.0483349
0.0473792
0.0415777
0.0367688
0.0342097
0.0324535
0.0312447
0.0307132
0.0314203
0.0325302
0.0342867
0.0369507
0.0421427
0.0472543
0.0484405
0.0489644
0.0508332
0.0582721
0.0996651
0.178111
0.176465
0.100252
0.0585675
0.0503226
0.0484009
0.0477496
0.0471114
0.0440266
0.0378174
0.0343349
0.0324466
0.0312144
0.0306348
0.0313921
0.0325256
0.03442
0.0381475
0.0444381
0.046987
0.0477878
0.0484568
0.0506986
0.0588465
0.100626
0.17826
0.176113
0.100761
0.0590579
0.0502794
0.0479729
0.0471215
0.046689
0.0453653
0.0399728
0.0347933
0.0324937
0.0312131
0.0306265
0.0313934
0.0326123
0.0350802
0.040627
0.0454182
0.046618
0.047243
0.0481184
0.0507986
0.0598272
0.101838
0.177557
0.174254
0.100922
0.0596289
0.0503324
0.0476683
0.0466111
0.0461344
0.0451934
0.0423558
0.036198
0.0327509
0.0312465
0.0306514
0.0314227
0.0329003
0.0366442
0.042719
0.0452276
0.0461073
0.0467967
0.0478794
0.0508183
0.0602237
0.101808
0.175721
0.168111
0.0995626
0.0601723
0.0503862
0.0474675
0.046226
0.0455794
0.04483
0.0433607
0.0387747
0.033664
0.0314356
0.0307829
0.0315977
0.0338907
0.0391545
0.0432681
0.0448594
0.0456096
0.0464497
0.047698
0.0507886
0.0604766
0.100034
0.169632
0.0816277
0.224932
0.302866
0.330538
0.339483
0.343705
0.348006
0.352617
0.358143
0.364405
0.370716
0.37685
0.382716
0.388582
0.394577
0.403887
0.440919
0.544283
0.594808
0.608849
0.614252
0.612771
0.610234
0.607618
0.603019
0.591894
0.566579
0.511104
0.394816
0.144392
0.0753786
0.232893
0.30945
0.334835
0.342969
0.347241
0.351741
0.356886
0.362978
0.369205
0.375628
0.381876
0.388081
0.394291
0.402292
0.42851
0.528441
0.605493
0.621478
0.626817
0.625665
0.620753
0.616467
0.612372
0.606014
0.592592
0.564404
0.505368
0.388097
0.144013
0.0785983
0.246653
0.316276
0.338178
0.345528
0.350182
0.355537
0.36141
0.367886
0.374572
0.381308
0.387807
0.394252
0.401606
0.418654
0.491375
0.601398
0.627362
0.632761
0.63352
0.628116
0.622971
0.619052
0.614675
0.607005
0.59122
0.559665
0.496139
0.375972
0.143416
0.0808955
0.254694
0.319578
0.340059
0.347583
0.3532
0.359265
0.365918
0.37315
0.380298
0.387402
0.394152
0.401209
0.413522
0.462838
0.5897
0.632998
0.640315
0.63961
0.635282
0.627833
0.621777
0.617717
0.612918
0.604023
0.586088
0.551406
0.484076
0.36242
0.14275
0.081146
0.257467
0.321683
0.34215
0.350375
0.356621
0.363657
0.371192
0.379036
0.386683
0.39412
0.401271
0.411022
0.44513
0.562954
0.635082
0.646995
0.646463
0.641562
0.634147
0.625512
0.619214
0.614443
0.608662
0.598159
0.577975
0.540503
0.470174
0.348309
0.142082
0.0815471
0.260733
0.324604
0.345228
0.353845
0.360947
0.368841
0.377113
0.385467
0.393558
0.401145
0.409826
0.435067
0.534571
0.633717
0.650806
0.650418
0.645998
0.639132
0.630793
0.621883
0.61553
0.609834
0.602807
0.590504
0.568194
0.528355
0.455965
0.335467
0.141215
0.0823219
0.264911
0.328376
0.348778
0.358033
0.365931
0.37452
0.383318
0.392048
0.400285
0.409045
0.430105
0.512132
0.626621
0.649288
0.649272
0.645098
0.639455
0.632453
0.624945
0.616116
0.609448
0.603066
0.594965
0.581239
0.557067
0.515165
0.441296
0.322532
0.14026
0.0834473
0.269758
0.332563
0.352934
0.362687
0.371187
0.380322
0.38958
0.399003
0.409128
0.429303
0.499978
0.611882
0.638521
0.639651
0.636371
0.632249
0.627216
0.621543
0.615655
0.60742
0.600243
0.593534
0.584595
0.569722
0.544017
0.500455
0.425948
0.309939
0.139182
0.0845606
0.274762
0.337138
0.357296
0.367344
0.37661
0.387133
0.399414
0.414157
0.435754
0.496791
0.586851
0.613516
0.617424
0.616502
0.614807
0.612149
0.609375
0.605753
0.602111
0.595211
0.587507
0.58072
0.571344
0.555614
0.528712
0.483855
0.409445
0.29721
0.137952
0.0854962
0.280011
0.341881
0.36159
0.372679
0.38592
0.404097
0.426692
0.457882
0.498053
0.547111
0.569553
0.578787
0.582494
0.584478
0.585179
0.585658
0.585792
0.584817
0.583975
0.579003
0.571213
0.564679
0.555137
0.538873
0.511078
0.465437
0.391995
0.284464
0.136528
0.0864192
0.285431
0.346632
0.367593
0.385966
0.411448
0.446566
0.472274
0.482864
0.494654
0.508499
0.521484
0.532588
0.540116
0.545257
0.549299
0.554164
0.557851
0.559806
0.561634
0.55908
0.551765
0.545654
0.536178
0.519579
0.49122
0.445396
0.373778
0.271611
0.134866
0.0874088
0.291391
0.353924
0.384654
0.421782
0.448705
0.446329
0.440189
0.435081
0.439657
0.451092
0.466877
0.482134
0.493196
0.501607
0.510564
0.519942
0.527062
0.531786
0.535879
0.536206
0.529917
0.524184
0.514907
0.498184
0.469573
0.424328
0.355262
0.258898
0.133007
0.0886813
0.300342
0.374144
0.425432
0.430076
0.410239
0.390205
0.377369
0.370897
0.377784
0.392178
0.411781
0.430909
0.445896
0.458338
0.471368
0.484216
0.494207
0.501535
0.507931
0.510984
0.506352
0.500948
0.492015
0.475412
0.447014
0.403046
0.337061
0.246824
0.131082
0.0913049
0.322741
0.417947
0.413317
0.377485
0.348395
0.328323
0.317655
0.313831
0.322575
0.338103
0.361018
0.384163
0.402798
0.417722
0.433253
0.448629
0.460928
0.470717
0.479229
0.484497
0.481652
0.476672
0.468227
0.451952
0.424361
0.382136
0.319566
0.235626
0.129135
0.103834
0.372294
0.405115
0.356467
0.321064
0.299264
0.285566
0.278052
0.275364
0.282323
0.296722
0.319392
0.344367
0.365179
0.381488
0.398411
0.415062
0.428994
0.440885
0.450961
0.457845
0.456547
0.452122
0.444249
0.428498
0.402069
0.36185
0.30296
0.225215
0.127169
0.147511
0.381778
0.348702
0.309744
0.290732
0.282339
0.275286
0.267905
0.261837
0.261994
0.270579
0.289098
0.312833
0.334128
0.351023
0.367866
0.384954
0.399797
0.413072
0.424077
0.431895
0.431788
0.427998
0.420696
0.405579
0.380458
0.342395
0.287337
0.215492
0.125188
0.175573
0.339455
0.312685
0.300441
0.302475
0.307501
0.30245
0.289301
0.273424
0.262134
0.26104
0.270917
0.289883
0.309309
0.326323
0.342568
0.359039
0.374262
0.387915
0.399377
0.4074
0.40795
0.404853
0.398006
0.383537
0.359769
0.323925
0.272696
0.206477
0.123205
0.191741
0.323509
0.325498
0.343135
0.36469
0.37746
0.366761
0.340195
0.308829
0.280559
0.265785
0.264412
0.27513
0.290835
0.3069
0.322223
0.337626
0.352332
0.365803
0.377271
0.384804
0.385542
0.383063
0.376442
0.362638
0.340226
0.306592
0.259082
0.198212
0.121248
0.208318
0.352018
0.400076
0.446288
0.47682
0.483276
0.461416
0.415552
0.362587
0.311827
0.280997
0.267084
0.268144
0.278473
0.292264
0.306222
0.320377
0.334064
0.346909
0.357762
0.364337
0.365054
0.362723
0.356209
0.343105
0.322026
0.290531
0.24655
0.190626
0.11934
0.227256
0.425868
0.53667
0.582739
0.609772
0.605583
0.570122
0.503727
0.426789
0.352207
0.301068
0.275766
0.266619
0.271833
0.281946
0.294133
0.307082
0.319213
0.330828
0.340701
0.34611
0.346586
0.344009
0.337512
0.32507
0.305233
0.275776
0.235085
0.18365
0.117495
0.247736
0.537962
0.679866
0.684604
0.699199
0.672654
0.617259
0.54724
0.47132
0.393491
0.323188
0.285602
0.269287
0.27
0.275498
0.284896
0.296438
0.307294
0.317366
0.32602
0.330003
0.330049
0.327095
0.320458
0.308522
0.289782
0.262251
0.224586
0.177242
0.115706
0.270739
0.651375
0.747488
0.73789
0.729642
0.680412
0.612637
0.549408
0.487104
0.419206
0.345979
0.295655
0.274384
0.270722
0.271934
0.278501
0.28844
0.297673
0.305954
0.312966
0.316029
0.315436
0.31179
0.305074
0.293485
0.275696
0.249871
0.214919
0.171397
0.113962
0.296822
0.70069
0.779281
0.782961
0.756959
0.685081
0.605982
0.542612
0.488837
0.433367
0.365969
0.309915
0.281629
0.272926
0.269702
0.273647
0.281804
0.289534
0.296426
0.302257
0.303686
0.301593
0.298144
0.291366
0.279937
0.262936
0.238633
0.206013
0.166021
0.112276
0.306442
0.719783
0.795155
0.842586
0.811284
0.718816
0.619557
0.544049
0.489948
0.443924
0.386339
0.327052
0.291352
0.278729
0.26947
0.270768
0.276646
0.28326
0.288745
0.292257
0.291731
0.289802
0.286393
0.279321
0.267871
0.251465
0.228504
0.197916
0.160993
0.110678
0.346812
0.643299
0.813222
0.921235
0.888829
0.771869
0.650922
0.557103
0.497005
0.456007
0.405326
0.344626
0.303547
0.290048
0.273919
0.270485
0.273418
0.278033
0.281394
0.282274
0.28173
0.280228
0.276067
0.268677
0.257184
0.241293
0.219516
0.190694
0.156332
0.109178
0.144395
0.395123
0.511317
0.5667
0.591983
0.603132
0.607793
0.610448
0.61308
0.614896
0.610086
0.596234
0.545953
0.442156
0.404519
0.394996
0.388957
0.383136
0.377324
0.371251
0.364924
0.358743
0.353107
0.348443
0.344224
0.339917
0.330816
0.302893
0.224743
0.0816307
0.144032
0.388487
0.505694
0.564644
0.592819
0.606276
0.612703
0.616842
0.621133
0.626258
0.627761
0.622743
0.606355
0.531152
0.42979
0.402775
0.39464
0.388485
0.38229
0.376058
0.369624
0.363321
0.357259
0.352113
0.347501
0.343319
0.33514
0.30949
0.232629
0.0754466
0.143463
0.376449
0.496597
0.560043
0.591608
0.607464
0.615221
0.619649
0.623593
0.628772
0.634085
0.633594
0.628566
0.602734
0.494082
0.419581
0.401978
0.394633
0.388229
0.381722
0.374922
0.36815
0.361583
0.355676
0.350398
0.345768
0.338477
0.316451
0.246556
0.0786491
0.14283
0.363044
0.484674
0.551938
0.586648
0.604688
0.613668
0.618518
0.622563
0.628613
0.635504
0.639869
0.64116
0.634047
0.592075
0.465202
0.414202
0.401604
0.394574
0.387831
0.380674
0.373409
0.366219
0.359489
0.35335
0.347807
0.340335
0.319871
0.254832
0.0809781
0.142188
0.348977
0.470895
0.541181
0.578696
0.59902
0.609581
0.615409
0.620119
0.626298
0.634273
0.641356
0.646542
0.647477
0.635928
0.566389
0.447118
0.411635
0.401719
0.394557
0.387073
0.379332
0.371499
0.363966
0.356907
0.350534
0.342367
0.321955
0.257618
0.0812115
0.141335
0.336158
0.456788
0.529161
0.569043
0.59152
0.603834
0.610949
0.616587
0.622734
0.630906
0.638664
0.645496
0.65026
0.650966
0.634517
0.539457
0.437016
0.410473
0.401564
0.393974
0.385859
0.377441
0.369175
0.361221
0.354128
0.345368
0.324797
0.260861
0.0815711
0.140399
0.323237
0.442213
0.516078
0.558022
0.582342
0.596094
0.60428
0.610651
0.616986
0.624969
0.631845
0.638555
0.644392
0.648799
0.648809
0.627606
0.518634
0.432382
0.409788
0.40073
0.392482
0.383704
0.374927
0.366258
0.358345
0.349116
0.328519
0.26498
0.0824427
0.139338
0.310678
0.426923
0.501469
0.545113
0.570884
0.585826
0.594794
0.601452
0.608201
0.615434
0.620742
0.626017
0.631022
0.635205
0.638199
0.637001
0.612642
0.507509
0.432368
0.410661
0.399909
0.390232
0.380824
0.371579
0.363042
0.353295
0.332765
0.269717
0.0834566
0.138122
0.297973
0.410474
0.484937
0.529871
0.556857
0.57262
0.581991
0.588648
0.595856
0.601565
0.604686
0.607932
0.61053
0.613014
0.614278
0.614676
0.610624
0.585914
0.503948
0.440936
0.418125
0.402031
0.388579
0.377328
0.367766
0.357696
0.337392
0.274805
0.0846258
0.136712
0.285264
0.393084
0.466585
0.512293
0.540113
0.556405
0.565911
0.572291
0.579464
0.58317
0.583568
0.584135
0.583737
0.582887
0.581656
0.578925
0.574502
0.56435
0.543444
0.502568
0.466829
0.435271
0.408872
0.388759
0.373811
0.362111
0.342204
0.280164
0.0855913
0.135056
0.272445
0.374902
0.446586
0.492483
0.520805
0.537403
0.54682
0.552744
0.559308
0.560723
0.558531
0.556125
0.552041
0.54668
0.542005
0.536091
0.52771
0.515422
0.501804
0.488293
0.47927
0.472907
0.454159
0.420136
0.390018
0.369271
0.34716
0.285723
0.0864933
0.133202
0.259739
0.356379
0.425511
0.470851
0.499385
0.516068
0.525267
0.530759
0.536219
0.534884
0.530443
0.525303
0.517751
0.507859
0.498256
0.488972
0.477126
0.46071
0.444205
0.431991
0.427633
0.433313
0.441046
0.447618
0.430393
0.389637
0.355915
0.291952
0.087593
0.131278
0.247641
0.338147
0.404208
0.448262
0.4766
0.493128
0.501949
0.50707
0.510824
0.506917
0.50016
0.492464
0.482039
0.468665
0.455138
0.441955
0.426055
0.405691
0.385558
0.370635
0.363601
0.36955
0.382134
0.40267
0.424673
0.431394
0.379539
0.302354
0.0889414
0.129327
0.236392
0.320605
0.383279
0.425544
0.453149
0.469288
0.477594
0.4823
0.484209
0.478235
0.469422
0.459322
0.446616
0.430735
0.414798
0.399326
0.379848
0.355538
0.332535
0.316989
0.308409
0.311691
0.321702
0.341013
0.369284
0.406296
0.423359
0.328341
0.0922894
0.127356
0.22593
0.303941
0.362983
0.403219
0.429665
0.445247
0.452963
0.457132
0.457536
0.450034
0.43971
0.427574
0.413319
0.396276
0.378921
0.362269
0.340641
0.314784
0.292779
0.279116
0.272729
0.275317
0.282407
0.29515
0.315328
0.3489
0.397495
0.379823
0.109109
0.125366
0.216164
0.288267
0.343499
0.381567
0.406691
0.421631
0.428769
0.432291
0.431639
0.423332
0.41206
0.398568
0.383508
0.366052
0.348963
0.33175
0.309915
0.285721
0.268792
0.261601
0.262662
0.268734
0.276307
0.282846
0.289632
0.306282
0.341874
0.376384
0.155523
0.12337
0.207088
0.27357
0.324972
0.360821
0.384569
0.398898
0.405591
0.408387
0.40722
0.398821
0.387086
0.373235
0.35786
0.341113
0.324643
0.30736
0.287636
0.269331
0.261666
0.264758
0.277618
0.294193
0.30794
0.31321
0.307266
0.303096
0.311874
0.33551
0.177975
0.121395
0.19876
0.25986
0.307556
0.341203
0.363582
0.37734
0.383791
0.385926
0.384723
0.376861
0.365122
0.351527
0.336713
0.321061
0.305482
0.289265
0.273863
0.264632
0.268708
0.286011
0.316729
0.349223
0.376895
0.388494
0.375902
0.35325
0.332499
0.325796
0.193465
0.119475
0.19112
0.247204
0.291391
0.322896
0.343964
0.357111
0.363458
0.365438
0.364297
0.357469
0.346353
0.333427
0.319654
0.305318
0.291103
0.277521
0.267633
0.268798
0.285723
0.319664
0.374403
0.429633
0.4765
0.498713
0.492918
0.464142
0.41652
0.360423
0.21002
0.11762
0.184067
0.235643
0.276543
0.306018
0.325833
0.338347
0.344741
0.34699
0.346128
0.340525
0.330369
0.318716
0.306545
0.293436
0.281074
0.27145
0.266691
0.278476
0.306914
0.362319
0.440869
0.517941
0.583521
0.619539
0.625688
0.602552
0.561704
0.440682
0.228548
0.115822
0.177556
0.225083
0.262947
0.290544
0.30926
0.321171
0.327781
0.33047
0.330061
0.325903
0.317037
0.30697
0.296044
0.28443
0.274967
0.270251
0.27035
0.288887
0.330093
0.402751
0.48164
0.556417
0.6242
0.678132
0.708228
0.699253
0.702193
0.557799
0.24775
0.114066
0.171608
0.215388
0.250504
0.276411
0.29419
0.305718
0.312387
0.315864
0.316175
0.31277
0.305608
0.297443
0.288271
0.278372
0.27173
0.271483
0.276151
0.299836
0.353131
0.426836
0.493833
0.555082
0.61908
0.687009
0.738149
0.751315
0.767915
0.670344
0.270221
0.112356
0.166166
0.206437
0.239171
0.263582
0.28061
0.29198
0.298605
0.302069
0.303948
0.302056
0.296106
0.28919
0.281434
0.273553
0.269827
0.27448
0.283779
0.31496
0.37282
0.440977
0.494365
0.547196
0.613717
0.696341
0.770746
0.79913
0.798596
0.718308
0.298559
0.110725
0.161127
0.198241
0.228906
0.251981
0.268452
0.279875
0.286896
0.290266
0.292054
0.292342
0.28886
0.283147
0.276255
0.270724
0.269838
0.28086
0.293704
0.333094
0.393714
0.452547
0.497412
0.550102
0.628726
0.73101
0.827652
0.861663
0.814353
0.735837
0.30791
0.109191
0.15646
0.190891
0.219773
0.241641
0.25765
0.269138
0.276529
0.280685
0.282213
0.282712
0.281606
0.278073
0.273258
0.270765
0.274945
0.290366
0.306519
0.350976
0.414772
0.465982
0.506104
0.565724
0.660928
0.784467
0.906551
0.941917
0.830488
0.656344
0.346152
0.238326
0.247313
0.248762
0.248743
0.246919
0.245583
0.243608
0.241505
0.238621
0.235236
0.231796
0.227742
0.223304
0.220495
0.217584
0.214529
0.211615
0.209131
0.206852
0.204626
0.202446
0.200369
0.198487
0.196765
0.195129
0.193561
0.192003
0.190486
0.189016
0.18756
0.186084
0.184638
0.183255
0.181857
0.180512
0.179234
0.177995
0.176804
0.17564
0.174363
0.172814
0.170851
0.168454
0.165735
0.162742
0.159363
0.155554
0.151392
0.14704
0.142485
0.138503
0.135582
0.133199
0.13114
0.1293
0.127647
0.126143
0.124735
0.123408
0.122175
0.121014
0.119831
0.118591
0.11734
0.11609
0.114829
0.113564
0.112326
0.111148
0.110044
0.109014
0.108051
0.107129
0.106209
0.105259
0.104271
0.103271
0.102291
0.101346
0.100445
0.0995931
0.0987893
0.0980199
0.0972805
0.0965736
0.0959064
0.0952811
0.0946847
0.0941089
0.0935633
0.0930635
0.092624
0.0922555
0.0919628
0.0917438
0.0915905
0.0914956
0.0914538
0.0914627
0.0915196
0.0916222
0.0917656
0.091945
0.0921568
0.0924017
0.0926862
0.0930132
0.0933868
0.0938086
0.0942763
0.0947827
0.0953191
0.0958768
0.0964748
0.0971135
0.0978313
0.0986565
0.0995745
0.100511
0.101467
0.102539
0.103719
0.104981
0.106336
0.107795
0.266616
0.284134
0.295646
0.310787
0.322937
0.331051
0.332798
0.329349
0.321473
0.312719
0.304966
0.297763
0.290678
0.28475
0.280123
0.276173
0.27292
0.270293
0.267914
0.26542
0.26269
0.260034
0.258216
0.257035
0.256354
0.256485
0.257656
0.260116
0.263697
0.267967
0.272963
0.279494
0.287849
0.29754
0.30859
0.320305
0.332381
0.344186
0.35509
0.365076
0.374222
0.381085
0.384477
0.384188
0.380661
0.372893
0.360387
0.344262
0.32484
0.302658
0.281321
0.262215
0.245741
0.231739
0.219823
0.209969
0.202049
0.19553
0.19012
0.185581
0.181625
0.177983
0.174537
0.171416
0.168674
0.1663
0.164229
0.162247
0.160244
0.15838
0.156741
0.155315
0.153912
0.152392
0.150739
0.149041
0.147356
0.145715
0.144116
0.142534
0.141052
0.139625
0.138234
0.136902
0.135648
0.134438
0.133237
0.13203
0.130832
0.12965
0.128477
0.127348
0.126349
0.125538
0.124908
0.124414
0.124024
0.123726
0.123509
0.123365
0.123278
0.123246
0.123255
0.1233
0.123406
0.123604
0.123895
0.12428
0.124779
0.125349
0.126
0.126752
0.127536
0.128357
0.12928
0.130527
0.132079
0.133758
0.135385
0.137258
0.139561
0.142213
0.145115
0.148383
0.152238
0.254706
0.268039
0.273982
0.281979
0.287236
0.290562
0.289267
0.285625
0.282115
0.280219
0.279496
0.278923
0.277907
0.276997
0.276736
0.277461
0.278701
0.28033
0.281967
0.283518
0.28494
0.286611
0.288878
0.291498
0.294513
0.298316
0.303063
0.309017
0.316544
0.325306
0.33507
0.346153
0.358789
0.372661
0.387674
0.404343
0.423236
0.446467
0.475205
0.508313
0.542587
0.573483
0.59549
0.607529
0.607926
0.596113
0.572862
0.544141
0.508184
0.468189
0.431507
0.39518
0.36194
0.332587
0.3075
0.28714
0.270534
0.256677
0.245073
0.235463
0.22758
0.220977
0.215235
0.210085
0.205405
0.201215
0.197566
0.194572
0.192203
0.190108
0.188049
0.186009
0.184027
0.182029
0.179967
0.177875
0.175745
0.173578
0.171343
0.169047
0.166762
0.164562
0.162476
0.160494
0.158594
0.156763
0.154996
0.153288
0.151656
0.150126
0.148707
0.147386
0.146198
0.145162
0.144277
0.143529
0.142922
0.142452
0.14212
0.141926
0.141864
0.141931
0.142101
0.142333
0.142606
0.142931
0.143332
0.143819
0.144405
0.145106
0.145912
0.146795
0.147745
0.148796
0.150023
0.151657
0.153895
0.156462
0.158965
0.161749
0.165091
0.168973
0.173436
0.178557
0.18441
0.237937
0.247709
0.250308
0.255469