/*--------------------------------*- C++ -*----------------------------------*\
| =========                 |                                                 |
| \\      /  F ield         | OpenFOAM: The Open Source CFD Toolbox           |
|  \\    /   O peration     | Version:  2112                                  |
|   \\  /    A nd           | Website:  www.openfoam.com                      |
|    \\/     M anipulation  |                                                 |
\*---------------------------------------------------------------------------*/
FoamFile
{
    version     2.0;
    format      ascii;
    arch        "LSB;label=32;scalar=64";
    class       volScalarField;
    location    "0.00072";
    object      epsilon;
}
// * * * * * * * * * * * * * * * * * * * * * * * * * * * * * * * * * * * * * //

dimensions      [0 2 -3 0 0 0 0];

internalField   nonuniform List<scalar> 
13875
(
1.16155e+06
2.94422e+07
3.28402e+07
3.27814e+07
3.29235e+07
3.28355e+07
3.28659e+07
3.29327e+07
3.29348e+07
3.29034e+07
3.28904e+07
3.28934e+07
3.28668e+07
3.28959e+07
3.29395e+07
3.29554e+07
3.28773e+07
3.28524e+07
3.28868e+07
3.28606e+07
3.28838e+07
3.28033e+07
3.28123e+07
2.94131e+07
1.17534e+06
1.31611e+06
2.27365e+07
2.53671e+07
2.51905e+07
2.52848e+07
2.52152e+07
2.52151e+07
2.52393e+07
2.52168e+07
2.5224e+07
2.52047e+07
2.52209e+07
2.51986e+07
2.52399e+07
2.52732e+07
2.52793e+07
2.52408e+07
2.52265e+07
2.52301e+07
2.52195e+07
2.5283e+07
2.52797e+07
2.53774e+07
2.27235e+07
1.33462e+06
1.57775e+06
1.97053e+07
2.18366e+07
2.15903e+07
2.16892e+07
2.16429e+07
2.16223e+07
2.16197e+07
2.15577e+07
2.16124e+07
2.15582e+07
2.16149e+07
2.1561e+07
2.15887e+07
2.15955e+07
2.16001e+07
2.16427e+07
2.16442e+07
2.16338e+07
2.16326e+07
2.17012e+07
2.17095e+07
2.18642e+07
1.96864e+07
1.57122e+06
1.82136e+06
1.73926e+07
1.90404e+07
1.88572e+07
1.89541e+07
1.89263e+07
1.89003e+07
1.88895e+07
1.88368e+07
1.88864e+07
1.88389e+07
1.88897e+07
1.88446e+07
1.8868e+07
1.88468e+07
1.88448e+07
1.89035e+07
1.8912e+07
1.88961e+07
1.89017e+07
1.89618e+07
1.89618e+07
1.9065e+07
1.73548e+07
1.80974e+06
2.03469e+06
1.54691e+07
1.67721e+07
1.66115e+07
1.66907e+07
1.66684e+07
1.66424e+07
1.66266e+07
1.65836e+07
1.66275e+07
1.65859e+07
1.66314e+07
1.65968e+07
1.66138e+07
1.65825e+07
1.65728e+07
1.66301e+07
1.66459e+07
1.66317e+07
1.66419e+07
1.67019e+07
1.67066e+07
1.67947e+07
1.54346e+07
2.0316e+06
2.22365e+06
1.37509e+07
1.49291e+07
1.47427e+07
1.48175e+07
1.47924e+07
1.47599e+07
1.47373e+07
1.4701e+07
1.47397e+07
1.47035e+07
1.47462e+07
1.47223e+07
1.47315e+07
1.4691e+07
1.46761e+07
1.4727e+07
1.47547e+07
1.47513e+07
1.47718e+07
1.48297e+07
1.48331e+07
1.4976e+07
1.39227e+07
2.24416e+06
2.44703e+06
1.23084e+07
1.34849e+07
1.3225e+07
1.32604e+07
1.32191e+07
1.31804e+07
1.3151e+07
1.31183e+07
1.3153e+07
1.31211e+07
1.31635e+07
1.31495e+07
1.31496e+07
1.3101e+07
1.30849e+07
1.31263e+07
1.31633e+07
1.31745e+07
1.32109e+07
1.32892e+07
1.3333e+07
1.35493e+07
1.21314e+07
2.49532e+06
2.71084e+06
1.07082e+07
1.23441e+07
1.20131e+07
1.20016e+07
1.19277e+07
1.18667e+07
1.18249e+07
1.179e+07
1.18185e+07
1.17924e+07
1.18364e+07
1.18301e+07
1.18239e+07
1.17672e+07
1.17494e+07
1.17815e+07
1.18319e+07
1.18667e+07
1.19353e+07
1.20398e+07
1.2146e+07
1.25172e+07
1.09296e+07
2.92366e+06
3.57036e+06
1.03155e+07
1.15417e+07
1.11012e+07
1.09702e+07
1.08626e+07
1.0783e+07
1.07275e+07
1.06885e+07
1.07112e+07
1.06919e+07
1.07381e+07
1.07371e+07
1.07259e+07
1.06647e+07
1.06399e+07
1.06644e+07
1.07253e+07
1.07867e+07
1.08819e+07
1.1047e+07
1.13469e+07
1.19988e+07
1.11217e+07
3.75532e+06
7.09274e+06
1.26128e+07
1.13902e+07
1.05646e+07
1.02711e+07
1.0086e+07
9.98332e+06
9.91337e+06
9.87253e+06
9.88741e+06
9.87695e+06
9.91952e+06
9.9211e+06
9.90656e+06
9.84841e+06
9.81639e+06
9.82781e+06
9.88983e+06
9.97882e+06
1.01223e+07
1.03736e+07
1.08816e+07
1.22572e+07
1.61633e+07
8.37981e+06
1.54962e+07
1.91543e+07
1.20654e+07
1.06888e+07
9.92384e+06
9.6172e+06
9.4751e+06
9.38629e+06
9.3469e+06
9.35363e+06
9.34959e+06
9.38321e+06
9.38494e+06
9.37029e+06
9.32264e+06
9.2876e+06
9.28858e+06
9.3476e+06
9.46749e+06
9.65388e+06
1.00915e+07
1.12589e+07
1.51282e+07
4.26704e+07
1.89164e+07
2.53952e+07
5.96383e+07
2.44416e+07
1.20728e+07
1.03837e+07
9.64755e+06
9.33922e+06
9.21344e+06
9.15712e+06
9.14794e+06
9.14272e+06
9.15931e+06
9.15801e+06
9.14686e+06
9.11325e+06
9.08294e+06
9.08732e+06
9.15379e+06
9.31276e+06
9.68981e+06
1.05042e+07
1.43775e+07
5.75206e+07
7.99728e+07
2.25315e+07
2.6577e+07
5.66812e+07
1.11314e+08
5.88719e+07
1.33746e+07
1.04882e+07
1.00153e+07
9.77498e+06
9.73104e+06
9.70727e+06
9.70365e+06
9.70817e+06
9.69621e+06
9.69521e+06
9.6799e+06
9.65796e+06
9.66674e+06
9.72133e+06
9.9399e+06
1.06575e+07
1.44352e+07
6.51911e+07
1.07397e+08
6.34089e+07
2.37553e+07
2.59506e+07
4.34913e+07
8.28859e+07
1.30535e+08
7.11747e+07
2.0714e+07
1.76871e+07
1.55474e+07
1.45494e+07
1.42713e+07
1.40228e+07
1.39637e+07
1.43084e+07
1.41268e+07
1.39253e+07
1.3953e+07
1.41613e+07
1.47171e+07
1.62897e+07
2.08976e+07
6.76693e+07
9.29106e+07
7.8606e+07
4.87135e+07
2.37343e+07
2.48549e+07
3.55175e+07
6.05679e+07
8.73924e+07
7.88323e+07
5.64988e+07
5.68014e+07
6.35001e+07
6.03243e+07
6.42803e+07
6.61802e+07
6.93702e+07
7.64855e+07
7.37602e+07
6.74436e+07
6.30336e+07
5.82923e+07
5.88997e+07
5.61568e+07
5.42247e+07
7.18183e+07
7.01367e+07
6.07503e+07
3.97622e+07
2.50453e+07
2.50844e+07
3.14776e+07
5.28036e+07
6.97833e+07
7.25634e+07
8.98625e+07
8.38169e+07
6.09731e+07
5.6999e+07
5.99873e+07
6.38689e+07
6.92731e+07
7.30715e+07
7.16713e+07
6.67203e+07
6.15664e+07
5.70355e+07
5.88648e+07
8.20811e+07
1.06005e+08
7.72852e+07
5.93577e+07
5.21764e+07
3.35209e+07
2.59104e+07
2.35349e+07
3.02461e+07
4.7737e+07
5.95104e+07
6.78487e+07
8.22131e+07
6.25168e+07
4.20164e+07
3.92535e+07
4.08037e+07
4.44151e+07
4.91569e+07
5.51334e+07
5.31546e+07
4.70339e+07
4.25527e+07
3.95934e+07
4.07012e+07
6.67137e+07
9.5416e+07
7.65647e+07
5.57926e+07
4.56962e+07
2.93375e+07
2.31754e+07
1.96828e+07
3.22371e+07
4.25576e+07
4.6323e+07
5.2182e+07
5.89072e+07
4.79203e+07
3.50578e+07
3.06305e+07
3.15825e+07
3.46911e+07
3.95318e+07
4.56829e+07
4.2989e+07
3.69539e+07
3.31328e+07
3.14638e+07
3.60203e+07
5.47969e+07
6.54585e+07
5.69757e+07
4.56707e+07
3.99898e+07
2.85707e+07
1.95439e+07
1.63459e+07
3.16762e+07
3.61054e+07
3.61643e+07
3.83011e+07
4.1617e+07
3.91254e+07
3.27332e+07
2.75629e+07
2.6534e+07
2.8503e+07
3.3172e+07
3.93341e+07
3.69817e+07
3.08357e+07
2.77085e+07
2.84369e+07
3.53715e+07
4.5065e+07
4.55865e+07
4.03615e+07
3.47488e+07
3.11537e+07
2.58192e+07
1.67913e+07
1.56623e+07
2.77421e+07
2.91215e+07
2.91523e+07
3.0155e+07
3.1912e+07
3.20467e+07
2.97085e+07
2.57734e+07
2.37804e+07
2.48654e+07
2.93786e+07
3.54125e+07
3.25975e+07
2.68945e+07
2.51549e+07
2.78031e+07
3.33585e+07
3.63458e+07
3.40333e+07
3.04906e+07
2.69445e+07
2.41957e+07
2.15024e+07
1.68895e+07
1.81044e+07
2.3665e+07
2.45196e+07
2.42904e+07
2.48383e+07
2.57086e+07
2.64771e+07
2.58915e+07
2.32409e+07
2.14469e+07
2.23913e+07
2.69219e+07
3.26283e+07
2.94395e+07
2.423e+07
2.31665e+07
2.58217e+07
2.94133e+07
2.96593e+07
2.68554e+07
2.43498e+07
2.20755e+07
2.05594e+07
1.91729e+07
1.765e+07
2.34125e+07
2.70222e+07
2.1503e+07
2.09736e+07
2.11628e+07
2.13602e+07
2.21468e+07
2.21552e+07
2.04923e+07
1.93645e+07
2.05942e+07
2.52183e+07
3.05426e+07
2.7277e+07
2.23152e+07
2.1169e+07
2.29745e+07
2.51037e+07
2.46029e+07
2.20879e+07
2.02318e+07
1.8741e+07
1.78788e+07
2.20109e+07
2.07642e+07
2.71446e+07
3.46576e+07
1.95787e+07
1.83862e+07
1.82799e+07
1.80027e+07
1.86648e+07
1.88373e+07
1.79247e+07
1.75248e+07
1.92672e+07
2.40224e+07
2.89635e+07
2.58451e+07
2.09207e+07
1.92526e+07
2.00722e+07
2.12089e+07
2.05542e+07
1.85437e+07
1.7195e+07
1.6177e+07
1.62412e+07
2.79063e+07
2.32715e+07
2.79559e+07
3.98111e+07
1.77292e+07
1.63408e+07
1.56615e+07
1.5227e+07
1.57666e+07
1.60733e+07
1.57142e+07
1.59884e+07
1.83837e+07
2.33384e+07
2.77447e+07
2.47378e+07
1.98662e+07
1.76109e+07
1.75628e+07
1.80151e+07
1.72604e+07
1.57439e+07
1.48585e+07
1.44157e+07
1.48367e+07
3.33075e+07
2.42824e+07
2.77279e+07
4.73716e+07
1.63248e+07
1.45554e+07
1.35619e+07
1.30671e+07
1.34758e+07
1.38745e+07
1.39591e+07
1.48154e+07
1.7789e+07
2.28048e+07
2.67372e+07
2.39011e+07
1.90901e+07
1.6287e+07
1.55087e+07
1.54241e+07
1.46463e+07
1.35516e+07
1.30355e+07
1.30276e+07
1.39495e+07
4.14239e+07
2.48178e+07
2.86969e+07
5.47065e+07
1.56423e+07
1.29405e+07
1.18988e+07
1.14196e+07
1.17116e+07
1.21821e+07
1.26199e+07
1.39664e+07
1.73529e+07
2.23139e+07
2.58783e+07
2.32625e+07
1.85504e+07
1.53003e+07
1.3917e+07
1.33949e+07
1.26211e+07
1.18412e+07
1.15651e+07
1.1745e+07
1.35259e+07
4.93428e+07
2.70331e+07
3.19965e+07
5.78364e+07
1.51372e+07
1.1678e+07
1.064e+07
1.01992e+07
1.04326e+07
1.09648e+07
1.17196e+07
1.35117e+07
1.71793e+07
2.19493e+07
2.50743e+07
2.2696e+07
1.81048e+07
1.4577e+07
1.27639e+07
1.19069e+07
1.11524e+07
1.05695e+07
1.04499e+07
1.07792e+07
1.32068e+07
5.48229e+07
3.06546e+07
3.66079e+07
5.78649e+07
1.46569e+07
1.08308e+07
9.79547e+06
9.41436e+06
9.59301e+06
1.01725e+07
1.1174e+07
1.32707e+07
1.70534e+07
2.15843e+07
2.43953e+07
2.22242e+07
1.79051e+07
1.42154e+07
1.2069e+07
1.09193e+07
1.01636e+07
9.71179e+06
9.66047e+06
1.01162e+07
1.29485e+07
5.56652e+07
3.59778e+07
4.21252e+07
5.70432e+07
1.42634e+07
1.03866e+07
9.2785e+06
8.98103e+06
9.15639e+06
9.78127e+06
1.09536e+07
1.32515e+07
1.70295e+07
2.12797e+07
2.38033e+07
2.18514e+07
1.78572e+07
1.41421e+07
1.17624e+07
1.04036e+07
9.61495e+06
9.2063e+06
9.15892e+06
9.79313e+06
1.28101e+07
5.42087e+07
4.17183e+07
4.73073e+07
5.50725e+07
1.40785e+07
1.03826e+07
9.21371e+06
8.90453e+06
9.09245e+06
9.78701e+06
1.11285e+07
1.35654e+07
1.72395e+07
2.11176e+07
2.33009e+07
2.15362e+07
1.78254e+07
1.42136e+07
1.17383e+07
1.02473e+07
9.42763e+06
9.0464e+06
9.07784e+06
9.90897e+06
1.30854e+07
5.51826e+07
4.81822e+07
5.27558e+07
5.54651e+07
1.46906e+07
1.10173e+07
9.69388e+06
9.2073e+06
9.35102e+06
1.00719e+07
1.1511e+07
1.39834e+07
1.74716e+07
2.09998e+07
2.29481e+07
2.13675e+07
1.80246e+07
1.45939e+07
1.20734e+07
1.04897e+07
9.6331e+06
9.29993e+06
9.50954e+06
1.05783e+07
1.39658e+07
5.64777e+07
5.44382e+07
5.87096e+07
5.73889e+07
1.65671e+07
1.24674e+07
1.07723e+07
1.0041e+07
9.99482e+06
1.06321e+07
1.21101e+07
1.45554e+07
1.78174e+07
2.10057e+07
2.27372e+07
2.13312e+07
1.83319e+07
1.51358e+07
1.26345e+07
1.10119e+07
1.02248e+07
1.00823e+07
1.05644e+07
1.20645e+07
1.61644e+07
5.82241e+07
6.05939e+07
6.5302e+07
5.90716e+07
1.96531e+07
1.53815e+07
1.29318e+07
1.15369e+07
1.11539e+07
1.16325e+07
1.3004e+07
1.53503e+07
1.83415e+07
2.11655e+07
2.26699e+07
2.14093e+07
1.87188e+07
1.57883e+07
1.33996e+07
1.19044e+07
1.13072e+07
1.15226e+07
1.27047e+07
1.50706e+07
1.96401e+07
6.21369e+07
6.73816e+07
7.16534e+07
6.26218e+07
2.37221e+07
1.96766e+07
1.71539e+07
1.40127e+07
1.30417e+07
1.30528e+07
1.40934e+07
1.6216e+07
1.89127e+07
2.14225e+07
2.27622e+07
2.16483e+07
1.92665e+07
1.66361e+07
1.44694e+07
1.33093e+07
1.31142e+07
1.38803e+07
1.67852e+07
1.95235e+07
2.40524e+07
6.59201e+07
7.3978e+07
7.75697e+07
6.89985e+07
2.89583e+07
2.46282e+07
2.36251e+07
1.86352e+07
1.56479e+07
1.5065e+07
1.57169e+07
1.73474e+07
1.96762e+07
2.18706e+07
2.30489e+07
2.2077e+07
2.00007e+07
1.77241e+07
1.60548e+07
1.53234e+07
1.5695e+07
1.84256e+07
2.32566e+07
2.4673e+07
2.95257e+07
7.24809e+07
8.00607e+07
8.37563e+07
7.6265e+07
3.59846e+07
2.99895e+07
3.09224e+07
2.68028e+07
2.00198e+07
1.78172e+07
1.78789e+07
1.89327e+07
2.06918e+07
2.25005e+07
2.35171e+07
2.26665e+07
2.09296e+07
1.91796e+07
1.80848e+07
1.8042e+07
2.01413e+07
2.67422e+07
3.06174e+07
3.02846e+07
3.74795e+07
8.10707e+07
8.51522e+07
8.88984e+07
8.52211e+07
4.56046e+07
3.69546e+07
3.69683e+07
3.66918e+07
2.86731e+07
2.17916e+07
2.06016e+07
2.09649e+07
2.19867e+07
2.34001e+07
2.4202e+07
2.35635e+07
2.22361e+07
2.117e+07
2.0737e+07
2.19672e+07
2.89259e+07
3.68561e+07
3.70025e+07
3.74438e+07
4.73205e+07
8.95691e+07
9.07823e+07
9.40176e+07
9.48443e+07
5.81364e+07
4.60055e+07
4.37931e+07
4.42975e+07
4.06036e+07
2.9339e+07
2.40149e+07
2.34304e+07
2.38203e+07
2.47095e+07
2.52706e+07
2.48453e+07
2.40759e+07
2.36388e+07
2.42007e+07
2.97645e+07
4.12103e+07
4.48206e+07
4.41141e+07
4.68898e+07
5.98903e+07
9.85771e+07
9.53984e+07
9.53984e+07
1.05621e+08
7.16541e+07
5.67069e+07
5.1748e+07
5.13661e+07
5.14438e+07
4.25944e+07
2.96183e+07
2.64699e+07
2.61974e+07
2.65923e+07
2.68488e+07
2.66819e+07
2.64197e+07
2.6679e+07
3.04512e+07
4.35252e+07
5.18518e+07
5.18866e+07
5.25742e+07
5.82912e+07
7.40852e+07
1.09014e+08
9.69284e+07
9.53408e+07
1.15905e+08
8.6096e+07
6.85685e+07
6.07928e+07
5.85619e+07
5.83314e+07
5.59974e+07
4.12984e+07
3.0825e+07
2.88889e+07
2.88558e+07
2.89986e+07
2.89304e+07
2.90294e+07
3.08515e+07
4.19875e+07
5.66041e+07
5.87839e+07
5.91006e+07
6.1669e+07
6.98731e+07
8.80686e+07
1.19052e+08
9.65835e+07
9.49112e+07
1.22717e+08
9.84233e+07
8.00319e+07
6.98061e+07
6.56333e+07
6.41556e+07
6.34181e+07
5.57375e+07
3.90023e+07
3.22668e+07
3.14062e+07
3.14239e+07
3.14932e+07
3.23576e+07
3.8979e+07
5.663e+07
6.38384e+07
6.46803e+07
6.61867e+07
7.05725e+07
8.11119e+07
1.00155e+08
1.26434e+08
9.62299e+07
9.40707e+07
1.2948e+08
1.07216e+08
8.89695e+07
7.75539e+07
7.20366e+07
6.94531e+07
6.87824e+07
6.65925e+07
5.21102e+07
3.76185e+07
3.46145e+07
3.43712e+07
3.47398e+07
3.79999e+07
5.2785e+07
6.73618e+07
6.90627e+07
7.00641e+07
7.27665e+07
7.8814e+07
9.04098e+07
1.09374e+08
1.32319e+08
9.51044e+07
9.34281e+07
1.35367e+08
1.1425e+08
9.6354e+07
8.43138e+07
7.78356e+07
7.46523e+07
7.34581e+07
7.24407e+07
6.6881e+07
4.75548e+07
3.91764e+07
3.80672e+07
3.91861e+07
4.75245e+07
6.75179e+07
7.30824e+07
7.36419e+07
7.51692e+07
7.8539e+07
8.53808e+07
9.76454e+07
1.16441e+08
1.38411e+08
9.40152e+07
9.184e+07
1.37923e+08
1.19892e+08
1.02071e+08
8.97841e+07
8.29186e+07
7.95543e+07
7.80468e+07
7.78715e+07
7.7536e+07
6.21022e+07
4.66549e+07
4.33129e+07
4.6467e+07
6.20055e+07
7.80681e+07
7.85012e+07
7.83438e+07
7.989e+07
8.35993e+07
9.07359e+07
1.03292e+08
1.21867e+08
1.40425e+08
9.21816e+07
9.12666e+07
1.36502e+08
1.22829e+08
1.05921e+08
9.3887e+07
8.75177e+07
8.46633e+07
8.36051e+07
8.42114e+07
8.57532e+07
8.27171e+07
6.02161e+07
5.18214e+07
6.03951e+07
8.28713e+07
8.59963e+07
8.45216e+07
8.40078e+07
8.49457e+07
8.83307e+07
9.49985e+07
1.07494e+08
1.24896e+08
1.37415e+08
9.12016e+07
9.15045e+07
1.29088e+08
1.22159e+08
1.08068e+08
9.72846e+07
9.20695e+07
9.01861e+07
8.97372e+07
9.12603e+07
9.42894e+07
9.90107e+07
8.77279e+07
7.14426e+07
8.75489e+07
9.95311e+07
9.46886e+07
9.15614e+07
9.02301e+07
9.0449e+07
9.27369e+07
9.82064e+07
1.09601e+08
1.2396e+08
1.29252e+08
9.14495e+07
9.0663e+07
1.17615e+08
1.17652e+08
1.08433e+08
9.93109e+07
9.53013e+07
9.44495e+07
9.52361e+07
9.75268e+07
1.01588e+08
1.07499e+08
1.13519e+08
1.0582e+08
1.14101e+08
1.08114e+08
1.02105e+08
9.79043e+07
9.57487e+07
9.51885e+07
9.57731e+07
1.00068e+08
1.09691e+08
1.19031e+08
1.17174e+08
9.23678e+07
9.17806e+07
1.02847e+08
1.10665e+08
1.06645e+08
1.00777e+08
9.78004e+07
9.75548e+07
9.89229e+07
1.01795e+08
1.06653e+08
1.13979e+08
1.26601e+08
1.28998e+08
1.27044e+08
1.14225e+08
1.06908e+08
1.02075e+08
9.92997e+07
9.81208e+07
9.834e+07
1.01356e+08
1.07339e+08
1.11226e+08
1.02492e+08
9.18475e+07
9.32927e+07
8.93052e+07
1.02089e+08
1.03374e+08
1.00375e+08
9.86163e+07
9.88133e+07
1.00719e+08
1.04056e+08
1.09144e+08
1.16866e+08
1.28022e+08
1.3088e+08
1.28307e+08
1.16942e+08
1.09268e+08
1.04252e+08
1.00986e+08
9.9209e+07
9.9012e+07
1.00765e+08
1.03764e+08
1.02183e+08
8.89097e+07
9.30983e+07
9.18238e+07
7.83162e+07
9.31425e+07
9.95133e+07
9.87271e+07
9.93886e+07
1.00523e+08
1.02564e+08
1.05951e+08
1.10796e+08
1.17435e+08
1.25201e+08
1.25585e+08
1.25376e+08
1.17493e+08
1.1086e+08
1.06097e+08
1.02731e+08
1.00763e+08
9.96255e+07
9.89872e+07
9.96973e+07
9.31517e+07
7.80022e+07
9.16048e+07
407373
224525
211964
211025
210869
210482
210136
209841
209582
209344
209119
208900
208686
208475
208268
208065
207865
207668
207475
207285
207098
206914
206733
206554
206379
206206
206037
206040
210850
357790
356957
204297
194719
193894
193625
193200
192917
192736
192615
192523
192446
192375
192307
192241
192178
192117
192057
191999
191944
191889
191837
191786
191736
191688
191641
191595
191553
191760
197946
319544
338813
199661
191915
191158
190850
190402
190151
190022
189960
189930
189913
189900
189888
189877
189867
189857
189848
189839
189830
189822
189814
189806
189799
189792
189784
189777
189776
190038
196564
317265
333358
199607
191659
190865
190543
190065
189815
189695
189645
189626
189619
189617
189615
189614
189613
189612
189611
189610
189609
189608
189607
189606
189606
189604
189603
189601
189608
189881
196549
318387
334082
200203
191694
190848
190531
190031
189782
189663
189614
189597
189592
189591
189591
189591
189591
189591
189590
189590
189590
189590
189590
189590
189590
189590
189589
189588
189596
189876
196676
319688
334650
200472
191726
190830
190524
190019
189776
189658
189610
189594
189590
189589
189589
189589
189589
189589
189589
189589
189589
189589
189589
189589
189589
189589
189588
189588
189596
189883
196822
320969
334687
200534
191721
190794
190508
190003
189767
189653
189607
189593
189590
189589
189589
189589
189589
189589
189589
189589
189589
189589
189589
189589
189589
189589
189588
189588
189596
189892
196966
322190
334211
200517
191709
190729
190475
189976
189754
189645
189605
189593
189590
189589
189589
189589
189589
189589
189589
189589
189589
189589
189589
189589
189589
189589
189589
189589
189597
189900
197100
323325
334006
200505
191687
190628
190422
189936
189737
189640
189603
189592
189589
189589
189589
189589
189589
189589
189589
189589
189589
189589
189589
189589
189589
189589
189589
189589
189598
189908
197222
324362
333821
200401
191632
190521
190351
189905
189726
189635
189602
189592
189589
189589
189589
189589
189589
189589
189589
189589
189589
189589
189589
189589
189589
189589
189589
189589
189598
189916
197333
325305
333774
200174
191495
190436
190289
189881
189716
189632
189601
189591
189589
189589
189589
189589
189589
189589
189589
189589
189589
189589
189589
189589
189589
189589
189589
189589
189599
189923
197436
326165
333842
199973
191361
190369
190231
189858
189706
189628
189599
189591
189589
189589
189589
189589
189589
189589
189589
189589
189589
189589
189589
189589
189589
189589
189589
189589
189599
189930
197532
326952
333831
199806
191233
190308
190175
189836
189696
189624
189598
189591
189589
189589
189589
189589
189589
189589
189589
189589
189589
189589
189589
189589
189589
189589
189589
189589
189599
189936
197621
327673
333708
199650
191112
190246
190121
189814
189686
189621
189597
189591
189589
189589
189589
189589
189589
189589
189589
189589
189589
189589
189589
189589
189589
189589
189589
189589
189600
189942
197703
328332
333539
199515
190997
190185
190069
189793
189677
189618
189596
189590
189589
189589
189589
189589
189589
189589
189589
189589
189589
189589
189589
189589
189589
189589
189589
189589
189600
189947
197776
328928
333518
199377
190888
190125
190020
189772
189669
189615
189596
189590
189589
189589
189589
189589
189589
189589
189589
189589
189589
189589
189589
189589
189589
189589
189589
189589
189600
189951
197842
329463
333428
199236
190781
190066
189972
189752
189660
189612
189595
189590
189589
189589
189589
189589
189589
189589
189589
189589
189589
189589
189589
189589
189589
189589
189589
189589
189600
189955
197902
329943
333283
199102
190674
190005
189925
189732
189651
189609
189594
189590
189589
189589
189589
189589
189589
189589
189589
189589
189589
189589
189589
189589
189589
189589
189589
189589
189600
189959
197954
330366
333207
198952
190566
189939
189875
189710
189643
189606
189593
189590
189589
189589
189589
189589
189589
189589
189589
189589
189589
189589
189589
189589
189589
189589
189589
189589
189600
189962
197999
330735
333099
198813
190463
189869
189823
189687
189633
189603
189592
189590
189589
189589
189589
189589
189589
189589
189589
189589
189589
189589
189589
189589
189589
189589
189589
189589
189601
189965
198037
331055
333085
198712
190380
189802
189772
189663
189623
189600
189592
189589
189589
189589
189589
189589
189589
189589
189589
189589
189589
189589
189589
189589
189589
189589
189589
189589
189601
189967
198069
331324
333915
198787
190327
189744
189726
189639
189612
189596
189591
189589
189589
189589
189589
189589
189589
189589
189589
189589
189589
189589
189589
189589
189589
189589
189589
189589
189601
189969
198096
331549
337407
201496
190543
189707
189688
189617
189602
189592
189590
189589
189589
189589
189589
189589
189589
189589
189589
189589
189589
189589
189589
189589
189589
189589
189589
189589
189601
189970
198116
331730
399664
423231
201023
189941
189669
189599
189593
189589
189589
189589
189589
189589
189589
189589
189589
189589
189589
189589
189589
189589
189589
189589
189589
189589
189589
189589
189601
189971
198130
331868
385521
3.88072e+06
821189
198781
189839
189589
189586
189587
189588
189589
189589
189589
189589
189589
189589
189589
189589
189589
189589
189589
189589
189589
189589
189589
189589
189589
189601
189971
198139
331971
357792
210850
206041
206038
206207
206380
206556
206735
206916
207100
207287
207478
207671
207868
208069
208272
208480
208691
208905
209124
209350
209588
209848
210143
210489
210877
211033
211974
224543
407495
319545
197946
191760
191553
191595
191641
191688
191736
191786
191837
191889
191944
191999
192057
192117
192178
192241
192307
192375
192446
192523
192615
192736
192917
193200
193625
193893
194718
204295
356919
317267
196564
190038
189776
189777
189784
189792
189799
189806
189814
189822
189830
189839
189848
189857
189867
189877
189888
189900
189913
189930
189960
190022
190151
190402
190850
191157
191915
199660
338869
318387
196548
189881
189608
189601
189603
189604
189606
189606
189607
189608
189609
189610
189611
189612
189613
189614
189615
189617
189619
189626
189645
189695
189815
190065
190543
190865
191659
199603
333285
319687
196676
189876
189596
189588
189589
189590
189590
189590
189590
189590
189590
189590
189590
189591
189591
189591
189591
189591
189592
189597
189614
189663
189782
190031
190531
190848
191695
200210
334054
320971
196823
189883
189596
189588
189588
189589
189589
189589
189589
189589
189589
189589
189589
189589
189589
189589
189589
189589
189590
189594
189610
189658
189775
190019
190524
190830
191726
200467
334760
322189
196965
189892
189596
189588
189588
189589
189589
189589
189589
189589
189589
189589
189589
189589
189589
189589
189589
189589
189590
189593
189607
189653
189768
190003
190508
190794
191721
200533
334543
323324
197100
189900
189597
189589
189589
189589
189589
189589
189589
189589
189589
189589
189589
189589
189589
189589
189589
189589
189590
189593
189605
189645
189754
189976
190475
190729
191710
200521
334293
324363
197222
189908
189598
189589
189589
189589
189589
189589
189589
189589
189589
189589
189589
189589
189589
189589
189589
189589
189589
189592
189603
189640
189737
189936
190422
190628
191687
200500
333993
325304
197333
189916
189598
189589
189589
189589
189589
189589
189589
189589
189589
189589
189589
189589
189589
189589
189589
189589
189589
189592
189602
189635
189726
189905
190351
190521
191632
200405
333787
326166
197437
189923
189599
189589
189589
189589
189589
189589
189589
189589
189589
189589
189589
189589
189589
189589
189589
189589
189589
189591
189601
189632
189716
189881
190289
190436
191495
200169
333852
326952
197532
189930
189599
189589
189589
189589
189589
189589
189589
189589
189589
189589
189589
189589
189589
189589
189589
189589
189589
189591
189599
189628
189706
189858
190231
190369
191361
199973
333777
327672
197621
189936
189599
189589
189589
189589
189589
189589
189589
189589
189589
189589
189589
189589
189589
189589
189589
189589
189589
189591
189598
189624
189696
189836
190175
190308
191233
199809
333842
328332
197703
189942
189600
189589
189589
189589
189589
189589
189589
189589
189589
189589
189589
189589
189589
189589
189589
189589
189589
189591
189597
189621
189686
189814
190121
190246
191112
199650
333716
328928
197776
189947
189600
189589
189589
189589
189589
189589
189589
189589
189589
189589
189589
189589
189589
189589
189589
189589
189589
189590
189596
189618
189677
189793
190069
190185
190997
199513
333544
329463
197842
189951
189600
189589
189589
189589
189589
189589
189589
189589
189589
189589
189589
189589
189589
189589
189589
189589
189589
189590
189596
189615
189669
189772
190020
190125
190888
199380
333496
329943
197902
189955
189600
189589
189589
189589
189589
189589
189589
189589
189589
189589
189589
189589
189589
189589
189589
189589
189589
189590
189595
189612
189660
189752
189972
190066
190781
199236
333448
330366
197954
189959
189600
189589
189589
189589
189589
189589
189589
189589
189589
189589
189589
189589
189589
189589
189589
189589
189589
189590
189594
189609
189651
189732
189925
190005
190674
199098
333288
330735
197999
189962
189600
189589
189589
189589
189589
189589
189589
189589
189589
189589
189589
189589
189589
189589
189589
189589
189589
189590
189593
189606
189643
189710
189875
189939
190566
198956
333180
331055
198038
189965
189601
189589
189589
189589
189589
189589
189589
189589
189589
189589
189589
189589
189589
189589
189589
189589
189589
189590
189592
189603
189633
189688
189823
189869
190463
198812
333121
331325
198070
189967
189601
189589
189589
189589
189589
189589
189589
189589
189589
189589
189589
189589
189589
189589
189589
189589
189589
189589
189592
189600
189623
189663
189772
189802
190379
198708
333090
331548
198095
189969
189601
189589
189589
189589
189589
189589
189589
189589
189589
189589
189589
189589
189589
189589
189589
189589
189589
189589
189591
189596
189612
189639
189726
189744
190327
198795
333894
331729
198116
189970
189601
189589
189589
189589
189589
189589
189589
189589
189589
189589
189589
189589
189589
189589
189589
189589
189589
189589
189590
189592
189602
189617
189688
189707
190547
201518
337451
331869
198130
189971
189601
189589
189589
189589
189589
189589
189589
189589
189589
189589
189589
189589
189589
189589
189589
189589
189589
189589
189589
189589
189593
189599
189669
189944
201163
425219
399820
331971
198139
189971
189601
189589
189589
189589
189589
189589
189589
189589
189589
189589
189589
189589
189589
189589
189589
189589
189589
189589
189588
189587
189586
189589
189842
198891
827862
3.89796e+06
385619
368040
367715
367398
367081
366765
366449
366134
365819
365505
365191
364878
364565
364253
363941
363629
363318
363008
362697
362388
362079
361770
361462
361154
360846
360539
360233
359927
359621
359316
359012
358707
358404
358100
357798
357495
357193
356892
356591
356290
355990
355690
355391
355092
354793
354495
354198
353901
353604
353308
353012
352717
352422
352127
351833
351539
351246
350953
350661
350369
350078
349786
349496
349206
348916
348626
348337
348049
347761
347473
347186
346899
346612
346326
346041
345756
345471
345186
344902
344619
344336
344053
343771
343489
343207
342926
342646
342365
342085
341806
341527
341248
340970
340692
340415
340138
339861
339585
339309
339033
338758
338484
338209
337936
337662
337389
337116
336844
336572
336301
336029
335759
335488
335218
334949
334680
334411
334142
333874
333607
333340
333073
332806
332540
332272
331981
204746
204653
204580
204509
204438
204368
204299
204229
204160
204092
204024
203956
203888
203821
203754
203688
203622
203556
203491
203426
203361
203297
203233
203169
203106
203043
202980
202918
202856
202795
202733
202672
202612
202551
202491
202432
202372
202313
202254
202196
202138
202080
202022
201965
201908
201852
201795
201739
201683
201628
201573
201518
201463
201409
201355
201301
201248
201195
201142
201089
201037
200984
200933
200881
200830
200779
200728
200677
200627
200577
200527
200478
200429
200380
200331
200282
200234
200186
200138
200091
200044
199997
199950
199903
199857
199811
199765
199719
199674
199629
199584
199539
199495
199450
199406
199363
199319
199276
199232
199189
199147
199104
199062
199020
198978
198936
198895
198854
198813
198772
198731
198691
198650
198610
198570
198531
198491
198452
198413
198374
198336
198297
198259
198219
198173
190604
190593
190584
190576
190568
190560
190552
190544
190536
190529
190521
190513
190506
190498
190491
190484
190477
190469
190462
190455
190448
190441
190435
190428
190421
190414
190408
190401
190395
190388
190382
190376
190369
190363
190357
190351
190345
190339
190333
190327
190321
190316
190310
190304
190299
190293
190288
190282
190277
190271
190266
190261
190255
190250
190245
190240
190235
190230
190225
190220
190215
190210
190205
190201
190196
190191
190187
190182
190177
190173
190168
190164
190160
190155
190151
190147
190142
190138
190134
190130
190126
190122
190118
190114
190110
190106
190102
190098
190094
190090
190086
190083
190079
190075
190072
190068
190064
190061
190057
190054
190050
190047
190043
190040
190037
190033
190030
190027
190024
190020
190017
190014
190011
190008
190005
190002
189999
189996
189993
189990
189987
189984
189981
189978
189974
189637
189636
189635
189635
189634
189634
189633
189633
189632
189632
189631
189631
189630
189630
189629
189629
189628
189628
189627
189627
189627
189626
189626
189625
189625
189624
189624
189624
189623
189623
189622
189622
189622
189621
189621
189621
189620
189620
189620
189619
189619
189618
189618
189618
189618
189617
189617
189617
189616
189616
189616
189615
189615
189615
189614
189614
189614
189614
189613
189613
189613
189613
189612
189612
189612
189612
189611
189611
189611
189611
189610
189610
189610
189610
189609
189609
189609
189609
189609
189608
189608
189608
189608
189608
189607
189607
189607
189607
189607
189606
189606
189606
189606
189606
189605
189605
189605
189605
189605
189605
189604
189604
189604
189604
189604
189604
189603
189603
189603
189603
189603
189603
189603
189602
189602
189602
189602
189602
189602
189602
189602
189601
189601
189601
189601
189591
189591
189591
189591
189591
189591
189591
189590
189590
189590
189590
189590
189590
189590
189590
189590
189590
189590
189590
189590
189590
189590
189590
189590
189590
189590
189590
189590
189590