/*--------------------------------*- C++ -*----------------------------------*\
| =========                 |                                                 |
| \\      /  F ield         | OpenFOAM: The Open Source CFD Toolbox           |
|  \\    /   O peration     | Version:  2112                                  |
|   \\  /    A nd           | Website:  www.openfoam.com                      |
|    \\/     M anipulation  |                                                 |
\*---------------------------------------------------------------------------*/
FoamFile
{
    version     2.0;
    format      ascii;
    arch        "LSB;label=32;scalar=64";
    class       volScalarField;
    location    "0.006";
    object      alphat;
}
// * * * * * * * * * * * * * * * * * * * * * * * * * * * * * * * * * * * * * //

dimensions      [1 -1 -1 0 0 0 0];

internalField   nonuniform List<scalar> 
13875
(
0.11986
0.0816021
0.0784492
0.0782792
0.0783212
0.0783777
0.0783049
0.0782781
0.0783095
0.0783104
0.0782858
0.0783071
0.078376
0.0784114
0.0783953
0.0782963
0.0782534
0.0782998
0.0783061
0.0783556
0.0783204
0.0782647
0.0784837
0.0814448
0.120924
0.103938
0.057679
0.057081
0.0571605
0.0566563
0.0566692
0.0570254
0.0571171
0.0572161
0.0572081
0.0571553
0.0571203
0.0566526
0.0566125
0.0566681
0.0570959
0.0571175
0.057154
0.0570751
0.0566803
0.0566746
0.0571382
0.0570626
0.0573733
0.104632
0.110618
0.0553244
0.0558746
0.054725
0.054562
0.0544361
0.0542233
0.0541666
0.0542721
0.0543928
0.0542814
0.0543479
0.0542503
0.0542772
0.0542406
0.0543505
0.054108
0.0542411
0.0542814
0.0544523
0.0545322
0.0546028
0.0557834
0.0550943
0.111186
0.115884
0.0546441
0.0553811
0.054316
0.054024
0.0538931
0.0536169
0.0535138
0.053528
0.0535218
0.0533975
0.0534909
0.0537057
0.0537406
0.0536929
0.0534829
0.0533663
0.0534562
0.0536339
0.0539074
0.0540017
0.0542023
0.0551971
0.0542898
0.115751
0.121031
0.0546335
0.0551199
0.053746
0.0536648
0.0534729
0.0531095
0.0530296
0.0530376
0.0530208
0.0529043
0.0530048
0.0532273
0.0532666
0.0532157
0.0529955
0.0528785
0.0529495
0.0531089
0.0534771
0.0536099
0.0536131
0.0550215
0.0543177
0.121338
0.124407
0.0547442
0.0551855
0.0536068
0.0532824
0.0530511
0.0527096
0.0526056
0.0526172
0.052578
0.0524573
0.0525464
0.0527832
0.0528524
0.0527668
0.0525391
0.0524511
0.0525428
0.0527318
0.0530585
0.0532422
0.0535052
0.0548888
0.0543893
0.124085
0.128745
0.0564737
0.0557795
0.0534511
0.0532621
0.0528618
0.0523494
0.0522376
0.0522336
0.0521911
0.0520777
0.0521732
0.0524252
0.0524799
0.0523979
0.0521517
0.0520816
0.0521593
0.0523574
0.0528593
0.0531993
0.0533648
0.0556481
0.0563493
0.128999
0.135702
0.0611954
0.0578362
0.0544095
0.0534042
0.0528158
0.0522035
0.0520049
0.051972
0.0518999
0.0517862
0.0518428
0.0521263
0.0521911
0.052086
0.0518266
0.0518158
0.0519271
0.0522181
0.0527993
0.0533353
0.0542794
0.0575209
0.0610282
0.135635
0.151305
0.0692391
0.0615394
0.055916
0.0544151
0.0531438
0.0522126
0.0518955
0.0517935
0.0517137
0.0516307
0.0516583
0.0519801
0.0520421
0.0519292
0.0516351
0.0516717
0.0518112
0.0521718
0.0530936
0.0542326
0.0556204
0.0610304
0.0684088
0.154228
0.23931
0.0874453
0.0664741
0.059011
0.0554297
0.053744
0.0525749
0.0521144
0.0519004
0.0517697
0.0517291
0.0517283
0.0520715
0.052142
0.0520222
0.0517436
0.0517979
0.0519831
0.0524686
0.0536328
0.0552898
0.0586759
0.0660258
0.0866942
0.24115
0.365395
0.118428
0.0759975
0.0629004
0.0576272
0.0548828
0.0533014
0.0527068
0.0524041
0.0522824
0.0522558
0.0522304
0.0525628
0.0526419
0.0525544
0.0523344
0.0523848
0.0526242
0.0531015
0.0546743
0.0573493
0.0617083
0.0747889
0.112965
0.365582
0.658289
0.19333
0.104115
0.0745553
0.0616948
0.0575658
0.0554348
0.0543107
0.0538138
0.0536564
0.0535975
0.0535587
0.0538286
0.0539434
0.0539267
0.0538276
0.0539127
0.054316
0.0552353
0.0570412
0.0619668
0.0734502
0.100379
0.182904
0.643525
0.582199
0.437012
0.176541
0.0927165
0.0770822
0.0654514
0.0600534
0.0581057
0.0572251
0.0569152
0.0567861
0.0567344
0.0568935
0.0570493
0.0571395
0.057199
0.057456
0.0582923
0.0600387
0.0655398
0.0764669
0.0893195
0.171085
0.434013
0.581269
0.492017
0.401767
0.348426
0.328266
0.118143
0.0812756
0.0743031
0.0683808
0.0659624
0.0650951
0.0647274
0.0645563
0.0645995
0.0648047
0.0650905
0.0655216
0.0664431
0.0691293
0.0757323
0.0842653
0.13209
0.332184
0.338296
0.400856
0.500053
0.408711
0.350547
0.331707
0.337623
0.302105
0.202597
0.12734
0.100028
0.09033
0.0884115
0.0879886
0.0877421
0.087831
0.0880373
0.0884461
0.0890772
0.0901956
0.0983961
0.134421
0.212951
0.306506
0.334529
0.331707
0.361307
0.421391
0.331583
0.296513
0.284795
0.306361
0.32054
0.328878
0.258984
0.196643
0.172701
0.151844
0.139366
0.135086
0.133155
0.134229
0.137481
0.148092
0.173889
0.195556
0.25315
0.331314
0.316879
0.307566
0.29255
0.299217
0.343023
0.241944
0.229835
0.23279
0.276892
0.332885
0.414263
0.55206
0.646026
0.635043
0.581552
0.607956
0.620497
0.630672
0.626609
0.612398
0.591076
0.603581
0.646049
0.586542
0.41979
0.331504
0.279454
0.23469
0.237457
0.254129
0.145056
0.158018
0.191827
0.240141
0.339191
0.466639
0.603375
0.68825
0.575475
0.500001
0.494275
0.494957
0.50084
0.499308
0.49792
0.512689
0.566852
0.657004
0.627745
0.474245
0.351951
0.252277
0.187478
0.148018
0.134871
0.0696139
0.105442
0.172138
0.26894
0.38495
0.428748
0.492954
0.547896
0.484773
0.426237
0.414448
0.413264
0.417186
0.418483
0.418862
0.427067
0.469465
0.533783
0.505926
0.441821
0.408092
0.299133
0.17813
0.106264
0.0710803
0.0267226
0.0536211
0.12524
0.26498
0.368449
0.366288
0.385376
0.429732
0.425543
0.394373
0.378688
0.370117
0.369528
0.374415
0.379452
0.386577
0.405826
0.416912
0.386693
0.371413
0.385736
0.283744
0.132522
0.0539895
0.025785
0.06634
0.0802203
0.114868
0.202295
0.283848
0.2862
0.306462
0.354151
0.375487
0.35979
0.341312
0.327448
0.324525
0.331788
0.341273
0.349825
0.356822
0.34318
0.304472
0.288104
0.289515
0.204967
0.115707
0.0796519
0.0632122
0.120446
0.127159
0.130702
0.163487
0.211722
0.222493
0.253011
0.303132
0.330823
0.320836
0.301108
0.285209
0.281156
0.289319
0.301162
0.31139
0.315231
0.29355
0.24823
0.221052
0.215294
0.161915
0.136298
0.139275
0.118421
0.155703
0.133925
0.133289
0.138826
0.165079
0.1797
0.214277
0.2612
0.288934
0.281404
0.26231
0.246488
0.241887
0.249598
0.261691
0.271968
0.273964
0.253474
0.210954
0.177785
0.166964
0.139674
0.136425
0.153144
0.158767
0.194497
0.151997
0.131808
0.125132
0.138501
0.154627
0.184412
0.225542
0.250585
0.243525
0.225831
0.211764
0.207552
0.214669
0.225753
0.235227
0.237809
0.218272
0.18117
0.152919
0.139159
0.124926
0.131097
0.152822
0.195373
0.21989
0.174191
0.133303
0.119299
0.1219
0.136523
0.160089
0.193374
0.214951
0.209688
0.194719
0.18208
0.178618
0.184833
0.195352
0.204027
0.204952
0.18753
0.158493
0.135007
0.122408
0.118256
0.130952
0.165252
0.226446
0.245053
0.195853
0.132406
0.115254
0.111607
0.122571
0.142166
0.168659
0.185614
0.180747
0.168179
0.157445
0.154069
0.159525
0.168188
0.175315
0.177075
0.163216
0.139959
0.122014
0.111057
0.113866
0.128474
0.179957
0.252479
0.26869
0.208228
0.13113
0.111724
0.104795
0.111791
0.126856
0.147079
0.160026
0.155654
0.145293
0.136049
0.133632
0.138294
0.146038
0.152071
0.152934
0.142282
0.125116
0.110712
0.104266
0.111237
0.128252
0.197374
0.271065
0.290155
0.222361
0.130028
0.107791
0.100217
0.103179
0.115137
0.130189
0.138749
0.134368
0.126017
0.118835
0.11636
0.120664
0.126879
0.131902
0.134029
0.126443
0.112777
0.102235
0.0984668
0.107014
0.127
0.213017
0.299143
0.319094
0.241258
0.131389
0.104789
0.0959306
0.0965147
0.104517
0.115367
0.121578
0.11763
0.110387
0.103733
0.101985
0.105445
0.110938
0.115027
0.116246
0.111628
0.102975
0.095175
0.0953443
0.104298
0.127662
0.226867
0.32384
0.348747
0.257439
0.131566
0.10063
0.092387
0.092071
0.0971413
0.103885
0.106663
0.102569
0.0967701
0.0917818
0.089775
0.0931503
0.0974356
0.100963
0.103204
0.100276
0.0940636
0.0901941
0.0908747
0.100291
0.130078
0.248903
0.348669
0.363256
0.270213
0.134865
0.0986217
0.0885194
0.0877203
0.089774
0.0927671
0.0942228
0.0906718
0.0857297
0.0809782
0.079595
0.0823031
0.0864785
0.0894733
0.0910061
0.0902241
0.0877407
0.0861051
0.087829
0.0989129
0.133715
0.268628
0.37401
0.373862
0.275634
0.139055
0.0967149
0.0853215
0.0832285
0.0842723
0.0854094
0.0847836
0.0808667
0.0763277
0.0726823
0.0709408
0.0736352
0.0766844
0.0795216
0.0818489
0.0820571
0.0814899
0.0818922
0.0837964
0.096044
0.137164
0.275044
0.387774
0.387781
0.274475
0.144426
0.0969276
0.0830364
0.0794366
0.078922
0.077419
0.0760369
0.0725678
0.0686559
0.0649301
0.0637208
0.0658395
0.0691366
0.0715211
0.0735148
0.0751105
0.0766663
0.077966
0.0821356
0.0962491
0.143699
0.278641
0.396695
0.395884
0.276824
0.15424
0.097768
0.0795846
0.0755998
0.0740734
0.0720261
0.0692546
0.0654539
0.0618
0.0590203
0.0575343
0.059757
0.0621187
0.0647199
0.0673864
0.0692846
0.0716403
0.0741198
0.0779324
0.0962321
0.152308
0.276908
0.406156
0.400668
0.27727
0.162551
0.100373
0.0793847
0.073261
0.0696546
0.0661031
0.0630419
0.059647
0.0564704
0.0533951
0.0523322
0.0540492
0.0567555
0.058734
0.0609472
0.0641388
0.0672735
0.0715456
0.0779355
0.097975
0.162368
0.279559
0.41267
0.40694
0.274175
0.162566
0.103467
0.0795698
0.0694351
0.0651787
0.061851
0.0584498
0.0545725
0.0513693
0.049119
0.0478398
0.0497109
0.0516042
0.054047
0.0567516
0.0594482
0.06272
0.0675483
0.0773685
0.102137
0.166156
0.278776
0.413348
0.41072
0.270597
0.162423
0.109018
0.0811834
0.0681158
0.0619289
0.0569615
0.0535336
0.0501976
0.0475253
0.0449332
0.0440071
0.0454543
0.0477563
0.0495651
0.0520831
0.055537
0.0596653
0.0664022
0.0792963
0.107165
0.166184
0.272518
0.413808
0.406217
0.264658
0.162027
0.118645
0.0835493
0.0657466
0.0584142
0.0538549
0.0501045
0.0467263
0.0437209
0.0418204
0.0406841
0.0422313
0.0438642
0.0463195
0.0487355
0.0515667
0.0559619
0.0634146
0.0805627
0.117223
0.165219
0.26532
0.407195
0.401551
0.259702
0.158991
0.131042
0.0869943
0.0664091
0.057017
0.0502458
0.0462077
0.0432336
0.0409262
0.0386618
0.0378222
0.039017
0.0411011
0.0427464
0.0451008
0.0488449
0.0546846
0.0640585
0.0853977
0.133232
0.164289
0.259801
0.400417
0.39289
0.257543
0.153496
0.130967
0.0927022
0.0662176
0.0541873
0.0477137
0.0435756
0.0407066
0.0379618
0.0363281
0.0353123
0.0366805
0.0381084
0.0404589
0.0426993
0.0457955
0.0522887
0.0636174
0.0901971
0.133692
0.159472
0.256143
0.396408
0.38268
0.255239
0.145949
0.131127
0.102572
0.0690864
0.0547116
0.0457021
0.0408209
0.0379508
0.0358913
0.0338687
0.0331307
0.0341793
0.0359585
0.0375208
0.0399865
0.0443192
0.0526099
0.0661462
0.100262
0.133366
0.151946
0.256082
0.390474
0.379095
0.25294
0.13868
0.127885
0.116519
0.07157
0.0536365
0.044228
0.0391093
0.0362527
0.0335401
0.0320783
0.031198
0.0324373
0.0336853
0.0360521
0.0383375
0.0422488
0.0519318
0.0689053
0.115476
0.131298
0.144643
0.253976
0.382143
0.37233
0.252893
0.13389
0.123162
0.116565
0.0782176
0.0552999
0.0442846
0.0375445
0.0340519
0.0319832
0.0301532
0.0295129
0.0304438
0.0320658
0.0337531
0.036962
0.0427646
0.0532321
0.0753465
0.115729
0.126298
0.137524
0.251419
0.378087
0.366072
0.251173
0.131564
0.116441
0.115235
0.0886482
0.0566908
0.0439321
0.0369596
0.0333444
0.0302277
0.0288517
0.0280145
0.0291321
0.0303404
0.0331051
0.0362919
0.0419347
0.0547436
0.0852852
0.114796
0.117819
0.132476
0.25165
0.373825
0.361179
0.248082
0.128582
0.111301
0.111343
0.0981317
0.0618005
0.0449553
0.0367965
0.0319182
0.0292461
0.027341
0.0267237
0.0275743
0.0292642
0.0314405
0.0363891
0.0436377
0.0603317
0.0990561
0.1121
0.112404
0.129326
0.250543
0.367122
0.355992
0.246794
0.128641
0.106446
0.104713
0.097975
0.0698818
0.0464966
0.036781
0.0324256
0.0282315
0.0265269
0.0256387
0.0267722
0.0283693
0.0319252
0.0361837
0.0448841
0.0689388
0.099238
0.10699
0.107447
0.128476
0.249213
0.362975
0.34536
0.24105
0.128632
0.103631
0.099067
0.0956844
0.083077
0.0518694
0.0379095
0.0318312
0.0282147
0.0257543
0.0249103
0.025942
0.0282005
0.031223
0.0372615
0.0502573
0.0820226
0.0964069
0.100814
0.10449
0.128324
0.24669
0.35393
0.337183
0.237039
0.12824
0.100974
0.0946864
0.0920141
0.0833388
0.0589605
0.0400667
0.0326897
0.0279526
0.0258513
0.0245018
0.0260294
0.0281113
0.0322246
0.0393295
0.0580635
0.0829568
0.0926334
0.0963223
0.102061
0.130453
0.241769
0.342412
0.313316
0.226894
0.126686
0.099822
0.0912332
0.0871464
0.0820666
0.071441
0.046054
0.0329784
0.0283197
0.0256285
0.0244999
0.0257908
0.0282584
0.0324941
0.045378
0.0707819
0.0812561
0.0872343
0.0923135
0.101226
0.129262
0.230956
0.315807
0.284821
0.212684
0.123734
0.097631
0.0889706
0.0835562
0.0798274
0.071579
0.0545543
0.0367032
0.0286812
0.0260194
0.0246103
0.0261762
0.0287118
0.0360151
0.0534082
0.0709409
0.0790848
0.0833273
0.0897242
0.0987601
0.126235
0.216509
0.287649
0.169622
0.357591
0.377057
0.388397
0.37558
0.375671
0.3756
0.399184
0.441985
0.494099
0.547572
0.601683
0.648799
0.687501
0.715954
0.735085
0.745784
0.742109
0.70711
0.586797
0.49616
0.438624
0.403999
0.384025
0.364601
0.340809
0.308106
0.260368
0.190136
0.0880411
0.158694
0.333318
0.310398
0.301752
0.282697
0.286548
0.291102
0.324787
0.377481
0.4397
0.502254
0.563933
0.61674
0.660244
0.692527
0.714816
0.729332
0.731399
0.710084
0.619269
0.512991
0.443331
0.397052
0.371238
0.350115
0.325909
0.293685
0.247998
0.181545
0.0853653
0.166712
0.319557
0.27002
0.259523
0.256188
0.263291
0.265658
0.290206
0.340226
0.397905
0.459692
0.523747
0.581662
0.629665
0.665724
0.691148
0.70884
0.714993
0.70264
0.650335
0.531011
0.44591
0.389765
0.35558
0.333101
0.308652
0.277387
0.233821
0.171441
0.0825
0.16885
0.290335
0.236253
0.241538
0.268042
0.281294
0.276741
0.259275
0.293101
0.351862
0.414694
0.480615
0.542643
0.595556
0.635952
0.664045
0.684469
0.694669
0.689419
0.661518
0.559678
0.454005
0.383971
0.341874
0.317627
0.292873
0.262372
0.220756
0.162323
0.079929
0.16422
0.268142
0.236692
0.272856
0.300239
0.313527
0.311287
0.288411
0.265403
0.310256
0.369913
0.435078
0.50034
0.558354
0.603837
0.635331
0.658495
0.670814
0.669698
0.652506
0.600956
0.473269
0.381939
0.331998
0.302834
0.277635
0.247691
0.20771
0.152427
0.0766252
0.15777
0.251936
0.26144
0.302849
0.320514
0.338267
0.34003
0.31607
0.274155
0.275477
0.331692
0.393447
0.458948
0.520077
0.570001
0.606299
0.631441
0.646439
0.650486
0.633277
0.610897
0.514708
0.388782
0.324149
0.288688
0.263293
0.233504
0.194095
0.142166
0.0731053
0.149395
0.244407
0.288827
0.322375
0.345266
0.36692
0.367691
0.337281
0.290213
0.256136
0.296882
0.356025
0.419925
0.482175
0.535191
0.575851
0.604065
0.623444
0.630932
0.614369
0.599203
0.558422
0.41331
0.320632
0.2773
0.248144
0.218975
0.182194
0.134734
0.0710277
0.14086
0.246565
0.315938
0.340098
0.366862
0.387515
0.386887
0.358622
0.297694
0.254001
0.266871
0.324154
0.385069
0.446054
0.501137
0.546309
0.578234
0.600842
0.611267
0.601512
0.578205
0.556903
0.474124
0.329276
0.268193
0.235228
0.206392
0.172471
0.12896
0.069921
0.13406
0.267368
0.341612
0.359672
0.383376
0.396133
0.3873
0.370376
0.305124
0.254905
0.244176
0.296867
0.353928
0.412811
0.468254
0.516056
0.553061
0.578759
0.593825
0.591953
0.559024
0.546065
0.510483
0.367865
0.266627
0.224862
0.195602
0.163824
0.123619
0.0691957
0.128529
0.296866
0.366492
0.380045
0.396609
0.391933
0.376518
0.355239
0.301494
0.25099
0.229658
0.273886
0.328008
0.384602
0.438879
0.4872
0.527369
0.557708
0.577632
0.581207
0.549305
0.52628
0.50958
0.445013
0.284312
0.218922
0.185374
0.155213
0.116886
0.0663918
0.125875
0.328396
0.390219
0.401684
0.415934
0.395526
0.360173
0.335242
0.28981
0.245786
0.220547
0.25361
0.305328
0.360882
0.413998
0.461692
0.503475
0.536899
0.560835
0.570216
0.547519
0.510503
0.494353
0.461692
0.337046
0.221554
0.173919
0.139124
0.105254
0.0610041
0.125546
0.35917
0.411704
0.42311
0.435573
0.399457
0.349184
0.314887
0.276755
0.238904
0.21457
0.244123
0.289194
0.342381
0.393641
0.439846
0.481898
0.517268
0.544649
0.560452
0.55149
0.498059
0.476004
0.45464
0.396363
0.23725
0.166304
0.127537
0.0943307
0.0565608
0.127915
0.388703
0.431378
0.441967
0.447198
0.400065
0.342342
0.296552
0.265961
0.233641
0.212628
0.240942
0.281923
0.329944
0.377867
0.422148
0.462977
0.498317
0.525862
0.542818
0.539379
0.493051
0.457003
0.437792
0.404171
0.298643
0.168289
0.120901
0.0881799
0.0533869
0.132147
0.416152
0.449608
0.454212
0.455128
0.402411
0.3423
0.286512
0.259495
0.235721
0.218019
0.244614
0.280658
0.324365
0.367004
0.40845
0.446889
0.480426
0.506617
0.522813
0.52243
0.488162
0.43928
0.418316
0.3938
0.342108
0.204482
0.120086
0.0848192
0.0516626
0.137083
0.440348
0.463976
0.46111
0.463479
0.407716
0.348711
0.287711
0.263147
0.243529
0.234335
0.256051
0.287686
0.324856
0.361414
0.398986
0.434119
0.464676
0.488183
0.502857
0.502545
0.470865
0.425552
0.399998
0.378351
0.346371
0.275851
0.136377
0.0839913
0.0507792
0.142033
0.46066
0.474439
0.464912
0.472123
0.421065
0.367002
0.306244
0.278287
0.260002
0.261955
0.27458
0.301667
0.329685
0.360261
0.393441
0.424775
0.451504
0.472873
0.485533
0.482845
0.449772
0.412921
0.386157
0.36298
0.336921
0.295147
0.195505
0.0910342
0.0505743
0.148369
0.478499
0.481458
0.46821
0.475461
0.434769
0.392666
0.337682
0.305834
0.287805
0.294648
0.301601
0.319006
0.337742
0.362717
0.391322
0.419652
0.442704
0.461842
0.471328
0.46304
0.427225
0.397787
0.373481
0.349147
0.325526
0.294267
0.238339
0.119924
0.0526707
0.155132
0.494229
0.488087
0.468903
0.47547
0.446953
0.418142
0.375861
0.340392
0.322175
0.327455
0.330136
0.336679
0.348106
0.368868
0.394202
0.416887
0.435042
0.450005
0.454992
0.443365
0.405535
0.380814
0.35751
0.335904
0.313063
0.287163
0.25128
0.176497
0.0610278
0.160697
0.505837
0.491829
0.464372
0.467732
0.460011
0.442313
0.404413
0.3695
0.347211
0.346925
0.350481
0.352671
0.358935
0.376871
0.397088
0.41239
0.425134
0.435022
0.436685
0.422612
0.386663
0.363855
0.342594
0.32204
0.301187
0.27928
0.252982
0.209319
0.0862296
0.166224
0.514505
0.491459
0.456559
0.454732
0.467982
0.468817
0.435469
0.396719
0.367307
0.360954
0.363409
0.365846
0.369895
0.383626
0.397655
0.405814
0.413135
0.419191
0.417825
0.401936
0.370051
0.347956
0.328565
0.310205
0.291582
0.272458
0.25267
0.226601
0.134708
0.172378
0.511358
0.483194
0.440425
0.444099
0.466072
0.486163
0.472193
0.435588
0.39953
0.382804
0.380059
0.379862
0.380107
0.386941
0.393765
0.396059
0.398869
0.400904
0.39653
0.376072
0.353286
0.333513
0.31628
0.300904
0.285068
0.270641
0.256264
0.248967
0.189956
0.177249
0.512502
0.466954
0.420841
0.42798
0.456525
0.486766
0.499858
0.481575
0.443119
0.41203
0.397654
0.389845
0.386178
0.386175
0.385979
0.386419
0.387132
0.384406
0.376268
0.357151
0.338556
0.321011
0.306471
0.293847
0.28254
0.270959
0.264811
0.274502
0.208932
0.172788
0.482905
0.43709
0.399229
0.41093
0.44363
0.476668
0.507655
0.514573
0.485354
0.445977
0.41624
0.396923
0.387579
0.382967
0.377925
0.376976
0.375829
0.371205
0.359235
0.342887
0.326111
0.311433
0.298995
0.289189
0.281625
0.273922
0.277723
0.309029
0.212394
0.172017
0.457013
0.404255
0.382336
0.395587
0.429526
0.462982
0.497134
0.527694
0.521256
0.489102
0.447049
0.412008
0.38827
0.380323
0.37129
0.367815
0.364978
0.357352
0.345076
0.332494
0.317507
0.304675
0.293706
0.287345
0.280625
0.278509
0.298928
0.370658
0.210958
0.151124
0.361539
0.368516
0.37228
0.385605
0.416937
0.448522
0.48231
0.521692
0.541181
0.533162
0.495628
0.445221
0.397361
0.381662
0.367158
0.35895
0.35414
0.346264
0.334844
0.324296
0.312028
0.299776
0.290135
0.284718
0.281425
0.286786
0.32598
0.387987
0.202683
0.0879003
0.190217
0.260431
0.308302
0.341103
0.365006
0.38476
0.405184
0.441105
0.501866
0.600789
0.713245
0.738902
0.739317
0.727357
0.707705
0.678011
0.637975
0.589798
0.534571
0.480427
0.428842
0.38678
0.365355
0.364736
0.362534
0.377124
0.368843
0.352196
0.16848
0.0851204
0.1814
0.247948
0.293884
0.32631
0.350664
0.372281
0.399387
0.446413
0.519902
0.633382
0.709641
0.726512
0.722257
0.706263
0.683701
0.650725
0.605877
0.551699
0.488795
0.425639
0.363944
0.311664
0.281725
0.277961
0.27343
0.291017
0.300699
0.326828
0.157202
0.082134
0.171097
0.233706
0.277466
0.30908
0.333757
0.35676
0.392587
0.449945
0.538652
0.660868
0.7017
0.709518
0.701088
0.682426
0.656938
0.620553
0.57067
0.511425
0.446688
0.385977
0.329158
0.280045
0.262053
0.260779
0.253507
0.252927
0.263154
0.312261
0.164647
0.0795245
0.161922
0.22063
0.262382
0.293269
0.318351
0.343524
0.387275
0.459244
0.568376
0.663686
0.686241
0.688494
0.676654
0.65589
0.627295
0.585595
0.531873
0.468651
0.402575
0.341713
0.284338
0.262412
0.282492
0.285775
0.271943
0.243614
0.232652
0.283577
0.166884
0.0762863
0.152121
0.20759
0.247639
0.277982
0.303625
0.333939
0.385731
0.479199
0.606441
0.652258
0.666076
0.66451
0.651011
0.628061
0.595307
0.548504
0.489743
0.423758
0.359027
0.302214
0.264858
0.295048
0.31743
0.317612
0.303895
0.276716
0.238452
0.262645
0.161668
0.0727056
0.141879
0.194074
0.233518
0.263621
0.289576
0.326297
0.392987
0.520272
0.611572
0.632323
0.646649
0.640386
0.624526
0.599055
0.561912
0.510723
0.448802
0.383444
0.322576
0.270529
0.281139
0.323482
0.346888
0.342498
0.324761
0.30606
0.264582
0.247979
0.155067
0.0706046
0.134372
0.182072
0.219122
0.248603
0.27828
0.323025
0.417118
0.558875
0.598507
0.613948
0.626428
0.617736
0.597743
0.569159
0.527859
0.47314
0.41054
0.347847
0.289783
0.256007
0.296756
0.343451
0.374105
0.37111
0.349908
0.32573
0.292426
0.242364
0.146852
0.0694939
0.128583
0.172353
0.206457
0.235548
0.269223
0.331431
0.474888
0.555731
0.577252
0.59997
0.60707
0.595709
0.572443
0.539805
0.493557
0.437448
0.376572
0.317548
0.261921
0.257923
0.304879
0.36613
0.391226
0.390672
0.37132
0.34431
0.319209
0.247212
0.138375
0.0687889
0.123304
0.163734
0.195631
0.225143
0.267299
0.367525
0.508563
0.544368
0.558077
0.589452
0.590088
0.574141
0.5481
0.509718
0.461041
0.404995
0.346405
0.291669
0.241751
0.258749
0.31283
0.374762
0.389304
0.398747
0.387583
0.363751
0.344844
0.269631
0.131818
0.0660643
0.116703
0.155114
0.185346
0.218938
0.283472
0.440547
0.506797
0.524691
0.548776
0.579462
0.574153
0.553276
0.522383
0.481466
0.432443
0.377354
0.319895
0.269155
0.22959
0.254571
0.308114
0.357703
0.379552
0.395711
0.401303
0.384667
0.369951
0.299516
0.126634
0.0608173
0.105333
0.139322
0.17381
0.22084
0.331625
0.458234
0.492216
0.509262
0.548653
0.567814
0.557236
0.532761
0.499015
0.45669
0.408367
0.354682
0.29876
0.249337
0.221853
0.248836
0.29563
0.337689
0.363969
0.400693
0.421883
0.407229
0.393858
0.330797
0.124158
0.056477
0.0944738
0.127659
0.166132
0.234757
0.392196
0.452046
0.474254
0.498335
0.552347
0.55866
0.541471
0.513554
0.477888
0.435413
0.388632
0.336657
0.283673
0.240283
0.215872
0.241619
0.281577
0.317425
0.35354
0.40404
0.441218
0.429512
0.415708
0.361387
0.124295
0.0533198
0.0882418
0.120956
0.167436
0.292868
0.401256
0.435821
0.455851
0.494186
0.537549
0.540354
0.523079
0.495194
0.459671
0.418499
0.373364
0.324823
0.277018
0.236853
0.213341
0.2362
0.269659
0.29988
0.347553
0.40523
0.452071
0.449083
0.436183
0.390858
0.126848
0.0515148
0.084794
0.119745
0.200187
0.339116
0.391989
0.4168
0.438687
0.492585
0.521646
0.520204
0.503779
0.477746
0.444221
0.405483
0.363252
0.320077
0.276357
0.240909
0.218066
0.238092
0.261894
0.291007
0.348052
0.407836
0.460056
0.460726
0.455054
0.419127
0.13084
0.050595
0.083757
0.134464
0.272173
0.344559
0.376994
0.398858
0.425718
0.477319
0.503232
0.500883
0.485944
0.462315
0.43205
0.396717
0.358507
0.321709
0.284106
0.253095
0.23331
0.245305
0.264832
0.292757
0.354094
0.412867
0.468285
0.4675
0.47044
0.444483
0.135647
0.0503348
0.0901122
0.190848
0.29285
0.335537
0.361831
0.385159
0.41447
0.457216
0.484971
0.484651
0.470947
0.449605
0.423214
0.391906
0.358662
0.328364
0.299803
0.272304
0.259444
0.26095
0.279256
0.31056
0.371852
0.426371
0.476483
0.470972
0.481949
0.465747
0.140594
0.0522805
0.117254
0.235748
0.292759
0.324185
0.348075
0.374307
0.400595
0.434064
0.466322
0.470293
0.457839
0.438524
0.416141
0.389648
0.362234
0.337802
0.318543
0.300758
0.291873
0.287762
0.307369
0.342031
0.397587
0.439882
0.478774
0.473965
0.489577
0.484455
0.146927
0.0602996
0.172612
0.249356
0.285688
0.311675
0.335377
0.359116
0.383981
0.412437
0.446842
0.45445
0.447225
0.431185
0.412578
0.389847
0.367313
0.347581
0.336359
0.329482
0.325562
0.322089
0.343102
0.380563
0.423147
0.451417
0.477457
0.473795
0.496347
0.500843
0.153695
0.084965
0.207514
0.251453
0.277732
0.300095
0.322674
0.344065
0.366662
0.391427
0.426451
0.435954
0.432881
0.422088
0.409432
0.393094
0.373168
0.358048
0.353464
0.350706
0.346358
0.348814
0.373239
0.409283
0.447221
0.463563
0.469022
0.467824
0.49996
0.513438
0.159268
0.133178
0.224983
0.251352
0.271184
0.290894
0.310704
0.330129
0.350545
0.373536
0.406316
0.417557
0.417481
0.411458
0.404241
0.395561
0.380074
0.368855
0.366046
0.36422
0.361403
0.370062
0.402527
0.440682
0.473298
0.470629
0.45592
0.45851
0.499864
0.522985
0.164777
0.188278
0.247167
0.255158
0.269709
0.284498
0.300933
0.317916
0.336351
0.356919
0.38129
0.398862
0.402227
0.400006
0.39641
0.393415
0.386012
0.379064
0.379448
0.38076
0.384259
0.402956
0.442756
0.477048
0.490043
0.468101
0.44481
0.441801
0.491463
0.519777
0.171607
0.207182
0.272625
0.263823
0.27036
0.281963
0.294025
0.308359
0.323963
0.342204
0.361719
0.378822
0.38595
0.387721
0.386662
0.386253
0.386881
0.385439
0.389555
0.399294
0.416032
0.448055
0.489272
0.505635
0.490321
0.45893
0.429374
0.421842
0.47502
0.519164
0.17667
0.210546
0.306467
0.276655
0.273493
0.282125
0.289733
0.301331
0.314348
0.329757
0.346767
0.360262
0.369804
0.374377
0.375971
0.377665
0.383973
0.387011
0.39808
0.419565
0.452728
0.49158
0.521603
0.513233
0.479077
0.445201
0.41222
0.400347
0.44524
0.49175
0.17284
0.209157
0.368685
0.297894
0.278967
0.281686
0.288534
0.2961
0.307697
0.320538
0.335516
0.347287
0.358556
0.363765
0.367276
0.371919
0.382183
0.389803
0.416183
0.453367
0.497451
0.526024
0.53253
0.502415
0.465118
0.430777
0.397193
0.385185
0.410493
0.465472
0.172166
0.200375
0.386874
0.325218
0.287314
0.283225
0.287336
0.292487
0.30278
0.31456
0.326333
0.337044
0.347175
0.354452
0.359633
0.369373
0.384486
0.401632
0.452804
0.503993
0.541166
0.544706
0.523561
0.488009
0.451236
0.418578
0.387878
0.375902
0.375821
0.371696
0.151239
0.263903
0.256972
0.24863
0.241171
0.23072
0.221283
0.211738
0.202305
0.193875
0.186047
0.178439
0.171896
0.165532
0.160471
0.154402
0.150413
0.14911
0.148956
0.148879
0.150847
0.154445
0.160295
0.168808
0.179568
0.192906
0.20826
0.225183
0.243234
0.261252
0.279138
0.296018
0.3111
0.324231
0.335759
0.345582
0.353479
0.359666
0.364384
0.36814
0.37114
0.369497
0.364325
0.354163
0.342075
0.330204
0.32277
0.32098
0.319415
0.316163
0.311076
0.304754
0.296527
0.287521
0.279456
0.272833
0.266254
0.259083
0.250207
0.240484
0.230273
0.221429
0.214878
0.209851
0.206554
0.204815
0.203744
0.203238
0.203309
0.203711
0.204993
0.206501
0.207232
0.207879
0.208301
0.208273
0.207381
0.203907
0.200896
0.197743
0.19444
0.191192
0.188162
0.185436
0.183017
0.180854
0.178873
0.177051
0.175398
0.173918
0.172635
0.171614
0.170927
0.170555
0.170416
0.170346
0.170156
0.169658
0.168704
0.167221
0.165376
0.163197
0.161045
0.158878
0.156978
0.155529
0.15434
0.153433
0.152882
0.152514
0.152557
0.152913
0.15379
0.155665
0.15745
0.160021
0.162808
0.165159
0.16781
0.168881
0.171161
0.173859
0.177029
0.181043
0.185498
0.191573
0.46305
0.4518
0.434303
0.419994
0.401892
0.384322
0.365807
0.348897
0.334401
0.322326
0.310267
0.301455
0.293926
0.287544
0.280729
0.279865
0.283341
0.290616
0.298804
0.315085
0.335868
0.363459
0.39803
0.43897
0.487514
0.54419
0.606792
0.67388
0.743954
0.814773
0.884105
0.947129
1.00252
1.04803
1.08612
1.11908
1.14887
1.17571
1.19698
1.21434
1.22331
1.21542
1.19303
1.15313
1.10736
1.06723
1.03775
1.01507
0.990831
0.963639
0.9293
0.887193
0.847734
0.812534
0.783083
0.754475
0.725057
0.694235
0.663209
0.62836
0.593482
0.560983
0.532041
0.508815
0.491026
0.477777
0.468915
0.464464
0.461959
0.460588
0.45871
0.456833
0.454354
0.450813
0.445849
0.439514
0.432293
0.424446
0.415925
0.406799
0.397312
0.387742
0.378359
0.369361
0.360859
0.352913
0.345619
0.33905
0.333198
0.328003
0.323388
0.319288
0.315595
0.312191
0.308956
0.305905
0.302879
0.299693
0.296224
0.292837
0.289219
0.285946
0.282829
0.280043
0.277833
0.276346
0.27553
0.275051
0.27468
0.273934
0.272216
0.269975
0.267937
0.267106
0.268418
0.271917
0.276383
0.281507
0.287683
0.295765
0.307422
0.325375
0.353683
0.370923
0.382846
0.584507
0.57626
0.561771
0.553904
0.544395
0.534724
0.52371
0.512027
0.498734
0.486874
0.473586
0.462974
0.454893
0.448354
0.4457
0.449384
0.455865
0.466694
0.478533
0.495403
0.517802
0.543139
0.574461
0.61169
0.652172
0.699338
0.748963
0.80335
0.864101
0.929842
1.00376
1.07654
1.15476
1.22948
1.29207
1.34399
1.38721
1.42264
1.45087
1.47095
1.47907
1.46374
1.43462
1.3866
1.31983
1.24797
1.18908
1.14507
1.10929
1.07438
1.036
0.994963
0.955129
0.91942
0.890687
0.867693
0.851106
0.839548
0.829991
0.8176
0.802403
0.780356
0.75073
0.719715
0.690219
0.664558
0.64242
0.625306
0.611711
0.599752
0.588873
0.579706
0.571373
0.562423
0.552549
0.541069
0.528911
0.516704
0.504586
0.492673
0.480957
0.469314
0.457818
0.446669
0.436099
0.426332
0.417492
0.409611
0.402656
0.396484
0.390923
0.385882
0.381341
0.377265
0.373669
0.370386
0.367443
0.364847
0.362718
0.360777
0.35875
0.356459
0.353902
0.350832
0.347791
0.34413
0.340044
0.335752
0.331217
0.326955
0.323125
0.320757
0.32009
0.321997
0.325925
0.330869
0.337019
0.345278
0.35909
0.38556
0.410052
0.422763
0.42949
0.420264
0.377975
0.620903
0.615771
0.606369
0.602571
0.600496
0.60143
0.6029
0.6042
0.604427
0.606461
0.606783
0.60788
0.613143
0.617867
0.622509
0.632008
0.64164
0.653993
0.664211
0.668063
0.678828
0.686352
0.693636
0.70515
0.721596
0.745858
0.779711
0.82464
0.884382
0.966099
1.06341
1.18392
1.32014
1.47747
1.64233
1.79316
1.92067
2.01865
2.08592
2.12087
2.11665
2.08061
2.01524
1.92747
1.82036
1.70415
1.58933
1.48016
1.37556
1.27562
1.18149
1.09745
1.02496
0.963876
0.91452
0.874004
0.840845
0.811163
0.79581
0.803281
0.83416
0.860797
0.86894
0.859091
0.838454
0.812768
0.787224
0.76316
0.740268
0.720494
0.702879
0.686022
0.669462
0.654221
0.638792
0.622697