/*--------------------------------*- C++ -*----------------------------------*\
| =========                 |                                                 |
| \\      /  F ield         | OpenFOAM: The Open Source CFD Toolbox           |
|  \\    /   O peration     | Version:  2112                                  |
|   \\  /    A nd           | Website:  www.openfoam.com                      |
|    \\/     M anipulation  |                                                 |
\*---------------------------------------------------------------------------*/
FoamFile
{
    version     2.0;
    format      ascii;
    arch        "LSB;label=32;scalar=64";
    class       surfaceScalarField;
    location    "0.00375";
    object      phi;
}
// * * * * * * * * * * * * * * * * * * * * * * * * * * * * * * * * * * * * * //

dimensions      [1 0 -1 0 0 0 0];

oriented        oriented;

internalField   nonuniform List<scalar> 
27436
(
-0.533369
8.19274
-0.0931821
7.47159
-0.083406
7.7862
-0.0693502
7.78653
-0.0694731
7.79288
-0.0542518
7.78193
-0.039801
7.78263
-0.0283236
7.7848
-0.0201801
7.78877
-0.0144688
7.79109
-0.00785606
7.7903
-4.88797e-05
7.78903
0.013559
7.78362
0.0313112
7.7803
0.0469731
7.78196
0.0539698
7.78939
0.054857
7.794
0.0628585
7.78826
0.074668
7.78425
0.094311
7.77798
0.0962314
7.79109
0.111449
7.78572
0.123716
7.78265
0.572392
7.46194
8.21205
-0.247248
8.43998
-0.0963433
7.32067
-0.081906
7.77175
-0.0566678
7.76128
-0.055388
7.79164
-0.0474258
7.77409
-0.0384432
7.77373
-0.0410981
7.78731
-0.0228539
7.76962
-0.0116746
7.77827
0.000681129
7.77754
0.0172222
7.77329
0.0160104
7.78393
0.0213833
7.77455
0.0208164
7.78248
0.0386712
7.77151
0.0511628
7.78153
0.0718476
7.76759
0.0679288
7.78814
0.075257
7.7706
0.0720662
7.79426
0.10279
7.75499
0.11415
7.77155
0.267775
7.30597
8.47914
-0.227274
8.66725
-0.141233
7.23464
-0.120741
7.75127
-0.10752
7.74811
-0.0981849
7.78226
-0.0936736
7.76957
-0.0908817
7.77099
-0.0889326
7.78538
-0.0636412
7.74399
-0.0541849
7.76912
-0.0341629
7.75694
-0.0176691
7.75679
-0.0131587
7.77959
-0.0110454
7.77259
-0.00666576
7.77821
0.0153369
7.74948
0.027983
7.76892
0.0512393
7.74439
0.0539866
7.7854
0.0536303
7.77094
0.061902
7.78594
0.0782528
7.73872
0.100175
7.74931
0.192335
7.21401
8.67945
-0.169647
8.8369
-0.139557
7.20456
-0.134266
7.74601
-0.111997
7.72584
-0.104598
7.77481
-0.0994419
7.76434
-0.0957663
7.76731
-0.0844553
7.77418
-0.0625334
7.7219
-0.0471198
7.75503
-0.0262791
7.73653
-0.00849238
7.73836
0.00190756
7.76946
0.00549915
7.76923
0.0148
7.76905
0.0394128
7.7249
0.0538196
7.7545
0.0767322
7.72138
0.0870912
7.77507
0.0867418
7.7713
0.0916207
7.781
0.117939
7.71241
0.110969
7.75587
0.16147
7.16555
8.84512
-0.0736851
8.91059
-0.0364795
7.16737
-0.0914364
7.80097
-0.0584595
7.6929
-0.0593739
7.77568
-0.0593829
7.76427
-0.059465
7.76735
-0.0494573
7.76455
-0.0307484
7.70301
-0.0171762
7.74302
0.000211722
7.71941
0.0164731
7.72222
0.0264363
7.7605
0.0279427
7.76804
0.0355006
7.76166
0.0588629
7.70153
0.0681622
7.74518
0.088555
7.70083
0.097968
7.7657
0.0929109
7.77638
0.0930578
7.7808
0.123374
7.68202
0.0894776
7.78941
0.0971522
7.15875
8.94089
0.118229
8.79238
0.0437926
7.24182
-0.0487275
7.89349
-0.00728909
7.65143
-0.0216209
7.78995
-0.0293155
7.77185
-0.0339465
7.77193
-0.0278055
7.75901
-0.014171
7.68878
-0.00480512
7.73603
0.00836863
7.70797
0.0202511
7.71342
0.0265678
7.75608
0.0242367
7.77082
0.0283069
7.75781
0.0466858
7.68303
0.0513818
7.74045
0.065507
7.68658
0.0719245
7.7593
0.0622488
7.78608
0.0475756
7.79543
0.0861705
7.64337
-0.0141675
7.88926
-0.0197979
7.16448
8.91623
0.304441
8.48797
0.136217
7.41008
-0.00426875
8.03447
0.0283217
7.6183
-0.0110494
7.82925
-0.0435401
7.80423
-0.0700994
7.79844
-0.0825313
7.77206
-0.0897822
7.69577
-0.101164
7.75033
-0.108193
7.71994
-0.117224
7.73037
-0.126823
7.7682
-0.148497
7.79313
-0.161925
7.7714
-0.161007
7.68203
-0.181936
7.76134
-0.189821
7.69434
-0.202718
7.77223
-0.236049
7.81945
-0.26804
7.8274
-0.288073
7.66338
-0.354713
7.95557
-0.65761
7.46792
8.25407
0.873392
7.61465
0.521899
7.76163
0.414477
8.14194
0.338696
7.69403
0.277702
7.89015
0.225243
7.85661
0.182718
7.84104
0.156555
7.79882
0.130972
7.72166
0.108661
7.7753
0.0859885
7.75072
0.0654899
7.75979
0.0400841
7.79673
0.00579983
7.8281
-0.0190627
7.79644
-0.0393571
7.70233
-0.0690744
7.79101
-0.0944443
7.71956
-0.122576
7.80036
-0.172359
7.86928
-0.233286
7.88831
-0.282841
7.71284
-0.407512
8.07999
-0.693654
7.75412
7.55716
0.593948
7.02083
0.410081
7.94556
0.240681
8.31127
0.195688
7.73886
0.141796
7.94388
0.101834
7.89651
0.0771536
7.86599
0.0703677
7.80592
0.067951
7.72431
0.0711707
7.77386
0.0735759
7.75758
0.0776424
7.76147
0.0793222
7.79743
0.0759428
7.8321
0.0777906
7.79461
0.0754865
7.70466
0.0727962
7.79371
0.0681004
7.72422
0.0597192
7.80881
0.0231054
7.90597
-0.0314985
7.94295
-0.0495639
7.73089
-0.220485
8.25083
-0.372436
7.90614
7.18671
-3.03689
10.0579
-3.37172
8.2806
-2.7539
7.69336
-2.61135
7.59613
-2.30387
7.63662
-2.00209
7.59559
-1.7037
7.56843
-1.37474
7.47648
-1.10263
7.45158
-0.797773
7.4695
-0.501178
7.46646
-0.205266
7.46492
0.0996499
7.49294
0.409064
7.52288
0.706418
7.49712
0.974913
7.43622
1.29181
7.47689
1.56327
7.45284
1.90098
7.4712
2.20434
7.60272
2.50553
7.6418
2.63312
7.6033
3.21083
7.67336
2.93806
8.17882
10.1279
-4.22897
14.2869
-4.34633
8.39778
-4.12417
7.47037
-3.80758
7.27891
-3.36736
7.19717
-2.89124
7.12163
-2.3968
7.0754
-1.9397
7.01833
-1.49596
7.00602
-1.033
7.00519
-0.577637
7.00962
-0.118624
7.0014
0.348904
7.02389
0.829481
7.04196
1.2878
7.03851
1.70707
7.017
2.16574
7.01835
2.61544
7.00342
3.07821
7.00871
3.60566
7.0754
4.07488
7.17273
4.39215
7.28598
4.57593
7.49009
4.51992
8.23569
14.6479
-2.69375
16.9802
-4.9238
10.6282
-4.92766
7.47112
-4.20073
6.5511
-3.79708
6.79675
-3.31337
6.64265
-2.7859
6.55011
-2.28297
6.51332
-1.77464
6.49395
-1.26551
6.49219
-0.760192
6.49943
-0.251208
6.48873
0.269315
6.50045
0.799154
6.51146
1.31569
6.52151
1.7932
6.5396
2.28594
6.52586
2.78813
6.50174
3.29466
6.50282
3.80047
6.56999
4.25808
6.71522
5.02657
6.51746
4.82876
7.6883
2.72176
10.3436
17.3703
2.36535
14.6128
0.563624
12.4296
-4.80666
12.8381
-3.83146
5.57466
-4.02607
6.99859
-3.51537
6.14088
-2.96714
6.00518
-2.45683
5.99906
-1.94201
5.97196
-1.41423
5.95781
-0.870532
5.95283
-0.327375
5.94575
0.228709
5.94078
0.789978
5.94945
1.33948
5.9716
1.87239
6.00674
2.38797
6.01097
2.87165
6.01931
3.39586
5.97995
3.91763
6.04892
3.83131
6.80244
4.88635
5.46237
-0.398753
12.9743
-2.378
12.3242
14.993
2.46468
12.1438
3.29368
11.5987
3.68467
12.4475
-0.63795
9.90445
-4.31744
10.6832
-3.82084
5.65622
-3.27181
5.46197
-2.80981
5.53515
-2.24531
5.40016
-1.69524
5.40002
-1.11783
5.37241
-0.552189
5.38202
0.0253141
5.3624
0.609665
5.36619
1.19362
5.38911
1.76889
5.43274
2.33163
5.4499
2.77109
5.58186
3.23164
5.52295
3.58756
5.69784
-0.279029
10.6591
-4.56992
9.75715
-3.88468
12.29
-2.93101
11.3719
12.063
1.70664
10.4346
3.46634
9.83795
5.06452
10.851
5.49778
9.47597
4.8109
11.3739
1.03208
9.44852
-0.954974
7.44735
-1.46219
6.04479
-1.27457
5.20912
-0.941539
5.06034
-0.508683
4.93306
-0.061605
4.93302
0.410331
4.88851
0.870515
4.90501
1.33175
4.92588
1.71957
5.04291
1.95987
5.20787
1.51118
6.03233
-0.643158
7.67054
-4.17006
9.23001
-4.67909
11.1718
-4.18002
9.25634
-2.59552
10.708
-1.21271
9.99038
10.8515
0.77656
9.65573
1.686
8.92754
2.95034
9.58545
3.58121
8.84696
3.19123
11.7688
1.75536
10.9068
0.398955
8.83549
-0.195367
6.66719
-0.145154
5.19681
-0.0797069
5.02819
0.030445
4.8591
0.0569012
4.94076
0.12794
4.85451
0.187944
4.87871
0.297074
4.8514
0.374905
4.9954
0.454803
5.15792
0.0870432
6.42964
-1.13781
8.9002
-2.29731
10.4113
-2.71924
11.6054
-2.20154
8.73772
-1.27274
9.77737
-0.346778
9.0648
10.5054
1.6448
8.01105
2.22176
8.35176
2.31807
9.48801
1.56963
9.59633
1.07247
12.2836
0.915058
11.0741
0.991326
8.73987
0.636138
7.02714
0.420035
5.42004
0.302303
5.15367
0.158879
5.00757
0.0843553
5.01956
-0.0328398
4.97332
-0.139326
4.98469
-0.314762
5.02434
-0.500438
5.17836
-0.855164
5.51037
-1.42574
7.0007
-1.2294
8.69837
-1.46487
10.6608
-2.04241
12.2009
-2.82396
9.53118
-2.70339
9.6644
-2.28299
8.64669
8.22255
1.83689
6.18031
1.99348
8.20141
1.2532
10.2352
0.474741
10.3846
1.46169
11.3143
2.23306
10.3101
2.4604
8.50053
2.38411
7.09108
1.62826
6.1685
1.00803
5.76735
0.42909
5.58024
-0.0795874
5.5209
-0.589992
5.47508
-1.11707
5.50243
-1.68517
5.58308
-2.2997
5.78301
-3.00643
6.20544
-3.09594
7.07631
-2.97176
8.55857
-2.49967
10.1948
-1.46942
11.1868
-2.73028
10.8001
-3.30921
10.256
-2.49709
7.84258
5.73082
3.29096
2.89554
5.40629
6.09436
6.10878
9.54234
6.1462
10.3521
6.46597
10.9925
6.02257
10.7484
5.06295
9.45695
4.05387
8.09628
3.1147
7.1037
2.28358
6.59377
1.4801
6.37886
0.697504
6.29799
-0.0932971
6.26005
-0.872926
6.27634
-1.66659
6.37197
-2.46577
6.57848
-3.33357
7.06939
-4.28879
8.02541
-5.18614
9.44826
-5.65507
10.6593
-5.43627
10.9724
-5.08183
10.459
-4.66721
9.85715
-2.9129
6.09888
2.8234
1.5113
1.38865
3.89028
3.72546
4.91624
8.53062
5.57356
9.69814
6.20744
10.3545
6.18736
10.7605
5.28003
10.3608
4.09252
9.28149
2.9838
8.2102
2.03045
7.5444
1.16835
7.23843
0.318702
7.14505
-0.528278
7.10478
-1.38619
7.13227
-2.25946
7.2439
-3.23303
7.55125
-4.39484
8.23084
-5.68592
9.31387
-6.65836
10.4135
-6.69384
10.6873
-6.05718
10.3327
-5.3587
9.76334
-4.03149
8.54157
-1.50385
3.58177
1.32453
0.0621398
1.33155
-0.069831
3.86794
1.54144
6.92526
2.84228
8.39878
3.70439
9.4877
3.99572
10.4626
3.6558
10.6991
2.9631
9.97274
2.20284
8.96903
1.49259
8.25303
0.802248
7.92771
0.12488
7.82183
-0.568583
7.79838
-1.25694
7.82089
-1.97267
7.95991
-2.73729
8.31551
-3.56911
9.06159
-4.32527
10.0688
-4.63268
10.7182
-4.24235
10.2908
-3.28984
9.3766
-1.83807
8.31295
-0.0723565
6.78449
-0.085093
3.60735
1.24516
-0.894343
2.22958
-0.96846
3.94819
0.137661
5.80893
1.07363
7.47678
1.83162
8.72573
2.19515
10.0949
2.22487
10.6697
1.9735
10.2236
1.55614
9.38586
1.09687
8.71212
0.642891
8.38228
0.166515
8.29918
-0.306757
8.27315
-0.788481
8.30391
-1.24667
8.41886
-1.70213
8.77103
-2.11187
9.46965
-2.3348
10.289
-2.26537
10.6474
-1.86721
9.89032
-1.04076
8.54579
-0.0916412
7.36479
1.02829
5.66796
0.896077
3.74901
2.14659
-0.839081
3.07297
-1.26555
4.37885
-0.977723
5.52146
-0.35124
6.85173
0.262446
8.11
0.594766
9.76138
0.862276
10.4038
0.977285
10.1081
0.910634
9.45215
0.725215
8.89806
0.476856
8.63186
0.227031
8.55093
-0.0422423
8.54436
-0.286604
8.54941
-0.520904
8.65307
-0.689165
8.93913
-0.713757
9.49371
-0.54774
10.1203
-0.255612
10.3532
0.0228748
9.61371
0.650783
7.91845
1.27704
6.73997
1.47482
5.47336
0.860918
4.37142
3.01673
-0.695076
3.77445
-1.50315
5.19118
-1.75471
5.77345
-1.56849
6.66746
-1.281
7.82143
-0.812661
9.29518
-0.364671
9.95798
-0.0711604
9.81313
0.0600056
9.32121
0.0860055
8.87267
0.0561095
8.66317
-0.0289613
8.63801
-0.115594
8.63244
-0.204775
8.63894
-0.237733
8.68488
-0.205187
8.90526
-0.0742421
9.36248
0.215049
9.83128
0.694545
9.87252
1.19464
9.11356
1.45962
7.6553
1.66384
6.5379
1.43426
5.70369
0.652814
5.15995
3.68105
-0.420118
4.19739
-1.20209
5.97217
-1.72426
6.29691
-1.81431
6.76008
-1.663
7.67009
-1.26023
8.89554
-0.795203
9.49347
-0.43676
9.4538
-0.201551
9.08613
-0.0879065
8.75899
-0.0597862
8.63608
-0.0457171
8.62533
-0.0461398
8.63353
-0.0281557
8.62063
-0.000382437
8.65552
0.119276
8.78321
0.371914
9.10908
0.766286
9.43771
1.24487
9.39503
1.65685
8.70337
1.77343
7.53877
1.66897
6.64651
1.12526
6.25
0.339665
5.94111
4.01851
-0.261442
4.46135
-1.15836
6.86838
-1.77095
6.91233
-1.98571
6.97631
-1.93578
7.6211
-1.57041
8.53361
-1.12339
9.04733
-0.719399
9.04864
-0.433876
8.8
-0.243456
8.56783
-0.0936842
8.48664
0.0154013
8.51692
0.124333
8.52473
0.231577
8.51306
0.389035
8.49659
0.597596
8.5723
0.903295
8.80118
1.31883
9.02254
1.75832
8.95671
2.11166
8.35065
2.15125
7.50015
1.91131
6.8845
1.31369
6.85102
0.373714
6.88029
4.40715
-0.448113
4.91378
-1.4377
7.8529
-1.87601
7.35415
-2.23951
7.34043
-2.25484
7.63807
-1.9972
8.279
-1.58097
8.63098
-1.16025
8.62735
-0.813324
8.45202
-0.568276
8.32189
-0.39679
8.31516
-0.218659
8.33891
-0.0525011
8.35847
0.130544
8.32979
0.315427
8.3112
0.555714
8.33036
0.900773
8.45365
1.32428
8.59723
1.72103
8.56046
1.97904
8.09382
1.99393
7.48465
1.66111
7.21549
1.22239
7.28683
0.311555
7.77133
4.73552
-0.460385
5.37916
-1.19672
8.5903
-1.63222
7.79133
-1.965
7.67407
-2.03288
7.70767
-1.80864
8.05776
-1.44935
8.27187
-1.07122
8.24758
-0.759316
8.13897
-0.506376
8.06817
-0.264123
8.07257
-0.0602461
8.135
0.150434
8.14773
0.354793
8.1256
0.60055
8.0656
0.874099
8.05626
1.20077
8.12526
1.58329
8.212
1.93341
8.20894
2.11593
7.90904
2.0357
7.56574
1.68502
7.56383
1.24122
7.72831
0.537175
8.47498
5.2845
-0.561992
5.94777
-1.15611
9.19278
-1.60683
8.24578
-1.79819
7.86665
-1.93776
7.84892
-1.81696
7.93894
-1.49256
7.94614
-1.12757
7.88202
-0.787384
7.79837
-0.498318
7.7786
-0.259656
7.83379
-0.00850503
7.88359
0.228856
7.91031
0.484257
7.87037
0.72266
7.82771
1.00734
7.77149
1.35534
7.77648
1.73441
7.83052
2.04535
7.89588
2.14378
7.80893
1.99924
7.70614
1.83717
7.72496
1.40187
8.165
0.776599
9.11253
6.06801
-0.877559
6.83194
-1.3885
9.71142
-1.86004
8.71909
-2.02419
8.0323
-2.13628
7.9623
-2.03576
7.83997
-1.75758
7.66772
-1.42161
7.54544
-1.11277
7.48935
-0.837096
7.50246
-0.549434
7.54573
-0.293016
7.62704
-0.0214484
7.63868
0.24036
7.60869
0.537111
7.53151
0.829507
7.47951
1.13356
7.47232
1.45196
7.51052
1.72406
7.62108
1.80689
7.72435
1.72234
7.79383
1.55863
7.8784
1.10088
8.61816
0.566882
9.65478
6.62996
-0.5622
7.3931
-1.23959
10.3886
-1.64616
9.12603
-1.78146
8.16764
-1.77879
7.96123
-1.69956
7.76267
-1.47289
7.44032
-1.19744
7.27031
-0.897441
7.18958
-0.602441
7.2072
-0.343691
7.28669
-0.0586325
7.34158
0.211521
7.36824
0.494662
7.32538
0.751711
7.27471
1.04067
7.19045
1.3495
7.16349
1.64146
7.21825
1.84326
7.41703
1.89812
7.66836
1.87989
7.81258
1.712
8.04435
1.36071
8.97254
0.726115
10.288
7.34885
-0.23496
7.62609
-0.754723
10.9045
-1.52034
9.89207
-1.60122
8.24983
-1.62326
7.98605
-1.52409
7.66512
-1.32096
7.23712
-1.08767
7.03741
-0.846883
6.94843
-0.603973
6.96376
-0.320166
7.00236
-0.062273
7.08315
0.211149
7.09442
0.462815
7.07335
0.746234
6.99132
1.00093
6.93607
1.23822
6.92579
1.45946
6.99741
1.67745
7.19677
1.76581
7.57825
1.74788
7.82926
1.77004
8.02316
1.0362
9.70872
0.479175
10.8439
7.81997
-0.464388
8.08798
-0.914166
11.3511
-1.75674
10.7328
-1.75754
8.25292
-1.74307
7.97427
-1.63057
7.55368
-1.45558
7.06209
-1.23528
6.81788
-0.993009
6.70635
-0.726772
6.69696
-0.489231
6.76403
-0.213843
6.80699
0.048118
6.83176
0.327281
6.79352
0.568999
6.74934
0.827139
6.67724
1.07418
6.67823
1.29596
6.77615
1.44485
7.0479
1.54521
7.47644
1.53728
7.83674
1.44509
8.11782
0.590161
10.5691
0.2061
11.2254
8.02027
-0.0717277
8.16071
-0.468417
11.7448
-1.17955
11.4457
-1.48717
8.56285
-1.50441
7.99398
-1.35957
7.4096
-1.18657
6.88857
-0.986259
6.61832
-0.779155
6.49888
-0.574797
6.49177
-0.307037
6.49537
-0.0621981
6.56117
0.204341
6.56431
0.446589
6.55043
0.711563
6.48387
0.926699
6.46226
1.11936
6.48464
1.31661
6.57788
1.50266
6.86268
1.62204
7.3541
1.62075
7.83635
1.41856
8.32064
0.599919
11.3846
0.251345
11.573
8.27376
0.0500734
8.11697
-0.0973124
11.89
-0.791378
12.1402
-1.39764
9.17134
-1.31145
7.90955
-1.23183
7.33023
-1.07728
6.73401
-0.91423
6.45671
-0.731118
6.31606
-0.499013
6.25893
-0.302989
6.29843
-0.0613193
6.31835
0.165083
6.33678
0.407792
6.3066
0.602476
6.2883
0.819913
6.24366
1.01273
6.29153
1.17088
6.41868
1.31399
6.72033
1.40667
7.26036
1.59247
7.64945
0.853658
9.05948
0.248049
11.9937
0.000921561
11.8217
8.28157
-0.266174
8.39426
-0.349571
11.9711
-0.738245
12.5283
-1.40766
9.84174
-1.38578
7.8888
-1.29445
7.23873
-1.12438
6.56385
-0.956663
6.29009
-0.780871
6.13956
-0.629327
6.10712
-0.395782
6.06418
-0.191051
6.11261
0.0414531
6.10309
0.250506
6.09636
0.484545
6.05325
0.648771
6.07912
0.809651
6.12967
0.974751
6.25185
1.14596
6.54805
1.1957
7.20838
1.15534
7.6888
0.403783
9.80921
-0.0671511
12.4695
-0.0917166
11.8503
8.19914
-0.102227
8.50403
0.0329495
11.8347
-0.245972
12.8061
-1.0113
10.6077
-1.15662
8.03416
-1.06884
7.15114
-0.957955
6.45414
-0.797991
6.13129
-0.637762
5.97962
-0.425562
5.89473
-0.258621
5.89676
-0.0409601
5.89424
0.158358
5.90273
0.376213
5.87729
0.537702
5.89076
0.735716
5.88002
0.909587
5.95516
1.0551
6.10517
1.16327
6.43957
1.31506
7.05536
1.14878
7.85493
0.39768
10.5617
0.160397
12.7079
0.230006
11.7908
8.43347
0.0367872
8.46737
0.165236
11.706
0.230379
12.7401
-0.486691
11.3217
-1.06695
8.61412
-0.921558
7.00573
-0.833108
6.36542
-0.713423
6.01278
-0.554176
5.82006
-0.425735
5.76662
-0.226082
5.6973
-0.0540213
5.72175
0.143538
5.70447
0.309114
5.71082
0.507535
5.69159
0.642426
5.74512
0.782291
5.81423
0.919116
5.96741
1.01386
6.34153
1.20508
6.86298
0.621744
8.43604
-0.0624265
11.2492
-0.0521726
12.6985
0.0537498
11.695
8.48774
-0.204541
8.66946
-0.174161
11.6748
0.0249593
12.5387
-0.400921
11.743
-0.978024
9.19018
-1.01103
7.03855
-0.889482
6.24378
-0.784297
5.90822
-0.658188
5.69458
-0.46839
5.5775
-0.326001
5.55509
-0.139287
5.53501
0.0257099
5.53923
0.209347
5.52671
0.346806
5.55362
0.525452
5.5662
0.667166
5.67184
0.7519
5.88191
0.818221
6.27492
0.756314
6.92583
0.025127
9.16747
-0.467838
11.7451
-0.128341
12.3706
-0.0228334
11.5984
8.46573
-0.0498348
8.71342
0.0454311
11.5759
0.441484
12.1396
0.14437
12.035
-0.606475
9.93947
-0.848839
7.28046
-0.678653
6.07249
-0.616985
5.848
-0.480883
5.55922
-0.366005
5.46336
-0.18857
5.37835
-0.0374891
5.3842
0.13682
5.36508
0.284418
5.37919
0.463721
5.37453
0.580321
5.45036
0.697411
5.55444
0.78057
5.79839
0.976947
6.07591
0.721142
7.18233
-0.0541971
9.94321
-0.250791
11.9444
0.151523
11.9778
0.179448
11.5754
8.64424
0.0672487
8.64313
0.141983
11.4968
0.427084
11.8494
0.532563
11.9255
-0.0656031
10.5346
-0.563832
7.77773
-0.602633
6.11037
-0.5342
5.78063
-0.456659
5.48221
-0.301457
5.30901
-0.183973
5.26142
-0.0306337
5.2314
0.107215
5.22771
0.264678
5.2222
0.378891
5.26071
0.533224
5.29669
0.620272
5.46737
0.722538
5.69918
0.70547
6.09197
0.238259
7.64981
-0.354549
10.5357
-0.290602
11.8843
0.00365995
11.6836
0.0601082
11.523
8.70614
-0.106146
8.75126
-0.0608908
11.4506
0.16402
11.6211
0.487085
11.5989
0.0220078
10.9967
-0.521359
8.31846
-0.659822
6.24773
-0.565318
5.68728
-0.470736
5.38841
-0.387809
5.22664
-0.243984
5.11838
-0.120107
5.10814
0.0237086
5.08452
0.149973
5.09655
0.295464
5.11602
0.372122
5.22148
0.450887
5.38899
0.545004
5.60569
0.315756
6.31954
-0.376809
8.34864
-0.786018
10.9456
-0.385131
11.4819
-0.210185
11.5068
-0.141727
11.4572
8.56849
0.0391361
8.71866
0.100915
11.3886
0.270434
11.4492
0.652887
11.2126
0.636702
11.0109
-0.0194633
8.97031
-0.446346
6.67422
-0.44501
5.68702
-0.367575
5.31149
-0.247465
5.10736
-0.154469
5.02592
-0.0226636
4.97695
0.0980618
4.96446
0.227756
4.96753
0.322024
5.02255
0.448719
5.09579
0.545874
5.29316
0.525007
5.62905
0.12542
6.71928
-0.519731
9.0011
-0.459646
10.8862
-0.114154
11.1292
0.052031
11.3372
0.108949
11.4041
8.68555
0.172877
8.55224
0.295532
11.2663
0.416427
11.3285
0.638756
10.989
0.895845
10.7525
0.280952
9.58397
-0.172796
7.12702
-0.319849
5.83489
-0.266174
5.25835
-0.218746
5.0604
-0.122289
4.93007
-0.0235477
4.8788
0.0930986
4.84845
0.191615
4.86968
0.292689
4.92235
0.347317
5.04326
0.413032
5.22798
0.264349
5.77784
-0.221066
7.20436
-0.826423
9.6075
-0.486257
10.5445
-0.242982
10.8819
-0.141166
11.2328
-0.0625506
11.3305
8.63404
-0.0206926
8.5796
0.0693084
11.1766
0.155544
11.2423
0.396857
10.7486
0.819011
10.3309
0.639603
9.76259
-0.0212403
7.78705
-0.345092
6.15879
-0.325906
5.23919
-0.24545
4.98046
-0.172688
4.85785
-0.080152
4.78683
0.0130528
4.75587
0.104443
4.77892
0.171402
4.85616
0.241387
4.97446
0.222613
5.24848
-0.122639
6.12649
-0.840777
7.92395
-0.944461
9.71185
-0.594407
10.1907
-0.351454
10.6364
-0.295404
11.1748
-0.150102
11.1913
8.49276
0.111158
8.47269
0.295847
10.9927
0.360433
11.1782
0.531562
10.5792
0.819206
10.0453
0.947717
9.63441
0.430942
8.30196
-0.049625
6.63912
-0.172346
5.36295
-0.157057
4.96581
-0.0839361
4.78533
-0.0138032
4.71742
0.0669681
4.67575
0.139744
4.70687
0.215558
4.78152
0.241649
4.95024
0.0673475
5.42345
-0.434295
6.6321
-0.914799
8.40855
-0.681387
9.47615
-0.416029
9.9249
-0.236645
10.4581
-0.185051
11.1242
-0.0352311
11.0454
8.46393
0.16529
8.31121
0.379019
10.7804
0.452121
11.1047
0.584345
10.4485
0.815313
9.81644
1.19248
9.25846
0.900164
8.59263
0.18765
7.34718
-0.050477
5.60062
-0.0839339
4.99944
-0.0406266
4.74252
0.00936467
4.6681
0.0560735
4.62968
0.115671
4.64797
0.159829
4.73819
0.129975
4.98118
-0.140511
5.69512
-0.815852
7.31339
-1.04015
8.62778
-0.688488
9.12357
-0.444201
9.68164
-0.310557
10.3269
-0.255015
11.0665
-0.0736575
10.8636
8.39054
0.037874
8.27681
0.237242
10.5839
0.346011
10.9968
0.421371
10.3747
0.613026
9.62671
0.876087
8.997
0.95367
8.51422
0.584781
7.71609
0.0508296
6.13499
-0.101394
5.15234
-0.0770229
4.71892
-0.0409059
4.63263
-0.00988104
4.59931
0.0282968
4.61056
0.0333207
4.73425
-0.130886
5.14703
-0.764945
6.32999
-1.14267
7.68715
-0.97927
8.46336
-0.738381
8.88433
-0.5787
9.52391
-0.527464
10.2778
-0.411745
10.9476
-0.173345
10.6198
8.21502
0.0748172
8.20645
0.31207
10.3499
0.462523
10.8467
0.557385
10.2796
0.689235
9.4958
0.858881
8.82906
1.18805
8.18504
0.932968
7.97141
0.297366
6.76912
0.0474588
5.40229
0.00859026
4.75851
0.01469
4.62728
0.0154641
4.5992
0.024262
4.60272
-0.0419339
4.80164
-0.319476
5.42621
-0.813888
6.82725
-1.13177
8.0005
-0.799996
8.13073
-0.649229
8.73391
-0.530434
9.40482
-0.443157
10.1888
-0.300633
10.7979
-0.0558231
10.3692
8.15653
0.105739
8.10618
0.434238
10.0255
0.629208
10.6533
0.638847
10.2698
0.713498
9.42141
0.891482
8.65219
1.07576
8.00109
1.16644
7.88062
0.84753
7.0886
0.204719
6.04537
0.0634341
4.90054
0.0310606
4.66038
0.0124526
4.6185
-0.0162604
4.63252
-0.186456
4.97338
-0.843498
6.08443
-1.12807
7.10974
-0.99273
7.86102
-0.814239
7.95054
-0.651133
8.57017
-0.597793
9.34855
-0.572121
10.1599
-0.374691
10.5944
-0.059006
10.0477
8.09621
0.00601933
-0.149757
0.0056065
-0.165233
0.0025656
-0.173194
-0.000573201
-0.171029
-0.00360009
-0.182155
-0.00386109
-0.187796
-0.00289272
-0.204158
-0.00367058
-0.219375
-0.00583292
-0.234726
-0.00909545
-0.246832
-0.0134214
-0.255805
-0.016322
-0.263101
-0.0173902
-0.272623
-0.0172739
-0.284268
-0.0164359
-0.297708
-0.0156634
-0.315508
-0.0129636
-0.333554
-0.00251986
-0.351986
0.0152731
-0.388108
0.0393458
-0.443896
0.0678702
-0.506785
0.0986285
-0.543227
0.128817
-0.614924
0.155258
-0.705381
0.12874
-0.859491
-0.00105414
-1.44704
-0.241572
-2.82705
-0.248508
-2.79861
-0.149086
-2.85649
-3.06641
0.0141452
-0.167897
0.0134584
-0.171633
0.00995692
-0.176739
0.00612188
-0.172923
0.00228075
-0.182009
0.00115171
-0.18669
0.00135415
-0.202654
0.000500543
-0.216557
-0.000533347
-0.232274
-0.00310506
-0.245867
-0.00626338
-0.258022
-0.00990263
-0.267802
-0.0125923
-0.277617
-0.0144629
-0.288993
-0.015528
-0.304057
-0.0164575
-0.320822
-0.0151031
-0.335944
-0.00985333
-0.357529
0.0031931
-0.391062
0.0241306
-0.433505
0.0525005
-0.480554
0.0803173
-0.533618
0.107727
-0.6177
0.0977259
-0.729219
-0.00817412
-1.07937
-0.231365
-2.53851
-0.335108
-2.80246
-0.248556
-2.75133
-0.0987315
-2.76751
-2.87114
0.0071452
-0.180071
0.00359659
-0.173473
-0.0010992
-0.176481
-0.00643431
-0.172186
-0.011678
-0.180719
-0.0135112
-0.184989
-0.0144207
-0.200709
-0.0151213
-0.213744
-0.0154885
-0.230547
-0.0165891
-0.247023
-0.0185537
-0.261233
-0.0208887
-0.273685
-0.02262
-0.286034
-0.0235642
-0.298658
-0.0247463
-0.313679
-0.026134
-0.330207
-0.0254861
-0.34528
-0.0233802
-0.366707
-0.0138428
-0.394732
0.00571868
-0.430353
0.031434
-0.472079
0.05903
-0.537633
0.0760004
-0.621847
-0.00994572
-0.818918
-0.323375
-2.11845
-0.409719
-2.65806
-0.36681
-2.68054
-0.246152
-2.67762
-0.0806925
-2.67196
-2.77874
-0.000286537
-0.181909
-0.00522204
-0.17183
-0.00996821
-0.175068
-0.0162101
-0.172005
-0.0224714
-0.179597
-0.0250794
-0.183405
-0.0269263
-0.198612
-0.0278435
-0.212221
-0.0284665
-0.230537
-0.0291887
-0.249455
-0.0301706
-0.26726
-0.031629
-0.282543
-0.0325908
-0.298017
-0.0346738
-0.3115
-0.0367256
-0.325429
-0.0386093
-0.340716
-0.038734
-0.356295
-0.0388286
-0.376006
-0.0315649
-0.398977
-0.0142319
-0.430201
0.0107479
-0.470644
0.0311184
-0.540381
-0.0108533
-0.659837
-0.231292
-1.1549
-0.531338
-2.42804
-0.501533
-2.56475
-0.416039
-2.54714
-0.232257
-2.57852
-0.0692849
-2.51999
-2.66454
-0.000937528
-0.178289
-0.00797088
-0.170327
-0.0136253
-0.172555
-0.0207716
-0.171273
-0.0273545
-0.179268
-0.0307491
-0.183372
-0.0332525
-0.198914
-0.0345442
-0.213818
-0.0355319
-0.23374
-0.0357246
-0.262648
-0.0355611
-0.286232
-0.0365524
-0.294009
-0.0370589
-0.311182
-0.0396792
-0.325057
-0.0430093
-0.338756
-0.0461367
-0.352375
-0.0468217
-0.36742
-0.0481405
-0.384753
-0.0421212
-0.403636
-0.0269987
-0.430502
-0.00643824
-0.472148
-0.0153486
-0.551771
-0.136143
-0.814293
-0.584271
-2.13639
-0.632536
-2.47071
-0.567191
-2.44351
-0.405199
-2.45716
-0.217831
-2.45728
-0.0665351
-2.39359
-2.56473
-0.00267731
-0.177339
-0.0108282
-0.170217
-0.0173464
-0.171724
-0.0247328
-0.171693
-0.0314739
-0.181157
-0.0358248
-0.186908
-0.0391052
-0.203538
-0.0411094
-0.21996
-0.0428622
-0.244164
-0.0431857
-0.272341
-0.0408765
-0.295581
-0.0405859
-0.312359
-0.0408027
-0.327307
-0.0437774
-0.338623
-0.047638
-0.35022
-0.0518129
-0.364238
-0.0534348
-0.3782
-0.0564746
-0.394955
-0.0517066
-0.407401
-0.0394106
-0.42911
-0.0331177
-0.473325
-0.105459
-0.613663
-0.552718
-1.51369
-0.705827
-2.32932
-0.697133
-2.35051
-0.556716
-2.37731
-0.378587
-2.35122
-0.216202
-2.35229
-0.0707462
-2.31437
-2.48323
-0.00496746
-0.178492
-0.0141724
-0.170788
-0.0217074
-0.172358
-0.0292602
-0.173791
-0.0363967
-0.185177
-0.0415438
-0.193248
-0.0455327
-0.210943
-0.0483554
-0.228699
-0.0502158
-0.255901
-0.0496466
-0.275004
-0.0481275
-0.299185
-0.0462137
-0.319277
-0.0459291
-0.335549
-0.0480768
-0.349208
-0.0530265
-0.359963
-0.0564755
-0.371147
-0.0606285
-0.384793
-0.061894
-0.399867
-0.0597931
-0.407736
-0.0560176
-0.427389
-0.0921955
-0.497214
-0.308954
-0.847173
-0.746562
-2.02442
-0.790964
-2.26346
-0.702965
-2.27341
-0.536455
-2.29598
-0.366038
-2.2576
-0.223756
-2.27986
-0.0904997
-2.26652
-2.4094
-0.00748686
-0.179829
-0.0185278
-0.171431
-0.0269658
-0.174266
-0.0350023
-0.176745
-0.0427789
-0.190154
-0.04861
-0.199188
-0.0532608
-0.217445
-0.0567277
-0.236015
-0.0586029
-0.258447
-0.0577245
-0.27829
-0.0561689
-0.302348
-0.0535702
-0.322502
-0.0523923
-0.338979
-0.0539492
-0.354899
-0.0580015
-0.366274
-0.0630088
-0.373654
-0.0665254
-0.383792
-0.0662178
-0.392085
-0.0684089
-0.400808
-0.0874919
-0.431689
-0.211065
-0.589731
-0.772338
-1.68435
-0.857852
-2.17012
-0.838952
-2.16019
-0.684874
-2.21176
-0.511346
-2.20509
-0.369752
-2.19045
-0.232593
-2.2258
-0.105026
-2.2256
-2.34044
-0.0104095
-0.180539
-0.0229472
-0.172351
-0.0327461
-0.176362
-0.0416508
-0.178666
-0.0504291
-0.192889
-0.056451
-0.201989
-0.0616344
-0.220021
-0.0656422
-0.238876
-0.0675067
-0.259184
-0.0662793
-0.279265
-0.0645598
-0.301105
-0.0616344
-0.322997
-0.0592132
-0.340377
-0.0595246
-0.354715
-0.0638951
-0.364776
-0.0688947
-0.373364
-0.0692674
-0.375749
-0.0735326
-0.38139
-0.0856633
-0.396396
-0.162577
-0.46309
-0.647065
-0.872425
-0.902081
-1.92774
-0.950601
-2.06124
-0.825006
-2.10971
-0.672775
-2.14388
-0.516968
-2.12775
-0.376473
-2.13728
-0.242593
-2.17782
-0.113248
-2.17932
-2.27737
-0.0132648
-0.18155
-0.0272631
-0.172561
-0.0384817
-0.176971
-0.0485599
-0.177734
-0.0573992
-0.191369
-0.0641782
-0.201731
-0.0702174
-0.219953
-0.0740446
-0.238002
-0.0761185
-0.256836
-0.074762
-0.276775
-0.070932
-0.296423
-0.0682496
-0.318015
-0.0665023
-0.335421
-0.0647206
-0.350026
-0.0667951
-0.359768
-0.0706744
-0.363668
-0.0740294
-0.36476
-0.0839931
-0.371034
-0.126012
-0.403486
-0.3043
-0.579746
-0.938363
-1.61315
-1.00943
-1.98471
-0.962932
-1.99785
-0.817169
-2.05498
-0.655482
-2.07006
-0.520431
-2.06885
-0.386514
-2.09069
-0.25604
-2.13013
-0.121147
-2.1272
-2.21242
-0.0163326
-0.182521
-0.0317985
-0.169561
-0.0450216
-0.173575
-0.0555964
-0.174195
-0.0645948
-0.187804
-0.0717807
-0.199101
-0.0778363
-0.217228
-0.0813651
-0.233675
-0.0840924
-0.252352
-0.0830139
-0.268465
-0.0787576
-0.291217
-0.0749995
-0.310909
-0.0709974
-0.327345
-0.0676707
-0.341493
-0.0699184
-0.351608
-0.0719746
-0.353017
-0.0813152
-0.353127
-0.10286
-0.369519
-0.209563
-0.4399
-0.826402
-0.867883
-1.03654
-1.81454
-1.07462
-1.88344
-0.948048
-1.95424
-0.812416
-1.99885
-0.663875
-2.0013
-0.526953
-2.01482
-0.393672
-2.04413
-0.261477
-2.07854
-0.127259
-2.07205
-2.14266
-0.0186242
-0.180946
-0.0359127
-0.161384
-0.0510473
-0.164926
-0.0623124
-0.167752
-0.0704227
-0.183629
-0.078499
-0.195107
-0.0844813
-0.211423
-0.0879212
-0.227921
-0.0909047
-0.246685
-0.0889899
-0.262143
-0.0837915
-0.282058
-0.0793885
-0.300713
-0.0750013
-0.317217
-0.0710401
-0.331638
-0.0729779
-0.342553
-0.07533
-0.345603
-0.0905684
-0.349437
-0.144306
-0.380175
-0.357975
-0.555413
-1.05123
-1.39572
-1.13484
-1.80609
-1.07185
-1.8428
-0.943123
-1.90489
-0.802909
-1.93533
-0.667515
-1.93942
-0.532219
-1.95979
-0.397802
-1.9939
-0.267142
-2.02326
-0.129995
-2.01701
-2.07533
-0.0206496
-0.172413
-0.0400888
-0.148383
-0.0566702
-0.152409
-0.0681257
-0.158767
-0.0762869
-0.177397
-0.0843024
-0.190723
-0.0898439
-0.206296
-0.0942885
-0.219763
-0.0955537
-0.239545
-0.0942086
-0.257803
-0.089259
-0.271924
-0.0844437
-0.289839
-0.0792798
-0.306902
-0.0740922
-0.321619
-0.0717724
-0.333376
-0.0802685
-0.337588
-0.107265
-0.351508
-0.226923
-0.416895
-0.887272
-0.813191
-1.15317
-1.4925
-1.17542
-1.72263
-1.0593
-1.80272
-0.940102
-1.85228
-0.797228
-1.86601
-0.664746
-1.87723
-0.534605
-1.9034
-0.40287
-1.93966
-0.27083
-1.96502
-0.131902
-1.96456
-2.01285
-0.0231648
-0.156072
-0.0442669
-0.131752
-0.0624629
-0.137209
-0.0738651
-0.146794
-0.0818768
-0.167305
-0.0892898
-0.186254
-0.0950188
-0.20229
-0.0988361
-0.211403
-0.0985873
-0.230599
-0.0989989
-0.246249
-0.0936388
-0.261135
-0.0867163
-0.279155
-0.0823801
-0.297468
-0.0756669