/*--------------------------------*- C++ -*----------------------------------*\
| =========                 |                                                 |
| \\      /  F ield         | OpenFOAM: The Open Source CFD Toolbox           |
|  \\    /   O peration     | Version:  2112                                  |
|   \\  /    A nd           | Website:  www.openfoam.com                      |
|    \\/     M anipulation  |                                                 |
\*---------------------------------------------------------------------------*/
FoamFile
{
    version     2.0;
    format      ascii;
    arch        "LSB;label=32;scalar=64";
    class       surfaceScalarField;
    location    "0.00367";
    object      phi;
}
// * * * * * * * * * * * * * * * * * * * * * * * * * * * * * * * * * * * * * //

dimensions      [1 0 -1 0 0 0 0];

oriented        oriented;

internalField   nonuniform List<scalar> 
27436
(
-0.53337
8.19274
-0.0931902
7.47159
-0.0834232
7.78619
-0.0693652
7.78648
-0.069517
7.79291
-0.0542479
7.78181
-0.0395487
7.78235
-0.0283984
7.78491
-0.019482
7.78788
-0.0136798
7.79074
-0.00844332
7.79064
-0.000686213
7.78877
0.0132976
7.78305
0.0310296
7.78007
0.0466067
7.78199
0.0539571
7.78909
0.054786
7.79403
0.0629455
7.78816
0.0746554
7.78433
0.0942484
7.77803
0.0962205
7.79105
0.111435
7.78572
0.123501
7.78279
0.571969
7.46074
8.21187
-0.247246
8.43998
-0.0963431
7.32068
-0.0818871
7.77173
-0.0566466
7.76127
-0.0554117
7.79168
-0.0474355
7.77401
-0.0383821
7.77359
-0.0407579
7.78751
-0.0219907
7.76928
-0.0109627
7.78039
0.00077837
7.77983
0.0161928
7.77558
0.0156033
7.78423
0.0214807
7.77412
0.0209091
7.78265
0.0387794
7.77127
0.0512089
7.78163
0.0718929
7.76758
0.0679258
7.78823
0.0752394
7.77064
0.072092
7.79417
0.102784
7.75505
0.114115
7.77139
0.268216
7.30566
8.48505
-0.227277
8.66726
-0.141249
7.23466
-0.120744
7.75122
-0.107547
7.74809
-0.098204
7.78237
-0.0936391
7.76959
-0.0910306
7.77107
-0.08863
7.78476
-0.0659487
7.74795
-0.0510481
7.76335
-0.0371642
7.76287
-0.0163634
7.75531
-0.0128167
7.78054
-0.0109406
7.7718
-0.00670123
7.77845
0.0153384
7.74939
0.0280267
7.769
0.0513021
7.74439
0.0539905
7.78549
0.0536279
7.77096
0.0619441
7.78585
0.0782813
7.73877
0.100339
7.7489
0.192088
7.21585
8.68389
-0.169655
8.83691
-0.139588
7.20459
-0.134319
7.74596
-0.112086
7.7259
-0.104632
7.77493
-0.0994247
7.76447
-0.0958555
7.7675
-0.0839013
7.77236
-0.0632692
7.72707
-0.0455538
7.74293
-0.02869
7.74239
-0.00764962
7.7323
0.00246909
7.77031
0.0055297
7.76832
0.0147852
7.76924
0.039557
7.72479
0.0539802
7.75455
0.0766015
7.7216
0.0871225
7.77492
0.0867429
7.77131
0.091631
7.78095
0.117977
7.71234
0.111188
7.75538
0.161698
7.16697
8.84419
-0.0736919
8.9106
-0.0365129
7.16741
-0.0914753
7.80092
-0.0585316
7.69299
-0.0594411
7.77587
-0.0594296
7.76448
-0.0594824
7.7675
-0.0486972
7.76113
-0.0309169
7.70856
-0.0160592
7.72481
-0.000984254
7.72298
0.017064
7.71135
0.0269831
7.76
0.0277033
7.76742
0.0354421
7.76159
0.059041
7.70121
0.0683403
7.74522
0.0882537
7.70154
0.0979811
7.76518
0.0929276
7.77636
0.0930556
7.78081
0.123419
7.68188
0.0897556
7.78876
0.0977479
7.15889
8.93576
0.118202
8.7924
0.0437598
7.24184
-0.0488145
7.89349
-0.00744049
7.65163
-0.0217115
7.79019
-0.0295087
7.77226
-0.0336686
7.77152
-0.0270783
7.75398
-0.0134018
7.69461
-0.00345586
7.71038
0.00570498
7.70914
0.0196667
7.69458
0.0270224
7.75238
0.0240938
7.77061
0.0282431
7.75758
0.0469246
7.68255
0.0516065
7.74048
0.0650167
7.68803
0.0718743
7.75832
0.0622657
7.78598
0.0475555
7.79552
0.0861934
7.64321
-0.0140311
7.88875
-0.0197447
7.16452
8.91097
0.304422
8.48798
0.136186
7.41008
-0.00429961
8.03452
0.0282124
7.61863
-0.0112519
7.82971
-0.0436879
7.80471
-0.0695234
7.79724
-0.0812732
7.76525
-0.0868222
7.69861
-0.0998653
7.71772
-0.110558
7.71444
-0.119707
7.70057
-0.126491
7.75946
-0.148795
7.79412
-0.162048
7.77108
-0.160751
7.68132
-0.18158
7.76124
-0.190319
7.69665
-0.202872
7.77091
-0.236072
7.81923
-0.268063
7.82755
-0.288041
7.66315
-0.354947
7.95563
-0.657571
7.46735
8.25059
0.873365
7.61462
0.521867
7.76158
0.414371
8.14206
0.338544
7.69443
0.277535
7.89077
0.225245
7.85711
0.183581
7.83888
0.158393
7.79004
0.135174
7.71845
0.109881
7.73829
0.0828058
7.73569
0.0614633
7.71815
0.0393196
7.78197
0.00574443
7.8289
-0.0190267
7.79604
-0.0389797
7.70135
-0.0687184
7.7909
-0.0948208
7.72261
-0.122769
7.7989
-0.172378
7.86895
-0.233277
7.88851
-0.282746
7.71257
-0.407695
8.08065
-0.693672
7.75323
7.55773
0.593967
7.02068
0.410039
7.9456
0.240616
8.31144
0.195634
7.73942
0.141866
7.94448
0.101874
7.89724
0.078209
7.86281
0.0729085
7.79556
0.0731493
7.71445
0.0734534
7.73495
0.0708854
7.73294
0.0716594
7.71377
0.0771582
7.77714
0.075488
7.8313
0.0776204
7.79398
0.0758664
7.70314
0.0727758
7.79389
0.0673837
7.72794
0.0593791
7.80708
0.0230249
7.90552
-0.0315506
7.94327
-0.0495783
7.73073
-0.220575
8.252
-0.372752
7.90573
7.18957
-3.03665
10.0575
-3.37211
8.28101
-2.75473
7.69391
-2.61127
7.59582
-2.30358
7.637
-2.00266
7.59715
-1.70363
7.56438
-1.37764
7.46989
-1.09081
7.42514
-0.793516
7.43614
-0.503327
7.43913
-0.211252
7.42081
0.0961986
7.4708
0.407554
7.52017
0.707157
7.49445
0.97592
7.43437
1.29095
7.47878
1.56218
7.45664
1.90074
7.46872
2.20431
7.60234
2.50545
7.6425
2.63293
7.60339
3.21115
7.67427
2.93817
8.17945
10.1302
-4.22886
14.287
-4.34787
8.40021
-4.12577
7.47123
-3.80931
7.27944
-3.36931
7.19741
-2.89347
7.12206
-2.39789
7.06954
-1.92941
7.00212
-1.48753
6.98308
-1.03246
6.98066
-0.577956
6.98315
-0.123384
6.96888
0.344299
7.00492
0.826723
7.03765
1.2893
7.03199
1.70809
7.01563
2.1659
7.02095
2.61566
7.00677
3.07732
7.00721
3.60766
7.0725
4.07807
7.17284
4.39424
7.28786
4.57723
7.49177
4.51965
8.23795
14.6485
-2.69224
16.9805
-4.92663
10.6342
-4.92873
7.47188
-4.19896
6.54929
-3.79738
6.79628
-3.31225
6.63776
-2.77711
6.53566
-2.27059
6.49787
-1.7735
6.48797
-1.26965
6.47737
-0.756741
6.47176
-0.253531
6.47163
0.26467
6.48921
0.795084
6.50716
1.31802
6.50947
1.79589
6.53802
2.28603
6.53087
2.78999
6.50266
3.29585
6.50152
3.80036
6.56866
4.25886
6.71554
5.02908
6.51881
4.83224
7.68908
2.72044
10.3505
17.3687
2.36958
14.6121
0.577381
12.4253
-4.79877
12.8484
-3.82163
5.57153
-4.01868
6.99394
-3.51202
6.13234
-2.9712
5.99826
-2.46357
5.99638
-1.94281
5.97295
-1.41024
5.94771
-0.867599
5.93321
-0.32707
5.93856
0.225313
5.93934
0.787121
5.94561
1.33844
5.95889
1.87875
5.99827
2.39297
6.01657
2.87551
6.01968
3.3968
5.98031
3.9134
6.05328
3.83266
6.79916
4.88659
5.46702
-0.405109
12.9813
-2.37868
12.3228
14.9901
2.46754
12.1458
3.29508
11.597
3.70199
12.4431
-0.623058
9.89806
-4.30783
10.6779
-3.86161
5.68792
-3.29642
5.44069
-2.82945
5.53941
-2.24756
5.40121
-1.69023
5.39755
-1.11679
5.36491
-0.551635
5.38
0.0254453
5.36549
0.608471
5.36468
1.19042
5.37952
1.7695
5.42176
2.34581
5.44208
2.78566
5.58021
3.27268
5.49436
3.57346
5.75443
-0.282241
10.6518
-4.57169
9.76004
-3.88199
12.293
-2.92909
11.3713
12.0613
1.70892
10.44
3.46656
9.84262
5.07354
10.8394
5.50682
9.46744
4.85186
11.3346
1.05999
9.4886
-0.888703
7.38707
-1.43595
6.09384
-1.24988
5.22155
-0.923243
5.0774
-0.491108
4.9363
-0.0539408
4.94335
0.413269
4.89819
0.861281
4.91698
1.31474
4.92775
1.68915
5.05002
1.92218
5.2112
1.43825
6.06732
-0.641108
7.57063
-4.19403
9.31876
-4.69284
11.156
-4.18997
9.26095
-2.5945
10.7025
-1.21216
9.99097
10.8511
0.780604
9.66316
1.68771
8.93926
2.93686
9.5931
3.59086
8.8139
3.22004
11.7075
1.78465
10.9399
0.404762
8.78383
-0.20083
6.72234
-0.165747
5.21753
-0.112731
5.05659
-0.0150689
4.8703
0.0201447
4.9422
0.110232
4.8455
0.191326
4.87199
0.30431
4.84998
0.380899
5.00651
0.454951
5.1706
0.0848845
6.47408
-1.18023
8.85649
-2.35544
10.5185
-2.75303
11.5461
-2.19433
8.70323
-1.26779
9.77535
-0.348057
9.06699
10.5037
1.63959
8.02952
2.23687
8.3501
2.34136
9.49842
1.55579
9.60347
0.752737
12.5218
0.596578
11.0997
0.889361
8.48344
0.670514
6.93992
0.440902
5.44408
0.320234
5.17172
0.16449
5.01964
0.0789056
5.0221
-0.0504192
4.97021
-0.164207
4.9833
-0.345827
5.03235
-0.532367
5.19657
-0.889057
5.53281
-1.32971
6.92138
-0.947256
8.47646
-1.14266
10.7202
-2.01554
12.4267
-2.82221
9.50968
-2.69638
9.65411
-2.27813
8.65581
8.23117
1.81498
6.224
1.91092
8.27053
1.15825
10.2581
0.363363
10.4121
1.53843
11.3633
2.33389
10.308
2.42064
8.38197
2.29154
7.05266
1.56293
6.15934
0.969039
5.75497
0.408057
5.57062
-0.0898482
5.51095
-0.595594
5.46977
-1.11342
5.49492
-1.66374
5.57646
-2.24928
5.77659
-2.91549
6.19211
-3.05009
7.04892
-3.04091
8.45758
-2.4752
10.1576
-1.26091
11.2358
-2.6282
10.8997
-3.26195
10.2968
-2.47986
7.88312
5.75655
3.29834
2.93257
5.42201
6.1582
6.07208
9.62181
6.1112
10.3793
6.49462
10.9796
6.06015
10.7359
5.05569
9.37891
4.04859
8.0553
3.11016
7.09603
2.27577
6.58791
1.47426
6.37125
0.69356
6.29162
-0.093732
6.25812
-0.871275
6.27389
-1.66143
6.36734
-2.46192
6.57808
-3.33469
7.06618
-4.28613
7.99938
-5.21201
9.38098
-5.6796
10.6232
-5.42694
10.9841
-5.01811
10.4974
-4.63165
9.92221
-2.91107
6.16828
2.85068
1.51922
1.41755
3.90935
3.77734
4.93407
8.61184
5.59572
9.72316
6.23861
10.3356
6.21625
10.7556
5.28663
10.3005
4.09873
9.24069
2.99122
8.20467
2.03558
7.5454
1.1715
7.23866
0.319594
7.14804
-0.527147
7.10916
-1.38663
7.13736
-2.26205
7.245
-3.23732
7.55416
-4.40064
8.23043
-5.68882
9.2875
-6.66698
10.3579
-6.71186
10.6617
-6.0576
10.3221
-5.35161
9.7863
-4.05502
8.63318
-1.50747
3.62871
1.34524
0.0600897
1.36216
-0.0817119
3.92831
1.55322
6.98216
2.8622
8.4167
3.73708
9.45837
4.03154
10.4593
3.66364
10.6647
2.96656
9.93622
2.211
8.9612
1.50024
8.25841
0.806955
7.93611
0.127451
7.83262
-0.56566
7.80636
-1.2549
7.82967
-1.97299
7.96404
-2.7379
8.31743
-3.56824
9.05825
-4.32841
10.0455
-4.65495
10.6816
-4.27065
10.272
-3.31353
9.36003
-1.8472
8.32227
-0.0498693
6.84734
-0.0826287
3.66656
1.26352
-0.902914
2.26781
-0.972548
4.00378
0.150315
5.84538
1.09934
7.48951
1.85764
8.69732
2.21208
10.1043
2.22534
10.6488
1.97047
10.1891
1.55685
9.37441
1.09933
8.71707
0.645697
8.39276
0.169466
8.3123
-0.302642
8.28083
-0.784527
8.31296
-1.24426
8.42353
-1.69978
8.77
-2.10884
9.462
-2.3352
10.2656
-2.28253
10.6248
-1.89474
9.87923
-1.06236
8.52333
-0.105873
7.36399
1.04377
5.70346
0.917672
3.79632
2.1818
-0.844526
3.11631
-1.25767
4.42061
-0.946925
5.53408
-0.323155
6.86711
0.279278
8.09224
0.601172
9.78283
0.860672
10.3877
0.971815
10.0752
0.906331
9.4381
0.721196
8.90234
0.474885
8.64041
0.227663
8.56093
-0.0396034
8.5487
-0.282088
8.55538
-0.516078
8.65653
-0.684881
8.93577
-0.709974
9.48129
-0.548934
10.0966
-0.263197
10.3323
0.00370268
9.61028
0.628659
7.89126
1.25862
6.73266
1.47183
5.48931
0.881928
4.38809
3.07577
-0.700857
3.82189
-1.49
5.2134
-1.73981
5.78717
-1.55022
6.67826
-1.27163
7.81092
-0.811637
9.32391
-0.366414
9.93975
-0.0758452
9.78076
0.0529131
9.3075
0.080848
8.8742
0.0524806
8.66927
-0.0305143
8.64405
-0.114721
8.63235
-0.2019
8.64166
-0.234167
8.68771
-0.201479
8.90087
-0.0725194
9.34881
0.215461
9.80224
0.692027
9.84957
1.18714
9.11298
1.44657
7.63073
1.65062
6.52288
1.4212
5.71668
0.663139
5.1459
3.75913
-0.423553
4.25072
-1.19203
5.98494
-1.71137
6.30689
-1.80131
6.76778
-1.65977
7.6678
-1.25747
8.92311
-0.796194
9.47566
-0.443012
9.4245
-0.21049
9.07405
-0.0967785
8.76013
-0.0661836
8.63841
-0.048261
8.6255
-0.0467856
8.63007
-0.0268757
8.62022
0.00170089
8.65754
0.120983
8.77972
0.372314
9.09523
0.761573
9.40913
1.23905
9.36772
1.65371
8.69843
1.7664
7.51582
1.66495
6.62481
1.12362
6.25607
0.372744
5.90072
4.15436
-0.275277
4.53003
-1.14593
6.85467
-1.76778
6.92766
-1.98009
6.97928
-1.93615
7.62251
-1.56869
8.55649
-1.12181
9.02637
-0.725064
9.02638
-0.442761
8.79175
-0.251074
8.56859
-0.0985234
8.48596
0.0132036
8.51323
0.123236
8.51926
0.232272
8.50938
0.391003
8.49679
0.598809
8.57001
0.902202
8.79015
1.31546
8.99381
1.75309
8.92644
2.10752
8.34474
2.14298
7.47878
1.90737
6.86241
1.3127
6.85412
0.397674
6.81782
4.55462
-0.42556
4.95463
-1.44029
7.86111
-1.87472
7.36203
-2.23603
7.33957
-2.25562
7.64202
-1.99352
8.29563
-1.58023
8.61155
-1.16457
8.61052
-0.820082
8.44747
-0.574496
8.32313
-0.40068
8.31256
-0.220713
8.33321
-0.0529528
8.35099
0.130979
8.32368
0.315992
8.3094
0.555535
8.32815
0.899169
8.44432
1.31746
8.57405
1.71392
8.52697
1.97707
8.08207
1.98587
7.46887
1.6673
7.17793
1.2252
7.30469
0.265723
7.78272
4.81713
-0.439011
5.39
-1.19265
8.61457
-1.63498
7.80832
-1.965
7.6694
-2.03361
7.71105
-1.80631
8.06946
-1.44678
8.25127
-1.0743
8.23792
-0.764525
8.13814
-0.510781
8.07023
-0.266945
8.06965
-0.0614144
8.12821
0.150587
8.13912
0.355812
8.11732
0.601529
8.06148
0.874169
8.05306
1.19808
8.11755
1.57924
8.19138
1.92598
8.17748
2.11027
7.89416
2.02983
7.54925
1.68834
7.51629
1.23802
7.76317
0.489348
8.54229
5.29993
-0.548786
5.93181
-1.1438
9.20931
-1.60206
8.2659
-1.79713
7.86254
-1.9382
7.85363
-1.81245
7.94485
-1.49218
7.92926
-1.12979
7.87532
-0.790302
7.79916
-0.500448
7.78105
-0.260624
7.83103
-0.00850198
7.87709
0.229713
7.90172
0.485221
7.86168
0.723636
7.82174
1.0071
7.7675
1.35341
7.76855
1.72758
7.81453
2.03883
7.86497
2.14068
7.78975
1.98811
7.70215
1.81806
7.68276
1.38967
8.19719
0.751446
9.19157
6.03057
-0.874289
6.80068
-1.37314
9.70908
-1.85447
8.74986
-2.01946
8.02866
-2.13491
7.97039
-2.03264
7.84229
-1.75357
7.64873
-1.42233
7.54379
-1.1147
7.49208
-0.838669
7.50569
-0.550004
7.54354
-0.292321
7.62069
-0.0200897
7.63085
0.242819
7.5996
0.539232
7.525
0.830712
7.47469
1.13245
7.46434
1.44955
7.49557
1.71729
7.59588
1.79887
7.70423
1.71528
7.78607
1.53727
7.85824
1.09984
8.64068
0.557754
9.74328
6.59265
-0.57903
7.38624
-1.24956
10.3814
-1.63849
9.13978
-1.77734
8.17019
-1.7765
7.96972
-1.6948
7.75987
-1.47558
7.42724
-1.19908
7.26744
-0.898168
7.19152
-0.602099
7.21006
-0.342552
7.28504
-0.0572905
7.33667
0.213541
7.36153
0.496517
7.31797
0.753824
7.26864
1.04165
7.18655
1.34927
7.15545
1.63495
7.20751
1.83825
7.39241
1.89353
7.64856
1.8793
7.80083
1.69892
8.03639
1.38095
8.95881
0.760814
10.3651
7.36667
-0.250715
7.64317
-0.755988
10.8879
-1.51065
9.89528
-1.59867
8.25835
-1.62033
7.99084
-1.52174
7.65979
-1.31648
7.22059
-1.0875
7.03851
-0.847594
6.95126
-0.604093
6.96687
-0.320017
7.00173
-0.0612581
7.07895
0.213065
7.08856
0.465042
7.06742
0.748859
6.98615
1.00294
6.93297
1.23874
6.91926
1.4587
6.98663
1.67262
7.17673
1.76177
7.56011
1.74416
7.81999
1.76202
8.02196
1.03077
9.68871
0.500291
10.8985
7.87974
-0.475203
8.12361
-0.919565
11.3332
-1.754
10.733
-1.75475
8.25899
-1.74059
7.97689
-1.62434
7.54221
-1.4541
7.04805
-1.23576
6.82056
-0.993355
6.70888
-0.726168
6.70007
-0.487501
6.76378
-0.212097
6.80426
0.0499367
6.82746
0.329394
6.78903
0.571556
6.74543
0.828716
6.67647
1.07668
6.67146
1.29359
6.76937
1.4429
7.02642
1.54031
7.46279
1.53601
7.82583
1.45098
8.11192
0.588768
10.5553
0.216826
11.2753
8.10487
-0.0934646
8.21874
-0.47781
11.7184
-1.18181
11.4391
-1.48308
8.56039
-1.49993
7.99363
-1.35668
7.39709
-1.18307
6.87417
-0.985573
6.62304
-0.780116
6.50308
-0.574667
6.49492
-0.306729
6.49615
-0.0612759
6.55934
0.205963
6.56084
0.448518
6.54718
0.713842
6.48127
0.92933
6.46181
1.12013
6.48091
1.31595
6.57379
1.49931
6.84164
1.61921
7.34379
1.61983
7.82808
1.41863
8.31598
0.59608
11.3887
0.254048
11.6165
8.36259
0.0492948
8.16527
-0.102039
11.868
-0.793853
12.1241
-1.39493
9.16067
-1.30776
7.90636
-1.22859
7.3169
-1.07651
6.72098
-0.915021
6.46182
-0.731159
6.31978
-0.49894
6.26313
-0.302054
6.29989
-0.060277
6.31781
0.166295
6.33455
0.409233
6.30461
0.60498
6.28619
0.820285
6.24706
1.01388
6.28763
1.16859
6.41978
1.3124
6.69631
1.40484
7.25041
1.59236
7.64149
0.843886
9.06895
0.243236
12.0019
-0.00798137
11.8678
8.35528
-0.259331
8.42073
-0.351895
11.9583
-0.737513
12.5057
-1.40359
9.82749
-1.38025
7.88352
-1.29042
7.22726
-1.12394
6.5541
-0.956669
6.29519
-0.781255
6.14442
-0.628976
6.11127
-0.395671
6.06671
-0.190532
6.11301
0.0421996
6.10215
0.251487
6.09556
0.485426
6.05282
0.650635
6.08226
0.809794
6.12834
0.975317
6.25454
1.14123
6.52897
1.19096
7.20031
1.1486
7.68289
0.393707
9.82672
-0.0747682
12.4795
-0.104051
11.8989
8.25507
-0.0984575
8.52263
0.0318071
11.8258
-0.247355
12.7819
-1.0081
10.5858
-1.15219
8.02869
-1.06954
7.14548
-0.957764
6.44205
-0.799439
6.13736
-0.637831
5.98341
-0.425257
5.89911
-0.257959
5.90004
-0.0405024
5.89588
0.158978
5.90291
0.377247
5.87746
0.538675
5.89176
0.734282
5.88687
0.909357
5.9532
1.05339
6.1109
1.16372
6.41885
1.31929
7.04427
1.14621
7.85537
0.389083
10.5854
0.149897
12.723
0.223655
11.8308
8.48559
0.0380559
8.49494
0.164203
11.7
0.226897
12.7174
-0.486695
11.2951
-1.06337
8.606
-0.917865
7.00163
-0.831292
6.35501
-0.712775
6.01963
-0.554668
5.82551
-0.425783
5.77065
-0.226118
5.70075
-0.0538581
5.7241
0.143691
5.70578
0.309337
5.7121
0.507738
5.69378
0.643488
5.75169
0.781736
5.81484
0.918396
5.97451
1.00973
6.32627
1.19631
6.85681
0.611501
8.44066
-0.0705634
11.2623
-0.0575543
12.7164
0.0503695
11.7284
8.53889
-0.201849
8.70698
-0.175549
11.6766
0.0207201
12.5196
-0.400136
11.7145
-0.975015
9.18236
-1.01336
7.04147
-0.88954
6.23137
-0.78524
5.91635
-0.658207
5.69919
-0.468634
5.5818
-0.325947
5.55871
-0.139099
5.53781
0.0257481
5.54134
0.209622
5.52857
0.347027
5.55664
0.524665
5.57405
0.666454
5.67293
0.749035
5.89183
0.825056
6.25112
0.753537
6.92879
0.0223753
9.17046
-0.4694
11.7481
-0.128746
12.3803
-0.0257317
11.6257
8.51266
-0.0466273
8.76122
0.0457507
11.589
0.435829
12.1288
0.139688
12.0083
-0.606893
9.92961
-0.842025
7.27804
-0.676326
6.06573
-0.615392
5.85623
-0.480582
5.56487
-0.36584
5.46767
-0.188449
5.38186
-0.0373416
5.38732
0.136867
5.36766
0.283926
5.3819
0.462608
5.37829
0.579882
5.45736
0.695727
5.557
0.778709
5.80957
0.971822
6.05827
0.712678
7.18925
-0.057737
9.93898
-0.246781
11.927
0.152895
11.9711
0.180725
11.5937
8.69113
0.06941
8.6973
0.143476
11.5178
0.425355
11.8476
0.520462
11.912
-0.0687488
10.5179
-0.562804
7.77233
-0.602074
6.1053
-0.534338
5.78986
-0.456492
5.48791
-0.301235
5.31317
-0.183787
5.26516
-0.0304141
5.2346
0.107231
5.2305
0.264417
5.22513
0.378931
5.2642
0.532097
5.30429
0.618009
5.47131
0.729179
5.69947
0.700186
6.08828
0.238431
7.65361
-0.366988
10.5401
-0.285823
11.8359
0.00576507
11.6642
0.0610483
11.5326
8.74848
-0.107816
8.80626
-0.0599206
11.4706
0.164308
11.6222
0.477589
11.5973
0.0173452
10.9772
-0.516809
8.3057
-0.657362
6.24606
-0.565019
5.69872
-0.470278
5.39374
-0.38769
5.23133
-0.243608
5.12179
-0.119837
5.11143
0.0236168
5.08758
0.149621
5.09956
0.294346
5.11976
0.371118
5.22823
0.449166
5.39373
0.541897
5.60779
0.307472
6.32331
-0.387
8.3538
-0.783163
10.9332
-0.382178
11.4261
-0.2092
11.4791
-0.140961
11.4605
8.60647
0.0373179
8.7706
0.100833
11.409
0.271092
11.4509
0.654249
11.2149
0.62993
11.0013
-0.0235497
8.95565
-0.447083
6.67012
-0.442953
5.69581
-0.36723
5.31902
-0.246692
5.11169
-0.154121
5.02985
-0.0223992
4.98024
0.0981058
4.96757
0.227547
4.97059
0.321682
5.0261
0.446424
5.10391
0.544343
5.29717
0.516698
5.63683
0.115131
6.72814
-0.510437
8.99158
-0.438677
10.8592
-0.113702
11.0921
0.0516581
11.3031
0.109038
11.3999
8.71549
0.171052
8.60434
0.294037
11.2863
0.416763
11.3263
0.639345
10.9924
0.885782
10.755
0.275788
9.56477
-0.173744
7.11965
-0.318403
5.84172
-0.265128
5.26674
-0.218115
5.06519
-0.121707
4.93415
-0.0232614
4.8822
0.093127
4.85163
0.191214
4.87293
0.291535
4.92622
0.347401
5.04921
0.41052
5.23529
0.252726
5.79661
-0.232314
7.21558
-0.826936
9.58677
-0.476362
10.5083
-0.241953
10.8509
-0.142396
11.1976
-0.0630271
11.3182
8.65336
-0.0227784
8.63323
0.067684
11.1962
0.155826
11.2354
0.396194
10.7497
0.816052
10.3365
0.626287
9.75322
-0.0240532
7.76968
-0.343805
6.16262
-0.325106
5.24906
-0.2447
4.98548
-0.172117
4.86207
-0.0799227
4.79033
0.0129537
4.75913
0.103779
4.78252
0.169978
4.86043
0.239226
4.98078
0.217084
5.25922
-0.129653
6.14708
-0.829126
7.92222
-0.931839
9.68946
-0.587823
10.1651
-0.351095
10.6125
-0.297818
11.1417
-0.151756
11.1699
8.50407
0.110354
8.53041
0.293732
11.0132
0.359321
11.1683
0.531962
10.5756
0.819782
10.0493
0.93752
9.63475
0.426518
8.27892
-0.0486234
6.63891
-0.171025
5.3725
-0.156101
4.97104
-0.0833787
4.78984
-0.0135024
4.72081
0.0668178
4.67913
0.138805
4.71107
0.214483
4.78558
0.238597
4.95783
0.0557829
5.44376
-0.446767
6.65412
-0.915634
8.38998
-0.674641
9.44786
-0.41057
9.90112
-0.237019
10.4399
-0.186907
11.0892
-0.0361951
11.0167
8.46819
0.167443
8.37015
0.377561
10.8021
0.448297
11.0939
0.58255
10.4378
0.815636
9.81577
1.19292
9.25754
0.893254
8.57664
0.186507
7.34652
-0.0494107
5.609
-0.0826169
5.00493
-0.0400306
4.74741
0.00959299
4.67152
0.0557016
4.63323
0.114335
4.6529
0.157401
4.74294
0.12321
4.99263
-0.149564
5.71888
-0.804544
7.31895
-1.02152
8.6055
-0.682041
9.10658
-0.440378
9.65891
-0.311226
10.3118
-0.254111
11.0292
-0.0751642
10.8355
8.39513
0.0377422
8.33732
0.236576
10.6039
0.344738
10.9832
0.421272
10.3601
0.613811
9.62265
0.876601
8.99404
0.946117
8.50517
0.582654
7.70791
0.0512696
6.141
-0.0999304
5.1562
-0.0764283
4.72416
-0.0408301
4.6362
-0.0105238
4.60313
0.0265776
4.6162
0.0292535
4.74106
-0.139788
5.16311
-0.780669
6.36484
-1.14499
7.68247
-0.971885
8.42895
-0.732023
8.86532
-0.576377
9.50233
-0.526894
10.2629
-0.410954
10.91
-0.173893
10.5952
8.22225
0.0753934
8.26445
0.312319
10.3659
0.459681
10.8317
0.555071
10.2626
0.689404
9.48728
0.859168
8.82325
1.18619
8.1764
0.92762
7.96417
0.29688
6.77232
0.0483086
5.40506
0.00922141
4.76333
0.0147726
4.6309
0.0147328
4.6034
0.022224
4.6092
-0.0474538
4.81175
-0.331611
5.44758
-0.806658
6.84077
-1.11831
7.99387
-0.794943
8.10283
-0.644714
8.71338
-0.529573
9.38593
-0.441522
10.174
-0.297205
10.762
-0.0561909
10.3529
8.16793
0.106722
8.15657
0.435866
10.037
0.628821
10.6355
0.637881
10.2525
0.713387
9.41037
0.891296
8.64374
1.07487
7.99094
1.1629
7.87336
0.847767
7.08639
0.20578
6.04689
0.0640618
4.90532
0.0310053
4.66433
0.0113647
4.6233
-0.0188124
4.63999
-0.192406
4.98655
-0.853845
6.111
-1.13095
7.12036
-0.978455
7.83956
-0.80796
7.92937
-0.649335
8.5533
-0.597359
9.33321
-0.570112
10.1448
-0.373772
10.5624
-0.0594305
10.0362
8.10814
0.00625607
-0.144186
0.00486489
-0.154289
0.000370403
-0.160431
-0.0017248
-0.157763
-0.00289495
-0.173614
-0.00238486
-0.183644
-0.00141891
-0.200414
-0.00336095
-0.21435
-0.0069462
-0.227072
-0.0114009
-0.236514
-0.0153806
-0.240139
-0.0167861
-0.248494
-0.0165445
-0.260149
-0.0154368
-0.273864
-0.0141651
-0.292083
-0.0124779
-0.30964
-0.00505801
-0.33014
0.011065
-0.362922
0.0338777
-0.415559
0.0605991
-0.479646
0.0893865
-0.541741
0.121917
-0.606184
0.159973
-0.636089
0.198675
-0.713314
0.2391
-0.794421
0.24388
-0.943365
0.137077
-1.43561
-0.0492967
-3.09481
-0.167376
-3.01243
-3.27596
0.013781
-0.159628
0.0116153
-0.157949
0.00689407
-0.163786
0.00375321
-0.162882
0.00214067
-0.175239
0.00247203
-0.181819
0.00321153
-0.198236
0.00173877
-0.211729
-0.000667339
-0.225447
-0.00432616
-0.236801
-0.00863897
-0.24622
-0.011559
-0.25406
-0.0132409
-0.264956
-0.0144336
-0.279508
-0.0155045
-0.296812
-0.0150218
-0.314473
-0.0109437
-0.333817
0.000418963
-0.365856
0.0192215
-0.405778
0.0452804
-0.471401
0.0748488
-0.533576
0.10826
-0.587874
0.143948
-0.621094
0.183677
-0.702342
0.191335
-0.806146
0.120128
-1.08652
-0.0604873
-2.67023
-0.175477
-3.11247
-0.110229
-3.00181
-3.23956
0.00761565
-0.170528
0.00223175
-0.162559
-0.00382253
-0.16802
-0.0081431
-0.164825
-0.0117144
-0.173958
-0.0121386
-0.178229
-0.0122301
-0.194185
-0.0133421
-0.207882
-0.0142823
-0.224092
-0.0164646
-0.238966
-0.0191663
-0.250629
-0.0215821
-0.261267
-0.0233815
-0.273487
-0.0240485
-0.288701
-0.0253748
-0.305851
-0.02526
-0.321317
-0.0243035
-0.342687
-0.0170126
-0.368741
0.000454945
-0.403257
0.0244422
-0.448551
0.0557631
-0.519755
0.0902478
-0.547745
0.126148
-0.614679
0.155014
-0.694266
0.112765
-0.8672
-0.0708842
-1.57654
-0.281853
-2.89443
-0.238178
-2.95802
-0.0984646
-2.92102
-3.12009
0.000497169
-0.170146
-0.00643805
-0.166086
-0.0123605
-0.167571
-0.0175417
-0.164444
-0.0220131
-0.171981
-0.0235061
-0.176154
-0.0247225
-0.192043
-0.0259024
-0.206386
-0.026744
-0.224559
-0.0287786
-0.241787
-0.0295008
-0.256571
-0.0313443
-0.271172
-0.0340069
-0.285641
-0.0358474
-0.300325
-0.0375551
-0.316245
-0.0381605
-0.331938
-0.0390686
-0.351351
-0.0344726
-0.372896
-0.0205208
-0.402907
0.00470572
-0.439939
0.0361671
-0.504291
0.0710608
-0.539902
0.102987
-0.608526
0.0921776
-0.715984
-0.0494948
-1.09979
-0.384211
-2.61332
-0.389888
-2.80934
-0.270396
-2.81712
-0.0898187
-2.81601
-2.84393
-0.000825816
-0.172036
-0.00943519
-0.168341
-0.0157876
-0.167423
-0.0214771
-0.163778
-0.0266786
-0.171057
-0.0291508
-0.17576
-0.0309398
-0.191969
-0.03246
-0.208194
-0.0333909
-0.227945
-0.0343495
-0.247528
-0.035081
-0.265808
-0.0363043
-0.282861
-0.039184
-0.299959
-0.0421139
-0.314055
-0.0450927
-0.328261
-0.0465613
-0.343131
-0.04785
-0.35997
-0.0449388
-0.378008
-0.03259
-0.402944
-0.00855494
-0.435698
0.0228265
-0.47674
0.0555472
-0.533105
0.0723615
-0.608035
-0.0266724
-0.811864
-0.410944
-2.19661
-0.518712
-2.72109
-0.466531
-2.66357
-0.274108
-2.72407
-0.080935
-2.65324
-2.73512
-0.00264662
-0.173158
-0.011959
-0.168605
-0.0185331
-0.167601
-0.0246238
-0.164123
-0.0306713
-0.172721
-0.0343126
-0.178102
-0.0369826
-0.195298
-0.0389043
-0.213022
-0.0398272
-0.234329
-0.0400041
-0.256558
-0.0405463
-0.27818
-0.0408788
-0.296062
-0.0430418
-0.313687
-0.0465377
-0.326632
-0.05044
-0.340762
-0.0532723
-0.354844
-0.05562
-0.368659
-0.0543575
-0.382393
-0.0431223
-0.402361
-0.0202121
-0.431585
0.010761
-0.465604
0.0343355
-0.526868
-0.0131816
-0.646585
-0.27392
-1.15595
-0.593125
-2.50159
-0.621508
-2.57006
-0.45735
-2.58852
-0.252183
-2.61033
-0.0735027
-2.51452
-2.63412
-0.00506589
-0.174839
-0.0148745
-0.168832
-0.02182
-0.168515
-0.0284069
-0.166009
-0.0353412
-0.176548
-0.0402161
-0.183659
-0.0436788
-0.201936
-0.0459375
-0.220786
-0.047124
-0.242935
-0.0474426
-0.267378
-0.0467077
-0.290701
-0.0464701
-0.308882
-0.0475795
-0.326146
-0.0514677
-0.339652
-0.0556665
-0.349924
-0.0596774
-0.362835
-0.0607689
-0.375631
-0.0617599
-0.388322
-0.0529239
-0.407232
-0.0319428
-0.428541
-0.00542065
-0.459314
-0.0138702
-0.539097
-0.145946
-0.796354
-0.64473
-2.17141
-0.724232
-2.49925
-0.631122
-2.4894
-0.436496
-2.49507
-0.241548
-2.49433
-0.0773447
-2.4159
-2.56373
-0.0076199
-0.177081
-0.0181849
-0.169114
-0.026014
-0.1703
-0.0334183
-0.169051
-0.0412187
-0.181494
-0.0472614
-0.191151
-0.0516982
-0.209991
-0.0544304
-0.22883
-0.0561779
-0.252073
-0.0556316
-0.277579
-0.0541732
-0.301488
-0.0528037
-0.318376
-0.0536594
-0.334813
-0.0570038
-0.347676
-0.0612921
-0.356873
-0.0649415
-0.366667
-0.0672932
-0.376964
-0.0679318
-0.391371
-0.0602129
-0.404971
-0.0442893
-0.41958
-0.0340256
-0.45921
-0.107996
-0.59538
-0.603557
-1.36271
-0.779483
-2.37084
-0.782019
-2.37221
-0.614285
-2.42646
-0.422502
-2.3921
-0.236225
-2.39553
-0.090891
-2.35505
-2.50147
-0.0102981
-0.177288
-0.0216893
-0.16889
-0.0307476
-0.171555
-0.0393149
-0.171578
-0.0482657
-0.185863
-0.055109
-0.196725
-0.0602984
-0.215483
-0.0639498
-0.23422
-0.0654454
-0.256886
-0.0638999
-0.279306
-0.0622193
-0.302705
-0.0601028
-0.322762
-0.0595926
-0.338218
-0.0619671
-0.351768
-0.067138
-0.360096
-0.0711701
-0.364308
-0.0719914
-0.375265
-0.0727646
-0.388248
-0.0681996
-0.396693
-0.0620928
-0.41026
-0.0925913
-0.479898
-0.29723
-0.797109
-0.823994
-2.03996
-0.902505
-2.28196
-0.77059
-2.31984
-0.59448
-2.3423
-0.400162
-2.30154
-0.248072
-2.32736
-0.109753
-2.31139
-2.43827
-0.0129126
-0.176617
-0.0252642
-0.166515
-0.0358618
-0.17086
-0.045866
-0.171503
-0.0562768
-0.186523
-0.0629901
-0.197792
-0.0687374
-0.216789
-0.0729877
-0.235385
-0.0743402
-0.257179
-0.072196
-0.279014
-0.0691272
-0.301616
-0.066556
-0.321585
-0.0666665
-0.336294
-0.0665161
-0.349912
-0.0703597
-0.357735
-0.0741263
-0.360782
-0.0767516
-0.369213
-0.0783766
-0.377841
-0.0776165
-0.382302
-0.0906663
-0.412757
-0.207894
-0.551216
-0.828279
-1.59447
-0.955865
-2.20032
-0.926485
-2.1995
-0.758875
-2.25873
-0.564421
-2.2495
-0.407282
-2.23669
-0.258131
-2.27335
-0.120475
-2.2705
-2.37842
-0.0157596
-0.176337
-0.0295246
-0.160554
-0.0420437
-0.166372
-0.0528164
-0.16724
-0.0630531
-0.1818
-0.0708077
-0.194372
-0.0769466
-0.213997
-0.0814062
-0.232853
-0.0827088
-0.253501
-0.0807494
-0.274413
-0.0770674
-0.29574
-0.0726082
-0.315141
-0.070626
-0.330397
-0.0691825
-0.34414
-0.0737852
-0.351678
-0.0785239
-0.35533
-0.0822904
-0.360573
-0.0828318
-0.360558
-0.0916865
-0.37562
-0.157313
-0.43849
-0.574372
-0.776708
-0.979223
-1.88807
-1.05162
-2.08609
-0.906784
-2.15125
-0.743237
-2.18985
-0.569322
-2.1714
-0.415204
-2.18402
-0.270335
-2.22417
-0.128726
-2.22311
-2.31549
-0.0177425
-0.170707
-0.03397
-0.149774
-0.0487916
-0.155709
-0.0604694
-0.1587
-0.070857
-0.174607
-0.0785842
-0.187649
-0.0851294
-0.207425
-0.0892388
-0.225747
-0.090385
-0.245078
-0.0867134
-0.266421
-0.0819329
-0.286864
-0.0771752
-0.306076
-0.0743587
-0.322383
-0.0725703
-0.336136
-0.0773797
-0.34441
-0.083243
-0.347779
-0.081659
-0.35166
-0.0901215
-0.348623
-0.122695
-0.383274
-0.28339
-0.514925
-0.996721
-1.51134
-1.10629
-2.01105
-1.0559
-2.03086
-0.899189
-2.09434
-0.71873
-2.11326
-0.570968
-2.11114
-0.425768
-2.13714
-0.282807
-2.17415
-0.135072
-2.16981
-2.2482
-0.0204117
-0.15804
-0.0388707
-0.134322
-0.0555943
-0.140042
-0.0679011
-0.147701
-0.0774376
-0.166515
-0.0855049
-0.179413
-0.0920353
-0.197923
-0.0953666
-0.215062
-0.0958483
-0.237798
-0.0926393
-0.254392
-0.087455
-0.276377
-0.0822384
-0.296093
-0.0784528
-0.314121
-0.0759398
-0.327781
-0.0796543
-0.337748
-0.0824902
-0.342098
-0.0861997
-0.341749
-0.103783
-0.353507
-0.191123
-0.408155
-0.753122
-0.733767
-1.10935
-1.72595
-1.17342
-1.91055
-1.04153
-1.9843
-0.89272
-2.0345
-0.726019
-2.03953
-0.576492
-2.05368
-0.431799
-2.08759
-0.286918
-2.11875
-0.139341
-2.11587
-2.18059
-0.0232212
-0.139381
-0.0438526
-0.115427
-0.061963
-0.122153
-0.0745784
-0.135519
-0.0836417
-0.157526
-0.0922731
-0.171961
-0.0966585
-0.189392
-0.100544
-0.206183
-0.101216
-0.229144
-0.0985611
-0.242839
-0.0937929
-0.264816
-0.0871673
-0.284997
-0.0796681
-0.303954
-0.0774097
-0.320138
-0.0804658