/*--------------------------------*- C++ -*----------------------------------*\
| =========                 |                                                 |
| \\      /  F ield         | OpenFOAM: The Open Source CFD Toolbox           |
|  \\    /   O peration     | Version:  2112                                  |
|   \\  /    A nd           | Website:  www.openfoam.com                      |
|    \\/     M anipulation  |                                                 |
\*---------------------------------------------------------------------------*/
FoamFile
{
    version     2.0;
    format      ascii;
    arch        "LSB;label=32;scalar=64";
    class       volScalarField;
    location    "0.01102";
    object      alphat;
}
// * * * * * * * * * * * * * * * * * * * * * * * * * * * * * * * * * * * * * //

dimensions      [1 -1 -1 0 0 0 0];

internalField   nonuniform List<scalar> 
13875
(
0.119861
0.0816028
0.0784536
0.0782844
0.0783315
0.0783798
0.0782763
0.0782085
0.0783077
0.0783616
0.0783005
0.0782951
0.0783769
0.0784115
0.0783943
0.0782979
0.0782562
0.0782941
0.078303
0.0783543
0.0783207
0.0782649
0.078486
0.0814373
0.120883
0.103938
0.0576788
0.057082
0.0571662
0.0566491
0.0566691
0.057019
0.0570841
0.0571471
0.0571727
0.0571535
0.0571188
0.0566591
0.0566141
0.0566678
0.0570979
0.0571188
0.0571516
0.057074
0.0566796
0.0566736
0.0571398
0.0570651
0.0573377
0.104637
0.110619
0.0553245
0.055875
0.0547203
0.0545699
0.054484
0.0542946
0.0542388
0.0541837
0.0541495
0.0541509
0.0543455
0.0542538
0.0542777
0.0542404
0.0543491
0.0541081
0.0542534
0.0542803
0.0544508
0.0545298
0.0546025
0.0557793
0.0550915
0.111348
0.115885
0.0546442
0.0553807
0.054315
0.054033
0.0539465
0.0536818
0.0535067
0.0534552
0.0534217
0.0533435
0.0534693
0.0537086
0.0537412
0.0536926
0.0534828
0.0533638
0.0534638
0.0536338
0.0539057
0.0539988
0.0542014
0.0551912
0.0543084
0.115824
0.121033
0.0546334
0.0551187
0.0537393
0.0536681
0.0534888
0.0531841
0.0530119
0.0529696
0.052933
0.0528524
0.0529817
0.0532253
0.0532659
0.0532154
0.052994
0.0528764
0.0529554
0.0531088
0.0534746
0.053607
0.0536116
0.0550166
0.0543279
0.121293
0.12441
0.0547442
0.0551849
0.053603
0.0532895
0.0531211
0.0527705
0.0525967
0.0525315
0.0525053
0.0524228
0.0525227
0.0527811
0.0528499
0.0527664
0.0525388
0.0524471
0.0525457
0.052733
0.0530522
0.053238
0.0535044
0.0548816
0.0543934
0.123979
0.128749
0.0564745
0.0557804
0.0534439
0.0532675
0.0528663
0.0524116
0.0522166
0.0521503
0.052122
0.0520497
0.0521407
0.0524105
0.0524769
0.0523984
0.052149
0.0520761
0.0521612
0.0523576
0.0528629
0.0531946
0.0533635
0.0556448
0.0563565
0.128892
0.135711
0.0611981
0.0578307
0.054403
0.0534051
0.0528607
0.0522381
0.0519559
0.0518597
0.0518152
0.0517592
0.0518109
0.0521089
0.0521869
0.0520846
0.0518223
0.0518052
0.0519223
0.0522182
0.0527847
0.0533238
0.0542766
0.057516
0.0610282
0.135554
0.151317
0.0692483
0.0615402
0.0559058
0.0544028
0.0531384
0.0522336
0.0518559
0.051684
0.0516239
0.0515868
0.0516149
0.0519442
0.0520301
0.051926
0.0516256
0.0516541
0.0518002
0.0521605
0.0530942
0.0542262
0.0556197
0.061035
0.0684165
0.154265
0.239357
0.0874403
0.0664548
0.0589991
0.0553806
0.0537064
0.0524671
0.0519928
0.0517873
0.0516887
0.051668
0.0516637
0.0520178
0.0521144
0.0520075
0.0517198
0.0517656
0.0519454
0.0524358
0.0536032
0.055257
0.0586517
0.0660146
0.0866948
0.241227
0.365404
0.118396
0.075986
0.0629464
0.0575651
0.0547606
0.0531033
0.0525575
0.052286
0.0521645
0.0521495
0.0521226
0.0524726
0.0525815
0.052504
0.0522767
0.0523189
0.0525526
0.0530321
0.0546132
0.0573239
0.0616278
0.074835
0.113045
0.36563
0.658185
0.192994
0.104057
0.0744193
0.0612967
0.0573563
0.0551439
0.0541579
0.0536682
0.0534707
0.0534094
0.0533716
0.0536678
0.053807
0.0537894
0.0536897
0.0537711
0.0541686
0.0551211
0.056818
0.0618834
0.0733858
0.100185
0.182939
0.643671
0.581948
0.435085
0.176434
0.0923876
0.0768594
0.0649763
0.0596456
0.0578043
0.0569035
0.0565712
0.0564346
0.0563787
0.0565686
0.0567415
0.0568277
0.0568967
0.0571474
0.0579462
0.0598532
0.0653102
0.0763231
0.089682
0.172104
0.433648
0.58138
0.491419
0.399963
0.347257
0.32805
0.116063
0.0809533
0.0734297
0.0675347
0.0650969
0.0643329
0.0639403
0.063775
0.0638371
0.0640348
0.0643187
0.0647913
0.0657085
0.0683768
0.0749593
0.0831025
0.131173
0.328657
0.337484
0.401429
0.500181
0.408236
0.34944
0.32926
0.333539
0.303857
0.198214
0.126122
0.0946291
0.0864801
0.0859442
0.0853663
0.0850889
0.0851281
0.0853367
0.0858035
0.0867286
0.087605
0.0953941
0.134101
0.213103
0.302283
0.330338
0.331361
0.360284
0.42175
0.329658
0.293104
0.281768
0.300681
0.314282
0.322168
0.242607
0.191698
0.171164
0.148196
0.136351
0.132378
0.130951
0.131711
0.134472
0.143355
0.171851
0.195327
0.249562
0.324158
0.307724
0.303856
0.291578
0.298434
0.341914
0.238985
0.227083
0.225274
0.264332
0.319891
0.403078
0.530162
0.564621
0.538845
0.537657
0.557622
0.570845
0.578006
0.574547
0.561292
0.550907
0.540294
0.56916
0.533209
0.396147
0.31409
0.266816
0.230372
0.234491
0.251976
0.140333
0.152234
0.185539
0.227478
0.311922
0.432932
0.565415
0.616953
0.560636
0.512717
0.495147
0.491896
0.494511
0.49338
0.498653
0.53016
0.566419
0.607343
0.566567
0.438168
0.31088
0.22946
0.177385
0.142992
0.13115
0.0685082
0.103004
0.164907
0.250471
0.349707
0.408674
0.475341
0.533798
0.500259
0.453382
0.433623
0.430569
0.43191
0.434925
0.441394
0.462683
0.496671
0.527805
0.488775
0.428377
0.373213
0.266235
0.1685
0.104671
0.0704515
0.0266909
0.052422
0.113218
0.229644
0.346212
0.362776
0.38595
0.427001
0.424743
0.402923
0.390882
0.384999
0.382325
0.390325
0.398996
0.406366
0.414635
0.414616
0.38949
0.377904
0.36372
0.22887
0.11217
0.0520045
0.0259428
0.0790785
0.0881711
0.114768
0.186397
0.275237
0.286185
0.307773
0.351641
0.370082
0.361742
0.349913
0.339007
0.333377
0.345033
0.357208
0.362121
0.357374
0.33795
0.307357
0.295633
0.283081
0.186224
0.113684
0.0894303
0.0847275
0.125042
0.153781
0.128527
0.156512
0.207135
0.224996
0.252106
0.297956
0.322914
0.320852
0.308814
0.294636
0.287939
0.300523
0.315683
0.320431
0.310712
0.285381
0.247839
0.229924
0.210504
0.154013
0.12584
0.151186
0.125907
0.170887
0.165509
0.133077
0.134107
0.164031
0.18132
0.211616
0.255838
0.281596
0.281549
0.269239
0.254496
0.247314
0.259204
0.274295
0.279432
0.269087
0.246005
0.205895
0.183493
0.165767
0.134558
0.130292
0.162893
0.17269
0.211035
0.197353
0.134621
0.123741
0.138668
0.154887
0.180056
0.21978
0.243199
0.244909
0.232589
0.218367
0.212334
0.222759
0.237436
0.242924
0.232114
0.210794
0.176059
0.155166
0.139342
0.124015
0.133247
0.204807
0.206418
0.231852
0.234956
0.137732
0.119518
0.122852
0.135188
0.156608
0.188895
0.209207
0.210821
0.200609
0.188094
0.182674
0.192223
0.205478
0.21017
0.200021
0.181735
0.153682
0.134456
0.123035
0.121523
0.1378
0.244945
0.228313
0.254778
0.263508
0.138171
0.116079
0.112213
0.121252
0.138418
0.164426
0.180679
0.182523
0.173617
0.162236
0.157691
0.165615
0.177544
0.181645
0.173151
0.157686
0.135943
0.120616
0.112559
0.117382
0.139
0.272308
0.251502
0.282203
0.279274
0.139334
0.112918
0.105776
0.109894
0.124263
0.143811
0.156463
0.157075
0.150048
0.140663
0.136705
0.143938
0.153948
0.157043
0.150087
0.138203
0.121402
0.10875
0.106594
0.114216
0.142035
0.292664
0.276737
0.310814
0.296864
0.138981
0.108294
0.100546
0.101808
0.112524
0.126974
0.135781
0.136271
0.130297
0.122238
0.119179
0.125111
0.134104
0.137336
0.132255
0.122468
0.110105
0.100755
0.101646
0.109853
0.14257
0.310978
0.306226
0.343513
0.323291
0.143242
0.105968
0.0979794
0.0951702
0.102835
0.112884
0.119541
0.118989
0.114092
0.107403
0.104402
0.109692
0.116732
0.119194
0.115728
0.109098
0.100579
0.0944214
0.0985956
0.106613
0.144581
0.325683
0.335603
0.372481
0.338147
0.143513
0.101764
0.093507
0.0906423
0.0953337
0.101485
0.105099
0.104375
0.100051
0.0942935
0.0920503
0.0963634
0.102854
0.105448
0.103176
0.0979772
0.092766
0.0886847
0.094093
0.103063
0.146201
0.340274
0.359466
0.38663
0.344076
0.148702
0.100792
0.0911262
0.0862274
0.0890269
0.0910477
0.0933654
0.0918994
0.0884876
0.0838317
0.0815561
0.0857243
0.0909106
0.0929657
0.0919665
0.0891126
0.0870258
0.0850233
0.0908134
0.101083
0.148702
0.343188
0.386368
0.397138
0.343943
0.152467
0.0990726
0.0863758
0.0814477
0.0835216
0.0836991
0.0840147
0.0823845
0.0790335
0.0745788
0.0727829
0.0760674
0.0810027
0.083233
0.0830489
0.0813241
0.0816358
0.0795592
0.0858959
0.0995186
0.150468
0.344522
0.403113
0.415062
0.338881
0.158156
0.10028
0.0843931
0.0779803
0.0790625
0.0763727
0.075889
0.0736712
0.070852
0.0672206
0.0653571
0.0686853
0.0727074
0.0745967
0.0753001
0.0750712
0.0772564
0.0764634
0.0830726
0.0997132
0.158034
0.345862
0.409613
0.422392
0.334752
0.163161
0.100783
0.0807517
0.0741604
0.0735334
0.0707269
0.0689674
0.0667932
0.0640784
0.0605182
0.0590967
0.061705
0.0657954
0.0680435
0.0691285
0.0694266
0.0723445
0.0722375
0.079813
0.0998799
0.163957
0.336277
0.420524
0.428305
0.334132
0.163763
0.103648
0.080525
0.0719008
0.0697431
0.0655032
0.0634107
0.0606417
0.0582738
0.0553486
0.0537799
0.0564188
0.0596506
0.0614558
0.0634221
0.064678
0.0684783
0.0701409
0.0785225
0.101842
0.166672
0.335016
0.42757
0.433736
0.325971
0.162055
0.105614
0.0803652
0.0686522
0.0651114
0.0608897
0.0584425
0.0557827
0.0533685
0.0503929
0.0492292
0.0513023
0.0547418
0.0569659
0.0587415
0.0598581
0.0644344
0.0674218
0.0782397
0.104499
0.164313
0.3287
0.434513
0.438205
0.326524
0.161987
0.110682
0.0823116
0.0673589
0.0624372
0.0565503
0.0541601
0.0511883
0.0490503
0.0466512
0.0453355
0.0475052
0.0502307
0.0520506
0.0546907
0.0561582
0.0616639
0.0657241
0.0798951
0.108445
0.163413
0.326189
0.443818
0.43411
0.323828
0.16008
0.118102
0.0838178
0.0654292
0.0588216
0.0529573
0.0503663
0.0477732
0.0455499
0.0429604
0.0419533
0.0436519
0.0466545
0.0486968
0.0506726
0.0520283
0.0581351
0.0640955
0.0808602
0.115361
0.159192
0.329184
0.441681
0.43161
0.322172
0.15676
0.122355
0.0872619
0.066533
0.0572832
0.0498711
0.047123
0.044184
0.0422759
0.0401888
0.0390537
0.0409345
0.0432599
0.044872
0.0477343
0.0495325
0.0560595
0.0646366
0.0850425
0.121039
0.155697
0.335664
0.437912
0.423866
0.322832
0.149827
0.122475
0.0916059
0.0665358
0.0546804
0.0470219
0.0441235
0.0416087
0.0396513
0.0373623
0.0365232
0.0379467
0.0406485
0.0424615
0.044589
0.0465079
0.0540342
0.0649102
0.0881686
0.121009
0.150374
0.330557
0.432287
0.413407
0.323663
0.145065
0.122031
0.0992768
0.0691695
0.0549746
0.0453928
0.042011
0.0388891
0.0371372
0.035332
0.0343009
0.035873
0.0379397
0.0393808
0.0425719
0.0450788
0.0536463
0.0669053
0.09594
0.12063
0.145161
0.330047
0.414474
0.408303
0.321494
0.139619
0.120201
0.10802
0.0709442
0.054241
0.0440398
0.0398839
0.0370483
0.0351564
0.0330729
0.0323423
0.0335431
0.0360297
0.0377241
0.0402613
0.0434437
0.05351
0.0692546
0.107014
0.119794
0.142762
0.321568
0.405912
0.399154
0.323198
0.137556
0.116463
0.107837
0.076056
0.0553729
0.0440466
0.0388448
0.0349846
0.0331856
0.0315205
0.0306077
0.0319831
0.0338927
0.0354003
0.0393828
0.0434008
0.0540403
0.0738171
0.107406
0.117023
0.13902
0.320367
0.402102
0.389603
0.318646
0.137165
0.111345
0.106701
0.0837865
0.056765
0.0439154
0.037871
0.033931
0.0317878
0.0297499
0.0290691
0.0301132
0.0325052
0.0343075
0.0379446
0.0431355
0.0553572
0.0810345
0.106521
0.112204
0.138597
0.325811
0.39603
0.382898
0.315509
0.135508
0.106796
0.10426
0.0934863
0.0611415
0.0446717
0.0381067
0.0327894
0.0303485
0.0285693
0.0277128
0.0289771
0.0308476
0.0328031
0.038374
0.0441208
0.0591842
0.0927463
0.104473
0.108026
0.142105
0.325354
0.385554
0.375547
0.313837
0.1363
0.103061
0.0994588
0.093119
0.067788
0.0458789
0.0378028
0.032757
0.0296974
0.0273193
0.0265391
0.0275988
0.0303073
0.0327186
0.0378339
0.0450821
0.0651288
0.0926446
0.100897
0.104784
0.142514
0.319841
0.378654
0.363142
0.307176
0.137672
0.100536
0.0949666
0.0919077
0.0789003
0.05
0.0390021
0.0325424
0.0291496
0.0268422
0.025671
0.0271102
0.0294096
0.0323507
0.0388941
0.0484427
0.0750364
0.0917513
0.0959684
0.101991
0.143131
0.314743
0.370097
0.353088
0.303135
0.137071
0.0989261
0.0912034
0.0893015
0.0790988
0.0561018
0.0398674
0.032838
0.0293044
0.0264495
0.0252806
0.0265248
0.0298183
0.03277
0.0395671
0.0543982
0.0785132
0.0891835
0.0922877
0.100591
0.142822
0.305912
0.356768
0.326534
0.291959
0.136624
0.0973303
0.0877885
0.0847199
0.0782102
0.0655478
0.043782
0.0332729
0.029235
0.0265845
0.0252758
0.0267621
0.0294169
0.0329813
0.0434382
0.0635296
0.0782432
0.0857226
0.0889909
0.0988508
0.139984
0.292794
0.328427
0.295215
0.273604
0.132714
0.0961455
0.0856703
0.0809101
0.0767048
0.0679142
0.049156
0.0355593
0.0299346
0.0265547
0.0253031
0.0265741
0.0302818
0.0348736
0.0487134
0.0685756
0.0769769
0.0808379
0.0857453
0.0965932
0.134796
0.275357
0.296953
0.1164
0.559726
0.838459
0.957366
0.98421
0.987762
0.978601
0.979498
0.98637
0.991677
0.988112
0.971666
0.938835
0.887813
0.821809
0.742206
0.655053
0.565457
0.478887
0.401416
0.334363
0.279352
0.235776
0.202171
0.174536
0.149317
0.125963
0.102859
0.0828587
0.0764338
0.111301
0.596614
0.863784
0.968284
0.985684
0.983761
0.972759
0.975521
0.984017
0.992606
0.995642
0.98802
0.966273
0.927722
0.871777
0.800096
0.716557
0.625667
0.533508
0.447045
0.369529
0.304059
0.251742
0.210945
0.178602
0.151173
0.125325
0.101756
0.081739
0.0754355
0.119779
0.63853
0.88743
0.982683
0.994818
0.991134
0.984119
0.989907
1.00306
1.01734
1.02773
1.02784
1.01476
0.984917
0.936144
0.870345
0.789874
0.698045
0.599801
0.503332
0.413289
0.336144
0.273454
0.223895
0.185737
0.154485
0.126152
0.101223
0.0807574
0.0748356
0.125206
0.661909
0.908786
0.999609
1.00836
1.00192
0.99436
1.00054
1.01502
1.03214
1.04615
1.05243
1.04728
1.02708
0.988352
0.931869
0.858398
0.76951
0.669439
0.565186
0.465272
0.375637
0.301065
0.241393
0.195482
0.159272
0.127951
0.100811
0.0799593
0.0742465
0.126737
0.678765
0.929755
1.01765
1.02434
1.01582
1.00698
1.0132
1.02884
1.04849
1.06658
1.07951
1.08183
1.07088
1.04177
0.994837
0.929597
0.845694
0.74594
0.637231
0.528114
0.425892
0.337872
0.265831
0.21021
0.167208
0.131472
0.101616
0.0797572
0.0740065
0.128038
0.697589
0.951562
1.03633
1.04069
1.02931
1.01913
1.02464
1.04064
1.06172
1.08267
1.10007
1.10828
1.10431
1.08355
1.0457
0.988968
0.912236
0.818043
0.710053
0.59519
0.483122
0.381938
0.296668
0.229366
0.177802
0.136341
0.103188
0.0794332
0.0734285
0.129824
0.716405
0.972337
1.05392
1.05584
1.04177
1.03009
1.03475
1.05098
1.07336
1.09643
1.11673
1.12966
1.13147
1.11797
1.08825
1.04038
0.973995
0.88887
0.785536
0.668949
0.549351
0.435487
0.335829
0.254863
0.192561
0.144092
0.105998
0.0794895
0.0730227
0.131696
0.73435
0.991381
1.06988
1.0696
1.05309
1.03963
1.04308
1.05911
1.08198
1.10571
1.12683
1.14165
1.14636
1.13837
1.11581
1.0791
1.02535
0.95097
0.856319
0.744233
0.620844
0.496426
0.38232
0.286515
0.211841
0.15448
0.109988
0.0799477
0.0727916
0.133347
0.74945
1.00836
1.0836
1.08184
1.0637
1.04766
1.04934
1.06441
1.0866
1.10941
1.12956
1.14342
1.14966
1.14831
1.13577
1.11096
1.06909
1.00681
0.923553
0.819695
0.697369
0.565817
0.438275
0.326467
0.2372
0.168638
0.115977
0.0811613
0.0728082
0.134128
0.762061
1.02257
1.09466
1.09203
1.07255
1.05447
1.05332
1.0664
1.08674
1.10628
1.12364
1.1371
1.14766
1.15328
1.1479
1.13322
1.10273
1.05261
0.981407
0.887813
0.77201
0.639506
0.501783
0.374454
0.268876
0.186888
0.124261
0.0829218
0.0725972
0.134405
0.77205
1.0332
1.10267
1.09947
1.07825
1.0596
1.056
1.06607
1.08214
1.09739
1.11309
1.13009
1.14408
1.15476
1.15554
1.14942
1.12897
1.09088
1.03269
0.949523
0.842859
0.713838
0.571733
0.430961
0.308147
0.210228
0.135331
0.085561
0.072457
0.134191
0.778713
1.0412
1.10768
1.10375
1.08121
1.06201
1.0572
1.06318
1.07304
1.08712
1.10497
1.12323
1.13925
1.1527
1.15965
1.15994
1.14762
1.11993
1.07382
1.00341
0.905776
0.783389
0.64129
0.492316
0.353714
0.238247
0.149324
0.089372
0.0726468
0.133814
0.781111
1.04512
1.11074
1.10463
1.08148
1.06212
1.05612
1.05772
1.06552
1.08019
1.09846
1.11657
1.13363
1.14828
1.16079
1.16602
1.16064
1.14236
1.10745
1.04967
0.964858
0.851875
0.713798
0.559574
0.406386
0.272876
0.167665
0.095138
0.0729212
0.132666
0.781638
1.04503
1.11014
1.1034
1.07885
1.06001
1.05314
1.05129
1.0586
1.07363
1.09191
1.11013
1.12746
1.14269
1.15926
1.16884
1.16907
1.15899
1.1342
1.0882
1.01601
0.915414
0.785024
0.630156
0.465868
0.3138
0.191126
0.102823
0.0730461
0.131629
0.775616
1.0409
1.10564
1.09952
1.07373
1.05564
1.04834
1.04461
1.05204
1.06703
1.0855
1.10372
1.12127
1.13696
1.15582
1.16978
1.1747
1.1719
1.15629
1.12145
1.06192
0.974063
0.853213
0.70158
0.529986
0.363247
0.221012
0.113503
0.0733455
0.129777
0.769355
1.0326
1.09731
1.09208
1.06641
1.04876
1.04166
1.03767
1.04544
1.06064
1.07906
1.09764
1.11545
1.13135
1.15185
1.16956
1.17861
1.18191
1.17429
1.14955
1.10197
1.02658
0.916241
0.770983
0.598386
0.42028
0.25748
0.127869
0.0738524
0.127566
0.758278
1.01774
1.08423
1.08056
1.05608
1.03975
1.03319
1.03036
1.0387
1.05446
1.07351
1.09241
1.11012
1.12666
1.14844
1.169
1.18195
1.19012
1.18909
1.17296
1.136
1.07192
0.973125
0.837413
0.670337
0.484465
0.30127
0.146966
0.0747569
0.125224
0.744598
1.00047
1.06578
1.06471
1.04255
1.02853
1.02309
1.02239
1.03168
1.04843
1.06838
1.08769
1.10617
1.12335
1.14633
1.16849
1.18529
1.1971
1.20102
1.19149
1.16309
1.10926
1.02264
0.899586
0.742675
0.553041
0.35136
0.171191
0.0760559
0.122401
0.725881
0.976733
1.04121
1.04382
1.02513
1.01465
1.0114
1.01346
1.02404
1.04198
1.06323
1.08396
1.10269
1.12205
1.14585
1.16886
1.18897
1.20364
1.21107
1.20646
1.185
1.14061
1.06637
0.957482
0.811585
0.622767
0.406531
0.200802
0.077803
0.119585
0.705797
0.947988
1.01298
1.01836
1.00353
0.997924
0.997801
1.00318
1.0159
1.03543
1.05805
1.08019
1.10107
1.12217
1.1472
1.17111
1.19292
1.21033
1.22021
1.2194
1.20389
1.16832
1.10572
1.00969
0.872604
0.6876
0.465903
0.235924
0.0799837
0.116241
0.680439
0.91211
0.976768
0.983591
0.977173
0.977874
0.981951
0.990892
1.00695
1.0287
1.05314
1.07686
1.10049
1.12354
1.15064
1.17547
1.19759
1.21733
1.22913
1.23125
1.22076
1.19302
1.14092
1.05629
0.929143
0.751602
0.529011
0.276288
0.0828241
0.11343
0.653269
0.868448
0.931498
0.943835
0.945353
0.953928
0.963361
0.976539
0.996407
1.02139
1.04826
1.07405
1.10077
1.12656
1.15477
1.18183
1.20417
1.22436
1.23827
1.24256
1.23615
1.215
1.17186
1.09763
0.980753
0.814799
0.594
0.320678
0.0864738
0.109834
0.614858
0.806614
0.870142
0.892322
0.906697
0.925004
0.941293
0.959954
0.983996
1.01269
1.043
1.07166
1.10171
1.13102
1.16075
1.1889
1.21179
1.23076
1.24627
1.25229
1.24959
1.23392
1.19819
1.13351
1.02874
0.874677
0.65732
0.367481
0.0909187
0.109158
0.549592
0.702733
0.776555
0.819906
0.852744
0.888564
0.914413
0.939925
0.969283
1.00242
1.03654
1.06944
1.10306
1.13584
1.16703
1.19516
1.2173
1.23433
1.24939
1.25739
1.25921
1.24931
1.22016
1.16422
1.07044
0.92654
0.713719
0.413055
0.0956055
0.0932399
0.387919
0.496315
0.618552
0.711392
0.780457
0.841648
0.880897
0.915228
0.95129
0.989994
1.02883
1.06673
1.10422
1.13973
1.17228
1.1995
1.21997
1.23789
1.25422
1.2655
1.26832
1.26102
1.23763
1.18894
1.10352
0.967235
0.759245
0.45314
0.100652
0.076201
0.083483
0.10427
0.127619
0.151193
0.17552
0.201603
0.233515
0.275129
0.327662
0.392506
0.468798
0.556171
0.645956
0.733738
0.814559
0.882068
0.933688
0.966981
0.983559
0.986284
0.980412
0.971908
0.968083
0.973766
0.969507
0.940343
0.820715
0.545183
0.113764
0.0751688
0.0822981
0.102712
0.126399
0.151664
0.1783
0.208813
0.24724
0.296997
0.360327
0.435627
0.520802
0.614018
0.705464
0.790257
0.863543
0.92099
0.960425
0.982575
0.990399
0.986244
0.977354
0.967926
0.963349
0.970109
0.97119
0.951431
0.846167
0.581721
0.108901
0.0746628
0.0814231
0.101907
0.126661
0.153809
0.183844
0.219807
0.265764
0.32593
0.40143
0.488708
0.583982
0.683455
0.777112
0.85933
0.927194
0.977751
1.00883
1.0225
1.02267
1.0115
0.996477
0.982685
0.974857
0.978804
0.980819
0.965491
0.869837
0.624071
0.117253
0.0740593
0.0804811
0.101474
0.127769
0.157491
0.192042
0.234376
0.29008
0.361824
0.44904
0.547637
0.651274
0.751936
0.844154
0.920811
0.980092
1.02129
1.0425
1.04793
1.04149
1.02642
1.00908
0.99371
0.98554
0.98993
0.99467
0.982203
0.890877
0.647429
0.122722
0.0737907
0.0799961
0.101856
0.130363
0.163884
0.204205
0.255315
0.322484
0.407466
0.507258
0.615933
0.724444
0.825608
0.914173
0.983893
1.03426
1.06629
1.07862
1.07675
1.06327
1.04338
1.02351
1.00715
0.998849
1.00399
1.01096
1.00028
0.91157
0.66407
0.1242
0.0731753
0.0794323
0.102672
0.134251
0.172563
0.220177
0.281781
0.361352
0.459136
0.569753
0.684861
0.794114
0.890893
0.971588
1.03357
1.07571
1.1
1.10598
1.09844
1.08054
1.05733
1.03595
1.01909
1.01149
1.01809
1.02789
1.01903
0.933252
0.682931
0.125501
0.0728002
0.0793127
0.104553
0.140306
0.184879
0.241733
0.315735
0.409191
0.51951
0.639222
0.75732
0.863711
0.951907
1.02152
1.07377
1.10786
1.12536
1.12652
1.11455
1.09412
1.0689
1.04641
1.02934
1.02263
1.03108
1.04367
1.03689
0.954019
0.701717
0.127516
0.0724811
0.0796389
0.107647
0.148605
0.200899
0.268863
0.356799
0.464565
0.585485
0.709544
0.825287
0.924196
1.00291
1.06036
1.09984
1.12517
1.13673
1.1349
1.12237
1.10132
1.07675
1.0536
1.03677
1.03167
1.04275
1.05796
1.05316
0.97296
0.719242
0.129321
0.0725993
0.0805766
0.112577
0.160393
0.222511
0.30371
0.407234
0.52885
0.658032
0.782451
0.891429
0.979912
1.04679
1.09232
1.12028
1.13488
1.1382
1.13319
1.12194
1.10252
1.07936
1.05689
1.04122
1.0386
1.05355
1.07063
1.06747
0.989568
0.734554
0.131148
0.0727389
0.0821439
0.119392
0.175979
0.249965
0.346381
0.465815
0.59937
0.73246
0.852392
0.951278
1.0269
1.08178
1.11635
1.13359
1.14074
1.13693
1.12662
1.11349
1.09716
1.07687
1.05666
1.04321
1.04387
1.06358
1.0814
1.07943
1.00329
0.747323
0.1322
0.0728203
0.084455
0.128706
0.196132
0.284583
0.397766
0.532163
0.673748
0.805779
0.917306
1.00438
1.06714
1.10984
1.13425
1.14262
1.14335
1.13404
1.1204
1.10361
1.08792
1.07098
1.05405
1.04395
1.0485
1.06971
1.08943
1.08865
1.01367
0.757627
0.132471
0.0727747
0.0874414
0.14047
0.220736
0.325561
0.455658
0.601469
0.744944
0.870783
0.972538
1.04809
1.0987
1.13027
1.14597
1.14761
1.1425
1.12967
1.11422
1.09634
1.07885
1.06398
1.05073
1.04408
1.05053
1.07279
1.09449
1.09486
1.02112
0.765538
0.132509
0.0728712
0.0917352
0.15565
0.250319
0.373345
0.51944
0.67242
0.813427
0.931715
1.02179
1.08422
1.12306
1.14457
1.15278
1.14927
1.13866
1.12439
1.10805
1.09011
1.07259
1.05796
1.04779
1.04277
1.05052
1.07319
1.0962
1.09763
1.02677
0.768632
0.132125
0.0730648
0.0978395
0.175694
0.287065
0.428114
0.587756
0.743875
0.879388
0.986453
1.06325
1.11309
1.14116
1.15386
1.15591
1.14846
1.13319
1.11848
1.1018
1.0841
1.06711
1.05218
1.04355
1.04016
1.04878
1.07084
1.09471
1.0973
1.02916
0.770003
0.131138
0.0733689
0.10645
0.201651
0.332192
0.489511
0.65871
0.813851
0.940493
1.03433
1.09805
1.13622
1.15471
1.15984
1.15687
1.14565
1.12733
1.11237
1.09558
1.07836
1.06126
1.04673
1.03821
1.03601
1.04517
1.06565
1.09107
1.09349
1.02666
0.766074
0.130497
0.073747
0.11814
0.233593
0.385033
0.556525
0.729046
0.878431
0.994307
1.07549
1.12691
1.1548
1.16515
1.16397
1.15696
1.1419
1.12177
1.10661
1.08969
1.07237
1.05558
1.04118
1.03249
1.02994
1.03923
1.0584
1.08394
1.08622
1.02124
0.760787
0.128893
0.0744229
0.133902
0.272487
0.445406
0.628056
0.797442
0.937898
1.04175
1.11062
1.15121
1.17032
1.1739
1.16762
1.15702
1.13873
1.11713
1.10166
1.08481
1.06669
1.04959
1.03506
1.02582
1.02249
1.0309
1.04866
1.07273
1.07398
1.00588
0.751154
0.126776
0.0754422
0.154575
0.318405
0.511325
0.700837
0.86251
0.990937
1.08206
1.13987
1.17133
1.18342
1.18172
1.17154
1.15754
1.13683
1.11421
1.09768
1.08022
1.06179
1.044
1.02824
1.01789
1.01353
1.02044
1.03582
1.05734
1.05821
0.990851
0.739096
0.124601
0.076673
0.180126
0.369458
0.579952
0.771592
0.923568
1.03846
1.11711
1.16476
1.18858
1.19511
1.18939
1.17629
1.15882
1.13685
1.11333
1.0947
1.07641
1.05749
1.03813
1.02063
1.00851
1.0028
1.00755
1.01906
1.03704
1.03335
0.968626
0.721674
0.121934
0.078301
0.211376
0.42603
0.646249
0.836008
0.979708
1.08147
1.14828
1.18668
1.20394
1.20605
1.19738
1.18182
1.16155
1.13892
1.11433
1.09283
1.07379
1.0534
1.03188
1.01201
0.997381
0.990215
0.9918
0.998076
1.01145
1.00606
0.941782
0.702928
0.119257
0.0806141
0.248346
0.487489
0.711564
0.895719
1.03022
1.12036
1.17645
1.20652
1.2181
1.21669
1.20591
1.18787
1.16648
1.14334
1.11615
1.09311
1.07137
1.04874
1.02464
1.00232
0.985319
0.975185
0.9727
0.972243
0.978817
0.970619
0.9075
0.678908
0.116053
0.0838057
0.290807
0.553078
0.777057
0.950692
1.07475
1.15446
1.20118
1.2242
1.23118
1.22716
1.21471
1.19496
1.17379
1.14819
1.1199
1.09451
1.06907
1.04343
1.01694
0.991794
0.971446
0.956964
0.949489
0.940868
0.938268
0.926055
0.864794
0.652557
0.113342
0.0877459
0.337237
0.61956
0.840696
1.00242
1.11396
1.1836
1.22223
1.2394
1.24258
1.23674
1.22264
1.20342
1.18206
1.15491
1.12508
1.09624
1.06707
1.03776
1.00826
0.979575
0.955023
0.935198
0.921265
0.902365
0.887359
0.865389
0.803502
0.614553
0.109795
0.0922066
0.38435
0.681017
0.897648
1.04785
1.14755
1.20768
1.23865
1.25014
1.2493
1.24202
1.22722
1.21039
1.18922
1.16182
1.13066
1.09813
1.06501
1.03135
0.998111
0.965044
0.935288
0.908866
0.885762
0.850859
0.816408
0.773072
0.70055
0.549222
0.109019
0.0969778
0.428576
0.732953
0.944575
1.08533
1.17462
1.22609
1.25163
1.26008
1.25756
1.24744
1.2309
1.2139
1.19438
1.1676
1.13514
1.0996
1.06238
1.02377
0.985876
0.947369
0.911068
0.876162
0.839899
0.779933
0.710829
0.618519
0.495958
0.384858
0.0933268
0.466351
0.466841
0.47313
0.477036
0.483553
0.488349
0.494811
0.500128
0.506452
0.512067
0.518274
0.524104
0.530291
0.536316
0.542579
0.548971
0.555624
0.56239
0.569229
0.576071
0.582821
0.58938
0.595724
0.601803
0.607504
0.613003
0.617926
0.622274
0.626133
0.629599
0.632762
0.635513
0.637836
0.639707
0.641113
0.642029
0.642446
0.642373
0.641808
0.640728
0.639095
0.636871
0.634023
0.630527
0.626316
0.621395
0.615727
0.609357
0.602371
0.594779
0.586529
0.578555
0.568955
0.560151
0.550641
0.540618
0.53002
0.518573
0.506904
0.494783
0.482142
0.468985
0.455539
0.44183
0.427864
0.413666
0.39939
0.385131
0.370952
0.356916
0.343123
0.329649
0.31655
0.30386
0.291691
0.28008
0.269059
0.258751
0.249137
0.240149
0.231711
0.223832
0.216511
0.209648
0.203185
0.197199
0.191619
0.186296
0.181246
0.176609
0.172252
0.167931
0.163847
0.160192
0.156865
0.153235
0.149817
0.146996
0.144641
0.142442
0.140407
0.138657
0.137336
0.136427
0.136026
0.136138
0.136747
0.137664
0.138789
0.140004
0.141013
0.141685
0.141952
0.141756
0.140976
0.139635
0.137783
0.135367
0.132302
0.128542
0.124051
0.119042
0.113664
0.108045
0.102397
3.66007
3.65493
3.70372
3.75065
3.80353
3.85596
3.91036
3.96386
4.01799
4.07098
4.12401
4.17612
4.22799
4.27896
4.32926
4.37816
4.42714
4.47771
4.52837
4.57856
4.62803
4.67612
4.72251
4.76784
4.8095
4.84472
4.87572
4.90392
4.93028
4.95541
4.97767
4.99716
5.01373
5.02724
5.03762
5.0449
5.04909
5.05007
5.0476
5.04131
5.03082
5.01579
4.99595
4.97109
4.94109
4.906
4.86559
4.82038
4.77035
4.71536
4.6558
4.59078
4.52019
4.44517
4.36625
4.28365
4.19995
4.10693
4.01184
3.91347
3.81214
3.70699
3.59924
3.48863
3.37557
3.26038
3.14452
3.02841
2.91252
2.7974
2.68405
2.57306
2.46487
2.35999
2.25839
2.1602
2.0647
1.97027
1.87852
1.79277
1.71302
1.6385
1.5689
1.50374
1.44254
1.38492
1.33052
1.27875
1.22913
1.18139
1.13521
1.09019
1.04627
1.00386
0.963588
0.925575
0.889597
0.855022
0.819826
0.785141
0.751573
0.719733
0.690383
0.663902
0.640905
0.621769
0.606681
0.595629
0.588453
0.584874
0.58422
0.585874
0.589079
0.593218
0.597524
0.601435
0.604162
0.604607
0.602045
0.595499
0.583543
0.565702
0.541228
0.509574
0.471205
6.14347
6.13033
6.18513
6.24645
6.31213
6.37852
6.4453
6.51138
6.5772
6.64189
6.70636
6.77016
6.83373
6.89717
6.96054
7.02374
7.08639
7.14877
7.21078
7.27115
7.32917
7.38444
7.437
7.4868
7.52546
7.557
7.58398
7.6081
7.63068
7.6481
7.66176
7.67168
7.67758
7.67926
7.6767
7.66991
7.65876
7.64293
7.6219
7.59511
7.56212
7.52263
7.47653
7.42388
7.36502
7.30004
7.22901
7.15266
7.07092
6.98385
6.89182
6.7947
6.69169
6.58377
6.47105
6.35368
6.23225
6.10592
5.97368
5.83682
5.69741
5.54316
5.39117
5.23785
5.08176
4.92347
4.76348
4.60165
4.4393
4.27746
4.118
3.96153
3.80852
3.65948
3.51526
3.37621
3.24237
3.11372
2.99049
2.87151
2.75785
2.65114
2.55152
2.45753
2.36847
2.28383
2.20294
2.12532
2.05051
1.97811
1.90775
1.83915
1.77231
1.70731
1.64418
1.58293
1.52359
1.46607
1.40973
1.3549
1.30184
1.25136
1.20458
1.16065
1.12075
1.08504
1.0539
1.02743
1.00552
0.988011
0.974363
0.964111
0.956658
0.95136
0.947569
0.944711
0.941891
0.937845
0.931453
0.921656
0.906493
0.88496
0.856644
0.82183
0.779997
7.70859
7.68369
7.72743
7.78447
7.84399
7.90471
7.96571
8.026
8.08564
8.14463
8.20352
8.26261
8.32208
8.38188
8.44206
8.50197
8.56125
8.61835
8.67296
8.72492
8.77318
8.81761
8.85807
8.88925
8.91002
8.92441
8.93504
8.94371
8.94909
8.9487
8.94437
8.93599
8.92342
8.90663
8.88561
8.86026
8.83027
8.79502
8.75379
8.70597
8.6513
8.58986
8.52202
8.44834
8.36972
8.28615
8.19815
8.10622
8.0101
7.90976
7.80521
7.69631
7.58291
7.46518
7.34299
7.21595
7.08383
6.94618
6.80362
6.65665
6.50594
6.35073
6.1905
6.02669
5.86111
5.67814
5.50327
5.32983
5.1565
4.98453
4.81449
4.6457
4.47941
4.31664
4.15918
4.00755
3.86218
3.72344
3.59163
3.46658
3.34778
3.23419
3.1251
3.02127
2.92338
2.83019
2.7401
2.65248
2.567
2.48339
2.40153
2.32131
2.24265
2.16575
2.0906
2.01728
1.94589
1.8764
1.80901
1.74371
1.68091
1.62088
1.564
1.51024
1.46039
1.4149
1.37442
1.33753
1.30398
1.27506
1.24994
1.22827
1.20978
1.19399
1.18039
1.16853
1.15774
1.1472
1.13581
1.12229
1.10512
1.08343
1.05623
1.02402
0.986184
8.65959
8.61865
8.64187
8.68554
8.73015
8.77633
8.82232
8.86774
8.91283
8.9581
9.00397
9.0504
9.09739
9.14484
9.19248
9.23979
9.28579
9.32904
9.36795
9.40108
9.4298
9.45432
9.47244
9.47769
9.47452
9.46639
9.45579
9.4444
9.42719
9.40574
9.38064
9.35188
9.31952
9.28357
9.24389
9.20022
9.15207
9.09851
9.03861
8.97183
8.89841
8.8192
8.73527
8.64776
8.55776
8.46525
8.37096
8.2748
8.1763
8.07527
7.97135
7.86432
7.75417
7.64093
7.52423
7.40335
7.27788
7.14735
7.01235
6.8731
6.72955
6.58156
6.42961
6.27403
6.11537
5.95317
5.78723