/*--------------------------------*- C++ -*----------------------------------*\
| =========                 |                                                 |
| \\      /  F ield         | OpenFOAM: The Open Source CFD Toolbox           |
|  \\    /   O peration     | Version:  2112                                  |
|   \\  /    A nd           | Website:  www.openfoam.com                      |
|    \\/     M anipulation  |                                                 |
\*---------------------------------------------------------------------------*/
FoamFile
{
    version     2.0;
    format      ascii;
    arch        "LSB;label=32;scalar=64";
    class       volScalarField;
    location    "0.0108";
    object      k;
}
// * * * * * * * * * * * * * * * * * * * * * * * * * * * * * * * * * * * * * //

dimensions      [0 2 -2 0 0 0 0];

internalField   nonuniform List<scalar> 
13875
(
812.097
3462.61
3540.45
3539.11
3541.85
3539.78
3541.58
3540.55
3540.54
3542.06
3542.11
3541.09
3540.41
3540.08
3540.42
3541.21
3541.92
3541.13
3540.75
3540.24
3541.14
3539
3539.87
3460.28
820.659
881.795
2936.61
3013.09
3000.56
3001.6
2998.77
2998.09
2997.06
2996.37
2996.47
2996.24
2998.1
2996.35
2996.34
2996.17
2998.51
2996.24
2997.11
2996.97
2998.59
3000.43
2999.29
3011.5
2934.25
894.64
993.359
2710.84
2777.5
2755.31
2759.26
2755.32
2747.35
2743.78
2742.67
2741.95
2740.51
2743.64
2751.22
2752.16
2750.87
2744.66
2741.21
2742.73
2745.31
2755.09
2757.65
2753.16
2774.39
2707.37
998.335
1091.05
2533.68
2581.02
2561.53
2567.05
2562.95
2553.2
2548.75
2548.11
2548.05
2546.15
2547.44
2559.07
2560.03
2558.85
2548.69
2547.33
2547.56
2551.16
2562.91
2565.48
2559.38
2579.05
2530.28
1093.75
1172.09
2380.45
2413.17
2392.9
2398.25
2394.4
2383.66
2379.84
2379.98
2379.89
2378.03
2378.55
2390.07
2391.42
2389.9
2379.77
2379.19
2379.04
2382.35
2393.91
2396.78
2391.15
2410.43
2376
1177.05
1240.98
2237.08
2270.91
2244.9
2251.35
2246.18
2233.86
2230.74
2231.23
2231.01
2229.18
2229.08
2240.61
2242.32
2240.53
2230.22
2230.48
2229.91
2233.09
2245.7
2249.95
2243.72
2267.89
2247.31
1246.81
1320.96
2121.75
2158.25
2120.27
2123.14
2116.23
2101.52
2098.54
2099.09
2098.68
2096.92
2096.25
2107.86
2109.73
2107.59
2097.26
2098.54
2097.66
2101.55
2115.49
2121.68
2119.75
2154.11
2095.47
1322.96
1409.76
2000.66
2073.45
2019.5
2016.21
2003.35
1985.33
1981.54
1981.81
1980.97
1979.47
1977.89
1989.7
1991.94
1989.5
1978.84
1981.41
1980.5
1985.44
2002.17
2013.95
2017.99
2068.38
1992.6
1420.05
1691.45
2029.36
2021.78
1944.25
1924.73
1905.43
1883.08
1878.37
1878.49
1877.01
1875.88
1873.4
1885.39
1888.04
1885.48
1874.67
1878.08
1877.13
1883.33
1903.85
1922.38
1942.2
2017.91
2033.51
1716.72
2509.18
2285.4
2018
1901
1858.66
1826.41
1801.67
1796.24
1795.38
1793.24
1792.38
1789.47
1801.01
1804.05
1801.56
1791.97
1794.94
1795.03
1801.32
1824.69
1855.59
1891.52
2011.48
2266.29
2529.89
3876.88
3026.3
2153.65
1915.81
1814.74
1772.37
1744.85
1736.02
1732.86
1729.77
1728.95
1725.86
1736.37
1739.77
1738.09
1731.05
1733.26
1735.14
1744.98
1768.2
1813.24
1907.15
2129.56
2936.68
3858.86
5184.95
6452.77
2853.81
1994.52
1854.04
1756.67
1713.08
1698.3
1691.21
1686.98
1685.73
1682.97
1691.5
1695.24
1694.92
1690.82
1693.02
1698.01
1712.35
1757.79
1847.02
1973.8
2789.44
6315.01
5120.33
5055.71
7612.03
7056.1
3343.45
2044.41
1797.99
1742.95
1702.79
1685.76
1677.42
1674.16
1671.27
1677.31
1681.07
1682.81
1683.09
1690.09
1706.71
1746.61
1804.11
2088.97
3232.39
6763.54
7643.95
5009.53
4825.27
6350.16
7176.9
8751.31
5172.97
2334.16
1902.25
1784.34
1748.25
1743.23
1740.61
1738.25
1743.15
1746.44
1749.44
1752.48
1757.98
1792.44
1941.29
2483.59
5618.68
8154.71
6955.04
6328.15
4832.4
4602.02
5506.75
6040.99
7000.45
6837.57
6730.45
3441.88
2380.79
2130.58
2035.83
1995.95
1981.7
1982.21
1986.67
1998.08
2029.85
2119.71
2387.11
3631.2
6898.67
6816.9
6705.2
5964.7
5485.13
4680.9
4291.79
4794.97
5114.24
5887.76
6069.86
6570.94
5573.58
5177.8
4849.39
4189.03
4267.15
4318.21
4360.4
4346.64
4284.62
4184
4749.72
5442.35
5662.97
6635.41
5996.77
5706.69
5070.68
4776.99
4364.95
3726.71
4037.76
4337.49
5071.33
5587.34
6486.24
7314.28
7565.69
6688.56
6247.72
6505.63
6740.17
6872.4
6817.89
6569.85
6541.64
6706.42
7554.57
7345.81
6459.34
5431.53
4899.79
4224.12
3959.41
3719.05
3062.94
3406.16
3951.77
4864.22
5498.02
6087.55
7090.51
7777.27
6512.1
5477.78
5209.93
5238.23
5306.01
5270.32
5267.69
5780.68
6513.03
7425.41
7028.69
6213.03
5535.32
4806.17
3861.01
3345.28
3026.72
2640.45
3170.19
3863.03
5070.56
5960
5761.43
6076.86
6772.41
6122.06
5172.95
4686.3
4544.67
4536.92
4589.82
4784.1
5317.22
5961.49
6451.04
6060.8
5961.26
6256.79
5094.79
3844.48
3154.96
2644.37
2526.3
3411.54
4095.57
5203.11
5756
5293.75
5245.53
5725.27
5564.3
4948.3
4415.99
4089.27
3978.3
4163.08
4551.41
5028.91
5359.85
5469.64
5260.34
5489.87
5958.49
5176.32
4098.64
3431.55
2521.64
5083.41
7691.04
6235.02
4837.76
4994.14
4641.89
4571.83
4972.86
5031.93
4620.86
4083.06
3656.14
3503.8
3766.01
4246.62
4675.73
4828.67
4770.9
4602.32
4811.97
5150.67
4960.92
6691.15
8204.37
5958.18
11519.3
23279.1
7848.47
4243.01
4299.26
4081.76
4045.32
4399.89
4539.2
4242.84
3728.93
3263.44
3092.57
3381.06
3887.17
4273.73
4342.91
4240.47
4069.04
4216
4413.47
4379.52
8409.52
23343.2
12726.1
13699.6
19446.1
6904.05
3780.73
3761.35
3628.54
3607.42
3931.26
4089.67
3854.25
3370.42
2912.93
2736.79
3012.86
3506.3
3869.57
3902.54
3797.4
3621.64
3721.25
3841.21
3892.85
6978.62
19129.1
13604.8
13011.9
19527.6
5834.18
3432.9
3328.13
3239
3234.69
3520.26
3680.52
3477.87
3022.48
2593.57
2435.32
2693.76
3159.61
3500.48
3510.42
3401.2
3250.8
3316.12
3404.07
3546.24
6002.4
20269.7
12996.4
12672.4
19127.4
5184.23
3162.94
3000.07
2918.28
2929.63
3171.05
3318.22
3137.33
2719.31
2324.92
2181.45
2417.43
2851.08
3164.74
3167.9
3062.61
2938.22
2982.08
3075.56
3272.35
5417.63
20452.8
12793.9
12427.1
19185.8
4726.21
2919.01
2738.56
2649.56
2675.9
2873.55
2998.77
2836.16
2458.43
2097.07
1966.37
2177.82
2573.16
2859.92
2865.71
2770.24
2667.79
2692.5
2805.74
3007.64
4915.08
20252.5
12739.6
12504
17727.6
4245.35
2697.96
2526.42
2426.01
2458.32
2615.8
2710.99
2556.52
2220.78
1900.37
1784.15
1977.82
2336.69
2594.14
2607.7
2525.34
2441.22
2458.83
2593.55
2788.58
4486.96
19113.4
12723.1
12340.3
16820.9
3921.67
2518.81
2353.14
2243.66
2273.19
2396.92
2465.76
2320.98
2021.89
1734.06
1628.55
1802.31
2124.16
2357.56
2380.61
2313.79
2247.92
2266.41
2407.59
2595.27
4161.28
18388.1
12569.1
12019.7
16387.2
3691.61
2364.66
2204.52
2097.76
2113.84
2206.82
2251.93
2114.2
1849.92
1592.17
1494.53
1649.86
1934.61
2142.93
2179.54
2130.43
2081.46
2105.62
2243.25
2426.42
3849.34
16889.4
12464.6
11762.7
15322.9
3493.34
2233.51
2066.34
1970.97
1978.37
2039.03
2058
1925.74
1692.37
1465.35
1378.89
1521.84
1779.37
1966.35
2007.83
1973.48
1942.55
1971.72
2097.65
2288.22
3649.09
15947
12218.8
11387
14069
3334.2
2129.93
1944.64
1858.2
1860
1894.74
1893.8
1766.93
1561.02
1357.95
1278.2
1407.57
1636.36
1802.94
1854.41
1837.41
1823.3
1852.62
1962.86
2171.45
3447.13
14595.7
11896.6
11071.1
13261
3216.04
2052.67
1836.4
1754.66
1754
1769.9
1752.87
1632.29
1447.81
1263.88
1190.89
1306.79
1513.19
1664.98
1720.97
1718.23
1716.4
1744.04
1845.4
2081.7
3285.68
13524.4
11526.6
10789.7
12088.3
3088.21
1992.53
1743.62
1663.7
1654.8
1656.81
1623.59
1507.79
1344.01
1180.29
1114.26
1221.74
1408.44
1544.99
1605.44
1614.69
1618.93
1649.27
1747.8
2012.7
3175.18
12676.1
11174.6
10478.7
11201.2
2970.52
1950.75
1668.5
1582.5
1562.31
1557.29
1513.67
1403.83
1256.52
1107.3
1046.93
1143.48
1313.65
1438.77
1501.11
1520.84
1529.07
1564.03
1665.94
1958.91
3063.59
11528.3
10861.8
10189.3
10578.3
2846.78
1914.03
1618.34
1509.09
1480.09
1466.57
1416.61
1311.39
1178.94
1043.25
987.393
1075.53
1229.35
1343.95
1408.67
1435.44
1448.67
1492.27
1608.08
1919.76
2925.29
10662.9
10547.2
9903.26
9902.13
2725
1881.86
1583.46
1445.57
1404.78
1382.17
1328.36
1228.87
1108.19
984.628
934.447
1015.47
1158.57
1263.96
1326.93
1357.05
1377.45
1427.8
1571.18
1889.62
2806.08
10125.4
10254.2
9646.07
9433.71
2623.28
1876.79
1562.75
1393.21
1339.02
1306.79
1249.91
1156.51
1046.73
933.677
887.044
961.361
1091.68
1188.81
1251.52
1285.57
1312.32
1372.96
1545.62
1874.77
2682.38
9614.99
9958.09
9389.78
9186.4
2528.69
1869.51
1551.79
1356.38
1279.27
1238.89
1179.98
1093.15
992.668
887.372
844.529
912.264
1033.63
1123.2
1182.66
1221.39
1253.5
1334.27
1536
1869.89
2568.81
9332.92
9670.85
9108.69
8747.34
2410.77
1830.09
1556
1331.91
1228.44
1177.88
1115.6
1033.58
941.577
845.418
806.356
869.63
981.961
1064.58
1122.59
1164.82
1203.59
1307.63
1541.37
1843.26
2462.63
9116.15
9419.11
8852.42
8488.06
2301.19
1780.56
1572.88
1318.5
1188.85
1124.95
1059.63
982.309
897.633
807.738
771.642
829.249
934.557
1011.04
1066.82
1115.02
1165.66
1293.33
1551.8
1786.16
2352.83
8745.37
9135.62
8640.45
8305.33
2231.93
1729.05
1609.25
1315.79
1160.78
1081.62
1010.68
935.945
857.262
773.656
740.084
793.051
890.628
962.856
1018.83
1073.36
1139.83
1289.61
1598.94
1733.63
2254.53
8465.31
8866.47
8440.91
8101
2148.11
1661.72
1606.42
1324.6
1139.99
1049.18
968.277
893.944
820.06
741.694
711.068
760.444
853.077
920.844
977.505
1041.17
1119.46
1303.8
1615.11
1682.2
2255.81
8265.67
8665.82
8253.67
7930.36
2096.08
1592.76
1566.41
1358.16
1129.51
1025.15
934.437
857.53
786.908
713.177
684.576
730.165
816.907
882.432
942.719
1017.74
1108.28
1330.71
1576.92
1611.73
2187.53
8110.76
8467.05
8099.09
7754.45
2146.57
1532.61
1510.3
1414.22
1135.06
1005.8
909.572
827.557
757.819
686.883
660.202
702.468
784.671
849.147
915.59
1000.15
1114.28
1396.82
1525.23
1548.66
2193.05
7970.05
8289.89
7950.92
7597.89
2083.85
1471.18
1445.8
1429.15
1168.96
994.762
889.198
803.491
731.897
663.06
637.583
677.892
757.997
823.28
895.557
990.558
1151.78
1422.17
1466.32
1504.98
2285.49
7778.08
8121.09
7804.89
7424.41
2118.86
1427.92
1380.53
1383.37
1246.16
1001.75
875.007
786.421
712.284
643.299
617.474
656.639
735.559
803.809
879.445
993.583
1217.56
1383.59
1402.17
1459.45
2274.57
7583.78
7982.57
7659.22
7269.48
2169.39
1399.38
1323.74
1331.42
1277.37
1052.06
867.471
771.481
697.811
628.571
601.696
640.094
718.882
788.46
869.196
1034.36
1266.84
1333.91
1341.87
1422.9
2259.67
7406.04
7843.65
7442.26
7081.44
2153.19
1368.19
1273.72
1273.95
1240.24
1131.81
882.356
759.746
685.535
617.207
590.752
628.064
705.999
776.436
880.802
1114.15
1247.53
1279.24
1290.72
1401.74
2286.72
7219.24
7625.62
7159.62
6839.42
2152.61
1348.83
1229.94
1217.27
1197.9
1176.27
938.198
756.996
676.23
607.776
581.783
617.909
695.129
770.45
927.144
1176.9
1206.42
1221.39
1244.71
1375.62
2252.38
6999.34
7338.46
6520.03
6381.53
2140.2
1333.59
1193.62
1167.65
1152.63
1148.35
1030.35
785.304
672.333
599.98
573.543
609.445
688.349
789.725
1019.39
1165.95
1162.52
1170.66
1203.92
1351.95
2203.69
6549.63
6689.48
5980.63
9155.87
9160
7996.49
6677.2
5674.28
5010.54
4576.98
4257.34
3971.19
3672.52
3349.59
3006.21
2637.81
2264.55
1900.65
1564.37
1265.81
1013.85
812.081
653.757
534.986
448.442
385.692
339.413
304.62
276.615
254.388
248.948
339.689
6173.4
9676.09
9589.89
8348.63
6987.67
5964.46
5305.35
4878.1
4566.51
4289.96
4000.38
3686.36
3345.28
2969.67
2580.41
2189.19
1815.55
1473.35
1176.12
933.693
738.291
589.982
481.61
403.944
348.374
308.612
277.8
255.848
252.256
343.243
6520.68
10193.8
10028.6
8738.94
7343.09
6295.06
5636.19
5212.89
4906.83
4639.39
4360.2
4057.25
3717.73
3337.14
2934.14
2517.22
2106.38
1718.4
1371.27
1082
842.787
658.724
523.43
427.127
359.596
312.725
278.845
256.406
254.398
345.879
6795.44
10730.3
10583.3
9270.33
7834.22
6741.81
6058.88
5625.82
5318.54
5055.24
4782.45
4485.71
4144.49
3758.76
3342.47
2900.42
2452.48
2017.23
1616.62
1272.31
980.418
752.429
582.472
461.115
377.105
320.569
281.857
257.935
257.046
349.655
6990.07
11272.3
11212.5
9893.27
8414.37
7268.08
6545.53
6091.81
5775.23
5510.8
5241.89
4950.55
4609.61
4219.68
3791.45
3327.15
2846.55
2367.91
1912.74
1506.39
1155.59
875.386
662.395
508.265
401.728
331.983
286.514
260.115
259.54
353.962
7177.49
11847.6
11884.4
10564.1
9048.94
7852.03
7086.57
6607.07
6277.65
6009.34
5742.19
5453.97
5110.84
4715.45
4274.41
3789.84
3280.08
2760.06
2253.81
1785.06
1373.22
1032.3
766.886
570.908
435.8
348.322
293.481
263.287
262.392
358.951
7395.02
12446.2
12588.5
11278.6
9737.58
8491.31
7679.13
7172
6827.25
6548.61
6277.31
5986.49
5636.73
5233.51
4779.3
4276.63
3740.75
3184.82
2633.22
2107.27
1633.13
1225.66
898.545
652.842
481.416
370.756
303.163
267.386
265.324
363.447
7631.4
13065.3
13324.6
12040.4
10484.7
9191.29
8330.26
7792.47
7428.34
7131.38
6847.72
6545.07
6182.17
5765.82
5295.23
4775.95
4219.72
3638.5
3049.11
2473.47
1935.97
1458.99
1063.36
758.76
542.331
401.551
316.821
272.933
268.872
368.35
7878.04
13683.4
14088.9
12852.2
11294.3
9956.08
9046.03
8474.91
8086.23
7760.3
7453.73
7125.03
6738.42
6301.22
5813.99
5286.27
4721.04
4121.77
3501.75
2879.65
2281.25
1735.08
1266.05
893.48
622.424
443.186
335.631
280.284
272.695
373.409
8099.46
14303.5
14879.4
13709
12163
10788.5
9831.38
9223.54
8804.16
8440.54
8099.08
7728.75
7308.73
6853.54
6360.18
5831.41
5256.19
4637.16
3990.19
3326.94
2673.42
2058.23
1512.32
1063.63
727.264
499.553
362.046
290.837
276.6
378.844
8283.79
14925.1
15684.4
14600.1
13084.2
11685.6
10689.2
10043.1
9586.97
9179.46
8790.68
8365.27
7916.25
7451.71
6954.41
6415.74
5820.37
5180.64
4507.89
3808.86
3108.55
2428.66
1805.2
1274.04
861.751
574.551
398.12
305.401
281.478
384.659
8447.09
15542.3
16481.3
15509.4
14043.3
12644.5
11621.1
10938.9
10441.2
9980.42
9529.64
9055.57
8591.92
8111.78
7598.62
7034.03
6413.54
5750.16
5050.03
4318.22
3575.22
2839.87
2144.22
1528.94
1032.28
673.522
447.002
325.319
288.876
391.057
8616.59
16133.8
17259.6
16421
15028.2
13659
12626.5
11912.7
11370.5
10848.8
10327.2
9826.41
9341.44
8831.21
8287.96
7690.26
7038.61
6345.56
5612.72
4845.09
4058.66
3273.32
2515.9
1822.58
1239.18
798.788
510.691
352.06
298.657
397.471
8773.42
16696.9
18021.1
17326.5
16034
14722
13699.8
12963.5
12376.2
11787
11213
10686.1
10166.8
9614.83
9027.77
8390.24
7699.84
6970.3
6199.44
5392.13
4562.33
3726.77
2910.23
2147.07
1480.03
951.737
591.373
386.417
310.336
403.509
8945.7
17190.7
18740.8
18214
17050.4
15817.9
14833.5
14094.2
13463.8
12816.9
12195.7
11635.5
11071.7
10468.1
9828.41
9141.78
8405.53
7632.18
6817.14
5965.79
5090.19
4207.01
3334.52
2503.48
1754.31
1134.99
692.02
430.618
324.376
409.51
9056.21
17623
19404.8
19061.5
18058.4
16939.6
16021.5
15306.1
14638.8
13935.1
13280.5
12685.4
12067
11402
10702.3
9956.67
9166.88
8341.98
7476.61
6576.09
5651.29
4716.65
3788.96
2893.5
2066.2
1354.29
819.44
488.503
342.469
415.885
9170.25
17967.1
19960.1
19841.5
19023
18064.7
17253
16589.3
15895.6
15151.6
14474.9
13840.4
13159.4
12426.4
11659.3
10845.2
9992.96
9108.15
8185.12
7228.62
6248.75
5258.78
4273.13
3312.37
2410.37
1607.59
978.152
564.548
367.098
422.884
9221.36
18258.2
20419.2
20516.7
19917.7
19168.1
18518.1
17936.4
17241.9
16477.7
15786.3
15107.4
14359.2
13553.1
12711.5
11819
10894.3
9939.94
8950.68
7930.21
6888.02
5836.25
4787.35
3758.42
2782.2
1897.43
1171.61
662.807
400.813
430.602
9275.31
18410.5
20715.5
21028.5
20709.2
20224.4
19803.2
19338.4
18678.3
17920.1
17219.6
16494
15672.4
14793.5
13869.3
12888.8
11880.2
10845.3
9779.89
8686.5
7573.33
6451.28
5332.43
4233.36
3186.36
2225.01
1401.74
788.121
447.131
440.131
9268.18
18513.8
20871.5
21380.6
21364.3
21213.6
21090.3
20792.9
20200.4
19478.5
18779.5
18006.4
17109.6
16156
15143.1
14065
12959.7
11831.6
10677.6
9500.53
8306.86
7107.49
5914.66
4746.9
3630.67
2592.11
1669.47
944.426
510.389
452.963
9279.86
18474.9
20824.6
21507.8
21855.1
22120.8
22363
22294.1
21812.4
21155.1
20466.9
19648.2
18682.7
17649.6
16541.5
15358.6
14143
12906.9
11649.6
10376.6
9093.75
7813.03
6545.43
5307.16
4117.38
2994.22
1970.18
1131.57
592.936
469.689
9260.47
18421.6
20572.8
21417.5
22149.2
22925
23605.9
23829.1
23510.5
22950
22288.2
21430.1
20400.1
19283
18077.2
16778.8
15439.3
14079.3
12702.5
11319.8
9938.55
8570.98
7224.75
5909.59
4636.82
3422.86
2299.06
1349.97
696.057
491.639
9327.25
18225.7
20116.6
21132.1
22311.2
23641.1
24818.9
25388.8
25289.1
24862
24246.1
23358.4
22270.3
21066.1
19754.5
18335.8
16859.1
15357.9
13844.4
12335.4
10843.7
9379.17
7944.89
6543.12
5179.98
3870.82
2654.16
1601.58
824.116
519.713
9198.05
18196.2
19653.6
20807.7
22422.4
24299.9
26012.5
26972.8
27138.2
26880.6
26339.2
25444
24303.9
23010.8
21586
20036.3
18410.9
16750
15082.4
13430.9
11813.9
10238.4
8703.36
7205.34
5748.68
4349.36
3046.03
1891.64
984.696
556.796
8861.13
19802.1
20032.4
20889.1
22658.8
24961.6
27187.8
28565
29048.9
29006
28568.6
27692
26509.5
25125.3
23576.6
21882.5
20091.2
18251.6
16413.1
14606.3
12849.7
11149.7
9502.56
7903.09
6354.16
4869.8
3479.09
2220.38
1182.04
605.497
337.872
247.456
254.252
277.851
305.686
339.646
383.394
443.029
528.015
640.536
794.099
996.139
1248.78
1546.82
1882.5
2244.75
2617.24
2985.39
3331.52
3657.48
3961.38
4253.48
4579.56
5018.61
5685.43
6708.8
8044.24
9197.73
9146.07
5982
341.309
250.607
256.211
279.265
309.769
348.547
400.154
473.762
578.905
721.309
909.489
1150.1
1450.1
1793.32
2169.33
2562.49
2953.48
3330.41
3674.67
3991.62
4285.15
4566.78
4882.22
5312.94
5974.11
7012.59
8390.81
9622.79
9654.61
6173.98
344.415
253.376
257.491
280.609
313.598
358.668
421.321
512.372
642.846
821.129
1051.2
1334.95
1685.93
2076.73
2493.46
2916.19
3324.03
3707.96
4050.86
4356.75
4638.22
4909.64
5217.57
5643.35
6307.06
7362.52
8775.72
10058.2
10179.6
6512.72
348.628
256.648
259.439
283.569
320.282
373.908
451.497
565.63
728.804
950.819
1232.8
1569.59
1972.07
2412.76
2869.12
3320.5
3745.05
4135.94
4481.82
4781.44
5055.45
5322.47
5631.05
6065.27
6751.52
7846.5
9302.57
10609.8
10718.1
6787.13
352.946
259.543
261.525
287.691
329.873
394.669
491.89
635.867
839.858
1113.32
1455
1854.37
2308.8
2794.95
3285.01
3760.67
4200.16
4597.26
4945.68
5240.34
5510.42
5778.33
6095.56
6548.78
7272.74
8421.36
9923.28
11236
11259.1
6982.81
357.636
262.586
264.518
293.586
343.401
423.084
545.639
727.239
980.145
1311.89
1717.47
2181.2
2685.07
3211.29
3731.34
4227.59
4681.78
5086.08
5439.72
5733.9
6003.84
6276.25
6606.41
7083.69
7849.4
9048.34
10591.6
11901.4
11829.7
7173.13
362.508
265.649
267.946
301.674
362.05
461.083
615.61
842.946
1152.93
1548.1
2017.73
2538.87
3087.2
3643.41
4188.55
4701.68
5169.64
5584.13
5948.55
6250.92
6529.15
6814.66
7162.22
7667.78
8478.69
9727.53
11305.2
12604.2
12422.1
7385.55
367.378
268.873
272.439
312.831
387.527
512.183
706.862
988.895
1363.62
1825.66
2356.21
2929.32
3514.73
4091.58
4649.35
5175.25
5657.93
6087.2
6468.82
6790.38
7088.86
7398.45
7769.54
8308.2
9167.56
10466.2
12069.1
13342.8
13038.5
7611.57
372.391
272.221
278.261
327.926
421.652
579.578
823.478
1169.41
1613.81
2143.24
2730.85
3349.33
3967.31
4565.02
5129.25
5659.88
6154.21
6602.24
7007.12
7359.43
7688.63
8034.03
8434.68
9009.49
9917.21
11263.4
12878.6
14108.3
13660.2
7859.35
378.181
276.384
287.002
348.952
467.929
668.064
971.781
1389.55
1907.78
2502.11
3142.32
3799.85
4447.11
5068.1
5646.82
6180.2
6681.43
7147.68
7580.42
7974.51
8341.83
8730.85
9165.7
9779.38
10734.2
12119.5
13732
14897.4
14279.9
8086.76
383.458
281.036
298.733
378.078
530.19
782.919
1157.09
1652.68
2245.32
2901.43
3589.88
4282.03
4955.83
5599.23
6201.64
6749.03
7259.39
7738.54
8201.03
8647.01
9060.94
9497.43
9969.04
10619.4
11615.4
13028.1
14619.5
15702
14901
8278
389.519
287.465
315.051
418.042
613.066
929.789
1384.31
1962.32
2627.58
3341.29
4070.81
4795.37
5495.03
6162.25
6791.89
7368.01
7898
8397.9
8881.44
9376
9850.29
10340.5
10850.5
11532.1
12556.8
13978.4
15525.4
16503
15520.1
8445.46
395.871
294.956
336.191
470.606
719.726
1111.79
1652.17
2311.18
3043.51
3808.52
4578.63
5336.68
6066.54
6762.59
7424.55
8037.25
8597.2
9131.33
9642.21
10169.4
10713.4
11264.7
11817.5
12521.9
13555.6
14959.3
16435.9
17285.9
16119.4
8609.21
401.957
303.276
362.984
537.548
852.528
1329.41
1955.59
2688.54
3479.7
4293.81
5109.31
5906.37
6673.26
7404.96
8105.54
8760.7
9363.72
9941.56
10490.5
11047.8
11647.3
12265.3
12867.1
13587.8
14603.4
15959.1
17336.7
18049.2
16694
8770
407.284
313.807
397.963
622.306
1014.47
1581.86
2290.14
3090.64
3939.87
4806.93
5670.12
6512.22
7322.77
8097.59
8843.11
9548.17
10204.5
10833.4
11429.6
12023.9
12672.9
13345.7
13994.9
14721.6
15697.9
16968.5
18220.3
18771.8
17203.8
8953.49
412.71
328.049
445.118
731.466
1209.92
1870.95
2660.06
3528.18
4434.86
5355.44
6270.92
7163.94
8024.76
8850.11
9647.34
10411
11128.9
11816.3
12468.4
13101.8
13789.8
14519
15207.1
15914.1
16823.4
17976
19071.6
19446.6
17655.4
9087.26
418.591
347.388
507.738
869.285
1441.53
2195.34
3063.6
3999.69
4967.03
5946.66
6919.26
7869.22
8787
9670.29
10527.4
11357.4
12145
12897.4
13614.4
14290.8
15004.7
15776.4
16497.1
17155.6
17958.2
18953.5
19860.3
20016
18018.7
9206.04
425.062
373.829
589.655
1040.17
1711.26
2553.34
3499.08
4505.97
5540.76
6585.18
7621.25
8634.84
9617
10566.5
11492.8
12398
13261.7
14085.4
14870.7
15596.2
16328
17123.4
17853.3
18434.3
19079.5
19865.6
20550.3
20494.1
18326.5
9268.91
432.957
410.888
695.821
1247.79
2021.27
2947.35
3968.99
5049.17
6157.45
7273.04
8379.75
9465.04
10520.7
11546.9
12553
13544
14490.3
15387.9
16245.9
17023.6
17767.6
18561.1
19266
19738.1
20162
20685.8
21082.7
20805
18504.6
9333.29
443.16
462.088
830.796
1493.66
2371.8
3382.01
4480.34
5636.21
6820.73
8012.51
9197.21
10363.5
11503.8
12619.3
13717.4
14804.7
15838.3
16813
17747.5
18578.9
19327.6
20085.8
20729.2
21049.7
21180.6
21368.7
21459.9
20984.1
18633
9340.91
456.466
529.623
995.521
1774.63
2758.59
3859.79
5039.2
6271.09
7532.21
8803.97
10074.7
11333.2
12572.2
13791.2
14996.2
16188.4
17317.8
18371.7
19379.8
20265
21010.6
21701.4
22237.9
22350.2
22122.1
21889.6
21612.2
20961.2
18618.8
9368.86
473.938
615.474
1191.73
2085.17
3175.29
4375.06
5641.71
6953.07
8293.22
9650.01
11015.9
12379.6
13733.9
15072.9
16399.7
17707.4
18934.8
20076
21151.9
22087.3
22817
23414.3
23780.8
23623.2
22969.7
22228.3
21550
20730.6
18585.5
9363.16
496.804
724.051
1421.72
2426.1
3617.57
4916.91
6275.57
7673.56
9100.62
10552.2
12025.1
13509.4
14996.3
16473
17936.1
19366.6
20701.5
21934.7
23073
24052.1
24747
25205.8
25358.2
24868.7
23729.3
22428.5
21286.6
20284.7
18403.6
9446.22
526.892
863.681
1693.01
2805.96
4090.1
5480.82
6933.46
8426.3
9952.35
11512.4
13107.2
14729.3
16366.1
17999.3
19613.4
21176.4
22627.8
23957.6
25155.6
26154.2
26787.8
27078.2
26967.4
26101.4
24444.7
22580.9
20981
19813.8
18370.7
9329.57
566.838
1039.51
2006.97
3230.07
4603.42
6080.5
7624.37
9217.12
10851.8
12533.8
14265.4
16040.3
17843.3
19651.5
21431.5
23140.2
24723.3
26155.4
27407.2
28399.5
28944
29023.5
28599.2
27327.3
25162.1
22872.6
21069.2
20161.6
19916.6
8982.4
27739.6
28679.8
29448.1
30318.1
31148.6
32009.4
32841.1
33691.4
34524.3
35369.3
36208.2
37059.3
37920.2
38808.8
39743.8
40698.9
41646
42575.6
43506
44477.7
45493.1
46503.1
47500.1
48483.5
49446.2
50400.8
51344.8
52265.2
53162.6
54031.7
54880.7
55690
56456.2
57181
57864.1
58504.7
59101.3
59651.6
60152.1
60598.1
60983.8
61302.4
61546.3
61708.1
61780
61759.2
61646.2
61445.9
61147
60790.3
60496.2
60146
59771.7
59342.9
58850.7
58262.5
57611.6
56931
56166.5
55294.6
54319.9
53278.7
52147.7
50914
49579.3
48166.4
46682.3
45131.3
43521.7
41870.3
40191.4
38496.5
36794.8
35105.6
33437.5
31799
30219.8
28692.1
27220.7
25803.9
24441.7
23136.1
21884.8
20684.2
19534.2
18433
17373.6
16352.7
15373.9
14430.1
13517.9
12643.9
11812
11019.3
10260.2
9530.93
8829.54
8158.76
7520.48
6918.18
6352.48
5825.61
5339.1
4893.36
4488.42
4122.63
3792.6
3494.59
3223.87
2975.63
2745.11
2528.24
2322.16
2125.13
1935.4
1753.24
1578.99
1412.97
1256.75
1112.43
982.137
867.307
768.612
686.079
619.211
64959.6
66821.1
68659.9
70651.8
72651.7
74684.6
76725.8
78791.9
80870.9
82972.5
85093.3
87236.9
89400.9
91582.8
93777.4
96013.2
98279.5
100576
102914
105293
107690
110084
112472
114848
117202
119538
121854
124135
126380
128581
130707
132752
134717
136600
138402
140119
141746
143275
144698
146001
147169
148185
149031
149689
150143
150385
150413
150230
149848
149303
148571
147654
146603
145415
144089
142646
140890
139020
136927
134590
131999
129225
126218
122970
119494
115843
112026
108056
103963
99790.6
95570.5
91331.7
87098.6
82896.6
78749.3
74671
70643.1
66699.6
62903.1
59250.6
55756.7
52427.6
49258.9
46244.5
43379.1
40650.3
38046.1
35563.4
33196.9
30933.3
28774.5
26737.2
24822.4
23010
21283.4
19629
18056.9
16579.7
15202.1
13930.6
12763.3
11702.5
10746.7
9892.73
9137.33
8472.15
7885.77
7365.79
6899.38
6472.01
6071.85
5688.8
5315.08
4944.91
4574.7
4205.49
3837.61
3468.62
3102.07
2744.75
2401.36
2076
1773.29
1497.74
1251.97
88318.8
90618.4
92990.7
95545.8
98169.3
100839
103540
106275
109040
111838
114667
117531
120425
123346
126291
129258
132281
135369
138519
141716
144931
148139
151336
154514
157680
160827
163944
167028
170066
173024
175891
178663
181341
183925
186417
188812
191102
193277
195323
197221
198948
200476
201776
202821
203589
204067
204253
204155
203791
203180
202328
201253
199988
198543
196915
195074
192947
190530
187813
184770
181298
177526
173454
169036
164297
159322
154109
148672
143055
137337
131556
125748
119952
114212
108553
102999
97566.6
92272.5
87111.9
82129
77375.4
72854.3
68556.5
64473.7
60592.6
56898.5
53378.2
50020.9
46816.2
43755
40835.6
38060.2
35424.1
32914.4
30523.2
28244.7
26085.1
24053.7
22155
20391.4
18765.8
17274.9
15918.2
14692
13591.9
12607.6
11727.3
10939.3
10229.9
9584.11
8987.24
8426.37
7892.29
7376.03
6871.43
6377.44
5891.7
5408.91
4929.2
4457.27
3999.7
3559.93
3139.19
2737.88
2358.45
108595
111265
114071
117089
120224
123425
126677
129976
133321
136711
140146
143627
147150
150712
154309
157941
161611
165346
169154
173008
176880
180746
184603
188444
192267
196069
199845
203585
207247
210811
214269
217622
220876
224036
227106
230082
232956
235715
238344
240817
243100
245153
246932
248401
249531
250309
250736
250825
250593
250061
249245
248174
246877
245362
243614
241577
239183
236398
233207
229602
225530
221020
216111
210776
204976
198812
192400
185688
178738
171663
164508
157307
150109
142986
135964
129071
122344
115820
109520
103455
97615.6
92024
86711
81682.3
76911.9
72380.9
68065.9
63948.9
60015.6
56254.8
52660.1
49226.6
45948.2
42817.6
39830.1
36987.1
34293.5
31755.1
29375.1
27153.8
25092
23187.2
21437
19838
18381.9
17063.8
15871.3
14791.9
13809.9
12911.9
12084.8
11315.9
10594.9
9911.82
9258.3
8630.45
8023.69
7429.71
6845.6
6272.94
5718.8
5186.83
4674.99
4175.93
3690.09
127629
130646
133814
137231
140804
144460
148182
151964
155805
159703
163659
167671
171735
175847
180002
184196
188426
192690
196986
201315
205647
209978
214302
218604
222886
227147
231383
235553
239613
243551
247363
251060
254658
258174
261618
264988
268277
271476
274566
277510
280259
282758
284952
286798
288271
289368
290096
290472
290508
290219
289624
288746
287607
286215
284540
282509
280042
277090
273633
269665
265169
260168
254684
248732
242283
235394
228146
220520
212493
204235
195940
187565
179157
170835
162612
154522
146617
138969
131612
124569
117847
111437
105314
99458.2
93871.7
88578.8
83535.2
78711.9
74092.8
69661.1
65408.4
61330.1
57421.2
53678.4
50101.5
46693.6
43459.3
40402.2
37524
34824.4
32302.3
29954.9
27778.9
25769.7
23921.5
22227.8
20675.2
19250.3
17941.7
16738
15627.2
14596.7
13637
12738.8
11892.9
11093.4
10333.8
9603.83
8897.63
8212.56
7554.02
6926
6324.45
5735.38
5155.17
145475
148790
152234
155968
159877
163874
167946
172086
176293
180564
184898
189291
193736
198222
202738
207275
211824
216378
220923
225440
229950
234437
238890
243314
247716
252093
256408
260603
264646
268521
272244
275843
279354
282813
286237
289626
292976
296279
299510
302614
305526
308177
310515
312509
314153
315470
316485
317205
317634
317771
317620
317173
316431
315384
313993
312215
309984
307234
303912
300032
295584
290581
285040
278978
272400
265356
257881
249985
241646
232979
224130
215110
205835
196617
187531
178544
169708
161185
153011
145217
137822
130824
124190
117871
111817
105956
100285
94797.8
89535
84460.1
79563.3
74846.1
70303.7
65937.2
61752.5
57755
53949.7
50340.3
46928
43712.1
40690.2
37858.8
35213
32747
30453.7
28326.2
26352.6
24523
22829.1
21256
19798.2
18441.7
17181.6
16007.2
14910.5
13884
12920.5
12008.8
11140.9
10310.8
9521.45
8776.28
8070.81
7387.58
6717.66
161596
165115
168709
172631
176715
180881
185119
189421
193783
198202
202673
207183
211717
216252
220768
225251
229693
234092
238458
242788
247040
251202
255309
259377
263409
267341
271111
274674
278006
281118
284046
286849
289595
292347
295126
297920
300723
303526
306295
308959
311439
313675
315646
317354
318833
320135
321308
322327
323194
323890
324373
324561
324390
323832
322950
321904
320601
318776
316290
313246
309645
305489
300801
295596
289878
283670
276975
269765
262022
253831
245305
236543
227492
218281
209011
199726
190281
181342
172792
164653
156963
149742
142927
136440
130202
124145
118217
112390
106616
100933
95369.3
89999.2
84804.2
79788.3
74966.1
70342.1
65923.3
61715.4
57720.6
53938.5
50366
46997.5
43827.5
40849.6
38056.6
35439.9
32989.9
30697.3
28554.2
26551.1
24682.9
22939.6
21314.4
19799.2
18388.1
17073.9
15848.5
14701.5
13623
12604.9
11647
10751.7
9915.52
9120.41
8352.12
175162
178744
182304
186218
190243
194324
198453
202618
206814
211032
215253
219455
223606
227672
231629
235466
239199
242838
246396
249836
253156
256387
259546
262631
265593
268280
270654
272687
274377
275775
276968
278063
279173
280382
281700
283063
284440
285861
287301
288680
289913
290959
291844
292572
293275
293980
294767
295598
296534
297541
298533
299347
300002
300606
301320
301944
302342
302459
302075
300970
299321
297193
294631
291616
288126
284155
279669
274597
268872
262530
255687
248404
240588
232399
223959
215353
206643
198085
189822
181945
174462
167569
161080
154863
148789
142795
136820
130838
124841
118850
112886
106932
101051
95303.8
89787.4
84482.6
79396.4
74536.8
69902.4
65493.1
61306.8
57339
53584.9
50037.7
46689.2
43528.9
40548.5
37740.1
35096.9
32611.8
30278.9
28090.9
26043.2
24133.2
22350.7
20692.6
19149.6
17714.1
16375
15122.8
13954.1
12870.3
11868.8
10933.9
10048
185187
188629
191897
195515
199152
202792
206420
210022
213587
217091
220503
223784
226887
229779
232450
234916
237211
239300
241180
242874