/*--------------------------------*- C++ -*----------------------------------*\
| =========                 |                                                 |
| \\      /  F ield         | OpenFOAM: The Open Source CFD Toolbox           |
|  \\    /   O peration     | Version:  2112                                  |
|   \\  /    A nd           | Website:  www.openfoam.com                      |
|    \\/     M anipulation  |                                                 |
\*---------------------------------------------------------------------------*/
FoamFile
{
    version     2.0;
    format      ascii;
    arch        "LSB;label=32;scalar=64";
    class       surfaceScalarField;
    location    "0.00223";
    object      phi;
}
// * * * * * * * * * * * * * * * * * * * * * * * * * * * * * * * * * * * * * //

dimensions      [1 0 -1 0 0 0 0];

oriented        oriented;

internalField   nonuniform List<scalar> 
27436
(
-0.533381
8.19264
-0.0933881
7.47136
-0.0827918
7.78557
-0.0693008
7.78648
-0.0692736
7.79277
-0.0544268
7.78221
-0.0402089
7.78258
-0.0288418
7.78446
-0.0190974
7.78759
-0.012931
7.79071
-0.0038187
7.78793
0.00808353
7.78703
0.0180215
7.78813
0.0260513
7.78924
0.0391397
7.78531
0.0466754
7.78844
0.0548569
7.78765
0.0638178
7.7866
0.0774351
7.78337
0.0951413
7.78007
0.0955793
7.79231
0.111055
7.78553
0.123963
7.78211
0.574016
7.46248
8.21685
-0.247062
8.43969
-0.0964164
7.32069
-0.0818173
7.77097
-0.0574089
7.76208
-0.0554231
7.79082
-0.0474052
7.77425
-0.0379673
7.77316
-0.0399315
7.78658
-0.0223583
7.77039
-0.012845
7.78065
-0.0020648
7.77612
0.00478251
7.77884
0.0142314
7.77951
0.0208795
7.78241
0.0290794
7.77833
0.0404499
7.77933
0.0613215
7.76694
0.061674
7.78738
0.0673044
7.77709
0.0754479
7.77191
0.0732866
7.79451
0.103069
7.75575
0.114359
7.77109
0.267703
7.30825
8.47834
-0.22734
8.66703
-0.141307
7.23469
-0.12069
7.75037
-0.10784
7.74925
-0.0983455
7.78134
-0.09352
7.76944
-0.0907865
7.77039
-0.0901135
7.78585
-0.0664339
7.74657
-0.0496044
7.76547
-0.0449982
7.76991
-0.0240154
7.76332
-0.0184481
7.77436
-0.00852734
7.76813
0.00691571
7.76392
0.0240129
7.7667
0.0361774
7.75855
0.044914
7.7778
0.0491787
7.77251
0.0525432
7.76831
0.062666
7.7842
0.0786675
7.73975
0.100586
7.74939
0.192512
7.21472
8.67106
-0.169898
8.83693
-0.140016
7.20482
-0.134722
7.74509
-0.1127
7.72725
-0.104719
7.77339
-0.0993109
7.76405
-0.0961895
7.76726
-0.0847418
7.77441
-0.0631441
7.72524
-0.0491499
7.75417
-0.0331266
7.75415
-0.0168794
7.74605
-0.0032757
7.76088
0.0123708
7.75065
0.0269555
7.74926
0.0463266
7.74938
0.0603614
7.74662
0.074596
7.76254
0.0803898
7.7664
0.0852017
7.76322
0.0922418
7.77695
0.118351
7.71373
0.111345
7.7564
0.162206
7.16393
8.83884
-0.0740859
8.91101
-0.037074
7.16784
-0.0914937
7.79953
-0.0585555
7.69433
-0.0593403
7.77421
-0.0592313
7.76397
-0.0597856
7.76782
-0.0493878
7.76405
-0.031391
7.70737
-0.018787
7.74362
-0.00523377
7.74118
0.00848642
7.73025
0.0210577
7.74812
0.0355331
7.73468
0.0471601
7.7371
0.0640213
7.73453
0.0755508
7.73722
0.0880571
7.74957
0.0897454
7.76451
0.0901041
7.76253
0.0928373
7.77403
0.12381
7.68281
0.089793
7.79042
0.0967939
7.15764
8.94053
0.116769
8.79425
0.0430488
7.24158
-0.0492281
7.89183
-0.00789298
7.65302
-0.0215688
7.78791
-0.0292386
7.77166
-0.0340863
7.77266
-0.0276381
7.75757
-0.0148829
7.6947
-0.00665203
7.7364
0.00216587
7.73364
0.0117401
7.71621
0.0223936
7.73717
0.0321537
7.72241
0.0388043
7.73049
0.0520281
7.72334
0.0592913
7.73206
0.0667792
7.74509
0.0642256
7.76721
0.057784
7.76863
0.0465692
7.78505
0.0864696
7.64293
-0.0140525
7.89075
-0.0199636
7.16371
8.92122
0.303234
8.49106
0.135449
7.40944
-0.00431898
8.03218
0.0284317
7.61977
-0.0106706
7.82706
-0.0433259
7.80435
-0.069844
7.79915
-0.0810077
7.76861
-0.0897409
7.70393
-0.104143
7.75211
-0.112464
7.74358
-0.124538
7.72252
-0.129904
7.74272
-0.139713
7.73054
-0.153514
7.745
-0.160677
7.73269
-0.172467
7.7457
-0.185592
7.7662
-0.209775
7.79169
-0.241499
7.79984
-0.269449
7.81281
-0.287993
7.66149
-0.354343
7.95681
-0.657765
7.4674
8.26217
0.871734
7.61937
0.520915
7.76034
0.414674
8.13857
0.338492
7.69599
0.278171
7.88747
0.225635
7.8569
0.183236
7.84142
0.157706
7.79383
0.13165
7.73037
0.103689
7.78243
0.0829717
7.76597
0.057471
7.74338
0.0379356
7.76334
0.012304
7.75582
-0.0136784
7.77323
-0.0353266
7.75659
-0.059525
7.77056
-0.0884844
7.80457
-0.128766
7.83207
-0.177626
7.84817
-0.234852
7.86979
-0.282938
7.70959
-0.406717
8.08035
-0.693776
7.75459
7.56481
0.596244
7.02372
0.409584
7.94739
0.242067
8.30633
0.196631
7.74167
0.14335
7.94093
0.103395
7.89684
0.0793013
7.86526
0.0745775
7.79808
0.0708557
7.73433
0.0680625
7.78839
0.0716274
7.76379
0.0715547
7.74554
0.0791065
7.75802
0.078145
7.75794
0.0778343
7.77722
0.0787342
7.75698
0.0808927
7.76843
0.073845
7.81727
0.0518433
7.85325
0.0173047
7.88234
-0.0330984
7.91969
-0.0494398
7.7256
-0.220047
8.25058
-0.372779
7.9071
7.18931
-3.02731
10.0512
-3.39493
8.31541
-2.76956
7.68155
-2.61345
7.58595
-2.30886
7.63635
-2.00803
7.59558
-1.70958
7.56644
-1.36969
7.45762
-1.09944
7.46449
-0.809834
7.50065
-0.508269
7.46327
-0.209125
7.45727
0.101284
7.45116
0.403023
7.45828
0.704933
7.48
0.985674
7.47631
1.28634
7.46659
1.59973
7.50168
1.89601
7.55644
2.20442
7.57523
2.50473
7.61914
2.63391
7.59568
3.2099
7.67405
2.93471
8.18203
10.1243
-4.23083
14.2844
-4.58948
8.67671
-4.15161
7.24576
-3.8208
7.25568
-3.39772
7.21282
-2.9127
7.11001
-2.39522
7.04881
-1.93452
6.99697
-1.50338
7.03339
-1.04136
7.03809
-0.581635
7.00458
-0.119021
7.00875
0.353019
6.98429
0.81497
6.99925
1.27978
7.02027
1.71834
7.03664
2.16714
7.015
2.6486
7.01424
3.14106
7.06371
3.63034
7.08931
4.06883
7.18219
4.38748
7.27433
4.58333
7.47552
4.51611
8.24951
14.6418
-2.56254
16.8503
-5.38564
11.5018
-4.89673
6.75243
-4.18346
6.54299
-3.82495
6.85286
-3.34693
6.63161
-2.8196
6.52288
-2.32085
6.49947
-1.81119
6.52272
-1.28256
6.50613
-0.765195
6.48786
-0.25077
6.50372
0.275567
6.46489
0.789644
6.48659
1.30926
6.5058
1.82249
6.52304
2.32602
6.50659
2.8448
6.4881
3.38407
6.52338
3.87616
6.60412
4.29143
6.77271
5.029
6.53367
4.87771
7.62039
2.69496
10.4329
17.3374
2.23914
14.615
1.19034
12.5469
-4.05306
12.0159
-3.67595
6.16975
-4.04796
7.22094
-3.64031
6.22408
-3.07294
5.96092
-2.51782
5.94827
-1.96362
5.9677
-1.43021
5.96735
-0.863135
5.91747
-0.330471
5.9708
0.240445
5.90101
0.781556
5.94225
1.33865
5.95115
1.89135
5.97245
2.41757
5.97589
2.94609
5.95144
3.52632
5.94218
3.98677
6.15527
3.83014
6.93767
4.80906
5.55019
-0.636804
13.0587
-2.38026
12.1794
14.9561
2.45736
12.1615
3.34909
11.6507
3.6833
11.6819
-0.173667
10.0346
-4.43753
11.4801
-4.17272
5.95183
-3.46157
5.26155
-2.97679
5.47002
-2.26582
5.25654
-1.7901
5.48828
-1.0952
5.21677
-0.604399
5.47615
0.0519459
5.24807
0.617691
5.37532
1.24964
5.32067
1.81498
5.40978
2.43739
5.35365
2.95081
5.43779
3.64542
5.25293
3.72781
6.08338
-0.436407
11.1052
-4.67027
9.78183
-3.74939
12.1364
-2.91267
11.3438
12.0409
1.80269
10.3617
3.62045
9.8318
5.05294
10.2473
5.52887
9.56327
5.33458
11.6759
2.14301
9.15214
0.900213
6.51498
-0.353298
6.72946
-0.573129
5.48526
-0.680128
5.60067
-0.240971
4.78346
-0.0739526
5.30875
0.472365
4.70606
0.704135
5.14682
1.08998
4.9371
1.16367
5.33953
1.10371
5.41918
-0.0440173
6.59753
-1.46356
6.67207
-4.25905
8.8781
-4.58727
11.4256
-4.14539
9.34178
-2.44091
10.4362
-1.12559
10.0281
10.9119
0.934392
9.42934
1.6606
9.10418
2.81001
9.09611
3.68409
8.68926
3.46487
11.8901
1.43228
11.1824
0.361827
7.5972
-0.0818884
7.18143
-0.116742
5.53142
-0.229301
5.7328
0.0885159
4.48391
-0.0684142
5.47648
0.238174
4.41059
0.294445
5.10322
0.433628
4.81265
0.509391
5.27882
0.602307
5.34093
0.263084
6.95354
-0.315993
7.25657
-1.85023
10.4105
-2.29908
11.8893
-2.02876
9.07509
-0.994979
9.40232
-0.273439
9.30478
10.6354
1.34749
8.08294
2.01642
8.43719
1.3539
9.75705
0.470901
9.56988
-0.189807
12.5452
-0.441405
11.4322
0.296255
6.85947
0.941887
6.53048
0.73089
5.73655
0.896091
5.57069
0.328955
5.05049
0.479762
5.32754
-0.0160911
4.90483
-0.0903449
5.18018
-0.404909
5.13031
-0.494218
5.36977
-0.826864
5.67392
-0.309386
6.43528
0.260834
6.68246
0.530821
10.1386
-0.509304
12.928
-1.65371
10.2281
-2.32681
10.0772
-2.02222
9.00021
8.61106
1.59411
6.49235
1.20595
8.82702
0.460603
10.5014
-0.163487
10.1926
1.19547
11.1818
2.55604
10.0685
1.87908
7.53369
1.71427
6.69272
1.29819
6.14884
0.925701
5.94186
0.383441
5.59455
0.051577
5.65988
-0.486907
5.44435
-0.886805
5.58155
-1.36338
5.6081
-1.83153
5.83798
-2.29308
6.13549
-2.43125
6.57324
-3.101
7.35164
-2.59233
9.62841
-0.925515
11.263
-1.64046
10.9478
-2.45243
10.8904
-2.25128
8.80005
6.36219
3.26158
3.23376
5.76044
6.3337
5.99729
10.2617
5.89867
10.2902
6.36151
10.7172
5.97098
10.4566
4.62625
8.87558
3.68454
7.63212
2.91442
6.91546
2.1947
6.65794
1.4314
6.35583
0.726186
6.3627
-0.0212359
6.18979
-0.744445
6.30315
-1.49318
6.35575
-2.23858
6.58249
-2.99038
6.88642
-3.87009
7.45304
-5.17617
8.65871
-5.87672
10.3287
-5.38854
10.7725
-4.8738
10.428
-4.69374
10.7078
-3.0007
7.11692
3.36819
1.48611
1.749
3.54536
4.28161
5.11663
8.69088
5.74251
9.66338
6.28627
10.1723
6.17194
10.5698
5.07733
9.96879
3.85304
8.85519
2.8314
7.93506
1.96004
7.52645
1.12059
7.19292
0.307262
7.17362
-0.527886
7.02291
-1.35945
7.13318
-2.20937
7.20491
-3.11732
7.49066
-4.1534
7.92373
-5.43268
8.73356
-6.6749
9.90257
-6.89609
10.5486
-6.31551
10.1882
-5.67463
9.78423
-3.978
9.01148
-1.535
4.68216
1.83679
0.239467
1.51112
0.248266
4.26408
1.71603
7.23735
2.97675
8.40237
3.80588
9.34262
4.06183
10.3119
3.6036
10.4255
2.8542
9.60281
2.12488
8.66223
1.45676
8.1921
0.771133
7.87597
0.104172
7.83856
-0.594959
7.72019
-1.27593
7.81275
-1.98009
7.90776
-2.68579
8.19566
-3.45516
8.69316
-4.28529
9.56354
-4.78089
10.3962
-4.4499
10.2151
-3.53488
9.27059
-2.2166
8.46627
-0.602729
7.40407
-0.253996
4.34393
1.58902
-0.959788
2.47094
-0.865949
4.17027
0.287382
6.08617
1.21754
7.47307
1.94166
8.61864
2.25747
9.99575
2.21585
10.466
1.90371
9.91449
1.48346
9.08147
1.0549
8.61943
0.60579
8.32371
0.138685
8.30437
-0.341679
8.19913
-0.81601
8.28586
-1.26568
8.35625
-1.70312
8.63198
-2.11543
9.10518
-2.4127
9.86251
-2.41816
10.4017
-2.07614
9.87212
-1.30039
8.49376
-0.289038
7.45561
0.826446
6.29491
0.998393
4.17777
2.59089
-0.866436
3.34326
-1.21716
4.52163
-0.835674
5.70588
-0.199079
6.83547
0.35355
8.06614
0.677035
9.6708
0.902113
10.2401
0.981853
9.83412
0.884723
9.17793
0.694673
8.809
0.445547
8.57225
0.196188
8.553
-0.0825704
8.4767
-0.329986
8.53222
-0.569056
8.5942
-0.735954
8.79769
-0.794377
9.16234
-0.680045
9.74804
-0.440929
10.1647
-0.151578
9.58281
0.398255
7.94454
1.03878
6.81485
1.37435
5.96422
0.894926
4.66198
3.4878
-0.740209
4.08523
-1.53842
5.31882
-1.67357
5.84223
-1.45788
6.62026
-1.16068
7.76821
-0.739172
9.24699
-0.322994
9.82344
-0.0700798
9.58114
0.0344337
9.07336
0.0639693
8.77984
0.0239344
8.61255
-0.0606388
8.63697
-0.155904
8.57079
-0.243422
8.61872
-0.280305
8.63028
-0.260564
8.77702
-0.162939
9.06248
0.0795215
9.50417
0.514739
9.72812
0.972595
9.12427
1.25685
7.66181
1.5062
6.56816
1.44728
6.02552
0.697206
5.41592
4.18539
-0.420795
4.50878
-1.19923
6.0973
-1.66555
6.30879
-1.72683
6.68019
-1.58731
7.62957
-1.1948
8.85485
-0.74332
9.37148
-0.404104
9.24232
-0.205182
8.87522
-0.111159
8.68679
-0.0877745
8.58969
-0.0742737
8.62321
-0.0825498
8.57811
-0.0688675
8.60432
-0.0468473
8.60731
0.0502955
8.67934
0.269557
8.84217
0.623113
9.14807
1.07964
9.27276
1.47936
8.72682
1.59075
7.55256
1.50559
6.65531
1.0928
6.44092
0.345309
6.16408
4.53025
-0.294883
4.80764
-1.11548
6.9187
-1.7425
6.93611
-1.92134
6.85897
-1.86712
7.57376
-1.51862
8.50362
-1.07995
8.93373
-0.711152
8.87377
-0.451093
8.61557
-0.263211
8.49965
-0.117121
8.44412
-0.007009
8.51276
0.0868516
8.48349
0.191417
8.49903
0.344026
8.45405
0.538314
8.48454
0.8019
8.57699
1.1729
8.77675
1.62091
8.82253
1.95767
8.38657
1.99642
7.51427
1.81856
6.83543
1.24492
7.01823
0.411666
7.00044
4.94456
-0.394285
5.20376
-1.42429
7.94584
-1.86814
7.37688
-2.19072
7.17987
-2.21864
7.60332
-1.94985
8.23735
-1.53288
8.51731
-1.12209
8.46365
-0.807283
8.30195
-0.585719
8.27892
-0.416829
8.27543
-0.246206
8.34198
-0.0806345
8.31737
0.0937601
8.32425
0.269727
8.27743
0.49738
8.25663
0.809267
8.2649
1.19985
8.38496
1.58621
8.4371
1.85625
8.11971
1.8598
7.51066
1.58767
7.1073
1.17114
7.43185
0.221567
7.94699
5.171
-0.417588
5.62254
-1.19702
8.7299
-1.60382
7.78534
-1.95161
7.52805
-1.99236
7.64375
-1.76673
8.01008
-1.41208
8.16304
-1.06492
8.117
-0.772701
8.0098
-0.520649
8.027
-0.283845
8.03874
-0.081897
8.13991
0.120542
8.11481
0.324778
8.1197
0.566525
8.03514
0.82066
8.00209
1.1132
7.97207
1.45969
8.03746
1.81894
8.07712
2.00527
7.92945
1.95515
7.56197
1.60683
7.45621
1.21198
7.82791
0.449875
8.70964
5.6269
-0.53387
6.15587
-1.14469
9.34322
-1.57705
8.21819
-1.77157
7.72076
-1.92595
7.79891
-1.78645
7.87319
-1.46389
7.84202
-1.10048
7.75385
-0.781394
7.69129
-0.51267
7.75819
-0.277334
7.80326
-0.028721
7.89128
0.206356
7.87974
0.455654
7.87031
0.685583
7.80484
0.956109
7.7317
1.27548
7.6529
1.63073
7.68384
1.92894
7.77932
2.05464
7.80498
1.90099
7.71464
1.71784
7.64044
1.35979
8.19065
0.736147
9.33654
6.36975
-0.894433
7.04682
-1.36122
9.80816
-1.79708
8.65493
-1.98625
7.9106
-2.10269
7.91728
-2.00155
7.77193
-1.72189
7.56283
-1.41377
7.4456
-1.12352
7.40079
-0.849589
7.48428
-0.562175
7.51597
-0.309244
7.63885
-0.0411924
7.61198
0.218084
7.61096
0.509482
7.51304
0.786067
7.45468
1.06564
7.37312
1.3571
7.3912
1.63167
7.5057
1.70901
7.7271
1.63734
7.78665
1.44827
7.82785
1.08108
8.5614
0.575413
9.84347
6.94453
-0.586623
7.63105
-1.22557
10.4464
-1.60285
9.03953
-1.76772
8.07877
-1.7604
7.91094
-1.67594
7.68958
-1.46583
7.35268
-1.18086
7.16177
-0.892253
7.11241
-0.612658
7.20466
-0.357885
7.26159
-0.0749314
7.35601
0.192932
7.34432
0.470668
7.3334
0.721107
7.26261
0.999224
7.17679
1.28448
7.08837
1.55393
7.12325
1.74273
7.3169
1.81602
7.65561
1.80314
7.80204
1.61188
8.02
1.34975
8.82965
0.820107
10.377
7.76249
-0.258246
7.88912
-0.733402
10.9202
-1.47941
9.78802
-1.56858
8.17034
-1.59774
7.94054
-1.49957
7.59205
-1.29273
7.14721
-1.08845
6.95677
-0.861681
6.88547
-0.616392
6.95979
-0.332081
6.97761
-0.0754651
7.10015
0.191756
7.07732
0.44248
7.08273
0.722377
6.98268
0.963325
6.93565
1.1803
6.8712
1.39
6.91377
1.60241
7.10679
1.68915
7.56903
1.66888
7.82298
1.67134
8.01857
0.989862
9.51129
0.516589
10.8508
8.27709
-0.474452
8.3648
-0.890713
11.3363
-1.72315
10.6265
-1.73992
8.19
-1.72039
7.92045
-1.60448
7.47757
-1.44071
6.9841
-1.21467
6.73208
-0.985728
6.65752
-0.735957
6.71058
-0.499786
6.74191
-0.22911
6.82966
0.0320611
6.81631
0.306035
6.80903
0.542388
6.74654
0.793336
6.68526
1.02279
6.64258
1.2296
6.70668
1.36927
6.96735
1.48053
7.45943
1.45831
7.8463
1.37301
8.10487
0.563405
10.3248
0.215604
11.1967
8.4915
-0.0971985
8.46489
-0.463355
11.7016
-1.10425
11.2687
-1.45888
8.54643
-1.47281
7.93554
-1.34029
7.34641
-1.16747
6.8105
-0.988036
6.55194
-0.800375
6.46981
-0.587747
6.49845
-0.320374
6.47507
-0.0738711
6.58358
0.187477
6.55514
0.42757
6.56908
0.689151
6.48524
0.896796
6.4776
1.07448
6.46468
1.2609
6.52174
1.44974
6.77984
1.55997
7.34988
1.55671
7.85065
1.33872
8.32755
0.5796
11.0837
0.26406
11.5093
8.75775
0.046379
8.42348
-0.0844106
11.8317
-0.769052
11.953
-1.38871
9.16959
-1.28945
7.83783
-1.21025
7.2688
-1.06868
6.66936
-0.912696
6.39807
-0.719815
6.27817
-0.508796
6.28844
-0.314031
6.28066
-0.0774535
6.34738
0.149628
6.32822
0.387787
6.33129
0.57974
6.29368
0.790279
6.2679
0.976151
6.2798
1.11141
6.38529
1.25735
6.63232
1.34403
7.26541
1.5095
7.68711
0.805116
9.03287
0.228047
11.6543
-0.00733715
11.7432
8.75732
-0.251396
8.67484
-0.330411
11.9091
-0.684865
12.2995
-1.35191
9.83725
-1.35498
7.84109
-1.27917
7.19379
-1.11335
6.50586
-0.951522
6.23569
-0.807121
6.13375
-0.644936
6.12649
-0.412273
6.04854
-0.205015
6.14038
0.0237934
6.09973
0.232022
6.12344
0.463758
6.06255
0.626838
6.10498
0.772241
6.13388
0.939461
6.22162
1.09955
6.47666
1.12801
7.23541
1.06249
7.75215
0.347627
9.74756
-0.0845374
12.0787
-0.121596
11.7783
8.64576
-0.07146
8.74324
0.0453788
11.7913
-0.216295
12.556
-0.990907
10.6115
-1.17925
8.03262
-1.05502
7.07135
-0.949831
6.39924
-0.804564
6.09128
-0.628036
5.95813
-0.432942
5.93214
-0.269019
5.88453
-0.0534841
5.92513
0.146677
5.89987
0.3603
5.91016
0.516462
5.90667
0.704659
5.91742
0.879252
5.96089
1.0033
6.09429
1.12173
6.35732
1.29215
7.06838
1.07669
7.96889
0.365401
10.4528
0.137027
12.293
0.176512
11.7327
8.82256
0.0601981
8.67871
0.174938
11.6722
0.242802
12.4874
-0.429879
11.2846
-1.01971
8.62338
-0.90753
6.9577
-0.8264
6.32104
-0.70057
5.96624
-0.566432
5.82404
-0.427279
5.79275
-0.230868
5.68848
-0.065362
5.75981
0.125737
5.70905
0.289449
5.74695
0.490121
5.70666
0.626028
5.78219
0.755708
5.83065
0.880552
5.97492
0.964796
6.27535
1.11182
6.92131
0.564858
8.51607
-0.0554667
11.0721
-0.0674355
12.3014
0.0175653
11.6398
8.83383
-0.186665
8.86397
-0.163779
11.6441
0.035441
12.2779
-0.378219
11.6973
-0.949662
9.19732
-1.01672
7.02806
-0.880944
6.1841
-0.794886
5.88021
-0.654163
5.68444
-0.475833
5.61527
-0.333058
5.54556
-0.152402
5.57929
0.0102169
5.54667
0.192213
5.56518
0.327999
5.57116
0.501025
5.60982
0.636853
5.69598
0.704661
5.9048
0.809872
6.17064
0.68493
7.04705
0.00425048
9.20089
-0.431701
11.5085
-0.140784
12.004
-0.0657438
11.5574
8.76056
-0.0368995
8.9032
0.0462886
11.5577
0.420562
11.901
0.183427
11.9355
-0.561264
9.94093
-0.825866
7.29375
-0.673058
6.03456
-0.59987
5.80925
-0.487411
5.57183
-0.367327
5.49492
-0.195224
5.37367
-0.0481127
5.43227
0.12146
5.37705
0.265657
5.42123
0.440494
5.3966
0.558304
5.49248
0.670163
5.58506
0.751106
5.82517
0.893835
6.02947
0.651058
7.28869
-0.0628207
9.9112
-0.204457
11.6469
0.131088
11.6708
0.165836
11.5215
8.92105
0.0807227
8.82552
0.148233
11.4905
0.410937
11.6338
0.544525
11.8001
-0.0390141
10.5279
-0.537462
7.79409
-0.642815
6.13799
-0.537481
5.70254
-0.455739
5.49011
-0.310139
5.3504
-0.194038
5.25775
-0.0413165
5.27956
0.0931596
5.2427
0.246232
5.26826
0.360072
5.28292
0.509107
5.3442
0.584174
5.51023
0.696833
5.71252
0.624142
6.10168
0.201354
7.71191
-0.333962
10.4479
-0.259976
11.5719
0.0026246
11.4049
0.0533555
11.4733
8.97505
-0.110348
8.94041
-0.062555
11.4437
0.14601
11.4334
0.517952
11.4263
0.0610737
10.977
-0.47426
8.32586
-0.636557
6.30172
-0.554018
5.62208
-0.476933
5.41482
-0.395311
5.2688
-0.252001
5.11471
-0.134272
5.1619
0.00807133
5.10012
0.134423
5.14206
0.273604
5.14397
0.34789
5.27069
0.42183
5.43715
0.497355
5.63782
0.234558
6.3661
-0.432515
8.37269
-0.763087
10.7683
-0.366581
11.1748
-0.208375
11.2549
-0.141696
11.4105
8.83831
0.0398634
8.90116
0.0915368
11.3931
0.261936
11.2612
0.576001
11.1099
0.629201
10.9324
0.0262149
8.93348
-0.416263
6.74641
-0.466038
5.67219
-0.365531
5.31435
-0.254506
5.15868
-0.165394
5.02563
-0.0327574
5.02918
0.0852255
4.98209
0.211485
5.01573
0.302824
5.05271
0.41849
5.1553
0.505744
5.35061
0.452295
5.69113
0.0553749
6.76444
-0.483067
8.91152
-0.401948
10.6949
-0.113536
10.8878
0.0526155
11.0875
0.113628
11.3529
8.9584
0.173284
8.72547
0.287423
11.2802
0.390253
11.166
0.625707
10.8739
0.938198
10.6113
0.361157
9.50901
-0.107042
7.21575
-0.316901
5.8826
-0.273011
5.27151
-0.225374
5.11116
-0.130584
4.93117
-0.0345685
4.93319
0.0802776
4.86701
0.176858
4.91912
0.271096
4.95853
0.331957
5.09478
0.375004
5.30888
0.203613
5.86014
-0.266821
7.23453
-0.817105
9.45797
-0.458625
10.3308
-0.224742
10.6597
-0.130025
10.9989
-0.0583264
11.2823
8.90658
-0.0224523
8.74461
0.0682039
11.1904
0.154862
11.0709
0.38428
10.6412
0.800045
10.203
0.664167
9.64887
0.00525258
7.8753
-0.33211
6.22228
-0.325302
5.26537
-0.250419
5.0365
-0.182066
4.86258
-0.090985
4.84179
0.000881475
4.77507
0.0878193
4.8317
0.147249
4.89899
0.204573
5.03746
0.164933
5.34958
-0.166886
6.19121
-0.782636
7.85176
-0.85475
9.53349
-0.556321
10.0386
-0.36069
10.4606
-0.289349
10.9215
-0.155462
11.1458
8.75069
0.113231
8.6294
0.288461
11.0151
0.34119
11.0168
0.528947
10.46
0.836509
9.8863
0.981289
9.50255
0.507202
8.34793
-0.00823539
6.73775
-0.171962
5.428
-0.168922
5.03392
-0.0923485
4.78632
-0.0237167
4.77337
0.0534557
4.69756
0.122012
4.76316
0.194067
4.82731
0.204615
5.02708
0.00504021
5.54945
-0.458278
6.651
-0.882454
8.2739
-0.676621
9.32618
-0.404277
9.76341
-0.217731
10.279
-0.171154
10.8701
-0.0352522
11.0046
8.71014
0.170656
8.45886
0.383676
10.7995
0.468111
10.9263
0.580391
10.3403
0.779084
9.68516
1.12499
9.15976
0.839308
8.63339
0.237513
7.34295
-0.00955057
5.67508
-0.086653
5.11038
-0.0503415
4.75002
-0.00298723
4.72605
0.0421593
4.65256
0.0923698
4.71293
0.127731
4.79187
0.0849228
5.06985
-0.17866
5.81392
-0.783422
7.25405
-0.967075
8.45574
-0.644959
9.00851
-0.443045
9.56255
-0.325585
10.1547
-0.248922
10.7886
-0.0819088
10.8294
8.62055
0.0430679
8.41834
0.242108
10.5999
0.338449
10.8231
0.428546
10.2504
0.622056
9.49461
0.84643
8.93264
0.979482
8.49983
0.653293
7.66813
0.0890011
6.24183
-0.108857
5.30933
-0.0860757
4.72779
-0.0521905
4.69229
-0.0276665
4.62822
0.00618959
4.67912
-0.0060333
4.8042
-0.165652
5.23
-0.77878
6.42904
-1.10612
7.5788
-0.960287
8.30699
-0.742897
8.787
-0.572469
9.38932
-0.49705
10.0826
-0.411221
10.6937
-0.186998
10.5993
8.42685
0.0836139
8.33804
0.326652
10.3561
0.492038
10.6551
0.550843
10.1801
0.656981
9.3786
0.798387
8.78634
1.15409
8.14306
0.903589
7.91777
0.354203
6.79184
0.056434
5.60445
0.00091816
4.78331
0.00104424
4.69247
-0.000132988
4.62959
-0.00207632
4.6813
-0.0739582
4.87595
-0.35998
5.51408
-0.761876
6.82766
-1.09448
7.90963
-0.782264
7.99217
-0.619207
8.62071
-0.516799
9.27851
-0.454914
10.0141
-0.306435
10.5417
-0.0700855
10.3616
8.35471
0.116904
8.224
0.446774
10.0287
0.604691
10.4971
0.651251
10.1403
0.72099
9.31559
0.870012
8.6393
1.02529
7.98631
1.18632
7.75641
0.890216
7.08866
0.218838
6.27781
0.0573982
4.94522
0.0183512
4.73171
-0.00590665
4.65393
-0.041533
4.71709
-0.217774
5.0521
-0.854366
6.15343
-1.11074
7.08835
-0.934749
7.73302
-0.800425
7.85338
-0.663777
8.47974
-0.590801
9.20849
-0.530552
9.96261
-0.389179
10.4017
-0.0732533
10.0485
8.28097
-0.00213374
0.0346211
-0.0020567
0.0312835
-0.0020655
0.0326065
-0.00130589
0.0262568
-0.000478785
0.0210009
0.000186263
0.015257
-0.000107345
0.0135953
-0.000898444
0.0160125
-0.00191248
0.0223661
-0.00282033
0.0306982
-0.00344195
0.0382814
-0.0039555
0.0440606
-0.0044501
0.0480827
-0.00495807
0.0507905
-0.00546975
0.052501
-0.00582904
0.0538314
-0.0059448
0.0547765
-0.00582013
0.0553654
-0.00551481
0.0556882
-0.0050995
0.0558463
-0.00462424
0.0559183
-0.00411681
0.0559487
-0.00359101
0.0559567
-0.0030606
0.055951
-0.00247433
0.055922
-0.00196372
0.0559285
-0.00114124
0.0555702
-0.000819251
0.0560042
0.000657368
0.0531918
0.05771
-0.00213217
0.0317125
-0.00190082
0.0195132
-0.000984882
0.0146725
0.000857448
0.000940561
0.00313022
-0.0107152
0.00552718
-0.0234363
0.00669368
-0.0304182
0.00604162
-0.0296996
0.00366319
-0.0200948
0.000657947
-0.00260964
-0.00203554
0.018986
-0.00385192
0.0341697
-0.0049916
0.0436687
-0.00574816
0.0490766
-0.00628308
0.0519689
-0.00662434
0.053447
-0.0067202
0.0543361
-0.00657111
0.0548575
-0.00622877
0.0551387
-0.00576345
0.0552749
-0.00522922
0.0553349
-0.0046575
0.0553575
-0.00406843
0.0553604
-0.00346948
0.0553496
-0.00283805
0.0552954
-0.00225475
0.0553426
-0.0015811
0.0549079
-0.00108065
0.055501
-0.00106656
0.0531923
0.0566388
0.00149702
0.0152351
0.00295919
-0.0122424
0.00509037
-0.0290928
0.00796851
-0.0538642
0.0125824
-0.0782539
0.0183538
-0.104618
0.0229943
-0.123791
0.0253687
-0.130798
0.0212644
-0.121503
0.0145297
-0.0894372
0.00747522
-0.0430087
0.00201986
-0.00123424
-0.00143991
0.0292177
-0.0033729
0.0434109
-0.00446699
0.0499117
-0.00508532
0.0527994
-0.00536339
0.0539061
-0.00536283
0.0544221
-0.00514864
0.0546766
-0.00479641
0.0547955
-0.00436653
0.0548456
-0.00389565
0.0548621
-0.00340582
0.0548617
-0.00290913
0.0548494
-0.00240307
0.0547926
-0.00191924
0.0548568
-0.00147988
0.0544769
-0.00102904
0.0550497
-0.00131673
0.053489
0.0553214
0.00513978
-0.0293327
0.00901377
-0.0790317
0.013528
-0.11199
0.0182074
-0.164309
0.0251715
-0.236291
0.0359864
-0.28458
0.0486405
-0.329041
0.0619066
-0.366845
0.0667979
-0.38752
0.0489789
-0.35172
0.0316194
-0.193842
0.0161671
-0.101339
0.0059694
-0.0218487
0.000481598
0.0247254
-0.00235028
0.043473
-0.00366124
0.0505124
-0.00423783
0.0531358
-0.00439401
0.0539905
-0.00429137
0.0542754
-0.00403235
0.0543877
-0.00368685
0.0544311
-0.00329693
0.0544435
-0.00288709
0.054441
-0.00247165
0.0544298
-0.00205707
0.0543802
-0.0016503
0.054449
-0.001317
0.0541506
-0.000892447
0.054626
-0.00101669
0.0536201
0.0543047
0.0107134
-0.112031
0.0160016
-0.228125
0.0211123
-0.266237
0.0260549
-0.297211
0.0341893
-0.314017
0.0472289
-0.337773
0.0653695
-0.374774
0.0887456
-0.422361
0.117075
-0.476796
0.144754
-0.529953
0.107173
-0.552552
0.0583527
-0.440259
0.0265577
-0.166392
0.00901714
-0.042345
0.00101011
0.0222327
-0.00240431
0.0439093
-0.00367459
0.0509744
-0.00406469
0.0531882
-0.00404486
0.0538283
-0.00382619
0.0539895
-0.0035089
0.0540347
-0.00314366
0.0540454
-0.00275747
0.0540425
-0.00236461
0.0540324
-0.00197907
0.0539958
-0.00158465
0.0540536
-0.00126927
0.053841
-0.000838512
0.0541968
-0.000761688
0.0535486
0.0535439
0.0136863
-0.241833
0.019656
-0.281464
0.0256844
-0.286779
0.0293196
-0.302268
0.0340904
-0.314459
0.0432245
-0.336551
0.0604706
-0.374175
0.0856816
-0.424188
0.119918
-0.482589
0.16239
-0.546414
0.201119
-0.617801
0.22108
-0.665941
0.092367
-0.606733
0.0373335
-0.2237
0.0110135
-0.0554069
0.001017
0.0226664
-0.0025724
0.0448288
-0.0036192
0.0513165
-0.00379501
0.0531063
-0.0036402
0.0535501
-0.00335206
0.0536489
-0.0030085
0.0536647
-0.00264247
0.0536628
-0.00226882
0.0536542
-0.001904
0.0536315
-0.00152341
0.0536724
-0.00121016
0.053533
-0.000789983
0.0537793
-0.000590857
0.0533545
0.0529536
0.0147763
-0.253665
0.0165338
-0.273159
0.0203395
-0.275928
0.0225768
-0.291438
0.024739
-0.302612
0.0308295
-0.322329
0.0460983
-0.355004
0.0720256
-0.407477
0.109156
-0.476837
0.155172
-0.550923
0.206528
-0.621542
0.25735
-0.692815
0.2942
-0.759979
0.124791
-0.709596
0.0458673
-0.260894
0.0116837
-0.0567365
0.000754577
0.0258987
-0.00260894
0.0461519
-0.00336887
0.0515738
-0.00337258
0.0529472
-0.0031388
0.0532463
-0.00282531
0.0533029
-0.00248497
0.0533069
-0.00213607
0.0533006
-0.00179371
0.053289
-0.00143542
0.0533139
-0.00112788
0.0532299
-0.00073446
0.0533887
-0.000477834
0.0531023
0.0524767
0.00692968
-0.24818
0.00672618
-0.24389
0.0103414
-0.243463
0.0104505
-0.257183
0.0111921
-0.266593
0.0135245
-0.283805
0.0246154
-0.311591
0.0490766
-0.359766
0.0882702
-0.434204
0.139788
-0.526076
0.197751
-0.619854
0.256872
-0.699108
0.315273
-0.76869
0.359203
-0.842694
0.156662
-0.777879
0.0496918
-0.270236
0.0110441
-0.0460814
0.000412262
0.0307531
-0.00245824
0.0475945
-0.00294772
0.0517772
-0.00284222
0.0527547
-0.00257875
0.0529495
-0.00227283
0.0529798
-0.00195618
0.0529786
-0.00164207
0.0529741
-0.0013152
0.052987
-0.00102295
0.0529418
-0.000667473
0.0530368
-0.000396009
0.052835
0.0520804
-0.00140632
-0.222207
-0.00408611
-0.19995
-0.00194281
-0.201989
-0.00387465
-0.210839
-0.00435259
-0.223191
-0.00492359
-0.241614
0.00163066
-0.26713
0.0210118
-0.310086
0.0583059
-0.380603
0.112251
-0.469413
0.178552
-0.579286
0.248588
-0.689276
0.314799
-0.776804
0.376897
-0.846171
0.423326
-0.92017
0.162238
-0.817929
0.0479604
-0.249037
0.00935466
-0.0268588
5.72262e-05
0.0360048
-0.00221658
0.0489105
-0.00248344
0.0519065
-0.00231682
0.0525542
-0.00205344
0.0526719
-0.00176994
0.0526872
-0.00148465
0.0526874
-0.00119057
0.0526928
-0.00091796
0.0526725
-0.000601393
0.0527239
-0.000335697
0.0525735
0.0517456
-0.0087618
-0.182704
-0.0135527
-0.15108
-0.0158333
-0.154454
-0.018019
-0.159793
-0.0196929
-0.175956
-0.0227299
-0.19711
-0.021382
-0.224036
-0.00627716
-0.262303
0.027025
-0.32804
0.0784106
-0.415872
0.146576
-0.519548
0.226768
-0.640326
0.307746
-0.762095
0.380343
-0.853326
0.442876
-0.923094
0.486385
-0.989327
0.151854
-0.821301
0.0412996
-0.200359
0.007072
-0.00546039
-0.000411958
0.0409242
-0.00194569
0.0499634
-0.00204359
0.0519527
-0.0018488
0.0523512
-0.00159915
0.052418
-0.00134071
0.0524262
-0.00107674
0.052429
-0.00082408
0.0524226
-0.00054234
0.0524456
-0.0002907
0.0523251
0.0514545
-0.0133365
-0.135552
-0.0220792
-0.102158
-0.0280772
-0.105497
-0.0317389
-0.110302
-0.0357785
-0.130612
-0.0393431
-0.15461
-0.0413337
-0.185398
-0.0339463
-0.221513
-0.00180974
-0.280046
0.0452268
-0.365102
0.110755
-0.468386
0.192591
-0.580774
0.285449
-0.712427
0.375871
-0.839237
0.454132
-0.928945
0.51658
-1.00098
0.539451
-1.0379
0.134287
-0.765701
0.031597
-0.133898
0.00472394
0.0167277
-0.00071678
0.044878
-0.00167402
0.0506989
-0.00165349
0.0519226
-0.00145003
0.0521496
-0.00121723
0.0521852
-0.000979062
0.05219
-0.000744868
0.0521908
-0.000492472
0.0521965
-0.000257007
0.0520931
0.051198
-0.0171732
-0.0896589
-0.0291227
-0.0582072
-0.0390175
-0.0616022
-0.044978
-0.0675872
-0.0510341
-0.0910032
-0.0556131
-0.117534
-0.0595469
-0.15243
-0.0575535
-0.188447
-0.0342031
-0.240935
0.0142409
-0.317823
0.0764633
-0.422799
0.155636
-0.531475
0.250934
-0.65346
0.355794
-0.793977
0.453223
-0.919628
0.537064
-1.00321
0.607036
-1.08263
0.536941
-1.03499
0.107174
-0.482735
0.0215725
-0.0683654
0.00272643
0.0301324
-0.000882229
0.0476736
-0.00140561
0.0511355
-0.00131008
0.0518323
-0.00110927
0.0519528
-0.000893537
0.0519712
-0.000676901
0.0519755
-0.000449322
0.051972
-0.000230334
0.0518772
0.0509694
-0.0202763
-0.0521125
-0.0357927
-0.0223803
-0.0494959
-0.0267628
-0.0583932
-0.0340031
-0.0654154
-0.0596465
-0.0715878
-0.0878506
-0.0765852
-0.125388
-0.0779779
-0.162631
-0.061717
-0.21007
-0.0179252
-0.277741
0.0441838
-0.379607
0.120506
-0.488718
0.213278
-0.604832
0.322702
-0.735696
0.438179
-0.881613
0.540002
-1.00082
0.625457
-1.0779
0.693245
-1.16023
0.415106
-0.972808
0.0762635
-0.296561
0.0133362
-0.0185533
0.00128702
0.0391489
-0.000910577
0.0494226
-0.00113853
0.0513396
-0.0010032
0.0517067
-0.000812318
0.0517666
-0.000613867
0.0517767
-0.000408824
0.0517684
-0.00020695
0.0516776
0.0507628