/*--------------------------------*- C++ -*----------------------------------*\
| =========                 |                                                 |
| \\      /  F ield         | OpenFOAM: The Open Source CFD Toolbox           |
|  \\    /   O peration     | Version:  2112                                  |
|   \\  /    A nd           | Website:  www.openfoam.com                      |
|    \\/     M anipulation  |                                                 |
\*---------------------------------------------------------------------------*/
FoamFile
{
    version     2.0;
    format      ascii;
    arch        "LSB;label=32;scalar=64";
    class       volScalarField;
    location    "0.00283";
    object      p;
}
// * * * * * * * * * * * * * * * * * * * * * * * * * * * * * * * * * * * * * //

dimensions      [1 -1 -2 0 0 0 0];

internalField   nonuniform List<scalar> 
13875
(
951556
984202
973649
975537
973358
974413
974547
974450
974949
974904
975244
975199
975060
974855
975016
974774
974780
973821
974342
974222
973022
975595
972424
982736
945841
733764
659449
672217
677038
670246
668583
668579
670228
677711
678841
679127
678530
673367
670795
678087
679109
677682
671052
668566
668366
669887
677065
672365
657282
731047
736853
635534
664456
653550
648251
645933
645066
645421
646694
649343
649869
649482
648779
648170
649104
649654
648606
645615
644839
645607
647587
652028
662025
632304
733727
743498
636183
665343
653703
648533
646127
645211
645494
644756
646745
647778
648299
649009
648324
648028
646683
645462
645668
644986
645794
647857
652148
662772
632914
739282
757331
639203
667909
654403
649403
646707
645635
645780
644914
646816
647863
648399
649672
648733
648129
646757
645536
645885
645420
646342
648648
652732
665056
635569
750247
759090
647897
673714
656380
651272
647947
646529
646418
645436
647053
648146
648712
650263
649345
648465
647025
645861
646429
646328
647525
650384
654606
670647
643335
751822
765255
668501
686042
661372
655142
650491
648347
647737
646652
647756
648879
649516
651104
650424
649263
647691
646791
647689
648199
650119
654285
660311
682252
666126
756064
791771
718791
712259
675064
663603
655956
652143
650555
649182
649551
650570
651276
652873
652641
651153
649425
649013
650399
651958
655381
662382
673422
707523
715906
782389
910462
829078
768040
705864
680967
667015
659881
656474
654422
653881
654519
655266
656731
657209
655374
653558
653916
656105
659531
665959
678871
702252
761507
824474
911530
1.53053e+06
1.03256e+06
838075
745147
704272
683420
672965
667603
664747
663463
663462
664153
665151
666546
664650
662938
663936
666923
672629
682505
702409
741840
833160
1.02872e+06
1.52452e+06
2.93059e+06
1.4014e+06
973754
813150
744928
713199
697831
689935
685735
683609
682909
683244
683449
685650
684379
683213
684514
688312
696437
711105
740924
804132
953187
1.36006e+06
2.88229e+06
5.70774e+06
2.35846e+06
1.35269e+06
989057
838575
779737
753039
739791
732854
729533
728046
727559
726936
729479
729255
729536
731757
737643
750404
776729
833535
971424
1.30093e+06
2.30102e+06
5.62933e+06
5.49522e+06
4.81194e+06
2.65462e+06
1.59338e+06
1.10502e+06
962658
901953
872361
857998
851836
848845
847163
846066
848249
849629
852688
859182
873051
902152
963336
1.10578e+06
1.53113e+06
2.38596e+06
4.91844e+06
5.40298e+06
4.96383e+06
4.69457e+06
4.99633e+06
4.62389e+06
1.93595e+06
1.54815e+06
1.40495e+06
1.32016e+06
1.28521e+06
1.27083e+06
1.26564e+06
1.26322e+06
1.26407e+06
1.26427e+06
1.26872e+06
1.27732e+06
1.29724e+06
1.33938e+06
1.43225e+06
1.61564e+06
2.10258e+06
4.61197e+06
5.06336e+06
4.80867e+06
4.84321e+06
4.17991e+06
4.33287e+06
4.87979e+06
4.89651e+06
4.70177e+06
3.55558e+06
3.42278e+06
3.09856e+06
2.94917e+06
2.87957e+06
2.85635e+06
2.8392e+06
2.84901e+06
2.84648e+06
2.86211e+06
2.89778e+06
2.9832e+06
3.1585e+06
3.47978e+06
3.67602e+06
4.72088e+06
4.94466e+06
4.98479e+06
4.53473e+06
4.4646e+06
3.80887e+06
3.86435e+06
4.58417e+06
5.21991e+06
6.60295e+06
7.94528e+06
8.99029e+06
8.90281e+06
9.24361e+06
9.12438e+06
9.28086e+06
9.17011e+06
9.28379e+06
9.18308e+06
9.28649e+06
9.17279e+06
9.25441e+06
8.97785e+06
9.03552e+06
8.09481e+06
6.76916e+06
5.36588e+06
4.79357e+06
4.11052e+06
4.12363e+06
3.02986e+06
3.48427e+06
4.64321e+06
5.48946e+06
6.78225e+06
7.66223e+06
7.79998e+06
7.74513e+06
7.56413e+06
7.41189e+06
7.29421e+06
7.26585e+06
7.19206e+06
7.24386e+06
7.26419e+06
7.36156e+06
7.51068e+06
7.70283e+06
7.73867e+06
7.72956e+06
6.92779e+06
5.67251e+06
4.83899e+06
3.72189e+06
3.33658e+06
2.44965e+06
3.24861e+06
4.66384e+06
5.36739e+06
6.06846e+06
6.21988e+06
5.99514e+06
5.97959e+06
5.97293e+06
5.98108e+06
5.98902e+06
5.98812e+06
5.98808e+06
5.98901e+06
5.99288e+06
5.98389e+06
5.9711e+06
5.9735e+06
6.00118e+06
6.18363e+06
6.13068e+06
5.50205e+06
4.8364e+06
3.15756e+06
2.33149e+06
1.30513e+06
2.27158e+06
3.92532e+06
4.34456e+06
4.56135e+06
4.75073e+06
4.89496e+06
5.07891e+06
5.2417e+06
5.34356e+06
5.40263e+06
5.43123e+06
5.44295e+06
5.43359e+06
5.40877e+06
5.35376e+06
5.25324e+06
5.09772e+06
4.9286e+06
4.79959e+06
4.62285e+06
4.40169e+06
3.95081e+06
2.40324e+06
1.35553e+06
668611
1.54479e+06
2.74532e+06
3.19461e+06
3.41842e+06
3.71896e+06
4.10795e+06
4.44049e+06
4.65691e+06
4.78538e+06
4.86834e+06
4.91463e+06
4.93413e+06
4.92133e+06
4.88009e+06
4.80499e+06
4.68303e+06
4.47479e+06
4.15147e+06
3.76372e+06
3.46147e+06
3.23299e+06
2.73542e+06
1.60848e+06
661046
721063
1.19866e+06
1.80207e+06
2.255e+06
2.59692e+06
3.0153e+06
3.49722e+06
3.86244e+06
4.08924e+06
4.23545e+06
4.33531e+06
4.39235e+06
4.41501e+06
4.39941e+06
4.34751e+06
4.25514e+06
4.11539e+06
3.89276e+06
3.52183e+06
3.02281e+06
2.59667e+06
2.25244e+06
1.80408e+06
1.13019e+06
687364
954981
1.04975e+06
1.24624e+06
1.70281e+06
2.05965e+06
2.5452e+06
2.99287e+06
3.32807e+06
3.55284e+06
3.70932e+06
3.81517e+06
3.8752e+06
3.89865e+06
3.88027e+06
3.82355e+06
3.72366e+06
3.57174e+06
3.34868e+06
3.00852e+06
2.54575e+06
2.04239e+06
1.68248e+06
1.2362e+06
1.00171e+06
905107
1.36525e+06
1.05809e+06
1.07264e+06
1.38055e+06
1.71292e+06
2.20089e+06
2.57995e+06
2.86676e+06
3.08267e+06
3.23755e+06
3.34009e+06
3.39818e+06
3.42119e+06
3.40012e+06
3.342e+06
3.24165e+06
3.08785e+06
2.87093e+06
2.58416e+06
2.20738e+06
1.68925e+06
1.36066e+06
1.06409e+06
1.02413e+06
1.37591e+06
1.43098e+06
1.08118e+06
1.07653e+06
1.2288e+06
1.50009e+06
1.90191e+06
2.21693e+06
2.47524e+06
2.66903e+06
2.81102e+06
2.9125e+06
2.96744e+06
2.99138e+06
2.96892e+06
2.91185e+06
2.8102e+06
2.66636e+06
2.47031e+06
2.20565e+06
1.89106e+06
1.49174e+06
1.21059e+06
1.06522e+06
1.05393e+06
1.40523e+06
1.43073e+06
1.12013e+06
1.08976e+06
1.15858e+06
1.357e+06
1.65527e+06
1.91451e+06
2.14638e+06
2.31986e+06
2.44853e+06
2.54113e+06
2.59371e+06
2.61307e+06
2.59397e+06
2.54039e+06
2.44551e+06
2.31352e+06
2.13711e+06
1.8996e+06
1.63558e+06
1.34844e+06
1.1446e+06
1.07664e+06
1.10163e+06
1.40469e+06
1.43587e+06
1.17889e+06
1.11886e+06
1.12383e+06
1.25036e+06
1.45612e+06
1.66843e+06
1.86955e+06
2.02024e+06
2.13556e+06
2.21999e+06
2.26367e+06
2.2836e+06
2.26345e+06
2.21657e+06
2.12996e+06
2.01006e+06
1.8557e+06
1.653e+06
1.43693e+06
1.24594e+06
1.11199e+06
1.10417e+06
1.16727e+06
1.40511e+06
1.44832e+06
1.27485e+06
1.16288e+06
1.12411e+06
1.17488e+06
1.30819e+06
1.47721e+06
1.64279e+06
1.7727e+06
1.87344e+06
1.94546e+06
1.98433e+06
1.99802e+06
1.9827e+06
1.938e+06
1.86469e+06
1.75925e+06
1.62573e+06
1.45989e+06
1.28511e+06
1.16111e+06
1.11035e+06
1.15233e+06
1.29565e+06
1.41995e+06
1.48996e+06
1.4687e+06
1.20552e+06
1.12235e+06
1.11954e+06
1.1895e+06
1.31422e+06
1.44747e+06
1.55588e+06
1.64417e+06
1.70866e+06
1.74084e+06
1.75532e+06
1.73862e+06
1.70297e+06
1.6376e+06
1.54695e+06
1.43611e+06
1.30411e+06
1.17457e+06
1.1085e+06
1.11036e+06
1.1873e+06
1.45161e+06
1.46213e+06
1.58344e+06
1.55087e+06
1.23088e+06
1.11408e+06
1.08458e+06
1.1076e+06
1.19386e+06
1.29378e+06
1.38207e+06
1.45497e+06
1.5071e+06
1.53692e+06
1.54713e+06
1.53411e+06
1.50137e+06
1.44735e+06
1.37098e+06
1.27934e+06
1.18065e+06
1.09383e+06
1.07394e+06
1.10369e+06
1.21204e+06
1.50511e+06
1.55685e+06
1.7807e+06
1.59873e+06
1.24541e+06
1.09964e+06
1.05021e+06
1.04672e+06
1.09191e+06
1.1614e+06
1.22966e+06
1.29005e+06
1.33654e+06
1.35936e+06
1.36935e+06
1.35556e+06
1.33039e+06
1.28273e+06
1.2205e+06
1.14967e+06
1.08002e+06
1.03457e+06
1.03875e+06
1.0888e+06
1.23687e+06
1.57601e+06
1.71151e+06
1.84487e+06
1.63972e+06
1.27128e+06
1.08595e+06
1.01141e+06
992201
1.01267e+06
1.05839e+06
1.10786e+06
1.15432e+06
1.18952e+06
1.21085e+06
1.21761e+06
1.20812e+06
1.18441e+06
1.14796e+06
1.10054e+06
1.05017e+06
1.00479e+06
985146
1.00351e+06
1.07558e+06
1.25533e+06
1.6138e+06
1.85598e+06
1.84428e+06
1.66187e+06
1.31672e+06
1.08501e+06
978234
945529
943162
969971
1.00231e+06
1.03571e+06
1.06586e+06
1.08046e+06
1.08854e+06
1.07914e+06
1.06185e+06
1.03081e+06
996212
962604
935334
937308
967796
1.06926e+06
1.2845e+06
1.64109e+06
1.85497e+06
1.83585e+06
1.66517e+06
1.37555e+06
1.08714e+06
948772
899165
888715
898419
919490
940768
960285
973402
978062
971686
955616
935330
912883
890893
881356
891819
939261
1.07212e+06
1.33796e+06
1.6482e+06
1.84995e+06
1.81899e+06
1.66468e+06
1.49761e+06
1.09985e+06
928430
857730
835242
832610
842802
855440
870935
878031
883354
877155
867945
851538
838727
827988
831227
851918
918496
1.07949e+06
1.42165e+06
1.64557e+06
1.8317e+06
1.78618e+06
1.66133e+06
1.56769e+06
1.12878e+06
923201
824770
789542
781047
782061
787579
795079
800827
802921
799544
791601
783552
778225
776081
784986
818935
914667
1.1029e+06
1.57646e+06
1.64054e+06
1.79483e+06
1.75876e+06
1.64262e+06
1.56534e+06
1.15966e+06
925475
798311
747148
729829
725628
726213
729909
731335
733827
729867
727612
723045
722348
725880
743366
792616
919104
1.14806e+06
1.5802e+06
1.62689e+06
1.72274e+06
1.71405e+06
1.60381e+06
1.56041e+06
1.22379e+06
936624
783774
714173
688028
678886
675946
674871
675044
675193
673849
673183
673662
676100
684291
710638
778781
926686
1.21195e+06
1.57088e+06
1.59193e+06
1.68186e+06
1.66659e+06
1.55556e+06
1.54691e+06
1.35229e+06
962839
784296
688847
649716
633945
628120
626115
623624
624397
623203
624995
627193
632521
646411
684460
779613
947940
1.34075e+06
1.55074e+06
1.5382e+06
1.64063e+06
1.63418e+06
1.51031e+06
1.51042e+06
1.35235e+06
994435
788223
674635
621181
599612
590159
584456
582055
581542
581808
583390
588664
598069
618769
672393
788025
992585
1.34812e+06
1.50853e+06
1.49163e+06
1.60306e+06
1.5989e+06
1.47062e+06
1.43767e+06
1.34847e+06
1.06137e+06
802947
675231
598963
566751
553118
547849
543221
543374
543376
547268
552887
566431
597783
672781
800188
1.06315e+06
1.34278e+06
1.41959e+06
1.45262e+06
1.57781e+06
1.55613e+06
1.43214e+06
1.36021e+06
1.33524e+06
1.1954e+06
834355
679975
589104
544877
526678
516240
512376
511050
512059
515574
525338
544665
589095
677023
827563
1.20616e+06
1.32773e+06
1.34072e+06
1.41997e+06
1.54389e+06
1.52441e+06
1.40225e+06
1.29912e+06
1.30038e+06
1.19425e+06
881810
686685
589573
528748
500321
488710
482857
482069
481983
488700
499935
528907
589972
692103
886510
1.2059e+06
1.294e+06
1.28516e+06
1.38975e+06
1.50163e+06
1.47595e+06
1.37506e+06
1.25183e+06
1.23133e+06
1.18525e+06
981616
705716
594290
524764
486705
466118
459615
457346
459226
465635
485478
524444
593123
717062
991327
1.19034e+06
1.22442e+06
1.23806e+06
1.36013e+06
1.46835e+06
1.4246e+06
1.34566e+06
1.21806e+06
1.16762e+06
1.16076e+06
1.04387e+06
743250
606908
525670
471736
448002
437197
435373
436991
448270
473277
525318
602980
767250
1.04242e+06
1.1559e+06
1.16134e+06
1.20598e+06
1.33419e+06
1.42679e+06
1.38548e+06
1.31141e+06
1.19072e+06
1.11471e+06
1.10653e+06
1.03913e+06
808579
629784
528115
471738
438015
422904
417823
422564
438447
473406
530748
627946
873159
1.03744e+06
1.08808e+06
1.10807e+06
1.18125e+06
1.29982e+06
1.37604e+06
1.34459e+06
1.27689e+06
1.17117e+06
1.07254e+06
1.03975e+06
1.02512e+06
943326
679518
538449
473611
437406
413064
406215
412698
437153
474543
542140
672572
925104
1.01711e+06
1.02599e+06
1.06591e+06
1.16286e+06
1.26767e+06
1.3428e+06
1.29796e+06
1.23415e+06
1.15032e+06
1.04581e+06
992385
993401
942126
781497
562647
479088
438072
413002
401254
412604
437710
478538
566780
763031
921990
973958
978910
1.03724e+06
1.14362e+06
1.23202e+06
1.2988e+06
1.25671e+06
1.1984e+06
1.12969e+06
1.02786e+06
954343
941141
929563
848143
608820
490100
439926
413440
401754
413295
440968
490463
621252
839389
910768
921615
943459
1.01974e+06
1.12393e+06
1.19522e+06
1.25026e+06
1.17393e+06
1.14607e+06
1.09995e+06
1.01354e+06
932151
899412
901314
845988
706355
514324
446998
415709
403881
415467
448921
514052
729155
837899
884116
881420
922255
1.00443e+06
1.09481e+06
1.14128e+06
1.1634e+06
1.04512e+06
1.07529e+06
1.05878e+06
993218
914312
861792
853313
834470
768497
565469
465576
422244
409549
421723
467765
563134
762343
826190
840940
848225
905934
985038
1.05223e+06
1.07095e+06
1.03792e+06
79082.5
81764.6
81406.7
81914.2
82266.3
82667.9
83167.2
83671.9
84289.8
85140.4
86508.7
88455.7
90964.5
93921.7
97212.8
100525
102756
101026
86786
75781.6
72156
71067.2
70753.1
70666.7
70639.4
70641.1
70621.3
70648
70594.3
70670.8
78438.6
80451
79842.5
80252.9
80453.3
80843.2
81389.4
81955.6
82553.2
83316
84636.1
86636.6
89350.5
92652.6
96464.5
100612
104592
108090
109009
92577.9
76768.9
72249.6
71057.4
70744
70657.1
70645.3
70623.8
70646.8
70612.4
70655.3
78211.6
79339
78606.4
79011.2
79076.8
79485.1
80060
80657.7
81237
81899.9
83109.1
85109.5
88080.1
91876
96167.9
100692
105445
109871
113548
112606
90632.3
75929.6
71930.6
70966
70709.9
70656.9
70629.8
70643.9
70624
70645.8
78178.5
78279.9
77678.4
77873.2
77697.3
78161.6
78709.2
79368.5
79996.6
80629.8
81778.8
83762.1
86675.2
90446.9
95176.9
100482
105576
110265
114355
117369
114666
87714.9
74952
71637.5
70871.3
70693.6
70639
70643.3
70628.7
70641.8
78108.2
77672.9
77177.9
77096.4
76843.3
77246.1
77757.1
78472.9
79181.1
79822.3
80796.9
82672.9
85559.2
89190.1
93522.8
98607.1
104493
110053
114400
118145
120830
115414
84490
73961.1
71368.4
70806.9
70665.1
70647.5
70632.2
70639.3
77992.8
77394.3
77060.9
76828.2
76594.7
76843.6
77296.3
78013.7
78738
79371.2
80092.6
81565.7
84292.2
87739
91854.8
96581.2
102051
108171
113822
118207
122194
124060
112964
81209.4
73035.2
71154.8
70742.8
70661.9
70636.2
70638.5
77639.8
77390.3
77184.8
76890.1
76680.1
76769.7
76987.6
77524.6
78161
78692.5
79182.6
80243.4
82572
85974.1
89992
94513.9
99641.1
105637
112186
117890
122360
126575
126918
106638
78473.9
72277.9
70976.3
70710.5
70646.6
70640.1
77568
77516.4
77467.7
77179.9
76979.6
76927.5
76992.4
77332.2
77720.6
78011.8
78232.7
78763
80789.5
84035.6
88100.6
92592.9
97586.4
103235
109850
116670
122283
127047
131158
129071
97607.7
76125.2
71717.1
70857.6
70677.4
70645.8
77634.5
77697.1
77843.8
77632.7
77362.9
77262.8
77222.6
77435.9
77723.8
77894.6
77929.2
77988.9
79325.8
82103
86343.2
90846.6
95827.3
101271
107517
114658
121534
127075
132216
135633
129475
88916.9
74242.1
71327.6
70768.6
70665.4
77746.2
77959.8
78266.6
78217.7
77948.2
77832.1
77800.8
77862
77946
77970.5
77904.4
77834.1
78378.4
80577
84673.7
89292.7
94310.4
99684.7
105614
112472
119948
126743
132353
137664
139385
124010
82111.5
72880.8
71056.1
70724.6
77897.7
78255.6
78643.6
78851.6
78919.3
78951.7
78982.3
78781.2
78506
78283.8
77970
77825.7
77935.9
79560.7
83131.2
87918.6
92963
98340.1
104109
110557
117977
125643
132278
138057
143178
142077
111171
77998.3
71973.2
70910.8
78166
78527.1
78952.8
79488.1
79901
80217.2
80328.8
79991.3
79269.4
78454.4
77994.4
77802.6
77690.8
78879.8
81817.9
86506.4
91614.9
97018.1
102762
108946
116031
123886
131572
138099
144150
148602
142746
96339.2
75072
71496.6
78499.9
78788
79188
79668.9
80096.3
80442.2
80570.3
80316.1
79490.2
78486.5
77846.6
77529.8
77437.5
78194.9
80545.4
84858
90067.6
95471
101255
107394
114226
121842
130029
137709
144259
150588
152815
136838
84582.6
73422
78867.1
79117.4
79386.2
79664.8
80005.6
80358.3
80486
80339.9
79518.8
78431.5
77611.2
77183.7
76993.9
77225.3
79226.2
83061.5
88353.8
93693.5
99510.2
105691
112416
119777
128005
136494
144122
150854
156680
154971
116903
79550.2
79325
79460.2
79498.1
79538.8
79670.2
79958.6
80134.8
80266.4
79539.6
78550.8
77630.6
77034.6
76580.7
76414.5
78049.8
81483.3
86597.1
91917.8
97688.4
103865
110498
117718
125774
134535
143269
150867
157644
163196
155098
100395
79715.1
79796.2
79516.7
79373.9
79303.6
79757.5
80111.6
80316.4
79717.6
78673.5
77702.8
76928.1
76440.4
76263.9
77108.6
80198.4
85017.3
90356.5
96017.2
102125
108588
115769
123617
132251
141528
150426
157693
166352
172190
152425
80129.7
80073.9
79521.1
79279.3
79255.9
79771.7
80197.8
80357.9
79845.5
78713
77689.4
76901.2
76434.4
76298.6
76605.3
79170.7
83698.3
89090.9
94544.1
100532
106854
113979
121604
130030
139348
149131
156408
167338
187287
222223
80374.1
80283.4
79649.9
79437
79410.1
79907.4
80299.1
80514.9
79915.3
78727.9
77628.6
76882.2
76514.8
76356.9
76332.2
78414.5
82757.8
88189.6
93342.1
99171.6
105374
112312
119723
127960
137046
147172
155367
169737
203161
309056
80567.1
80432.1
79893.1
79734.3
79718
79872.6
80427.1
80693.9
79853.5
78470.9
77608.8
77064.2
76647.7
76347.8
76093.2
77547.8
81779.2
87311.8
92256.1
97986.4
104073
110710
117984
126170
134928
144534
154997
176657
225218
429100
80559.3
80692.6
80451.3
80002.4
79766.4
80208.9
80523.7
80763.1
79687.5
78397.8
77716.3
77219.3
76696.5
75239.9
74751.9
75678.4
80023.8
85809.6
91532
97000.2
102955
109358
116374
124489
133257
141004
155093
184897
252496
503408
80362.7
80614.7
80072.1
79736.4
79574.6
80250
80541.6
80290.6
79625.4
78491.5
77732.7
76437.6
75297
74496.7
74136.1
74742.3
78967.8
84776.6
90581.2
96108.1
101946
108291
115115
122887
131685
139994
156922
196492
281043
521373
80609.5
80548
80779.8
79836.5
79719.5
79830.4
80112.7
80234.8
79486.6
77912.5
76273.9
75105
74508.2
74181.2
73918.7
74350.8
78304.7
84111.4
89728.6
95208.5
101045
107180
114041
121450
129851
139909
161081
214013
316515
519667
78531.9
79824.2
79196.8
79057.3
78676.1
78827.4
78934
79155.1
78599.8
76198.3
74976.9
74345.8
74132.6
74086.9
73863.7
74244.7
77882.2
83406.9
88806.6
94061.5
99996.8
106072
112855
120133
128095
140287
166917
240955
371338
500871
83196.5
79474.1
80549.1
79335.5
78921.4
78462.2
78312.3
77948.3
76625
75369.7
74294.6
73875.9
73893.7
74061.9
73743.3
73709.3
74956.9
79775.3
85819.3
92416.2
98432.8
104774
111572
118871
126498
141430
174356
274064
435005
474057
62530.4
76630.9
77949.3
79084.6
78102.3
77196.2
76683.7
76262
75384.4
74420.9
73925.9
73032.9
72787.1
72844.1
71763.2
71306.4
71231.2
77208.7
83466.7
90178
96874.8
103460
110304
117655
125851
142830
183760
316810
450508
450738
70670.8
70594.3
70648
70621.3
70641
70639.3
70666.3
70751.1
71059.8
72126.9
75688.5
86458.8
100817
102663
100466
97168.1
93883.1
90930.2
88423.6
86477.5
85108.6
84257.6
83639.5
83135.9
82637.8
82237.6
81886.2
81381.6
81737.8
79062.7
70655.3
70612.4
70646.8
70623.8
70645.2
70656.7
70742
71049.7
72215.4
76646.4
92115.2
108842
108008
104530
100566
96425.9
92619.2
89320.1
86606.9
84605.6
83282.8
82518.8
81921.1
81355.7
80809.8
80420
80218.8
79809.2
80418.7
78411.9
70645.8
70624
70643.9
70629.8
70656.6
70708.4
70959.7
71903.1
75815.9
90136.8
112371
113440
109800
105392
100650
96132.6
91847.9
88054.8
85081.7
83078.3
81864.6
81200.3
80620.9
80023.6
79448.1
79038.7
78970.9
78565.4
79300.2
78181.1
70641.8
70628.7
70643.2
70638.8
70692.5
70866.4
71615.6
74849.6
87254.4
114351
117228
114258
110196
105526
100445
95149.3
90420.4
86647.3
83731.2
81745.5
80591
79956.8
79328.9
78671.2
78121.5
77654.7
77828.7
77633.9
78232.9
78141.4
70639.3
70632.2
70647.4
70664.3
70803.3
71351.4
73876.1
84106
114932
120652
118031
114305
109983
104445
98568.9
93486.3
89153.7
85523.6
82634.2
80755.2
79775.4
79134.3
78427.3
77711.1
77196.8
76792.9
77043.9
77123.6
77617.6
78059.8
70638.5
70636.2
70661.4
70740.2
71142.1
72969.5
80928.8
112210
123841
122068
118097
113738
108111
102003
96537.8
91814.2
87699.6
84254.3
81520.2
80040.8
79316.3
78683.8
77960
77241.7
76793.6
76544.4
76772.8
76999.7
77328.3
77924.4
70640
70646.3
70708.8
70967.5
72231.5
78255.9
105724
126659
126443
122245
117792
112117
105580
99587
94462.4
89944.1
85928
82526.7
80177
79091.3
78619.4
78095.1
77472.1
76946.6
76728.7
76632.9
76835.4
77118.6
77322.1
77576
70645.6
70676.4
70851.8
71686.6
75961.8
96711.8
128737
131019
126941
122174
116594
109794
103183
97535.2
92543.7
88056.1
83991.4
80744.9
78671.1
78197.2
77999.8
77714.2
77319.4
76968.9
76897.7
76943.8
77133
77406.8
77455.9
77528
70664.6
70764.9
71307.7
74128.2
88259.9
128950
135464
132125
126973
121455
114613
107478
101232
95790.6
90813.4
86318.4
82076.3
79301.1
78001.5
77962
77912.6
77745.2
77451.5
77222.5
77257.9
77350.5
77608.6
77809.2
77662.5
77609.1
70722.2
71043.8
72807.8
81742.6
122929
139158
137585
132276
126671
119914
112455
105595
99669.6
94300
89283.7
84678.3
80578.9
78412.7
77899.7
77973.6
78015.8
77988.4
77911.1
77844.4
77872.4
77985.3
78240.6
78286.7
77975.4
77738.9
70902.8
71931.3
77768.1
109949
141792
143109
138007
132216
125623
117994
110581
104134
98371.9
93001
87954.9
83187.3
79612
77991.3
77902.1
78049.4
78375.1
78536.6
78833.3
79096
79061.3
79026.1
78948.2
78740.5
78339.1
77948.4
71470.3
74929
95445.6
142351
148524
144138
138057
131557
123926
116092
109006
102829
97091.8
91696.3
86586
81909.3
78961.1
77703.2
77812.1
78033.6
78552.6
79387.1
80115
80637.9
80519.2
80180.4
79727.4
79141.6
78695.7
78293.6
73333.1
84108.9
135835
152672
150601
144255
137707
130078
121930
114322
107489
101351
95565.2
90171.5
84964.2
80636.2
78259.5
77338.3
77446.1
77828.3
78658.9
79780.9
80630.8
80945.3
80810.8
80443.3
79994.2
79477.5
79049.1
78712.9
79284.8
115759
154707
156697
150895
144142
136564
128117
119899
112532
105802
99617.6
93786.7
88450.7
83160.4
79287.6
77135.3
77189
77411.2
77871.3
78730
80008.7
80877.4
80894.8
80755.3
80385.5
80016.5
79767
79470.3
79163.4
99391.3
154521
163165
157726
150918
143351
134663
125909
117846
110614
103966
97779.2
91992.7
86664.8
81553.4
77983.5
76673.8
76815.6
77389.4
77969.9
79011.7
80184.2
80913.3
80666.3
80404
80098.1
79929.2
79902.2
79901.4
79721.4
150953
171958
166420
157781
150524
141667
132402
123748
115880
108684
102201
96088.6
90418.4
85066.2
80272.4
77219.3
76582.4
76796.4
77366
78145.6
79269
80361.8
80912.7
80674.3
80122.9
79677.4
79773.3
79925.5
80280.8
80208.8
220577
187171
167447
156556
149284
139507
130180
121722
114078
106941
100603
94616.3
89157.5
83754.4
79301.9
76853.5
76733.4
76842.2
77384.9
78216.1
79413.5
80538.2
80935.2
80711.3
80120
79575
79617.2
79959.6
80635.6
80667.9
307863
202989
169777
155521
147352
137194
128096
119833
112405
105455
99246.6
93426.2
88261.7
82821.2
78659.4
76673.6
76783.7
77072.8
77448.3
78295
79479.9
80645.6
80925.4
80713.1
80200.9
79671
79717.4
80027.9
80884.7
80906.4
429250
225063
176730
155151
144736
135074
126283
118094
110814
104162
98057.7
92341.9
87379.4
81910.3
77835.1
76466.7
76813.8
77177.3
77790.3
78445.4
79355.2
80580.7
81044.8
80761.3
80136.5
80072.9
80109.6
80294.3
80930
80958.4
504217
252458
184968
155258
141188
133408
124591
116477
109455
103036
97060.3
91534.3
85947.7
80234.1
76065.9
75367.6
75801
77184.7
77930.7
78522.7
79246.1
80386.8
81211.3
80983.8
80589.4
80330.8
80598.1
81133.5
81140.7
80940.4
522337
281169
196634
157049
140132
131841
122992
115203
108363
101993
96130
90567
84927.5
79200.6
75244.7
74872.7
75259.2
76145.1
77295
78437.4
79314.9
80280.9
80726.4
81075
80844.1
80154.3
80368
80691.5
81062.7
80638
520644
316879
214237
161261
140011
129906
121539
114089
107181
100995
95159.6
89702.9
84284.9
78596.2
74944.2
74751.6
75060.4
75433.3
76011.1
77157.4
78819.8
80115.2
80563.2
80544.4
80496.3
80505.5
80581.2
81414.6
81054.2
80926.3
501719
372576
241250
167075
140410
128210
120151
112817
105970
99850.5
93943.6
88774.8
83596.4
78284.6
74896.8
74748.9
75008.8
75074.8
75275.9
75822.7
76924.4
79133.6
79739.1
79547.2
79410.3
79002.6
79354.9
79670.2
80356.7
78834.2
474778
436271
274597
174515
141494
126507
118804
111420
104595
98327.6
92379.2
86120
79952.7
75451.5
74309.4
74441.1
75018.1
74868.7
74776.3
75069.5
75828.4
77016.5
78467.6
78851.7
78978.4
79335.4
79496.3
80566.7
79844.5
83560.7
452215
451319
317708
183929
142755
125687
117462
110045
103263
96852.8
90409
83770
77785.2
71994.3
72206.5
72718.2
73956.5
73791.2
73975.8
74598
74930.3
75733.9
76377.8
76698
77591.9
78366.5
79109.9
78096.8
76833
62911
70637
70637
70637
70637
70637
70637
70637
70637
70637
70637
70637
70637
70637
70637
70637
70637
70637
70637
70637
70637
70637
70637
70637
70637
70637
70637
70637
70637
70637
70637
70637
70637
70637
70637
70637
70637
70637
70637
70637
70637
70637
70637
70637
70637
70637
70637
70637
70637
70637
70637
70637
70637
70637
70637.6
70649
70831.2
73200.7
96127.7
249125
625724
1.11867e+06
1.74979e+06
2.59617e+06
2.96049e+06
3.07492e+06
3.09337e+06
3.08619e+06
3.0001e+06
2.81005e+06
2.57603e+06
2.35696e+06
2.17411e+06
2.01171e+06
1.87137e+06
1.74979e+06
1.64448e+06
1.55168e+06
1.46951e+06
1.39691e+06
1.33023e+06
1.26643e+06
1.20597e+06
1.14831e+06
1.093e+06
1.04157e+06
993889
949098
906653
866771
829613
795124
762938
732699
704158
676861
650468
625021
602706
583085
565228
548089
531743
516805
503397
491444
480815
471408
463036
455569
448660
442509
437163
432500
428255
424594
421453
418896
417253
416721
416670
416869
417586
419896
427069
435963
70637
70637
70637
70637
70637
70636.9
70636.9
70636.9
70636.9
70636.9
70636.9
70636.9
70636.9
70636.9
70636.9
70636.9
70636.9
70636.9
70636.9
70636.9
70636.9
70636.9
70636.9
70636.9
70636.9
70636.9
70636.9
70636.9
70636.9
70636.9
70636.9
70636.9
70636.9
70636.9
70636.9
70636.9
70636.9
70636.9
70636.9
70636.9
70636.9
70636.9
70636.9
70636.9
70636.9
70636.9
70636.9
70636.9
70636.9
70636.9
70636.9
70637
70637.6
70653.1
70943.5
75258.6
128796
357968
591226
741338
858615
994461
1.12843e+06
1.26745e+06
1.42217e+06
1.59952e+06
1.79447e+06
2.07751e+06
2.45601e+06
2.56535e+06
2.57333e+06
2.54277e+06
2.46102e+06
2.33229e+06
2.17516e+06
2.00554e+06
1.82514e+06
1.64994e+06
1.50578e+06
1.38613e+06
1.28754e+06
1.20338e+06
1.12986e+06
1.06513e+06
1.00846e+06
957651
911329
869594
832017
797605
765390
735091
706723
680220
655338
631850
609740
588935
571179
555341
540282
525855
512689
500761
490069
480621
472433
465438
459445
453981
449042
444480
440410
437306
435369
434425
434202
434275
435045
436492
441673
445663
447362
447618
448228
70637
70637
70637
70637
70637
70637
70637
70637
70637
70636.9
70636.9
70636.9
70636.9
70636.9
70636.9
70636.9
70636.9
70636.9
70636.9
70636.9
70636.9
70636.9
70636.9
70636.9
70636.9
70636.9
70636.9
70636.9
70636.9
70636.9
70636.9
70636.9
70636.9
70636.9
70636.9
70636.9
70636.9
70637
70637
70637
70637
70637
70637
70637
70637
70637
70637
70637
70637
70637
70637
70637.7
70656.4
71067.7
77915.8
172649
468763
642454
715322
753306
787782
829514
869128
918672
962511
997434
1.03712e+06
1.0902e+06
1.16898e+06
1.26964e+06
1.39972e+06
1.56459e+06
1.75792e+06
1.99478e+06
2.12785e+06
2.14998e+06
2.14037e+06
2.09067e+06
1.93896e+06
1.73973e+06
1.56076e+06
1.41192e+06
1.284e+06
1.17591e+06
1.08413e+06
1.008e+06
945464
894622
851673
813089
777351
743958
712895
684315
658027
633788
611453
590881
572729
557048
542562
529152
517130
506308
496842
488765
481908
476204
472090
470263
470214
470925
473602
477020
480691
483407
484853
485226
485738
487991
488185
481600
463756
426215
373633
70637
70637
70637
70637
70637
70637
70637
70637
70637
70637
70637
70636.9
70636.9
70636.9
70636.9
70636.9
70636.9
70636.9
70636.9
70636.9
70636.9
70636.9
70637
70637
70637
70637
70637
70637
70637
70637
70637
70637
70637
70637
70637
70637
70637
70637
70637
70637
70637
70637
70637
70637
70637
70637
70637
70637
70637
70637
70637.6
70657.4
71152.6
80126
209863
546896
689575
731176
748682
755754
764047
777992
788399
802150
805989
806845
806780
810766
824047
834212
845164
854741
861985
874063
903906
963467
1.05415e+06
1.15896e+06
1.31231e+06
1.4819e+06
1.52281e+06
1.51126e+06
1.45038e+06
1.33254e+06
1.22145e+06
1.127e+06
1.04846e+06
978299
914988
859163
810122
766880
728694
695275
666152
640624
617974
597760
579269
563547
549962
538389
528984
521262
515564
511919
509985
509120
508429
506862
503970
500378
496657
493453
490782
487379
482175
471426
436249
389076
339171
289481
244779
215625
196783
70637
70637
70637
70637
70637
70637
70637
70637
70637
70637
70637
70637
70637
70636.9
70636.9
70636.9
70636.9
70636.9
70636.9
70637
70637
70637
70637
70637
70637
70637
70637
70637
70637
70637
70637
70637
70637
70637
70637
70637
70637
70637
70637
70637
70637
70637
70637
70637
70637
70637
70637
70637
70637
70637.5
70655.7
71163.2
81061.9
230846
582940
717776
750597
759889
759699
755931
757461
761874
763729
764049
757345
747380
734809
722645
713240
697054
678904
655517
632260
605033
581529
560527
552497
556678
574685
615710
674710
743937
833422
947238
1.03327e+06
1.07122e+06
1.0565e+06
997083
937314
882261
833110
789760
752324
719641
690539
664622
641590
621037
602114
585152
570016
556445
545137
535228
526851
519884
514460
510500
507382
503486
497276
487018
463910
424793
379686
331893
283101
237557
208327
189077
173898
162560
154785
149193
145203
70637
70637
70637
70637
70637
70637
70637
70637
70637
70637
70637
70637
70637
70637
70637
70637
70637
70637
70637
70637
70637
70637
70637
70637
70637
70637
70637
70637
70637
70637
70637
70637
70637
70637
70637
70637
70637
70637
70637
70637
70637
70637
70637
70637
70637
70637
70637
70637
70637.4
70651.9
71098.1
80416.1
231328
594722
730361
761053
769423
770837
760316
754832
755832
757376
757032
750865
741521
729785
714958
695983
673140
648257
616918
582437
544913
506155
471643
438265
408826
388567
374721
366871
362893
363229
369515
385867
410941
444256
491869
564416
623621
666103
693454
705302
704098
691065
669701
647510
626653
607167
588915
571594
555300
540099
526247
512628
498152
478748
449267
412799
371068
326850
282337
239327
206213
186103
170315
157665
147831
140641
135560
131975
129260
127248
126247
125710
125542
70637
70637
70637
70637
70637
70637
70637
70637
70637
70637
70637
70637
70637
70637
70637
70637
70637
70637
70637
70637
70637
70637
70637
70637
70637
70637
70637
70637
70637
70637
70637
70637
70637
70637
70637
70637
70637
70637
70637
70637
70637
70637