/*--------------------------------*- C++ -*----------------------------------*\
| =========                 |                                                 |
| \\      /  F ield         | OpenFOAM: The Open Source CFD Toolbox           |
|  \\    /   O peration     | Version:  2112                                  |
|   \\  /    A nd           | Website:  www.openfoam.com                      |
|    \\/     M anipulation  |                                                 |
\*---------------------------------------------------------------------------*/
FoamFile
{
    version     2.0;
    format      ascii;
    arch        "LSB;label=32;scalar=64";
    class       volScalarField;
    location    "0.01029";
    object      epsilon;
}
// * * * * * * * * * * * * * * * * * * * * * * * * * * * * * * * * * * * * * //

dimensions      [0 2 -3 0 0 0 0];

internalField   nonuniform List<scalar> 
13875
(
1.16001e+06
2.94623e+07
3.28262e+07
3.28303e+07
3.29143e+07
3.28489e+07
3.29225e+07
3.29164e+07
3.28882e+07
3.29134e+07
3.29332e+07
3.29109e+07
3.28675e+07
3.28439e+07
3.28609e+07
3.29107e+07
3.29485e+07
3.29129e+07
3.28935e+07
3.28608e+07
3.28997e+07
3.28306e+07
3.28042e+07
2.94998e+07
1.1778e+06
1.31389e+06
2.27472e+07
2.53572e+07
2.52329e+07
2.52868e+07
2.5215e+07
2.5253e+07
2.52522e+07
2.52285e+07
2.52266e+07
2.52358e+07
2.52471e+07
2.52068e+07
2.51934e+07
2.52007e+07
2.52504e+07
2.52463e+07
2.52364e+07
2.52252e+07
2.52291e+07
2.52699e+07
2.52197e+07
2.53285e+07
2.27658e+07
1.34185e+06
1.57303e+06
1.97062e+07
2.18314e+07
2.16242e+07
2.17036e+07
2.16308e+07
2.15806e+07
2.15574e+07
2.15315e+07
2.15269e+07
2.15215e+07
2.15381e+07
2.16043e+07
2.16021e+07
2.15972e+07
2.15477e+07
2.15322e+07
2.15301e+07
2.15486e+07
2.16408e+07
2.16835e+07
2.16018e+07
2.17906e+07
1.96932e+07
1.58421e+06
1.81371e+06
1.7385e+07
1.90396e+07
1.88789e+07
1.89712e+07
1.89049e+07
1.88352e+07
1.88051e+07
1.87832e+07
1.87869e+07
1.87785e+07
1.87772e+07
1.88818e+07
1.88802e+07
1.88765e+07
1.87881e+07
1.87945e+07
1.87799e+07
1.88066e+07
1.8915e+07
1.89522e+07
1.88579e+07
1.90152e+07
1.73633e+07
1.8203e+06
2.02276e+06
1.54523e+07
1.67734e+07
1.66215e+07
1.67073e+07
1.66501e+07
1.65722e+07
1.65479e+07
1.65373e+07
1.65413e+07
1.6533e+07
1.65238e+07
1.66241e+07
1.66271e+07
1.66196e+07
1.6534e+07
1.65478e+07
1.65304e+07
1.65526e+07
1.66546e+07
1.66903e+07
1.66051e+07
1.67449e+07
1.54265e+07
2.03632e+06
2.20642e+06
1.3712e+07
1.49293e+07
1.47401e+07
1.48352e+07
1.47711e+07
1.46786e+07
1.46611e+07
1.46573e+07
1.46613e+07
1.46528e+07
1.46377e+07
1.47351e+07
1.47422e+07
1.47319e+07
1.46469e+07
1.4668e+07
1.46472e+07
1.46668e+07
1.47749e+07
1.48194e+07
1.47293e+07
1.49042e+07
1.38459e+07
2.22332e+06
2.42249e+06
1.22509e+07
1.34788e+07
1.32093e+07
1.32733e+07
1.31992e+07
1.30898e+07
1.30717e+07
1.30722e+07
1.30764e+07
1.30669e+07
1.30469e+07
1.31419e+07
1.31514e+07
1.31379e+07
1.30552e+07
1.30838e+07
1.30609e+07
1.30855e+07
1.32006e+07
1.3257e+07
1.32015e+07
1.3422e+07
1.19508e+07
2.43017e+06
2.66587e+06
1.06153e+07
1.23135e+07
1.19774e+07
1.20027e+07
1.18871e+07
1.17533e+07
1.17291e+07
1.1731e+07
1.17337e+07
1.17245e+07
1.16977e+07
1.17909e+07
1.1804e+07
1.17878e+07
1.17049e+07
1.1743e+07
1.172e+07
1.17516e+07
1.18845e+07
1.19812e+07
1.19656e+07
1.22645e+07
1.05445e+07
2.69556e+06
3.49616e+06
1.02119e+07
1.14828e+07
1.10306e+07
1.09423e+07
1.07868e+07
1.06252e+07
1.05928e+07
1.05968e+07
1.05975e+07
1.05893e+07
1.05563e+07
1.06471e+07
1.06642e+07
1.06468e+07
1.05654e+07
1.06085e+07
1.05857e+07
1.06253e+07
1.07806e+07
1.09226e+07
1.10215e+07
1.14745e+07
1.03389e+07
3.57464e+06
6.83494e+06
1.22192e+07
1.11966e+07
1.04292e+07
1.01683e+07
9.92457e+06
9.74897e+06
9.71316e+06
9.71154e+06
9.70783e+06
9.6993e+06
9.66427e+06
9.74853e+06
9.76913e+06
9.75233e+06
9.68203e+06
9.71904e+06
9.70742e+06
9.74555e+06
9.91579e+06
1.01436e+07
1.03601e+07
1.11611e+07
1.21304e+07
6.89339e+06
1.49119e+07
1.8676e+07
1.20476e+07
1.03238e+07
9.61722e+06
9.31068e+06
9.11898e+06
9.06176e+06
9.04626e+06
9.03415e+06
9.02464e+06
8.99004e+06
9.06395e+06
9.08724e+06
9.07734e+06
9.02745e+06
9.05499e+06
9.0605e+06
9.12391e+06
9.28562e+06
9.60923e+06
1.02678e+07
1.18773e+07
1.79391e+07
1.49988e+07
2.54641e+07
6.87387e+07
1.81471e+07
1.07021e+07
9.70454e+06
9.00383e+06
8.70179e+06
8.6064e+06
8.56528e+06
8.54243e+06
8.52994e+06
8.49965e+06
8.55728e+06
8.58159e+06
8.58262e+06
8.55553e+06
8.57915e+06
8.60902e+06
8.70233e+06
9.01802e+06
9.65562e+06
1.05536e+07
1.75752e+07
6.72495e+07
2.50313e+07
2.6578e+07
7.59585e+07
8.67647e+07
2.40272e+07
1.09274e+07
9.09798e+06
8.73084e+06
8.46166e+06
8.3507e+06
8.29649e+06
8.27126e+06
8.24181e+06
8.28086e+06
8.3038e+06
8.31934e+06
8.3244e+06
8.37878e+06
8.49037e+06
8.7616e+06
9.15287e+06
1.12974e+07
2.26134e+07
8.08093e+07
7.64795e+07
2.60808e+07
2.63427e+07
5.512e+07
7.96928e+07
1.04712e+08
5.77105e+07
1.3158e+07
9.66408e+06
8.83156e+06
8.58926e+06
8.55763e+06
8.53901e+06
8.5147e+06
8.54553e+06
8.56451e+06
8.58726e+06
8.61138e+06
8.65278e+06
8.88569e+06
9.95e+06
1.45051e+07
6.5735e+07
9.10562e+07
7.52765e+07
5.4472e+07
2.57552e+07
2.53228e+07
4.25108e+07
5.80533e+07
7.2591e+07
7.48367e+07
7.53978e+07
2.39917e+07
1.3132e+07
1.11323e+07
1.04014e+07
1.01027e+07
9.98944e+06
9.98825e+06
1.00166e+07
1.01006e+07
1.03376e+07
1.10272e+07
1.31823e+07
2.62638e+07
7.7506e+07
7.50319e+07
6.60593e+07
5.65723e+07
4.22164e+07
2.6416e+07
2.47008e+07
3.34938e+07
4.33504e+07
5.43619e+07
5.90518e+07
6.78601e+07
5.12813e+07
4.52522e+07
4.16601e+07
3.27343e+07
3.45466e+07
3.56273e+07
3.63893e+07
3.61011e+07
3.49543e+07
3.2977e+07
4.02223e+07
4.91167e+07
5.20245e+07
6.86227e+07
5.82003e+07
5.05259e+07
4.2607e+07
3.34038e+07
2.57975e+07
2.00463e+07
2.52302e+07
3.22722e+07
4.19745e+07
4.93511e+07
6.18306e+07
7.05025e+07
7.05908e+07
5.76012e+07
4.97121e+07
5.2144e+07
5.4838e+07
5.64406e+07
5.58042e+07
5.2929e+07
5.31329e+07
5.78308e+07
7.04601e+07
7.06012e+07
6.13179e+07
4.71555e+07
3.9067e+07
3.09059e+07
2.45112e+07
1.99411e+07
1.48246e+07
1.91057e+07
2.64649e+07
3.73499e+07
4.53737e+07
5.29716e+07
6.35002e+07
6.87488e+07
5.15253e+07
3.83986e+07
3.52585e+07
3.55462e+07
3.62121e+07
3.58795e+07
3.58014e+07
4.14821e+07
5.17461e+07
6.46373e+07
6.26277e+07
5.40266e+07
4.52035e+07
3.6027e+07
2.53848e+07
1.85621e+07
1.45207e+07
1.22256e+07
1.67116e+07
2.3994e+07
3.73305e+07
4.78586e+07
4.62017e+07
4.91595e+07
5.48244e+07
4.55118e+07
3.42262e+07
2.87635e+07
2.71831e+07
2.70448e+07
2.7502e+07
2.94982e+07
3.55148e+07
4.39351e+07
5.11935e+07
4.87594e+07
4.79029e+07
5.04651e+07
3.69733e+07
2.36011e+07
1.64531e+07
1.20637e+07
1.16466e+07
1.82679e+07
2.49516e+07
3.70003e+07
4.35023e+07
3.91697e+07
3.86583e+07
4.23606e+07
3.8847e+07
3.13348e+07
2.5529e+07
2.23641e+07
2.14035e+07
2.29011e+07
2.6617e+07
3.21028e+07
3.69845e+07
3.96751e+07
3.85669e+07
4.07555e+07
4.51078e+07
3.62385e+07
2.4781e+07
1.83477e+07
1.17209e+07
3.00769e+07
6.01004e+07
4.52197e+07
3.22408e+07
3.46147e+07
3.15594e+07
3.09401e+07
3.39052e+07
3.28843e+07
2.76944e+07
2.21614e+07
1.84193e+07
1.72341e+07
1.92211e+07
2.35052e+07
2.83129e+07
3.11978e+07
3.19344e+07
3.10086e+07
3.28314e+07
3.57348e+07
3.3065e+07
5.01194e+07
6.5625e+07
3.8796e+07
9.33193e+07
3.01008e+08
6.16852e+07
2.61297e+07
2.73885e+07
2.56457e+07
2.53381e+07
2.78082e+07
2.77128e+07
2.39064e+07
1.89677e+07
1.52282e+07
1.40096e+07
1.60354e+07
2.02007e+07
2.4309e+07
2.61935e+07
2.63479e+07
2.53744e+07
2.65695e+07
2.81142e+07
2.70123e+07
6.77577e+07
2.95542e+08
1.08407e+08
1.109e+08
2.34252e+08
5.10576e+07
2.17485e+07
2.21758e+07
2.11895e+07
2.10037e+07
2.31041e+07
2.32855e+07
2.03224e+07
1.60241e+07
1.26375e+07
1.14783e+07
1.32675e+07
1.70004e+07
2.05617e+07
2.19199e+07
2.19425e+07
2.09885e+07
2.17525e+07
2.26203e+07
2.24288e+07
5.16818e+07
2.24736e+08
1.07792e+08
9.46532e+07
2.35547e+08
3.99636e+07
1.86064e+07
1.82367e+07
1.76066e+07
1.75332e+07
1.92447e+07
1.95263e+07
1.7107e+07
1.33908e+07
1.0471e+07
9.5073e+06
1.10606e+07
1.43093e+07
1.73752e+07
1.83942e+07
1.8299e+07
1.75585e+07
1.80548e+07
1.86568e+07
1.92772e+07
4.13093e+07
2.43201e+08
9.41559e+07
8.654e+07
2.24996e+08
3.3331e+07
1.62388e+07
1.53903e+07
1.48303e+07
1.48444e+07
1.61699e+07
1.64387e+07
1.44296e+07
1.12722e+07
8.78273e+06
7.96836e+06
9.28676e+06
1.20907e+07
1.47084e+07
1.55159e+07
1.53756e+07
1.4831e+07
1.51824e+07
1.5811e+07
1.68739e+07
3.5162e+07
2.41364e+08
8.73271e+07
7.97209e+07
2.19082e+08
2.87351e+07
1.4208e+07
1.32206e+07
1.26298e+07
1.27202e+07
1.37025e+07
1.38993e+07
1.22308e+07
9.57334e+06
7.44571e+06
6.75006e+06
7.85672e+06
1.02399e+07
1.24533e+07
1.313e+07
1.29991e+07
1.26075e+07
1.28362e+07
1.35775e+07
1.46931e+07
3.01664e+07
2.31618e+08
8.18206e+07
7.58922e+07
1.93752e+08
2.43324e+07
1.2465e+07
1.15322e+07
1.08841e+07
1.09863e+07
1.16799e+07
1.17623e+07
1.0338e+07
8.13526e+06
6.36357e+06
5.78016e+06
6.73217e+06
8.76214e+06
1.06207e+07
1.12214e+07
1.11221e+07
1.08475e+07
1.10338e+07
1.18831e+07
1.29489e+07
2.60818e+07
2.08251e+08
7.84888e+07
7.21264e+07
1.75154e+08
2.13943e+07
1.1089e+07
1.01998e+07
9.51822e+06
9.58868e+06
1.00652e+07
1.00571e+07
8.8418e+06
6.99941e+06
5.49882e+06
4.99758e+06
5.8049e+06
7.51963e+06
9.08681e+06
9.63574e+06
9.58777e+06
9.4177e+06
9.60895e+06
1.0468e+07
1.14753e+07
2.30601e+07
1.92076e+08
7.37179e+07
6.69022e+07
1.63595e+08
1.927e+07
9.94396e+06
9.09956e+06
8.45624e+06
8.44312e+06
8.74126e+06
8.65855e+06
7.6055e+06
6.07108e+06
4.79822e+06
4.35835e+06
5.04238e+06
6.47738e+06
7.78588e+06
8.3134e+06
8.32498e+06
8.24351e+06
8.46074e+06
9.2746e+06
1.02442e+07
2.03539e+07
1.68026e+08
6.93863e+07
6.19578e+07
1.45753e+08
1.75048e+07
8.9963e+06
8.1281e+06
7.56245e+06
7.5004e+06
7.63043e+06
7.46461e+06
6.54653e+06
5.26911e+06
4.20429e+06
3.83269e+06
4.43142e+06
5.66323e+06
6.76845e+06
7.24988e+06
7.30528e+06
7.30773e+06
7.54169e+06
8.26311e+06
9.26065e+06
1.85908e+07
1.51999e+08
6.53205e+07
5.74481e+07
1.2627e+08
1.60964e+07
8.25281e+06
7.3065e+06
6.8057e+06
6.71836e+06
6.72837e+06
6.50907e+06
5.69939e+06
4.63079e+06
3.72281e+06
3.39566e+06
3.91189e+06
4.95375e+06
5.88197e+06
6.34603e+06
6.45441e+06
6.53077e+06
6.75901e+06
7.37257e+06
8.44336e+06
1.68187e+07
1.30865e+08
6.08435e+07
5.35263e+07
1.12679e+08
1.49977e+07
7.68778e+06
6.60688e+06
6.14701e+06
6.05242e+06
5.98492e+06
5.72867e+06
5.01382e+06
4.10408e+06
3.31864e+06
3.03183e+06
3.47488e+06
4.3703e+06
5.16648e+06
5.60055e+06
5.74794e+06
5.86932e+06
6.08053e+06
6.627e+06
7.80792e+06
1.5382e+07
1.12999e+08
5.65191e+07
4.97908e+07
9.66671e+07
1.38932e+07
7.2349e+06
6.02032e+06
5.58525e+06
5.45859e+06
5.34315e+06
5.04955e+06
4.41197e+06
3.64388e+06
2.97406e+06
2.72479e+06
3.11792e+06
3.89362e+06
4.57425e+06
4.98291e+06
5.16104e+06
5.29628e+06
5.50915e+06
6.02157e+06
7.30839e+06
1.43724e+07
1.01381e+08
5.24314e+07
4.66984e+07
8.43935e+07
1.29068e+07
6.89066e+06
5.5522e+06
5.10446e+06
4.93711e+06
4.80497e+06
4.49734e+06
3.9298e+06
3.26937e+06
2.6836e+06
2.46453e+06
2.80438e+06
3.48043e+06
4.07112e+06
4.45134e+06
4.65279e+06
4.79048e+06
5.01512e+06
5.52632e+06
6.91113e+06
1.34669e+07
8.8557e+07
4.85891e+07
4.39311e+07
7.54235e+07
1.19117e+07
6.59147e+06
5.21971e+06
4.68526e+06
4.49062e+06
4.33732e+06
4.0305e+06
3.51837e+06
2.94974e+06
2.43755e+06
2.24203e+06
2.54026e+06
3.12765e+06
3.64215e+06
4.00155e+06
4.2102e+06
4.35801e+06
4.60807e+06
5.16543e+06
6.60812e+06
1.2413e+07
7.76923e+07
4.57149e+07
4.1083e+07
6.6807e+07
1.09758e+07
6.32402e+06
4.96959e+06
4.33001e+06
4.09756e+06
3.92154e+06
3.62317e+06
3.16495e+06
2.66887e+06
2.21971e+06
2.05031e+06
2.31509e+06
2.8397e+06
3.29196e+06
3.62023e+06
3.82296e+06
3.98776e+06
4.25481e+06
4.91323e+06
6.36646e+06
1.15016e+07
6.97292e+07
4.30802e+07
3.89044e+07
6.02789e+07
1.01858e+07
6.18967e+06
4.7892e+06
4.03955e+06
3.76474e+06
3.56546e+06
3.276e+06
2.86621e+06
2.43256e+06
2.03595e+06
1.8839e+06
2.11801e+06
2.57883e+06
2.97754e+06
3.28152e+06
3.48377e+06
3.66119e+06
3.95814e+06
4.72156e+06
6.21546e+06
1.05525e+07
6.17136e+07
4.06022e+07
3.68593e+07
5.59097e+07
9.4701e+06
6.04391e+06
4.66568e+06
3.82696e+06
3.47264e+06
3.25642e+06
2.97762e+06
2.61277e+06
2.23024e+06
1.87368e+06
1.73877e+06
1.94545e+06
2.35869e+06
2.71153e+06
2.98615e+06
3.19052e+06
3.37646e+06
3.7417e+06
4.6049e+06
6.07761e+06
9.67758e+06
5.62851e+07
3.86865e+07
3.46094e+07
5.08418e+07
8.68457e+06
5.7587e+06
4.60688e+06
3.66887e+06
3.22814e+06
2.98764e+06
2.71291e+06
2.38326e+06
2.04596e+06
1.73101e+06
1.61186e+06
1.79852e+06
2.16878e+06
2.48196e+06
2.73538e+06
2.93937e+06
3.13933e+06
3.57942e+06
4.55136e+06
5.82761e+06
8.92064e+06
5.31906e+07
3.66779e+07
3.27828e+07
4.73284e+07
7.98137e+06
5.44802e+06
4.60895e+06
3.55951e+06
3.03673e+06
2.76053e+06
2.4894e+06
2.19089e+06
1.89094e+06
1.60605e+06
1.49923e+06
1.66445e+06
1.99975e+06
2.27848e+06
2.51152e+06
2.72341e+06
2.95524e+06
3.46974e+06
4.52331e+06
5.48634e+06
8.24519e+06
5.01099e+07
3.44125e+07
3.12805e+07
4.45005e+07
7.55367e+06
5.14796e+06
4.68535e+06
3.49848e+06
2.89252e+06
2.57553e+06
2.29881e+06
2.02193e+06
1.75248e+06
1.49572e+06
1.39949e+06
1.54694e+06
1.84794e+06
2.10074e+06
2.32226e+06
2.54529e+06
2.82145e+06
3.40414e+06
4.65276e+06
5.18921e+06
7.71294e+06
4.70907e+07
3.25412e+07
2.98299e+07
4.17684e+07
7.03308e+06
4.79195e+06
4.58461e+06
3.47955e+06
2.77799e+06
2.43413e+06
2.13663e+06
1.87274e+06
1.62846e+06
1.39533e+06
1.30996e+06
1.44366e+06
1.72075e+06
1.94994e+06
2.16413e+06
2.40762e+06
2.71251e+06
3.40874e+06
4.64996e+06
4.92179e+06
7.83648e+06
4.38939e+07
3.08569e+07
2.86326e+07
3.93831e+07
6.69652e+06
4.45195e+06
4.35239e+06
3.5573e+06
2.7046e+06
2.32436e+06
2.00703e+06
1.74597e+06
1.52028e+06
1.30721e+06
1.22981e+06
1.34997e+06
1.60193e+06
1.81491e+06
2.03031e+06
2.30168e+06
2.63745e+06
3.46579e+06
4.43015e+06
4.57148e+06
7.26216e+06
4.1096e+07
2.94703e+07
2.76535e+07
3.70324e+07
6.8986e+06
4.16491e+06
4.07519e+06
3.71208e+06
2.68807e+06
2.23199e+06
1.90897e+06
1.6421e+06
1.42696e+06
1.22798e+06
1.15749e+06
1.26611e+06
1.4984e+06
1.70108e+06
1.92628e+06
2.21765e+06
2.62608e+06
3.67064e+06
4.16379e+06
4.2529e+06
7.04705e+06
3.86301e+07
2.84007e+07
2.66916e+07
3.50714e+07
6.49594e+06
3.87857e+06
3.77829e+06
3.70216e+06
2.76461e+06
2.16901e+06
1.82699e+06
1.55771e+06
1.34508e+06
1.15774e+06
1.09327e+06
1.19352e+06
1.41326e+06
1.61127e+06
1.84497e+06
2.1603e+06
2.72788e+06
3.71722e+06
3.87873e+06
4.01292e+06
7.19683e+06
3.63879e+07
2.75362e+07
2.58354e+07
3.30956e+07
6.58293e+06
3.67496e+06
3.49608e+06
3.48768e+06
2.99236e+06
2.16565e+06
1.76526e+06
1.49503e+06
1.28188e+06
1.09987e+06
1.03745e+06
1.13132e+06
1.34271e+06
1.54198e+06
1.77809e+06
2.15026e+06
2.93896e+06
3.52093e+06
3.59158e+06
3.76688e+06
7.00407e+06
3.43682e+07
2.66991e+07
2.50135e+07
3.1308e+07
6.73438e+06
3.53957e+06
3.25275e+06
3.26184e+06
3.05678e+06
2.29585e+06
1.72333e+06
1.43959e+06
1.23341e+06
1.05419e+06
988194
1.08214e+06
1.28817e+06
1.48461e+06
1.72977e+06
2.2661e+06
3.05544e+06
3.29809e+06
3.33102e+06
3.58622e+06
6.88071e+06
3.24477e+07
2.5852e+07
2.38582e+07
2.94891e+07
6.55285e+06
3.38906e+06
3.04298e+06
3.03185e+06
2.8977e+06
2.51906e+06
1.74664e+06
1.39392e+06
1.19139e+06
1.0183e+06
950711
1.04443e+06
1.24369e+06
1.43854e+06
1.75076e+06
2.51079e+06
2.93243e+06
3.06491e+06
3.11365e+06
3.4878e+06
6.95195e+06
3.03548e+07
2.46479e+07
2.24458e+07
2.74425e+07
6.44589e+06
3.29021e+06
2.86421e+06
2.80772e+06
2.72704e+06
2.63129e+06
1.88983e+06
1.37249e+06
1.15769e+06
987726
922836
1.01202e+06
1.20548e+06
1.411e+06
1.87905e+06
2.66732e+06
2.76333e+06
2.83381e+06
2.91963e+06
3.37157e+06
6.71429e+06
2.82285e+07
2.31711e+07
1.94539e+07
2.43747e+07
6.27355e+06
3.20727e+06
2.71366e+06
2.61882e+06
2.55591e+06
2.51565e+06
2.14199e+06
1.4337e+06
1.13725e+06
961663
897546
983919
1.17847e+06
1.45526e+06
2.13812e+06
2.57855e+06
2.59059e+06
2.63771e+06
2.75343e+06
3.25736e+06
6.42088e+06
2.51307e+07
2.01259e+07
9.04769e+06
5.05623e+06
3.50099e+06
2.42081e+06
1.69992e+06
1.29845e+06
1.07197e+06
923504
803124
697058
594823
494731
399674
316135
246439
191414
149710
118788
95614.7
79383.5
67827.5
59592.1
53693
49206.8
45612.4
42751.3
40880.1
40949.7
47499.8
95000.1
1.00384e+07
5.31297e+06
3.66013e+06
2.53524e+06
1.79051e+06
1.37705e+06
1.14273e+06
989562
868883
763374
661165
559393
459458
367618
287829
222492
171662
133369
104849
84794.7
70774.3
61018.9
54247.7
49307.8
45535.8
42706.3
40992.5
41345.1
48429.4
96345.2
1.03191e+07
5.40832e+06
3.81159e+06
2.65692e+06
1.89233e+06
1.46286e+06
1.22099e+06
1.06423e+06
944327
839001
736204
632437
527779
427662
337183
260266
199011
151989
117020
92102
74848.6
63134.7
55179
49601.2
45539.6
42707.8
41187.2
41855.4
49558.9
97826.4
1.07746e+07
5.72426e+06
4.06651e+06
2.85416e+06
2.04581e+06
1.58383e+06
1.32455e+06
1.15933e+06
1.0358e+06
929383
825598
719550
610375
501915
399797
309754
235713
177866
134236
102633
81091.6
66549.5
56882.9
50329.7
45814.8
42886.7
41520.9
42517.7
50803.6
99687.5
1.13665e+07
6.10967e+06
4.38542e+06
3.10767e+06
2.2396e+06
1.73491e+06
1.45158e+06
1.27267e+06
1.14318e+06
1.03475e+06
928671
819779
706053
589331
475624
371595
282897
211661
156604
117181
89982.6
71646.9
59541.9
51609.5
46389.4
43253.7
41921
43250.2
52116.5
101897
1.19941e+07
6.53216e+06
4.74593e+06
3.39521e+06
2.46505e+06
1.91225e+06
1.60016e+06
1.40252e+06
1.26548e+06
1.15291e+06
1.04306e+06
930687
812264
687890
563079
444843
340445
253734
186258
137273
102540
78963.5
63475.4
53604.5
47336.8
43797.9
42403.5
44046
53508.9
104516
1.26587e+07
6.97646e+06
5.13364e+06
3.71454e+06
2.7264e+06
2.11961e+06
1.77127e+06
1.55096e+06
1.40334e+06
1.28282e+06
1.16634e+06
1.04896e+06
925630
794135
659630
528715
409166
306722
225724
164358
119788
89234.1
69147
56479.2
48721.5
44520.5
43023.2
44936.9
54966.6
107690
1.32898e+07
7.43624e+06
5.54903e+06
4.0742e+06
3.02786e+06
2.36252e+06
1.97073e+06
1.7221e+06
1.5581e+06
1.42496e+06
1.29953e+06
1.17575e+06
1.04717e+06
909185
766950
625546
492227
374425
277235
200258
143074
103416
77226.3
60636.5
50781.3
45576.4
43837.9
45947.7
56508.1
111116
1.38998e+07
7.90428e+06
6.00286e+06
4.48259e+06
3.37339e+06
2.64613e+06
2.20434e+06
1.92031e+06
1.73343e+06
1.58354e+06
1.44766e+06
1.31576e+06
1.18125e+06
1.03731e+06
888553
738007
592207
458592
342542
247017
174301
123000
88631.5
66628.2
53744.1
47089
44898.5
47014
58048.8
114135
1.4534e+07
8.40327e+06
6.50626e+06
4.94179e+06
3.7673e+06
2.97305e+06
2.47506e+06
2.15018e+06
1.93463e+06
1.76289e+06
1.61351e+06
1.47093e+06
1.32911e+06
1.17931e+06
1.0246e+06
865910
708631
558891
422974
306996
216058
150021
104458
75141.3
58036.6
49261.5
46114.4
47961
59465.2
117679
1.5279e+07
8.94467e+06
7.05433e+06
5.44597e+06
4.21031e+06
3.34545e+06
2.78704e+06
2.41816e+06
2.16714e+06
1.96657e+06
1.7996e+06
1.64295e+06
1.49123e+06
1.33473e+06
1.17418e+06
1.0079e+06
839833
674716
519367
382522
270693
185674
125973
87040.9
64019
52114.2
47478.9
49080.2
60988.3
121783
1.60441e+07
9.50876e+06
7.62426e+06
5.98777e+06
4.70262e+06
3.76731e+06
3.14622e+06
2.73037e+06
2.43774e+06
2.19932e+06
2.00691e+06
1.83227e+06
1.66772e+06
1.50346e+06
1.33559e+06
1.1614e+06
983554
805100
632112
474242
339242
232057
154584
103202
72042.1
55660.8
49084
50295.8
62710.1
125756
1.67507e+07
1.0065e+07
8.19907e+06
6.56322e+06
5.24376e+06
4.24257e+06
3.55947e+06
3.09522e+06
2.75269e+06
2.46556e+06
2.23833e+06
2.04154e+06
1.86085e+06
1.68632e+06
1.50966e+06
1.32658e+06
1.13929e+06
949088
761158
582708
422883
291290
192426
124926
83031.1
60460.9
51053
51300.1
64094.6
129294
1.7348e+07
1.06215e+07
8.77604e+06
7.16798e+06
5.83236e+06
4.77558e+06
4.03544e+06
3.5225e+06
3.11821e+06
2.76955e+06
2.50007e+06
2.27741e+06
2.07749e+06
1.88813e+06
1.69828e+06
1.50454e+06
1.3079e+06
1.1063e+06
904833
707435
524052
365951
241974
154392
98305.8
67269.5
53739.8
52417.2
65224.7
132660
1.79123e+07
1.11574e+07
9.35921e+06
7.79387e+06
6.46511e+06
5.3705e+06
4.58392e+06
4.02108e+06
3.54056e+06
3.12078e+06
2.80505e+06
2.55099e+06
2.32518e+06
2.1138e+06
1.90481e+06
1.69784e+06
1.48906e+06
1.27588e+06
1.0603e+06
845946
641328
456878
305111
193073
118845
76513.5
57372.7
53777.4
66157
135860
1.84081e+07
1.16628e+07
9.95085e+06
8.44606e+06
7.14003e+06
6.03399e+06
5.21772e+06
4.59935e+06
4.02755e+06
3.53651e+06
3.17066e+06
2.87279e+06
2.61121e+06
2.36945e+06
2.13489e+06
1.90987e+06
1.68495e+06
1.45721e+06
1.22677e+06
995666
771126
562063
381918
242348
146113
89104.6
62268.9
55485.6
67169.5
138951
1.89673e+07
1.20875e+07
1.05242e+07
9.10739e+06
7.85206e+06
6.76735e+06
5.94179e+06
5.26156e+06
4.5988e+06
4.03231e+06
3.60673e+06
3.25403e+06
2.94466e+06
2.66267e+06
2.39462e+06
2.14449e+06
1.89823e+06
1.65208e+06
1.40454e+06
1.1564e+06
911873
679851
471932
303090
181246
105711
68679.3
57566.2
68242.6
141926
1.92512e+07
1.24788e+07
1.10329e+07
9.76399e+06
8.59546e+06
7.57009e+06
6.76238e+06
6.02454e+06
5.27371e+06
4.62566e+06
4.12603e+06
3.70737e+06
3.33721e+06
3.00215e+06
2.69187e+06
2.40788e+06
2.13353e+06
1.86367e+06
1.59532e+06
1.32798e+06
1.06374e+06
809635
575108
376195
225365
127326
77060.3
60153.7
69264.5
144781
1.95449e+07
1.27507e+07
1.14567e+07
1.0364e+07
9.34864e+06
8.44116e+06
7.6859e+06
6.9065e+06
6.0692e+06
5.33505e+06
4.74785e+06
4.24828e+06
3.80273e+06
3.39948e+06
3.03568e+06
2.70764e+06
2.39664e+06
2.09611e+06
1.80167e+06
1.51172e+06
1.22646e+06
949822
690306
461751
279964
155411
88270.8
63551.6
70329.6
147471
1.96371e+07
1.3016e+07
1.17674e+07
1.08759e+07
1.01063e+07
9.38013e+06
8.72144e+06
7.92928e+06
7.01067e+06
6.17658e+06
5.49065e+06
4.89617e+06
4.35802e+06
3.86889e+06
3.43749e+06
3.05369e+06
2.69563e+06
2.35585e+06
2.02834e+06
1.7106e+06
1.40051e+06
1.10019e+06
814956
558517
345979
191465
103376
68205.8
71652.1
150050
1.97747e+07
1.31097e+07
1.19597e+07
1.127e+07
1.08271e+07
1.03853e+07
9.8852e+06
9.11461e+06
8.12942e+06
7.1842e+06
6.37813e+06
5.66855e+06
5.02059e+06
4.42718e+06
3.91174e+06
3.45776e+06
3.0401e+06
2.65034e+06
2.28074e+06
1.92766e+06
1.5868e+06
1.25848e+06
946281
664438
422391
236314
123342
74502.2
73260.4
152573
1.97732e+07
1.32536e+07
1.20388e+07
1.15686e+07
1.15393e+07
1.14803e+07
1.12002e+07
1.04937e+07
9.454e+06
8.38701e+06
7.44163e+06
6.59282e+06
5.80854e+06
5.09263e+06
4.47457e+06
3.93218e+06
3.43982e+06
2.98665e+06
2.56356e+06
2.16549e+06
1.78658e+06
1.42586e+06
1.08681e+06
779377
507998
290418
149155
82996.7
75339.8
155249
1.99738e+07
1.33165e+07
1.20661e+07
1.18499e+07
1.23086e+07
1.27083e+07
1.27023e+07
1.21035e+07
1.10245e+07
9.82419e+06
8.71369e+06
7.69456e+06
6.74918e+06
5.88699e+06
5.14149e+06
4.49029e+06
3.90415e+06
3.37125e+06
2.88153e+06
2.42861e+06
2.00611e+06
1.61114e+06
1.2445e+06
907222
605013
355327
182540
94740.3
78148.4
157608
1.95087e+07
1.40298e+07
1.26045e+07
1.24889e+07
1.33672e+07
1.41688e+07
1.44567e+07
1.39955e+07
1.28899e+07
1.15434e+07
1.02377e+07
9.01134e+06
7.87035e+06
6.83235e+06
5.93e+06
5.14638e+06
4.44417e+06
3.8131e+06
3.24359e+06
2.7275e+06
2.25656e+06
1.82379e+06
1.42384e+06
1.05314e+06
717484
433143
225104
110825
82594.6
160263
1.81544e+07
1.95488e+07
1.61564e+07
1.45845e+07
1.52516e+07
1.61057e+07
1.65928e+07
1.6249e+07
1.51149e+07
1.36034e+07
1.20655e+07
1.05882e+07
9.20787e+06
7.95426e+06
6.86079e+06
5.91492e+06
5.07185e+06
4.32266e+06
3.66023e+06
3.07169e+06
2.54405e+06
2.06483e+06
1.62383e+06
1.21674e+06
846785
525638
278293
132045
88652.2
163351
94379.1
46980.6
40700.9
40785.4
42751.4
45630.2
49474.9
53787.7
59792.5
68177
79463.2
95582.9
117970
148970
189136
241531
308307
389841
483002
581204
682311
789824
912263
1.06611e+06
1.29872e+06
1.71361e+06
2.45573e+06
3.56332e+06
5.12722e+06
9.10134e+06
95721.8
47823.2
41061.6
40877.1
42694.6
45543.3
49405.4
54236.6
61029.3
70715.7
84384.1
104556
132129
170205
219463
282163
358974
448273
545807
645657
746784
853611
976653
1.13545e+06
1.37686e+06
1.80222e+06
2.56644e+06
3.71913e+06
5.38607e+06
1.00981e+07
97242.2
48854.5
41593.3
41085
42698.5
45535
49536.2
55144.1
62913.9
74356.7
91213.5
116126
150407
197062
256988
331065
418422
515693
617692
719468
821223
927180
1.04954e+06
1.21194e+06
1.46236e+06
1.90353e+06
2.68534e+06
3.86809e+06
5.47893e+06
1.03783e+07
99115.5
50121.2
42257.2
41414
42889.8
45822.2
50096.4
56678.9
66080.6
80054.4
101202
132123
175569
232877
306083
393744
493100
598726
705189
808853
911173
1.01748e+06
1.14194e+06
1.31349e+06
1.58308e+06
2.0557e+06
2.87924e+06
4.12231e+06
5.7987e+06
1.08444e+07
100820
51400.3
42945.6
41819.5
43195.1
46278.7
51120.6
58850.1
70469.6
88280.8
114868
152882
207037
277796
365746
468380
580367
694739
806035
912303
1.01652e+06
1.12405e+06
1.25306e+06
1.43828e+06
1.7335e+06
2.24863e+06
3.12979e+06
4.4396e+06
6.19e+06
1.14516e+07
103042
52625.9
43634.5
42282
43653.1
47009.6
52752.3
62217
77031.2
99858.9
133488
180783
246429
332162
435200
552145
675482
798203
914923
1.0252e+06
1.13412e+06
1.24579e+06
1.38106e+06
1.58458e+06
1.90916e+06
2.47232e+06
3.41531e+06
4.79949e+06
6.61535e+06
1.2107e+07
105699
53912.5
44400.4
42833.2
44310.5
48268.2
55220.2
67043.4
86152.4
115640
158805
218436
297565
398555
516635
646447
779680
909865
1.03231e+06
1.14777e+06
1.26364e+06
1.38274e+06
1.52844e+06
1.75359e+06
2.11409e+06
2.73133e+06
3.732e+06
5.18543e+06
7.0635e+06
1.27907e+07
108649
55329.5
45296.7
43545.2
45274.2
50106.7
58940.1
74085.5
98855.9
137087
192389
267577
363254
479921
612534
753793
895774
1.0326e+06
1.1608e+06
1.28257e+06
1.40723e+06
1.53759e+06
1.69856e+06
1.95042e+06
2.35531e+06
3.03199e+06
4.09234e+06
5.6022e+06
7.53156e+06
1.34583e+07
112076
56912.6
46322.4
44453
46607.2
52687.7
64156
84136.8
116256
165534
235769
329457
444269
577267
723430
875118
1.02505e+06
1.16826e+06
1.30266e+06
1.43202e+06
1.56682e+06
1.7135e+06
1.89408e+06
2.18032e+06
2.63593e+06
3.37703e+06
4.50031e+06
6.05494e+06
8.00553e+06
1.40839e+07
115888
58677.5
47502.1
45585.6
48378.1
56229.3
71360.7
97874.1
140197
203646
291409
405112
540372
689830
848230
1.00906e+06
1.16626e+06
1.31636e+06
1.45839e+06
1.59796e+06
1.74528e+06
1.91273e+06
2.12003e+06
2.44689e+06
2.96004e+06
3.76996e+06
4.96108e+06
6.55774e+06
8.50666e+06
1.47116e+07
120063
60583.8
48954.9
47001.7
50728.6
61064.6
81267.3
116345
171800
253007
361542
495854
650540
815728
985254
1.15402e+06
1.3179e+06
1.47589e+06
1.62795e+06
1.78151e+06
1.94561e+06
2.14027e+06
2.38132e+06
2.75355e+06
3.32797e+06
4.21094e+06
5.4678e+06
7.10841e+06
9.05169e+06
1.54468e+07
124180
62295.6
50203.6
48913.6
53883
67756.7
94845.1
141271
212818
314357
445691
601084
773178
952261
1.13181e+06
1.30881e+06
1.47967e+06
1.64647e+06
1.81191e+06
1.98412e+06
2.1723e+06
2.40367e+06
2.68431e+06
3.10518e+06
3.74307e+06
4.6992e+06
6.01197e+06
7.68321e+06
9.62597e+06
1.62263e+07
127350
63608.8
51306.2
50732.5
58161.1
76983
113397
174354
265808
390768
544894
720384
907587
1.09871e+06
1.2878e+06
1.47379e+06
1.65368e+06
1.83125e+06
2.01359e+06
2.20908e+06
2.43163e+06
2.71007e+06
3.03927e+06
3.51026e+06
4.21147e+06
5.23616e+06
6.59088e+06
8.2696e+06
1.01974e+07
1.69406e+07
131434
65181.8
52472.4
53040.3
63814
89553.6
138393
217584
332345
481916
658946
853181
1.05395e+06
1.25568e+06
1.4542e+06
1.6508e+06
1.8445e+06
2.03724e+06
2.23982e+06
2.46219e+06
2.7273e+06
3.06575e+06
3.45595e+06
3.97712e+06
4.73617e+06
5.81938e+06
7.19723e+06
8.85457e+06
1.07557e+07
1.75875e+07
135007
66399.7
53718.3
56010
71300.5
106405
171342
272653
413502
588627
787111
997976
1.21169e+06
1.42395e+06
1.63425e+06
1.84389e+06
2.05737e+06
2.27266e+06
2.5021e+06
2.7577e+06
3.06848e+06
3.47681e+06
3.94412e+06
4.51622e+06
5.32272e+06
6.44661e+06
7.82554e+06
9.44391e+06
1.12985e+07
1.81979e+07
138342
67289.2
55087.3
59847.5
81367.6
128899
213866
341173
509983
709722
927370
1.15394e+06
1.38132e+06
1.60681e+06
1.83253e+06
2.05992e+06
2.29926e+06
2.54585e+06
2.81149e+06
3.1112e+06
3.47344e+06
3.95356e+06
4.51133e+06
5.13964e+06
5.97834e+06
7.11725e+06
8.47801e+06
1.00427e+07
1.18177e+07
1.8685e+07
141407
67924.3
56660
64821.8
94759.5
158329
267038
422796
619063
841578
1.07751e+06
1.32025e+06
1.5639e+06
1.80729e+06
2.05374e+06
2.30599e+06
2.5786e+06
2.86642e+06
3.17987e+06
3.53489e+06
3.95882e+06
4.51223e+06
5.16075e+06
5.85394e+06
6.70539e+06
7.82702e+06
9.144e+06
1.06294e+07
1.22619e+07
1.92924e+07
144140
68530.9
58527.3
71284.3
112254
195818
331443
516500
738932
983305
1.23869e+06
1.49951e+06
1.76356e+06
2.03051e+06
2.30476e+06
2.59046e+06
2.90471e+06
3.24589e+06
3.62041e+06
4.04339e+06
4.54017e+06
5.17053e+06
5.9104e+06
6.66578e+06
7.50364e+06
8.5703e+06
9.81138e+06
1.11611e+07
1.26748e+07
1.95693e+07
146522
69344.2
60992.5
79925.1
135047
242415
407341
621497
869083
1.13568e+06
1.4123e+06
1.69503e+06
1.98494e+06
2.28269e+06
2.5934e+06
2.92273e+06
3.28893e+06
3.69765e+06
4.14992e+06
4.65151e+06
5.23338e+06
5.95223e+06
6.78061e+06
7.58278e+06
8.37426e+06
9.32772e+06
1.04219e+07
1.15923e+07
1.29581e+07
1.98644e+07
148857
70392.9
64476.2
91688.8
164738
299514
495209
737221
1.01002e+06
1.30105e+06
1.60224e+06
1.91224e+06
2.2347e+06
2.57164e+06
2.92887e+06
3.31345e+06
3.74453e+06
4.23781e+06
4.78367e+06
5.38195e+06
6.06455e+06
6.88139e+06
7.78809e+06
8.61595e+06
9.31806e+06
1.00933e+07
1.09572e+07
1.19305e+07
1.32496e+07
1.99744e+07
151097
71653.2
69284.8
107545
202779
368020
594606
863112
1.1632e+06
1.48128e+06
1.81241e+06
2.15675e+06
2.52016e+06
2.90635e+06
3.32191e+06
3.77536e+06
4.28867e+06
4.88237e+06
5.54224e+06
6.25759e+06
7.05922e+06
7.98464e+06
8.95801e+06
9.78145e+06
1.03356e+07
1.08338e+07
1.13669e+07
1.21429e+07
1.33673e+07
2.01405e+07
153398
73225.7
75931.7
128640
250107
447847
704860
1.00078e+06
1.3288e+06
1.67825e+06
2.04576e+06
2.4331e+06
2.84786e+06
3.29579e+06
3.78404e+06
4.32388e+06
4.93863e+06
5.65382e+06
6.44915e+06
7.30587e+06
8.24632e+06
9.29321e+06
1.03279e+07
1.11051e+07
1.14486e+07
1.15701e+07
1.16961e+07
1.2241e+07
1.35333e+07
2.01521e+07
156027
75569.8
85065.4
156640
308402
540024
828024
1.15468e+06
1.512e+06
1.89611e+06
2.30596e+06
2.74541e+06
3.22355e+06
3.74846e+06
4.3275e+06
4.9746e+06
5.71501e+06
6.57503e+06
7.53483e+06
8.56021e+06
9.66215e+06
1.08461e+07
1.19358e+07
1.26263e+07
1.27035e+07
1.23722e+07
1.20038e+07
1.22923e+07
1.36116e+07
2.03874e+07
158786
79131
97897.9
193272
380022
647821
970227
1.33071e+06
1.72123e+06
2.14385e+06
2.60155e+06
3.10182e+06
3.65602e+06
4.27535e+06
4.96694e+06
5.74361e+06
6.63759e+06
7.67491e+06