/*--------------------------------*- C++ -*----------------------------------*\
| =========                 |                                                 |
| \\      /  F ield         | OpenFOAM: The Open Source CFD Toolbox           |
|  \\    /   O peration     | Version:  2112                                  |
|   \\  /    A nd           | Website:  www.openfoam.com                      |
|    \\/     M anipulation  |                                                 |
\*---------------------------------------------------------------------------*/
FoamFile
{
    version     2.0;
    format      ascii;
    arch        "LSB;label=32;scalar=64";
    class       volScalarField;
    location    "0.01029";
    object      nut;
}
// * * * * * * * * * * * * * * * * * * * * * * * * * * * * * * * * * * * * * //

dimensions      [0 2 -1 0 0 0 0];

internalField   nonuniform List<scalar> 
13875
(
0.0511675
0.0366255
0.034366
0.0343295
0.034298
0.0343368
0.0342953
0.0342839
0.0342958
0.0342877
0.0342884
0.0342973
0.034324
0.0343419
0.0343304
0.034293
0.0342674
0.0342898
0.0343025
0.0343264
0.0343038
0.0343343
0.0343819
0.0365713
0.0514284
0.0532618
0.0341199
0.0322225
0.0321068
0.0320631
0.0320832
0.0320455
0.0320363
0.032045
0.0320257
0.0320241
0.0320495
0.032055
0.0320726
0.0320604
0.0320468
0.0320035
0.0320346
0.032046
0.0320757
0.0320636
0.0321024
0.0322285
0.0340565
0.0536369
0.0564568
0.0335617
0.0318032
0.0315933
0.0315708
0.0315772
0.0314863
0.0314568
0.031459
0.0314384
0.0314289
0.0314618
0.0315309
0.0315559
0.0315347
0.0314645
0.0314079
0.0314453
0.0314781
0.0315674
0.0315644
0.0315803
0.0317949
0.0334951
0.0565935
0.0590705
0.0332327
0.0314899
0.0312774
0.0312646
0.0312635
0.0311579
0.0311142
0.031114
0.0311016
0.0310886
0.0311114
0.0312139
0.03124
0.0312183
0.0311167
0.0310728
0.0311026
0.0311465
0.0312537
0.0312553
0.0312626
0.0314853
0.0331685
0.0591429
0.0611258
0.033004
0.0312469
0.0310041
0.0309883
0.0309827
0.0308683
0.030821
0.0308261
0.0308165
0.0308016
0.0308207
0.030925
0.0309545
0.0309298
0.0308271
0.0307863
0.0308148
0.0308594
0.0309685
0.0309767
0.0309899
0.0312305
0.0329183
0.061257
0.0628184
0.0328482
0.0310901
0.0307728
0.0307567
0.0307348
0.0306055
0.0305555
0.0305643
0.0305569
0.0305395
0.0305553
0.0306621
0.0306947
0.0306677
0.0305625
0.0305259
0.0305534
0.0305999
0.0307198
0.0307436
0.0307613
0.0310591
0.0328219
0.0629745
0.0648267
0.0330731
0.0311047
0.0306342
0.0305729
0.0305281
0.0303761
0.0303184
0.0303284
0.0303233
0.0303029
0.0303158
0.0304255
0.0304586
0.0304285
0.0303218
0.0302929
0.0303205
0.0303762
0.030512
0.03056
0.0306333
0.0311134
0.0330701
0.0648698
0.0670931
0.0339364
0.0314256
0.0306516
0.030489
0.0303763
0.0301907
0.0301164
0.0301229
0.0301183
0.0300952
0.0301015
0.0302155
0.0302517
0.0302188
0.0301077
0.0300889
0.0301205
0.0301898
0.0303572
0.0304673
0.0306299
0.0313925
0.0338958
0.067363
0.0736444
0.0362958
0.032041
0.0308462
0.0304777
0.0302827
0.0300467
0.0299523
0.029956
0.0299507
0.0299253
0.0299246
0.0300431
0.0300828
0.030049
0.0299344
0.0299226
0.0299579
0.0300444
0.0302599
0.0304504
0.0308023
0.0319354
0.0359992
0.0741926
0.0828975
0.0384702
0.0327358
0.0311898
0.0305821
0.0302402
0.0299697
0.02987
0.0298621
0.029851
0.0298257
0.029821
0.0299382
0.0299816
0.0299495
0.0298457
0.029832
0.0298726
0.0299657
0.0302206
0.0305506
0.031081
0.0326232
0.0381045
0.0835453
0.0907129
0.0441334
0.034648
0.0319953
0.0308176
0.0303511
0.0300349
0.0299057
0.029874
0.0298512
0.0298236
0.0298165
0.0299266
0.0299725
0.0299504
0.0298715
0.0298554
0.0299028
0.0300354
0.0303044
0.0307949
0.0318818
0.0343624
0.0432634
0.0893459
0.0950482
0.0545203
0.0403637
0.0334469
0.0318691
0.0308291
0.0303262
0.0301356
0.0300621
0.0300221
0.0299907
0.0299856
0.0300783
0.0301265
0.03012
0.0300721
0.0300635
0.0301358
0.0303212
0.0308366
0.0318003
0.0332284
0.0398461
0.0533626
0.0942562
0.0865872
0.0688144
0.0515484
0.0417522
0.0343719
0.0319217
0.0312826
0.030826
0.0306407
0.0305497
0.0305002
0.0304905
0.0305604
0.0306074
0.030624
0.0306225
0.0306764
0.03087
0.0313307
0.0320044
0.0347647
0.0415755
0.0509376
0.0687684
0.0866006
0.0795798
0.0659679
0.0581171
0.0656928
0.041691
0.0372256
0.0336678
0.0324318
0.0320362
0.0319702
0.0319293
0.0319207
0.0319824
0.032026
0.0320558
0.0320867
0.0321406
0.0325348
0.0340792
0.0382583
0.0432077
0.0657073
0.0578284
0.0661733
0.0816099
0.0753017
0.0642874
0.0565691
0.0606525
0.0560693
0.0540874
0.0444519
0.0388235
0.0367435
0.035889
0.0355002
0.0353741
0.0353953
0.0354507
0.0355604
0.03586
0.036662
0.0388981
0.0451641
0.0552229
0.0557422
0.0612503
0.0565995
0.0641543
0.0746634
0.067146
0.0618388
0.054316
0.0573212
0.0560082
0.0572143
0.0545492
0.053056
0.0508234
0.0483737
0.047476
0.047138
0.0470515
0.0471311
0.0472908
0.0477793
0.0503969
0.0542909
0.0554564
0.0577225
0.0556168
0.0580128
0.0543136
0.0614975
0.0664807
0.0623913
0.0582038
0.052489
0.0550939
0.0568031
0.0611745
0.0680752
0.0729243
0.0700334
0.0707593
0.073008
0.074492
0.0752637
0.0749315
0.0733821
0.072544
0.0699598
0.0728012
0.0686749
0.0612194
0.0563033
0.0553069
0.0519696
0.057579
0.062439
0.0569963
0.054696
0.0531236
0.0569372
0.0599331
0.0629625
0.0708833
0.0791837
0.0743301
0.0703968
0.0692315
0.0693923
0.0699043
0.0696181
0.0697325
0.0725953
0.073868
0.0767129
0.0708726
0.0641914
0.0609304
0.0576603
0.0528419
0.0542701
0.0567921
0.0513762
0.0541873
0.0559388
0.0619147
0.066917
0.0647374
0.0673649
0.0752439
0.0742926
0.0704778
0.0686864
0.068296
0.0684232
0.0688858
0.0698104
0.0716933
0.0728288
0.0731257
0.067742
0.0667068
0.0697043
0.0630778
0.056291
0.0544253
0.0521618
0.0493952
0.0574142
0.0604327
0.0658168
0.0686544
0.0644433
0.063908
0.0695939
0.0718248
0.0704135
0.0687124
0.0671932
0.0664792
0.0680444
0.0699925
0.0709096
0.0699016
0.067832
0.0645589
0.066551
0.0707731
0.0664882
0.0609096
0.0576691
0.048794
0.077531
0.0888912
0.0775189
0.065307
0.0649655
0.0614749
0.0606918
0.0656063
0.0693409
0.0694203
0.067633
0.0651979
0.0640453
0.0663441
0.0689963
0.069472
0.0672229
0.0641142
0.0614729
0.0634879
0.0667997
0.0669342
0.0799294
0.0919163
0.0824474
0.128498
0.161794
0.0901978
0.0620219
0.0608374
0.0584637
0.0580358
0.062622
0.0669179
0.0677555
0.0658899
0.062826
0.0613857
0.0640973
0.0672361
0.0675588
0.0647573
0.061396
0.0587356
0.0602355
0.0623513
0.0638035
0.0931037
0.165334
0.134645
0.153008
0.146296
0.0842768
0.0591559
0.0574691
0.0558899
0.0556707
0.0601808
0.0646177
0.0657273
0.0636952
0.0603145
0.0586789
0.0615124
0.065
0.0654807
0.0624699
0.05911
0.0562474
0.0573139
0.058703
0.0607021
0.083843
0.144131
0.153421
0.161556
0.146395
0.0767862
0.0569651
0.0546598
0.0535666
0.0536353
0.0579516
0.0623859
0.0635441
0.0612925
0.0577126
0.0561055
0.0589905
0.0627012
0.0633929
0.0602299
0.0568602
0.0541729
0.0548399
0.055894
0.058573
0.0777078
0.150751
0.160689
0.167308
0.147336
0.0727102
0.0553889
0.0525926
0.0516099
0.0519853
0.0559799
0.0602081
0.0612745
0.0589357
0.0553067
0.0537185
0.0565817
0.0604174
0.061222
0.0581517
0.054854
0.0523775
0.0527317
0.0538565
0.057033
0.074476
0.154817
0.167442
0.174436
0.151334
0.0699786
0.0539107
0.0509884
0.0499605
0.0506395
0.0542533
0.0581359
0.0590629
0.0567251
0.0530944
0.0515261
0.0542876
0.0581143
0.0590353
0.0562356
0.0530942
0.0507949
0.0508294
0.052175
0.0553607
0.0715641
0.157496
0.177102
0.183969
0.147699
0.0668062
0.0525014
0.049755
0.0486218
0.0495058
0.0527326
0.0561271
0.0567726
0.0544848
0.0510324
0.0495407
0.0522562
0.056007
0.0569674
0.0544896
0.0515559
0.0494277
0.0493097
0.0509365
0.0540295
0.0691011
0.156108
0.184362
0.190084
0.14683
0.0649329
0.0514368
0.0488082
0.0475812
0.0485111
0.0513649
0.0543004
0.0547249
0.0525048
0.0491864
0.0477403
0.0503328
0.0539438
0.0549864
0.0528941
0.0502245
0.0482789
0.0481091
0.0498302
0.052818
0.0673287
0.156649
0.191995
0.1954
0.148366
0.0637827
0.0505681
0.0480282
0.0468398
0.0476462
0.050124
0.0526089
0.0528027
0.0506937
0.0475363
0.046106
0.0485566
0.0519537
0.0530404
0.0513874
0.0490293
0.047279
0.0471372
0.048835
0.0517633
0.0655105
0.152249
0.19958
0.202322
0.145552
0.0628087
0.0498591
0.0472533
0.0462482
0.0469838
0.0490172
0.0509831
0.0509229
0.048901
0.0459636
0.0446298
0.0470195
0.0502838
0.0513706
0.0500238
0.0479636
0.0464589
0.0463697
0.0479221
0.0509964
0.0647764
0.151813
0.203641
0.204462
0.141719
0.0622704
0.0494448
0.0465687
0.0456843
0.0463614
0.0480021
0.0495286
0.0492649
0.0473628
0.0445924
0.0432898
0.0455634
0.0486272
0.0497223
0.0487531
0.0470402
0.0457952
0.0456907
0.047029
0.0503714
0.0637363
0.146335
0.209262
0.206856
0.141333
0.0621669
0.049326
0.0459494
0.0451146
0.0457738
0.0470989
0.0482389
0.0478164
0.0459895
0.0433397
0.0420867
0.0442212
0.0471447
0.0482799
0.047603
0.0462098
0.0451653
0.0450169
0.0462492
0.0500252
0.0630396
0.142309
0.211713
0.210871
0.137007
0.0618661
0.0493863
0.0454743
0.0446419
0.0451743
0.0462419
0.0469734
0.0463872
0.0446569
0.0421858
0.0409977
0.0430718
0.0458521
0.0469696
0.0465396
0.0454483
0.0445349
0.0444326
0.0456611
0.0499401
0.0629894
0.142143
0.21328
0.211886
0.134732
0.0617436
0.0496858
0.0451732
0.0442014
0.0445362
0.0454458
0.0458636
0.0451694
0.0435127
0.0411468
0.0400148
0.0419571
0.0446253
0.045768
0.0455539
0.044748
0.0439185
0.0439068
0.045236
0.0500463
0.0630568
0.138961
0.215455
0.212878
0.134535
0.0614609
0.0500669
0.0452108
0.0437975
0.0439443
0.0446611
0.0448414
0.0440395
0.0424663
0.0402198
0.0391243
0.0409671
0.0434915
0.0446406
0.0446321
0.0440465
0.0433478
0.0435108
0.0451311
0.0503505
0.0627126
0.136652
0.216344
0.214947
0.132733
0.0610752
0.0504498
0.045455
0.0434853
0.0433918
0.0438848
0.0438743
0.0430032
0.0414718
0.0393317
0.0383149
0.0400785
0.042538
0.0436814
0.0437864
0.0433447
0.0428259
0.0431516
0.045332
0.0508158
0.0625283
0.136545
0.217179
0.215283
0.132843
0.0609132
0.0512521
0.0459162
0.0433014
0.0429047
0.0431532
0.0429677
0.0420637
0.0405966
0.0385598
0.0375777
0.0392516
0.0415887
0.0427334
0.0429607
0.0426933
0.0423509
0.0429108
0.0457104
0.0515159
0.0620442
0.134662
0.218875
0.215411
0.135211
0.0607878
0.0520322
0.0465514
0.0433404
0.0424462
0.0424703
0.0421362
0.0412292
0.0398149
0.0378348
0.0369043
0.0384844
0.0407574
0.0418905
0.0421769
0.0420863
0.0419049
0.0429089
0.0463351
0.0522851
0.0615441
0.135396
0.219381
0.215928
0.135
0.0602383
0.0522453
0.047408
0.0435923
0.0421128
0.0418553
0.04134
0.0404044
0.0390432
0.03717
0.0362942
0.0378207
0.0400061
0.0411103
0.0414688
0.0415435
0.041565
0.0430969
0.0471956
0.0526253
0.0611577
0.138929
0.219304
0.215156
0.136982
0.0596984
0.0522408
0.0484935
0.044023
0.0419368
0.0413239
0.040643
0.0396939
0.0383825
0.0365637
0.0357289
0.037165
0.0393001
0.0403853
0.0408048
0.0410836
0.0414182
0.043507
0.0481149
0.0525253
0.060773
0.14142
0.219118
0.214681
0.13966
0.059488
0.0521293
0.0499238
0.0446855
0.0419619
0.0409388
0.0400344
0.0390352
0.0377599
0.0360118
0.0352115
0.0365728
0.0386215
0.0397136
0.040233
0.0407476
0.0414917
0.0441235
0.049719
0.0524665
0.0605613
0.144199
0.217934
0.214818
0.141583
0.0592154
0.0517038
0.0505965
0.0455179
0.0421225
0.0407588
0.0395334
0.0384385
0.0371765
0.0354781
0.0347283
0.0360373
0.0380584
0.0391412
0.0397697
0.0405739
0.0416669
0.045073
0.0508649
0.0523416
0.0612231
0.146571
0.216679
0.214067
0.143957
0.0592492
0.0511638
0.0505855
0.0468412
0.0425093
0.0407381
0.039183
0.0379269
0.0366561
0.0350041
0.0342828
0.0355281
0.0374864
0.0386051
0.0394118
0.0405809
0.0420457
0.0462844
0.0509411
0.0518324
0.0609401
0.148251
0.216349
0.213544
0.146386
0.0603452
0.0506672
0.0502155
0.0485892
0.0432279
0.0408051
0.0390215
0.037548
0.0362116
0.0345611
0.0338675
0.0350553
0.0369835
0.0381753
0.0392205
0.040704
0.0428023
0.0482681
0.0506677
0.0512908
0.0613535
0.150411
0.215658
0.213338
0.148539
0.0603436
0.0501359
0.0496138
0.0495136
0.0445169
0.0410704
0.038963
0.0372963
0.0358274
0.0341684
0.033497
0.0346554
0.0365985
0.0378918
0.0391724
0.0410053
0.0442469
0.0495131
0.0501695
0.0509317
0.0627342
0.152713
0.215204
0.212423
0.150564
0.0615253
0.0498414
0.04894
0.0492007
0.0466978
0.0417784
0.0390469
0.0372201
0.0356007
0.0338765
0.0331866
0.0343276
0.0363252
0.037775
0.0392206
0.0416537
0.0463516
0.0493327
0.0495194
0.0505146
0.0634221
0.15461
0.21485
0.211356
0.152595
0.0631158
0.0497721
0.0483588
0.0487067
0.047957
0.0434146
0.0392933
0.0371896
0.0355106
0.033709
0.0329246
0.0341288
0.0361916
0.0377426
0.0394216
0.0432114
0.0479385
0.0488785
0.0488854
0.0503088
0.0643164
0.156292
0.213817
0.209362
0.153843
0.0637907
0.049661
0.0478723
0.048068
0.0476985
0.0456995
0.0400967
0.0372486
0.0354806
0.0336455
0.0327946
0.0340544
0.0361588
0.0378123
0.0402022
0.045626
0.0479312
0.0482376
0.0483821
0.0503939
0.0659041
0.157514
0.211484
0.205895
0.153985
0.0647412
0.049733
0.0474784
0.0473449
0.0472595
0.0472592
0.0418736
0.0375586
0.035534
0.0336438
0.0327864
0.0340387
0.036178
0.03807
0.0418755
0.0474894
0.0475179
0.0474875
0.0479151
0.0504022
0.0664669
0.157681
0.208103
0.196919
0.150708
0.0655166
0.0498325
0.0471835
0.0467508
0.0467179
0.047096
0.0444949
0.0386811
0.0357531
0.0336908
0.0328048
0.0340677
0.0363351
0.0390554
0.0445455
0.0475576
0.0469754
0.0468548
0.0475323
0.050372
0.0667641
0.154486
0.199191
0.38864
1.58719
2.1802
2.20699
2.02614
1.82132
1.64278
1.48858
1.34443
1.20654
1.07097
0.938278
0.812003
0.698409
0.60071
0.52084
0.457888
0.409123
0.370453
0.340508
0.315943
0.294778
0.275526
0.256545
0.236447
0.213923
0.18749
0.155842
0.120936
0.100788
0.373438
1.67609
2.25507
2.25164
2.06417
1.86311
1.68988
1.54044
1.40223
1.2697
1.13817
1.0072
0.878955
0.759048
0.651698
0.560452
0.486259
0.427644
0.381536
0.346242
0.318279
0.295019
0.274464
0.254608
0.233902
0.211028
0.184449
0.153003
0.119192
0.0999146
0.400434
1.83533
2.33109
2.3066
2.11631
1.9177
1.7494
1.60552
1.47414
1.34679
1.2187
1.0889
0.958387
0.831861
0.714196
0.610235
0.523217
0.452865
0.397539
0.355183
0.322531
0.296478
0.274143
0.253124
0.231603
0.20828
0.181579
0.150387
0.117717
0.0991679
0.420244
1.92111
2.41047
2.38341
2.19222
1.99336
1.8273
1.68775
1.56133
1.43857
1.31374
1.18507
1.05275
0.920143
0.792136
0.674761
0.57304
0.488822
0.421522
0.369516
0.330562
0.300363
0.275463
0.252777
0.230176
0.206218
0.179296
0.148335
0.116641
0.0987229
0.427137
1.99273
2.50047
2.47698
2.28469
2.08421
1.91922
1.78266
1.66073
1.54262
1.42082
1.29342
1.15981
1.02195
0.884556
0.753989
0.636555
0.536183
0.453735
0.390468
0.343132
0.307278
0.278701
0.253771
0.229702
0.204902
0.177524
0.146758
0.115878
0.0984724
0.433675
2.07205
2.59996
2.58029
2.38715
2.1848
2.02039
1.88574
1.76852
1.65469
1.53569
1.40969
1.27532
1.13346
0.988144
0.84547
0.712564
0.594784
0.496611
0.420058
0.361722
0.318003
0.284298
0.256319
0.230271
0.204277
0.176242
0.14559
0.115374
0.09837
0.441725
2.1575
2.70515
2.69103
2.49917
2.29465
2.12935
1.99624
1.88343
1.7729
1.65597
1.53118
1.39651
1.25171
1.10031
0.947747
0.801041
0.666969
0.55268
0.459973
0.387757
0.333685
0.29302
0.260704
0.232033
0.2044
0.175564
0.144846
0.115084
0.0984586
0.450735
2.2455
2.81566
2.80985
2.6206
2.41398
2.2468
2.11442
2.00462
1.89625
1.78112
1.65759
1.52319
1.3766
1.22129
1.06158
0.903658
0.75513
0.62348
0.512008
0.42296
0.355761
0.305955
0.267625
0.235457
0.205617
0.175626
0.144535
0.114925
0.0986448
0.459382
2.33227
2.93086
2.93685
2.75075
2.54253
2.37294
2.24026
2.13212
2.02554
1.91279
1.7908
1.65732
1.51017
1.35271
1.18796
1.02125
0.859553
0.709796
0.577945
0.469543
0.386319
0.324523
0.277986
0.240951
0.208194
0.176531
0.144566
0.114832
0.098757
0.467513
2.41827
3.05066
3.0708
2.88861
2.67866
2.5063
2.3731
2.26614
2.16094
2.05085
1.93061
1.79861
1.65204
1.49373
1.32554
1.15196
0.978389
0.811493
0.65932
0.530045
0.427798
0.350275
0.292853
0.249234
0.212527
0.178214
0.144735
0.114768
0.0990783
0.475881
2.50514
3.17322
3.20914
3.03205
2.82038
2.64549
2.51246
2.40614
2.30171
2.19439
2.07614
1.94596
1.80082
1.64272
1.47233
1.29334
1.10981
0.927902
0.757058
0.606094
0.481317
0.384871
0.313525
0.260893
0.218738
0.180807
0.145469
0.114839
0.0995756
0.483717
2.5905
3.29514
3.34895
3.17884
2.96605
2.78936
2.65724
2.55162
2.44702
2.3414
2.2256
2.09767
1.95487
1.79743
1.62578
1.44288
1.25187
1.05784
0.870015
0.697599
0.548565
0.429913
0.341221
0.276475
0.22693
0.184562
0.146837
0.115116
0.100043
0.490621
2.67397
3.4141
3.48824
3.32676
3.11415
2.93689
2.80679
2.70138
2.59556
2.49039
2.37757
2.25263
2.11295
1.95711
1.78502
1.59948
1.40298
1.2
0.997229
0.803836
0.630756
0.487502
0.37764
0.297408
0.238042
0.189793
0.14861
0.11542
0.100419
0.496042
2.75512
3.52909
3.62477
3.47361
3.26322
3.08723
2.96039
2.85404
2.74558
2.64087
2.53225
2.41168
2.27553
2.12129
1.94943
1.76264
1.56208
1.35215
1.13719
0.925807
0.729174
0.55959
0.425267
0.325558
0.253299
0.197163
0.151273
0.115854
0.100784
0.501461
2.83109
3.63917
3.75613
3.61709
3.41166
3.23944
3.1168
3.00814
2.89702
2.79465
2.69135
2.57557
2.44268
2.28984
2.1189
1.93107
1.72761
1.51153
1.28698
1.06099
0.843185
0.64714
0.485346
0.36213
0.273359
0.207108
0.155011
0.116441
0.101133
0.50576
2.89755
3.74215
3.88102
3.75493
3.55801
3.39277
3.27427
3.16244
3.05196
2.95449
2.85575
2.74439
2.61457
2.46325
2.29348
2.10467
1.89829
1.67685
1.44387
1.2055
0.969616
0.748988
0.558781
0.408805
0.299489
0.220208
0.160062
0.117346
0.101486
0.510702
2.95434
3.83456
3.99557
3.88421
3.69956
3.54462
3.43019
3.31831
3.21129
3.11961
3.0256
2.91815
2.79127
2.64161
2.47286
2.28307
2.0738
1.84731
1.60685
1.3572
1.10577
0.863176
0.645343
0.466407
0.332451
0.236918
0.166684
0.118692
0.101838
0.513281
2.99979
3.91044
4.09556
4.00146
3.83295
3.69214
3.58378
3.47609
3.37532
3.2894
3.20071
3.09716
2.97285
2.82532
2.65741
2.46658
2.25434
2.02285
1.77516
1.51547
1.25032
0.988344
0.744504
0.53538
0.373264
0.257886
0.175278
0.120573
0.102191
0.515747
3.02923
3.96654
4.17397
4.10082
3.9541
3.83208
3.73392
3.63423
3.54299
3.46395
3.3811
3.2818
3.15978
3.01466
2.84754
2.65557
2.44015
2.20349
1.94862
1.67949
1.40155
1.12263
0.855132
0.616317
0.42336
0.284219
0.186362
0.12308
0.102534
0.51665
3.04609
3.99477
4.22223
4.17693
4.05838
3.96087
3.87915
3.79183
3.71169
3.64212
3.56698
3.47242
3.35272
3.21017
3.04401
2.85079
2.632
2.38987
2.12757
1.84877
1.55864
1.26357
0.975262
0.709128
0.483972
0.317184
0.200642
0.126403
0.102882
0.517977
3.04127
3.99009
4.23113
4.22001
4.13971
4.07463
4.01613
3.94764
3.88169
3.82283
3.75672
3.66875
3.55232
3.4128
3.24772
3.05322
2.83078
2.58271
2.31227
2.02292
1.71976
1.4089
1.10257
0.811904
0.555336
0.357939
0.218972
0.130789
0.103254
0.518044
3.01814
3.93862
4.18917
4.22245
4.19221
4.16862
4.14148
4.09796
4.05026
4.00512
3.94996
3.86956
3.75872
3.62316
3.45913
3.26328
3.03675
2.78201
2.50248
2.20163
1.88491
1.55948
1.23619
0.922729
0.637065
0.407429
0.242307
0.136625
0.103676
0.520105
2.9482
3.805
4.07119
4.1682
4.20679
4.23642
4.25009
4.23883
4.21457
4.18661
4.14473
4.07495
3.97183
3.84082
3.6783
3.48075
3.2495
2.98743
2.69841
2.38659
2.05779
1.71918
1.3779
1.04238
0.729594
0.46699
0.27175
0.144301
0.104037
0.516322
2.75718
3.49185
3.81959
4.02208
4.16913
4.26911
4.33474
4.36474
4.3709
4.36498
4.33972
4.28351
4.19053
4.06508
3.90489
3.70547
3.46918
3.20002
2.90256
2.58148
2.24215
1.89017
1.53076
1.17324
0.833879
0.537648
0.308488
0.154706
0.104509
0.50437
2.13806
2.76208
3.32507
3.74058
4.05667
4.25432
4.38596
4.46874
4.51453
4.53721
4.53323
4.49389
4.41342
4.29515
4.13802
3.93707
3.69592
3.42081
3.11643
2.78714
2.43723
2.07106
1.69436
1.31615
0.950698
0.62005
0.353397
0.168604
0.105103
0.100571
0.121236
0.156321
0.188115
0.214717
0.2374
0.258128
0.27691
0.296559
0.3182
0.342522
0.372444
0.410228
0.459073
0.520069
0.596962
0.691733
0.803729
0.929008
1.06104
1.19668
1.33645
1.4823
1.63949
1.82031
2.02786
2.21023
2.18225
1.58552
0.389253
0.0997039
0.119598
0.153732
0.185273
0.212006
0.235013
0.256002
0.275819
0.296665
0.320077
0.347747
0.383371
0.428324
0.48663
0.558972
0.647514
0.752084
0.870057
0.996967
1.12722
1.25875
1.39302
1.53326
1.68567
1.86159
2.06504
2.25375
2.25674
1.67315
0.374236
0.0989704
0.118169
0.151403
0.182687
0.209491
0.232877
0.254381
0.275673
0.297971
0.323891
0.356241
0.398784
0.45323
0.523079
0.608606
0.709866
0.824793
0.949224
1.07821
1.20717
1.33512
1.46366
1.59721
1.74413
1.91581
2.11688
2.30776
2.33267
1.83469
0.401077
0.0985234
0.117195
0.149622
0.180675
0.207696
0.231693
0.253943
0.276952
0.301739
0.331364
0.370043
0.421364
0.488481
0.572075
0.67293
0.788157
0.913841
1.0444
1.17512
1.30263
1.42691
1.55024
1.67801
1.821
1.99127
2.19216
2.38333
2.4115
1.92092
0.421344
0.0981073
0.116467
0.148194
0.17915
0.20651
0.231217
0.254718
0.279637
0.307819
0.343244
0.390031
0.451779
0.533441
0.633595
0.750587
0.880111
1.01616
1.15239
1.28453
1.4106
1.5315
1.64963
1.77204
1.91212
2.08199
2.28428
2.47574
2.50034
1.99248
0.428293
0.0978895
0.11586
0.146996
0.178016
0.205938
0.231597
0.256885
0.284632
0.317746
0.360752
0.417959
0.492806
0.589498
0.706873
0.839264
0.981415
1.12593
1.26682
1.40027
1.52529
1.64391
1.75779
1.87487
2.01281
2.1822
2.3862
2.57827
2.59923
2.07176
0.434783
0.0978358
0.115441
0.146115
0.177318
0.206067
0.233292
0.260847
0.292359
0.332098
0.385118
0.455977
0.547082
0.660026
0.793536
0.939864
1.09224
1.24314
1.38735
1.52164
1.64568
1.76251
1.87298
1.9858
2.12166
2.29158
2.49763
2.68822
2.70349
2.15763
0.443642
0.0979108
0.115234
0.145629
0.177204
0.207143
0.236437
0.267323
0.304061
0.352439
0.418243
0.505598
0.615661
0.746526
0.894949
1.05316
1.21337
1.36881
1.51496
1.64935
1.77222
1.8873
1.99513
2.10466
2.23907
2.41093
2.61902
2.80696
2.8133
2.24545
0.45245
0.0981721
0.115234
0.145563
0.177779
0.209328
0.241354
0.27669
0.320923
0.380297
0.461633
0.568021
0.698803
0.848302
1.01051
1.17837
1.3445
1.50299
1.65
1.78371
1.90499
2.01773
2.12383
2.23052
2.36481
2.53912
2.7493
2.93389
2.92797
2.33288
0.461448
0.098583
0.115398
0.14593
0.179164
0.212823
0.248424
0.289717
0.343878
0.417897
0.517976
0.644981
0.796202
0.963589
1.13814
1.31354
1.4838
1.64403
1.79116
1.92372
2.04329
2.15319
2.25778
2.36291
2.49761
2.67499
2.88721
3.06815
3.0473
2.41868
0.469533
0.0991112
0.115653
0.146849
0.181481
0.217925
0.258181
0.307473
0.374341
0.466353
0.58817
0.737433
0.907642
1.09023
1.27521
1.4564
1.62921
1.78985
1.93642
2.06753
2.1854
2.29255
2.39621
2.50069
2.63578
2.81587
3.0304
3.20689
3.16991
2.50532
0.477452
0.099622
0.115788
0.147863
0.18515
0.225068
0.271533
0.331338
0.414379
0.527188
0.671957
0.843289
1.03085
1.22585
1.41891
1.6043
1.77875
1.93881
2.08384
2.2133
2.32945
2.43489
2.53898
2.64287
2.77788
2.96006
3.17654
3.34719
3.29229
2.592
0.485772
0.0999198
0.115799
0.149246
0.189557
0.234847
0.289539
0.363066
0.465767
0.602254
0.770973
0.962074
1.16461
1.3692
1.56816
1.75642
1.93159
2.09045
2.23296
2.36019
2.47433
2.57985
2.6854
2.78958
2.92344
3.10655
3.32373
3.48699
3.41216
2.67587
0.492496
0.100499
0.116368
0.151519
0.195725
0.247766
0.313379
0.404409
0.530183
0.692021
0.883417
1.09249
1.30771
1.51959
1.72248
1.91223
2.08742
2.24527
2.38486
2.50865
2.61961
2.72559
2.83421
2.94028
3.07166
3.25366
3.46957
3.62384
3.52801
2.75698
0.498371
0.100906
0.117151
0.154816
0.204055
0.264557
0.344286
0.456841
0.608439
0.796118
1.00886
1.23322
1.45832
1.67594
1.88145
2.07229
2.24676
2.40388
2.54094
2.66097
2.768
2.87219
2.98415
3.09402
3.22188
3.40018
3.61189
3.7556
3.63919
2.83316
0.504159
0.101336
0.11815
0.159132
0.214834
0.286279
0.383886
0.521635
0.701047
0.913929
1.14538
1.3821
1.61527
1.83779
2.04578
2.23754
2.41106
2.56721
2.70214
2.81861
2.92195
3.02249
3.13497
3.24905
3.37325
3.54482
3.74876
3.88075
3.74335
2.90071
0.508404
0.101714
0.119228
0.164494
0.228438
0.313835
0.433414
0.599123
0.8065
1.04206
1.28949
1.53688
1.77725
2.00465
2.21558
2.40842
2.58123
2.73614
2.86911
2.98241
3.08188
3.17808
3.28746
3.40249
3.52344
3.68505
3.87742
3.99609
3.83752
2.95844
0.513609
0.102035
0.120506
0.17114
0.245434
0.348092
0.493623
0.688841
0.922735
1.17832
1.43992
1.69753
1.94488
2.17745
2.3917
2.5859
2.75824
2.91135
3.04245
3.15269
3.2481
3.33889
3.44175
3.55412
3.66981
3.81754
3.99434
4.09765
3.91575
3.00631
0.516141
0.102313
0.122294
0.179734
0.266907
0.390419
0.564966
0.789912
1.04825
1.32178
1.59658
1.86419
2.11887
2.357
2.57502
2.77087
2.94284
3.09356
3.22265
3.33011
3.41965
3.50346
3.5981
3.70337
3.80919
3.93839
4.09375
4.17721
3.97385
3.03651
0.518668
0.102608
0.124827
0.191073
0.294154
0.442458
0.648087
0.90178
1.18198
1.47217
1.76016
2.03796
2.30047
2.54449
2.7665
2.96404
3.13545
3.28331
3.41009
3.51358
3.59649
3.67177
3.75536
3.8476
3.93813
4.04296
4.17036
4.22784
4.00435
3.05488
0.519562
0.102912
0.128257
0.205854
0.328377
0.505345
0.74293
1.0233
1.32304
1.62979
1.93098
2.21967
2.49066
2.74094
2.96702
3.16605
3.33646
3.48134
3.60419
3.7024
3.77732
3.84202
3.91122
3.98441
4.05266
4.12517
4.21459
4.23769
4.00244
3.05235
0.521163
0.103262
0.132787
0.224955
0.370866
0.579402
0.848477
1.15341
1.47185
1.79426
2.10918
2.40943
2.68959
2.94653
3.1768
3.37708
3.54629
3.68735
3.80482
3.8955
3.96027
4.01128
4.06227
4.11113
4.14811
4.17872
4.2182
4.19719
3.95227
3.03005
0.521427
0.103706
0.138965
0.249276
0.423231
0.665363
0.964529
1.29261
1.63032
1.96754
2.29554
2.6071
2.8966
3.16048
3.39518
3.59676
3.76441
3.90082
4.01067
4.09179
4.14313
4.17638
4.20446
4.22221
4.2181
4.19457
4.16601
4.0795
3.81917
2.96038
0.523614
0.104207
0.147336
0.280368
0.486779
0.764296
1.09272
1.4443
1.80125
2.15284
2.49267
2.81425
3.11222
3.38266
3.6218
3.82471
3.98963
4.12017
4.22057
4.28902
4.32315
4.33444
4.33291
4.31031
4.25381
4.15914
4.02276
3.82865
3.5059
2.76937
0.520063
0.104808
0.158569
0.319245
0.56226
0.876655
1.23389
1.60818
1.98372
2.35021
2.70144
3.03187
3.33702
3.61302
3.85631
4.06006
4.2215
4.34468
4.43302
4.48516
4.49757
4.48067
4.44077
4.36617
4.24264
4.05105
3.74567
3.33783
2.77907
2.15158
0.507878
0.606537
0.620398
0.632335
0.646032
0.658836
0.672001
0.684578
0.697042
0.709174
0.721059
0.732704
0.744134
0.755386
0.766486
0.777501
0.788675
0.800009
0.811319
0.822416
0.833118
0.843298
0.853232
0.863805
0.874317
0.884398
0.893912
0.90293
0.911687
0.920159
0.928324
0.936161
0.94364
0.950739
0.957446
0.96375
0.969636
0.97509
0.980092
0.984619
0.988644
0.992136
0.995027
0.997331
0.999061
1.00007
1.00104
1.00168
1.0021
1.00175
1.00069
0.998843
0.995949
0.992602
0.988905
0.9846
0.97953
0.97362
0.967162
0.959979
0.951873
0.942706
0.932484
0.921267
0.909022
0.895716
0.881343
0.865986
0.849715
0.832578
0.814605
0.795813
0.776384
0.756468
0.736638
0.71688
0.697179
0.677506
0.657902
0.638367
0.618888
0.599549
0.580344
0.561215
0.542275
0.523512
0.50484
0.486552
0.468749
0.451335
0.434192
0.417315
0.400817
0.384785
0.369273
0.354339
0.34002
0.326324
0.31324
0.300745
0.288759
0.277194
0.265957
0.254961
0.244131
0.233398
0.222697
0.211956
0.201187
0.190452
0.179814
0.169439
0.159455
0.15006
0.141494
0.133866
0.127271
0.121753
0.11728
0.11376
0.111133
0.10918
0.107812
0.106851
0.106072
0.105517
5.49571
5.54584
5.6249
5.72744
5.83397
5.94273
6.05037
6.15699
6.26248
6.36657
6.46957
6.57161
6.67282
6.77277
6.8701
6.9617
7.0505
7.1375
7.22306
7.30731
7.39062
7.47406
7.55574
7.63508
7.71189
7.78609
7.85854
7.92906
7.99737
8.06339
8.12701
8.18816
8.24679
8.30289
8.35643
8.40733
8.45548
8.50072
8.54276
8.58124
8.61577
8.646
8.67137
8.69132
8.70503
8.71134
8.71062
8.70265
8.68896
8.66989
8.64609
8.61908
8.58469
8.54517
8.50073
8.45057
8.39327
8.32986
8.2593
8.1802
8.09161
7.99301
7.88524
7.76771
7.64015
7.50274
7.35641
7.20162
7.0387
6.86802
6.68982
6.50346
6.30645
6.08908
5.85845
5.62739
5.39749
5.16979
4.9441
4.72151
4.50269
4.28705
4.07604
3.87031
3.66856
3.47462
3.29415
3.12535
2.96214
2.80136
2.64687
2.50194
2.3674
2.24399
2.13179
2.03063
1.94072
1.86181
1.79275
1.73123
1.67544
1.62313
1.57258
1.52202
1.46984
1.4146
1.35449
1.2892
1.21825
1.1415
1.05983
0.974417
0.886346
0.797112
0.709636
0.624762
0.543627
0.467767
0.39955
0.340595
0.290643
0.249407
0.216895
0.192098
0.173282
9.59491
9.68829
9.81178
9.957
10.1093
10.2633
10.4159
10.5664
10.7145
10.8601
11.0033
11.1442
11.2825
11.4179
11.5493
11.6752
11.795
11.9121
12.0263
12.1384
12.2487
12.357
12.4613
12.5612
12.6568
12.7485
12.8368
12.9215
13.0027
13.0802
13.1539
13.224
13.2905
13.3533
13.4125
13.4681
13.5199
13.5676
13.6108
13.6489
13.6816
13.7083
13.7284
13.7414
13.7468
13.7443
13.7335
13.7145
13.6877
13.6533
13.6117
13.5632
13.507
13.4431
13.3716
13.292
13.2039
13.1038
12.993
12.8703
12.7344
12.5843
12.422
12.2462
12.0566
11.8537
11.6384
11.4111
11.1721
10.922
10.6616
10.391
10.1096
9.81697
9.51335
9.19704
8.87329
8.54955
8.22586
7.90445
7.58619
7.27174
6.96208
6.65808
6.36032
6.07063
5.7914
5.52253
5.26201
5.00914
4.76524
4.53209
4.31087
4.10231
3.90694
3.72494
3.55592
3.39999
3.25612
3.12226
2.99649
2.87682
2.76165
2.64934
2.53828
2.42732
2.31471
2.19975
2.08184
1.96046
1.83572
1.7087
1.58057
1.45259
1.32636
1.20279
1.08219
0.964842
0.852056
0.746571
0.649832
0.562219
0.485812
0.42117
0.36618
12.4756
12.5852
12.7249
12.8825
13.0474
13.2134
13.3776
13.5389
13.6969
13.8518
14.0034
14.1519
14.297
14.4383
14.5754
14.7072
14.833
14.9529
15.0694
15.1832
15.2939
15.3998
15.4998
15.5941
15.6835
15.7687
15.8494
15.9259
15.9982
16.0665
16.1309
16.1915
16.2487
16.3024
16.3528
16.3999
16.4433
16.4827
16.5176
16.5474
16.5715
16.5895
16.6009
16.6052
16.602
16.591
16.572
16.545
16.5101
16.4674
16.4168
16.3584
16.2918
16.2169
16.1335
16.0409
15.9378
15.8224
15.6948
15.5544
15.3999
15.2293
15.0448
14.8466
14.6336
14.4068
14.1663
13.9124
13.6456
13.3669
13.0769
12.7758
12.464
12.1421
11.8105
11.4699
11.1208
10.7628
10.4007
10.0401
9.68169
9.32708
8.97716
8.63279
8.29469
7.96383
7.64106
7.32645
7.01976
6.7211
6.43128
6.15122
5.88183
5.62388
5.3782
5.14515
4.92367
4.7133
4.51358
4.32365
4.14191
3.96746
3.7996
3.63659
3.47707
3.3206
3.1661
3.01279
2.85986
2.70646
2.55203
2.39711
2.24234
2.08844
1.93599
1.78579
1.63851
1.49367
1.35068
1.21274
1.08156
0.957674
0.843491
0.74089
0.647658
14.5778
14.6872
14.8239
14.976
15.1351
15.295
15.4528
15.6074
15.7585
15.906
16.0501
16.1907
16.3276
16.4605
16.5891
16.7128
16.8312
16.9441
17.0515
17.1548
17.2528
17.3436
17.4271
17.5043
17.5763
17.6436
17.7058
17.7634
17.817
17.8668
17.9133
17.9569
17.9978
18.0364
18.0728
18.1067
18.138
18.1659
18.1897