/*--------------------------------*- C++ -*----------------------------------*\
| =========                 |                                                 |
| \\      /  F ield         | OpenFOAM: The Open Source CFD Toolbox           |
|  \\    /   O peration     | Version:  2112                                  |
|   \\  /    A nd           | Website:  www.openfoam.com                      |
|    \\/     M anipulation  |                                                 |
\*---------------------------------------------------------------------------*/
FoamFile
{
    version     2.0;
    format      ascii;
    arch        "LSB;label=32;scalar=64";
    class       volScalarField;
    location    "3e-05";
    object      alphat;
}
// * * * * * * * * * * * * * * * * * * * * * * * * * * * * * * * * * * * * * //

dimensions      [1 -1 -1 0 0 0 0];

internalField   nonuniform List<scalar> 
13875
(
0.898447
17.826
21.4114
22.8238
23.2147
23.3115
23.3326
23.3367
23.3375
23.3376
23.3375
23.3373
23.337
23.3369
23.3367
23.3365
23.3361
23.335
23.3304
23.3091
23.2126
22.8228
21.4121
17.8269
0.902333
0.573076
9.04166
10.6913
11.2194
11.3491
11.3774
11.3828
11.3834
11.3834
11.3833
11.3831
11.383
11.3828
11.3828
11.3827
11.3826
11.3826
11.3824
11.3815
11.3759
11.3477
11.2188
10.6926
9.04826
0.578963
0.40236
6.60264
7.57021
7.80045
7.84368
7.85152
7.85255
7.85248
7.85227
7.85208
7.85189
7.85173
7.85163
7.85162
7.8516
7.85154
7.85148
7.85148
7.85141
7.85033
7.8425
7.79945
7.57058
6.59899
0.40149
0.242687
3.1941
3.5548
3.60803
3.61481
3.61566
3.61564
3.61558
3.6155
3.6154
3.6153
3.61522
3.61515
3.61511
3.61507
3.61501
3.61496
3.61494
3.61497
3.61501
3.61416
3.60731
3.55466
3.19081
0.241451
0.0808743
0.400408
0.431753
0.434363
0.434531
0.434532
0.434525
0.434526
0.434524
0.434516
0.434509
0.434501
0.43449
0.434479
0.434466
0.434455
0.434442
0.43443
0.434423
0.434425
0.434418
0.434227
0.43167
0.400017
0.0807107
0.0500164
0.258022
0.271749
0.271126
0.270986
0.270962
0.270961
0.270962
0.270964
0.270966
0.270969
0.270971
0.270973
0.270974
0.270976
0.270978
0.27098
0.270981
0.270982
0.270984
0.271008
0.271149
0.271761
0.258168
0.050016
0.0492904
0.279409
0.302582
0.302982
0.302986
0.302986
0.302986
0.302986
0.302986
0.302986
0.302986
0.302986
0.302986
0.302986
0.302986
0.302986
0.302986
0.302986
0.302986
0.302986
0.302986
0.302982
0.302566
0.27889
0.0492524
0.0493466
0.278715
0.302566
0.302989
0.302994
0.302994
0.302994
0.302994
0.302994
0.302994
0.302994
0.302994
0.302994
0.302994
0.302994
0.302994
0.302994
0.302994
0.302994
0.302994
0.302994
0.302989
0.302566
0.278683
0.0493667
0.0495033
0.277188
0.302519
0.302987
0.302992
0.302993
0.302993
0.302993
0.302993
0.302993
0.302993
0.302993
0.302993
0.302993
0.302993
0.302993
0.302993
0.302993
0.302993
0.302993
0.302992
0.302987
0.302526
0.277429
0.0495164
0.0460135
0.270579
0.302182
0.30298
0.302992
0.302992
0.302992
0.302992
0.302992
0.302992
0.302992
0.302992
0.302992
0.302992
0.302992
0.302992
0.302992
0.302992
0.302992
0.302992
0.302992
0.30298
0.302188
0.270702
0.0461798
0.0405916
0.261712
0.301569
0.302964
0.302992
0.302993
0.302992
0.302992
0.302992
0.302992
0.302992
0.302992
0.302992
0.302992
0.302992
0.302992
0.302992
0.302992
0.302992
0.302993
0.302992
0.302962
0.301478
0.260408
0.0400835
0.036761
0.253392
0.30091
0.302944
0.302992
0.302993
0.302992
0.302992
0.302992
0.302992
0.302992
0.302992
0.302992
0.302992
0.302992
0.302992
0.302992
0.302992
0.302992
0.302993
0.302992
0.302945
0.300926
0.253609
0.0366889
0.033869
0.245227
0.300196
0.302919
0.302992
0.302993
0.302992
0.302992
0.302992
0.302992
0.302992
0.302992
0.302992
0.302992
0.302992
0.302992
0.302992
0.302992
0.302992
0.302993
0.302992
0.302923
0.300314
0.246517
0.0340265
0.0317931
0.238638
0.299587
0.302895
0.302991
0.302993
0.302992
0.302992
0.302992
0.302992
0.302992
0.302992
0.302992
0.302992
0.302992
0.302992
0.302992
0.302992
0.302992
0.302993
0.302991
0.302905
0.299858
0.240952
0.0325752
0.0307203
0.233375
0.299135
0.302874
0.302991
0.302993
0.302992
0.302992
0.302992
0.302992
0.302992
0.302992
0.302992
0.302992
0.302992
0.302992
0.302992
0.302992
0.302993
0.302993
0.30299
0.302855
0.298721
0.230106
0.0302158
0.0282824
0.223098
0.297867
0.302813
0.302989
0.302993
0.302993
0.302992
0.302992
0.302992
0.302992
0.302992
0.302992
0.302992
0.302992
0.302992
0.302992
0.302992
0.302993
0.302993
0.302989
0.302797
0.297544
0.221103
0.0277819
0.0280563
0.223417
0.298207
0.30283
0.302989
0.302993
0.302992
0.302992
0.302992
0.302992
0.302992
0.302992
0.302992
0.302992
0.302992
0.302992
0.302992
0.302992
0.302992
0.302993
0.302989
0.302837
0.298346
0.224484
0.0281074
0.028048
0.225375
0.298608
0.302846
0.302989
0.302992
0.302992
0.302992
0.302992
0.302992
0.302992
0.302992
0.302992
0.302992
0.302992
0.302992
0.302992
0.302992
0.302992
0.302992
0.302989
0.302845
0.298593
0.225175
0.0280821
0.0267949
0.211972
0.2966
0.302738
0.302984
0.302992
0.302992
0.302992
0.302992
0.302992
0.302992
0.302992
0.302992
0.302992
0.302992
0.302992
0.302992
0.302992
0.302992
0.302992
0.302986
0.302772
0.297164
0.215296
0.0272499
0.0261271
0.201821
0.294407
0.302596
0.302977
0.302992
0.302992
0.302992
0.302992
0.302992
0.302992
0.302992
0.302992
0.302992
0.302992
0.302992
0.302992
0.302992
0.302992
0.302992
0.302977
0.302582
0.294194
0.20077
0.0258224
0.0290555
0.214301
0.296579
0.302729
0.302983
0.302992
0.302992
0.302992
0.302992
0.302992
0.302992
0.302992
0.302992
0.302992
0.302992
0.302992
0.302992
0.302992
0.302992
0.302992
0.302982
0.302694
0.296004
0.210988
0.0285025
0.0321636
0.228121
0.298603
0.30284
0.302988
0.302992
0.302992
0.302992
0.302992
0.302992
0.302992
0.302992
0.302992
0.302992
0.302992
0.302992
0.302992
0.302992
0.302992
0.302992
0.302987
0.302831
0.298445
0.227054
0.0320793
0.035302
0.240069
0.299988
0.302904
0.30299
0.302992
0.302992
0.302992
0.302992
0.302992
0.302992
0.302992
0.302992
0.302992
0.302992
0.302992
0.302992
0.302992
0.302992
0.302992
0.30299
0.30291
0.300136
0.241589
0.0356584
0.038444
0.251034
0.300984
0.302943
0.302991
0.302992
0.302992
0.302992
0.302992
0.302992
0.302992
0.302992
0.302992
0.302992
0.302992
0.302992
0.302992
0.302992
0.302992
0.302992
0.302991
0.302943
0.300973
0.250856
0.0383312
0.0404401
0.256646
0.301395
0.302957
0.302992
0.302992
0.302992
0.302992
0.302992
0.302992
0.302992
0.302992
0.302992
0.302992
0.302992
0.302992
0.302992
0.302992
0.302992
0.302992
0.302992
0.302956
0.301364
0.256209
0.0403685
0.042689
0.261669
0.301718
0.302967
0.302992
0.302992
0.302992
0.302992
0.302992
0.302992
0.302992
0.302992
0.302992
0.302992
0.302992
0.302992
0.302992
0.302992
0.302992
0.302992
0.302992
0.302968
0.301768
0.262496
0.0429196
0.0450935
0.267033
0.302018
0.302975
0.302992
0.302992
0.302992
0.302992
0.302992
0.302992
0.302992
0.302992
0.302992
0.302992
0.302992
0.302992
0.302992
0.302992
0.302992
0.302992
0.302992
0.302974
0.301971
0.266154
0.0447596
0.0468642
0.270178
0.302173
0.302979
0.302992
0.302992
0.302992
0.302992
0.302992
0.302992
0.302992
0.302992
0.302992
0.302992
0.302992
0.302992
0.302992
0.302992
0.302992
0.302992
0.302992
0.302979
0.30217
0.270125
0.0469685
0.048831
0.273039
0.302303
0.302982
0.302992
0.302992
0.302992
0.302992
0.302992
0.302992
0.302992
0.302992
0.302992
0.302992
0.302992
0.302992
0.302992
0.302992
0.302992
0.302992
0.302992
0.302983
0.302352
0.274149
0.0491926
0.0512216
0.277131
0.302472
0.302985
0.302992
0.302992
0.302992
0.302992
0.302992
0.302992
0.302992
0.302992
0.302992
0.302992
0.302992
0.302992
0.302992
0.302992
0.302992
0.302992
0.302992
0.302985
0.302433
0.276134
0.0507508
0.0526562
0.279075
0.302543
0.302987
0.302992
0.302992
0.302992
0.302992
0.302992
0.302992
0.302992
0.302992
0.302992
0.302992
0.302992
0.302992
0.302992
0.302992
0.302992
0.302992
0.302992
0.302987
0.302547
0.27917
0.0528346
0.0541124
0.280484
0.30259
0.302988
0.302992
0.302992
0.302992
0.302992
0.302992
0.302992
0.302992
0.302992
0.302992
0.302992
0.302992
0.302992
0.302992
0.302992
0.302992
0.302992
0.302992
0.302988
0.302612
0.281135
0.0543383
0.0559945
0.282978
0.302671
0.302989
0.302992
0.302992
0.302992
0.302992
0.302992
0.302992
0.302992
0.302992
0.302992
0.302992
0.302992
0.302992
0.302992
0.302992
0.302992
0.302992
0.302992
0.302989
0.302654
0.282424
0.0557127
0.057137
0.28418
0.302705
0.302989
0.302992
0.302992
0.302992
0.302992
0.302992
0.302992
0.302992
0.302992
0.302992
0.302992
0.302992
0.302992
0.302992
0.302992
0.302992
0.302992
0.302992
0.30299
0.30271
0.284341
0.0573044
0.0582528
0.284941
0.302726
0.30299
0.302992
0.302992
0.302992
0.302992
0.302992
0.302992
0.302992
0.302992
0.302992
0.302992
0.302992
0.302992
0.302992
0.302992
0.302992
0.302992
0.302992
0.30299
0.302738
0.285386
0.0583932
0.0597451
0.286608
0.30277
0.30299
0.302992
0.302992
0.302992
0.302992
0.302992
0.302992
0.302992
0.302992
0.302992
0.302992
0.302992
0.302992
0.302992
0.302992
0.302992
0.302992
0.302992
0.30299
0.302757
0.286095
0.0594815
0.0606595
0.287397
0.30279
0.302991
0.302992
0.302992
0.302992
0.302992
0.302992
0.302992
0.302992
0.302992
0.302992
0.302992
0.302992
0.302992
0.302992
0.302992
0.302992
0.302992
0.302992
0.302991
0.302792
0.287493
0.060788
0.0615367
0.287855
0.3028
0.302991
0.302992
0.302992
0.302992
0.302992
0.302992
0.302992
0.302992
0.302992
0.302992
0.302992
0.302992
0.302992
0.302992
0.302992
0.302992
0.302992
0.302992
0.302991
0.302808
0.288218
0.061647
0.0626843
0.289027
0.302827
0.302991
0.302992
0.302992
0.302992
0.302992
0.302992
0.302992
0.302992
0.302992
0.302992
0.302992
0.302992
0.302992
0.302992
0.302992
0.302992
0.302992
0.302992
0.302991
0.302817
0.288598
0.0624705
0.0633867
0.289559
0.302838
0.302991
0.302992
0.302992
0.302992
0.302992
0.302992
0.302992
0.302992
0.302992
0.302992
0.302992
0.302992
0.302992
0.302992
0.302992
0.302992
0.302992
0.302992
0.302991
0.30284
0.289624
0.0634843
0.0640443
0.28982
0.302844
0.302991
0.302992
0.302992
0.302992
0.302992
0.302992
0.302992
0.302992
0.302992
0.302992
0.302992
0.302992
0.302992
0.302992
0.302992
0.302992
0.302992
0.302992
0.302991
0.30285
0.290134
0.0641333
0.0648902
0.290668
0.302861
0.302992
0.302992
0.302992
0.302992
0.302992
0.302992
0.302992
0.302992
0.302992
0.302992
0.302992
0.302992
0.302992
0.302992
0.302992
0.302992
0.302992
0.302992
0.302991
0.302854
0.290327
0.0647351
0.0653998
0.291033
0.302868
0.302992
0.302992
0.302992
0.302992
0.302992
0.302992
0.302992
0.302992
0.302992
0.302992
0.302992
0.302992
0.302992
0.302992
0.302992
0.302992
0.302992
0.302992
0.302992
0.302869
0.291064
0.0654626
0.0658628
0.291165
0.30287
0.302992
0.302992
0.302992
0.302992
0.302992
0.302992
0.302992
0.302992
0.302992
0.302992
0.302992
0.302992
0.302992
0.302992
0.302992
0.302992
0.302992
0.302992
0.302992
0.302875
0.291429
0.0659288
0.0664411
0.291782
0.302882
0.302992
0.302992
0.302992
0.302992
0.302992
0.302992
0.302992
0.302992
0.302992
0.302992
0.302992
0.302992
0.302992
0.302992
0.302992
0.302992
0.302992
0.302992
0.302992
0.302877
0.291532
0.0663453
0.0667786
0.292029
0.302886
0.302992
0.302992
0.302992
0.302992
0.302992
0.302992
0.302992
0.302992
0.302992
0.302992
0.302992
0.302992
0.302992
0.302992
0.302992
0.302992
0.302992
0.302992
0.302992
0.302886
0.292026
0.06681
0.0670738
0.292076
0.302887
0.302992
0.302992
0.302992
0.302992
0.302992
0.302992
0.302992
0.302992
0.302992
0.302992
0.302992
0.302992
0.302992
0.302992
0.302992
0.302992
0.302992
0.302992
0.302992
0.302891
0.292293
0.0671171
0.0674233
0.29252
0.302895
0.302992
0.302992
0.302992
0.302992
0.302992
0.302992
0.302992
0.302992
0.302992
0.302992
0.302992
0.302992
0.302992
0.302992
0.302992
0.302992
0.302992
0.302992
0.302992
0.302892
0.29235
0.0673702
0.0676156
0.292684
0.302897
0.302992
0.302992
0.302992
0.302992
0.302992
0.302992
0.302992
0.302992
0.302992
0.302992
0.302992
0.302992
0.302992
0.302992
0.302992
0.302992
0.302992
0.302992
0.302992
0.302897
0.29263
0.0676182
0.0677826
0.292725
0.302898
0.302992
0.302992
0.302992
0.302992
0.302992
0.302992
0.302992
0.302992
0.302992
0.302992
0.302992
0.302992
0.302992
0.302992
0.302992
0.302992
0.302992
0.302992
0.302992
0.302899
0.292805
0.0677956
0.138613
0.300985
0.303003
0.303012
0.303011
0.303011
0.303011
0.30301
0.30301
0.30301
0.303009
0.303009
0.303009
0.303009
0.303008
0.303008
0.303008
0.303008
0.303007
0.303007
0.303007
0.303007
0.303006
0.303006
0.303006
0.303006
0.303006
0.303004
0.302342
0.156873
0.131092
0.301767
0.302986
0.302993
0.302993
0.302993
0.302993
0.302993
0.302993
0.302993
0.302993
0.302993
0.302993
0.302993
0.302993
0.302993
0.302993
0.302993
0.302993
0.302993
0.302993
0.302993
0.302993
0.302993
0.302993
0.302993
0.302993
0.302991
0.302269
0.155267
0.137128
0.302099
0.302988
0.302992
0.302992
0.302992
0.302992
0.302992
0.302992
0.302992
0.302992
0.302992
0.302992
0.302992
0.302992
0.302992
0.302992
0.302992
0.302992
0.302992
0.302992
0.302992
0.302992
0.302992
0.302992
0.302992
0.302992
0.302991
0.302246
0.153785
0.140589
0.302081
0.302989
0.302992
0.302992
0.302992
0.302992
0.302992
0.302992
0.302992
0.302992
0.302992
0.302992
0.302992
0.302992
0.302992
0.302992
0.302992
0.302992
0.302992
0.302992
0.302992
0.302992
0.302992
0.302992
0.302992
0.302992
0.302991
0.302227
0.152528
0.140401
0.302022
0.302989
0.302992
0.302992
0.302992
0.302992
0.302992
0.302992
0.302992
0.302992
0.302992
0.302992
0.302992
0.302992
0.302992
0.302992
0.302992
0.302992
0.302992
0.302992
0.302992
0.302992
0.302992
0.302992
0.302992
0.302992
0.302991
0.302208
0.151386
0.140094
0.302016
0.302989
0.302992
0.302992
0.302992
0.302992
0.302992
0.302992
0.302992
0.302992
0.302992
0.302992
0.302992
0.302992
0.302992
0.302992
0.302992
0.302992
0.302992
0.302992
0.302992
0.302992
0.302992
0.302992
0.302992
0.302992
0.302991
0.302188
0.150294
0.140114
0.302024
0.302989
0.302992
0.302992
0.302992
0.302992
0.302992
0.302992
0.302992
0.302992
0.302992
0.302992
0.302992
0.302992
0.302992
0.302992
0.302992
0.302992
0.302992
0.302992
0.302992
0.302992
0.302992
0.302992
0.302992
0.302992
0.302991
0.302169
0.149261
0.140503
0.302036
0.30299
0.302992
0.302992
0.302992
0.302992
0.302992
0.302992
0.302992
0.302992
0.302992
0.302992
0.302992
0.302992
0.302992
0.302992
0.302992
0.302992
0.302992
0.302992
0.302992
0.302992
0.302992
0.302992
0.302992
0.302992
0.302991
0.302151
0.148304
0.140898
0.302041
0.30299
0.302992
0.302992
0.302992
0.302992
0.302992
0.302992
0.302992
0.302992
0.302992
0.302992
0.302992
0.302992
0.302992
0.302992
0.302992
0.302992
0.302992
0.302992
0.302992
0.302992
0.302992
0.302992
0.302992
0.302992
0.302991
0.302135
0.147435
0.14115
0.30204
0.30299
0.302992
0.302992
0.302992
0.302992
0.302992
0.302992
0.302992
0.302992
0.302992
0.302992
0.302992
0.302992
0.302992
0.302992
0.302992
0.302992
0.302992
0.302992
0.302992
0.302992
0.302992
0.302992
0.302992
0.302992
0.302991
0.30212
0.14665
0.141237
0.302036
0.30299
0.302992
0.302992
0.302992
0.302992
0.302992
0.302992
0.302992
0.302992
0.302992
0.302992
0.302992
0.302992
0.302992
0.302992
0.302992
0.302992
0.302992
0.302992
0.302992
0.302992
0.302992
0.302992
0.302992
0.302992
0.302991
0.302106
0.145938
0.141222
0.302032
0.30299
0.302992
0.302992
0.302992
0.302992
0.302992
0.302992
0.302992
0.302992
0.302992
0.302992
0.302992
0.302992
0.302992
0.302992
0.302992
0.302992
0.302992
0.302992
0.302992
0.302992
0.302992
0.302992
0.302992
0.302992
0.302991
0.302093
0.145289
0.141181
0.302028
0.30299
0.302992
0.302992
0.302992
0.302992
0.302992
0.302992
0.302992
0.302992
0.302992
0.302992
0.302992
0.302992
0.302992
0.302992
0.302992
0.302992
0.302992
0.302992
0.302992
0.302992
0.302992
0.302992
0.302992
0.302992
0.302991
0.302081
0.144697
0.141097
0.302026
0.30299
0.302992
0.302992
0.302992
0.302992
0.302992
0.302992
0.302992
0.302992
0.302992
0.302992
0.302992
0.302992
0.302992
0.302992
0.302992
0.302992
0.302992
0.302992
0.302992
0.302992
0.302992
0.302992
0.302992
0.302992
0.302991
0.30207
0.144158
0.1411
0.302024
0.30299
0.302992
0.302992
0.302992
0.302992
0.302992
0.302992
0.302992
0.302992
0.302992
0.302992
0.302992
0.302992
0.302992
0.302992
0.302992
0.302992
0.302992
0.302992
0.302992
0.302992
0.302992
0.302992
0.302992
0.302992
0.302991
0.30206
0.143672
0.141024
0.30202
0.30299
0.302992
0.302992
0.302992
0.302992
0.302992
0.302992
0.302992
0.302992
0.302992
0.302992
0.302992
0.302992
0.302992
0.302992
0.302992
0.302992
0.302992
0.302992
0.302992
0.302992
0.302992
0.302992
0.302992
0.302992
0.302991
0.302051
0.143236
0.140986
0.302019
0.30299
0.302992
0.302992
0.302992
0.302992
0.302992
0.302992
0.302992
0.302992
0.302992
0.302992
0.302992
0.302992
0.302992
0.302992
0.302992
0.302992
0.302992
0.302992
0.302992
0.302992
0.302992
0.302992
0.302992
0.302992
0.302991
0.302043
0.142847
0.140979
0.302017
0.30299
0.302992
0.302992
0.302992
0.302992
0.302992
0.302992
0.302992
0.302992
0.302992
0.302992
0.302992
0.302992
0.302992
0.302992
0.302992
0.302992
0.302992
0.302992
0.302992
0.302992
0.302992
0.302992
0.302992
0.302992
0.302991
0.302036
0.142504
0.140938
0.302015
0.30299
0.302992
0.302992
0.302992
0.302992
0.302992
0.302992
0.302992
0.302992
0.302992
0.302992
0.302992
0.302992
0.302992
0.302992
0.302992
0.302992
0.302992
0.302992
0.302992
0.302992
0.302992
0.302992
0.302992
0.302992
0.302991
0.302029
0.142205
0.140942
0.302015
0.30299
0.302992
0.302992
0.302992
0.302992
0.302992
0.302992
0.302992
0.302992
0.302992
0.302992
0.302992
0.302992
0.302992
0.302992
0.302992
0.302992
0.302992
0.302992
0.302992
0.302992
0.302992
0.302992
0.302992
0.302992
0.302991
0.302024
0.141946
0.140953
0.302014
0.30299
0.302992
0.302992
0.302992
0.302992
0.302992
0.302992
0.302992
0.302992
0.302992
0.302992
0.302992
0.302992
0.302992
0.302992
0.302992
0.302992
0.302992
0.302992
0.302992
0.302992
0.302992
0.302992
0.302992
0.302992
0.302991
0.30202
0.141727
0.140957
0.302013
0.30299
0.302992
0.302992
0.302992
0.302992
0.302992
0.302992
0.302992
0.302992
0.302992
0.302992
0.302992
0.302992
0.302992
0.302992
0.302992
0.302992
0.302992
0.302992
0.302992
0.302992
0.302992
0.302992
0.302992
0.302992
0.302991
0.302016
0.141545
0.141006
0.302014
0.30299
0.302992
0.302992
0.302992
0.302992
0.302992
0.302992
0.302992
0.302992
0.302992
0.302992
0.302992
0.302992
0.302992
0.302992
0.302992
0.302992
0.302992
0.302992
0.302992
0.302992
0.302992
0.302992
0.302992
0.302992
0.302991
0.302013
0.141399
0.14105
0.302014
0.30299
0.302992
0.302992
0.302992
0.302992
0.302992
0.302992
0.302992
0.302992
0.302992
0.302992
0.302992
0.302992
0.302992
0.302992
0.302992
0.302992
0.302992
0.302992
0.302992
0.302992
0.302992
0.302992
0.302992
0.302992
0.302991
0.302011
0.141286
0.141102
0.302099
0.302991
0.302992
0.302992
0.302992
0.302992
0.302992
0.302992
0.302992
0.302992
0.302992
0.302992
0.302992
0.302992
0.302992
0.302992
0.302992
0.302992
0.302992
0.302992
0.302992
0.302992
0.302992
0.302992
0.302992
0.302992
0.302991
0.30201
0.141203
0.156872
0.302342
0.303004
0.303006
0.303006
0.303006
0.303006
0.303006
0.303007
0.303007
0.303007
0.303007
0.303008
0.303008
0.303008
0.303008
0.303009
0.303009
0.303009
0.303009
0.30301
0.30301
0.30301
0.303011
0.303011
0.303011
0.303012
0.303003
0.300983
0.138576
0.155266
0.302269
0.302991
0.302993
0.302993
0.302993
0.302993
0.302993
0.302993
0.302993
0.302993
0.302993
0.302993
0.302993
0.302993
0.302993
0.302993
0.302993
0.302993
0.302993
0.302993
0.302993
0.302993
0.302993
0.302993
0.302993
0.302993
0.302986
0.301767
0.131109
0.153783
0.302246
0.302991
0.302992
0.302992
0.302992
0.302992
0.302992
0.302992
0.302992
0.302992
0.302992
0.302992
0.302992
0.302992
0.302992
0.302992
0.302992
0.302992
0.302992
0.302992
0.302992
0.302992
0.302992
0.302992
0.302992
0.302992
0.302988
0.302099
0.137097
0.152527
0.302227
0.302991
0.302992
0.302992
0.302992
0.302992
0.302992
0.302992
0.302992
0.302992
0.302992
0.302992
0.302992
0.302992
0.302992
0.302992
0.302992
0.302992
0.302992
0.302992
0.302992
0.302992
0.302992
0.302992
0.302992
0.302992
0.302989
0.302083
0.140634
0.151386
0.302208
0.302991
0.302992
0.302992
0.302992
0.302992
0.302992
0.302992
0.302992
0.302992
0.302992
0.302992
0.302992
0.302992
0.302992
0.302992
0.302992
0.302992
0.302992
0.302992
0.302992
0.302992
0.302992
0.302992
0.302992
0.302992
0.302989
0.302021
0.140419
0.150293
0.302188
0.302991
0.302992
0.302992
0.302992
0.302992
0.302992
0.302992
0.302992
0.302992
0.302992
0.302992
0.302992
0.302992
0.302992
0.302992
0.302992
0.302992
0.302992
0.302992
0.302992
0.302992
0.302992
0.302992
0.302992
0.302992
0.302989
0.302015
0.14003
0.149261
0.302169
0.302991
0.302992
0.302992
0.302992
0.302992
0.302992
0.302992
0.302992
0.302992
0.302992
0.302992
0.302992
0.302992
0.302992
0.302992
0.302992
0.302992
0.302992
0.302992
0.302992
0.302992
0.302992
0.302992
0.302992
0.302992
0.302989
0.302026
0.140198
0.148305
0.302151
0.302991
0.302992
0.302992
0.302992
0.302992
0.302992
0.302992
0.302992
0.302992
0.302992
0.302992
0.302992
0.302992
0.302992
0.302992
0.302992
0.302992
0.302992
0.302992
0.302992
0.302992
0.302992
0.302992
0.302992
0.302992
0.30299
0.302034
0.140457
0.147435
0.302135
0.302991
0.302992
0.302992
0.302992
0.302992
0.302992
0.302992
0.302992
0.302992
0.302992
0.302992
0.302992
0.302992
0.302992
0.302992
0.302992
0.302992
0.302992
0.302992
0.302992
0.302992
0.302992
0.302992
0.302992
0.302992
0.30299
0.302042
0.140904
0.146651
0.30212
0.302991
0.302992
0.302992
0.302992
0.302992
0.302992
0.302992
0.302992
0.302992
0.302992
0.302992
0.302992
0.302992
0.302992
0.302992
0.302992
0.302992
0.302992
0.302992
0.302992
0.302992
0.302992
0.302992
0.302992
0.302992
0.30299
0.30204
0.14117
0.145937
0.302106
0.302991
0.302992
0.302992
0.302992
0.302992
0.302992
0.302992
0.302992
0.302992
0.302992
0.302992
0.302992
0.302992
0.302992
0.302992
0.302992
0.302992
0.302992
0.302992
0.302992
0.302992
0.302992
0.302992
0.302992
0.302992
0.30299
0.302036
0.141192
0.145288
0.302093
0.302991
0.302992
0.302992
0.302992
0.302992
0.302992
0.302992
0.302992
0.302992
0.302992
0.302992
0.302992
0.302992
0.302992
0.302992
0.302992
0.302992
0.302992
0.302992
0.302992
0.302992
0.302992
0.302992
0.302992
0.302992
0.30299
0.302033
0.141259
0.144698
0.302081
0.302991
0.302992
0.302992
0.302992
0.302992
0.302992
0.302992
0.302992
0.302992
0.302992
0.302992
0.302992
0.302992
0.302992
0.302992
0.302992
0.302992
0.302992
0.302992
0.302992
0.302992
0.302992
0.302992
0.302992
0.302992
0.30299
0.302027
0.141175
0.144158
0.30207
0.302991
0.302992
0.302992
0.302992
0.302992
0.302992
0.302992
0.302992
0.302992
0.302992
0.302992
0.302992
0.302992
0.302992
0.302992
0.302992
0.302992
0.302992
0.302992
0.302992
0.302992
0.302992
0.302992
0.302992
0.302992
0.30299
0.302025
0.141092
0.143672
0.30206
0.302991
0.302992
0.302992
0.302992
0.302992
0.302992
0.302992
0.302992
0.302992
0.302992
0.302992
0.302992
0.302992
0.302992
0.302992
0.302992
0.302992
0.302992
0.302992
0.302992
0.302992
0.302992
0.302992
0.302992
0.302992
0.30299
0.302024
0.141097
0.143237
0.302051
0.302991
0.302992
0.302992
0.302992
0.302992
0.302992
0.302992
0.302992
0.302992
0.302992
0.302992
0.302992
0.302992
0.302992
0.302992
0.302992
0.302992
0.302992
0.302992
0.302992
0.302992
0.302992
0.302992
0.302992
0.302992
0.30299
0.30202
0.141037
0.142847
0.302043
0.302991
0.302992
0.302992
0.302992
0.302992
0.302992
0.302992
0.302992
0.302992
0.302992
0.302992
0.302992
0.302992
0.302992
0.302992
0.302992
0.302992
0.302992
0.302992
0.302992
0.302992
0.302992
0.302992
0.302992
0.302992
0.30299
0.302018
0.140975
0.142504
0.302036
0.302991
0.302992
0.302992
0.302992
0.302992
0.302992
0.302992
0.302992
0.302992
0.302992
0.302992
0.302992
0.302992
0.302992
0.302992
0.302992
0.302992
0.302992
0.302992
0.302992
0.302992
0.302992
0.302992
0.302992
0.302992
0.30299
0.302018
0.140976
0.142205
0.302029
0.302991
0.302992
0.302992
0.302992
0.302992
0.302992
0.302992
0.302992
0.302992
0.302992
0.302992
0.302992
0.302992
0.302992
0.302992
0.302992
0.302992
0.302992
0.302992
0.302992
0.302992
0.302992
0.302992
0.302992
0.302992
0.30299
0.302015
0.140954
0.141946
0.302024
0.302991
0.302992
0.302992
0.302992
0.302992
0.302992
0.302992
0.302992
0.302992
0.302992
0.302992
0.302992
0.302992
0.302992
0.302992
0.302992
0.302992
0.302992
0.302992
0.302992
0.302992
0.302992
0.302992
0.302992
0.302992
0.30299
0.302014
0.14093
0.141727
0.30202
0.302991
0.302992
0.302992
0.302992
0.302992
0.302992
0.302992
0.302992
0.302992
0.302992
0.302992
0.302992
0.302992
0.302992
0.302992
0.302992
0.302992
0.302992
0.302992
0.302992
0.302992
0.302992
0.302992
0.302992
0.302992
0.30299
0.302014
0.140951
0.141546
0.302016
0.302991
0.302992
0.302992
0.302992
0.302992
0.302992
0.302992
0.302992
0.302992
0.302992
0.302992
0.302992
0.302992
0.302992
0.302992
0.302992
0.302992
0.302992
0.302992
0.302992
0.302992
0.302992
0.302992
0.302992
0.302992
0.30299
0.302013
0.140972
0.141399
0.302013
0.302991
0.302992
0.302992
0.302992
0.302992
0.302992
0.302992
0.302992
0.302992
0.302992
0.302992
0.302992
0.302992
0.302992
0.302992
0.302992
0.302992
0.302992
0.302992
0.302992
0.302992
0.302992
0.302992
0.302992
0.302992
0.30299
0.302013
0.140993
0.141285
0.302011
0.302991
0.302992
0.302992
0.302992
0.302992
0.302992
0.302992
0.302992
0.302992
0.302992
0.302992
0.302992
0.302992
0.302992
0.302992
0.302992
0.302992
0.302992
0.302992
0.302992
0.302992
0.302992
0.302992
0.302992
0.302992
0.30299
0.302014
0.141051
0.141202
0.30201
0.302991
0.302992
0.302992
0.302992
0.302992
0.302992
0.302992
0.302992
0.302992
0.302992
0.302992
0.302992
0.302992
0.302992
0.302992
0.302992
0.302992
0.302992
0.302992
0.302992
0.302992
0.302992
0.302992
0.302992
0.302992
0.302991
0.302099
0.141104
0.115099
0.115309
0.11552
0.11573
0.11594
0.116151
0.116361
0.116571
0.116782
0.116992
0.117203
0.117413
0.117623
0.117834
0.118044
0.118255
0.118465
0.118675
0.118886
0.119096
0.119307
0.119517
0.119727
0.119938
0.120148
0.120358
0.120569
0.120779
0.12099
0.1212
0.12141
0.121621
0.121831
0.122042
0.122252
0.122462
0.122673
0.122883
0.123094
0.123304
0.123514
0.123725
0.123935
0.124145
0.124356
0.124566
0.124777
0.124987
0.125197
0.125408
0.125618
0.125829
0.126039
0.126249
0.12646
0.12667
0.126881
0.127091
0.127301
0.127512
0.127722
0.127933
0.128143
0.128353
0.128564
0.128774
0.128984
0.129195
0.129405
0.129616
0.129826
0.130036
0.130247
0.130457
0.130668
0.130878
0.131088
0.131299
0.131509
0.13172
0.13193
0.13214
0.132351
0.132561
0.132772
0.132982
0.133192
0.133403
0.133613
0.133824
0.134034
0.134244
0.134455
0.134665
0.134876
0.135086
0.135296
0.135507
0.135717
0.135928
0.136138
0.136348
0.136559
0.136769
0.13698
0.13719
0.1374
0.137611
0.137821
0.138031
0.138242
0.138452
0.138663
0.138873
0.139083
0.139294
0.139504
0.139715
0.139925
0.140135
0.140346
0.140556
0.140767
0.140977
0.141187
0.301018
0.301034
0.301046
0.301058
0.301069
0.30108
0.301092
0.301103
0.301114
0.301125
0.301136
0.301147
0.301158
0.301169
0.301179
0.30119
0.3012
0.301211
0.301221
0.301231
0.301242
0.301252
0.301262
0.301272
0.301282
0.301292
0.301302
0.301311
0.301321
0.301331
0.30134
0.30135
0.301359
0.301368
0.301378
0.301387
0.301396
0.301405
0.301414
0.301423
0.301432
0.301441
0.30145
0.301458
0.301467
0.301475
0.301484
0.301493
0.301501
0.301509
0.301518
0.301526
0.301534
0.301542
0.30155
0.301558
0.301566
0.301574
0.301582
0.30159
0.301598
0.301606
0.301613
0.301621
0.301628
0.301636
0.301643
0.301651
0.301658
0.301666
0.301673
0.30168
0.301687
0.301694
0.301701
0.301709
0.301716
0.301722
0.301729
0.301736
0.301743
0.30175
0.301757
0.301763
0.30177
0.301777
0.301783
0.30179
0.301796
0.301803
0.301809
0.301815
0.301822
0.301828
0.301834
0.30184
0.301847
0.301853
0.301859
0.301865
0.301871
0.301877
0.301883
0.301889
0.301895
0.3019
0.301906
0.301912
0.301918
0.301923
0.301929
0.301935
0.30194
0.301946
0.301951
0.301957
0.301962
0.301967
0.301973
0.301978
0.301984
0.301989
0.301994
0.301999
0.302006
0.302986
0.302986
0.302987
0.302987
0.302987
0.302987
0.302987
0.302987
0.302987
0.302987
0.302987
0.302987
0.302987
0.302987
0.302987
0.302987
0.302987
0.302987
0.302987
0.302987
0.302987
0.302988
0.302988
0.302988
0.302988
0.302988
0.302988
0.302988
0.302988
0.302988
0.302988
0.302988
0.302988
0.302988
0.302988
0.302988
0.302988
0.302988
0.302988
0.302988
0.302988
0.302988
0.302988
0.302988
0.302988
0.302989
0.302989
0.302989
0.302989
0.302989
0.302989
0.302989
0.302989
0.302989
0.302989
0.302989
0.302989
0.302989
0.302989
0.302989
0.302989
0.302989
0.302989
0.302989
0.302989
0.302989
0.302989
0.302989
0.302989
0.302989
0.302989
0.302989
0.302989
0.302989
0.302989
0.302989
0.30299
0.30299
0.30299
0.30299
0.30299
0.30299
0.30299
0.30299
0.30299
0.30299
0.30299
0.30299
0.30299
0.30299
0.30299
0.30299
0.30299
0.30299
0.30299
0.30299
0.30299
0.30299
0.30299
0.30299
0.30299
0.30299
0.30299
0.30299
0.30299
0.30299
0.30299
0.30299
0.30299
0.30299
0.30299
0.30299
0.30299
0.30299
0.30299
0.30299
0.30299
0.30299
0.30299
0.30299
0.30299
0.30299
0.30299
0.302991
0.302991
0.302992
0.302992
0.302992
0.302992
0.302992
0.302992
0.302992
0.302992
0.302992
0.302992
0.302992
0.302992
0.302992
0.302992
0.302992
0.302992
0.302992
0.302992
0.302992
0.302992
0.302992
0.302992
0.302992
0.302992
0.302992
0.302992
0.302992
0.302992
0.302992
0.302992
0.302992
0.302992
0.302992
0.302992
0.302992
0.302992
0.302992
0.302992
0.302992
0.302992
0.302992
0.302992
0.302992
0.302992
0.302992
0.302992
0.302992
0.302992
0.302992
0.302992
0.302992
0.302992
0.302992
0.302992
0.302992
0.302992
0.302992
0.302992
0.302992
0.302992
0.302992
0.302992
0.302992
0.302992
0.302992
0.302992
0.302992
0.302992
0.302992
0.302992
0.302992
0.302992
0.302992
0.302992
0.302992
0.302992
0.302992
0.302992
0.302992
0.302992
0.302992
0.302992
0.302992
0.302992
0.302992
0.302992
0.302992
0.302992
0.302992
0.302992
0.302992
0.302992
0.302992
0.302992
0.302992
0.302992
0.302992
0.302992
0.302992
0.302992
0.302992
0.302992
0.302992
0.302992
0.302992
0.302992
0.302992
0.302992
0.302992
0.302992
0.302992
0.302992
0.302992
0.302992
0.302992
0.302992
0.302992
0.302992
0.302992
0.302992
0.302992
0.302992
0.302992
0.302992
0.302992
0.302992
0.302992
0.302992
0.302992
0.302992