/*--------------------------------*- C++ -*----------------------------------*\
| =========                 |                                                 |
| \\      /  F ield         | OpenFOAM: The Open Source CFD Toolbox           |
|  \\    /   O peration     | Version:  2112                                  |
|   \\  /    A nd           | Website:  www.openfoam.com                      |
|    \\/     M anipulation  |                                                 |
\*---------------------------------------------------------------------------*/
FoamFile
{
    version     2.0;
    format      ascii;
    arch        "LSB;label=32;scalar=64";
    class       volScalarField;
    location    "3e-05";
    object      epsilon;
}
// * * * * * * * * * * * * * * * * * * * * * * * * * * * * * * * * * * * * * //

dimensions      [0 2 -3 0 0 0 0];

internalField   nonuniform List<scalar> 
13875
(
1.51118e+08
1.13991e+09
1.39327e+09
1.49964e+09
1.52895e+09
1.53622e+09
1.53771e+09
1.53794e+09
1.53793e+09
1.53788e+09
1.53782e+09
1.53777e+09
1.53772e+09
1.53771e+09
1.5377e+09
1.53767e+09
1.53764e+09
1.53759e+09
1.53731e+09
1.53583e+09
1.52865e+09
1.49953e+09
1.39343e+09
1.14028e+09
1.53308e+08
6.76523e+07
4.293e+08
5.15757e+08
5.49506e+08
5.57983e+08
5.59888e+08
5.60242e+08
5.60282e+08
5.60272e+08
5.60252e+08
5.60231e+08
5.6021e+08
5.60195e+08
5.6019e+08
5.60184e+08
5.60177e+08
5.60172e+08
5.60161e+08
5.60095e+08
5.59731e+08
5.57849e+08
5.49435e+08
5.15824e+08
4.29512e+08
6.89148e+07
2.20523e+07
1.80581e+08
2.10904e+08
2.22018e+08
2.24272e+08
2.24723e+08
2.24789e+08
2.24789e+08
2.2478e+08
2.2477e+08
2.2476e+08
2.2475e+08
2.24743e+08
2.24743e+08
2.24741e+08
2.24738e+08
2.24736e+08
2.24735e+08
2.24726e+08
2.24654e+08
2.24207e+08
2.21968e+08
2.10862e+08
1.80584e+08
2.19239e+07
7.53501e+06
6.33734e+07
7.27677e+07
7.54796e+07
7.59392e+07
7.60222e+07
7.60301e+07
7.6028e+07
7.60241e+07
7.60194e+07
7.60152e+07
7.60116e+07
7.6009e+07
7.60088e+07
7.60081e+07
7.60066e+07
7.60053e+07
7.60055e+07
7.60057e+07
7.59971e+07
7.59139e+07
7.54571e+07
7.27585e+07
6.33351e+07
7.47517e+06
2.13341e+06
7.97537e+06
9.10443e+06
9.36478e+06
9.40574e+06
9.41273e+06
9.41317e+06
9.41295e+06
9.41252e+06
9.41189e+06
9.41133e+06
9.41079e+06
9.41034e+06
9.41013e+06
9.40981e+06
9.40945e+06
9.40909e+06
9.4089e+06
9.40885e+06
9.40829e+06
9.40118e+06
9.36015e+06
9.10273e+06
7.96632e+06
2.12913e+06
1.50399e+06
340645
327854
329063
329289
329328
329329
329328
329325
329321
329317
329312
329308
329304
329300
329296
329291
329287
329285
329281
329242
329012
327827
340421
1.50406e+06
1.49297e+06
283799
262479
262141
262137
262137
262137
262137
262137
262137
262137
262137
262137
262137
262137
262137
262137
262137
262137
262137
262137
262141
262492
284301
1.49287e+06
1.48968e+06
284317
262333
261976
261972
261972
261972
261972
261972
261972
261972
261972
261972
261972
261972
261972
261972
261972
261972
261972
261972
261976
262334
284354
1.48953e+06
1.4878e+06
285896
262374
261976
261971
261971
261971
261971
261971
261971
261971
261971
261971
261971
261971
261971
261971
261971
261971
261971
261971
261976
262369
285661
1.4881e+06
1.61035e+06
293142
262692
261984
261971
261971
261971
261971
261971
261971
261971
261971
261971
261971
261971
261971
261971
261971
261971
261971
261971
261984
262686
293004
1.60459e+06
1.81958e+06
303221
263255
262000
261971
261971
261971
261971
261971
261971
261971
261971
261971
261971
261971
261971
261971
261971
261971
261971
261971
262003
263338
304761
1.84209e+06
1.99622e+06
313202
263857
262021
261972
261971
261971
261971
261971
261971
261971
261971
261971
261971
261971
261971
261971
261971
261971
261971
261972
262020
263842
312933
1.99997e+06
2.15065e+06
323574
264507
262046
261973
261971
261971
261971
261971
261971
261971
261971
261971
261971
261971
261971
261971
261971
261971
261971
261973
262041
264397
321859
2.14064e+06
2.27302e+06
332355
265054
262069
261974
261971
261971
261971
261971
261971
261971
261971
261971
261971
261971
261971
261971
261971
261971
261971
261973
262059
264801
329121
2.22123e+06
2.33593e+06
339600
265446
262088
261974
261971
261971
261971
261971
261971
261971
261971
261971
261971
261971
261971
261971
261971
261971
261971
261975
262107
265833
344492
2.3736e+06
2.50973e+06
354997
266591
262145
261976
261971
261971
261971
261971
261971
261971
261971
261971
261971
261971
261971
261971
261971
261971
261971
261977
262161
266898
358259
2.55334e+06
2.50712e+06
353934
266216
262122
261975
261971
261971
261971
261971
261971
261971
261971
261971
261971
261971
261971
261971
261971
261971
261971
261975
262115
266088
352243
2.50256e+06
2.47564e+06
350232
265766
262098
261974
261971
261971
261971
261971
261971
261971
261971
261971
261971
261971
261971
261971
261971
261971
261971
261974
262097
265766
350432
2.46759e+06
2.51558e+06
370587
267367
262172
261976
261971
261971
261971
261971
261971
261971
261971
261971
261971
261971
261971
261971
261971
261971
261971
261975
262146
266892
365162
2.48532e+06
2.5417e+06
387706
269195
262276
261979
261971
261971
261971
261971
261971
261971
261971
261971
261971
261971
261971
261971
261971
261971
261971
261980
262287
269379
389646
2.56517e+06
2.3243e+06
365903
267318
262171
261976
261971
261971
261971
261971
261971
261971
261971
261971
261971
261971
261971
261971
261971
261971
261971
261977
262198
267804
371338
2.35934e+06
2.13519e+06
344625
265608
262086
261973
261971
261971
261971
261971
261971
261971
261971
261971
261971
261971
261971
261971
261971
261971
261971
261973
262093
265738
346154
2.1393e+06
1.97427e+06
328155
264452
262037
261972
261971
261971
261971
261971
261971
261971
261971
261971
261971
261971
261971
261971
261971
261971
261971
261972
262032
264329
326189
1.9585e+06
1.83697e+06
314387
263627
262008
261971
261971
261971
261971
261971
261971
261971
261971
261971
261971
261971
261971
261971
261971
261971
261971
261971
262008
263636
314598
1.84134e+06
1.75712e+06
307741
263287
261997
261971
261971
261971
261971
261971
261971
261971
261971
261971
261971
261971
261971
261971
261971
261971
261971
261971
261998
263313
308241
1.75958e+06
1.67588e+06
302030
263021
261990
261971
261971
261971
261971
261971
261971
261971
261971
261971
261971
261971
261971
261971
261971
261971
261971
261971
261989
262980
301121
1.66858e+06
1.5978e+06
296176
262773
261984
261971
261971
261971
261971
261971
261971
261971
261971
261971
261971
261971
261971
261971
261971
261971
261971
261971
261985
262812
297110
1.60744e+06
1.54368e+06
292832
262646
261981
261971
261971
261971
261971
261971
261971
261971
261971
261971
261971
261971
261971
261971
261971
261971
261971
261971
261981
262648
292889
1.54081e+06
1.48843e+06
289862
262538
261979
261971
261971
261971
261971
261971
261971
261971
261971
261971
261971
261971
261971
261971
261971
261971
261971
261971
261978
262498
288739
1.47959e+06
1.4279e+06
285737
262400
261976
261971
261971
261971
261971
261971
261971
261971
261971
261971
261971
261971
261971
261971
261971
261971
261971
261971
261977
262432
286723
1.43862e+06
1.39264e+06
283805
262342
261975
261971
261971
261971
261971
261971
261971
261971
261971
261971
261971
261971
261971
261971
261971
261971
261971
261971
261975
262339
283714
1.38877e+06
1.35881e+06
282420
262303
261974
261971
261971
261971
261971
261971
261971
261971
261971
261971
261971
261971
261971
261971
261971
261971
261971
261971
261974
262285
281793
1.35428e+06
1.31879e+06
280019
262237
261973
261971
261971
261971
261971
261971
261971
261971
261971
261971
261971
261971
261971
261971
261971
261971
261971
261971
261974
262251
280545
1.32411e+06
1.2947e+06
278868
262208
261973
261971
261971
261971
261971
261971
261971
261971
261971
261971
261971
261971
261971
261971
261971
261971
261971
261971
261973
262204
278719
1.29171e+06
1.27207e+06
278143
262192
261973
261971
261971
261971
261971
261971
261971
261971
261971
261971
261971
261971
261971
261971
261971
261971
261971
261971
261973
262182
277725
1.26964e+06
1.24417e+06
276582
262155
261972
261971
261971
261971
261971
261971
261971
261971
261971
261971
261971
261971
261971
261971
261971
261971
261971
261971
261972
262166
277055
1.24849e+06
1.22697e+06
275842
262139
261972
261971
261971
261971
261971
261971
261971
261971
261971
261971
261971
261971
261971
261971
261971
261971
261971
261971
261972
262137
275756
1.22496e+06
1.21094e+06
275414
262131
261972
261971
261971
261971
261971
261971
261971
261971
261971
261971
261971
261971
261971
261971
261971
261971
261971
261971
261972
262124
275080
1.20926e+06
1.19155e+06
274337
262108
261972
261971
261971
261971
261971
261971
261971
261971
261971
261971
261971
261971
261971
261971
261971
261971
261971
261971
261972
262116
274727
1.19464e+06
1.1794e+06
273845
262099
261972
261971
261971
261971
261971
261971
261971
261971
261971
261971
261971
261971
261971
261971
261971
261971
261971
261971
261972
262098
273789
1.17806e+06
1.16827e+06
273605
262095
261972
261971
261971
261971
261971
261971
261971
261971
261971
261971
261971
261971
261971
261971
261971
261971
261971
261971
261972
262089
273319
1.16708e+06
1.1551e+06
272835
262081
261971
261971
261971
261971
261971
261971
261971
261971
261971
261971
261971
261971
261971
261971
261971
261971
261971
261971
261972
262086
273142
1.15707e+06
1.14681e+06
272501
262075
261971
261971
261971
261971
261971
261971
261971
261971
261971
261971
261971
261971
261971
261971
261971
261971
261971
261971
261971
262074
272475
1.14605e+06
1.13939e+06
272381
262073
261971
261971
261971
261971
261971
261971
261971
261971
261971
261971
261971
261971
261971
261971
261971
261971
261971
261971
261971
262069
272142
1.13862e+06
1.13098e+06
271825
262063
261971
261971
261971
261971
261971
261971
261971
261971
261971
261971
261971
261971
261971
261971
261971
261971
261971
261971
261971
262067
272048
1.13202e+06
1.12573e+06
271601
262060
261971
261971
261971
261971
261971
261971
261971
261971
261971
261971
261971
261971
261971
261971
261971
261971
261971
261971
261971
262060
271606
1.12541e+06
1.12117e+06
271558
262059
261971
261971
261971
261971
261971
261971
261971
261971
261971
261971
261971
261971
261971
261971
261971
261971
261971
261971
261971
262056
271363
1.12077e+06
1.11646e+06
271161
262053
261971
261971
261971
261971
261971
261971
261971
261971
261971
261971
261971
261971
261971
261971
261971
261971
261971
261971
261971
262055
271312
1.11688e+06
1.11356e+06
271013
262051
261971
261971
261971
261971
261971
261971
261971
261971
261971
261971
261971
261971
261971
261971
261971
261971
261971
261971
261971
262052
271063
1.11352e+06
1.11129e+06
270972
262050
261971
261971
261971
261971
261971
261971
261971
261971
261971
261971
261971
261971
261971
261971
261971
261971
261971
261971
261971
262049
270901
1.11122e+06
566870
263822
262050
262040
262039
262038
262037
262036
262035
262034
262033
262032
262031
262030
262029
262028
262028
262027
262026
262025
262024
262024
262023
262022
262022
262021
262020
262021
262581
499178
598706
263065
261978
261971
261971
261971
261971
261971
261971
261971
261971
261971
261971
261971
261971
261971
261971
261971
261971
261971
261971
261971
261971
261971
261971
261971
261971
261972
262586
503975
572403
262762
261975
261971
261971
261971
261971
261971
261971
261971
261971
261971
261971
261971
261971
261971
261971
261971
261971
261971
261971
261971
261971
261971
261971
261971
261971
261972
262606
508685
558082
262771
261974
261971
261971
261971
261971
261971
261971
261971
261971
261971
261971
261971
261971
261971
261971
261971
261971
261971
261971
261971
261971
261971
261971
261971
261971
261972
262622
512749
558648
262821
261974
261971
261971
261971
261971
261971
261971
261971
261971
261971
261971
261971
261971
261971
261971
261971
261971
261971
261971
261971
261971
261971
261971
261971
261971
261972
262638
516501
559705
262825
261974
261971
261971
261971
261971
261971
261971
261971
261971
261971
261971
261971
261971
261971
261971
261971
261971
261971
261971
261971
261971
261971
261971
261971
261971
261972
262655
520138
559449
262816
261974
261971
261971
261971
261971
261971
261971
261971
261971
261971
261971
261971
261971
261971
261971
261971
261971
261971
261971
261971
261971
261971
261971
261971
261971
261972
262672
523628
557707
262803
261974
261971
261971
261971
261971
261971
261971
261971
261971
261971
261971
261971
261971
261971
261971
261971
261971
261971
261971
261971
261971
261971
261971
261971
261971
261972
262687
526900
555949
262796
261973
261971
261971
261971
261971
261971
261971
261971
261971
261971
261971
261971
261971
261971
261971
261971
261971
261971
261971
261971
261971
261971
261971
261971
261971
261972
262701
529908
554770
262795
261973
261971
261971
261971
261971
261971
261971
261971
261971
261971
261971
261971
261971
261971
261971
261971
261971
261971
261971
261971
261971
261971
261971
261971
261971
261972
262714
532658
554250
262797
261973
261971
261971
261971
261971
261971
261971
261971
261971
261971
261971
261971
261971
261971
261971
261971
261971
261971
261971
261971
261971
261971
261971
261971
261971
261972
262725
535175
554149
262799
261973
261971
261971
261971
261971
261971
261971
261971
261971
261971
261971
261971
261971
261971
261971
261971
261971
261971
261971
261971
261971
261971
261971
261971
261971
261972
262736
537490
554153
262801
261973
261971
261971
261971
261971
261971
261971
261971
261971
261971
261971
261971
261971
261971
261971
261971
261971
261971
261971
261971
261971
261971
261971
261971
261971
261972
262747
539617
554338
262803
261973
261971
261971
261971
261971
261971
261971
261971
261971
261971
261971
261971
261971
261971
261971
261971
261971
261971
261971
261971
261971
261971
261971
261971
261971
261972
262756
541571
554173
262803
261973
261971
261971
261971
261971
261971
261971
261971
261971
261971
261971
261971
261971
261971
261971
261971
261971
261971
261971
261971
261971
261971
261971
261971
261971
261972
262765
543344
554339
262805
261973
261971
261971
261971
261971
261971
261971
261971
261971
261971
261971
261971
261971
261971
261971
261971
261971
261971
261971
261971
261971
261971
261971
261971
261971
261972
262772
544944
554357
262805
261973
261971
261971
261971
261971
261971
261971
261971
261971
261971
261971
261971
261971
261971
261971
261971
261971
261971
261971
261971
261971
261971
261971
261971
261971
261972
262779
546382
554256
262806
261973
261971
261971
261971
261971
261971
261971
261971
261971
261971
261971
261971
261971
261971
261971
261971
261971
261971
261971
261971
261971
261971
261971
261971
261971
261972
262785
547654
554304
262807
261973
261971
261971
261971
261971
261971
261971
261971
261971
261971
261971
261971
261971
261971
261971
261971
261971
261971
261971
261971
261971
261971
261971
261971
261971
261972
262791
548770
554176
262807
261973
261971
261971
261971
261971
261971
261971
261971
261971
261971
261971
261971
261971
261971
261971
261971
261971
261971
261971
261971
261971
261971
261971
261971
261971
261972
262795
549738
554028
262807
261973
261971
261971
261971
261971
261971
261971
261971
261971
261971
261971
261971
261971
261971
261971
261971
261971
261971
261971
261971
261971
261971
261971
261971
261971
261972
262799
550557
553922
262807
261973
261971
261971
261971
261971
261971
261971
261971
261971
261971
261971
261971
261971
261971
261971
261971
261971
261971
261971
261971
261971
261971
261971
261971
261971
261972
262802
551242
553635
262806
261972
261971
261971
261971
261971
261971
261971
261971
261971
261971
261971
261971
261971
261971
261971
261971
261971
261971
261971
261971
261971
261971
261971
261971
261971
261972
262805
551796
553382
262805
261972
261971
261971
261971
261971
261971
261971
261971
261971
261971
261971
261971
261971
261971
261971
261971
261971
261971
261971
261971
261971
261971
261971
261971
261971
261972
262806
552222
553130
262730
261972
261971
261971
261971
261971
261971
261971
261971
261971
261971
261971
261971
261971
261971
261971
261971
261971
261971
261971
261971
261971
261971
261971
261971
261971
261972
262807
552537
499180
262581
262021
262020
262021
262022
262022
262023
262024
262024
262025
262026
262027
262028
262028
262029
262030
262031
262032
262033
262034
262035
262036
262037
262038
262039
262040
262050
263824
567022
503977
262586
261972
261971
261971
261971
261971
261971
261971
261971
261971
261971
261971
261971
261971
261971
261971
261971
261971
261971
261971
261971
261971
261971
261971
261971
261971
261978
263064
598627
508692
262606
261972
261971
261971
261971
261971
261971
261971
261971
261971
261971
261971
261971
261971
261971
261971
261971
261971
261971
261971
261971
261971
261971
261971
261971
261971
261975
262762
572533
512752
262622
261972
261971
261971
261971
261971
261971
261971
261971
261971
261971
261971
261971
261971
261971
261971
261971
261971
261971
261971
261971
261971
261971
261971
261971
261971
261974
262770
557901
516499
262638
261972
261971
261971
261971
261971
261971
261971
261971
261971
261971
261971
261971
261971
261971
261971
261971
261971
261971
261971
261971
261971
261971
261971
261971
261971
261974
262822
558575
520141
262655
261972
261971
261971
261971
261971
261971
261971
261971
261971
261971
261971
261971
261971
261971
261971
261971
261971
261971
261971
261971
261971
261971
261971
261971
261971
261974
262826
559961
523627
262672
261972
261971
261971
261971
261971
261971
261971
261971
261971
261971
261971
261971
261971
261971
261971
261971
261971
261971
261971
261971
261971
261971
261971
261971
261971
261974
262814
559108
526897
262687
261972
261971
261971
261971
261971
261971
261971
261971
261971
261971
261971
261971
261971
261971
261971
261971
261971
261971
261971
261971
261971
261971
261971
261971
261971
261974
262805
557893
529909
262701
261972
261971
261971
261971
261971
261971
261971
261971
261971
261971
261971
261971
261971
261971
261971
261971
261971
261971
261971
261971
261971
261971
261971
261971
261971
261973
262796
555925
532655
262713
261972
261971
261971
261971
261971
261971
261971
261971
261971
261971
261971
261971
261971
261971
261971
261971
261971
261971
261971
261971
261971
261971
261971
261971
261971
261973
262796
554691
535177
262725
261972
261971
261971
261971
261971
261971
261971
261971
261971
261971
261971
261971
261971
261971
261971
261971
261971
261971
261971
261971
261971
261971
261971
261971
261971
261973
262798
554433
537491
262736
261972
261971
261971
261971
261971
261971
261971
261971
261971
261971
261971
261971
261971
261971
261971
261971
261971
261971
261971
261971
261971
261971
261971
261971
261971
261973
262798
554000
539615
262747
261972
261971
261971
261971
261971
261971
261971
261971
261971
261971
261971
261971
261971
261971
261971
261971
261971
261971
261971
261971
261971
261971
261971
261971
261971
261973
262802
554177
541571
262756
261972
261971
261971
261971
261971
261971
261971
261971
261971
261971
261971
261971
261971
261971
261971
261971
261971
261971
261971
261971
261971
261971
261971
261971
261971
261973
262803
554357
543345
262765
261972
261971
261971
261971
261971
261971
261971
261971
261971
261971
261971
261971
261971
261971
261971
261971
261971
261971
261971
261971
261971
261971
261971
261971
261971
261973
262802
554188
544943
262772
261972
261971
261971
261971
261971
261971
261971
261971
261971
261971
261971
261971
261971
261971
261971
261971
261971
261971
261971
261971
261971
261971
261971
261971
261971
261973
262805
554289
546381
262779
261972
261971
261971
261971
261971
261971
261971
261971
261971
261971
261971
261971
261971
261971
261971
261971
261971
261971
261971
261971
261971
261971
261971
261971
261971
261973
262806
554402
547656
262785
261972
261971
261971
261971
261971
261971
261971
261971
261971
261971
261971
261971
261971
261971
261971
261971
261971
261971
261971
261971
261971
261971
261971
261971
261971
261973
262805
554268
548768
262791
261972
261971
261971
261971
261971
261971
261971
261971
261971
261971
261971
261971
261971
261971
261971
261971
261971
261971
261971
261971
261971
261971
261971
261971
261971
261973
262807
554240
549736
262795
261972
261971
261971
261971
261971
261971
261971
261971
261971
261971
261971
261971
261971
261971
261971
261971
261971
261971
261971
261971
261971
261971
261971
261971
261971
261973
262807
554228
550559
262799
261972
261971
261971
261971
261971
261971
261971
261971
261971
261971
261971
261971
261971
261971
261971
261971
261971
261971
261971
261971
261971
261971
261971
261971
261971
261973
262807
554036
551240
262802
261972
261971
261971
261971
261971
261971
261971
261971
261971
261971
261971
261971
261971
261971
261971
261971
261971
261971
261971
261971
261971
261971
261971
261971
261971
261972
262807
553858
551794
262805
261972
261971
261971
261971
261971
261971
261971
261971
261971
261971
261971
261971
261971
261971
261971
261971
261971
261971
261971
261971
261971
261971
261971
261971
261971
261972
262806
553690
552224
262806
261972
261971
261971
261971
261971
261971
261971
261971
261971
261971
261971
261971
261971
261971
261971
261971
261971
261971
261971
261971
261971
261971
261971
261971
261971
261972
262805
553379
552538
262807
261972
261971
261971
261971
261971
261971
261971
261971
261971
261971
261971
261971
261971
261971
261971
261971
261971
261971
261971
261971
261971
261971
261971
261971
261971
261972
262730
553121
672886
671707
670532
669361
668194
667031
665872
664718
663567
662420
661277
660138
659003
657872
656745
655622
654502
653387
652275
651167
650062
648962
647865
646772
645682
644596
643514
642435
641361
640289
639221
638157
637096
636039
634986
633935
632889
631845
630805
629769
628736
627706
626680
625657
624638
623621
622608
621599
620592
619589
618589
617592
616599
615609
614621
613637
612657
611679
610704
609733
608764
607799
606837
605878
604921
603968
603018
602071
601127
600185
599247
598312
597379
596450
595523
594599
593678
592760
591845
590932
590023
589116
588212
587310
586412
585516
584623
583733
582845
581960
581078
580198
579321
578447
577575
576706
575840
574976
574115
573256
572400
571547
570696
569847
569001
568158
567317
566478
565642
564809
563978
563149
562323
561499
560678
559859
559042
558228
557416
556607
555800
554995
554192
553392
552594
263657
263643
263633
263623
263613
263604
263594
263584
263575
263565
263556
263546
263537
263528
263519
263510
263501
263492
263483
263474
263465
263456
263448
263439
263431
263422
263414
263405
263397
263389
263381
263373
263365
263357
263349
263341
263333
263325
263317
263310
263302
263294
263287
263279
263272
263265
263257
263250
263243
263236
263229
263221
263214
263207
263200
263194
263187
263180
263173
263166
263160
263153
263147
263140
263134
263127
263121
263114
263108
263102
263096
263089
263083
263077
263071
263065
263059
263053
263047
263041
263035
263030
263024
263018
263012
263007
263001
262996
262990
262985
262979
262974
262968
262963
262958
262952
262947
262942
262937
262931
262926
262921
262916
262911
262906
262901
262896
262891
262886
262881
262877
262872
262867
262862
262858
262853
262848
262844
262839
262834
262830
262825
262821
262816
262811
261976
261976
261976
261976
261976
261976
261976
261976
261975
261975
261975
261975
261975
261975
261975
261975
261975
261975
261975
261975
261975
261975
261975
261975
261975
261975
261975
261975
261975
261975
261975
261975
261974
261974
261974
261974
261974
261974
261974
261974
261974
261974
261974
261974
261974
261974
261974
261974
261974
261974
261974
261974
261974
261974
261974
261974
261974
261974
261974
261974
261974
261974
261974
261974
261974
261974
261973
261973
261973
261973
261973
261973
261973
261973
261973
261973
261973
261973
261973
261973
261973
261973
261973
261973
261973
261973
261973
261973
261973
261973
261973
261973
261973
261973
261973
261973
261973
261973
261973
261973
261973
261973
261973
261973
261973
261973
261973
261973
261973
261973
261973
261973
261973
261973
261973
261973
261972
261972
261972
261972
261972
261972
261972
261972
261972
261971
261971
261971
261971
261971
261971
261971
261971
261971
261971
261971
261971
261971
261971
261971
261971
261971
261971
261971
261971
261971
261971
261971
261971
261971
261971
261971
261971
261971
261971
261971
261971
261971
261971
261971
261971
261971
261971
261971
261971
261971
261971
261971
261971
261971
261971
261971
261971
261971
261971
261971
261971
261971
261971
261971
261971
261971
261971
261971
261971
261971
261971
261971
261971
261971
261971
261971
261971
261971
261971
261971
261971
261971
261971
261971
261971
261971
261971
261971
261971
261971
261971
261971
261971
261971
261971
261971
261971
261971
261971
261971
261971
261971
261971
261971
261971
261971
261971
261971
261971
261971
261971
261971
261971
261971
261971
261971
261971
261971
261971
261971
261971
261971
261971
261971
261971
261971
261971
261971
261971
261971
261971
261971
261971
261971
261971
261971
261971
261971
261971
261971
261971
261971
261971
261971
261971
261971
261971
261971
261971
261971
261971
261971
261971
261971
261971
261971
261971
261971
261971
261971
261971
261971
261971
261971
261971
261971
261971
261971
261971
261971
261971
261971
261971
261971
261971
261971
261971
261971
261971
261971
261971
261971
261971
261971
261971
261971
261971
261971
261971
261971
261971
261971
261971
261971
261971
261971
261971
261971
261971
261971
261971
261971
261971
261971
261971
261971
261971
261971
261971
261971
261971
261971
261971
261971
261971
261971
261971
261971
261971
261971
261971
261971
261971
261971
261971
261971
261971
261971
261971
261971
261971
261971
261971
261971
261971
261971
261971
261971
261971
261971
261971
261971
261971
261971
261971
261971
261971
261971
261971
261971
261971
261971
261971
261971
261971
261971
261971
261971
261971
261971
261971
261971
261971
261971
261971
261971
261971
261971
261971
261971
261971
261971
261971
261971
261971
261971
261971
261971
261971
261971
261971
261971
261971
261971
261971
261971
261971
261971
261971
261971
261971
261971
261971
261971
261971
261971
261971
261971
261971
261971
261971
261971
261971
261971
261971
261971
261971
261971
261971
261971
261971
261971
261971
261971
261971
261971
261971
261971
261971
261971
261971
261971
261971
261971
261971
261971
261971
261971
261971
261971
261971
261971
261971
261971
261971
261971
261971
261971
261971
261971
261971
261971
261971
261971
261971
261971
261971
261971
261971
261971
261971
261971
261971
261971
261971
261971
261971
261971
261971
261971
261971
261971
261971
261971
261971
261971
261971
261971
261971
261971
261971
261971
261971
261971
261971
261971
261971
261971
261971
261971
261971
261971
261971
261971
261971
261971
261971
261971
261971
261971
261971
261971
261971
261971
261971
261971
261971
261971
261971
261971
261971
261971
261971
261971
261971
261971
261971
261971
261971
261971
261971
261971
261971
261971
261971
261971
261971
261971
261971
261971
261971
261971
261971
261971
261971
261971
261971
261971
261971
261971
261971
261971
261971
261971
261971
261971
261971
261971
261971
261971
261971
261971
261971
261971
261971
261971
261971
261971
261971
261971
261971
261971
261971
261971
261971
261971
261971
261971
261971
261971
261971
261971
261971
261971
261971
261971
261971
261971
261971
261971
261971
261971
261971
261971
261971
261971
261971
261971
261971
261971
261971
261971
261971
261971
261971
261971
261971
261971
261971
261971
261971
261971
261971
261971
261971
261971
261971
261971
261971
261971
261971
261971
261971
261971
261971
261971
261971
261971
261971
261971
261971
261971
261971
261971
261971
261971
261971
261971
261971
261971
261971
261971
261971
261971
261971
261971
261971
261971
261971
261971
261971
261971
261971
261971
261971
261971
261971
261971
261971
261971
261971
261971
261971
261971
261971
261971
261971
261971
261971
261971
261971
261971
261971
261971
261971
261971
261971
261971
261971
261971
261971
261971
261971
261971
261971
261971
261971
261971
261971
261971
261971
261971
261971
261971
261971
261971
261971
261971
261971
261971
261971
261971
261971
261971
261971
261971
261971
261971
261971
261971
261971
261971
261971
261971
261971
261971
261971
261971
261971
261971
261971
261971
261971
261971
261971
261971
261971
261971
261971
261971
261971
261971
261971
261971
261971
261971
261971
261971
261971
261971
261971
261971
261971
261971
261971
261971
261971
261971
261971
261971
261971
261971
261971
261971
261971
261971
261971
261971
261971
261971
261971
261971
261971
261971
261971
261971
261971
261971
261971
261971
261971
261971
261971
261971
261971
261971
261971
261971
261971
261971
261971
261971
261971
261971
261971
261971
261971
261971
261971
261971
261971
261971
261971
261971
261971
261971
261971
261971
261971
261971
261971
261971
261971
261971
261971
261971
261971
261971
261971
261971
261971
261971
261971
261971
261971
261971
261971
261971
261971
261971
261971
261971
261971
261971
261971
261971
261971
261971
261971
261971
261971
261971
261971
261971
261971
261971
261971
261971
261971
261971
261971
261971
261971
261971
261971
261971
261971
261971
261971
261971
261971
261971
261971
261971
261971
261971
261971
261971
261971
261971
261971
261971
261971
261971
261971
261971
261971
261971
261971
261971
261971
261971
261971
261971
261971
261971
261971
261971
261971
261971
261971
261971
261971
261971
261971
261971
261971
261971
261971
261971
261971
261971
261971
261971
261971
261971
261971
261971
261971
261971
261971
261971
261971
261971
261971
261971
261971
261971
261971
261971
261971
261971
261971
261971
261971
261971
261971
261971
261971
261971
261971
261971
261971
261971
261971
261971
261971
261971
261971
261971
261971
261971
261971
261971
261971
261971
261971
261971
261971
261971
261971
261971
261971
261971
261971
261971
261971
261971
261971
261971
261971
261971
261971
261971
261971
261971
261971
261971
261971
261971
261971
261971
261971
261971
261971
261971
261971
261971
261971
261971
261971
261971
261971
261971
261971
261971
261971
261971
261971
261971
261971
261971
261971
261971
261971
261971
261971
261971
261971
261971
261971
261971
261971
261971
261971
261971
261971
261971
261971
261971
261971
261971
261971
261971
261971
261971
261971
261971
261971
261971