/*--------------------------------*- C++ -*----------------------------------*\
| =========                 |                                                 |
| \\      /  F ield         | OpenFOAM: The Open Source CFD Toolbox           |
|  \\    /   O peration     | Version:  2112                                  |
|   \\  /    A nd           | Website:  www.openfoam.com                      |
|    \\/     M anipulation  |                                                 |
\*---------------------------------------------------------------------------*/
FoamFile
{
    version     2.0;
    format      ascii;
    arch        "LSB;label=32;scalar=64";
    class       volScalarField;
    location    "3e-05";
    object      nut;
}
// * * * * * * * * * * * * * * * * * * * * * * * * * * * * * * * * * * * * * //

dimensions      [0 2 -1 0 0 0 0];

internalField   nonuniform List<scalar> 
13875
(
0.353076
7.47259
8.97142
9.49569
9.64024
9.67516
9.68239
9.68359
9.68368
9.68356
9.68341
9.68327
9.68314
9.68308
9.68302
9.68296
9.68287
9.68265
9.6814
9.6743
9.63975
9.49576
8.97202
7.47298
0.354556
0.282233
4.73252
5.56705
5.81995
5.88042
5.89304
5.89528
5.89553
5.89547
5.89536
5.89526
5.89515
5.89507
5.89504
5.89502
5.89499
5.89498
5.89495
5.89461
5.89236
5.87991
5.81978
5.56753
4.73398
0.283702
0.19519
3.28076
3.72155
3.83458
3.85435
3.85766
3.85804
3.85799
3.85789
3.8578
3.85772
3.85765
3.8576
3.85759
3.85758
3.85757
3.85756
3.85757
3.85757
3.85717
3.85388
3.83416
3.72093
3.27978
0.194786
0.127587
1.70976
1.89539
1.92847
1.93254
1.93306
1.93306
1.93302
1.93298
1.93293
1.93288
1.93284
1.93282
1.9328
1.93279
1.93277
1.93275
1.93275
1.93276
1.93276
1.93224
1.92813
1.89512
1.70849
0.127193
0.0743754
0.367683
0.395445
0.39798
0.398143
0.398145
0.398138
0.398137
0.398135
0.398128
0.398122
0.398116
0.398108
0.398099
0.398089
0.398081
0.398072
0.398063
0.398058
0.398062
0.398056
0.397874
0.395377
0.367368
0.0742467
0.0553863
0.285486
0.300621
0.299934
0.29978
0.299753
0.299752
0.299753
0.299755
0.299758
0.29976
0.299763
0.299765
0.299767
0.299769
0.299771
0.299773
0.299775
0.299776
0.299778
0.299805
0.29996
0.300634
0.285648
0.0553843
0.055005
0.311774
0.337629
0.338076
0.33808
0.33808
0.33808
0.33808
0.33808
0.33808
0.33808
0.33808
0.33808
0.33808
0.33808
0.33808
0.33808
0.33808
0.33808
0.33808
0.33808
0.338075
0.337611
0.311202
0.0549821
0.0550966
0.311048
0.337656
0.338128
0.338133
0.338133
0.338133
0.338133
0.338133
0.338133
0.338133
0.338133
0.338133
0.338133
0.338133
0.338133
0.338133
0.338133
0.338133
0.338133
0.338133
0.338128
0.337656
0.31101
0.0551122
0.05523
0.309326
0.337603
0.338127
0.338133
0.338133
0.338133
0.338133
0.338133
0.338133
0.338133
0.338133
0.338133
0.338133
0.338133
0.338133
0.338133
0.338133
0.338133
0.338133
0.338133
0.338127
0.337611
0.309591
0.0552336
0.0510468
0.301786
0.337212
0.338118
0.338133
0.338133
0.338133
0.338133
0.338133
0.338133
0.338133
0.338133
0.338133
0.338133
0.338133
0.338133
0.338133
0.338133
0.338133
0.338133
0.338133
0.338118
0.337219
0.301927
0.0512383
0.0448478
0.291761
0.336509
0.338098
0.338132
0.338133
0.338133
0.338133
0.338133
0.338133
0.338133
0.338133
0.338133
0.338133
0.338133
0.338133
0.338133
0.338133
0.338133
0.338133
0.338132
0.338095
0.336404
0.290287
0.0442661
0.0405359
0.282398
0.335755
0.338074
0.338132
0.338133
0.338133
0.338133
0.338133
0.338133
0.338133
0.338133
0.338133
0.338133
0.338133
0.338133
0.338133
0.338133
0.338133
0.338133
0.338132
0.338075
0.335773
0.282642
0.0404539
0.0373091
0.273238
0.334941
0.338044
0.338131
0.338133
0.338133
0.338133
0.338133
0.338133
0.338133
0.338133
0.338133
0.338133
0.338133
0.338133
0.338133
0.338133
0.338133
0.338133
0.338131
0.33805
0.335077
0.274696
0.0374929
0.0350226
0.265879
0.334252
0.338016
0.33813
0.338133
0.338133
0.338133
0.338133
0.338133
0.338133
0.338133
0.338133
0.338133
0.338133
0.338133
0.338133
0.338133
0.338133
0.338133
0.338131
0.338028
0.334562
0.268495
0.035914
0.0338805
0.260039
0.333747
0.337992
0.33813
0.338133
0.338133
0.338133
0.338133
0.338133
0.338133
0.338133
0.338133
0.338133
0.338133
0.338133
0.338133
0.338133
0.338133
0.338133
0.338129
0.337969
0.333272
0.256342
0.033299
0.0311877
0.248549
0.332314
0.337922
0.338127
0.338133
0.338133
0.338133
0.338133
0.338133
0.338133
0.338133
0.338133
0.338133
0.338133
0.338133
0.338133
0.338133
0.338133
0.338133
0.338127
0.337902
0.331942
0.246288
0.0306086
0.0310537
0.249064
0.332729
0.337944
0.338128
0.338133
0.338133
0.338133
0.338133
0.338133
0.338133
0.338133
0.338133
0.338133
0.338133
0.338133
0.338133
0.338133
0.338133
0.338133
0.338128
0.337952
0.332887
0.250267
0.0311139
0.0312329
0.251447
0.333224
0.337968
0.338129
0.338133
0.338133
0.338133
0.338133
0.338133
0.338133
0.338133
0.338133
0.338133
0.338133
0.338133
0.338133
0.338133
0.338133
0.338133
0.338129
0.337967
0.333213
0.251253
0.0313028
0.0301679
0.236822
0.331066
0.337856
0.338124
0.338133
0.338133
0.338133
0.338133
0.338133
0.338133
0.338133
0.338133
0.338133
0.338133
0.338133
0.338133
0.338133
0.338133
0.338133
0.338126
0.337892
0.331683
0.240492
0.0306455
0.0295713
0.225734
0.328679
0.337705
0.338118
0.338132
0.338133
0.338133
0.338133
0.338133
0.338133
0.338133
0.338133
0.338133
0.338133
0.338133
0.338133
0.338133
0.338133
0.338132
0.338117
0.33769
0.328445
0.224568
0.0292387
0.0328509
0.23963
0.331075
0.33785
0.338124
0.338133
0.338133
0.338133
0.338133
0.338133
0.338133
0.338133
0.338133
0.338133
0.338133
0.338133
0.338133
0.338133
0.338133
0.338133
0.338122
0.337812
0.330444
0.23597
0.0322511
0.0363017
0.254969
0.333301
0.337969
0.338128
0.338133
0.338133
0.338133
0.338133
0.338133
0.338133
0.338133
0.338133
0.338133
0.338133
0.338133
0.338133
0.338133
0.338133
0.338133
0.338128
0.33796
0.333129
0.253792
0.0362124
0.0397753
0.268222
0.334824
0.338039
0.338131
0.338133
0.338133
0.338133
0.338133
0.338133
0.338133
0.338133
0.338133
0.338133
0.338133
0.338133
0.338133
0.338133
0.338133
0.338133
0.338131
0.338045
0.334986
0.269902
0.04016
0.0432397
0.280377
0.335919
0.33808
0.338132
0.338133
0.338133
0.338133
0.338133
0.338133
0.338133
0.338133
0.338133
0.338133
0.338133
0.338133
0.338133
0.338133
0.338133
0.338133
0.338132
0.33808
0.335907
0.280181
0.0431181
0.0454666
0.286614
0.336372
0.338095
0.338132
0.338133
0.338133
0.338133
0.338133
0.338133
0.338133
0.338133
0.338133
0.338133
0.338133
0.338133
0.338133
0.338133
0.338133
0.338133
0.338132
0.338094
0.336338
0.286132
0.0453901
0.0479642
0.292194
0.336727
0.338106
0.338132
0.338133
0.338133
0.338133
0.338133
0.338133
0.338133
0.338133
0.338133
0.338133
0.338133
0.338133
0.338133
0.338133
0.338133
0.338133
0.338132
0.338107
0.336782
0.293108
0.048212
0.0506223
0.298147
0.337058
0.338114
0.338133
0.338133
0.338133
0.338133
0.338133
0.338133
0.338133
0.338133
0.338133
0.338133
0.338133
0.338133
0.338133
0.338133
0.338133
0.338133
0.338133
0.338113
0.337007
0.297175
0.0502645
0.0525977
0.301644
0.337229
0.338118
0.338133
0.338133
0.338133
0.338133
0.338133
0.338133
0.338133
0.338133
0.338133
0.338133
0.338133
0.338133
0.338133
0.338133
0.338133
0.338133
0.338133
0.338118
0.337226
0.301584
0.0527105
0.0547792
0.304822
0.337372
0.338122
0.338133
0.338133
0.338133
0.338133
0.338133
0.338133
0.338133
0.338133
0.338133
0.338133
0.338133
0.338133
0.338133
0.338133
0.338133
0.338133
0.338133
0.338123
0.337426
0.306049
0.0551649
0.0574027
0.309359
0.337558
0.338125
0.338133
0.338133
0.338133
0.338133
0.338133
0.338133
0.338133
0.338133
0.338133
0.338133
0.338133
0.338133
0.338133
0.338133
0.338133
0.338133
0.338133
0.338124
0.337515
0.308258
0.0569011
0.0590018
0.31152
0.337637
0.338127
0.338133
0.338133
0.338133
0.338133
0.338133
0.338133
0.338133
0.338133
0.338133
0.338133
0.338133
0.338133
0.338133
0.338133
0.338133
0.338133
0.338133
0.338127
0.337641
0.311624
0.0591925
0.0606198
0.313088
0.337689
0.338128
0.338133
0.338133
0.338133
0.338133
0.338133
0.338133
0.338133
0.338133
0.338133
0.338133
0.338133
0.338133
0.338133
0.338133
0.338133
0.338133
0.338133
0.338128
0.337713
0.313807
0.0608591
0.062682
0.315852
0.337777
0.338129
0.338133
0.338133
0.338133
0.338133
0.338133
0.338133
0.338133
0.338133
0.338133
0.338133
0.338133
0.338133
0.338133
0.338133
0.338133
0.338133
0.338133
0.338129
0.337758
0.31524
0.0623847
0.0639549
0.317189
0.337815
0.33813
0.338133
0.338133
0.338133
0.338133
0.338133
0.338133
0.338133
0.338133
0.338133
0.338133
0.338133
0.338133
0.338133
0.338133
0.338133
0.338133
0.338133
0.33813
0.337821
0.317366
0.0641307
0.0651964
0.318036
0.337838
0.33813
0.338133
0.338133
0.338133
0.338133
0.338133
0.338133
0.338133
0.338133
0.338133
0.338133
0.338133
0.338133
0.338133
0.338133
0.338133
0.338133
0.338133
0.33813
0.337851
0.318529
0.0653442
0.0668284
0.319884
0.337887
0.338131
0.338133
0.338133
0.338133
0.338133
0.338133
0.338133
0.338133
0.338133
0.338133
0.338133
0.338133
0.338133
0.338133
0.338133
0.338133
0.338133
0.338133
0.33813
0.337872
0.319318
0.0665529
0.0678464
0.320763
0.337908
0.338131
0.338133
0.338133
0.338133
0.338133
0.338133
0.338133
0.338133
0.338133
0.338133
0.338133
0.338133
0.338133
0.338133
0.338133
0.338133
0.338133
0.338133
0.338131
0.337911
0.320868
0.06798
0.0688219
0.321273
0.33792
0.338131
0.338133
0.338133
0.338133
0.338133
0.338133
0.338133
0.338133
0.338133
0.338133
0.338133
0.338133
0.338133
0.338133
0.338133
0.338133
0.338133
0.338133
0.338131
0.337929
0.321674
0.0689366
0.0700725
0.322571
0.337949
0.338131
0.338133
0.338133
0.338133
0.338133
0.338133
0.338133
0.338133
0.338133
0.338133
0.338133
0.338133
0.338133
0.338133
0.338133
0.338133
0.338133
0.338133
0.338131
0.337939
0.322097
0.0698521
0.070854
0.323164
0.337962
0.338132
0.338133
0.338133
0.338133
0.338133
0.338133
0.338133
0.338133
0.338133
0.338133
0.338133
0.338133
0.338133
0.338133
0.338133
0.338133
0.338133
0.338133
0.338132
0.337964
0.323234
0.0709537
0.071585
0.323454
0.337968
0.338132
0.338133
0.338133
0.338133
0.338133
0.338133
0.338133
0.338133
0.338133
0.338133
0.338133
0.338133
0.338133
0.338133
0.338133
0.338133
0.338133
0.338133
0.338132
0.337975
0.323802
0.0716757
0.0725015
0.324395
0.337987
0.338132
0.338133
0.338133
0.338133
0.338133
0.338133
0.338133
0.338133
0.338133
0.338133
0.338133
0.338133
0.338133
0.338133
0.338133
0.338133
0.338133
0.338133
0.338132
0.337979
0.324018
0.0723452
0.0730679
0.3248
0.337995
0.338132
0.338133
0.338133
0.338133
0.338133
0.338133
0.338133
0.338133
0.338133
0.338133
0.338133
0.338133
0.338133
0.338133
0.338133
0.338133
0.338133
0.338133
0.338132
0.337995
0.324834
0.0731303
0.0735823
0.324948
0.337997
0.338132
0.338133
0.338133
0.338133
0.338133
0.338133
0.338133
0.338133
0.338133
0.338133
0.338133
0.338133
0.338133
0.338133
0.338133
0.338133
0.338133
0.338133
0.338132
0.338003
0.325241
0.0736474
0.0742031
0.325631
0.33801
0.338132
0.338133
0.338133
0.338133
0.338133
0.338133
0.338133
0.338133
0.338133
0.338133
0.338133
0.338133
0.338133
0.338133
0.338133
0.338133
0.338133
0.338133
0.338132
0.338005
0.325356
0.0741104
0.0745776
0.325907
0.338015
0.338132
0.338133
0.338133
0.338133
0.338133
0.338133
0.338133
0.338133
0.338133
0.338133
0.338133
0.338133
0.338133
0.338133
0.338133
0.338133
0.338133
0.338133
0.338132
0.338015
0.325902
0.0746073
0.0749052
0.325959
0.338016
0.338132
0.338133
0.338133
0.338133
0.338133
0.338133
0.338133
0.338133
0.338133
0.338133
0.338133
0.338133
0.338133
0.338133
0.338133
0.338133
0.338133
0.338133
0.338132
0.33802
0.3262
0.0749454
0.0752736
0.326451
0.338024
0.338132
0.338133
0.338133
0.338133
0.338133
0.338133
0.338133
0.338133
0.338133
0.338133
0.338133
0.338133
0.338133
0.338133
0.338133
0.338133
0.338133
0.338133
0.338132
0.338021
0.326263
0.0752266
0.0754863
0.326633
0.338027
0.338132
0.338133
0.338133
0.338133
0.338133
0.338133
0.338133
0.338133
0.338133
0.338133
0.338133
0.338133
0.338133
0.338133
0.338133
0.338133
0.338133
0.338133
0.338132
0.338026
0.326572
0.0754891
0.0756708
0.326682
0.338027
0.338132
0.338133
0.338133
0.338133
0.338133
0.338133
0.338133
0.338133
0.338133
0.338133
0.338133
0.338133
0.338133
0.338133
0.338133
0.338133
0.338133
0.338133
0.338132
0.338029
0.32677
0.0756815
0.154218
0.335871
0.338144
0.338154
0.338154
0.338154
0.338153
0.338153
0.338152
0.338152
0.338152
0.338151
0.338151
0.338151
0.338151
0.33815
0.33815
0.33815
0.338149
0.338149
0.338149
0.338149
0.338148
0.338148
0.338148
0.338148
0.338147
0.338146
0.337408
0.175066
0.14576
0.33674
0.338125
0.338133
0.338133
0.338133
0.338133
0.338133
0.338133
0.338133
0.338133
0.338133
0.338133
0.338133
0.338133
0.338133
0.338133
0.338133
0.338133
0.338133
0.338133
0.338133
0.338133
0.338133
0.338133
0.338133
0.338133
0.338132
0.337326
0.173274
0.152566
0.33712
0.338128
0.338133
0.338133
0.338133
0.338133
0.338133
0.338133
0.338133
0.338133
0.338133
0.338133
0.338133
0.338133
0.338133
0.338133
0.338133
0.338133
0.338133
0.338133
0.338133
0.338133
0.338133
0.338133
0.338133
0.338133
0.338131
0.337299
0.17162
0.156502
0.337103
0.338129
0.338133
0.338133
0.338133
0.338133
0.338133
0.338133
0.338133
0.338133
0.338133
0.338133
0.338133
0.338133
0.338133
0.338133
0.338133
0.338133
0.338133
0.338133
0.338133
0.338133
0.338133
0.338133
0.338133
0.338133
0.338131
0.337279
0.170218
0.156311
0.337038
0.338129
0.338133
0.338133
0.338133
0.338133
0.338133
0.338133
0.338133
0.338133
0.338133
0.338133
0.338133
0.338133
0.338133
0.338133
0.338133
0.338133
0.338133
0.338133
0.338133
0.338133
0.338133
0.338133
0.338133
0.338133
0.338131
0.337257
0.168943
0.155985
0.337031
0.338129
0.338133
0.338133
0.338133
0.338133
0.338133
0.338133
0.338133
0.338133
0.338133
0.338133
0.338133
0.338133
0.338133
0.338133
0.338133
0.338133
0.338133
0.338133
0.338133
0.338133
0.338133
0.338133
0.338133
0.338133
0.338131
0.337235
0.167725
0.156029
0.337041
0.338129
0.338133
0.338133
0.338133
0.338133
0.338133
0.338133
0.338133
0.338133
0.338133
0.338133
0.338133
0.338133
0.338133
0.338133
0.338133
0.338133
0.338133
0.338133
0.338133
0.338133
0.338133
0.338133
0.338133
0.338133
0.338131
0.337214
0.166571
0.156492
0.337056
0.338129
0.338133
0.338133
0.338133
0.338133
0.338133
0.338133
0.338133
0.338133
0.338133
0.338133
0.338133
0.338133
0.338133
0.338133
0.338133
0.338133
0.338133
0.338133
0.338133
0.338133
0.338133
0.338133
0.338133
0.338133
0.338131
0.337194
0.165504
0.156962
0.337063
0.33813
0.338133
0.338133
0.338133
0.338133
0.338133
0.338133
0.338133
0.338133
0.338133
0.338133
0.338133
0.338133
0.338133
0.338133
0.338133
0.338133
0.338133
0.338133
0.338133
0.338133
0.338133
0.338133
0.338133
0.338133
0.338131
0.337176
0.164535
0.157269
0.337063
0.33813
0.338133
0.338133
0.338133
0.338133
0.338133
0.338133
0.338133
0.338133
0.338133
0.338133
0.338133
0.338133
0.338133
0.338133
0.338133
0.338133
0.338133
0.338133
0.338133
0.338133
0.338133
0.338133
0.338133
0.338133
0.338131
0.337159
0.163658
0.15739
0.337059
0.33813
0.338133
0.338133
0.338133
0.338133
0.338133
0.338133
0.338133
0.338133
0.338133
0.338133
0.338133
0.338133
0.338133
0.338133
0.338133
0.338133
0.338133
0.338133
0.338133
0.338133
0.338133
0.338133
0.338133
0.338133
0.338131
0.337144
0.162863
0.157392
0.337056
0.33813
0.338133
0.338133
0.338133
0.338133
0.338133
0.338133
0.338133
0.338133
0.338133
0.338133
0.338133
0.338133
0.338133
0.338133
0.338133
0.338133
0.338133
0.338133
0.338133
0.338133
0.338133
0.338133
0.338133
0.338133
0.338131
0.337129
0.162139
0.157366
0.337052
0.33813
0.338133
0.338133
0.338133
0.338133
0.338133
0.338133
0.338133
0.338133
0.338133
0.338133
0.338133
0.338133
0.338133
0.338133
0.338133
0.338133
0.338133
0.338133
0.338133
0.338133
0.338133
0.338133
0.338133
0.338133
0.338131
0.337116
0.161479
0.157288
0.337049
0.33813
0.338133
0.338133
0.338133
0.338133
0.338133
0.338133
0.338133
0.338133
0.338133
0.338133
0.338133
0.338133
0.338133
0.338133
0.338133
0.338133
0.338133
0.338133
0.338133
0.338133
0.338133
0.338133
0.338133
0.338133
0.338131
0.337103
0.160877
0.157311
0.337048
0.33813
0.338133
0.338133
0.338133
0.338133
0.338133
0.338133
0.338133
0.338133
0.338133
0.338133
0.338133
0.338133
0.338133
0.338133
0.338133
0.338133
0.338133
0.338133
0.338133
0.338133
0.338133
0.338133
0.338133
0.338133
0.338131
0.337092
0.160335
0.157241
0.337044
0.33813
0.338133
0.338133
0.338133
0.338133
0.338133
0.338133
0.338133
0.338133
0.338133
0.338133
0.338133
0.338133
0.338133
0.338133
0.338133
0.338133
0.338133
0.338133
0.338133
0.338133
0.338133
0.338133
0.338133
0.338133
0.338131
0.337082
0.159849
0.157214
0.337044
0.33813
0.338133
0.338133
0.338133
0.338133
0.338133
0.338133
0.338133
0.338133
0.338133
0.338133
0.338133
0.338133
0.338133
0.338133
0.338133
0.338133
0.338133
0.338133
0.338133
0.338133
0.338133
0.338133
0.338133
0.338133
0.338131
0.337073
0.159414
0.157222
0.337042
0.33813
0.338133
0.338133
0.338133
0.338133
0.338133
0.338133
0.338133
0.338133
0.338133
0.338133
0.338133
0.338133
0.338133
0.338133
0.338133
0.338133
0.338133
0.338133
0.338133
0.338133
0.338133
0.338133
0.338133
0.338133
0.338131
0.337065
0.159031
0.15719
0.33704
0.33813
0.338133
0.338133
0.338133
0.338133
0.338133
0.338133
0.338133
0.338133
0.338133
0.338133
0.338133
0.338133
0.338133
0.338133
0.338133
0.338133
0.338133
0.338133
0.338133
0.338133
0.338133
0.338133
0.338133
0.338133
0.338131
0.337058
0.158697
0.157208
0.33704
0.33813
0.338133
0.338133
0.338133
0.338133
0.338133
0.338133
0.338133
0.338133
0.338133
0.338133
0.338133
0.338133
0.338133
0.338133
0.338133
0.338133
0.338133
0.338133
0.338133
0.338133
0.338133
0.338133
0.338133
0.338133
0.338131
0.337052
0.158408
0.157233
0.337039
0.33813
0.338133
0.338133
0.338133
0.338133
0.338133
0.338133
0.338133
0.338133
0.338133
0.338133
0.338133
0.338133
0.338133
0.338133
0.338133
0.338133
0.338133
0.338133
0.338133
0.338133
0.338133
0.338133
0.338133
0.338133
0.338131
0.337047
0.158165
0.157249
0.337039
0.338131
0.338133
0.338133
0.338133
0.338133
0.338133
0.338133
0.338133
0.338133
0.338133
0.338133
0.338133
0.338133
0.338133
0.338133
0.338133
0.338133
0.338133
0.338133
0.338133
0.338133
0.338133
0.338133
0.338133
0.338133
0.338131
0.337043
0.157961
0.157316
0.33704
0.338131
0.338133
0.338133
0.338133
0.338133
0.338133
0.338133
0.338133
0.338133
0.338133
0.338133
0.338133
0.338133
0.338133
0.338133
0.338133
0.338133
0.338133
0.338133
0.338133
0.338133
0.338133
0.338133
0.338133
0.338133
0.338131
0.33704
0.157798
0.157376
0.33704
0.338131
0.338133
0.338133
0.338133
0.338133
0.338133
0.338133
0.338133
0.338133
0.338133
0.338133
0.338133
0.338133
0.338133
0.338133
0.338133
0.338133
0.338133
0.338133
0.338133
0.338133
0.338133
0.338133
0.338133
0.338133
0.338131
0.337038
0.157672
0.157445
0.337136
0.338131
0.338133
0.338133
0.338133
0.338133
0.338133
0.338133
0.338133
0.338133
0.338133
0.338133
0.338133
0.338133
0.338133
0.338133
0.338133
0.338133
0.338133
0.338133
0.338133
0.338133
0.338133
0.338133
0.338133
0.338133
0.338131
0.337037
0.157579
0.175065
0.337408
0.338146
0.338147
0.338148
0.338148
0.338148
0.338148
0.338149
0.338149
0.338149
0.338149
0.33815
0.33815
0.33815
0.338151
0.338151
0.338151
0.338151
0.338152
0.338152
0.338152
0.338153
0.338153
0.338154
0.338154
0.338154
0.338144
0.335868
0.154176
0.173274
0.337326
0.338132
0.338133
0.338133
0.338133
0.338133
0.338133
0.338133
0.338133
0.338133
0.338133
0.338133
0.338133
0.338133
0.338133
0.338133
0.338133
0.338133
0.338133
0.338133
0.338133
0.338133
0.338133
0.338133
0.338133
0.338133
0.338125
0.336741
0.14578
0.171618
0.337299
0.338131
0.338133
0.338133
0.338133
0.338133
0.338133
0.338133
0.338133
0.338133
0.338133
0.338133
0.338133
0.338133
0.338133
0.338133
0.338133
0.338133
0.338133
0.338133
0.338133
0.338133
0.338133
0.338133
0.338133
0.338133
0.338128
0.33712
0.152531
0.170217
0.337279
0.338131
0.338133
0.338133
0.338133
0.338133
0.338133
0.338133
0.338133
0.338133
0.338133
0.338133
0.338133
0.338133
0.338133
0.338133
0.338133
0.338133
0.338133
0.338133
0.338133
0.338133
0.338133
0.338133
0.338133
0.338133
0.338129
0.337105
0.156553
0.168944
0.337257
0.338131
0.338133
0.338133
0.338133
0.338133
0.338133
0.338133
0.338133
0.338133
0.338133
0.338133
0.338133
0.338133
0.338133
0.338133
0.338133
0.338133
0.338133
0.338133
0.338133
0.338133
0.338133
0.338133
0.338133
0.338133
0.338129
0.337037
0.156332
0.167724
0.337235
0.338131
0.338133
0.338133
0.338133
0.338133
0.338133
0.338133
0.338133
0.338133
0.338133
0.338133
0.338133
0.338133
0.338133
0.338133
0.338133
0.338133
0.338133
0.338133
0.338133
0.338133
0.338133
0.338133
0.338133
0.338133
0.338129
0.33703
0.155913
0.166572
0.337214
0.338131
0.338133
0.338133
0.338133
0.338133
0.338133
0.338133
0.338133
0.338133
0.338133
0.338133
0.338133
0.338133
0.338133
0.338133
0.338133
0.338133
0.338133
0.338133
0.338133
0.338133
0.338133
0.338133
0.338133
0.338133
0.338129
0.337044
0.156125
0.165505
0.337194
0.338131
0.338133
0.338133
0.338133
0.338133
0.338133
0.338133
0.338133
0.338133
0.338133
0.338133
0.338133
0.338133
0.338133
0.338133
0.338133
0.338133
0.338133
0.338133
0.338133
0.338133
0.338133
0.338133
0.338133
0.338133
0.338129
0.337054
0.156439
0.164534
0.337176
0.338131
0.338133
0.338133
0.338133
0.338133
0.338133
0.338133
0.338133
0.338133
0.338133
0.338133
0.338133
0.338133
0.338133
0.338133
0.338133
0.338133
0.338133
0.338133
0.338133
0.338133
0.338133
0.338133
0.338133
0.338133
0.33813
0.337064
0.156969
0.163659
0.337159
0.338131
0.338133
0.338133
0.338133
0.338133
0.338133
0.338133
0.338133
0.338133
0.338133
0.338133
0.338133
0.338133
0.338133
0.338133
0.338133
0.338133
0.338133
0.338133
0.338133
0.338133
0.338133
0.338133
0.338133
0.338133
0.33813
0.337063
0.157292
0.162862
0.337143
0.338131
0.338133
0.338133
0.338133
0.338133
0.338133
0.338133
0.338133
0.338133
0.338133
0.338133
0.338133
0.338133
0.338133
0.338133
0.338133
0.338133
0.338133
0.338133
0.338133
0.338133
0.338133
0.338133
0.338133
0.338133
0.33813
0.337059
0.157338
0.162138
0.337129
0.338131
0.338133
0.338133
0.338133
0.338133
0.338133
0.338133
0.338133
0.338133
0.338133
0.338133
0.338133
0.338133
0.338133
0.338133
0.338133
0.338133
0.338133
0.338133
0.338133
0.338133
0.338133
0.338133
0.338133
0.338133
0.33813
0.337057
0.157435
0.161479
0.337116
0.338131
0.338133
0.338133
0.338133
0.338133
0.338133
0.338133
0.338133
0.338133
0.338133
0.338133
0.338133
0.338133
0.338133
0.338133
0.338133
0.338133
0.338133
0.338133
0.338133
0.338133
0.338133
0.338133
0.338133
0.338133
0.33813
0.337051
0.157359
0.160877
0.337103
0.338131
0.338133
0.338133
0.338133
0.338133
0.338133
0.338133
0.338133
0.338133
0.338133
0.338133
0.338133
0.338133
0.338133
0.338133
0.338133
0.338133
0.338133
0.338133
0.338133
0.338133
0.338133
0.338133
0.338133
0.338133
0.33813
0.337049
0.157283
0.160335
0.337092
0.338131
0.338133
0.338133
0.338133
0.338133
0.338133
0.338133
0.338133
0.338133
0.338133
0.338133
0.338133
0.338133
0.338133
0.338133
0.338133
0.338133
0.338133
0.338133
0.338133
0.338133
0.338133
0.338133
0.338133
0.338133
0.33813
0.337049
0.157307
0.159849
0.337082
0.338131
0.338133
0.338133
0.338133
0.338133
0.338133
0.338133
0.338133
0.338133
0.338133
0.338133
0.338133
0.338133
0.338133
0.338133
0.338133
0.338133
0.338133
0.338133
0.338133
0.338133
0.338133
0.338133
0.338133
0.338133
0.33813
0.337044
0.157255
0.159414
0.337073
0.338131
0.338133
0.338133
0.338133
0.338133
0.338133
0.338133
0.338133
0.338133
0.338133
0.338133
0.338133
0.338133
0.338133
0.338133
0.338133
0.338133
0.338133
0.338133
0.338133
0.338133
0.338133
0.338133
0.338133
0.338133
0.33813
0.337043
0.157202
0.159031
0.337065
0.338131
0.338133
0.338133
0.338133
0.338133
0.338133
0.338133
0.338133
0.338133
0.338133
0.338133
0.338133
0.338133
0.338133
0.338133
0.338133
0.338133
0.338133
0.338133
0.338133
0.338133
0.338133
0.338133
0.338133
0.338133
0.33813
0.337043
0.157219
0.158698
0.337058
0.338131
0.338133
0.338133
0.338133
0.338133
0.338133
0.338133
0.338133
0.338133
0.338133
0.338133
0.338133
0.338133
0.338133
0.338133
0.338133
0.338133
0.338133
0.338133
0.338133
0.338133
0.338133
0.338133
0.338133
0.338133
0.33813
0.33704
0.157208
0.158409
0.337052
0.338131
0.338133
0.338133
0.338133
0.338133
0.338133
0.338133
0.338133
0.338133
0.338133
0.338133
0.338133
0.338133
0.338133
0.338133
0.338133
0.338133
0.338133
0.338133
0.338133
0.338133
0.338133
0.338133
0.338133
0.338133
0.33813
0.337039
0.157194
0.158164
0.337047
0.338131
0.338133
0.338133
0.338133
0.338133
0.338133
0.338133
0.338133
0.338133
0.338133
0.338133
0.338133
0.338133
0.338133
0.338133
0.338133
0.338133
0.338133
0.338133
0.338133
0.338133
0.338133
0.338133
0.338133
0.338133
0.33813
0.33704
0.157231
0.157962
0.337043
0.338131
0.338133
0.338133
0.338133
0.338133
0.338133
0.338133
0.338133
0.338133
0.338133
0.338133
0.338133
0.338133
0.338133
0.338133
0.338133
0.338133
0.338133
0.338133
0.338133
0.338133
0.338133
0.338133
0.338133
0.338133
0.338131
0.337039
0.157266
0.157798
0.33704
0.338131
0.338133
0.338133
0.338133
0.338133
0.338133
0.338133
0.338133
0.338133
0.338133
0.338133
0.338133
0.338133
0.338133
0.338133
0.338133
0.338133
0.338133
0.338133
0.338133
0.338133
0.338133
0.338133
0.338133
0.338133
0.338131
0.337039
0.157301
0.157671
0.337038
0.338131
0.338133
0.338133
0.338133
0.338133
0.338133
0.338133
0.338133
0.338133
0.338133
0.338133
0.338133
0.338133
0.338133
0.338133
0.338133
0.338133
0.338133
0.338133
0.338133
0.338133
0.338133
0.338133
0.338133
0.338133
0.338131
0.33704
0.157377
0.157579
0.337037
0.338131
0.338133
0.338133
0.338133
0.338133
0.338133
0.338133
0.338133
0.338133
0.338133
0.338133
0.338133
0.338133
0.338133
0.338133
0.338133
0.338133
0.338133
0.338133
0.338133
0.338133
0.338133
0.338133
0.338133
0.338133
0.338131
0.337136
0.157447
0.128448
0.128682
0.128917
0.129152
0.129387
0.129622
0.129856
0.130091
0.130326
0.130561
0.130796
0.13103
0.131265
0.1315
0.131735
0.131969
0.132204
0.132439
0.132674
0.132909
0.133143
0.133378
0.133613
0.133848
0.134083
0.134317
0.134552
0.134787
0.135022
0.135257
0.135491
0.135726
0.135961
0.136196
0.13643
0.136665
0.1369
0.137135
0.13737
0.137604
0.137839
0.138074
0.138309
0.138544
0.138778
0.139013
0.139248
0.139483
0.139718
0.139952
0.140187
0.140422
0.140657
0.140891
0.141126
0.141361
0.141596
0.141831
0.142065
0.1423
0.142535
0.14277
0.143005
0.143239
0.143474
0.143709
0.143944
0.144179
0.144413
0.144648
0.144883
0.145118
0.145353
0.145587
0.145822
0.146057
0.146292
0.146527
0.146761
0.146996
0.147231
0.147466
0.147701
0.147935
0.14817
0.148405
0.14864
0.148874
0.149109
0.149344
0.149579
0.149814
0.150048
0.150283
0.150518
0.150753
0.150988
0.151222
0.151457
0.151692
0.151927
0.152162
0.152396
0.152631
0.152866
0.153101
0.153336
0.15357
0.153805
0.15404
0.154275
0.15451
0.154744
0.154979
0.155214
0.155449
0.155684
0.155918
0.156153
0.156388
0.156623
0.156858
0.157092
0.157327
0.157562
0.33593
0.335948
0.335961
0.335974
0.335986
0.335999
0.336012
0.336024
0.336037
0.336049
0.336061
0.336073
0.336085
0.336097
0.336109
0.336121
0.336133
0.336145
0.336156
0.336168
0.336179
0.33619
0.336202
0.336213
0.336224
0.336235
0.336246
0.336257
0.336267
0.336278
0.336289
0.336299
0.33631
0.33632
0.336331
0.336341
0.336351
0.336361
0.336371
0.336381
0.336391
0.336401
0.336411
0.336421
0.33643
0.33644
0.336449
0.336459
0.336468
0.336478
0.336487
0.336496
0.336505
0.336514
0.336523
0.336532
0.336541
0.33655
0.336559
0.336568
0.336576
0.336585
0.336594
0.336602
0.336611
0.336619
0.336627
0.336636
0.336644
0.336652
0.33666
0.336668
0.336676
0.336684
0.336692
0.3367
0.336708
0.336716
0.336723
0.336731
0.336739
0.336746
0.336754
0.336761
0.336769
0.336776
0.336783
0.336791
0.336798
0.336805
0.336812
0.336819
0.336826
0.336833
0.33684
0.336847
0.336854
0.336861
0.336868
0.336874
0.336881
0.336888
0.336894
0.336901
0.336907
0.336914
0.33692
0.336927
0.336933
0.33694
0.336946
0.336952
0.336958
0.336965
0.336971
0.336977
0.336983
0.336989
0.336995
0.337001
0.337007
0.337013
0.337019
0.337024
0.337031
0.338126
0.338126
0.338126
0.338126
0.338126
0.338126
0.338126
0.338126
0.338127
0.338127
0.338127
0.338127
0.338127
0.338127
0.338127
0.338127
0.338127
0.338127
0.338127
0.338127
0.338127
0.338127
0.338127
0.338127
0.338127
0.338127
0.338128
0.338128
0.338128
0.338128
0.338128
0.338128
0.338128
0.338128
0.338128
0.338128
0.338128
0.338128
0.338128
0.338128
0.338128
0.338128
0.338128
0.338128
0.338128
0.338128
0.338128
0.338128
0.338129
0.338129
0.338129
0.338129
0.338129
0.338129
0.338129
0.338129
0.338129
0.338129
0.338129
0.338129
0.338129
0.338129
0.338129
0.338129
0.338129
0.338129
0.338129
0.338129
0.338129
0.338129
0.338129
0.338129
0.338129
0.338129
0.338129
0.338129
0.338129
0.33813
0.33813
0.33813
0.33813
0.33813
0.33813
0.33813
0.33813
0.33813
0.33813
0.33813
0.33813
0.33813
0.33813
0.33813
0.33813
0.33813
0.33813
0.33813
0.33813
0.33813
0.33813
0.33813
0.33813
0.33813
0.33813
0.33813
0.33813
0.33813
0.33813
0.33813
0.33813
0.33813
0.33813
0.33813
0.33813
0.33813
0.33813
0.33813
0.33813
0.338131
0.338131
0.338131
0.338131
0.338131
0.338131
0.338131
0.338131
0.338133
0.338133
0.338133
0.338133
0.338133
0.338133
0.338133
0.338133
0.338133
0.338133
0.338133
0.338133
0.338133
0.338133
0.338133
0.338133
0.338133
0.338133
0.338133
0.338133
0.338133
0.338133
0.338133
0.338133
0.338133
0.338133
0.338133
0.338133
0.338133
0.338133
0.338133
0.338133
0.338133
0.338133
0.338133
0.338133
0.338133
0.338133
0.338133
0.338133
0.338133
0.338133
0.338133
0.338133
0.338133
0.338133
0.338133
0.338133
0.338133
0.338133
0.338133
0.338133
0.338133
0.338133
0.338133
0.338133
0.338133
0.338133
0.338133
0.338133
0.338133
0.338133
0.338133
0.338133
0.338133
0.338133
0.338133
0.338133
0.338133
0.338133
0.338133
0.338133
0.338133
0.338133
0.338133
0.338133
0.338133
0.338133
0.338133
0.338133
0.338133
0.338133
0.338133
0.338133
0.338133
0.338133
0.338133
0.338133
0.338133
0.338133
0.338133
0.338133
0.338133
0.338133
0.338133
0.338133
0.338133
0.338133
0.338133
0.338133
0.338133
0.338133
0.338133
0.338133
0.338133
0.338133
0.338133
0.338133
0.338133
0.338133
0.338133
0.338133
0.338133
0.338133
0.338133
0.338133
0.338133
0.338133
0.338133
0.338133
0.338133
0.338133
0.338133
0.338133
0.338133
0.338133
0.338133
0.338133