/*--------------------------------*- C++ -*----------------------------------*\
| =========                 |                                                 |
| \\      /  F ield         | OpenFOAM: The Open Source CFD Toolbox           |
|  \\    /   O peration     | Version:  2112                                  |
|   \\  /    A nd           | Website:  www.openfoam.com                      |
|    \\/     M anipulation  |                                                 |
\*---------------------------------------------------------------------------*/
FoamFile
{
    version     2.0;
    format      ascii;
    arch        "LSB;label=32;scalar=64";
    class       surfaceScalarField;
    location    "3e-05";
    object      phi;
}
// * * * * * * * * * * * * * * * * * * * * * * * * * * * * * * * * * * * * * //

dimensions      [1 0 -1 0 0 0 0];

oriented        oriented;

internalField   nonuniform List<scalar> 
27436
(
-0.766716
7.62856
-0.443525
7.1
-0.197273
7.07962
-0.110594
7.13009
-0.0766037
7.14275
-0.0597295
7.14652
-0.0474494
7.14764
-0.0362759
7.14799
-0.0253414
7.14817
-0.0144558
7.14828
-0.00358196
7.14834
0.00728984
7.14839
0.0181644
7.14842
0.0290248
7.14842
0.0398888
7.14841
0.05077
7.1484
0.0617252
7.14839
0.0729488
7.14826
0.0852726
7.14777
0.102117
7.14644
0.135919
7.14253
0.222076
7.12991
0.466769
7.07989
0.788742
7.10271
7.65829
-0.259423
7.30274
-0.157189
6.91769
-0.0959046
6.98611
-0.0664183
7.02804
-0.0513794
7.03913
-0.0417088
7.04239
-0.0335261
7.04333
-0.0257057
7.0437
-0.0179762
7.04385
-0.0102555
7.0439
-0.00253928
7.04392
0.00517883
7.04392
0.0128976
7.04393
0.0206111
7.04396
0.028325
7.04397
0.0360438
7.04395
0.0437843
7.04387
0.051624
7.04374
0.0598379
7.04339
0.0695227
7.04237
0.0844441
7.039
0.113549
7.0281
0.17465
6.98564
0.275103
6.92131
7.31645
-0.0415753
6.19731
-0.0479048
6.0703
-0.0805781
6.15975
-0.0762882
6.13971
-0.0684221
6.13811
-0.0609372
6.13803
-0.053743
6.13801
-0.0466367
6.13819
-0.0395543
6.13834
-0.0324809
6.13826
-0.0254057
6.13819
-0.0183288
6.13814
-0.0112497
6.13811
-0.00417771
6.13813
0.00289041
6.13814
0.00996832
6.1381
0.0170482
6.13802
0.0241531
6.13799
0.0313542
6.13802
0.0388381
6.13804
0.0467011
6.13805
0.0509963
6.13965
0.0118878
6.16251
0.0156619
6.06659
6.17689
-0.00591169
2.13697
-0.0210594
2.10248
-0.0332098
2.13322
-0.0321527
2.12829
-0.0288872
2.12789
-0.025366
2.12788
-0.0218576
2.12787
-0.0183539
2.12793
-0.0148496
2.12797
-0.0113504
2.12794
-0.00784624
2.12791
-0.00434091
2.12788
-0.000837176
2.12784
0.00266291
2.12781
0.00615731
2.12777
0.00965935
2.12773
0.0131602
2.12768
0.0166577
2.12764
0.0201552
2.12763
0.0236672
2.12761
0.0269583
2.12757
0.0279323
2.12793
0.0155956
2.13333
0.00245219
2.10118
2.1317
-0.00597393
0.110557
-0.00382723
0.119763
-0.00355299
0.122238
-0.0031104
0.122125
-0.00270192
0.122114
-0.00227293
0.122115
-0.00184467
0.122114
-0.00141629
0.122115
-0.000987821
0.122114
-0.000559831
0.122113
-0.000131376
0.122112
0.00029724
0.12211
0.000725758
0.122107
0.00115373
0.122103
0.00158098
0.122099
0.00200912
0.122095
0.00243718
0.122091
0.00286468
0.122087
0.00329179
0.122084
0.00371984
0.122083
0.00412982
0.122083
0.00456217
0.122089
0.00486326
0.122221
0.00700305
0.119678
0.110363
-0.000237239
0.019182
-0.000179964
0.019779
-0.000206512
0.0198575
-0.000183165
0.0198556
-0.00015481
0.0198553
-0.000126163
0.0198554
-9.75252e-05
0.0198554
-6.88903e-05
0.0198554
-4.025e-05
0.0198554
-1.16143e-05
0.0198554
1.70292e-05
0.0198554
4.56718e-05
0.0198553
7.43156e-05
0.0198552
0.000102948
0.0198551
0.000131566
0.019855
0.000160202
0.0198549
0.000188836
0.0198548
0.000217462
0.0198547
0.000246079
0.0198545
0.000274701
0.0198544
0.000303082
0.0198544
0.000326343
0.0198545
0.000298333
0.0198567
0.000345541
0.019778
0.0192131
4.09194e-06
0.018023
-1.75866e-05
0.0180018
-4.47295e-05
0.0180038
-7.15049e-05
0.0180038
-9.81092e-05
0.0180037
-0.00012471
0.0180037
-0.00015131
0.0180037
-0.000177911
0.0180037
-0.000204511
0.0180037
-0.000231112
0.0180037
-0.000257712
0.0180038
-0.000284312
0.0180038
-0.000310913
0.0180038
-0.000337513
0.0180037
-0.000364114
0.0180037
-0.000390714
0.0180037
-0.000417314
0.0180037
-0.000443914
0.0180037
-0.000470514
0.0180037
-0.000497112
0.0180037
-0.000523662
0.0180037
-0.000549907
0.0180037
-0.000568825
0.0180036
-0.000511828
0.0179985
0.0179376
0.000664225
0.0177722
0.000711117
0.0180042
0.000664072
0.0180178
0.000606276
0.0180188
0.000547835
0.0180189
0.000489324
0.0180189
0.000430809
0.0180189
0.000372295
0.0180189
0.00031378
0.0180189
0.000255265
0.0180189
0.00019675
0.0180189
0.000138236
0.0180189
7.9721e-05
0.0180189
2.12062e-05
0.0180189
-3.73086e-05
0.0180189
-9.58233e-05
0.0180189
-0.000154338
0.0180189
-0.000212853
0.0180189
-0.000271367
0.0180189
-0.000329879
0.0180189
-0.000388339
0.0180189
-0.000446314
0.0180188
-0.000496046
0.0180177
-0.00047651
0.0180041
0.017755
0.000183029
0.0165269
0.000165908
0.0178499
0.000159836
0.0180034
0.000160283
0.0180152
0.000161524
0.0180162
0.00016283
0.0180162
0.000164141
0.0180162
0.000165452
0.0180162
0.000166763
0.0180162
0.000168074
0.0180162
0.000169386
0.0180162
0.000170697
0.0180162
0.000172008
0.0180162
0.000173319
0.0180162
0.00017463
0.0180162
0.000175942
0.0180162
0.000177253
0.0180162
0.000178564
0.0180162
0.000179875
0.0180162
0.000181179
0.0180162
0.000182384
0.0180162
0.000182439
0.0180153
0.000168783
0.0180037
0.000117648
0.0178521
0.0166066
-0.00633351
0.0165018
-0.0070558
0.0169088
-0.00658771
0.0172969
-0.00592236
0.0173305
-0.00524126
0.0173332
-0.00455864
0.0173334
-0.00387592
0.0173335
-0.00319319
0.0173335
-0.00251046
0.0173335
-0.00182773
0.0173335
-0.001145
0.0173335
-0.000462265
0.0173335
0.000220466
0.0173335
0.000903196
0.0173335
0.00158593
0.0173335
0.00226866
0.0173335
0.00295139
0.0173335
0.00363412
0.0173335
0.00431684
0.0173335
0.00499947
0.0173334
0.00568059
0.0173332
0.00634618
0.0173301
0.00681937
0.0172935
0.00613633
0.0168766
0.0163964
-0.00885347
0.0155651
-0.0101388
0.0156986
-0.00953655
0.0162444
-0.00853885
0.0162931
-0.00750717
0.0162977
-0.00647204
0.016298
-0.00543666
0.0162981
-0.00440126
0.0162981
-0.00336585
0.0162981
-0.00233045
0.0162981
-0.00129505
0.0162981
-0.000259648
0.0162981
0.000775754
0.0162981
0.00181116
0.0162981
0.00284656
0.0162981
0.00388196
0.0162981
0.00491736
0.0162981
0.00595276
0.0162981
0.00698815
0.0162981
0.00802325
0.016298
0.00905457
0.0162977
0.0100489
0.0162929
0.0106194
0.0162425
0.00920582
0.0156781
0.0155957
-0.00940655
0.0144803
-0.0110355
0.0144722
-0.010516
0.0151137
-0.00945632
0.0151747
-0.00834594
0.0151812
-0.00723005
0.0151816
-0.00611371
0.0151817
-0.00499734
0.0151817
-0.00388097
0.0151817
-0.0027646
0.0151817
-0.00164822
0.0151817
-0.000531852
0.0151817
0.00058452
0.0151817
0.00170089
0.0151817
0.00281726
0.0151817
0.00393364
0.0151817
0.00505001
0.0151817
0.00616638
0.0151817
0.00728272
0.0151817
0.00839862
0.0151816
0.00950908
0.0151812
0.0105693
0.015175
0.0110885
0.0151169
0.00945742
0.0144874
0.0145337
-0.00924922
0.013476
-0.0110946
0.0133468
-0.0106971
0.0139848
-0.00964626
0.0140481
-0.00852907
0.0140555
-0.00740422
0.014056
-0.00627869
0.0140561
-0.00515311
0.0140561
-0.00402752
0.0140561
-0.00290194
0.0140561
-0.00177636
0.0140561
-0.000650772
0.0140561
0.000474812
0.0140561
0.0016004
0.0140561
0.00272598
0.0140561
0.00385156
0.0140561
0.00497715
0.0140561
0.00610273
0.0140561
0.00722826
0.0140561
0.00835317
0.0140561
0.00947091
0.0140556
0.0105262
0.0140492
0.0109507
0.0139943
0.00918061
0.0134237
0.0137194
-0.00866121
0.0128385
-0.0105828
0.0124325
-0.0103283
0.0129457
-0.00936505
0.012999
-0.00832559
0.0130058
-0.00727683
0.0130063
-0.00622717
0.0130064
-0.00517745
0.0130064
-0.00412772
0.0130064
-0.00307799
0.0130064
-0.00202825
0.0130064
-0.000978523
0.0130064
7.12079e-05
0.0130064
0.00112094
0.0130064
0.00217067
0.0130064
0.0032204
0.0130064
0.00427013
0.0130064
0.00531986
0.0130064
0.00636953
0.0130064
0.00741842
0.0130063
0.00845911
0.0130057
0.00943222
0.0129984
0.00976306
0.012941
0.00806193
0.0124066
0.0124143
-0.00719881
0.0115485
-0.00890996
0.0115165
-0.00870638
0.011979
-0.0078252
0.0120301
-0.00686745
0.012037
-0.00589989
0.0120376
-0.00493132
0.0120377
-0.00396266
0.0120377
-0.002994
0.0120377
-0.00202534
0.0120377
-0.00105668
0.0120377
-8.80128e-05
0.0120377
0.00088065
0.0120377
0.00184931
0.0120377
0.00281797
0.0120377
0.00378664
0.0120377
0.0047553
0.0120377
0.00572395
0.0120377
0.0066925
0.0120377
0.00765981
0.0120376
0.00861538
0.0120368
0.00948134
0.0120283
0.00959729
0.0119664
0.00765613
0.0114318
0.0114558
-0.00696471
0.0115367
-0.00877308
0.010818
-0.00867892
0.0110427
-0.00781953
0.0110652
-0.00686552
0.0110688
-0.00589858
0.0110691
-0.00493019
0.0110692
-0.00396167
0.0110692
-0.00299314
0.0110692
-0.00202461
0.0110692
-0.00105608
0.0110692
-8.75463e-05
0.0110692
0.000880986
0.0110692
0.00184952
0.0110692
0.00281805
0.0110692
0.00378658
0.0110692
0.00475511
0.0110692
0.00572363
0.0110692
0.00669199
0.0110692
0.00765871
0.0110691
0.00861083
0.0110688
0.00945717
0.0110652
0.00946566
0.0110432
0.00743777
0.0108146
0.0116759
-0.00457809
0.0110727
-0.00581182
0.0104823
-0.00578938
0.0104657
-0.00525031
0.0104607
-0.00465112
0.0104606
-0.00404353
0.0104605
-0.00343498
0.0104605
-0.00282634
0.0104605
-0.00221769
0.0104605
-0.00160904
0.0104605
-0.00100039
0.0104605
-0.000391735
0.0104605
0.000216916
0.0104605
0.000825567
0.0104605
0.00143422
0.0104605
0.00204287
0.0104605
0.00265152
0.0104605
0.00326016
0.0104605
0.00386872
0.0104605
0.00447639
0.0104605
0.00507619
0.0104606
0.00561908
0.0104611
0.00565876
0.0104687
0.00447173
0.0105093
0.0110464
-0.00137403
0.0112253
-0.00172829
0.0104578
-0.00174912
0.0103443
-0.00163654
0.0103315
-0.00150869
0.0103304
-0.0013786
0.0103302
-0.00124826
0.0103301
-0.00111788
0.0103301
-0.00098751
0.0103301
-0.000857135
0.0103301
-0.00072676
0.0103301
-0.000596386
0.0103301
-0.000466011
0.0103301
-0.000335636
0.0103301
-0.000205262
0.0103301
-7.48869e-05
0.0103301
5.54877e-05
0.0103301
0.000185861
0.0103301
0.00031622
0.0103301
0.000446433
0.0103302
0.000575403
0.0103302
0.000695674
0.0103305
0.000740492
0.0103343
0.000620834
0.0103825
0.0109731
0.00513889
0.0108465
0.0065193
0.0105528
0.00651158
0.0109108
0.00594997
0.0109566
0.0053265
0.0109629
0.00469416
0.0109635
0.0040608
0.0109636
0.00342734
0.0109636
0.00279387
0.0109636
0.0021604
0.0109636
0.00152693
0.0109636
0.000893463
0.0109636
0.000259993
0.0109636
-0.000373476
0.0109636
-0.00100695
0.0109636
-0.00164041
0.0109636
-0.00227388
0.0109636
-0.00290735
0.0109636
-0.00354073
0.0109636
-0.00417331
0.0109636
-0.00479879
0.010963
-0.00537358
0.0109572
-0.00547451
0.0109167
-0.00437718
0.0105959
0.0110136
0.00755604
0.0109187
0.00988185
0.0112935
0.00989918
0.0119385
0.00896243
0.0120283
0.00790444
0.0120398
0.00682911
0.012041
0.00575178
0.0120411
0.00467427
0.0120411
0.00359675
0.0120411
0.00251922
0.0120411
0.00144169
0.0120411
0.000364161
0.0120411
-0.000713368
0.0120411
-0.0017909
0.0120411
-0.00286842
0.0120411
-0.00394595
0.0120411
-0.00502348
0.0120411
-0.00610099
0.0120411
-0.00717831
0.0120411
-0.00825355
0.012041
-0.00931091
0.0120397
-0.0102433
0.0120268
-0.010189
0.0119287
-0.00777331
0.0112309
0.0109128
0.00754085
0.0121326
0.00965715
0.0124503
0.00950927
0.0130104
0.00856905
0.0130815
0.00753373
0.0130899
0.00648561
0.0130907
0.00543614
0.0130907
0.00438655
0.0130907
0.00333695
0.0130907
0.00228735
0.0130907
0.00123775
0.0130907
0.000188154
0.0130907
-0.000861445
0.0130907
-0.00191104
0.0130907
-0.00296064
0.0130907
-0.00401024
0.0130907
-0.00505984
0.0130907
-0.00610943
0.0130907
-0.00715888
0.0130907
-0.00820677
0.0130907
-0.00924011
0.0130897
-0.0101669
0.0130801
-0.0102296
0.0129995
-0.00789212
0.0123871
0.0119935
0.00752907
0.0132248
0.00930806
0.0135501
0.00901557
0.0139993
0.00812377
0.0140497
0.00716797
0.0140549
0.00620412
0.0140554
0.00523952
0.0140554
0.00427486
0.0140554
0.00331019
0.0140554
0.00234552
0.0140554
0.00138086
0.0140554
0.000416188
0.0140554
-0.000548479
0.0140554
-0.00151315
0.0140554
-0.00247781
0.0140554
-0.00344248
0.0140554
-0.00440715
0.0140554
-0.00537181
0.0140554
-0.00633641
0.0140554
-0.00730019
0.0140554
-0.00825543
0.0140549
-0.00914329
0.0140495
-0.00941418
0.0139988
-0.00757662
0.0135539
0.0131696
0.00720259
0.0142073
0.00865415
0.0145366
0.00828981
0.0148731
0.0074836
0.0149059
0.00663514
0.014909
0.00578171
0.0149093
0.00492786
0.0149093
0.00407398
0.0149093
0.0032201
0.0149093
0.00236622
0.0149093
0.00151233
0.0149093
0.000658451
0.0149093
-0.000195432
0.0149093
-0.00104931
0.0149093
-0.0019032
0.0149093
-0.00275708
0.0149093
-0.00361096
0.0149093
-0.00446484
0.0149093
-0.0053187
0.0149093
-0.00617216
0.0149093
-0.00702098
0.0149091
-0.00783029
0.0149062
-0.00822306
0.0148754
-0.00689073
0.0145562
0.0142943
0.00649913
0.0152203
0.00756559
0.0153895
0.00714138
0.0156496
0.00640661
0.0156716
0.00564548
0.0156735
0.00488143
0.0156736
0.00411714
0.0156736
0.00335285
0.0156736
0.00258855
0.0156736
0.00182425
0.0156736
0.00105995
0.0156736
0.000295657
0.0156736
-0.00046864
0.0156736
-0.00123294
0.0156736
-0.00199724
0.0156736
-0.00276153
0.0156736
-0.00352583
0.0156736
-0.00429013
0.0156736
-0.00505441
0.0156736
-0.00581846
0.0156736
-0.00657957
0.0156734
-0.00731411
0.0156715
-0.00773356
0.0156489
-0.00663588
0.0153817
0.0152045
0.00666978
0.0159649
0.00763023
0.0161766
0.00715691
0.0164156
0.00641799
0.016434
0.00565838
0.0164355
0.00489657
0.0164356
0.00413461
0.0164356
0.00337264
0.0164356
0.00261067
0.0164356
0.00184869
0.0164356
0.00108672
0.0164356
0.000324746
0.0164356
-0.000437227
0.0164356
-0.0011992
0.0164356
-0.00196117
0.0164356
-0.00272315
0.0164356
-0.00348512
0.0164356
-0.00424709
0.0164356
-0.00500906
0.0164356
-0.00577086
0.0164356
-0.00653039
0.0164355
-0.00726866
0.016434
-0.0077362
0.0164158
-0.00674634
0.0161785
0.0159258
0.00649648
0.0166939
0.00734943
0.0169269
0.00687955
0.0171293
0.00618859
0.0171436
0.00548127
0.0171446
0.00477227
0.0171447
0.00406316
0.0171447
0.00335404
0.0171447
0.00264492
0.0171447
0.0019358
0.0171447
0.00122668
0.0171447
0.000517562
0.0171447
-0.000191556
0.0171447
-0.000900675
0.0171447
-0.00160979
0.0171447
-0.00231891
0.0171447
-0.00302803
0.0171447
-0.00373715
0.0171447
-0.00444626
0.0171447
-0.00515527
0.0171447
-0.00586269
0.0171446
-0.00655468
0.0171436
-0.00703579
0.0171295
-0.00625211
0.0169294
0.0167736
0.00599348
0.0174919
0.00664756
0.0176381
0.00615825
0.0178089
0.00549541
0.01782
0.00482058
0.0178207
0.00414455
0.0178208
0.00346845
0.0178208
0.00279234
0.0178208
0.00211624
0.0178208
0.00144013
0.0178208
0.000764023
0.0178208
8.79173e-05
0.0178208
-0.000588189
0.0178208
-0.00126429
0.0178208
-0.0019404
0.0178208
-0.00261651
0.0178208
-0.00329261
0.0178208
-0.00396872
0.0178208
-0.00464482
0.0178208
-0.00532084
0.0178208
-0.00599557
0.0178207
-0.00665741
0.0178199
-0.00713382
0.017808
-0.00638684
0.017626
0.0173944
0.00610434
0.0181029
0.0067236
0.0183026
0.00623773
0.0184609
0.00559842
0.0184706
0.00494902
0.0184712
0.00429863
0.0184712
0.00364818
0.0184712
0.00299773
0.0184712
0.00234728
0.0184712
0.00169683
0.0184712
0.00104638
0.0184712
0.00039593
0.0184712
-0.00025452
0.0184712
-0.00090497
0.0184712
-0.00155542
0.0184712
-0.00220587
0.0184712
-0.00285632
0.0184712
-0.00350677
0.0184712
-0.00415722
0.0184712
-0.00480761
0.0184712
-0.00545701
0.0184712
-0.00609629
0.0184706
-0.00658334
0.0184617
-0.00597962
0.0183136
0.0180968
0.00587016
0.0186828
0.00642935
0.0189364
0.00596945
0.0190638
0.0053784
0.0190711
0.00477894
0.0190715
0.00417869
0.0190715
0.00357838
0.0190715
0.00297808
0.0190715
0.00237778
0.0190715
0.00177747
0.0190715
0.00117717
0.0190715
0.000576864
0.0190715
-2.34399e-05
0.0190715
-0.000623744
0.0190715
-0.00122405
0.0190715
-0.00182435
0.0190715
-0.00242466
0.0190715
-0.00302496
0.0190715
-0.00362526
0.0190715
-0.00422552
0.0190715
-0.00482508
0.0190715
-0.00541713
0.0190711
-0.0058896
0.0190641
-0.00543247
0.0189409
0.0188089
0.00488635
0.0194003
0.00523622
0.0195172
0.0047918
0.0196129
0.00425153
0.0196179
0.00370546
0.0196182
0.00315886
0.0196182
0.00261223
0.0196182
0.0020656
0.0196182
0.00151897
0.0196182
0.000972335
0.0196182
0.000425704
0.0196182
-0.000120928
0.0196182
-0.00066756
0.0196182
-0.00121419
0.0196182
-0.00176082
0.0196182
-0.00230745
0.0196182
-0.00285409
0.0196182
-0.00340072
0.0196182
-0.00394735
0.0196182
-0.00449394
0.0196182
-0.00503993
0.0196182
-0.00557933
0.0196178
-0.00601113
0.0196121
-0.00553899
0.0195045
0.0192269
0.00497965
0.0198913
0.00533571
0.0200262
0.0049239
0.0201164
0.00442639
0.0201208
0.00392393
0.0201211
0.003421
0.0201211
0.00291806
0.0201211
0.00241511
0.0201211
0.00191216
0.0201211
0.00140921
0.0201211
0.000906263
0.0201211
0.000403315
0.0201211
-9.96336e-05
0.0201211
-0.000602582
0.0201211
-0.00110553
0.0201211
-0.00160848
0.0201211
-0.00211143
0.0201211
-0.00261438
0.0201211
-0.00311732
0.0201211
-0.00362025
0.0201211
-0.00412273
0.0201211
-0.00462035
0.0201209
-0.00503494
0.0201168
-0.00471539
0.0200349
0.0198993
0.00487827
0.0202798
0.00520457
0.0205271
0.00480154
0.0206025
0.00432128
0.020606
0.00383659
0.0206062
0.00335151
0.0206062
0.0028664
0.0206062
0.0023813
0.0206062
0.00189619
0.0206062
0.00141109
0.0206062
0.000925981
0.0206062
0.000440876
0.0206062
-4.42295e-05
0.0206062
-0.000529335
0.0206062
-0.00101444
0.0206062
-0.00149955
0.0206062
-0.00198465
0.0206062
-0.00246976
0.0206062
-0.00295486
0.0206062
-0.00343995
0.0206062
-0.00392467
0.0206062
-0.00440538
0.020606
-0.00481455
0.0206026
-0.00455029
0.0205298
0.020406
0.00397653
0.0208825
0.00417431
0.0209778
0.00380548
0.0210339
0.00337864
0.0210364
0.00294861
0.0210365
0.00251831
0.0210366
0.00208798
0.0210366
0.00165766
0.0210366
0.00122734
0.0210366
0.000797014
0.0210366
0.000366691
0.0210366
-6.36319e-05
0.0210366
-0.000493955
0.0210366
-0.000924278
0.0210366
-0.0013546
0.0210366
-0.00178492
0.0210366
-0.00221525
0.0210366
-0.00264557
0.0210366
-0.00307589
0.0210366
-0.0035062
0.0210366
-0.00393619
0.0210365
-0.00436264
0.0210364
-0.00472534
0.0210337
-0.00445317
0.0209722
0.0207817
0.00404136
0.0212759
0.00425248
0.0213747
0.00391405
0.0214284
0.00352282
0.0214307
0.00312879
0.0214308
0.0027345
0.0214309
0.0023402
0.0214309
0.0019459
0.0214309
0.0015516
0.0214309
0.00115731
0.0214309
0.000763006
0.0214309
0.000368708
0.0214309
-2.55911e-05
0.0214309
-0.00041989
0.0214309
-0.000814189
0.0214309
-0.00120849
0.0214309
-0.00160279
0.0214309
-0.00199709
0.0214309
-0.00239138
0.0214309
-0.00278567
0.0214309
-0.00317972
0.0214308
-0.0035711
0.0214307
-0.0039125
0.0214287
-0.00374224
0.0213811
0.0212921
0.00401465
0.0215322
0.0042072
0.0217751
0.00386716
0.021821
0.00347785
0.0218229
0.00308594
0.021823
0.00269379
0.021823
0.00230164
0.021823
0.00190948
0.021823
0.00151732
0.021823
0.00112516
0.021823
0.000733006
0.021823
0.000340849
0.021823
-5.13089e-05
0.021823
-0.000443466
0.021823
-0.000835624
0.021823
-0.00122778
0.021823
-0.00161994
0.021823
-0.0020121
0.021823
-0.00240425
0.021823
-0.0027964
0.021823
-0.00318834
0.021823
-0.00357788
0.0218229
-0.00392133
0.0218211
-0.00376837
0.0217756
0.0216688
0.0031807
0.0220545
0.00328303
0.0221339
0.00297691
0.0221673
0.00263335
0.0221686
0.00228788
0.0221687
0.00194225
0.0221687
0.0015966
0.0221687
0.00125096
0.0221687
0.000905315
0.0221687
0.000559671
0.0221687
0.000214027
0.0221687
-0.000131617
0.0221687
-0.00047726
0.0221687
-0.000822904
0.0221687
-0.00116855
0.0221687
-0.00151419
0.0221687
-0.00185984
0.0221687
-0.00220548
0.0221687
-0.00255112
0.0221687
-0.00289676
0.0221687
-0.0032422
0.0221686
-0.00358544
0.0221686
-0.00388642
0.022167
-0.00371229
0.0221286
0.0219228
0.00323569
0.0223623
0.00336083
0.0224439
0.00308856
0.0224759
0.00278193
0.0224771
0.00247358
0.0224772
0.00216508
0.0224772
0.00185657
0.0224772
0.00154807
0.0224772
0.00123956
0.0224772
0.000931052
0.0224772
0.000622544
0.0224772
0.000314036
0.0224772
5.52865e-06
0.0224772
-0.000302979
0.0224772
-0.000611487
0.0224772
-0.000919995
0.0224772
-0.0012285
0.0224772
-0.00153701
0.0224772
-0.00184552
0.0224772
-0.00215402
0.0224772
-0.00246238
0.0224772
-0.0027691
0.0224771
-0.00304338
0.0224761
-0.00295148
0.0224481
0.0223743
0.00320911
0.0225376
0.00332247
0.0227555
0.00304991
0.0227828
0.00274495
0.0227839
0.00243835
0.0227839
0.00213161
0.0227839
0.00182486
0.0227839
0.00151811
0.0227839
0.00121137
0.0227839
0.00090462
0.0227839
0.000597874
0.0227839
0.000291127
0.0227839
-1.56196e-05
0.0227839
-0.000322366
0.0227839
-0.000629113
0.0227839
-0.000935859
0.0227839
-0.00124261
0.0227839
-0.00154935
0.0227839
-0.0018561
0.0227839
-0.00216284
0.0227839
-0.00246945
0.0227839
-0.00277459
0.0227839
-0.0030496
0.0227829
-0.002969
0.0227561
0.0226781
0.00243875
0.022967
0.00248401
0.0230322
0.00224187
0.0230511
0.00197531
0.0230517
0.00170755
0.0230518
0.0014397
0.0230518
0.00117184
0.0230518
0.000903983
0.0230518
0.000636125
0.0230518
0.000368266
0.0230518
0.000100408
0.0230518
-0.000167451
0.0230518
-0.00043531
0.0230518
-0.000703168
0.0230518
-0.000971027
0.0230518
-0.00123889
0.0230518
-0.00150674
0.0230518
-0.0017746
0.0230518
-0.00204246
0.0230518
-0.00231031
0.0230518
-0.00257804
0.0230518
-0.00284437
0.0230517
-0.00308245
0.0230509
-0.00297396
0.023028
0.0228169
0.00248615
0.0231984
0.00255891
0.0232644
0.00235115
0.0232826
0.00212086
0.0232832
0.00188949
0.0232832
0.00165802
0.0232832
0.00142654
0.0232832
0.00119507
0.0232832
0.000963597
0.0232832
0.000732124
0.0232832
0.00050065
0.0232832
0.000269177
0.0232832
3.77037e-05
0.0232832
-0.00019377
0.0232832
-0.000425243
0.0232832
-0.000656716
0.0232832
-0.00088819
0.0232832
-0.00111966
0.0232832
-0.00135114
0.0232832
-0.00158261
0.0232832
-0.00181399
0.0232832
-0.00204436
0.0232832
-0.00225366
0.0232827
-0.00220963
0.0232674
0.0232066
0.00246951
0.0232991
0.0025352
0.0234975
0.00232742
0.0235131
0.00209816
0.0235136
0.00186786
0.0235136
0.00163747
0.0235136
0.00140708
0.0235136
0.00117668
0.0235136
0.000946292
0.0235136
0.0007159
0.0235136
0.000485508
0.0235136
0.000255116
0.0235136
2.47237e-05
0.0235136
-0.000205669
0.0235136
-0.000436061
0.0235136
-0.000666453
0.0235136
-0.000896845
0.0235136
-0.00112724
0.0235136
-0.00135763
0.0235136
-0.00158802
0.0235136
-0.00181833
0.0235136
-0.00204771
0.0235136
-0.00225749
0.0235131
-0.00222126
0.0234984
0.0234388
0.00175483
0.0236471
0.00176788
0.0237002
0.00158764
0.02371
0.00139169
0.0237104
0.001195
0.0237104
0.000998256
0.0237104
0.000801506
0.0237104
0.000604756
0.0237104
0.000408007
0.0237104
0.000211257
0.0237104
1.45076e-05
0.0237104
-0.000182242
0.0237104
-0.000378992
0.0237104
-0.000575741
0.0237104
-0.000772491
0.0237104
-0.00096924
0.0237104
-0.00116599
0.0237104
-0.00136274
0.0237104
-0.00155949
0.0237104
-0.00175624
0.0237104
-0.0019529
0.0237104
-0.00214868
0.0237104
-0.00232578
0.0237099
-0.0022596
0.023697
0.023499
0.00179481
0.0238118
0.00183519
0.0238644
0.00168664
0.0238738
0.0015236
0.0238741
0.00135989
0.0238742
0.00119612
0.0238742
0.00103235
0.0238742
0.000868573
0.0238742
0.000704801
0.0238742
0.000541028
0.0238742
0.000377255
0.0238742
0.000213482
0.0238742
4.97095e-05
0.0238742
-0.000114063
0.0238742
-0.000277836
0.0238742
-0.000441609
0.0238742
-0.000605382
0.0238742
-0.000769154
0.0238742
-0.000932927
0.0238742
-0.0010967
0.0238742
-0.00126042
0.0238742
-0.00142351
0.0238741
-0.00157319
0.0238739
-0.00155528
0.0238662
0.0238146
0.00178978
0.0238494
0.00182701
0.0240279
0.00167928
0.0240362
0.00151766
0.0240365
0.00135539
0.0240365
0.00119306
0.0240365
0.00103072
0.0240365
0.000868389
0.0240365
0.000706056
0.0240365
0.000543722
0.0240365
0.000381388
0.0240365
0.000219055
0.0240365
5.6721e-05
0.0240365
-0.000105613
0.0240365
-0.000267946
0.0240365
-0.00043028
0.0240365
-0.000592614
0.0240365
-0.000754947
0.0240365
-0.000917281
0.0240365
-0.00107961
0.0240365
-0.0012419
0.0240365
-0.00140361
0.0240365
-0.00155298
0.0240362
-0.00154188
0.0240291
0.0239814
0.00114123
0.0241214
0.00113873
0.0241641
0.00101655
0.0241685
0.000884822
0.0241687
0.000752663
0.0241687
0.000620467
0.0241687
0.000488269
0.0241687
0.000356072
0.0241687
0.000223875
0.0241687
9.16773e-05
0.0241687
-4.052e-05
0.0241687
-0.000172717
0.0241687
-0.000304915
0.0241687
-0.000437112
0.0241687
-0.00056931
0.0241687
-0.000701507
0.0241687
-0.000833704
0.0241687
-0.000965902
0.0241687
-0.0010981
0.0241687
-0.00123029
0.0241687
-0.00136244
0.0241687
-0.00149404
0.0241687
-0.0016139
0.0241685
-0.001575
0.0241619
0.023999
0.00117245
0.0242283
0.0011929
0.0242699
0.00109649
0.0242741
0.000991364
0.0242742
0.000885838
0.0242742
0.000780277
0.0242742
0.000674714
0.0242742
0.000569152
0.0242742
0.000463589
0.0242742
0.000358027
0.0242742
0.000252464
0.0242742
0.000146902
0.0242742
4.13391e-05
0.0242742
-6.42235e-05
0.0242742
-0.000169786
0.0242742
-0.000275349
0.0242742
-0.000380911
0.0242742
-0.000486474
0.0242742
-0.000592036
0.0242742
-0.000697597
0.0242742
-0.000803128
0.0242742
-0.000908295
0.0242742
-0.0010054
0.0242741
-0.000999785
0.0242707
0.0242246
0.00117601
0.0242156
0.00119696
0.0243726
0.00110328
0.0243766
0.00100124
0.0243767
0.000898801
0.0243767
0.000796333
0.0243767
0.000693863
0.0243767
0.000591394
0.0243767
0.000488924
0.0243767
0.000386455
0.0243767
0.000283985
0.0243767
0.000181516
0.0243767
7.90466e-05
0.0243767
-2.34229e-05
0.0243767
-0.000125892
0.0243767
-0.000228362
0.0243767
-0.000330831
0.0243767
-0.000433301
0.0243767
-0.00053577
0.0243767
-0.000638238
0.0243767
-0.000740679
0.0243767
-0.000842803
0.0243767
-0.000937827
0.0243766
-0.000939436
0.0243737
0.0243364
0.000602257
0.0244173
0.000593176
0.0244511
0.000522355
0.0244527
0.000446537
0.0244528
0.000370502
0.0244528
0.000294448
0.0244528
0.000218394
0.0244528
0.000142339
0.0244528
6.62846e-05
0.0244528
-9.76989e-06
0.0244528
-8.58244e-05
0.0244528
-0.000161879
0.0244528
-0.000237933
0.0244528
-0.000313988
0.0244528
-0.000390042
0.0244528
-0.000466097
0.0244528
-0.000542151
0.0244528
-0.000618206
0.0244528
-0.00069426
0.0244528
-0.000770314
0.0244528
-0.00084634
0.0244528
-0.000922057
0.0244528
-0.000991081
0.0244527
-0.000967655
0.0244497
0.0243356
0.000622736
0.0244777
0.000628484
0.0245117
0.000574508
0.0245114
0.000516052
0.0245114
0.000457394
0.0245114
0.000398718
0.0245114
0.000340042
0.0245114
0.000281366
0.0245114
0.00022269
0.0245114
0.000164014
0.0245114
0.000105338
0.0245114
4.66617e-05
0.0245114
-1.20144e-05
0.0245114
-7.06905e-05
0.0245114
-0.000129367
0.0245114
-0.000188043
0.0245114
-0.000246719
0.0245114
-0.000305395
0.0245114
-0.000364071
0.0245114
-0.000422746
0.0245114
-0.000481405
0.0245114
-0.000539861
0.0245114
-0.0005938
0.0245114
-0.000589534
0.0245114
0.0244692
0.000603327
0.0244606
0.000634594
0.0245663
0.000584663
0.0245666
0.000529642
0.0245667
0.000474386
0.0245667
0.000419111
0.0245667
0.000363835
0.0245667
0.000308559
0.0245667
0.000253283
0.0245667
0.000198007
0.0245667
0.00014273
0.0245667
8.74544e-05
0.0245667
3.21783e-05
0.0245667
-2.30978e-05
0.0245667
-7.83739e-05
0.0245667
-0.00013365
0.0245667
-0.000188926
0.0245667
-0.000244202
0.0245667
-0.000299478
0.0245667
-0.000354754
0.0245667
-0.000410012
0.0245667
-0.000465063
0.0245667
-0.000515567
0.0245666
-0.000493945
0.0245671
0.0244971
-0.0142539
0.055618
-0.0145189
0.0557779
-0.0140193
0.0559636
-0.0135006
0.0559662
-0.0129814
0.0559662
-0.0124621
0.0559662
-0.0119428
0.0559662
-0.0114236
0.0559662
-0.0109043
0.0559662
-0.0103851
0.0559662
-0.00986583
0.0559662
-0.00934658
0.0559662
-0.00882732
0.0559662
-0.00830807
0.0559662
-0.00778881
0.0559662
-0.00726956
0.0559662
-0.00675031
0.0559662
-0.00623105
0.0559662
-0.0057118
0.0559662
-0.00519254
0.0559662
-0.00467329
0.0559662
-0.00415403
0.0559662
-0.00363478
0.0559662
-0.00311553
0.0559662
-0.00259627
0.0559662
-0.00207702
0.0559662
-0.00155775
0.0559662
-0.00103775
0.0559662
-0.000465831
0.0559637
0.0559504
-0.0161383
0.0559903
-0.0164262
0.055214
-0.0158614
0.0553769
-0.0152744
0.0553787
-0.0146869
0.0553788
-0.0140994
0.0553788
-0.013512
0.0553788
-0.0129245
0.0553788
-0.012337
0.0553788
-0.0117495
0.0553788
-0.011162
0.0553788
-0.0105746
0.0553788
-0.0099871
0.0553788
-0.00939962
0.0553788
-0.00881214
0.0553788
-0.00822467
0.0553788
-0.00763719
0.0553788
-0.00704972
0.0553788
-0.00646224
0.0553788
-0.00587476
0.0553788
-0.00528729
0.0553788
-0.00469981
0.0553788
-0.00411233
0.0553788
-0.00352486
0.0553788
-0.00293738
0.0553788
-0.0023499
0.0553788
-0.00176243
0.0553788
-0.00117461
0.0553788
-0.000586449
0.0553787
0.05536
-0.0136258
0.0551035
-0.0137728
0.0547694
-0.0132953
0.0548853
-0.0128031
0.0548863
-0.0123107
0.0548863
-0.0118183
0.0548863
-0.0113258
0.0548863
-0.0108334
0.0548863
-0.010341
0.0548863
-0.00984855
0.0548863
-0.00935613
0.0548863
-0.0088637
0.0548863
-0.00837127
0.0548863
-0.00787884
0.0548863
-0.00738641
0.0548863
-0.00689399
0.0548863
-0.00640156
0.0548863
-0.00590913
0.0548863
-0.0054167
0.0548863
-0.00492428
0.0548863
-0.00443185
0.0548863
-0.00393942
0.0548863
-0.00344699
0.0548863
-0.00295457
0.0548863
-0.00246214
0.0548863
-0.00196971
0.0548863
-0.00147728
0.0548863
-0.000984581
0.0548863
-0.000491822
0.0548863
0.0548674
-0.0115908
0.0545361
-0.0116762
0.0543728
-0.0112701
0.054468
-0.0108529
0.0544689
-0.0104355
0.0544689
-0.0100181
0.0544689
-0.00960067
0.0544689
-0.00918325
0.0544689
-0.00876583
0.0544689
-0.00834841
0.0544689
-0.00793099
0.0544689
-0.00751357
0.0544689
-0.00709615
0.0544689
-0.00667873
0.0544689
-0.00626131
0.0544689
-0.00584389
0.0544689
-0.00542647
0.0544689
-0.00500905
0.0544689
-0.00459162
0.0544689
-0.0041742
0.0544689
-0.00375678
0.0544689
-0.00333936
0.0544689
-0.00292194
0.0544689
-0.00250452
0.0544689
-0.0020871
0.0544689
-0.00166968
0.0544689
-0.00125226
0.0544689
-0.000834605
0.0544689
-0.000416914
0.0544689
0.0544499
-0.0110513
0.0541271
-0.0111319
0.0539835
-0.0107447
0.0540701
-0.010347
0.0540709
-0.00994906
0.0540709
-0.0095511
0.0540709
-0.00915313
0.0540709
-0.00875517
0.0540709
-0.00835721
0.0540709
-0.00795925
0.0540709
-0.00756128
0.0540709
-0.00716332
0.0540709
-0.00676536
0.0540709
-0.0063674
0.0540709
-0.00596944
0.0540709
-0.00557147
0.0540709