/*--------------------------------*- C++ -*----------------------------------*\
| =========                 |                                                 |
| \\      /  F ield         | OpenFOAM: The Open Source CFD Toolbox           |
|  \\    /   O peration     | Version:  2112                                  |
|   \\  /    A nd           | Website:  www.openfoam.com                      |
|    \\/     M anipulation  |                                                 |
\*---------------------------------------------------------------------------*/
FoamFile
{
    version     2.0;
    format      ascii;
    arch        "LSB;label=32;scalar=64";
    class       volVectorField;
    location    "3e-05";
    object      U;
}
// * * * * * * * * * * * * * * * * * * * * * * * * * * * * * * * * * * * * * //

dimensions      [0 1 -1 0 0 0 0];

internalField   nonuniform List<vector> 
13875
(
(2088.53 138.871 1.81574e-18)
(2098.61 75.4833 -9.68729e-19)
(2111.96 22.7058 -8.70471e-19)
(2116.56 7.22965 0)
(2117.62 1.8488 0)
(2117.77 0.444861 8.5277e-19)
(2117.75 0.107649 -8.53088e-19)
(2117.72 0.0313559 -4.26649e-19)
(2117.7 0.0133246 4.26212e-19)
(2117.68 0.00734713 0)
(2117.67 0.00399033 -4.32137e-22)
(2117.66 0.0010853 -4.32138e-22)
(2117.66 -0.001543 0)
(2117.66 -0.00345178 -4.26294e-19)
(2117.66 -0.00482542 4.26726e-19)
(2117.66 -0.00705721 0)
(2117.67 -0.0140471 8.53382e-19)
(2117.69 -0.037693 -8.53766e-19)
(2117.74 -0.122158 4.32006e-22)
(2117.79 -0.462799 -4.31956e-22)
(2117.66 -1.85717 -8.53246e-19)
(2116.61 -7.20254 8.55396e-19)
(2111.98 -22.5982 -1.74025e-18)
(2098.48 -75.2814 1.77419e-18)
(2088.55 -138.63 1.8844e-18)
(1903.08 63.607 -2.40411e-18)
(1876.69 16.5411 2.47323e-18)
(1876.29 9.09255 1.18849e-18)
(1877.64 2.91521 -1.18001e-18)
(1877.92 0.781966 5.72566e-22)
(1877.92 0.200443 5.56939e-22)
(1877.9 0.0551624 5.72545e-22)
(1877.88 0.0197958 -5.90844e-19)
(1877.87 0.011043 5.90857e-19)
(1877.86 0.00776184 2.94871e-19)
(1877.85 0.00515794 -2.21024e-19)
(1877.85 0.00240378 -7.21586e-20)
(1877.84 -0.000682033 0)
(1877.84 -0.00310786 -5.91444e-19)
(1877.84 -0.00491031 5.90315e-19)
(1877.85 -0.00704562 5.90881e-19)
(1877.85 -0.01092 -5.90844e-19)
(1877.86 -0.0223948 5.57047e-22)
(1877.88 -0.0628637 -5.56969e-22)
(1877.92 -0.213634 5.56874e-22)
(1877.94 -0.791591 -1.18055e-18)
(1877.67 -2.89689 3.54301e-18)
(1876.31 -8.97887 -2.37554e-18)
(1876.8 -16.2123 5.71407e-22)
(1908.46 -63.5835 -2.46963e-18)
(1224.85 4.93704 0)
(1207.4 -18.3862 0)
(1208.87 0.647542 0)
(1210.37 0.228769 0)
(1210.67 0.166203 -2.36115e-18)
(1210.73 0.0594779 2.36037e-18)
(1210.74 0.0226959 2.36122e-18)
(1210.74 0.0112151 -3.54172e-18)
(1210.74 0.00717609 1.18128e-18)
(1210.74 0.00519841 5.80965e-22)
(1210.73 0.00359692 -5.90354e-19)
(1210.73 0.00156492 5.90126e-19)
(1210.72 -0.00105702 0)
(1210.72 -0.00300932 0)
(1210.71 -0.00381133 5.80961e-22)
(1210.71 -0.00530734 0)
(1210.7 -0.00773691 9.34626e-22)
(1210.7 -0.0114355 5.90303e-19)
(1210.69 -0.0233187 -5.90273e-19)
(1210.67 -0.0614973 0)
(1210.61 -0.167987 0)
(1210.3 -0.208416 0)
(1208.74 -0.588349 0)
(1207.4 18.7842 0)
(1220.56 -4.49839 0)
(489.682 -2.49697 0)
(509.87 -8.83597 1.6893e-18)
(515.73 0.0872351 -3.35842e-18)
(516.427 -0.200124 3.36739e-18)
(516.554 0.00447977 -1.68223e-18)
(516.585 0.00896122 0)
(516.59 0.00642765 -1.07129e-21)
(516.592 0.00521146 0)
(516.59 0.00409982 0)
(516.586 0.00331279 0)
(516.582 0.0024974 0)
(516.578 0.00107093 -1.07152e-21)
(516.573 -0.000475665 -5.25661e-20)
(516.568 -0.00150232 5.25662e-20)
(516.563 -0.00137139 0)
(516.557 -0.00164628 0)
(516.55 -0.00268673 -9.18247e-23)
(516.543 -0.00293787 -8.41993e-19)
(516.537 -0.00272808 8.41011e-19)
(516.527 -0.00338204 -1.68201e-18)
(516.491 -0.000473767 1.68175e-18)
(516.354 0.214252 1.68563e-18)
(515.682 -0.0874139 -1.68262e-18)
(509.697 8.84703 0)
(488.345 2.61423 0)
(118.896 0.59371 5.4783e-19)
(125.677 -0.101083 0)
(127.668 0.156355 0)
(127.543 -0.0180106 0)
(127.529 0.00191286 0)
(127.529 0.00220307 4.24928e-22)
(127.529 0.00190541 4.24924e-22)
(127.529 0.0017763 1.41289e-19)
(127.529 0.00155939 -1.40441e-19)
(127.528 0.0014111 7.00075e-20)
(127.527 0.00126754 -7.08575e-20)
(127.525 0.000999435 0)
(127.523 0.00070984 0)
(127.52 0.000506523 -4.24932e-22)
(127.517 0.000571429 0)
(127.514 0.000568526 -4.24926e-22)
(127.511 0.000369302 2.79583e-19)
(127.507 0.000314223 -2.79584e-19)
(127.505 0.000448996 5.63834e-19)
(127.505 0.000573349 -5.6339e-19)
(127.505 0.00043229 4.24892e-22)
(127.514 0.0219532 0)
(127.657 -0.156781 0)
(125.605 0.0923412 0)
(118.715 -0.581292 0)
(14.7348 -0.0128055 0)
(15.5923 -0.0340304 1.82634e-19)
(15.7427 -0.000804168 -1.8249e-19)
(15.7337 -0.000197061 0)
(15.7329 9.60449e-05 1.82522e-19)
(15.7329 0.000103638 -9.17668e-20)
(15.7329 9.82993e-05 -5.05471e-22)
(15.733 9.69668e-05 -4.61364e-20)
(15.733 9.43473e-05 -9.17673e-20)
(15.7329 9.18141e-05 3.47287e-20)
(15.7329 8.87781e-05 5.05481e-22)
(15.7328 8.3887e-05 5.66851e-20)
(15.7326 7.87094e-05 -4.56311e-20)
(15.7324 7.50156e-05 8.59213e-22)
(15.7321 7.68417e-05 -9.12624e-20)
(15.7319 7.73414e-05 9.1768e-20)
(15.7316 7.34644e-05 5.05451e-22)
(15.7314 7.1485e-05 -5.05445e-22)
(15.7311 7.30554e-05 -5.05442e-22)
(15.731 7.67215e-05 -1.82525e-19)
(15.731 7.69959e-05 1.82019e-19)
(15.7315 0.000395878 0)
(15.7415 0.00103786 0)
(15.5887 0.0362116 -3.64728e-19)
(14.7447 0.0152195 4.66983e-22)
(10.0879 0.000865327 -1.13523e-20)
(10.1214 0.000981371 1.13153e-20)
(10.126 -1.69626e-05 0)
(10.1259 1.52007e-06 -5.52358e-24)
(10.1259 2.14557e-06 -5.52363e-24)
(10.1259 2.20552e-06 0)
(10.1259 2.1262e-06 0)
(10.1259 2.10602e-06 -1.81017e-19)
(10.1259 2.06774e-06 1.81024e-19)
(10.1259 2.02814e-06 0)
(10.1259 1.98099e-06 3.62054e-19)
(10.1259 1.90395e-06 3.56338e-22)
(10.1259 1.81352e-06 -3.6206e-19)
(10.1259 1.75098e-06 -3.61869e-22)
(10.1259 1.78995e-06 0)
(10.1259 1.80178e-06 7.24134e-19)
(10.1259 1.72977e-06 5.51742e-24)
(10.1259 1.68483e-06 -1.4483e-18)
(10.1259 1.65928e-06 7.2416e-19)
(10.1259 1.42009e-06 5.52444e-24)
(10.1259 -2.12841e-06 0)
(10.1259 -6.52354e-05 7.24184e-19)
(10.126 -0.00101492 -7.24236e-19)
(10.1206 -0.0208664 7.2452e-19)
(10.0836 -0.0201984 -7.26436e-19)
(9.98238 0.0271345 4.69692e-22)
(10.0005 0.0274458 -1.44601e-18)
(10.0023 0.00142175 1.76449e-22)
(10.0024 8.87568e-05 5.51428e-24)
(10.0024 5.04933e-06 -1.70923e-22)
(10.0024 4.45756e-07 0)
(10.0024 6.75345e-08 -7.22671e-19)
(10.0024 5.08135e-08 7.22656e-19)
(10.0024 4.91879e-08 0)
(10.0024 4.82045e-08 -1.76428e-22)
(10.0024 4.70712e-08 -1.76427e-22)
(10.0024 4.54883e-08 0)
(10.0024 4.36102e-08 0)
(10.0024 4.2319e-08 -3.47331e-22)
(10.0024 4.31995e-08 -1.76421e-22)
(10.0024 4.33556e-08 5.51366e-24)
(10.0024 4.18183e-08 -1.81931e-22)
(10.0024 4.02278e-08 -5.51356e-24)
(10.0024 2.70507e-08 -3.61297e-19)
(10.0024 -2.52433e-07 -5.51087e-24)
(10.0024 -3.67157e-06 3.61467e-19)
(10.0024 -6.59235e-05 1.81923e-22)
(10.0022 -0.00106398 7.22592e-19)
(9.99989 -0.0204091 -7.23111e-19)
(9.9598 -0.0202026 5.52723e-24)
(9.72032 -0.00456484 1.80872e-19)
(9.98204 -0.00903696 0)
(9.99864 -0.00122572 -1.7613e-22)
(9.99996 -0.000107505 -1.80374e-19)
(10.0001 -8.33341e-06 3.60949e-19)
(10.0001 -5.15751e-07 -3.60775e-19)
(10.0001 -2.74736e-08 8.80806e-23)
(10.0001 -1.28381e-09 1.8039e-19)
(10.0001 -1.20253e-11 0)
(10.0001 2.20598e-11 -1.80128e-19)
(10.0001 6.85909e-13 1.80569e-19)
(10.0001 -2.88665e-11 0)
(10.0001 -6.73532e-11 0)
(10.0001 -9.62215e-11 4.4042e-22)
(10.0001 -7.54576e-11 1.76169e-22)
(10.0001 -6.96987e-11 1.80398e-19)
(10.0001 -2.49397e-11 -1.80223e-19)
(10.0001 1.6628e-09 0)
(10.0001 3.63364e-08 1.80401e-19)
(10.0001 7.05164e-07 -3.60716e-19)
(10.0001 1.08692e-05 1.80227e-19)
(9.99996 0.000153574 -1.76165e-22)
(9.99866 0.00186945 0)
(9.98252 0.0202892 0)
(9.73293 0.0154598 0)
(9.4657 -0.308416 -1.25713e-17)
(9.8591 -0.333409 1.26031e-17)
(9.98872 -0.0269159 0)
(9.99917 -0.00202922 -6.26436e-18)
(9.99995 -0.000137394 6.26399e-18)
(10 -9.98251e-06 0)
(10 -5.40133e-07 -6.21198e-21)
(10 -2.68623e-08 -3.13106e-18)
(10 -1.24249e-09 3.12439e-18)
(10 -4.37508e-11 -6.20885e-21)
(10 1.12305e-11 0)
(10 1.3502e-11 -7.82218e-19)
(10 1.29474e-11 1.16697e-18)
(10 1.26146e-11 -3.97149e-19)
(10 1.54919e-11 -6.1072e-21)
(10 7.12981e-11 0)
(10 1.27633e-09 0)
(10 2.69425e-08 -6.24911e-18)
(10 5.3896e-07 6.24143e-18)
(10 9.9064e-06 -6.24606e-18)
(9.99995 0.000136571 6.23679e-18)
(9.99918 0.00199773 6.24106e-18)
(9.9889 0.0263883 -6.23254e-18)
(9.86377 0.324898 -1.25319e-17)
(9.4595 0.299772 -4.51737e-20)
(9.43543 -0.545242 -1.42157e-17)
(9.67093 -0.586765 1.43127e-17)
(9.97179 -0.0519238 0)
(9.9976 -0.00458224 1.4216e-17)
(9.99983 -0.000333142 -1.42182e-17)
(9.99999 -2.639e-05 -7.11498e-18)
(10 -1.55519e-06 7.12608e-18)
(10 -8.4254e-08 -7.12321e-18)
(10 -4.2411e-09 7.12723e-18)
(10 -2.05058e-10 6.9642e-21)
(10 -9.75847e-12 0)
(10 -1.30868e-12 -4.46179e-19)
(10 -1.01748e-12 4.53371e-19)
(10 -5.17323e-13 6.97804e-21)
(10 9.14214e-12 6.98094e-21)
(10 2.28332e-10 6.98387e-21)
(10 4.73961e-09 0)
(10 9.37323e-08 0)
(10 1.72304e-06 -1.4313e-17)
(9.99999 2.89723e-05 1.43253e-17)
(9.99981 0.000363842 -1.43266e-17)
(9.9973 0.00495588 2.86713e-17)
(9.96856 0.0554667 -1.43453e-17)
(9.63888 0.614169 -7.01632e-21)
(9.3944 0.570486 7.07644e-21)
(9.43701 -0.698024 -1.56671e-17)
(9.54174 -0.748662 1.22175e-19)
(9.95757 -0.0726131 3.12774e-17)
(9.9959 -0.00728758 -1.56417e-17)
(9.9997 -0.000574797 0)
(9.99998 -4.95448e-05 1.56397e-17)
(10 -3.20082e-06 -1.56431e-17)
(10 -1.88769e-07 0)
(10 -1.02359e-08 7.64125e-21)
(10 -5.35207e-10 0)
(10 -2.46098e-11 0)
(10 -7.08961e-13 0)
(10 2.98015e-13 9.78644e-19)
(10 1.27199e-12 -9.78683e-19)
(10 2.45659e-11 -7.64601e-21)
(10 5.20603e-10 -7.646e-21)
(10 9.96113e-09 0)
(10 1.84429e-07 0)
(10 3.13665e-06 0)
(9.99998 4.88121e-05 -1.56562e-17)
(9.99971 0.00056616 3.13251e-17)
(9.99597 0.0072397 -1.56686e-17)
(9.95817 0.0723108 -1.567e-17)
(9.54135 0.752818 1.56808e-17)
(9.46556 0.703665 -7.7092e-21)
(9.44386 -0.817019 1.71055e-17)
(9.4631 -0.874277 0)
(9.94678 -0.0920277 0)
(9.99431 -0.0102248 -1.69182e-17)
(9.99955 -0.000867571 1.69183e-17)
(9.99996 -8.04525e-05 0)
(10 -5.65013e-06 2.06509e-21)
(10 -3.61249e-07 8.45818e-18)
(10 -2.12464e-08 -8.4555e-18)
(10 -1.19798e-09 0)
(10 -6.09864e-11 -2.11395e-18)
(10 -2.82938e-12 2.11575e-18)
(10 -2.86736e-14 -1.05667e-18)
(10 2.46352e-12 1.05848e-18)
(10 5.44762e-11 8.25098e-21)
(10 1.07504e-09 -8.44654e-18)
(10 1.91236e-08 1.68899e-17)
(10 3.28214e-07 5.91008e-26)
(10 5.17162e-06 -8.43812e-18)
(9.99997 7.4668e-05 -1.68701e-17)
(9.9996 0.000806456 1.68531e-17)
(9.99477 0.00969446 1.02886e-20)
(9.95089 0.0878715 2.05765e-21)
(9.4875 0.85787 1.7007e-17)
(9.50858 0.803666 1.28708e-19)
(9.53796 -0.887764 0)
(9.46208 -0.946487 0)
(9.94462 -0.104806 0)
(9.99355 -0.0126192 0)
(9.99946 -0.00113235 0)
(9.99995 -0.000112305 1.79013e-17)
(10 -8.47429e-06 -1.78881e-17)
(10 -5.83787e-07 1.74515e-20)
(10 -3.70592e-08 -2.1795e-21)
(10 -2.26711e-09 4.45957e-18)
(10 -1.25554e-10 -4.47283e-18)
(10 -6.40767e-12 -3.69491e-20)
(10 -1.04217e-14 -1.38968e-19)
(10 5.55731e-12 1.54007e-19)
(10 1.07373e-10 -4.43742e-18)
(10 1.94517e-09 4.43264e-18)
(10 3.19285e-08 1.5134e-20)
(10 5.04295e-07 0)
(10 7.35618e-06 0)
(9.99996 9.82947e-05 0)
(9.99955 0.00100062 -1.76275e-17)
(9.99462 0.0112549 1.21889e-20)
(9.95299 0.0952803 1.75904e-17)
(9.53713 0.879568 2.14978e-21)
(9.57311 0.822146 2.16618e-21)
(9.62606 -0.862196 0)
(9.56621 -0.922156 4.54705e-21)
(9.95289 -0.107425 0)
(9.99422 -0.0136365 -1.85995e-17)
(9.99949 -0.00129924 3.72345e-17)
(9.99995 -0.000135395 -1.86303e-17)
(10 -1.09379e-05 0)
(10 -8.05827e-07 -1.82227e-20)
(10 -5.5148e-08 0)
(10 -3.62563e-09 0)
(10 -2.1738e-10 -2.31499e-18)
(10 -1.22117e-11 2.3715e-18)
(10 2.68107e-13 2.34113e-18)
(10 1.65325e-11 -2.36088e-18)
(10 2.86602e-10 0)
(10 4.7226e-09 -9.38104e-18)
(10 7.11999e-08 9.36813e-18)
(10 1.02329e-06 9.39614e-18)
(10 1.36532e-05 -9.39648e-18)
(9.99993 0.000164551 0)
(9.9993 0.00156222 0)
(9.99249 0.0157748 -1.83803e-20)
(9.93979 0.121734 -1.88573e-17)
(9.48596 0.984029 3.79263e-17)
(9.47237 0.916313 -1.89278e-17)
(9.68012 -0.962596 -2.01676e-17)
(9.53627 -1.02467 2.03137e-17)
(9.9457 -0.130296 0)
(9.99272 -0.0181626 -2.01174e-17)
(9.99932 -0.00186923 -4.41538e-21)
(9.99993 -0.000209432 3.02351e-17)
(9.99999 -1.84119e-05 -2.0181e-17)
(10 -1.4684e-06 1.00992e-17)
(10 -1.09014e-07 0)
(10 -7.77835e-09 0)
(10 -5.09227e-10 -4.94343e-21)
(10 -3.15704e-11 1.48419e-20)
(10 4.06482e-13 0)
(10 3.75341e-11 0)
(10 6.03682e-10 5.07633e-18)
(10 9.16543e-09 -5.07947e-18)
(10 1.27611e-07 -1.0165e-17)
(10 1.70608e-06 2.03268e-17)
(9.99999 2.11904e-05 3.50838e-24)
(9.99991 0.000238197 -1.0172e-17)
(9.99917 0.0021042 0)
(9.99125 0.0201966 0)
(9.93595 0.142402 -2.04389e-17)
(9.46125 1.10272 2.04787e-17)
(9.64208 1.03744 -5.04814e-21)
(10.186 -0.71198 2.03852e-17)
(9.82619 -0.746709 -9.8949e-21)
(9.98308 -0.0878891 1.00915e-17)
(9.99761 -0.0123852 -1.00961e-17)
(9.9998 -0.0012518 -4.92343e-21)
(9.99998 -0.000146242 9.84554e-21)
(10 -1.31789e-05 1.00804e-17)
(10 -1.09734e-06 -1.51183e-17)
(10 -8.60663e-08 5.04354e-18)
(10 -6.59021e-09 0)
(10 -4.64608e-10 -2.51353e-18)
(10 -3.10846e-11 2.51308e-18)
(10 -2.54815e-13 0)
(10 2.79926e-11 4.91583e-21)
(10 4.18312e-10 -2.51134e-18)
(10 5.95153e-09 2.5156e-18)
(10 7.78132e-08 0)
(10 9.98943e-07 -1.0047e-17)
(10 1.2076e-05 1.00539e-17)
(9.99998 0.000135665 1.00412e-17)
(9.99985 0.00116137 -2.0101e-17)
(9.99805 0.0117445 1.00501e-17)
(9.98643 0.0834336 0)
(9.84447 0.733446 2.02509e-17)
(10.2795 0.701108 9.89762e-20)
(10.6647 -0.205402 1.10089e-20)
(10.0463 -0.209698 1.00634e-17)
(10.0074 -0.0236219 -5.01312e-18)
(10.0008 -0.00331838 -5.0078e-18)
(10.0001 -0.000343383 7.51513e-18)
(10 -4.09231e-05 -5.00557e-18)
(10 -3.72375e-06 5.00575e-18)
(10 -3.17081e-07 -5.0041e-18)
(10 -2.57099e-08 -4.8858e-21)
(10 -2.03472e-09 2.50102e-18)
(10 -1.48341e-10 1.24539e-18)
(10 -1.02808e-11 -4.27271e-21)
(10 -4.52006e-13 -1.25036e-18)
(10 5.91348e-12 -4.27163e-21)
(10 8.66191e-11 -5.49092e-21)
(10 1.17997e-09 -1.56153e-19)
(10 1.47823e-08 -3.61829e-29)
(10 1.81037e-07 4.68246e-19)
(10 2.10741e-06 -3.1209e-19)
(10 2.32313e-05 0)
(10.0001 0.000192196 1.25265e-18)
(10.0009 0.00186739 -3.74765e-18)
(10.0077 0.0126396 4.99252e-18)
(10.0513 0.111358 -7.5157e-18)
(10.6162 0.108969 7.53682e-18)
(10.4201 0.786997 -1.95828e-20)
(9.81318 0.812315 -2.02351e-20)
(9.98196 0.0972351 2.01884e-20)
(9.99756 0.0133345 -6.30343e-22)
(9.99981 0.0013492 -1.95278e-20)
(9.99998 0.000160455 -2.07749e-20)
(10 1.45075e-05 -6.29148e-22)
(10 1.21295e-06 0)
(10 9.64256e-08 0)
(10 7.51369e-09 5.12393e-18)
(10 5.37851e-10 -5.14072e-18)
(10 3.65218e-11 -6.27128e-22)
(10 5.54152e-13 6.26662e-22)
(10 -2.71589e-11 -6.62072e-19)
(10 -4.0091e-10 6.41576e-19)
(10 -5.62797e-09 0)
(10 -7.24518e-08 0)
(10 -9.21938e-07 -5.1164e-18)
(10 -1.11798e-05 5.09254e-18)
(9.99999 -0.000126499 -1.9956e-20)
(9.99994 -0.001069 0)
(9.99882 -0.0109392 0)
(9.99133 -0.0806786 -2.05368e-20)
(9.88297 -0.704738 -2.05527e-20)
(10.4672 -0.681498 2.04684e-17)
(9.52818 1.13051 -2.09611e-17)
(9.3648 1.2006 -2.09993e-17)
(9.91446 0.174128 2.09267e-17)
(9.98867 0.0241312 0)
(9.99887 0.00262037 2.0497e-20)
(9.99988 0.00029924 1.05213e-17)
(9.99999 2.71539e-05 -2.1018e-17)
(10 2.20794e-06 1.05156e-17)
(10 1.67791e-07 -1.05317e-17)
(10 1.21296e-08 1.05476e-17)
(10 8.04562e-10 2.62278e-18)
(10 5.00592e-11 -3.28259e-18)
(10 -1.92347e-13 -6.58864e-19)
(10 -5.23606e-11 1.3284e-18)
(10 -8.39447e-10 0)
(10 -1.26314e-08 0)
(10 -1.74281e-07 1.05543e-17)
(10 -2.29123e-06 -2.11146e-17)
(9.99999 -2.81197e-05 1.05806e-17)
(9.99988 -0.000309774 2.06296e-20)
(9.99882 -0.00269692 2.11384e-17)
(9.98807 -0.0248924 -6.2605e-21)
(9.91068 -0.178276 -6.3345e-17)
(9.33094 -1.23818 6.34659e-17)
(9.57032 -1.17028 -2.13948e-17)
(9.35416 0.939213 9.27896e-21)
(9.44739 1.01052 -1.9023e-17)
(9.92819 0.138544 1.89626e-17)
(9.99141 0.0172583 0)
(9.99917 0.0017666 0)
(9.99992 0.000185916 0)
(9.99999 1.55222e-05 0)
(10 1.16395e-06 0)
(10 8.14961e-08 -4.76177e-18)
(10 5.38809e-09 9.54026e-18)
(10 3.26035e-10 -7.16757e-18)
(10 1.84947e-11 2.68046e-18)
(10 -3.14259e-13 -2.99078e-19)
(10 -2.25342e-11 -5.3364e-34)
(10 -3.95178e-10 -4.79092e-18)
(10 -6.48457e-09 4.79369e-18)
(10 -9.73265e-08 0)
(10 -1.37571e-06 0)
(9.99999 -1.81394e-05 -1.91987e-17)
(9.9999 -0.000213769 1.92184e-17)
(9.999 -0.00201061 -1.87776e-20)
(9.98978 -0.0192644 9.39369e-21)
(9.91594 -0.15195 -9.39943e-21)
(9.37359 -1.07258 -9.42353e-21)
(9.26929 -0.996239 0)
(9.46512 0.757862 -1.73755e-17)
(9.58146 0.813162 1.71401e-17)
(9.9517 0.0981814 -1.68334e-20)
(9.99483 0.010797 1.72402e-17)
(9.99955 0.00100011 -1.72435e-17)
(9.99996 9.69633e-05 0)
(10 7.32492e-06 -8.62535e-18)
(10 5.01597e-07 8.61845e-18)
(10 3.2158e-08 -4.31413e-18)
(10 1.95768e-09 8.64637e-18)
(10 1.08569e-10 -4.30688e-18)
(10 5.78232e-12 1.68586e-20)
(10 -1.9586e-13 0)
(10 -6.38181e-12 2.1667e-18)
(10 -1.21565e-10 2.1584e-18)
(10 -2.17851e-09 -4.30857e-18)
(10 -3.55897e-08 -8.64269e-18)
(10 -5.50091e-07 8.6428e-18)
(10 -7.95346e-06 -8.64277e-18)
(9.99996 -0.000103933 8.63416e-18)
(9.9995 -0.00106684 8.43147e-21)
(9.99436 -0.0113377 -8.431e-21)
(9.94795 -0.10196 0)
(9.56156 -0.824347 8.4379e-21)
(9.39785 -0.765387 0)
(9.57325 0.604787 1.59129e-17)
(9.69946 0.646783 -1.57245e-17)
(9.96938 0.0686982 6.74773e-21)
(9.99707 0.00671334 0)
(9.99977 0.000563916 0)
(9.99998 5.07557e-05 -9.63092e-22)
(10 3.47377e-06 0)
(10 2.18119e-07 7.69967e-21)
(10 1.28751e-08 0)
(10 7.28275e-10 3.93177e-18)
(10 3.7341e-11 -5.90704e-18)
(10 1.79818e-12 2.93799e-18)
(10 1.62201e-14 -9.82557e-19)
(10 -1.61153e-12 0)
(10 -3.44761e-11 0)
(10 -6.75529e-10 3.92156e-18)
(10 -1.19487e-08 -1.17788e-17)
(10 -2.02535e-07 7.84588e-18)
(10 -3.22599e-06 -7.85097e-18)
(9.99998 -4.72737e-05 7.84544e-18)
(9.99979 -0.000526295 0)
(9.99734 -0.00629016 0)
(9.97223 -0.0645495 0)
(9.72473 -0.61744 -9.57215e-22)
(9.59886 -0.57667 -1.56742e-17)
(9.7258 0.469787 -2.67429e-21)
(9.80482 0.499826 1.46007e-17)
(9.98289 0.0456258 -1.45729e-17)
(9.99852 0.00401076 0)
(9.99989 0.000304777 0)
(9.99999 2.58179e-05 8.90423e-22)
(10 1.59917e-06 7.29903e-18)
(10 9.27427e-08 -7.29298e-18)
(10 5.06163e-09 3.56326e-21)
(10 2.68715e-10 3.56373e-21)
(10 1.27952e-11 3.56417e-21)
(10 6.07189e-13 -8.91147e-22)
(10 -5.8172e-15 -8.90834e-22)
(10 -5.02147e-13 1.82189e-18)
(10 -1.27507e-11 -1.82919e-18)
(10 -2.68402e-10 4.45749e-21)
(10 -5.05337e-09 4.45784e-21)
(10 -9.27859e-08 0)
(10 -1.60278e-06 -7.30028e-18)
(9.99999 -2.59649e-05 7.30248e-18)
(9.99989 -0.000305967 0)
(9.9985 -0.00404482 -1.46109e-17)
(9.98267 -0.0461393 1.46134e-17)
(9.80049 -0.508131 8.92564e-22)
(9.74187 -0.478588 -1.4634e-17)
(9.7899 0.428393 3.39307e-21)
(9.82926 0.452927 0)
(9.98662 0.0374929 0)
(9.99893 0.0030392 -6.95321e-18)
(9.99993 0.000213742 6.94719e-18)
(10 1.73406e-05 0)
(10 9.89919e-07 6.94533e-18)
(10 5.37318e-08 -6.9528e-18)
(10 2.73803e-09 3.47842e-18)
(10 1.37842e-10 -3.47871e-18)
(10 6.10078e-12 1.7344e-18)
(10 3.61142e-13 -1.74471e-18)
(10 -3.68095e-14 0)
(10 -4.02549e-13 -1.73474e-18)
(10 -6.30569e-12 1.74162e-18)
(10 -1.43102e-10 -3.39513e-21)
(10 -2.84209e-09 -3.39526e-21)
(10 -5.56488e-08 6.79074e-21)
(10 -1.0241e-06 6.9505e-18)
(9.99999 -1.78624e-05 -6.95063e-18)
(9.99993 -0.00022044 -6.79112e-21)
(9.99888 -0.00311714 -6.79118e-21)
(9.986 -0.0384033 0)
(9.82363 -0.458412 -6.79747e-21)
(9.76907 -0.433153 3.39795e-21)
(9.7955 0.374262 1.25996e-23)
(9.85686 0.395603 0)
(9.98953 0.0304876 1.2576e-23)
(9.99922 0.00230869 6.42529e-21)
(9.99995 0.000153859 -1.25719e-23)
(10 1.19617e-05 -6.59016e-18)
(10 6.41983e-07 6.58901e-18)
(10 3.30706e-08 0)
(10 1.5979e-09 -6.43222e-21)
(10 7.68151e-11 -1.25605e-23)
(10 3.25136e-12 -1.25581e-23)
(10 2.65132e-13 6.441e-21)
(10 8.9419e-14 0)
(10 -2.37585e-13 0)
(10 -3.11147e-12 -1.25476e-23)
(10 -7.13227e-11 -1.25448e-23)
(10 -1.48356e-09 -3.28781e-18)
(10 -3.08038e-08 9.8547e-18)
(10 -5.99045e-07 -6.57251e-18)
(10 -1.12326e-05 0)
(9.99996 -0.000144492 -6.56287e-18)
(9.99929 -0.00218377 6.57408e-18)
(9.99051 -0.0288732 1.25236e-23)
(9.86796 -0.381327 6.41436e-21)
(9.81744 -0.360734 1.25325e-23)
(9.84692 0.314028 -5.37216e-20)
(9.89261 0.3314 -5.13849e-20)
(9.99291 0.0230935 1.25268e-17)
(9.9995 0.00164526 -6.27362e-18)
(9.99997 0.000102779 6.26329e-18)
(10 7.72646e-06 -6.2713e-18)
(10 3.86721e-07 6.27316e-18)
(10 1.89683e-08 -3.1375e-18)
(10 8.67066e-10 3.1384e-18)
(10 4.00222e-11 1.19755e-23)
(10 1.58497e-12 1.19788e-23)
(10 -3.956e-14 -1.19793e-23)
(10 6.80911e-14 7.79164e-19)
(10 -1.22754e-13 7.85503e-19)
(10 -1.82347e-12 -1.57791e-18)
(10 -4.37014e-11 1.19949e-23)
(10 -9.46542e-10 6.29038e-18)
(10 -2.06556e-08 -1.25778e-17)
(10 -4.20441e-07 6.29349e-18)
(10 -8.36081e-06 0)
(9.99997 -0.000110936 -1.20097e-23)
(9.99944 -0.00176689 1.20125e-23)
(9.99195 -0.0248213 -1.2015e-23)
(9.87969 -0.351071 -1.25598e-17)
(9.83982 -0.333178 1.26607e-17)
(9.87044 0.291932 1.17929e-20)
(9.90207 0.307111 0)
(9.99398 0.0199985 0)
(9.9996 0.00134743 5.8912e-21)
(9.99998 8.00372e-05 1.17819e-20)
(10 5.86095e-06 0)
(10 2.77081e-07 6.02585e-18)
(10 1.30336e-08 -6.03731e-18)
(10 5.68168e-10 5.88972e-21)
(10 2.53613e-11 -5.88935e-21)
(10 9.25034e-13 -1.50758e-18)
(10 2.38541e-14 1.51287e-18)
(10 6.86598e-14 3.88526e-19)
(10 -1.1012e-13 -3.76659e-19)
(10 -1.01363e-12 1.51302e-18)
(10 -2.55437e-11 -4.52102e-18)
(10 -5.74586e-10 3.00786e-18)
(10 -1.31351e-08 -5.8857e-21)
(10 -2.79157e-07 5.88515e-21)
(10 -5.86593e-06 -6.0258e-18)
(9.99998 -8.06006e-05 -5.87432e-21)
(9.9996 -0.00134658 1.41953e-22)
(9.99394 -0.0199511 6.02981e-18)
(9.90315 -0.302422 5.88591e-21)
(9.84291 -0.286745 5.88428e-21)
(9.85128 0.25862 1.16456e-17)
(9.91575 0.272312 -1.15668e-17)
(9.99502 0.0169292 0)
(9.99968 0.00108704 -5.79683e-18)
(9.99998 6.23851e-05 -5.6669e-21)
(10 4.42098e-06 5.79522e-18)
(10 2.00338e-07 5.79653e-18)
(10 9.08537e-09 -5.78509e-18)
(10 3.81688e-10 -5.6535e-21)
(10 1.64821e-11 -2.88815e-18)
(10 5.73559e-13 1.44792e-18)
(10 -2.0247e-14 1.44146e-18)
(10 1.32981e-13 -5.64468e-21)
(10 9.05397e-14 0)
(10 -6.38354e-13 0)
(10 -1.42752e-11 0)
(10 -3.29926e-10 5.64078e-21)
(10 -7.92036e-09 1.40978e-21)
(10 -1.74995e-07 -7.04681e-21)
(10 -3.92037e-06 0)
(9.99999 -5.508e-05 5.63405e-21)
(9.99974 -0.000975339 1.40808e-21)
(9.99594 -0.0151705 -7.03808e-21)
(9.92862 -0.252903 -1.15037e-17)
(9.88715 -0.240261 1.1574e-17)
(9.89446 0.201398 5.5604e-18)
(9.94586 0.212193 -1.1087e-17)
(9.99711 0.0119018 1.10981e-17)
(9.99982 0.000736294 -5.54613e-18)
(9.99999 3.98817e-05 -5.55899e-18)
(10 2.77138e-06 5.55416e-18)
(10 1.17921e-07 2.77465e-18)
(10 5.16844e-09 -2.78512e-18)
(10 2.07151e-10 1.38489e-18)
(10 8.70114e-12 -2.77616e-18)
(10 4.20542e-13 2.08552e-18)
(10 -1.22416e-13 -8.70851e-19)
(10 -8.6194e-14 1.73954e-19)
(10 1.55701e-13 -5.43885e-21)
(10 -3.74305e-13 2.78627e-18)
(10 -1.01069e-11 -2.79263e-18)
(10 -2.39992e-10 5.4455e-21)
(10 -5.96624e-09 5.58209e-18)
(10 -1.35964e-07 6.81127e-21)
(10 -3.17322e-06 -5.57615e-18)
(9.99999 -4.55386e-05 0)
(9.99978 -0.000834192 5.58916e-18)
(9.99636 -0.0135761 -5.58549e-18)
(9.93322 -0.236519 -1.11433e-17)
(9.88936 -0.225165 3.2545e-20)
(9.93071 0.190682 -5.41255e-18)
(9.95103 0.19985 5.38654e-18)
(9.99758 0.010475 2.63552e-21)
(9.99986 0.000622108 -7.90585e-21)
(9.99999 3.2199e-05 2.63498e-21)
(10 2.22152e-06 5.39846e-18)
(10 8.98395e-08 -2.69496e-18)
(10 3.83321e-09 -2.69201e-18)
(10 1.47916e-10 5.26749e-21)
(10 6.02286e-12 -5.26685e-21)
(10 8.06196e-14 2.63244e-21)
(10 1.26146e-13 -2.63156e-21)
(10 -3.7036e-14 0)
(10 -2.76617e-14 5.41997e-36)
(10 -9.19342e-14 -1.34452e-18)
(10 -5.86987e-12 1.35254e-18)
(10 -1.45357e-10 -2.69946e-18)
(10 -3.74989e-09 -2.6307e-21)
(10 -8.79709e-08 2.69084e-18)
(10 -2.1578e-06 -7.88992e-21)
(9.99999 -3.15968e-05 -5.38543e-18)
(9.99986 -0.000605442 5.37678e-18)
(9.99766 -0.0101592 0)
(9.95364 -0.191639 -5.37707e-18)
(9.90508 -0.182163 5.40216e-18)
(9.90948 0.175966 0)
(9.95495 0.184581 -5.26127e-18)
(9.99781 0.00943216 5.2539e-18)
(9.99988 0.000541289 2.56674e-21)
(9.99999 2.74389e-05 2.56637e-21)
(10 1.84664e-06 -5.25741e-18)
(10 7.26078e-08 5.25695e-18)
(10 3.01736e-09 2.62712e-18)
(10 1.13422e-10 3.20606e-22)
(10 4.62475e-12 -2.626e-18)
(10 7.91233e-14 -2.56292e-21)
(10 -5.76509e-14 2.88347e-21)
(10 8.57888e-14 0)
(10 6.04741e-14 5.12343e-21)
(10 -1.03052e-13 -2.56131e-21)
(10 -4.1501e-12 1.31176e-18)
(10 -1.00579e-10 -1.31123e-18)
(10 -2.69806e-09 -2.56119e-21)
(10 -6.48924e-08 -2.88086e-21)
(10 -1.6743e-06 2.56034e-21)
(10 -2.46832e-05 -5.24268e-18)
(9.9999 -0.000494565 2.6077e-21)
(9.99819 -0.00857557 5.24084e-18)
(9.96123 -0.17326 0)
(9.93474 -0.165258 5.24392e-18)
(9.93061 0.137985 -1.02071e-17)
(9.97089 0.144983 5.08471e-18)
(9.99869 0.00682271 5.09391e-18)
(9.99993 0.00038502 -5.09488e-18)
(10 1.86656e-05 0)
(10 1.24325e-06 -3.11087e-22)
(10 4.65667e-08 0)
(10 1.89532e-09 -3.11204e-22)
(10 6.87228e-11 -3.11262e-22)
(10 2.81631e-12 0)
(10 9.82863e-16 0)
(10 -1.25535e-13 -3.11364e-22)
(10 1.03779e-13 0)
(10 4.54882e-15 0)
(10 -1.29273e-13 -1.27593e-18)
(10 -2.99446e-12 1.27655e-18)
(10 -7.75798e-11 -3.11713e-22)
(10 -2.13162e-09 -2.554e-18)
(10 -5.23967e-08 2.55476e-18)
(10 -1.39056e-06 0)
(10 -2.08707e-05 5.11067e-18)
(9.99991 -0.000427177 -1.02231e-17)
(9.9984 -0.00764413 1.0224e-17)
(9.96499 -0.159348 -1.20444e-20)
(9.92633 -0.152046 -5.13032e-18)
(9.95868 0.132159 1.22026e-21)
(9.97354 0.138214 -1.21933e-21)
(9.99889 0.00615492 0)
(9.99994 0.000337908 0)
(10 1.58033e-05 0)
(10 1.05384e-06 1.21832e-21)
(10 3.78868e-08 0)
(10 1.51712e-09 -1.21807e-21)
(10 5.33509e-11 0)
(10 2.14398e-12 -1.21781e-21)
(10 1.22635e-13 0)
(10 -1.4359e-13 -3.11553e-19)
(10 -1.38483e-14 3.10302e-19)
(10 1.22649e-13 0)
(10 1.30851e-14 1.24597e-18)
(10 -2.0127e-12 -2.49243e-18)
(10 -5.07813e-11 1.24486e-18)
(10 -1.43605e-09 0)
(10 -3.59139e-08 2.49157e-18)
(10 -9.93883e-07 -2.49128e-18)
(10 -1.50287e-05 4.98077e-18)
(9.99994 -0.000319763 -4.9814e-18)
(9.99897 -0.00580037 0)
(9.97597 -0.129618 0)
(9.943 -0.123542 0)
(9.93915 0.125228 -1.19743e-21)
(9.97444 0.131052 1.1966e-21)
(9.99893 0.00576742 0)
(9.99994 0.000308466 0)
(10 1.42571e-05 0)
(10 9.31397e-07 -1.19584e-21)
(10 3.28826e-08 0)
(10 1.29058e-09 1.19564e-21)
(10 4.46908e-11 0)
(10 1.71819e-12 -1.22292e-18)
(10 -4.89961e-14 1.22286e-18)
(10 -3.74843e-14 -1.19494e-21)
(10 4.22619e-14 1.19458e-21)
(10 3.53091e-14 1.19473e-21)
(10 -7.02024e-14 0)
(10 -1.52654e-12 0)
(10 -3.99906e-11 1.19466e-21)
(10 -1.16979e-09 -2.44643e-18)
(10 -2.97329e-08 2.44619e-18)
(10 -8.55218e-07 0)
(10 -1.29421e-05 1.1942e-21)
(9.99995 -0.000284781 0)
(9.99912 -0.00528814 0)
(9.97795 -0.124085 0)
(9.96239 -0.118685 0)
(9.95021 0.0976511 -4.79619e-18)
(9.98375 0.102453 4.77723e-18)
(9.99936 0.00420256 0)
(9.99997 0.000224108 -2.3374e-21)
(10 9.97487e-06 0)
(10 6.48072e-07 -2.39427e-18)
(10 2.19923e-08 4.78697e-18)
(10 8.51991e-10 -2.3927e-18)
(10 2.85722e-11 -1.20005e-18)
(10 1.03923e-12 1.1979e-18)
(10 9.15974e-14 5.84747e-22)
(10 8.05978e-14 1.55601e-19)
(10 -8.48164e-14 -1.49741e-19)
(10 -8.9835e-14 1.19252e-18)
(10 6.18802e-14 -1.19857e-18)
(10 -1.20717e-12 0)
(10 -3.35651e-11 -2.3422e-21)
(10 -9.94307e-10 0)
(10 -2.56999e-08 0)
(10 -7.50842e-07 -2.39952e-18)
(10 -1.15755e-05 2.40222e-18)
(9.99996 -0.00025702 0)
(9.99916 -0.00489086 4.79833e-18)
(9.97913 -0.116218 -1.10609e-20)
(9.94523 -0.111094 -9.62121e-18)
(9.97219 0.0941163 4.71726e-18)
(9.98525 0.0983071 2.30256e-21)
(9.99945 0.00385825 4.71353e-18)
(9.99997 0.000201546 -2.35429e-18)
(10 8.72516e-06 -2.35643e-18)
(10 5.70083e-07 0)
(10 1.8712e-08 1.15043e-21)
(10 7.17862e-10 2.35474e-18)
(10 2.35003e-11 -2.35341e-18)
(10 9.47755e-13 0)
(10 -4.83394e-15 0)
(10 -7.04897e-14 -3.44842e-21)
(10 3.67984e-14 4.59854e-21)
(10 -1.1674e-14 2.29909e-21)
(10 4.98483e-14 5.89667e-19)
(10 -8.64105e-13 -5.88601e-19)
(10 -2.22013e-11 1.14952e-21)
(10 -6.75925e-10 2.35402e-18)
(10 -1.76522e-08 -4.70765e-18)
(10 -5.34039e-07 2.35363e-18)
(10 -8.25863e-06 -2.29828e-21)
(9.99997 -0.000189725 0)
(9.99949 -0.00360973 2.29787e-21)
(9.98662 -0.0913933 4.70295e-18)
(9.95597 -0.087161 -9.43372e-18)
(9.9552 0.0898219 -4.65491e-18)
(9.98551 0.0938612 -4.65091e-18)
(9.99946 0.00366728 4.64759e-18)
(9.99997 0.000187625 2.32413e-18)
(10 8.07627e-06 -2.32455e-18)
(10 5.1865e-07 0)
(10 1.68347e-08 5.67305e-22)
(10 6.35884e-10 -1.7018e-21)
(10 2.06048e-11 1.16169e-18)
(10 7.27587e-13 -2.32322e-18)
(10 -7.09993e-14 1.16127e-18)
(10 -1.71544e-14 2.89667e-19)
(10 1.26376e-13 -2.7157e-19)
(10 3.46902e-14 2.69911e-19)
(10 -4.2634e-14 -2.91311e-19)
(10 -6.07091e-13 0)
(10 -1.84113e-11 1.70077e-21)
(10 -5.72654e-10 -5.66883e-22)
(10 -1.51031e-08 -2.32179e-18)
(10 -4.72778e-07 2.32106e-18)
(10 -7.26629e-06 0)
(9.99998 -0.000171863 0)
(9.99957 -0.00332647 -5.66674e-22)
(9.98793 -0.0879739 -4.63731e-18)
(9.97537 -0.0842481 6.87086e-21)
(9.96212 0.0684238 -2.29214e-18)
(9.99119 0.071729 2.28336e-18)
(9.99969 0.00263535 5.57875e-22)
(9.99998 0.000135865 0)
(10 5.65723e-06 2.28618e-18)
(10 3.62696e-07 -2.28366e-18)
(10 1.13943e-08 5.58147e-22)
(10 4.27209e-10 5.58214e-22)
(10 1.35158e-11 2.23312e-21)
(10 6.1081e-13 -2.85834e-19)
(10 1.3457e-13 1.42891e-19)
(10 -9.31886e-14 2.80796e-19)
(10 -1.83225e-13 -1.43482e-19)
(10 8.47131e-14 5.74122e-19)
(10 7.49715e-14 -5.71833e-19)
(10 -5.54465e-13 0)
(10 -1.63687e-11 1.67641e-21)
(10 -5.14468e-10 -2.28633e-18)
(10 -1.37487e-08 2.28716e-18)
(10 -4.33681e-07 5.58998e-22)
(10 -6.77966e-06 0)
(9.99998 -0.000160565 0)
(9.99956 -0.00317414 5.59184e-22)
(9.98799 -0.0840105 -4.57653e-18)
(9.95856 -0.0804286 4.59379e-18)
(9.98054 0.0662912 2.2095e-21)
(9.99213 0.0691823 0)
(9.99974 0.00245233 -1.10328e-21)
(9.99999 0.000124446 -2.25831e-18)
(10 5.07259e-06 2.26039e-18)
(10 3.28081e-07 -2.26137e-18)
(10 1.00305e-08 2.26014e-18)
(10 3.7427e-10 -1.12946e-18)
(10 1.15118e-11 1.12719e-18)
(10 3.09109e-13 -5.64588e-19)
(10 5.88774e-14 5.64383e-19)
(10 6.66484e-14 -2.7777e-19)
(10 5.7561e-14 3.175e-19)
(10 -6.50268e-16 -3.74722e-20)
(10 -9.35317e-14 5.65356e-19)
(10 -4.24478e-13 -1.12783e-18)
(10 -1.06999e-11 -5.6664e-19)