/*--------------------------------*- C++ -*----------------------------------*\
| =========                 |                                                 |
| \\      /  F ield         | OpenFOAM: The Open Source CFD Toolbox           |
|  \\    /   O peration     | Version:  2112                                  |
|   \\  /    A nd           | Website:  www.openfoam.com                      |
|    \\/     M anipulation  |                                                 |
\*---------------------------------------------------------------------------*/
FoamFile
{
    version     2.0;
    format      ascii;
    arch        "LSB;label=32;scalar=64";
    class       volVectorField;
    location    "0.00203";
    object      U;
}
// * * * * * * * * * * * * * * * * * * * * * * * * * * * * * * * * * * * * * //

dimensions      [0 1 -1 0 0 0 0];

internalField   nonuniform List<vector> 
13875
(
(2204.27 109.719 1.81232e-18)
(2142.72 5.65064 -9.38371e-19)
(2170.11 -2.22332 -9.41127e-19)
(2168.28 -1.22994 0)
(2170.84 0.0741719 0)
(2169.61 -0.0638917 9.36399e-19)
(2169.59 -0.351929 -9.36798e-19)
(2169.82 -1.07026 -4.68379e-19)
(2169.58 -1.24511 4.68057e-19)
(2169.96 -0.024883 0)
(2169.35 1.20205 -3.88113e-22)
(2169.54 0.969625 -3.86032e-22)
(2169.51 -0.0198229 0)
(2169.44 -0.350671 -4.68105e-19)
(2169.68 -1.39437 4.68389e-19)
(2170.01 -0.553419 0)
(2169.7 1.08631 9.36474e-19)
(2170.16 1.01784 -9.36596e-19)
(2169.67 0.469101 3.85563e-22)
(2169.58 0.0593486 -3.85508e-22)
(2170.96 -0.223004 -9.35762e-19)
(2167.9 0.440676 9.36947e-19)
(2171.01 2.52244 -1.87817e-18)
(2143.49 -8.70582 1.91688e-18)
(2210.44 -106.921 1.7636e-18)
(2253.43 91.8879 -1.63214e-18)
(2228.58 -1.13638 1.88352e-18)
(2247.29 0.675164 8.71854e-19)
(2245.6 1.37979 -8.67198e-19)
(2248.5 -0.437405 4.16364e-22)
(2248.16 0.459634 5.20306e-22)
(2248.15 0.386641 4.16162e-22)
(2247.81 1.30825 -4.36424e-19)
(2245.69 1.58597 4.33325e-19)
(2245.74 0.123068 2.17345e-19)
(2245.45 -1.39829 -1.63295e-19)
(2247.74 -1.22497 -5.32567e-20)
(2247.94 0.0309181 0)
(2247.84 0.469288 -4.35372e-19)
(2247.62 1.62156 4.33151e-19)
(2246.04 0.508083 4.35349e-19)
(2245.81 -1.57474 -4.35447e-19)
(2247.94 -1.26614 5.19539e-22)
(2248.16 -0.407922 -5.20344e-22)
(2248.13 -0.494287 5.20193e-22)
(2248.67 0.679356 -8.71027e-19)
(2245.54 -0.756501 2.59996e-18)
(2247.19 -1.60279 -1.74276e-18)
(2228.99 3.4969 5.4274e-22)
(2256.79 -96.8489 -1.71166e-18)
(2252.5 78.0815 0)
(2236.49 -18.1907 0)
(2249.31 4.42092 0)
(2250.89 -1.96246 0)
(2254.12 -3.05002 -1.6549e-18)
(2253.9 -0.717838 1.64363e-18)
(2254.16 0.309978 1.64016e-18)
(2254.14 2.31059 -2.45863e-18)
(2253.47 1.90242 8.59739e-19)
(2254.28 0.269683 4.30462e-22)
(2253.14 -2.03968 -4.29534e-19)
(2254.08 -2.45662 4.10899e-19)
(2254.15 -0.279942 0)
(2254.24 0.292483 0)
(2254.45 1.60342 4.17667e-22)
(2254.68 1.88964 0)
(2253.58 -1.49719 8.38483e-22)
(2254.43 -2.31345 4.095e-19)
(2254.28 -0.343498 -4.09972e-19)
(2253.96 0.546191 0)
(2254.33 2.96751 0)
(2250.99 1.40934 0)
(2250.58 -4.80382 0)
(2238.07 13.6917 0)
(2257.17 -74.4783 0)
(2247.89 51.3549 0)
(2235.02 -28.4814 1.81471e-18)
(2249.08 7.20398 -3.41752e-18)
(2251.63 -4.73754 3.46524e-18)
(2253.76 -3.84441 -1.65688e-18)
(2253.75 -1.0284 0)
(2254.11 0.290193 -7.85809e-22)
(2254.11 2.29081 0)
(2254.14 1.63363 0)
(2254.85 0.301804 0)
(2254.04 -1.5725 0)
(2254.06 -2.45536 -7.85423e-22)
(2254.14 -0.361604 -5.12653e-20)
(2254.22 0.225221 5.08537e-20)
(2254.45 1.37587 0)
(2254.89 1.65885 0)
(2254.45 -1.15198 8.38707e-22)
(2254.4 -2.25039 -8.08231e-19)
(2254.24 -0.324865 8.01859e-19)
(2253.85 0.820355 -1.62605e-18)
(2254.09 3.59244 1.63281e-18)
(2252.02 4.7081 1.74114e-18)
(2249.7 -8.84617 -1.72045e-18)
(2235.69 31.2161 0)
(2251.32 -58.8071 0)
(2244.99 39.3586 1.74888e-18)
(2235.58 -47.6388 0)
(2248.55 10.4482 0)
(2250.61 -8.20654 0)
(2254.13 -5.48123 0)
(2253.85 -1.79997 1.66125e-21)
(2254.03 0.136944 1.62613e-21)
(2254.08 2.1736 4.15861e-19)
(2254.2 1.03195 -4.30094e-19)
(2254.81 0.304614 1.99625e-19)
(2253.96 -1.31591 -2.16486e-19)
(2253.99 -2.4447 0)
(2254.06 -0.508971 0)
(2254.13 0.201041 -1.65454e-21)
(2254.31 1.22121 0)
(2254.81 1.59019 -1.58105e-21)
(2254.45 -0.616232 8.59875e-19)
(2254.4 -2.0452 -8.34361e-19)
(2254.15 -0.190592 1.65377e-18)
(2253.9 1.53487 -1.68942e-18)
(2254.32 5.02765 1.66545e-21)
(2250.77 6.93884 0)
(2249.94 -11.4516 0)
(2237.15 42.7716 0)
(2250.31 -35.1815 0)
(2241.47 6.87664 0)
(2231.47 -63.1998 9.12786e-19)
(2246.97 12.2411 -8.48231e-19)
(2250.89 -11.6134 0)
(2252.96 -6.40982 8.61396e-19)
(2253.16 -2.30646 -4.3153e-19)
(2253.68 0.0348344 -2.16537e-21)
(2253.85 2.07188 -2.10801e-19)
(2254.04 0.738461 -4.30798e-19)
(2254.67 0.38841 1.57352e-19)
(2253.95 -0.754678 1.59112e-21)
(2253.86 -2.34572 2.65132e-19)
(2253.9 -0.655795 -2.16157e-19)
(2253.95 0.0734632 3.329e-21)
(2254.19 0.840233 -4.30423e-19)
(2254.69 1.32126 4.247e-19)
(2254.35 -0.345095 1.68004e-21)
(2254.16 -1.90208 -1.64671e-21)
(2253.82 -0.155153 -1.62694e-21)
(2253.27 1.88056 -8.50576e-19)
(2253.32 5.63504 8.52513e-19)
(2251.49 11.443 0)
(2247.33 -15.0414 0)
(2232.39 65.4496 -1.93345e-18)
(2246.17 -18.9124 -1.2638e-19)
(2254.41 3.03807 -4.95379e-20)
(2227.48 -78.9883 6.02351e-20)
(2242.76 12.1831 0)
(2248.69 -16.6238 -2.69233e-23)
(2252.56 -8.7644 -2.62365e-23)
(2252.85 -3.81188 0)
(2253.32 -0.584679 0)
(2253.6 1.54548 -8.38292e-19)
(2253.88 -0.00555619 8.50554e-19)
(2254.35 0.288396 0)
(2253.67 -0.543025 1.72345e-18)
(2253.55 -2.22773 3.05031e-21)
(2253.56 -0.765701 -1.72945e-18)
(2253.6 0.119575 -1.70046e-21)
(2253.84 0.768233 0)
(2254.29 1.21529 3.41911e-18)
(2254.07 0.118645 5.70282e-21)
(2253.92 -1.3084 -6.74361e-18)
(2253.46 0.528263 3.35305e-18)
(2252.95 3.36503 2.59228e-23)
(2252.81 8.00682 0)
(2248.62 13.8122 3.53141e-18)
(2244.05 -12.3899 -3.31167e-18)
(2228.78 72.9311 3.81572e-18)
(2247.21 2.82662 -3.17999e-18)
(2217.59 -22.6794 -3.16112e-19)
(2214.29 -86.9843 -7.50401e-18)
(2235.01 3.4919 8.7352e-22)
(2245.81 -23.3 2.6159e-23)
(2248.77 -10.8625 -8.10714e-22)
(2250.48 -4.89017 0)
(2251.82 -0.986497 -3.34571e-18)
(2252.63 1.29583 3.3783e-18)
(2253.11 -0.152211 0)
(2253.63 0.561157 -8.2368e-22)
(2253.18 0.0719559 -8.39056e-22)
(2252.94 -1.93258 0)
(2252.88 -0.795093 0)
(2252.91 -0.0488849 -1.66179e-21)
(2253.22 0.387642 -8.4288e-22)
(2253.63 0.705286 2.6105e-23)
(2253.35 0.121298 -8.54837e-22)
(2253 -1.06719 -2.57737e-23)
(2252.1 0.869911 -1.68501e-18)
(2250.84 4.30713 -1.37838e-20)
(2249.47 9.8798 1.69019e-18)
(2246.32 20.2871 8.88286e-22)
(2236.62 -4.5272 3.46062e-18)
(2216.33 81.4955 -3.53769e-18)
(2222.08 18.1063 2.50171e-23)
(2109.59 -37.9119 9.41248e-19)
(2167.52 -98.2212 0)
(2215.99 -20.3973 -8.31707e-22)
(2234.68 -33.2794 -8.6521e-19)
(2245.04 -20.062 1.70823e-18)
(2248.22 -10.0123 -1.70551e-18)
(2250 -3.97895 7.72785e-21)
(2251.24 -0.34726 8.50815e-19)
(2251.72 -1.35096 0)
(2252.28 0.0170688 -8.47555e-19)
(2251.92 0.272486 8.57194e-19)
(2251.61 -1.54623 0)
(2251.46 -0.847631 0)
(2251.48 -0.066374 2.10269e-21)
(2251.85 0.291208 8.37124e-22)
(2252.2 0.658256 8.59641e-19)
(2251.94 0.891671 -8.49544e-19)
(2251.63 0.402891 0)
(2250.41 3.29402 8.51039e-19)
(2248.73 8.59873 -1.70674e-18)
(2246 17.1808 8.46484e-19)
(2236.14 29.6595 -8.40124e-22)
(2218.43 16.7924 0)
(2170.76 93.9347 0)
(2115.85 35.4645 0)
(1861.21 -143.572 -6.64081e-17)
(2120.81 -160.571 8.50682e-17)
(2194.71 -55.5196 0)
(2225.13 -57.9458 -2.96966e-17)
(2236.84 -23.5484 3.09369e-17)
(2243.09 -11.6967 0)
(2246.11 -4.2215 -2.96024e-20)
(2247.88 -0.965405 -1.45819e-17)
(2248.68 -1.20768 1.46933e-17)
(2249.36 0.415081 -2.96809e-20)
(2249.12 0.865044 0)
(2248.8 -0.912415 -3.73586e-18)
(2248.52 -0.675307 5.5876e-18)
(2248.53 -0.373566 -1.90213e-18)
(2248.98 -0.23244 -2.96622e-20)
(2249.23 0.151829 0)
(2248.89 0.768651 0)
(2248.34 0.916077 -2.95389e-17)
(2246.7 3.82738 2.92142e-17)
(2243.79 10.3983 -3.02112e-17)
(2238.81 21.8762 2.95477e-17)
(2227.2 54.524 3.21902e-17)
(2198.66 53.4792 -2.93128e-17)
(2127.46 162.714 -8.35494e-17)
(1880.84 139.235 -1.26578e-17)
(1641.66 -226.222 -9.14732e-17)
(2006.43 -312.017 1.38129e-16)
(2146.67 -114.922 0)
(2199.13 -65.1412 6.92689e-17)
(2225.94 -32.1429 -7.20085e-17)
(2234.46 -17.3168 -3.34187e-17)
(2238.98 -8.04339 3.40545e-17)
(2241.04 -4.37824 -3.37082e-17)
(2242.3 -2.92851 3.4001e-17)
(2243.09 -0.596451 3.2408e-20)
(2242.92 0.577018 0)
(2242.71 -0.254146 -2.13628e-18)
(2242.3 -0.505479 2.16303e-18)
(2242.31 -0.470808 3.26923e-20)
(2242.72 -0.386667 3.25877e-20)
(2242.92 0.361077 3.44619e-20)
(2242.44 1.84475 0)
(2241.58 3.5034 0)
(2239.77 6.95865 -6.84064e-17)
(2235.56 15.3226 6.7177e-17)
(2228.42 27.6996 -7.21234e-17)
(2206.38 58.8571 1.47467e-16)
(2160.57 99.6581 -7.06729e-17)
(2011.97 299.511 -3.89176e-20)
(1690.22 206.697 8.82948e-20)
(1234.25 -574.035 -1.15593e-16)
(1736.6 -574.291 1.1832e-16)
(1959.1 -164.043 2.39394e-16)
(2145.66 -121.835 -9.81055e-17)
(2192.96 -39.8419 0)
(2209.34 -15.2416 7.51278e-17)
(2219.99 -6.89146 -7.69178e-17)
(2223.66 -2.24708 0)
(2226.52 -1.44015 3.54967e-20)
(2227.56 0.875654 0)
(2227.58 1.58259 0)
(2227.77 0.489351 0)
(2227.15 0.0102713 4.73949e-18)
(2227.28 -0.885835 -4.74387e-18)
(2227.54 -0.964367 -4.00481e-20)
(2227.57 -0.579618 -3.51932e-20)
(2226.75 0.308998 0)
(2224.56 1.09401 0)
(2221.43 5.39025 0)
(2211.18 12.2069 -7.879e-17)
(2198.67 35.7033 1.59871e-16)
(2161.49 103.911 -7.45375e-17)
(2034.8 162.878 -1.33164e-16)
(1746.77 589.519 1.0169e-16)
(1272.12 551.063 -6.0135e-20)
(1248.76 -641.213 1.71487e-16)
(1149.74 -1000.44 0)
(1408.77 -644.112 0)
(1846.02 -183.319 -1.15397e-16)
(2090.94 -82.8942 1.22389e-16)
(2144.62 -57.8614 0)
(2160.19 -29.4671 1.42876e-20)
(2170.65 -18.1991 4.3859e-17)
(2177.2 -8.75346 -4.43133e-17)
(2179.44 -3.99333 0)
(2179.31 -1.05611 -1.09074e-17)
(2181.19 0.832106 1.09144e-17)
(2179.18 0.340565 -5.46986e-18)
(2180.56 -0.291404 5.46641e-18)
(2180.38 0.0891859 3.91754e-20)
(2180.07 2.26466 -4.37394e-17)
(2178.19 6.51923 8.79934e-17)
(2172.89 14.434 9.5427e-19)
(2163.02 25.2349 -4.37756e-17)
(2147.47 53.1365 -9.60416e-17)
(2090.65 60.6098 9.00764e-17)
(1862.07 99.8748 8.73284e-20)
(1626.43 501.352 2.77823e-20)
(1104.59 1052.25 1.69626e-16)
(1304.86 616.019 7.53506e-18)
(1312.03 -645.439 0)
(1165.2 -1000.06 0)
(1181.23 -757.261 0)
(1062.52 -858.805 0)
(1889.26 -284.488 0)
(1873.12 -22.9132 1.303e-16)
(1918.13 19.2431 -1.33563e-16)
(1967.39 20.925 2.00846e-19)
(1987.84 7.78029 -1.17152e-20)
(2005.05 7.70096 2.82889e-17)
(1997.08 5.99218 -2.88379e-17)
(2013.32 1.11688 -3.75958e-19)
(1999.27 1.62469 -8.9834e-19)
(2009.58 -2.2584 1.07007e-18)
(2006.09 -1.3097 -2.84603e-17)
(2005.35 -4.21491 2.82779e-17)
(1996.62 -7.40506 1.76972e-19)
(1974.07 -15.4897 0)
(1920.61 -18.863 0)
(1876.15 27.9032 0)
(1866.17 330.808 -2.14021e-16)
(1090.13 819.396 -5.56681e-17)
(1241.73 701.87 1.68005e-16)
(1136.2 989.035 2.07137e-20)
(1348.01 622.062 2.08989e-20)
(1390.11 -631.914 0)
(1251.91 -881.186 4.1706e-20)
(1229.97 -737.868 0)
(1096.25 -826.441 -1.80512e-16)
(1190.52 -674.907 3.49167e-16)
(1016.03 -556.345 -2.30021e-16)
(1055.94 -486.229 0)
(1314.66 -266.053 -1.57726e-19)
(1247.27 -134.308 0)
(1370.53 -49.3062 0)
(1243.44 -46.1615 -2.97453e-17)
(1381.04 -0.3466 3.06894e-17)
(1251.63 -0.582331 3.03403e-17)
(1342.42 -3.72269 -3.04912e-17)
(1304.87 13.9614 0)
(1341.45 41.7182 -1.21036e-16)
(1310.09 103.298 1.19584e-16)
(1339.77 211.115 1.22633e-16)
(1140.95 428.705 -1.1225e-16)
(1060.28 583.326 0)
(1173.38 675.717 0)
(1092.9 809.523 -1.73639e-19)
(1267.45 694.917 -1.73901e-16)
(1256.79 871.89 3.78374e-16)
(1389.1 616.19 -1.73937e-16)
(1462.11 -623.872 -1.7638e-16)
(1352.08 -802.205 1.91524e-16)
(1291.82 -631.161 0)
(1145.86 -629.776 -2.41614e-16)
(1164.07 -531.219 -4.06235e-17)
(936.201 -400.394 3.50116e-16)
(458.653 -109.1 -2.52301e-16)
(441.684 -91.3583 1.35683e-16)
(209.218 -21.6435 0)
(283.394 -28.0092 0)
(78.355 1.69921 -4.3493e-20)
(232.413 -19.7301 1.60046e-19)
(70.1133 17.7298 0)
(182.584 -21.0385 0)
(139.715 8.95797 6.64425e-17)
(214.185 6.23666 -6.8082e-17)
(227.47 9.66902 -1.34059e-16)
(411.464 82.6043 2.75683e-16)
(433.38 87.1142 -6.71636e-18)
(802.345 302.211 -1.34134e-16)
(1140.96 502 0)
(1136.48 644.088 0)
(1301.33 605.096 -1.89231e-16)
(1308.73 802.706 2.18616e-16)
(1445.45 618.236 -4.57702e-20)
(1568.76 -548.698 1.69787e-16)
(1483.85 -602.46 -9.7334e-20)
(1457.55 -431.825 1.08311e-16)
(1292.01 -332.725 -1.01194e-16)
(1229.53 -251.32 -5.07719e-20)
(967.419 -144.074 1.23034e-19)
(605.143 -56.3157 1.28789e-16)
(574.546 -132.582 -1.99634e-16)
(473.446 -76.4193 6.75921e-17)
(489.387 -94.4233 0)
(453.895 -43.1065 -3.32066e-17)
(480.009 -41.2964 3.2602e-17)
(454.594 -8.46893 0)
(463.607 15.1232 5.87643e-20)
(454.278 31.3978 -3.31859e-17)
(463.646 59.601 3.29525e-17)
(461.222 72.3239 0)
(554.459 108.282 -1.34451e-16)
(564.625 77.3081 1.3172e-16)
(843.905 105.274 1.20974e-16)
(1179.23 208.22 -2.2228e-16)
(1246.54 316.357 1.22627e-16)
(1421.54 427.255 0)
(1462.36 638.385 1.78616e-16)
(1555.18 562.157 -1.07059e-17)
(1704.09 -396.576 -6.46417e-18)
(1602.22 -234.876 9.70132e-17)
(1447.25 -169.685 -4.4672e-17)
(1319.48 -47.4159 -5.71386e-17)
(1321.12 -104.627 7.91518e-17)
(1133.96 -160.96 -5.74741e-17)
(897.86 -170.687 6.26001e-17)
(884.576 -159.622 -6.34878e-17)
(828.543 -116.8 -1.49689e-19)
(806.681 -106.757 3.2119e-17)
(749.548 -50.0435 1.60215e-17)
(777.547 -40.4674 -3.67149e-20)
(729.848 -0.98986 -1.60687e-17)
(760.726 28.6582 -6.24798e-20)
(758.071 51.8931 -7.73168e-20)
(786.516 88.6154 -2.0132e-18)
(832.741 123.222 9.35412e-22)
(892.269 141.516 5.98529e-18)
(904.636 160.42 -3.90223e-18)
(1083.23 156.194 0)
(1268.27 104.259 1.3218e-17)
(1267.05 63.2076 -4.04123e-17)
(1437.63 142.052 4.93894e-17)
(1578.63 246.859 -6.92699e-17)
(1690.54 404.927 6.58205e-17)
(1805.44 -279.922 -1.04502e-19)
(1755.14 41.4829 -1.39332e-19)
(1612.89 101.563 1.63882e-19)
(1463.49 1.45146 -7.13444e-21)
(1461.16 -63.2839 -1.69817e-19)
(1382.73 -117.722 -1.95995e-19)
(1172.71 -146.988 -7.95054e-21)
(1048.37 -138.971 0)
(971.215 -86.7096 0)
(942.23 -81.9999 6.44674e-17)
(885.469 -43.3557 -6.37753e-17)
(892.518 -31.8776 -8.23024e-21)
(855.629 -4.85001 8.23057e-21)
(877.364 22.8415 -8.28089e-18)
(878.875 42.4508 8.05251e-18)
(918.472 71.0679 0)
(961.692 89.7817 0)
(1019.31 125.336 -6.25583e-17)
(1114.31 164.1 6.06485e-17)
(1327.48 147.762 -1.89896e-19)
(1419.1 106.867 0)
(1418.64 16.8845 0)
(1588.19 -110.972 -1.69415e-19)
(1726.25 -57.1131 -1.44746e-19)
(1789.74 276.487 1.55766e-16)
(1782.31 174.565 -1.6912e-16)
(1709.22 391.501 -2.23004e-16)
(1681.69 358.625 1.39907e-16)
(1615.49 216.161 0)
(1597.83 59.4746 2.22132e-19)
(1545.98 -22.047 1.066e-16)
(1394.53 -51.9116 -2.18503e-16)
(1227.03 -68.9426 1.1479e-16)
(1105.27 -46.4852 -1.27197e-16)
(1051.39 -48.878 1.26435e-16)
(993.975 -25.4807 3.20759e-17)
(985.784 -18.8586 -3.98304e-17)
(956.133 0.388063 -8.04014e-18)
(972.504 20.3285 1.62247e-17)
(985.385 32.4846 0)
(1028.81 48.5693 0)
(1092.37 59.6213 1.24973e-16)
(1194.05 73.1472 -2.42867e-16)
(1350.73 82.0425 1.16221e-16)
(1516.66 53.8407 2.28518e-19)
(1578.93 -26.9094 1.95547e-16)
(1597.76 -206.485 -2.0132e-17)
(1679.24 -348.22 -4.82504e-16)
(1691.19 -402.23 5.53206e-16)
(1756.91 -248.041 -3.04754e-16)
(1503.34 534.429 1.12744e-19)
(1537.4 839.96 -1.98374e-16)
(1717.63 593.01 1.25761e-16)
(1708.17 377.997 0)
(1685.98 204.838 0)
(1642.88 112.472 0)
(1515.06 73.3143 0)
(1360.63 21.8018 0)
(1230.23 12.1633 -5.48586e-17)
(1163.08 -12.5542 1.11141e-16)
(1095.83 -1.6013 -8.39617e-17)
(1083.72 -4.68771 3.14222e-17)
(1054.08 4.5742 -3.51791e-18)
(1072.78 13.5258 1.28169e-20)
(1089.07 14.8821 -5.59504e-17)
(1147.82 21.3749 5.67905e-17)
(1223.5 6.78994 0)
(1336.51 -13.1162 0)
(1490.45 -44.7296 -1.75931e-16)
(1629.31 -91.5718 1.90604e-16)
(1677.94 -182.111 -1.72532e-19)
(1701.4 -375.222 7.08287e-20)
(1712.19 -597.474 -9.32964e-20)
(1566.91 -815.893 -7.12976e-20)
(1469.71 -623.956 0)
(1191.57 847.966 -1.84091e-16)
(1579.64 993.113 1.17207e-16)
(1774.72 746.812 -1.31655e-19)
(1759.07 532.544 1.51621e-16)
(1741.39 343.28 -1.30542e-16)
(1697.14 240.896 0)
(1594.71 186.39 -8.44523e-17)
(1458.98 110.018 8.27602e-17)
(1330.82 71.3842 -4.77237e-17)
(1257.78 33.6415 9.69182e-17)
(1194.48 25.195 -4.82322e-17)
(1174.56 10.0426 1.8083e-19)
(1150.85 6.6023 0)
(1166.98 2.86984 2.45506e-17)
(1192.91 -8.58921 2.3735e-17)
(1251.7 -22.7348 -4.92136e-17)
(1333.53 -52.6662 -9.1567e-17)
(1446.77 -104.859 9.0772e-17)
(1578.89 -167.644 -7.44032e-17)
(1688.27 -230.047 8.23413e-17)
(1738.85 -330.806 8.02975e-20)
(1758.1 -536.66 -7.89837e-20)
(1755.9 -758.057 0)
(1593.22 -974.384 6.50103e-20)
(1190.28 -857.737 0)
(1156.43 792.868 1.44046e-16)
(1622.78 947.522 -1.30891e-16)
(1797.46 820.469 5.10469e-20)
(1775.52 676.033 0)
(1763.33 494.096 0)
(1724.78 377.761 -7.48525e-21)
(1648.88 290.007 0)
(1538.23 190.82 8.00757e-20)
(1420.82 134.582 0)
(1349.54 74.2175 4.31448e-17)
(1283.34 52.7586 -6.43341e-17)
(1266.83 24.0041 3.21492e-17)
(1241.41 7.67899 -1.0781e-17)
(1260.91 -9.93781 0)
(1283.03 -35.7731 0)
(1346.48 -60.4452 4.14812e-17)
(1424.94 -114.218 -1.20875e-16)
(1524.99 -184.656 7.87756e-17)
(1633.95 -269.885 -6.49276e-17)
(1716.33 -372.071 7.17289e-17)
(1761.65 -481.133 0)
(1780.81 -658.329 0)
(1796.15 -815.542 0)
(1637.81 -911.068 -6.96886e-21)
(1146.99 -763.807 -1.66101e-16)
(1268.52 688.434 -2.77715e-20)
(1706.84 833.44 1.07476e-16)
(1783.74 860.219 -9.86472e-17)
(1782.61 743.648 0)
(1773.5 599.562 0)
(1748.21 477.877 7.71791e-21)
(1690.4 366.493 6.58562e-17)
(1592.15 256.268 -6.39995e-17)
(1487.78 188.074 3.31617e-20)
(1424.85 118.504 3.47071e-20)
(1366.8 78.145 3.52462e-20)
(1346.29 37.3289 -1.01539e-20)
(1326.08 7.85573 -1.01471e-20)
(1341.06 -22.5345 1.91498e-17)
(1368.37 -59.8336 -1.94752e-17)
(1424.07 -104.373 4.47964e-20)
(1494.97 -166.165 4.30328e-20)
(1585.41 -247.829 0)
(1680.96 -345.143 -5.7971e-17)
(1744.26 -471.815 6.40215e-17)
(1772.89 -588.068 0)
(1790.33 -724.983 -1.01249e-16)
(1782.24 -849.695 1.03733e-16)
(1711.44 -826.384 6.41954e-21)
(1305.77 -696.615 -1.48657e-16)
(1360.23 584.229 3.41087e-20)
(1737.04 774.419 0)
(1768.99 861.036 0)
(1782.1 786.651 -5.44073e-17)
(1779.3 675.826 4.77381e-17)
(1771.35 554.172 0)
(1725.1 430.591 6.04887e-17)
(1640.23 310.426 -5.86681e-17)
(1549.68 230.896 3.41638e-17)
(1494.8 148.149 -3.39672e-17)
(1438.05 102.014 1.7856e-17)
(1424.59 47.8036 -1.76558e-17)
(1402.4 7.13017 0)
(1420.75 -36.1232 -1.75358e-17)
(1441 -86.9649 1.79315e-17)
(1496.83 -137.929 -3.65958e-20)
(1561.68 -215.938 -3.51352e-20)
(1636.7 -310.309 5.6722e-20)
(1717.58 -416.899 5.32812e-17)
(1768.18 -552.47 -5.83639e-17)
(1773.75 -669.37 -4.9187e-20)
(1785.8 -771.284 -4.87064e-20)
(1774.52 -847.608 0)
(1738.04 -755.183 -5.11831e-20)
(1365.21 -581.969 3.42686e-20)
(1397.07 515.456 1.26372e-22)
(1749.41 710.345 0)
(1764.65 849.346 8.51833e-23)
(1783.28 806.528 4.47478e-20)
(1787.03 722.861 -8.81897e-23)
(1792.16 603.917 -5.29026e-17)
(1753.14 479.269 4.90908e-17)
(1677.51 359.35 0)
(1599.66 272.114 -6.39391e-20)
(1553.86 183.526 -1.13929e-22)
(1506.74 121.917 -1.15538e-22)
(1490.55 58.5485 6.81838e-20)
(1472.96 7.03406 0)
(1486.42 -46.7265 0)
(1510.01 -106.353 -1.1512e-22)
(1556.26 -174.556 -1.13732e-22)
(1610.81 -255.866 -2.94125e-17)
(1676.54 -354.105 8.34518e-17)
(1747.21 -460.829 -5.53667e-17)
(1791.37 -596.96 0)
(1786.12 -711.341 -4.56317e-17)
(1788.09 -789.787 4.80455e-17)
(1771.62 -838.026 8.37465e-23)
(1756.33 -712.979 4.61647e-20)
(1423.1 -539.794 1.23698e-22)
(1441.11 452.849 6.86206e-18)
(1740.92 687.711 1.05776e-17)
(1761.6 827.751 9.05866e-17)
(1786.16 801.356 -4.33027e-17)
(1798.95 743.73 4.33567e-17)
(1812.26 636.547 -4.85925e-17)
(1776.04 518.457 4.57204e-17)
(1712.88 393.967 -2.73026e-17)
(1648.05 300.247 2.70126e-17)
(1609.85 203.552 1.19507e-22)
(1564.4 139.476 1.21683e-22)
(1556.45 66.9623 -1.21867e-22)
(1536.97 7.72187 7.3903e-18)
(1552.86 -56.5956 7.25277e-18)
(1568.33 -125.212 -1.51078e-17)
(1613.44 -195.159 1.19786e-22)
(1662.17 -286.534 5.42918e-17)
(1713.44 -393.341 -1.04859e-16)
(1770.71 -501.512 5.14019e-17)
(1812.21 -625.096 0)
(1796.78 -729.847 -8.93945e-23)
(1789.13 -785.446 8.28845e-23)
(1769.58 -816.272 -8.13399e-23)
(1748.12 -681.393 -1.00454e-16)
(1452.71 -465.463 1.13193e-16)
(1432.65 460.616 1.10493e-19)
(1714.98 661.236 0)
(1764.52 776.057 0)
(1792.09 785.592 4.11206e-20)
(1814.82 740.958 8.26317e-20)
(1830.81 646.183 0)
(1796.32 535.173 4.79362e-17)
(1740.62 417.967 -4.70815e-17)
(1686.54 324.029 4.83439e-20)
(1656.75 225.298 -5.00347e-20)
(1620.76 149.549 -1.38862e-17)
(1609.78 70.0722 1.37643e-17)
(1595.43 4.12194 3.55069e-18)
(1607.06 -66.9167 -3.47416e-18)
(1625.12 -142.823 1.35115e-17)
(1660.57 -225.451 -4.02149e-17)
(1699.57 -317.106 2.69566e-17)
(1744.37 -421.606 -5.1242e-20)
(1791.94 -527.077 4.22865e-20)
(1829.64 -644.112 -4.19772e-17)
(1814.41 -732.494 1.07984e-18)
(1798.12 -774.303 -1.44933e-18)
(1774.47 -773.344 4.14952e-17)
(1726.52 -655.078 4.62545e-20)
(1449.83 -469.306 5.37651e-20)
(1402.94 462.912 1.07693e-16)
(1720.69 627.997 -9.23851e-17)
(1787.37 721.757 0)
(1803.57 763.223 -4.00881e-17)
(1827.81 731.884 7.58222e-20)
(1845.57 655.028 4.01557e-17)
(1814.39 560.055 4.46678e-17)
(1770.84 441.656 -4.41638e-17)
(1728.39 343.95 -5.05221e-20)
(1704.07 240.038 -2.55921e-17)
(1668.43 164.324 1.22463e-17)
(1665.35 78.9457 1.26385e-17)
(1647.88 7.31415 -5.35148e-20)
(1661.86 -70.526 0)
(1671.34 -150.168 0)
(1706.49 -232.148 0)
(1741.77 -329.523 5.06551e-20)
(1773.31 -439.34 1.06669e-20)
(1808.51 -540.967 -5.40251e-20)
(1843.76 -639.524 0)
(1826.51 -714.678 3.99784e-20)
(1808.1 -745.258 9.87862e-21)
(1789.1 -713.601 -5.06856e-20)
(1737.28 -627.556 -9.01544e-17)
(1439.88 -474.462 1.04958e-16)
(1391.94 447.565 5.14708e-17)
(1736.79 566.749 -8.55883e-17)
(1806.79 651.951 8.40761e-17)
(1816.92 724.451 -4.14586e-17)
(1843.72 711.919 -3.81476e-17)
(1858.84 643.072 3.85611e-17)
(1829.58 555.202 2.09441e-17)
(1793.19 447.687 -2.1073e-17)
(1758.66 355.938 1.16402e-17)
(1742.01 253.321 -2.33944e-17)
(1715.16 169.821 1.76424e-17)
(1708.66 80.1624 -7.43067e-18)
(1696.37 4.61381 1.4873e-18)
(1706.15 -76.7068 -4.41071e-20)
(1718.53 -161.853 2.32827e-17)
(1744 -252.423 -2.39867e-17)
(1771.27 -345.958 4.26526e-20)
(1800.64 -447.657 4.23425e-17)
(1827.22 -544.139 -1.99734e-18)
(1857.48 -635.13 -3.95762e-17)
(1843.4 -702.44 0)
(1820.2 -716.811 4.2244e-17)
(1808.31 -659.643 -3.81828e-17)
(1740.86 -581.001 -9.12242e-17)
(1418.67 -455.15 -3.81888e-18)
(1417.19 417.466 -5.09101e-17)
(1756.49 493.333 4.57088e-17)
(1825.67 601.638 1.94579e-20)
(1830.32 690.564 -5.54055e-20)
(1861.42 691.76 1.88078e-20)
(1871.34 628.822 3.75787e-17)
(1844.73 554.344 -1.86575e-17)
(1818.37 450.661 -2.01164e-17)
(1795.1 358.15 4.43449e-20)
(1781.68 253.922 -4.56033e-20)
(1753.66 173.489 2.07454e-20)
(1755.15 80.9644 -2.06436e-20)
(1739.39 2.31585 0)
(1751.81 -82.6282 4.98388e-21)
(1756.56 -167.868 -1.09712e-17)
(1783.24 -255.81 1.12221e-17)
(1807.05 -353.259 -2.11058e-17)
(1822.9 -457.618 8.75862e-19)
(1840.49 -544.202 1.97906e-17)
(1868.97 -618.425 -5.494e-20)
(1858.79 -677.096 -3.79746e-17)
(1836.68 -671.174 3.64776e-17)
(1829.12 -587.29 0)
(1762.9 -510.142 -4.55364e-17)
(1416.5 -433.616 4.86134e-17)
(1434.93 379.632 0)
(1774.03 421.291 -3.76854e-17)
(1835.35 522.327 4.38481e-17)
(1847.92 634.497 1.79821e-20)
(1875.26 664.269 1.75345e-20)
(1884.19 612.314 -3.58987e-17)
(1859.4 541.611 3.76343e-17)
(1838.13 448.298 2.00836e-17)
(1818.93 364.78 6.56571e-19)
(1812.23 265.124 -2.05868e-17)
(1792.93 180.12 -2.17813e-20)
(1790.57 85.4228 2.43535e-20)
(1779.27 5.11795 0)
(1786.96 -81.648 4.37337e-20)
(1795.06 -170.418 -2.16781e-20)
(1811.84 -262.187 1.02736e-17)
(1830.03 -350.524 -1.04532e-17)
(1847.92 -445.955 -2.02229e-20)
(1857.59 -530.899 -2.11412e-20)
(1881.6 -603.678 1.79819e-20)
(1871.64 -655.317 -3.73279e-17)
(1851.74 -632.478 -5.33212e-18)
(1842.24 -528.658 3.53727e-17)
(1782.2 -430.485 0)
(1456.82 -395.82 5.15745e-17)
(1455.66 352.118 -9.83866e-17)
(1787.04 361.877 4.27582e-17)
(1840.38 462.918 3.39915e-17)
(1862.69 595.573 -4.01282e-17)
(1888.83 630.615 0)
(1897.86 590.754 -2.17221e-21)
(1873.64 532.406 0)
(1860.65 443.918 -2.38887e-21)
(1850.54 358.41 -2.47754e-21)
(1845.98 258.849 0)
(1824.09 178.726 0)
(1829.25 84.3749 -2.56221e-21)
(1814.36 3.01523 0)
(1825.34 -85.3989 0)
(1826.09 -171.706 -9.87113e-18)
(1845.77 -259.488 9.95555e-18)
(1860.13 -351.686 -2.48533e-21)
(1867.24 -447.405 -1.88567e-17)
(1871.42 -520.846 1.81666e-17)
(1896.25 -578.526 0)
(1886.61 -616.797 3.70315e-17)
(1864.26 -579.943 -7.42561e-17)
(1849.59 -457.415 7.65601e-17)
(1796.95 -370.549 6.16299e-18)
(1469.03 -357.676 -4.7418e-17)
(1484.55 317.062 1.1843e-20)
(1799.29 313.379 -9.70008e-21)
(1824.84 403.149 0)
(1878.49 510.711 0)
(1900.01 586.856 0)
(1910.5 567.212 8.09092e-21)
(1886.87 508.843 0)
(1879.06 426.721 -8.62437e-21)
(1869.69 351.907 0)
(1869.15 259.069 -8.8447e-21)
(1856.62 178.356 0)
(1857.61 83.1588 -2.37863e-18)
(1847.2 2.24441 2.355e-18)
(1853.58 -86.4809 0)
(1858.03 -174.289 9.34856e-18)
(1867.84 -261.666 -1.88666e-17)
(1879.16 -342.452 9.41194e-18)
(1890.12 -430.003 0)
(1886.36 -505.089 1.77302e-17)
(1907.89 -562.854 -1.65864e-17)
(1897.78 -580.525 3.64298e-17)
(1880.69 -518.394 -3.26024e-17)
(1842.33 -397.58 0)
(1808 -304.424 0)
(1491.96 -324.972 0)
(1488.96 297.749 -1.18385e-20)
(1800.42 289.863 9.57605e-21)
(1829.92 331.933 0)
(1894.16 442.471 0)
(1908.97 538.191 0)
(1923.23 539.57 -8.14969e-21)
(1902.87 496.912 0)
(1899.52 421.442 8.85261e-21)
(1897.91 345.087 0)
(1898.87 252.25 -9.03409e-18)
(1881.72 176.008 9.06615e-18)
(1889.79 84.3131 -8.44536e-21)
(1875.72 4.46373 9.30858e-21)
(1885.45 -83.638 8.44583e-21)
(1882.3 -167.251 0)
(1897.01 -250.939 0)
(1904.32 -335.189 9.07514e-21)
(1907.46 -420.66 -1.77905e-17)
(1902.73 -484.099 1.69985e-17)
(1921.07 -527.681 0)
(1903.93 -529.392 8.06531e-21)
(1893.22 -449.101 0)
(1828.85 -333.101 0)
(1815.64 -276.013 0)
(1514.05 -291.856 0)
(1510.72 277.425 -4.47972e-17)
(1810.22 263.034 3.94059e-17)
(1838.22 281.401 0)
(1901.54 345.129 -1.72418e-20)
(1920.51 477.172 0)
(1932.71 506.557 -1.54483e-17)
(1916.3 469.305 3.35373e-17)
(1916.84 399.266 -1.72012e-17)
(1913.04 332.394 -8.64789e-18)
(1915.59 248.242 8.65834e-18)
(1908.65 173.779 4.4266e-21)
(1912.02 81.2336 1.12659e-18)
(1902.39 2.92805 -1.08077e-18)
(1907.83 -84.1387 8.61394e-18)
(1909.33 -168.437 -8.65667e-18)
(1913.31 -249.085 0)
(1920.97 -321.38 -1.6378e-20)
(1928.51 -402.262 0)
(1916.72 -466.331 0)
(1929.23 -501.029 -1.73115e-17)
(1915.38 -474.198 1.52135e-17)
(1899.28 -347.847 0)
(1835.46 -277.857 3.79531e-17)
(1820.05 -251.062 1.77396e-18)
(1530.88 -271.164 -9.07095e-17)
(1532.25 258.685 4.51438e-17)
(1821.18 245.46 1.84516e-20)
(1851.1 225.042 3.24321e-17)
(1900.13 283.684 -2.36924e-17)
(1922.54 425.497 -1.86392e-17)
(1940.15 460.895 0)
(1930.04 447.757 8.39186e-21)
(1935.93 389.213 1.63235e-17)
(1938.1 321.979 -1.66638e-17)
(1942.2 235.216 0)
(1928.59 163.5 0)
(1938.8 77.4981 -2.59171e-20)
(1925.16 1.90457 3.25005e-20)
(1934.56 -82.5747 1.68978e-20)
(1928.14 -160.475 4.19105e-18)
(1939.07 -239.064 -4.13973e-18)
(1942.78 -315.526 8.90275e-21)
(1945.05 -390.127 1.68773e-17)
(1932.76 -438.058 -3.30059e-17)
(1939.84 -450.51 1.50016e-17)
(1920.17 -414.155 -1.57405e-20)
(1897.54 -278.455 0)
(1849.43 -226.045 1.78319e-20)
(1828.74 -241.571 3.81469e-17)
(1546.97 -255.407 -8.80073e-17)
(1547.17 238.067 -4.4203e-17)
(1833.29 226.738 -3.64877e-17)
(1853.62 199.057 3.58872e-17)
(1880.25 196.234 1.49497e-17)
(1933.01 338.8 -1.93381e-17)
(1944.35 414.25 0)
(1941.78 414.695 4.04947e-21)
(1951.38 364.035 -1.19341e-20)
(1951.19 308.106 8.04083e-18)
(1955.09 232.125 -1.61709e-17)
(1951.1 164.107 8.08195e-18)
(1956.07 77.1065 2.00587e-18)
(1946.89 4.19172 -1.8763e-18)
(1951.27 -77.8736 1.87037e-18)
(1951.27 -156.39 -2.01337e-18)
(1951.23 -231.316 0)
(1956.85 -295.633 1.20129e-20)
(1962.77 -365.881 -3.85836e-21)
(1943.43 -411.635 -1.70657e-17)
(1939.87 -408.895 1.46333e-17)
(1930.55 -340.297 0)
(1877.74 -197.893 0)
(1854.2 -196.41 -4.32763e-21)
(1841.96 -222.915 -3.74403e-17)
(1571.5 -235.725 -1.3961e-18)
(1558.38 220.944 -2.07547e-17)
(1840.92 216.871 1.8561e-17)
(1866.82 181.751 4.30453e-21)
(1890.06 138.101 0)
(1930.73 255.723 1.4502e-17)
(1948.23 347.595 -1.75859e-17)
(1951.88 379.249 3.82586e-21)
(1966.87 349.514 3.88428e-21)
(1972.85 297.26 1.47612e-20)
(1979.3 218.81 -1.92614e-18)
(1967.43 152.11 9.90219e-19)
(1978.43 72.2663 1.89836e-18)
(1965.1 2.94395 -9.74174e-19)
(1974.02 -76.3124 3.88458e-18)
(1966.81 -147.746 -3.89744e-18)
(1974.76 -221.249 0)
(1974.92 -289.324 1.09189e-20)
(1975.87 -348.17 -1.63543e-17)
(1954.83 -369.363 1.50575e-17)
(1946.7 -342.126 3.78822e-21)
(1924.97 -248.675 0)
(1886.69 -134.303 0)
(1868.66 -183.92 4.33927e-21)
(1851.04 -218.387 -3.66978e-17)
(1578.76 -220.738 4.13209e-17)
(1581.67 197.603 2.08507e-20)
(1854.42 193.505 0)
(1880.42 162.98 -8.10842e-21)
(1893.15 73.8729 -1.50819e-17)
(1921.85 176.899 1.84193e-17)
(1947.96 299.996 -1.4268e-17)
(1953.2 332.64 1.70187e-17)
(1977.83 313.934 -7.44865e-18)
(1982.41 275.632 7.82985e-18)
(1988.08 209.935 -3.77257e-18)
(1986.36 149.619 3.79925e-18)
(1992 69.2458 -1.84821e-18)
(1982.9 2.4912 2.11171e-18)
(1986.94 -74.0454 -2.50191e-19)
(1986.28 -145.218 3.7941e-18)
(1983.77 -212.733 -7.59296e-18)
(1986.03 -266.961 -4.09534e-18)
(1988.24 -319.329 7.44977e-18)
(1956.95 -328.591 1.52203e-20)
(1946.95 -287.876 -7.71735e-21)
(1918.52 -174.128 0)
(1891.22 -76.3383 0)
(1885.75 -166.132 0)
(1860.11 -197.036 -1.80811e-17)
(1595.18 -200.461 2.00606e-17)
(1588.14 179.646 -2.515e-21)
(1860.3 176.808 0)
(1900.06 155.89 1.02821e-20)
(1900.74 52.5446 -8.11488e-21)
(1892.6 100.327 -7.67485e-21)
(1944.53 195.971 0)
(1958.13 279.579 -7.51107e-21)
(1986.25 290.564 7.2072e-18)
(1999.81 263.578 -7.69929e-18)
(2009.56 198.876 0)
(1999.44 139.716 1.75817e-21)
(2011.13 66.5287 0)
(1998 4.49189 0)
(2006.59 -68.8569 1.82706e-18)
(1998.75 -133.018 -1.84133e-18)
(2004.62 -198.766 -7.32725e-21)
(1999.39 -253.592 -1.78357e-21)
(1993.35 -287.502 7.397e-21)
(1961.94 -270.447 -8.66521e-18)
(1947.54 -204.902 7.12871e-18)
(1887.4 -99.73 -1.74751e-17)
(1899.48 -53.4795 3.26121e-17)