/*--------------------------------*- C++ -*----------------------------------*\
| =========                 |                                                 |
| \\      /  F ield         | OpenFOAM: The Open Source CFD Toolbox           |
|  \\    /   O peration     | Version:  2112                                  |
|   \\  /    A nd           | Website:  www.openfoam.com                      |
|    \\/     M anipulation  |                                                 |
\*---------------------------------------------------------------------------*/
FoamFile
{
    version     2.0;
    format      ascii;
    arch        "LSB;label=32;scalar=64";
    class       volScalarField;
    location    "0.00136";
    object      k;
}
// * * * * * * * * * * * * * * * * * * * * * * * * * * * * * * * * * * * * * //

dimensions      [0 2 -2 0 0 0 0];

internalField   nonuniform List<scalar> 
13875
(
812.077
3462.91
3539.92
3539.64
3542.5
3540.31
3539.44
3540.6
3542.38
3542.78
3541.47
3541.42
3538.5
3537.52
3542.23
3542.68
3540.28
3542.92
3541.51
3539.51
3541.6
3539.07
3540.14
3460.59
820.423
881.701
2937.21
3013.04
3001.25
3001.12
2997.49
2996.2
2996.52
2995.32
2997.67
2998.5
2996.04
2995.87
2995.84
2999.36
3000.46
2997.84
2998.6
2998.28
2997.34
3000.16
2999.4
3011.76
2933.98
894.421
993.364
2711.7
2777.85
2756.02
2756.99
2754.09
2752.52
2751.34
2742.31
2743.95
2747.22
2749.25
2751.87
2752.65
2749.01
2748.51
2746.32
2748.61
2753.45
2754.15
2756.66
2753.2
2774.64
2706.95
998.228
1091.17
2534.48
2581.41
2562.12
2564.88
2562.28
2560.64
2559.21
2549.36
2549.63
2553.5
2556.28
2559.03
2560.07
2555.11
2553.64
2552.15
2556.06
2561.13
2562.2
2564.53
2559.39
2579.19
2529.99
1093.88
1172.44
2381.26
2413.7
2393.37
2396.06
2393.73
2392.22
2390.43
2380.96
2380.75
2384.32
2386.66
2390.3
2391.44
2385.16
2384.03
2383.21
2387.33
2392.15
2393.49
2395.66
2391.03
2410.5
2376.01
1177.46
1241.76
2238.57
2271.82
2245.5
2249.15
2246.23
2244.25
2241.51
2232.3
2231.57
2234.74
2236.52
2241.45
2242.41
2235.04
2234.02
2234.01
2238.92
2243.6
2245.93
2248.76
2243.77
2267.95
2248.01
1247.46
1322.27
2124.15
2159.78
2121.38
2121.52
2116.9
2113.77
2109.84
2100.96
2099.69
2102.17
2103.57
2109.66
2109.99
2102.22
2101.19
2102.01
2108.17
2113
2116.4
2120.78
2119.99
2154.46
2096.71
1324.01
1414.91
2006.35
2077.24
2022.33
2016.3
2007.16
2001.03
1995.07
1986.11
1984
1985.59
1986.59
1993.71
1993.48
1985.3
1984.15
1986.34
1994.1
1999.82
2005.84
2014.38
2019.72
2069.26
1993.98
1421.52
1699.53
2037.05
2028.51
1950.43
1929.03
1914.89
1905.34
1897.07
1887.82
1885.08
1885.42
1886.14
1893.95
1893.04
1884.61
1883.38
1887.45
1896.64
1903.95
1912.95
1926.45
1944.94
2020.25
2036.28
1720.19
2546.83
2321.58
2037.28
1911.72
1874.48
1848.61
1834.14
1823.62
1814.52
1811.12
1810.46
1810.87
1818.4
1816.82
1808.89
1807.91
1813.05
1822.78
1832.21
1845.25
1868.68
1899.93
2017.51
2275.56
2535.74
3933.3
3050.63
2155.14
1958.71
1857.43
1814.56
1794.15
1780.47
1771.44
1767.2
1765.96
1766.08
1771.93
1769.98
1763.39
1763.37
1769.09
1778.88
1791.38
1809.12
1846.84
1932.7
2150.05
2956.91
3879.09
5150.31
6156.01
3268.71
2139.89
1944.08
1844.6
1801.2
1781.57
1769.48
1763.35
1761.7
1761.14
1764.08
1762.02
1757.66
1759.4
1766.37
1778.46
1796.2
1834.44
1912.13
2035.34
2908.92
6313.5
5129.81
5034.39
6448.05
8510.03
5009.53
2324.81
1986.34
1918.35
1887.34
1872.55
1870.03
1863.51
1867.11
1864.6
1863.87
1860.98
1864.66
1873.26
1887.48
1911.38
1977.06
2272.88
3755.7
7322.81
7000.98
5019.75
4772.07
5609.96
7474.12
10635.6
6150.26
3058.07
2785.09
2530.76
2486.77
2404.6
2475.6
2366.02
2500.42
2400.69
2422.01
2419.16
2451.16
2503.79
2703.12
3046.25
6275.83
9025.31
7255.74
5997.29
4865.71
4566.05
5074.96
6331.77
8327.87
7373.37
5971.98
6471.78
6113.54
6127.2
5889.01
6439.29
5848.23
6650.33
6193.61
6152.94
6023.01
5953.71
6012.03
6557.27
6114.74
7278.9
7551.62
6304.07
5359.35
4799.4
4378.8
4784.74
6019.07
7462.71
7466.2
9374.84
9033.71
6744.12
6254.69
6462.93
6256.94
6442.6
6381.89
6547.74
6311.36
6420.72
6301.08
6513.46
7745.98
9978.8
8093.92
7135.08
5918.06
4965.03
4636.04
4162.48
4740.73
5992.15
7191.46
7210.16
9412.61
7686.77
5411.78
5053.81
5028.79
5009.37
5011.63
5101.08
5099.44
4967.64
5047.11
5049.52
5229.22
6491.78
9693.72
7994.91
7168.37
6095.09
4852.03
4294.25
3682.63
4919.33
5837.27
6161.32
6135.77
7925.45
6679.16
4967.97
4440.35
4276.11
4201.1
4153.07
4237.24
4211.37
4162.95
4286.64
4410.16
4764.23
6050.29
7816.67
6611.7
6233.95
6058.02
5123.01
3779.13
3136.69
4848.22
5405.42
5335.06
5169.52
6187.48
6068.74
5060.78
4304.04
3892.98
3683.43
3571.05
3615.72
3593.42
3610.37
3809.02
4147.25
4806.54
5802.15
6240.15
5424.95
5427.05
5560.41
5130.1
3261.76
2900.87
4564.79
4745.22
4669.53
4525.47
5127.96
5438.94
4999.03
4260.86
3682.09
3343.05
3162.88
3167.53
3168.23
3277.31
3605.61
4145.08
4851.12
5351.24
5211.73
4691.79
4740.79
4833.11
4631.37
3007.2
3214.16
3931.63
4112.19
4115.37
4026.5
4477.15
4882.39
4682.42
4050.69
3446.47
3044.76
2821.26
2799.56
2827.53
3009.21
3415.19
4002.07
4613.72
4863.52
4573.35
4165.81
4188.36
4170.73
3942.7
3338.91
4019.57
3877.71
3712.83
3720.44
3650.88
4013.28
4394.53
4299.97
3766.28
3182.81
2763
2523.41
2484.83
2529.84
2745.16
3174.54
3743.47
4250.66
4392.01
4112.74
3775.91
3788.13
3744.67
3912.71
4102.97
4671.91
4255.41
3452.83
3381.94
3333.63
3629.65
3963.41
3906.37
3447.03
2911.22
2500.96
2261.3
2213.35
2263.15
2482.54
2898.22
3423.73
3862.44
3958.82
3719.68
3443.43
3444.95
3467.72
4305.32
4713.57
4830.15
4299.64
3207.94
3092.41
3048.81
3281.06
3574.72
3537.95
3112.29
2623.09
2248.54
2027.09
1981.56
2035.47
2246.74
2631.67
3112.99
3509.6
3574.31
3353.79
3150.74
3168.76
3233.98
4333.96
4847.53
4914.75
4257.66
2992.89
2858.8
2810.01
2985.23
3233.18
3196.8
2810.98
2368.11
2026.54
1826.89
1785.34
1838.24
2033.48
2382.91
2826.39
3186.41
3237
3045.53
2897.32
2936.56
3028.14
4327.83
4923.9
4990.05
4205.99
2838.15
2669.66
2607.04
2737.4
2935.73
2889.66
2540.1
2143.25
1836.08
1656.01
1615.96
1666.17
1842.55
2155.67
2554.79
2882.88
2937.85
2785.46
2676.22
2738.4
2870.53
4214.53
4978.24
5062.18
4147.75
2706.31
2516.21
2438.44
2527.71
2666.83
2598.61
2284.98
1937.11
1665.83
1508.52
1471.8
1519.23
1680.29
1958.96
2313.68
2614.86
2683.12
2572.62
2497.6
2578.71
2742.81
4186.08
5073.49
5166.26
4109.14
2600.38
2382.26
2299.75
2351.1
2438.39
2353.64
2070.72
1762.67
1521.69
1382.36
1347.74
1391.44
1534.26
1780.54
2094.41
2369.77
2454.54
2391.77
2350.27
2438.41
2633.14
4126.81
5175.06
5346.45
4048.35
2512.68
2258.15
2179.87
2202.18
2239.91
2137.83
1881.5
1611.4
1398.63
1273.64
1239.75
1280.33
1406.52
1620.55
1892.33
2144.84
2250.66
2236.08
2222.74
2303.83
2538.03
3994.83
5268.34
5416.7
3958.26
2437.92
2146.11
2064.36
2066.61
2059.66
1942.8
1710.6
1472.56
1285.88
1177.95
1146.92
1184.7
1297.43
1487.8
1728.83
1959.91
2076.87
2098.32
2102.72
2188.6
2460.85
3948.04
5480.61
5412.74
3883.77
2389.21
2057.97
1956.91
1943.16
1907.42
1779.99
1566.3
1356.94
1192.38
1095.27
1064.74
1100.27
1200.71
1366.7
1577.6
1790.09
1920.01
1970.28
1987.97
2094.19
2400.06
3884.04
5512.98
5405.63
3820.37
2352.64
1994.82
1858.7
1828.17
1774.64
1641.59
1446.19
1257.04
1109.29
1022.89
994.017
1026.13
1114.74
1262.86
1451.43
1645.32
1781.63
1848.35
1885.21
2022.74
2354.34
3821.71
5461.58
5350.45
3695.32
2335.38
1947.14
1772.93
1721.04
1651.65
1514.74
1334.01
1166.1
1035.75
958.536
930.502
961.749
1042.6
1174.63
1344.18
1523.04
1662.06
1741.1
1797.8
1969.97
2332.12
3776.79
5452.42
5330.22
3584.49
2317.25
1917.22
1703.36
1626.23
1542.34
1408.28
1241.96
1089.91
971.267
901.783
875.349
904.245
976.39
1096.36
1249.95
1414.81
1550.86
1643.81
1725.14
1934.02
2336.92
3715.07
5410.22
5329.3
3498.97
2265.32
1898.95
1651.63
1542.77
1446.34
1314.47
1159.9
1021.94
915.843
851.927
825.734
853.516
919.891
1027.93
1167.63
1320.79
1454.02
1558.27
1672.26
1921.76
2325.17
3648.85
5370.15
5273.9
3373.77
2186.5
1883.5
1614.15
1470.77
1359.27
1227.81
1085.9
961.613
864.035
806.702
782.452
809.198
869.926
970.834
1098.78
1239.82
1370.91
1487.91
1634.43
1915.16
2269.23
3589.74
5335.26
5240.86
3278.46
2115.86
1898.97
1589.14
1415.78
1285.75
1154.48
1021.41
907.494
819.644
767.092
743.121
768.987
825.332
917.114
1034.37
1167
1297.26
1432.49
1609
1938.77
2195.02
3474.69
5283.33
5223.56
3198.4
2048.94
1893.69
1583.37
1373.29
1225.95
1091.25
965.079
860.834
779.252
731.093
708.652
733.212
784.894
870.052
978.723
1104.55
1238.48
1391.2
1609.25
1948.53
2122.41
3361.33
5267.12
5186.96
3090.98
1959.53
1843.07
1588.79
1341.8
1178.41
1037.41
914.727
817.057
742.594
698.849
677.286
701.116
749.829
828.698
931.065
1054.85
1195.31
1362.97
1628.37
1918.52
2049.12
3264.56
5267.49
5186.92
3012.48
1870.88
1784.35
1628.25
1328.31
1143.85
994.908
873.13
780.208
710.581
669.796
649.347
672.137
717.04
791.442
889.613
1015.8
1161.39
1349.81
1682.1
1859.58
1949.35
3163.08
5244
5191.88
2972.11
1801.39
1717.87
1638.87
1338.78
1118.62
964.036
839.286
748.56
682.049
643.914
623.929
645.87
688.192
758.761
855.444
985.865
1138.65
1372
1705.06
1789.62
1861.2
3094.92
5231.4
5166.4
2924.76
1725.11
1642.11
1593.45
1375.35
1105.66
938.767
813.15
720.983
657.134
620.573
601.601
622.996
663.608
732.898
831.316
961.635
1137.07
1438.09
1655.69
1713.27
1805.73
3077.85
5224.55
5158.69
2897.11
1673.11
1568.58
1534.53
1411.72
1122.95
923.451
794.935
700.402
636.379
600.488
582.133
602.802
642.709
713.106
811.998
945.255
1164.26
1480.9
1593.64
1632.71
1735.19
3049.97
5207.25
5154.8
2892.58
1648.28
1502.83
1469.61
1392.34
1177.21
922.444
779.716
685.715
621.536
584.182
564.854
586.12
627.313
698.708
796.714
946.974
1245.54
1462.15
1523.92
1561.06
1695.86
3044.44
5178.51
5142.92
2858.05
1608.71
1443.25
1402.41
1348.06
1241.43
951.123
769.456
673.567
609.649
572.532
552.353
574.537
616.033
686.134
788.907
1000.31
1307.48
1414.3
1455.91
1501.53
1687.54
3059.94
5156.35
5132.88
2845.11
1597.2
1396.44
1341.86
1303.56
1251.96
1040.11
776.371
665.664
601.32
563.689
544.052
565.297
606.574
677.193
799.246
1097.23
1295.46
1361.31
1393.69
1452.97
1673.9
3049.64
5128.59
5114.33
2849.19
1599.27
1360.55
1292.4
1255.05
1215.14
1109.49
829.354
664.317
593.783
556.159
536.708
557.815
599.617
676.243
859.855
1167.46
1259.76
1308.2
1343.27
1415.96
1671.67
3040.16
5080.23
5043.4
2818.09
1585.02
1328.64
1250.15
1208.39
1176.92
1112.28
923.775
685.611
590.865
548.695
530.604
550.745
598.261
709.574
972.021
1161.48
1223.22
1261.03
1302.45
1391.44
1682.45
3031.29
4993.54
4915.95
2772.3
1572.7
1302.62
1214.98
1169.13
1137.21
1086.3
994.11
760.849
603.106
546.736
527.922
548.662
613.68
806.276
1037.39
1134.76
1183.58
1221.79
1268.97
1367.43
1672.13
2979.28
4847.8
4541.5
2662.18
1557.24
1275.8
1182.81
1136.05
1100.27
1059.45
994.913
852.832
665.034
552.864
532.114
555.148
687.842
899.124
1031.89
1108.17
1149.43
1188.8
1236.17
1340.02
1651.89
2853.61
4471.97
745.161
832.829
848.462
849.544
849.456
849.522
849.972
849.873
849.299
848.338
847.243
846.168
845.149
844.171
843.222
842.294
841.38
840.478
839.587
838.704
837.831
836.967
836.114
835.27
834.434
833.61
832.737
831.317
821.748
724.466
567.989
739.058
764.088
766.025
766.168
766.379
766.868
766.658
766.016
765.064
764.087
763.223
762.479
761.813
761.195
760.609
760.045
759.496
758.962
758.44
757.93
757.433
756.948
756.475
756.01
755.561
755.001
753.321
736.655
591.358
538.944
716.77
739.168
740.76
740.912
741.329
741.863
741.676
741.122
740.334
739.618
739.084
738.705
738.418
738.183
737.976
737.785
737.605
737.431
737.264
737.102
736.946
736.797
736.653
736.512
736.379
736.13
734.523
716.583
565.915
538.585
711.578
732.831
734.411
734.598
735.185
735.867
735.705
735.212
734.494
733.884
733.48
733.244
733.107
733.021
732.961
732.913
732.87
732.83
732.791
732.754
732.719
732.687
732.656
732.626
732.598
732.455
730.864
712.672
560.588
539.037
709.792
731.349
733.012
733.267
733.969
734.796
734.621
734.131
733.407
732.812
732.433
732.228
732.127
732.079
732.055
732.042
732.033
732.025
732.017
732.009
732.002
731.998
731.993
731.989
731.982
731.864
730.238
711.801
558.266
538.986
709.229
730.977
732.679
733.004
733.917
734.733
734.503
733.995
733.244
732.644
732.266
732.067
731.973
731.933
731.916
731.91
731.907
731.906
731.904
731.901
731.9
731.9
731.901
731.901
731.896
731.782
730.104
711.371
556.369
539.188
709.041
730.847
732.564
732.948
734.065
734.82
734.492
733.974
733.214
732.616
732.24
732.044
731.952
731.913
731.898
731.893
731.891
731.89
731.889
731.888
731.887
731.888
731.889
731.891
731.886
731.77
730.04
710.998
554.595
539.847
708.985
730.818
732.527
733
734.233
734.885
734.474
733.957
733.195
732.604
732.233
732.039
731.947
731.909
731.895
731.89
731.889
731.889
731.888
731.886
731.886
731.886
731.888
731.89
731.884
731.767
729.988
710.648
552.94
540.586
708.89
730.833
732.496
733.19
734.362
734.895
734.443
733.926
733.164
732.589
732.225
732.034
731.945
731.907
731.894
731.89
731.889
731.889
731.888
731.887
731.886
731.886
731.888
731.889
731.884
731.764
729.942
710.325
551.421
541.188
708.825
730.935
732.667
733.364
734.488
734.891
734.39
733.871
733.115
732.563
732.212
732.027
731.939
731.905
731.893
731.89
731.889
731.889
731.888
731.887
731.886
731.886
731.888
731.889
731.884
731.761
729.9
710.028
550.038
541.566
708.931
731.402
733.312
733.785
734.699
734.886
734.29
733.785
733.046
732.524
732.189
732.014
731.934
731.903
731.893
731.89
731.889
731.889
731.888
731.888
731.887
731.886
731.887
731.889
731.883
731.758
729.86
709.752
548.779
541.934
709.613
732.671
734.906
734.943
735.325
735.038
734.206
733.684
732.964
732.474
732.163
732.003
731.93
731.902
731.892
731.89
731.889
731.889
731.889
731.888
731.888
731.887
731.887
731.888
731.883
731.754
729.823
709.495
547.629
542.797
711.896
736.427
739.843
738.959
737.611
735.865
734.393
733.623
732.883
732.426
732.14
731.994
731.927
731.901
731.892
731.89
731.889
731.889
731.889
731.888
731.888
731.888
731.887
731.888
731.883
731.752
729.788
709.258
546.572
545.262
719.305
750.055
760.26
758.524
748.814
739.76
735.491
733.883
732.876
732.39
732.12
731.985
731.924
731.9
731.892
731.89
731.889
731.889
731.889
731.889
731.889
731.888
731.888
731.888
731.882
731.747
729.756
709.04
545.612
552.994
742.901
792.658
836.697
847.372
817.307
767.412
741.667
735.179
733.151
732.425
732.11
731.977
731.92
731.898
731.891
731.889
731.889
731.889
731.889
731.889
731.889
731.889
731.888
731.887
731.882
731.744
729.726
708.844
544.74
572.498
801.5
884.256
977.606
1060.39
1077.6
940.785
792.783
742.837
734.443
732.67
732.147
731.976
731.918
731.897
731.891
731.889
731.889
731.889
731.889
731.889
731.889
731.889
731.889
731.887
731.88
731.742
729.697
708.662
543.95
613
850.919
942.272
1062.73
1187.7
1297.09
1346.63
1097.23
807.824
741.585
733.749
732.327
732.002
731.919
731.897
731.891
731.889
731.889
731.889
731.889
731.889
731.889
731.889
731.889
731.888
731.879
731.738
729.673
708.499
543.243
625.492
872.741
991.265
1121.87
1275.18
1396.06
1519.58
1565.57
1171.19
799.054
738.972
733.075
732.118
731.934
731.898
731.891
731.889
731.889
731.889
731.889
731.889
731.889
731.889
731.889
731.889
731.881
731.735
729.652
708.36
542.619
625.976
901.507
1034.58
1160.28
1317.55
1449.04
1581.97
1711.08
1714.15
1123.45
775.189
736.216
732.561
731.997
731.905
731.891
731.889
731.889
731.889
731.889
731.889
731.889
731.889
731.889
731.889
731.881
731.735
729.635
708.238
542.071
626.329
939.373
1080.63
1198.32
1336.12
1463.19
1597.12
1733.71
1869.36
1724.43
981.218
753.403
734.156
732.223
731.934
731.894
731.889
731.889
731.889
731.889
731.889
731.889
731.889
731.889
731.889
731.881
731.734
729.62
708.133
541.595
596.566
1008.59
1122.47
1253.01
1384.81
1484.56
1582.23
1713.92
1861.82
1957.37
1545.08
851.082
740.961
732.929
732.033
731.905
731.89
731.889
731.889
731.889
731.889
731.889
731.889
731.889
731.889
731.881
731.733
729.607
708.046
541.191
617.672
1078.35
1284.9
1433.63
1547.87
1551.72
1600.34
1675.3
1805.3
1976.47
1957.34
1213.9
775.154
735.326
732.311
731.94
731.894
731.889
731.889
731.889
731.889
731.889
731.889
731.889
731.889
731.881
731.732
729.597
707.973
540.853
780.664
1287.59
1514.36
1804.43
2089.44
1831.8
1723.3
1671.03
1727.75
1888.48
2011.79
1730.82
908.565
744.596
733.085
732.039
731.904
731.89
731.889
731.889
731.889
731.889
731.889
731.889
731.889
731.881
731.732
729.589
707.917
540.578
1016.65
1904.44
2441.3
3027.38
3677.14
2702.61
1969.7
1741.03
1704.28
1792.07
1934.56
1957.18
1259.78
780.244
735.312
732.268
731.933
731.893
731.889
731.889
731.889
731.889
731.889
731.889
731.889
731.881
731.731
729.583
707.876
540.363
2394.94
5335
5916.07
7475.2
6283.43
4327.45
2489.72
1966.85
1773.92
1753.05
1851.42
1945.61
1637.36
878.939
742.099
732.815
731.995
731.899
731.89
731.889
731.889
731.889
731.889
731.889
731.889
731.881
731.731
729.58
707.845
540.207
724.466
821.749
831.32
832.741
833.615
834.44
835.278
836.123
836.977
837.842
838.717
839.6
840.494
841.397
842.312
843.242
844.192
845.171
846.192
847.268
848.364
849.327
849.903
850.004
849.554
849.49
849.58
848.501
832.868
745.22
591.357
736.655
753.321
755.001
755.561
756.01
756.475
756.948
757.433
757.93
758.44
758.962
759.496
760.045
760.609
761.195
761.813
762.479
763.223
764.087
765.064
766.016
766.658
766.868
766.379
766.167
766.024
764.088
739.057
568.001
565.912
716.582
734.523
736.13
736.38
736.512
736.653
736.797
736.946
737.102
737.264
737.432
737.605
737.786
737.977
738.184
738.419
738.706
739.086
739.62
740.335
741.123
741.678
741.865
741.331
740.913
740.762
739.171
716.776
538.925
560.587
712.672
730.864
732.455
732.598
732.626
732.656
732.687
732.719
732.754
732.791
732.83
732.87
732.913
732.961
733.021
733.107
733.244
733.48
733.885
734.494
735.212
735.705
735.866
735.184
734.597
734.411
732.832
711.589
538.631
558.266
711.802
730.238
731.864
731.982
731.989
731.993
731.998
732.002
732.009
732.017
732.025
732.033
732.042
732.055
732.079
732.127
732.228
732.433
732.812
733.407
734.131
734.621
734.796
733.968
733.266
733.012
731.347
709.779
539.059
556.367
711.37
730.104
731.782
731.896
731.901
731.901
731.9
731.9
731.901
731.904
731.906
731.907
731.91
731.916
731.933
731.973
732.067
732.266
732.644
733.244
733.994
734.503
734.733
733.917
733.003
732.679
730.977
709.234
538.94
554.595
710.999
730.04
731.77
731.886
731.891
731.889
731.888
731.887
731.888
731.889
731.89
731.891
731.893
731.898
731.913
731.952
732.044
732.24
732.616
733.214
733.974
734.491
734.82
734.064
732.946
732.564
730.848
709.044
539.254
552.941
710.648
729.988
731.767
731.884
731.89
731.888
731.886
731.886
731.886
731.888
731.889
731.889
731.89
731.895
731.909
731.947
732.039
732.233
732.604
733.195
733.957
734.474
734.885
734.232
732.999
732.526
730.816
708.977
539.819
551.421
710.325
729.942
731.764
731.884
731.889
731.888
731.886
731.886
731.887
731.888
731.889
731.889
731.89
731.894
731.907
731.945
732.034
732.225
732.589
733.164
733.926
734.444
734.895
734.362
733.19
732.496
730.834
708.895
540.588
550.039
710.028
729.9
731.761
731.884
731.889
731.888
731.886
731.886
731.887
731.888
731.889
731.889
731.89
731.893
731.905
731.939
732.027
732.212
732.564
733.116
733.872
734.39
734.892
734.488
733.364
732.667
730.934
708.816
541.2
548.778
709.751
729.86
731.758
731.883
731.889
731.887
731.886
731.887
731.888
731.888
731.889
731.889
731.89
731.893
731.903
731.934
732.014
732.189
732.524
733.046
733.785
734.289
734.885
734.7
733.787
733.313
731.402
708.939
541.53
547.628
709.496
729.823
731.754
731.883
731.888
731.887
731.887
731.888
731.888
731.889
731.889
731.889
731.89
731.892
731.902
731.93
732.003
732.163
732.474
732.964
733.683
734.205
735.039
735.326
734.944
734.907
732.673
709.615
541.96
546.573
709.258
729.788
731.752
731.883
731.888
731.887
731.888
731.888
731.888
731.889
731.889
731.889
731.89
731.892
731.901
731.927
731.994
732.14
732.426
732.883
733.623
734.393
735.866
737.61
738.96
739.844
736.429
711.889
542.798
545.612
709.04
729.756
731.747
731.882
731.888
731.888
731.888
731.889
731.889
731.889
731.889
731.889
731.89
731.892
731.9
731.924
731.985
732.12
732.39
732.876
733.883
735.49
739.755
748.796
758.502
760.248
750.055
719.298
545.253
544.74
708.844
729.726
731.744
731.882
731.887
731.888
731.889
731.889
731.889
731.889
731.889
731.889
731.889
731.891
731.898
731.92
731.977
732.11
732.425
733.151
735.177
741.652
767.32
817.1
847.152
836.578
792.621
742.865
552.977
543.95
708.662
729.698
731.742
731.88
731.887
731.889
731.889
731.889
731.889
731.889
731.889
731.889
731.889
731.891
731.897
731.918
731.976
732.147
732.67
734.441
742.814
792.554
939.96
1076.59
1059.62
977.26
884.064
801.357
572.449
543.243
708.499
729.673
731.738
731.879
731.888
731.889
731.889
731.889
731.889
731.889
731.889
731.889
731.889
731.891
731.897
731.919
732.002
732.327
733.747
741.561
807.495
1095.65
1344.68
1295.58
1186.61
1062.23
941.993
850.716
612.842
542.618
708.359
729.652
731.735
731.881
731.889
731.889
731.889
731.889
731.889
731.889
731.889
731.889
731.889
731.891
731.898
731.934
732.118
733.074
738.953
798.713
1168.93
1562.6
1517.29
1394.32
1273.93
1121.27
990.949
872.569
625.378
542.071
708.239
729.635
731.735
731.881
731.889
731.889
731.889
731.889
731.889
731.889
731.889
731.889
731.889
731.891
731.905
731.997
732.561
736.207
774.968
1121.18
1710.35
1708.05
1579.65
1447.08
1316.25
1159.55
1034.23
901.324
625.871
541.596
708.133
729.62
731.734
731.881
731.889
731.889
731.889
731.889
731.889
731.889
731.889
731.889
731.889
731.894
731.934
732.223
734.153
753.316
979.777
1720.36
1865.76
1730.87
1594.67
1460.67
1334.69
1197.43
1080.24
939.155
626.184
541.19
708.045
729.607
731.733
731.881
731.889
731.889
731.889
731.889
731.889
731.889
731.889
731.889
731.89
731.905
732.033
732.928
740.93
850.379
1540.94
1953.36
1858.62
1711.05
1579.27
1480.62
1382.43
1251.67
1121.61
1008.05
596.486
540.853
707.974
729.597
731.732
731.881
731.889
731.889
731.889
731.889
731.889
731.889
731.889
731.889
731.894
731.941
732.311
735.321
774.962
1211.47
1953.71
1973.4
1802.35
1671.82
1595.5
1543.93
1541.11
1430.26
1283.4
1078.25
617.373
540.578
707.917
729.589
731.732
731.881
731.889
731.889
731.889
731.889
731.889
731.889
731.889
731.89
731.904
732.039
733.086
744.579
908.088
1728.41
2009.19
1885.55
1724.13
1665.85
1714.27
1814.46
2068.86
1795.87
1510.28
1285.64
780.01
540.363
707.875
729.583
731.731
731.881
731.889
731.889
731.889
731.889
731.889
731.889
731.889
731.893
731.933
732.269
735.314
780.171
1258.62
1955.01
1931.93
1788.16
1698.05
1730
1951.34
2654.4
3622.64
2993.7
2423.44
1895.61
1005.69
540.207
707.845
729.58
731.731
731.881
731.889
731.889
731.889
731.889
731.889
731.889
731.89
731.899
731.995
732.817
742.116
878.972
1636.71
1943.83
1848.19
1747.29
1763.62
1948.14
2453.46
4224.55
6134.46
7243.86
5811.29
5230.25
2331.95
488.806
489.248
489.701
490.154
490.607
491.059
491.51
491.96
492.41
492.859
493.307
493.755
494.202
494.648
495.094
495.539
495.983
496.426
496.869
497.311
497.753
498.194
498.634
499.074
499.513
499.951
500.388
500.825
501.261
501.697
502.132
502.566
503
503.433
503.865
504.297
504.728
505.158
505.588
506.017
506.445
506.873
507.3
507.726
508.152
508.577
509.002
509.426
509.849
510.271
510.693
511.115
511.536
511.956
512.375
512.794
513.212
513.63
514.047
514.463
514.879
515.294
515.708
516.122
516.535
516.948
517.36
517.771
518.182
518.592
519.002
519.41
519.819
520.226
520.634
521.04
521.446
521.851
522.256
522.66
523.063
523.466
523.868
524.27
524.671
525.072
525.472
525.871
526.27
526.668
527.065
527.462
527.858
528.254
528.649
529.044
529.438
529.831
530.224
530.617
531.008
531.399
531.79
532.18
532.569
532.958
533.346
533.734
534.121
534.508
534.894
535.279
535.664
536.048
536.432
536.815
537.198
537.58
537.961
538.342
538.722
539.102
539.48
539.847
540.157
691.421
691.63
691.806
691.976
692.145
692.313
692.48
692.647
692.813
692.978
693.142
693.305
693.468
693.63
693.791
693.952
694.112
694.271
694.429
694.587
694.744
694.9
695.055
695.21
695.364
695.518
695.67
695.822
695.974
696.124
696.274
696.423
696.572
696.72
696.867
697.014
697.16
697.305
697.45
697.594
697.737
697.879
698.021
698.163
698.304
698.444
698.583
698.722
698.86
698.998
699.135
699.271
699.407
699.542
699.677
699.81
699.944
700.077
700.209
700.34
700.471
700.602
700.731
700.861
700.989
701.117
701.245
701.372
701.498
701.624
701.749
701.874
701.998
702.121
702.244
702.367
702.489
702.61
702.731
702.851
702.971
703.09
703.209
703.327
703.445
703.562
703.679
703.795
703.911
704.026
704.14
704.254
704.368
704.481
704.594
704.706
704.817
704.929
705.039
705.149
705.259
705.368
705.477
705.585
705.693
705.8
705.907
706.013
706.119
706.225
706.329
706.434
706.538
706.642
706.745
706.848
706.95
707.052
707.153
707.254
707.354
707.454
707.554
707.656
707.766
726.297
726.35
726.392
726.432
726.472
726.511
726.55
726.589
726.628
726.666
726.704
726.741
726.778
726.815
726.852
726.889
726.925
726.96
726.996
727.031
727.066
727.101
727.135
727.17
727.204
727.237
727.271
727.304
727.337
727.369
727.402
727.434
727.466
727.497
727.528
727.56
727.59
727.621
727.652
727.682
727.712
727.741
727.771
727.8
727.829
727.858
727.886
727.915
727.943
727.971
727.999
728.026
728.053
728.08
728.107
728.134
728.16
728.187
728.213
728.238
728.264
728.29
728.315
728.34
728.365
728.389
728.414
728.438
728.462
728.486
728.51
728.534
728.557
728.58
728.603
728.626
728.649
728.671
728.694
728.716
728.738
728.76
728.782
728.803
728.824
728.846
728.867
728.888
728.908
728.929
728.949
728.97
728.99
729.01
729.029
729.049
729.069
729.088
729.107
729.126
729.145
729.164
729.183
729.201
729.22
729.238
729.256
729.274
729.292
729.31
729.327
729.345
729.362
729.379
729.396
729.413
729.43
729.447
729.464
729.48
729.496
729.513
729.529
729.546
729.565
731.315
731.323
731.33
731.336
731.342
731.347
731.353
731.359
731.365
731.37
731.376
731.381
731.387
731.392
731.397
731.402
731.407
731.413
731.418
731.423
731.428
731.432
731.437
731.442
731.447
731.451
731.456
731.46
731.465
731.469
731.474
731.478
731.482
731.487
731.491
731.495
731.499
731.503
731.507
731.511
731.515
731.519
731.523
731.527
731.53
731.534
731.538
731.541
731.545
731.548
731.552
731.555
731.559
731.562
731.566
731.569
731.572
731.575
731.579
731.582
731.585
731.588
731.591
731.594
731.597
731.6
731.603
731.606
731.609
731.612
731.614
731.617
731.62
731.623
731.625
731.628
731.631
731.633
731.636
731.638
731.641
731.643
731.646
731.648
731.651
731.653
731.655
731.658
731.66
731.662
731.664
731.667
731.669
731.671
731.673
731.675
731.678
731.68
731.682
731.684
731.686
731.688
731.69
731.692
731.694
731.696
731.697
731.699
731.701
731.703
731.705
731.707
731.709
731.71
731.712
731.714
731.716
731.717
731.719
731.721
731.722
731.724
731.726
731.727
731.729
731.844
731.845
731.845
731.846
731.847
731.847
731.848
731.848
731.849
731.85
731.85
731.851
731.851
731.852
731.852
731.853
731.853
731.854
731.854
731.855
731.855
731.856
731.856
731.857
731.857
731.858
731.858
731.858
731.859
731.859
731.86
731.86
731.861
731.861
731.861
731.862
731.862
731.862
731.863
731.863
731.864
731.864
731.864
731.865
731.865
731.865
731.866
731.866
731.866
731.867
731.867
731.867
731.867
731.868
731.868
731.868
731.869
731.869
731.869
731.869
731.87
731.87
731.87
731.87
731.871
731.871
731.871
731.871
731.872
731.872
731.872
731.872
731.873
731.873
731.873
731.873
731.873
731.874
731.874
731.874
731.874
731.874
731.875
731.875
731.875
731.875
731.875
731.876
731.876
731.876
731.876
731.876
731.876
731.877
731.877
731.877
731.877
731.877
731.877
731.878
731.878
731.878
731.878
731.878
731.878
731.878
731.879
731.879
731.879
731.879
731.879
731.879
731.879
731.88
731.88
731.88
731.88
731.88
731.88
731.88
731.881
731.881
731.881
731.881
731.881
731.886
731.886
731.886
731.886
731.886
731.887
731.887
731.887
731.887
731.887
731.887
731.887
731.887
731.887
731.887
731.887
731.887
731.887
731.887
731.887
731.887
731.887
731.887
731.887
731.887
731.887
731.887
731.887
731.887
731.887
731.887
731.888
731.888
731.888
731.888
731.888
731.888
731.888
731.888
731.888
731.888
731.888
731.888
731.888
731.888
731.888
731.888
731.888
731.888
731.888
731.888
731.888
731.888
731.888
731.888
731.888
731.888
731.888
731.888
731.888
731.888
731.888
731.888
731.888
731.888
731.888
731.888
731.888
731.888
731.888
731.888
731.888
731.888
731.888
731.888
731.888
731.888
731.888
731.888
731.888
731.888
731.888
731.888
731.889
731.889
731.889
731.889
731.889
731.889
731.889
731.889
731.889
731.889
731.889
731.889
731.889
731.889
731.889
731.889
731.889
731.889
731.889
731.889
731.889
731.889
731.889
731.889
731.889
731.889
731.889
731.889
731.889
731.889
731.889
731.889
731.889
731.889
731.889
731.889
731.889
731.889
731.889
731.889
731.889
731.889
731.889
731.889
731.889
731.889
731.889
731.889
731.889
731.889
731.889
731.889
731.889
731.889
731.889
731.889
731.889
731.889
731.889
731.889
731.889
731.889
731.889
731.889
731.889
731.889
731.889
731.889
731.889
731.889
731.889
731.889
731.889
731.889
731.889
731.889
731.889
731.889
731.889
731.889
731.889
731.889
731.889
731.889
731.889
731.889
731.889
731.889
731.889
731.889
731.889
731.889
731.889
731.889
731.889
731.889
731.889
731.889
731.889
731.889
731.889
731.889
731.889
731.889
731.889
731.889
731.889
731.889
731.889
731.889
731.889
731.889
731.889
731.889
731.889
731.889
731.889
731.889
731.889
731.889
731.889
731.889
731.889
731.889
731.889
731.889
731.889
731.889
731.889
731.889
731.889
731.889
731.889
731.889
731.889
731.889
731.889
731.889
731.889
731.889
731.889
731.889
731.889
731.889
731.889
731.889
731.889
731.889
731.889
731.889
731.889
731.889
731.889
731.889
731.889
731.889
731.889
731.889
731.889
731.889
731.889
731.889
731.889
731.889
731.889
731.889
731.889
731.889
731.889
731.889
731.889
731.889
731.889
731.889
731.889
731.889
731.889
731.889
731.889
731.889
731.889
731.889
731.889
731.889
731.889
731.889
731.889
731.889
731.889
731.889
731.889
731.889
731.889
731.889
731.889
731.889
731.889
731.889
731.889
731.889
731.889
731.889
731.889
731.889
731.889
731.889
731.889
731.889
731.889
731.889
731.889
731.889
731.889
731.889
731.889
731.889
731.889
731.889
731.889
731.889
731.889
731.889
731.889
731.889
731.889
731.889
731.889
731.889