/*--------------------------------*- C++ -*----------------------------------*\
| =========                 |                                                 |
| \\      /  F ield         | OpenFOAM: The Open Source CFD Toolbox           |
|  \\    /   O peration     | Version:  2112                                  |
|   \\  /    A nd           | Website:  www.openfoam.com                      |
|    \\/     M anipulation  |                                                 |
\*---------------------------------------------------------------------------*/
FoamFile
{
    version     2.0;
    format      ascii;
    arch        "LSB;label=32;scalar=64";
    class       volVectorField;
    location    "0.00136";
    object      U;
}
// * * * * * * * * * * * * * * * * * * * * * * * * * * * * * * * * * * * * * //

dimensions      [0 1 -1 0 0 0 0];

internalField   nonuniform List<vector> 
13875
(
(2204.3 109.724 1.81222e-18)
(2142.77 5.66054 -9.38287e-19)
(2170.1 -2.22089 -9.4111e-19)
(2168.3 -1.2282 0)
(2170.84 0.0808306 0)
(2169.57 -0.0852846 9.36454e-19)
(2169.52 -0.430611 -9.36878e-19)
(2169.74 -1.41424 -4.68516e-19)
(2169.42 -1.09984 4.68162e-19)
(2169.65 0.00319281 0)
(2169.65 0.379137 -3.88066e-22)
(2169.88 1.27649 -3.87031e-22)
(2169.36 1.14455 0)
(2169.17 -1.03871 -4.68349e-19)
(2169.53 -1.2246 4.68578e-19)
(2169.95 0.0112767 0)
(2169.41 0.193294 9.37011e-19)
(2169.43 0.915993 -9.37417e-19)
(2169.9 1.1281 3.85778e-22)
(2169.81 0.325511 -3.85398e-22)
(2170.82 -0.132632 -9.36031e-19)
(2168 0.374527 9.36979e-19)
(2171.06 2.52276 -1.8782e-18)
(2143.47 -8.63333 1.91681e-18)
(2210.09 -106.782 1.76488e-18)
(2253.44 91.88 -1.63208e-18)
(2228.59 -1.13877 1.88357e-18)
(2247.28 0.682041 8.71852e-19)
(2245.61 1.37149 -8.67209e-19)
(2248.52 -0.433434 4.16393e-22)
(2248.15 0.493155 5.20507e-22)
(2248.11 0.526044 4.1622e-22)
(2247.83 1.98936 -4.36341e-19)
(2245.45 1.37787 4.334e-19)
(2245.17 -0.288464 2.17424e-19)
(2245.5 -0.748213 -1.63127e-19)
(2246.31 -1.59366 -5.31756e-20)
(2247.43 -1.00418 0)
(2247.56 1.36664 -4.37343e-19)
(2245.66 1.36806 4.32736e-19)
(2245.55 -0.0561123 4.35443e-19)
(2245.44 0.122044 -4.3576e-19)
(2246.35 -1.40228 5.18687e-22)
(2248.17 -2.12229 -5.19789e-22)
(2248.26 -0.707118 5.20209e-22)
(2248.78 0.785711 -8.71455e-19)
(2245.62 -0.646679 2.59969e-18)
(2247.25 -1.53864 -1.74251e-18)
(2228.86 3.59208 5.42957e-22)
(2256.58 -97.1912 -1.71263e-18)
(2252.53 78.0766 0)
(2236.51 -18.1813 0)
(2249.3 4.4327 0)
(2250.9 -1.96552 0)
(2254.11 -3.04588 -1.6551e-18)
(2253.88 -0.696394 1.64363e-18)
(2254.19 0.276712 1.63998e-18)
(2254.29 2.09137 -2.45752e-18)
(2254.01 2.4482 8.60222e-19)
(2253.37 0.236658 4.30667e-22)
(2253.39 -1.08187 -4.30361e-19)
(2253.21 -1.81839 4.10631e-19)
(2253.12 -1.28479 0)
(2253.14 1.70159 0)
(2253.12 2.22701 4.29976e-22)
(2253.09 0.268784 0)
(2253.22 -1.02763 8.4002e-22)
(2254.42 -2.31369 4.29873e-19)
(2254.31 -1.46497 -4.09926e-19)
(2253.88 0.231126 0)
(2254.21 2.9369 0)
(2251.02 1.43644 0)
(2250.6 -4.74564 0)
(2238 13.6903 0)
(2257.36 -74.1848 0)
(2247.9 51.3593 0)
(2235.01 -28.4542 1.81479e-18)
(2249.08 7.20915 -3.41754e-18)
(2251.62 -4.73907 3.46532e-18)
(2253.76 -3.83801 -1.65705e-18)
(2253.73 -1.01024 0)
(2254.15 0.2117 -7.89239e-22)
(2254.25 1.98146 0)
(2254.31 2.30263 0)
(2254.14 0.937005 0)
(2253.85 -0.264401 0)
(2253.21 -1.66437 -7.99704e-22)
(2253.05 -1.34156 -5.07925e-20)
(2253.07 1.70409 5.05951e-20)
(2253.27 2.01794 0)
(2253.67 -0.289538 0)
(2253.88 -1.8002 8.40714e-22)
(2254.5 -2.48966 -8.49161e-19)
(2254.21 -1.2481 8.13044e-19)
(2253.74 0.48623 -1.62421e-18)
(2253.98 3.48927 1.62352e-18)
(2251.97 4.69592 1.74117e-18)
(2249.67 -8.80948 -1.7206e-18)
(2235.78 31.1124 0)
(2251.71 -58.8275 0)
(2245.02 39.39 1.74885e-18)
(2235.6 -47.6017 0)
(2248.54 10.4574 0)
(2250.62 -8.20844 0)
(2254.12 -5.47601 0)
(2253.83 -1.79353 1.66156e-21)
(2254.09 -0.0188237 1.63647e-21)
(2254.22 1.6524 4.26676e-19)
(2254.23 2.09533 -4.13848e-19)
(2254.13 1.28428 2.14193e-19)
(2253.74 0.446765 -2.17374e-19)
(2253.14 -1.33427 0)
(2252.92 -1.30791 0)
(2252.86 1.71171 -1.65002e-21)
(2253.14 1.76325 0)
(2253.65 -0.606605 -1.68742e-21)
(2253.81 -2.28355 8.5976e-19)
(2254.42 -2.54351 -8.32048e-19)
(2254.22 -0.715105 1.7079e-18)
(2253.78 1.1723 -1.68749e-18)
(2254.14 4.83055 1.66041e-21)
(2250.75 6.86524 0)
(2249.91 -11.4453 0)
(2237.19 42.5743 0)
(2250.28 -35.4018 0)
(2241.46 6.91719 0)
(2231.43 -63.1314 9.12869e-19)
(2246.94 12.2472 -8.48277e-19)
(2250.86 -11.6203 0)
(2252.94 -6.39685 8.61414e-19)
(2253.12 -2.30176 -4.31543e-19)
(2253.72 -0.14464 -2.25337e-21)
(2253.95 1.50002 -2.16515e-19)
(2253.96 2.03173 -4.29433e-19)
(2253.93 1.9456 1.63495e-19)
(2253.57 1.40655 1.56113e-21)
(2253.07 -0.856391 2.68953e-19)
(2252.64 -1.15057 -2.13423e-19)
(2252.51 1.48103 3.35772e-21)
(2253.06 1.15029 -4.30036e-19)
(2253.56 -1.19403 4.34632e-19)
(2253.8 -2.94883 1.68848e-21)
(2254.14 -2.63994 -1.62469e-21)
(2253.78 -0.473198 -1.66979e-21)
(2253.14 1.5347 -8.50254e-19)
(2253.15 5.38034 8.5023e-19)
(2251.38 11.3017 0)
(2247.26 -15.0859 0)
(2232.37 65.1305 -1.93291e-18)
(2245.91 -19.158 -1.26227e-19)
(2254.51 3.09075 -4.95432e-20)
(2227.46 -78.935 6.02358e-20)
(2242.7 12.1947 0)
(2248.65 -16.6283 -2.69281e-23)
(2252.52 -8.7576 -2.6239e-23)
(2252.79 -3.83419 0)
(2253.34 -0.82844 0)
(2253.58 0.961919 -8.46354e-19)
(2253.54 1.67286 8.525e-19)
(2253.53 2.05393 0)
(2253.32 1.79978 1.7319e-18)
(2252.78 -0.178626 5.49986e-21)
(2252.37 -0.561369 -1.71724e-18)
(2252.18 1.21038 -1.71651e-21)
(2252.71 0.419469 0)
(2253.28 -1.58063 3.45723e-18)
(2253.62 -3.2568 -3.34675e-21)
(2253.81 -2.27075 -6.67827e-18)
(2253.46 0.550798 3.3986e-18)
(2252.82 3.06614 2.59442e-23)
(2252.6 7.70984 0)
(2248.58 13.6313 3.53199e-18)
(2243.99 -12.4339 -3.31136e-18)
(2228.75 72.7729 3.81611e-18)
(2246.94 2.73508 -3.18352e-18)
(2217.3 -22.651 -3.16219e-19)
(2214.15 -86.9295 -7.50685e-18)
(2234.9 3.47008 8.74125e-22)
(2245.72 -23.3298 2.61587e-23)
(2248.68 -10.838 -8.11073e-22)
(2250.37 -4.89637 0)
(2251.77 -1.21105 -3.35335e-18)
(2252.49 0.913237 3.36622e-18)
(2252.67 1.81661 0)
(2252.66 2.46371 -8.33985e-22)
(2252.69 2.52885 -8.45229e-22)
(2252.3 0.524701 0)
(2251.76 -0.135058 0)
(2251.63 0.783656 -1.66995e-21)
(2252.25 -0.492809 -8.48091e-22)
(2252.8 -2.35738 2.62915e-23)
(2252.93 -3.5844 -8.55493e-22)
(2252.77 -2.18005 -2.55282e-23)
(2252.07 1.0192 -1.70439e-18)
(2250.68 4.03041 -1.33869e-20)
(2249.21 9.53847 1.68955e-18)
(2246.14 19.9728 8.89111e-22)
(2236.43 -4.65645 3.46144e-18)
(2216.19 81.3729 -3.53962e-18)
(2221.67 18.0378 2.50286e-23)
(2108.54 -37.9672 9.42117e-19)
(2167.11 -98.2486 0)
(2215.65 -20.471 -8.31837e-22)
(2234.46 -33.3522 -8.65392e-19)
(2244.85 -20.0558 1.70931e-18)
(2248.01 -10.1034 -1.70381e-18)
(2249.9 -4.10597 7.85265e-21)
(2250.87 -0.754681 8.47028e-19)
(2251.13 0.963854 0)
(2251.19 1.84843 -8.51951e-19)
(2251.28 2.60644 8.61169e-19)
(2251.07 1.59728 0)
(2250.47 0.645355 0)
(2250.37 0.3237 2.10461e-21)
(2251.04 -1.35838 8.40665e-22)
(2251.51 -2.65666 8.59671e-19)
(2251.65 -3.09884 -8.4864e-19)
(2251.24 -0.59963 0)
(2250.25 3.34753 8.59414e-19)
(2248.49 8.37897 -1.70757e-18)
(2245.67 16.8906 8.4608e-19)
(2236 29.3802 -8.39969e-22)
(2218.2 16.7219 0)
(2170.53 93.9292 0)
(2115.02 35.4995 0)
(1858.15 -144.053 -6.66608e-17)
(2119.35 -160.853 8.53477e-17)
(2193.93 -55.9798 0)
(2224.69 -58.0659 -2.97395e-17)
(2236.5 -23.5735 3.0969e-17)
(2242.58 -11.6998 0)
(2245.9 -4.60328 -3.01259e-20)
(2247.4 -0.479809 -1.47404e-17)
(2247.84 1.44522 1.48371e-17)
(2248.03 2.14583 -2.99426e-20)
(2248.24 2.85453 0)
(2248.15 2.44608 -3.75881e-18)
(2247.61 0.984982 5.57725e-18)
(2247.59 -0.331037 -1.90095e-18)
(2248.21 -2.30634 -2.97398e-20)
(2248.6 -3.28732 0)
(2248.65 -2.90368 0)
(2247.89 -0.549197 -2.95958e-17)
(2246.45 4.37145 2.97183e-17)
(2243.31 10.2442 -3.0228e-17)
(2238.17 21.4759 2.95535e-17)
(2226.48 54.388 3.21569e-17)
(2197.96 53.2375 -2.93359e-17)
(2126.65 162.434 -8.36665e-17)
(1878.83 139.489 -1.26862e-17)
(1638.87 -227.455 -9.17918e-17)
(2004.9 -312.978 1.37825e-16)
(2142.6 -116.36 0)
(2198.24 -65.5177 6.90884e-17)
(2224.89 -32.2503 -7.22316e-17)
(2233.37 -17.9734 -3.35111e-17)
(2238.2 -7.75665 3.44002e-17)
(2240.23 -2.63633 -3.36978e-17)
(2240.99 -0.0298172 3.4015e-17)
(2241.33 0.902498 3.27586e-20)
(2241.62 2.40057 0)
(2241.73 3.18861 -2.13373e-18)
(2241.31 1.53723 2.16526e-18)
(2241.36 -0.758456 3.28886e-20)
(2241.84 -2.76231 3.29096e-20)
(2242.07 -3.0198 3.42618e-20)
(2242.02 -1.90251 0)
(2241.01 1.27991 0)
(2239.17 6.66785 -6.92134e-17)
(2234.58 15.7397 6.7489e-17)
(2227.42 27.7365 -7.219e-17)
(2204.83 58.165 1.47648e-16)
(2159.34 100.215 -7.0744e-17)
(2011.97 300.428 -3.88768e-20)
(1688.12 207.627 8.83863e-20)
(1237.36 -567.717 -1.15531e-16)
(1732.68 -571.699 1.18726e-16)
(1930.35 -159.834 2.48275e-16)
(2139.6 -123.943 -9.9577e-17)
(2190.62 -41.23 0)
(2206.91 -14.8615 7.54556e-17)
(2218.21 -5.55367 -7.69194e-17)
(2221.88 -0.121471 0)
(2223.99 1.12762 3.56605e-20)
(2224.71 1.8079 0)
(2225.12 2.81275 0)
(2225.74 3.2977 0)
(2225.23 1.52089 4.7412e-18)
(2225.53 -1.10754 -4.75084e-18)
(2225.74 -3.15586 -4.07222e-20)
(2225.65 -3.52155 -3.53265e-20)
(2225.27 -2.85393 0)
(2223.34 -0.895064 0)
(2220.18 4.99781 0)
(2209.16 12.1654 -7.92917e-17)
(2196.65 35.9816 1.6048e-16)
(2158.41 104.882 -7.48981e-17)
(2029.09 160.908 -1.33408e-16)
(1746.74 584.849 1.01854e-16)
(1267.42 551.775 -6.01956e-20)
(1241.25 -651.444 1.715e-16)
(1157.37 -972.202 0)
(1330.98 -696.32 0)
(1830.18 -210.793 -1.15723e-16)
(2080.62 -85.1916 1.25894e-16)
(2138.98 -58.8432 0)
(2155.3 -27.9828 1.4515e-20)
(2165.44 -15.2281 4.41528e-17)
(2170.31 -6.04904 -4.46608e-17)
(2172.26 -2.47543 0)
(2172.11 0.135458 -1.10266e-17)
(2174.67 2.94913 1.1034e-17)
(2172.19 1.73012 -5.51962e-18)
(2174.09 -1.50502 5.56e-18)
(2173.77 -1.96691 3.9468e-20)
(2173.28 -0.740686 -4.38833e-17)
(2171.98 3.05303 8.84167e-17)
(2167.86 11.1111 9.63026e-19)
(2158.58 24.2665 -4.4161e-17)
(2142.77 54.7798 -9.67822e-17)
(2084.56 61.5575 9.07841e-17)
(1855.57 100.928 8.76794e-20)
(1602.12 517.521 2.77977e-20)
(1109.38 1046.29 1.70752e-16)
(1301.22 618.1 8.01821e-18)
(1302.25 -663.24 0)
(1168.1 -978.31 0)
(1164.71 -759.451 0)
(1048.28 -862.859 0)
(1876.52 -301.185 0)
(1854.82 -18.2296 1.32563e-16)
(1903.06 26.2332 -1.35057e-16)
(1950.63 24.6919 2.05698e-19)
(1963.63 9.15454 -1.19404e-20)
(1981.79 6.73347 2.90974e-17)
(1969.98 5.14892 -2.97695e-17)
(1989.35 1.38862 -3.93284e-19)
(1969.85 -0.22967 -9.30567e-19)
(1982.97 -2.11055 1.11123e-18)
(1979.03 -2.25176 -2.96175e-17)
(1978.39 -4.95172 2.94227e-17)
(1971.99 -9.28312 1.86489e-19)
(1955.69 -16.5131 0)
(1906.54 -23.3396 0)
(1865.18 24.4787 0)
(1856.94 342.61 -2.14551e-16)
(1082.25 815.842 -5.49893e-17)
(1229.29 697.467 1.69198e-16)
(1141.12 978.36 2.07156e-20)
(1342.79 628.592 2.08798e-20)
(1383.94 -647.668 0)
(1248.97 -874.963 4.20165e-20)
(1215.73 -734.398 0)
(1087.14 -821.858 -1.82557e-16)
(1177.84 -671.648 3.52567e-16)
(995.33 -552.851 -2.30744e-16)
(1023.93 -501.805 0)
(1247.75 -247.143 -1.60208e-19)
(1145.41 -127.887 0)
(1273.06 -39.141 0)
(1122.65 -41.6599 -3.00555e-17)
(1278.08 3.32117 3.16996e-17)
(1120.03 6.90434 3.06344e-17)
(1219.61 -15.3053 -3.13385e-17)
(1186.51 10.2596 0)
(1214.33 33.6171 -1.24556e-16)
(1198.33 91.8436 1.2312e-16)
(1248.18 188.843 1.24828e-16)
(1105.73 422.687 -1.14346e-16)
(1030.21 573.027 0)
(1158.77 672.038 0)
(1084.26 802.808 -1.7479e-19)
(1254.3 689.33 -1.7489e-16)
(1257.51 862.001 3.77312e-16)
(1382.54 623.987 -1.73825e-16)
(1455.25 -633.952 -1.77317e-16)
(1342.04 -789.649 1.9351e-16)
(1272.27 -615.909 0)
(1140.03 -616.886 -2.43059e-16)
(1158.27 -524.963 -4.11532e-17)
(916.302 -385.474 3.53266e-16)
(448.641 -84.4782 -2.51821e-16)
(409.664 -85.1192 1.35649e-16)
(173.306 -7.01805 0)
(243.038 -21.0486 0)
(45.1411 3.43497 -4.40549e-20)
(200.866 -14.7459 1.58213e-19)
(19.1284 18.2344 0)
(134.779 -21.0875 0)
(104.379 6.73399 6.66492e-17)
(162.48 -1.06524 -6.78503e-17)
(178.743 2.25679 -1.34243e-16)
(359.392 55.9117 2.74214e-16)
(423.064 65.6423 -6.92049e-18)
(773.385 279.473 -1.34278e-16)
(1133.95 490.194 0)
(1133.59 633.672 0)
(1284.38 596.662 -1.90679e-16)
(1306.86 789.988 2.20413e-16)
(1437.58 624.651 -4.55728e-20)
(1558.11 -547.413 1.70852e-16)
(1477.93 -578.83 -9.70879e-20)
(1442.5 -406.437 1.08721e-16)
(1272.88 -309.618 -1.02903e-16)
(1212.94 -231.346 -5.1e-20)
(959.929 -126.424 1.23664e-19)
(604.209 -48.5235 1.28389e-16)
(559.789 -137.259 -2.00085e-16)
(473.814 -76.1104 6.7725e-17)
(487.892 -96.3843 0)
(466.025 -45.9437 -3.32434e-17)
(487.285 -43.6581 3.25295e-17)
(469.515 -15.8839 0)
(469.937 20.9833 5.88386e-20)
(466.765 31.0685 -3.327e-17)
(465.206 60.3691 3.28393e-17)
(458.103 81.4216 0)
(529.125 112.326 -1.35371e-16)
(568.529 85.8166 1.30522e-16)
(830.962 101.746 1.21748e-16)
(1168.43 174.529 -2.23363e-16)
(1228.51 291.018 1.23426e-16)
(1407.01 415.524 0)
(1462.35 619.221 1.78004e-16)
(1545.68 563.913 -1.14302e-17)
(1690.8 -387.276 -6.62899e-18)
(1577.69 -205.048 9.84341e-17)
(1421.36 -150.359 -4.57113e-17)
(1308.73 -39.3491 -5.73233e-17)
(1311.91 -94.0447 7.9532e-17)
(1122.35 -158.665 -5.76632e-17)
(907.928 -173.443 6.26788e-17)
(887.424 -171.399 -6.3535e-17)
(829.496 -121.07 -1.40801e-19)
(804.735 -110.423 3.21937e-17)
(755.779 -55.1085 1.60514e-17)
(779.791 -43.851 -3.75561e-20)
(732.61 -7.91605 -1.61014e-17)
(761.383 30.4231 -6.23788e-20)
(760.986 48.9944 -7.73422e-20)
(788.32 87.1889 -2.01148e-18)
(827.635 120.241 4.34486e-21)
(893.652 142.895 5.98657e-18)
(912.734 155.339 -3.88836e-18)
(1100.82 163.264 0)
(1266.99 105.511 1.33097e-17)
(1255.23 67.6551 -4.03805e-17)
(1423.72 124.794 5.00453e-17)
(1560.51 228.679 -6.98821e-17)
(1680.43 396.127 6.69344e-17)
(1790.29 -260.034 -1.06239e-19)
(1735.53 56.3253 -1.41367e-19)
(1599.56 98.8598 1.65616e-19)
(1448.9 4.00837 -7.18941e-21)
(1453.37 -62.4078 -1.69956e-19)
(1377.22 -119.524 -1.95858e-19)
(1174.41 -151.79 -7.9746e-21)
(1050.85 -146.283 0)
(975.896 -93.1838 0)
(939.569 -85.9135 6.47052e-17)
(885.188 -47.1704 -6.42264e-17)
(891.218 -35.5085 -8.26402e-21)
(857.579 -11.1685 8.25513e-21)
(875.572 21.0671 -8.29799e-18)
(880.71 37.1319 8.07998e-18)
(911.155 65.5751 0)
(950.163 86.5666 0)
(1015.27 127.36 -6.24851e-17)
(1131.53 168.229 6.03654e-17)
(1337.04 159.714 -1.8853e-19)
(1419.99 114.77 0)
(1407.72 22.0454 0)
(1576.49 -114.347 -1.70873e-19)
(1716.85 -63.3431 -1.46292e-19)
(1779.52 257.748 1.57793e-16)
(1771.31 187.325 -1.71674e-16)
(1696.91 392.392 -2.18468e-16)
(1676.42 349.291 1.4363e-16)
(1603.4 209.951 0)
(1590.98 56.4384 2.23304e-19)
(1542.55 -27.2302 1.06418e-16)
(1397.3 -57.5033 -2.18127e-16)
(1231.86 -76.7575 1.14795e-16)
(1107.84 -50.2573 -1.27173e-16)
(1052.34 -53.8997 1.26509e-16)
(992.828 -29.442 3.22132e-17)
(985.467 -22.5907 -3.99604e-17)
(958.035 -5.84946 -8.07621e-18)
(971.777 16.4626 1.62823e-17)
(982.662 26.7251 0)
(1022.74 46.158 0)
(1084.16 56.9203 1.25142e-16)
(1202.81 76.1385 -2.42236e-16)
(1366.54 84.1202 1.15815e-16)
(1519.51 61.091 2.28342e-19)
(1576.55 -19.8901 1.96387e-16)
(1596.42 -197.009 -1.91347e-17)
(1677.83 -345.221 -4.87861e-16)
(1689.52 -401.939 5.49775e-16)
(1752.91 -255.99 -3.08406e-16)
(1508.56 553.402 1.09115e-19)
(1571.21 798.741 -1.95677e-16)
(1713.05 580.635 1.2629e-16)
(1698.4 369.455 0)
(1680.36 195.659 0)
(1638.49 102.399 0)
(1512.62 66.4842 0)
(1360.72 17.731 0)
(1233.51 7.6261 -5.48203e-17)
(1162.57 -17.25 1.11091e-16)
(1095.59 -8.00865 -8.40963e-17)
(1079.37 -9.04561 3.14975e-17)
(1052.91 -0.873079 -3.52904e-18)
(1067.79 10.4282 1.27272e-20)
(1084.94 11.4538 -5.61544e-17)
(1138.77 19.4237 5.69021e-17)
(1218.61 6.48528 0)
(1345.98 -8.25201 0)
(1502.7 -39.8433 -1.74886e-16)
(1631.67 -78.5941 1.91074e-16)
(1682.01 -172.345 -1.72529e-19)
(1702.53 -366.791 7.08614e-20)
(1713.82 -587.613 -9.3657e-20)
(1587.34 -788.624 -7.09703e-20)
(1480.22 -631.131 0)
(1228.56 839.341 -1.82385e-16)
(1594.91 967.733 1.16623e-16)
(1765.91 737.62 -1.32026e-19)
(1755.88 516.773 1.52484e-16)
(1738.57 333.958 -1.31543e-16)
(1695.65 231.582 0)
(1595.35 178.732 -8.43014e-17)
(1461.24 104.047 8.27577e-17)
(1333.49 67.259 -4.77356e-17)
(1258.89 29.9625 9.69837e-17)
(1196.85 21.2552 -4.83874e-17)
(1174.13 6.15111 1.81431e-19)
(1151.3 3.29123 0)
(1165.79 1.03091 2.46568e-17)
(1190.8 -10.8155 2.38808e-17)
(1247.98 -21.5289 -4.93137e-17)
(1336.35 -50.3481 -9.13806e-17)
(1463.39 -101.514 9.02717e-17)
(1593.26 -164.107 -7.39512e-17)
(1691.06 -224.195 8.24439e-17)
(1739.08 -325.414 8.03952e-20)
(1761.8 -520.771 -7.94166e-20)
(1757.22 -749.488 0)
(1606.9 -959.963 6.59266e-20)
(1212.38 -855.238 0)
(1188.25 794.671 1.44823e-16)
(1628.35 934.809 -1.27801e-16)
(1796.78 805.652 5.1858e-20)
(1773.82 660.135 0)
(1759.29 482.091 0)
(1723 364.279 -7.53224e-21)
(1645.28 283.135 0)
(1535.4 188.299 8.01421e-20)
(1423.91 129.713 0)
(1347.56 70.6752 4.31997e-17)
(1281.79 49.6248 -6.45476e-17)
(1262.92 22.6981 3.22664e-17)
(1241.54 5.31661 -1.08231e-17)
(1256.74 -11.3312 0)
(1279.6 -36.8667 0)
(1340.93 -60.339 4.15531e-17)
(1426.53 -114.089 -1.2051e-16)
(1537.5 -180.42 7.84537e-17)
(1645.69 -266.628 -6.44642e-17)
(1719.26 -359.138 7.2063e-17)
(1765.52 -470.082 0)
(1787.7 -643.631 0)
(1800.07 -804.699 0)
(1642.24 -913.042 -6.96517e-21)
(1169.23 -780.895 -1.63676e-16)
(1286.78 707.345 -2.76777e-20)
(1707.35 830.036 1.07067e-16)
(1783.69 844.396 -9.91772e-17)
(1781.17 732.566 0)
(1772.91 590.533 0)
(1748.54 467.754 7.72505e-21)
(1690.1 360.556 6.56923e-17)
(1594.32 250.697 -6.40594e-17)
(1492.05 181.876 3.31615e-20)
(1426.24 114.362 3.47078e-20)
(1367.77 74.4794 3.53637e-20)
(1343.46 34.9293 -1.01795e-20)
(1323.96 7.44808 -1.01862e-20)
(1339.39 -20.9891 1.92163e-17)
(1366.36 -57.1917 -1.95363e-17)
(1424.43 -97.8775 4.47462e-20)
(1502.79 -161.212 4.27618e-20)
(1602.74 -244.891 0)
(1695.47 -346.305 -5.76051e-17)
(1748.84 -466.267 6.40476e-17)
(1775.2 -582.587 0)
(1794.24 -717.137 -1.0115e-16)
(1793.97 -839.568 1.05187e-16)
(1718.81 -825.211 6.40995e-21)
(1312.41 -710.809 -1.4798e-16)
(1366.15 588.57 3.38831e-20)
(1737.67 766.502 0)
(1770.84 844.925 0)
(1780.59 772.982 -5.47007e-17)
(1779.8 662.833 4.81956e-17)
(1769.99 542.058 0)
(1721.31 424.177 6.04575e-17)
(1636.23 308.112 -5.88608e-17)
(1551.65 228.228 3.42307e-17)
(1494.94 146.902 -3.40281e-17)
(1440.45 100.741 1.79317e-17)
(1422.13 48.9675 -1.77445e-17)
(1404.88 7.40361 0)
(1419.67 -34.4147 -1.76327e-17)
(1444.49 -84.4738 1.79629e-17)
(1497.17 -136.852 -3.66157e-20)
(1563.03 -215.599 -3.5019e-20)
(1647.81 -307.347 5.6527e-20)
(1730.48 -416.624 5.29513e-17)
(1771.03 -543.07 -5.86301e-17)
(1778.84 -661.865 -4.91011e-20)
(1790.72 -762.747 -4.85712e-20)
(1780.44 -842.192 0)
(1742.86 -751.771 -5.10975e-20)
(1354.98 -576.532 3.4381e-20)
(1407.96 536.753 1.2547e-22)
(1750.62 706.756 0)
(1766.8 834.142 8.51313e-23)
(1782.97 794.68 4.50782e-20)
(1788.18 713.913 -8.85618e-23)
(1791.47 598.181 -5.30091e-17)
(1754.43 474.61 4.89971e-17)
(1681.65 352.717 0)
(1603.68 264.851 -6.38573e-20)
(1553.17 179.628 -1.14077e-22)
(1507.77 119.24 -1.16107e-22)
(1488.3 57.6249 6.84151e-20)
(1472.52 8.03438 0)
(1486.98 -44.1474 0)
(1508.79 -102.12 -1.15744e-22)
(1556.88 -164.4 -1.13547e-22)
(1616.24 -248.466 -2.91495e-17)
(1691.64 -351.023 8.25646e-17)
(1762.32 -467.144 -5.50926e-17)
(1794.8 -596.418 0)
(1786.95 -709.14 -4.55768e-17)
(1788.9 -786.792 4.81527e-17)
(1774.56 -833.805 8.45446e-23)
(1760.74 -709.727 4.61967e-20)
(1423.42 -536.794 1.25244e-22)
(1457.6 471.115 7.20043e-18)
(1748.34 678.753 1.04891e-17)
(1767.16 814.906 9.03656e-17)
(1785.75 789.673 -4.35642e-17)
(1800.66 732.135 4.37049e-17)
(1812.08 625.078 -4.87839e-17)
(1774.74 510 4.57677e-17)
(1709.51 392.145 -2.73873e-17)
(1648.84 300.437 2.7058e-17)
(1610.97 205.768 1.19944e-22)
(1569.19 138.298 1.22073e-22)
(1555.06 68.1124 -1.22536e-22)
(1539.95 8.46798 7.42707e-18)
(1553.7 -52.4747 7.30246e-18)
(1575.54 -122.308 -1.51006e-17)
(1614.98 -196.451 1.19839e-22)
(1659.91 -287.412 5.40394e-17)
(1721.44 -388.375 -1.04356e-16)
(1785.48 -500.815 5.11599e-17)
(1816.53 -620.504 0)
(1801.1 -728.935 -8.91211e-23)
(1791.14 -784.299 8.18568e-23)
(1772.41 -814.752 -8.07494e-23)
(1751.48 -679.954 -1.007e-16)
(1457.5 -469.485 1.13721e-16)
(1454.01 465.74 1.0937e-19)
(1733.76 657.484 0)
(1764.75 774.983 0)
(1793.52 774.446 4.15855e-20)
(1816.72 732.37 8.30053e-20)
(1830.45 642.087 0)
(1798.95 532.821 4.77484e-17)
(1747.16 412.908 -4.70127e-17)
(1693.49 316.363 4.82723e-20)
(1656.56 220.03 -5.01742e-20)
(1621.55 147.991 -1.39864e-17)
(1610.11 71.0402 1.38297e-17)
(1598.84 4.72024 3.57095e-18)
(1611.27 -66.5947 -3.48651e-18)
(1625.38 -140.558 1.36227e-17)
(1663.25 -215.803 -4.02683e-17)
(1704.01 -310.372 2.67233e-17)
(1754.08 -419.7 -5.05791e-20)
(1805.8 -535.927 4.19039e-20)
(1834.06 -646.316 -4.15364e-17)
(1813.96 -731.746 1.20648e-18)
(1794.26 -769.886 -1.40646e-18)
(1771.32 -774.049 4.15529e-17)
(1730.18 -657.691 4.61108e-20)
(1452.94 -473.82 5.40256e-20)
(1424.9 464.396 1.06095e-16)
(1727.7 623.256 -9.2077e-17)
(1787.27 719.694 0)
(1807.76 754.776 -4.02781e-17)
(1830.75 722.649 2.22162e-21)
(1845.8 644.957 4.03213e-17)
(1816.1 549.879 4.4678e-17)
(1769.5 438.286 -4.43708e-17)
(1728.45 345.541 -5.07887e-20)
(1704.98 244.953 -2.57033e-17)
(1675.47 162.182 1.22401e-17)
(1662.98 78.1156 1.27098e-17)
(1650.05 6.67601 -5.37343e-20)
(1662.39 -66.0349 0)
(1679.15 -150.06 0)
(1708.74 -236.722 0)
(1737.45 -332.653 5.07345e-20)
(1776.6 -431.93 1.06438e-20)
(1821.89 -539.692 -5.38261e-20)
(1850.92 -639.199 0)
(1830.75 -721.256 3.99276e-20)
(1810.35 -752.767 9.8304e-21)
(1789.94 -721.347 -5.06007e-20)
(1737.26 -632.793 -9.03799e-17)
(1439.09 -476.246 1.04862e-16)
(1412.43 450.721 5.08396e-17)
(1738.13 565.744 -8.5096e-17)
(1805.06 654.93 8.41518e-17)
(1817.44 717.246 -4.16234e-17)
(1844.66 705.004 -3.83138e-17)
(1859.11 639.369 3.8534e-17)
(1832.15 554.873 2.08727e-17)
(1799.56 446.833 -2.10169e-17)
(1767.68 347.237 1.16145e-17)
(1743.28 245.669 -2.34808e-17)
(1714.78 167.97 1.78038e-17)
(1710.49 82.1472 -7.46035e-18)
(1700.88 3.76236 1.4943e-18)
(1710.95 -79.3442 -4.42648e-20)
(1719.31 -161.939 2.35153e-17)
(1749.67 -245.054 -2.40185e-17)
(1777.16 -344.307 4.23913e-20)
(1803.9 -449.981 4.1944e-17)
(1837.52 -553.181 -2.07015e-18)
(1861.35 -638.007 -3.94212e-17)
(1844 -700.433 0)
(1816.86 -714.618 4.24138e-17)
(1807.2 -665.202 -3.82126e-17)
(1739.58 -582.701 -9.17763e-17)
(1415.31 -453.206 -4.26291e-18)
(1432.16 420.066 -5.01711e-17)
(1759.66 494.401 4.54747e-17)
(1823.5 597.038 1.95668e-20)
(1833.39 683.988 -5.54867e-20)
(1863.93 684.826 1.88302e-20)
(1873.44 618.96 3.74348e-17)
(1848.44 544.754 -1.86737e-17)
(1818.89 443.697 -2.02283e-17)
(1794.39 358.46 4.46651e-20)
(1781.85 259.685 -4.58549e-20)
(1761.57 170.639 2.06656e-20)
(1751.22 77.9192 -2.07685e-20)
(1741.15 0.186608 0)
(1751.18 -79.8786 5.02128e-21)
(1763.8 -171.067 -1.09321e-17)
(1785.64 -263.061 1.12983e-17)
(1804.64 -357.772 -2.12082e-17)
(1824.97 -451.723 9.04189e-19)
(1852.58 -545.116 1.97264e-17)
(1876.77 -621.315 -5.45753e-20)
(1863.11 -686.09 -3.77611e-17)
(1838.91 -681.751 3.6318e-17)
(1825.34 -588.52 0)
(1763.4 -508.865 -4.58413e-17)
(1413.22 -427.814 4.92859e-17)
(1446.61 384.331 0)
(1772.04 419.025 -3.77383e-17)
(1832.78 525.371 4.37088e-17)
(1845.74 628.419 1.81255e-20)
(1875.26 656.472 1.75959e-20)
(1884.45 607.447 -3.5925e-17)
(1861.68 542.295 3.74105e-17)
(1842.87 450.852 2.00572e-17)
(1828.36 357.345 6.47164e-19)
(1814.63 256.904 -2.06711e-17)
(1792.39 175.848 -2.19816e-20)
(1790.75 87.0555 2.44153e-20)
(1782.69 2.73031 0)
(1790.1 -85.5915 4.38477e-20)
(1793.53 -171.97 -2.19167e-20)
(1819 -257.677 1.02869e-17)
(1837.15 -355.029 -1.04411e-17)
(1847.08 -453.515 -2.01525e-20)
(1865.32 -541.233 -2.10649e-20)
(1886.39 -606.694 1.80015e-20)
(1873.13 -653.185 -3.74694e-17)
(1848.86 -631.018 -5.39134e-18)
(1844.4 -537.129 3.51982e-17)
(1779.7 -427.014 0)
(1445.92 -389.566 5.27462e-17)
(1466.33 351.572 -9.78439e-17)
(1785.75 363.683 4.26356e-17)
(1831.68 459.692 3.41543e-17)
(1867.46 588.016 -4.02182e-17)
(1890.34 624.171 0)
(1899.42 582.538 -2.16967e-21)
(1878.28 522.449 0)
(1862.23 435.469 -2.40673e-21)
(1848.69 355.616 -2.50122e-21)
(1844.03 262.48 0)
(1830.91 176.288 0)
(1824.09 80.1867 -2.57457e-21)
(1815.83 -0.351715 0)
(1823.39 -84.2235 0)
(1831.7 -177.004 -9.81412e-18)
(1845.2 -267.276 1.00447e-17)
(1859.3 -355.861 -2.51016e-21)
(1868.79 -442.612 -1.89494e-17)
(1882.12 -525.13 1.81463e-17)
(1907.12 -585.669 0)
(1894.63 -629.154 3.65379e-17)
(1874.68 -590.06 -7.35225e-17)
(1850.69 -458.101 7.66961e-17)
(1799.52 -372.79 6.22412e-18)
(1465.22 -352.25 -4.84388e-17)
(1498.33 326.13 1.17756e-20)
(1796.26 318.403 -9.69597e-21)
(1830.59 403.277 0)
(1877.96 504.607 0)
(1900.35 579.173 0)
(1912.63 560.888 8.06796e-21)
(1887.15 509.728 0)
(1880.26 429.453 -8.60397e-21)
(1880.13 348.683 0)
(1873.48 250.758 -8.83043e-21)
(1855 171.574 0)
(1855.67 83.7801 -2.38222e-18)
(1850.09 -0.661407 2.36399e-18)
(1855.76 -90.0502 0)
(1854.97 -175.524 9.43662e-18)
(1874.78 -258.864 -1.88161e-17)
(1885.32 -350.452 9.39079e-18)
(1888.44 -439.281 0)
(1893.04 -514.544 1.77018e-17)
(1915.64 -564.95 -1.66627e-17)
(1903.08 -581.578 3.65551e-17)
(1882.54 -520.296 -3.27168e-17)
(1853.83 -399.108 0)
(1810.13 -307.88 0)
(1473.92 -309.793 0)
(1505.99 306.187 -1.17421e-20)
(1805.01 291.735 9.54836e-21)
(1828.39 328.681 0)
(1897.91 439.685 0)
(1910.47 531.905 0)
(1924.24 531.964 -8.14551e-21)
(1907.48 488.104 0)
(1902.83 411.663 8.89303e-21)
(1896.56 338.364 0)
(1894.62 254.789 -9.11449e-18)
(1888.96 174.398 8.99671e-18)
(1884.01 80.2462 -8.48138e-21)
(1877.24 0.399625 9.32016e-21)
(1882.13 -83.0466 8.47869e-21)
(1887.15 -172.864 0)
(1893.75 -256.751 0)
(1905.5 -338.158 9.15128e-21)
(1908.1 -415.475 -1.78026e-17)
(1913.07 -490.149 1.68682e-17)
(1933.6 -539.791 0)
(1917.18 -544.02 7.99424e-21)
(1903.39 -466.623 0)
(1838.52 -330.853 0)
(1819.19 -272.132 0)
(1493.76 -279.779 0)
(1518.65 279.043 -4.42407e-17)
(1815.5 270.383 3.9458e-17)
(1843.96 284.961 0)
(1900.93 344.811 -1.72581e-20)
(1921.43 470.766 0)
(1936.1 499.563 -1.53676e-17)
(1917.44 466.639 3.34869e-17)
(1915.85 401.247 -1.72022e-17)
(1923.52 332.565 -8.60981e-18)
(1921.12 240.725 8.64864e-18)
(1905.75 166.18 4.45304e-21)
(1909.37 81.8747 1.12839e-18)
(1905.94 0.440282 -1.0849e-18)
(1910.85 -86.392 8.60875e-18)
(1905.47 -169.505 -8.72916e-18)
(1919.48 -246.546 0)
(1925.44 -330.992 -1.62811e-20)
(1925.02 -410.47 0)
(1922.75 -472.979 0)
(1940.8 -505.519 -1.72926e-17)
(1925.07 -479.239 1.52258e-17)
(1907.01 -357.776 0)
(1850.83 -278.557 3.76185e-17)
(1817.66 -247.944 1.86726e-18)
(1509.74 -261.14 -9.20381e-17)
(1534.95 254.406 4.48255e-17)
(1823.86 243.287 1.8279e-20)
(1850.02 233.872 3.25694e-17)
(1904.23 288.069 -2.34174e-17)
(1925.17 419.827 -1.85166e-17)
(1940.19 454.718 0)
(1932.75 442.264 8.36631e-21)
(1941.02 379.355 1.62878e-17)
(1939.61 313.525 -1.68258e-17)
(1936.59 237.578 0)
(1935.63 163.725 0)
(1932.73 73.7233 -2.60571e-20)
(1927.64 -2.34498 3.25406e-20)
(1929.69 -81.5661 1.70239e-20)
(1933.68 -164.039 4.16396e-18)
(1935.3 -242.658 -4.17025e-18)
(1945.16 -316.981 8.94736e-21)
(1945.32 -384.937 1.67938e-17)
(1939.79 -446.007 -3.26723e-17)
(1952.47 -465.194 1.4916e-17)
(1934.51 -427.934 -1.55737e-20)
(1908.44 -296.612 0)
(1853.3 -226.115 1.77532e-20)
(1823.7 -232.416 3.81958e-17)
(1523.77 -246.073 -8.92032e-17)
(1547.52 231.175 -4.38792e-17)
(1827.07 225.842 -3.63908e-17)
(1855.57 204.614 3.59246e-17)
(1886.12 198.978 1.49605e-17)
(1932.16 339.534 -1.91729e-17)
(1946.98 407.385 0)
(1942.88 408.416 4.03774e-21)
(1949.38 364.475 -1.19856e-20)
(1959.52 310.967 8.01906e-18)
(1961.86 227.005 -1.6108e-17)
(1949.23 157.286 8.14197e-18)
(1954.27 78.7062 2.01175e-18)
(1951.96 2.9662 -1.88545e-18)
(1956.7 -79.0405 1.86601e-18)
(1948.6 -157.271 -2.0289e-18)
(1958 -228.512 0)
(1960.83 -306.697 1.19515e-20)
(1958.64 -371.77 -3.83876e-21)
(1948.33 -414.92 -1.69821e-17)
(1951.58 -415.879 1.46501e-17)
(1939.95 -351.193 0)
(1887.91 -202.215 0)
(1858.58 -189.011 -4.31448e-21)
(1826.29 -217.261 -3.76898e-17)
(1534.84 -231.253 -1.17946e-18)
(1563.05 223.17 -2.06898e-17)
(1838.85 212.802 1.85589e-17)
(1861.18 181.968 4.31847e-21)
(1889.93 141.002 0)
(1931.07 255.435 1.45031e-17)
(1948.43 343.224 -1.75474e-17)
(1953.58 376.231 3.82145e-21)
(1971.64 341.942 3.88664e-21)
(1978.05 288.535 1.4925e-20)
(1972.71 219.392 -1.95061e-18)
(1975.25 153.007 9.82277e-19)
(1973.26 69.5434 1.91047e-18)
(1969.76 -1.63752 -9.78037e-19)
(1970.75 -75.2944 3.92425e-18)
(1973.15 -150.233 -3.87676e-18)
(1972.67 -222.122 0)
(1979.58 -289.193 1.09276e-20)
(1975.67 -343.789 -1.62575e-17)
(1959.24 -377.105 1.48435e-17)
(1954.39 -355.579 3.76372e-21)
(1933.6 -260.608 0)
(1882.54 -139.306 0)
(1857.72 -167.429 4.33341e-21)
(1837.68 -206.451 -3.69539e-17)
(1544.66 -221.283 4.20942e-17)
(1586.09 197.878 2.07102e-20)
(1850.62 190.247 0)
(1876.05 163.647 -8.13715e-21)
(1893.22 72.5181 -1.51052e-17)
(1919.51 175.396 1.83124e-17)
(1948.04 295.097 -1.43174e-17)
(1953.06 323.898 1.70744e-17)
(1976.92 309.749 -7.52535e-18)
(1987.32 277.808 7.84942e-18)
(1995.23 206.754 -3.74147e-18)
(1985.28 144.226 3.84171e-18)
(1991.06 71.5144 -1.85857e-18)
(1989.6 1.54943 2.1267e-18)
(1993.85 -74.0708 -2.50109e-19)
(1985.85 -145.857 3.82581e-18)
(1992.03 -211.184 -7.56038e-18)
(1990.02 -277.847 -4.08821e-18)
(1983.87 -323.314 7.40687e-18)
(1960.8 -331.583 1.50325e-20)
(1957.04 -290.638 -7.67204e-21)
(1925.4 -171.968 0)
(1885.44 -68.1999 0)
(1869.3 -150.928 0)
(1838.8 -193.538 -1.83211e-17)
(1556.71 -200.302 2.0445e-17)
(1589.53 177.091 -2.5091e-21)
(1848.7 168.033 0)
(1887.14 152.452 1.03978e-20)
(1896.05 55.866 -8.12864e-21)
(1886.87 103.753 -7.67263e-21)
(1941.98 197.931 0)
(1957.01 278.038 -7.545e-21)
(1989.32 285.625 7.25819e-18)
(2005.84 254.736 -7.72996e-18)
(2001.64 196.53 0)
(2006.1 139.547 1.75258e-21)
(2006.22 65.8623 0)
(2005.31 -0.0974698 0)
(2005.79 -68.7523 1.85036e-18)
(2005.9 -136.547 -1.8381e-18)
(2002.83 -197.128 -7.42371e-21)
(2005.81 -251.23 -1.78737e-21)
(1991.01 -283.308 7.37868e-21)
(1963.37 -278.92 -8.56202e-18)
(1948.09 -215.278 7.08445e-18)
(1884.94 -97.212 -1.7596e-17)
(1887.86 -43.5248 3.26775e-17)
(1882.2 -140.756 -1.65396e-17)
(1848.38 -171.497 1.80305e-17)