/*--------------------------------*- C++ -*----------------------------------*\
| =========                 |                                                 |
| \\      /  F ield         | OpenFOAM: The Open Source CFD Toolbox           |
|  \\    /   O peration     | Version:  2112                                  |
|   \\  /    A nd           | Website:  www.openfoam.com                      |
|    \\/     M anipulation  |                                                 |
\*---------------------------------------------------------------------------*/
FoamFile
{
    version     2.0;
    format      ascii;
    arch        "LSB;label=32;scalar=64";
    class       volScalarField;
    location    "0.00846";
    object      epsilon;
}
// * * * * * * * * * * * * * * * * * * * * * * * * * * * * * * * * * * * * * //

dimensions      [0 2 -3 0 0 0 0];

internalField   nonuniform List<scalar> 
13875
(
1.16005e+06
2.94629e+07
3.28261e+07
3.28478e+07
3.29047e+07
3.28387e+07
3.29034e+07
3.29454e+07
3.28798e+07
3.2876e+07
3.29215e+07
3.29185e+07
3.28758e+07
3.28437e+07
3.28607e+07
3.29103e+07
3.29482e+07
3.29135e+07
3.28935e+07
3.28606e+07
3.28997e+07
3.28302e+07
3.2805e+07
2.94792e+07
1.17788e+06
1.31392e+06
2.27478e+07
2.53575e+07
2.52453e+07
2.52795e+07
2.52176e+07
2.52383e+07
2.52766e+07
2.52349e+07
2.52276e+07
2.52434e+07
2.52523e+07
2.52137e+07
2.51935e+07
2.52003e+07
2.52501e+07
2.5246e+07
2.52363e+07
2.52253e+07
2.52289e+07
2.52698e+07
2.52196e+07
2.53281e+07
2.27496e+07
1.34242e+06
1.57303e+06
1.97067e+07
2.18317e+07
2.1632e+07
2.16988e+07
2.16398e+07
2.15672e+07
2.15669e+07
2.15307e+07
2.1529e+07
2.15336e+07
2.1547e+07
2.16104e+07
2.16024e+07
2.15968e+07
2.15472e+07
2.15318e+07
2.15298e+07
2.15487e+07
2.16407e+07
2.16833e+07
2.16018e+07
2.17893e+07
1.96845e+07
1.58506e+06
1.81369e+06
1.73851e+07
1.90394e+07
1.88833e+07
1.89663e+07
1.89151e+07
1.88283e+07
1.88183e+07
1.87817e+07
1.8777e+07
1.87841e+07
1.87878e+07
1.8887e+07
1.88806e+07
1.88762e+07
1.87874e+07
1.8794e+07
1.87798e+07
1.88066e+07
1.89149e+07
1.8952e+07
1.8858e+07
1.90136e+07
1.7362e+07
1.82103e+06
2.02276e+06
1.54521e+07
1.6773e+07
1.66223e+07
1.67037e+07
1.66587e+07
1.65723e+07
1.65647e+07
1.6535e+07
1.65301e+07
1.6538e+07
1.65329e+07
1.66285e+07
1.66276e+07
1.66194e+07
1.65334e+07
1.65474e+07
1.65306e+07
1.65526e+07
1.66546e+07
1.66901e+07
1.66052e+07
1.67433e+07
1.54296e+07
2.03706e+06
2.20649e+06
1.37119e+07
1.49287e+07
1.47384e+07
1.48323e+07
1.47786e+07
1.46843e+07
1.46759e+07
1.46536e+07
1.46499e+07
1.46585e+07
1.46465e+07
1.4739e+07
1.47427e+07
1.47316e+07
1.46465e+07
1.46676e+07
1.46475e+07
1.46668e+07
1.47747e+07
1.48193e+07
1.47293e+07
1.49027e+07
1.38496e+07
2.2231e+06
2.42266e+06
1.22512e+07
1.34782e+07
1.32061e+07
1.32713e+07
1.32046e+07
1.31019e+07
1.30867e+07
1.30668e+07
1.30648e+07
1.30739e+07
1.30556e+07
1.31457e+07
1.31518e+07
1.31375e+07
1.30548e+07
1.30835e+07
1.30614e+07
1.30854e+07
1.32006e+07
1.3257e+07
1.32014e+07
1.34209e+07
1.19532e+07
2.42927e+06
2.6662e+06
1.06162e+07
1.23133e+07
1.19739e+07
1.20021e+07
1.18895e+07
1.17692e+07
1.17397e+07
1.1721e+07
1.17206e+07
1.17324e+07
1.17066e+07
1.17949e+07
1.18043e+07
1.17875e+07
1.17047e+07
1.17427e+07
1.17205e+07
1.17514e+07
1.18844e+07
1.19813e+07
1.19655e+07
1.2264e+07
1.05446e+07
2.69424e+06
3.49679e+06
1.02136e+07
1.14836e+07
1.1029e+07
1.09434e+07
1.07889e+07
1.06452e+07
1.05985e+07
1.05788e+07
1.05828e+07
1.05982e+07
1.05661e+07
1.06516e+07
1.06642e+07
1.06464e+07
1.05653e+07
1.06083e+07
1.05864e+07
1.06251e+07
1.07804e+07
1.09227e+07
1.10214e+07
1.14745e+07
1.03373e+07
3.57392e+06
6.83671e+06
1.22207e+07
1.11977e+07
1.04309e+07
1.01712e+07
9.93001e+06
9.76713e+06
9.71002e+06
9.68848e+06
9.69513e+06
9.70873e+06
9.67495e+06
9.75383e+06
9.76871e+06
9.75189e+06
9.68221e+06
9.71895e+06
9.70797e+06
9.7455e+06
9.91552e+06
1.01436e+07
1.03602e+07
1.11617e+07
1.21297e+07
6.89342e+06
1.49166e+07
1.86861e+07
1.20498e+07
1.03268e+07
9.62054e+06
9.31591e+06
9.12856e+06
9.04475e+06
9.02e+06
9.02518e+06
9.03373e+06
9.00109e+06
9.07e+06
9.08695e+06
9.07679e+06
9.02754e+06
9.05483e+06
9.06071e+06
9.12392e+06
9.28558e+06
9.6093e+06
1.0268e+07
1.18781e+07
1.79375e+07
1.49994e+07
2.54743e+07
6.8856e+07
1.8156e+07
1.07057e+07
9.70623e+06
9.00328e+06
8.69666e+06
8.57966e+06
8.54034e+06
8.53792e+06
8.53779e+06
8.50968e+06
8.56337e+06
8.58252e+06
8.58247e+06
8.55506e+06
8.57884e+06
8.60909e+06
8.7021e+06
9.01758e+06
9.65514e+06
1.05547e+07
1.75772e+07
6.72461e+07
2.50357e+07
2.6594e+07
7.6196e+07
8.68342e+07
2.39273e+07
1.09153e+07
9.0882e+06
8.70944e+06
8.43123e+06
8.33251e+06
8.29759e+06
8.27784e+06
8.24923e+06
8.28516e+06
8.30614e+06
8.31986e+06
8.32357e+06
8.37808e+06
8.49e+06
8.76147e+06
9.15365e+06
1.12986e+07
2.26177e+07
8.08102e+07
7.64854e+07
2.60849e+07
2.63636e+07
5.52884e+07
7.98493e+07
1.04557e+08
5.74332e+07
1.30876e+07
9.62447e+06
8.80673e+06
8.57832e+06
8.56175e+06
8.54372e+06
8.51803e+06
8.54651e+06
8.56708e+06
8.58868e+06
8.61056e+06
8.65119e+06
8.88446e+06
9.94784e+06
1.44964e+07
6.57921e+07
9.10192e+07
7.52712e+07
5.44796e+07
2.5759e+07
2.53446e+07
4.26251e+07
5.81449e+07
7.25141e+07
7.46894e+07
7.50078e+07
2.38133e+07
1.31053e+07
1.11138e+07
1.04006e+07
1.0104e+07
9.98945e+06
9.98617e+06
1.00182e+07
1.01038e+07
1.03404e+07
1.10299e+07
1.31821e+07
2.62011e+07
7.7489e+07
7.5103e+07
6.60317e+07
5.65636e+07
4.22206e+07
2.64188e+07
2.47175e+07
3.35713e+07
4.33661e+07
5.42518e+07
5.89534e+07
6.7786e+07
5.12665e+07
4.52255e+07
4.15467e+07
3.27034e+07
3.45478e+07
3.56592e+07
3.6447e+07
3.61772e+07
3.50478e+07
3.30706e+07
4.0186e+07
4.90164e+07
5.20025e+07
6.86574e+07
5.82306e+07
5.05042e+07
4.25941e+07
3.3404e+07
2.57977e+07
2.00547e+07
2.52686e+07
3.22643e+07
4.18919e+07
4.92913e+07
6.18354e+07
7.03836e+07
7.05475e+07
5.76793e+07
4.96809e+07
5.21656e+07
5.49069e+07
5.65294e+07
5.58924e+07
5.30864e+07
5.33817e+07
5.79098e+07
7.04724e+07
7.05808e+07
6.13274e+07
4.71861e+07
3.90442e+07
3.08941e+07
2.45107e+07
1.99411e+07
1.48263e+07
1.9115e+07
2.64068e+07
3.72368e+07
4.53902e+07
5.30106e+07
6.31812e+07
6.87507e+07
5.16514e+07
3.83494e+07
3.52757e+07
3.55357e+07
3.62159e+07
3.58825e+07
3.58422e+07
4.15895e+07
5.18299e+07
6.46571e+07
6.25746e+07
5.3984e+07
4.52224e+07
3.59926e+07
2.53462e+07
1.85566e+07
1.45188e+07
1.2212e+07
1.66734e+07
2.38415e+07
3.7101e+07
4.79461e+07
4.63171e+07
4.89461e+07
5.47665e+07
4.5684e+07
3.42706e+07
2.87965e+07
2.72223e+07
2.70499e+07
2.75188e+07
2.95041e+07
3.55648e+07
4.39797e+07
5.12109e+07
4.87499e+07
4.7856e+07
5.03538e+07
3.68774e+07
2.35128e+07
1.64239e+07
1.20524e+07
1.15966e+07
1.81274e+07
2.47876e+07
3.69351e+07
4.36993e+07
3.93259e+07
3.85437e+07
4.22751e+07
3.89742e+07
3.14524e+07
2.55732e+07
2.23798e+07
2.14039e+07
2.28877e+07
2.66249e+07
3.21601e+07
3.69998e+07
3.96777e+07
3.85617e+07
4.07057e+07
4.50323e+07
3.62049e+07
2.46846e+07
1.82663e+07
1.16938e+07
3.01789e+07
5.84126e+07
4.41807e+07
3.21578e+07
3.47625e+07
3.16919e+07
3.08652e+07
3.38279e+07
3.29792e+07
2.78031e+07
2.22225e+07
1.84386e+07
1.72333e+07
1.92261e+07
2.35259e+07
2.83343e+07
3.11929e+07
3.19354e+07
3.10047e+07
3.27783e+07
3.56698e+07
3.30337e+07
4.94971e+07
6.4948e+07
3.86895e+07
9.36528e+07
3.00415e+08
5.9803e+07
2.60396e+07
2.7494e+07
2.57471e+07
2.52799e+07
2.7737e+07
2.77741e+07
2.39976e+07
1.90026e+07
1.52293e+07
1.40081e+07
1.60279e+07
2.01994e+07
2.43211e+07
2.61818e+07
2.63392e+07
2.53672e+07
2.65261e+07
2.80616e+07
2.69597e+07
6.66959e+07
2.96219e+08
1.07982e+08
1.07938e+08
2.23162e+08
4.93281e+07
2.16946e+07
2.22694e+07
2.1275e+07
2.09471e+07
2.30379e+07
2.33211e+07
2.03902e+07
1.60519e+07
1.26343e+07
1.14761e+07
1.3266e+07
1.70028e+07
2.05609e+07
2.1899e+07
2.19348e+07
2.09901e+07
2.17184e+07
2.25715e+07
2.23548e+07
5.07536e+07
2.20679e+08
1.05988e+08
9.1561e+07
2.24751e+08
3.86662e+07
1.85889e+07
1.83062e+07
1.76534e+07
1.74753e+07
1.91848e+07
1.95466e+07
1.71493e+07
1.33957e+07
1.04581e+07
9.50401e+06
1.10534e+07
1.42973e+07
1.73689e+07
1.83744e+07
1.82887e+07
1.75559e+07
1.80312e+07
1.86165e+07
1.92041e+07
4.05537e+07
2.39097e+08
9.25451e+07
8.33872e+07
2.16037e+08
3.23695e+07
1.62326e+07
1.5438e+07
1.4848e+07
1.47892e+07
1.61209e+07
1.64494e+07
1.4458e+07
1.12685e+07
8.76512e+06
7.96657e+06
9.27907e+06
1.20797e+07
1.47003e+07
1.54965e+07
1.53681e+07
1.48315e+07
1.51642e+07
1.57738e+07
1.68096e+07
3.45184e+07
2.36995e+08
8.56218e+07
7.70294e+07
2.09673e+08
2.79802e+07
1.42014e+07
1.32461e+07
1.26243e+07
1.26698e+07
1.36658e+07
1.39033e+07
1.22388e+07
9.55701e+06
7.42742e+06
6.7479e+06
7.84998e+06
1.02223e+07
1.24394e+07
1.31127e+07
1.29889e+07
1.26057e+07
1.2825e+07
1.35473e+07
1.46392e+07
2.97299e+07
2.2804e+08
8.00728e+07
7.32175e+07
1.86268e+08
2.37702e+07
1.24639e+07
1.15379e+07
1.08669e+07
1.09463e+07
1.16553e+07
1.17606e+07
1.03376e+07
8.1157e+06
6.34659e+06
5.77983e+06
6.72645e+06
8.74923e+06
1.06092e+07
1.12065e+07
1.11137e+07
1.08458e+07
1.10249e+07
1.18581e+07
1.29104e+07
2.57843e+07
2.05097e+08
7.68883e+07
6.92572e+07
1.69742e+08
2.09928e+07
1.10826e+07
1.01925e+07
9.49646e+06
9.55726e+06
1.00481e+07
1.00501e+07
8.82811e+06
6.97698e+06
5.48389e+06
4.99624e+06
5.80031e+06
7.50584e+06
9.07227e+06
9.62189e+06
9.57771e+06
9.41439e+06
9.60228e+06
1.04521e+07
1.14534e+07
2.28763e+07
1.89777e+08
7.211e+07
6.40427e+07
1.59629e+08
1.89943e+07
9.93628e+06
9.08663e+06
8.43841e+06
8.42224e+06
8.7303e+06
8.64809e+06
7.59096e+06
6.04965e+06
4.7847e+06
4.35805e+06
5.0387e+06
6.4675e+06
7.7748e+06
8.30257e+06
8.31656e+06
8.24025e+06
8.45764e+06
9.26473e+06
1.02322e+07
2.02025e+07
1.65383e+08
6.80564e+07
5.94196e+07
1.42149e+08
1.73067e+07
8.99568e+06
8.11905e+06
7.5485e+06
7.48555e+06
7.62171e+06
7.45116e+06
6.52612e+06
5.24867e+06
4.19386e+06
3.83158e+06
4.42758e+06
5.65258e+06
6.75578e+06
7.23929e+06
7.2969e+06
7.30451e+06
7.53931e+06
8.25837e+06
9.255e+06
1.84712e+07
1.49926e+08
6.39774e+07
5.51801e+07
1.23177e+08
1.59312e+07
8.25916e+06
7.30463e+06
6.79681e+06
6.70876e+06
6.72101e+06
6.49427e+06
5.68184e+06
4.61312e+06
3.71436e+06
3.39583e+06
3.90803e+06
4.94556e+06
5.87091e+06
6.33669e+06
6.44811e+06
6.52857e+06
6.7574e+06
7.3716e+06
8.44967e+06
1.67369e+07
1.28855e+08
5.95661e+07
5.14701e+07
1.10286e+08
1.48931e+07
7.69614e+06
6.60855e+06
6.14197e+06
6.04465e+06
5.97671e+06
5.71346e+06
4.99556e+06
4.08816e+06
3.31286e+06
3.03121e+06
3.47119e+06
4.36142e+06
5.15453e+06
5.59107e+06
5.74177e+06
5.8674e+06
6.07946e+06
6.63049e+06
7.81699e+06
1.53721e+07
1.13076e+08
5.54106e+07
4.79991e+07
9.43538e+07
1.37954e+07
7.25106e+06
6.0255e+06
5.58364e+06
5.4557e+06
5.33505e+06
5.03551e+06
4.39747e+06
3.6311e+06
2.96923e+06
2.72502e+06
3.11438e+06
3.88683e+06
4.56422e+06
4.9756e+06
5.15552e+06
5.29425e+06
5.50948e+06
6.02597e+06
7.32683e+06
1.43586e+07
1.00366e+08
5.15772e+07
4.5079e+07
8.2079e+07
1.27881e+07
6.90924e+06
5.56235e+06
5.10705e+06
4.93499e+06
4.79611e+06
4.48449e+06
3.91609e+06
3.25843e+06
2.68048e+06
2.4637e+06
2.80121e+06
3.47321e+06
4.06127e+06
4.44508e+06
4.64828e+06
4.78875e+06
5.01694e+06
5.53456e+06
6.92532e+06
1.33695e+07
8.62005e+07
4.80065e+07
4.24382e+07
7.30028e+07
1.17922e+07
6.60736e+06
5.23522e+06
4.6907e+06
4.49132e+06
4.33217e+06
4.01994e+06
3.50841e+06
2.94142e+06
2.43437e+06
2.24193e+06
2.53733e+06
3.12274e+06
3.63475e+06
3.995e+06
4.20635e+06
4.3563e+06
4.60695e+06
5.17281e+06
6.61057e+06
1.22559e+07
7.50878e+07
4.50306e+07
3.97357e+07
6.4538e+07
1.08611e+07
6.3421e+06
4.98876e+06
4.33708e+06
4.09826e+06
3.91554e+06
3.61458e+06
3.15595e+06
2.66163e+06
2.218e+06
2.04928e+06
2.31245e+06
2.83463e+06
3.28523e+06
3.61428e+06
3.82001e+06
3.98654e+06
4.25438e+06
4.91523e+06
6.34249e+06
1.1327e+07
6.74232e+07
4.24212e+07
3.76682e+07
5.8295e+07
1.00731e+07
6.21243e+06
4.81301e+06
4.04821e+06
3.76885e+06
3.56071e+06
3.26962e+06
2.86076e+06
2.42779e+06
2.03439e+06
1.88342e+06
2.11466e+06
2.57571e+06
2.97234e+06
3.27684e+06
3.48063e+06
3.66112e+06
3.95692e+06
4.71808e+06
6.15476e+06
1.04127e+07
6.04583e+07
3.98554e+07
3.56441e+07
5.41612e+07
9.35376e+06
6.06171e+06
4.69086e+06
3.83645e+06
3.4774e+06
3.25207e+06
2.97289e+06
2.60814e+06
2.22599e+06
1.87364e+06
1.73817e+06
1.94207e+06
2.35457e+06
2.70636e+06
2.9821e+06
3.18767e+06
3.37717e+06
3.73856e+06
4.5922e+06
6.04296e+06
9.60574e+06
5.60923e+07
3.76974e+07
3.34136e+07
4.93264e+07
8.57352e+06
5.76864e+06
4.63936e+06
3.68178e+06
3.23395e+06
2.98454e+06
2.70965e+06
2.38125e+06
2.04375e+06
1.73136e+06
1.61162e+06
1.79565e+06
2.16612e+06
2.47782e+06
2.73241e+06
2.93664e+06
3.13976e+06
3.57585e+06
4.54117e+06
5.84935e+06
8.91209e+06
5.28392e+07
3.56127e+07
3.1621e+07
4.58899e+07
7.89144e+06
5.45542e+06
4.66193e+06
3.57683e+06
3.04345e+06
2.75864e+06
2.48799e+06
2.18988e+06
1.8887e+06
1.60659e+06
1.49893e+06
1.66207e+06
1.99596e+06
2.2748e+06
2.50872e+06
2.72094e+06
2.95552e+06
3.4657e+06
4.51289e+06
5.50219e+06
8.20887e+06
4.88757e+07
3.33975e+07
3.01791e+07
4.30511e+07
7.47927e+06
5.15013e+06
4.70905e+06
3.5263e+06
2.90114e+06
2.57582e+06
2.29861e+06
2.02243e+06
1.75136e+06
1.49617e+06
1.39957e+06
1.54557e+06
1.84542e+06
2.09728e+06
2.32022e+06
2.54287e+06
2.82186e+06
3.39755e+06
4.63782e+06
5.19391e+06
7.59032e+06
4.53242e+07
3.16246e+07
2.88012e+07
4.03543e+07
6.95552e+06
4.79096e+06
4.58092e+06
3.5164e+06
2.78941e+06
2.43543e+06
2.13743e+06
1.87376e+06
1.62682e+06
1.39605e+06
1.31005e+06
1.44242e+06
1.71775e+06
1.94687e+06
2.16234e+06
2.40413e+06
2.71251e+06
3.4009e+06
4.62697e+06
4.90124e+06
7.52499e+06
4.21801e+07
3.0307e+07
2.76692e+07
3.80226e+07
6.59432e+06
4.44723e+06
4.34585e+06
3.61862e+06
2.71956e+06
2.32681e+06
2.00961e+06
1.74777e+06
1.51908e+06
1.30824e+06
1.23025e+06
1.34901e+06
1.59947e+06
1.81209e+06
2.02957e+06
2.29801e+06
2.63745e+06
3.45633e+06
4.40606e+06
4.53414e+06
7.01294e+06
3.96993e+07
2.90722e+07
2.67361e+07
3.57531e+07
6.75959e+06
4.15388e+06
4.06724e+06
3.73776e+06
2.70674e+06
2.23686e+06
1.91268e+06
1.64364e+06
1.42548e+06
1.22918e+06
1.15789e+06
1.265e+06
1.49633e+06
1.69757e+06
1.9246e+06
2.21398e+06
2.62492e+06
3.65725e+06
4.1392e+06
4.20686e+06
6.83525e+06
3.75715e+07
2.79265e+07
2.58039e+07
3.38621e+07
6.36095e+06
3.86374e+06
3.76913e+06
3.68311e+06
2.78533e+06
2.17576e+06
1.83036e+06
1.5595e+06
1.3433e+06
1.15884e+06
1.09366e+06
1.19239e+06
1.40978e+06
1.60751e+06
1.84355e+06
2.15689e+06
2.72473e+06
3.69897e+06
3.85431e+06
3.97489e+06
7.1094e+06
3.53499e+07
2.69817e+07
2.49768e+07
3.19325e+07
6.43573e+06
3.6555e+06
3.48416e+06
3.47087e+06
3.00896e+06
2.17446e+06
1.76844e+06
1.4971e+06
1.28093e+06
1.10008e+06
1.03776e+06
1.12947e+06
1.33989e+06
1.5386e+06
1.77681e+06
2.14395e+06
2.9292e+06
3.50222e+06
3.5701e+06
3.74347e+06
6.98737e+06
3.32665e+07
2.60874e+07
2.4183e+07
3.02067e+07
6.56873e+06
3.51642e+06
3.24112e+06
3.2468e+06
3.0705e+06
2.31089e+06
1.72719e+06
1.44144e+06
1.23262e+06
1.05521e+06
989933
1.08104e+06
1.28647e+06
1.48157e+06
1.72807e+06
2.25387e+06
3.04459e+06
3.281e+06
3.31229e+06
3.57444e+06
6.85342e+06
3.13358e+07
2.52247e+07
2.30551e+07
2.84291e+07
6.39722e+06
3.36729e+06
3.03111e+06
3.02044e+06
2.90644e+06
2.5397e+06
1.75166e+06
1.39499e+06
1.19038e+06
1.0193e+06
953358
1.04358e+06
1.24274e+06
1.43471e+06
1.74779e+06
2.48802e+06
2.92466e+06
3.05061e+06
3.09821e+06
3.4782e+06
6.89384e+06
2.93389e+07
2.40302e+07
2.1712e+07
2.64278e+07
6.29421e+06
3.26899e+06
2.85626e+06
2.80047e+06
2.73441e+06
2.64329e+06
1.89849e+06
1.37443e+06
1.15564e+06
989265
926079
1.01203e+06
1.20368e+06
1.407e+06
1.86923e+06
2.65055e+06
2.75631e+06
2.82138e+06
2.90544e+06
3.3593e+06
6.63628e+06
2.73103e+07
2.2607e+07
1.88445e+07
2.35186e+07
6.12385e+06
3.18446e+06
2.70688e+06
2.61305e+06
2.55906e+06
2.51891e+06
2.15063e+06
1.43775e+06
1.13529e+06
962311
901359
982696
1.17715e+06
1.44676e+06
2.12466e+06
2.57321e+06
2.58436e+06
2.62363e+06
2.7357e+06
3.23893e+06
6.33966e+06
2.43758e+07
1.96653e+07
4.16788e+06
2.71341e+06
1.81925e+06
1.45746e+06
1.27418e+06
1.16963e+06
1.06461e+06
931384
778591
654152
537247
421672
321973
249543
203466
176562
159842
149611
143322
138127
133111
128127
123281
118445
113647
108669
103486
98107.7
99580.3
159656
4.70184e+06
2.83065e+06
1.92858e+06
1.58234e+06
1.42279e+06
1.31679e+06
1.20787e+06
1.04071e+06
848663
693371
554987
427890
323501
248995
201877
174242
157192
146609
139790
134398
129563
124616
119734
114917
110400
105398
100207
95155.4
97304.7
157083
4.92071e+06
2.87808e+06
2.04054e+06
1.72856e+06
1.59822e+06
1.49129e+06
1.37148e+06
1.16291e+06
944779
761864
597796
454691
339836
258880
206646
175446
156429
144656
136797
131197
126289
121452
116595
112250
107829
102491
97349.5
92651.7
95493.3
156217
5.36391e+06
3.09054e+06
2.27187e+06
1.95156e+06
1.8278e+06
1.71334e+06
1.56606e+06
1.31804e+06
1.06372e+06
851235
661139
497841
367880
275712
216455
179701
157304
144056
135263
128750
123437
118468
113927
109705
105245
99760.4
94619
90252.3
93929.1
154756
5.98384e+06
3.4169e+06
2.57403e+06
2.23597e+06
2.10831e+06
1.96993e+06
1.78731e+06
1.49807e+06
1.21134e+06
965942
745606
558035
408238
300684
231280
187268
160813
144718
134219
126994
121262
116035
111495
107086
102527
97256.3
92085.2
87992.5
92227.2
153373
6.69398e+06
3.83029e+06
2.94085e+06
2.57292e+06
2.41354e+06
2.23974e+06
2.01819e+06
1.68405e+06
1.36502e+06
1.09192e+06
845697
632785
461511
334574
251284
198047
166020
146553
133839
125770
119533
114130
109474
104923
100266
95400.9
89878.6
86032.6
90817.9
151901
7.45261e+06
4.30122e+06
3.3682e+06
2.95152e+06
2.73169e+06
2.50309e+06
2.23303e+06
1.8542e+06
1.50948e+06
1.21898e+06
953879
718275
523689
375849
276260
211908
172805
149392
134438
124959
118251
112752
108006
103132
98396.3
93394.5
88020.4
84405.1
89659.5
150804
8.27295e+06
4.85607e+06
3.87413e+06
3.3696e+06
3.05552e+06
2.74453e+06
2.41502e+06
1.998e+06
1.63392e+06
1.33671e+06
1.06257e+06
810428
593968
424229
305996
228931
181597
153602
136080
124869
117419
111545
106646
101711
96898.9
91648.3
86615.6
83241.2
88947.5
150167
9.12778e+06
5.49176e+06
4.45e+06
3.81582e+06
3.37745e+06
2.96433e+06
2.56623e+06
2.11292e+06
1.738e+06
1.44206e+06
1.16655e+06
904541
670354
479596
341331
249573
193109
159197
138550
125595
117157
110893
105677
100842
95783.7
90360.8
85650.1
82520.2
88514.6
150153
9.9719e+06
6.17825e+06
5.07325e+06
4.27515e+06
3.7055e+06
3.17313e+06
2.70764e+06
2.21822e+06
1.83287e+06
1.53751e+06
1.26387e+06
999013
751569
541294
382774
274491
207145
166457
141994
126906
117514
110923
105519
100475
95102.6
89593.4
84987.7
82116.2
88355.2
150547
1.07395e+07
6.91725e+06
5.71762e+06
4.77875e+06
4.05819e+06
3.405e+06
2.86816e+06
2.33194e+06
1.92976e+06
1.63218e+06
1.36015e+06
1.09488e+06
838705
611383
432056
305241
224534
175619
146326
129032
118326
110927
105409
100166
94793.2
89348
84667.3
81961.3
88501.1
151573
1.14456e+07
7.60836e+06
6.43473e+06
5.34788e+06
4.46898e+06
3.68728e+06
3.07507e+06
2.47061e+06
2.04328e+06
1.73826e+06
1.46316e+06
1.19535e+06
932730
691661
491058
343866
246750
187281
152658
132259
119489
111255
105372
99844.2
94619
89506.1
84786.4
81944
88850.5
153233
1.21845e+07
8.35689e+06
7.26273e+06
6.00399e+06
4.96293e+06
4.05065e+06
3.32524e+06
2.64388e+06
2.1855e+06
1.86584e+06
1.5817e+06
1.30714e+06
1.03691e+06
782760
561764
391992
274832
203309
161242
136541
121627
112187
105781
100127
94590
89194.6
84573
82066.5
89329.3
154288
1.30733e+07
9.17597e+06
8.17316e+06
6.73684e+06
5.53669e+06
4.50202e+06
3.6387e+06
2.86476e+06
2.36516e+06
2.02111e+06
1.72046e+06
1.43486e+06
1.15521e+06
888085
646973
452577
312603
224616
172996
142618
124877
113893
106472
100064
94299.2
88896.1
84271.3
82189.7
89584.1
155114
1.39218e+07
1.00845e+07
9.13235e+06
7.53341e+06
6.19955e+06
5.05621e+06
4.02964e+06
3.14531e+06
2.58793e+06
2.20613e+06
1.88019e+06
1.57964e+06
1.28991e+06
1.01e+06
749195
527890
362090
253958
188833
151003
128946
115554
106634
99659.7
93980.6
88498.3
83871.4
81804.3
89675
156396
1.46732e+07
1.09993e+07
1.0096e+07
8.38658e+06
6.96082e+06
5.73562e+06
4.51293e+06
3.49414e+06
2.85995e+06
2.42352e+06
2.06577e+06
1.74544e+06
1.44277e+06
1.14896e+06
869712
622315
426991
293526
210619
162146
134066
117470
106626
99181.7
93529.7
87854
83275.2
81282.3
89412.1
157801
1.53385e+07
1.18692e+07
1.10505e+07
9.28397e+06
7.81909e+06
6.54831e+06
5.10299e+06
3.92109e+06
3.19389e+06
2.68855e+06
2.28572e+06
1.93685e+06
1.61579e+06
1.30613e+06
1.00968e+06
737060
510602
346490
240145
177159
140812
119888
107035
99030
92768.7
87102.6
82577.2
80721.4
89160.6
159274
1.59904e+07
1.26982e+07
1.2028e+07
1.0233e+07
8.78829e+06
7.48325e+06
5.8164e+06
4.44679e+06
3.60946e+06
3.01398e+06
2.54908e+06
2.15944e+06
1.81206e+06
1.48447e+06
1.17119e+06
874916
616349
416701
280261
197668
150232
123795
108550
99210
92285.9
86575.3
81986.1
80177.3
89382.1
161162
1.67765e+07
1.34363e+07
1.29652e+07
1.12665e+07
9.90461e+06
8.54029e+06
6.67642e+06
5.10499e+06
4.12633e+06
3.41738e+06
2.86853e+06
2.42e+06
2.0341e+06
1.68605e+06
1.35484e+06
1.03641e+06
746189
507622
334618
226134
163655
129562
111173
100097
92572.7
86175.6
81818.2
79890.2
90000.4
162874
1.74012e+07
1.41044e+07
1.38588e+07
1.23557e+07
1.11908e+07
9.79082e+06
7.69812e+06
5.92477e+06
4.77744e+06
3.92485e+06
3.25966e+06
2.72692e+06
2.29034e+06
1.91342e+06
1.56146e+06
1.22055e+06
900147
621794
406641
264775
181845
138225
114896
101715
93047.8
86313.5
81834.1
79984.3
90790
164229
1.81184e+07
1.44645e+07
1.44989e+07
1.34631e+07
1.26787e+07
1.12677e+07
8.94156e+06
6.95485e+06
5.59579e+06
4.56085e+06
3.74176e+06
3.09986e+06
2.5948e+06
2.17508e+06
1.79452e+06
1.42756e+06
1.07582e+06
757150
496824
315166
207578
150390
120208
103847
93824.1
86500.1
81688.7
80038.1
91250.2
166158
1.83564e+07
1.49323e+07
1.50209e+07
1.45891e+07
1.43592e+07
1.30322e+07
1.0477e+07
8.26343e+06
6.64601e+06
5.36542e+06
4.3445e+06
3.56292e+06
2.96172e+06
2.47566e+06
2.04857e+06
1.64418e+06
1.25888e+06
905499
604917
381903
243507
167103
127311
106226
94301.8
86111
80991.5
79630.2
91239.1
167902
1.89265e+07
1.50132e+07
1.52622e+07
1.57406e+07
1.62703e+07
1.51699e+07
1.24267e+07
9.93364e+06
7.98925e+06
6.38873e+06
5.10688e+06
4.14051e+06
3.39233e+06
2.80008e+06
2.29807e+06
1.85723e+06
1.44528e+06
1.06742e+06
734213
469898
292578
190204
136708
109054
94507.8
85425.1
79987.4
78892.2
90772.9
169532
1.87935e+07
1.51872e+07
1.57938e+07
1.724e+07
1.85811e+07
1.78375e+07
1.49454e+07
1.20843e+07
9.71029e+06
7.69742e+06
6.08914e+06
4.84843e+06
3.88707e+06
3.14581e+06
2.56477e+06
2.0807e+06
1.64993e+06
1.24895e+06
887444
581962
358921
222673
150305
113657
95607
85316.1
79451.2
78382.7
90408.4
171036
1.74722e+07
1.80752e+07
1.79812e+07
1.98005e+07
2.16309e+07
2.12864e+07
1.82161e+07
1.485e+07
1.19094e+07
9.36362e+06
7.29918e+06
5.70603e+06
4.48273e+06
3.56769e+06
2.88513e+06
2.34149e+06
1.8832e+06
1.45404e+06
1.06442e+06
719310
447260
268813
170729
121532
98287.3
86163.1
79487.8
78101.9
90287.8
172244
158033
98775.9
97189.7
102612
107726
112786
117489
122046
126769
132292
137317
142618
149150
160016
177994
208299
259515
341192
453558
580724
710461
846166
1.01128e+06
1.14909e+06
1.25207e+06
1.36488e+06
1.55391e+06
1.94147e+06
2.89913e+06
4.46187e+06
155428
96539.8
94315.1
99395.9
104487
109437
113997
118600
123504
128267
133459
139103
146280
157678
176304
207893
260596
344993
463231
602053
756525
929474
1.13575e+06
1.30278e+06
1.41061e+06
1.52277e+06
1.68879e+06
2.0627e+06
3.02941e+06
5.03614e+06
154693
94860
91909.9
96586.5
101660
106457
110996
115604
120354
125173
130176
136229
144486
157367
178285
213691
272360
364301
493194
648495
829465
1.03079e+06
1.27043e+06
1.47859e+06
1.5972e+06
1.70664e+06
1.84349e+06
2.18518e+06
3.08177e+06
5.2748e+06
153328
93370
89606.7
93948.3
99023.9
104008
108510
113102
117760
122650
128026
134557
143876
159106
183772
224675
290621
394596
538458
716893
926461
1.15842e+06
1.43607e+06
1.68488e+06
1.832e+06
1.94834e+06
2.07911e+06
2.43477e+06
3.31333e+06
5.75908e+06
152021
91722.3
87436.9
91493.3
96562.2
101702
106289
110829
115588
120588
126341
133908
145197
162896
192458
241092
318419
437615
601457
806675
1.0472e+06
1.31315e+06
1.62395e+06
1.91702e+06
2.10239e+06
2.24026e+06
2.37955e+06
2.75748e+06
3.6648e+06
6.42499e+06
150595
90345
85571.7
89388
94432.5
99615.2
104317
108898
113768
119160
125487
134179
147645
168608
204101
262250
353806
492387
677477
906639
1.17179e+06
1.46615e+06
1.80877e+06
2.14406e+06
2.37656e+06
2.55485e+06
2.73235e+06
3.14831e+06
4.1098e+06
7.17736e+06
149550
89229
84042.1
87637.2
92660.7
97849.8
102642
107334
112295
118048
125142
135186
151001
175669
218179
287964
395779
555094
763246
1.01271e+06
1.29186e+06
1.6029e+06
1.97118e+06
2.34834e+06
2.63635e+06
2.87822e+06
3.12737e+06
3.59971e+06
4.61141e+06
7.97032e+06
149027
88551.7
82979.4
86324.8
91305.8
96551
101438
106188
111339
117477
125426
137017
155360
184904
234223
316925
443650
623911
852447
1.11659e+06
1.4019e+06
1.71426e+06
2.09949e+06
2.51674e+06
2.874e+06
3.20655e+06
3.56334e+06
4.13005e+06
5.19963e+06
8.83323e+06
149168
88221.9
82370.3
85494.1
90426.3
95812.8
100834
105552
110748
117236
126176
139556
161102
196293
254579
349714
495791
695739
941036
1.21146e+06
1.49478e+06
1.80236e+06
2.19799e+06
2.65176e+06
3.08543e+06
3.52985e+06
4.01082e+06
4.72678e+06
5.85752e+06
9.7169e+06
149808
88265.4
82139.1
85096.8
89954.5
95453.2
100544
105462
110665
117360
127303
143281
168599
209964
278508
389417
553598
771081
1.02545e+06
1.2962e+06
1.57654e+06
1.8826e+06
2.28798e+06
2.78337e+06
3.28908e+06
3.86036e+06
4.48881e+06
5.36067e+06
6.57271e+06
1.05743e+07
151113
88698.7
82235.3
85025.3
89702.5
95070.8
100184
105477
110965
118098
128679
147651
177660
226808
307734
436559
620155
851419
1.10919e+06
1.37748e+06
1.65909e+06
1.96945e+06
2.38888e+06
2.93772e+06
3.51907e+06
4.21672e+06
5.00961e+06
6.03676e+06
7.32434e+06
1.1358e+07
152295
89106.7
82373.7
85025.9
89531.4
94820.6
100203
105745
111553
119658
131656
152784
188464
247709
344689
492195
694050
936489
1.19931e+06
1.46861e+06
1.75329e+06
2.07552e+06
2.52038e+06
3.14082e+06
3.80679e+06
4.63472e+06
5.59673e+06
6.78386e+06
8.03953e+06
1.20728e+07
152906
89098.4
82298.8
84816.9
89427.1
94853.9
100212
105998
112553
121652
135877
160536
202013
273102
389176
557983
778037
1.03107e+06
1.29998e+06
1.57779e+06
1.86994e+06
2.21062e+06
2.69577e+06
3.40164e+06
4.16327e+06
5.13392e+06
6.27022e+06
7.64352e+06
8.79935e+06
1.28272e+07
154242
89206.6
82061.5
84576.1
89335.3
94913.8
100734
106589
114153
124822
142213
171499
221976
307392
444274
635882
874300
1.13946e+06
1.41785e+06
1.7071e+06
2.01517e+06
2.38236e+06
2.92325e+06
3.72433e+06
4.61154e+06
5.71891e+06
7.02368e+06
8.57711e+06
9.62693e+06
1.37343e+07
155611
89320.4
81814.5
84201.6
89103.9
94844.4
100711
107197
116230
129015
150238
186315
248984
353371
513387
729928
987327
1.26531e+06
1.55516e+06
1.85985e+06
2.19459e+06
2.5934e+06
3.20442e+06
4.12398e+06
5.17529e+06
6.39445e+06
7.8442e+06
9.56583e+06
1.05428e+07
1.45889e+07
157019
89327.2
81510.7
83759.5
88637.7
94439.2
100298
107724
118177
134133
160634
206553
285285
413775
602144
842394
1.11836e+06
1.41058e+06
1.71416e+06
2.03956e+06
2.40706e+06
2.86644e+06
3.54797e+06
4.61191e+06
5.87081e+06
7.1757e+06
8.72443e+06
1.05608e+07
1.14567e+07
1.53435e+07
158583
89357.1
81149.1
83242.3
88013.9
93784.4
99916
108191
120445
140681
174825
234037
334274
491767
711116
975925
1.26739e+06
1.57512e+06
1.89711e+06
2.25104e+06
2.66506e+06
3.19629e+06
3.97363e+06
5.21345e+06
6.70619e+06
8.06402e+06
9.65584e+06
1.15378e+07
1.23121e+07
1.60188e+07
160515
89518.4
80670
82659.1
87306.4
93217.3
100008
109417
124148
149591
194039
271742
399892
591188
842651
1.13186e+06
1.43965e+06
1.76374e+06
2.11163e+06
2.50505e+06
2.97987e+06
3.60425e+06
4.50214e+06
5.94985e+06
7.67561e+06
9.06416e+06
1.06337e+07
1.2516e+07
1.31247e+07
1.666e+07
162149
89875
80291.7
82380.9
86914.9
93113.9
100798
111947
130063
162394
220419
322879
486120
714895
997716
1.3102e+06
1.63523e+06
1.97862e+06
2.36306e+06
2.81543e+06
3.37892e+06
4.1196e+06
5.15869e+06
6.83141e+06
8.7749e+06
1.02117e+07
1.16855e+07
1.3451e+07
1.38375e+07
1.74624e+07
163768
90487.3
80421.2
82451.1
86960.4
93598.4
102268
115671
138437
180548
257079
391119
594940
863119
1.17583e+06
1.5117e+06
1.8579e+06
2.23116e+06
2.66373e+06
3.1993e+06
3.88081e+06
4.76988e+06
5.98741e+06
7.88379e+06
1.00479e+07
1.15221e+07
1.28051e+07
1.43609e+07
1.44971e+07
1.80692e+07
165369
91044.3
80710.5
82528.6
87306.5
94466.8
104434
120566
149823
204562
305687
477381
726436
1.03491e+06
1.37787e+06
1.74116e+06
2.11596e+06
2.53121e+06
3.02962e+06
3.6749e+06
4.51303e+06
5.59286e+06
7.03143e+06
9.15503e+06
1.15622e+07
1.30267e+07
1.39387e+07
1.49993e+07
1.48486e+07
1.878e+07
167070
91375.3
80598.9
82134
87193.3
95207.1
107038
127375
165610
238500
370083
582618
872806
1.21922e+06
1.59898e+06
2.00019e+06
2.41712e+06
2.89334e+06
3.4848e+06
4.26876e+06
5.31358e+06
6.64596e+06
8.35906e+06
1.07277e+07
1.33755e+07
1.47393e+07
1.50747e+07
1.54992e+07
1.53183e+07
1.90281e+07
168776
91165.6
79990.9
81277.7
86670.1
96062.2
110219
136906
188072
285754
455372
709357
1.03331e+06
1.40377e+06
1.80923e+06
2.2454e+06
2.73721e+06
3.31592e+06
4.04989e+06
5.01675e+06
6.32836e+06
7.99139e+06
1.00531e+07
1.2726e+07
1.55893e+07
1.66884e+07
1.62085e+07
1.56983e+07
1.54044e+07
1.96244e+07
170360
90834.7
79428.3
80800
86726.6
97438
114965
150523
219998
350609
565312
861490
1.21324e+06
1.60515e+06
2.02798e+06
2.49968e+06
3.07102e+06
3.79339e+06
4.74292e+06
5.97504e+06
7.62032e+06
9.70787e+06
1.22254e+07
1.52993e+07
1.83419e+07
1.90368e+07
1.76876e+07
1.61878e+07
1.55894e+07
1.94984e+07
171890
90693.2
79158.7
80917.7
87782.4
99886.2
122751
170693
265178
437293
701202
1.03805e+06
1.41842e+06
1.8376e+06
2.28492e+06
2.81399e+06
3.47985e+06
4.37259e+06
5.57087e+06
7.1631e+06
9.25968e+06
1.18989e+07
1.50191e+07
1.86368e+07
2.18491e+07
2.20932e+07
2.02278e+07
1.83257e+07
1.84305e+07
1.81837e+07
1.00998e+07
8.79192e+06
7.613e+06
6.71776e+06
6.0557e+06
5.6573e+06
5.47392e+06
5.53743e+06
5.83426e+06
6.38954e+06
7.22726e+06
8.37019e+06
9.83762e+06
1.16377e+07
1.37496e+07
1.61334e+07
1.87486e+07
2.15946e+07
2.46388e+07
2.77956e+07
3.10326e+07
3.42128e+07
3.74032e+07
4.05158e+07
4.35048e+07
4.63921e+07
4.91534e+07
5.17655e+07
5.42222e+07
5.65144e+07
5.8615e+07
6.05031e+07
6.2188e+07
6.36384e+07
6.48155e+07