/*--------------------------------*- C++ -*----------------------------------*\
| =========                 |                                                 |
| \\      /  F ield         | OpenFOAM: The Open Source CFD Toolbox           |
|  \\    /   O peration     | Version:  2112                                  |
|   \\  /    A nd           | Website:  www.openfoam.com                      |
|    \\/     M anipulation  |                                                 |
\*---------------------------------------------------------------------------*/
FoamFile
{
    version     2.0;
    format      ascii;
    arch        "LSB;label=32;scalar=64";
    class       volScalarField;
    location    "0.00134";
    object      epsilon;
}
// * * * * * * * * * * * * * * * * * * * * * * * * * * * * * * * * * * * * * //

dimensions      [0 2 -3 0 0 0 0];

internalField   nonuniform List<scalar> 
13875
(
1.15997e+06
2.94717e+07
3.28075e+07
3.28555e+07
3.29661e+07
3.2865e+07
3.28653e+07
3.28889e+07
3.29085e+07
3.29292e+07
3.29654e+07
3.29334e+07
3.28102e+07
3.28104e+07
3.2923e+07
3.29559e+07
3.29125e+07
3.29115e+07
3.28859e+07
3.28533e+07
3.2945e+07
3.28353e+07
3.27987e+07
2.94841e+07
1.178e+06
1.31369e+06
2.27582e+07
2.53479e+07
2.52547e+07
2.53136e+07
2.52209e+07
2.5215e+07
2.52271e+07
2.52109e+07
2.52315e+07
2.52773e+07
2.52418e+07
2.51786e+07
2.51923e+07
2.52572e+07
2.52848e+07
2.52497e+07
2.52427e+07
2.52233e+07
2.52106e+07
2.52929e+07
2.5224e+07
2.53252e+07
2.27601e+07
1.34212e+06
1.57305e+06
1.97184e+07
2.18275e+07
2.16419e+07
2.17053e+07
2.16338e+07
2.16237e+07
2.16189e+07
2.15116e+07
2.15338e+07
2.15912e+07
2.15852e+07
2.15947e+07
2.16113e+07
2.15842e+07
2.15936e+07
2.15736e+07
2.15919e+07
2.16212e+07
2.16243e+07
2.16922e+07
2.16048e+07
2.17882e+07
1.96951e+07
1.58418e+06
1.81401e+06
1.73956e+07
1.90369e+07
1.8893e+07
1.89698e+07
1.89109e+07
1.8899e+07
1.88923e+07
1.87836e+07
1.87921e+07
1.88435e+07
1.88517e+07
1.88716e+07
1.88843e+07
1.88383e+07
1.88375e+07
1.88295e+07
1.88686e+07
1.88943e+07
1.8902e+07
1.89587e+07
1.88603e+07
1.90126e+07
1.7369e+07
1.82028e+06
2.02367e+06
1.54618e+07
1.67722e+07
1.66316e+07
1.67021e+07
1.66538e+07
1.66433e+07
1.66326e+07
1.65362e+07
1.65369e+07
1.65764e+07
1.65887e+07
1.66205e+07
1.66296e+07
1.65697e+07
1.65698e+07
1.65713e+07
1.66139e+07
1.66374e+07
1.66456e+07
1.66929e+07
1.66062e+07
1.67427e+07
1.54324e+07
2.0362e+06
2.2085e+06
1.37269e+07
1.49314e+07
1.47491e+07
1.48271e+07
1.47797e+07
1.47656e+07
1.47472e+07
1.46595e+07
1.46529e+07
1.46822e+07
1.46979e+07
1.47389e+07
1.47425e+07
1.46748e+07
1.4674e+07
1.4685e+07
1.47351e+07
1.47587e+07
1.47727e+07
1.48193e+07
1.47319e+07
1.4903e+07
1.38533e+07
2.22375e+06
2.42611e+06
1.2272e+07
1.34856e+07
1.32202e+07
1.32677e+07
1.32121e+07
1.31898e+07
1.31622e+07
1.30826e+07
1.30697e+07
1.3089e+07
1.31067e+07
1.31537e+07
1.31512e+07
1.30821e+07
1.30803e+07
1.30996e+07
1.3158e+07
1.3184e+07
1.32051e+07
1.32572e+07
1.32051e+07
1.34241e+07
1.19599e+07
2.43225e+06
2.68054e+06
1.06571e+07
1.23377e+07
1.19995e+07
1.20084e+07
1.19251e+07
1.18808e+07
1.1838e+07
1.17623e+07
1.17392e+07
1.17499e+07
1.17678e+07
1.18193e+07
1.18113e+07
1.17424e+07
1.17387e+07
1.17699e+07
1.18374e+07
1.18727e+07
1.19119e+07
1.19902e+07
1.19806e+07
1.22716e+07
1.05532e+07
2.69963e+06
3.52137e+06
1.02602e+07
1.15263e+07
1.10756e+07
1.09769e+07
1.08657e+07
1.08001e+07
1.07405e+07
1.0666e+07
1.06353e+07
1.06397e+07
1.06533e+07
1.07078e+07
1.06938e+07
1.0627e+07
1.06226e+07
1.06677e+07
1.07414e+07
1.0791e+07
1.0849e+07
1.09572e+07
1.10427e+07
1.14928e+07
1.03568e+07
3.58879e+06
6.99042e+06
1.24937e+07
1.13344e+07
1.0504e+07
1.02863e+07
1.00966e+07
9.99627e+06
9.91784e+06
9.8454e+06
9.81141e+06
9.81014e+06
9.81747e+06
9.86984e+06
9.85066e+06
9.79156e+06
9.78845e+06
9.83906e+06
9.9137e+06
9.98163e+06
1.0068e+07
1.02417e+07
1.04211e+07
1.12077e+07
1.22168e+07
6.91399e+06
1.52403e+07
1.88706e+07
1.20235e+07
1.06371e+07
9.92923e+06
9.62383e+06
9.48102e+06
9.37812e+06
9.30736e+06
9.27156e+06
9.2647e+06
9.26408e+06
9.30874e+06
9.28713e+06
9.24086e+06
9.24349e+06
9.29517e+06
9.36927e+06
9.46019e+06
9.58171e+06
9.85277e+06
1.04585e+07
1.20318e+07
1.80969e+07
1.51348e+07
2.5208e+07
6.04716e+07
2.25947e+07
1.18179e+07
1.03616e+07
9.63638e+06
9.32293e+06
9.17991e+06
9.0911e+06
9.04433e+06
9.03024e+06
9.01936e+06
9.04937e+06
9.02764e+06
8.99763e+06
9.01143e+06
9.069e+06
9.15899e+06
9.2866e+06
9.56184e+06
1.01292e+07
1.1041e+07
1.89094e+07
6.51834e+07
2.51285e+07
2.64115e+07
5.79468e+07
1.04553e+08
5.20773e+07
1.3164e+07
1.04443e+07
9.94618e+06
9.72662e+06
9.62302e+06
9.60077e+06
9.54866e+06
9.56787e+06
9.55978e+06
9.54938e+06
9.52755e+06
9.55417e+06
9.62028e+06
9.72532e+06
9.89829e+06
1.03863e+07
1.2764e+07
3.02356e+07
8.83649e+07
6.56362e+07
2.61701e+07
2.59116e+07
4.42554e+07
8.01431e+07
1.34806e+08
7.11883e+07
1.95092e+07
1.68443e+07
1.4576e+07
1.4212e+07
1.35199e+07
1.41258e+07
1.31848e+07
1.43568e+07
1.347e+07
1.36498e+07
1.36123e+07
1.38746e+07
1.43107e+07
1.60667e+07
1.94234e+07
7.21905e+07
1.03384e+08
7.83934e+07
4.88213e+07
2.59998e+07
2.50297e+07
3.61191e+07
5.88549e+07
9.03524e+07
8.11919e+07
5.79253e+07
6.32677e+07
5.94205e+07
6.14999e+07
5.9689e+07
6.8704e+07
5.98177e+07
7.33193e+07
6.59423e+07
6.45722e+07
6.18566e+07
5.98282e+07
5.9027e+07
6.48044e+07
5.90912e+07
7.87724e+07
7.6285e+07
5.99046e+07
3.96145e+07
2.7366e+07
2.54568e+07
3.17276e+07
5.11702e+07
7.23188e+07
7.51072e+07
9.96587e+07
8.64467e+07
5.87396e+07
5.30969e+07
5.66879e+07
5.40774e+07
5.64746e+07
5.62644e+07
5.82408e+07
5.48438e+07
5.5924e+07
5.39728e+07
5.66747e+07
7.04502e+07
1.05618e+08
8.2253e+07
6.57744e+07
5.1345e+07
3.41644e+07
2.81684e+07
2.36656e+07
2.99412e+07
4.69919e+07
6.35111e+07
6.6298e+07
9.21241e+07
6.40564e+07
4.0353e+07
3.63446e+07
3.70727e+07
3.61439e+07
3.69668e+07
3.73458e+07
3.78647e+07
3.60841e+07
3.68556e+07
3.64564e+07
3.87919e+07
5.1186e+07
9.37203e+07
7.43961e+07
6.13748e+07
4.91155e+07
3.13809e+07
2.46382e+07
1.95436e+07
3.03068e+07
4.27592e+07
4.87035e+07
5.05663e+07
6.93749e+07
5.07608e+07
3.35664e+07
2.84043e+07
2.75248e+07
2.64457e+07
2.65987e+07
2.68993e+07
2.70592e+07
2.63173e+07
2.7346e+07
2.82538e+07
3.18733e+07
4.44612e+07
6.67566e+07
5.45368e+07
4.79645e+07
4.53987e+07
3.25844e+07
2.01616e+07
1.58266e+07
2.93208e+07
3.62797e+07
3.74966e+07
3.76631e+07
4.80185e+07
4.39057e+07
3.31643e+07
2.59503e+07
2.26978e+07
2.08577e+07
2.03298e+07
2.04382e+07
2.05079e+07
2.04027e+07
2.19071e+07
2.46409e+07
3.08027e+07
4.08923e+07
4.74505e+07
3.9415e+07
3.7781e+07
3.80373e+07
3.18886e+07
1.64519e+07
1.43248e+07
2.65966e+07
2.9212e+07
2.97648e+07
2.97735e+07
3.58903e+07
3.72304e+07
3.18839e+07
2.48085e+07
2.0098e+07
1.74581e+07
1.64047e+07
1.63075e+07
1.64487e+07
1.70524e+07
1.94654e+07
2.38784e+07
3.04574e+07
3.5911e+07
3.58675e+07
3.07733e+07
3.01314e+07
3.02455e+07
2.73786e+07
1.52075e+07
1.50963e+07
2.1077e+07
2.33766e+07
2.42227e+07
2.43882e+07
2.87773e+07
3.13386e+07
2.84037e+07
2.24942e+07
1.76949e+07
1.47658e+07
1.34638e+07
1.32514e+07
1.3508e+07
1.45864e+07
1.74635e+07
2.21329e+07
2.77136e+07
3.07427e+07
2.89944e+07
2.51778e+07
2.46676e+07
2.40738e+07
2.14111e+07
1.62294e+07
1.91528e+07
2.01949e+07
1.98221e+07
2.05134e+07
2.06357e+07
2.39653e+07
2.64e+07
2.45893e+07
1.97639e+07
1.53624e+07
1.24935e+07
1.11438e+07
1.08722e+07
1.11904e+07
1.24303e+07
1.53052e+07
1.96161e+07
2.41191e+07
2.60327e+07
2.4286e+07
2.13241e+07
2.09271e+07
2.02671e+07
2.07391e+07
1.98257e+07
2.19615e+07
2.25114e+07
1.75126e+07
1.75274e+07
1.77061e+07
2.02482e+07
2.22423e+07
2.09343e+07
1.70044e+07
1.31936e+07
1.05782e+07
9.29374e+06
9.00048e+06
9.31504e+06
1.05095e+07
1.31081e+07
1.68367e+07
2.05401e+07
2.19412e+07
2.0549e+07
1.82718e+07
1.789e+07
1.77632e+07
2.32569e+07
2.20584e+07
2.13488e+07
2.25032e+07
1.54822e+07
1.51586e+07
1.52577e+07
1.71008e+07
1.87363e+07
1.77343e+07
1.43434e+07
1.11013e+07
8.88677e+06
7.77976e+06
7.52336e+06
7.8295e+06
8.90337e+06
1.11393e+07
1.43363e+07
1.7499e+07
1.85575e+07
1.7326e+07
1.57419e+07
1.55648e+07
1.57131e+07
2.29521e+07
2.14018e+07
2.08472e+07
2.16821e+07
1.37709e+07
1.33154e+07
1.32956e+07
1.45707e+07
1.58466e+07
1.50127e+07
1.21527e+07
9.4033e+06
7.51256e+06
6.57649e+06
6.35855e+06
6.63279e+06
7.56119e+06
9.46055e+06
1.22109e+07
1.49065e+07
1.57547e+07
1.47573e+07
1.36711e+07
1.36868e+07
1.39943e+07
2.22405e+07
2.09066e+07
2.02604e+07
2.07633e+07
1.25281e+07
1.18607e+07
1.16954e+07
1.25569e+07
1.34851e+07
1.27255e+07
1.03126e+07
8.00768e+06
6.41296e+06
5.61628e+06
5.41808e+06
5.66003e+06
6.4483e+06
8.04108e+06
1.03451e+07
1.2635e+07
1.34043e+07
1.2688e+07
1.19542e+07
1.21555e+07
1.27036e+07
2.08926e+07
2.008e+07
1.96562e+07
2.00314e+07
1.15092e+07
1.06966e+07
1.03983e+07
1.09227e+07
1.1486e+07
1.073e+07
8.72475e+06
6.82367e+06
5.49454e+06
4.83596e+06
4.66503e+06
4.87757e+06
5.55381e+06
6.89345e+06
8.81145e+06
1.07579e+07
1.15087e+07
1.10668e+07
1.06061e+07
1.0943e+07
1.16794e+07
2.03491e+07
1.98396e+07
1.95379e+07
1.94768e+07
1.0678e+07
9.71068e+06
9.35713e+06
9.6172e+06
9.89332e+06
9.15032e+06
7.4582e+06
5.87476e+06
4.76126e+06
4.20391e+06
4.04979e+06
4.23496e+06
4.80526e+06
5.92362e+06
7.51165e+06
9.15793e+06
9.90431e+06
9.73729e+06
9.51855e+06
9.9151e+06
1.08191e+07
1.96602e+07
1.95926e+07
1.98162e+07
1.87405e+07
9.9997e+06
8.8316e+06
8.48476e+06
8.56159e+06
8.58448e+06
7.84045e+06
6.41175e+06
5.09701e+06
4.16149e+06
3.68604e+06
3.54442e+06
3.70541e+06
4.18484e+06
5.10838e+06
6.4034e+06
7.79664e+06
8.56179e+06
8.64385e+06
8.60596e+06
8.97641e+06
1.0097e+07
1.85374e+07
1.93413e+07
1.9323e+07
1.78679e+07
9.41286e+06
8.06114e+06
7.68706e+06
7.64521e+06
7.46884e+06
6.72913e+06
5.51509e+06
4.42368e+06
3.64622e+06
3.2518e+06
3.12745e+06
3.27037e+06
3.68014e+06
4.4629e+06
5.55156e+06
6.74218e+06
7.48209e+06
7.72364e+06
7.79129e+06
8.19525e+06
9.48812e+06
1.79057e+07
1.99031e+07
1.87332e+07
1.70018e+07
8.98766e+06
7.45844e+06
6.97927e+06
6.86077e+06
6.56999e+06
5.84474e+06
4.79782e+06
3.88511e+06
3.23234e+06
2.89168e+06
2.77662e+06
2.90415e+06
3.25435e+06
3.90715e+06
4.81153e+06
5.83491e+06
6.56792e+06
6.9208e+06
7.05227e+06
7.56181e+06
8.98274e+06
1.71991e+07
1.93121e+07
1.81996e+07
1.62053e+07
8.63246e+06
7.00546e+06
6.36267e+06
6.1689e+06
5.82484e+06
5.12937e+06
4.22267e+06
3.43904e+06
2.88028e+06
2.58961e+06
2.48568e+06
2.59609e+06
2.89313e+06
3.45038e+06
4.22224e+06
5.10445e+06
5.80525e+06
6.20731e+06
6.42711e+06
7.06779e+06
8.58605e+06
1.65207e+07
1.84774e+07
1.73387e+07
1.51458e+07
8.39016e+06
6.6405e+06
5.83952e+06
5.55777e+06
5.17003e+06
4.50491e+06
3.71445e+06
3.05349e+06
2.58126e+06
2.33093e+06
2.23518e+06
2.33842e+06
2.60006e+06
3.07734e+06
3.74088e+06
4.51311e+06
5.1793e+06
5.60252e+06
5.89949e+06
6.68664e+06
8.32007e+06
1.59544e+07
1.79551e+07
1.69277e+07
1.41969e+07
8.14075e+06
6.37499e+06
5.41989e+06
5.04054e+06
4.61751e+06
4.0054e+06
3.31319e+06
2.73863e+06
2.32797e+06
2.11149e+06
2.02513e+06
2.11705e+06
2.34226e+06
2.75894e+06
3.3355e+06
4.01289e+06
4.62305e+06
5.0786e+06
5.47247e+06
6.39228e+06
8.22228e+06
1.52487e+07
1.7262e+07
1.6579e+07
1.34106e+07
7.7403e+06
6.17593e+06
5.09705e+06
4.60106e+06
4.15201e+06
3.58093e+06
2.96851e+06
2.47074e+06
2.11686e+06
1.92456e+06
1.84274e+06
1.92799e+06
2.12866e+06
2.49021e+06
2.99374e+06
3.59466e+06
4.16286e+06
4.6385e+06
5.14598e+06
6.23045e+06
8.01712e+06
1.44011e+07
1.67632e+07
1.59417e+07
1.25235e+07
7.24647e+06
6.00111e+06
4.84772e+06
4.23227e+06
3.74613e+06
3.20884e+06
2.6717e+06
2.24024e+06
1.92783e+06
1.76119e+06
1.68851e+06
1.76721e+06
1.94523e+06
2.27116e+06
2.71475e+06
3.2461e+06
3.77509e+06
4.27626e+06
4.89729e+06
6.11023e+06
7.60676e+06
1.35918e+07
1.63046e+07
1.55981e+07
1.17357e+07
6.80866e+06
5.98351e+06
4.66546e+06
3.94881e+06
3.41459e+06
2.9038e+06
2.42128e+06
2.04151e+06
1.76988e+06
1.62202e+06
1.55281e+06
1.62663e+06
1.78639e+06
2.07192e+06
2.4638e+06
2.94275e+06
3.44429e+06
3.99162e+06
4.71352e+06
6.14647e+06
7.13537e+06
1.26919e+07
1.57554e+07
1.53229e+07
1.10239e+07
6.3862e+06
5.85138e+06
4.57578e+06
3.72502e+06
3.14904e+06
2.65142e+06
2.2102e+06
1.87454e+06
1.63123e+06
1.49971e+06
1.43737e+06
1.50488e+06
1.64684e+06
1.90385e+06
2.2535e+06
2.68906e+06
3.18183e+06
3.77316e+06
4.64374e+06
6.0691e+06
6.67667e+06
1.1821e+07
1.54677e+07
1.49378e+07
1.03111e+07
5.8924e+06
5.53339e+06
4.52894e+06
3.55259e+06
2.94082e+06
2.43898e+06
2.02729e+06
1.72402e+06
1.50861e+06
1.39272e+06
1.33469e+06
1.39845e+06
1.52775e+06
1.75786e+06
2.0763e+06
2.48891e+06
2.98647e+06
3.60933e+06
4.65646e+06
5.82023e+06
6.22753e+06
1.10511e+07
1.53173e+07
1.47825e+07
9.75121e+06
5.42164e+06
5.19678e+06
4.61713e+06
3.45361e+06
2.78153e+06
2.27318e+06
1.87934e+06
1.59981e+06
1.40364e+06
1.29873e+06
1.24591e+06
1.30448e+06
1.42019e+06
1.63078e+06
1.92653e+06
2.33194e+06
2.82907e+06
3.51534e+06
4.81312e+06
5.4709e+06
5.70049e+06
1.04009e+07
1.49944e+07
1.46159e+07
9.35296e+06
5.05252e+06
4.8444e+06
4.57656e+06
3.4451e+06
2.66073e+06
2.14787e+06
1.75932e+06
1.49536e+06
1.31239e+06
1.217e+06
1.16664e+06
1.22133e+06
1.32673e+06
1.52103e+06
1.80333e+06
2.20884e+06
2.71451e+06
3.55493e+06
4.82741e+06
5.09393e+06
5.25462e+06
9.91401e+06
1.48251e+07
1.43249e+07
8.97705e+06
4.68087e+06
4.47639e+06
4.32341e+06
3.53327e+06
2.58451e+06
2.0465e+06
1.66724e+06
1.40511e+06
1.23371e+06
1.14437e+06
1.09777e+06
1.14929e+06
1.24875e+06
1.43303e+06
1.71328e+06
2.10665e+06
2.67386e+06
3.7568e+06
4.54268e+06
4.70774e+06
4.94874e+06
9.62962e+06
1.46412e+07
1.41824e+07
8.65808e+06
4.40799e+06
4.13214e+06
4.03729e+06
3.61223e+06
2.61468e+06
1.97667e+06
1.59606e+06
1.33582e+06
1.16779e+06
1.08181e+06
1.03777e+06
1.08757e+06
1.1813e+06
1.3647e+06
1.63778e+06
2.03067e+06
2.73486e+06
3.85424e+06
4.23123e+06
4.33219e+06
4.60846e+06
9.35378e+06
1.43726e+07
1.41128e+07
8.43056e+06
4.23771e+06
3.83243e+06
3.7446e+06
3.48394e+06
2.76905e+06
1.94993e+06
1.53747e+06
1.28405e+06
1.11866e+06
1.03026e+06
984930
1.035e+06
1.13083e+06
1.31224e+06
1.57534e+06
2.01578e+06
2.9888e+06
3.70521e+06
3.90782e+06
4.00459e+06
4.39333e+06
9.15177e+06
1.41564e+07
1.39676e+07
8.16237e+06
4.03191e+06
3.57104e+06
3.46013e+06
3.2823e+06
2.9369e+06
2.02042e+06
1.49331e+06
1.23757e+06
1.07917e+06
991146
944711
995625
1.09045e+06
1.26498e+06
1.5362e+06
2.16118e+06
3.14567e+06
3.48114e+06
3.6084e+06
3.74004e+06
4.29908e+06
8.98649e+06
1.3949e+07
1.3845e+07
7.95207e+06
3.9326e+06
3.35945e+06
3.20978e+06
3.08812e+06
2.91914e+06
2.27384e+06
1.50183e+06
1.2046e+06
1.04586e+06
960344
915832
963738
1.05691e+06
1.22846e+06
1.55195e+06
2.43612e+06
3.0459e+06
3.25361e+06
3.35089e+06
3.52204e+06
4.18962e+06
8.76068e+06
1.37222e+07
1.37021e+07
7.77948e+06
3.8762e+06
3.19266e+06
3.00263e+06
2.88974e+06
2.76223e+06
2.46123e+06
1.64068e+06
1.19115e+06
1.01745e+06
932374
889555
936051
1.02746e+06
1.21385e+06
1.7126e+06
2.61926e+06
2.88627e+06
3.03312e+06
3.14167e+06
3.35245e+06
4.1182e+06
8.52751e+06
1.34475e+07
1.33355e+07
7.5087e+06
3.76514e+06
3.04736e+06
2.82872e+06
2.70424e+06
2.60972e+06
2.42549e+06
1.89914e+06
1.24524e+06
1.00153e+06
904587
865906
909491
1.01382e+06
1.29852e+06
2.01577e+06
2.55121e+06
2.73159e+06
2.84318e+06
2.96732e+06
3.22294e+06
4.07685e+06
8.27893e+06
1.30195e+07
1.2789e+07
7.20479e+06
3.65954e+06
2.9191e+06
2.68144e+06
2.54761e+06
2.45134e+06
2.30833e+06
2.06518e+06
1.45864e+06
1.02802e+06
890720
850747
894769
1.04627e+06
1.56344e+06
2.16814e+06
2.43612e+06
2.57328e+06
2.68209e+06
2.8187e+06
3.09642e+06
3.96982e+06
7.93973e+06
1.2415e+07
1.13312e+07
6.68095e+06
3.53797e+06
2.78776e+06
2.54515e+06
2.41513e+06
2.31173e+06
2.19842e+06
2.02649e+06
1.68814e+06
1.19501e+06
897550
852600
901818
1.23519e+06
1.78813e+06
2.11291e+06
2.32249e+06
2.43944e+06
2.54583e+06
2.67936e+06
2.95948e+06
3.83387e+06
7.34673e+06
1.09641e+07
373067
205804
193753
192193
192048
192098
192311
192324
192149
191815
191413
191000
190594
190198
189810
189429
189054
188685
188320
187959
187604
187252
186906
186564
186226
185893
185566
185476
190027
315313
264236
167281
159417
158438
158451
158552
158735
158689
158498
158205
157899
157622
157376
157152
156941
156739
156545
156357
156173
155994
155820
155650
155485
155323
155165
155014
154868
155104
160588
236267
234096
157333
150458
149741
149766
149903
150065
150001
149832
149603
149402
149254
149147
149066
148998
148938
148882
148830
148779
148730
148683
148637
148594
148552
148512
148475
148450
148838
154718
223777
228156
155583
148591
147896
147921
148089
148287
148222
148067
147860
147692
147585
147524
147489
147467
147452
147440
147429
147419
147410
147400
147391
147383
147376
147368
147364
147374
147804
153830
222532
228726
155599
148277
147551
147587
147792
148021
147947
147791
147581
147417
147317
147264
147238
147226
147221
147218
147216
147214
147212
147211
147209
147208
147207
147206
147207
147226
147671
153791
222830
229163
155641
148200
147475
147527
147795
148017
147924
147763
147546
147380
147280
147228
147204
147194
147190
147189
147188
147188
147187
147187
147186
147186
147187
147187
147188
147210
147667
153880
223305
229225
155571
148157
147451
147515
147838
148044
147922
147758
147539
147374
147275
147223
147200
147190
147187
147185
147185
147185
147185
147184
147184
147184
147185
147185
147186
147210
147679
153985
223774
228953
155489
148139
147443
147549
147884
148060
147916
147753
147534
147372
147273
147222
147199
147189
147186
147185
147185
147185
147184
147184
147184
147184
147184
147185
147186
147211
147691
154085
224207
228723
155446
148137
147438
147596
147919
148061
147904
147744
147526
147368
147271
147221
147198
147189
147186
147185
147185
147185
147184
147184
147184
147184
147184
147185
147186
147213
147702
154177
224598
228635
155447
148165
147509
147636
147948
148058
147885
147727
147513
147361
147267
147219
147197
147188
147186
147185
147185
147185
147184
147184
147184
147184
147184
147185
147186
147213
147713
154261
224950
228656
155502
148276
147650
147720
147986
148050
147854
147702
147493
147350
147261
147215
147196
147188
147186
147185
147185
147185
147184
147184
147184
147184
147184
147185
147186
147214
147723
154339
225271
228824
155671
148547
147997
147951
148100
148051
147820
147672
147471
147336
147254
147213
147195
147188
147185
147185
147185
147185
147185
147184
147184
147184
147184
147185
147186
147215
147732
154412
225563
229257
156218
149383
149001
148715
148514
148184
147823
147643
147447
147324
147248
147211
147194
147187
147185
147185
147185
147185
147185
147184
147184
147184
147184
147184
147186
147215
147740
154479
225829
230558
157953
152291
153014
152189
150283
148798
147996
147669
147433
147313
147243
147208
147193
147187
147185
147185
147185
147185
147185
147185
147185
147184
147184
147184
147186
147215
147749
154542
226076
234221
163712
162131
169616
170483
162272
152724
148874
147866
147471
147312
147239
147206
147192
147187
147185
147185
147185
147185
147185
147185
147185
147185
147184
147184
147186
147216
147755
154597
226294
243942
179681
189565
219043
240886
230855
184054
155647
148902
147663
147348
147242
147205
147191
147187
147185
147185
147185
147185
147185
147185
147185
147185
147185
147184
147185
147217
147761
154646
226488
269402
200501
216165
267379
321965
358667
336801
212548
157102
148622
147509
147268
147208
147191
147186
147185
147185
147185
147185
147185
147185
147185
147185
147185
147185
147186
147216
147767
154690
226662
283596
211528
249492
330693
417242
466038
496576
444642
227091
155552
148229
147381
147224
147193
147186
147185
147185
147185
147185
147185
147185
147185
147185
147185
147185
147186
147217
147772
154729
226815
285927
233382
308646
423226
551238
605963
631034
634525
502809
212815
152524
147826
147292
147202
147187
147185
147185
147185
147185
147185
147185
147185
147185
147185
147185
147186
147218
147777
154763
226947
286217
282086
416513
569904
730805
788943
803452
787177
746766
477958
185414
149934
147526
147236
147191
147185
147185
147185
147185
147185
147185
147185
147185
147185
147185
147186
147218
147780
154792
227061
266963
397533
583778
793810
994620
1.0372e+06
1.01637e+06
973241
921477
785119
363390
163438
148417
147343
147205
147187
147185
147185
147185
147185
147185
147185
147185
147185
147185
147186
147218
147783
154815
227156
279184
601469
923546
1.21353e+06
1.43894e+06
1.38418e+06
1.29402e+06
1.1955e+06
1.10138e+06
1.00046e+06
733272
239041
152664
147677
147249
147192
147185
147185
147185
147185
147185
147185
147185
147185
147185
147186
147218
147786
154835
227234
387456
1.01519e+06
1.44005e+06
2.00857e+06
2.54417e+06
2.01827e+06
1.71397e+06
1.46477e+06
1.29561e+06
1.18637e+06
1.00067e+06
507366
175326
148853
147362
147207
147187
147185
147185
147185
147185
147185
147185
147185
147185
147186
147218
147788
154849
227296
611295
2.13818e+06
3.22518e+06
4.47082e+06
6.02627e+06
3.57643e+06
2.30986e+06
1.80645e+06
1.54176e+06
1.37375e+06
1.1879e+06
859402
264614
153534
147668
147241
147191
147185
147185
147185
147185
147185
147185
147185
147185
147186
147219
147789
154860
227342
2.29878e+06
1.09195e+07
1.22498e+07
1.57438e+07
1.24476e+07
7.04289e+06
3.34252e+06
2.33779e+06
1.86693e+06
1.58852e+06
1.36992e+06
1.10203e+06
507722
171780
148526
147321
147200
147186
147185
147185
147185
147185
147185
147185
147185
147186
147219
147790
154867
227377
315314
190027
185477
185568
185895
186229
186567
186910
187256
187608
187965
188325
188691
189061
189437
189818
190206
190603
191009
191423
191827
192161
192336
192324
192111
192062
192208
193771
205830
373212
236268
160589
155104
154868
155014
155165
155323
155485
155650
155820
155994
156173
156357
156545
156739
156941
157152
157376
157622
157899
158205
158498
158689
158735
158551
158450
158438
159417
167279
264208
223778
154718
148838
148450
148475
148512
148552
148594
148638
148683
148730
148779
148830
148883
148938
148998
149066
149148
149254
149402
149604
149832
150002
150066
149903
149766
149741
150458
157333
234138
222532
153830
147804
147374
147364
147368
147376
147383
147391
147400
147410
147419
147429
147440
147452
147467
147489
147524
147585
147692
147860
148067
148222
148287
148088
147921
147896
148591
155579
228109
222829
153791
147671
147226
147207
147206
147207
147208
147209
147211
147212
147214
147216
147218
147221
147226
147238
147264
147317
147417
147581
147791
147947
148021
147792
147587
147550
148277
155603
228709
223305
153880
147667
147210
147188
147187
147187
147186
147186
147187
147187
147188
147188
147189
147190
147194
147204
147228
147280
147380
147546
147762
147924
148017
147795
147527
147475
148200
155640
229240
223774
153984
147678
147210
147186
147185
147185
147184
147184
147184
147185
147185
147185
147185
147186
147190
147200
147223
147275
147374
147539
147758
147921
148044
147838
147515
147451
148157
155568
229126
224207
154085
147691
147211
147186
147185
147184
147184
147184
147184
147184
147185
147185
147185
147186
147189
147199
147222
147273
147372
147534
147753
147916
148060
147884
147549
147443
148140
155493
229012
224598
154177
147702
147213
147186
147185
147184
147184
147184
147184
147184
147185
147185
147185
147186
147189
147198
147221
147271
147368
147526
147744
147904
148061
147919
147596
147438
148136
155444
228714
224950
154261
147713
147213
147186
147185
147184
147184
147184
147184
147184
147185
147185
147185
147186
147188
147197
147219
147267
147361
147513
147728
147886
148058
147948
147636
147509
148165
155450
228610
225271
154340
147723
147214
147186
147185
147184
147184
147184
147184
147184
147185
147185
147185
147186
147188
147196
147215
147261
147350
147493
147702
147854
148049
147986
147720
147650
148276
155499
228710
225564
154412
147732
147215
147186
147185
147184
147184
147184
147184
147185
147185
147185
147185
147185
147188
147195
147213
147254
147336
147471
147672
147820
148051
148101
147951
147997
148547
155670
228780
225829
154479
147740
147215
147186
147184
147184
147184
147184
147184
147185
147185
147185
147185
147185
147187
147194
147211
147248
147324
147447
147643
147823
148184
148513
148715
149001
149384
156220
229268
226076
154542
147749
147215
147186
147184
147184
147184
147185
147185
147185
147185
147185
147185
147185
147187
147193
147208
147243
147313
147433
147669
147997
148798
150281
152187
153013
152292
157952
230560
226295
154597
147755
147216
147186
147184
147184
147185
147185
147185
147185
147185
147185
147185
147185
147187
147192
147206
147239
147312
147471
147866
148873
152714
162241
170445
169594
162124
163702
234219
226488
154646
147761
147217
147185
147184
147185
147185
147185
147185
147185
147185
147185
147185
147185
147187
147191
147205
147242
147348
147663
148900
155622
183912
230552
240613
218926
189520
179646
243905
226662
154690
147767
147216
147186
147185
147185
147185
147185
147185
147185
147185
147185
147185
147185
147186
147191
147208
147268
147509
148620
157068
212224
335895
357787
321314
267120
216059
200429
269320
226815
154729
147772
147217
147186
147185
147185
147185
147185
147185
147185
147185
147185
147185
147185
147186
147193
147224
147381
148228
155518
226602
442939
494776
464468
416053
330217
249317
211444
283520
226947
154763
147777
147218
147186
147185
147185
147185
147185
147185
147185
147185
147185
147185
147185
147187
147202
147292
147825
152504
212381
500515
631673
628284
603372
549321
422428
308340
233252
285826
227061
154792
147780
147218
147186
147185
147185
147185
147185
147185
147185
147185
147185
147185
147185
147191
147236
147526
149926
185182
475649
743035
783213
799316
784706
728022
568652
416018
281830
286138
227156
154816
147783
147218
147186
147185
147185
147185
147185
147185
147185
147185
147185
147185
147187
147205
147343
148414
163342
361665
780831
916414
967655
1.01014e+06
1.02979e+06
990016
791663
582797
396952
266834
227234
154834
147786
147218
147186
147185
147185
147185
147185
147185
147185
147185
147185
147185
147192
147249
147677
152644
238376
729301
995004
1.09484e+06
1.18752e+06
1.28407e+06
1.36946e+06
1.4268e+06
1.20785e+06
921491
600914
278968
227296
154849
147788
147218
147186
147185
147185
147185
147185
147185
147185
147185
147185
147187
147207
147363
148852
175225
505344
995629
1.17951e+06
1.28683e+06
1.45316e+06
1.69645e+06
1.98538e+06
2.50203e+06
1.9916e+06
1.43302e+06
1.01238e+06
387228
227343
154860
147789
147219
147186
147185
147185
147185
147185
147185
147185
147185
147185
147191
147242
147669
153526
264104
855405
1.1814e+06
1.36471e+06
1.52942e+06
1.78676e+06
2.27563e+06
3.48344e+06
5.88052e+06
4.39076e+06
3.18932e+06
2.12257e+06
599380
227378
154867
147790
147219
147186
147185
147185
147185
147185
147185
147185
147185
147186
147200
147322
148529
171774
506506
1.09705e+06
1.36198e+06
1.5767e+06
1.8479e+06
2.30315e+06
3.27219e+06
6.81335e+06
1.2038e+07
1.5114e+07
1.19346e+07
1.06132e+07
2.21101e+06
239923
239812
239710
239609
239507
239406
239304
239203
239101
239000
238898
238797
238695
238594
238492
238391
238289
238188
238087
237985
237884
237782
237681
237580
237478
237377
237275
237174
237073
236971
236870
236769
236668
236566
236465
236364
236263
236161
236060
235959
235858
235757
235655
235554
235453
235352
235251
235150
235049
234948
234847
234746
234645
234544
234443
234342
234241
234140
234039
233938
233837
233736
233635
233534
233433
233333
233232
233131
233030
232930
232829
232728
232627
232527
232426
232325
232225
232124
232024
231923
231823
231722
231622
231521
231421
231320
231220
231119
231019
230919
230818
230718
230618
230517
230417
230317
230217
230116
230016
229916
229816
229716
229616
229516
229416
229316
229216
229116
229016
228916
228816
228716
228616
228517
228417
228317
228217
228118
228018
227918
227819
227719
227619
227512
227370
159541
159480
159432
159385
159338
159291
159245
159199
159153
159107
159062
159016
158971
158926
158881
158837
158792
158748
158704
158660
158616
158573
158529
158486
158443
158400
158357
158315
158273
158230
158188
158146
158105
158063
158022
157981
157940
157899
157858
157818
157777
157737
157697
157657
157617
157578
157538
157499
157460
157421
157382
157344
157305
157267
157229
157191
157153
157115
157078
157040
157003
156966
156929
156892
156855
156819
156782
156746
156710
156674
156638
156603
156567
156532
156497
156462
156427
156392
156357
156323
156288
156254
156220
156186
156152
156118
156085
156051
156018
155985
155952
155919
155886
155853
155821
155788
155756
155724
155692
155660
155628
155597
155565
155534
155503
155471
155440
155410
155379
155348
155318
155287
155257
155227
155197
155167
155137
155108
155078
155049
155019
154990
154961
154930
154894
148632
148618
148607
148597
148587
148577
148567
148557
148547
148537
148528
148518
148509
148499
148490
148480
148471
148462
148453
148444
148435
148426
148417
148409
148400
148391
148383
148374
148366
148358
148349
148341
148333
148325
148317
148309
148301
148293
148285
148278
148270
148262
148255
148247
148240
148233
148225
148218
148211
148204
148197
148189
148182
148176
148169
148162
148155
148148
148142
148135
148128
148122
148115
148109
148103
148096
148090
148084
148078
148071
148065
148059
148053
148047
148041
148036
148030
148024
148018
148012
148007
148001
147996
147990
147985
147979
147974
147968
147963
147958
147953
147947
147942
147937
147932
147927
147922
147917
147912
147907
147902
147897
147893
147888
147883
147878
147874
147869
147864
147860
147855
147851
147846
147842
147838
147833
147829
147825
147820
147816
147812
147808
147804
147799
147794
147308
147306
147305
147303
147302
147301
147300
147298
147297
147296
147295
147294
147292
147291
147290
147289
147288
147287
147286
147285
147284
147282
147281
147280
147279
147278
147277
147276
147275
147275
147274
147273
147272
147271
147270
147269
147268
147267
147266
147266
147265
147264
147263
147262
147261
147261
147260
147259
147258
147258
147257
147256
147255
147255
147254
147253
147252
147252
147251
147250
147250
147249
147248
147248
147247
147246
147246
147245
147245
147244
147243
147243
147242
147242
147241
147240
147240
147239
147239
147238
147238
147237
147237
147236
147236
147235
147235
147234
147234
147233
147233
147232
147232
147231
147231
147230
147230
147229
147229
147229
147228
147228
147227
147227
147226
147226
147226
147225
147225
147224
147224
147224
147223
147223
147223
147222